977 TIP4P/2005f water molecules t=   1.51000 step= 1510
 3908
    1SOL     OW    1   0.366   0.849   0.076  0.4221 -0.3096  0.3267
    1SOL    HW1    2   0.343   0.817  -0.012 -2.0375 -2.6145 -0.1332
    1SOL    HW2    3   0.341   0.770   0.125  3.1989 -2.7760 -1.8930
    1SOL     MW    4   0.360   0.834   0.071  0.4639 -0.9392 -0.0268
    2SOL     OW    5   0.301   3.031   1.097  0.1637 -0.4033  0.0642
    2SOL    HW1    6   0.353   3.110   1.079 -2.0060  2.0179 -3.1689
    2SOL    HW2    7   0.213   3.066   1.096  2.2732 -0.2968 -2.1993
    2SOL     MW    8   0.297   3.046   1.095  0.1557 -0.0698 -0.6610
    3SOL     OW    9   2.628   0.337   0.965 -0.0706  0.0184  0.1023
    3SOL    HW1   10   2.668   0.411   0.915  1.2948 -4.4884  3.6750
    3SOL    HW2   11   2.631   0.368   1.054  0.3716 -2.6732  0.5739
    3SOL     MW   12   2.634   0.351   0.970  0.1679 -0.9314  0.6359
    4SOL     OW   13   3.043   1.714   0.529 -1.0833  0.1491  0.0163
    4SOL    HW1   14   2.968   1.764   0.498 -0.1172 -1.5637 -0.6908
    4SOL    HW2   15   3.090   1.689   0.451 -1.4152 -2.6668 -0.2083
    4SOL     MW   16   3.040   1.717   0.514 -0.9996 -0.4484 -0.1066
    5SOL     OW   17   1.634   1.452   0.637 -0.2012 -0.5218 -0.0094
    5SOL    HW1   18   1.655   1.419   0.725  1.4729 -1.8011  3.3479
    5SOL    HW2   19   1.535   1.473   0.655 -1.4757 -1.8998  1.5822
    5SOL     MW   20   1.624   1.451   0.651 -0.1485 -0.8724  0.6436
    6SOL     OW   21   0.783   1.432   0.588 -0.2782  0.0254 -0.1711
    6SOL    HW1   22   0.684   1.430   0.572 -2.1558 -1.2831 -1.6143
    6SOL    HW2   23   0.798   1.355   0.639  0.5897  3.3105  1.6353
    6SOL     MW   24   0.772   1.422   0.593 -0.4114  0.2862 -0.1232
    7SOL     OW   25   1.967   1.047   0.032 -0.5980 -0.3925  0.3530
    7SOL    HW1   26   2.016   1.122  -0.010  2.0568  2.3086  1.5975
    7SOL    HW2   27   2.001   1.045   0.120 -1.5247 -0.7854  0.9479
    7SOL     MW   28   1.978   1.056   0.038 -0.3700 -0.0880  0.5957
    8SOL     OW   29   0.776   1.498   1.152 -0.1199 -0.1136 -0.2440
    8SOL    HW1   30   0.873   1.509   1.161 -0.3156 -2.1963 -2.9454
    8SOL    HW2   31   0.753   1.411   1.186  1.2831 -0.1847  2.5470
    8SOL     MW   32   0.786   1.488   1.157  0.0394 -0.3978 -0.2322
    9SOL     OW   33   1.019   0.474   1.307 -0.4239  0.2496 -0.0534
    9SOL    HW1   34   0.958   0.406   1.288  2.6696  1.1511  0.3804
    9SOL    HW2   35   1.040   0.446   1.400 -0.9179 -0.7320  0.0426
    9SOL     MW   36   1.014   0.461   1.317 -0.0809  0.2390  0.0165
   10SOL     OW   37   0.279   0.867   0.506  0.3200  0.1527 -0.2576
   10SOL    HW1   38   0.372   0.885   0.476 -0.8613  0.5642 -1.6328
   10SOL    HW2   39   0.261   0.902   0.593 -1.9295  2.2142 -2.7021
   10SOL     MW   40   0.289   0.874   0.514 -0.1327  0.4790 -0.7616
   11SOL     OW   41   0.762   1.131   1.560  0.4273 -0.1309 -0.0448
   11SOL    HW1   42   0.838   1.126   1.624 -2.8251 -0.4387  0.0021
   11SOL    HW2   43   0.770   1.041   1.512  2.3573  2.2525 -3.1596
   11SOL     MW   44   0.773   1.118   1.562  0.2528  0.1429 -0.4496
   12SOL     OW   45   3.088   1.124   0.858  0.0398 -0.6163 -0.1684
   12SOL    HW1   46   3.134   1.202   0.891  1.4933 -1.5571  0.0802
   12SOL    HW2   47   3.043   1.174   0.782  0.1495  0.4587 -0.5538
   12SOL     MW   48   3.088   1.141   0.852  0.2460 -0.5986 -0.1864
   13SOL     OW   49   1.847   1.424   1.285 -0.1424  0.4309  0.2946
   13SOL    HW1   50   1.854   1.366   1.207 -1.3944 -1.3662 -1.8129
   13SOL    HW2   51   1.889   1.503   1.267  1.6367 -1.2775  1.9714
   13SOL     MW   52   1.853   1.427   1.272 -0.0728 -0.0316  0.2377
   14SOL     OW   53   0.555   0.352   1.869 -0.6250  0.6430 -0.6664
   14SOL    HW1   54   0.491   0.279   1.850  0.0006  2.8744 -1.1923
   14SOL    HW2   55   0.576   0.390   1.785  0.7744 -3.6852 -3.0655
   14SOL     MW   56   0.549   0.347   1.855 -0.3578  0.3664 -1.0523
   15SOL     OW   57   2.003   0.380   1.074  0.2968  0.3208 -0.0546
   15SOL    HW1   58   1.986   0.459   1.125 -3.4081  1.5635 -1.1838
   15SOL    HW2   59   2.043   0.421   1.001 -0.0911 -0.1029  0.1591
   15SOL     MW   60   2.006   0.396   1.071 -0.2432  0.4288 -0.1754
   16SOL     OW   61   0.272   1.838   0.244  1.1068 -0.0383  0.4941
   16SOL    HW1   62   0.359   1.811   0.269  2.0516  3.2502 -0.4790
   16SOL    HW2   63   0.259   1.929   0.280 -0.8005  0.1415 -1.4703
   16SOL     MW   64   0.282   1.846   0.252  0.9798  0.4193  0.1065
   17SOL     OW   65   1.100   0.906   1.406  0.6738 -0.4482  0.2161
   17SOL    HW1   66   1.105   0.891   1.498  0.4972 -0.5232 -1.5546
   17SOL    HW2   67   1.004   0.909   1.397  0.9133  0.3516 -1.2893
   17SOL     MW   68   1.088   0.904   1.417  0.6821 -0.3526 -0.2161
   18SOL     OW   69   0.114   1.600   0.337  0.1280  0.0689 -0.3882
   18SOL    HW1   70   0.147   1.692   0.325  2.0438  3.1774 -1.1314
   18SOL    HW2   71   0.106   1.566   0.242 -2.6137 -0.8945 -3.5362
   18SOL     MW   72   0.118   1.608   0.323  0.0191  0.3519 -0.9016
   19SOL     OW   73   0.089   1.351   0.928  0.0759  0.0307  0.3526
   19SOL    HW1   74   0.142   1.363   0.845  0.9826 -2.2333  1.4985
   19SOL    HW2   75   0.013   1.404   0.939  2.1940 -2.4402 -0.2391
   19SOL     MW   76   0.086   1.360   0.918  0.4750 -0.5940  0.4257
   20SOL     OW   77   0.445   2.155   1.241  0.5161 -0.5546  0.4704
   20SOL    HW1   78   0.399   2.084   1.190 -0.8585 -0.5606 -2.9866
   20SOL    HW2   79   0.418   2.160   1.333  0.9092 -0.6048 -0.4710
   20SOL     MW   80   0.435   2.146   1.246  0.3866 -0.5620 -0.1100
   21SOL     OW   81   0.537   0.876   0.435  0.0287 -0.2686  0.0352
   21SOL    HW1   82   0.592   0.817   0.482 -1.6613 -1.1252  1.0932
   21SOL    HW2   83   0.588   0.917   0.359 -0.8241  0.1130 -4.4718
   21SOL     MW   84   0.551   0.874   0.431 -0.3068 -0.3313 -0.4199
   22SOL     OW   85   1.563   0.697   0.986 -0.4528  0.0734  0.1687
   22SOL    HW1   86   1.532   0.651   0.909 -1.1428 -4.2834  0.3926
   22SOL    HW2   87   1.489   0.760   1.005 -1.7443 -0.9382  0.7395
   22SOL     MW   88   1.549   0.699   0.978 -0.7142 -0.6349  0.2735
   23SOL     OW   89   0.006   0.743   0.715  0.4030  0.7989 -0.1242
   23SOL    HW1   90   0.063   0.678   0.760 -2.6649 -0.6583  2.2202
   23SOL    HW2   91   0.054   0.824   0.703 -1.2626 -0.2536 -0.2217
   23SOL     MW   92   0.020   0.745   0.719 -0.2215  0.4678  0.1722
   24SOL     OW   93   2.088   2.187   0.023  0.2427 -0.3653 -0.1127
   24SOL    HW1   94   2.075   2.179   0.122 -1.0373 -2.2029 -2.9365
   24SOL    HW2   95   2.075   2.103  -0.017 -2.8719  0.0591  0.5349
   24SOL     MW   96   2.084   2.175   0.031 -0.3371 -0.5517 -0.3998
   25SOL     OW   97   0.206   1.345   0.438 -0.4242  0.6569  0.4730
   25SOL    HW1   98   0.187   1.436   0.406 -1.7380  0.4316 -0.6031
   25SOL    HW2   99   0.230   1.284   0.367  1.9778 -0.3004 -1.1448
   25SOL     MW  100   0.207   1.349   0.424 -0.2806  0.5009  0.1175
   26SOL     OW  101   2.013   1.001   0.306 -0.4366  0.4536 -0.1294
   26SOL    HW1  102   1.947   1.020   0.373  0.3362 -2.6992 -0.2111
   26SOL    HW2  103   2.076   1.067   0.308 -0.0085 -4.4617 -2.5855
   26SOL     MW  104   2.013   1.012   0.315 -0.2781 -0.6109 -0.4642
   27SOL     OW  105   1.872   1.336   0.160  0.1105 -0.3451  0.4571
   27SOL    HW1  106   1.806   1.400   0.190  1.8167  0.3021 -0.4573
   27SOL    HW2  107   1.937   1.344   0.228  0.6219  0.5068  0.0244
   27SOL     MW  108   1.872   1.346   0.173  0.4031 -0.1473  0.2794
   28SOL     OW  109   0.423   0.948   1.990 -0.5018 -0.7434  0.2410
   28SOL    HW1  110   0.467   0.924   2.069 -1.0405  0.1378 -0.9509
   28SOL    HW2  111   0.336   0.923   2.014  0.5396  1.3334 -0.8556
   28SOL     MW  112   0.417   0.941   2.003 -0.4355 -0.3532 -0.0610
   29SOL     OW  113   0.252   1.380   0.716 -0.7050  0.0818 -0.2653
   29SOL    HW1  114   0.260   1.472   0.725 -0.2305 -1.0663  0.2994
   29SOL    HW2  115   0.228   1.363   0.625  3.9923 -1.5503 -0.1940
   29SOL     MW  116   0.250   1.390   0.705 -0.0226 -0.2850 -0.1814
   30SOL     OW  117   0.813   1.244   1.257  0.0849 -0.0601  0.1104
   30SOL    HW1  118   0.728   1.219   1.295  1.1207  0.8500  1.8458
   30SOL    HW2  119   0.876   1.222   1.325 -4.5358  0.4050 -0.0867
   30SOL     MW  120   0.810   1.238   1.271 -0.3881  0.1213  0.3134
   31SOL     OW  121   0.456   0.291   0.163  0.5857 -0.0652  0.4990
   31SOL    HW1  122   0.457   0.219   0.224  1.4106  0.6734  0.9630
   31SOL    HW2  123   0.482   0.256   0.075  1.3957 -2.0818  0.7663
   31SOL     MW  124   0.459   0.277   0.159  0.8014 -0.2338  0.5955
   32SOL     OW  125   2.704   0.998   1.131 -0.0952  0.1260 -0.5910
   32SOL    HW1  126   2.645   0.922   1.144  3.7232  0.8851 -1.6953
   32SOL    HW2  127   2.786   0.964   1.088  2.8487  1.6628  1.6333
   32SOL     MW  128   2.707   0.983   1.127  0.7970  0.4289 -0.4433
   33SOL     OW  129   1.660   1.287   0.397  0.2885 -0.4351 -0.3884
   33SOL    HW1  130   1.747   1.243   0.417  0.0959  1.9480 -2.5561
   33SOL    HW2  131   1.632   1.345   0.467 -0.5444  0.1724 -0.3332
   33SOL     MW  132   1.668   1.289   0.409  0.1532 -0.0405 -0.6671
   34SOL     OW  133   1.221   1.923   1.163  0.0465 -0.5311  0.3590
   34SOL    HW1  134   1.150   1.972   1.196 -0.7842  0.7955 -1.2406
   34SOL    HW2  135   1.298   1.971   1.209  0.0654  4.0941  0.8879
   34SOL     MW  136   1.222   1.936   1.174 -0.0606  0.2542  0.2178
   35SOL     OW  137   0.337   0.144   1.832  0.5144 -0.5442 -0.2848
   35SOL    HW1  138   0.364   0.101   1.915 -0.1322  1.8184 -0.1017
   35SOL    HW2  139   0.338   0.079   1.763 -0.2370  0.6617  0.6920
   35SOL     MW  140   0.340   0.130   1.834  0.3299 -0.0734 -0.1318
   36SOL     OW  141   1.937   1.949   0.578  0.1396 -0.1499 -0.2409
   36SOL    HW1  142   1.917   1.910   0.492 -0.9848  1.8232  0.4741
   36SOL    HW2  143   1.926   1.889   0.645 -1.3872  2.2040 -0.8431
   36SOL     MW  144   1.933   1.936   0.575 -0.2102  0.4210 -0.2260
   37SOL     OW  145   1.839   2.041   1.040  0.1858  0.2221 -0.0895
   37SOL    HW1  146   1.776   1.996   0.983 -2.2568  2.9197  0.0814
   37SOL    HW2  147   1.779   2.100   1.090 -3.0430  1.4838 -0.0807
   37SOL     MW  148   1.823   2.043   1.039 -0.5625  0.7445 -0.0658
   38SOL     OW  149   2.858   0.935   0.173  0.2278  0.3879  0.0818
   38SOL    HW1  150   2.862   0.949   0.268 -2.7529  2.0261 -0.3354
   38SOL    HW2  151   2.939   0.881   0.152  0.9441 -2.0972  0.3657
   38SOL     MW  152   2.869   0.930   0.183 -0.0709  0.2762  0.0642
   39SOL     OW  153   1.477   0.598   0.751 -0.4674  0.0625  0.5073
   39SOL    HW1  154   1.423   0.525   0.784  0.6969 -1.8705  0.1724
   39SOL    HW2  155   1.420   0.669   0.746  1.0329  1.2529 -1.2714
   39SOL     MW  156   1.463   0.598   0.755 -0.1158 -0.0355  0.2284
   40SOL     OW  157   1.279   1.886   0.265 -0.2119 -0.4525  0.3054
   40SOL    HW1  158   1.343   1.833   0.317  1.0594 -2.0880  0.0649
   40SOL    HW2  159   1.238   1.945   0.327  1.5536 -1.1392  0.6847
   40SOL     MW  160   1.282   1.887   0.280  0.1888 -0.7589  0.3237
   41SOL     OW  161   0.550   0.543   1.615 -0.4792 -0.0281  0.0874
   41SOL    HW1  162   0.637   0.564   1.577 -0.0497  1.2883 -1.8470
   41SOL    HW2  163   0.496   0.626   1.589  0.3315  0.4977 -1.3091
   41SOL     MW  164   0.554   0.557   1.607 -0.3156  0.2150 -0.3521
   42SOL     OW  165   1.252   2.988   1.941 -0.6631 -0.3043  0.2889
   42SOL    HW1  166   1.169   3.013   1.977 -0.9157 -2.9156 -1.8637
   42SOL    HW2  167   1.279   2.903   1.978  2.6050 -0.3690 -0.6344
   42SOL     MW  168   1.244   2.980   1.950 -0.2652 -0.6573 -0.1170
   43SOL     OW  169   1.488   0.127   1.685 -0.4162 -0.1851 -0.2315
   43SOL    HW1  170   1.558   0.075   1.657 -0.0767  1.6768  0.9189
   43SOL    HW2  171   1.414   0.071   1.662 -0.1818 -2.1805  0.0067
   43SOL     MW  172   1.487   0.113   1.679 -0.3405 -0.2027 -0.0483
   44SOL     OW  173   1.261   0.775   1.056 -0.6131  0.3890  0.0270
   44SOL    HW1  174   1.245   0.873   1.042  0.8580  2.0028  1.0033
   44SOL    HW2  175   1.269   0.753   1.150  2.7606 -1.7892  0.1925
   44SOL     MW  176   1.260   0.785   1.066  0.0262  0.3145  0.1777
   45SOL     OW  177   1.278   0.780   0.765  0.1702  0.8098 -0.0376
   45SOL    HW1  178   1.244   0.768   0.853  0.7164 -1.9477  0.4664
   45SOL    HW2  179   1.217   0.739   0.696 -0.2423 -3.1678 -0.2872
   45SOL     MW  180   1.265   0.773   0.767  0.1879 -0.0788 -0.0040
   46SOL     OW  181   0.501   1.075   0.642 -0.3373 -0.2347  0.1409
   46SOL    HW1  182   0.515   1.100   0.548 -0.8232 -1.3980  0.4708
   46SOL    HW2  183   0.534   1.152   0.696  2.2107 -2.4179  1.2791
   46SOL     MW  184   0.507   1.089   0.637 -0.0652 -0.6762  0.3346
   47SOL     OW  185   0.144   1.986   1.919  0.0672  0.6979 -1.1712
   47SOL    HW1  186   0.111   1.923   1.851 -3.1508  1.8996 -0.2285
   47SOL    HW2  187   0.118   1.953   2.000 -1.2959  1.2856 -0.0318
   47SOL     MW  188   0.136   1.973   1.920 -0.5372  0.9340 -0.8965
   48SOL     OW  189   1.173   0.500   1.028 -0.0632  0.1472  0.1558
   48SOL    HW1  190   1.090   0.515   0.990  1.3064  0.2545  0.9799
   48SOL    HW2  191   1.210   0.592   1.033  0.2953  2.3936 -0.0416
   48SOL     MW  192   1.167   0.514   1.024  0.1648  0.4577  0.2385
   49SOL     OW  193   1.696   0.656   1.553  0.2329  0.4428 -0.2759
   49SOL    HW1  194   1.729   0.597   1.622  0.4378  1.0882 -1.0652
   49SOL    HW2  195   1.709   0.612   1.469 -1.2257  0.0038 -0.9169
   49SOL     MW  196   1.702   0.642   1.551  0.0674  0.4701 -0.4646
   50SOL     OW  197   1.275   1.239   0.594 -0.2187 -0.2988 -0.0810
   50SOL    HW1  198   1.222   1.217   0.667 -1.5628 -0.6819  2.1435
   50SOL    HW2  199   1.341   1.174   0.594  2.3845 -0.2275  0.6673
   50SOL     MW  200   1.277   1.228   0.604 -0.0526 -0.3399  0.3112
   51SOL     OW  201   0.319   2.899   0.848  0.0040 -0.4386 -0.5051
   51SOL    HW1  202   0.407   2.850   0.840 -0.6552 -0.6938  1.7035
   51SOL    HW2  203   0.314   2.949   0.930  1.5319 -3.9793  1.9682
   51SOL     MW  204   0.330   2.899   0.858  0.1186 -0.9394  0.1126
   52SOL     OW  205   0.815   1.819   0.461 -0.1694 -0.2660 -0.0432
   52SOL    HW1  206   0.790   1.914   0.476  0.8118 -0.6508  0.6869
   52SOL    HW2  207   0.821   1.805   0.366  1.4925 -1.3161 -0.4893
   52SOL     MW  208   0.812   1.830   0.450  0.1793 -0.4553 -0.0057
   53SOL     OW  209   0.444   2.180   0.509  0.1048  0.3236  0.4173
   53SOL    HW1  210   0.354   2.167   0.487 -0.5739  0.8213  0.2204
   53SOL    HW2  211   0.443   2.270   0.553  0.9213 -0.6205 -1.6285
   53SOL     MW  212   0.432   2.190   0.512  0.1230  0.2647  0.1214
   54SOL     OW  213   2.050   0.967   0.730 -0.4682  0.3333 -0.4231
   54SOL    HW1  214   2.115   0.943   0.662 -0.9938  0.0537 -0.9008
   54SOL    HW2  215   2.035   0.882   0.768 -1.0232  0.5425 -2.1069
   54SOL     MW  216   2.057   0.952   0.726 -0.6108  0.3240 -0.7083
   55SOL     OW  217   0.477   1.531   1.681 -0.2497 -0.7045 -0.3281
   55SOL    HW1  218   0.447   1.578   1.605  1.8878  1.3560  2.4138
   55SOL    HW2  219   0.552   1.478   1.666 -3.0368 -1.7807 -0.1885
   55SOL     MW  220   0.483   1.530   1.669 -0.3354 -0.5746  0.0521
   56SOL     OW  221   0.647   0.891   0.185  0.0135  0.0141 -0.2203
   56SOL    HW1  222   0.686   0.963   0.135 -0.4743  0.5763  1.3559
   56SOL    HW2  223   0.557   0.883   0.156 -0.9453  0.7816  1.8670
   56SOL     MW  224   0.640   0.899   0.175 -0.1773  0.1896  0.2631
   57SOL     OW  225   1.133   1.259   1.134 -0.4877 -0.2406 -0.7423
   57SOL    HW1  226   1.226   1.284   1.155 -1.9652  0.5261  1.3859
   57SOL    HW2  227   1.109   1.242   1.227  1.2381  2.6554  0.2414
   57SOL     MW  228   1.142   1.260   1.149 -0.4549  0.2427 -0.3317
   58SOL     OW  229   0.490   1.256   1.258 -0.8153 -0.4210 -0.0300
   58SOL    HW1  230   0.458   1.347   1.251  1.5299  0.5730 -1.0012
   58SOL    HW2  231   0.495   1.256   1.350 -1.3664  0.9757 -1.9805
   58SOL     MW  232   0.486   1.268   1.269 -0.5786 -0.1056 -0.4155
   59SOL     OW  233   1.444   1.682   0.344 -0.2441  0.7149  0.5187
   59SOL    HW1  234   1.497   1.715   0.417  1.2087 -0.8603  2.7536
   59SOL    HW2  235   1.358   1.663   0.379 -1.8290 -0.4560  0.5291
   59SOL     MW  236   1.440   1.684   0.358 -0.2616  0.3526  0.8149
   60SOL     OW  237   3.055   0.187   1.696  0.2193  0.4345 -0.6094
   60SOL    HW1  238   2.971   0.227   1.732 -1.4649 -1.3852  0.8630
   60SOL    HW2  239   3.047   0.086   1.706  0.4207  0.4340 -0.8688
   60SOL     MW  240   3.043   0.179   1.702  0.0236  0.1943 -0.4493
   61SOL     OW  241   1.967   1.397   3.008  0.0950  0.1320 -0.6293
   61SOL    HW1  242   1.945   1.367   3.101  3.4357  0.9776  2.7394
   61SOL    HW2  243   2.027   1.324   2.986 -1.2991  1.8383 -2.5344
   61SOL     MW  244   1.972   1.384   3.017  0.3518  0.4687 -0.4362
   62SOL     OW  245   0.557   1.728   0.591  0.6927 -0.1012  0.4324
   62SOL    HW1  246   0.645   1.756   0.560  2.1963 -0.5483  0.6551
   62SOL    HW2  247   0.552   1.635   0.589 -2.0173 -2.1125 -0.4790
   62SOL     MW  248   0.568   1.720   0.586  0.5335 -0.4255  0.3416
   63SOL     OW  249   1.730   0.671   0.650  0.3544  0.2353 -0.0434
   63SOL    HW1  250   1.711   0.767   0.635  1.7390  0.8093 -0.6861
   63SOL    HW2  251   1.644   0.632   0.679  0.2343 -0.0322  0.1475
   63SOL     MW  252   1.716   0.679   0.652  0.5212  0.2757 -0.1030
   64SOL     OW  253   0.232   1.648   0.761 -0.4653  0.5314  0.1242
   64SOL    HW1  254   0.304   1.707   0.766  1.1723 -1.5360 -2.5966
   64SOL    HW2  255   0.155   1.703   0.764 -1.3820 -2.8027  0.7142
   64SOL     MW  256   0.231   1.663   0.762 -0.3702 -0.1813 -0.1569
   65SOL     OW  257   1.513   2.318   0.348 -0.3595  0.0423 -0.1286
   65SOL    HW1  258   1.603   2.315   0.375 -0.4499 -0.3840 -1.7305
   65SOL    HW2  259   1.462   2.356   0.420 -1.9604  2.0213  2.7477
   65SOL     MW  260   1.518   2.323   0.361 -0.5827  0.2471  0.0396
   66SOL     OW  261   0.333   0.581   0.474  0.6729  0.5973  0.1945
   66SOL    HW1  262   0.380   0.573   0.392 -0.1291 -0.2341  0.3065
   66SOL    HW2  263   0.340   0.681   0.473 -1.1098  0.0916 -1.3890
   66SOL     MW  264   0.340   0.593   0.463  0.3319  0.4209  0.0004
   67SOL     OW  265   1.473   0.069   1.974  0.1299 -0.2008  0.3322
   67SOL    HW1  266   1.493   0.109   1.893  0.6498  0.3751  0.3232
   67SOL    HW2  267   1.444  -0.021   1.949 -0.5024 -0.1302  2.4274
   67SOL     MW  268   1.472   0.063   1.960  0.1151 -0.1155  0.6075
   68SOL     OW  269   0.793   3.089   2.973  0.5133 -0.2561  0.2020
   68SOL    HW1  270   0.810   3.116   2.882 -0.1958  3.1437  2.1094
   68SOL    HW2  271   0.865   3.132   3.015  1.3157 -1.1627  0.1685
   68SOL     MW  272   0.805   3.098   2.967  0.5256  0.0729  0.4492
   69SOL     OW  273   0.967   0.212   1.957  0.2128  0.2811 -0.0448
   69SOL    HW1  274   1.046   0.210   2.010  2.1880 -0.0154 -3.6690
   69SOL    HW2  275   0.941   0.118   1.956  0.4811  1.3644 -0.1981
   69SOL     MW  276   0.974   0.199   1.964  0.5088  0.3849 -0.5432
   70SOL     OW  277   0.497   1.743   1.065  0.1346  0.5997 -0.3938
   70SOL    HW1  278   0.580   1.793   1.057 -0.0692  3.3936  3.5132
   70SOL    HW2  279   0.500   1.674   0.997  0.7309  1.0148  2.1185
   70SOL     MW  280   0.508   1.740   1.055  0.1864  1.0231  0.4531
   71SOL     OW  281   1.478   0.533   1.187  0.1231 -0.1454  0.2318
   71SOL    HW1  282   1.448   0.603   1.243  0.0984  0.2780  0.4902
   71SOL    HW2  283   1.495   0.583   1.107 -0.7232  1.0402  1.8510
   71SOL     MW  284   1.476   0.549   1.184  0.0081  0.0669  0.4795
   72SOL     OW  285   0.738   1.854   1.031  0.3405 -0.0848 -0.0415
   72SOL    HW1  286   0.715   1.905   0.955 -3.4607 -1.3330  0.4702
   72SOL    HW2  287   0.783   1.776   1.002 -1.4707  1.3296 -0.4985
   72SOL     MW  288   0.741   1.850   1.017 -0.4000 -0.0628 -0.0343
   73SOL     OW  289   1.223   0.675   1.345 -0.4533  0.3762  0.0127
   73SOL    HW1  290   1.160   0.612   1.302 -0.8439 -4.3682 -2.9041
   73SOL    HW2  291   1.179   0.762   1.367  0.1448  1.1614 -1.4664
   73SOL     MW  292   1.209   0.678   1.342 -0.4260 -0.1462 -0.5673
   74SOL     OW  293   2.887   0.176   1.038 -0.3462 -0.6783 -0.6943
   74SOL    HW1  294   2.973   0.201   1.004 -1.0935 -2.6741  1.7444
   74SOL    HW2  295   2.820   0.196   0.973  0.3173  1.9054  1.1262
   74SOL     MW  296   2.889   0.182   1.025 -0.3573 -0.6008 -0.1323
   75SOL     OW  297   1.588   1.346   0.140 -0.0824 -0.0114  0.7843
   75SOL    HW1  298   1.650   1.283   0.110 -0.8714  0.5459  2.4237
   75SOL    HW2  299   1.594   1.333   0.239 -0.2717  0.3176 -0.8995
   75SOL     MW  300   1.597   1.336   0.149 -0.2115  0.1055  0.7784
   76SOL     OW  301   2.986   0.633   0.457  0.6492 -0.4303  0.3906
   76SOL    HW1  302   3.015   0.663   0.545  1.3979 -1.8405  0.7476
   76SOL    HW2  303   3.073   0.592   0.430 -2.2925 -1.1157 -1.3285
   76SOL     MW  304   3.002   0.631   0.465  0.3599 -0.7068  0.2109
   77SOL     OW  305   0.872   0.601   0.411 -0.1130 -0.1164  0.3374
   77SOL    HW1  306   0.821   0.620   0.331 -0.6203  2.8760  2.0367
   77SOL    HW2  307   0.867   0.511   0.436 -0.4473  0.0937 -0.2418
   77SOL     MW  308   0.865   0.591   0.404 -0.2240  0.3061  0.4852
   78SOL     OW  309   0.725   0.856   1.133  0.3010 -0.4248 -0.7492
   78SOL    HW1  310   0.752   0.935   1.075 -0.0934  1.0441  1.5145
   78SOL    HW2  311   0.632   0.837   1.125 -1.3715  1.6785  2.3562
   78SOL     MW  312   0.716   0.864   1.124  0.0283  0.0465 -0.0408
   79SOL     OW  313   1.857   1.599   0.575  0.2492 -0.6694 -0.4608
   79SOL    HW1  314   1.776   1.547   0.572 -2.3350 -2.5462 -1.3385
   79SOL    HW2  315   1.868   1.609   0.668  0.5757  1.0083  1.5973
   79SOL     MW  316   1.848   1.594   0.587 -0.0487 -0.6956 -0.3051
   80SOL     OW  317   0.088   0.979   0.361  0.4836  0.1738 -0.4640
   80SOL    HW1  318   0.007   0.951   0.399 -0.5452 -1.5444  0.4451
   80SOL    HW2  319   0.151   0.922   0.402 -0.6897 -0.2879  0.6985
   80SOL     MW  320   0.086   0.968   0.371  0.1931 -0.1138 -0.1907
   81SOL     OW  321   1.826   1.836   0.334 -0.4338  0.0218 -0.1973
   81SOL    HW1  322   1.790   1.760   0.297 -1.0794  0.7155  1.0153
   81SOL    HW2  323   1.799   1.905   0.274 -0.3862 -0.1978  1.2432
   81SOL     MW  324   1.817   1.835   0.321 -0.5127  0.0843  0.1527
   82SOL     OW  325   0.881   1.017   0.519  0.2264  0.0933 -0.0592
   82SOL    HW1  326   0.866   1.038   0.425 -1.3079 -0.6121 -0.3388
   82SOL    HW2  327   0.830   0.935   0.524  0.8572  0.3494  2.4434
   82SOL     MW  328   0.873   1.009   0.507  0.1072  0.0340  0.2341
   83SOL     OW  329   0.035   0.777   1.514 -0.1486  0.1501  0.9309
   83SOL    HW1  330   0.012   0.825   1.434 -1.3377  0.4619 -0.6307
   83SOL    HW2  331   0.098   0.706   1.493  1.7226 -2.8238  2.0576
   83SOL     MW  332   0.040   0.774   1.500 -0.0586 -0.2012  0.8736
   84SOL     OW  333   0.046   0.199   0.914  0.1687  0.0555  0.1083
   84SOL    HW1  334   0.043   0.294   0.943 -1.5931  1.3569 -0.1629
   84SOL    HW2  335   0.064   0.136   0.986  2.7175  0.2906  2.4835
   84SOL     MW  336   0.048   0.203   0.927  0.2726  0.2582  0.3859
   85SOL     OW  337   0.405   0.463   0.720 -0.2844  0.0272 -0.2185
   85SOL    HW1  338   0.397   0.488   0.630 -2.4716 -0.0789 -0.0599
   85SOL    HW2  339   0.367   0.376   0.730  2.6008  0.8492 -0.3366
   85SOL     MW  340   0.399   0.454   0.709 -0.1923  0.1217 -0.2131
   86SOL     OW  341   1.201   0.247   1.137 -0.1505 -0.2636  0.0724
   86SOL    HW1  342   1.177   0.339   1.125  0.8719  0.4641 -2.2531
   86SOL    HW2  343   1.287   0.246   1.179 -2.6490 -0.6502 -1.6789
   86SOL     MW  344   1.209   0.259   1.141 -0.3452 -0.2186 -0.4655
   87SOL     OW  345   1.046   1.511   1.195 -0.1657  0.1237  0.3541
   87SOL    HW1  346   1.101   1.582   1.153 -1.1552 -2.3306 -0.6244
   87SOL    HW2  347   1.076   1.430   1.151  0.1230  0.1650 -1.8256
   87SOL     MW  348   1.057   1.510   1.184 -0.2581 -0.1947 -0.0626
   88SOL     OW  349   1.252   1.045   1.022 -0.0805  0.9083  0.3405
   88SOL    HW1  350   1.344   1.066   1.020  1.8423  0.3974  0.2502
   88SOL    HW2  351   1.210   1.108   1.085  0.0558  1.6001  1.1856
   88SOL     MW  352   1.258   1.056   1.030  0.1912  0.9321  0.4401
   89SOL     OW  353   1.751   0.737   0.305 -0.3943 -0.0879 -0.8148
   89SOL    HW1  354   1.719   0.665   0.355  0.0759  1.7045  0.7901
   89SOL    HW2  355   1.851   0.729   0.297 -0.5382  0.6420  0.2378
   89SOL     MW  356   1.760   0.727   0.310 -0.3513  0.2449 -0.4642
   90SOL     OW  357   0.847   1.200   2.893 -0.7453  0.2614  0.4718
   90SOL    HW1  358   0.908   1.132   2.907  0.7411  2.2341  0.7445
   90SOL    HW2  359   0.840   1.261   2.971  2.1132 -1.4672  0.0727
   90SOL     MW  360   0.854   1.199   2.905 -0.1721  0.2936  0.4551
   91SOL     OW  361   2.187   0.655   0.448 -0.1472 -0.6119 -0.0759
   91SOL    HW1  362   2.278   0.672   0.403  2.5889 -1.1655  0.4296
   91SOL    HW2  363   2.170   0.562   0.436  0.2851  1.2919 -1.2663
   91SOL     MW  364   2.197   0.645   0.441  0.2708 -0.4337 -0.1663
   92SOL     OW  365   1.641   0.940   0.580 -0.3702  0.6335  0.0630
   92SOL    HW1  366   1.576   0.965   0.645  0.6689  1.6553 -1.6566
   92SOL    HW2  367   1.590   0.914   0.505  0.6120 -1.4811 -1.3029
   92SOL     MW  368   1.626   0.940   0.578 -0.1035  0.4893 -0.3441
   93SOL     OW  369   1.101   0.211   0.391 -0.7077  0.5987 -0.6971
   93SOL    HW1  370   1.010   0.240   0.398  1.7858  0.9194 -0.7041
   93SOL    HW2  371   1.113   0.268   0.314 -3.7827  0.6146 -0.1706
   93SOL     MW  372   1.090   0.222   0.382 -0.7844  0.6432 -0.6285
   94SOL     OW  373   1.835   1.371   1.541 -0.2365 -0.3189 -0.4279
   94SOL    HW1  374   1.840   1.372   1.442 -1.6729  0.6846 -2.8941
   94SOL    HW2  375   1.812   1.280   1.564 -1.9775 -0.4366  2.0450
   94SOL     MW  376   1.833   1.359   1.531 -0.6557 -0.2021 -0.4270
   95SOL     OW  377   0.643   1.540   0.926  0.2337  0.0462  0.4809
   95SOL    HW1  378   0.709   1.533   0.996 -3.3315 -0.9200  0.3334
   95SOL    HW2  379   0.622   1.448   0.897 -1.4790  0.8595  0.1092
   95SOL     MW  380   0.649   1.527   0.932 -0.4627  0.0260  0.4124
   96SOL     OW  381   1.351   1.851   1.707  0.3679  0.1154 -0.9917
   96SOL    HW1  382   1.257   1.856   1.743 -1.0277  1.3949 -1.1783
   96SOL    HW2  383   1.338   1.771   1.654 -0.4124 -2.7124  1.1519
   96SOL     MW  384   1.337   1.841   1.705  0.0808 -0.0889 -0.7335
   97SOL     OW  385   1.076   1.467   0.914 -0.2756  0.1471  0.8725
   97SOL    HW1  386   1.101   1.535   0.975  0.6504  0.8619  0.4344
   97SOL    HW2  387   1.000   1.507   0.865 -2.7502 -0.4994  0.1891
   97SOL     MW  388   1.069   1.481   0.915 -0.4799  0.1561  0.7245
   98SOL     OW  389   1.372   1.354   1.157 -0.6968 -0.1374  0.2442
   98SOL    HW1  390   1.415   1.385   1.239 -2.7443  1.2573 -1.2821
   98SOL    HW2  391   1.392   1.421   1.093  1.3975  1.1896  2.3639
   98SOL     MW  392   1.381   1.367   1.159 -0.6906  0.2217  0.3225
   99SOL     OW  393   1.440   0.284   1.266  0.3199 -0.0411  0.1195
   99SOL    HW1  394   1.432   0.375   1.229  1.2543 -2.6732  2.2533
   99SOL    HW2  395   1.453   0.300   1.358  3.4385 -0.4814  1.3579
   99SOL     MW  396   1.441   0.298   1.273  0.8547 -0.4465  0.5644
  100SOL     OW  397   1.032   1.173   1.379  0.2101  0.2337 -0.5078
  100SOL    HW1  398   1.082   1.200   1.461  2.7178  2.0670 -2.0839
  100SOL    HW2  399   1.055   1.081   1.375  2.4432 -0.4977 -2.0345
  100SOL     MW  400   1.041   1.165   1.389  0.8356  0.3790 -0.9172
  101SOL     OW  401   0.537   1.195   0.377 -0.4193  0.2221  0.3187
  101SOL    HW1  402   0.456   1.146   0.355 -1.1939  0.4431  4.0457
  101SOL    HW2  403   0.602   1.181   0.309  1.4441  1.4554  0.4445
  101SOL     MW  404   0.535   1.186   0.365 -0.2757  0.4139  0.8270
  102SOL     OW  405   2.898   0.666   1.064  0.2068 -0.0242  0.1508
  102SOL    HW1  406   2.930   0.761   1.062  1.0467  1.8581  1.4694
  102SOL    HW2  407   2.839   0.668   1.134 -0.2010 -1.0987 -0.8438
  102SOL     MW  408   2.894   0.678   1.073  0.2638  0.0824  0.1936
  103SOL     OW  409   1.833   0.246   1.804  0.2586  0.8516  0.4094
  103SOL    HW1  410   1.844   0.152   1.790  0.8432 -1.0160 -0.3732
  103SOL    HW2  411   1.838   0.249   1.901  0.3275 -1.6297 -0.0852
  103SOL     MW  412   1.835   0.234   1.815  0.3448  0.2778  0.2409
  104SOL     OW  413   0.071   1.519   1.636 -0.5519  0.2065  0.3075
  104SOL    HW1  414   0.125   1.446   1.672  0.9457 -1.4338  2.2819
  104SOL    HW2  415  -0.027   1.510   1.644  2.3923  2.4369  1.3605
  104SOL     MW  416   0.065   1.508   1.642  0.0342  0.2844  0.7069
  105SOL     OW  417   3.071   1.218   0.411 -0.1235  0.0689 -0.2196
  105SOL    HW1  418   3.104   1.126   0.414 -3.5284  0.2582  0.9085
  105SOL    HW2  419   3.147   1.270   0.422 -0.7273 -0.8436  1.7038
  105SOL     MW  420   3.085   1.213   0.413 -0.6524 -0.0265  0.1830
  106SOL     OW  421   0.750   0.415   0.884  0.4745 -0.3685 -0.4641
  106SOL    HW1  422   0.670   0.470   0.893  1.3003  0.1006 -0.4641
  106SOL    HW2  423   0.808   0.450   0.822 -0.0967 -0.7985  1.0546
  106SOL     MW  424   0.747   0.427   0.877  0.5080 -0.3634 -0.2637
  107SOL     OW  425   0.810   2.145   2.898  0.3672  0.9522 -0.0573
  107SOL    HW1  426   0.714   2.150   2.873  2.7078 -0.7670 -3.0071
  107SOL    HW2  427   0.812   2.108   2.988  2.8898  1.1310  0.2219
  107SOL     MW  428   0.797   2.141   2.906  1.0089  0.7490 -0.4096
  108SOL     OW  429   1.355   1.593   1.636 -0.2839 -0.3163 -0.1563
  108SOL    HW1  430   1.311   1.547   1.562  2.2365  3.1353  0.8846
  108SOL    HW2  431   1.436   1.547   1.633  1.9738  0.5839  1.3162
  108SOL     MW  432   1.360   1.581   1.626  0.3465  0.2579  0.1753
  109SOL     OW  433   2.001   0.718   0.256  0.0729  0.7197 -0.3187
  109SOL    HW1  434   2.007   0.818   0.251  0.7013  1.9227 -1.2850
  109SOL    HW2  435   2.064   0.690   0.325 -0.2556 -1.4838  1.5833
  109SOL     MW  436   2.010   0.728   0.264  0.1125  0.5877 -0.1952
  110SOL     OW  437   0.421   1.961   0.706  0.2304  0.5890 -0.1406
  110SOL    HW1  438   0.497   1.905   0.695  1.2529 -0.4682  0.1073
  110SOL    HW2  439   0.415   2.014   0.632 -3.3646  2.0006 -0.8598
  110SOL     MW  440   0.430   1.960   0.695 -0.1090  0.6358 -0.2028
  111SOL     OW  441   0.823   0.904   1.386  0.0314  0.1403 -0.1674
  111SOL    HW1  442   0.792   0.892   1.294  2.5357  1.1439 -0.3204
  111SOL    HW2  443   0.813   0.811   1.426  0.4161 -0.3225 -1.5293
  111SOL     MW  444   0.817   0.890   1.379  0.4126  0.2116 -0.3673
  112SOL     OW  445   1.363   1.061   1.601  0.6068  0.2846 -0.2413
  112SOL    HW1  446   1.289   1.121   1.581  1.6959 -1.5857 -2.1417
  112SOL    HW2  447   1.309   0.981   1.619 -0.8031  1.7915 -1.6110
  112SOL     MW  448   1.346   1.058   1.601  0.5645  0.2367 -0.6728
  113SOL     OW  449   1.267   3.067   1.678  0.3070  0.0362  0.1572
  113SOL    HW1  450   1.257   3.034   1.771 -0.2525 -1.1506  1.1371
  113SOL    HW2  451   1.223   2.996   1.627 -0.5504  0.4677 -1.0342
  113SOL     MW  452   1.260   3.053   1.683  0.1200 -0.0635  0.1293
  114SOL     OW  453   0.269   2.874   1.885 -0.0639 -0.0269  0.4694
  114SOL    HW1  454   0.308   2.950   1.833  0.8793  1.1867 -1.6864
  114SOL    HW2  455   0.216   2.922   1.949  1.6292 -0.8234 -2.0853
  114SOL     MW  456   0.268   2.890   1.886  0.2839  0.0281 -0.1521
  115SOL     OW  457   0.472   0.796   1.184 -0.4196  0.6974  0.4966
  115SOL    HW1  458   0.448   0.699   1.185 -1.6546  2.0719 -0.9179
  115SOL    HW2  459   0.430   0.830   1.260 -2.7739 -4.5991  1.2526
  115SOL     MW  460   0.463   0.788   1.194 -0.8932  0.1799  0.4097
  116SOL     OW  461   0.791   1.088   0.995 -0.6966  0.0681 -0.5413
  116SOL    HW1  462   0.821   1.128   0.906 -1.3314 -1.0128 -2.2085
  116SOL    HW2  463   0.821   1.137   1.070 -2.0932 -3.0475  1.9230
  116SOL     MW  464   0.799   1.100   0.993 -0.9646 -0.4856 -0.4361
  117SOL     OW  465   1.122   1.211   0.829  0.0014  0.2333  0.0351
  117SOL    HW1  466   1.172   1.150   0.886 -1.0557 -1.8697  2.5042
  117SOL    HW2  467   1.133   1.307   0.863 -1.4796  3.0793 -0.2082
  117SOL     MW  468   1.130   1.216   0.841 -0.3335  0.3314  0.3287
  118SOL     OW  469   3.018   2.933   1.705 -0.4460 -0.1594  0.4031
  118SOL    HW1  470   3.067   2.964   1.778 -1.3196  1.5937  1.9858
  118SOL    HW2  471   2.929   2.954   1.722 -1.3840  3.7572 -0.0851
  118SOL     MW  472   3.013   2.940   1.717 -0.6850  0.5887  0.5475
  119SOL     OW  473   0.411   1.522   1.254 -0.2361  0.5178 -0.6039
  119SOL    HW1  474   0.461   1.572   1.194  0.6397 -0.0239  0.5627
  119SOL    HW2  475   0.329   1.495   1.217  0.1482 -0.6898  0.3170
  119SOL     MW  476   0.407   1.525   1.241 -0.0698  0.2870 -0.3285
  120SOL     OW  477   0.239   0.769   0.987 -0.0661 -0.1217 -0.4444
  120SOL    HW1  478   0.184   0.781   1.063  4.2074 -0.0602  2.6732
  120SOL    HW2  479   0.327   0.811   1.010  0.9684  3.1516  0.4008
  120SOL     MW  480   0.244   0.776   1.000  0.6343  0.3183  0.0784
  121SOL     OW  481   1.778   1.099   1.644  0.2101  0.4421 -0.7297
  121SOL    HW1  482   1.684   1.127   1.632  2.1968 -3.0986 -1.6993
  121SOL    HW2  483   1.799   1.033   1.578  4.1583 -1.5087 -0.0765
  121SOL     MW  484   1.768   1.094   1.634  0.9931 -0.2824 -0.7714
  122SOL     OW  485   0.176   0.574   0.830  0.5360  0.3663 -0.2572
  122SOL    HW1  486   0.253   0.543   0.779 -1.7629 -0.4248  0.5803
  122SOL    HW2  487   0.207   0.649   0.887  0.0574  2.4647  0.6954
  122SOL     MW  488   0.190   0.580   0.831  0.1696  0.5388 -0.0210
  123SOL     OW  489   1.856   1.119   0.505  0.0341 -0.3350  0.4498
  123SOL    HW1  490   1.788   1.062   0.545 -0.4104  0.1033  0.8261
  123SOL    HW2  491   1.901   1.162   0.575  1.4622  3.8264 -1.4179
  123SOL     MW  492   1.853   1.117   0.519  0.1639  0.2719  0.2530
  124SOL     OW  493   0.530   0.538   0.952  0.1565 -0.1014  0.7978
  124SOL    HW1  494   0.472   0.499   0.883 -0.4452  1.7489 -1.5160
  124SOL    HW2  495   0.539   0.628   0.924 -0.0142  0.0428  0.9263
  124SOL     MW  496   0.523   0.544   0.939  0.0546  0.1618  0.5095
  125SOL     OW  497   0.733   1.733   1.761 -0.4147 -0.4504  0.4442
  125SOL    HW1  498   0.670   1.687   1.710 -1.1879  1.2322  0.9450
  125SOL    HW2  499   0.706   1.818   1.734  2.3411 -2.2196  1.4861
  125SOL     MW  500   0.721   1.738   1.751 -0.1531 -0.4618  0.6478
  126SOL     OW  501   2.143   1.502   1.955 -0.2518  0.6741  0.2819
  126SOL    HW1  502   2.216   1.564   1.953  0.3290 -3.7778 -1.5727
  126SOL    HW2  503   2.183   1.418   1.973 -3.7112  0.8249 -0.2189
  126SOL     MW  504   2.158   1.499   1.957 -0.6316  0.1066 -0.0289
  127SOL     OW  505   0.566   0.863   1.772 -0.3420 -0.3167 -0.4276
  127SOL    HW1  506   0.650   0.828   1.809  0.8405  0.4999  1.3647
  127SOL    HW2  507   0.518   0.908   1.849 -0.2673 -1.5340  1.3386
  127SOL     MW  508   0.571   0.864   1.787 -0.1761 -0.3696  0.0419
  128SOL     OW  509   1.721   0.720   2.889  0.6017  0.2052 -0.3759
  128SOL    HW1  510   1.777   0.667   2.824  0.8826 -4.3558 -0.2497
  128SOL    HW2  511   1.693   0.806   2.858  1.4327  0.9652 -0.2861
  128SOL     MW  512   1.725   0.724   2.876  0.7484 -0.2963 -0.3474
  129SOL     OW  513   1.599   0.930   0.208 -0.5635  0.0606 -0.0096
  129SOL    HW1  514   1.531   0.862   0.196  1.7834 -1.2928 -0.5321
  129SOL    HW2  515   1.666   0.867   0.230  1.1352  0.5779 -0.6378
  129SOL     MW  516   1.598   0.913   0.209 -0.0297 -0.0497 -0.1614
  130SOL     OW  517   0.787   1.407   0.320  0.6788  0.2788  0.3133
  130SOL    HW1  518   0.790   1.391   0.422  1.5749 -0.8410 -0.6543
  130SOL    HW2  519   0.852   1.474   0.308  0.6758 -3.8029  1.3902
  130SOL     MW  520   0.796   1.414   0.332  0.7966 -0.4075  0.3277
  131SOL     OW  521   3.082   0.801   0.017  0.6109  0.0420  0.1515
  131SOL    HW1  522   3.073   0.862  -0.062  0.1759 -1.0938  0.0151
  131SOL    HW2  523   3.173   0.820   0.037 -0.8783 -2.8072 -0.3117
  131SOL     MW  524   3.093   0.812   0.009  0.3570 -0.4838  0.0724
  132SOL     OW  525   2.738   0.141   1.274 -0.6045 -0.4528 -0.1284
  132SOL    HW1  526   2.786   0.148   1.191  3.1050 -0.1772  0.9318
  132SOL    HW2  527   2.645   0.101   1.267  0.8357  0.7277  1.4369
  132SOL     MW  528   2.732   0.137   1.262  0.0750 -0.2607  0.2180
  133SOL     OW  529   1.013   0.107   1.682 -0.5366 -0.5552 -0.2903
  133SOL    HW1  530   1.097   0.057   1.689  2.0119 -1.5699  0.8631
  133SOL    HW2  531   0.993   0.138   1.771  2.1278  1.0934  0.9628
  133SOL     MW  532   1.022   0.104   1.694  0.1512 -0.4716  0.0272
  134SOL     OW  533   1.423   2.410   1.477  0.1134  0.0870 -0.1977
  134SOL    HW1  534   1.355   2.462   1.426 -1.5186  0.9802 -1.9141
  134SOL    HW2  535   1.463   2.457   1.554  0.9261 -0.5943  0.5218
  134SOL     MW  536   1.419   2.423   1.480  0.0053  0.1150 -0.3292
  135SOL     OW  537   3.025   0.981   2.925 -0.5151 -0.2170  0.8820
  135SOL    HW1  538   3.094   1.043   2.958 -0.0859  2.0836  1.2932
  135SOL    HW2  539   2.951   1.044   2.929 -1.6539  0.8006  0.9553
  135SOL     MW  540   3.024   0.997   2.930 -0.6088  0.2208  0.9459
  136SOL     OW  541   0.215   2.017   0.886 -0.3835 -0.6552 -0.1658
  136SOL    HW1  542   0.151   1.947   0.861  1.7667  0.3308  0.3350
  136SOL    HW2  543   0.283   2.000   0.823 -0.2808 -0.7313  0.5754
  136SOL     MW  544   0.216   2.005   0.874 -0.0862 -0.5351 -0.0019
  137SOL     OW  545   0.699   2.062   0.553  0.1866 -0.6604  1.0182
  137SOL    HW1  546   0.718   2.056   0.646  0.4822  0.7665  0.0542
  137SOL    HW2  547   0.608   2.107   0.544  0.3149  0.4187 -2.7454
  137SOL     MW  548   0.689   2.067   0.564  0.2425 -0.3298  0.3945
  138SOL     OW  549   0.426   0.538   1.210  0.0228 -0.0097  0.1456
  138SOL    HW1  550   0.339   0.492   1.210  1.7443  3.1721 -0.7553
  138SOL    HW2  551   0.460   0.533   1.122 -3.3525  1.5664 -0.7998
  138SOL     MW  552   0.419   0.531   1.199 -0.1954  0.6181 -0.0980
  139SOL     OW  553   2.808   0.567   1.344  0.1456 -0.0508  0.5787
  139SOL    HW1  554   2.886   0.504   1.350 -0.3499 -0.9590 -0.1891
  139SOL    HW2  555   2.812   0.603   1.435  1.8242  0.3971  1.1058
  139SOL     MW  556   2.819   0.563   1.357  0.3017 -0.1115  0.5469
  140SOL     OW  557   0.867   0.484   1.989  0.3555  0.3438 -0.9381
  140SOL    HW1  558   0.889   0.395   1.965  0.5785 -0.5647  0.7996
  140SOL    HW2  559   0.835   0.483   2.081  0.4826 -0.7365 -0.1029
  140SOL     MW  560   0.866   0.472   1.998  0.4017  0.0814 -0.5986
  141SOL     OW  561   0.999   0.664   1.662  0.5058  0.5146 -0.0891
  141SOL    HW1  562   1.020   0.574   1.658 -0.3218  1.4624  0.3948
  141SOL    HW2  563   1.084   0.707   1.681 -1.5077  1.2876  1.3570
  141SOL     MW  564   1.013   0.658   1.664  0.1310  0.7416  0.1655
  142SOL     OW  565   0.865   1.209   0.727  0.4220  0.4624 -0.2179
  142SOL    HW1  566   0.862   1.130   0.668  2.2251 -1.9500  1.2393
  142SOL    HW2  567   0.956   1.214   0.762  1.0763  2.0880 -3.1802
  142SOL     MW  568   0.877   1.199   0.724  0.7462  0.3586 -0.4165
  143SOL     OW  569   1.860   0.678   1.060  0.3557 -0.4021 -0.4161
  143SOL    HW1  570   1.903   0.702   0.974  2.2362  0.3951 -0.1601
  143SOL    HW2  571   1.766   0.673   1.049 -0.1002 -0.0323  3.2308
  143SOL     MW  572   1.853   0.681   1.048  0.5436 -0.2481  0.0988
  144SOL     OW  573   0.272   1.323   1.716 -0.0045 -0.6098  0.0089
  144SOL    HW1  574   0.357   1.361   1.684 -3.5552 -0.1817  0.6658
  144SOL    HW2  575   0.296   1.293   1.801 -2.4380 -0.9349  1.4290
  144SOL     MW  576   0.287   1.324   1.723 -0.7941 -0.5962  0.2829
  145SOL     OW  577   0.175   0.438   1.250  0.3732 -0.3055  0.2989
  145SOL    HW1  578   0.202   0.343   1.268  1.7401  1.4637  1.4978
  145SOL    HW2  579   0.102   0.440   1.187  1.5075 -1.0421  0.8665
  145SOL     MW  580   0.169   0.426   1.244  0.7032 -0.1692  0.5320
  146SOL     OW  581   0.868   1.887   1.358 -1.0093 -0.0601  0.5032
  146SOL    HW1  582   0.896   1.939   1.278 -0.0650 -1.3967 -1.0730
  146SOL    HW2  583   0.775   1.882   1.349  0.8852 -0.3000 -2.3670
  146SOL     MW  584   0.860   1.893   1.346 -0.6348 -0.2681 -0.0834
  147SOL     OW  585   0.428   0.495   2.923 -0.1337 -0.3548 -0.4588
  147SOL    HW1  586   0.380   0.533   2.999  1.6264  0.6373 -0.5759
  147SOL    HW2  587   0.398   0.547   2.847  1.4363  0.3518  0.2293
  147SOL     MW  588   0.418   0.507   2.923  0.3057 -0.1307 -0.3835
  148SOL     OW  589   0.046   0.926   1.261  0.8407  0.1577  0.1527
  148SOL    HW1  590   0.137   0.929   1.279 -1.1076 -1.3530  1.4663
  148SOL    HW2  591   0.030   1.010   1.299 -1.8920 -0.8583 -1.0627
  148SOL     MW  592   0.056   0.937   1.269  0.2231 -0.1757  0.1656
  149SOL     OW  593   1.578   1.170   1.461 -0.2555  0.2461  0.0803
  149SOL    HW1  594   1.501   1.141   1.520  1.0657 -0.1625  0.0959
  149SOL    HW2  595   1.574   1.263   1.435  1.5400 -0.6398  0.4047
  149SOL     MW  596   1.567   1.179   1.465  0.1557  0.0753  0.1252
  150SOL     OW  597   1.729   1.387   0.886 -0.6362  0.3752 -0.0160
  150SOL    HW1  598   1.804   1.328   0.877  2.6634  1.4071  0.0559
  150SOL    HW2  599   1.774   1.473   0.887  1.3071  1.0591 -0.7546
  150SOL     MW  600   1.745   1.391   0.885  0.0556  0.6016 -0.1040
  151SOL     OW  601   1.685   1.825   0.818 -0.1183  0.0303  0.2388
  151SOL    HW1  602   1.659   1.850   0.728  0.2407  0.4680 -0.1642
  151SOL    HW2  603   1.611   1.843   0.869  0.1330  0.1869 -0.3360
  151SOL     MW  604   1.672   1.831   0.812 -0.0377  0.1087  0.1098
  152SOL     OW  605   0.746   1.447   1.626 -0.6608  0.0583  0.0225
  152SOL    HW1  606   0.764   1.511   1.551 -2.5150 -0.7279 -1.8345
  152SOL    HW2  607   0.741   1.363   1.576  0.3120 -1.3536 -2.9688
  152SOL     MW  608   0.748   1.444   1.609 -0.7771 -0.2317 -0.6171
  153SOL     OW  609   2.566   1.212   0.748  0.5638  0.4810 -0.0434
  153SOL    HW1  610   2.646   1.183   0.702  0.6130  1.2013  0.9149
  153SOL    HW2  611   2.521   1.124   0.745  1.5355  1.8546 -1.4018
  153SOL     MW  612   2.571   1.197   0.741  0.6985  0.7573 -0.0962
  154SOL     OW  613   0.106   1.762   1.779  0.3091 -0.3669  0.2463
  154SOL    HW1  614   0.082   1.686   1.736 -0.4091  1.1804  2.2629
  154SOL    HW2  615   0.189   1.731   1.820 -1.9906  2.2066 -1.6256
  154SOL     MW  616   0.114   1.748   1.779 -0.0890  0.1768  0.2654
  155SOL     OW  617   1.201   0.760   0.313  0.5657  0.5409 -0.2502
  155SOL    HW1  618   1.187   0.723   0.404 -0.9831 -0.5906  0.7772
  155SOL    HW2  619   1.196   0.854   0.331  0.0606  1.5683 -0.7448
  155SOL     MW  620   1.199   0.768   0.328  0.2947  0.5271 -0.1799
  156SOL     OW  621   1.557   3.067   1.113 -0.2456  0.8126 -0.0568
  156SOL    HW1  622   1.618   3.122   1.160  0.4794  0.0363 -1.8920
  156SOL    HW2  623   1.602   2.987   1.086  2.8710  2.7068  0.8934
  156SOL     MW  624   1.571   3.064   1.115  0.2613  0.9601 -0.1736
  157SOL     OW  625   1.403   1.145   0.109  0.6417 -0.1627  0.4486
  157SOL    HW1  626   1.422   1.077   0.178  1.4316 -3.7055  0.4895
  157SOL    HW2  627   1.450   1.227   0.114 -1.7883 -1.1493  1.2065
  157SOL     MW  628   1.411   1.147   0.119  0.4253 -0.7603  0.5540
  158SOL     OW  629   0.441   1.702   2.285  0.1450  0.0894 -0.4110
  158SOL    HW1  630   0.449   1.752   2.205 -1.4568  0.2447 -0.1927
  158SOL    HW2  631   0.353   1.713   2.321  0.6375 -2.4481  1.4582
  158SOL     MW  632   0.430   1.710   2.280 -0.0013 -0.2249 -0.1356
  159SOL     OW  633   1.208   1.607   0.490 -0.7279  0.3035  0.2985
  159SOL    HW1  634   1.169   1.586   0.403 -2.0135 -1.7797  0.3553
  159SOL    HW2  635   1.148   1.674   0.533  0.8875  1.1454  0.0565
  159SOL     MW  636   1.195   1.613   0.485 -0.6844  0.1397  0.2741
  160SOL     OW  637   0.522   1.236   1.547 -0.1261 -0.4968  0.1733
  160SOL    HW1  638   0.461   1.184   1.604 -1.3975 -0.9150  0.8954
  160SOL    HW2  639   0.605   1.184   1.562 -0.7382 -1.7090 -2.3087
  160SOL     MW  640   0.525   1.222   1.556 -0.3746 -0.7119 -0.0589
  161SOL     OW  641   0.455   2.234   2.580 -0.0108  0.2410  0.5166
  161SOL    HW1  642   0.387   2.307   2.556 -1.5108  0.6994 -0.0620
  161SOL    HW2  643   0.445   2.163   2.506 -4.9320 -1.8397 -0.4590
  161SOL     MW  644   0.445   2.234   2.567 -0.8580  0.0269  0.3115
  162SOL     OW  645   1.075   1.829   1.810  0.0484 -0.6782 -0.4430
  162SOL    HW1  646   1.071   1.920   1.789  2.6548 -0.1215  2.0608
  162SOL    HW2  647   1.028   1.828   1.892  1.7212 -0.9275 -0.5779
  162SOL     MW  648   1.068   1.841   1.818  0.6130 -0.6376 -0.1305
  163SOL     OW  649   2.103   3.072   0.862  0.3795  0.1714 -0.5924
  163SOL    HW1  650   2.084   3.149   0.800  0.9660 -1.5968  0.6265
  163SOL    HW2  651   2.084   2.988   0.816 -1.9304  0.0714 -1.7538
  163SOL     MW  652   2.098   3.071   0.847  0.1521 -0.0751 -0.5848
  164SOL     OW  653   0.297   0.199   0.787 -0.1712 -0.2372 -0.2379
  164SOL    HW1  654   0.206   0.188   0.814 -1.8672  0.4312  0.3201
  164SOL    HW2  655   0.299   0.132   0.725 -1.3630  0.9728  0.5779
  164SOL     MW  656   0.285   0.189   0.782 -0.5522  0.0106 -0.0566
  165SOL     OW  657   1.190   1.321   0.325 -0.0090 -0.2552 -0.4009
  165SOL    HW1  658   1.204   1.312   0.421 -0.2849 -2.1053  2.5698
  165SOL    HW2  659   1.234   1.239   0.299 -1.5101  0.2734 -0.4920
  165SOL     MW  660   1.198   1.309   0.334 -0.2435 -0.4296 -0.0210
  166SOL     OW  661   0.533   1.144   1.011 -0.0561  0.0871  0.5683
  166SOL    HW1  662   0.516   1.175   1.098 -0.0310 -1.0012 -0.7901
  166SOL    HW2  663   0.635   1.131   0.997 -0.4079  1.3044  1.7206
  166SOL     MW  664   0.544   1.147   1.021 -0.0992  0.1041  0.5411
  167SOL     OW  665   0.794   1.146   0.250 -0.3276  0.9852  0.1587
  167SOL    HW1  666   0.818   1.239   0.275 -0.4707 -1.7492  0.9947
  167SOL    HW2  667   0.876   1.120   0.205  1.2987  1.2607  0.3026
  167SOL     MW  668   0.808   1.155   0.247 -0.1319  0.6608  0.2880
  168SOL     OW  669   1.752   1.663   3.042 -0.7797 -0.4522 -0.1345
  168SOL    HW1  670   1.672   1.712   3.020 -3.6507 -0.7129 -0.3818
  168SOL    HW2  671   1.726   1.570   3.024 -0.1952 -1.3287  1.1537
  168SOL     MW  672   1.738   1.657   3.037 -1.0814 -0.6022  0.0029
  169SOL     OW  673   0.305   0.945   1.352  0.5976  0.0207 -0.0533
  169SOL    HW1  674   0.287   0.925   1.449  0.7916  1.7831  1.6288
  169SOL    HW2  675   0.335   1.036   1.350  2.7179 -1.4326 -0.2887
  169SOL     MW  676   0.307   0.954   1.365  0.9029  0.0615  0.1376
  170SOL     OW  677   1.189   1.495   1.445 -0.0637 -0.0102  0.0802
  170SOL    HW1  678   1.128   1.551   1.484  0.4517 -0.2618 -0.0087
  170SOL    HW2  679   1.158   1.499   1.357 -0.0547  3.1630  0.5488
  170SOL     MW  680   1.177   1.503   1.438  0.0055  0.3752  0.1303
  171SOL     OW  681   0.526   1.434   0.504  0.5805  0.6231 -0.6078
  171SOL    HW1  682   0.432   1.434   0.515  4.1339 -0.7941 -0.1262
  171SOL    HW2  683   0.539   1.348   0.456 -1.4427 -1.0974 -2.2348
  171SOL     MW  684   0.515   1.423   0.499  0.7824  0.2091 -0.7589
  172SOL     OW  685   0.795   0.245   1.240 -0.6397 -0.7482  0.2953
  172SOL    HW1  686   0.767   0.214   1.152 -1.5627 -0.6354 -3.0738
  172SOL    HW2  687   0.839   0.169   1.286  2.5069 -0.4344  0.0264
  172SOL     MW  688   0.797   0.231   1.235 -0.3463 -0.6919 -0.1847
  173SOL     OW  689   0.518   1.767   0.292 -0.2424 -0.5071  0.3839
  173SOL    HW1  690   0.547   1.686   0.238 -0.3419  0.0945  1.1225
  173SOL    HW2  691   0.522   1.746   0.384 -0.8309  0.0225 -1.0154
  173SOL     MW  692   0.523   1.754   0.297 -0.3332 -0.3578  0.2967
  174SOL     OW  693   1.840   0.866   1.486  0.0939 -0.5645  0.3959
  174SOL    HW1  694   1.780   0.793   1.516 -0.7127  0.9204  2.6833
  174SOL    HW2  695   1.824   0.887   1.389 -0.9691  0.1439  0.1065
  174SOL     MW  696   1.830   0.859   1.477 -0.1528 -0.2751  0.6595
  175SOL     OW  697   0.565   1.525   0.158 -0.2143 -0.6664 -0.8537
  175SOL    HW1  698   0.467   1.508   0.167 -0.1773  0.5482 -0.2339
  175SOL    HW2  699   0.605   1.465   0.219 -1.0535  2.3582 -2.0017
  175SOL     MW  700   0.557   1.515   0.167 -0.3201 -0.1071 -0.9234
  176SOL     OW  701   0.160   1.466   1.168 -0.0223  0.2759 -0.0106
  176SOL    HW1  702   0.145   1.425   1.075 -1.0316 -2.0414 -2.5619
  176SOL    HW2  703   0.087   1.438   1.221  0.3247  0.0579 -2.0055
  176SOL     MW  704   0.148   1.457   1.163 -0.1097 -0.0586 -0.6104
  177SOL     OW  705   0.517   0.320   1.452  0.1792  0.4139  0.2279
  177SOL    HW1  706   0.552   0.365   1.375  0.9441 -0.1449  2.4713
  177SOL    HW2  707   0.520   0.390   1.517  2.5647  0.1665  0.4314
  177SOL     MW  708   0.522   0.335   1.450  0.5948  0.3075  0.5508
  178SOL     OW  709   0.009   0.482   2.991 -0.0584 -0.2265 -0.0268
  178SOL    HW1  710  -0.038   0.491   3.069  4.7448  0.9574  0.2807
  178SOL    HW2  711  -0.063   0.495   2.927  1.0560 -1.3921 -1.4174
  178SOL     MW  712  -0.007   0.485   2.993  0.7224 -0.2241 -0.1697
  179SOL     OW  713   1.549   1.431   1.389  0.4223  0.4219 -0.0641
  179SOL    HW1  714   1.545   1.444   1.484 -0.8584  0.5835  0.0454
  179SOL    HW2  715   1.629   1.459   1.350 -2.3974 -0.9547 -0.0565
  179SOL     MW  716   1.559   1.437   1.396 -0.1187  0.2616 -0.0487
  180SOL     OW  717   3.003   0.286   0.489  0.2965  0.4851 -0.7062
  180SOL    HW1  718   2.966   0.294   0.402  1.0363  0.9967  2.3903
  180SOL    HW2  719   3.096   0.313   0.480 -1.3651 -1.2959 -1.8883
  180SOL     MW  720   3.011   0.290   0.476  0.1749  0.3176 -0.4536
  181SOL     OW  721   1.132   1.285   3.086 -0.2424 -0.2511  0.0214
  181SOL    HW1  722   1.171   1.373   3.099 -1.0661  0.0925  1.3829
  181SOL    HW2  723   1.173   1.232   3.018 -3.6488  1.4598  0.7242
  181SOL     MW  724   1.142   1.290   3.078 -0.8005  0.0200  0.2937
  182SOL     OW  725   0.380   0.989   1.621 -0.0640 -0.1981  0.0931
  182SOL    HW1  726   0.307   0.972   1.687  0.6482 -0.4584  2.1140
  182SOL    HW2  727   0.451   0.936   1.652 -0.9698 -1.1162  0.4080
  182SOL     MW  728   0.379   0.980   1.633 -0.0895 -0.3536  0.4013
  183SOL     OW  729   1.533   1.719   1.273  0.2097 -0.2617 -0.6191
  183SOL    HW1  730   1.627   1.730   1.271 -0.6698 -2.0871  2.6347
  183SOL    HW2  731   1.510   1.636   1.309 -1.1480  0.1471  1.1035
  183SOL     MW  732   1.542   1.710   1.278 -0.0855 -0.4486  0.0375
  184SOL     OW  733   0.795   0.707   1.838  0.1370  0.2315 -0.7783
  184SOL    HW1  734   0.868   0.699   1.776 -0.3665 -0.7025  1.2171
  184SOL    HW2  735   0.817   0.644   1.911 -1.6875 -2.8360 -0.1407
  184SOL     MW  736   0.808   0.698   1.840 -0.1702 -0.2964 -0.4309
  185SOL     OW  737   1.064   0.941   1.870 -0.0670  0.1936 -0.1772
  185SOL    HW1  738   1.050   0.854   1.901  1.8401  0.8422 -0.1728
  185SOL    HW2  739   1.127   0.967   1.935  0.4600 -2.0009  0.0473
  185SOL     MW  740   1.070   0.933   1.883  0.2542 -0.0104 -0.1470
  186SOL     OW  741   0.312   1.650   1.474  0.0074  0.2809  0.2903
  186SOL    HW1  742   0.347   1.597   1.400 -0.0565 -0.8243  3.0034
  186SOL    HW2  743   0.245   1.602   1.526  2.2814 -2.1111 -2.0654
  186SOL     MW  744   0.308   1.637   1.471  0.2990 -0.1805  0.3374
  187SOL     OW  745   1.481   0.756   1.380 -0.7877  0.4488  0.2721
  187SOL    HW1  746   1.536   0.767   1.456  0.2400 -1.5698  0.5189
  187SOL    HW2  747   1.389   0.736   1.401 -1.0657  0.8397 -0.9239
  187SOL     MW  748   1.476   0.755   1.393 -0.6887  0.2341  0.1469
  188SOL     OW  749   1.954   1.218   0.824 -0.2242 -0.2731  0.3429
  188SOL    HW1  750   1.937   1.188   0.920  1.1459 -2.4328  1.1641
  188SOL    HW2  751   1.991   1.138   0.792 -1.0191  0.8773 -1.0007
  188SOL     MW  752   1.957   1.203   0.832 -0.1483 -0.4063  0.2740
  189SOL     OW  753   0.698   0.747   0.834 -0.1111 -0.3968 -0.0116
  189SOL    HW1  754   0.627   0.798   0.803 -1.7895  0.9887  0.1861
  189SOL    HW2  755   0.740   0.792   0.907  2.1863  0.2748  0.4901
  189SOL     MW  756   0.694   0.760   0.839 -0.0294 -0.1254  0.0807
  190SOL     OW  757   1.882   0.307   2.109  0.3042 -0.7019 -0.6063
  190SOL    HW1  758   1.861   0.305   2.204 -0.5673  2.2695 -0.1347
  190SOL    HW2  759   1.950   0.375   2.108 -3.5236 -0.0847  2.3864
  190SOL     MW  760   1.888   0.316   2.121 -0.3158 -0.2284 -0.1493
  191SOL     OW  761   1.526   1.014   1.262  0.0786 -0.0590 -0.3194
  191SOL    HW1  762   1.537   1.078   1.337 -0.3663 -2.2247  0.9591
  191SOL    HW2  763   1.500   0.929   1.300  1.9536 -1.1349  0.1902
  191SOL     MW  764   1.524   1.012   1.277  0.2673 -0.4867 -0.0835
  192SOL     OW  765   0.528   2.145   2.881 -0.3661  0.6271  0.0231
  192SOL    HW1  766   0.525   2.206   2.809 -1.5027 -1.8030  0.9123
  192SOL    HW2  767   0.525   2.060   2.840 -1.3078 -0.3257  3.6362
  192SOL     MW  768   0.527   2.142   2.866 -0.6403  0.1807  0.6171
  193SOL     OW  769   0.879   1.596   0.803 -0.2309 -0.0833 -0.0169
  193SOL    HW1  770   0.799   1.585   0.845 -0.8184  1.8994 -2.8010
  193SOL    HW2  771   0.881   1.551   0.716  3.1024  0.6354  1.3905
  193SOL     MW  772   0.869   1.589   0.797  0.1314  0.2731 -0.1986
  194SOL     OW  773   0.498   1.306   0.819 -0.2929 -0.2511  0.1474
  194SOL    HW1  774   0.504   1.237   0.889  0.7442  0.3034  2.0132
  194SOL    HW2  775   0.405   1.311   0.787  1.3263 -2.1949 -0.9675
  194SOL     MW  776   0.486   1.298   0.824  0.0575 -0.4344  0.2465
  195SOL     OW  777   1.299   1.103   2.932  0.0496 -0.3182  0.0116
  195SOL    HW1  778   1.348   1.127   3.009 -2.3433  0.3591 -1.0805
  195SOL    HW2  779   1.234   1.033   2.949  1.4566 -2.6946  1.6931
  195SOL     MW  780   1.297   1.097   2.944 -0.0805 -0.5423  0.0894
  196SOL     OW  781   2.264   0.972   0.559  0.3741  0.3743  0.2298
  196SOL    HW1  782   2.252   0.950   0.466 -2.4485 -0.8063  3.4618
  196SOL    HW2  783   2.251   1.068   0.552 -0.9823  1.6507  0.0103
  196SOL     MW  784   2.261   0.982   0.546 -0.1773  0.3869  0.6273
  197SOL     OW  785   0.594   1.274   2.218  0.5449  0.2643 -0.2453
  197SOL    HW1  786   0.634   1.224   2.146 -0.4355 -0.1261  2.0058
  197SOL    HW2  787   0.614   1.357   2.182  2.3685 -1.5671 -1.3249
  197SOL     MW  788   0.602   1.279   2.204  0.6561 -0.0289 -0.0908
  198SOL     OW  789   2.929   1.436   1.027 -0.4524 -0.5360  0.2372
  198SOL    HW1  790   2.867   1.502   0.995 -1.2662 -1.1097 -2.5084
  198SOL    HW2  791   2.880   1.350   1.008 -0.5402 -1.0366  0.4015
  198SOL     MW  792   2.914   1.434   1.020 -0.5713 -0.6777 -0.1034
  199SOL     OW  793   0.749   1.323   1.855 -0.1325  0.1317 -0.0704
  199SOL    HW1  794   0.658   1.301   1.844 -0.5472 -1.1189 -0.1170
  199SOL    HW2  795   0.761   1.385   1.781  1.4406 -0.6749  0.1429
  199SOL     MW  796   0.739   1.328   1.844  0.0203 -0.1397 -0.0484
  200SOL     OW  797   1.835   2.923   1.369 -0.2334  0.0120 -0.3003
  200SOL    HW1  798   1.885   2.963   1.292  0.8409  2.4990 -0.2366
  200SOL    HW2  799   1.761   2.978   1.384  5.2819 -2.6843 -1.3824
  200SOL     MW  800   1.832   2.936   1.361  0.6360 -0.0156 -0.4346
  201SOL     OW  801   1.096   0.328   0.739  0.5122 -0.0980  0.3549
  201SOL    HW1  802   1.075   0.234   0.738  2.6245 -0.0087  2.0420
  201SOL    HW2  803   1.185   0.342   0.780  0.9971  1.1596 -0.1829
  201SOL     MW  804   1.105   0.317   0.744  0.8549  0.0797  0.5065
  202SOL     OW  805   1.477   1.783   0.987  0.1614 -0.7070  0.5088
  202SOL    HW1  806   1.498   1.689   0.966  0.3505 -0.7380 -0.0045
  202SOL    HW2  807   1.499   1.786   1.077  0.3337 -0.8903 -3.1553
  202SOL     MW  808   1.483   1.771   0.996  0.2091 -0.7353 -0.0424
  203SOL     OW  809   2.987   0.368   1.377  0.0819 -0.4772 -0.8656
  203SOL    HW1  810   3.041   0.291   1.349 -0.7370  0.1567 -2.9921
  203SOL    HW2  811   3.028   0.367   1.465  1.6577  2.9649 -0.2588
  203SOL     MW  812   2.999   0.358   1.385  0.1818  0.0606 -1.0661
  204SOL     OW  813   1.050   1.784   0.625 -0.0238 -0.3867 -0.0504
  204SOL    HW1  814   1.026   1.759   0.711  1.6492 -0.6504 -1.7580
  204SOL    HW2  815   0.966   1.797   0.578 -0.9795 -1.2021  1.3780
  204SOL     MW  816   1.035   1.783   0.630  0.0708 -0.5291 -0.0873
  205SOL     OW  817   1.351   3.031   1.332  0.3773  0.0044 -0.2131
  205SOL    HW1  818   1.359   3.059   1.244 -0.1888  0.3287 -0.3123
  205SOL    HW2  819   1.293   3.095   1.379 -1.4911 -1.5395  0.6575
  205SOL     MW  820   1.344   3.043   1.327  0.0561 -0.1565 -0.1113
  206SOL     OW  821   0.425   3.053   1.360 -0.6695 -0.6743 -0.0846
  206SOL    HW1  822   0.391   3.020   1.277  0.4028  0.3544  0.2422
  206SOL    HW2  823   0.516   3.026   1.379  1.1407  0.5762  1.2885
  206SOL     MW  824   0.432   3.045   1.352 -0.2892 -0.3736  0.1397
  207SOL     OW  825   0.885   1.720   0.172  0.6008  0.3955  0.1908
  207SOL    HW1  826   0.930   1.789   0.130 -1.5657  0.0037 -0.5950
  207SOL    HW2  827   0.953   1.663   0.204  1.9752  0.2240 -1.6042
  207SOL     MW  828   0.900   1.722   0.171  0.4963  0.3212 -0.1497
  208SOL     OW  829   0.756   1.593   1.404  1.2435  0.1669 -0.3767
  208SOL    HW1  830   0.841   1.625   1.422 -1.5091 -0.2414 -1.2356
  208SOL    HW2  831   0.772   1.560   1.310  0.1755  2.3321 -3.1528
  208SOL     MW  832   0.769   1.593   1.394  0.7394  0.3987 -0.8563
  209SOL     OW  833   1.519   0.512   2.848 -0.1583 -0.1991  0.2271
  209SOL    HW1  834   1.572   0.595   2.865  1.1511  0.7101 -0.0535
  209SOL    HW2  835   1.583   0.440   2.836 -0.0963 -1.4206  1.4968
  209SOL     MW  836   1.534   0.514   2.849  0.0226 -0.2403  0.3576
  210SOL     OW  837   1.482   1.519   0.948  0.6505  0.5588  0.5633
  210SOL    HW1  838   1.551   1.458   0.928 -0.0414  1.5074  1.4702
  210SOL    HW2  839   1.416   1.510   0.876 -2.3870  0.4929  0.8347
  210SOL     MW  840   1.482   1.510   0.936  0.1585  0.6753  0.7188
  211SOL     OW  841   1.727   0.305   0.981  0.1945  0.3752 -0.3915
  211SOL    HW1  842   1.732   0.340   0.895 -1.1377 -1.2477 -0.9229
  211SOL    HW2  843   1.819   0.311   1.014  1.4234  2.1184  2.0840
  211SOL     MW  844   1.740   0.310   0.974  0.1809  0.3911 -0.1350
  212SOL     OW  845   0.308   1.101   0.242  0.2055  0.0727  0.9815
  212SOL    HW1  846   0.220   1.064   0.263 -0.8182  0.3662  0.7811
  212SOL    HW2  847   0.338   1.035   0.171 -0.5020  1.0184 -0.0064
  212SOL     MW  848   0.301   1.087   0.235 -0.0229  0.2362  0.8247
  213SOL     OW  849   0.394   1.809   3.018 -0.1559  0.1609  0.2118
  213SOL    HW1  850   0.430   1.845   3.102 -0.5964  1.2959  3.1789
  213SOL    HW2  851   0.464   1.832   2.950 -1.3038  0.8345  0.5465
  213SOL     MW  852   0.408   1.817   3.020 -0.3655  0.3996  0.6475
  214SOL     OW  853   0.629   0.318   2.127 -0.9459 -0.3405 -0.1734
  214SOL    HW1  854   0.567   0.389   2.154  2.0015 -0.7574 -1.0097
  214SOL    HW2  855   0.620   0.298   2.030  2.0852 -2.6942 -0.1085
  214SOL     MW  856   0.620   0.325   2.118 -0.1571 -0.7061 -0.2752
  215SOL     OW  857   0.497   0.572   2.566 -0.3055 -0.2122 -0.0199
  215SOL    HW1  858   0.497   0.599   2.470  3.2576 -1.2536 -2.8190
  215SOL    HW2  859   0.422   0.626   2.600 -1.2125 -1.7912 -1.5678
  215SOL     MW  860   0.487   0.583   2.557  0.0449 -0.5579 -0.5934
  216SOL     OW  861   2.963   3.062   2.711 -0.4607  0.2167  0.1198
  216SOL    HW1  862   2.896   3.048   2.781 -1.2439  1.4720 -0.1230
  216SOL    HW2  863   2.979   3.161   2.705 -1.1760  3.1577 -0.0517
  216SOL     MW  864   2.956   3.073   2.720 -0.6584  0.7704  0.0652
  217SOL     OW  865   1.028   1.070   0.139 -0.0788  0.0476  0.4126
  217SOL    HW1  866   1.048   0.994   0.076 -0.8738  1.7102 -0.0443
  217SOL    HW2  867   1.077   1.142   0.097  1.7053 -0.5475 -1.3789
  217SOL     MW  868   1.037   1.070   0.125  0.0517  0.1885  0.1160
  218SOL     OW  869   0.856   1.387   2.687 -0.6534  0.1165 -0.1858
  218SOL    HW1  870   0.860   1.316   2.749  0.3107 -0.1746  0.2374
  218SOL    HW2  871   0.943   1.418   2.660 -1.3726  3.8333 -2.0171
  218SOL     MW  872   0.868   1.382   2.691 -0.6211  0.5685 -0.3716
  219SOL     OW  873   1.048   0.401   2.615  0.1150  0.4123 -0.5788
  219SOL    HW1  874   1.121   0.460   2.648 -2.8089 -0.4169  0.8502
  219SOL    HW2  875   0.966   0.451   2.626 -1.3254  1.6147  0.9742
  219SOL     MW  876   1.047   0.415   2.621 -0.4608  0.4616 -0.1853
  220SOL     OW  877   1.705   0.532   2.212  0.3952  0.4934 -0.5056
  220SOL    HW1  878   1.619   0.559   2.169 -1.2998  0.9262 -1.5621
  220SOL    HW2  879   1.730   0.462   2.150  1.6101 -1.7070 -1.2272
  220SOL     MW  880   1.697   0.526   2.198  0.3318  0.2602 -0.7402
  221SOL     OW  881   0.348   1.298   2.917 -0.1001  0.4000  0.0986
  221SOL    HW1  882   0.423   1.241   2.891 -0.7223  1.1395  0.1911
  221SOL    HW2  883   0.361   1.373   2.864 -0.3690  0.0446  4.0315
  221SOL     MW  884   0.360   1.300   2.906 -0.2177  0.4507  0.6297
  222SOL     OW  885   0.507   0.954   2.685 -0.0810  0.6880 -0.2045
  222SOL    HW1  886   0.424   0.984   2.649 -0.6081  2.3957  0.9307
  222SOL    HW2  887   0.506   0.864   2.697 -0.3706  3.0035  0.7750
  222SOL     MW  888   0.496   0.946   2.682 -0.1888  1.2188  0.0745
  223SOL     OW  889   3.098   2.024   2.575 -0.1896  0.4389  0.0626
  223SOL    HW1  890   3.102   2.024   2.671  3.4487 -0.4118  1.2071
  223SOL    HW2  891   3.106   2.113   2.560  0.9580 -2.2344  0.1598
  223SOL     MW  892   3.100   2.035   2.585  0.4419 -0.0260  0.2264
  224SOL     OW  893   1.446   0.717   2.476 -0.2879 -0.4780 -0.4661
  224SOL    HW1  894   1.439   0.722   2.570  1.1553 -2.2590  1.5813
  224SOL    HW2  895   1.454   0.812   2.449 -0.6590  1.6024 -3.8327
  224SOL     MW  896   1.446   0.730   2.485 -0.1464 -0.4385 -0.6401
  225SOL     OW  897   2.960   1.437   2.276  0.0938  0.4813 -0.6327
  225SOL    HW1  898   3.000   1.498   2.213  1.2655 -1.2947  0.0533
  225SOL    HW2  899   2.898   1.488   2.332 -0.3960 -0.3912  2.5913
  225SOL     MW  900   2.957   1.452   2.275  0.1838  0.1319 -0.1168
  226SOL     OW  901   0.400   1.508   2.717 -0.2769 -0.2119 -0.2104
  226SOL    HW1  902   0.480   1.530   2.764  2.2953 -1.2011 -3.4464
  226SOL    HW2  903   0.375   1.589   2.665 -0.7604 -0.1467  0.8578
  226SOL     MW  904   0.407   1.522   2.716 -0.0013 -0.3338 -0.4964
  227SOL     OW  905   0.585   1.135   2.893  0.6422 -0.1675 -0.2414
  227SOL    HW1  906   0.683   1.143   2.890  0.1118 -1.3413 -1.0991
  227SOL    HW2  907   0.556   1.083   2.820 -1.0758 -1.4234  0.6489
  227SOL     MW  908   0.594   1.129   2.883  0.3455 -0.4881 -0.2371
  228SOL     OW  909   0.761   1.135   2.045  0.2470 -0.0782  0.1452
  228SOL    HW1  910   0.752   1.192   1.966  1.1502 -2.6876 -0.0364
  228SOL    HW2  911   0.842   1.170   2.087  1.3581 -2.4870  0.6458
  228SOL     MW  912   0.770   1.147   2.040  0.5128 -0.7403  0.1873
  229SOL     OW  913   0.238   0.599   3.098  0.0036 -0.4540 -0.3044
  229SOL    HW1  914   0.148   0.604   3.049 -3.7226  0.7561  1.2443
  229SOL    HW2  915   0.220   0.525   3.156 -1.9109  0.3991  0.2757
  229SOL     MW  916   0.224   0.590   3.099 -0.7407 -0.1818 -0.0235
  230SOL     OW  917   1.806   1.359   1.974 -0.0161  0.4925  0.0200
  230SOL    HW1  918   1.775   1.327   2.060  0.0043 -1.1341  3.4213
  230SOL    HW2  919   1.893   1.323   1.950 -1.2135 -1.5518 -0.7395
  230SOL     MW  920   1.813   1.350   1.982 -0.1714  0.0082  0.3686
  231SOL     OW  921   2.737   1.286   2.215  0.0571 -0.0473  0.4643
  231SOL    HW1  922   2.797   1.359   2.224 -0.4162 -2.1852 -2.7869
  231SOL    HW2  923   2.676   1.303   2.140  2.1180  0.8353  0.1114
  231SOL     MW  924   2.737   1.298   2.206  0.2666 -0.2130 -0.0112
  232SOL     OW  925   2.291   0.814   1.975  0.1484  0.3864 -0.2611
  232SOL    HW1  926   2.253   0.863   1.908  0.5533 -1.6913  0.4095
  232SOL    HW2  927   2.246   0.829   2.060  1.1314 -0.7266  1.0351
  232SOL     MW  928   2.280   0.823   1.977  0.3315 -0.0346 -0.0016
  233SOL     OW  929   2.109   0.452   2.090 -0.0856 -0.6673  0.0348
  233SOL    HW1  930   2.134   0.368   2.047  1.0273 -1.5042  1.5631
  233SOL    HW2  931   2.185   0.465   2.151  3.7929  1.7979  1.8924
  233SOL     MW  932   2.122   0.442   2.093  0.5730 -0.4525  0.4815
  234SOL     OW  933   0.260   1.028   2.604  0.0666 -0.1662 -0.0610
  234SOL    HW1  934   0.169   1.028   2.567 -0.9763  0.6855  1.8041
  234SOL    HW2  935   0.285   1.117   2.585 -1.2684 -1.3962 -0.5851
  234SOL     MW  936   0.251   1.040   2.597 -0.2471 -0.2161  0.1159
  235SOL     OW  937   1.028   3.019   2.811  0.7730 -0.5933  0.3230
  235SOL    HW1  938   1.095   2.992   2.871 -0.7044  0.0087 -1.3367
  235SOL    HW2  939   1.033   3.114   2.830 -1.7557  0.4393 -0.0358
  235SOL     MW  940   1.038   3.028   2.821  0.2444 -0.3776  0.0566
  236SOL     OW  941   2.928   0.601   0.152  0.0656  0.0715  0.4152
  236SOL    HW1  942   2.941   0.608   0.249 -0.1069  2.0245  1.3210
  236SOL    HW2  943   2.972   0.671   0.102  0.4225  1.2907  0.2345
  236SOL     MW  944   2.936   0.611   0.158  0.0900  0.4900  0.5109
  237SOL     OW  945   1.961   1.049   2.160 -0.2573 -0.0941 -0.3750
  237SOL    HW1  946   1.873   1.046   2.119  0.5631 -1.1479  0.1887
  237SOL    HW2  947   1.998   0.961   2.144  0.3308  4.0931 -2.2663
  237SOL     MW  948   1.954   1.037   2.152 -0.0715  0.3194 -0.5501
  238SOL     OW  949   1.081   1.757   2.967 -0.3293  0.3265  0.2283
  238SOL    HW1  950   1.025   1.731   2.892  1.5301 -1.6762 -2.4804
  238SOL    HW2  951   1.166   1.718   2.940  1.5697  1.0682  1.3323
  238SOL     MW  952   1.085   1.748   2.954  0.1666  0.1601  0.0166
  239SOL     OW  953   1.177   1.295   2.269  0.2884  0.1922 -0.1918
  239SOL    HW1  954   1.087   1.272   2.243 -0.6172 -0.0242 -1.2918
  239SOL    HW2  955   1.173   1.241   2.347  0.9281  3.0416 -0.8994
  239SOL     MW  956   1.165   1.285   2.276  0.2533  0.5396 -0.4303
  240SOL     OW  957   0.611   0.865   2.202  0.0302  0.2148 -0.1150
  240SOL    HW1  958   0.612   0.928   2.284 -2.3413 -0.7812 -0.4088
  240SOL    HW2  959   0.703   0.869   2.168  2.0885 -1.5461 -0.1743
  240SOL     MW  960   0.623   0.874   2.209 -0.0111 -0.1489 -0.1616
  241SOL     OW  961   0.687   0.465   3.047  0.1461 -0.2951 -0.1632
  241SOL    HW1  962   0.722   0.539   3.098 -0.0234 -1.3860 -0.5968
  241SOL    HW2  963   0.603   0.487   3.016  0.3051 -1.6885  0.0708
  241SOL     MW  964   0.680   0.477   3.049  0.1448 -0.6229 -0.1895
  242SOL     OW  965   1.509   1.687   2.289  0.0682  0.0611  0.5899
  242SOL    HW1  966   1.451   1.758   2.274  0.5608  1.4657  1.8864
  242SOL    HW2  967   1.462   1.610   2.247 -0.8568  1.9784  1.3313
  242SOL     MW  968   1.495   1.686   2.282  0.0111  0.4994  0.8588
  243SOL     OW  969   1.002   0.333   2.366  0.7577  0.1011  0.2189
  243SOL    HW1  970   1.087   0.352   2.328  1.4687  2.7597 -1.0657
  243SOL    HW2  971   1.017   0.357   2.464  0.2263  1.0363  2.9502
  243SOL     MW  972   1.015   0.339   2.374  0.7814  0.5752  0.4098
  244SOL     OW  973   0.140   0.768   2.373 -0.5702 -0.2337  0.1428
  244SOL    HW1  974   0.119   0.856   2.383 -2.1355  0.2587 -1.1507
  244SOL    HW2  975   0.234   0.768   2.347 -0.0199 -0.0754  2.0131
  244SOL     MW  976   0.149   0.779   2.371 -0.7041 -0.1479  0.2189
  245SOL     OW  977   1.273   0.206   2.349  0.1273  0.2364  0.6876
  245SOL    HW1  978   1.364   0.169   2.340  0.8679  0.5043 -0.3305
  245SOL    HW2  979   1.231   0.149   2.411  4.1765 -2.2581 -2.1905
  245SOL     MW  980   1.280   0.194   2.356  0.7593 -0.0574  0.1735
  246SOL     OW  981   1.226   1.105   2.028  0.3629 -0.3276 -0.2378
  246SOL    HW1  982   1.164   1.144   2.089 -2.1188 -0.0255  1.1577
  246SOL    HW2  983   1.317   1.106   2.078  1.4527 -1.7427  0.9363
  246SOL     MW  984   1.230   1.110   2.042  0.1793 -0.4744  0.1012
  247SOL     OW  985   0.790   0.655   0.161  0.0654  0.0247 -0.4745
  247SOL    HW1  986   0.767   0.747   0.161  0.4549  1.8467  0.1844
  247SOL    HW2  987   0.880   0.648   0.124 -1.4010 -0.9757  1.3664
  247SOL     MW  988   0.799   0.666   0.156 -0.0767  0.1331 -0.1447
  248SOL     OW  989   0.337   1.297   2.545 -0.2301  0.1531  0.1199
  248SOL    HW1  990   0.313   1.315   2.457 -0.2420 -0.8390  1.4323
  248SOL    HW2  991   0.347   1.379   2.601  2.6406 -1.4330  2.5152
  248SOL     MW  992   0.335   1.310   2.541  0.1471 -0.1871  0.6091
  249SOL     OW  993   2.993   1.918   2.835 -0.3245  0.0460 -0.3799
  249SOL    HW1  994   2.956   1.843   2.791 -0.5105  1.3293 -2.6329
  249SOL    HW2  995   3.080   1.893   2.865 -0.7701  1.4377  0.2608
  249SOL     MW  996   3.000   1.905   2.833 -0.4078  0.3989 -0.5926
  250SOL     OW  997   2.151   0.846   2.203  0.4343 -0.6528  0.4369
  250SOL    HW1  998   2.119   0.764   2.233  0.0802 -0.2317 -5.4194
  250SOL    HW2  999   2.177   0.886   2.285  3.5803  1.3761 -1.2723
  250SOL     MW 1000   2.150   0.840   2.218  0.8027 -0.3295 -0.5613
  251SOL     OW 1001   0.156   0.896   2.031 -0.1773  0.1969  0.7090
  251SOL    HW1 1002   0.117   0.812   2.057  1.4337  0.9508 -3.0298
  251SOL    HW2 1003   0.133   0.906   1.938 -1.1569 -1.9067 -0.2239
  251SOL     MW 1004   0.148   0.886   2.022 -0.0940  0.0188  0.0926
  252SOL     OW 1005   1.645   0.962   2.815  0.6400 -0.1960  0.0292
  252SOL    HW1 1006   1.661   1.000   2.902 -2.6848 -1.8323  1.5364
  252SOL    HW2 1007   1.734   0.971   2.770  3.6870  0.7224 -0.9207
  252SOL     MW 1008   1.659   0.968   2.820  0.6034 -0.2907  0.1027
  253SOL     OW 1009   1.148   1.691   2.439  0.0383  0.0918  0.3740
  253SOL    HW1 1010   1.131   1.680   2.339 -3.2493 -2.0478 -2.0525
  253SOL    HW2 1011   1.076   1.736   2.476 -0.9101 -2.8928 -1.9551
  253SOL     MW 1012   1.136   1.696   2.431 -0.5206 -0.5843 -0.2534
  254SOL     OW 1013   0.953   1.135   2.241 -0.4589  0.2615 -0.1326
  254SOL    HW1 1014   0.943   1.041   2.260 -1.6418 -2.9277 -0.2610
  254SOL    HW2 1015   0.909   1.176   2.317  1.7014 -1.1418  2.1105
  254SOL     MW 1016   0.946   1.128   2.254 -0.3299 -0.3445  0.1464
  255SOL     OW 1017   0.869   2.579   2.172 -0.4319 -0.1552 -0.5438
  255SOL    HW1 1018   0.785   2.524   2.172 -3.5352 -1.4241 -2.2432
  255SOL    HW2 1019   0.934   2.515   2.186  2.5882  0.6122 -1.1809
  255SOL     MW 1020   0.866   2.564   2.174 -0.4429 -0.2213 -0.8521
  256SOL     OW 1021   1.229   2.762   2.987 -0.1588 -0.2116  0.2417
  256SOL    HW1 1022   1.186   2.680   2.961  0.4485 -0.4870  1.9706
  256SOL    HW2 1023   1.301   2.784   2.922  1.0003  0.3701 -3.3220
  256SOL     MW 1024   1.233   2.754   2.975  0.0743 -0.1712 -0.0004
  257SOL     OW 1025   0.049   1.891   0.114  0.2795 -0.2239  0.2186
  257SOL    HW1 1026   0.133   1.891   0.148 -0.3043 -3.0157 -0.3092
  257SOL    HW2 1027   0.050   1.898   0.020  0.8520 -0.6607  0.9060
  257SOL     MW 1028   0.060   1.892   0.106  0.2780 -0.6499  0.2397
  258SOL     OW 1029   0.665   0.980   2.468 -0.9661  0.6951 -0.1398
  258SOL    HW1 1030   0.700   1.064   2.470 -0.2679 -3.5684 -1.7687
  258SOL    HW2 1031   0.619   0.961   2.546  3.9260 -1.3445  0.4416
  258SOL     MW 1032   0.664   0.989   2.479 -0.2285 -0.1365 -0.2780
  259SOL     OW 1033   0.797   0.469   2.258  0.5251  0.9818  0.7520
  259SOL    HW1 1034   0.748   0.394   2.219  0.2699 -0.5812  0.6368
  259SOL    HW2 1035   0.877   0.421   2.290 -0.8842 -1.0479  0.4236
  259SOL     MW 1036   0.801   0.453   2.257  0.3054  0.5078  0.6935
  260SOL     OW 1037   0.655   0.087   1.549  0.1094  0.4810 -0.2480
  260SOL    HW1 1038   0.602   0.163   1.536  2.7735 -0.9406 -0.7380
  260SOL    HW2 1039   0.738   0.107   1.503 -1.2124 -1.0806 -0.8442
  260SOL     MW 1040   0.659   0.100   1.541  0.2865  0.0874 -0.3913
  261SOL     OW 1041   1.084   0.691   1.992 -0.6278  0.5129  0.6785
  261SOL    HW1 1042   1.088   0.704   2.096 -0.9327  2.5974  0.5043
  261SOL    HW2 1043   1.010   0.633   1.978 -1.7577 -1.3031 -0.0926
  261SOL     MW 1044   1.075   0.685   2.003 -0.8171  0.5483  0.5538
  262SOL     OW 1045   1.120   0.344   0.144 -0.0434 -0.5112 -0.6070
  262SOL    HW1 1046   1.214   0.362   0.133  1.6934 -0.2477  0.2282
  262SOL    HW2 1047   1.096   0.265   0.100 -0.4274  1.0026  1.5340
  262SOL     MW 1048   1.129   0.336   0.137  0.1351 -0.2767 -0.2143
  263SOL     OW 1049   0.365   3.083   2.498  0.0104  0.0220 -0.0347
  263SOL    HW1 1050   0.301   3.149   2.504 -0.6272 -0.3516  1.2697
  263SOL    HW2 1051   0.446   3.111   2.451  1.0376  1.0655  1.4163
  263SOL     MW 1052   0.367   3.095   2.493  0.0618  0.1104  0.3289
  264SOL     OW 1053   1.532   1.398   1.917  0.3825  0.3234 -0.7185
  264SOL    HW1 1054   1.505   1.306   1.908 -1.8076 -0.2934  0.8980
  264SOL    HW2 1055   1.621   1.390   1.958  0.7106 -1.5481 -0.9967
  264SOL     MW 1056   1.540   1.385   1.921  0.1369 -0.0049 -0.5419
  265SOL     OW 1057   0.733   2.781   2.300  0.4736  0.9053  0.0725
  265SOL    HW1 1058   0.800   2.721   2.270  0.7859  2.8794 -0.5567
  265SOL    HW2 1059   0.728   2.772   2.395 -3.9916  0.5896 -0.6609
  265SOL     MW 1060   0.741   2.772   2.308 -0.0743  1.1241 -0.1073
  266SOL     OW 1061   0.866   0.886   2.137 -0.2088  0.6987 -0.7161
  266SOL    HW1 1062   0.823   0.962   2.097 -0.0123  1.3545 -1.8965
  266SOL    HW2 1063   0.905   0.842   2.068 -0.2723  0.5555  1.4534
  266SOL     MW 1064   0.866   0.890   2.123 -0.1913  0.7664 -0.5856
  267SOL     OW 1065   1.362   1.720   2.646  0.8520 -0.8411  0.4015
  267SOL    HW1 1066   1.440   1.679   2.614 -1.3404  0.3990 -0.3119
  267SOL    HW2 1067   1.305   1.709   2.569 -1.5098  2.6746  0.5886
  267SOL     MW 1068   1.365   1.713   2.631  0.2511 -0.2136  0.3320
  268SOL     OW 1069   0.123   0.910   1.749  0.2945 -0.5287 -0.5538
  268SOL    HW1 1070   0.088   0.994   1.717  0.9657 -0.2981  3.3144
  268SOL    HW2 1071   0.099   0.855   1.671  1.2456  0.9954  0.7143
  268SOL     MW 1072   0.115   0.914   1.734  0.5085 -0.2972  0.1239
  269SOL     OW 1073   1.334   1.930   2.297 -0.3281 -0.6550 -0.1170
  269SOL    HW1 1074   1.368   1.990   2.366  3.4848  0.5100  1.8619
  269SOL    HW2 1075   1.249   1.903   2.316  0.1715 -0.6990 -1.4569
  269SOL     MW 1076   1.327   1.935   2.308  0.2409 -0.5071 -0.0327
  270SOL     OW 1077   1.123   0.426   1.586  0.0665 -0.5536 -0.0967
  270SOL    HW1 1078   1.080   0.361   1.640  0.8014 -0.4416 -2.6959
  270SOL    HW2 1079   1.216   0.415   1.603 -0.5962  0.4521  0.9489
  270SOL     MW 1080   1.129   0.416   1.595  0.0760 -0.4061 -0.3017
  271SOL     OW 1081   0.853   0.115   2.468  0.3899  0.0070  0.0205
  271SOL    HW1 1082   0.919   0.055   2.497  0.8375  2.0660  0.9991
  271SOL    HW2 1083   0.898   0.178   2.405  0.8430  0.8316 -1.5599
  271SOL     MW 1084   0.868   0.116   2.464  0.5087  0.3875 -0.0589
  272SOL     OW 1085   1.430   2.830   2.841  0.4173  0.0576 -0.1995
  272SOL    HW1 1086   1.419   2.799   2.752 -1.3127  0.7993  0.7653
  272SOL    HW2 1087   1.479   2.913   2.837 -1.1143 -0.6959  2.1629
  272SOL     MW 1088   1.435   2.837   2.829 -0.0130  0.0560  0.2395
  273SOL     OW 1089   1.417   0.818   2.772 -0.3727 -0.4252 -0.3185
  273SOL    HW1 1090   1.493   0.876   2.792  0.3193  2.9281 -1.1794
  273SOL    HW2 1091   1.355   0.880   2.730 -1.7600 -1.0379 -0.4881
  273SOL     MW 1092   1.419   0.834   2.769 -0.4644 -0.0636 -0.4545
  274SOL     OW 1093   1.426   0.711   0.164  0.3768  0.0416 -0.1935
  274SOL    HW1 1094   1.475   0.635   0.197 -0.5806  0.0674 -0.5687
  274SOL    HW2 1095   1.350   0.722   0.219  0.8031  3.0425 -0.3980
  274SOL     MW 1096   1.422   0.702   0.176  0.3067  0.4409 -0.2700
  275SOL     OW 1097   1.776   0.502   1.763  0.3617  0.1168 -0.2733
  275SOL    HW1 1098   1.823   0.542   1.835  1.3045 -1.8391  0.9875
  275SOL    HW2 1099   1.786   0.406   1.782 -2.3679  0.7439 -1.1693
  275SOL     MW 1100   1.783   0.495   1.775  0.1259 -0.0585 -0.2252
  276SOL     OW 1101   0.478   1.207   1.928 -0.3211 -0.1627 -0.2859
  276SOL    HW1 1102   0.471   1.118   1.956 -2.9218  2.1254 -0.2885
  276SOL    HW2 1103   0.411   1.247   1.985  2.6250 -2.8359  2.6617
  276SOL     MW 1104   0.468   1.201   1.939 -0.2755 -0.2135  0.1027
  277SOL     OW 1105   2.007   1.089   2.442  0.2110  0.3219  0.0461
  277SOL    HW1 1106   2.001   1.185   2.439 -0.5559 -0.0834 -0.0989
  277SOL    HW2 1107   1.983   1.056   2.356  1.7512 -0.2977  0.0218
  277SOL     MW 1108   2.003   1.097   2.430  0.3131  0.1867  0.0237
  278SOL     OW 1109   1.433   0.667   1.746  0.1272  0.4809 -0.6436
  278SOL    HW1 1110   1.422   0.578   1.787 -0.9049 -3.3182  0.6534
  278SOL    HW2 1111   1.530   0.678   1.727  2.2372 -0.4651 -3.7631
  278SOL     MW 1112   1.444   0.657   1.749  0.2694 -0.1451 -0.8840
  279SOL     OW 1113   0.529   0.100   2.261 -0.0908 -0.5423 -0.4621
  279SOL    HW1 1114   0.601   0.049   2.221 -0.4438 -1.7773  0.3477
  279SOL    HW2 1115   0.545   0.185   2.216 -2.5877 -1.7238  1.5410
  279SOL     MW 1116   0.541   0.104   2.250 -0.4668 -0.8611 -0.0909
  280SOL     OW 1117   1.452   1.126   2.190  0.0139  0.1211  0.1602
  280SOL    HW1 1118   1.513   1.055   2.169 -0.0034 -1.0236  1.1431
  280SOL    HW2 1119   1.422   1.102   2.282 -2.4539  1.2020  2.4398
  280SOL     MW 1120   1.456   1.113   2.199 -0.3140  0.1127  0.5906
  281SOL     OW 1121   1.383   1.138   2.672 -0.6341 -0.3625 -0.2690
  281SOL    HW1 1122   1.461   1.201   2.680  2.1847  0.8365  1.0322
  281SOL    HW2 1123   1.358   1.133   2.765  1.9064  0.2912 -0.2362
  281SOL     MW 1124   1.390   1.146   2.685  0.0730 -0.1180 -0.0930
  282SOL     OW 1125   1.174   1.257   1.578 -0.0059  0.6834 -0.0569
  282SOL    HW1 1126   1.169   1.344   1.534  0.9115 -3.4871 -1.0814
  282SOL    HW2 1127   1.105   1.253   1.652 -0.7123 -0.6619  0.7773
  282SOL     MW 1128   1.164   1.268   1.582  0.0219 -0.0444 -0.0820
  283SOL     OW 1129   0.863   1.356   0.007 -0.0936  0.2905  0.1475
  283SOL    HW1 1130   0.959   1.342   0.021 -0.2110  0.3048  3.7491
  283SOL    HW2 1131   0.861   1.455   0.007 -1.9192  1.9696 -3.7684
  283SOL     MW 1132   0.876   1.367   0.009 -0.3500  0.5139  0.1060
  284SOL     OW 1133   0.397   0.742   2.310 -0.0689 -0.1426 -0.1854
  284SOL    HW1 1134   0.480   0.785   2.297  2.4498 -3.7767  1.2511
  284SOL    HW2 1135   0.410   0.664   2.254  1.3677 -0.8774  1.4538
  284SOL     MW 1136   0.409   0.738   2.301  0.4530 -0.7190  0.2204
  285SOL     OW 1137   0.888   0.884   2.851 -0.2327 -0.4864  0.2755
  285SOL    HW1 1138   0.902   0.924   2.760 -0.1889 -0.6523  0.5721
  285SOL    HW2 1139   0.839   0.803   2.841  2.4294  0.7799 -2.0525
  285SOL     MW 1140   0.883   0.879   2.837  0.1243 -0.3412  0.0074
  286SOL     OW 1141   1.122   1.464   2.600  0.7184 -0.0286 -0.9671
  286SOL    HW1 1142   1.128   1.374   2.560 -0.4905 -0.4797  3.3954
  286SOL    HW2 1143   1.126   1.529   2.532 -0.0511 -3.4411 -0.0938
  286SOL     MW 1144   1.123   1.461   2.586  0.4574 -0.5383 -0.2763
  287SOL     OW 1145   1.204   1.026   0.361 -0.3627 -0.7230  0.1781
  287SOL    HW1 1146   1.170   1.037   0.445  2.2620 -0.4467 -0.9515
  287SOL    HW2 1147   1.147   1.054   0.291  2.5545 -0.5945 -1.3478
  287SOL     MW 1148   1.192   1.031   0.363  0.3685 -0.6696 -0.1723
  288SOL     OW 1149   1.476   0.624   2.092 -0.0398  0.1107  0.5005
  288SOL    HW1 1150   1.416   0.627   2.162  2.3755 -1.5942 -1.9060
  288SOL    HW2 1151   1.493   0.712   2.044 -0.7066  2.6118 -0.0456
  288SOL     MW 1152   1.470   0.636   2.095  0.1909  0.2158  0.1109
  289SOL     OW 1153   0.931   0.983   2.609  0.0793 -0.0723  0.2667
  289SOL    HW1 1154   0.965   0.898   2.572  0.3305 -3.1273 -0.0526
  289SOL    HW2 1155   0.850   0.999   2.567  1.4721 -1.2777 -0.2176
  289SOL     MW 1156   0.924   0.974   2.598  0.2962 -0.6344  0.1607
  290SOL     OW 1157   0.816   0.639   1.464  0.1447 -0.0795 -0.1421
  290SOL    HW1 1158   0.875   0.599   1.398 -1.9436 -1.1343 -0.9367
  290SOL    HW2 1159   0.867   0.649   1.545 -0.9602  1.7134 -0.4817
  290SOL     MW 1160   0.831   0.635   1.466 -0.2767  0.0179 -0.2918
  291SOL     OW 1161   0.201   0.370   0.160 -0.2586  0.1430  0.4147
  291SOL    HW1 1162   0.299   0.350   0.160  1.7680 -0.4587 -0.2001
  291SOL    HW2 1163   0.165   0.288   0.125 -0.9538  0.0488 -0.1586
  291SOL     MW 1164   0.209   0.357   0.155 -0.0830  0.0512  0.2579
  292SOL     OW 1165   1.046   0.615   0.110 -0.0297  0.3984 -0.4551
  292SOL    HW1 1166   1.084   0.674   0.184 -2.6913  3.5782 -0.9677
  292SOL    HW2 1167   1.083   0.529   0.126  2.2683  1.4535  1.8663
  292SOL     MW 1168   1.056   0.612   0.122 -0.0776  0.9571 -0.2165
  293SOL     OW 1169   0.104   0.149   2.543 -0.4243 -0.6595  0.5427
  293SOL    HW1 1170   0.069   0.091   2.474  0.3318  0.0549 -1.6218
  293SOL    HW2 1171   0.030   0.176   2.593 -1.1885 -0.9035  1.1121
  293SOL     MW 1172   0.090   0.145   2.540 -0.4254 -0.5974  0.3322
  294SOL     OW 1173   1.304   0.523   2.338  0.0303 -0.0618  0.3975
  294SOL    HW1 1174   1.341   0.566   2.415 -0.3346  1.9110  0.2407
  294SOL    HW2 1175   1.346   0.441   2.338 -1.6602  0.5477  2.4030
  294SOL     MW 1176   1.314   0.518   2.348 -0.2409  0.2789  0.6414
  295SOL     OW 1177   0.846   0.562   2.525 -0.5918  0.2602  0.3882
  295SOL    HW1 1178   0.811   0.541   2.438 -1.0929 -0.2314  0.3086
  295SOL    HW2 1179   0.777   0.573   2.587 -0.4790  0.3726 -2.4048
  295SOL     MW 1180   0.832   0.561   2.522 -0.6431  0.2102  0.0092
  296SOL     OW 1181   1.252   0.210   2.042  0.4893  0.0176  0.2082
  296SOL    HW1 1182   1.306   0.158   1.984 -0.4397 -0.0180  0.1634
  296SOL    HW2 1183   1.277   0.174   2.130  3.2886 -0.1359  0.8328
  296SOL     MW 1184   1.262   0.199   2.046  0.7361 -0.0073  0.2847
  297SOL     OW 1185   1.416   0.380   1.551  0.3193 -0.0221  0.6801
  297SOL    HW1 1186   1.476   0.453   1.530  0.2960  3.9766  1.1316
  297SOL    HW2 1187   1.460   0.320   1.610 -0.7499 -1.7410  0.2069
  297SOL     MW 1188   1.430   0.381   1.556  0.1752  0.2787  0.6772
  298SOL     OW 1189   1.585   0.885   2.074 -0.0974 -0.3360 -0.0585
  298SOL    HW1 1190   1.599   0.946   2.002 -0.6678  0.6924  1.2301
  298SOL    HW2 1191   1.677   0.856   2.094 -0.0683 -2.6139 -0.9494
  298SOL     MW 1192   1.599   0.889   2.067 -0.1688 -0.5009 -0.0060
  299SOL     OW 1193   0.567   1.161   0.074  0.2385  0.4017  0.7109
  299SOL    HW1 1194   0.551   1.142  -0.018  1.6535 -1.0285  4.3782
  299SOL    HW2 1195   0.660   1.188   0.076 -0.9790 -0.9378 -3.6899
  299SOL     MW 1196   0.577   1.162   0.062  0.2646  0.0363  0.6141
  300SOL     OW 1197   1.119   1.172   2.518 -0.8336  0.4959  0.7689
  300SOL    HW1 1198   1.064   1.100   2.558 -0.0436 -3.2547 -0.6676
  300SOL    HW2 1199   1.198   1.166   2.570  0.4431 -2.0877 -0.2193
  300SOL     MW 1200   1.122   1.162   2.530 -0.5609 -0.3399  0.4490
  301SOL     OW 1201   1.418   1.027   0.727  0.3984  0.5670 -0.0274
  301SOL    HW1 1202   1.452   1.068   0.807  2.0409  1.2856  0.1824
  301SOL    HW2 1203   1.354   0.961   0.748 -1.0496 -0.0963  1.1926
  301SOL     MW 1204   1.414   1.024   0.741  0.4241  0.5743  0.1613
  302SOL     OW 1205   0.189   1.561   2.035 -0.4682  0.3228 -0.1470
  302SOL    HW1 1206   0.143   1.479   2.052  0.2060 -1.1612  0.8769
  302SOL    HW2 1207   0.113   1.617   2.054 -1.7900 -2.1087  0.4791
  302SOL     MW 1208   0.173   1.557   2.040 -0.5536 -0.1938  0.0707
  303SOL     OW 1209   0.359   1.769   2.678  0.1319 -0.4132 -0.1394
  303SOL    HW1 1210   0.354   1.805   2.586 -0.2798  0.5796  0.4408
  303SOL    HW2 1211   0.264   1.778   2.704  1.3969  1.8028 -1.5444
  303SOL     MW 1212   0.346   1.775   2.669  0.2445  0.0102 -0.2482
  304SOL     OW 1213   0.493   2.051   2.395 -0.4294  0.7799  0.7206
  304SOL    HW1 1214   0.553   2.110   2.340 -0.3194 -1.2780  1.0057
  304SOL    HW2 1215   0.557   1.985   2.425  0.5203  0.9562 -2.5392
  304SOL     MW 1216   0.509   2.050   2.392 -0.2896  0.5316  0.3281
  305SOL     OW 1217   1.113   0.663   0.566 -0.2021 -0.1658 -0.2373
  305SOL    HW1 1218   1.018   0.655   0.544  0.2897  1.2042 -1.1700
  305SOL    HW2 1219   1.140   0.577   0.545 -0.6345 -0.4127 -0.0585
  305SOL     MW 1220   1.104   0.650   0.560 -0.1942 -0.0176 -0.3368
  306SOL     OW 1221   1.090   1.554   0.239 -0.8010  0.2069  0.3015
  306SOL    HW1 1222   1.110   1.465   0.281 -1.2902  1.0163  3.3398
  306SOL    HW2 1223   1.158   1.572   0.174  0.3506  1.7031 -0.2599
  306SOL     MW 1224   1.102   1.545   0.236 -0.7136  0.5111  0.6283
  307SOL     OW 1225   1.357   0.441   1.896  0.4355 -0.0499  0.3276
  307SOL    HW1 1226   1.315   0.385   1.960  0.7025  0.4657 -0.5350
  307SOL    HW2 1227   1.395   0.510   1.955 -2.3436  2.2335  0.8550
  307SOL     MW 1228   1.357   0.442   1.912  0.1040  0.3194  0.2834
  308SOL     OW 1229   2.228   0.505   2.661 -0.5451  0.0023  0.0429
  308SOL    HW1 1230   2.319   0.529   2.685  0.4418  0.1045  1.9291
  308SOL    HW2 1231   2.179   0.591   2.675 -2.0855 -1.0496 -1.4335
  308SOL     MW 1232   2.234   0.520   2.666 -0.6181 -0.1230  0.0970
  309SOL     OW 1233   0.486   0.585   0.243  0.2922  0.3461  0.4166
  309SOL    HW1 1234   0.569   0.629   0.232 -0.5755 -0.6641 -2.7035
  309SOL    HW2 1235   0.496   0.490   0.225 -1.6119 -0.9457  1.6713
  309SOL     MW 1236   0.499   0.578   0.239 -0.0735  0.0424  0.1705
  310SOL     OW 1237   0.464   0.640   1.909 -0.2377 -0.4892 -0.1030
  310SOL    HW1 1238   0.514   0.571   1.867 -3.8024  3.5163 -0.4865
  310SOL    HW2 1239   0.495   0.711   1.855  0.7609  0.5189 -0.3107
  310SOL     MW 1240   0.475   0.640   1.896 -0.5763  0.1723 -0.1810
  311SOL     OW 1241   1.942   0.642   1.965 -0.3493 -0.0306 -0.2211
  311SOL    HW1 1242   1.921   0.701   2.039  1.4909  0.3177  2.9919
  311SOL    HW2 1243   2.019   0.590   2.001  1.5838 -0.1982  2.6350
  311SOL     MW 1244   1.950   0.643   1.980  0.1485 -0.0068  0.5797
  312SOL     OW 1245   1.777   2.442   0.123 -0.5392  0.0682 -0.5321
  312SOL    HW1 1246   1.780   2.433   0.219 -1.4660 -1.2093  0.7346
  312SOL    HW2 1247   1.709   2.508   0.107 -0.8251 -0.1239 -1.5231
  312SOL     MW 1248   1.768   2.450   0.134 -0.6992 -0.1257 -0.4957
  313SOL     OW 1249   0.131   1.133   3.036 -0.5822  0.0133  0.1545
  313SOL    HW1 1250   0.061   1.172   3.091  0.9599 -0.3921  0.0979
  313SOL    HW2 1251   0.176   1.202   2.993  0.2527 -3.0362 -0.2501
  313SOL     MW 1252   0.127   1.147   3.038 -0.2686 -0.4425  0.0937
  314SOL     OW 1253   2.156   2.925   3.087 -0.1755  0.1560  0.3344
  314SOL    HW1 1254   2.110   2.959   3.001 -1.4790  3.1626 -3.4696
  314SOL    HW2 1255   2.200   3.001   3.126 -0.0691  2.1314 -1.7803
  314SOL     MW 1256   2.156   2.940   3.081 -0.3334  0.8133 -0.4465
  315SOL     OW 1257   1.543   1.822   2.970 -0.1273 -0.1358  0.3522
  315SOL    HW1 1258   1.474   1.880   3.019  0.7135 -0.7080 -0.4613
  315SOL    HW2 1259   1.571   1.893   2.907 -1.3065 -0.8247  0.5003
  315SOL     MW 1260   1.538   1.839   2.968 -0.1720 -0.3021  0.2644
  316SOL     OW 1261   1.219   0.577   2.726 -0.5611  0.3903 -0.0839
  316SOL    HW1 1262   1.313   0.561   2.735  0.7908 -0.5398  2.2521
  316SOL    HW2 1263   1.183   0.560   2.817 -0.3488 -0.2963 -1.1037
  316SOL     MW 1264   1.227   0.573   2.739 -0.3547  0.1770  0.0897
  317SOL     OW 1265   0.687   1.580   2.667  0.0467  0.0305  0.0479
  317SOL    HW1 1266   0.745   1.510   2.692  1.8323 -0.8899 -1.5778
  317SOL    HW2 1267   0.698   1.583   2.571 -0.9166  1.2488 -2.7664
  317SOL     MW 1268   0.696   1.571   2.657  0.1552  0.0698 -0.5379
  318SOL     OW 1269   1.329   0.371   2.970  0.3706  0.5736  0.2457
  318SOL    HW1 1270   1.246   0.422   2.955 -1.4984  2.4728  0.9428
  318SOL    HW2 1271   1.397   0.436   2.935 -2.9860  0.2521  0.4282
  318SOL     MW 1272   1.327   0.386   2.964 -0.3189  0.7818  0.3617
  319SOL     OW 1273   0.873   0.377   2.871 -0.3151  0.2669 -0.7931
  319SOL    HW1 1274   0.864   0.283   2.856  1.0442  1.8308 -0.9961
  319SOL    HW2 1275   0.807   0.389   2.939 -2.7033  2.0667  2.5198
  319SOL     MW 1276   0.863   0.366   2.878 -0.4508  0.7107 -0.3828
  320SOL     OW 1277   1.067   1.408   1.966 -0.5346  0.0051 -0.0412
  320SOL    HW1 1278   1.136   1.349   1.986  0.2854 -1.2574 -0.4347
  320SOL    HW2 1279   1.121   1.486   1.949  1.9897 -1.7775  1.0740
  320SOL     MW 1280   1.083   1.411   1.967 -0.0934 -0.3966  0.0540
  321SOL     OW 1281   1.113   0.919   3.006  0.1245  0.0260  0.3377
  321SOL    HW1 1282   1.050   0.902   2.935  0.9600 -1.8256  2.8003
  321SOL    HW2 1283   1.182   0.847   3.005  1.9658  0.7359 -0.5865
  321SOL     MW 1284   1.114   0.907   2.996  0.4777 -0.1246  0.5407
  322SOL     OW 1285   1.222   0.843   1.686 -0.2955 -0.7988  0.4819
  322SOL    HW1 1286   1.291   0.786   1.720  1.4942 -0.8870  0.7221
  322SOL    HW2 1287   1.171   0.869   1.763 -0.4190 -2.8041  3.5817
  322SOL     MW 1288   1.224   0.839   1.701 -0.0756 -1.0750  0.9226
  323SOL     OW 1289   1.225   1.610   1.904 -0.0492  0.0915 -0.1236
  323SOL    HW1 1290   1.260   1.572   1.825 -0.5751 -0.5239  1.5496
  323SOL    HW2 1291   1.159   1.671   1.875 -2.4054 -1.5319  0.6625
  323SOL     MW 1292   1.221   1.613   1.890 -0.4294 -0.2039  0.2009
  324SOL     OW 1293   1.459   0.997   2.441 -0.7565 -0.2035  0.4294
  324SOL    HW1 1294   1.424   1.034   2.522  3.3078  1.1396  3.7027
  324SOL    HW2 1295   1.546   1.040   2.452  0.6765  0.5985  1.4461
  324SOL     MW 1296   1.466   1.008   2.453 -0.0312  0.0795  0.9954
  325SOL     OW 1297   1.090   0.501   2.961 -0.6243  0.2750 -0.5377
  325SOL    HW1 1298   1.061   0.550   3.038 -0.1417  0.0518 -3.1798
  325SOL    HW2 1299   1.016   0.456   2.926 -0.9535 -0.6187 -0.9652
  325SOL     MW 1300   1.077   0.501   2.967 -0.6041  0.1276 -0.9427
  326SOL     OW 1301   0.346   1.366   2.264 -0.6695 -0.0093 -0.4870
  326SOL    HW1 1302   0.432   1.331   2.260 -0.4522  1.3087  0.8675
  326SOL    HW2 1303   0.366   1.457   2.238 -0.5539  1.9391 -0.4166
  326SOL     MW 1304   0.360   1.373   2.260 -0.6256  0.4217 -0.2990
  327SOL     OW 1305   1.977   0.787   2.435  0.0872  0.0264 -0.2980
  327SOL    HW1 1306   1.920   0.742   2.506  0.5422  1.7001  0.5796
  327SOL    HW2 1307   1.974   0.885   2.451  0.7756 -0.5098  0.6386
  327SOL     MW 1308   1.969   0.794   2.446  0.2381  0.1765 -0.0587
  328SOL     OW 1309   0.225   1.259   2.044 -0.4796  0.2707  0.2746
  328SOL    HW1 1310   0.154   1.200   2.060  0.3660 -0.0986 -1.9810
  328SOL    HW2 1311   0.255   1.289   2.128 -1.9443  1.3046  2.2457
  328SOL     MW 1312   0.219   1.255   2.058 -0.5613  0.3584  0.2371
  329SOL     OW 1313   0.056   0.144   1.361 -0.7036 -0.2739  0.8196
  329SOL    HW1 1314   0.052   0.080   1.434  2.0149 -0.7530 -0.8034
  329SOL    HW2 1315   0.155   0.145   1.337  0.0439 -1.6226 -0.8628
  329SOL     MW 1316   0.068   0.136   1.368 -0.2463 -0.5151  0.3835
  330SOL     OW 1317   0.403   3.086   2.050 -0.0186  0.0181  0.8620
  330SOL    HW1 1318   0.440   3.131   2.128  0.2608 -2.2812  2.1554
  330SOL    HW2 1319   0.323   3.038   2.084  0.0893 -1.3569  0.2688
  330SOL     MW 1320   0.397   3.085   2.065  0.0325 -0.4667  0.9544
  331SOL     OW 1321   0.800   1.230   2.451  0.0905 -0.2414 -0.4466
  331SOL    HW1 1322   0.721   1.267   2.405 -0.7761 -1.6491  0.4094
  331SOL    HW2 1323   0.811   1.286   2.529 -0.0825  0.2624 -1.8198
  331SOL     MW 1324   0.791   1.242   2.455 -0.0467 -0.3606 -0.5149
  332SOL     OW 1325   1.332   1.646   2.908  0.0335 -0.3382 -0.0441
  332SOL    HW1 1326   1.333   1.659   2.813  1.8001  0.3753 -1.4730
  332SOL    HW2 1327   1.414   1.699   2.931  0.7906  0.2788  3.4760
  332SOL     MW 1328   1.343   1.655   2.899  0.3665 -0.1627  0.2318
  333SOL     OW 1329   1.702   1.394   2.927 -0.3079  0.2520 -0.1090
  333SOL    HW1 1330   1.802   1.390   2.952  1.6648 -0.9206 -0.0844
  333SOL    HW2 1331   1.651   1.337   2.986 -0.3749 -1.6543  1.9726
  333SOL     MW 1332   1.709   1.386   2.938 -0.0565 -0.1542  0.1689
  334SOL     OW 1333   1.260   3.067   2.671  0.3663 -0.1919 -0.0508
  334SOL    HW1 1334   1.170   3.087   2.700  1.0348 -0.0120 -1.6714
  334SOL    HW2 1335   1.323   3.134   2.715 -0.0292  1.0031  0.8776
  334SOL     MW 1336   1.257   3.078   2.680  0.4023 -0.0105 -0.1421
  335SOL     OW 1337   1.324   0.708   3.021 -0.7536 -0.4369  0.5945
  335SOL    HW1 1338   1.376   0.712   3.098 -2.8347 -1.2396 -1.6922
  335SOL    HW2 1339   1.358   0.738   2.940  3.2417  1.7085  4.0398
  335SOL     MW 1340   1.336   0.713   3.021 -0.5010 -0.2597  0.7474
  336SOL     OW 1341   0.971   1.169   1.758  0.3058 -0.9919 -0.6562
  336SOL    HW1 1342   0.903   1.215   1.805 -1.6665  2.8474 -1.3817
  336SOL    HW2 1343   0.994   1.086   1.800  0.6940  0.4290 -0.9455
  336SOL     MW 1344   0.965   1.164   1.770  0.0968 -0.2979 -0.7901
  337SOL     OW 1345   0.563   1.863   2.817 -0.1890  0.3491  0.4589
  337SOL    HW1 1346   0.505   1.816   2.756  0.1684 -0.1507  0.3929
  337SOL    HW2 1347   0.652   1.839   2.803  0.0074  0.0309  1.7435
  337SOL     MW 1348   0.567   1.854   2.807 -0.1159  0.2412  0.6196
  338SOL     OW 1349   1.042   0.743   2.512  0.3924  0.0557 -0.5806
  338SOL    HW1 1350   0.969   0.676   2.504  1.2209  0.4179 -0.5125
  338SOL    HW2 1351   1.116   0.688   2.558  0.5146 -0.9992  0.1810
  338SOL     MW 1352   1.042   0.727   2.517  0.5179 -0.0357 -0.4711
  339SOL     OW 1353   1.442   1.142   1.874 -0.1119  0.7557 -0.1412
  339SOL    HW1 1354   1.405   1.121   1.789 -1.0139  0.0835  0.7818
  339SOL    HW2 1355   1.364   1.133   1.929 -1.1005 -0.8705 -0.7966
  339SOL     MW 1356   1.427   1.138   1.870 -0.3613  0.4525 -0.1059
  340SOL     OW 1357   1.298   1.505   0.031 -0.6482  0.2921  0.2137
  340SOL    HW1 1358   1.334   1.533  -0.052  0.5310 -2.1707  0.6596
  340SOL    HW2 1359   1.353   1.537   0.103 -2.2105 -1.4814 -1.4551
  340SOL     MW 1360   1.310   1.513   0.030 -0.6987 -0.2669  0.0524
  341SOL     OW 1361   0.045   1.347   2.788  0.4250  0.0077  0.3772
  341SOL    HW1 1362   0.124   1.302   2.770  0.7855  1.2106 -0.2370
  341SOL    HW2 1363  -0.008   1.325   2.718 -1.0780 -0.2341  0.9638
  341SOL     MW 1364   0.049   1.338   2.777  0.2743  0.1345  0.3736
  342SOL     OW 1365   1.405   0.316   0.108  0.1423  0.0471 -0.2272
  342SOL    HW1 1366   1.482   0.359   0.153  0.2204 -1.7354  0.6625
  342SOL    HW2 1367   1.385   0.350   0.020  0.9107 -1.9124 -0.2830
  342SOL     MW 1368   1.413   0.326   0.102  0.2540 -0.4466 -0.1172
  343SOL     OW 1369   0.299   0.288   2.225 -0.2082 -0.2647  0.1189
  343SOL    HW1 1370   0.372   0.232   2.259 -0.2228  1.0956 -0.3266
  343SOL    HW2 1371   0.229   0.226   2.203 -1.8479  0.0734 -2.8548
  343SOL     MW 1372   0.299   0.272   2.226 -0.4264 -0.0406 -0.3322
  344SOL     OW 1373   1.721   2.013   0.154  0.0834 -0.3665 -0.3316
  344SOL    HW1 1374   1.742   2.089   0.106  1.3923 -0.1051  1.1943
  344SOL    HW2 1375   1.634   1.986   0.110 -2.5306 -1.3231 -0.2206
  344SOL     MW 1376   1.712   2.019   0.142 -0.0888 -0.4582 -0.1156
  345SOL     OW 1377   0.691   1.576   2.367 -0.0512  0.4207  0.0897
  345SOL    HW1 1378   0.617   1.612   2.312 -0.4309 -1.8792 -0.5764
  345SOL    HW2 1379   0.762   1.565   2.304  1.3940  1.9937 -0.1010
  345SOL     MW 1380   0.691   1.580   2.351  0.0894  0.3248 -0.0234
  346SOL     OW 1381   1.695   1.094   3.054 -0.4708 -0.2617  0.5407
  346SOL    HW1 1382   1.783   1.083   3.080 -0.9849 -0.0389 -1.9809
  346SOL    HW2 1383   1.653   1.039   3.121  0.3401  1.9709 -0.4226
  346SOL     MW 1384   1.701   1.085   3.067 -0.4316  0.0622  0.0809
  347SOL     OW 1385   1.138   0.718   2.244  0.0743 -0.5133 -0.2736
  347SOL    HW1 1386   1.211   0.653   2.261 -0.4198 -2.9199 -1.9449
  347SOL    HW2 1387   1.096   0.729   2.331  0.8071 -3.3736 -1.9484
  347SOL     MW 1388   1.142   0.711   2.257  0.1058 -1.2082 -0.7151
  348SOL     OW 1389   1.358   2.557   1.920 -0.3949 -0.2773  0.4137
  348SOL    HW1 1390   1.319   2.494   1.984 -0.2587  1.7553 -0.4763
  348SOL    HW2 1391   1.356   2.643   1.969  0.6705  1.6978 -0.4423
  348SOL     MW 1392   1.352   2.560   1.935 -0.2363  0.2515  0.1834
  349SOL     OW 1393   1.395   0.182   2.754  0.2054 -0.1540 -0.2648
  349SOL    HW1 1394   1.345   0.237   2.809  1.9884  0.2556  0.8449
  349SOL    HW2 1395   1.460   0.138   2.809  1.4851  2.8822  1.3611
  349SOL     MW 1396   1.397   0.183   2.768  0.6095  0.3006  0.0962
  350SOL     OW 1397   1.819   0.660   2.634 -0.2219  0.2055 -0.3440
  350SOL    HW1 1398   1.769   0.585   2.586  3.3505 -0.1864  0.0789
  350SOL    HW2 1399   1.909   0.628   2.666  2.2411  1.4063  2.0736
  350SOL     MW 1400   1.824   0.646   2.632  0.5744  0.3123  0.0308
  351SOL     OW 1401   0.076   1.148   1.632  0.7906 -0.1364  0.1873
  351SOL    HW1 1402  -0.005   1.156   1.684  1.5497  1.7391  2.6475
  351SOL    HW2 1403   0.141   1.195   1.681 -0.7891 -3.3357  0.9510
  351SOL     MW 1404   0.074   1.155   1.645  0.6823 -0.3110  0.6127
  352SOL     OW 1405   0.845   1.758   2.810 -0.2743  0.0870  0.1253
  352SOL    HW1 1406   0.829   1.724   2.907  3.0012  1.1227 -0.0146
  352SOL    HW2 1407   0.824   1.684   2.749 -0.9265 -1.0924 -1.0523
  352SOL     MW 1408   0.840   1.744   2.815  0.0718  0.0681 -0.0485
  353SOL     OW 1409   0.017   2.588   2.734  0.3578  0.2888  0.0782
  353SOL    HW1 1410   0.099   2.577   2.690 -0.8559  3.1108 -1.3716
  353SOL    HW2 1411   0.006   2.684   2.751 -2.2347  1.0731 -1.5748
  353SOL     MW 1412   0.026   2.599   2.731 -0.1444  0.7646 -0.3312
  354SOL     OW 1413   0.350   2.442   0.872  0.1607 -0.4413  0.7255
  354SOL    HW1 1414   0.367   2.417   0.962  0.7933  1.3087  0.1121
  354SOL    HW2 1415   0.285   2.375   0.833 -0.2976  2.2959 -2.7536
  354SOL     MW 1416   0.344   2.430   0.879  0.1837  0.1507  0.1856
  355SOL     OW 1417   3.056   2.174   0.360  0.4667 -0.0451  0.7057
  355SOL    HW1 1418   2.973   2.137   0.366  1.1232  1.9156  0.9624
  355SOL    HW2 1419   3.060   2.226   0.443  1.6075 -1.0466 -1.6414
  355SOL     MW 1420   3.045   2.176   0.372  0.7039  0.0815  0.4299
  356SOL     OW 1421   0.818   2.823   0.977 -0.5243  0.8222  0.2809
  356SOL    HW1 1422   0.880   2.860   0.909 -0.8072  0.7354  0.7847
  356SOL    HW2 1423   0.737   2.821   0.928 -1.4203  1.0607  1.0314
  356SOL     MW 1424   0.816   2.828   0.961 -0.6799  0.8422  0.4464
  357SOL     OW 1425   1.820   2.800   0.482  0.3341 -0.0377 -0.1001
  357SOL    HW1 1426   1.837   2.750   0.561 -1.1979  1.0796  0.4153
  357SOL    HW2 1427   1.906   2.793   0.439  1.6776 -0.9514  0.8749
  357SOL     MW 1428   1.834   2.792   0.487  0.3092 -0.0108  0.0965
  358SOL     OW 1429   0.456   0.187   1.044  0.1773 -0.1016  0.1036
  358SOL    HW1 1430   0.543   0.157   1.011 -0.4965  3.5958 -0.0679
  358SOL    HW2 1431   0.408   0.201   0.965  0.2981  0.6990  0.1167
  358SOL     MW 1432   0.461   0.185   1.029  0.1043  0.4919  0.0827
  359SOL     OW 1433   0.854   2.975   1.830  0.9157  0.4516 -0.4806
  359SOL    HW1 1434   0.850   2.886   1.871  0.7257  0.0051  3.0571
  359SOL    HW2 1435   0.895   2.965   1.738  2.1050 -0.4379 -3.3688
  359SOL     MW 1436   0.859   2.962   1.823  1.0475  0.2753 -0.3949
  360SOL     OW 1437   0.549   2.758   0.865 -0.0725  0.3011  0.3146
  360SOL    HW1 1438   0.556   2.703   0.788  1.3251 -1.9248  0.5655
  360SOL    HW2 1439   0.554   2.699   0.942 -1.5295  2.7979 -0.3359
  360SOL     MW 1440   0.551   2.743   0.865 -0.0803  0.3369  0.2619
  361SOL     OW 1441   0.215   2.647   1.408 -0.0220  0.1093 -0.5283
  361SOL    HW1 1442   0.177   2.729   1.432  0.9143 -0.3067 -2.1564
  361SOL    HW2 1443   0.312   2.663   1.417  3.5994 -1.8989  2.0232
  361SOL     MW 1444   0.223   2.660   1.412  0.5793 -0.2106 -0.4065
  362SOL     OW 1445   1.384   2.390   0.586 -0.1134  0.1643  0.5916
  362SOL    HW1 1446   1.432   2.348   0.652  0.0223  0.1457  0.6175
  362SOL    HW2 1447   1.425   2.481   0.594 -1.0883  0.1771 -0.6287
  362SOL     MW 1448   1.395   2.397   0.596 -0.2241  0.1636  0.4340
  363SOL     OW 1449   0.313   3.065   0.638 -0.3635  0.5578 -0.6035
  363SOL    HW1 1450   0.315   2.997   0.708  2.8717  0.3094 -1.2010
  363SOL    HW2 1451   0.226   3.083   0.607  1.6928  1.1494  0.7634
  363SOL     MW 1452   0.302   3.059   0.643  0.3346  0.6031 -0.5020
  364SOL     OW 1453   0.776   0.256   0.131  0.1153 -0.1584 -0.4532
  364SOL    HW1 1454   0.715   0.186   0.143  0.3648  2.4765  0.2321
  364SOL    HW2 1455   0.747   0.310   0.056  0.6941  1.9258  0.7182
  364SOL     MW 1456   0.764   0.254   0.123  0.2246  0.4643 -0.2082
  365SOL     OW 1457   0.926   2.024   1.137 -0.9578 -0.2489  0.2072
  365SOL    HW1 1458   0.877   2.104   1.126 -0.1876 -2.1140 -0.0421
  365SOL    HW2 1459   0.874   1.960   1.094  1.5272  2.6970  3.5704
  365SOL     MW 1460   0.913   2.026   1.130 -0.5283 -0.1063  0.6181
  366SOL     OW 1461   2.961   2.645   0.937 -0.3997 -0.7999 -0.0004
  366SOL    HW1 1462   3.052   2.650   0.974  1.3227  1.4742 -1.6406
  366SOL    HW2 1463   2.976   2.671   0.839 -1.6900 -0.4724 -1.1581
  366SOL     MW 1464   2.975   2.649   0.929 -0.3427 -0.4566 -0.3695
  367SOL     OW 1465   1.220   2.979   0.933  0.0650 -0.1023  0.0185
  367SOL    HW1 1466   1.245   3.053   0.876 -1.2087  2.7718 -0.6279
  367SOL    HW2 1467   1.156   2.931   0.887  0.6571  1.9335 -1.0529
  367SOL     MW 1468   1.215   2.982   0.920 -0.0249  0.5455 -0.2081
  368SOL     OW 1469   1.746   0.403   0.722  0.1894  0.1033 -0.2002
  368SOL    HW1 1470   1.778   0.338   0.663 -2.1719  1.0125  3.4085
  368SOL    HW2 1471   1.760   0.487   0.681  0.5685 -0.5270  0.2112
  368SOL     MW 1472   1.752   0.406   0.709 -0.0722  0.1401  0.3302
  369SOL     OW 1473   0.127   2.413   1.784 -0.0701 -0.2937 -0.1819
  369SOL    HW1 1474   0.218   2.416   1.743  0.7957 -3.7839 -0.3485
  369SOL    HW2 1475   0.121   2.508   1.787  2.3830 -1.9137 -0.7305
  369SOL     MW 1476   0.138   2.426   1.779  0.3678 -0.9680 -0.2763
  370SOL     OW 1477   0.728   0.154   0.985 -0.1922  0.1330  0.6391
  370SOL    HW1 1478   0.753   0.241   0.954 -1.3046  1.1467 -0.3772
  370SOL    HW2 1479   0.807   0.091   0.996  0.5570 -2.1701 -0.6997
  370SOL     MW 1480   0.742   0.157   0.982 -0.2401 -0.0371  0.3284
  371SOL     OW 1481   1.215   2.822   1.510 -0.4026 -0.3805 -0.2509
  371SOL    HW1 1482   1.206   2.729   1.491  0.8561 -0.1445  1.6429
  371SOL    HW2 1483   1.224   2.866   1.425  1.9001 -3.2300  0.4965
  371SOL     MW 1484   1.215   2.816   1.496  0.0673 -0.7254  0.0976
  372SOL     OW 1485   0.819   2.291   0.515 -0.0793 -0.0078 -0.0416
  372SOL    HW1 1486   0.783   2.203   0.522 -1.1097  1.2395  1.3058
  372SOL    HW2 1487   0.840   2.288   0.422 -1.5054  1.1320 -2.9342
  372SOL     MW 1488   0.817   2.279   0.504 -0.4034  0.3072 -0.2455
  373SOL     OW 1489   2.872   3.018   1.401 -0.1597  0.3443  0.1860
  373SOL    HW1 1490   2.924   2.965   1.335 -0.1178 -2.8572  0.4701
  373SOL    HW2 1491   2.838   3.093   1.350  0.9912 -0.5523 -1.1290
  373SOL     MW 1492   2.874   3.021   1.385 -0.0023 -0.1964  0.0500
  374SOL     OW 1493   1.583   0.457   0.287  1.2140 -0.4008  0.1938
  374SOL    HW1 1494   1.675   0.426   0.291  1.3211 -1.8214  2.1106
  374SOL    HW2 1495   1.540   0.438   0.371  0.4042 -1.4252  3.1795
  374SOL     MW 1496   1.589   0.450   0.298  1.1213 -0.7234  0.8406
  375SOL     OW 1497   0.932   2.158   2.348 -0.3311  0.5257 -0.4429
  375SOL    HW1 1498   1.016   2.152   2.395  1.0317  0.9334  2.4280
  375SOL    HW2 1499   0.913   2.081   2.290 -0.5068  0.0293  1.2698
  375SOL     MW 1500   0.941   2.147   2.346 -0.1745  0.5140  0.1619
  376SOL     OW 1501   0.699   2.508   0.048 -0.1664  1.0167  0.0645
  376SOL    HW1 1502   0.647   2.438   0.080  1.1035 -1.3006 -0.0987
  376SOL    HW2 1503   0.733   2.471  -0.037  2.0646 -0.0778 -2.0587
  376SOL     MW 1504   0.696   2.494   0.041  0.2955  0.5666 -0.2372
  377SOL     OW 1505   1.273   2.086   0.910  0.3299  0.0177 -0.0553
  377SOL    HW1 1506   1.190   2.072   0.865  1.4608 -1.0767 -1.2904
  377SOL    HW2 1507   1.271   2.030   0.989  0.3327 -0.4777  0.9957
  377SOL     MW 1508   1.262   2.077   0.915  0.4795 -0.1921 -0.0796
  378SOL     OW 1509   0.938   2.902   1.589  0.3559  0.0242 -0.2277
  378SOL    HW1 1510   0.955   2.805   1.588 -0.2557 -0.5000 -1.7251
  378SOL    HW2 1511   0.983   2.917   1.508 -0.8735 -3.9458  0.5760
  378SOL     MW 1512   0.946   2.891   1.578  0.1130 -0.5688 -0.3192
  379SOL     OW 1513   1.113   1.657   2.179  0.0575  0.2944  0.5733
  379SOL    HW1 1514   1.032   1.603   2.170  0.7230 -0.2238 -0.4799
  379SOL    HW2 1515   1.183   1.595   2.154  1.9327 -1.4928  2.2675
  379SOL     MW 1516   1.112   1.642   2.174  0.3927 -0.0098  0.6579
  380SOL     OW 1517   0.895   0.067   1.425 -0.1192  0.1822 -0.6421
  380SOL    HW1 1518   0.951   0.004   1.376 -2.1286 -1.0530 -3.7905
  380SOL    HW2 1519   0.945   0.082   1.507 -1.2081  1.0360 -0.6749
  380SOL     MW 1520   0.909   0.060   1.429 -0.5280  0.1319 -1.0618
  381SOL     OW 1521   0.779   2.063   0.819  0.2143 -0.8000 -0.3035
  381SOL    HW1 1522   0.874   2.053   0.811 -1.1440 -0.2741 -0.3758
  381SOL    HW2 1523   0.764   2.139   0.885  0.3126  3.3140 -0.8087
  381SOL     MW 1524   0.790   2.072   0.827  0.0481 -0.1878 -0.3797
  382SOL     OW 1525   0.775   0.148   0.647  0.3636 -0.2955  0.2676
  382SOL    HW1 1526   0.750   0.143   0.741  1.2960 -0.3030 -0.1005
  382SOL    HW2 1527   0.738   0.071   0.606  0.9982  0.8656  0.3776
  382SOL     MW 1528   0.767   0.137   0.654  0.5704 -0.1433  0.2336
  383SOL     OW 1529   0.574   0.058   0.285  0.1062  0.1930  0.0512
  383SOL    HW1 1530   0.642   0.003   0.245  1.7761 -0.6413 -0.3202
  383SOL    HW2 1531   0.513  -0.010   0.304 -0.7606  1.3973  0.4729
  383SOL     MW 1532   0.575   0.042   0.282  0.2121  0.2418  0.0578
  384SOL     OW 1533   0.741   2.959   0.601 -0.0307  0.0090  0.0869
  384SOL    HW1 1534   0.803   2.931   0.675 -0.6935  0.2539  2.5187
  384SOL    HW2 1535   0.685   2.878   0.588  0.6370  2.3490 -0.4284
  384SOL     MW 1536   0.742   2.945   0.609 -0.0301  0.3500  0.3398
  385SOL     OW 1537   1.443   2.047   1.545 -0.3241  0.0065 -0.0785
  385SOL    HW1 1538   1.509   2.107   1.589 -0.6471  1.1716 -0.8822
  385SOL    HW2 1539   1.416   1.984   1.616 -1.6643  2.9610  0.0087
  385SOL     MW 1540   1.448   2.047   1.560 -0.5435  0.5501 -0.1730
  386SOL     OW 1541   1.347   0.366   0.850  1.5093  0.2552 -0.0395
  386SOL    HW1 1542   1.299   0.370   0.932  0.4213  0.6518 -0.9780
  386SOL    HW2 1543   1.422   0.312   0.872  1.4487  1.4309  0.4865
  386SOL     MW 1544   1.350   0.359   0.863  1.3577  0.4627 -0.0939
  387SOL     OW 1545   0.791   2.134   1.496  0.3319  0.0555  0.0600
  387SOL    HW1 1546   0.863   2.190   1.463 -1.3594 -1.1694  3.3572
  387SOL    HW2 1547   0.809   2.045   1.473  2.3084 -0.4313  1.8742
  387SOL     MW 1548   0.803   2.129   1.489  0.3695 -0.1703  0.7344
  388SOL     OW 1549   1.483   2.749   1.299 -0.7188 -0.1120 -0.2548
  388SOL    HW1 1550   1.429   2.829   1.283 -2.1832  0.2665  0.3630
  388SOL    HW2 1551   1.452   2.697   1.230 -0.8873  4.5126  0.0332
  388SOL     MW 1552   1.472   2.753   1.288 -0.9343  0.5481 -0.1353
  389SOL     OW 1553   0.568   0.136   3.050 -0.2392  0.0020 -0.0439
  389SOL    HW1 1554   0.645   0.072   3.032 -0.1436  0.4364  0.9096
  389SOL    HW2 1555   0.539   0.162   2.960  1.2482 -2.5339  0.5248
  389SOL     MW 1556   0.575   0.131   3.036 -0.0304 -0.2753  0.1569
  390SOL     OW 1557   1.351   0.043   0.712  0.1165 -0.2204  0.7339
  390SOL    HW1 1558   1.374   0.041   0.617 -1.7790 -2.4068 -2.5212
  390SOL    HW2 1559   1.412   0.105   0.748 -2.1124 -1.3277  0.7363
  390SOL     MW 1560   1.362   0.051   0.704 -0.4277 -0.6550  0.3047
  391SOL     OW 1561   0.378   2.184   1.508 -0.7291 -0.3495  0.4245
  391SOL    HW1 1562   0.342   2.095   1.526 -0.3435 -0.8656 -0.0957
  391SOL    HW2 1563   0.300   2.237   1.530  0.1975 -0.6070  1.7043
  391SOL     MW 1564   0.363   2.179   1.513 -0.5559 -0.4516  0.5247
  392SOL     OW 1565   2.059   2.224   0.289 -0.1437 -0.0011  0.5741
  392SOL    HW1 1566   2.141   2.267   0.320 -0.1389  0.7540 -0.7458
  392SOL    HW2 1567   2.007   2.303   0.263 -1.2355  0.8893  0.5943
  392SOL     MW 1568   2.063   2.240   0.290 -0.2871  0.2160  0.4026
  393SOL     OW 1569   0.264   2.949   2.861 -0.5928 -0.0372  0.3643
  393SOL    HW1 1570   0.331   2.911   2.802  1.4468 -0.0958 -0.5710
  393SOL    HW2 1571   0.267   3.044   2.843  0.2054  1.3137  1.8493
  393SOL     MW 1572   0.273   2.957   2.851 -0.2184  0.1333  0.4369
  394SOL     OW 1573   0.982   1.707   1.554  0.5570  0.1596 -0.0152
  394SOL    HW1 1574   0.992   1.759   1.636 -4.2380 -0.8015 -1.1979
  394SOL    HW2 1575   0.962   1.773   1.490 -3.1220 -1.3799 -2.1561
  394SOL     MW 1576   0.980   1.723   1.556 -0.5611 -0.1703 -0.4537
  395SOL     OW 1577   0.964   2.965   2.543 -0.2986  0.4309  0.2214
  395SOL    HW1 1578   0.994   3.001   2.625  0.3521 -0.5201 -1.7783
  395SOL    HW2 1579   1.006   2.879   2.545  0.3272 -1.3978  2.3848
  395SOL     MW 1580   0.974   2.958   2.554 -0.1302  0.0641  0.2430
  396SOL     OW 1581   0.724   1.870   2.435  0.1258 -0.6888  0.0427
  396SOL    HW1 1582   0.805   1.859   2.489  0.8123 -0.0331 -0.0007
  396SOL    HW2 1583   0.677   1.787   2.431 -2.0294  0.6003 -1.0949
  396SOL     MW 1584   0.729   1.857   2.442 -0.0680 -0.4322 -0.1131
  397SOL     OW 1585   0.988   2.316   1.426 -0.6277 -0.2560 -0.1792
  397SOL    HW1 1586   0.999   2.335   1.328 -2.5717  0.4800 -3.1121
  397SOL    HW2 1587   1.073   2.274   1.450 -0.0648 -1.7643  0.5796
  397SOL     MW 1588   1.000   2.313   1.416 -0.8099 -0.3579 -0.4660
  398SOL     OW 1589   0.596   2.736   0.595 -0.0330 -0.0395 -0.1431
  398SOL    HW1 1590   0.515   2.715   0.543 -0.1371  0.4536  2.0261
  398SOL    HW2 1591   0.650   2.657   0.603 -0.8215 -0.6846 -0.3138
  398SOL     MW 1592   0.593   2.723   0.589 -0.1507 -0.0595  0.1206
  399SOL     OW 1593   0.206   2.094   0.320 -0.1260 -0.0774  0.0205
  399SOL    HW1 1594   0.120   2.125   0.320  2.2295 -0.9756  0.1069
  399SOL    HW2 1595   0.242   2.118   0.228 -0.8452  2.5987 -1.2127
  399SOL     MW 1596   0.200   2.101   0.308  0.0899  0.1571 -0.1308
  400SOL     OW 1597   0.567   1.942   0.102  0.3090 -0.7347  0.0610
  400SOL    HW1 1598   0.519   2.024   0.111 -2.1565 -0.9864  0.4193
  400SOL    HW2 1599   0.552   1.887   0.177 -2.9371  0.2491 -2.4038
  400SOL     MW 1600   0.559   1.946   0.113 -0.4446 -0.6381 -0.2170
  401SOL     OW 1601   0.826   2.079   0.050 -0.3677 -0.6962 -0.6429
  401SOL    HW1 1602   0.909   2.026   0.055  1.6877  2.1756  2.8747
  401SOL    HW2 1603   0.755   2.031   0.093  2.8253 -3.4165  0.2694
  401SOL     MW 1604   0.828   2.065   0.056  0.3248 -0.6762 -0.0584
  402SOL     OW 1605   0.556   2.979   1.723 -0.3096  0.0462  0.0834
  402SOL    HW1 1606   0.600   2.968   1.804 -0.4797  1.6584 -0.9293
  402SOL    HW2 1607   0.606   3.047   1.675  1.4775  1.2899  0.8242
  402SOL     MW 1608   0.568   2.986   1.727 -0.0962  0.4230  0.0475
  403SOL     OW 1609   0.098   0.518   0.370 -0.6908  0.2791 -0.4196
  403SOL    HW1 1610   0.186   0.550   0.406  1.8906 -0.1810  2.6994
  403SOL    HW2 1611   0.119   0.464   0.298 -0.0511  1.4973  1.3719
  403SOL     MW 1612   0.112   0.515   0.365 -0.2658  0.3791  0.2283
  404SOL     OW 1613   0.975   2.905   0.771  0.0837 -0.1931  0.1959
  404SOL    HW1 1614   1.028   2.831   0.747  1.3334  0.3379  0.5935
  404SOL    HW2 1615   1.001   2.992   0.732 -0.8769 -2.5332  1.1421
  404SOL     MW 1616   0.986   2.907   0.762  0.1218 -0.4318  0.3732
  405SOL     OW 1617   0.484   2.482   1.521 -0.4113  0.3993  0.0456
  405SOL    HW1 1618   0.494   2.560   1.469 -0.2345 -1.1933  2.9058
  405SOL    HW2 1619   0.491   2.403   1.460 -0.1675 -2.0842 -0.4859
  405SOL     MW 1620   0.487   2.482   1.506 -0.3558 -0.1385  0.3529
  406SOL     OW 1621   0.360   2.389   1.154 -0.4057 -0.0240  0.3327
  406SOL    HW1 1622   0.262   2.379   1.126 -0.6368  0.1892  2.2972
  406SOL    HW2 1623   0.378   2.298   1.188  2.0477 -0.2327 -0.3567
  406SOL     MW 1624   0.349   2.376   1.154 -0.1125 -0.0234  0.5009
  407SOL     OW 1625   0.077   2.662   1.158 -0.2338  0.0096  0.3008
  407SOL    HW1 1626   0.136   2.682   1.234  2.4640 -0.6670 -1.0324
  407SOL    HW2 1627   0.126   2.700   1.084  2.6359 -1.4370 -0.7477
  407SOL     MW 1628   0.091   2.670   1.158  0.5008 -0.2705 -0.0135
  408SOL     OW 1629   2.109   2.106   0.719 -0.4118 -0.1907  0.8430
  408SOL    HW1 1630   2.054   2.155   0.773 -0.8894 -0.1356 -0.5115
  408SOL    HW2 1631   2.049   2.061   0.659 -0.0943  3.9468  3.0597
  408SOL     MW 1632   2.094   2.106   0.718 -0.4329  0.3625  0.9568
  409SOL     OW 1633   1.529   0.139   0.894  0.5575  0.0791 -0.2520
  409SOL    HW1 1634   1.602   0.201   0.925  1.9168 -1.1423 -0.8427
  409SOL    HW2 1635   1.540   0.061   0.955 -0.2207 -0.6438  2.8293
  409SOL     MW 1636   1.540   0.137   0.906  0.6341 -0.1774  0.0766
  410SOL     OW 1637   1.042   2.452   1.172 -0.2614  0.5569 -0.0874
  410SOL    HW1 1638   0.981   2.515   1.137  0.7017 -1.4446 -1.5881
  410SOL    HW2 1639   1.104   2.417   1.102  1.7612 -1.2991  1.2569
  410SOL     MW 1640   1.042   2.456   1.158  0.1325  0.0480 -0.1080
  411SOL     OW 1641   2.002   3.033   2.898  0.7822 -0.7769 -0.2581
  411SOL    HW1 1642   1.929   2.987   2.853  0.0589 -1.8536 -0.0860
  411SOL    HW2 1643   1.957   3.102   2.946  0.3488 -1.6510  1.3029
  411SOL     MW 1644   1.986   3.036   2.899  0.6296 -1.0343 -0.0295
  412SOL     OW 1645   1.063   2.268   0.603 -0.0797  0.4859  0.1205
  412SOL    HW1 1646   1.095   2.344   0.650 -1.4995 -1.9511  1.0369
  412SOL    HW2 1647   0.972   2.298   0.576  1.6328  3.1021  1.6984
  412SOL     MW 1648   1.055   2.282   0.605 -0.0411  0.5096  0.4496
  413SOL     OW 1649   0.589   2.767   0.061  0.3042  0.0742  0.2817
  413SOL    HW1 1650   0.618   2.669   0.070 -0.6530 -2.7440  1.8329
  413SOL    HW2 1651   0.594   2.782  -0.035 -0.2864 -0.7345  2.5517
  413SOL     MW 1652   0.593   2.756   0.050  0.1000 -0.4043  0.7859
  414SOL     OW 1653   2.033   3.020   1.169 -0.6433  0.6948  0.0697
  414SOL    HW1 1654   2.051   3.112   1.194 -0.3863 -0.3277 -1.3410
  414SOL    HW2 1655   1.998   3.020   1.080  2.3309  2.2798  0.1500
  414SOL     MW 1656   2.030   3.032   1.161 -0.2170  0.7690 -0.1058
  415SOL     OW 1657   1.646   2.801   1.080 -0.3589 -0.5441  0.1473
  415SOL    HW1 1658   1.596   2.773   1.156 -1.1576  1.9770  0.1365
  415SOL    HW2 1659   1.738   2.771   1.093  0.8977  2.5798  2.6734
  415SOL     MW 1660   1.651   2.793   1.091 -0.2985  0.2007  0.4791
  416SOL     OW 1661   0.581   1.791   1.452  0.4259 -0.3729  0.5936
  416SOL    HW1 1662   0.503   1.760   1.400  0.2807 -1.0313 -2.6370
  416SOL    HW2 1663   0.640   1.719   1.443 -0.3015 -1.3911  1.0796
  416SOL     MW 1664   0.578   1.777   1.444  0.3107 -0.5941  0.2315
  417SOL     OW 1665   0.987   3.029   2.048  0.2049 -0.0345  0.4758
  417SOL    HW1 1666   0.911   3.028   2.107 -1.4758  1.2246 -1.2080
  417SOL    HW2 1667   0.940   3.006   1.957 -1.2728  2.1885  1.5719
  417SOL     MW 1668   0.970   3.026   2.044 -0.2118  0.4249  0.3982
  418SOL     OW 1669   0.739   2.958   0.172 -0.3568  0.1430  0.0136
  418SOL    HW1 1670   0.779   2.989   0.092  0.0928 -0.2274 -0.0525
  418SOL    HW2 1671   0.676   2.888   0.147 -1.3617  1.5184 -4.1064
  418SOL     MW 1672   0.736   2.953   0.158 -0.4300  0.2756 -0.5387
  419SOL     OW 1673   0.539   2.678   1.350  0.7591  0.3169 -0.2185
  419SOL    HW1 1674   0.566   2.762   1.384 -0.3697 -0.2490  1.3809
  419SOL    HW2 1675   0.621   2.628   1.368  0.6556 -2.8304  0.2809
  419SOL     MW 1676   0.554   2.683   1.357  0.5965 -0.1730  0.0584
  420SOL     OW 1677   0.759   2.243   1.068 -0.0161  0.5966 -0.5973
  420SOL    HW1 1678   0.719   2.261   1.155  1.0150  2.1728 -0.2937
  420SOL    HW2 1679   0.797   2.332   1.039  0.8799 -0.0817 -1.4134
  420SOL     MW 1680   0.759   2.257   1.076  0.2382  0.7151 -0.6649
  421SOL     OW 1681   2.936   0.152   3.085 -0.0568 -0.0767 -0.0380
  421SOL    HW1 1682   2.859   0.103   3.047 -2.3195  1.1683 -1.2325
  421SOL    HW2 1683   3.005   0.087   3.088  1.1396  1.0663 -2.4949
  421SOL     MW 1684   2.935   0.137   3.080 -0.1975  0.2384 -0.5197
  422SOL     OW 1685   0.822   2.489   0.965 -0.2543 -0.2795  0.5237
  422SOL    HW1 1686   0.753   2.537   1.015  1.7517 -0.1074  0.4260
  422SOL    HW2 1687   0.802   2.512   0.874  1.4880  2.6275  0.3575
  422SOL     MW 1688   0.810   2.498   0.960  0.2403  0.1268  0.4889
  423SOL     OW 1689   1.467   0.060   0.456 -0.4446  0.0175  0.4716
  423SOL    HW1 1690   1.464   0.054   0.365 -0.0919  1.4392 -0.1466
  423SOL    HW2 1691   1.452   0.155   0.457 -2.3107 -1.0545  1.9201
  423SOL     MW 1692   1.465   0.072   0.444 -0.6443  0.0637  0.5812
  424SOL     OW 1693   0.651   2.299   1.336 -0.2054 -0.5417  0.5364
  424SOL    HW1 1694   0.586   2.243   1.286 -3.0621  1.1080 -0.6899
  424SOL    HW2 1695   0.675   2.243   1.411  1.7030  1.5344  1.8067
  424SOL     MW 1696   0.645   2.284   1.339 -0.3305 -0.0501  0.5422
  425SOL     OW 1697   1.695   2.772   2.064 -0.2454  0.1422  0.3637
  425SOL    HW1 1698   1.721   2.778   1.970 -3.4762  0.4598 -2.1895
  425SOL    HW2 1699   1.728   2.687   2.106 -1.1055  0.9630 -0.8887
  425SOL     MW 1700   1.703   2.762   2.057 -0.7852  0.2924 -0.1384
  426SOL     OW 1701   0.865   1.752   1.993  0.7571 -0.0237  0.1618
  426SOL    HW1 1702   0.802   1.768   1.924 -0.1915  1.0410 -1.6261
  426SOL    HW2 1703   0.835   1.811   2.066  1.6155  2.5626 -2.4717
  426SOL     MW 1704   0.853   1.762   1.994  0.7452  0.4580 -0.4216
  427SOL     OW 1705   0.353   1.704   1.873 -0.5337  0.2596 -0.0292
  427SOL    HW1 1706   0.379   1.642   1.801 -0.8245 -1.5909 -1.9153
  427SOL    HW2 1707   0.304   1.644   1.940  1.1793  0.3184  0.5792
  427SOL     MW 1708   0.350   1.688   1.872 -0.3461  0.0232 -0.1978
  428SOL     OW 1709   0.558   2.583   1.100  0.3701  0.0720 -0.2463
  428SOL    HW1 1710   0.513   2.498   1.104 -1.6917 -1.0656 -0.1809
  428SOL    HW2 1711   0.537   2.613   1.198  2.3836  1.1584  1.6688
  428SOL     MW 1712   0.549   2.576   1.114  0.3637  0.0653  0.0150
  429SOL     OW 1713   1.209   2.750   1.148 -0.6870 -0.1388  0.0937
  429SOL    HW1 1714   1.118   2.727   1.165 -2.3089 -0.8328 -0.9970
  429SOL    HW2 1715   1.201   2.832   1.105 -0.8825 -1.2901 -0.5896
  429SOL     MW 1716   1.196   2.757   1.145 -0.9268 -0.3822 -0.1403
  430SOL     OW 1717   1.176   2.713   0.711  0.0069  0.3087  0.0346
  430SOL    HW1 1718   1.166   2.628   0.753  0.8590 -1.6135 -0.1988
  430SOL    HW2 1719   1.125   2.689   0.626  1.2119 -0.4078  1.0217
  430SOL     MW 1720   1.168   2.699   0.705  0.2783 -0.0395  0.1340
  431SOL     OW 1721   0.302   1.940   1.142 -0.3736 -0.4349  0.2966
  431SOL    HW1 1722   0.372   1.866   1.127  0.4278 -1.3500  3.3012
  431SOL    HW2 1723   0.280   1.976   1.052 -0.6958 -0.2403  0.3271
  431SOL     MW 1724   0.309   1.935   1.128 -0.3104 -0.5300  0.6970
  432SOL     OW 1725   0.041   0.028   1.115  0.2273  0.1375  0.1074
  432SOL    HW1 1726   0.044   0.064   1.204  1.0714  0.0933 -1.5880
  432SOL    HW2 1727  -0.004  -0.058   1.128 -1.6754  0.4657 -0.7304
  432SOL     MW 1728   0.036   0.021   1.129  0.0876  0.1749 -0.2268
  433SOL     OW 1729   0.667   2.897   1.472 -0.4009  0.0938 -0.6301
  433SOL    HW1 1730   0.628   2.902   1.565 -0.7720 -0.2237 -0.2050
  433SOL    HW2 1731   0.764   2.880   1.498  1.5670 -0.5566  2.8612
  433SOL     MW 1732   0.675   2.895   1.488 -0.1902 -0.0339 -0.1134
  434SOL     OW 1733   1.559   2.797   1.578 -0.3355  0.4847  0.5782
  434SOL    HW1 1734   1.465   2.816   1.579 -0.8271  3.6150 -0.0108
  434SOL    HW2 1735   1.576   2.770   1.487  0.5111 -0.8340  1.0786
  434SOL     MW 1736   1.549   2.796   1.566 -0.2887  0.7237  0.5665
  435SOL     OW 1737   2.758   1.767   0.213  0.0771  0.4138  0.3462
  435SOL    HW1 1738   2.813   1.827   0.154 -2.8992 -2.3236 -0.0565
  435SOL    HW2 1739   2.671   1.790   0.197  0.9098 -0.8710  1.2894
  435SOL     MW 1740   2.754   1.778   0.203 -0.2058 -0.1169  0.4175
  436SOL     OW 1741   1.408   2.704   0.356 -0.3921 -0.2099 -0.4569
  436SOL    HW1 1742   1.443   2.682   0.447  1.8614  2.6219 -0.7260
  436SOL    HW2 1743   1.356   2.789   0.366  0.3901 -0.2920  1.2130
  436SOL     MW 1744   1.406   2.713   0.369  0.0084  0.1529 -0.2721
  437SOL     OW 1745   1.065   2.969   1.326  0.1445  0.3636  0.0103
  437SOL    HW1 1746   1.062   3.021   1.244 -0.3632  0.2334  1.7678
  437SOL    HW2 1747   1.027   2.888   1.291  0.8239  2.5933 -0.9923
  437SOL     MW 1748   1.059   2.965   1.311  0.1672  0.6406  0.1099
  438SOL     OW 1749   0.872   2.725   1.918  0.3727  0.2453 -0.0395
  438SOL    HW1 1750   0.850   2.650   1.980 -1.7595  0.6308  2.6020
  438SOL    HW2 1751   0.839   2.699   1.834  2.7800  2.3194  1.2342
  438SOL     MW 1752   0.865   2.712   1.915  0.4090  0.5698  0.4771
  439SOL     OW 1753   1.156   2.090   0.429  0.1739 -0.1829 -0.2076
  439SOL    HW1 1754   1.110   2.140   0.499 -0.8593 -2.3540  0.1095
  439SOL    HW2 1755   1.159   2.148   0.349  0.2805 -1.7817  0.2237
  439SOL     MW 1756   1.151   2.104   0.428  0.0517 -0.6803 -0.1089
  440SOL     OW 1757   1.753   2.952   3.075  0.5864  0.0767  0.1583
  440SOL    HW1 1758   1.708   2.934   3.158  2.8316 -1.7484  0.7651
  440SOL    HW2 1759   1.847   2.942   3.100  2.8707 -0.2960 -0.7013
  440SOL     MW 1760   1.760   2.948   3.089  1.1840 -0.2133  0.1250
  441SOL     OW 1761   0.357   2.654   0.500 -0.5272  0.4586 -0.4415
  441SOL    HW1 1762   0.323   2.587   0.431  1.0692 -1.6307 -2.9512
  441SOL    HW2 1763   0.356   2.744   0.459 -0.8038 -0.5637 -0.3622
  441SOL     MW 1764   0.352   2.657   0.485 -0.3531  0.0481 -0.7622
  442SOL     OW 1765   3.090   2.319   0.594 -0.0186 -1.0580 -0.1488
  442SOL    HW1 1766   3.072   2.418   0.583 -0.0264  1.1461  2.7685
  442SOL    HW2 1767   3.009   2.286   0.629  1.6704  0.0276 -0.2344
  442SOL     MW 1768   3.077   2.328   0.597  0.2032 -0.6240  0.2248
  443SOL     OW 1769   1.495   1.761   1.895 -0.1510  0.4711 -0.3154
  443SOL    HW1 1770   1.440   1.782   1.815 -1.5045 -2.5549 -1.3977
  443SOL    HW2 1771   1.461   1.672   1.915  0.2279 -1.6418 -3.0906
  443SOL     MW 1772   1.483   1.752   1.887 -0.2795 -0.2069 -0.8243
  444SOL     OW 1773   0.943   2.607   1.597  0.3761 -0.0112  0.4386
  444SOL    HW1 1774   1.006   2.549   1.642  2.1751  0.3629  1.5424
  444SOL    HW2 1775   0.859   2.583   1.642 -1.8399  1.8063 -0.1248
  444SOL     MW 1776   0.940   2.596   1.609  0.3211  0.2780  0.5099
  445SOL     OW 1777   1.209   0.151   1.426  0.2524 -0.2640  0.3818
  445SOL    HW1 1778   1.184   0.227   1.479  1.2176  0.0818 -1.1721
  445SOL    HW2 1779   1.189   0.184   1.337 -1.9067  0.5454  1.2299
  445SOL     MW 1780   1.203   0.165   1.421  0.0949 -0.1116  0.2887
  446SOL     OW 1781   2.795   2.856   1.033 -0.3698  0.1438  0.0702
  446SOL    HW1 1782   2.732   2.898   0.969  1.6089 -1.3296 -1.4086
  446SOL    HW2 1783   2.855   2.793   0.989 -0.5969  1.4643  2.0081
  446SOL     MW 1784   2.795   2.854   1.019 -0.1387  0.1236  0.1308
  447SOL     OW 1785   0.011   1.974   1.592 -0.2261 -0.2979 -0.6108
  447SOL    HW1 1786   0.039   1.911   1.655  0.3101 -0.6890 -1.7150
  447SOL    HW2 1787  -0.063   1.932   1.534  1.0331 -0.1168 -1.1905
  447SOL     MW 1788   0.005   1.960   1.593  0.0108 -0.3256 -0.8330
  448SOL     OW 1789   1.783   2.444   1.675  0.1873 -0.1988  0.2154
  448SOL    HW1 1790   1.727   2.366   1.647 -0.0313  0.9253 -1.5930
  448SOL    HW2 1791   1.725   2.518   1.683  0.6590  1.3899 -0.6622
  448SOL     MW 1792   1.768   2.443   1.672  0.2207  0.1591 -0.1390
  449SOL     OW 1793   0.902   2.954   0.374 -0.2696  0.4635  0.3533
  449SOL    HW1 1794   0.840   2.946   0.298  1.5176  1.7320  0.7434
  449SOL    HW2 1795   0.848   2.967   0.452  1.1618 -2.3281 -1.3952
  449SOL     MW 1796   0.886   2.954   0.374  0.1551  0.2626  0.1741
  450SOL     OW 1797   1.183   2.451   0.770 -0.1296  0.4452  0.1016
  450SOL    HW1 1798   1.219   2.426   0.854  1.0402  1.1180 -1.3333
  450SOL    HW2 1799   1.258   2.451   0.708 -1.6218  2.1943 -2.0269
  450SOL     MW 1800   1.198   2.448   0.773 -0.1721  0.7647 -0.3686
  451SOL     OW 1801   0.577   2.002   1.710 -0.7664  0.1717  0.0701
  451SOL    HW1 1802   0.625   2.068   1.657 -0.1552 -2.1221  0.2082
  451SOL    HW2 1803   0.517   1.963   1.644 -0.5597 -1.4417  2.8584
  451SOL     MW 1804   0.575   2.005   1.694 -0.6585 -0.3438  0.4562
  452SOL     OW 1805   0.358   2.637   0.052  0.7108  0.3481  0.1580
  452SOL    HW1 1806   0.443   2.696   0.043  1.1040 -0.2355 -0.6393
  452SOL    HW2 1807   0.286   2.703   0.029 -3.0989  1.4632  0.0299
  452SOL     MW 1808   0.359   2.654   0.048  0.2600  0.4182  0.0359
  453SOL     OW 1809   0.308   3.084   1.590 -0.7042  0.3559 -0.2234
  453SOL    HW1 1810   0.368   3.024   1.629 -0.2962 -0.5482  0.8038
  453SOL    HW2 1811   0.355   3.103   1.503  1.7911 -0.9616 -2.2275
  453SOL     MW 1812   0.322   3.078   1.584 -0.3212  0.0628 -0.3523
  454SOL     OW 1813   0.936   2.745   1.216  0.4284  0.1692  0.6051
  454SOL    HW1 1814   0.880   2.680   1.257 -1.6223 -2.3184 -0.0591
  454SOL    HW2 1815   0.876   2.780   1.149 -2.3032  1.2262  3.4046
  454SOL     MW 1816   0.921   2.741   1.213 -0.2026 -0.0196  0.8868
  455SOL     OW 1817   1.658   2.888   0.253 -0.2880  0.3025 -0.5310
  455SOL    HW1 1818   1.712   2.856   0.325  1.3576 -1.0593  0.5182
  455SOL    HW2 1819   1.614   2.807   0.236  0.9230 -0.9265  3.4552
  455SOL     MW 1820   1.659   2.873   0.260  0.0889 -0.0394  0.1334
  456SOL     OW 1821   2.737   0.292   1.504  0.4722 -0.1753 -0.6708
  456SOL    HW1 1822   2.699   0.219   1.460 -1.3015  0.2110  0.3436
  456SOL    HW2 1823   2.812   0.312   1.455 -0.4873 -0.9234 -0.6784
  456SOL     MW 1824   2.742   0.285   1.491  0.1116 -0.2230 -0.5380
  457SOL     OW 1825   0.793   1.635   3.039  0.0594  0.8766  0.1082
  457SOL    HW1 1826   0.702   1.612   3.014  1.1997  1.5515 -0.3349
  457SOL    HW2 1827   0.778   1.655   3.134 -2.0395  0.3042 -1.5420
  457SOL     MW 1828   0.779   1.635   3.048 -0.0670  0.8901 -0.1680
  458SOL     OW 1829   1.377   1.477   0.676  0.9433  0.8975  0.0402
  458SOL    HW1 1830   1.322   1.535   0.616 -2.8119  0.3070 -2.5346
  458SOL    HW2 1831   1.348   1.393   0.644  0.0863  2.9893  1.1424
  458SOL     MW 1832   1.366   1.473   0.664  0.3347  1.0956 -0.1541
  459SOL     OW 1833   1.552   0.029   0.204  0.2771 -0.7014  0.1643
  459SOL    HW1 1834   1.582  -0.060   0.223  3.1911 -0.0414 -0.6159
  459SOL    HW2 1835   1.511   0.022   0.114  0.6095 -1.4613  1.1083
  459SOL     MW 1836   1.551   0.016   0.195  0.7054 -0.7146  0.1859
  460SOL     OW 1837   1.786   2.185   0.681 -0.9073  0.1040  0.2678
  460SOL    HW1 1838   1.698   2.159   0.718  0.6845 -0.9252  0.6411
  460SOL    HW2 1839   1.813   2.106   0.635  0.7694  0.7556  0.9005
  460SOL     MW 1840   1.778   2.172   0.680 -0.4761  0.0542  0.4005
  461SOL     OW 1841   0.471   2.412   0.612  0.0237 -0.6714  0.0012
  461SOL    HW1 1842   0.455   2.493   0.571 -0.5294 -0.7146  0.2638
  461SOL    HW2 1843   0.424   2.424   0.693  1.1486 -0.4833 -1.4514
  461SOL     MW 1844   0.462   2.424   0.617  0.0991 -0.6523 -0.1558
  462SOL     OW 1845   0.328   0.229   1.293 -0.8407 -0.4908  0.3072
  462SOL    HW1 1846   0.375   0.204   1.209  0.5461  0.8317  1.6015
  462SOL    HW2 1847   0.400   0.256   1.359  0.0126 -2.3559 -1.9385
  462SOL     MW 1848   0.344   0.229   1.291 -0.5451 -0.5624  0.1817
  463SOL     OW 1849   1.034   0.065   0.716  0.3369  0.1256 -0.1657
  463SOL    HW1 1850   1.084   0.077   0.639  2.7131  1.3079  2.8278
  463SOL    HW2 1851   0.938   0.092   0.695  1.9609 -1.0293  1.4045
  463SOL     MW 1852   1.028   0.070   0.703  0.8647  0.1292  0.4365
  464SOL     OW 1853   0.786   3.043   2.240 -0.2254  0.1655  0.3502
  464SOL    HW1 1854   0.757   2.952   2.256 -1.1056  1.1037 -0.2483
  464SOL    HW2 1855   0.798   3.080   2.325  0.0553  1.8844  2.0416
  464SOL     MW 1856   0.784   3.036   2.254 -0.3045  0.5161  0.4944
  465SOL     OW 1857   0.870   0.327   0.408  0.1108  0.3204  0.0701
  465SOL    HW1 1858   0.808   0.282   0.462 -1.4337  1.7808 -1.9457
  465SOL    HW2 1859   0.818   0.333   0.321 -2.9319  1.7935 -0.7868
  465SOL     MW 1860   0.855   0.322   0.404 -0.4945  0.7075 -0.3089
  466SOL     OW 1861   1.044   2.049   0.753  0.5683 -0.2066 -0.5580
  466SOL    HW1 1862   1.049   1.977   0.694  0.4443  0.3125 -1.6300
  466SOL    HW2 1863   1.046   2.135   0.692  2.2342  0.1946 -1.1638
  466SOL     MW 1864   1.045   2.051   0.737  0.7717 -0.0852 -0.7793
  467SOL     OW 1865   1.260   2.355   1.005  0.3397 -0.3525  0.0296
  467SOL    HW1 1866   1.354   2.374   1.003 -0.0995  1.5775  0.0488
  467SOL    HW2 1867   1.257   2.261   0.981 -0.0617 -1.7534  0.3222
  467SOL     MW 1868   1.272   2.345   1.002  0.2288 -0.2827  0.0707
  468SOL     OW 1869   0.452   2.676   1.877 -0.4651 -0.2462 -0.7245
  468SOL    HW1 1870   0.420   2.588   1.855 -0.3128  0.7692  0.3296
  468SOL    HW2 1871   0.374   2.735   1.889 -0.9769  2.8793  2.6438
  468SOL     MW 1872   0.437   2.672   1.876 -0.5126  0.3001 -0.1410
  469SOL     OW 1873   0.392   2.152   1.872 -0.0275  0.1774  0.1639
  469SOL    HW1 1874   0.320   2.091   1.906  1.0440 -1.4643  1.6202
  469SOL    HW2 1875   0.447   2.093   1.819 -0.1498  0.9384  1.5870
  469SOL     MW 1876   0.390   2.136   1.869  0.0978  0.0612  0.5438
  470SOL     OW 1877   3.088   2.588   0.151 -0.1092  0.2994 -0.0859
  470SOL    HW1 1878   2.994   2.588   0.185 -0.6239  0.8224 -1.2826
  470SOL    HW2 1879   3.076   2.612   0.061 -0.7139 -0.0471 -3.1289
  470SOL     MW 1880   3.074   2.591   0.144 -0.2569  0.3227 -0.6453
  471SOL     OW 1881   1.184   2.544   1.389 -0.0908 -0.4465  0.5058
  471SOL    HW1 1882   1.106   2.530   1.447  0.2299  1.0922  1.4850
  471SOL    HW2 1883   1.137   2.517   1.308 -1.1509 -2.6535 -1.1529
  471SOL     MW 1884   1.167   2.539   1.386 -0.1884 -0.5347  0.4161
  472SOL     OW 1885   2.790   2.083   0.366  0.0262  0.2289  0.4075
  472SOL    HW1 1886   2.808   2.042   0.281 -0.4575 -0.3628 -1.5331
  472SOL    HW2 1887   2.781   2.003   0.423  1.7110 -0.3047 -1.4268
  472SOL     MW 1888   2.791   2.067   0.362  0.1847  0.0804 -0.0905
  473SOL     OW 1889   0.773   2.547   1.355 -0.2963  0.7599  0.2139
  473SOL    HW1 1890   0.726   2.464   1.365 -2.0693  0.9215  1.2926
  473SOL    HW2 1891   0.815   2.559   1.439 -0.1702  0.1058  2.5060
  473SOL     MW 1892   0.772   2.538   1.368 -0.5136  0.6949  0.6587
  474SOL     OW 1893   0.721   2.286   1.748 -0.3744  0.1682 -0.6110
  474SOL    HW1 1894   0.789   2.305   1.814 -0.2665 -0.5440  1.4854
  474SOL    HW2 1895   0.773   2.263   1.666  0.3208 -0.6406  0.9410
  474SOL     MW 1896   0.736   2.286   1.746 -0.2684 -0.0325 -0.1296
  475SOL     OW 1897   1.620   3.096   1.460 -0.1132  0.2024  0.6213
  475SOL    HW1 1898   1.546   3.067   1.403 -3.2084 -1.3268  2.1286
  475SOL    HW2 1899   1.615   3.037   1.533 -2.9083  1.9398  0.9864
  475SOL     MW 1900   1.609   3.084   1.462 -0.8904  0.2299  0.8683
  476SOL     OW 1901   1.422   2.613   1.073  0.6859 -0.5800  0.3262
  476SOL    HW1 1902   1.332   2.650   1.087  1.2887  1.7738  0.3258
  476SOL    HW2 1903   1.454   2.677   1.007  0.0945  1.9872  0.1004
  476SOL     MW 1904   1.414   2.626   1.067  0.6874  0.0693  0.2964
  477SOL     OW 1905   0.794   2.554   0.643  0.6591  0.7690 -0.0752
  477SOL    HW1 1906   0.863   2.608   0.608  2.6759 -1.0415  0.8099
  477SOL    HW2 1907   0.792   2.468   0.596  0.3635  1.5433  2.3872
  477SOL     MW 1908   0.803   2.550   0.632  0.8862  0.6323  0.3665
  478SOL     OW 1909   0.139   2.684   0.894 -0.0514  0.0666  0.4517
  478SOL    HW1 1910   0.167   2.772   0.873  0.6837 -1.3629 -2.6711
  478SOL    HW2 1911   0.189   2.627   0.840 -1.4884  0.7437 -0.6932
  478SOL     MW 1912   0.149   2.688   0.884 -0.1440 -0.0327 -0.1114
  479SOL     OW 1913   1.453   2.000   1.282 -0.5371  0.4061  0.2234
  479SOL    HW1 1914   1.434   2.025   1.375 -1.0559  0.3320  2.7224
  479SOL    HW2 1915   1.478   1.906   1.287  2.7184 -1.2529  1.1558
  479SOL     MW 1916   1.453   1.991   1.295 -0.1760  0.1774  0.6762
  480SOL     OW 1917   1.984   2.445   1.282  0.7254  0.2485  0.3113
  480SOL    HW1 1918   1.946   2.360   1.299  1.5799  0.0336 -0.0857
  480SOL    HW2 1919   2.011   2.444   1.189  1.2143 -0.4220 -1.1148
  480SOL     MW 1920   1.983   2.434   1.272  0.9026  0.1317  0.0708
  481SOL     OW 1921   1.057   0.022   1.091 -0.2507  0.7746 -0.0671
  481SOL    HW1 1922   1.117  -0.025   1.029  0.8116  1.7422 -1.1990
  481SOL    HW2 1923   1.096   0.113   1.100  4.4343 -0.1753  1.8012
  481SOL     MW 1924   1.070   0.028   1.084  0.5076  0.7770  0.0300
  482SOL     OW 1925   1.085   3.088   0.256  0.5045 -0.2715  0.4446
  482SOL    HW1 1926   1.013   3.035   0.298  0.4773 -1.1173  2.5614
  482SOL    HW2 1927   1.093   3.161   0.318 -0.3556 -2.1836 -2.3064
  482SOL     MW 1928   1.076   3.091   0.270  0.3874 -0.6354  0.3609
  483SOL     OW 1929   0.423   2.914   0.408  0.4256  0.1538 -0.4277
  483SOL    HW1 1930   0.345   2.945   0.353 -1.9862  2.3257  0.4246
  483SOL    HW2 1931   0.418   2.971   0.486  0.9229  0.8079 -1.0655
  483SOL     MW 1932   0.412   2.925   0.411  0.1730  0.5267 -0.3994
  484SOL     OW 1933   1.901   1.935   1.482 -0.0233  0.6810  0.0323
  484SOL    HW1 1934   1.930   1.991   1.414  0.2811  1.2286  1.2314
  484SOL    HW2 1935   1.835   1.986   1.520  0.0086  0.5947 -2.2433
  484SOL     MW 1936   1.896   1.949   1.478  0.0211  0.7418 -0.1097
  485SOL     OW 1937   0.542   2.318   0.245  0.6520 -0.6103  0.3985
  485SOL    HW1 1938   0.544   2.270   0.327  1.7242 -0.2771  4.5834
  485SOL    HW2 1939   0.479   2.392   0.263 -0.6290  0.3852  0.9287
  485SOL     MW 1940   0.534   2.321   0.258  0.6245 -0.4350  1.0206
  486SOL     OW 1941   0.155   2.338   1.479 -0.3703 -0.0018 -0.0936
  486SOL    HW1 1942   0.176   2.428   1.458  0.5470  0.9500 -1.6804
  486SOL    HW2 1943   0.098   2.344   1.554  0.6465  1.9462  0.0614
  486SOL     MW 1944   0.150   2.350   1.486 -0.1151  0.3808 -0.2825
  487SOL     OW 1945   1.222   1.667   1.066  0.2958  0.1980 -0.1097
  487SOL    HW1 1946   1.206   1.754   1.112  2.3533 -0.8294 -3.1329
  487SOL    HW2 1947   1.300   1.683   1.008  0.3910  1.4513  0.3730
  487SOL     MW 1948   1.230   1.681   1.064  0.5798  0.2278 -0.4449
  488SOL     OW 1949   1.618   1.872   0.528 -0.2089 -0.5539  0.4480
  488SOL    HW1 1950   1.690   1.862   0.461 -0.1712 -0.0173  1.2695
  488SOL    HW2 1951   1.574   1.948   0.487  0.4212 -2.0735 -1.7343
  488SOL     MW 1952   1.622   1.881   0.513 -0.1208 -0.6836  0.2684
  489SOL     OW 1953   0.763   0.770   0.567  0.2739  0.1692  1.1559
  489SOL    HW1 1954   0.816   0.707   0.518 -0.0602 -0.5260  0.6917
  489SOL    HW2 1955   0.760   0.747   0.664  1.7534 -0.8689 -0.4233
  489SOL     MW 1956   0.770   0.759   0.574  0.4250 -0.0595  0.8863
  490SOL     OW 1957   1.432   2.075   0.477  0.5892 -0.0081 -0.0340
  490SOL    HW1 1958   1.471   2.154   0.441 -0.0306 -1.8306  2.2690
  490SOL    HW2 1959   1.338   2.096   0.487 -2.2373 -2.2674 -2.6656
  490SOL     MW 1960   1.424   2.088   0.474  0.1345 -0.5467 -0.0774
  491SOL     OW 1961   1.274   2.937   0.392 -0.3855 -0.1623  0.2253
  491SOL    HW1 1962   1.329   3.006   0.433  1.2015  1.0437  1.8674
  491SOL    HW2 1963   1.199   2.983   0.350 -0.6732 -2.3023 -1.1469
  491SOL     MW 1964   1.271   2.952   0.392 -0.2141 -0.2856  0.2609
  492SOL     OW 1965   1.514   2.152   0.716  0.1303  0.5773  0.1028
  492SOL    HW1 1966   1.480   2.134   0.626  1.4171  0.5758  0.0999
  492SOL    HW2 1967   1.455   2.110   0.774  3.8775 -1.1865 -1.4729
  492SOL     MW 1968   1.501   2.144   0.712  0.7945  0.3444 -0.1055
  493SOL     OW 1969   0.189   3.020   0.310  0.4081  0.6856  0.6174
  493SOL    HW1 1970   0.140   3.069   0.375 -1.8362 -0.9497 -0.4551
  493SOL    HW2 1971   0.186   3.080   0.227 -4.5330 -2.9582 -0.2387
  493SOL     MW 1972   0.182   3.034   0.308 -0.5400 -0.0109  0.3629
  494SOL     OW 1973   0.408   2.405   1.783  0.5585 -0.2009 -0.0272
  494SOL    HW1 1974   0.413   2.310   1.801 -1.9196  0.1376 -0.0355
  494SOL    HW2 1975   0.448   2.421   1.695  0.4840  0.9402  1.5204
  494SOL     MW 1976   0.414   2.395   1.774  0.2217 -0.0057  0.1759
  495SOL     OW 1977   2.902   1.642   2.627 -0.1448  0.0943  0.3045
  495SOL    HW1 1978   2.892   1.727   2.587  0.7382  0.8283 -2.3966
  495SOL    HW2 1979   2.853   1.634   2.711 -1.7231 -2.0065 -0.5579
  495SOL     MW 1980   2.894   1.652   2.633 -0.2365 -0.0860 -0.1657
  496SOL     OW 1981   2.910   2.379   2.691 -0.1066 -0.0257  0.2276
  496SOL    HW1 1982   2.949   2.316   2.761  1.7069 -1.1686  1.5488
  496SOL    HW2 1983   2.967   2.455   2.699 -0.9409 -0.9078  1.8918
  496SOL     MW 1984   2.923   2.381   2.701  0.0226 -0.2929  0.6215
  497SOL     OW 1985   1.634   2.221   2.604  0.2426 -0.3433 -0.2079
  497SOL    HW1 1986   1.583   2.177   2.535  1.4340 -1.0650  0.0413
  497SOL    HW2 1987   1.606   2.169   2.675 -0.5528  0.1768 -0.8484
  497SOL     MW 1988   1.623   2.208   2.604  0.2949 -0.3699 -0.2595
  498SOL     OW 1989   1.441   2.707   2.316  0.1768  0.1455 -0.2517
  498SOL    HW1 1990   1.422   2.610   2.290 -0.3442 -0.1435 -1.0030
  498SOL    HW2 1991   1.524   2.699   2.366 -0.4858  0.2628  1.3484
  498SOL     MW 1992   1.450   2.693   2.319  0.0207  0.1229 -0.1397
  499SOL     OW 1993   0.992   0.148   3.087 -0.2308  0.1301 -0.4661
  499SOL    HW1 1994   0.930   0.183   3.163  0.0737  1.0111  0.2099
  499SOL    HW2 1995   1.067   0.088   3.122  1.8803  2.2268 -0.4378
  499SOL     MW 1996   0.994   0.145   3.102  0.0879  0.5230 -0.3732
  500SOL     OW 1997   1.074   2.549   2.800  0.7483 -0.6380  0.2250
  500SOL    HW1 1998   1.123   2.493   2.866  1.6317 -1.9014 -0.9935
  500SOL    HW2 1999   0.981   2.534   2.823  1.1729 -1.0906  1.0054
  500SOL     MW 2000   1.068   2.540   2.811  0.9209 -0.8644  0.1672
  501SOL     OW 2001   1.822   2.215   3.060 -0.3194  0.4162  0.0882
  501SOL    HW1 2002   1.775   2.295   3.095  1.0661  0.4238 -1.4196
  501SOL    HW2 2003   1.911   2.216   3.093  0.6784 -0.8492  0.0749
  501SOL     MW 2004   1.828   2.226   3.069 -0.0049  0.2503 -0.1125
  502SOL     OW 2005   0.160   2.813   3.063  0.1383  0.2010  0.0848
  502SOL    HW1 2006   0.099   2.763   3.012  1.5450  0.1806 -0.7119
  502SOL    HW2 2007   0.192   2.869   2.987 -2.4886  1.4437  1.2106
  502SOL     MW 2008   0.156   2.814   3.046 -0.0227  0.3623  0.1282
  503SOL     OW 2009   1.079   2.775   2.157 -0.8113  0.0926  0.3136
  503SOL    HW1 2010   1.009   2.731   2.106 -2.1631 -2.1113 -1.7629
  503SOL    HW2 2011   1.047   2.864   2.151  1.7615  1.7015  1.8155
  503SOL     MW 2012   1.065   2.781   2.150 -0.6502  0.0141  0.2378
  504SOL     OW 2013   0.087   2.687   2.123 -0.4417 -0.3589 -0.5695
  504SOL    HW1 2014   0.137   2.620   2.077  0.3832 -1.2675 -0.4224
  504SOL    HW2 2015   0.070   2.629   2.201  0.4227 -1.6923  1.6418
  504SOL     MW 2016   0.091   2.671   2.127 -0.2188 -0.6547 -0.2583
  505SOL     OW 2017   1.687   2.684   2.719 -0.0297 -0.0008 -0.5564
  505SOL    HW1 2018   1.701   2.675   2.619  1.8940  1.5698 -1.9267
  505SOL    HW2 2019   1.672   2.778   2.735  1.0144  0.5516 -1.6572
  505SOL     MW 2020   1.687   2.695   2.708  0.3618  0.2793 -0.8824
  506SOL     OW 2021   1.581   3.053   2.836 -0.1556 -0.4669  0.1751
  506SOL    HW1 2022   1.625   3.049   2.921  1.7695  0.1066 -1.5741
  506SOL    HW2 2023   1.648   3.037   2.768  1.3237  0.0354 -0.7031
  506SOL     MW 2024   1.596   3.050   2.838  0.2936 -0.3250 -0.1715
  507SOL     OW 2025   0.874   2.766   2.856 -0.7942 -0.4525 -0.0093
  507SOL    HW1 2026   0.916   2.841   2.804 -0.9231 -3.9898  0.4971
  507SOL    HW2 2027   0.781   2.793   2.868 -0.5355  2.6956  0.8590
  507SOL     MW 2028   0.867   2.779   2.851 -0.7771 -0.5038  0.1721
  508SOL     OW 2029   1.138   2.078   2.522 -0.3674  0.1523 -0.0533
  508SOL    HW1 2030   1.207   2.037   2.577 -2.1054 -1.5863 -0.6873
  508SOL    HW2 2031   1.113   2.151   2.584  1.1872 -1.7323 -0.2615
  508SOL     MW 2032   1.144   2.082   2.538 -0.3916 -0.3257 -0.1644
  509SOL     OW 2033   0.601   2.538   2.809  0.4546 -0.7256  0.7951
  509SOL    HW1 2034   0.599   2.514   2.720  2.7727 -0.4426 -0.0814
  509SOL    HW2 2035   0.521   2.513   2.850  1.5128  1.0122  0.0155
  509SOL     MW 2036   0.591   2.531   2.802  0.9001 -0.4590  0.5766
  510SOL     OW 2037   1.531   2.564   1.699  0.5749  0.1022  0.1098
  510SOL    HW1 2038   1.515   2.654   1.660 -0.2324  2.7732  1.1626
  510SOL    HW2 2039   1.472   2.572   1.782  0.8261 -1.3304 -0.1015
  510SOL     MW 2040   1.521   2.577   1.705  0.5015  0.2656  0.2208
  511SOL     OW 2041   0.468   2.651   2.443  0.3814 -0.1312 -0.2058
  511SOL    HW1 2042   0.545   2.603   2.471 -0.7333 -1.0718  0.7759
  511SOL    HW2 2043   0.504   2.664   2.355  0.6091 -2.9708  3.3195
  511SOL     MW 2044   0.483   2.646   2.435  0.2644 -0.6299  0.3889
  512SOL     OW 2045   1.068   2.007   2.829 -0.4343  0.1557  0.5688
  512SOL    HW1 2046   0.980   2.022   2.862 -0.5366 -1.9996 -0.4231
  512SOL    HW2 2047   1.089   1.913   2.852  1.0526 -0.1807  1.7962
  512SOL     MW 2048   1.059   1.996   2.836 -0.2516 -0.1731  0.5999
  513SOL     OW 2049   1.527   2.442   2.314 -0.4416  0.0646  0.1904
  513SOL    HW1 2050   1.605   2.485   2.333 -1.6420 -2.4437  3.0360
  513SOL    HW2 2051   1.531   2.389   2.391 -0.6573 -1.0707 -1.8919
  513SOL     MW 2052   1.538   2.440   2.327 -0.6284 -0.4162  0.2911
  514SOL     OW 2053   0.274   2.534   2.597 -0.3944 -0.1826 -0.7233
  514SOL    HW1 2054   0.341   2.576   2.539  0.0738 -1.5270  2.2594
  514SOL    HW2 2055   0.313   2.531   2.687 -0.5353 -3.8072 -0.5623
  514SOL     MW 2056   0.288   2.539   2.601 -0.3512 -0.8382 -0.3086
  515SOL     OW 2057   1.089   2.092   1.779 -0.8234 -0.1276 -0.1614
  515SOL    HW1 2058   1.011   2.141   1.809  0.1901 -2.1276  0.9461
  515SOL    HW2 2059   1.158   2.111   1.844 -0.1854  0.2809  2.5203
  515SOL     MW 2060   1.088   2.101   1.792 -0.6055 -0.3376  0.3385
  516SOL     OW 2061   1.469   2.474   3.048 -0.5309  0.4051  0.0561
  516SOL    HW1 2062   1.527   2.461   2.976 -0.8960 -0.5781 -1.7146
  516SOL    HW2 2063   1.385   2.482   3.002  2.4201  1.7110 -1.2106
  516SOL     MW 2064   1.466   2.473   3.032 -0.1897  0.4477 -0.3447
  517SOL     OW 2065   0.623   2.457   2.160 -0.2190 -0.0011 -0.0357
  517SOL    HW1 2066   0.586   2.548   2.176  0.5701  1.8780 -0.7304
  517SOL    HW2 2067   0.545   2.424   2.121  0.6734 -3.4333 -0.2001
  517SOL     MW 2068   0.608   2.465   2.157  0.0028 -0.2060 -0.1491
  518SOL     OW 2069   1.894   0.163   2.994  0.7617 -0.1461 -0.5734
  518SOL    HW1 2070   1.838   0.213   2.936 -2.7079 -2.0824  1.6797
  518SOL    HW2 2071   1.849   0.157   3.081  1.4346  1.2259 -1.0333
  518SOL     MW 2072   1.881   0.168   2.998  0.3927 -0.2206 -0.3368
  519SOL     OW 2073   0.705   2.546   1.699  0.6527  0.2091 -0.3059
  519SOL    HW1 2074   0.699   2.456   1.719  3.2245 -1.0328 -3.3717
  519SOL    HW2 2075   0.612   2.577   1.694  0.7801  1.6159  1.3940
  519SOL     MW 2076   0.692   2.539   1.701  1.0088  0.2308 -0.4861
  520SOL     OW 2077   1.290   2.143   2.920  0.0214  0.1368  0.3247
  520SOL    HW1 2078   1.220   2.082   2.887 -2.4380  1.4560  1.5122
  520SOL    HW2 2079   1.330   2.086   2.988  0.6050  0.2637 -1.1217
  520SOL     MW 2080   1.286   2.127   2.924 -0.2261  0.3276  0.2906
  521SOL     OW 2081   1.707   2.071   2.301  0.7212 -0.1136  0.8905
  521SOL    HW1 2082   1.720   2.129   2.222  1.7389 -1.2803 -1.0964
  521SOL    HW2 2083   1.716   1.977   2.275 -1.5689  0.4463  1.0153
  521SOL     MW 2084   1.710   2.066   2.287  0.5533 -0.1937  0.6448
  522SOL     OW 2085   2.848   2.559   2.170 -0.1572 -0.3023 -0.2515
  522SOL    HW1 2086   2.923   2.512   2.210  3.4467 -2.0120 -0.7751
  522SOL    HW2 2087   2.785   2.580   2.241  0.7576 -0.2159  3.2726
  522SOL     MW 2088   2.850   2.556   2.184  0.4390 -0.5165  0.1444
  523SOL     OW 2089   0.872   1.518   2.134 -0.0364 -0.1946 -0.4613
  523SOL    HW1 2090   0.858   1.595   2.081  1.9391 -1.9953 -0.9317
  523SOL    HW2 2091   0.924   1.465   2.073 -1.8487 -0.8871  1.9605
  523SOL     MW 2092   0.877   1.521   2.119 -0.0149 -0.5235 -0.2038
  524SOL     OW 2093   0.851   2.415   2.903 -0.4737 -0.2226 -0.6760
  524SOL    HW1 2094   0.776   2.445   2.852 -1.0475  1.1535  0.3270
  524SOL    HW2 2095   0.841   2.322   2.921 -0.2170  1.1992 -0.5713
  524SOL     MW 2096   0.839   2.407   2.899 -0.5155  0.1466 -0.5299
  525SOL     OW 2097   0.386   2.253   2.117  0.2216 -0.0912 -0.0990
  525SOL    HW1 2098   0.335   2.196   2.172  4.3742 -0.5374  1.0500
  525SOL    HW2 2099   0.405   2.213   2.030  1.6183  1.2971  0.0947
  525SOL     MW 2100   0.382   2.240   2.113  0.9538  0.0331  0.0781
  526SOL     OW 2101   0.683   2.061   2.011  0.5436  1.1480 -0.5496
  526SOL    HW1 2102   0.637   2.092   1.928 -0.8315 -1.5707 -1.9552
  526SOL    HW2 2103   0.649   2.127   2.078 -2.1249 -0.8859  1.2772
  526SOL     MW 2104   0.673   2.073   2.009  0.0101  0.5210 -0.4940
  527SOL     OW 2105   1.317   1.979   2.001 -0.3215 -0.3079  0.3673
  527SOL    HW1 2106   1.320   1.994   2.096 -0.6036  0.9367  1.1390
  527SOL    HW2 2107   1.388   1.917   1.989 -0.4279  1.4611 -2.6754
  527SOL     MW 2108   1.326   1.973   2.012 -0.3728  0.0897  0.0677
  528SOL     OW 2109   0.631   2.859   2.917  0.1784 -0.1169 -0.0066
  528SOL    HW1 2110   0.690   2.924   2.952  0.1713 -2.2801 -2.1046
  528SOL    HW2 2111   0.605   2.896   2.834 -0.8238  0.5127 -0.3321
  528SOL     MW 2112   0.635   2.872   2.911  0.0452 -0.3193 -0.3264
  529SOL     OW 2113   0.952   2.368   1.903 -0.0250  0.0289 -0.7297
  529SOL    HW1 2114   0.984   2.387   1.995 -2.2060  0.4810  2.5103
  529SOL    HW2 2115   1.035   2.371   1.851  0.1207  0.3471  4.3509
  529SOL     MW 2116   0.967   2.371   1.908 -0.2935  0.1306  0.3681
  530SOL     OW 2117   1.185   2.418   3.023 -0.2171  0.0261 -0.5817
  530SOL    HW1 2118   1.117   2.445   3.079  1.3167 -0.4188 -3.4474
  530SOL    HW2 2119   1.193   2.324   3.014  0.9787 -0.9611  1.4395
  530SOL     MW 2120   1.177   2.409   3.029  0.1431 -0.1628 -0.6932
  531SOL     OW 2121   0.965   1.866   2.564  0.5420  0.2021  0.5694
  531SOL    HW1 2122   1.009   1.952   2.570  2.1535 -0.1191  1.2403
  531SOL    HW2 2123   0.926   1.855   2.641  2.1208 -0.9548 -2.7975
  531SOL     MW 2124   0.966   1.876   2.575  0.9629  0.0071  0.2137
  532SOL     OW 2125   1.729   0.328   2.833 -0.2888 -0.1214 -0.0118
  532SOL    HW1 2126   1.728   0.288   2.750 -2.3942  3.0384 -1.1080
  532SOL    HW2 2127   1.807   0.377   2.834  0.1116  0.0337  0.5783
  532SOL     MW 2128   1.739   0.329   2.822 -0.5138  0.3159 -0.0786
  533SOL     OW 2129   1.840   2.663   3.031 -0.1655  0.3541 -0.1578
  533SOL    HW1 2130   1.813   2.578   3.026  1.8253  1.3872 -1.5340
  533SOL    HW2 2131   1.764   2.713   2.996  1.4957 -0.0383 -1.5120
  533SOL     MW 2132   1.827   2.658   3.026  0.3164  0.4386 -0.5180
  534SOL     OW 2133   1.784   2.443   2.510 -0.3742  0.3383  0.0921
  534SOL    HW1 2134   1.753   2.353   2.537 -1.3236 -2.7735  0.5769
  534SOL    HW2 2135   1.845   2.458   2.582 -0.5327 -0.0476 -1.8844
  534SOL     MW 2136   1.788   2.433   2.523 -0.5204 -0.1232 -0.1047
  535SOL     OW 2137   1.912   2.405   1.902 -0.1182 -0.2341 -0.2980
  535SOL    HW1 2138   1.861   2.410   1.821  0.6817  0.4776  2.2301
  535SOL    HW2 2139   2.000   2.428   1.871  0.2206  2.0940 -0.7153
  535SOL     MW 2140   1.917   2.408   1.887  0.0320  0.1670 -0.0195
  536SOL     OW 2141   0.543   1.823   2.042  0.6713 -0.6076  0.2629
  536SOL    HW1 2142   0.496   1.788   1.965  0.2386  1.6109  1.4134
  536SOL    HW2 2143   0.592   1.905   2.017  0.8752  1.0637  1.3865
  536SOL     MW 2144   0.543   1.829   2.028  0.6411 -0.0944  0.5630
  537SOL     OW 2145   1.086   0.196   2.823 -0.1974  0.1781 -0.2173
  537SOL    HW1 2146   1.057   0.218   2.911  2.9642 -0.2156  0.2872
  537SOL    HW2 2147   1.048   0.267   2.766  0.2348  1.2240  1.4092
  537SOL     MW 2148   1.077   0.208   2.827  0.2767  0.2641  0.0639
  538SOL     OW 2149   1.424   0.076   3.074  0.4140 -0.6178 -0.2459
  538SOL    HW1 2150   1.410   0.166   3.114  0.4294 -2.1467 -0.3281
  538SOL    HW2 2151   1.339   0.026   3.078 -1.6874 -0.6473 -3.0041
  538SOL     MW 2152   1.411   0.081   3.080  0.1388 -0.8234 -0.6207
  539SOL     OW 2153   0.742   2.813   2.573 -0.5085 -0.2371 -0.2000
  539SOL    HW1 2154   0.818   2.872   2.558  1.2976 -0.3000  1.5608
  539SOL    HW2 2155   0.780   2.727   2.604  1.5264  1.3599 -1.5626
  539SOL     MW 2156   0.757   2.810   2.575 -0.0017 -0.0347 -0.1475
  540SOL     OW 2157   0.357   2.498   2.904  0.1991 -0.1112 -0.2229
  540SOL    HW1 2158   0.357   2.548   2.987 -2.3811  1.7289  0.9851
  540SOL    HW2 2159   0.295   2.428   2.933 -4.8196 -0.4709 -0.7006
  540SOL     MW 2160   0.349   2.495   2.919 -0.8035  0.0842 -0.1265
  541SOL     OW 2161   0.206   2.942   2.198  0.4899 -0.1275 -0.4435
  541SOL    HW1 2162   0.143   2.877   2.170 -0.5497  1.5667 -0.9391
  541SOL    HW2 2163   0.256   2.899   2.271  2.7805  1.6503  0.5596
  541SOL     MW 2164   0.204   2.928   2.204  0.6550  0.3306 -0.3766
  542SOL     OW 2165   1.053   2.284   2.682 -0.3295 -0.4763  0.1888
  542SOL    HW1 2166   1.022   2.223   2.747 -0.3391 -0.2055  0.7927
  542SOL    HW2 2167   1.051   2.373   2.723  1.3868  0.3440  0.5308
  542SOL     MW 2168   1.049   2.288   2.696 -0.1043 -0.3324  0.3136
  543SOL     OW 2169   1.715   2.437   2.816  0.0332 -0.6443  0.0483
  543SOL    HW1 2170   1.675   2.365   2.764  0.6860  0.3086  0.1733
  543SOL    HW2 2171   1.694   2.520   2.775  0.1769  0.3317 -0.7956
  543SOL     MW 2172   1.707   2.439   2.803  0.1383 -0.3898 -0.0466
  544SOL     OW 2173   0.767   0.133   2.758  0.3764  0.0369  0.2780
  544SOL    HW1 2174   0.673   0.156   2.768 -2.6895 -0.9051  0.1527
  544SOL    HW2 2175   0.798   0.142   2.670  2.7678  0.7547  2.6736
  544SOL     MW 2176   0.759   0.137   2.748  0.2874  0.0073  0.5775
  545SOL     OW 2177   1.461   2.183   2.377 -0.6136 -0.0558 -0.6037
  545SOL    HW1 2178   1.401   2.229   2.314 -2.6381 -0.4276 -1.7560
  545SOL    HW2 2179   1.524   2.130   2.324  0.8533 -2.0556 -2.6075
  545SOL     MW 2180   1.461   2.182   2.362 -0.6872 -0.3687 -1.0201
  546SOL     OW 2181   2.912   2.006   0.120 -0.0469  0.3699 -0.1961
  546SOL    HW1 2182   2.915   2.093   0.078  1.2300 -1.1469  1.0512
  546SOL    HW2 2183   3.005   1.980   0.129 -0.7980 -0.8873 -0.5222
  546SOL     MW 2184   2.924   2.014   0.115  0.0225  0.0039 -0.0745
  547SOL     OW 2185   0.170   0.077   0.099  0.4879 -0.5324  0.1566
  547SOL    HW1 2186   0.224   0.094   0.025  1.5037  1.0108 -2.0424
  547SOL    HW2 2187   0.096   0.029   0.059  0.8628  0.1543 -0.8640
  547SOL     MW 2188   0.168   0.073   0.084  0.6714 -0.2382 -0.2682
  548SOL     OW 2189   0.327   2.491   0.273 -0.5214 -0.5165 -0.4930
  548SOL    HW1 2190   0.327   2.563   0.206 -1.5376 -1.9292  2.2726
  548SOL    HW2 2191   0.253   2.440   0.242  3.7073  1.2099 -0.8897
  548SOL     MW 2192   0.317   2.494   0.260 -0.0975 -0.4751 -0.1805
  549SOL     OW 2193   0.848   1.933   2.208 -0.0907  0.0136 -0.0144
  549SOL    HW1 2194   0.782   1.970   2.152  1.2432  1.6433 -2.1806
  549SOL    HW2 2195   0.808   1.914   2.288  1.6336 -0.5066  1.4929
  549SOL     MW 2196   0.834   1.935   2.211  0.3128  0.1600 -0.1013
  550SOL     OW 2197   1.824   1.735   2.548 -0.0416 -1.0159  0.0682
  550SOL    HW1 2198   1.798   1.765   2.462 -3.8935 -0.7671 -0.3055
  550SOL    HW2 2199   1.832   1.819   2.591 -2.3190 -0.3983 -0.8733
  550SOL     MW 2200   1.822   1.750   2.542 -0.8503 -0.9016 -0.1054
  551SOL     OW 2201   0.903   2.265   0.257  0.4702 -0.3257  0.6498
  551SOL    HW1 2202   0.998   2.265   0.227 -1.1122  3.3512 -2.3940
  551SOL    HW2 2203   0.868   2.226   0.178  0.1394 -1.3320 -1.3448
  551SOL     MW 2204   0.911   2.260   0.242  0.2178  0.0267 -0.0149
  552SOL     OW 2205   1.761   1.784   2.285 -0.4714  0.4215 -0.3962
  552SOL    HW1 2206   1.686   1.731   2.259  1.5831  0.7346  0.6844
  552SOL    HW2 2207   1.831   1.749   2.229  0.6615 -5.1173 -2.1658
  552SOL     MW 2208   1.760   1.772   2.274 -0.0509 -0.2680 -0.4871
  553SOL     OW 2209   1.229   2.244   1.541 -0.9025 -0.5116  0.3687
  553SOL    HW1 2210   1.272   2.167   1.575 -1.1248  2.3181  0.3951
  553SOL    HW2 2211   1.306   2.299   1.503  0.2446  0.7646 -1.8315
  553SOL     MW 2212   1.245   2.241   1.541 -0.7805  0.0301  0.0819
  554SOL     OW 2213   0.489   2.934   2.675 -0.3486 -0.0928  0.6815
  554SOL    HW1 2214   0.450   2.995   2.611  0.1380 -3.2394  1.1349
  554SOL    HW2 2215   0.556   2.882   2.624 -0.8940  1.2443 -1.2584
  554SOL     MW 2216   0.493   2.935   2.660 -0.3564 -0.3315  0.4854
  555SOL     OW 2217   0.617   2.442   2.541  0.4217  0.3880  0.1004
  555SOL    HW1 2218   0.569   2.360   2.536  1.1530  1.5926 -0.8445
  555SOL    HW2 2219   0.713   2.429   2.533  1.3076 -0.4935  1.1655
  555SOL     MW 2220   0.623   2.429   2.539  0.6351  0.4307  0.1162
  556SOL     OW 2221   1.052   1.930   0.104 -0.2647  0.0595 -0.7194
  556SOL    HW1 2222   1.091   1.889   0.030 -0.8272 -1.4585  3.6344
  556SOL    HW2 2223   1.111   1.909   0.175  0.6032 -1.3371  0.4205
  556SOL     MW 2224   1.065   1.922   0.103 -0.2244 -0.3251  0.0054
  557SOL     OW 2225   0.973   2.677   0.492  0.1257  0.0924 -0.2582
  557SOL    HW1 2226   1.022   2.629   0.419  0.7687  3.1731 -0.3396
  557SOL    HW2 2227   0.934   2.757   0.444  1.3802  0.6229  0.2034
  557SOL     MW 2228   0.974   2.681   0.476  0.3761  0.5688 -0.2080
  558SOL     OW 2229   0.224   2.282   2.988 -0.1800 -0.5295  0.6069
  558SOL    HW1 2230   0.151   2.247   2.934 -0.1850 -3.4972 -2.7485
  558SOL    HW2 2231   0.174   2.284   3.073 -1.3868 -0.2306 -1.0138
  558SOL     MW 2232   0.208   2.277   2.992 -0.3399 -0.8816 -0.0497
  559SOL     OW 2233   1.037   2.354   2.163  0.5744  0.7227  0.6353
  559SOL    HW1 2234   1.132   2.364   2.159 -0.5281 -1.7336  0.2923
  559SOL    HW2 2235   1.020   2.284   2.222  0.6769  0.6003 -2.0224
  559SOL     MW 2236   1.048   2.346   2.170  0.4425  0.3824  0.2394
  560SOL     OW 2237   1.950   2.825   0.131  0.0458 -0.8071  0.7854
  560SOL    HW1 2238   2.021   2.843   0.071  0.2928 -1.6126  0.7802
  560SOL    HW2 2239   1.906   2.746   0.090 -0.7959 -1.3353  0.0850
  560SOL     MW 2240   1.954   2.817   0.117 -0.0327 -0.9831  0.6923
  561SOL     OW 2241   0.351   2.150   0.094  0.5188 -0.1478 -0.0606
  561SOL    HW1 2242   0.349   2.185   0.003 -0.0493  1.1143 -1.6355
  561SOL    HW2 2243   0.411   2.207   0.146  2.6499 -1.6597  0.2675
  561SOL     MW 2244   0.359   2.162   0.089  0.7250 -0.1808 -0.2251
  562SOL     OW 2245   0.673   2.198   2.253 -0.2379 -0.0082 -0.2394
  562SOL    HW1 2246   0.660   2.294   2.241 -3.1602 -2.9844  0.4931
  562SOL    HW2 2247   0.758   2.198   2.295  1.2780 -1.9450  0.6759
  562SOL     MW 2248   0.683   2.211   2.257 -0.4235 -0.6564 -0.0219
  563SOL     OW 2249   1.205   0.420   0.518 -0.0558 -0.2139  0.0780
  563SOL    HW1 2250   1.207   0.358   0.448 -0.1959 -1.2385  0.6371
  563SOL    HW2 2251   1.155   0.381   0.586 -0.9549  3.0320  0.2024
  563SOL     MW 2252   1.199   0.407   0.518 -0.1929  0.0792  0.1682
  564SOL     OW 2253   1.058   2.603   2.388 -0.0471  0.0344  0.2783
  564SOL    HW1 2254   1.080   2.658   2.304 -1.3772  1.1658 -1.2698
  564SOL    HW2 2255   1.080   2.659   2.458 -1.3065  0.9143 -1.8257
  564SOL     MW 2256   1.064   2.617   2.386 -0.3887  0.2998 -0.2036
  565SOL     OW 2257   2.750   2.816   2.558  0.0390  0.7296 -0.0620
  565SOL    HW1 2258   2.828   2.826   2.501  0.8328 -2.0331 -0.6548
  565SOL    HW2 2259   2.685   2.781   2.493  1.4466 -1.0790 -0.6788
  565SOL     MW 2260   2.752   2.813   2.542  0.3294  0.1265 -0.2216
  566SOL     OW 2261   2.162   1.899   2.336 -0.1305  0.1647 -0.8440
  566SOL    HW1 2262   2.179   1.903   2.243  1.1391  0.8391 -0.0833
  566SOL    HW2 2263   2.226   1.954   2.375  0.7019  0.6483 -1.2572
  566SOL     MW 2264   2.173   1.907   2.329  0.1468  0.3175 -0.7982
  567SOL     OW 2265   1.202   3.019   0.028  0.1046  0.4405  0.4445
  567SOL    HW1 2266   1.163   3.022   0.114 -0.2984 -2.9545 -1.2885
  567SOL    HW2 2267   1.248   2.931   0.013 -0.0485 -0.2681  2.3022
  567SOL     MW 2268   1.203   3.007   0.038  0.0312 -0.1010  0.4610
  568SOL     OW 2269   1.619   2.058   2.850  0.5524  0.5332  0.3567
  568SOL    HW1 2270   1.660   2.112   2.916 -0.6143 -0.2497 -2.1108
  568SOL    HW2 2271   1.692   2.013   2.813  1.9012  2.3995  2.2402
  568SOL     MW 2272   1.634   2.059   2.854  0.5764  0.6762  0.2797
  569SOL     OW 2273   0.118   2.316   2.450  0.1362 -0.1970  0.1173
  569SOL    HW1 2274   0.075   2.360   2.377 -0.2833 -1.5539 -1.6192
  569SOL    HW2 2275   0.122   2.377   2.525 -0.0395  0.1641  0.1701
  569SOL     MW 2276   0.113   2.330   2.451  0.0577 -0.3284 -0.1049
  570SOL     OW 2277   1.479   0.363   0.521  0.0900  0.2205  0.2255
  570SOL    HW1 2278   1.390   0.368   0.539  0.3082  0.4108  0.7600
  570SOL    HW2 2279   1.529   0.387   0.598  0.7297  1.2780 -1.1734
  570SOL     MW 2280   1.474   0.367   0.534  0.2032  0.3851  0.1115
  571SOL     OW 2281   1.334   2.351   2.142 -0.0959  0.3347  0.1959
  571SOL    HW1 2282   1.398   2.388   2.204  1.0471  0.8667 -1.4137
  571SOL    HW2 2283   1.394   2.297   2.085  1.7695 -1.6337  1.3721
  571SOL     MW 2284   1.351   2.349   2.143  0.3011  0.1452  0.1387
  572SOL     OW 2285   0.984   2.576   0.063  0.3903  0.3955 -0.2888
  572SOL    HW1 2286   0.989   2.665   0.034  1.5701 -2.6290  1.2752
  572SOL    HW2 2287   0.894   2.552   0.064  0.6441 -1.8810 -1.2938
  572SOL     MW 2288   0.973   2.584   0.059  0.5795 -0.3039 -0.2150
  573SOL     OW 2289   1.177   2.270   0.206 -0.7069 -0.1388  0.2758
  573SOL    HW1 2290   1.261   2.258   0.162  1.4270  1.5195  2.0888
  573SOL    HW2 2291   1.178   2.354   0.252  1.9306 -0.5867 -0.7383
  573SOL     MW 2292   1.188   2.279   0.206 -0.0774  0.0209  0.3812
  574SOL     OW 2293   1.140   2.535   0.284  0.6905 -0.0039  0.7344
  574SOL    HW1 2294   1.205   2.596   0.284 -2.5976  0.7054 -3.2407
  574SOL    HW2 2295   1.101   2.553   0.195 -2.1961 -0.7165  0.0830
  574SOL     MW 2296   1.143   2.545   0.272 -0.1242 -0.0043  0.1240
  575SOL     OW 2297   3.023   2.221   1.704  0.1415 -0.3370 -0.3287
  575SOL    HW1 2298   3.058   2.131   1.681  0.9633  0.8760 -1.8039
  575SOL    HW2 2299   3.103   2.252   1.750  0.9934 -1.9907  1.3640
  575SOL     MW 2300   3.039   2.213   1.707  0.3623 -0.3951 -0.3000
  576SOL     OW 2301   2.846   1.848   2.017 -0.2734 -0.2619 -0.2460
  576SOL    HW1 2302   2.871   1.916   1.954  3.3085 -1.2713  3.8806
  576SOL    HW2 2303   2.756   1.822   1.991 -0.3923  0.2511  0.0276
  576SOL     MW 2304   2.837   1.853   2.005  0.1835 -0.3274  0.3345
  577SOL     OW 2305   2.093   0.266   0.082  0.5000 -0.2094 -0.5120
  577SOL    HW1 2306   2.044   0.265   0.003  2.2821  2.4040  0.9420
  577SOL    HW2 2307   2.059   0.196   0.130 -0.8911  0.5640 -0.4177
  577SOL     MW 2308   2.082   0.257   0.078  0.5516  0.2375 -0.3077
  578SOL     OW 2309   1.952   2.063   2.441  0.3031  0.2333 -1.1978
  578SOL    HW1 2310   1.871   2.071   2.395  1.8325 -1.2405  1.4081
  578SOL    HW2 2311   2.014   2.012   2.384  0.9591  1.3397  0.3392
  578SOL     MW 2312   1.949   2.058   2.428  0.5914  0.1848 -0.6511
  579SOL     OW 2313   0.890   2.427   2.494 -1.2961  0.1222  0.1626
  579SOL    HW1 2314   0.926   2.350   2.525 -0.7177  0.0314 -0.5559
  579SOL    HW2 2315   0.961   2.481   2.436  1.1614 -0.4802  0.7016
  579SOL     MW 2316   0.904   2.424   2.490 -0.8956  0.0307  0.1389
  580SOL     OW 2317   0.953   2.838   0.021  0.2615  0.2011 -0.1210
  580SOL    HW1 2318   1.023   2.894  -0.000  0.2940 -1.4453  1.0500
  580SOL    HW2 2319   0.908   2.826  -0.062  1.3953  0.1024 -1.5530
  580SOL     MW 2320   0.956   2.844   0.007  0.4154 -0.0292 -0.1554
  581SOL     OW 2321   1.175   2.450   1.727 -0.2693 -0.5913  0.4978
  581SOL    HW1 2322   1.248   2.476   1.790 -1.4331 -1.6765  1.0883
  581SOL    HW2 2323   1.207   2.379   1.673 -0.4419 -1.9397 -1.3450
  581SOL     MW 2324   1.189   2.444   1.728 -0.4456 -0.9124  0.3325
  582SOL     OW 2325   0.033   2.856   2.733 -0.0124 -0.1905 -0.2802
  582SOL    HW1 2326  -0.020   2.936   2.708 -1.3582 -1.2234  0.4758
  582SOL    HW2 2327   0.126   2.883   2.748  0.2791  1.4721  0.8757
  582SOL     MW 2328   0.038   2.870   2.731 -0.1515 -0.1074 -0.0280
  583SOL     OW 2329   2.018   2.447   2.682  0.1672  0.0805 -0.5138
  583SOL    HW1 2330   2.094   2.445   2.622 -0.8793 -1.6124  1.2739
  583SOL    HW2 2331   2.010   2.359   2.714 -1.3612  2.6055  3.0387
  583SOL     MW 2332   2.027   2.435   2.678 -0.1726  0.1903  0.1908
  584SOL     OW 2333   0.078   1.900   2.186  0.1453  0.1809 -0.0870
  584SOL    HW1 2334   0.101   1.843   2.264  1.1242  0.1747  3.3813
  584SOL    HW2 2335   0.109   1.988   2.220  2.0146  0.6474  0.0837
  584SOL     MW 2336   0.085   1.904   2.201  0.5211  0.2416  0.3931
  585SOL     OW 2337   1.582   2.645   0.122  0.1667  0.4569  0.0728
  585SOL    HW1 2338   1.536   2.600   0.048  0.8130 -0.7936  1.6157
  585SOL    HW2 2339   1.533   2.641   0.203 -1.4509 -0.6837  1.3896
  585SOL     MW 2340   1.570   2.639   0.123  0.0385  0.1414  0.4501
  586SOL     OW 2341   1.357   2.794   2.578 -0.2883  0.3447 -0.0841
  586SOL    HW1 2342   1.373   2.758   2.485 -1.2814  1.1686 -0.5405
  586SOL    HW2 2343   1.352   2.883   2.561  0.8118  0.3128  0.0880
  586SOL     MW 2344   1.358   2.801   2.563 -0.2742  0.4492 -0.1216
  587SOL     OW 2345   1.376   1.471   2.179 -0.4932 -0.4277  0.4076
  587SOL    HW1 2346   1.329   1.399   2.228 -0.9683  0.9326  0.5726
  587SOL    HW2 2347   1.405   1.439   2.093 -0.4834  0.0228  0.4815
  587SOL     MW 2348   1.374   1.458   2.174 -0.5546 -0.1888  0.4391
  588SOL     OW 2349   1.374   1.984   2.625  0.2306 -0.1888  0.0541
  588SOL    HW1 2350   1.385   1.885   2.628 -0.5401 -2.5360  0.7181
  588SOL    HW2 2351   1.388   2.018   2.712  0.9000 -1.5261  0.8833
  588SOL     MW 2352   1.377   1.975   2.637  0.2173 -0.6749  0.2511
  589SOL     OW 2353   1.409   1.970   0.046  0.2921 -0.2285 -0.3863
  589SOL    HW1 2354   1.424   2.060   0.076 -0.1951  1.1073 -1.6058
  589SOL    HW2 2355   1.349   1.931   0.112  0.2104  1.6735 -1.2489
  589SOL     MW 2356   1.403   1.977   0.059  0.2171  0.1987 -0.6610
  590SOL     OW 2357   0.497   2.690   2.173 -0.0523 -0.9130  0.5457
  590SOL    HW1 2358   0.474   2.693   2.078  0.8015 -0.7699 -0.3597
  590SOL    HW2 2359   0.573   2.749   2.189  0.7118 -2.3409 -1.4041
  590SOL     MW 2360   0.504   2.698   2.163  0.1611 -1.0825  0.1690
  591SOL     OW 2361   2.288   0.720   0.063 -0.2774 -0.2045 -0.0298
  591SOL    HW1 2362   2.201   0.770   0.070 -0.8968 -1.7859  2.3816
  591SOL    HW2 2363   2.311   0.715  -0.031 -1.0656  0.1859 -1.6040
  591SOL     MW 2364   2.279   0.726   0.052 -0.4631 -0.3616  0.0807
  592SOL     OW 2365   1.741   2.915   0.803 -0.6982  0.5937  0.0283
  592SOL    HW1 2366   1.715   2.988   0.755 -1.3949 -0.1628  2.5653
  592SOL    HW2 2367   1.833   2.895   0.773 -1.3793 -1.2287 -2.5215
  592SOL     MW 2368   1.750   2.922   0.793 -0.8800  0.2534  0.0266
  593SOL     OW 2369   1.956   0.665   0.817  0.3322  0.2439 -0.3751
  593SOL    HW1 2370   1.901   0.653   0.738  1.6009 -0.3496  0.1816
  593SOL    HW2 2371   2.028   0.604   0.803 -1.7827 -2.3650 -0.5950
  593SOL     MW 2372   1.959   0.655   0.805  0.2205 -0.1787 -0.3306
  594SOL     OW 2373   2.767   1.067   1.397 -0.4519  0.3844 -0.4066
  594SOL    HW1 2374   2.866   1.079   1.395 -1.1676 -0.0210 -2.6381
  594SOL    HW2 2375   2.746   1.081   1.307  0.9415 -0.2566  1.3259
  594SOL     MW 2376   2.778   1.071   1.385 -0.3625  0.2463 -0.4724
  595SOL     OW 2377   0.457   0.899   0.844  0.1373  0.0023 -0.2713
  595SOL    HW1 2378   0.452   0.945   0.760 -2.0482 -1.5318  1.3688
  595SOL    HW2 2379   0.497   0.973   0.893  1.1447  1.9051 -1.2771
  595SOL     MW 2380   0.461   0.915   0.839 -0.0182  0.0509 -0.1876
  596SOL     OW 2381   2.470   1.333   0.524 -0.1547 -0.5952 -0.3981
  596SOL    HW1 2382   2.540   1.398   0.503  0.1479  1.3583  0.6342
  596SOL    HW2 2383   2.498   1.293   0.607 -0.6253 -1.7324  1.4777
  596SOL     MW 2384   2.483   1.336   0.532 -0.1769 -0.4875 -0.0144
  597SOL     OW 2385   2.189   0.647   1.575 -0.4801 -0.4030 -0.6568
  597SOL    HW1 2386   2.237   0.604   1.643  0.4392 -0.4726  0.2593
  597SOL    HW2 2387   2.128   0.572   1.529 -0.2460 -1.5502  1.2983
  597SOL     MW 2388   2.188   0.631   1.578 -0.3279 -0.5636 -0.2780
  598SOL     OW 2389   2.602   1.017   2.864 -0.1988 -0.1722  0.1722
  598SOL    HW1 2390   2.611   0.923   2.858  1.4856  0.0769 -0.9788
  598SOL    HW2 2391   2.692   1.050   2.864  0.7076 -1.0980  0.6916
  598SOL     MW 2392   2.615   1.009   2.864  0.1431 -0.2615  0.0889
  599SOL     OW 2393   2.975   0.429   2.153  0.4573  0.1526  0.2964
  599SOL    HW1 2394   3.037   0.406   2.228  3.0435 -2.8133  1.7007
  599SOL    HW2 2395   3.021   0.497   2.107  2.4357 -2.7245 -1.1389
  599SOL     MW 2396   2.989   0.435   2.156  1.0596 -0.6183  0.2923
  600SOL     OW 2397   1.841   1.627   0.901 -0.3188  0.3000 -0.1951
  600SOL    HW1 2398   1.887   1.673   0.972  1.6954 -0.8264  0.5064
  600SOL    HW2 2399   1.775   1.691   0.864  1.6232  3.6658 -1.0659
  600SOL     MW 2400   1.838   1.642   0.906  0.2032  0.5955 -0.2174
  601SOL     OW 2401   2.529   0.695   0.805 -0.2242 -0.4217 -0.0509
  601SOL    HW1 2402   2.519   0.698   0.901 -0.6258 -0.0207  0.6874
  601SOL    HW2 2403   2.450   0.637   0.772 -1.3255 -2.2615 -0.1426
  601SOL     MW 2404   2.517   0.688   0.813 -0.4225 -0.6115  0.0344
  602SOL     OW 2405   2.309   1.918   0.767 -0.2546  0.4107 -0.1800
  602SOL    HW1 2406   2.242   1.856   0.731  1.3705 -0.6044 -2.2993
  602SOL    HW2 2407   2.266   1.996   0.742 -0.7637 -3.0655 -1.4446
  602SOL     MW 2408   2.294   1.920   0.759 -0.1074 -0.1819 -0.6265
  603SOL     OW 2409   2.959   1.357   1.985 -0.2437  0.2413 -0.2089
  603SOL    HW1 2410   2.897   1.367   2.058  0.9839  1.7857  1.6730
  603SOL    HW2 2411   3.005   1.277   1.985  0.5307  4.1603  0.3997
  603SOL     MW 2412   2.957   1.348   1.995  0.0204  0.9621  0.1197
  604SOL     OW 2413   2.024   1.434   0.436 -0.4155 -0.6036 -0.4760
  604SOL    HW1 2414   2.060   1.371   0.496 -1.6622 -1.4628 -0.8903
  604SOL    HW2 2415   1.955   1.491   0.485 -1.2162 -0.7063  1.6260
  604SOL     MW 2416   2.020   1.434   0.450 -0.6857 -0.7305 -0.2533
  605SOL     OW 2417   2.471   1.446   0.874 -0.1378 -0.6192 -0.8944
  605SOL    HW1 2418   2.447   1.492   0.797  1.6715 -1.3350  0.1554
  605SOL    HW2 2419   2.506   1.361   0.846  0.5990  0.7088  1.0087
  605SOL     MW 2420   2.472   1.441   0.860  0.1981 -0.5384 -0.5048
  606SOL     OW 2421   2.611   1.807   1.890 -0.1931 -0.3431 -0.7066
  606SOL    HW1 2422   2.527   1.778   1.919  1.2589 -0.7470  1.4585
  606SOL    HW2 2423   2.643   1.724   1.846 -1.6095  0.3168  1.6621
  606SOL     MW 2424   2.604   1.792   1.888 -0.1884 -0.3093 -0.1084
  607SOL     OW 2425   2.384   1.033   3.058  0.1710  0.6486  0.2106
  607SOL    HW1 2426   2.457   1.048   3.002  0.5865 -2.4460 -0.0139
  607SOL    HW2 2427   2.421   1.011   3.141 -0.2063 -0.3968 -2.0690
  607SOL     MW 2428   2.398   1.032   3.062  0.1760  0.1023 -0.1198
  608SOL     OW 2429   1.864   0.244   0.533 -0.2527 -0.2741 -0.5716
  608SOL    HW1 2430   1.839   0.300   0.454 -0.9721  0.6742  2.4969
  608SOL    HW2 2431   1.819   0.153   0.534 -0.8620  0.3153  1.9079
  608SOL     MW 2432   1.855   0.239   0.523 -0.4280 -0.0712  0.1604
  609SOL     OW 2433   2.136   1.917   3.040  0.0606  0.2503  0.5699
  609SOL    HW1 2434   2.077   1.856   2.990  0.2500 -1.5498  3.9112
  609SOL    HW2 2435   2.119   1.896   3.129  0.3180 -0.8438  1.4655
  609SOL     MW 2436   2.126   1.906   3.045  0.1195 -0.1316  1.1289
  610SOL     OW 2437   1.784   0.917   1.234 -0.3168  0.1396  0.1013
  610SOL    HW1 2438   1.791   0.882   1.146  3.7948 -1.4508  1.8050
  610SOL    HW2 2439   1.694   0.956   1.247  0.4882 -1.5324  0.9327
  610SOL     MW 2440   1.773   0.918   1.224  0.3319 -0.2909  0.4358
  611SOL     OW 2441   2.501   1.656   0.638  0.4138 -0.2611 -0.5052
  611SOL    HW1 2442   2.565   1.625   0.572  1.2108 -2.4893  0.6653
  611SOL    HW2 2443   2.417   1.658   0.596 -1.1826 -0.5098 -2.6397
  611SOL     MW 2444   2.499   1.652   0.624  0.3083 -0.5879 -0.6324
  612SOL     OW 2445   2.926   2.969   0.336  0.5212  0.1209  0.3276
  612SOL    HW1 2446   2.928   2.971   0.430  0.5382 -1.8304 -4.1822
  612SOL    HW2 2447   2.991   2.903   0.322  0.4348  0.5048  0.8446
  612SOL     MW 2448   2.935   2.961   0.346  0.5120 -0.0859 -0.1992
  613SOL     OW 2449   1.523   1.111   0.994 -0.0230  0.5262  0.6046
  613SOL    HW1 2450   1.602   1.164   0.980  0.7252  2.4497 -0.0809
  613SOL    HW2 2451   1.526   1.108   1.092  0.6506 -0.8318  1.3265
  613SOL     MW 2452   1.534   1.118   1.005  0.1646  0.6008  0.6094
  614SOL     OW 2453   2.038   0.477   1.442  0.2383  0.0426  0.0269
  614SOL    HW1 2454   2.062   0.424   1.519 -0.8884  0.7443 -2.0301
  614SOL    HW2 2455   1.945   0.482   1.439  0.9507  2.7282 -0.3740
  614SOL     MW 2456   2.029   0.471   1.452  0.1837  0.4895 -0.2974
  615SOL     OW 2457   2.425   0.717   0.316 -0.0444 -0.1529  0.9212
  615SOL    HW1 2458   2.511   0.671   0.335 -1.2087  1.9865  0.1337
  615SOL    HW2 2459   2.405   0.690   0.228  2.6919  0.5474 -1.7510
  615SOL     MW 2460   2.434   0.708   0.307  0.1630  0.2218  0.4647
  616SOL     OW 2461   2.499   0.429   1.612 -0.2695  0.0406  0.0365
  616SOL    HW1 2462   2.557   0.363   1.579  1.7279  1.8782 -0.6869
  616SOL    HW2 2463   2.490   0.486   1.534  1.0402 -2.0411 -1.4140
  616SOL     MW 2464   2.505   0.428   1.598  0.1668  0.0084 -0.2504
  617SOL     OW 2465   2.875   0.590   1.843  0.2463 -0.1339  0.7262
  617SOL    HW1 2466   2.802   0.608   1.898 -0.3501 -2.2100 -1.0389
  617SOL    HW2 2467   2.873   0.497   1.820 -3.4494 -1.3818 -1.3685
  617SOL     MW 2468   2.865   0.580   1.847 -0.3200 -0.5725  0.2169
  618SOL     OW 2469   2.753   0.293   2.023  0.0779 -0.5973 -0.1374
  618SOL    HW1 2470   2.718   0.378   2.007  2.0340  0.8991 -0.0041
  618SOL    HW2 2471   2.836   0.313   2.066  1.3250 -1.2201  2.9307
  618SOL     MW 2472   2.759   0.307   2.026  0.5005 -0.4821  0.2850
  619SOL     OW 2473   2.656   0.733   0.098  0.4296  0.0209 -0.4171
  619SOL    HW1 2474   2.733   0.797   0.097  0.8780  0.8899 -1.3174
  619SOL    HW2 2475   2.667   0.687   0.179  0.2567  0.9053  1.8713
  619SOL     MW 2476   2.668   0.735   0.108  0.4660  0.2522 -0.2339
  620SOL     OW 2477   2.237   1.070   0.921 -0.4131 -0.0513 -0.2950
  620SOL    HW1 2478   2.320   1.032   0.884  2.8367 -0.1634  4.0334
  620SOL    HW2 2479   2.172   1.053   0.853  2.1371 -1.2159 -0.3642
  620SOL     MW 2480   2.240   1.063   0.907  0.3522 -0.2198  0.2670
  621SOL     OW 2481   1.460   2.206   1.950  0.0415 -0.0807  0.3306
  621SOL    HW1 2482   1.413   2.117   1.961 -0.0469 -0.8989 -0.8432
  621SOL    HW2 2483   1.549   2.206   1.996 -0.4328  1.1829  0.7975
  621SOL     MW 2484   1.465   2.194   1.957 -0.0327 -0.0220  0.2374
  622SOL     OW 2485   2.653   0.249   0.270  0.1424  0.2299 -0.1476
  622SOL    HW1 2486   2.748   0.280   0.254  3.1059 -0.8867  0.7558
  622SOL    HW2 2487   2.664   0.151   0.265 -0.6459  0.9740  1.1613
  622SOL     MW 2488   2.667   0.240   0.267  0.4294  0.1807  0.1443
  623SOL     OW 2489   2.413   2.753   0.880  0.6588 -0.1616 -0.2161
  623SOL    HW1 2490   2.462   2.833   0.886 -2.1034 -2.3669  0.1661
  623SOL    HW2 2491   2.340   2.770   0.946 -1.0781 -0.3633  1.7095
  623SOL     MW 2492   2.410   2.766   0.890  0.0652 -0.4792  0.0884
  624SOL     OW 2493   2.162   1.596   3.042 -0.2667 -0.0109  0.0830
  624SOL    HW1 2494   2.121   1.514   3.021 -1.5556 -2.1295 -0.6441
  624SOL    HW2 2495   2.103   1.660   2.998  0.1624 -2.5661 -1.0374
  624SOL     MW 2496   2.149   1.594   3.034 -0.3802 -0.6276 -0.1608
  625SOL     OW 2497   2.244   1.912   1.061 -0.4438  0.6011  0.2392
  625SOL    HW1 2498   2.307   1.855   1.105 -2.6565  3.4277  0.2914
  625SOL    HW2 2499   2.261   1.894   0.968 -2.8037 -1.1928  0.7662
  625SOL     MW 2500   2.254   1.902   1.055 -1.0471  0.7374  0.3156
  626SOL     OW 2501   0.122   1.790   2.431  0.0536 -0.2595  0.2715
  626SOL    HW1 2502   0.093   1.720   2.483 -3.3697  2.0938  0.7583
  626SOL    HW2 2503   0.078   1.871   2.466 -0.4741  0.1919 -1.3781
  626SOL     MW 2504   0.112   1.791   2.442 -0.4677  0.1105  0.1181
  627SOL     OW 2505   2.495   0.831   2.581  0.4456 -0.1026  0.0796
  627SOL    HW1 2506   2.415   0.884   2.588 -1.4143  0.2745 -0.3972
  627SOL    HW2 2507   2.503   0.811   2.485  2.1848 -1.4638  0.4040
  627SOL     MW 2508   2.486   0.835   2.569  0.4297 -0.2325  0.0595
  628SOL     OW 2509   2.259   1.364   1.324  0.0599  0.0998  0.4130
  628SOL    HW1 2510   2.215   1.287   1.298 -0.9554  2.1620 -1.0746
  628SOL    HW2 2511   2.318   1.378   1.250 -1.3072  0.3794 -0.1542
  628SOL     MW 2512   2.261   1.356   1.311 -0.2544  0.4088  0.1419
  629SOL     OW 2513   1.766   0.544   1.294  0.0365  0.6043  0.4819
  629SOL    HW1 2514   1.797   0.609   1.229  0.8572 -0.7055  1.8328
  629SOL    HW2 2515   1.685   0.500   1.264 -0.8112  0.1174 -2.0264
  629SOL     MW 2516   1.760   0.547   1.281  0.0329  0.3672  0.3292
  630SOL     OW 2517   2.409   1.865   3.014  0.0471 -0.0011  0.2630
  630SOL    HW1 2518   2.420   1.960   2.990  1.3410  0.5984 -0.3650
  630SOL    HW2 2519   2.318   1.837   3.009  0.1335 -0.9780 -0.7136
  630SOL     MW 2520   2.398   1.874   3.010  0.2292 -0.0509  0.0513
  631SOL     OW 2521   2.094   1.714   1.527 -0.3338  0.3806  0.2160
  631SOL    HW1 2522   2.096   1.652   1.601  2.5329  0.1815 -0.9951
  631SOL    HW2 2523   2.026   1.774   1.548  1.6785 -0.4749  1.2819
  631SOL     MW 2524   2.085   1.714   1.540  0.3099  0.2414  0.1969
  632SOL     OW 2525   0.279   1.923   1.511 -0.3616  0.1414  0.2409
  632SOL    HW1 2526   0.186   1.915   1.517  4.8544 -1.8402  0.0351
  632SOL    HW2 2527   0.300   1.830   1.495  1.3401  0.0844  2.4251
  632SOL     MW 2528   0.269   1.910   1.510  0.5511 -0.1276  0.5019
  633SOL     OW 2529   2.630   0.539   0.352 -0.3540  0.1038  0.7619
  633SOL    HW1 2530   2.688   0.512   0.425 -0.9586  1.8535  0.5183
  633SOL    HW2 2531   2.611   0.464   0.302  2.3992 -1.1012 -0.6458
  633SOL     MW 2532   2.635   0.526   0.355 -0.0705  0.1757  0.5440
  634SOL     OW 2533   2.661   3.058   0.635 -0.3975  0.9456 -0.1589
  634SOL    HW1 2534   2.671   3.155   0.643  1.9819  0.2295  1.7253
  634SOL    HW2 2535   2.620   3.041   0.551 -1.6259  0.4651  0.9001
  634SOL     MW 2536   2.657   3.069   0.625 -0.2457  0.7877  0.2295
  635SOL     OW 2537   2.621   0.091   1.882  0.1092 -0.4642 -0.0519
  635SOL    HW1 2538   2.666   0.044   1.805 -0.2199 -1.3147  0.3239
  635SOL    HW2 2539   2.678   0.157   1.929 -2.3676 -2.0193 -0.6854
  635SOL     MW 2540   2.635   0.094   1.878 -0.2610 -0.7816 -0.0859
  636SOL     OW 2541   2.716   1.632   0.864 -0.1672  0.6612 -0.7673
  636SOL    HW1 2542   2.623   1.625   0.843  2.6996 -1.4283 -1.4846
  636SOL    HW2 2543   2.735   1.726   0.861  1.7451  2.1856  1.3874
  636SOL     MW 2544   2.706   1.643   0.861  0.4634  0.5866 -0.5776
  637SOL     OW 2545   2.876   1.537   0.642 -0.2162 -0.0735  0.0755
  637SOL    HW1 2546   2.946   1.596   0.602  0.5024 -0.1064  0.1716
  637SOL    HW2 2547   2.837   1.584   0.719 -1.5616 -0.9523  2.4739
  637SOL     MW 2548   2.880   1.551   0.647 -0.2989 -0.1938  0.4046
  638SOL     OW 2549   2.786   0.497   0.589  0.4561 -0.3121  0.6182
  638SOL    HW1 2550   2.862   0.527   0.538  0.2469  0.3762  1.2529
  638SOL    HW2 2551   2.806   0.515   0.676  1.1536  2.5085 -1.9228
  638SOL     MW 2552   2.799   0.503   0.594  0.5205  0.1508  0.3667
  639SOL     OW 2553   1.754   3.083   0.548 -0.2623 -0.4472  0.3385
  639SOL    HW1 2554   1.671   3.110   0.514  2.6336  2.0101 -1.4694
  639SOL    HW2 2555   1.765   2.991   0.527 -3.2121  0.5947  2.8776
  639SOL     MW 2556   1.744   3.074   0.541 -0.2694  0.0145  0.4350
  640SOL     OW 2557   0.328   1.354   0.115  0.1967  0.6456 -0.0468
  640SOL    HW1 2558   0.359   1.347   0.025  0.5081  2.6990 -0.8627
  640SOL    HW2 2559   0.342   1.261   0.154 -0.8388 -0.0722  0.3921
  640SOL     MW 2560   0.334   1.341   0.108  0.1012  0.8218 -0.0965
  641SOL     OW 2561   2.110   0.400   0.375 -0.6931 -0.3453  0.1686
  641SOL    HW1 2562   2.183   0.361   0.323 -1.3567 -0.1905  1.5824
  641SOL    HW2 2563   2.101   0.341   0.446 -2.5531 -1.6079 -0.4939
  641SOL     MW 2564   2.118   0.387   0.377 -1.0261 -0.4914  0.2677
  642SOL     OW 2565   0.054   0.066   0.564  0.1080 -0.5866  0.7385
  642SOL    HW1 2566  -0.001   0.138   0.530 -3.0923 -0.2887 -2.8541
  642SOL    HW2 2567  -0.024   0.010   0.580 -0.6219  1.9954  2.8012
  642SOL     MW 2568   0.036   0.068   0.561 -0.4105 -0.2066  0.5366
  643SOL     OW 2569   2.063   0.317   1.648 -0.0074  0.1944  0.1810
  643SOL    HW1 2570   1.991   0.305   1.707  1.0248 -0.2933  2.2513
  643SOL    HW2 2571   2.050   0.252   1.580  0.8140  0.5323  0.9823
  643SOL     MW 2572   2.052   0.307   1.647  0.2371  0.1746  0.5599
  644SOL     OW 2573   2.675   1.894   0.998 -0.0988  0.1001  0.3089
  644SOL    HW1 2574   2.644   1.813   1.045 -0.8823  0.0437 -0.5131
  644SOL    HW2 2575   2.598   1.942   0.975 -0.8926 -1.0878 -3.2298
  644SOL     MW 2576   2.661   1.890   1.001 -0.3069 -0.0641 -0.2664
  645SOL     OW 2577   2.813   0.848   0.692 -0.9080  0.7836 -0.4723
  645SOL    HW1 2578   2.906   0.820   0.703  1.5117 -1.3469 -0.2254
  645SOL    HW2 2579   2.771   0.766   0.699  1.0798  1.1358 -1.0082
  645SOL     MW 2580   2.819   0.834   0.694 -0.3265  0.5490 -0.5104
  646SOL     OW 2581   0.132   2.278   0.830  0.5742  0.0481 -0.4506
  646SOL    HW1 2582   0.143   2.182   0.837  0.1526 -0.0302 -0.8338
  646SOL    HW2 2583   0.094   2.285   0.740  1.7218 -3.3500  0.7637
  646SOL     MW 2584   0.128   2.266   0.819  0.6700 -0.4106 -0.3409
  647SOL     OW 2585   2.721   0.507   3.028  0.2028  0.1236  0.0751
  647SOL    HW1 2586   2.680   0.430   3.064 -2.7661 -1.4631 -0.2757
  647SOL    HW2 2587   2.697   0.585   3.074 -0.4844 -0.5942  1.8427
  647SOL     MW 2588   2.713   0.507   3.039 -0.2796 -0.1804  0.2621
  648SOL     OW 2589   2.257   0.683   1.110 -0.1977 -0.6082  0.3218
  648SOL    HW1 2590   2.231   0.589   1.131 -0.4567  0.9636  1.4208
  648SOL    HW2 2591   2.184   0.738   1.127  1.4047  0.0585 -0.8774
  648SOL     MW 2592   2.244   0.678   1.115 -0.0204 -0.3129  0.3086
  649SOL     OW 2593   2.441   2.714   1.239 -0.5087  0.0129  0.1116
  649SOL    HW1 2594   2.524   2.770   1.247  0.8583 -0.1079  0.9384
  649SOL    HW2 2595   2.462   2.627   1.207 -0.1531  2.0646 -0.6232
  649SOL     MW 2596   2.455   2.710   1.236 -0.2814  0.2676  0.1237
  650SOL     OW 2597   2.760   0.222   0.659 -0.2533 -0.0600 -0.4168
  650SOL    HW1 2598   2.765   0.310   0.621  2.4115 -0.4553 -0.5301
  650SOL    HW2 2599   2.854   0.202   0.665 -1.3792  0.8859 -0.1244
  650SOL     MW 2600   2.773   0.231   0.655 -0.0503  0.0126 -0.3932
  651SOL     OW 2601   3.096   0.456   1.004 -1.0866 -0.1185 -0.2162
  651SOL    HW1 2602   3.162   0.508   0.955  1.9362 -0.3111  0.3035
  651SOL    HW2 2603   3.016   0.512   1.008  0.3955 -1.8675  2.2901
  651SOL     MW 2604   3.094   0.470   0.998 -0.4922 -0.3747  0.1831
  652SOL     OW 2605   2.366   1.397   3.013 -0.0321 -0.2444  0.3068
  652SOL    HW1 2606   2.419   1.440   2.942 -0.2463 -1.9333 -1.7918
  652SOL    HW2 2607   2.309   1.469   3.048  3.5268  0.2203  0.1961
  652SOL     MW 2608   2.365   1.412   3.008  0.4092 -0.4059  0.0153
  653SOL     OW 2609   1.837   0.379   0.288  0.7608 -0.3864 -0.0442
  653SOL    HW1 2610   1.839   0.305   0.229  1.3673 -0.2833  1.2428
  653SOL    HW2 2611   1.932   0.392   0.309  0.9004  0.6500 -3.6060
  653SOL     MW 2612   1.850   0.371   0.283  0.8592 -0.2360 -0.3444
  654SOL     OW 2613   2.440   0.970   0.778  0.2867 -0.3787  0.4121
  654SOL    HW1 2614   2.383   0.967   0.695  1.0127 -1.7360 -1.5457
  654SOL    HW2 2615   2.490   0.889   0.781  0.7792  0.6047 -0.7205
  654SOL     MW 2616   2.439   0.959   0.767  0.4474 -0.4280  0.0043
  655SOL     OW 2617   2.910   0.903   0.440  0.3102  0.8234  0.6033
  655SOL    HW1 2618   2.864   0.894   0.524  0.1013  0.2595 -0.1055
  655SOL    HW2 2619   2.940   0.813   0.431 -1.6937 -0.4133 -0.4811
  655SOL     MW 2620   2.908   0.890   0.450  0.0182  0.5858  0.3667
  656SOL     OW 2621   1.806   2.625   1.411  0.3405  0.0600  0.3120
  656SOL    HW1 2622   1.826   2.717   1.407 -1.0176  0.0674 -1.2262
  656SOL    HW2 2623   1.874   2.578   1.357  1.4887 -0.8594  0.6599
  656SOL     MW 2624   1.818   2.631   1.403  0.3128 -0.0603  0.1550
  657SOL     OW 2625   0.075   1.824   1.244 -0.1353  0.3013  0.5627
  657SOL    HW1 2626   0.156   1.868   1.217 -0.0077 -3.9863 -2.0334
  657SOL    HW2 2627   0.104   1.735   1.259  0.6398 -0.8018  0.6309
  657SOL     MW 2628   0.090   1.818   1.242 -0.0162 -0.4099  0.2291
  658SOL     OW 2629   2.730   1.332   0.244 -0.2194 -0.0475 -0.0701
  658SOL    HW1 2630   2.697   1.250   0.287 -1.9762 -0.5916 -4.3559
  658SOL    HW2 2631   2.733   1.397   0.320  0.0165  1.3533 -0.1725
  658SOL     MW 2632   2.726   1.329   0.260 -0.4201  0.0655 -0.6491
  659SOL     OW 2633   2.178   1.510   1.010 -0.1098 -0.3872  0.1667
  659SOL    HW1 2634   2.272   1.507   1.017 -3.1702 -2.1733 -2.7047
  659SOL    HW2 2635   2.143   1.524   1.097  0.8032  1.3782 -2.5251
  659SOL     MW 2636   2.186   1.512   1.023 -0.3931 -0.3899 -0.5673
  660SOL     OW 2637   2.094   1.496   1.687 -0.0057  0.6932 -0.1911
  660SOL    HW1 2638   2.080   1.491   1.780 -1.2073  1.9609  1.7552
  660SOL    HW2 2639   2.029   1.443   1.642 -0.0776 -0.3357 -1.2497
  660SOL     MW 2640   2.084   1.489   1.693 -0.1737  0.7247 -0.0740
  661SOL     OW 2641   2.417   0.980   0.236  0.0620  0.6004  0.1901
  661SOL    HW1 2642   2.484   1.034   0.271 -1.1059 -0.1173  1.8226
  661SOL    HW2 2643   2.440   0.888   0.261  0.1066 -2.4478  3.3368
  661SOL     MW 2644   2.429   0.975   0.244 -0.0862  0.1035  0.8207
  662SOL     OW 2645   2.574   2.976   0.888 -0.4744  0.1974  0.6334
  662SOL    HW1 2646   2.505   3.037   0.930 -0.4617  2.0533 -0.3097
  662SOL    HW2 2647   2.602   3.012   0.799  1.3960  0.0255 -0.7874
  662SOL     MW 2648   2.569   2.989   0.882 -0.2259  0.4196  0.3215
  663SOL     OW 2649   2.672   1.517   0.462 -0.1735 -0.2169  0.3113
  663SOL    HW1 2650   2.674   1.602   0.420 -0.2996  1.2963 -1.1109
  663SOL    HW2 2651   2.750   1.509   0.519  1.6370  0.0135  0.7696
  663SOL     MW 2652   2.683   1.527   0.464  0.0487  0.0132  0.1841
  664SOL     OW 2653   2.555   1.488   1.584  0.1344 -0.3908 -0.7186
  664SOL    HW1 2654   2.557   1.573   1.552  0.0184 -1.0206  0.8027
  664SOL    HW2 2655   2.468   1.456   1.594 -0.0918 -3.3572 -0.5637
  664SOL     MW 2656   2.544   1.495   1.581  0.0893 -0.8653 -0.4974
  665SOL     OW 2657   2.822   0.788   2.092  0.3100  0.5469  0.2404
  665SOL    HW1 2658   2.819   0.850   2.017  2.2580 -0.0575  0.4272
  665SOL    HW2 2659   2.907   0.740   2.079  0.9602  0.5546  0.5741
  665SOL     MW 2660   2.833   0.790   2.080  0.6528  0.4682  0.3091
  666SOL     OW 2661   2.747   3.020   1.688  0.1151  0.1278 -0.1731
  666SOL    HW1 2662   2.757   3.040   1.596  0.9500 -2.7163 -0.2693
  666SOL    HW2 2663   2.713   2.931   1.706 -1.2964 -0.7807  0.6794
  666SOL     MW 2664   2.744   3.011   1.678  0.0390 -0.3673 -0.0733
  667SOL     OW 2665   1.975   2.700   1.748  0.1689 -0.0930 -0.2219
  667SOL    HW1 2666   2.007   2.670   1.834 -0.4908 -1.3511 -0.6157
  667SOL    HW2 2667   2.045   2.768   1.723  0.0264  0.0195 -1.4390
  667SOL     MW 2668   1.988   2.705   1.756  0.0630 -0.2442 -0.4345
  668SOL     OW 2669   2.760   0.548   0.856 -0.1769  0.7047  0.1264
  668SOL    HW1 2670   2.801   0.596   0.936  0.2107  0.5319  4.6678
  668SOL    HW2 2671   2.679   0.593   0.840  1.9050  0.5708  3.0486
  668SOL     MW 2672   2.755   0.560   0.864  0.1490  0.6643  1.1111
  669SOL     OW 2673   0.152   0.976   0.726 -0.1203  0.2764  0.0021
  669SOL    HW1 2674   0.083   1.036   0.762 -0.4922  2.9317 -0.8210
  669SOL    HW2 2675   0.188   0.916   0.789  0.7866  2.0639  0.0484
  669SOL     MW 2676   0.147   0.976   0.739 -0.0497  0.8626 -0.1004
  670SOL     OW 2677   2.904   0.326   0.207  0.0257  0.5863  0.3814
  670SOL    HW1 2678   2.906   0.278   0.123 -0.2853 -0.7601 -0.2958
  670SOL    HW2 2679   2.925   0.417   0.184  0.5639 -0.7196  2.5652
  670SOL     MW 2680   2.907   0.332   0.193  0.0557  0.2363  0.5802
  671SOL     OW 2681   2.027   3.021   1.556 -0.0104 -0.0857 -0.3557
  671SOL    HW1 2682   1.968   2.985   1.488  0.1687 -1.3034  2.4439
  671SOL    HW2 2683   1.962   3.040   1.628  2.1577  0.5077  0.3691
  671SOL     MW 2684   2.010   3.019   1.557  0.2993 -0.1680  0.1093
  672SOL     OW 2685   1.798   1.732   1.287  0.0721 -0.1814  0.2610
  672SOL    HW1 2686   1.800   1.800   1.358  0.6002 -0.8612  1.1187
  672SOL    HW2 2687   1.865   1.751   1.221 -0.5288 -1.6951  1.2970
  672SOL     MW 2688   1.807   1.744   1.288  0.0625 -0.4708  0.5109
  673SOL     OW 2689   2.738   1.097   0.595  0.2495  0.0902  0.3743
  673SOL    HW1 2690   2.763   1.016   0.645  0.0894 -3.0412  1.1523
  673SOL    HW2 2691   2.821   1.157   0.593 -1.6265  4.0339  0.3717
  673SOL     MW 2692   2.753   1.094   0.601 -0.0191  0.1974  0.4766
  674SOL     OW 2693   2.491   0.035   1.251  0.5348  0.3259 -0.6045
  674SOL    HW1 2694   2.445   0.044   1.165  0.4382  0.4624  0.5813
  674SOL    HW2 2695   2.550  -0.038   1.236 -1.9326  0.1013 -0.6802
  674SOL     MW 2696   2.492   0.027   1.238  0.1965  0.3143 -0.4580
  675SOL     OW 2697   2.983   0.924   1.053  0.2090 -0.1637 -0.4665
  675SOL    HW1 2698   3.035   0.926   1.134  0.7147  1.3007 -0.7211
  675SOL    HW2 2699   3.016   0.991   0.999 -0.4508 -0.8637  2.6398
  675SOL     MW 2700   2.994   0.933   1.057  0.1887 -0.0629 -0.0902
  676SOL     OW 2701   2.916   1.469   1.704 -0.1505 -0.7803  0.1740
  676SOL    HW1 2702   2.847   1.419   1.660  1.0792  1.0631  0.5864
  676SOL    HW2 2703   2.954   1.425   1.776  2.2436 -0.6365  0.5320
  676SOL     MW 2704   2.912   1.457   1.708  0.3276 -0.5181  0.2757
  677SOL     OW 2705   2.385   0.535   2.037  0.8380  0.2992 -0.0595
  677SOL    HW1 2706   2.350   0.519   1.948  3.2559 -0.5919  1.5972
  677SOL    HW2 2707   2.356   0.629   2.038  1.1751  1.5279 -0.3766
  677SOL     MW 2708   2.377   0.545   2.025  1.2015  0.3437  0.1173
  678SOL     OW 2709   2.416   1.646   0.275 -0.0359 -0.5328 -0.5984
  678SOL    HW1 2710   2.327   1.642   0.321 -0.1331 -0.7055  1.0872
  678SOL    HW2 2711   2.411   1.552   0.235  0.3997 -1.2054  1.9048
  678SOL     MW 2712   2.404   1.633   0.276  0.0087 -0.6443 -0.0458
  679SOL     OW 2713   2.240   0.433   1.233 -0.0790  0.0214 -0.1749
  679SOL    HW1 2714   2.288   0.353   1.244 -1.9882 -1.3418 -0.2172
  679SOL    HW2 2715   2.174   0.447   1.301  1.9003  1.6278 -0.9890
  679SOL     MW 2716   2.237   0.424   1.243 -0.0698  0.0535 -0.2879
  680SOL     OW 2717   2.332   0.130   1.465  1.1592 -0.5470 -0.2002
  680SOL    HW1 2718   2.237   0.149   1.451 -0.6461  2.3733 -0.2472
  680SOL    HW2 2719   2.371   0.101   1.387  0.1631  1.5931  3.7148
  680SOL     MW 2720   2.324   0.128   1.453  0.7896  0.1207  0.3101
  681SOL     OW 2721   0.227   0.545   1.500 -0.1417  0.4292  0.2299
  681SOL    HW1 2722   0.194   0.473   1.557 -3.4549 -2.4745  0.4479
  681SOL    HW2 2723   0.205   0.522   1.405 -0.7572  4.4381  0.2868
  681SOL     MW 2724   0.220   0.532   1.495 -0.6601  0.5751  0.2662
  682SOL     OW 2725   0.123   2.894   1.492 -0.2511  0.6628  0.1183
  682SOL    HW1 2726   0.199   2.952   1.517 -0.1935  1.4088 -0.1082
  682SOL    HW2 2727   0.046   2.918   1.545  0.8252  1.0043 -2.0393
  682SOL     MW 2728   0.122   2.905   1.502 -0.1015  0.8063 -0.1962
  683SOL     OW 2729   2.062   0.838   2.977 -0.5686 -0.4844 -0.0163
  683SOL    HW1 2730   2.003   0.775   3.013  1.3897  2.7498  0.9435
  683SOL    HW2 2731   2.028   0.917   3.020 -0.4240 -0.8169  0.5082
  683SOL     MW 2732   2.050   0.840   2.987 -0.2912 -0.1016  0.1795
  684SOL     OW 2733   2.142   1.717   0.673 -0.5227  0.4816 -0.3664
  684SOL    HW1 2734   2.121   1.699   0.581  3.6433  0.7749  1.3493
  684SOL    HW2 2735   2.140   1.626   0.708 -1.8663  1.5371  1.2820
  684SOL     MW 2736   2.139   1.702   0.665 -0.1503  0.6596  0.0775
  685SOL     OW 2737   2.712   1.667   1.174 -0.2699  0.3537 -0.3258
  685SOL    HW1 2738   2.744   1.684   1.261  1.8960  0.2119  1.3563
  685SOL    HW2 2739   2.678   1.582   1.187 -3.5517  0.2504 -1.2020
  685SOL     MW 2740   2.712   1.658   1.187 -0.4172  0.3214 -0.2194
  686SOL     OW 2741   2.902   0.664   1.592  0.4633 -0.6918  0.8321
  686SOL    HW1 2742   2.888   0.625   1.681 -1.2858 -0.6004 -1.5554
  686SOL    HW2 2743   2.991   0.680   1.570  2.6280 -2.8845  0.9870
  686SOL     MW 2744   2.912   0.661   1.601  0.5181 -0.9691  0.5375
  687SOL     OW 2745   2.154   0.167   1.161  0.3183 -0.4204 -0.4332
  687SOL    HW1 2746   2.214   0.134   1.093  0.8325  1.8705 -0.8529
  687SOL    HW2 2747   2.102   0.242   1.116 -1.8051  1.5445 -0.7045
  687SOL     MW 2748   2.155   0.173   1.146  0.1059  0.1411 -0.5243
  688SOL     OW 2749   2.394   0.588   1.390  0.2756 -0.5708  0.0022
  688SOL    HW1 2750   2.346   0.539   1.324  1.7835  1.2644 -2.2536
  688SOL    HW2 2751   2.334   0.613   1.465  1.6899 -0.4197 -1.4447
  688SOL     MW 2752   2.380   0.585   1.391  0.6612 -0.3087 -0.4863
  689SOL     OW 2753   2.473   0.789   2.940  0.4339  0.5134 -0.1790
  689SOL    HW1 2754   2.410   0.856   2.923  1.6553 -0.1535  1.2347
  689SOL    HW2 2755   2.513   0.803   3.026  0.3569 -0.4662  0.5655
  689SOL     MW 2756   2.470   0.799   2.949  0.5849  0.2962  0.1058
  690SOL     OW 2757   2.023   0.903   1.886  0.0898 -0.3464 -0.1942
  690SOL    HW1 2758   1.999   0.813   1.895  1.1434  0.7781  0.9803
  690SOL    HW2 2759   2.051   0.911   1.794  1.1187 -0.9050  1.9916
  690SOL     MW 2760   2.023   0.892   1.875  0.3645 -0.2718  0.2491
  691SOL     OW 2761   2.412   0.248   0.852 -0.8269  0.2489  0.0313
  691SOL    HW1 2762   2.490   0.285   0.912 -0.5960  2.0771 -0.0062
  691SOL    HW2 2763   2.338   0.309   0.861 -0.8098 -1.2144 -0.8735
  691SOL     MW 2764   2.412   0.261   0.861 -0.7941  0.2971 -0.0930
  692SOL     OW 2765   2.888   1.589   1.414  0.2870  0.0044  0.3096
  692SOL    HW1 2766   2.836   1.584   1.492 -0.7212  0.1101  1.7075
  692SOL    HW2 2767   2.929   1.675   1.425 -0.5956 -0.6949 -0.3425
  692SOL     MW 2768   2.887   1.600   1.426  0.0376 -0.0739  0.4080
  693SOL     OW 2769   2.312   0.416   0.088 -0.2325 -0.5367 -0.2048
  693SOL    HW1 2770   2.236   0.358   0.076  1.5357 -0.7646 -0.3817
  693SOL    HW2 2771   2.273   0.500   0.070 -0.2270 -0.0965 -3.8343
  693SOL     MW 2772   2.297   0.420   0.084  0.0015 -0.5087 -0.7070
  694SOL     OW 2773   1.887   1.124   1.075 -0.2669  0.6934 -0.0801
  694SOL    HW1 2774   1.983   1.113   1.102  1.3961  0.8447  2.5917
  694SOL    HW2 2775   1.841   1.047   1.122 -2.7193 -1.1890  2.7353
  694SOL     MW 2776   1.893   1.112   1.085 -0.3710  0.4650  0.6439
  695SOL     OW 2777   2.967   1.367   1.278 -0.1635 -0.3861 -0.2332
  695SOL    HW1 2778   2.948   1.386   1.184  2.5333  1.9162 -4.5548
  695SOL    HW2 2779   2.953   1.449   1.334 -2.3419  0.2858 -0.3435
  695SOL     MW 2780   2.963   1.380   1.273 -0.0951  0.0064 -0.8179
  696SOL     OW 2781   2.105   1.433   0.767  0.2615  0.0202  0.6586
  696SOL    HW1 2782   2.119   1.469   0.853  0.7610  1.7738 -0.4413
  696SOL    HW2 2783   2.053   1.352   0.781 -0.7778  2.4235  0.3144
  696SOL     MW 2784   2.100   1.427   0.780  0.1903  0.5686  0.4681
  697SOL     OW 2785   2.887   0.993   2.258  0.4881  0.6618  0.1637
  697SOL    HW1 2786   2.811   1.030   2.286  2.4980 -1.4060 -0.3190
  697SOL    HW2 2787   2.855   0.910   2.208 -0.2558 -0.7887  1.7426
  697SOL     MW 2788   2.873   0.987   2.255  0.6551  0.1976  0.3083
  698SOL     OW 2789   2.577   0.274   0.017  0.0144 -0.0079 -0.3756
  698SOL    HW1 2790   2.498   0.328   0.038 -0.4282 -0.2801 -1.4683
  698SOL    HW2 2791   2.621   0.246   0.104 -3.0206 -1.4353  1.1429
  698SOL     MW 2792   2.572   0.277   0.031 -0.4445 -0.2321 -0.3194
  699SOL     OW 2793   1.932   1.629   2.085  0.3000 -0.0452 -0.4515
  699SOL    HW1 2794   1.867   1.561   2.052 -2.4109 -2.8086  1.3601
  699SOL    HW2 2795   2.018   1.608   2.038  2.1753  3.2434 -1.4845
  699SOL     MW 2796   1.935   1.617   2.075  0.1898  0.0241 -0.3488
  700SOL     OW 2797   2.707   0.869   1.572 -0.1517 -0.9251 -0.1400
  700SOL    HW1 2798   2.727   0.935   1.498  0.2550 -0.2427 -0.6134
  700SOL    HW2 2799   2.787   0.814   1.571  0.0152 -1.3871 -0.0390
  700SOL     MW 2800   2.721   0.871   1.562 -0.0760 -0.8960 -0.1891
  701SOL     OW 2801   1.676   1.169   2.508 -0.2654  0.2621  0.4559
  701SOL    HW1 2802   1.755   1.136   2.553  0.2598 -1.1119  0.2000
  701SOL    HW2 2803   1.652   1.237   2.566  0.9972 -1.5409 -0.3096
  701SOL     MW 2804   1.683   1.174   2.521 -0.0296 -0.1571  0.3212
  702SOL     OW 2805   2.165   0.437   0.829  0.3243  0.1057 -0.0378
  702SOL    HW1 2806   2.136   0.368   0.770  1.2896  1.2721 -0.8500
  702SOL    HW2 2807   2.220   0.491   0.772 -3.0668  0.7038 -0.7270
  702SOL     MW 2808   2.169   0.435   0.814  0.0043  0.3385 -0.2359
  703SOL     OW 2809   2.726   1.234   0.975  0.1488 -0.2178 -0.2862
  703SOL    HW1 2810   2.682   1.233   0.891 -0.6143  0.5812 -0.7026
  703SOL    HW2 2811   2.709   1.151   1.015 -0.0700 -0.6543 -1.8339
  703SOL     MW 2812   2.718   1.223   0.969  0.0193 -0.1700 -0.5453
  704SOL     OW 2813   3.047   1.271   0.128  0.4692 -0.4218 -0.8395
  704SOL    HW1 2814   2.950   1.274   0.103 -0.2374 -1.3537 -1.3954
  704SOL    HW2 2815   3.043   1.259   0.226 -1.0964  2.0490  0.5274
  704SOL     MW 2816   3.034   1.270   0.138  0.1694 -0.2188 -0.7325
  705SOL     OW 2817   2.119   1.594   1.286 -0.1974 -0.7493 -0.4665
  705SOL    HW1 2818   2.083   1.628   1.373  2.3052  0.5881 -1.5858
  705SOL    HW2 2819   2.166   1.514   1.303  0.1302 -1.7629  1.0564
  705SOL     MW 2820   2.121   1.588   1.300  0.1760 -0.7066 -0.4133
  706SOL     OW 2821   2.955   1.256   0.650  0.2061  0.2272  0.8846
  706SOL    HW1 2822   3.003   1.235   0.566  1.8599 -2.2814  1.0179
  706SOL    HW2 2823   2.960   1.355   0.663  0.1692 -2.1947  0.8385
  706SOL     MW 2824   2.962   1.266   0.641  0.4194 -0.4233  0.8961
  707SOL     OW 2825   2.345   0.001   0.984  0.3381 -0.1043 -0.5447
  707SOL    HW1 2826   2.357   0.070   0.915  1.8864 -0.6122  1.3210
  707SOL    HW2 2827   2.269  -0.054   0.957  1.0688  0.7794  1.1150
  707SOL     MW 2828   2.336   0.003   0.972  0.6388 -0.0547 -0.0795
  708SOL     OW 2829   2.469   1.393   0.164  0.2808 -0.2144  0.1243
  708SOL    HW1 2830   2.562   1.373   0.175 -0.3816  0.9270 -1.9772
  708SOL    HW2 2831   2.457   1.385   0.068  2.6627  3.9572 -1.2410
  708SOL     MW 2832   2.479   1.389   0.153  0.5077  0.4866 -0.3331
  709SOL     OW 2833   1.708   1.627   0.218 -0.1192 -0.2156  0.1079
  709SOL    HW1 2834   1.727   1.631   0.126  2.0796 -0.8367  1.4067
  709SOL    HW2 2835   1.619   1.651   0.235 -3.0060 -0.7119 -0.3227
  709SOL     MW 2836   1.698   1.630   0.208 -0.2100 -0.3630  0.2225
  710SOL     OW 2837   2.145   1.178   1.171  0.0334  0.2577 -0.3567
  710SOL    HW1 2838   2.172   1.144   1.085 -2.5437  0.3725 -0.0271
  710SOL    HW2 2839   2.171   1.100   1.222 -0.9690 -1.9602 -0.1073
  710SOL     MW 2840   2.152   1.163   1.166 -0.4389 -0.0198 -0.2803
  711SOL     OW 2841   2.373   0.138   1.798  0.3789  0.7475 -0.2855
  711SOL    HW1 2842   2.462   0.129   1.828 -0.1566  1.5124  1.8041
  711SOL    HW2 2843   2.374   0.121   1.704 -0.0867 -1.3517  1.6271
  711SOL     MW 2844   2.385   0.134   1.790  0.2468  0.5715  0.2426
  712SOL     OW 2845   1.899   0.630   3.063  0.4030  0.0985  0.2467
  712SOL    HW1 2846   1.808   0.655   3.040 -0.2038 -1.2401 -1.4250
  712SOL    HW2 2847   1.901   0.631   3.155 -3.6599  0.9623  0.9053
  712SOL     MW 2848   1.887   0.633   3.072 -0.2131  0.0359  0.1130
  713SOL     OW 2849   2.551   0.710   1.084  0.0574 -0.1928 -0.1796
  713SOL    HW1 2850   2.577   0.625   1.115 -2.0312  1.3782 -0.8968
  713SOL    HW2 2851   2.476   0.735   1.134 -0.5816  2.1509 -0.3700
  713SOL     MW 2852   2.544   0.702   1.095 -0.3025  0.3237 -0.2994
  714SOL     OW 2853   2.208   0.216   2.010  0.2618  0.0612  0.2974
  714SOL    HW1 2854   2.251   0.161   2.071 -0.6692  1.6915 -0.0737
  714SOL    HW2 2855   2.264   0.196   1.930  1.1709 -1.0663 -1.2552
  714SOL     MW 2856   2.221   0.206   2.007  0.2589  0.1276  0.0436
  715SOL     OW 2857   1.816   2.048   1.751 -0.0425 -0.2255  0.2352
  715SOL    HW1 2858   1.896   2.085   1.717  0.2771  0.7247 -0.8634
  715SOL    HW2 2859   1.838   1.957   1.781  0.5458  0.2765  0.2180
  715SOL     MW 2860   1.830   2.041   1.750  0.0773 -0.0339  0.0879
  716SOL     OW 2861   2.338   0.549   0.661  0.7642  0.1176  0.1775
  716SOL    HW1 2862   2.380   0.481   0.608 -0.4047 -0.3218  2.9292
  716SOL    HW2 2863   2.315   0.632   0.605  0.5245  2.2434 -0.1113
  716SOL     MW 2864   2.340   0.551   0.647  0.5784  0.3401  0.5025
  717SOL     OW 2865   2.829   1.624   2.889  0.0431 -0.5390 -0.6381
  717SOL    HW1 2866   2.921   1.626   2.928  1.1689  0.0511 -1.3554
  717SOL    HW2 2867   2.786   1.703   2.941 -0.2720  0.6312  1.2731
  717SOL     MW 2868   2.835   1.635   2.901  0.1500 -0.3068 -0.4806
  718SOL     OW 2869   2.671   1.377   1.321 -0.4720 -0.4418 -0.2889
  718SOL    HW1 2870   2.671   1.392   1.415 -1.1806  0.5497 -0.7957
  718SOL    HW2 2871   2.763   1.349   1.302  1.8838  2.4869 -0.4904
  718SOL     MW 2872   2.683   1.375   1.331 -0.2547  0.0754 -0.3823
  719SOL     OW 2873   2.194   1.264   0.583  0.5450  0.2405  0.0843
  719SOL    HW1 2874   2.278   1.295   0.544  2.3076  0.5753 -0.3698
  719SOL    HW2 2875   2.180   1.342   0.654 -0.3728  1.6371  1.4295
  719SOL     MW 2876   2.204   1.278   0.587  0.6565  0.4689  0.2019
  720SOL     OW 2877   2.784   1.174   0.027 -0.1470  0.9544 -0.0692
  720SOL    HW1 2878   2.785   1.091   0.076  1.9778  1.2629  1.2299
  720SOL    HW2 2879   2.747   1.239   0.087 -0.5095 -1.7754 -0.6952
  720SOL     MW 2880   2.779   1.172   0.041  0.0855  0.6349  0.0196
  721SOL     OW 2881   2.481   0.848   1.386 -0.2047 -0.1363 -0.6657
  721SOL    HW1 2882   2.456   0.760   1.366 -0.3383  3.3680 -1.4051
  721SOL    HW2 2883   2.551   0.843   1.450  1.0981 -2.2800  2.5032
  721SOL     MW 2884   2.487   0.836   1.392 -0.0504  0.0432 -0.3452
  722SOL     OW 2885   2.583   1.137   0.365 -0.8454  0.7276 -0.2691
  722SOL    HW1 2886   2.535   1.208   0.398 -2.2933  1.4553 -1.0764
  722SOL    HW2 2887   2.637   1.096   0.440  0.0175  0.8026 -1.9041
  722SOL     MW 2888   2.584   1.141   0.379 -0.9226  0.8335 -0.5914
  723SOL     OW 2889   2.315   1.344   1.581 -0.3674 -0.4930  0.0409
  723SOL    HW1 2890   2.295   1.328   1.485  3.6133 -0.9682 -1.9524
  723SOL    HW2 2891   2.242   1.386   1.622  0.5828 -1.9041  1.4569
  723SOL     MW 2892   2.303   1.347   1.574  0.2832 -0.7419 -0.0353
  724SOL     OW 2893   2.485   0.312   0.596  0.0451 -0.1186  0.0497
  724SOL    HW1 2894   2.456   0.276   0.681  1.6658 -1.5851  1.2234
  724SOL    HW2 2895   2.573   0.276   0.591  0.6907  2.0471  0.9425
  724SOL     MW 2896   2.492   0.303   0.607  0.3441 -0.0263  0.3223
  725SOL     OW 2897   2.592   0.417   1.221  0.0411 -0.2366  0.1016
  725SOL    HW1 2898   2.638   0.477   1.278  1.8954  1.4938 -0.9034
  725SOL    HW2 2899   2.636   0.338   1.243  0.4171  0.1544  0.7038
  725SOL     MW 2900   2.604   0.414   1.232  0.3354  0.0433  0.0485
  726SOL     OW 2901   2.530   2.527   0.514 -0.2550 -0.0136 -0.5811
  726SOL    HW1 2902   2.528   2.621   0.484  2.2843  0.7243  0.7092
  726SOL    HW2 2903   2.497   2.531   0.603  0.5033 -0.5526 -0.5161
  726SOL     MW 2904   2.526   2.540   0.522  0.1800  0.0126 -0.4022
  727SOL     OW 2905   2.850   0.337   1.759 -0.0990 -0.0001 -0.0444
  727SOL    HW1 2906   2.780   0.323   1.687 -0.7899 -1.9869 -0.8165
  727SOL    HW2 2907   2.803   0.318   1.838  0.2784 -0.4783 -1.5915
  727SOL     MW 2908   2.834   0.333   1.760 -0.1404 -0.3254 -0.3504
  728SOL     OW 2909   2.850   1.171   2.871 -0.1850  0.5365 -0.1619
  728SOL    HW1 2910   2.837   1.227   2.793 -0.1604 -1.1820  1.9567
  728SOL    HW2 2911   2.812   1.214   2.953 -0.6193 -0.6883  2.2699
  728SOL     MW 2912   2.843   1.184   2.871 -0.2391  0.1482  0.4385
  729SOL     OW 2913   2.467   1.466   1.133  0.7891  0.2332 -0.2159
  729SOL    HW1 2914   2.535   1.437   1.190 -0.5573 -2.3451 -0.2939
  729SOL    HW2 2915   2.501   1.455   1.040  2.2594 -0.9371 -0.3285
  729SOL     MW 2916   2.480   1.461   1.128  0.8055 -0.2614 -0.2411
  730SOL     OW 2917   2.223   1.187   0.286 -0.4597  0.0392 -0.4455
  730SOL    HW1 2918   2.302   1.132   0.267 -0.1952 -1.5685 -1.4544
  730SOL    HW2 2919   2.244   1.277   0.270 -0.5417 -2.1995  1.7519
  730SOL     MW 2920   2.236   1.192   0.281 -0.4356 -0.4683 -0.2887
  731SOL     OW 2921   2.781   2.079   2.864 -0.2163  0.6451  0.0126
  731SOL    HW1 2922   2.716   2.034   2.805 -0.6566 -1.7728 -0.2647
  731SOL    HW2 2923   2.844   2.009   2.860 -0.8845 -0.2129 -1.2455
  731SOL     MW 2924   2.781   2.064   2.856 -0.3626  0.2129 -0.1900
  732SOL     OW 2925   2.212   0.980   1.322 -0.2094  0.2225  0.5192
  732SOL    HW1 2926   2.180   0.943   1.407  1.4932 -0.8361 -0.0343
  732SOL    HW2 2927   2.295   0.945   1.296  0.3606  1.2122 -2.5885
  732SOL     MW 2928   2.219   0.970   1.330  0.0904  0.2134  0.0361
  733SOL     OW 2929   2.389   2.816   3.023  0.1430 -0.2349  0.1821
  733SOL    HW1 2930   2.302   2.862   3.036 -0.6903  0.8028 -2.0499
  733SOL    HW2 2931   2.353   2.728   2.996  1.3309 -1.4634 -0.9750
  733SOL     MW 2932   2.373   2.811   3.021  0.1898 -0.2601 -0.2650
  734SOL     OW 2933   1.537   0.261   2.525  0.5684 -0.1419 -0.4008
  734SOL    HW1 2934   1.482   0.227   2.597  0.3534 -0.5854  0.6033
  734SOL    HW2 2935   1.543   0.204   2.451  1.2904  0.0739  0.2652
  734SOL     MW 2936   1.530   0.249   2.525  0.6353 -0.1719 -0.1805
  735SOL     OW 2937   2.967   0.942   2.657  0.9013  0.3742  0.0004
  735SOL    HW1 2938   2.958   0.843   2.654 -0.0294  0.6582  0.2415
  735SOL    HW2 2939   2.988   0.957   2.752  2.8568 -0.7539 -0.3252
  735SOL     MW 2940   2.968   0.931   2.669  1.0365  0.2628 -0.0107
  736SOL     OW 2941   0.093   0.610   2.589  0.5106 -0.4911  0.2512
  736SOL    HW1 2942   0.113   0.684   2.524  2.7120  0.0794 -0.0386
  736SOL    HW2 2943   0.102   0.532   2.535 -1.0081 -1.8651 -0.2718
  736SOL     MW 2944   0.097   0.610   2.573  0.6007 -0.5971  0.1440
  737SOL     OW 2945   2.924   0.673   2.638  0.4947  0.8803 -0.2731
  737SOL    HW1 2946   2.888   0.631   2.562 -0.1834 -0.6202  0.2253
  737SOL    HW2 2947   3.013   0.634   2.644 -2.6388  0.3942 -1.1336
  737SOL     MW 2948   2.931   0.663   2.629 -0.0082  0.6182 -0.3209
  738SOL     OW 2949   0.190   0.577   1.897 -0.3926 -0.6109 -0.5990
  738SOL    HW1 2950   0.286   0.597   1.899  0.7017  0.4478 -1.2511
  738SOL    HW2 2951   0.179   0.509   1.831 -0.8825 -1.7909  1.4330
  738SOL     MW 2952   0.201   0.571   1.889 -0.3129 -0.6269 -0.4170
  739SOL     OW 2953   2.465   1.009   2.080 -0.3288 -0.1006  0.3240
  739SOL    HW1 2954   2.479   0.922   2.050 -0.6013 -2.3417  0.8720
  739SOL    HW2 2955   2.409   1.048   2.012 -2.5563  0.3918  2.8383
  739SOL     MW 2956   2.459   1.003   2.067 -0.6587 -0.3313  0.7281
  740SOL     OW 2957   0.126   1.819   2.925 -0.2134  0.2702  0.3815
  740SOL    HW1 2958   0.083   1.735   2.951 -1.6031 -0.7355  0.7473
  740SOL    HW2 2959   0.212   1.822   2.971 -2.0471  1.6432  0.0082
  740SOL     MW 2960   0.132   1.809   2.934 -0.6387  0.3187  0.3805
  741SOL     OW 2961   2.229   1.204   2.710  0.2864  0.5061 -0.1130
  741SOL    HW1 2962   2.192   1.263   2.644  0.4053  0.1721 -2.2545
  741SOL    HW2 2963   2.169   1.188   2.786  0.7450  2.6064 -0.5800
  741SOL     MW 2964   2.216   1.210   2.711  0.3626  0.7391 -0.4572
  742SOL     OW 2965   1.707   1.252   2.241  0.2468  0.0218 -0.1141
  742SOL    HW1 2966   1.622   1.206   2.241 -0.9163 -0.9911 -0.3881
  742SOL    HW2 2967   1.723   1.247   2.334 -0.0134  1.1462 -1.1342
  742SOL     MW 2968   1.698   1.245   2.253  0.0590  0.0365 -0.2848
  743SOL     OW 2969   2.504   1.254   2.702  0.3480 -0.1554 -0.5548
  743SOL    HW1 2970   2.413   1.229   2.727 -1.9848 -2.7688 -2.7979
  743SOL    HW2 2971   2.539   1.176   2.750 -0.3447  0.4516  1.9550
  743SOL     MW 2972   2.497   1.241   2.712 -0.0512 -0.4201 -0.5196
  744SOL     OW 2973   2.800   0.949   1.855  0.1001  0.1465  0.2200
  744SOL    HW1 2974   2.713   0.992   1.869 -2.3164  0.1969  0.2781
  744SOL    HW2 2975   2.769   0.901   1.779 -0.5546  1.6085 -0.0518
  744SOL     MW 2976   2.784   0.948   1.847 -0.3051  0.3460  0.1918
  745SOL     OW 2977   1.719   0.458   2.481 -0.7393  0.0994 -0.1258
  745SOL    HW1 2978   1.712   0.498   2.393 -0.6589 -0.9480 -0.4271
  745SOL    HW2 2979   1.641   0.402   2.505  0.2974  1.5286  3.0257
  745SOL     MW 2980   1.708   0.456   2.473 -0.5919  0.1498  0.2503
  746SOL     OW 2981   1.581   1.450   1.668 -0.3286 -0.3396  0.0840
  746SOL    HW1 2982   1.670   1.425   1.667 -3.1914  0.0522 -0.0695
  746SOL    HW2 2983   1.553   1.427   1.761  0.0433 -0.9171  1.0729
  746SOL     MW 2984   1.589   1.444   1.680 -0.6572 -0.3641  0.1942
  747SOL     OW 2985   2.587   1.119   1.811  0.0356  0.1954  0.3250
  747SOL    HW1 2986   2.510   1.079   1.771  1.3409 -2.2787  2.5041
  747SOL    HW2 2987   2.558   1.195   1.863 -1.0212  1.6315 -0.1398
  747SOL     MW 2988   2.573   1.124   1.812  0.0684  0.0585  0.5512
  748SOL     OW 2989   0.088   0.010   1.919 -0.1631  0.1398 -0.0810
  748SOL    HW1 2990   0.162   0.047   1.873  1.2350  2.8453 -2.6283
  748SOL    HW2 2991   0.066   0.072   1.995 -0.8072 -0.0809  3.3774
  748SOL     MW 2992   0.095   0.023   1.923 -0.0636  0.4677  0.0392
  749SOL     OW 2993   2.484   0.593   2.734  0.0902  0.4784  0.0578
  749SOL    HW1 2994   2.478   0.659   2.663 -1.4193  0.7609 -2.3842
  749SOL    HW2 2995   2.482   0.655   2.805 -1.9492 -2.8243  1.0849
  749SOL     MW 2996   2.483   0.610   2.734 -0.3780  0.0799 -0.1289
  750SOL     OW 2997   2.047   3.078   1.974  0.0972  0.4255  0.3603
  750SOL    HW1 2998   2.095   3.158   1.971 -0.1047 -0.6051  2.5981
  750SOL    HW2 2999   2.121   3.018   1.975 -0.1790  1.9764 -1.1163
  750SOL     MW 3000   2.063   3.081   1.974  0.0341  0.4942  0.4607
  751SOL     OW 3001   0.102   0.414   2.394  0.5478 -0.0441  0.6240
  751SOL    HW1 3002   0.076   0.336   2.438  0.3289  1.7782  0.1567
  751SOL    HW2 3003   0.189   0.397   2.355 -0.8777  1.4595  2.2456
  751SOL     MW 3004   0.110   0.401   2.395  0.3309  0.3947  0.7763
  752SOL     OW 3005   2.126   0.744   2.725 -0.2963 -0.3126  0.6280
  752SOL    HW1 3006   2.165   0.820   2.677 -1.9308  0.6920 -2.4010
  752SOL    HW2 3007   2.122   0.774   2.816 -1.6754  0.0396  0.4534
  752SOL     MW 3008   2.131   0.758   2.731 -0.6939 -0.1336  0.2053
  753SOL     OW 3009   2.894   0.233   2.439 -0.2082  0.2243 -0.2623
  753SOL    HW1 3010   2.834   0.175   2.389  0.3118 -0.5406 -2.1734
  753SOL    HW2 3011   2.882   0.325   2.435  1.2121 -0.8945  0.9340
  753SOL     MW 3012   2.885   0.238   2.432  0.0478 -0.0243 -0.3566
  754SOL     OW 3013   2.236   2.975   2.590  0.1955  0.2949  0.2399
  754SOL    HW1 3014   2.245   2.943   2.502  1.7863  1.0745 -0.3430
  754SOL    HW2 3015   2.291   2.905   2.632 -1.4411  0.0800 -1.7207
  754SOL     MW 3016   2.244   2.962   2.583  0.1895  0.3694 -0.0957
  755SOL     OW 3017   2.699   1.522   2.463 -0.6939  0.1094 -0.2815
  755SOL    HW1 3018   2.720   1.424   2.470 -0.6960  0.3965 -0.2468
  755SOL    HW2 3019   2.747   1.570   2.534 -2.2397  0.0335  0.6001
  755SOL     MW 3020   2.708   1.516   2.473 -0.8981  0.1372 -0.1606
  756SOL     OW 3021   2.181   1.177   2.993 -0.3673  0.2412  0.4450
  756SOL    HW1 3022   2.250   1.250   3.002  1.6473 -0.5884  1.3953
  756SOL    HW2 3023   2.238   1.107   3.021 -0.2115  1.6811  0.1949
  756SOL     MW 3024   2.198   1.178   2.998 -0.0809  0.3217  0.5374
  757SOL     OW 3025   2.098   0.912   1.627 -0.2681  0.0224 -0.1475
  757SOL    HW1 3026   2.138   0.823   1.620  1.3301 -0.2863  1.0065
  757SOL    HW2 3027   2.019   0.908   1.566 -0.3109 -0.6794  0.4164
  757SOL     MW 3028   2.093   0.899   1.618 -0.0629 -0.1110  0.0792
  758SOL     OW 3029   2.240   1.802   2.606  0.1051  0.7945 -0.3043
  758SOL    HW1 3030   2.223   1.818   2.519  0.4492 -0.1603  0.5913
  758SOL    HW2 3031   2.324   1.753   2.629  3.0134 -0.8368  0.9000
  758SOL     MW 3032   2.249   1.798   2.598  0.5342  0.4533 -0.0272
  759SOL     OW 3033   1.551   1.363   2.668  0.3047 -0.3131  0.2102
  759SOL    HW1 3034   1.545   1.442   2.614 -1.0009  0.9340  2.1100
  759SOL    HW2 3035   1.607   1.388   2.746 -1.2277  0.5193  1.7640
  759SOL     MW 3036   1.558   1.377   2.671 -0.0698 -0.0387  0.6658
  760SOL     OW 3037   2.581   1.988   2.705 -0.0517 -0.3566  0.1686
  760SOL    HW1 3038   2.538   1.901   2.693 -0.4370  0.6042 -2.4944
  760SOL    HW2 3039   2.562   2.026   2.627  0.3719 -1.5115  1.8837
  760SOL     MW 3040   2.573   1.981   2.693 -0.0467 -0.3822  0.0435
  761SOL     OW 3041   2.190   0.332   2.433 -0.4770 -0.4881  0.2191
  761SOL    HW1 3042   2.113   0.276   2.414  0.1885  0.3427  2.0654
  761SOL    HW2 3043   2.203   0.345   2.527  0.4852 -0.0315 -1.5918
  761SOL     MW 3044   2.182   0.327   2.443 -0.2622 -0.3183  0.2238
  762SOL     OW 3045   0.020   0.195   2.114 -0.7127  0.0969 -0.3837
  762SOL    HW1 3046  -0.022   0.145   2.181 -1.5476 -0.5809  2.0033
  762SOL    HW2 3047  -0.008   0.283   2.115  1.3353 -2.0746 -1.0120
  762SOL     MW 3048   0.010   0.200   2.123 -0.5527 -0.2791 -0.1516
  763SOL     OW 3049   2.346   1.008   2.342 -0.0254 -0.5757 -0.5365
  763SOL    HW1 3050   2.378   1.001   2.247  3.2293 -0.0504  0.8316
  763SOL    HW2 3051   2.398   1.084   2.387 -1.9913  0.1951  1.0805
  763SOL     MW 3052   2.357   1.017   2.335  0.1446 -0.4047 -0.1426
  764SOL     OW 3053   0.491   0.225   2.796  0.5487  0.0948 -0.3611
  764SOL    HW1 3054   0.407   0.180   2.782 -3.7156  1.3654  0.1494
  764SOL    HW2 3055   0.473   0.318   2.782 -1.0172 -2.5185  0.0875
  764SOL     MW 3056   0.478   0.232   2.792 -0.2205 -0.0823 -0.2345
  765SOL     OW 3057   2.749   3.093   2.352 -0.4728 -0.4113 -0.1587
  765SOL    HW1 3058   2.690   3.089   2.270 -0.5031  0.9803  1.1449
  765SOL    HW2 3059   2.788   3.001   2.351  2.0218 -0.0705  0.6627
  765SOL     MW 3060   2.746   3.080   2.341 -0.1476 -0.1827  0.1217
  766SOL     OW 3061   1.864   2.968   2.156  0.1585  0.0240  0.0141
  766SOL    HW1 3062   1.910   3.016   2.095 -2.8695 -0.0410 -0.6123
  766SOL    HW2 3063   1.808   2.903   2.110  1.3254 -1.1540  0.2460
  766SOL     MW 3064   1.863   2.966   2.142 -0.0870 -0.1400 -0.0379
  767SOL     OW 3065   2.661   0.561   2.016 -0.0152 -0.0755  0.3710
  767SOL    HW1 3066   2.683   0.634   2.075 -0.6672  1.6895 -0.5475
  767SOL    HW2 3067   2.566   0.577   2.012 -0.1910 -0.2834  1.3357
  767SOL     MW 3068   2.651   0.573   2.023 -0.1244  0.1299  0.3771
  768SOL     OW 3069   3.081   1.594   2.975  0.2404  0.4154 -0.0008
  768SOL    HW1 3070   3.108   1.567   3.071  0.5623  2.9006  2.7958
  768SOL    HW2 3071   3.111   1.521   2.930  0.1236  5.0413  1.4702
  768SOL     MW 3072   3.088   1.581   2.982  0.2675  1.3537  0.5623
  769SOL     OW 3073   2.430   0.696   2.318 -0.0410  0.2830 -0.2292
  769SOL    HW1 3074   2.338   0.686   2.292  0.3709  0.7353 -0.1488
  769SOL    HW2 3075   2.472   0.616   2.282  2.2611  2.0449  1.0628
  769SOL     MW 3076   2.424   0.684   2.310  0.3171  0.5751 -0.0482
  770SOL     OW 3077   0.057   1.583   2.608 -0.4802 -0.3721  0.3708
  770SOL    HW1 3078  -0.043   1.594   2.619  1.0651 -0.8583  0.1804
  770SOL    HW2 3079   0.084   1.531   2.680  1.1298  0.2924 -2.6415
  770SOL     MW 3080   0.047   1.577   2.619 -0.0639 -0.3486 -0.0518
  771SOL     OW 3081   3.069   0.659   2.012  0.4923 -0.2814 -0.0880
  771SOL    HW1 3082   3.004   0.669   1.944 -0.1983 -0.0051 -0.3708
  771SOL    HW2 3083   3.143   0.631   1.955 -0.5797 -0.4167  3.3149
  771SOL     MW 3084   3.070   0.657   1.996  0.2597 -0.2628  0.3236
  772SOL     OW 3085   3.093   3.098   2.323  0.1176 -0.1394 -0.1650
  772SOL    HW1 3086   3.014   3.043   2.327  2.4687 -2.6671  0.6159
  772SOL    HW2 3087   3.169   3.041   2.295  0.8237 -2.2496 -1.6724
  772SOL     MW 3088   3.093   3.083   2.320  0.5210 -0.7513 -0.2608
  773SOL     OW 3089   2.425   2.848   2.756 -0.6280  0.2819  0.4272
  773SOL    HW1 3090   2.441   2.763   2.716  0.1320  1.0666 -3.9619
  773SOL    HW2 3091   2.412   2.844   2.852  0.4648 -0.6165 -1.3044
  773SOL     MW 3092   2.426   2.837   2.764 -0.3836  0.2669 -0.3803
  774SOL     OW 3093   2.298   1.077   1.735  0.2468  0.4318 -0.3652
  774SOL    HW1 3094   2.322   1.157   1.683  0.0085  2.1718  0.3484
  774SOL    HW2 3095   2.237   1.017   1.679  1.2724 -0.1427 -1.1205
  774SOL     MW 3096   2.294   1.079   1.721  0.3507  0.5856 -0.3707
  775SOL     OW 3097   2.282   2.873   2.303  0.1095  0.1381 -0.0934
  775SOL    HW1 3098   2.301   2.967   2.274 -1.2838  0.0692 -2.5956
  775SOL    HW2 3099   2.358   2.812   2.279  1.4543  1.0683 -0.9124
  775SOL     MW 3100   2.295   2.878   2.296  0.1031  0.2517 -0.5316
  776SOL     OW 3101   0.098   1.482   0.094 -0.3410  0.2717 -0.1092
  776SOL    HW1 3102   0.192   1.443   0.095 -3.3163 -1.0548  1.2998
  776SOL    HW2 3103   0.036   1.408   0.121 -1.9474  0.6183  2.0052
  776SOL     MW 3104   0.102   1.467   0.098 -0.9455  0.1424  0.3557
  777SOL     OW 3105   2.932   1.161   1.749 -0.2659 -0.0907 -0.5307
  777SOL    HW1 3106   2.865   1.185   1.684  0.7053 -1.6762 -0.5130
  777SOL    HW2 3107   2.888   1.104   1.812  1.1567  2.5715  0.0389
  777SOL     MW 3108   2.917   1.157   1.749  0.0499  0.0514 -0.4532
  778SOL     OW 3109   2.897   0.476   2.817  0.3483  0.2992 -0.0846
  778SOL    HW1 3110   2.846   0.492   2.898 -0.1889  1.0470  0.4006
  778SOL    HW2 3111   2.889   0.554   2.760 -1.8786 -0.4846  1.8629
  778SOL     MW 3112   2.889   0.488   2.820 -0.0164  0.2944  0.2363
  779SOL     OW 3113   2.153   0.613   2.358 -0.1650 -0.4276  0.2295
  779SOL    HW1 3114   2.089   0.658   2.417 -4.6337  1.9335  0.7407
  779SOL    HW2 3115   2.175   0.523   2.386 -0.2216  1.3512 -2.5862
  779SOL     MW 3116   2.147   0.607   2.369 -0.7621  0.1186 -0.0746
  780SOL     OW 3117   0.245   0.099   2.783  0.3531  0.6011  0.4542
  780SOL    HW1 3118   0.192   0.151   2.847  4.1499 -0.7014  1.3774
  780SOL    HW2 3119   0.209   0.127   2.698 -0.3835  0.2111  0.2698
  780SOL     MW 3120   0.233   0.110   2.780  0.7569  0.3778  0.5517
  781SOL     OW 3121   3.073   1.282   2.506 -0.0052  0.2029  0.2969
  781SOL    HW1 3122   3.059   1.341   2.431 -1.8295  0.1055  0.1379
  781SOL    HW2 3123   3.093   1.195   2.470 -1.9878 -1.4997 -1.1664
  781SOL     MW 3124   3.074   1.279   2.491 -0.5075 -0.0346  0.0828
  782SOL     OW 3125   0.513   1.576   2.992 -0.3623  1.3934  0.0330
  782SOL    HW1 3126   0.454   1.654   3.004  1.0910  0.8415 -1.4754
  782SOL    HW2 3127   0.520   1.530   3.081 -2.7039 -0.9369  2.7601
  782SOL     MW 3128   0.506   1.580   3.005 -0.4795  1.0131  0.1938
  783SOL     OW 3129   2.808   0.479   2.461  0.0911  0.1122 -0.4157
  783SOL    HW1 3130   2.767   0.481   2.373  0.8528 -1.0384  1.6454
  783SOL    HW2 3131   2.741   0.450   2.526  1.5285 -1.3823 -2.2977
  783SOL     MW 3132   2.794   0.475   2.458  0.3813 -0.2368 -0.3921
  784SOL     OW 3133   0.233   0.896   2.900  0.0785 -0.3797 -0.3609
  784SOL    HW1 3134   0.218   0.979   2.962  1.6427  1.3586  1.4074
  784SOL    HW2 3135   0.228   0.935   2.812  0.8913  0.7409  1.6840
  784SOL     MW 3136   0.231   0.912   2.897  0.3921 -0.0025  0.1422
  785SOL     OW 3137   0.453   0.515   2.157 -0.1759 -0.0748 -0.4384
  785SOL    HW1 3138   0.448   0.564   2.073  0.2521 -2.1853  0.1667
  785SOL    HW2 3139   0.369   0.469   2.162  1.7292 -0.3672 -0.3767
  785SOL     MW 3140   0.441   0.516   2.147  0.1319 -0.3918 -0.3504
  786SOL     OW 3141   1.999   0.483   2.848  0.5520  0.0797  0.4783
  786SOL    HW1 3142   2.000   0.494   2.944  0.5471 -0.8140 -1.7670
  786SOL    HW2 3143   2.092   0.471   2.834 -2.2896  0.9922  0.3447
  786SOL     MW 3144   2.012   0.483   2.859  0.1764  0.0822  0.1645
  787SOL     OW 3145   2.441   0.111   2.902 -0.4540  0.1126 -0.3088
  787SOL    HW1 3146   2.494   0.054   2.841 -0.6157 -1.0596  0.8757
  787SOL    HW2 3147   2.505   0.179   2.941  0.9100 -0.8345 -0.0927
  787SOL     MW 3148   2.456   0.112   2.899 -0.2953 -0.1670 -0.1240
  788SOL     OW 3149   2.914   2.864   2.330  0.7133  0.0188 -0.5079
  788SOL    HW1 3150   2.918   2.794   2.269 -0.1790  2.7889 -1.4121
  788SOL    HW2 3151   3.001   2.850   2.383  2.4347  1.2282  0.8548
  788SOL     MW 3152   2.926   2.853   2.329  0.8227  0.5439 -0.4474
  789SOL     OW 3153   0.079   0.232   2.959 -0.1239 -0.2667  0.4895
  789SOL    HW1 3154  -0.015   0.209   2.953 -2.8884 -0.6754  0.3269
  789SOL    HW2 3155   0.066   0.326   2.975  0.3779  1.0513 -0.2783
  789SOL     MW 3156   0.065   0.241   2.960 -0.4225 -0.1467  0.3668
  790SOL     OW 3157   0.018   1.015   2.454  0.3536 -0.4769  0.3147
  790SOL    HW1 3158  -0.055   0.996   2.518 -0.0483 -0.7299  1.7512
  790SOL    HW2 3159  -0.044   1.024   2.376 -1.9496  0.7794 -1.4530
  790SOL     MW 3160   0.001   1.013   2.452 -0.0033 -0.3445  0.2710
  791SOL     OW 3161   2.658   0.400   2.692  0.4053  0.1052  0.2638
  791SOL    HW1 3162   2.589   0.474   2.707 -0.9602 -0.6870  0.7512
  791SOL    HW2 3163   2.728   0.414   2.756 -0.7573 -0.8101 -0.8120
  791SOL     MW 3164   2.658   0.412   2.702  0.0718 -0.1201  0.1862
  792SOL     OW 3165   2.419   0.254   2.355 -0.1889  0.0248 -0.2228
  792SOL    HW1 3166   2.338   0.302   2.383 -2.3191  0.5044 -1.1371
  792SOL    HW2 3167   2.471   0.215   2.433  1.5678  1.2018  1.8188
  792SOL     MW 3168   2.416   0.256   2.369 -0.2382  0.2434 -0.0741
  793SOL     OW 3169   1.783   1.008   1.908 -0.4570 -0.2913  0.0344
  793SOL    HW1 3170   1.783   1.025   1.818 -1.0836  1.7097  1.0812
  793SOL    HW2 3171   1.876   0.972   1.921  1.3763 -1.8829  0.6766
  793SOL     MW 3172   1.795   1.005   1.898 -0.2978 -0.2373  0.2573
  794SOL     OW 3173   1.424   2.245   0.095 -0.4823 -0.3740 -0.4625
  794SOL    HW1 3174   1.438   2.323   0.035 -0.2545  1.1728  0.9250
  794SOL    HW2 3175   1.465   2.274   0.176  0.5540  1.3367  0.0089
  794SOL     MW 3176   1.431   2.259   0.098 -0.3155  0.0558 -0.2173
  795SOL     OW 3177   2.235   0.950   2.581 -0.3703 -0.1010 -0.7829
  795SOL    HW1 3178   2.245   1.033   2.625  1.6941 -0.5099  0.6757
  795SOL    HW2 3179   2.260   0.958   2.488 -1.7532  1.4119  0.6640
  795SOL     MW 3180   2.240   0.962   2.574 -0.2804  0.0447 -0.3995
  796SOL     OW 3181   0.328   0.702   2.752  0.2650  0.0582 -0.4670
  796SOL    HW1 3182   0.306   0.765   2.823  1.4829  0.7446  0.1616
  796SOL    HW2 3183   0.239   0.668   2.736  2.1437  0.9462  2.1930
  796SOL     MW 3184   0.314   0.706   2.759  0.6736  0.2659 -0.0331
  797SOL     OW 3185   2.606   0.135   2.549 -0.0714 -0.1663 -0.0106
  797SOL    HW1 3186   2.656   0.211   2.568 -1.2945 -5.1241  1.6290
  797SOL    HW2 3187   2.665   0.080   2.495  1.1754 -1.4205  2.7734
  797SOL     MW 3188   2.621   0.137   2.545 -0.0683 -0.9859  0.5731
  798SOL     OW 3189   2.342   0.026   2.209 -0.1267  0.4407  0.2900
  798SOL    HW1 3190   2.356   0.101   2.267 -1.9962 -3.3597 -2.2798
  798SOL    HW2 3191   2.433   0.003   2.178  0.0234  1.7461 -1.0085
  798SOL     MW 3192   2.356   0.033   2.213 -0.3535  0.1115 -0.2204
  799SOL     OW 3193   2.448   2.939   0.196 -0.1003 -0.2710 -0.0617
  799SOL    HW1 3194   2.432   2.864   0.138  1.6123 -0.7251  2.6873
  799SOL    HW2 3195   2.426   3.018   0.151  2.2965 -0.6855 -1.2591
  799SOL     MW 3196   2.443   2.940   0.182  0.4419 -0.3856  0.1430
  800SOL     OW 3197   1.861   3.065   1.775  0.1648 -0.1783 -0.3327
  800SOL    HW1 3198   1.809   2.985   1.790 -0.7751  2.7379  3.2376
  800SOL    HW2 3199   1.922   3.064   1.849 -1.6695 -0.4466  1.0123
  800SOL     MW 3200   1.862   3.054   1.787 -0.2013  0.1711  0.3158
  801SOL     OW 3201   2.807   1.307   2.625  0.4471  0.6345  0.0219
  801SOL    HW1 3202   2.766   1.217   2.602 -1.5226 -0.1325 -0.5169
  801SOL    HW2 3203   2.897   1.298   2.591 -0.0842  0.8868  1.9141
  801SOL     MW 3204   2.813   1.294   2.617  0.1171  0.5666  0.2005
  802SOL     OW 3205   2.546   1.503   2.829 -0.0903  0.1104  0.2401
  802SOL    HW1 3206   2.559   1.418   2.781  2.6000 -0.5959 -0.5650
  802SOL    HW2 3207   2.637   1.539   2.835  4.8947  0.7779  0.4401
  802SOL     MW 3208   2.560   1.496   2.823  0.9224  0.1053  0.1603
  803SOL     OW 3209   2.309   1.262   1.962  0.2467 -0.1446  0.0763
  803SOL    HW1 3210   2.280   1.237   2.053  0.6779  0.0249  0.1182
  803SOL    HW2 3211   2.270   1.200   1.905  0.4450 -1.2446 -0.2653
  803SOL     MW 3212   2.300   1.251   1.966  0.3297 -0.2674  0.0367
  804SOL     OW 3213   2.301   0.077   0.031 -0.0182  0.0823 -0.2864
  804SOL    HW1 3214   2.225   0.130   0.031  0.5484  0.6977 -1.8384
  804SOL    HW2 3215   2.349   0.084  -0.051  0.1498  0.4277 -0.3769
  804SOL     MW 3216   2.297   0.085   0.020  0.0787  0.2091 -0.5031
  805SOL     OW 3217   2.723   1.050   2.594 -0.0386 -0.3053 -0.5305
  805SOL    HW1 3218   2.655   0.997   2.626  0.0429  1.3702  0.5592
  805SOL    HW2 3219   2.808   1.011   2.625 -2.4243 -1.2958  0.6016
  805SOL     MW 3220   2.725   1.038   2.603 -0.3427 -0.2149 -0.2373
  806SOL     OW 3221   2.627   0.411   2.274  0.0775 -0.3830 -0.0630
  806SOL    HW1 3222   2.539   0.372   2.301  0.4589  1.1252  1.6428
  806SOL    HW2 3223   2.643   0.387   2.180  0.8334  1.7543 -2.2520
  806SOL     MW 3224   2.617   0.403   2.265  0.2276  0.0980 -0.1267
  807SOL     OW 3225   3.076   1.107   2.107  0.3447  0.3535 -0.7005
  807SOL    HW1 3226   3.131   1.030   2.089 -0.0530 -1.8434 -0.4374
  807SOL    HW2 3227   2.998   1.066   2.147  0.8268 -2.5304  0.5530
  807SOL     MW 3228   3.073   1.092   2.110  0.3558 -0.3169 -0.5004
  808SOL     OW 3229   2.621   3.033   2.775 -0.0558 -0.1813 -0.1490
  808SOL    HW1 3230   2.558   2.964   2.762 -0.1846  0.3105 -0.8464
  808SOL    HW2 3231   2.633   3.071   2.687 -0.0328 -1.4610  2.5888
  808SOL     MW 3232   2.614   3.029   2.762 -0.0698 -0.2852  0.1202
  809SOL     OW 3233   2.502   1.223   2.399 -0.3908  0.1027  0.2015
  809SOL    HW1 3234   2.498   1.251   2.498 -2.5360  1.1514  1.5198
  809SOL    HW2 3235   2.593   1.214   2.370 -0.9445  2.3862  0.5926
  809SOL     MW 3236   2.513   1.226   2.408 -0.7469  0.5423  0.4270
  810SOL     OW 3237   2.207   1.190   2.182 -0.2415  0.0978 -0.3263
  810SOL    HW1 3238   2.235   1.138   2.259  1.5718  0.3977  1.2196
  810SOL    HW2 3239   2.127   1.150   2.151  0.9005  2.8302 -2.0258
  810SOL     MW 3240   2.200   1.178   2.188  0.1484  0.4979 -0.3466
  811SOL     OW 3241   1.525   0.114   2.288 -0.3422 -0.0306  0.2962
  811SOL    HW1 3242   1.587   0.036   2.309 -1.4731  0.6213  0.0855
  811SOL    HW2 3243   1.538   0.113   2.188 -0.3641  0.0901 -3.1770
  811SOL     MW 3244   1.535   0.104   2.278 -0.4943  0.0713 -0.1899
  812SOL     OW 3245   1.410   2.784   2.057 -0.2551 -0.0704  0.4326
  812SOL    HW1 3246   1.501   2.793   2.036 -0.7037 -2.3008  0.6497
  812SOL    HW2 3247   1.420   2.764   2.151 -2.6720  1.5534  1.7041
  812SOL     MW 3248   1.423   2.782   2.066 -0.6332 -0.1504  0.6290
  813SOL     OW 3249   1.842   0.745   2.178 -0.0413  0.3216  0.0768
  813SOL    HW1 3250   1.799   0.660   2.189  0.0782  2.2935 -0.0756
  813SOL    HW2 3251   1.879   0.760   2.267  2.9570  2.1278 -1.1275
  813SOL     MW 3252   1.841   0.736   2.191  0.3701  0.8201 -0.1022
  814SOL     OW 3253   2.738   1.267   1.588  0.2138  0.3888  0.0299
  814SOL    HW1 3254   2.657   1.253   1.642  0.3618  1.2490  4.1646
  814SOL    HW2 3255   2.743   1.200   1.521 -3.2788 -0.1071  1.4444
  814SOL     MW 3256   2.728   1.257   1.586 -0.2275  0.4369  0.7620
  815SOL     OW 3257   2.494   1.671   2.388  0.0565  0.3423 -0.5425
  815SOL    HW1 3258   2.425   1.606   2.360 -0.2532 -2.9936 -0.5620
  815SOL    HW2 3259   2.568   1.612   2.417 -1.8300  1.0312  2.8120
  815SOL     MW 3260   2.494   1.655   2.388 -0.2332 -0.0070 -0.1025
  816SOL     OW 3261   0.683   0.628   2.751 -0.7297 -0.1310  0.2616
  816SOL    HW1 3262   0.729   0.566   2.808  0.4119 -1.3582  0.9166
  816SOL    HW2 3263   0.623   0.588   2.684 -0.6744 -2.7224 -1.7853
  816SOL     MW 3264   0.681   0.615   2.750 -0.5718 -0.6348  0.0780
  817SOL     OW 3265   3.008   1.142   1.425 -0.2086  0.6899  0.1498
  817SOL    HW1 3266   3.070   1.166   1.497  1.1617 -1.7747 -2.5625
  817SOL    HW2 3267   2.980   1.227   1.380 -0.9735 -2.6190 -0.7717
  817SOL     MW 3268   3.013   1.157   1.428 -0.1287 -0.0718 -0.3296
  818SOL     OW 3269   1.917   1.012   2.740  0.1217 -0.3065  0.1513
  818SOL    HW1 3270   1.974   1.056   2.677  0.8023  0.2393  2.3970
  818SOL    HW2 3271   1.959   0.932   2.755 -0.8317 -0.8903 -2.5775
  818SOL     MW 3272   1.930   1.007   2.734  0.0857 -0.3115  0.0876
  819SOL     OW 3273   1.846   0.234   2.407 -0.4697  0.4977 -0.6607
  819SOL    HW1 3274   1.806   0.318   2.415 -1.3112 -0.0008 -2.5740
  819SOL    HW2 3275   1.890   0.215   2.495  0.5317 -0.8318  2.0336
  819SOL     MW 3276   1.846   0.242   2.419 -0.4486  0.2565 -0.5577
  820SOL     OW 3277   2.502   1.729   2.665  0.1062  0.0696 -0.1786
  820SOL    HW1 3278   2.503   1.654   2.726  1.1268 -2.8451 -1.0554
  820SOL    HW2 3279   2.500   1.691   2.584 -2.4974  0.0633  0.7901
  820SOL     MW 3280   2.502   1.714   2.663 -0.1026 -0.3158 -0.1665
  821SOL     OW 3281   2.591   1.364   1.998  0.0959  0.0091  0.2233
  821SOL    HW1 3282   2.630   1.441   1.962 -1.6585 -0.0794  1.7086
  821SOL    HW2 3283   2.498   1.377   2.007  0.9415 -0.0474 -0.3186
  821SOL     MW 3284   2.584   1.376   1.994 -0.0240 -0.0100  0.3478
  822SOL     OW 3285   2.856   2.674   1.425 -0.0170 -0.6809 -0.6777
  822SOL    HW1 3286   2.901   2.747   1.462  1.1369  0.1185  2.5583
  822SOL    HW2 3287   2.782   2.704   1.378 -0.1054  0.8321  0.9232
  822SOL     MW 3288   2.852   2.688   1.424  0.1236 -0.3758 -0.0395
  823SOL     OW 3289   2.288   0.475   1.792 -0.5056 -0.3486 -0.3748
  823SOL    HW1 3290   2.364   0.446   1.741  1.7588 -1.8999  1.4356
  823SOL    HW2 3291   2.235   0.401   1.779  3.1064 -0.0668  0.3392
  823SOL     MW 3292   2.291   0.461   1.784  0.2697 -0.5161 -0.0417
  824SOL     OW 3293   2.099   1.342   2.513  0.6659 -0.8395  0.3943
  824SOL    HW1 3294   2.168   1.375   2.448 -3.2177 -0.4297  0.8711
  824SOL    HW2 3295   2.064   1.425   2.535  0.4347 -2.5251  0.2416
  824SOL     MW 3296   2.104   1.357   2.507  0.1230 -1.0078  0.4370
  825SOL     OW 3297   2.153   2.488   0.405 -0.1290  0.0978  0.5194
  825SOL    HW1 3298   2.235   2.488   0.359  3.5707 -3.6631  1.1098
  825SOL    HW2 3299   2.181   2.442   0.489  1.4956 -3.5215 -0.8083
  825SOL     MW 3300   2.168   2.482   0.410  0.5735 -0.8760  0.4222
  826SOL     OW 3301   1.782   2.373   0.450 -0.4268 -0.3442 -0.5544
  826SOL    HW1 3302   1.781   2.319   0.526  1.1040  2.2337  0.4487
  826SOL    HW2 3303   1.815   2.452   0.488  2.8228  0.9533 -1.7573
  826SOL     MW 3304   1.786   2.376   0.465  0.2040  0.1672 -0.5807
  827SOL     OW 3305   1.936   2.248   0.893  0.4682  0.4147  0.0990
  827SOL    HW1 3306   1.872   2.227   0.824  0.8101  1.3658  0.9350
  827SOL    HW2 3307   1.924   2.178   0.955 -0.0437 -3.4321 -3.8983
  827SOL     MW 3308   1.926   2.236   0.892  0.4457  0.0326 -0.3181
  828SOL     OW 3309   0.070   2.643   0.565 -0.3498  0.1880  0.6425
  828SOL    HW1 3310   0.163   2.656   0.591  0.2035 -1.1171  0.6216
  828SOL    HW2 3311   0.065   2.688   0.482  1.8532 -1.1452 -0.4214
  828SOL     MW 3312   0.081   2.651   0.558  0.0139 -0.1601  0.4994
  829SOL     OW 3313   3.018   2.896   1.184  0.0041  0.0356 -0.3236
  829SOL    HW1 3314   2.947   2.886   1.129  1.8918 -0.8534  2.0005
  829SOL    HW2 3315   3.072   2.822   1.172 -0.6543  2.8447  0.4057
  829SOL     MW 3316   3.016   2.885   1.175  0.1663  0.2890  0.0793
  830SOL     OW 3317   2.551   2.801   2.035  0.1923 -0.4357  0.2137
  830SOL    HW1 3318   2.463   2.833   2.013 -3.2927  0.9651  0.2865
  830SOL    HW2 3319   2.585   2.802   1.948  0.3948  0.9877 -0.1574
  830SOL     MW 3320   2.544   2.806   2.021 -0.2408 -0.0631  0.1744
  831SOL     OW 3321   2.495   2.444   1.191  0.4582 -0.1736 -0.5100
  831SOL    HW1 3322   2.455   2.389   1.254 -2.1230  0.4969  1.6811
  831SOL    HW2 3323   2.592   2.426   1.189  1.1252 -0.6535  0.4220
  831SOL     MW 3324   2.503   2.434   1.199  0.2057 -0.1485 -0.0979
  832SOL     OW 3325   2.439   2.115   1.799 -0.0608 -0.0890  0.4977
  832SOL    HW1 3326   2.461   2.203   1.846  0.9322  0.2595 -0.9769
  832SOL    HW2 3327   2.521   2.095   1.754 -0.2652  1.8350  0.0706
  832SOL     MW 3328   2.453   2.124   1.799  0.0433  0.2108  0.2468
  833SOL     OW 3329   1.728   2.590   0.913 -0.6958  0.1932 -0.3392
  833SOL    HW1 3330   1.684   2.503   0.943  2.2221  3.6050 -3.7779
  833SOL    HW2 3331   1.681   2.660   0.955  0.2518  0.4314 -2.5380
  833SOL     MW 3332   1.716   2.587   0.923 -0.1857  0.6748 -1.0830
  834SOL     OW 3333   2.289   2.347   0.643 -0.0475  0.3790  0.1253
  834SOL    HW1 3334   2.238   2.265   0.656 -1.5741  0.5844  4.1074
  834SOL    HW2 3335   2.380   2.310   0.626 -1.1010  0.1555 -0.6463
  834SOL     MW 3336   2.295   2.332   0.642 -0.3880  0.3766  0.5489
  835SOL     OW 3337   1.820   2.570   0.652 -0.6474 -0.0755  0.1548
  835SOL    HW1 3338   1.772   2.599   0.730 -0.8301 -0.8701 -0.8579
  835SOL    HW2 3339   1.883   2.503   0.682 -3.5696 -3.1835  0.0545
  835SOL     MW 3340   1.822   2.565   0.666 -1.0571 -0.5904  0.0079
  836SOL     OW 3341   2.053   2.166   1.655  0.3625 -0.5912  0.1970
  836SOL    HW1 3342   2.132   2.114   1.622 -0.2136  0.0047 -0.3518
  836SOL    HW2 3343   2.092   2.247   1.688 -2.2067  0.2073  1.4073
  836SOL     MW 3344   2.069   2.170   1.655 -0.0525 -0.4072  0.2843
  837SOL     OW 3345   2.092   0.183   0.679  0.5187 -0.3455 -0.1253
  837SOL    HW1 3346   2.016   0.208   0.626  3.3655 -3.5487  0.9338
  837SOL    HW2 3347   2.140   0.130   0.616 -1.2874  2.2615 -0.7059
  837SOL     MW 3348   2.089   0.180   0.663  0.6560 -0.4242 -0.0622
  838SOL     OW 3349   2.868   2.102   0.951  0.2089 -0.0764 -0.5486
  838SOL    HW1 3350   2.802   2.039   0.970  0.2511  0.1638 -0.8138
  838SOL    HW2 3351   2.925   2.079   1.022 -1.2335  2.2997  1.8012
  838SOL     MW 3352   2.867   2.091   0.963  0.0242  0.2688 -0.2735
  839SOL     OW 3353   1.547   2.384   0.985  0.2471 -0.3462  0.5308
  839SOL    HW1 3354   1.507   2.469   1.033 -0.2612 -2.6371  1.4658
  839SOL    HW2 3355   1.572   2.325   1.049 -0.5444 -0.8885 -4.5123
  839SOL     MW 3356   1.545   2.388   0.999  0.0756 -0.7200 -0.0112
  840SOL     OW 3357   2.347   2.104   2.432  0.4572 -0.4962 -0.2138
  840SOL    HW1 3358   2.290   2.169   2.380 -0.0633  0.7221 -0.6737
  840SOL    HW2 3359   2.416   2.160   2.473  3.0305 -1.4771  0.6794
  840SOL     MW 3360   2.348   2.120   2.431  0.7280 -0.4649 -0.1567
  841SOL     OW 3361   2.295   2.390   0.058  0.6497  0.2075  0.1471
  841SOL    HW1 3362   2.298   2.479   0.013  2.2056  2.9689  0.4669
  841SOL    HW2 3363   2.224   2.341   0.014  2.0000 -0.2665 -0.4715
  841SOL     MW 3364   2.286   2.395   0.046  1.0331  0.5093  0.1077
  842SOL     OW 3365   2.689   1.984   1.410  0.5531 -0.6690 -0.1410
  842SOL    HW1 3366   2.639   1.903   1.422  2.2053 -0.9317 -0.1066
  842SOL    HW2 3367   2.652   2.034   1.329 -0.5457  1.2850 -3.8964
  842SOL     MW 3368   2.678   1.980   1.401  0.6261 -0.4458 -0.6319
  843SOL     OW 3369   2.655   2.772   1.753  0.1857 -0.3128 -0.2104
  843SOL    HW1 3370   2.734   2.717   1.764 -0.9021 -1.8749 -0.1039
  843SOL    HW2 3371   2.579   2.719   1.730  1.5570  1.1263 -0.5532
  843SOL     MW 3372   2.655   2.758   1.752  0.2231 -0.3290 -0.2416
  844SOL     OW 3373   2.744   2.328   1.148 -0.0319  0.4604  0.1320
  844SOL    HW1 3374   2.789   2.364   1.069  0.9581 -0.4103  0.0450
  844SOL    HW2 3375   2.797   2.339   1.221 -1.7345 -1.9020 -1.7599
  844SOL     MW 3376   2.757   2.334   1.147 -0.1259  0.0338 -0.1291
  845SOL     OW 3377   2.847   2.593   0.292 -0.3448 -0.2756 -0.1745
  845SOL    HW1 3378   2.836   2.498   0.310 -1.9536 -2.0705 -0.3339
  845SOL    HW2 3379   2.862   2.632   0.380 -3.1852  1.0730 -1.5835
  845SOL     MW 3380   2.848   2.586   0.306 -0.9318 -0.3345 -0.3814
  846SOL     OW 3381   1.469   2.821   0.819 -0.5016  0.3459 -0.6787
  846SOL    HW1 3382   1.555   2.862   0.830  0.2948  0.9257  1.3508
  846SOL    HW2 3383   1.409   2.898   0.815 -0.3231  1.2795  1.8448
  846SOL     MW 3384   1.472   2.837   0.820 -0.3730  0.5456 -0.0780
  847SOL     OW 3385   2.494   1.893   0.160  0.7236  0.1365 -0.1670
  847SOL    HW1 3386   2.478   1.800   0.200 -0.6841 -2.1007  1.1807
  847SOL    HW2 3387   2.461   1.887   0.068  1.1969 -0.9220  1.2527
  847SOL     MW 3388   2.488   1.880   0.153  0.6003 -0.2984  0.1981
  848SOL     OW 3389   2.580   2.115   1.181  0.2672 -0.2310 -0.1433
  848SOL    HW1 3390   2.636   2.179   1.142 -0.1287  1.5201  0.1597
  848SOL    HW2 3391   2.604   2.037   1.132 -2.0267 -1.3989 -0.2733
  848SOL     MW 3392   2.590   2.113   1.170 -0.0877 -0.1541 -0.1205
  849SOL     OW 3393   2.007   2.824   0.783  0.6068  0.8796 -0.0135
  849SOL    HW1 3394   1.980   2.802   0.877  0.0754  2.2348  1.7982
  849SOL    HW2 3395   2.061   2.758   0.741 -3.2292  0.5202 -0.7511
  849SOL     MW 3396   2.010   2.812   0.790  0.0305  1.0110  0.1282
  850SOL     OW 3397   2.343   1.811   1.632  0.4676  0.5030  0.6028
  850SOL    HW1 3398   2.273   1.759   1.598 -0.0863 -1.4532  0.2007
  850SOL    HW2 3399   2.306   1.900   1.629  1.6784  0.7282 -0.9570
  850SOL     MW 3400   2.329   1.816   1.627  0.5542  0.2746  0.3440
  851SOL     OW 3401   2.380   2.318   0.312  0.4452 -0.9598 -0.3125
  851SOL    HW1 3402   2.365   2.344   0.221 -1.7473  0.2390 -0.2245
  851SOL    HW2 3403   2.441   2.382   0.355  1.5514 -1.6397 -1.4761
  851SOL     MW 3404   2.386   2.330   0.305  0.3019 -0.8913 -0.4544
  852SOL     OW 3405   2.333   2.046   0.336 -0.3955 -0.1206  0.6230
  852SOL    HW1 3406   2.372   2.132   0.326 -1.5426  0.6503 -0.4461
  852SOL    HW2 3407   2.378   1.999   0.264 -0.2943 -0.2520  2.9991
  852SOL     MW 3408   2.344   2.051   0.325 -0.5335 -0.0362  0.7954
  853SOL     OW 3409   2.498   2.355   1.912  0.7708  0.4662 -0.0607
  853SOL    HW1 3410   2.506   2.413   1.840 -0.5792 -1.5703 -0.1114
  853SOL    HW2 3411   2.583   2.357   1.956  1.7990  2.1348  1.6088
  853SOL     MW 3412   2.510   2.363   1.908  0.7283  0.4177  0.1529
  854SOL     OW 3413   2.845   2.218   0.706 -0.2047  0.3180  0.1258
  854SOL    HW1 3414   2.752   2.220   0.677 -0.3406  1.0147 -0.2902
  854SOL    HW2 3415   2.848   2.171   0.792  0.9300  1.6797 -0.6892
  854SOL     MW 3416   2.833   2.212   0.713 -0.0729  0.5896 -0.0367
  855SOL     OW 3417   2.761   2.353   0.419  0.5487  0.0473  0.3942
  855SOL    HW1 3418   2.674   2.373   0.454 -0.8560  0.8406  2.2022
  855SOL    HW2 3419   2.774   2.259   0.428  0.0441 -0.8304  0.7852
  855SOL     MW 3420   2.752   2.343   0.425  0.2968  0.0361  0.6843
  856SOL     OW 3421   2.097   1.883   0.219 -0.0931 -0.0209  0.7089
  856SOL    HW1 3422   2.003   1.871   0.240  0.6400 -0.0607 -3.5054
  856SOL    HW2 3423   2.140   1.941   0.281  0.9146 -1.8351  0.2851
  856SOL     MW 3424   2.091   1.889   0.230  0.1366 -0.2655  0.0970
  857SOL     OW 3425   2.507   1.944   0.524  0.5066  0.1189 -0.4241
  857SOL    HW1 3426   2.429   1.968   0.475  0.5311  0.9326 -1.1831
  857SOL    HW2 3427   2.464   1.934   0.613 -3.0120  1.7584  1.0804
  857SOL     MW 3428   2.491   1.946   0.529  0.0456  0.4426 -0.3258
  858SOL     OW 3429   2.897   2.659   1.791 -0.8706  0.2949 -0.0993
  858SOL    HW1 3430   2.987   2.688   1.807 -0.2542 -2.0907  0.6894
  858SOL    HW2 3431   2.896   2.566   1.808  1.4309  1.2273  0.3272
  858SOL     MW 3432   2.909   2.651   1.795 -0.4856  0.1032  0.0610
  859SOL     OW 3433   1.927   2.744   1.061 -0.6839 -0.0610 -0.0265
  859SOL    HW1 3434   1.909   2.659   1.024 -0.1161  0.8133 -1.6731
  859SOL    HW2 3435   2.014   2.735   1.097  1.4346 -2.5745 -3.6334
  859SOL     MW 3436   1.936   2.731   1.061 -0.3295 -0.2773 -0.7197
  860SOL     OW 3437   2.610   2.655   0.143  0.2850 -0.4660 -0.0658
  860SOL    HW1 3438   2.697   2.645   0.204 -0.6643 -1.3255  2.9106
  860SOL    HW2 3439   2.642   2.718   0.080  1.0280  0.2077  1.3473
  860SOL     MW 3440   2.626   2.662   0.143  0.2577 -0.4905  0.5133
  861SOL     OW 3441   1.645   2.157   1.186  0.2022 -0.3355  0.4247
  861SOL    HW1 3442   1.655   2.222   1.261 -3.6536  1.3058  2.0482
  861SOL    HW2 3443   1.578   2.095   1.220  1.5616 -1.4017  1.4874
  861SOL     MW 3444   1.637   2.157   1.200 -0.1272 -0.2596  0.7792
  862SOL     OW 3445   2.520   1.755   1.440 -0.1644 -0.4887 -0.3998
  862SOL    HW1 3446   2.468   1.778   1.518 -1.0192 -0.3171 -0.5094
  862SOL    HW2 3447   2.451   1.715   1.381  0.6585 -0.8116 -0.3321
  862SOL     MW 3448   2.504   1.753   1.443 -0.1686 -0.5087 -0.4053
  863SOL     OW 3449   3.007   1.748   1.001 -0.0252 -0.7831 -0.6966
  863SOL    HW1 3450   3.059   1.761   1.082 -0.4228 -0.2746  0.1589
  863SOL    HW2 3451   2.921   1.736   1.040  1.0446  1.9384  2.1921
  863SOL     MW 3452   3.003   1.748   1.017  0.0635 -0.3569 -0.2026
  864SOL     OW 3453   0.038   1.844   0.761  0.0631 -0.2704 -0.4548
  864SOL    HW1 3454  -0.025   1.816   0.826  0.7849  3.1452 -1.7155
  864SOL    HW2 3455   0.010   1.814   0.674 -0.4602 -1.7737 -0.6742
  864SOL     MW 3456   0.026   1.836   0.758  0.0893 -0.0181 -0.6501
  865SOL     OW 3457   2.640   2.169   0.063 -0.2907  0.5845 -0.1273
  865SOL    HW1 3458   2.592   2.139   0.143 -0.2232  0.8657  0.4345
  865SOL    HW2 3459   2.595   2.150  -0.019  3.5702 -0.3641 -2.1953
  865SOL     MW 3460   2.628   2.163   0.063  0.2276  0.4964 -0.3260
  866SOL     OW 3461   2.636   2.381   1.542 -0.0958  0.6216  0.0257
  866SOL    HW1 3462   2.621   2.285   1.570 -0.9953 -1.4138  0.2054
  866SOL    HW2 3463   2.715   2.387   1.491 -2.5830  1.9028  1.4568
  866SOL     MW 3464   2.644   2.369   1.539 -0.5427  0.5221  0.2382
  867SOL     OW 3465   0.105   2.696   1.769  0.6207 -0.2083  0.3260
  867SOL    HW1 3466   0.154   2.766   1.813  2.1622  1.2412 -3.7692
  867SOL    HW2 3467   0.102   2.726   1.681 -1.7765  0.3115 -1.9385
  867SOL     MW 3468   0.111   2.709   1.763  0.5078  0.0515 -0.5131
  868SOL     OW 3469   2.763   2.676   0.543  0.5917 -0.1491 -0.6064
  868SOL    HW1 3470   2.701   2.602   0.557 -4.1015 -0.5345 -1.3561
  868SOL    HW2 3471   2.694   2.744   0.519  0.4677 -1.7888 -0.9379
  868SOL     MW 3472   2.746   2.675   0.542 -0.0439 -0.4163 -0.7490
  869SOL     OW 3473   2.068   2.455   1.031 -0.3048  0.5883  0.2369
  869SOL    HW1 3474   2.160   2.452   1.008  0.9015  2.7560  1.9350
  869SOL    HW2 3475   2.023   2.399   0.972 -0.2930  0.1659  2.7429
  869SOL     MW 3476   2.074   2.448   1.020 -0.1441  0.8186  0.7916
  870SOL     OW 3477   2.198   0.049   0.464  0.1462 -1.0598  0.0448
  870SOL    HW1 3478   2.285   0.066   0.421  1.7787  2.1675 -2.7419
  870SOL    HW2 3479   2.207  -0.040   0.486 -0.2203  2.4219 -1.7202
  870SOL     MW 3480   2.210   0.039   0.461  0.3132 -0.1747 -0.5558
  871SOL     OW 3481   2.510   2.099   0.892 -0.0671 -0.1307 -0.2524
  871SOL    HW1 3482   2.433   2.048   0.857  0.8261  0.2317 -0.9904
  871SOL    HW2 3483   2.477   2.177   0.934  0.4698 -0.3056  0.7626
  871SOL     MW 3484   2.496   2.102   0.893  0.1216 -0.1059 -0.2158
  872SOL     OW 3485   2.090   2.581   1.506  0.6335  0.0419  0.4922
  872SOL    HW1 3486   2.009   2.581   1.556  0.7940 -1.0933  0.1795
  872SOL    HW2 3487   2.071   2.538   1.419  3.8078 -1.1759 -2.1902
  872SOL     MW 3488   2.077   2.576   1.501  1.0735 -0.2686  0.0970
  873SOL     OW 3489   2.825   2.080   1.841 -0.0090  0.1307 -1.1463
  873SOL    HW1 3490   2.803   2.142   1.907  1.7649  0.2371  0.8377
  873SOL    HW2 3491   2.896   2.131   1.801 -1.5582  2.1197  1.1011
  873SOL     MW 3492   2.831   2.095   1.844  0.0206  0.4071 -0.5880
  874SOL     OW 3493   2.310   1.420   2.325 -0.3198 -0.2622  0.0401
  874SOL    HW1 3494   2.253   1.357   2.277  1.5801 -0.4951 -0.8969
  874SOL    HW2 3495   2.382   1.365   2.352  0.1259 -0.8656  0.2804
  874SOL     MW 3496   2.312   1.404   2.323 -0.0103 -0.3726 -0.0518
  875SOL     OW 3497   2.358   2.345   0.971 -0.2573 -0.0651  0.2679
  875SOL    HW1 3498   2.388   2.386   0.889 -1.9723 -1.2985  1.2484
  875SOL    HW2 3499   2.407   2.385   1.046 -1.0697 -1.2737 -0.2268
  875SOL     MW 3500   2.368   2.356   0.970 -0.5908 -0.3873  0.3320
  876SOL     OW 3501   3.072   2.252   1.304  0.2054 -0.0150  0.8145
  876SOL    HW1 3502   3.112   2.309   1.241  2.3052 -0.1836  2.3332
  876SOL    HW2 3503   3.150   2.242   1.364  0.8541 -0.2914 -1.3544
  876SOL     MW 3504   3.088   2.258   1.304  0.5681 -0.0737  0.7287
  877SOL     OW 3505   0.055   2.793   0.345  0.2572  0.1337 -0.2264
  877SOL    HW1 3506   0.100   2.873   0.314 -1.0002 -1.4902  0.8834
  877SOL    HW2 3507   0.051   2.721   0.281 -1.2415  1.1100  0.8033
  877SOL     MW 3508   0.061   2.794   0.332 -0.1064  0.0483  0.0559
  878SOL     OW 3509   2.375   1.724   1.199 -0.7103 -0.4826 -0.2190
  878SOL    HW1 3510   2.279   1.709   1.210 -1.5069 -0.9350  1.6542
  878SOL    HW2 3511   2.408   1.644   1.154 -1.4051 -1.9446 -1.8582
  878SOL     MW 3512   2.367   1.711   1.195 -0.9071 -0.7352 -0.1881
  879SOL     OW 3513   2.757   2.448   0.884  0.2837  0.8259 -0.2224
  879SOL    HW1 3514   2.836   2.501   0.905  0.0572  1.8389 -0.9673
  879SOL    HW2 3515   2.802   2.387   0.829  1.2514 -0.7797 -1.6318
  879SOL     MW 3516   2.773   2.447   0.880  0.3815  0.7477 -0.5067
  880SOL     OW 3517   2.583   2.204   0.623  0.2205  0.1413  0.0190
  880SOL    HW1 3518   2.588   2.177   0.718  0.1493 -0.6666  1.4494
  880SOL    HW2 3519   2.562   2.123   0.567 -1.4612 -3.3862 -4.1370
  880SOL     MW 3520   2.581   2.189   0.628 -0.0107 -0.4307 -0.3406
  881SOL     OW 3521   2.975   2.746   0.694 -0.0312  0.1087  0.3562
  881SOL    HW1 3522   2.899   2.728   0.644  1.2099  3.1298 -1.3382
  881SOL    HW2 3523   3.050   2.694   0.649  0.9880  1.2380  2.3899
  881SOL     MW 3524   2.975   2.737   0.681  0.2670  0.6563  0.4010
  882SOL     OW 3525   2.292   2.844   1.939  0.0147  0.0053 -0.7527
  882SOL    HW1 3526   2.271   2.859   1.843  0.3085  0.7594 -2.0848
  882SOL    HW2 3527   2.224   2.781   1.965  0.1169 -0.8607 -2.7522
  882SOL     MW 3528   2.280   2.838   1.930  0.0669 -0.0095 -1.1923
  883SOL     OW 3529   2.364   2.246   1.333  0.2760 -0.1070 -0.2317
  883SOL    HW1 3530   2.437   2.185   1.301  0.6946 -0.4536 -1.5070
  883SOL    HW2 3531   2.291   2.247   1.266  0.2172  1.0335 -4.7830
  883SOL     MW 3532   2.364   2.238   1.320  0.3234 -0.0023 -1.0004
  884SOL     OW 3533   1.979   1.816   1.076 -0.2983  0.0489 -0.5044
  884SOL    HW1 3534   1.957   1.907   1.068 -0.2997 -0.0712  0.2985
  884SOL    HW2 3535   2.076   1.817   1.065  0.0152  2.9016  1.4659
  884SOL     MW 3536   1.989   1.828   1.073 -0.2571  0.4094 -0.1385
  885SOL     OW 3537   2.818   2.387   1.747  0.1312  0.0271 -0.4911
  885SOL    HW1 3538   2.902   2.347   1.707  0.1131  0.7785 -0.2206
  885SOL    HW2 3539   2.755   2.395   1.676  1.1004  1.3267 -0.6865
  885SOL     MW 3540   2.821   2.383   1.733  0.2567  0.2977 -0.4812
  886SOL     OW 3541   2.858   2.398   1.399  0.4421  0.5908 -0.1730
  886SOL    HW1 3542   2.946   2.359   1.378 -0.2443  1.5454 -3.6461
  886SOL    HW2 3543   2.883   2.491   1.387  0.1698 -1.1334 -0.5733
  886SOL     MW 3544   2.873   2.405   1.394  0.3156  0.4892 -0.6841
  887SOL     OW 3545   2.343   2.682   1.505 -0.0299  0.0694 -0.0968
  887SOL    HW1 3546   2.360   2.704   1.414  0.8509 -3.6860  0.8607
  887SOL    HW2 3547   2.263   2.634   1.486  0.1239 -1.0862  2.5772
  887SOL     MW 3548   2.335   2.678   1.490  0.1066 -0.5786  0.3824
  888SOL     OW 3549   1.966   2.166   1.371  0.9790 -0.6023 -0.2598
  888SOL    HW1 3550   2.049   2.169   1.329  1.0321 -1.2642 -0.4564
  888SOL    HW2 3551   1.986   2.167   1.465 -0.8268  0.2933 -1.5870
  888SOL     MW 3552   1.979   2.167   1.378  0.7477 -0.5715 -0.4609
  889SOL     OW 3553   2.318   1.968   2.067 -0.2866 -0.7172  0.3501
  889SOL    HW1 3554   2.382   1.949   2.134  1.1829  0.5403  0.4610
  889SOL    HW2 3555   2.357   2.026   1.999 -0.7940 -1.2615  0.2385
  889SOL     MW 3556   2.332   1.973   2.067 -0.1597 -0.6231  0.3500
  890SOL     OW 3557   0.091   2.329   0.130 -0.3203 -0.1292  0.3191
  890SOL    HW1 3558   0.060   2.417   0.136 -2.5089 -1.8293 -1.6963
  890SOL    HW2 3559   0.037   2.277   0.189 -3.0667  0.8527  1.1917
  890SOL     MW 3560   0.080   2.334   0.139 -0.9714 -0.2239  0.1683
  891SOL     OW 3561   2.986   2.011   1.192 -0.1678  0.9263  0.0044
  891SOL    HW1 3562   3.042   1.935   1.195 -0.8039  0.1148 -2.3756
  891SOL    HW2 3563   3.031   2.083   1.230 -0.2437 -0.6972 -2.6573
  891SOL     MW 3564   2.999   2.010   1.197 -0.2618  0.6050 -0.6608
  892SOL     OW 3565   2.456   2.392   2.821  0.2467  0.5075  0.8287
  892SOL    HW1 3566   2.462   2.310   2.866 -3.2736 -0.7101  1.0593
  892SOL    HW2 3567   2.541   2.425   2.810  1.0536 -0.0506 -0.3049
  892SOL     MW 3568   2.468   2.386   2.826 -0.1113  0.2732  0.7095
  893SOL     OW 3569   1.660   2.395   1.351  0.0326 -0.3313  0.3935
  893SOL    HW1 3570   1.587   2.399   1.409  3.8107 -0.6519  1.2771
  893SOL    HW2 3571   1.712   2.469   1.380  0.0689  0.4904 -2.6528
  893SOL     MW 3572   1.657   2.405   1.363  0.5359 -0.2652  0.1081
  894SOL     OW 3573   2.757   1.841   0.481  0.5610  0.1483 -0.3581
  894SOL    HW1 3574   2.660   1.862   0.509 -2.9835 -0.4199 -0.9965
  894SOL    HW2 3575   2.756   1.812   0.386  0.2369 -1.6313  2.6212
  894SOL     MW 3576   2.744   1.840   0.472  0.0506 -0.1615 -0.0492
  895SOL     OW 3577   2.184   2.169   1.137  0.3102 -0.5602 -0.2476
  895SOL    HW1 3578   2.211   2.208   1.055  2.1633  1.5121  1.5098
  895SOL    HW2 3579   2.216   2.082   1.112  1.1487  0.1857 -2.0775
  895SOL     MW 3580   2.192   2.163   1.123  0.6654 -0.1884 -0.2572
  896SOL     OW 3581   2.215   2.800   1.096  0.0148 -0.8898  0.3133
  896SOL    HW1 3582   2.279   2.768   1.165  1.6967  2.3290  1.8425
  896SOL    HW2 3583   2.177   2.883   1.128  3.0967 -0.1976 -2.4156
  896SOL     MW 3584   2.219   2.807   1.109  0.6433 -0.3738  0.1550
  897SOL     OW 3585   3.093   3.020   3.081 -0.1615 -0.4503  0.0610
  897SOL    HW1 3586   3.147   2.944   3.087 -0.8706 -2.9233  2.5085
  897SOL    HW2 3587   3.010   2.996   3.037  1.3323 -0.8850  1.7589
  897SOL     MW 3588   3.089   3.007   3.076 -0.0580 -0.8339  0.6079
  898SOL     OW 3589   2.050   0.159   1.425  0.0645 -0.1189 -0.4754
  898SOL    HW1 3590   2.043   0.072   1.471 -0.4310 -1.5209 -2.4073
  898SOL    HW2 3591   2.045   0.148   1.334  1.2971 -0.8965  0.7753
  898SOL     MW 3592   2.049   0.146   1.419  0.1617 -0.4065 -0.5653
  899SOL     OW 3593   2.924   3.003   0.601 -0.0237  0.1625 -0.4950
  899SOL    HW1 3594   2.937   2.908   0.612  0.4894 -2.2377  1.1054
  899SOL    HW2 3595   2.831   3.020   0.628 -0.0192 -2.0566 -0.8215
  899SOL     MW 3596   2.913   2.993   0.606  0.0446 -0.4470 -0.3269
  900SOL     OW 3597   0.092   2.387   1.089  0.4662 -0.7016 -0.1278
  900SOL    HW1 3598   0.084   2.485   1.091 -2.6369 -1.4085  2.5087
  900SOL    HW2 3599   0.065   2.353   1.003  1.1420  0.5310  0.1831
  900SOL     MW 3600   0.088   2.396   1.078  0.1459 -0.6323  0.2611
  901SOL     OW 3601   1.728   2.786   1.777 -0.2751  0.1588 -0.0738
  901SOL    HW1 3602   1.825   2.757   1.747 -0.9899 -0.4665 -2.6923
  901SOL    HW2 3603   1.669   2.777   1.700  0.5792  1.0192 -1.1686
  901SOL     MW 3604   1.733   2.781   1.763 -0.2567  0.1898 -0.5637
  902SOL     OW 3605   2.649   2.126   1.642  0.2434  0.3999  0.1551
  902SOL    HW1 3606   2.660   2.057   1.569  1.1466 -0.4390 -1.8816
  902SOL    HW2 3607   2.724   2.101   1.702 -0.1775  1.2494 -0.9931
  902SOL     MW 3608   2.660   2.114   1.640  0.3070  0.4013 -0.2651
  903SOL     OW 3609   1.509   2.648   0.613 -0.5425 -0.0319 -0.8907
  903SOL    HW1 3610   1.591   2.696   0.603 -1.9984  0.4606  2.5061
  903SOL    HW2 3611   1.471   2.709   0.684  1.5359 -0.1949 -2.2491
  903SOL     MW 3612   1.515   2.663   0.621 -0.4603  0.0116 -0.6218
  904SOL     OW 3613   2.460   2.564   1.704  0.1714 -0.4075 -0.5721
  904SOL    HW1 3614   2.411   2.611   1.628  1.7938  0.8210 -0.8025
  904SOL    HW2 3615   2.510   2.497   1.656 -1.8491  1.1322  0.2512
  904SOL     MW 3616   2.460   2.562   1.688  0.1189 -0.0422 -0.4939
  905SOL     OW 3617   2.302   2.462   2.098  0.3852 -0.0883  0.0139
  905SOL    HW1 3618   2.376   2.425   2.048  1.4948 -1.1452  2.0374
  905SOL    HW2 3619   2.286   2.377   2.151 -0.9444 -3.6467  2.0185
  905SOL     MW 3620   2.310   2.446   2.098  0.3562 -0.6972  0.5454
  906SOL     OW 3621   2.500   2.508   0.805 -0.0074  0.6895 -0.0364
  906SOL    HW1 3622   2.591   2.480   0.820  1.9014 -2.8384 -1.0417
  906SOL    HW2 3623   2.487   2.596   0.846 -0.7174  2.4172 -0.5129
  906SOL     MW 3624   2.510   2.516   0.812  0.1507  0.4520 -0.2319
  907SOL     OW 3625   2.659   2.870   1.270  0.1271 -0.1102 -0.2023
  907SOL    HW1 3626   2.708   2.906   1.341 -0.9599 -1.9477  3.6488
  907SOL    HW2 3627   2.716   2.872   1.194 -1.0360 -0.8052 -2.6747
  907SOL     MW 3628   2.673   2.875   1.269 -0.1698 -0.4443 -0.0204
  908SOL     OW 3629   2.734   2.433   0.034 -0.6239  0.1547  0.0054
  908SOL    HW1 3630   2.680   2.353   0.054  0.7184  0.0317  2.3355
  908SOL    HW2 3631   2.691   2.509   0.078 -0.5566  0.7624  2.6780
  908SOL     MW 3632   2.721   2.433   0.042 -0.4379  0.2186  0.6655
  909SOL     OW 3633   1.738   0.134   1.233 -0.4239  0.0346  0.2867
  909SOL    HW1 3634   1.697   0.217   1.196 -0.5977 -0.0161 -0.4805
  909SOL    HW2 3635   1.708   0.123   1.321 -0.8167  0.1215 -1.7563
  909SOL     MW 3636   1.729   0.143   1.239 -0.4986  0.0393 -0.0841
  910SOL     OW 3637   2.168   1.671   0.399 -0.9607  0.1486 -0.2367
  910SOL    HW1 3638   2.122   1.587   0.388 -1.3858  0.1599 -2.9810
  910SOL    HW2 3639   2.131   1.721   0.327 -0.3518  1.8123  0.2661
  910SOL     MW 3640   2.157   1.667   0.388 -0.9364  0.3696 -0.5324
  911SOL     OW 3641   2.288   2.090   1.560 -0.1837  0.6325  0.0181
  911SOL    HW1 3642   2.352   2.101   1.633  0.3831  0.6933  1.5099
  911SOL    HW2 3643   2.313   2.165   1.496  0.5674  3.4568  0.2151
  911SOL     MW 3644   2.300   2.102   1.561 -0.0098  1.0132  0.2409
  912SOL     OW 3645   2.927   1.859   1.423  0.4322  0.4356 -0.2958
  912SOL    HW1 3646   2.963   1.906   1.336  0.3719 -2.5454 -1.7467
  912SOL    HW2 3647   2.842   1.901   1.428  0.6880  3.7581  1.8309
  912SOL     MW 3648   2.921   1.871   1.412  0.4580  0.4806 -0.2067
  913SOL     OW 3649   2.684   3.078   0.279  0.2877 -0.6502 -0.2780
  913SOL    HW1 3650   2.771   3.040   0.286  0.9075 -1.1407 -2.6047
  913SOL    HW2 3651   2.626   3.012   0.239  2.6633 -0.7028  0.5087
  913SOL     MW 3652   2.688   3.064   0.275  0.6829 -0.7218 -0.4812
  914SOL     OW 3653   2.671   1.826   2.966  0.5437 -0.3245 -0.8073
  914SOL    HW1 3654   2.719   1.904   2.996 -0.5369  0.4439 -1.8808
  914SOL    HW2 3655   2.577   1.836   2.989 -2.4575 -2.8124  3.5837
  914SOL     MW 3656   2.665   1.837   2.973  0.0051 -0.5514 -0.3696
  915SOL     OW 3657   1.780   0.155   0.141  0.6025 -0.1918 -0.1286
  915SOL    HW1 3658   1.835   0.098   0.194 -1.4728  0.4587 -1.8579
  915SOL    HW2 3659   1.691   0.118   0.154 -0.9364 -0.0235  0.8989
  915SOL     MW 3660   1.775   0.143   0.150  0.1256 -0.0838 -0.2212
  916SOL     OW 3661   1.725   2.186   2.046 -0.1023  0.2534 -0.4492
  916SOL    HW1 3662   1.790   2.254   2.025  0.5488  0.4794  0.5952
  916SOL    HW2 3663   1.755   2.121   1.979 -0.1223  1.4981 -1.6202
  916SOL     MW 3664   1.738   2.186   2.034 -0.0190  0.4474 -0.4659
  917SOL     OW 3665   2.510   2.262   2.582  0.3922  0.8368  0.1382
  917SOL    HW1 3666   2.502   2.316   2.657  1.3222 -2.1010  0.9259
  917SOL    HW2 3667   2.592   2.280   2.543  0.6528  1.0466  2.8125
  917SOL     MW 3668   2.520   2.272   2.587  0.5493  0.4769  0.5950
  918SOL     OW 3669   2.027   1.621   2.671  0.1758 -0.2227 -0.3532
  918SOL    HW1 3670   1.950   1.668   2.627 -2.3813  0.1009  2.1784
  918SOL    HW2 3671   2.104   1.675   2.655  1.1971  0.7548 -1.6902
  918SOL     MW 3672   2.027   1.634   2.663 -0.0268 -0.0510 -0.1956
  919SOL     OW 3673   3.076   2.399   2.230 -0.5984  0.5037 -0.0050
  919SOL    HW1 3674   3.024   2.319   2.240 -0.3277 -0.6728  1.4274
  919SOL    HW2 3675   3.143   2.379   2.160  2.9184 -0.7212 -0.5750
  919SOL     MW 3676   3.078   2.386   2.222 -0.0987  0.1868  0.1088
  920SOL     OW 3677   2.696   2.823   3.055 -0.3380 -0.4707 -0.4135
  920SOL    HW1 3678   2.606   2.849   3.038 -0.1096  0.8846 -0.1421
  920SOL    HW2 3679   2.711   2.782   2.975 -2.1526 -0.0153  2.7817
  920SOL     MW 3680   2.686   2.821   3.042 -0.5473 -0.2318  0.0439
  921SOL     OW 3681   2.442   2.596   2.622  0.5624  0.6007 -0.0479
  921SOL    HW1 3682   2.525   2.589   2.573  1.9502  1.2582  1.5626
  921SOL    HW2 3683   2.441   2.539   2.700 -1.7065  0.9899  1.3945
  921SOL     MW 3684   2.453   2.588   2.626  0.4461  0.7388  0.3549
  922SOL     OW 3685   2.056   2.759   0.368  0.6713 -0.6256 -0.0461
  922SOL    HW1 3686   2.032   2.776   0.279  0.3572 -0.0577  1.6917
  922SOL    HW2 3687   2.046   2.663   0.387 -2.2217 -2.4329  2.8293
  922SOL     MW 3688   2.051   2.749   0.359  0.2481 -0.7891  0.5625
  923SOL     OW 3689   2.198   2.852   1.685  0.4059 -0.1924  0.4862
  923SOL    HW1 3690   2.261   2.801   1.640 -1.0798 -0.9020  0.1980
  923SOL    HW2 3691   2.162   2.915   1.623 -0.1676 -1.3327  0.3602
  923SOL     MW 3692   2.202   2.853   1.671  0.1342 -0.4365  0.4316
  924SOL     OW 3693   1.113   2.739   2.624 -0.0841 -0.1808 -0.7510
  924SOL    HW1 3694   1.206   2.759   2.617 -3.1509 -2.4255 -1.4129
  924SOL    HW2 3695   1.104   2.677   2.695 -1.4094 -1.0806  0.9096
  924SOL     MW 3696   1.124   2.734   2.632 -0.6636 -0.5957 -0.6192
  925SOL     OW 3697   2.991   0.223   2.697 -0.2819 -0.1250 -0.3278
  925SOL    HW1 3698   2.951   0.228   2.610  0.2733 -1.3940  0.6999
  925SOL    HW2 3699   2.954   0.299   2.746 -0.1369  4.0974  1.2950
  925SOL     MW 3700   2.981   0.234   2.692 -0.1895  0.2647  0.0220
  926SOL     OW 3701   2.770   2.339   2.008  0.3111  0.5331 -0.5929
  926SOL    HW1 3702   2.795   2.416   2.058  0.9849 -1.7223  0.4267
  926SOL    HW2 3703   2.796   2.373   1.924  0.2626  0.6946  0.1389
  926SOL     MW 3704   2.777   2.354   2.004  0.3936  0.2568 -0.3618
  927SOL     OW 3705   2.385   0.162   0.300  0.0711 -0.1116  0.1635
  927SOL    HW1 3706   2.475   0.186   0.319 -0.0107 -2.3344 -0.3671
  927SOL    HW2 3707   2.377   0.153   0.202  2.3055 -1.1829  1.2859
  927SOL     MW 3708   2.396   0.164   0.290  0.3551 -0.5462  0.2416
  928SOL     OW 3709   2.166   2.405   1.732 -0.5209 -0.1935 -0.7745
  928SOL    HW1 3710   2.150   2.467   1.658  1.1537  1.5916 -0.4838
  928SOL    HW2 3711   2.255   2.408   1.769 -0.7561 -1.4651  2.0735
  928SOL     MW 3712   2.175   2.414   1.727 -0.3310 -0.1257 -0.3604
  929SOL     OW 3713   2.744   2.350   2.456  0.0518 -0.4005 -0.4044
  929SOL    HW1 3714   2.793   2.322   2.383  0.0146  0.3897  2.0434
  929SOL    HW2 3715   2.802   2.353   2.528  0.5540  0.4727 -1.4732
  929SOL     MW 3716   2.758   2.346   2.456  0.1132 -0.1810 -0.2225
  930SOL     OW 3717   2.009   2.818   2.626 -0.5591 -0.3552  0.4970
  930SOL    HW1 3718   2.027   2.768   2.710 -1.4002 -0.0967  1.8092
  930SOL    HW2 3719   2.076   2.880   2.609 -0.5903  2.4546  3.3468
  930SOL     MW 3720   2.020   2.819   2.635 -0.6742  0.0497  1.0462
  931SOL     OW 3721   0.022   2.790   2.479  0.4809  0.3846  0.1996
  931SOL    HW1 3722   0.033   2.815   2.569 -0.0773 -1.0058 -2.0259
  931SOL    HW2 3723   0.116   2.780   2.462  3.5839  0.6611 -1.1890
  931SOL     MW 3724   0.036   2.792   2.489  0.8167  0.2376 -0.2773
  932SOL     OW 3725   2.877   1.882   2.492 -0.4475  0.2423  0.4390
  932SOL    HW1 3726   2.932   1.955   2.525  0.0814  1.9600 -1.5478
  932SOL    HW2 3727   2.835   1.912   2.409 -0.8664  1.3909 -0.5562
  932SOL     MW 3728   2.879   1.895   2.485 -0.4330  0.6204  0.0456
  933SOL     OW 3729   2.036   2.771   2.232  0.2575 -0.0039 -0.0920
  933SOL    HW1 3730   2.131   2.815   2.250  1.7928  1.0716 -1.3970
  933SOL    HW2 3731   1.976   2.840   2.201 -0.0610 -1.0476 -0.5546
  933SOL     MW 3732   2.041   2.786   2.231  0.4181  0.0003 -0.3252
  934SOL     OW 3733   1.984   2.628   2.434  0.3603  0.3527  0.0480
  934SOL    HW1 3734   1.995   2.693   2.498  3.5886  1.8226 -2.1180
  934SOL    HW2 3735   1.978   2.670   2.348  0.6447 -2.0208  1.1168
  934SOL     MW 3736   1.985   2.642   2.431  0.8238  0.2335 -0.0968
  935SOL     OW 3737   2.705   1.576   1.806 -0.5003 -0.0819  0.2688
  935SOL    HW1 3738   2.788   1.550   1.766 -2.8584 -0.8364  1.3191
  935SOL    HW2 3739   2.651   1.533   1.745 -0.8324 -1.9182 -2.8530
  935SOL     MW 3740   2.709   1.567   1.793 -0.8553 -0.4237 -0.0045
  936SOL     OW 3741   2.955   2.279   3.092 -0.5392 -0.3191 -0.0784
  936SOL    HW1 3742   3.029   2.325   3.136 -0.0722 -2.5327 -1.0433
  936SOL    HW2 3743   2.872   2.327   3.114 -0.5872  2.0135  2.3099
  936SOL     MW 3744   2.954   2.291   3.101 -0.4839 -0.3034  0.1094
  937SOL     OW 3745   2.005   2.164   2.712 -0.4214 -0.5209  0.1550
  937SOL    HW1 3746   2.094   2.140   2.746  0.1543 -0.9731  2.3253
  937SOL    HW2 3747   1.996   2.134   2.621 -0.8383 -1.0848  2.6028
  937SOL     MW 3748   2.015   2.157   2.704 -0.4004 -0.6550  0.7643
  938SOL     OW 3749   2.325   1.735   1.928  0.8397 -0.1191 -0.0622
  938SOL    HW1 3750   2.312   1.751   1.836 -0.4377 -2.2819 -0.1667
  938SOL    HW2 3751   2.309   1.816   1.978 -0.1022 -1.6500  0.4988
  938SOL     MW 3752   2.321   1.748   1.922  0.5469 -0.6064 -0.0020
  939SOL     OW 3753   2.775   1.979   2.252 -0.9668  0.3365 -0.3004
  939SOL    HW1 3754   2.803   1.921   2.175  0.9411  0.2855 -0.2987
  939SOL    HW2 3755   2.683   1.970   2.259 -0.0010 -1.4204  3.8552
  939SOL     MW 3756   2.767   1.970   2.242 -0.5877  0.0980  0.2481
  940SOL     OW 3757   2.233   0.158   2.665 -0.1321  0.1330 -0.2881
  940SOL    HW1 3758   2.235   0.068   2.634 -0.3379 -1.4263  2.9014
  940SOL    HW2 3759   2.299   0.171   2.733 -0.1996 -1.6300 -0.9258
  940SOL     MW 3760   2.242   0.148   2.670 -0.1681 -0.3053  0.0486
  941SOL     OW 3761   0.183   2.410   2.056  0.5968  0.6549 -0.6287
  941SOL    HW1 3762   0.255   2.364   2.088 -2.6603 -1.0594  1.4470
  941SOL    HW2 3763   0.188   2.397   1.965 -1.0224 -2.0632 -0.5219
  941SOL     MW 3764   0.193   2.402   2.048 -0.0465  0.0701 -0.3408
  942SOL     OW 3765   2.865   2.233   2.253 -0.0306 -0.3298  0.1074
  942SOL    HW1 3766   2.820   2.255   2.177  0.3534  1.2845  2.4170
  942SOL    HW2 3767   2.841   2.138   2.255  2.0912 -3.0424 -0.5655
  942SOL     MW 3768   2.856   2.224   2.243  0.3000 -0.4747  0.3233
  943SOL     OW 3769   0.243   2.105   2.284  0.0823 -0.1516  0.3281
  943SOL    HW1 3770   0.186   2.147   2.353 -2.2519  1.8453  0.0869
  943SOL    HW2 3771   0.316   2.057   2.334 -2.8014 -1.8323 -0.9555
  943SOL     MW 3772   0.245   2.104   2.300 -0.6062 -0.1099  0.1269
  944SOL     OW 3773   2.104   2.663   2.005 -0.2486  0.6504 -0.1994
  944SOL    HW1 3774   2.154   2.580   2.018 -2.6324  0.5084 -1.7193
  944SOL    HW2 3775   2.071   2.691   2.091  0.5940 -1.2736  2.0344
  944SOL     MW 3776   2.106   2.656   2.018 -0.4520  0.3778 -0.1052
  945SOL     OW 3777   2.851   2.727   2.807  0.1651  0.1871 -0.2270
  945SOL    HW1 3778   2.812   2.643   2.804 -1.2400  4.1626 -1.4554
  945SOL    HW2 3779   2.815   2.771   2.728  0.8793  2.6215  0.2972
  945SOL     MW 3780   2.841   2.722   2.796  0.0740  1.0328 -0.3199
  946SOL     OW 3781   2.448   2.668   2.239  0.2055 -0.3533  0.1709
  946SOL    HW1 3782   2.489   2.704   2.146  0.5298  1.1855 -4.3726
  946SOL    HW2 3783   2.395   2.593   2.201 -1.9479 -0.8248 -2.0417
  946SOL     MW 3784   2.446   2.663   2.222 -0.0358 -0.2125 -0.7205
  947SOL     OW 3785   2.019   0.050   0.247  0.2514  0.7151 -0.3724
  947SOL    HW1 3786   2.019  -0.033   0.211 -0.0662  3.2668  1.5370
  947SOL    HW2 3787   2.071   0.052   0.327  0.2362 -0.8210  0.1976
  947SOL     MW 3788   2.026   0.039   0.253  0.2075  0.8491 -0.0453
  948SOL     OW 3789   1.816   2.996   2.668  0.8038 -0.4320 -0.5252
  948SOL    HW1 3790   1.877   2.920   2.672 -0.3704  1.0016 -0.5235
  948SOL    HW2 3791   1.792   3.009   2.573 -0.1378 -0.4733 -1.3927
  948SOL     MW 3792   1.821   2.987   2.656  0.5246 -0.2483 -0.6394
  949SOL     OW 3793   2.493   1.946   2.266  0.1682 -0.8599 -0.9787
  949SOL    HW1 3794   2.496   1.860   2.305 -0.0648  1.6256 -0.8021
  949SOL    HW2 3795   2.444   2.005   2.327 -0.9321  0.0011 -0.3581
  949SOL     MW 3796   2.487   1.942   2.279 -0.0077 -0.4184 -0.8735
  950SOL     OW 3797   2.298   2.574   2.941  0.3975 -0.3381  0.3301
  950SOL    HW1 3798   2.328   2.493   2.898 -0.5063 -2.0716  0.8237
  950SOL    HW2 3799   2.199   2.584   2.907 -3.3878 -0.3594  1.0584
  950SOL     MW 3800   2.289   2.565   2.930 -0.2212 -0.5696  0.4913
  951SOL     OW 3801   3.083   2.211   2.849 -0.1665 -0.0164 -0.3889
  951SOL    HW1 3802   3.036   2.233   2.934  0.9234 -1.8219  1.7389
  951SOL    HW2 3803   3.031   2.135   2.818  0.8144 -2.0687  0.2257
  951SOL     MW 3804   3.070   2.204   2.856  0.1067 -0.5254 -0.0271
  952SOL     OW 3805   3.030   1.660   2.135  0.0466  0.1466  0.3494
  952SOL    HW1 3806   2.988   1.720   2.074 -1.2788  0.1416  0.0611
  952SOL    HW2 3807   3.087   1.712   2.195 -2.3376 -1.5344  2.3082
  952SOL     MW 3808   3.032   1.674   2.135 -0.4429 -0.0758  0.5698
  953SOL     OW 3809   1.963   1.751   2.890  0.1360 -0.6314 -0.0647
  953SOL    HW1 3810   1.898   1.700   2.933  2.3012 -2.9912 -0.1353
  953SOL    HW2 3811   1.981   1.684   2.811  0.6589 -2.1822 -1.5058
  953SOL     MW 3812   1.957   1.735   2.885  0.4907 -1.1473 -0.2642
  954SOL     OW 3813   2.467   2.138   2.934  0.4514  0.5019  0.3121
  954SOL    HW1 3814   2.380   2.138   2.894 -0.6286  0.3692  1.2813
  954SOL    HW2 3815   2.525   2.123   2.869  0.4423  0.3312  3.3690
  954SOL     MW 3816   2.463   2.136   2.920  0.3077  0.4619  0.8433
  955SOL     OW 3817   1.572   1.599   2.540  1.1225  0.3302 -0.0583
  955SOL    HW1 3818   1.546   1.630   2.447  0.5258 -1.7195 -1.6571
  955SOL    HW2 3819   1.663   1.632   2.545 -1.2962 -0.4934  0.0096
  955SOL     MW 3820   1.581   1.607   2.528  0.7246 -0.0489 -0.2603
  956SOL     OW 3821   2.712   2.487   2.844 -0.1738  0.4863  0.6436
  956SOL    HW1 3822   2.710   2.468   2.946  0.4565 -1.0791  3.8504
  956SOL    HW2 3823   2.776   2.425   2.808  1.3908 -0.5142  0.9183
  956SOL     MW 3824   2.720   2.476   2.853  0.1158  0.1477  1.1030
  957SOL     OW 3825   2.254   2.883   0.512 -0.0143 -0.0105  0.6068
  957SOL    HW1 3826   2.199   2.868   0.433 -2.7706 -1.9420  2.6604
  957SOL    HW2 3827   2.236   2.811   0.572 -0.2070 -1.6521  1.1153
  957SOL     MW 3828   2.244   2.872   0.510 -0.4034 -0.4819  0.9448
  958SOL     OW 3829   2.054   2.652   2.832  0.0418  0.0754  0.6979
  958SOL    HW1 3830   2.038   2.571   2.774  0.3296 -2.9404  0.7257
  958SOL    HW2 3831   1.983   2.664   2.898  0.5569  0.2261  0.4446
  958SOL     MW 3832   2.043   2.643   2.833  0.1477 -0.3026  0.6681
  959SOL     OW 3833   2.516   2.800   0.454  0.1295 -0.0319 -0.1633
  959SOL    HW1 3834   2.504   2.826   0.363  2.0429  3.6033  0.3806
  959SOL    HW2 3835   2.428   2.829   0.493 -1.3666 -1.0602 -2.4432
  959SOL     MW 3836   2.503   2.807   0.447  0.1845  0.3121 -0.3923
  960SOL     OW 3837   1.940   2.340   2.324  0.0012  0.4654 -0.6811
  960SOL    HW1 3838   1.944   2.248   2.349  1.9469  0.0593 -0.7609
  960SOL    HW2 3839   1.883   2.386   2.390 -0.6921 -1.0794  0.7364
  960SOL     MW 3840   1.933   2.334   2.336  0.1664  0.2080 -0.5046
  961SOL     OW 3841   2.212   2.298   2.296 -0.1287 -0.5968 -0.0490
  961SOL    HW1 3842   2.128   2.335   2.269  0.2998 -0.6714 -0.0509
  961SOL    HW2 3843   2.241   2.354   2.371 -2.6739 -4.3806 -0.1634
  961SOL     MW 3844   2.204   2.310   2.302 -0.4079 -1.1059 -0.0644
  962SOL     OW 3845   2.233   2.065   2.830 -0.8051  0.3358  0.1270
  962SOL    HW1 3846   2.197   2.024   2.909 -1.7208  3.2113  2.9483
  962SOL    HW2 3847   2.266   1.998   2.776  0.8347 -1.9688 -1.3616
  962SOL     MW 3848   2.233   2.051   2.833 -0.7096  0.4111  0.3028
  963SOL     OW 3849   1.808   2.515   2.158  0.7345  0.4600  0.1401
  963SOL    HW1 3850   1.857   2.449   2.214 -1.1691  0.2316  0.9618
  963SOL    HW2 3851   1.827   2.490   2.065 -2.5746  1.0204 -1.7856
  963SOL     MW 3852   1.817   2.503   2.153  0.0468  0.5038 -0.0055
  964SOL     OW 3853   1.832   1.933   2.753  0.0313  0.5138  0.7204
  964SOL    HW1 3854   1.888   2.016   2.760  2.1144  1.5316  2.7906
  964SOL    HW2 3855   1.881   1.854   2.802 -1.0446 -2.4159 -0.7050
  964SOL     MW 3856   1.846   1.934   2.760  0.1642  0.2615  0.8055
  965SOL     OW 3857   2.221   2.689   0.689 -0.3187 -0.9525  0.3147
  965SOL    HW1 3858   2.251   2.599   0.667 -1.9873 -1.0599 -0.9708
  965SOL    HW2 3859   2.269   2.715   0.772 -0.0281  1.5950 -1.1069
  965SOL     MW 3860   2.231   2.680   0.697 -0.5005 -0.6305 -0.0424
  966SOL     OW 3861   2.673   2.607   2.370 -0.2265 -0.0558  0.3342
  966SOL    HW1 3862   2.592   2.634   2.328  2.0634 -0.8316 -0.6851
  966SOL    HW2 3863   2.680   2.515   2.377  0.1105  1.6025 -0.6170
  966SOL     MW 3864   2.663   2.599   2.366  0.1201  0.0606  0.0742
  967SOL     OW 3865   2.827   3.047   2.953 -0.3586 -0.6505  0.1842
  967SOL    HW1 3866   2.788   2.969   2.996  2.6277 -0.0660 -1.8925
  967SOL    HW2 3867   2.755   3.062   2.885 -0.3170  0.7868 -1.2586
  967SOL     MW 3868   2.812   3.039   2.950  0.0409 -0.3838 -0.2802
  968SOL     OW 3869   3.034   2.628   2.993  0.2770  0.2106 -0.5239
  968SOL    HW1 3870   2.952   2.669   2.962  0.2753 -2.4115 -1.7365
  968SOL    HW2 3871   3.079   2.594   2.917 -0.1857  0.2331 -1.1217
  968SOL     MW 3872   3.029   2.629   2.979  0.2157 -0.1324 -0.7628
  969SOL     OW 3873   1.612   2.216   1.680 -0.1631  0.3897  0.0015
  969SOL    HW1 3874   1.680   2.148   1.697  0.6926  0.9504  0.1893
  969SOL    HW2 3875   1.578   2.243   1.766  0.4362 -1.4995 -2.3245
  969SOL     MW 3876   1.617   2.211   1.694  0.0289  0.2144 -0.2806
  970SOL     OW 3877   1.800   1.826   1.918  0.1190 -0.2512  0.5334
  970SOL    HW1 3878   1.853   1.761   1.969  0.7106  1.3595  1.8121
  970SOL    HW2 3879   1.713   1.796   1.891  2.0327 -0.1377 -3.9072
  970SOL     MW 3880   1.796   1.814   1.921  0.4495 -0.0237  0.1162
  971SOL     OW 3881   1.769   3.034   2.412 -0.4898  0.3749 -0.3854
  971SOL    HW1 3882   1.811   3.003   2.331 -0.5082  1.1991  1.2618
  971SOL    HW2 3883   1.791   3.121   2.422  1.0280  0.8996 -0.9405
  971SOL     MW 3884   1.777   3.041   2.402 -0.2920  0.5529 -0.2413
  972SOL     OW 3885   0.281   2.826   2.445 -0.5176  0.3217 -0.5520
  972SOL    HW1 3886   0.353   2.764   2.453  0.1090 -1.4551  1.0019
  972SOL    HW2 3887   0.310   2.911   2.489  1.1537 -0.1254  1.0142
  972SOL     MW 3888   0.294   2.829   2.452 -0.2144  0.0283 -0.1403
  973SOL     OW 3889   2.585   3.037   2.142 -0.2311 -0.4558  0.2892
  973SOL    HW1 3890   2.594   2.943   2.115  0.4829  1.2112  1.0023
  973SOL    HW2 3891   2.599   3.087   2.061 -0.9778  1.6558  1.0387
  973SOL     MW 3892   2.588   3.031   2.128 -0.2354  0.0428  0.4822
  974SOL     OW 3893   1.964   0.138   2.624 -0.5678 -0.2032 -0.3550
  974SOL    HW1 3894   2.060   0.139   2.647 -0.0043  0.1520 -0.3219
  974SOL    HW2 3895   1.927   0.058   2.655 -0.5077 -0.4683 -1.1525
  974SOL     MW 3896   1.972   0.128   2.631 -0.4855 -0.1913 -0.4558
  975SOL     OW 3897   2.215   2.485   2.500 -0.0270  0.2820  0.0427
  975SOL    HW1 3898   2.286   2.546   2.512  1.1235 -0.7659  4.1034
  975SOL    HW2 3899   2.141   2.532   2.454 -0.7844  1.2105  1.0679
  975SOL     MW 3900   2.215   2.499   2.495  0.0249  0.2662  0.7138
  976SOL     OW 3901   0.170   0.376   1.699 -0.1138  0.5177 -0.4895
  976SOL    HW1 3902   0.247   0.325   1.700  1.8241  0.3864  0.8335
  976SOL    HW2 3903   0.100   0.309   1.716  1.2043  0.5651 -2.5673
  976SOL     MW 3904   0.171   0.361   1.702  0.3158  0.5066 -0.5891
  977SOL     OW 3905   1.708   2.706   2.434  0.2083  0.1005 -0.4881
  977SOL    HW1 3906   1.788   2.652   2.431 -0.3661  0.7134 -0.6204
  977SOL    HW2 3907   1.729   2.799   2.413 -5.7068  0.0472 -1.4510
  977SOL     MW 3908   1.722   2.711   2.431 -0.6480  0.1743 -0.6326
   3.10000   3.10000   3.10000
