977 TIP4P/2005f water molecules t=   1.11000 step= 1110
 3908
    1SOL     OW    1   0.412   0.784   0.011  0.4607  0.0175 -0.7272
    1SOL    HW1    2   0.386   0.812  -0.074 -2.7515 -0.9087  2.0958
    1SOL    HW2    3   0.339   0.726   0.040 -0.8950 -1.7230  0.7890
    1SOL     MW    4   0.399   0.780   0.004 -0.1420 -0.3343 -0.1547
    2SOL     OW    5   0.334   3.047   1.173 -0.1548 -0.4402 -0.1926
    2SOL    HW1    6   0.377   3.122   1.129 -0.5031  2.3033 -2.5152
    2SOL    HW2    7   0.252   3.092   1.199  1.6746  1.5722 -1.1488
    2SOL     MW    8   0.329   3.063   1.170  0.0406  0.1873 -0.6252
    3SOL     OW    9   2.594   0.427   0.987 -0.6275 -0.5739  0.2934
    3SOL    HW1   10   2.645   0.477   0.936 -2.6463 -2.7739 -0.4141
    3SOL    HW2   11   2.597   0.478   1.069  0.7232 -0.8138 -1.7250
    3SOL     MW   12   2.601   0.440   0.991 -0.7156 -0.8958 -0.0662
    4SOL     OW   13   2.936   1.698   0.533  0.0384  0.4767 -0.4440
    4SOL    HW1   14   2.861   1.756   0.508 -0.9793  2.7012 -0.9615
    4SOL    HW2   15   2.998   1.681   0.463 -0.1430  2.2762  0.4090
    4SOL     MW   16   2.935   1.703   0.521 -0.1198  1.0076 -0.3998
    5SOL     OW   17   1.720   1.491   0.524 -0.3162  0.3211  0.0042
    5SOL    HW1   18   1.750   1.437   0.595 -2.5426 -0.5288  2.3945
    5SOL    HW2   19   1.620   1.487   0.538 -0.1129 -0.6733 -2.2567
    5SOL     MW   20   1.711   1.484   0.535 -0.5831  0.0778  0.0213
    6SOL     OW   21   0.802   1.354   0.584 -0.0853 -0.6130  0.2426
    6SOL    HW1   22   0.716   1.382   0.620  0.9708  0.0530  1.2437
    6SOL    HW2   23   0.834   1.280   0.635  0.5210  0.2064  0.8376
    6SOL     MW   24   0.795   1.348   0.596  0.1340 -0.4170  0.4532
    7SOL     OW   25   2.080   1.022   0.019  0.0566  0.1033  0.3137
    7SOL    HW1   26   2.065   1.091  -0.049  0.2529  2.2363  0.7796
    7SOL    HW2   27   2.138   1.067   0.078  1.2451 -0.1824 -0.1540
    7SOL     MW   28   2.085   1.037   0.018  0.2393  0.3470  0.3135
    8SOL     OW   29   0.907   1.452   1.172  0.1825  0.2707  0.1368
    8SOL    HW1   30   1.002   1.465   1.186  0.2536  0.7997  0.5132
    8SOL    HW2   31   0.887   1.363   1.190  1.2447  1.2801  0.1776
    8SOL     MW   32   0.917   1.442   1.177  0.3321  0.4737  0.1919
    9SOL     OW   33   1.004   0.524   1.394  0.0305 -0.0669 -0.1078
    9SOL    HW1   34   0.969   0.447   1.340 -2.6125 -0.4966  1.8139
    9SOL    HW2   35   1.038   0.482   1.472  0.0946 -0.8795 -2.2527
    9SOL     MW   36   1.004   0.508   1.397 -0.3098 -0.2308 -0.1373
   10SOL     OW   37   0.218   0.772   0.478  0.3953  0.1816  0.2760
   10SOL    HW1   38   0.309   0.813   0.475  1.1265  1.9224  1.2698
   10SOL    HW2   39   0.189   0.811   0.565 -0.9926 -0.8389 -0.9864
   10SOL     MW   40   0.226   0.782   0.489  0.3087  0.2766  0.2405
   11SOL     OW   41   0.809   1.144   1.608 -0.2383  0.1362 -0.3498
   11SOL    HW1   42   0.863   1.099   1.675 -3.7940 -2.0664 -3.0742
   11SOL    HW2   43   0.816   1.084   1.539  1.5017  0.0318  1.0068
   11SOL     MW   44   0.817   1.130   1.607 -0.4779 -0.1682 -0.5303
   12SOL     OW   45   0.016   1.068   0.885 -0.0978 -0.6409  0.2784
   12SOL    HW1   46   0.054   1.116   0.956 -0.7005 -2.7891  3.5262
   12SOL    HW2   47  -0.008   1.128   0.819 -1.7926  1.6552  1.9658
   12SOL     MW   48   0.018   1.082   0.885 -0.4010 -0.6214  0.9295
   13SOL     OW   49   1.846   1.437   1.336  0.6754 -0.1827  0.3583
   13SOL    HW1   50   1.899   1.377   1.290 -2.8432 -1.1283 -1.1835
   13SOL    HW2   51   1.869   1.529   1.314 -1.9383  0.3423  0.9656
   13SOL     MW   52   1.856   1.441   1.327 -0.1337 -0.2382  0.2350
   14SOL     OW   53   0.565   0.392   1.866 -0.3436 -0.5320 -0.0658
   14SOL    HW1   54   0.505   0.316   1.854 -0.1167  1.1727 -0.3688
   14SOL    HW2   55   0.642   0.377   1.822 -1.5361  2.1525  0.7955
   14SOL     MW   56   0.567   0.380   1.859 -0.4710  0.0471  0.0079
   15SOL     OW   57   1.971   0.352   1.051  0.1677 -0.1090 -0.0126
   15SOL    HW1   58   1.933   0.427   1.098  0.1015  2.6795 -2.1039
   15SOL    HW2   59   2.037   0.389   0.990  1.1638 -0.8735  2.4757
   15SOL     MW   60   1.975   0.367   1.049  0.2904  0.1580  0.0398
   16SOL     OW   61   0.190   1.795   0.316  0.1311 -0.1274 -0.4602
   16SOL    HW1   62   0.289   1.784   0.312 -0.2719 -0.1917 -0.8457
   16SOL    HW2   63   0.175   1.888   0.335 -2.8072  1.7921  0.2159
   16SOL     MW   64   0.201   1.806   0.318 -0.3098  0.1174 -0.4219
   17SOL     OW   65   1.078   0.929   1.447 -0.4979  0.0830 -0.1536
   17SOL    HW1   66   1.124   0.885   1.517 -2.9919  1.0717  0.0876
   17SOL    HW2   67   0.986   0.918   1.474  0.2308 -1.5345 -0.6188
   17SOL     MW   68   1.072   0.922   1.460 -0.7308  0.0001 -0.1832
   18SOL     OW   69   0.038   1.572   0.393  0.4216  0.2514 -1.1261
   18SOL    HW1   70   0.085   1.648   0.365  0.2357 -3.2126  0.3917
   18SOL    HW2   71  -0.000   1.538   0.314 -0.2229 -1.0994  2.7325
   18SOL     MW   72   0.039   1.578   0.379  0.3120 -0.3839 -0.4168
   19SOL     OW   73   0.083   1.288   1.038 -0.3438  0.3174  0.0159
   19SOL    HW1   74   0.116   1.328   0.950 -2.9232 -3.3047  0.1848
   19SOL    HW2   75  -0.011   1.313   1.050 -1.1750  0.1260 -1.9036
   19SOL     MW   76   0.075   1.297   1.028 -0.7938 -0.1857 -0.2151
   20SOL     OW   77   0.450   2.159   1.179  0.2119  0.4090  0.4450
   20SOL    HW1   78   0.410   2.082   1.140  1.0696 -0.7676 -1.6944
   20SOL    HW2   79   0.404   2.186   1.263 -1.0993 -0.9132 -0.8041
   20SOL     MW   80   0.439   2.153   1.185  0.1521  0.0793 -0.0020
   21SOL     OW   81   0.456   0.873   0.423  0.3644  0.3462 -0.0019
   21SOL    HW1   82   0.511   0.838   0.496 -0.2556 -0.8248 -0.4234
   21SOL    HW2   83   0.508   0.856   0.347 -0.2443 -2.9573  0.8167
   21SOL     MW   84   0.470   0.866   0.423  0.2023 -0.2442  0.0505
   22SOL     OW   85   1.586   0.649   1.041 -0.6028  0.4199 -0.1255
   22SOL    HW1   86   1.539   0.623   0.964  0.3951  1.4034  1.2737
   22SOL    HW2   87   1.541   0.722   1.075  1.7836 -0.7621  0.4677
   22SOL     MW   88   1.574   0.655   1.035 -0.1563  0.3937  0.1374
   23SOL     OW   89   3.042   0.691   0.691 -0.4600  0.0404  0.7431
   23SOL    HW1   90   3.083   0.614   0.740 -0.6161 -2.3775  1.0839
   23SOL    HW2   91   3.111   0.756   0.676  1.6207 -1.3828  0.4345
   23SOL     MW   92   3.056   0.690   0.695 -0.2061 -0.4664  0.7474
   24SOL     OW   93   2.022   2.198   0.032 -0.1578  0.1224  0.4684
   24SOL    HW1   94   2.026   2.195   0.128  4.7115 -1.1028 -0.8414
   24SOL    HW2   95   2.034   2.102   0.010  0.3079 -1.4846 -1.3582
   24SOL     MW   96   2.024   2.185   0.042  0.5461 -0.2513  0.0546
   25SOL     OW   97   0.229   1.422   0.566 -0.4273 -0.1564 -0.3491
   25SOL    HW1   98   0.166   1.470   0.517  1.6373  0.6784  0.5509
   25SOL    HW2   99   0.312   1.446   0.538  1.2158  1.2313  1.5374
   25SOL     MW  100   0.231   1.431   0.556  0.0619  0.1368  0.0186
   26SOL     OW  101   2.091   1.058   0.333 -0.5034  0.2719 -0.3204
   26SOL    HW1  102   2.023   1.101   0.385 -2.5857 -1.7004 -1.2678
   26SOL    HW2  103   2.162   1.116   0.292 -1.6895 -1.2603 -1.7301
   26SOL     MW  104   2.092   1.071   0.334 -0.9346 -0.1905 -0.6314
   27SOL     OW  105   1.986   1.447   0.225 -0.2535  0.1773 -0.1716
   27SOL    HW1  106   1.915   1.514   0.229 -1.0073 -0.6674 -3.1109
   27SOL    HW2  107   2.036   1.457   0.306 -0.1179  3.3668 -1.3459
   27SOL     MW  108   1.984   1.457   0.236 -0.3351  0.4867 -0.7144
   28SOL     OW  109   0.441   0.995   1.958  0.2560 -0.0191  0.2139
   28SOL    HW1  110   0.460   0.993   2.046 -0.9697  0.8848 -3.5939
   28SOL    HW2  111   0.349   0.974   1.946  0.6451 -1.1627  1.1108
   28SOL     MW  112   0.432   0.992   1.968  0.1456 -0.0507 -0.1701
   29SOL     OW  113   0.206   1.447   0.865 -0.0851 -0.0794  0.5487
   29SOL    HW1  114   0.186   1.540   0.882 -1.1167 -1.8010 -1.1018
   29SOL    HW2  115   0.202   1.443   0.767 -0.1282 -0.6607 -0.6184
   29SOL     MW  116   0.203   1.459   0.854 -0.2269 -0.3833  0.1769
   30SOL     OW  117   0.807   1.198   1.239 -0.3882  0.1642  0.3702
   30SOL    HW1  118   0.727   1.201   1.295 -2.4572 -0.9869  1.9817
   30SOL    HW2  119   0.891   1.186   1.292  2.3206 -1.4760  0.2751
   30SOL     MW  120   0.807   1.197   1.253 -0.3038 -0.2041  0.5702
   31SOL     OW  121   0.448   0.259   0.160 -0.0910  0.1093 -0.2333
   31SOL    HW1  122   0.451   0.168   0.185 -1.4059 -2.0467 -0.5844
   31SOL    HW2  123   0.454   0.250   0.064 -1.1661  0.6187 -0.3999
   31SOL     MW  124   0.449   0.246   0.150 -0.4063 -0.1080 -0.3016
   32SOL     OW  125   2.823   0.963   1.187  0.2235 -0.2140 -0.0495
   32SOL    HW1  126   2.753   0.919   1.140 -2.1771  0.6618 -1.4391
   32SOL    HW2  127   2.908   0.928   1.160 -0.0642  0.8011  0.2005
   32SOL     MW  128   2.825   0.952   1.177 -0.1312  0.0355 -0.1999
   33SOL     OW  129   1.709   1.301   0.323 -0.4279 -0.0537 -0.1162
   33SOL    HW1  130   1.764   1.243   0.371 -1.3053  0.2176  1.6544
   33SOL    HW2  131   1.724   1.384   0.369 -1.5764  0.6167  1.3446
   33SOL     MW  132   1.718   1.304   0.336 -0.6952  0.0705  0.3101
   34SOL     OW  133   1.212   1.912   1.104 -0.1854  0.3022  0.0698
   34SOL    HW1  134   1.134   1.963   1.128 -0.5910  0.5515  0.1910
   34SOL    HW2  135   1.290   1.942   1.154  0.7311  2.0656  0.1985
   34SOL     MW  136   1.212   1.923   1.114 -0.1180  0.5678  0.1028
   35SOL     OW  137   0.388   0.153   1.858 -0.4027  0.0368 -0.1354
   35SOL    HW1  138   0.396   0.100   1.938 -1.4811  1.7162 -0.3063
   35SOL    HW2  139   0.445   0.114   1.791 -2.1171  1.0217  1.3931
   35SOL     MW  140   0.397   0.141   1.860 -0.7711  0.3883  0.0437
   36SOL     OW  141   1.967   1.964   0.606  0.0314  0.0394  0.0522
   36SOL    HW1  142   1.944   1.968   0.510  1.9130 -1.1863 -2.1318
   36SOL    HW2  143   1.970   1.871   0.622 -1.3823  0.5793 -1.9303
   36SOL     MW  144   1.964   1.952   0.595  0.0931 -0.0511 -0.4975
   37SOL     OW  145   1.795   1.971   0.959 -0.3803 -0.1276  0.1494
   37SOL    HW1  146   1.738   1.913   0.905  3.3586  0.9216  0.3209
   37SOL    HW2  147   1.734   2.040   0.990 -1.2470  0.2183 -0.1771
   37SOL     MW  148   1.780   1.972   0.956 -0.0014  0.0565  0.1290
   38SOL     OW  149   2.804   0.937   0.153 -0.2628 -0.1077  0.2544
   38SOL    HW1  150   2.823   0.948   0.248 -0.9056  1.2281  1.0689
   38SOL    HW2  151   2.891   0.924   0.119  0.7051 -1.1690  2.0815
   38SOL     MW  152   2.818   0.936   0.161 -0.2199 -0.0715  0.6029
   39SOL     OW  153   1.435   0.615   0.806 -0.0922 -0.1668  0.3593
   39SOL    HW1  154   1.393   0.530   0.828  0.4144 -0.9359 -0.2926
   39SOL    HW2  155   1.367   0.677   0.786  1.2728 -3.7006 -2.1794
   39SOL     MW  156   1.420   0.612   0.807  0.1547 -0.7345 -0.0617
   40SOL     OW  157   1.187   1.924   0.303 -0.1801 -0.0272 -0.2828
   40SOL    HW1  158   1.218   1.858   0.368 -1.4382 -0.0810  2.4023
   40SOL    HW2  159   1.155   2.001   0.352  1.2817  0.1752  1.9188
   40SOL     MW  160   1.187   1.925   0.318 -0.1532 -0.0076  0.3619
   41SOL     OW  161   0.567   0.514   1.590 -0.3203 -0.3930 -1.0347
   41SOL    HW1  162   0.652   0.559   1.597 -0.4809  0.0389 -1.0632
   41SOL    HW2  163   0.519   0.522   1.678  0.7176  1.3602 -1.7967
   41SOL     MW  164   0.572   0.521   1.603 -0.2046 -0.1047 -1.1390
   42SOL     OW  165   1.281   3.004   2.017 -0.3879 -0.1154  0.0873
   42SOL    HW1  166   1.190   3.006   2.041 -1.9921  0.8996  0.6661
   42SOL    HW2  167   1.329   2.937   2.072 -0.2088  1.6286  2.3797
   42SOL     MW  168   1.276   2.996   2.027 -0.5759  0.2486  0.4661
   43SOL     OW  169   1.528   0.117   1.694 -0.0283  0.0482  0.1712
   43SOL    HW1  170   1.573   0.065   1.623  0.5083  1.4477 -1.5320
   43SOL    HW2  171   1.445   0.069   1.711 -1.6245  1.1177  4.2832
   43SOL     MW  172   1.523   0.104   1.687 -0.1681  0.3739  0.4890
   44SOL     OW  173   1.113   0.799   1.012  0.4349 -0.2450 -0.8773
   44SOL    HW1  174   1.145   0.889   1.010  0.9374  0.2579  0.6291
   44SOL    HW2  175   1.102   0.780   1.102 -1.1607  1.2071  0.0495
   44SOL     MW  176   1.116   0.808   1.023  0.2907  0.0129 -0.5562
   45SOL     OW  177   1.238   0.761   0.629  0.1365  0.0995  0.1316
   45SOL    HW1  178   1.178   0.827   0.661 -0.1571 -0.8757 -0.6474
   45SOL    HW2  179   1.191   0.689   0.574 -2.7083 -0.4463 -2.3024
   45SOL     MW  180   1.224   0.760   0.626 -0.2776 -0.1012 -0.2923
   46SOL     OW  181   0.564   1.146   0.595  0.5578 -0.4389 -0.1979
   46SOL    HW1  182   0.533   1.140   0.503  2.3049  0.4435  0.1274
   46SOL    HW2  183   0.659   1.127   0.597  2.8657  0.2671  1.5129
   46SOL     MW  184   0.572   1.143   0.583  1.0928 -0.2293  0.0708
   47SOL     OW  185   0.228   2.030   1.975  0.3180 -1.0522 -0.4621
   47SOL    HW1  186   0.299   1.967   2.001  1.6786  0.9721 -1.2559
   47SOL    HW2  187   0.208   2.094   2.047  0.2616 -0.0007  1.1921
   47SOL     MW  188   0.234   2.030   1.988  0.4900 -0.6463 -0.3486
   48SOL     OW  189   1.073   0.507   1.076  0.3102  0.4913  0.5283
   48SOL    HW1  190   0.995   0.477   1.040  2.2592  0.8406  0.6951
   48SOL    HW2  191   1.080   0.602   1.048  1.8977  1.9594 -0.9333
   48SOL     MW  192   1.064   0.516   1.068  0.7768  0.7311  0.3575
   49SOL     OW  193   1.702   0.691   1.561 -0.6456 -0.2999  0.6217
   49SOL    HW1  194   1.686   0.635   1.643 -2.0511  0.0104  1.7737
   49SOL    HW2  195   1.769   0.647   1.511  0.4522 -1.3155  0.1401
   49SOL     MW  196   1.709   0.678   1.565 -0.6862 -0.3930  0.7102
   50SOL     OW  197   1.322   1.077   0.515 -0.2945  0.6312 -0.3140
   50SOL    HW1  198   1.280   1.125   0.587 -0.4461  0.6868 -0.7443
   50SOL    HW2  199   1.392   1.024   0.549 -1.3486 -0.0934 -0.0199
   50SOL     MW  200   1.325   1.077   0.529 -0.4536  0.5429 -0.3320
   51SOL     OW  201   0.353   2.931   0.907 -0.0113  0.5947 -0.0356
   51SOL    HW1  202   0.436   2.875   0.911  0.6794 -0.0258  0.3140
   51SOL    HW2  203   0.343   2.944   1.007  2.4553 -1.1273  1.7582
   51SOL     MW  204   0.363   2.925   0.921  0.4053  0.2856  0.2472
   52SOL     OW  205   0.791   1.715   0.412  0.5967  0.1510  0.1171
   52SOL    HW1  206   0.787   1.807   0.398 -0.1885 -1.9852 -0.1709
   52SOL    HW2  207   0.835   1.676   0.333  1.5244  1.7457  0.1922
   52SOL     MW  208   0.796   1.722   0.400  0.6155  0.0796  0.0890
   53SOL     OW  209   0.451   2.113   0.465  0.2835  0.5105 -0.4091
   53SOL    HW1  210   0.380   2.110   0.405 -0.4114  1.4329 -0.9746
   53SOL    HW2  211   0.449   2.203   0.512 -0.5449 -1.6810  3.7660
   53SOL     MW  212   0.442   2.125   0.464  0.0825  0.3430  0.0671
   54SOL     OW  213   1.996   0.931   0.799  0.0059 -0.3972  0.2721
   54SOL    HW1  214   2.034   0.936   0.711 -2.6045  0.4262 -1.0972
   54SOL    HW2  215   1.984   0.836   0.816  0.0902 -2.0826 -0.7428
   54SOL     MW  216   1.999   0.919   0.789 -0.3274 -0.5109 -0.0424
   55SOL     OW  217   0.545   1.562   1.612 -0.0878  0.3274 -0.2524
   55SOL    HW1  218   0.475   1.583   1.548 -0.7167  1.2955 -0.3658
   55SOL    HW2  219   0.613   1.503   1.579 -0.9420 -2.8143  1.1032
   55SOL     MW  220   0.545   1.557   1.599 -0.2835  0.0406 -0.0885
   56SOL     OW  221   0.615   0.843   0.185 -0.1841  0.3678 -0.2140
   56SOL    HW1  222   0.658   0.924   0.157  0.3116  0.9463  4.1267
   56SOL    HW2  223   0.554   0.824   0.113  2.3470  0.6828 -0.3228
   56SOL     MW  224   0.613   0.851   0.172  0.2153  0.4857  0.3444
   57SOL     OW  225   1.188   1.261   1.173  0.3761  0.4583 -0.2954
   57SOL    HW1  226   1.281   1.249   1.165  0.4722  2.2542 -1.9646
   57SOL    HW2  227   1.173   1.215   1.252  1.6172 -1.1204 -0.5838
   57SOL     MW  228   1.199   1.253   1.182  0.5525  0.4870 -0.5536
   58SOL     OW  229   0.519   1.244   1.353  0.0131  0.1866  0.1918
   58SOL    HW1  230   0.496   1.333   1.319 -0.2741 -0.8560 -0.7022
   58SOL    HW2  231   0.544   1.230   1.446  1.1968 -3.9078  0.0499
   58SOL     MW  232   0.519   1.254   1.361  0.1314 -0.4912  0.0551
   59SOL     OW  233   1.549   1.692   0.360 -0.1330  0.0984  0.0812
   59SOL    HW1  234   1.584   1.727   0.441 -0.4124  0.0861  1.0675
   59SOL    HW2  235   1.454   1.712   0.375  2.1122  1.2785  0.5254
   59SOL     MW  236   1.541   1.699   0.373  0.1264  0.2525  0.2699
   60SOL     OW  237   0.053   0.222   1.669 -0.3327  0.2651  0.5545
   60SOL    HW1  238  -0.031   0.251   1.684  2.0270 -2.4841 -3.4504
   60SOL    HW2  239   0.061   0.141   1.727  1.0821 -0.8783  0.9304
   60SOL     MW  240   0.043   0.215   1.679  0.1653 -0.2485  0.0757
   61SOL     OW  241   2.025   1.419   3.059 -0.8083 -0.3205  0.1510
   61SOL    HW1  242   2.019   1.423   3.159 -0.4770  0.3807  1.2355
   61SOL    HW2  243   2.102   1.362   3.034 -0.8129  0.0510 -3.7462
   61SOL     MW  244   2.034   1.412   3.069 -0.7652 -0.1789 -0.2201
   62SOL     OW  245   0.590   1.689   0.596  0.6281 -0.8681 -0.6347
   62SOL    HW1  246   0.668   1.714   0.544 -0.4647  1.8782  1.1921
   62SOL    HW2  247   0.581   1.601   0.588 -2.5396  0.7563  2.5545
   62SOL     MW  248   0.599   1.681   0.588  0.0659 -0.2914  0.0271
   63SOL     OW  249   1.687   0.689   0.714  0.2026  0.0579 -0.1569
   63SOL    HW1  250   1.722   0.764   0.663 -0.7567  0.9400  1.3027
   63SOL    HW2  251   1.591   0.699   0.705  0.3738 -0.5001  0.6370
   63SOL     MW  252   1.679   0.700   0.706  0.0987  0.1006  0.1404
   64SOL     OW  253   0.223   1.728   0.838 -0.1740  0.4198  0.4761
   64SOL    HW1  254   0.283   1.764   0.777 -0.6226  1.3270  2.2482
   64SOL    HW2  255   0.151   1.784   0.819  0.9718 -1.2506 -0.1667
   64SOL     MW  256   0.221   1.740   0.827 -0.0820  0.3191  0.6251
   65SOL     OW  257   1.589   2.310   0.411  0.1204 -0.1249  0.3279
   65SOL    HW1  258   1.656   2.257   0.457 -0.6449 -0.2360 -1.1687
   65SOL    HW2  259   1.533   2.349   0.479  0.2049 -1.9046 -1.0348
   65SOL     MW  260   1.591   2.308   0.426  0.0306 -0.3744 -0.0493
   66SOL     OW  261   0.294   0.518   0.540  0.3291 -0.0789 -0.2325
   66SOL    HW1  262   0.359   0.493   0.465  3.3630 -0.3620 -1.2116
   66SOL    HW2  263   0.267   0.609   0.515 -2.1470 -0.7440  1.0484
   66SOL     MW  264   0.299   0.527   0.527  0.4027 -0.2040 -0.1926
   67SOL     OW  265   1.478   0.087   1.990 -0.1768  0.7240 -0.4713
   67SOL    HW1  266   1.490   0.103   1.893 -1.1781  1.8637 -2.6804
   67SOL    HW2  267   1.415   0.012   1.991  1.6036 -3.9573  0.6728
   67SOL     MW  268   1.471   0.079   1.977 -0.0740  0.2567 -0.6118
   68SOL     OW  269   0.693   0.039   2.984  0.0153 -0.3140  0.0769
   68SOL    HW1  270   0.710   0.108   2.913  2.8488  0.5162 -0.6025
   68SOL    HW2  271   0.778   0.045   3.034  0.2331  1.4356 -1.3194
   68SOL     MW  272   0.706   0.049   2.981  0.4179  0.0264 -0.1970
   69SOL     OW  273   1.029   0.199   1.976 -0.3405  0.1379  0.2622
   69SOL    HW1  274   1.123   0.222   1.984 -1.2979  0.8969 -1.1082
   69SOL    HW2  275   1.015   0.111   2.012 -1.1068 -1.6015  1.0459
   69SOL     MW  276   1.040   0.190   1.981 -0.5679  0.0086  0.1848
   70SOL     OW  277   0.585   1.742   1.173 -0.1788  0.2120  0.3217
   70SOL    HW1  278   0.644   1.699   1.234 -2.8679  0.6753  0.1602
   70SOL    HW2  279   0.657   1.784   1.122  1.4041  2.1548  1.6660
   70SOL     MW  280   0.602   1.742   1.174 -0.3247  0.5294  0.4777
   71SOL     OW  281   1.591   0.467   1.242  0.1506  0.2350 -0.0050
   71SOL    HW1  282   1.546   0.538   1.295 -0.7155  1.0976 -1.3495
   71SOL    HW2  283   1.582   0.489   1.149  1.5851 -0.9275 -0.8296
   71SOL     MW  284   1.584   0.479   1.237  0.2256  0.1955 -0.2912
   72SOL     OW  285   0.791   1.854   1.015  0.1784  0.6095  0.3472
   72SOL    HW1  286   0.770   1.884   0.925  0.4948 -0.5701  2.0299
   72SOL    HW2  287   0.822   1.763   1.008  1.5696 -0.8365  0.8586
   72SOL     MW  288   0.793   1.846   1.002  0.4037  0.2631  0.6367
   73SOL     OW  289   1.180   0.740   1.290 -0.4019  0.5486  0.6892
   73SOL    HW1  290   1.122   0.667   1.303 -1.6966 -0.2355 -0.6496
   73SOL    HW2  291   1.128   0.814   1.333 -0.3308  1.4436  0.3658
   73SOL     MW  292   1.166   0.740   1.297 -0.5634  0.5632  0.4699
   74SOL     OW  293   2.753   0.194   1.073  0.3578 -0.0611  1.3674
   74SOL    HW1  294   2.811   0.169   1.005  0.3415 -0.6178 -0.4081
   74SOL    HW2  295   2.712   0.272   1.034  1.2308  0.8055  0.5739
   74SOL     MW  296   2.755   0.201   1.059  0.4708 -0.0202  1.0285
   75SOL     OW  297   1.546   1.456   0.148  0.3132  0.1136 -0.2313
   75SOL    HW1  298   1.589   1.530   0.103  0.6692  1.4611  1.5301
   75SOL    HW2  299   1.613   1.436   0.212 -2.2736 -0.1880 -1.1755
   75SOL     MW  300   1.560   1.463   0.150  0.0189  0.2516 -0.1235
   76SOL     OW  301   2.939   0.541   0.480  0.1763 -0.1771  0.0547
   76SOL    HW1  302   2.966   0.580   0.565 -0.1112  1.1721 -0.3466
   76SOL    HW2  303   3.019   0.512   0.441 -0.8295  0.6792 -0.7318
   76SOL     MW  304   2.953   0.542   0.486  0.0057  0.1139 -0.1020
   77SOL     OW  305   0.831   0.578   0.480  0.2024  0.0223 -0.1132
   77SOL    HW1  306   0.820   0.571   0.385 -0.2353  0.0861  0.2639
   77SOL    HW2  307   0.804   0.491   0.517 -0.1868 -0.0126  0.0879
   77SOL     MW  308   0.826   0.566   0.472  0.0933  0.0261 -0.0369
   78SOL     OW  309   0.755   0.900   1.234 -0.0054  0.1353 -0.6012
   78SOL    HW1  310   0.777   0.976   1.185  1.5149 -2.7761  1.4237
   78SOL    HW2  311   0.677   0.869   1.185  0.0462 -1.0651 -1.4377
   78SOL     MW  312   0.748   0.906   1.221  0.2020 -0.4072 -0.4444
   79SOL     OW  313   1.922   1.668   0.607 -0.6232 -0.1144  0.0894
   79SOL    HW1  314   1.841   1.630   0.572 -2.2057  0.2213 -3.5087
   79SOL    HW2  315   1.909   1.656   0.702 -0.5972 -1.4718  0.7711
   79SOL     MW  316   1.910   1.661   0.614 -0.8286 -0.2492 -0.2954
   80SOL     OW  317   0.068   0.937   0.315 -0.4073 -0.5366  0.0579
   80SOL    HW1  318  -0.025   0.920   0.342 -2.2625  0.6886  0.9417
   80SOL    HW2  319   0.129   0.898   0.374 -0.4854  0.3408 -1.1748
   80SOL     MW  320   0.063   0.930   0.326 -0.6624 -0.2592  0.0119
   81SOL     OW  321   1.899   1.865   0.307 -0.5816 -0.8779 -0.2857
   81SOL    HW1  322   1.866   1.773   0.296 -1.4267  0.1776  1.9970
   81SOL    HW2  323   1.838   1.927   0.256  1.7508  1.1017  1.6484
   81SOL     MW  324   1.887   1.861   0.299 -0.3854 -0.4774  0.2707
   82SOL     OW  325   0.806   1.006   0.548  0.1717 -0.1078 -0.1589
   82SOL    HW1  326   0.828   1.024   0.451 -2.4681  0.1521 -2.0174
   82SOL    HW2  327   0.755   0.931   0.555  0.8785  1.1034  0.2605
   82SOL     MW  328   0.803   0.999   0.536 -0.0833  0.0863 -0.3487
   83SOL     OW  329   0.066   0.681   1.443  0.3371  0.1140  0.1120
   83SOL    HW1  330   0.086   0.753   1.382 -1.6192  0.6205 -0.4211
   83SOL    HW2  331   0.142   0.625   1.434  0.5756 -0.8096  1.4059
   83SOL     MW  332   0.078   0.683   1.434  0.1105  0.0590  0.2124
   84SOL     OW  333   0.111   0.200   1.002 -0.1708 -0.2816 -0.6525
   84SOL    HW1  334   0.036   0.263   0.993 -0.1151  1.6245  0.9148
   84SOL    HW2  335   0.084   0.142   1.071 -2.3808  0.8816 -1.1067
   84SOL     MW  336   0.097   0.201   1.010 -0.4550  0.1233 -0.5056
   85SOL     OW  337   0.456   0.458   0.747 -0.2526  0.1108 -0.2162
   85SOL    HW1  338   0.409   0.494   0.668 -1.3672  0.7243 -2.5276
   85SOL    HW2  339   0.434   0.368   0.753  1.8536  3.4337 -0.5175
   85SOL     MW  340   0.447   0.451   0.738 -0.1217  0.6302 -0.5610
   86SOL     OW  341   1.172   0.233   1.106 -0.0323  0.2056  0.2168
   86SOL    HW1  342   1.119   0.308   1.103 -1.5673 -0.5414 -1.6881
   86SOL    HW2  343   1.256   0.253   1.147  0.6524  0.5030 -2.4625
   86SOL     MW  344   1.176   0.245   1.111 -0.1445  0.1462 -0.3881
   87SOL     OW  345   1.221   1.550   1.289 -0.6498 -0.1802 -0.7879
   87SOL    HW1  346   1.265   1.586   1.214  0.0313  0.2637 -0.1017
   87SOL    HW2  347   1.237   1.459   1.282 -0.1339  3.0165  2.8685
   87SOL     MW  348   1.229   1.543   1.279 -0.4919  0.3001 -0.2149
   88SOL     OW  349   1.191   1.068   0.952 -0.2238 -0.4694  0.1343
   88SOL    HW1  350   1.288   1.062   0.961  2.3810  0.2947 -0.5365
   88SOL    HW2  351   1.161   1.122   1.029  2.4620 -0.3278  1.4486
   88SOL     MW  352   1.200   1.074   0.964  0.4742 -0.3499  0.2192
   89SOL     OW  353   1.740   0.740   0.361  0.7711  0.3649  0.0920
   89SOL    HW1  354   1.731   0.644   0.377 -1.1630  1.3986  1.5330
   89SOL    HW2  355   1.827   0.744   0.312  0.0556  0.9024 -0.4434
   89SOL     MW  356   1.750   0.728   0.357  0.4215  0.5722  0.2115
   90SOL     OW  357   0.820   1.060   2.798 -0.2095  0.0167  0.4845
   90SOL    HW1  358   0.861   0.974   2.801 -1.4903  3.6476 -3.3321
   90SOL    HW2  359   0.827   1.112   2.875  1.3603 -1.0195  0.9304
   90SOL     MW  360   0.826   1.056   2.809 -0.1714  0.3590  0.0398
   91SOL     OW  361   2.147   0.673   0.451  0.3536 -0.3582  1.1277
   91SOL    HW1  362   2.223   0.717   0.412  2.9378  0.7709  2.1103
   91SOL    HW2  363   2.175   0.579   0.452 -3.0395 -2.9567  2.0065
   91SOL     MW  364   2.161   0.666   0.446  0.2469 -0.5520  1.3733
   92SOL     OW  365   1.749   0.917   0.567  0.1161 -0.3112 -0.0882
   92SOL    HW1  366   1.655   0.929   0.586  2.4519 -0.5444 -3.2017
   92SOL    HW2  367   1.755   0.847   0.497  0.4609  0.8273 -0.9014
   92SOL     MW  368   1.737   0.909   0.560  0.4698 -0.1917 -0.6063
   93SOL     OW  369   0.970   0.246   0.432 -0.0913 -0.7033  0.3025
   93SOL    HW1  370   0.880   0.268   0.457  0.6252  0.8191 -0.9392
   93SOL    HW2  371   0.975   0.277   0.339  1.4289  1.6891  0.0305
   93SOL     MW  372   0.959   0.253   0.423  0.2038 -0.1868  0.1028
   94SOL     OW  373   1.854   1.372   1.685  0.0453  0.0217 -0.2359
   94SOL    HW1  374   1.874   1.352   1.588  2.0988  1.3916  0.2527
   94SOL    HW2  375   1.817   1.291   1.722  3.6393 -0.2114  0.2758
   94SOL     MW  376   1.852   1.359   1.677  0.7904  0.1717 -0.1039
   95SOL     OW  377   0.800   1.579   0.954  0.2554 -0.6777 -0.1013
   95SOL    HW1  378   0.837   1.534   1.028  0.2042 -3.5274  0.0116
   95SOL    HW2  379   0.710   1.541   0.949 -1.4868  0.3888  2.8287
   95SOL     MW  380   0.793   1.568   0.963  0.0188 -0.9130  0.3002
   96SOL     OW  381   1.272   1.877   1.676  1.1801 -0.0892 -0.0670
   96SOL    HW1  382   1.194   1.889   1.725  0.6235 -0.7129 -2.8458
   96SOL    HW2  383   1.284   1.789   1.666  0.1336  1.4033  3.4071
   96SOL     MW  384   1.264   1.867   1.681  0.9686  0.0254  0.0247
   97SOL     OW  385   1.193   1.454   0.851 -0.6182 -0.2877  0.6193
   97SOL    HW1  386   1.217   1.512   0.923 -0.6813 -1.6062  1.2509
   97SOL    HW2  387   1.103   1.477   0.807 -0.2185  1.0583 -1.1715
   97SOL     MW  388   1.184   1.465   0.854 -0.5738 -0.2841  0.4664
   98SOL     OW  389   1.437   1.286   1.075  0.2129 -0.0724  0.6224
   98SOL    HW1  390   1.493   1.329   1.135 -1.8315 -0.1354  2.1957
   98SOL    HW2  391   1.389   1.348   1.016  0.3157  0.7006  2.7357
   98SOL     MW  392   1.438   1.300   1.075 -0.0433  0.0213  1.1088
   99SOL     OW  393   1.380   0.301   1.280 -0.0297 -1.1087 -0.1552
   99SOL    HW1  394   1.470   0.345   1.287 -0.7129 -0.3286 -0.6814
   99SOL    HW2  395   1.335   0.343   1.355 -1.4419  0.6474 -0.7081
   99SOL     MW  396   1.386   0.313   1.291 -0.3062 -0.7741 -0.2975
  100SOL     OW  397   1.048   1.184   1.390 -0.1859  0.3796 -0.2235
  100SOL    HW1  398   1.020   1.210   1.482 -0.0041  0.2848  0.2281
  100SOL    HW2  399   1.069   1.088   1.412  0.1461  1.3968  3.1666
  100SOL     MW  400   1.047   1.175   1.405 -0.1181  0.5013  0.2834
  101SOL     OW  401   0.507   1.170   0.328 -0.3655  0.4670 -0.7800
  101SOL    HW1  402   0.451   1.095   0.320  1.2097  0.2109 -3.3205
  101SOL    HW2  403   0.586   1.141   0.273  2.2705 -0.7671 -0.4138
  101SOL     MW  404   0.510   1.157   0.320  0.1902  0.2704 -1.0669
  102SOL     OW  405   2.882   0.655   0.996  0.4602 -0.1026 -1.1505
  102SOL    HW1  406   2.949   0.717   1.010  1.3479 -0.5685  1.7266
  102SOL    HW2  407   2.866   0.634   1.091  0.3359 -4.1429 -0.4372
  102SOL     MW  408   2.889   0.660   1.011  0.5609 -0.6972 -0.6768
  103SOL     OW  409   1.678   0.296   1.869 -0.1151 -0.0694 -0.0926
  103SOL    HW1  410   1.654   0.223   1.818  2.3485  2.0220 -0.4538
  103SOL    HW2  411   1.666   0.272   1.966 -1.4041  0.3926  0.5902
  103SOL     MW  412   1.674   0.283   1.875  0.0398  0.2675 -0.0502
  104SOL     OW  413   0.145   1.517   1.609  0.0664 -0.6146  0.4242
  104SOL    HW1  414   0.188   1.438   1.615  1.4613 -0.6105  0.5328
  104SOL    HW2  415   0.049   1.494   1.616 -0.3604 -0.4680 -1.1122
  104SOL     MW  416   0.138   1.504   1.611  0.1941 -0.5947  0.2358
  105SOL     OW  417   0.059   1.231   0.399 -0.3097 -0.2540 -0.2992
  105SOL    HW1  418   0.088   1.145   0.393  3.4864 -0.7163 -0.2045
  105SOL    HW2  419   0.130   1.277   0.442  0.1067 -0.3950  0.2252
  105SOL     MW  420   0.072   1.225   0.404  0.2461 -0.3336 -0.2175
  106SOL     OW  421   0.828   0.347   0.993 -0.1787 -0.0166  0.3979
  106SOL    HW1  422   0.762   0.409   0.959  0.4904  2.5927  2.5128
  106SOL    HW2  423   0.890   0.337   0.917 -1.7153  0.3214 -0.4422
  106SOL     MW  424   0.827   0.354   0.979 -0.2931  0.3723  0.5661
  107SOL     OW  425   0.798   2.190   2.921  0.3862  0.0590 -0.3973
  107SOL    HW1  426   0.718   2.156   2.876 -0.7692 -1.5366  2.8109
  107SOL    HW2  427   0.782   2.153   3.011  3.1231 -0.3674 -0.0055
  107SOL     MW  428   0.785   2.181   2.927  0.5949 -0.2078  0.0777
  108SOL     OW  429   1.320   1.618   1.633  0.0625  0.9508  0.0717
  108SOL    HW1  430   1.224   1.594   1.600 -0.2656  0.4504 -1.4942
  108SOL    HW2  431   1.375   1.588   1.556 -1.6385 -1.4658  0.3114
  108SOL     MW  432   1.314   1.611   1.619 -0.2052  0.5660 -0.1033
  109SOL     OW  433   1.978   0.771   0.262  0.0777  0.5330 -0.1646
  109SOL    HW1  434   2.024   0.847   0.231  0.8079  1.5595  1.7528
  109SOL    HW2  435   2.035   0.719   0.326 -2.2031 -1.1364 -0.3228
  109SOL     MW  436   1.992   0.774   0.266 -0.1269  0.4481  0.0675
  110SOL     OW  437   0.367   1.854   0.638  0.4234  0.4107 -0.3579
  110SOL    HW1  438   0.428   1.788   0.602 -1.9714  1.7562  0.6809
  110SOL    HW2  439   0.374   1.932   0.581  0.9691  1.6093 -0.2179
  110SOL     MW  440   0.376   1.856   0.626  0.1794  0.7464 -0.2024
  111SOL     OW  441   0.813   0.897   1.491 -0.3951 -0.1688 -0.3595
  111SOL    HW1  442   0.763   0.894   1.404 -0.4386  2.1703 -1.5974
  111SOL    HW2  443   0.818   0.810   1.529 -2.2762  1.7518 -0.4205
  111SOL     MW  444   0.807   0.885   1.485 -0.6490  0.3932 -0.5309
  112SOL     OW  445   1.294   1.118   1.635 -0.3943 -0.1147  0.0647
  112SOL    HW1  446   1.220   1.183   1.634  2.3296  2.7192 -0.3159
  112SOL    HW2  447   1.252   1.035   1.618 -1.4684  1.1995  0.1371
  112SOL     MW  448   1.279   1.116   1.633 -0.1766  0.4326  0.0241
  113SOL     OW  449   1.266   3.075   1.747 -0.1657 -0.1143 -0.2045
  113SOL    HW1  450   1.286   3.022   1.825  2.1448 -0.5444  1.3810
  113SOL    HW2  451   1.276   3.026   1.665  1.7533 -1.4377 -1.2239
  113SOL     MW  452   1.270   3.062   1.746  0.3924 -0.3457 -0.1298
  114SOL     OW  453   0.281   2.849   1.934 -0.5332  0.1130 -0.0463
  114SOL    HW1  454   0.283   2.917   1.995  0.6794 -1.3852  0.0745
  114SOL    HW2  455   0.310   2.885   1.850  0.4602 -1.8002  0.9321
  114SOL     MW  456   0.285   2.863   1.931 -0.2421 -0.3371  0.0987
  115SOL     OW  457   0.519   0.847   1.125 -0.2013  0.0337 -0.1143
  115SOL    HW1  458   0.520   0.754   1.162  2.0558 -0.8485  0.8813
  115SOL    HW2  459   0.473   0.907   1.191 -0.6741  0.3963  0.7580
  115SOL     MW  460   0.513   0.843   1.139  0.0341 -0.0349  0.1322
  116SOL     OW  461   0.799   1.074   0.971 -0.1329 -0.4326 -0.4256
  116SOL    HW1  462   0.831   1.103   0.887 -2.6055 -0.5303  2.1800
  116SOL    HW2  463   0.847   1.133   1.034  2.7469  0.5659  1.8924
  116SOL     MW  464   0.810   1.085   0.968 -0.0792 -0.3138  0.2240
  117SOL     OW  465   1.190   1.202   0.726 -0.0657 -0.1945  0.0412
  117SOL    HW1  466   1.182   1.151   0.814 -1.0242  2.7765 -0.4424
  117SOL    HW2  467   1.209   1.291   0.750  0.3455  0.6680  0.6360
  117SOL     MW  468   1.191   1.207   0.741 -0.1379  0.3113  0.0559
  118SOL     OW  469   3.032   2.964   1.666  0.0647 -0.3654 -0.2721
  118SOL    HW1  470   3.089   3.014   1.726  2.0683  2.3999 -0.8733
  118SOL    HW2  471   2.942   3.005   1.687 -1.8889  0.5565 -4.6096
  118SOL     MW  472   3.028   2.976   1.677  0.0713  0.1211 -0.9237
  119SOL     OW  473   0.471   1.471   1.214 -0.2242  0.5669 -0.9376
  119SOL    HW1  474   0.513   1.544   1.164  1.6373  0.6469  0.4771
  119SOL    HW2  475   0.375   1.471   1.204  0.7544  1.5090  0.4259
  119SOL     MW  476   0.464   1.481   1.206  0.1505  0.7018 -0.5711
  120SOL     OW  477   0.303   0.760   0.957  0.4011  0.4687 -0.1757
  120SOL    HW1  478   0.268   0.711   1.032 -0.8418  2.8076 -0.0212
  120SOL    HW2  479   0.388   0.788   0.988 -0.6636 -0.6616  1.0602
  120SOL     MW  480   0.310   0.757   0.971  0.0966  0.6281  0.0077
  121SOL     OW  481   1.748   1.129   1.722  0.5806 -0.2766 -0.7121
  121SOL    HW1  482   1.652   1.115   1.753  0.6025  2.3550 -1.2219
  121SOL    HW2  483   1.752   1.082   1.643 -2.1258  0.7878 -0.5651
  121SOL     MW  484   1.736   1.121   1.716  0.2264  0.2111 -0.7600
  122SOL     OW  485   0.134   0.535   0.801  0.2493 -0.4054  0.0720
  122SOL    HW1  486   0.165   0.488   0.723 -2.0727 -2.0135 -0.0937
  122SOL    HW2  487   0.202   0.603   0.819  1.9725  0.6692 -1.6465
  122SOL     MW  488   0.147   0.538   0.793  0.1703 -0.4758 -0.1766
  123SOL     OW  489   1.909   1.138   0.501  0.0269 -0.2117 -0.0739
  123SOL    HW1  490   1.851   1.060   0.513 -1.3747  0.7959 -0.4370
  123SOL    HW2  491   1.955   1.160   0.583  1.2465 -0.9558  0.5018
  123SOL     MW  492   1.907   1.131   0.513  0.0029 -0.1769 -0.0459
  124SOL     OW  493   0.644   0.568   0.943 -0.9156  0.2243 -0.1998
  124SOL    HW1  494   0.595   0.538   0.868  1.4778  1.6780 -2.0567
  124SOL    HW2  495   0.674   0.662   0.932 -0.4143 -0.5897  1.6014
  124SOL     MW  496   0.642   0.576   0.932 -0.5337  0.3087 -0.2071
  125SOL     OW  497   0.652   1.779   1.718  0.3994 -0.5602 -0.2898
  125SOL    HW1  498   0.598   1.703   1.687 -0.9790  1.5253  2.0953
  125SOL    HW2  499   0.597   1.853   1.724 -1.4059  2.5062 -1.5272
  125SOL     MW  500   0.638   1.779   1.715 -0.0206  0.1195 -0.1384
  126SOL     OW  501   2.097   1.588   1.961  0.5159 -0.0864  0.0553
  126SOL    HW1  502   2.123   1.679   1.980  1.6447  0.9147 -2.6660
  126SOL    HW2  503   2.171   1.531   1.979  0.2765 -0.5327  0.9081
  126SOL     MW  504   2.110   1.593   1.966  0.6332 -0.0132 -0.1912
  127SOL     OW  505   0.616   0.791   1.818 -0.2087 -0.0072  0.5300
  127SOL    HW1  506   0.694   0.769   1.869  1.3125 -0.7922 -0.0391
  127SOL    HW2  507   0.569   0.863   1.859 -1.9662 -0.5022  1.5222
  127SOL     MW  508   0.620   0.798   1.830 -0.2399 -0.1761  0.5858
  128SOL     OW  509   1.749   0.726   2.921 -0.7926 -0.1496 -0.2718
  128SOL    HW1  510   1.750   0.683   2.833 -1.4224  0.4126  0.9698
  128SOL    HW2  511   1.746   0.818   2.895 -0.4742  1.3862  1.1871
  128SOL     MW  512   1.749   0.733   2.906 -0.8337  0.1272  0.0845
  129SOL     OW  513   1.585   0.949   0.187  0.5645  0.0347 -0.4456
  129SOL    HW1  514   1.550   0.864   0.158  1.2852 -1.3970 -1.2080
  129SOL    HW2  515   1.636   0.914   0.261  1.8889  1.1434  0.7346
  129SOL     MW  516   1.587   0.933   0.193  0.8343 -0.0079 -0.3905
  130SOL     OW  517   0.748   1.383   0.320 -0.0985  0.5587  0.0683
  130SOL    HW1  518   0.747   1.395   0.419 -1.3999  0.4148 -0.1719
  130SOL    HW2  519   0.816   1.446   0.290  1.9329  2.8215  0.3805
  130SOL     MW  520   0.757   1.393   0.329 -0.0022  0.8382  0.0778
  131SOL     OW  521   3.039   0.830   0.028  0.3504  0.2054  0.0729
  131SOL    HW1  522   3.043   0.868  -0.057 -0.1071 -1.6221  2.6466
  131SOL    HW2  523   3.133   0.814   0.053  1.2680  1.2595 -0.7520
  131SOL     MW  524   3.052   0.833   0.020  0.4111  0.1034  0.3036
  132SOL     OW  525   2.671   0.128   1.333 -0.2078  0.5455  0.4270
  132SOL    HW1  526   2.722   0.144   1.246 -0.3574  0.2452 -0.9131
  132SOL    HW2  527   2.588   0.084   1.308 -0.2603 -1.3236  0.7205
  132SOL     MW  528   2.667   0.124   1.318 -0.2344  0.2593  0.2889
  133SOL     OW  529   1.056   0.168   1.696  0.0353 -0.3299  0.5309
  133SOL    HW1  530   1.125   0.101   1.704 -1.5276 -2.8361 -2.1410
  133SOL    HW2  531   1.037   0.190   1.789 -2.6186 -0.3195 -0.7413
  133SOL     MW  532   1.063   0.162   1.709 -0.5211 -0.6592  0.0105
  134SOL     OW  533   1.418   2.528   1.406  0.0504  0.1863  0.1090
  134SOL    HW1  534   1.342   2.573   1.377  3.2477  1.4033 -0.2294
  134SOL    HW2  535   1.434   2.555   1.496  0.1479  0.4585  0.6077
  134SOL     MW  536   1.410   2.537   1.414  0.4851  0.3828  0.1302
  135SOL     OW  537   2.991   0.987   2.907 -0.1336  0.3976 -0.3996
  135SOL    HW1  538   3.076   1.039   2.924  1.1767  3.3781 -0.3745
  135SOL    HW2  539   2.928   1.060   2.903  1.7477  0.2477  0.1052
  135SOL     MW  540   2.994   1.004   2.909  0.2875  0.7711 -0.3297
  136SOL     OW  541   0.175   2.013   0.798  0.2277 -0.1014 -0.0695
  136SOL    HW1  542   0.087   1.975   0.782 -1.5228 -0.7825 -0.6896
  136SOL    HW2  543   0.231   1.987   0.724 -0.6752  0.8462  0.2618
  136SOL     MW  544   0.171   2.004   0.786 -0.1224 -0.0662 -0.1076
  137SOL     OW  545   0.700   2.026   0.530 -0.5340 -0.4432 -0.0546
  137SOL    HW1  546   0.715   2.027   0.628  0.4682 -1.2841  2.2482
  137SOL    HW2  547   0.608   2.057   0.524 -1.2767  1.0196 -2.5368
  137SOL     MW  548   0.690   2.031   0.542 -0.4997 -0.3612 -0.0783
  138SOL     OW  549   0.506   0.588   1.168 -0.4747  0.2138 -0.2591
  138SOL    HW1  550   0.424   0.543   1.166  0.5741 -1.2323  0.5212
  138SOL    HW2  551   0.546   0.572   1.078  1.5897  1.1988 -0.2119
  138SOL     MW  552   0.501   0.580   1.156 -0.0640  0.1529 -0.1499
  139SOL     OW  553   2.812   0.615   1.261  0.0878 -0.6004 -0.6243
  139SOL    HW1  554   2.872   0.543   1.286  2.0167 -1.3207  1.7071
  139SOL    HW2  555   2.809   0.673   1.339 -0.5294 -1.3844 -0.6345
  139SOL     MW  556   2.820   0.613   1.274  0.2608 -0.7989 -0.3180
  140SOL     OW  557   0.939   0.435   2.054  0.2469  0.5230 -0.4104
  140SOL    HW1  558   0.952   0.344   2.040 -0.9504  2.0039  1.9696
  140SOL    HW2  559   0.926   0.452   2.149  2.2329 -1.0808 -0.3294
  140SOL     MW  560   0.939   0.425   2.065  0.3510  0.5068 -0.0857
  141SOL     OW  561   1.042   0.639   1.765 -0.5749 -0.9337 -0.4590
  141SOL    HW1  562   1.075   0.556   1.729  0.4231 -0.7256  0.0705
  141SOL    HW2  563   1.106   0.710   1.748  1.5745  0.1479  3.4780
  141SOL     MW  564   1.054   0.638   1.758 -0.1596 -0.7636  0.1303
  142SOL     OW  565   0.912   1.165   0.750 -0.6115 -0.1574  0.2810
  142SOL    HW1  566   0.902   1.092   0.686 -2.8131  3.3323  0.2316
  142SOL    HW2  567   1.006   1.182   0.758 -0.9616 -2.6385 -0.5500
  142SOL     MW  568   0.923   1.158   0.743 -0.9482 -0.0243  0.1648
  143SOL     OW  569   1.835   0.755   1.055 -0.4640 -0.0473  0.4392
  143SOL    HW1  570   1.900   0.737   0.990 -2.5407  0.2278 -0.5320
  143SOL    HW2  571   1.753   0.706   1.033  0.7481 -0.3891 -0.9559
  143SOL     MW  572   1.832   0.746   1.043 -0.5780 -0.0561  0.1270
  144SOL     OW  573   0.290   1.277   1.640  0.1759  0.6891  0.1754
  144SOL    HW1  574   0.369   1.220   1.627 -1.5243 -1.5773 -2.0793
  144SOL    HW2  575   0.268   1.274   1.735 -1.8176  1.9894 -0.7120
  144SOL     MW  576   0.297   1.269   1.651 -0.3114  0.5616 -0.2392
  145SOL     OW  577   0.236   0.497   1.174  0.8476 -0.0058  0.3147
  145SOL    HW1  578   0.299   0.446   1.226 -0.2158  0.5330 -0.6350
  145SOL    HW2  579   0.163   0.429   1.140 -3.3157  2.0069 -1.1060
  145SOL     MW  580   0.235   0.481   1.176  0.1580  0.3308  0.0019
  146SOL     OW  581   0.856   1.982   1.402  0.2620 -0.1167  0.3765
  146SOL    HW1  582   0.905   1.993   1.319 -1.7641 -0.1283 -2.3594
  146SOL    HW2  583   0.761   1.966   1.374 -0.3842 -0.6367  1.5354
  146SOL     MW  584   0.850   1.981   1.387 -0.0906 -0.1869  0.1684
  147SOL     OW  585   0.397   0.445   2.996 -0.6770 -0.0868  0.5338
  147SOL    HW1  586   0.319   0.440   3.047  0.4922 -0.2037  0.8883
  147SOL    HW2  587   0.404   0.538   2.969 -1.0637  1.0386 -1.2749
  147SOL     MW  588   0.388   0.457   3.000 -0.5738  0.0463  0.3420
  148SOL     OW  589   0.129   0.941   1.315  0.2071  0.8227  0.2604
  148SOL    HW1  590   0.224   0.950   1.331 -2.2458 -1.8002 -2.4003
  148SOL    HW2  591   0.100   1.003   1.380 -2.2282 -1.2984 -0.1895
  148SOL     MW  592   0.138   0.950   1.325 -0.4378  0.1968 -0.1500
  149SOL     OW  593   1.405   1.166   1.357  0.3622 -0.4451  0.2084
  149SOL    HW1  594   1.356   1.149   1.439  1.6054  1.0238  0.3060
  149SOL    HW2  595   1.470   1.236   1.378 -1.1719 -0.5170 -0.3423
  149SOL     MW  596   1.407   1.173   1.371  0.3238 -0.2608  0.1486
  150SOL     OW  597   1.769   1.355   0.765 -0.5088  0.5338 -0.1446
  150SOL    HW1  598   1.818   1.283   0.813 -2.9967  0.4936 -0.7473
  150SOL    HW2  599   1.785   1.429   0.824  0.6221 -2.0445 -0.8308
  150SOL     MW  600   1.778   1.355   0.779 -0.6878  0.1883 -0.3147
  151SOL     OW  601   1.665   1.782   0.832  0.1186  0.3360  0.1721
  151SOL    HW1  602   1.638   1.829   0.758  1.1020 -0.7654 -1.5126
  151SOL    HW2  603   1.605   1.702   0.836  1.4113 -1.1634 -1.3509
  151SOL     MW  604   1.654   1.778   0.823  0.4189 -0.0071 -0.2511
  152SOL     OW  605   0.779   1.407   1.550  0.0834 -0.0390  0.8236
  152SOL    HW1  606   0.812   1.319   1.557  0.9870  1.8173 -1.7655
  152SOL    HW2  607   0.828   1.452   1.618  3.1531 -0.3529  1.9729
  152SOL     MW  608   0.790   1.402   1.560  0.6077  0.1645  0.6336
  153SOL     OW  609   2.618   1.222   0.808 -0.0018  0.3902  0.4305
  153SOL    HW1  610   2.693   1.195   0.743  2.2976 -1.7715  0.3773
  153SOL    HW2  611   2.553   1.160   0.787  0.1929 -0.1834 -0.4523
  153SOL     MW  612   2.619   1.211   0.797  0.3273  0.0293  0.3070
  154SOL     OW  613   0.180   1.774   1.711 -0.1683 -0.5822  0.0672
  154SOL    HW1  614   0.132   1.689   1.705  1.6645  0.3344  2.7062
  154SOL    HW2  615   0.272   1.747   1.704 -2.0323 -1.3159 -2.6330
  154SOL     MW  616   0.186   1.759   1.709 -0.1724 -0.5581  0.0591
  155SOL     OW  617   1.190   0.653   0.239 -0.0215 -0.5948  0.1699
  155SOL    HW1  618   1.176   0.591   0.307 -2.0767  3.0095 -0.2732
  155SOL    HW2  619   1.144   0.733   0.270 -3.3061  0.9607 -2.3040
  155SOL     MW  620   1.182   0.656   0.252 -0.7261  0.0860 -0.2150
  156SOL     OW  621   1.502   3.030   1.100  0.2509 -0.8344 -0.4300
  156SOL    HW1  622   1.595   3.053   1.115  0.6439  1.6996  1.5190
  156SOL    HW2  623   1.500   2.937   1.115 -0.6768 -2.7128 -0.4008
  156SOL     MW  624   1.514   3.021   1.104  0.1804 -0.7479 -0.1690
  157SOL     OW  625   1.464   1.170   0.106 -0.6058  0.2946  0.1276
  157SOL    HW1  626   1.506   1.080   0.138  1.9748 -2.3964 -1.5184
  157SOL    HW2  627   1.537   1.227   0.126  1.1635 -1.1544  0.0615
  157SOL     MW  628   1.479   1.165   0.112 -0.0319 -0.2516 -0.0983
  158SOL     OW  629   0.482   1.614   2.222 -1.0251 -0.1569  0.1979
  158SOL    HW1  630   0.471   1.682   2.156  0.9770 -1.1662 -0.3762
  158SOL    HW2  631   0.412   1.634   2.285  0.0547 -2.6139 -2.5577
  158SOL     MW  632   0.471   1.626   2.221 -0.6185 -0.6143 -0.2414
  159SOL     OW  633   1.273   1.677   0.471 -0.1196  0.4914  0.1358
  159SOL    HW1  634   1.240   1.607   0.409 -1.3580 -0.5865  0.2237
  159SOL    HW2  635   1.192   1.699   0.518  1.1266 -0.5630 -1.9492
  159SOL     MW  636   1.258   1.670   0.469 -0.1186  0.2101 -0.1277
  160SOL     OW  637   0.521   1.104   1.620 -0.0809  0.0992 -0.2588
  160SOL    HW1  638   0.511   1.007   1.615  1.7720 -0.3388 -0.9231
  160SOL    HW2  639   0.612   1.118   1.644 -2.0390  1.2043 -0.8395
  160SOL     MW  640   0.531   1.093   1.622 -0.0948  0.1872 -0.4231
  161SOL     OW  641   0.504   2.282   2.551  0.1986 -0.2300 -0.4286
  161SOL    HW1  642   0.407   2.270   2.562 -1.1474 -0.1538  0.8676
  161SOL    HW2  643   0.529   2.208   2.494 -1.9682 -1.9477 -2.1798
  161SOL     MW  644   0.495   2.270   2.545 -0.2649 -0.4466 -0.4887
  162SOL     OW  645   1.070   1.783   1.909 -0.2758  0.3011  0.3864
  162SOL    HW1  646   1.091   1.868   1.955  3.3197 -0.2459 -2.1580
  162SOL    HW2  647   0.991   1.739   1.943  1.5602 -2.0928 -0.6231
  162SOL     MW  648   1.063   1.788   1.920  0.4408 -0.0869 -0.0825
  163SOL     OW  649   2.111   3.069   0.867  0.2958 -0.9248 -0.4806
  163SOL    HW1  650   2.083   3.148   0.808  0.8761  0.3603 -2.7351
  163SOL    HW2  651   2.104   2.991   0.812 -0.7538  1.8712 -1.1951
  163SOL     MW  652   2.106   3.069   0.852  0.2339 -0.3864 -0.8724
  164SOL     OW  653   0.328   0.209   0.799  0.0206  0.2265  0.3976
  164SOL    HW1  654   0.248   0.217   0.854 -0.2724 -0.8723  0.1204
  164SOL    HW2  655   0.318   0.136   0.746  0.8005  0.3574  1.6402
  164SOL     MW  656   0.316   0.200   0.799  0.0849  0.0988  0.5250
  165SOL     OW  657   1.367   1.307   0.352 -0.2002 -0.2868  0.1352
  165SOL    HW1  658   1.355   1.223   0.394  1.4916  2.7402 -0.2497
  165SOL    HW2  659   1.415   1.299   0.267  0.9804  2.6041  0.5627
  165SOL     MW  660   1.372   1.295   0.347  0.1788  0.4940  0.1408
  166SOL     OW  661   0.520   1.205   0.995 -0.1316 -0.2266 -0.1029
  166SOL    HW1  662   0.456   1.220   1.066  1.1861  1.2690 -1.5579
  166SOL    HW2  663   0.600   1.161   1.030  0.0599  0.5515 -1.7606
  166SOL     MW  664   0.522   1.201   1.009  0.0675  0.0734 -0.5136
  167SOL     OW  665   0.800   1.088   0.279  0.6541 -0.5898 -0.2106
  167SOL    HW1  666   0.792   1.181   0.287 -2.1757  1.5743  0.8252
  167SOL    HW2  667   0.884   1.091   0.237  1.0308 -1.8626  3.3147
  167SOL     MW  668   0.810   1.101   0.275  0.3304 -0.4722  0.3912
  168SOL     OW  669   1.685   1.659   3.031  0.0636 -0.5953 -0.6265
  168SOL    HW1  670   1.602   1.705   3.011  1.6202  4.1133  4.6913
  168SOL    HW2  671   1.683   1.571   2.994  1.5548  0.6987 -0.1640
  168SOL     MW  672   1.674   1.654   3.024  0.4657  0.1967  0.1362
  169SOL     OW  673   0.401   0.989   1.340 -0.4898  0.1956 -0.1451
  169SOL    HW1  674   0.450   0.950   1.414  1.3385 -0.2952 -1.7225
  169SOL    HW2  675   0.412   1.086   1.344 -0.2115  0.3615  0.4494
  169SOL     MW  676   0.409   0.997   1.350 -0.2119  0.1528 -0.2748
  170SOL     OW  677   1.093   1.563   1.522 -0.1987  0.4852 -0.0329
  170SOL    HW1  678   1.011   1.608   1.504  1.2526 -1.1823 -0.0763
  170SOL    HW2  679   1.134   1.547   1.436  0.6709 -0.4628 -1.5209
  170SOL     MW  680   1.088   1.567   1.508  0.1075  0.1401 -0.2350
  171SOL     OW  681   0.536   1.414   0.624  0.5478 -0.2520 -0.3303
  171SOL    HW1  682   0.538   1.446   0.715  0.3941  1.7547  0.6821
  171SOL    HW2  683   0.511   1.317   0.624  2.9107 -2.2768  0.9426
  171SOL     MW  684   0.533   1.405   0.636  0.8393 -0.2544 -0.0288
  172SOL     OW  685   0.883   0.297   1.281  0.3261 -0.7666  0.3091
  172SOL    HW1  686   0.852   0.274   1.194  0.9304 -2.7896 -1.7911
  172SOL    HW2  687   0.805   0.328   1.325  3.4866  1.5593 -0.3380
  172SOL     MW  688   0.869   0.298   1.275  0.8228 -0.7266 -0.0533
  173SOL     OW  689   0.448   1.709   0.331 -0.0954  0.8093 -0.5157
  173SOL    HW1  690   0.468   1.620   0.290 -1.4864  2.0924 -4.1602
  173SOL    HW2  691   0.509   1.723   0.397  0.0934 -0.4369 -1.6028
  173SOL     MW  692   0.459   1.699   0.334 -0.2540  0.8142 -1.1400
  174SOL     OW  693   1.860   0.931   1.522 -0.0181 -0.4534 -0.6176
  174SOL    HW1  694   1.814   0.847   1.542 -1.9483 -0.9471 -0.2276
  174SOL    HW2  695   1.850   0.944   1.428 -0.0138  0.4883 -2.4810
  174SOL     MW  696   1.853   0.922   1.512 -0.2722 -0.3943 -0.8120
  175SOL     OW  697   0.498   1.462   0.225  0.1191  0.2774  0.0827
  175SOL    HW1  698   0.447   1.379   0.219 -1.4979 -3.5693 -0.2461
  175SOL    HW2  699   0.572   1.429   0.266 -0.5226 -2.0173 -2.0668
  175SOL     MW  700   0.501   1.447   0.229 -0.1789 -0.5329 -0.2443
  176SOL     OW  701   0.206   1.487   1.169 -0.5271  0.1340  0.3882
  176SOL    HW1  702   0.168   1.410   1.115 -4.8894  0.6879 -1.1148
  176SOL    HW2  703   0.129   1.518   1.219  1.9353 -0.0812 -2.5066
  176SOL     MW  704   0.191   1.481   1.169 -0.7778  0.1787 -0.1921
  177SOL     OW  705   0.662   0.434   1.342 -1.0204 -0.4493 -0.1006
  177SOL    HW1  706   0.624   0.496   1.274  2.9472 -1.3862  1.2996
  177SOL    HW2  707   0.634   0.449   1.429 -0.2863 -1.7392 -0.5648
  177SOL     MW  708   0.653   0.444   1.344 -0.4001 -0.7431  0.0229
  178SOL     OW  709   3.059   0.579   2.943  0.1204  0.3021  0.4182
  178SOL    HW1  710   2.985   0.583   3.002 -0.2563 -0.1297 -2.1392
  178SOL    HW2  711   3.011   0.569   2.859  1.1815 -2.2340 -2.1274
  178SOL     MW  712   3.043   0.578   2.939  0.2107 -0.0895 -0.2551
  179SOL     OW  713   1.591   1.375   1.297 -0.3937  0.7746 -0.1871
  179SOL    HW1  714   1.555   1.410   1.380  2.1005 -2.2360 -0.2910
  179SOL    HW2  715   1.687   1.390   1.298 -1.0192 -0.7700  1.1166
  179SOL     MW  716   1.599   1.381   1.308 -0.1471  0.1736 -0.0288
  180SOL     OW  717   3.012   0.235   0.447 -0.4215  0.5365  0.5770
  180SOL    HW1  718   2.963   0.244   0.363 -0.5823  1.7534 -0.4063
  180SOL    HW2  719   3.083   0.306   0.439  0.7640  1.0165  1.4679
  180SOL     MW  720   3.015   0.246   0.435 -0.2863  0.7604  0.5648
  181SOL     OW  721   1.125   1.334   3.091 -0.3642  0.2277 -0.3906
  181SOL    HW1  722   1.174   1.413   3.105 -1.1214 -2.2537 -1.1373
  181SOL    HW2  723   1.183   1.274   3.043 -0.4470 -0.1101  1.2773
  181SOL     MW  724   1.139   1.336   3.086 -0.4751 -0.1443 -0.2690
  182SOL     OW  725   0.462   0.851   1.567 -0.8530 -0.1342 -0.2643
  182SOL    HW1  726   0.369   0.828   1.607  2.7803 -1.8240  2.2904
  182SOL    HW2  727   0.526   0.802   1.618 -2.4647  1.3413  1.6887
  182SOL     MW  728   0.458   0.841   1.579 -0.5863 -0.1625  0.3304
  183SOL     OW  729   1.593   1.596   1.147 -0.2548  0.7781  0.3906
  183SOL    HW1  730   1.530   1.655   1.181  2.3790 -0.0848  2.2655
  183SOL    HW2  731   1.587   1.519   1.203 -1.2837  0.7679  1.2271
  183SOL     MW  732   1.584   1.593   1.159 -0.0430  0.6629  0.7483
  184SOL     OW  733   0.838   0.678   1.959  0.2738  0.3018 -0.4457
  184SOL    HW1  734   0.910   0.681   1.896 -0.7885  0.4817  2.3076
  184SOL    HW2  735   0.845   0.585   1.988 -0.7160  0.7870 -1.7516
  184SOL     MW  736   0.849   0.666   1.954  0.0030  0.3896 -0.2547
  185SOL     OW  737   1.167   0.968   1.910 -0.6308  0.3170  0.0303
  185SOL    HW1  738   1.163   0.886   1.972  1.7022  0.1963 -0.0114
  185SOL    HW2  739   1.197   1.036   1.964 -0.9203 -1.1030 -0.7819
  185SOL     MW  740   1.170   0.966   1.925 -0.3612  0.1137 -0.0824
  186SOL     OW  741   0.370   1.668   1.413  0.3192 -0.9038 -0.4888
  186SOL    HW1  742   0.429   1.618   1.356 -0.6921  0.6926  1.4428
  186SOL    HW2  743   0.287   1.627   1.423  0.8892  0.6417  3.2901
  186SOL     MW  744   0.367   1.656   1.407  0.2610 -0.4893  0.2646
  187SOL     OW  745   1.467   0.711   1.334  0.7386  0.2893 -0.0873
  187SOL    HW1  746   1.443   0.728   1.426  2.8201 -0.2903 -0.5025
  187SOL    HW2  747   1.383   0.714   1.284  3.0429 -0.3683 -0.6962
  187SOL     MW  748   1.452   0.714   1.340  1.3173  0.1261 -0.2224
  188SOL     OW  749   1.884   1.168   0.901  0.0664  0.1065  0.0794
  188SOL    HW1  750   1.882   1.185   0.995  1.1070 -2.9760  0.2832
  188SOL    HW2  751   1.905   1.076   0.878  0.9630  0.4154  1.5719
  188SOL     MW  752   1.887   1.158   0.910  0.3220 -0.2594  0.3032
  189SOL     OW  753   0.657   0.841   0.853  0.3635 -0.1829  0.5357
  189SOL    HW1  754   0.564   0.868   0.856  3.3640 -0.2251 -2.6343
  189SOL    HW2  755   0.705   0.899   0.918  0.3702 -0.0912 -1.5451
  189SOL     MW  756   0.651   0.853   0.862  0.7603 -0.1764 -0.1571
  190SOL     OW  757   1.920   0.237   2.181 -0.3266 -0.1589  0.1637
  190SOL    HW1  758   1.935   0.259   2.272  3.7020  1.6578 -1.1135
  190SOL    HW2  759   1.982   0.293   2.124 -0.2638 -0.9186 -1.9866
  190SOL     MW  760   1.930   0.247   2.186  0.2132 -0.0195 -0.2885
  191SOL     OW  761   1.489   0.952   1.201  0.3181 -0.2647 -0.6749
  191SOL    HW1  762   1.460   1.025   1.258  1.2136 -1.6287 -1.4749
  191SOL    HW2  763   1.504   0.875   1.260  2.1111 -0.6956 -2.0156
  191SOL     MW  764   1.487   0.952   1.216  0.6728 -0.5015 -0.9573
  192SOL     OW  765   0.607   2.088   2.767 -0.5261 -0.3342 -0.3768
  192SOL    HW1  766   0.571   2.146   2.697  0.1006 -0.6453  1.7545
  192SOL    HW2  767   0.621   1.997   2.739  3.0027 -2.0481 -1.3036
  192SOL     MW  768   0.604   2.084   2.754  0.0222 -0.6014 -0.2179
  193SOL     OW  769   0.958   1.525   0.719 -0.8695  0.3502  0.0826
  193SOL    HW1  770   0.902   1.523   0.794  2.5310  2.4682  1.9145
  193SOL    HW2  771   0.898   1.479   0.650 -0.4862 -0.9470 -1.8268
  193SOL     MW  772   0.943   1.518   0.720 -0.3702  0.4585  0.0724
  194SOL     OW  773   0.532   1.490   0.940 -0.1410  0.1932  0.1675
  194SOL    HW1  774   0.540   1.398   0.964  0.6133 -0.9509  2.1117
  194SOL    HW2  775   0.437   1.499   0.930  0.4678 -0.5476 -1.0039
  194SOL     MW  776   0.520   1.479   0.941  0.0388 -0.0555  0.2695
  195SOL     OW  777   1.293   1.170   2.972 -0.0752  0.2442 -0.8222
  195SOL    HW1  778   1.355   1.152   3.041 -2.7373 -1.0039 -0.6883
  195SOL    HW2  779   1.258   1.080   2.968  0.2306 -0.2488  0.1319
  195SOL     MW  780   1.297   1.156   2.981 -0.3861  0.0145 -0.6787
  196SOL     OW  781   2.183   1.000   0.595  0.0150 -0.4331 -0.7515
  196SOL    HW1  782   2.153   0.973   0.514  2.0916  1.1539  1.2996
  196SOL    HW2  783   2.186   1.099   0.587 -1.5099  2.5003 -1.6635
  196SOL     MW  784   2.179   1.010   0.583  0.0878  0.1633 -0.6012
  197SOL     OW  785   0.662   1.313   2.104  0.3554  0.1284 -0.6275
  197SOL    HW1  786   0.691   1.224   2.066 -0.1589  1.4597  0.0892
  197SOL    HW2  787   0.604   1.356   2.035 -0.0806  2.7073  2.6438
  197SOL     MW  788   0.658   1.307   2.090  0.2300  0.6443 -0.1013
  198SOL     OW  789   2.936   1.377   1.055  0.0014 -0.0120 -0.1980
  198SOL    HW1  790   2.894   1.458   1.027 -0.4386 -0.8021 -0.6968
  198SOL    HW2  791   2.864   1.318   1.053 -0.1967 -0.5468 -0.6648
  198SOL     MW  792   2.921   1.380   1.051 -0.0828 -0.1868 -0.3254
  199SOL     OW  793   0.500   1.409   1.888  0.3353  0.1367 -0.0027
  199SOL    HW1  794   0.437   1.339   1.905 -1.1583 -1.2602 -0.2522
  199SOL    HW2  795   0.520   1.395   1.792  4.8773 -3.7224 -0.1728
  199SOL     MW  796   0.494   1.398   1.877  0.7375 -0.5567 -0.0580
  200SOL     OW  797   1.905   2.922   1.371 -0.0321 -0.5450  1.1026
  200SOL    HW1  798   1.919   2.933   1.275  0.5169 -0.0262 -2.1556
  200SOL    HW2  799   1.811   2.951   1.386 -0.2212  0.1631 -2.5399
  200SOL     MW  800   1.894   2.927   1.360  0.0154 -0.3831  0.1921
  201SOL     OW  801   1.028   0.295   0.807 -0.4900  0.7931 -0.3449
  201SOL    HW1  802   1.014   0.215   0.761 -1.4484  1.0404  2.1318
  201SOL    HW2  803   1.118   0.315   0.771  3.0794  2.3471  0.9313
  201SOL     MW  804   1.038   0.287   0.796 -0.1455  1.0308  0.1503
  202SOL     OW  805   1.525   1.555   0.903  0.0555  0.3087  0.1075
  202SOL    HW1  806   1.521   1.466   0.861  0.4902  0.2616 -1.8992
  202SOL    HW2  807   1.568   1.555   0.991 -1.4120  0.1929  0.4309
  202SOL     MW  808   1.530   1.543   0.909 -0.0807  0.2872 -0.1146
  203SOL     OW  809   2.995   0.442   1.371 -0.2778  0.6540  0.8050
  203SOL    HW1  810   3.054   0.360   1.356 -1.5070  0.7067  0.0415
  203SOL    HW2  811   3.057   0.514   1.362  2.0283 -1.4551  1.0231
  203SOL     MW  812   3.011   0.441   1.368 -0.1357  0.3827  0.7330
  204SOL     OW  813   1.021   1.767   0.566 -0.5869  0.0800  0.2752
  204SOL    HW1  814   1.006   1.706   0.636  0.5744 -0.6256  2.3363
  204SOL    HW2  815   0.949   1.754   0.505  0.2090  2.0636  0.2854
  204SOL     MW  816   1.010   1.758   0.567 -0.3287  0.2486  0.5485
  205SOL     OW  817   1.384   0.030   1.326 -0.2056  0.1441 -0.3437
  205SOL    HW1  818   1.435  -0.008   1.257 -0.0374 -2.9877  2.7357
  205SOL    HW2  819   1.387   0.126   1.311  3.9599  0.2391  2.5419
  205SOL     MW  820   1.391   0.037   1.315  0.3662 -0.2566  0.4433
  206SOL     OW  821   0.470   3.029   1.409  0.4605  0.5179 -0.7764
  206SOL    HW1  822   0.407   3.024   1.331 -0.5574 -0.6830  1.1048
  206SOL    HW2  823   0.531   2.952   1.402  1.3615 -0.5129  3.4213
  206SOL     MW  824   0.470   3.018   1.398  0.4451  0.2234  0.0257
  207SOL     OW  825   0.908   1.561   0.210  0.5002  0.3030 -0.4749
  207SOL    HW1  826   0.923   1.637   0.153 -1.6457  3.5158  1.4520
  207SOL    HW2  827   0.998   1.522   0.226 -1.3367 -0.2162  0.4935
  207SOL     MW  828   0.922   1.566   0.205 -0.0253  0.6584 -0.0929
  208SOL     OW  829   0.746   1.616   1.338  0.0952  0.6022 -0.2376
  208SOL    HW1  830   0.767   1.669   1.414  2.1889 -1.5278  0.6617
  208SOL    HW2  831   0.812   1.551   1.308 -1.2742  1.5974 -2.6512
  208SOL     MW  832   0.757   1.615   1.344  0.1908  0.4524 -0.4374
  209SOL     OW  833   1.561   0.458   2.936  0.0112  0.2709 -0.2851
  209SOL    HW1  834   1.599   0.541   2.963 -1.6168  2.4407 -0.7283
  209SOL    HW2  835   1.638   0.399   2.905  2.3923 -0.1180 -2.9046
  209SOL     MW  836   1.577   0.461   2.935  0.1106  0.5058 -0.6892
  210SOL     OW  837   1.507   1.276   0.769 -0.3779  0.2373 -0.2044
  210SOL    HW1  838   1.601   1.295   0.759  0.0092  2.4611 -2.7106
  210SOL    HW2  839   1.461   1.328   0.704  1.1525  0.9874  0.9086
  210SOL     MW  840   1.514   1.285   0.759 -0.1249  0.6297 -0.3882
  211SOL     OW  841   1.725   0.236   0.962 -0.0204 -0.0739  0.1430
  211SOL    HW1  842   1.717   0.288   0.884  0.5122 -0.7997 -0.4986
  211SOL    HW2  843   1.815   0.256   0.991  1.3015 -0.7545 -0.5644
  211SOL     MW  844   1.736   0.245   0.956  0.2243 -0.2595 -0.0350
  212SOL     OW  845   0.289   1.039   0.157 -0.0524  0.3775  0.2567
  212SOL    HW1  846   0.217   0.998   0.206 -2.2281  0.0676 -0.9913
  212SOL    HW2  847   0.304   0.978   0.086 -0.6626 -1.7919  0.8074
  212SOL     MW  848   0.281   1.025   0.154 -0.4200  0.0504  0.1647
  213SOL     OW  849   0.531   1.717   3.025 -0.7054  0.0218 -0.2538
  213SOL    HW1  850   0.517   1.797   3.084  0.9907  0.6970  0.6374
  213SOL    HW2  851   0.573   1.766   2.950  1.3653  0.3537  2.4042
  213SOL     MW  852   0.535   1.734   3.023 -0.2084  0.1547  0.2145
  214SOL     OW  853   0.658   0.360   2.148  0.3111  0.2447  0.0232
  214SOL    HW1  854   0.578   0.423   2.164 -0.1894  0.6573 -0.3542
  214SOL    HW2  855   0.683   0.395   2.067 -0.5146  0.6791  0.5343
  214SOL     MW  856   0.651   0.373   2.139  0.1361  0.3564  0.0408
  215SOL     OW  857   0.487   0.728   2.659 -0.2633 -0.7231  0.3705
  215SOL    HW1  858   0.506   0.731   2.565  1.9255  2.5415 -3.9528
  215SOL    HW2  859   0.413   0.663   2.673  0.2001 -2.2743  0.8078
  215SOL     MW  860   0.480   0.719   2.648  0.0867 -0.4970 -0.1422
  216SOL     OW  861   2.940   3.019   2.695  0.4918 -0.3427  0.3783
  216SOL    HW1  862   2.910   3.022   2.783 -1.9276  0.7499  1.8199
  216SOL    HW2  863   2.953   3.113   2.674  4.7523 -0.6006 -0.9427
  216SOL     MW  864   2.938   3.032   2.704  0.7347 -0.2325  0.3942
  217SOL     OW  865   1.042   1.098   0.134  0.1900  0.6755 -0.0705
  217SOL    HW1  866   1.071   1.055   0.055  0.3750  0.9719 -0.8117
  217SOL    HW2  867   1.052   1.186   0.102  0.3013 -0.5788  0.2792
  217SOL     MW  868   1.047   1.104   0.120  0.2291  0.5491 -0.1222
  218SOL     OW  869   0.923   1.332   2.566  0.0607  0.9319  0.4970
  218SOL    HW1  870   0.919   1.260   2.632 -1.5857  1.0514  0.5956
  218SOL    HW2  871   0.993   1.390   2.601  1.1937 -2.3205  2.2739
  218SOL     MW  872   0.932   1.330   2.580 -0.0070  0.5186  0.7445
  219SOL     OW  873   1.122   0.360   2.634 -0.4331 -0.3673 -0.6642
  219SOL    HW1  874   1.199   0.404   2.667 -0.4599  1.2963  1.9608
  219SOL    HW2  875   1.060   0.429   2.609 -0.1613 -1.6168  3.5553
  219SOL     MW  876   1.124   0.375   2.635 -0.4008 -0.3127  0.2388
  220SOL     OW  877   1.752   0.454   2.209 -0.3940  0.3140  0.2231
  220SOL    HW1  878   1.714   0.471   2.120  0.5906 -0.0786 -1.9244
  220SOL    HW2  879   1.794   0.372   2.193  0.9486  1.8620  0.3637
  220SOL     MW  880   1.752   0.445   2.195 -0.0869  0.4665 -0.0417
  221SOL     OW  881   0.357   1.304   2.946 -0.0533 -0.1626 -0.2983
  221SOL    HW1  882   0.419   1.233   2.924 -0.4043 -1.0745  2.9310
  221SOL    HW2  883   0.401   1.381   2.906 -2.5335  1.9725 -1.9739
  221SOL     MW  884   0.371   1.305   2.938 -0.4268 -0.0012 -0.0933
  222SOL     OW  885   0.407   0.975   2.679  0.5640  0.2241 -0.3075
  222SOL    HW1  886   0.375   1.015   2.600  2.0350 -2.1622  0.0732
  222SOL    HW2  887   0.420   0.880   2.670 -0.2726  0.8377  0.4258
  222SOL     MW  888   0.405   0.968   2.668  0.6477 -0.0098 -0.1605
  223SOL     OW  889   0.074   2.033   2.511  0.4045  0.0759 -0.2730
  223SOL    HW1  890   0.116   2.006   2.593  0.9697 -1.4415 -0.1411
  223SOL    HW2  891   0.102   2.125   2.497 -3.8032  0.1381  0.6834
  223SOL     MW  892   0.083   2.042   2.520 -0.0761 -0.1161 -0.1294
  224SOL     OW  893   1.567   0.757   2.595  0.3484  0.2622 -0.2796
  224SOL    HW1  894   1.576   0.808   2.674  1.8410 -1.6300 -0.1876
  224SOL    HW2  895   1.541   0.823   2.532 -0.1868  0.9100 -2.3576
  224SOL     MW  896   1.565   0.772   2.597  0.4747  0.0980 -0.5416
  225SOL     OW  897   2.917   1.451   2.288  0.6951 -0.0459 -0.4935
  225SOL    HW1  898   2.958   1.530   2.250  1.2624  3.1833 -1.0946
  225SOL    HW2  899   2.845   1.481   2.345  0.9575  0.3928 -4.8141
  225SOL     MW  900   2.913   1.465   2.291  0.8045  0.4380 -1.1429
  226SOL     OW  901   0.438   1.499   2.729 -0.7851 -0.2860  0.3715
  226SOL    HW1  902   0.528   1.483   2.697  1.0002  0.7872 -0.9211
  226SOL    HW2  903   0.419   1.575   2.682  0.3325  0.2504  2.9838
  226SOL     MW  904   0.447   1.507   2.719 -0.4021 -0.0736  0.5457
  227SOL     OW  905   0.542   1.118   2.863  0.1930  0.1743  0.5957
  227SOL    HW1  906   0.631   1.133   2.838 -0.4168  2.5501  1.0189
  227SOL    HW2  907   0.493   1.081   2.790  1.4958  1.7602  1.7746
  227SOL     MW  908   0.547   1.115   2.850  0.2844  0.6970  0.8071
  228SOL     OW  909   0.719   1.068   2.035 -0.3550  1.2319  0.0193
  228SOL    HW1  910   0.797   1.072   1.974 -0.1353  0.7992  0.0614
  228SOL    HW2  911   0.750   1.033   2.115  0.2779  2.7178  0.0585
  228SOL     MW  912   0.734   1.064   2.037 -0.2425  1.3709  0.0300
  229SOL     OW  913   0.177   0.644   0.016 -0.6775  0.2417  0.4335
  229SOL    HW1  914   0.123   0.634  -0.061  1.7366  1.0906  1.2875
  229SOL    HW2  915   0.159   0.571   0.073 -0.0757  0.3483 -1.0291
  229SOL     MW  916   0.168   0.633   0.014 -0.2796  0.3677  0.3532
  230SOL     OW  917   1.682   1.309   2.005  0.1009  0.3260  0.0213
  230SOL    HW1  918   1.623   1.295   2.084 -1.2180 -1.1506  0.5578
  230SOL    HW2  919   1.740   1.230   2.009  1.5293  0.5564  3.3885
  230SOL     MW  920   1.682   1.297   2.016  0.1153  0.1615  0.5363
  231SOL     OW  921   2.731   1.254   2.211  0.4084  0.5101  0.7566
  231SOL    HW1  922   2.801   1.318   2.214  2.0868  4.9360 -1.7467
  231SOL    HW2  923   2.668   1.286   2.145  1.2092 -1.7422  0.0459
  231SOL     MW  924   2.732   1.267   2.203  0.7355  0.7969  0.3325
  232SOL     OW  925   2.240   0.876   2.002  0.4393 -0.0475  0.2442
  232SOL    HW1  926   2.161   0.858   1.947  0.6514 -0.2186 -1.3870
  232SOL    HW2  927   2.202   0.891   2.090  1.4540 -4.0518 -0.8996
  232SOL     MW  928   2.224   0.876   2.006  0.6012 -0.5984 -0.1219
  233SOL     OW  929   2.088   0.441   2.079  0.9513 -0.4783  0.2804
  233SOL    HW1  930   2.155   0.376   2.063 -0.3398  0.0346 -0.7354
  233SOL    HW2  931   2.097   0.490   2.165 -3.3112  0.0951 -0.2880
  233SOL     MW  932   2.098   0.439   2.088  0.2186 -0.3349  0.0714
  234SOL     OW  933   0.215   1.064   2.482 -0.2141  0.1709  0.3433
  234SOL    HW1  934   0.120   1.063   2.460 -0.9487 -4.1186 -1.5413
  234SOL    HW2  935   0.236   1.146   2.528  0.1862  0.6261  0.1206
  234SOL     MW  936   0.205   1.075   2.485 -0.2582 -0.3350  0.0653
  235SOL     OW  937   1.131   3.066   2.770 -0.1129 -0.1636  0.0456
  235SOL    HW1  938   1.147   2.998   2.841 -0.4085 -0.3312 -1.0682
  235SOL    HW2  939   1.090   3.140   2.815  3.2889  0.6688 -0.0931
  235SOL     MW  940   1.127   3.066   2.785  0.2969 -0.0759 -0.1196
  236SOL     OW  941   2.906   0.624   0.135 -0.0057 -0.1280  0.0301
  236SOL    HW1  942   2.820   0.666   0.110  1.7069  1.7348 -0.2662
  236SOL    HW2  943   2.958   0.694   0.093  2.3653  1.1370 -0.3133
  236SOL     MW  944   2.901   0.639   0.126  0.5331  0.2847 -0.0543
  237SOL     OW  945   2.017   1.133   2.203 -0.1531  0.5636  0.6022
  237SOL    HW1  946   1.979   1.138   2.117 -0.4101  0.2749 -0.2758
  237SOL    HW2  947   2.078   1.051   2.206 -0.2236 -0.8253  1.9153
  237SOL     MW  948   2.020   1.123   2.192 -0.1963  0.3423  0.6596
  238SOL     OW  949   1.081   1.813   2.946  0.0303 -0.2134  0.1445
  238SOL    HW1  950   1.050   1.720   2.943  0.3446  0.4204  3.2658
  238SOL    HW2  951   1.173   1.801   2.965 -0.9054 -0.5744 -1.0716
  238SOL     MW  952   1.089   1.799   2.948 -0.0517 -0.1774  0.3959
  239SOL     OW  953   1.303   1.422   2.380 -0.3456  0.1831  0.5382
  239SOL    HW1  954   1.209   1.444   2.372 -1.5833  2.6585 -2.0099
  239SOL    HW2  955   1.307   1.331   2.425  1.2045  0.4158  1.3252
  239SOL     MW  956   1.291   1.413   2.385 -0.3044  0.5404  0.3058
  240SOL     OW  957   0.645   0.892   2.325 -0.6789  0.3592 -0.2607
  240SOL    HW1  958   0.707   0.950   2.379  1.1292  0.8268  1.6259
  240SOL    HW2  959   0.709   0.840   2.276  0.2578  1.1085  2.4657
  240SOL     MW  960   0.662   0.892   2.326 -0.3167  0.5197  0.3480
  241SOL     OW  961   0.674   0.388   0.007  0.1202 -0.2434  0.1604
  241SOL    HW1  962   0.702   0.457   0.069 -2.4412  0.4285  1.2202
  241SOL    HW2  963   0.586   0.409  -0.015  0.8959  3.3004 -1.3638
  241SOL     MW  964   0.666   0.400   0.012 -0.1154  0.3128  0.0991
  242SOL     OW  965   1.494   1.728   2.327 -0.1895  0.1327  0.0493
  242SOL    HW1  966   1.479   1.823   2.339 -0.0091  0.6222 -0.6626
  242SOL    HW2  967   1.436   1.691   2.255 -0.8211  1.0153 -0.0737
  242SOL     MW  968   1.484   1.736   2.319 -0.2490  0.3138 -0.0609
  243SOL     OW  969   1.027   0.172   2.469 -0.2215  0.1314 -0.0446
  243SOL    HW1  970   1.094   0.163   2.401 -2.3479 -0.4977 -0.7227
  243SOL    HW2  971   1.064   0.220   2.547 -1.9095 -0.2652  0.5860
  243SOL     MW  972   1.041   0.177   2.471 -0.7247 -0.0039 -0.0508
  244SOL     OW  973   0.224   0.805   2.367 -0.4539  0.2538 -0.4722
  244SOL    HW1  974   0.238   0.891   2.401 -2.7419  0.1023 -1.4078
  244SOL    HW2  975   0.309   0.761   2.378 -0.8001  0.2681  1.3942
  244SOL     MW  976   0.237   0.810   2.373 -0.8015  0.2357 -0.3494
  245SOL     OW  977   1.222   0.182   2.291 -0.7395 -0.6098  0.1309
  245SOL    HW1  978   1.257   0.097   2.311  2.1388  1.5133 -2.8999
  245SOL    HW2  979   1.273   0.241   2.356  0.2822  0.4800  0.7716
  245SOL     MW  980   1.234   0.179   2.302 -0.2249 -0.1859 -0.1845
  246SOL     OW  981   1.239   1.159   2.087 -0.3559  0.1264 -0.2415
  246SOL    HW1  982   1.179   1.103   2.141  0.1200 -0.6482  1.4094
  246SOL    HW2  983   1.320   1.185   2.143  1.0898  2.0629 -0.9335
  246SOL     MW  984   1.242   1.155   2.102 -0.1023  0.2797 -0.1150
  247SOL     OW  985   0.764   0.577   0.205  0.1899  0.1084  0.0011
  247SOL    HW1  986   0.728   0.664   0.209 -1.1780 -1.0366 -2.5381
  247SOL    HW2  987   0.840   0.586   0.135  0.7171 -0.7642 -0.5744
  247SOL     MW  988   0.769   0.589   0.196  0.0790 -0.1578 -0.4098
  248SOL     OW  989   0.311   1.298   2.598  0.1824  0.1147  0.7471
  248SOL    HW1  990   0.319   1.325   2.507 -0.4781 -3.2825  0.0199
  248SOL    HW2  991   0.367   1.356   2.648 -1.4101 -1.1726 -0.3757
  248SOL     MW  992   0.319   1.309   2.592 -0.1148 -0.5033  0.5030
  249SOL     OW  993   0.171   1.878   2.728 -0.2375  0.0295  0.6078
  249SOL    HW1  994   0.134   1.794   2.691 -0.6039 -1.5361  0.1464
  249SOL    HW2  995   0.202   1.854   2.813 -0.9206 -1.8139 -0.8877
  249SOL     MW  996   0.170   1.864   2.734 -0.3759 -0.4203  0.3496
  250SOL     OW  997   2.178   0.929   2.293 -0.2721 -0.1081 -0.0584
  250SOL    HW1  998   2.227   0.852   2.312 -0.1501  3.0159 -0.2702
  250SOL    HW2  999   2.236   0.991   2.337 -0.3906 -2.5702  2.2320
  250SOL     MW 1000   2.192   0.927   2.301 -0.2716 -0.0208  0.2159
  251SOL     OW 1001   0.175   0.930   1.947  0.1475 -0.0500 -0.5921
  251SOL    HW1 1002   0.187   0.855   1.999 -1.2108 -0.7492  2.1384
  251SOL    HW2 1003   0.165   0.891   1.855  0.5010  0.2761 -0.2128
  251SOL     MW 1004   0.175   0.915   1.942  0.0149 -0.0992 -0.1818
  252SOL     OW 1005   1.736   1.020   2.890 -0.2323 -0.4234 -0.0794
  252SOL    HW1 1006   1.746   1.058   2.981  0.5314  1.4206  1.0750
  252SOL    HW2 1007   1.818   1.049   2.844  0.9546 -0.3463 -0.1888
  252SOL     MW 1008   1.748   1.029   2.896  0.0251 -0.1700  0.0585
  253SOL     OW 1009   1.166   1.787   2.549 -0.5734 -0.2231 -0.4949
  253SOL    HW1 1010   1.181   1.778   2.449  0.9922  1.5254  1.2282
  253SOL    HW2 1011   1.079   1.828   2.559 -0.2489  0.2794  0.6956
  253SOL     MW 1012   1.156   1.791   2.537 -0.3240  0.0739 -0.1105
  254SOL     OW 1013   1.055   1.046   2.239 -0.3665  0.0755 -0.0363
  254SOL    HW1 1014   1.036   0.969   2.289 -1.4091  1.7001  1.7729
  254SOL    HW2 1015   0.974   1.109   2.248 -0.8588  1.8949 -0.5007
  254SOL     MW 1016   1.041   1.044   2.247 -0.5690  0.5299  0.1411
  255SOL     OW 1017   0.810   2.556   2.127 -0.2174  0.0257 -0.1650
  255SOL    HW1 1018   0.729   2.516   2.155  0.3292 -0.4413 -0.5816
  255SOL    HW2 1019   0.860   2.478   2.098 -0.4033  1.2169  0.3610
  255SOL     MW 1020   0.806   2.541   2.127 -0.1698  0.1212 -0.1506
  256SOL     OW 1021   1.341   2.714   2.938 -0.2554  0.2278 -0.1700
  256SOL    HW1 1022   1.323   2.622   2.908 -2.7939 -2.1305  1.5151
  256SOL    HW2 1023   1.405   2.749   2.877 -1.1121  1.2302 -1.6488
  256SOL     MW 1024   1.347   2.706   2.926 -0.7034  0.0489 -0.1428
  257SOL     OW 1025   0.191   1.923   0.033 -0.1408  0.2368 -0.0865
  257SOL    HW1 1026   0.179   1.873   0.110  0.4953 -1.4759  0.4757
  257SOL    HW2 1027   0.198   1.853  -0.033  0.1319  0.7431 -0.7627
  257SOL     MW 1028   0.191   1.907   0.034 -0.0209  0.0776 -0.1015
  258SOL     OW 1029   0.815   1.051   2.496 -0.0964 -0.2134  0.4016
  258SOL    HW1 1030   0.841   1.107   2.428 -3.4558 -1.7753  2.4705
  258SOL    HW2 1031   0.767   1.106   2.561  1.6967  0.4662  0.5121
  258SOL     MW 1032   0.812   1.066   2.496 -0.3031 -0.3299  0.6891
  259SOL     OW 1033   0.877   0.376   2.327  0.7701 -0.1766 -0.1097
  259SOL    HW1 1034   0.809   0.332   2.273 -1.8286  1.1011 -0.0101
  259SOL    HW2 1035   0.933   0.305   2.360  0.2880  1.6747  3.1032
  259SOL     MW 1036   0.876   0.361   2.324  0.3636  0.2362  0.3274
  260SOL     OW 1037   0.539   0.101   1.609  0.2492 -0.1800  1.0968
  260SOL    HW1 1038   0.523   0.051   1.524 -1.6722  1.3651 -1.5237
  260SOL    HW2 1039   0.641   0.111   1.604 -0.0243  0.6668 -0.7955
  260SOL     MW 1040   0.550   0.096   1.597 -0.0404  0.1356  0.5014
  261SOL     OW 1041   1.169   0.725   2.042  0.2925  0.0323 -0.0859
  261SOL    HW1 1042   1.163   0.708   2.135  0.7873  1.1352  1.8279
  261SOL    HW2 1043   1.144   0.646   1.995 -0.7179  2.9151  0.3162
  261SOL     MW 1044   1.165   0.713   2.048  0.2245  0.5582  0.2197
  262SOL     OW 1045   1.043   0.295   0.164  0.3624 -0.1100 -0.2269
  262SOL    HW1 1046   1.140   0.283   0.171  1.4812 -2.0784  1.1156
  262SOL    HW2 1047   1.012   0.228   0.102 -0.6629  3.0396 -0.8602
  262SOL     MW 1048   1.052   0.284   0.157  0.3747  0.0458 -0.1333
  263SOL     OW 1049   0.419   0.031   2.452  0.5262  0.1923  0.4794
  263SOL    HW1 1050   0.336   0.083   2.438  0.5146  0.8496  0.0307
  263SOL    HW2 1051   0.479   0.072   2.389  1.2059 -1.1352 -0.6977
  263SOL     MW 1052   0.416   0.043   2.442  0.6144  0.1039  0.2649
  264SOL     OW 1053   1.485   1.350   1.816  0.6339 -0.1647 -0.5151
  264SOL    HW1 1054   1.443   1.267   1.838  1.7327  0.5332 -0.0319
  264SOL    HW2 1055   1.565   1.348   1.871  0.3381  2.0382 -3.2255
  264SOL     MW 1056   1.490   1.339   1.826  0.7398  0.2180 -0.8089
  265SOL     OW 1057   0.756   2.801   2.235  0.5568  0.0024 -0.6944
  265SOL    HW1 1058   0.795   2.722   2.194  0.7371 -0.2832  0.1280
  265SOL    HW2 1059   0.735   2.774   2.324  2.0115  0.4005  0.9185
  265SOL     MW 1060   0.758   2.787   2.242  0.7725  0.0172 -0.3731
  266SOL     OW 1061   0.862   0.761   2.215 -0.3993 -0.0743 -0.0630
  266SOL    HW1 1062   0.859   0.758   2.121 -1.6292  1.6103 -0.1974
  266SOL    HW2 1063   0.869   0.673   2.243 -0.9657  1.1819 -0.3319
  266SOL     MW 1064   0.862   0.749   2.206 -0.6363  0.3137 -0.1162
  267SOL     OW 1065   1.407   1.767   2.698 -0.3306  0.0785 -0.0722
  267SOL    HW1 1066   1.463   1.729   2.629  1.1014 -0.8414 -1.8459
  267SOL    HW2 1067   1.325   1.785   2.645 -3.5923 -1.1935 -0.5159
  267SOL     MW 1068   1.404   1.764   2.682 -0.5720 -0.2107 -0.3648
  268SOL     OW 1069   0.199   0.847   1.656  0.5194  0.5518 -0.2539
  268SOL    HW1 1070   0.168   0.916   1.600 -0.5803 -1.5094  0.2951
  268SOL    HW2 1071   0.163   0.775   1.602 -1.6105  1.7928  1.8138
  268SOL     MW 1072   0.190   0.847   1.642  0.0933  0.4436  0.0913
  269SOL     OW 1073   1.396   1.996   2.349 -0.5007  0.0040 -0.6647
  269SOL    HW1 1074   1.452   2.073   2.350  3.5314 -0.1053 -3.8363
  269SOL    HW2 1075   1.310   2.047   2.356  1.1169  1.7695 -1.9210
  269SOL     MW 1076   1.392   2.013   2.350  0.2447  0.2226 -1.2489
  270SOL     OW 1077   1.119   0.420   1.624  0.2631  0.8606  0.0364
  270SOL    HW1 1078   1.081   0.328   1.630  1.9534 -1.0936  0.5686
  270SOL    HW2 1079   1.209   0.402   1.633  0.5294  0.6674  1.1572
  270SOL     MW 1080   1.126   0.406   1.626  0.5212  0.5773  0.2545
  271SOL     OW 1081   0.842   0.018   2.594 -0.1770  0.4762  0.2502
  271SOL    HW1 1082   0.865  -0.057   2.647 -0.7381 -1.6958 -0.5114
  271SOL    HW2 1083   0.922   0.069   2.571 -2.8756 -0.6496 -1.9905
  271SOL     MW 1084   0.855   0.015   2.598 -0.6071  0.0411 -0.1459
  272SOL     OW 1085   1.517   2.834   2.772 -0.0668 -0.0274  0.3430
  272SOL    HW1 1086   1.469   2.840   2.688 -0.8068  1.5839 -2.3592
  272SOL    HW2 1087   1.532   2.929   2.803  4.1442  0.3734  0.2215
  272SOL     MW 1088   1.513   2.847   2.765  0.3911  0.2381 -0.0295
  273SOL     OW 1089   1.504   0.920   2.792  0.3967 -0.2105  0.0132
  273SOL    HW1 1090   1.583   0.956   2.842 -0.2847 -2.7413 -1.2977
  273SOL    HW2 1091   1.461   0.999   2.765  0.4655 -1.0222 -0.0327
  273SOL     MW 1092   1.509   0.935   2.795  0.3159 -0.6515 -0.1658
  274SOL     OW 1093   1.442   0.712   0.116 -0.7992  0.2946  0.4109
  274SOL    HW1 1094   1.480   0.627   0.140 -0.9099 -0.9003 -0.8298
  274SOL    HW2 1095   1.359   0.706   0.169 -0.6782  0.4213 -0.5792
  274SOL     MW 1096   1.436   0.700   0.126 -0.7978  0.1537  0.1166
  275SOL     OW 1097   1.655   0.552   1.777 -0.3656 -0.0929 -0.2717
  275SOL    HW1 1098   1.717   0.582   1.845 -1.8175 -0.8511  2.4720
  275SOL    HW2 1099   1.655   0.457   1.798 -0.4709  0.5938 -1.1299
  275SOL     MW 1100   1.663   0.543   1.789 -0.5711 -0.1023 -0.0229
  276SOL     OW 1101   0.304   1.235   1.933  0.5890  0.4517 -0.1392
  276SOL    HW1 1102   0.355   1.156   1.933 -3.1004 -1.3059  2.8740
  276SOL    HW2 1103   0.244   1.225   2.009 -0.6767  0.4357  0.1029
  276SOL     MW 1104   0.303   1.223   1.943 -0.0648  0.2177  0.2903
  277SOL     OW 1105   1.909   1.163   2.456 -0.0243 -0.4884 -0.2064
  277SOL    HW1 1106   1.935   1.253   2.481 -1.3285 -1.1331  4.9887
  277SOL    HW2 1107   1.950   1.145   2.372 -0.2028 -1.1945  1.1125
  277SOL     MW 1108   1.918   1.172   2.448 -0.2199 -0.6666  0.6531
  278SOL     OW 1109   1.416   0.683   1.692  0.7178  0.0111 -0.3105
  278SOL    HW1 1110   1.395   0.628   1.772  0.8787  0.4095 -1.2988
  278SOL    HW2 1111   1.513   0.690   1.684 -0.6342 -0.1416 -0.4563
  278SOL     MW 1112   1.426   0.677   1.701  0.5607  0.0435 -0.4601
  279SOL     OW 1113   0.600   0.106   2.251 -0.0015  0.5360 -0.1353
  279SOL    HW1 1114   0.688   0.059   2.257  0.5391 -2.1225  0.9730
  279SOL    HW2 1115   0.613   0.199   2.235  0.1275  0.7730 -1.3003
  279SOL     MW 1116   0.613   0.112   2.250  0.0869  0.2165 -0.1428
  280SOL     OW 1117   1.476   0.959   2.153 -0.1346 -0.5585  0.6401
  280SOL    HW1 1118   1.518   0.891   2.099 -0.7951  0.5578 -0.6213
  280SOL    HW2 1119   1.478   0.935   2.242 -0.9923  1.8890 -1.6285
  280SOL     MW 1120   1.482   0.947   2.158 -0.3349 -0.0883  0.1744
  281SOL     OW 1121   1.352   1.320   2.742  0.0793 -0.3176 -0.1061
  281SOL    HW1 1122   1.443   1.332   2.731 -1.0581  1.3113  1.0403
  281SOL    HW2 1123   1.347   1.277   2.828  3.0245  0.0743  0.9722
  281SOL     MW 1124   1.363   1.316   2.752  0.3178 -0.0509  0.1875
  282SOL     OW 1125   1.082   1.281   1.642  0.0468 -0.2983 -0.4517
  282SOL    HW1 1126   1.067   1.375   1.623 -2.9017 -0.0207 -2.6667
  282SOL    HW2 1127   1.050   1.268   1.735  3.2646 -1.6111  0.7020
  282SOL     MW 1128   1.076   1.292   1.652  0.0823 -0.4349 -0.5917
  283SOL     OW 1129   0.799   1.248   2.996  0.3270  0.0385  0.1447
  283SOL    HW1 1130   0.878   1.249   3.053  1.3797 -2.4933  2.2934
  283SOL    HW2 1131   0.762   1.340   3.003  0.1539 -0.3117 -2.2937
  283SOL     MW 1132   0.805   1.260   3.004  0.4431 -0.3417  0.1065
  284SOL     OW 1133   0.474   0.683   2.391 -0.3733  0.1794  0.1747
  284SOL    HW1 1134   0.539   0.748   2.355  0.1424 -0.1295  1.9688
  284SOL    HW2 1135   0.461   0.626   2.313 -0.7542  0.8480 -4.2024
  284SOL     MW 1136   0.481   0.684   2.376 -0.3555  0.2269 -0.1661
  285SOL     OW 1137   0.978   0.827   2.812 -0.2213 -0.3181 -0.1013
  285SOL    HW1 1138   1.049   0.849   2.750 -0.5269 -0.3580  1.5056
  285SOL    HW2 1139   0.914   0.772   2.768  0.2462  0.4949  0.0902
  285SOL     MW 1140   0.979   0.823   2.798 -0.1999 -0.2161  0.1360
  286SOL     OW 1141   1.125   1.506   2.675  0.2027 -0.2424  0.5584
  286SOL    HW1 1142   1.213   1.462   2.669 -1.5226 -0.8806 -1.2287
  286SOL    HW2 1143   1.129   1.583   2.623  0.4418 -0.2244 -2.3227
  286SOL     MW 1144   1.137   1.510   2.667  0.0066 -0.3242 -0.0575
  287SOL     OW 1145   1.134   0.931   0.357  0.3982 -0.0032  0.2637
  287SOL    HW1 1146   1.208   0.958   0.418 -1.4789  1.3081  3.4856
  287SOL    HW2 1147   1.110   1.007   0.313  0.3365 -0.4618  1.1000
  287SOL     MW 1148   1.141   0.944   0.360  0.1424  0.1093  0.7991
  288SOL     OW 1149   1.558   0.563   2.064 -0.1311 -0.1635 -0.2909
  288SOL    HW1 1150   1.506   0.581   2.143 -0.0972  3.5752  1.1153
  288SOL    HW2 1151   1.585   0.645   2.030  0.8985 -0.4279 -0.8648
  288SOL     MW 1152   1.555   0.576   2.070  0.0092  0.2949 -0.1811
  289SOL     OW 1153   1.095   1.000   2.595  0.1729 -0.4668 -0.0243
  289SOL    HW1 1154   1.117   0.912   2.572  2.5750 -0.0441  3.0496
  289SOL    HW2 1155   1.002   1.008   2.563 -0.6532 -1.3556  0.0982
  289SOL     MW 1156   1.086   0.990   2.588  0.3808 -0.5283  0.3974
  290SOL     OW 1157   0.826   0.622   1.585 -0.6759 -0.2365  0.3064
  290SOL    HW1 1158   0.857   0.580   1.503  1.2663 -2.1470  0.0949
  290SOL    HW2 1159   0.902   0.625   1.647  0.3097 -3.8200 -2.9232
  290SOL     MW 1160   0.840   0.617   1.582 -0.2896 -0.9614 -0.1476
  291SOL     OW 1161   0.193   0.377   0.130 -0.5101 -0.1333  0.6672
  291SOL    HW1 1162   0.258   0.318   0.165  2.4386  2.5514  0.1719
  291SOL    HW2 1163   0.159   0.323   0.055  0.8864  0.7165 -2.1195
  291SOL     MW 1164   0.197   0.362   0.125  0.0632  0.3330  0.2342
  292SOL     OW 1165   0.983   0.555   0.064  0.0526 -0.1162  0.0420
  292SOL    HW1 1166   1.053   0.574   0.123  0.7036 -0.8200  1.1571
  292SOL    HW2 1167   0.996   0.458   0.053  1.8470  1.7130 -0.4866
  292SOL     MW 1168   0.994   0.544   0.070  0.3752  0.0323  0.1194
  293SOL     OW 1169   0.159   0.123   2.428 -0.2010 -0.3180  0.0673
  293SOL    HW1 1170   0.087   0.089   2.376  0.7302  0.3145  0.9937
  293SOL    HW2 1171   0.117   0.162   2.506  0.5261 -2.7148 -0.0897
  293SOL     MW 1172   0.144   0.124   2.432  0.0178 -0.5507  0.1688
  294SOL     OW 1173   1.450   0.595   2.338 -0.0625 -0.4336 -0.0232
  294SOL    HW1 1174   1.499   0.640   2.406  0.7080 -3.4109 -3.0931
  294SOL    HW2 1175   1.441   0.510   2.374  2.1331  2.2787  1.6372
  294SOL     MW 1176   1.455   0.590   2.351  0.3289 -0.4685 -0.2092
  295SOL     OW 1177   0.941   0.543   2.540 -0.3720 -0.4964 -0.0903
  295SOL    HW1 1178   0.913   0.486   2.465  0.4362 -1.5278 -0.7800
  295SOL    HW2 1179   0.869   0.593   2.560  2.4437 -2.1176 -2.0592
  295SOL     MW 1180   0.928   0.542   2.532  0.1061 -0.8464 -0.4411
  296SOL     OW 1181   1.279   0.276   2.057  0.0386 -0.0535 -0.1108
  296SOL    HW1 1182   1.333   0.207   2.014 -2.0944 -0.1775  0.1366
  296SOL    HW2 1183   1.272   0.245   2.150 -0.6615 -0.5483 -1.2404
  296SOL     MW 1184   1.285   0.263   2.064 -0.3352 -0.1351 -0.2272
  297SOL     OW 1185   1.402   0.405   1.582  0.3454  0.1610 -0.6666
  297SOL    HW1 1186   1.421   0.492   1.626 -0.7897  0.2126  2.5659
  297SOL    HW2 1187   1.442   0.338   1.643 -0.3150  0.5579  1.9113
  297SOL     MW 1188   1.410   0.408   1.596  0.1085  0.2202  0.1000
  298SOL     OW 1189   1.642   0.808   1.974 -0.2451  0.3986  0.2176
  298SOL    HW1 1190   1.684   0.866   1.914  2.5369  0.4470  3.5756
  298SOL    HW2 1191   1.719   0.803   2.028 -0.0053  0.1744 -3.9888
  298SOL     MW 1192   1.658   0.815   1.973  0.1536  0.3754  0.1056
  299SOL     OW 1193   0.562   1.095   0.041 -0.1685 -0.0635 -0.2486
  299SOL    HW1 1194   0.596   1.148  -0.026 -1.7772  1.6631  1.3951
  299SOL    HW2 1195   0.499   1.149   0.088  2.9332  2.3799 -2.9625
  299SOL     MW 1196   0.558   1.109   0.038  0.0285  0.4867 -0.3898
  300SOL     OW 1197   1.297   1.158   2.544  0.1230  0.0841 -0.5272
  300SOL    HW1 1198   1.226   1.102   2.581  0.8048 -1.1615  0.6481
  300SOL    HW2 1199   1.324   1.223   2.612 -2.1807 -0.3074  0.5281
  300SOL     MW 1200   1.291   1.159   2.558 -0.0910 -0.1319 -0.2329
  301SOL     OW 1201   1.458   0.884   0.643  0.1599  0.6351  0.5058
  301SOL    HW1 1202   1.451   0.896   0.739 -1.1452 -1.6003  0.3509
  301SOL    HW2 1203   1.382   0.831   0.612 -2.6670  0.3874  0.1898
  301SOL     MW 1204   1.447   0.879   0.651 -0.3853  0.3075  0.4437
  302SOL     OW 1205   0.137   1.575   1.989 -0.0780  0.6791  0.4361
  302SOL    HW1 1206   0.168   1.524   2.062 -1.8749 -1.7356  1.1166
  302SOL    HW2 1207   0.059   1.608   2.028  2.5904 -1.6385  1.3478
  302SOL     MW 1208   0.131   1.573   2.003  0.0370  0.0547  0.6461
  303SOL     OW 1209   0.415   1.811   2.643  0.2456  0.0505  0.5632
  303SOL    HW1 1210   0.384   1.792   2.553 -0.5088  3.1133  1.8839
  303SOL    HW2 1211   0.345   1.869   2.670  2.4611 -1.5572  1.5581
  303SOL     MW 1212   0.402   1.816   2.635  0.4384  0.2425  0.8687
  304SOL     OW 1213   0.547   2.071   2.394 -0.4705  0.1779  0.0746
  304SOL    HW1 1214   0.591   2.110   2.317  1.9257 -1.6848  2.2561
  304SOL    HW2 1215   0.592   1.985   2.386 -0.3652  2.4437  1.5529
  304SOL     MW 1216   0.559   2.065   2.383 -0.1404  0.2311  0.5575
  305SOL     OW 1217   1.124   0.563   0.486 -0.1044 -0.2229  0.0744
  305SOL    HW1 1218   1.032   0.581   0.461 -0.2431 -0.7716  1.0644
  305SOL    HW2 1219   1.141   0.475   0.513 -0.0148  0.7299  0.2565
  305SOL     MW 1220   1.114   0.554   0.486 -0.1109 -0.1696  0.2290
  306SOL     OW 1221   1.165   1.487   0.270  0.2167  0.6805 -0.0450
  306SOL    HW1 1222   1.215   1.406   0.302 -0.4406  0.4087  0.8894
  306SOL    HW2 1223   1.213   1.512   0.194 -2.3828  1.5833 -1.2047
  306SOL     MW 1224   1.178   1.479   0.265 -0.2130  0.7637 -0.0747
  307SOL     OW 1225   1.347   0.523   1.892 -0.2443 -0.2281 -0.7744
  307SOL    HW1 1226   1.304   0.444   1.934  2.3864  0.4774  1.8940
  307SOL    HW2 1227   1.415   0.546   1.962  1.8036 -2.4010  0.0169
  307SOL     MW 1228   1.350   0.516   1.907  0.3730 -0.4217 -0.3179
  308SOL     OW 1229   2.155   0.552   2.734 -0.1505  0.8131 -0.3476
  308SOL    HW1 1230   2.247   0.529   2.745  2.3905  0.0872 -1.0159
  308SOL    HW2 1231   2.163   0.642   2.717  2.6515  1.1807 -2.3946
  308SOL     MW 1232   2.168   0.561   2.733  0.5544  0.7658 -0.7059
  309SOL     OW 1233   0.478   0.469   0.332 -0.4584  0.6309 -0.0573
  309SOL    HW1 1234   0.532   0.538   0.297  1.5640  0.6400 -0.2719
  309SOL    HW2 1235   0.496   0.391   0.277  0.0314  0.4060  1.0799
  309SOL     MW 1236   0.488   0.468   0.320 -0.1270  0.6024  0.0645
  310SOL     OW 1237   0.434   0.622   1.960  0.0426 -0.3335 -0.4445
  310SOL    HW1 1238   0.475   0.543   1.908  1.6778 -3.0456 -1.1043
  310SOL    HW2 1239   0.462   0.703   1.915 -1.5255 -0.3315 -0.7607
  310SOL     MW 1240   0.443   0.622   1.947  0.0515 -0.6910 -0.5733
  311SOL     OW 1241   1.859   0.599   1.957 -0.5750 -0.1696 -0.4334
  311SOL    HW1 1242   1.867   0.643   2.039  1.5957 -0.5328 -1.7889
  311SOL    HW2 1243   1.931   0.538   1.964  0.9758  1.0962  2.4564
  311SOL     MW 1244   1.870   0.597   1.969 -0.0840 -0.0505 -0.2309
  312SOL     OW 1245   1.831   2.513   0.144 -0.4341 -0.0552 -0.0408
  312SOL    HW1 1246   1.899   2.515   0.210 -0.3294 -2.2368 -0.7291
  312SOL    HW2 1247   1.749   2.551   0.185 -1.2462  0.8402  0.7500
  312SOL     MW 1248   1.829   2.518   0.158 -0.5274 -0.2249 -0.0273
  313SOL     OW 1249   0.157   1.122   2.971  0.0081 -0.0598 -0.4808
  313SOL    HW1 1250   0.104   1.162   3.042  1.5451  1.3887 -0.9016
  313SOL    HW2 1251   0.206   1.200   2.945 -3.6999  0.2123  1.0103
  313SOL     MW 1252   0.157   1.137   2.977 -0.2783  0.1672 -0.3396
  314SOL     OW 1253   2.178   2.992   2.944 -0.3891  0.4422  0.1784
  314SOL    HW1 1254   2.111   3.055   2.918  0.9495  0.0537 -3.1072
  314SOL    HW2 1255   2.230   3.035   3.009 -1.3607 -0.0419 -1.1136
  314SOL     MW 1256   2.176   3.006   2.949 -0.3406  0.3270 -0.4256
  315SOL     OW 1257   1.543   1.906   3.063  0.3874 -1.1629 -0.4336
  315SOL    HW1 1258   1.471   1.933   3.124 -2.6401 -0.3283  1.3382
  315SOL    HW2 1259   1.547   1.981   2.998 -1.2969  1.3245  0.1935
  315SOL     MW 1260   1.534   1.919   3.062 -0.2343 -0.7246 -0.1170
  316SOL     OW 1261   1.313   0.568   2.710  0.1834 -1.2119 -0.1919
  316SOL    HW1 1262   1.406   0.596   2.710  3.2990  2.8041  1.9573
  316SOL    HW2 1263   1.274   0.610   2.790  1.6923 -0.1988  2.2307
  316SOL     MW 1264   1.320   0.577   2.720  0.7936 -0.5484  0.4113
  317SOL     OW 1265   0.673   1.448   2.593 -0.1321  0.0591  0.1635
  317SOL    HW1 1266   0.752   1.396   2.597 -0.0367 -0.1787 -1.0668
  317SOL    HW2 1267   0.688   1.494   2.500  2.0851  3.3516 -0.8773
  317SOL     MW 1268   0.685   1.447   2.582  0.1730  0.4622 -0.1361
  318SOL     OW 1269   1.329   0.333   2.966  0.1650  0.1502  0.1888
  318SOL    HW1 1270   1.263   0.389   2.919  0.2700 -0.3580 -1.7076
  318SOL    HW2 1271   1.413   0.378   2.950 -2.9698 -1.0052 -1.6039
  318SOL     MW 1272   1.331   0.346   2.958 -0.2347 -0.0693 -0.2979
  319SOL     OW 1273   0.810   0.448   2.860  0.4184 -0.1186  0.3888
  319SOL    HW1 1274   0.793   0.366   2.810 -0.5595 -0.5653 -1.3676
  319SOL    HW2 1275   0.781   0.411   2.946  4.5607 -1.2555 -1.2000
  319SOL     MW 1276   0.804   0.432   2.865  0.8360 -0.3276 -0.0526
  320SOL     OW 1277   1.075   1.360   2.031  0.2373  0.0069 -0.3176
  320SOL    HW1 1278   1.143   1.297   2.065  2.5784  0.8980  0.7087
  320SOL    HW2 1279   1.125   1.416   1.968 -0.5439  0.3093 -0.6978
  320SOL     MW 1280   1.091   1.359   2.027  0.4431  0.1644 -0.2323
  321SOL     OW 1281   1.143   0.953   3.016  0.2089 -0.0641 -0.4665
  321SOL    HW1 1282   1.088   0.907   2.957 -0.6691 -0.9533  2.3593
  321SOL    HW2 1283   1.211   0.892   3.018 -0.0643  0.8759 -2.0094
  321SOL     MW 1284   1.145   0.939   3.008  0.0570 -0.0574 -0.2972
  322SOL     OW 1285   1.203   0.850   1.667 -0.1643 -0.0770 -0.3504
  322SOL    HW1 1286   1.278   0.798   1.690 -1.5469  0.3533 -0.3240
  322SOL    HW2 1287   1.182   0.888   1.754 -1.4939 -0.2520  1.2022
  322SOL     MW 1288   1.210   0.848   1.682 -0.5221 -0.0433 -0.1421
  323SOL     OW 1289   1.210   1.528   1.873  0.1542 -0.0551 -0.0089
  323SOL    HW1 1290   1.262   1.536   1.794  1.8888  1.1766  2.0105
  323SOL    HW2 1291   1.156   1.603   1.862 -0.5772 -3.4839 -1.1488
  323SOL     MW 1292   1.210   1.539   1.861  0.2866 -0.3450  0.1071
  324SOL     OW 1293   1.499   0.981   2.431  0.0016 -0.2098 -0.4044
  324SOL    HW1 1294   1.423   1.023   2.455  1.8280  1.9902  3.7285
  324SOL    HW2 1295   1.565   1.043   2.470 -3.2733  1.5934  0.0875
  324SOL     MW 1296   1.498   0.994   2.439 -0.1895  0.3184  0.2058
  325SOL     OW 1297   1.098   0.516   2.908  0.4011 -0.1177  0.3829
  325SOL    HW1 1298   1.081   0.560   2.991  0.4432  1.7217 -2.3105
  325SOL    HW2 1299   1.001   0.509   2.882 -3.3004  1.3304  0.5727
  325SOL     MW 1300   1.083   0.521   2.916 -0.0817  0.3161  0.0526
  326SOL     OW 1301   0.461   1.367   2.316  0.2388  0.2682  0.5002
  326SOL    HW1 1302   0.542   1.339   2.264  3.1541 -0.0537  0.8052
  326SOL    HW2 1303   0.444   1.458   2.284  1.3860 -2.8282  0.0609
  326SOL     MW 1304   0.469   1.375   2.305  0.7748 -0.1828  0.4825
  327SOL     OW 1305   1.916   0.789   2.437 -0.4587  0.1215 -0.0513
  327SOL    HW1 1306   1.897   0.728   2.516  0.4400  0.1523  1.4515
  327SOL    HW2 1307   1.940   0.876   2.473  2.7294  2.0600  0.6552
  327SOL     MW 1308   1.917   0.793   2.452  0.0805  0.3814  0.2402
  328SOL     OW 1309   0.208   1.395   2.201 -0.4403  0.3179 -0.3632
  328SOL    HW1 1310   0.143   1.324   2.215 -0.8708  1.5362  1.3913
  328SOL    HW2 1311   0.286   1.363   2.243 -0.8184  3.0922 -1.6827
  328SOL     MW 1312   0.210   1.382   2.209 -0.5470  0.8447 -0.3058
  329SOL     OW 1313   0.128   0.234   1.407 -0.2130  0.0033  0.3539
  329SOL    HW1 1314   0.114   0.240   1.503 -2.5004  1.7563 -1.0177
  329SOL    HW2 1315   0.221   0.263   1.386  0.1795 -2.4045 -2.5138
  329SOL     MW 1316   0.138   0.239   1.417 -0.4630 -0.0831 -0.2054
  330SOL     OW 1317   0.380   3.093   2.079  0.2857 -0.5199 -0.1035
  330SOL    HW1 1318   0.462   3.130   2.121 -0.4331  1.7232 -1.0883
  330SOL    HW2 1319   0.324   3.056   2.149 -0.5433  1.0706  0.8640
  330SOL     MW 1320   0.383   3.093   2.094  0.0815 -0.0141 -0.1058
  331SOL     OW 1321   0.858   1.242   2.293 -0.4403 -0.1368  0.6194
  331SOL    HW1 1322   0.785   1.288   2.252 -1.9014 -1.1069  1.0969
  331SOL    HW2 1323   0.873   1.286   2.379  0.7762  1.7987  0.1519
  331SOL     MW 1324   0.850   1.254   2.299 -0.4726 -0.0094  0.6207
  332SOL     OW 1325   1.352   1.726   2.952  0.2111 -0.9327  0.0746
  332SOL    HW1 1326   1.370   1.736   2.854 -2.3426 -0.1874 -1.3875
  332SOL    HW2 1327   1.394   1.803   2.993  1.8032 -0.6791 -1.8639
  332SOL     MW 1328   1.360   1.738   2.945  0.0842 -0.8009 -0.3741
  333SOL     OW 1329   1.723   1.398   2.959  0.1723 -0.1689  0.4362
  333SOL    HW1 1330   1.810   1.391   2.984 -0.4283  0.1448 -1.0650
  333SOL    HW2 1331   1.673   1.350   3.027 -1.4364  0.3430 -0.0675
  333SOL     MW 1332   1.728   1.390   2.971 -0.1192 -0.0599  0.1717
  334SOL     OW 1333   1.321   0.032   2.564 -0.4916  0.6576 -0.4292
  334SOL    HW1 1334   1.255   0.006   2.633 -0.0358  3.3005  0.5176
  334SOL    HW2 1335   1.386   0.072   2.619 -0.1274 -1.7966 -0.7825
  334SOL     MW 1336   1.321   0.034   2.580 -0.3834  0.6825 -0.3509
  335SOL     OW 1337   1.337   0.769   2.954 -0.6664  0.1957 -0.1224
  335SOL    HW1 1338   1.402   0.746   3.023 -0.9185  0.0851 -1.1998
  335SOL    HW2 1339   1.395   0.822   2.897  2.3640  0.1634  1.9551
  335SOL     MW 1340   1.353   0.773   2.956 -0.2998  0.1768  0.0096
  336SOL     OW 1341   0.947   1.150   1.876 -0.0476  0.2275  0.0028
  336SOL    HW1 1342   0.970   1.200   1.948  1.8079  1.9917 -3.3373
  336SOL    HW2 1343   1.011   1.080   1.884 -0.3581 -2.2355 -1.2813
  336SOL     MW 1344   0.958   1.148   1.886  0.1562  0.1353 -0.6073
  337SOL     OW 1345   0.650   1.829   2.816  0.0745  0.1639 -0.4444
  337SOL    HW1 1346   0.564   1.820   2.769 -0.4209  2.5837 -2.8503
  337SOL    HW2 1347   0.706   1.761   2.790 -0.1417  1.0471 -1.8702
  337SOL     MW 1348   0.646   1.819   2.807 -0.0194  0.5997 -0.9500
  338SOL     OW 1349   1.144   0.729   2.559  0.0298  0.0915  0.7000
  338SOL    HW1 1350   1.068   0.662   2.558  0.4999 -0.9010 -0.2498
  338SOL    HW2 1351   1.213   0.674   2.607 -1.2782 -2.1907  0.1474
  338SOL     MW 1352   1.143   0.713   2.565 -0.0807 -0.3405  0.5018
  339SOL     OW 1353   1.486   1.072   1.827  0.0459  0.1250  0.0580
  339SOL    HW1 1354   1.415   1.076   1.767 -1.4382 -0.8846  3.5890
  339SOL    HW2 1355   1.441   1.037   1.902  1.0866 -0.1511  1.4693
  339SOL     MW 1356   1.471   1.068   1.829 -0.0126 -0.0447  0.7101
  340SOL     OW 1357   1.307   1.533   0.048 -0.3304  0.2458 -0.0198
  340SOL    HW1 1358   1.335   1.602  -0.016 -1.0984 -2.4466 -1.3795
  340SOL    HW2 1359   1.389   1.501   0.086  2.9439  0.6970 -0.2411
  340SOL     MW 1360   1.321   1.538   0.044  0.0003 -0.0499 -0.2284
  341SOL     OW 1361   0.063   1.369   2.763 -0.9229 -0.2260 -0.5856
  341SOL    HW1 1362   0.151   1.336   2.757 -1.7350 -1.8330  2.6925
  341SOL    HW2 1363   0.034   1.337   2.674  3.0747 -1.9188 -0.9728
  341SOL     MW 1364   0.071   1.361   2.751 -0.5026 -0.6614 -0.2042
  342SOL     OW 1365   1.314   0.315   0.137  0.2053  0.6377  0.6462
  342SOL    HW1 1366   1.389   0.362   0.177 -2.8003  2.0546 -0.4114
  342SOL    HW2 1367   1.326   0.323   0.041  2.2212 -0.9726 -1.4104
  342SOL     MW 1368   1.326   0.322   0.130  0.0747  0.6122  0.2353
  343SOL     OW 1369   0.265   0.268   2.093 -0.3994 -0.1714 -0.7413
  343SOL    HW1 1370   0.307   0.181   2.085  0.9662 -2.9573 -0.6580
  343SOL    HW2 1371   0.177   0.267   2.053 -0.3189  5.0739 -0.1494
  343SOL     MW 1372   0.259   0.257   2.086 -0.2086  0.1531 -0.6522
  344SOL     OW 1373   1.707   2.008   0.186 -0.3244  0.3526  0.0457
  344SOL    HW1 1374   1.726   2.094   0.141 -0.6893  0.9792 -1.4905
  344SOL    HW2 1375   1.645   1.968   0.127 -3.9627 -0.1399  0.5131
  344SOL     MW 1376   1.701   2.014   0.172 -0.8526  0.3703 -0.0953
  345SOL     OW 1377   0.726   1.564   2.340 -0.4669 -0.5003  0.3448
  345SOL    HW1 1378   0.651   1.588   2.280  0.5392 -1.3978  0.5793
  345SOL    HW2 1379   0.803   1.554   2.286 -1.4086  1.0064 -2.0557
  345SOL     MW 1380   0.726   1.566   2.325 -0.4584 -0.4199  0.0590
  346SOL     OW 1381   1.759   1.121   0.038  0.0859  0.5452  0.6701
  346SOL    HW1 1382   1.841   1.079   0.058  1.2937  0.5711 -0.8970
  346SOL    HW2 1383   1.697   1.075   0.093 -1.5740  2.8295 -1.7736
  346SOL     MW 1384   1.762   1.109   0.048  0.0262  0.8500  0.1409
  347SOL     OW 1385   1.178   0.658   2.307 -0.3610 -0.5799 -0.2358
  347SOL    HW1 1386   1.275   0.657   2.313 -0.8301  1.0622 -0.1508
  347SOL    HW2 1387   1.156   0.681   2.395 -1.9807  0.7234  1.5095
  347SOL     MW 1388   1.188   0.661   2.319 -0.6366 -0.1913  0.0057
  348SOL     OW 1389   1.348   2.655   1.906 -0.5362 -0.1443 -0.3006
  348SOL    HW1 1390   1.409   2.584   1.942 -1.8579 -0.8415  1.0406
  348SOL    HW2 1391   1.361   2.742   1.951 -1.3916 -2.0956  0.1727
  348SOL     MW 1392   1.358   2.657   1.917 -0.8234 -0.4938 -0.0612
  349SOL     OW 1393   1.447   0.238   2.737  0.0067 -0.3422  0.1403
  349SOL    HW1 1394   1.389   0.248   2.813 -0.9105 -0.1522  0.0861
  349SOL    HW2 1395   1.528   0.271   2.773  2.8502 -0.6174  2.7930
  349SOL     MW 1396   1.450   0.244   2.751  0.2608 -0.3534  0.4831
  350SOL     OW 1397   1.841   0.625   2.654 -0.2577 -0.8290 -0.0416
  350SOL    HW1 1398   1.768   0.601   2.600  2.6940  1.4152 -1.2484
  350SOL    HW2 1399   1.885   0.539   2.678  1.7413 -2.1884 -0.9790
  350SOL     MW 1400   1.837   0.611   2.650  0.3955 -0.7122 -0.3245
  351SOL     OW 1401   0.109   1.088   1.552  0.3820  0.9024  0.6585
  351SOL    HW1 1402   0.032   1.077   1.614 -1.9286 -1.9285 -1.3061
  351SOL    HW2 1403   0.176   1.151   1.593  1.9150 -1.2914 -1.3202
  351SOL     MW 1404   0.107   1.095   1.566  0.2794  0.2394  0.1382
  352SOL     OW 1405   0.819   1.633   2.700  0.7341  0.2072  0.1587
  352SOL    HW1 1406   0.882   1.586   2.755 -0.6938  1.1789  1.0112
  352SOL    HW2 1407   0.765   1.560   2.658 -1.2979 -0.0630 -2.6687
  352SOL     MW 1408   0.820   1.617   2.701  0.2776  0.2998 -0.1019
  353SOL     OW 1409   3.068   2.532   2.670 -0.2892  0.3223  0.7077
  353SOL    HW1 1410   3.161   2.515   2.645  3.4102 -1.0131  0.3095
  353SOL    HW2 1411   3.048   2.616   2.634 -0.3492 -0.6810 -0.5258
  353SOL     MW 1412   3.078   2.541   2.662  0.1910  0.0137  0.4924
  354SOL     OW 1413   0.257   2.482   0.814  0.4487 -0.2809  0.1418
  354SOL    HW1 1414   0.296   2.459   0.895 -0.2768  1.1611  1.1901
  354SOL    HW2 1415   0.173   2.437   0.826 -1.0373 -0.6443  1.2874
  354SOL     MW 1416   0.251   2.473   0.827  0.1569 -0.1386  0.4313
  355SOL     OW 1417   0.010   2.257   0.394 -0.0975 -0.1600  0.7043
  355SOL    HW1 1418  -0.075   2.212   0.405 -0.1222  1.3369 -0.7529
  355SOL    HW2 1419   0.020   2.304   0.476 -0.5513 -0.1787 -2.0027
  355SOL     MW 1420   0.000   2.257   0.406 -0.1606  0.0350  0.1549
  356SOL     OW 1421   0.834   2.804   0.985 -0.1143 -0.5818  0.4687
  356SOL    HW1 1422   0.888   2.842   0.906  1.8434 -0.2566 -0.6239
  356SOL    HW2 1423   0.743   2.807   0.957 -0.3844 -0.9135  0.5679
  356SOL     MW 1424   0.829   2.810   0.971  0.1083 -0.5827  0.3376
  357SOL     OW 1425   1.768   2.935   0.388  0.4246  0.2127 -0.0910
  357SOL    HW1 1426   1.724   2.876   0.448 -1.5928  1.6746  0.0265
  357SOL    HW2 1427   1.854   2.890   0.384 -2.2103 -0.3963 -0.2372
  357SOL     MW 1428   1.774   2.922   0.396 -0.1892  0.3252 -0.0947
  358SOL     OW 1429   0.463   0.167   1.047 -0.1906  0.4349 -0.0506
  358SOL    HW1 1430   0.554   0.140   1.041 -0.2563 -0.9618  0.7052
  358SOL    HW2 1431   0.426   0.172   0.962  0.4532 -0.7932 -0.4497
  358SOL     MW 1432   0.470   0.164   1.035 -0.1143  0.0886 -0.0035
  359SOL     OW 1433   0.862   2.884   1.840  0.1870  0.1140  0.2112
  359SOL    HW1 1434   0.842   2.790   1.845  1.1504  0.0150 -3.8670
  359SOL    HW2 1435   0.896   2.890   1.751  1.0567  0.0160 -1.7995
  359SOL     MW 1436   0.864   2.872   1.829  0.4289  0.0880 -0.5922
  360SOL     OW 1437   0.577   2.780   0.915 -0.1737  0.0808  0.0428
  360SOL    HW1 1438   0.568   2.744   0.827  0.4454  0.9140  0.3051
  360SOL    HW2 1439   0.581   2.704   0.974 -1.1128  1.2138 -1.6134
  360SOL     MW 1440   0.577   2.766   0.911 -0.2159  0.3402 -0.1411
  361SOL     OW 1441   0.184   2.625   1.368 -0.6131 -0.7092  0.1265
  361SOL    HW1 1442   0.186   2.706   1.416  0.7559 -1.7456  2.4234
  361SOL    HW2 1443   0.280   2.608   1.353  0.9989 -0.9510  1.2901
  361SOL     MW 1444   0.197   2.633   1.373 -0.2198 -0.8779  0.5831
  362SOL     OW 1445   1.487   2.402   0.654 -0.6038  0.5296  0.3918
  362SOL    HW1 1446   1.491   2.362   0.744 -0.0481  0.8165  0.6425
  362SOL    HW2 1447   1.533   2.485   0.656 -0.3829  1.8196  0.8165
  362SOL     MW 1448   1.493   2.407   0.666 -0.5014  0.7376  0.4809
  363SOL     OW 1449   0.299   3.058   0.663  0.0662 -0.1675  0.4728
  363SOL    HW1 1450   0.317   3.013   0.743 -1.0810 -0.6675 -1.2965
  363SOL    HW2 1451   0.205   3.055   0.637  0.0018 -2.3010 -1.2024
  363SOL     MW 1452   0.289   3.052   0.670 -0.0936 -0.5150  0.0183
  364SOL     OW 1453   0.743   0.193   0.203  0.0188  0.4575  0.1973
  364SOL    HW1 1454   0.669   0.131   0.211  2.7094  0.9626  0.3601
  364SOL    HW2 1455   0.713   0.247   0.126  0.2630 -0.2778 -0.6923
  364SOL     MW 1456   0.729   0.192   0.194  0.4060  0.4272  0.1014
  365SOL     OW 1457   0.970   2.028   1.153 -0.2668  0.1469  0.8326
  365SOL    HW1 1458   0.962   2.106   1.105 -1.7428 -3.4276  0.9618
  365SOL    HW2 1459   0.897   1.976   1.111  1.5745 -1.3129 -0.3257
  365SOL     MW 1460   0.959   2.032   1.141 -0.2186 -0.5173  0.6968
  366SOL     OW 1461   2.864   2.696   1.022  0.0654  0.0186 -0.1259
  366SOL    HW1 1462   2.945   2.669   1.080  0.4557 -0.3473 -1.1287
  366SOL    HW2 1463   2.896   2.725   0.933 -0.2078  0.5795 -1.6853
  366SOL     MW 1464   2.879   2.696   1.018  0.0809  0.0443 -0.4640
  367SOL     OW 1465   1.223   2.984   0.882 -0.1019 -0.0391  0.6202
  367SOL    HW1 1466   1.240   3.061   0.824  0.0390  1.0849 -1.3524
  367SOL    HW2 1467   1.180   2.918   0.826  0.4593  0.5624  0.5090
  367SOL     MW 1468   1.219   2.986   0.867 -0.0093  0.1885  0.3452
  368SOL     OW 1469   1.660   0.418   0.721 -0.2441 -0.3678  0.5187
  368SOL    HW1 1470   1.737   0.397   0.667  0.6017  1.4900  0.5230
  368SOL    HW2 1471   1.661   0.512   0.712  0.2174 -0.3769 -1.0890
  368SOL     MW 1472   1.670   0.427   0.713 -0.0716 -0.1239  0.3071
  369SOL     OW 1473   0.152   2.449   1.785  0.6244 -0.4977  0.3521
  369SOL    HW1 1474   0.250   2.446   1.795 -1.8293 -2.0209  0.3393
  369SOL    HW2 1475   0.128   2.546   1.773  0.5411  3.2416 -0.2180
  369SOL     MW 1476   0.162   2.461   1.785  0.2897 -0.2053  0.2752
  370SOL     OW 1477   0.720   0.095   1.004 -0.0872  0.0638 -0.9266
  370SOL    HW1 1478   0.763   0.176   0.983 -3.4981 -0.9533  0.8864
  370SOL    HW2 1479   0.782   0.032   1.029  0.5567  0.6097 -1.5339
  370SOL     MW 1480   0.734   0.097   1.004 -0.4523  0.0016 -0.7675
  371SOL     OW 1481   1.333   2.912   1.528  0.2028 -0.1793  0.0339
  371SOL    HW1 1482   1.276   2.834   1.509  1.6244 -0.9370 -2.7289
  371SOL    HW2 1483   1.324   2.962   1.445  0.5283  1.1519  0.6895
  371SOL     MW 1484   1.324   2.908   1.514  0.4334 -0.1036 -0.2441
  372SOL     OW 1485   0.743   2.305   0.464  0.0216  0.1343  0.2630
  372SOL    HW1 1486   0.729   2.215   0.488  1.1118  1.3726  0.4826
  372SOL    HW2 1487   0.768   2.293   0.362  1.0114 -2.7479 -1.7084
  372SOL     MW 1488   0.745   2.292   0.454  0.2960 -0.0826  0.0319
  373SOL     OW 1489   2.782   3.009   1.443  0.4683  0.2369  0.2683
  373SOL    HW1 1490   2.866   2.984   1.413  0.0944 -0.0569 -0.0007
  373SOL    HW2 1491   2.759   3.088   1.399  0.5987  0.2464  0.0738
  373SOL     MW 1492   2.790   3.016   1.434  0.4362  0.1994  0.2072
  374SOL     OW 1493   1.544   0.444   0.220  0.1260 -0.2465 -0.3418
  374SOL    HW1 1494   1.599   0.366   0.207 -0.8817 -2.4981  1.8458
  374SOL    HW2 1495   1.505   0.441   0.305  0.1095  1.0682 -1.1620
  374SOL     MW 1496   1.546   0.433   0.229 -0.0092 -0.3701 -0.1614
  375SOL     OW 1497   0.983   2.107   2.257 -0.2908  0.0673 -0.1831
  375SOL    HW1 1498   1.060   2.097   2.321  2.0350 -2.3134 -1.5009
  375SOL    HW2 1499   0.966   2.019   2.220  3.0638  1.1388  0.1119
  375SOL     MW 1500   0.991   2.094   2.260  0.4587 -0.1054 -0.3181
  376SOL     OW 1501   0.746   2.538   0.087  0.2059  0.0571  0.7180
  376SOL    HW1 1502   0.671   2.494   0.131  1.1261  2.4949 -1.5770
  376SOL    HW2 1503   0.743   2.502  -0.004 -1.9753 -0.8170 -3.0307
  376SOL     MW 1504   0.736   2.528   0.081  0.0395  0.2634 -0.0794
  377SOL     OW 1505   1.288   2.016   0.858 -0.2484 -0.0205 -0.6623
  377SOL    HW1 1506   1.202   2.003   0.812  2.6293 -0.6224  1.3689
  377SOL    HW2 1507   1.277   1.966   0.936  0.7365  2.9516  0.2259
  377SOL     MW 1508   1.275   2.007   0.862  0.2612  0.2922 -0.2771
  378SOL     OW 1509   0.888   2.838   1.577 -0.2952  0.3060 -0.1814
  378SOL    HW1 1510   0.886   2.742   1.562  2.0124 -2.0000  0.8720
  378SOL    HW2 1511   0.891   2.887   1.492  1.6729 -0.8299 -0.7275
  378SOL     MW 1512   0.888   2.832   1.564  0.2690 -0.1481 -0.1145
  379SOL     OW 1513   1.150   1.764   2.260  0.2664 -0.5351 -0.0271
  379SOL    HW1 1514   1.060   1.733   2.252 -1.0405 -0.1497  2.7016
  379SOL    HW2 1515   1.187   1.702   2.198  1.8608  0.9065 -0.0719
  379SOL     MW 1516   1.143   1.751   2.251  0.3043 -0.2940  0.3270
  380SOL     OW 1517   0.796   0.112   1.617  0.4493  0.2659 -0.6406
  380SOL    HW1 1518   0.819   0.120   1.524 -0.2262 -2.7637  1.9537
  380SOL    HW2 1519   0.884   0.105   1.655  0.1388  0.3439  0.2062
  380SOL     MW 1520   0.811   0.112   1.610  0.3192 -0.1235 -0.1866
  381SOL     OW 1521   0.797   2.012   0.791  0.0219 -0.3479  0.3839
  381SOL    HW1 1522   0.888   2.007   0.767 -0.4708 -2.4691 -3.0568
  381SOL    HW2 1523   0.797   2.080   0.857 -2.2545 -0.2147 -3.4149
  381SOL     MW 1524   0.809   2.021   0.797 -0.3435 -0.6102 -0.5713
  382SOL     OW 1525   0.728   0.074   0.722  0.1966  0.0249 -0.1093
  382SOL    HW1 1526   0.743   0.072   0.819  0.5573 -0.2938  3.0662
  382SOL    HW2 1527   0.679  -0.004   0.689 -0.4480  2.0934  1.5382
  382SOL     MW 1528   0.723   0.063   0.730  0.1591  0.2558  0.5270
  383SOL     OW 1529   0.539   3.088   0.264  0.3967  0.2698 -0.2468
  383SOL    HW1 1530   0.564   3.029   0.193 -0.7392  1.4695 -0.6525
  383SOL    HW2 1531   0.514   3.041   0.338  1.2133  2.3856 -1.2513
  383SOL     MW 1532   0.539   3.074   0.264  0.3546  0.7073 -0.4329
  384SOL     OW 1533   0.706   2.910   0.624 -0.3399 -0.0394  0.1351
  384SOL    HW1 1534   0.784   2.885   0.674  0.7049 -0.0887  1.3738
  384SOL    HW2 1535   0.638   2.844   0.629 -0.9236  1.4032  1.7673
  384SOL     MW 1536   0.707   2.898   0.631 -0.2790  0.1444  0.5139
  385SOL     OW 1537   1.379   2.074   1.532 -0.1626 -0.1495  0.0825
  385SOL    HW1 1538   1.466   2.081   1.577 -1.7157 -3.1141  0.5723
  385SOL    HW2 1539   1.323   2.014   1.575  2.6986 -0.6011  0.9336
  385SOL     MW 1540   1.383   2.067   1.543  0.0100 -0.6002  0.2594
  386SOL     OW 1541   1.308   0.385   0.897 -0.1242 -0.3840  0.0100
  386SOL    HW1 1542   1.229   0.411   0.938 -0.9215 -1.0866 -2.4059
  386SOL    HW2 1543   1.342   0.306   0.938  1.5047  2.7528 -0.4008
  386SOL     MW 1544   1.302   0.378   0.908 -0.0145 -0.0628 -0.3630
  387SOL     OW 1545   0.830   2.199   1.545  0.5430  0.0786 -0.0283
  387SOL    HW1 1546   0.896   2.254   1.497 -0.0093  2.1429  0.5149
  387SOL    HW2 1547   0.843   2.116   1.498  0.0240  1.7539 -0.0285
  387SOL     MW 1548   0.840   2.195   1.533  0.4016  0.5720  0.0434
  388SOL     OW 1549   1.524   2.764   1.182  0.0428 -0.0459  0.0353
  388SOL    HW1 1550   1.426   2.772   1.180  0.5705 -1.5802 -1.4822
  388SOL    HW2 1551   1.527   2.708   1.104 -1.4501  1.2988  0.4329
  388SOL     MW 1552   1.512   2.758   1.171 -0.0845 -0.0709 -0.1125
  389SOL     OW 1553   0.444   0.110   3.019  0.1678  0.5149 -0.4591
  389SOL    HW1 1554   0.531   0.070   3.008 -0.5410  0.5158  1.5337
  389SOL    HW2 1555   0.420   0.169   2.948 -1.4448  2.5918 -0.0056
  389SOL     MW 1556   0.452   0.113   3.008 -0.1385  0.7891 -0.1363
  390SOL     OW 1557   1.286   0.081   0.690  0.3572  0.3734  0.2323
  390SOL    HW1 1558   1.354   0.052   0.624 -0.4444 -1.6038 -3.3629
  390SOL    HW2 1559   1.331   0.110   0.770 -1.6153 -1.6903 -1.8199
  390SOL     MW 1560   1.301   0.081   0.692 -0.0088 -0.1598 -0.5128
  391SOL     OW 1561   0.351   2.239   1.415 -0.3543 -0.3462 -0.1731
  391SOL    HW1 1562   0.322   2.146   1.430  2.0920 -0.5985  0.3013
  391SOL    HW2 1563   0.273   2.276   1.451 -1.4440  0.8050 -0.8401
  391SOL     MW 1564   0.337   2.232   1.422 -0.1753 -0.2276 -0.1985
  392SOL     OW 1565   2.018   2.217   0.315 -0.2685 -0.0504 -0.2603
  392SOL    HW1 1566   2.076   2.169   0.375 -2.8787  0.5395  0.8535
  392SOL    HW2 1567   1.982   2.283   0.380 -0.8832 -1.5241 -0.4865
  392SOL     MW 1568   2.021   2.219   0.331 -0.6940 -0.1670 -0.1432
  393SOL     OW 1569   0.234   2.971   2.801  0.7038  0.0857 -0.1562
  393SOL    HW1 1570   0.329   2.952   2.785  3.7262 -0.8143  0.2868
  393SOL    HW2 1571   0.229   3.065   2.775 -0.4457 -1.1336  1.3139
  393SOL     MW 1572   0.246   2.981   2.796  0.9509 -0.1939  0.0962
  394SOL     OW 1573   0.857   1.751   1.551  0.2663  0.2679 -0.7324
  394SOL    HW1 1574   0.787   1.762   1.620 -0.7543  0.5772 -0.2250
  394SOL    HW2 1575   0.858   1.840   1.506  0.8965 -0.5602  2.5207
  394SOL     MW 1576   0.848   1.764   1.554  0.2148  0.1995 -0.2363
  395SOL     OW 1577   0.965   2.832   2.658 -0.4732  0.7854  0.1204
  395SOL    HW1 1578   1.020   2.903   2.684 -2.2665  0.4204  1.2156
  395SOL    HW2 1579   1.028   2.772   2.611  0.9930  0.4445  0.5061
  395SOL     MW 1580   0.981   2.834   2.655 -0.5164  0.6922  0.3158
  396SOL     OW 1581   0.713   1.850   2.376 -0.2057 -0.2899 -0.1685
  396SOL    HW1 1582   0.776   1.873   2.448  0.6345  1.7339  2.0128
  396SOL    HW2 1583   0.731   1.755   2.370  0.3730  3.1990  2.6244
  396SOL     MW 1584   0.724   1.841   2.384 -0.0185  0.4375  0.4878
  397SOL     OW 1585   1.015   2.323   1.336  0.0887  0.1398  0.9507
  397SOL    HW1 1586   1.048   2.359   1.256  1.8480 -0.3246  3.0238
  397SOL    HW2 1587   1.093   2.311   1.390 -2.4489  2.0418 -0.9541
  397SOL     MW 1588   1.030   2.326   1.333 -0.0140  0.3294  0.9729
  398SOL     OW 1589   0.530   2.664   0.677  0.6084 -0.0615  0.1148
  398SOL    HW1 1590   0.457   2.612   0.694 -0.7260  3.2135 -1.1814
  398SOL    HW2 1591   0.602   2.605   0.647 -0.7022  0.5075  1.5844
  398SOL     MW 1592   0.530   2.649   0.676  0.2594  0.4457  0.1377
  399SOL     OW 1593   0.232   2.093   0.302 -0.3599  0.0365 -0.4580
  399SOL    HW1 1594   0.174   2.163   0.326  0.0341  0.3938 -1.0545
  399SOL    HW2 1595   0.265   2.110   0.208 -0.2931 -0.6751 -2.2452
  399SOL     MW 1596   0.228   2.104   0.292 -0.2991 -0.0102 -0.7725
  400SOL     OW 1597   0.516   1.937   0.087  0.2264 -0.2126 -0.1824
  400SOL    HW1 1598   0.482   2.027   0.090 -1.4299  0.2611 -0.0638
  400SOL    HW2 1599   0.459   1.890   0.149  0.3198 -1.3028  1.3223
  400SOL     MW 1600   0.504   1.942   0.095  0.0202 -0.2939  0.0318
  401SOL     OW 1601   0.756   2.059   0.061  0.2777 -0.4255 -0.2020
  401SOL    HW1 1602   0.822   1.987   0.087  0.9321  1.3059 -0.6835
  401SOL    HW2 1603   0.665   2.027   0.072 -0.3031 -0.8860 -0.3133
  401SOL     MW 1604   0.753   2.045   0.066  0.2874 -0.2578 -0.2802
  402SOL     OW 1605   0.599   2.977   1.757  0.5123  0.1452 -0.6547
  402SOL    HW1 1606   0.674   2.950   1.807 -1.6948  0.0799 -0.5883
  402SOL    HW2 1607   0.616   3.064   1.725 -1.5209  1.3454  0.5269
  402SOL     MW 1608   0.611   2.985   1.759 -0.0472  0.2949 -0.4900
  403SOL     OW 1609   0.091   0.426   0.388  0.5910 -0.5160 -0.0491
  403SOL    HW1 1610   0.161   0.439   0.456 -1.1824  0.7752  1.4980
  403SOL    HW2 1611   0.140   0.446   0.308 -0.9016  1.2900  1.9223
  403SOL     MW 1612   0.106   0.431   0.386  0.1601 -0.1074  0.4152
  404SOL     OW 1613   0.951   2.930   0.760  0.4411 -0.1029 -0.3727
  404SOL    HW1 1614   1.016   2.858   0.751  0.1687 -0.5705  2.5788
  404SOL    HW2 1615   0.978   3.014   0.720  2.8510 -0.0470 -1.4089
  404SOL     MW 1616   0.963   2.931   0.754  0.7231 -0.1572 -0.1200
  405SOL     OW 1617   0.531   2.413   1.539  0.4035  0.7602 -0.1439
  405SOL    HW1 1618   0.521   2.491   1.483  0.3225  2.4062 -2.0333
  405SOL    HW2 1619   0.461   2.347   1.513 -2.5846 -0.0482  1.4764
  405SOL     MW 1620   0.521   2.414   1.528 -0.0015  0.8707 -0.1794
  406SOL     OW 1621   0.366   2.401   1.072 -0.0940  0.0930 -0.3906
  406SOL    HW1 1622   0.272   2.390   1.082 -0.3787 -0.9946  0.2020
  406SOL    HW2 1623   0.398   2.311   1.092  0.5512 -0.7804  1.7007
  406SOL     MW 1624   0.358   2.387   1.076 -0.0464 -0.1657 -0.0365
  407SOL     OW 1625   0.005   2.657   1.146  0.3612  0.2950  0.1351
  407SOL    HW1 1626   0.070   2.643   1.221  3.0214  0.3313 -0.2321
  407SOL    HW2 1627   0.059   2.686   1.071 -0.8489 -3.2262  1.2700
  407SOL     MW 1628   0.020   2.659   1.146  0.5525 -0.1648  0.2364
  408SOL     OW 1629   2.176   2.172   0.644 -0.2469  0.0488 -0.4808
  408SOL    HW1 1630   2.162   2.188   0.736 -0.2189  3.3714 -0.1350
  408SOL    HW2 1631   2.113   2.101   0.623  1.2972  1.8414 -1.5556
  408SOL     MW 1632   2.166   2.164   0.653 -0.0394  0.7237 -0.5770
  409SOL     OW 1633   1.436   0.150   0.938 -0.7050  0.2210  0.1540
  409SOL    HW1 1634   1.525   0.190   0.951  1.3492 -1.3378  0.0450
  409SOL    HW2 1635   1.445   0.070   0.990  1.6089  0.3489 -1.5167
  409SOL     MW 1636   1.449   0.145   0.946 -0.1286  0.0322 -0.0808
  410SOL     OW 1637   1.115   2.448   1.107 -0.2185 -0.4638 -0.1690
  410SOL    HW1 1638   1.050   2.467   1.043 -0.0465  1.3480  0.3200
  410SOL    HW2 1639   1.174   2.378   1.065  0.7949 -0.9363 -2.1420
  410SOL     MW 1640   1.114   2.441   1.093 -0.0621 -0.2871 -0.3648
  411SOL     OW 1641   1.973   0.078   2.869 -0.2494 -0.2204 -0.2319
  411SOL    HW1 1642   1.910   0.036   2.813 -1.7458 -0.7101 -0.1978
  411SOL    HW2 1643   1.930   0.118   2.939  0.0157  0.4795 -0.4337
  411SOL     MW 1644   1.959   0.078   2.871 -0.4118 -0.1927 -0.2540
  412SOL     OW 1645   1.035   2.254   0.583 -0.0226  0.1177 -0.3352
  412SOL    HW1 1646   1.078   2.312   0.648  3.9519  0.4483 -1.2685
  412SOL    HW2 1647   0.973   2.309   0.525  2.7322  0.1697  0.1033
  412SOL     MW 1648   1.032   2.269   0.584  0.8653  0.1682 -0.4005
  413SOL     OW 1649   0.589   2.731   3.067 -0.0450  0.0101  0.1705
  413SOL    HW1 1650   0.641   2.646   3.090  0.2447 -5.1891  0.4423
  413SOL    HW2 1651   0.609   2.750   2.977 -3.7548  0.0430  3.1399
  413SOL     MW 1652   0.598   2.722   3.058 -0.4963 -0.6715  0.5982
  414SOL     OW 1653   1.899   2.978   1.082 -0.4624  0.4143  0.5299
  414SOL    HW1 1654   1.840   3.049   1.103 -1.3624  1.5938  0.2886
  414SOL    HW2 1655   1.953   3.010   1.009  0.8404  0.2779  2.3010
  414SOL     MW 1656   1.899   2.992   1.075 -0.4092  0.5519  0.7317
  415SOL     OW 1657   1.841   2.681   1.077  0.6170  0.9445 -0.3149
  415SOL    HW1 1658   1.799   2.666   1.165 -2.7032  0.1582 -0.4475
  415SOL    HW2 1659   1.848   2.774   1.062 -0.7767  1.5914  0.2140
  415SOL     MW 1660   1.837   2.692   1.087 -0.0049  0.9261 -0.2626
  416SOL     OW 1661   0.551   1.992   1.361 -0.2077  0.5850 -0.2680
  416SOL    HW1 1662   0.508   2.055   1.300 -0.1817 -1.6097 -1.6690
  416SOL    HW2 1663   0.497   1.917   1.354 -0.3310 -0.5213 -0.4145
  416SOL     MW 1664   0.538   1.991   1.352 -0.2205  0.1495 -0.4722
  417SOL     OW 1665   0.985   3.048   2.059 -0.4555 -0.7074 -0.1529
  417SOL    HW1 1666   0.941   3.066   2.138  2.8623 -0.2671 -0.1337
  417SOL    HW2 1667   0.920   2.992   2.005 -0.0130 -0.4730 -2.6160
  417SOL     MW 1668   0.971   3.043   2.063  0.0406 -0.6184 -0.4753
  418SOL     OW 1669   0.698   2.929   0.106 -0.9931 -0.0102 -0.7451
  418SOL    HW1 1670   0.788   2.931   0.066  0.2065  3.8729  1.6496
  418SOL    HW2 1671   0.655   2.849   0.062 -0.0359 -0.8025  0.7138
  418SOL     MW 1672   0.704   2.919   0.095 -0.7085  0.3976 -0.2366
  419SOL     OW 1673   0.477   2.601   1.343  0.5283 -0.1484  0.5713
  419SOL    HW1 1674   0.525   2.668   1.391  0.4111 -0.5588 -4.6420
  419SOL    HW2 1675   0.515   2.599   1.251  2.7041  0.7210  1.3765
  419SOL     MW 1676   0.489   2.609   1.337  0.7999 -0.0878 -0.0103
  420SOL     OW 1677   0.859   2.259   0.998  0.2077  0.2102  0.1924
  420SOL    HW1 1678   0.785   2.273   1.057  0.8607 -0.9719 -0.5682
  420SOL    HW2 1679   0.867   2.354   0.970  1.2374  2.8243  2.7783
  420SOL     MW 1680   0.851   2.273   1.002  0.4297  0.3991  0.4332
  421SOL     OW 1681   2.949   0.161   3.041 -0.3950  0.4322 -0.1537
  421SOL    HW1 1682   2.879   0.118   3.002  2.2040 -1.0422  0.0556
  421SOL    HW2 1683   3.006   0.085   3.059 -0.2994  2.4469 -2.2086
  421SOL     MW 1684   2.947   0.145   3.038 -0.0395  0.5035 -0.3972
  422SOL     OW 1685   0.895   2.521   0.925  0.1715 -0.4508  0.7588
  422SOL    HW1 1686   0.848   2.596   0.961  2.0016  2.3427 -0.4900
  422SOL    HW2 1687   0.855   2.502   0.837 -1.2031 -0.2047 -1.4902
  422SOL     MW 1688   0.884   2.529   0.919  0.2316 -0.0498  0.2973
  423SOL     OW 1689   1.453   0.079   0.474  0.4314 -0.0024  0.1791
  423SOL    HW1 1690   1.440   0.068   0.380  2.1088 -0.1854 -0.6480
  423SOL    HW2 1691   1.454   0.172   0.478 -4.0921 -0.3559  2.3847
  423SOL     MW 1692   1.451   0.089   0.462  0.0559 -0.0732  0.3610
  424SOL     OW 1693   0.683   2.288   1.200 -0.2776  0.3133  0.3241
  424SOL    HW1 1694   0.588   2.256   1.179 -2.5749 -0.6512  0.1978
  424SOL    HW2 1695   0.677   2.287   1.292 -1.4292  1.6213  0.4139
  424SOL     MW 1696   0.670   2.284   1.209 -0.7326  0.3586  0.3193
  425SOL     OW 1697   1.715   2.805   2.044 -0.5454 -0.1834 -0.2064
  425SOL    HW1 1698   1.745   2.809   1.953 -1.2257  2.7061 -2.1847
  425SOL    HW2 1699   1.725   2.721   2.091 -0.3913  0.8893 -0.1137
  425SOL     MW 1700   1.721   2.795   2.038 -0.6148  0.3394 -0.4552
  426SOL     OW 1701   0.832   1.692   1.967  0.4602  0.0918  0.2451
  426SOL    HW1 1702   0.780   1.716   1.890 -1.0176  1.4100 -0.2605
  426SOL    HW2 1703   0.837   1.771   2.020  0.3607  1.0533 -1.3304
  426SOL     MW 1704   0.826   1.705   1.964  0.2521  0.3926 -0.0295
  427SOL     OW 1705   0.376   1.649   1.892  0.5344 -0.0665 -0.2293
  427SOL    HW1 1706   0.424   1.572   1.874 -2.0485 -0.5977 -1.9019
  427SOL    HW2 1707   0.284   1.627   1.916 -0.4410  2.5757 -0.3793
  427SOL     MW 1708   0.370   1.636   1.893  0.0649  0.2120 -0.4697
  428SOL     OW 1709   0.619   2.591   1.108  0.6331 -0.4794 -0.8942
  428SOL    HW1 1710   0.688   2.591   1.172 -1.2414  2.6570 -0.2006
  428SOL    HW2 1711   0.570   2.509   1.100 -5.1454  0.7509 -1.0840
  428SOL     MW 1712   0.622   2.580   1.115 -0.3766  0.0967 -0.8277
  429SOL     OW 1713   1.258   2.777   1.137 -0.3526  0.1076  0.5189
  429SOL    HW1 1714   1.163   2.766   1.160  0.3430  0.5914 -0.8892
  429SOL    HW2 1715   1.254   2.851   1.075  2.7412 -1.5565 -0.9311
  429SOL     MW 1716   1.245   2.785   1.132  0.1473 -0.0481  0.1418
  430SOL     OW 1717   1.139   2.738   0.703  0.2280 -0.3333  0.0901
  430SOL    HW1 1718   1.161   2.647   0.706  1.1655 -0.2523  0.6629
  430SOL    HW2 1719   1.079   2.734   0.620  0.2482  0.6415 -2.3674
  430SOL     MW 1720   1.134   2.726   0.693  0.3543 -0.1940 -0.1586
  431SOL     OW 1721   0.352   1.935   1.049  0.1179  0.3491 -0.3092
  431SOL    HW1 1722   0.417   1.865   1.059  4.0826  1.1300 -1.4486
  431SOL    HW2 1723   0.322   1.933   0.954  0.2829 -0.6947 -2.8997
  431SOL     MW 1724   0.356   1.925   1.038  0.6628  0.3144 -0.8013
  432SOL     OW 1725   0.070   0.034   1.240  0.0334 -0.1763  0.0968
  432SOL    HW1 1726   0.075   0.098   1.313 -1.7133 -0.0273 -3.5748
  432SOL    HW2 1727   0.013  -0.039   1.273  1.2979  3.0057  2.1034
  432SOL     MW 1728   0.063   0.033   1.254 -0.0302  0.2632 -0.1229
  433SOL     OW 1729   0.606   2.808   1.504 -0.1506 -0.5070 -0.0213
  433SOL    HW1 1730   0.576   2.848   1.583  0.2930  2.2130  0.4432
  433SOL    HW2 1731   0.695   2.834   1.519 -2.8412  1.6931 -0.0398
  433SOL     MW 1732   0.614   2.817   1.517 -0.4471  0.1422  0.0376
  434SOL     OW 1733   1.580   2.828   1.516 -0.0882 -0.5810  0.1865
  434SOL    HW1 1734   1.486   2.863   1.512 -0.6583 -0.9666 -1.1727
  434SOL    HW2 1735   1.572   2.745   1.466  3.0694 -1.4195  0.8176
  434SOL     MW 1736   1.567   2.822   1.509  0.2532 -0.7425  0.0905
  435SOL     OW 1737   2.860   1.786   0.214  0.2351  0.2012 -0.3727
  435SOL    HW1 1738   2.915   1.862   0.190  1.2337 -2.3121  0.2646
  435SOL    HW2 1739   2.801   1.760   0.135 -2.2531 -2.1890 -2.4077
  435SOL     MW 1740   2.860   1.793   0.200  0.0386 -0.4458 -0.5571
  436SOL     OW 1741   1.356   2.684   0.439  0.6165 -0.4927  0.4996
  436SOL    HW1 1742   1.447   2.691   0.472  2.1687 -0.4714  1.1911
  436SOL    HW2 1743   1.300   2.753   0.470  3.5189  0.8062  0.7493
  436SOL     MW 1744   1.361   2.694   0.447  1.2043 -0.3185  0.6238
  437SOL     OW 1745   0.859   2.976   1.341  0.4343  0.4690  0.4323
  437SOL    HW1 1746   0.909   3.059   1.325 -0.3236  0.9085 -3.8330
  437SOL    HW2 1747   0.903   2.911   1.291 -0.0485  0.8459  0.3849
  437SOL     MW 1748   0.872   2.979   1.333  0.2706  0.5767 -0.1367
  438SOL     OW 1749   0.810   2.618   1.846 -0.0576 -0.6431  0.5831
  438SOL    HW1 1750   0.795   2.605   1.937 -2.0807  1.3397 -0.4491
  438SOL    HW2 1751   0.791   2.530   1.803  1.6306 -0.8337  1.6741
  438SOL     MW 1752   0.805   2.605   1.853 -0.1018 -0.4067  0.5908
  439SOL     OW 1753   1.243   2.171   0.420  0.0653 -0.3942 -0.1970
  439SOL    HW1 1754   1.161   2.188   0.466  1.1446 -0.1018 -1.9158
  439SOL    HW2 1755   1.225   2.213   0.336  0.1579 -0.5396  0.3351
  439SOL     MW 1756   1.230   2.179   0.415  0.2200 -0.3748 -0.3535
  440SOL     OW 1757   1.773   3.038   3.066  0.0190  0.1132 -0.1884
  440SOL    HW1 1758   1.703   3.007   3.127  0.3795 -2.5897  0.2558
  440SOL    HW2 1759   1.848   2.987   3.094 -3.1249  1.4761 -0.5391
  440SOL     MW 1760   1.774   3.027   3.078 -0.3482 -0.0636 -0.1761
  441SOL     OW 1761   0.312   2.637   0.474  0.1675  0.3179  0.1909
  441SOL    HW1 1762   0.314   2.622   0.380 -0.0909  3.2102 -2.9716
  441SOL    HW2 1763   0.361   2.719   0.482  0.6696 -2.5767 -1.2606
  441SOL     MW 1764   0.318   2.646   0.463  0.1997  0.3176 -0.4179
  442SOL     OW 1765   3.096   2.416   0.613  0.5475 -0.4051 -0.1470
  442SOL    HW1 1766   3.130   2.503   0.606  1.9067  1.8469 -1.9041
  442SOL    HW2 1767   3.007   2.428   0.645 -1.0478 -0.6332 -1.3696
  442SOL     MW 1768   3.089   2.429   0.617  0.5164 -0.1381 -0.5401
  443SOL     OW 1769   1.407   1.799   1.904  0.0814 -0.1359 -0.2381
  443SOL    HW1 1770   1.381   1.839   1.823 -1.9882 -1.4991  0.1813
  443SOL    HW2 1771   1.346   1.725   1.917  1.7715 -2.9606  2.6969
  443SOL     MW 1772   1.396   1.795   1.895  0.0313 -0.6884  0.2044
  444SOL     OW 1773   0.864   2.559   1.534 -0.4255  0.2994 -0.3316
  444SOL    HW1 1774   0.915   2.535   1.611  0.7515 -3.1263  1.4007
  444SOL    HW2 1775   0.785   2.502   1.537 -1.4444  0.8165 -2.4100
  444SOL     MW 1776   0.860   2.548   1.544 -0.4046 -0.0843 -0.3772
  445SOL     OW 1777   1.039   0.086   1.344  0.0941 -0.3635 -0.4102
  445SOL    HW1 1778   1.009   0.176   1.336  0.3631 -0.9236 -1.6799
  445SOL    HW2 1779   1.102   0.077   1.276 -0.0940  2.5047  1.4876
  445SOL     MW 1780   1.043   0.096   1.334  0.1048 -0.0590 -0.3274
  446SOL     OW 1781   2.739   2.917   1.118 -0.0060  0.0197  0.0525
  446SOL    HW1 1782   2.708   2.973   1.044 -0.5508  0.0163 -0.7542
  446SOL    HW2 1783   2.780   2.841   1.072 -0.4148 -1.3198 -2.3080
  446SOL     MW 1784   2.740   2.915   1.102 -0.1318 -0.1574 -0.3654
  447SOL     OW 1785   0.077   2.018   1.650 -0.4653  0.0005 -0.1569
  447SOL    HW1 1786   0.122   1.936   1.666 -2.0278  0.1066  0.0574
  447SOL    HW2 1787  -0.016   1.985   1.630 -2.3067  1.5799  1.4075
  447SOL     MW 1788   0.070   2.003   1.649 -0.9144  0.2229  0.0778
  448SOL     OW 1789   1.748   2.423   1.616  0.6759  0.3576  0.1823
  448SOL    HW1 1790   1.708   2.333   1.617  0.9353 -1.4017  2.1122
  448SOL    HW2 1791   1.669   2.481   1.615 -3.5935 -0.2068  3.5721
  448SOL     MW 1792   1.732   2.419   1.616  0.1468  0.0510  0.8842
  449SOL     OW 1793   0.800   2.869   0.358  0.9342  0.4216 -0.5349
  449SOL    HW1 1794   0.755   2.886   0.270  0.8122  1.6339  0.0340
  449SOL    HW2 1795   0.753   2.901   0.441 -2.2972  0.1952  1.7663
  449SOL     MW 1796   0.788   2.875   0.357  0.4917  0.5517 -0.1562
  450SOL     OW 1797   1.204   2.462   0.730  0.0741 -0.3946  0.0608
  450SOL    HW1 1798   1.217   2.425   0.823 -1.7714 -2.9807  3.9696
  450SOL    HW2 1799   1.286   2.461   0.686 -1.1423  2.2819 -0.3758
  450SOL     MW 1800   1.217   2.457   0.737 -0.3299 -0.3827  0.5189
  451SOL     OW 1801   0.557   2.083   1.625 -0.1507 -0.3560 -0.2723
  451SOL    HW1 1802   0.628   2.144   1.608 -1.3955  0.4450  0.6412
  451SOL    HW2 1803   0.550   2.021   1.549 -0.9602 -0.9585 -2.8861
  451SOL     MW 1804   0.565   2.083   1.613 -0.4218 -0.3298 -0.4966
  452SOL     OW 1805   0.283   2.704   0.008 -0.2420 -0.0825  0.2470
  452SOL    HW1 1806   0.368   2.716  -0.040 -0.7945 -0.6633 -1.3162
  452SOL    HW2 1807   0.224   2.754  -0.053 -0.9438 -0.0340  1.4635
  452SOL     MW 1808   0.287   2.712  -0.006 -0.4075 -0.1528  0.2013
  453SOL     OW 1809   0.339   2.978   1.656 -0.0478  0.1688 -0.4675
  453SOL    HW1 1810   0.409   2.986   1.717 -0.6615  0.7494 -1.0163
  453SOL    HW2 1811   0.385   3.012   1.573  0.5781  4.2359 -0.5272
  453SOL     MW 1812   0.355   2.984   1.653 -0.0462  0.7820 -0.5478
  454SOL     OW 1813   0.995   2.769   1.215 -0.2353  0.1553 -0.2562
  454SOL    HW1 1814   0.973   2.674   1.204 -2.4804 -0.4076  0.5167
  454SOL    HW2 1815   0.949   2.817   1.147  3.4187  3.5633  1.6709
  454SOL     MW 1816   0.986   2.763   1.205 -0.0494  0.5307  0.1000
  455SOL     OW 1817   1.618   2.928   0.162  0.0167  0.1521 -0.5259
  455SOL    HW1 1818   1.666   2.933   0.249  0.2937 -1.3312  0.7120
  455SOL    HW2 1819   1.569   2.840   0.161 -2.4277 -0.1312  1.7037
  455SOL     MW 1820   1.618   2.917   0.174 -0.2692 -0.0810 -0.0684
  456SOL     OW 1821   2.768   0.359   1.480 -0.1453 -0.3558  0.5372
  456SOL    HW1 1822   2.721   0.286   1.434 -1.6638 -2.4020 -1.4701
  456SOL    HW2 1823   2.858   0.373   1.436  2.0857  1.5978  0.3537
  456SOL     MW 1824   2.774   0.351   1.468 -0.0513 -0.3680  0.2481
  457SOL     OW 1825   0.979   1.559   2.921  0.3457 -0.4265  0.2396
  457SOL    HW1 1826   0.893   1.558   2.964 -2.6768 -0.1444  2.3809
  457SOL    HW2 1827   1.019   1.472   2.935 -0.5876 -1.8065 -0.0400
  457SOL     MW 1828   0.973   1.547   2.929 -0.1762 -0.5713  0.4852
  458SOL     OW 1829   1.456   1.478   0.558 -0.8335  0.1093  0.3314
  458SOL    HW1 1830   1.396   1.548   0.536 -0.4428  0.4495 -0.3127
  458SOL    HW2 1831   1.443   1.418   0.483  1.6187 -1.1450 -0.7145
  458SOL     MW 1832   1.447   1.480   0.545 -0.4584 -0.0113  0.1084
  459SOL     OW 1833   1.460   0.085   0.186  0.4677 -0.0498 -0.1103
  459SOL    HW1 1834   1.473   0.005   0.136  1.9900  0.0470 -0.5344
  459SOL    HW2 1835   1.395   0.131   0.131  1.1869 -3.7246 -0.2489
  459SOL     MW 1836   1.453   0.081   0.172  0.7635 -0.5219 -0.1845
  460SOL     OW 1837   1.741   2.153   0.622  0.1055 -0.3099 -0.3888
  460SOL    HW1 1838   1.665   2.145   0.683  0.4265  2.9937  1.3203
  460SOL    HW2 1839   1.779   2.065   0.610 -2.5002 -2.1389  1.8161
  460SOL     MW 1840   1.736   2.140   0.629 -0.1959 -0.1154  0.1276
  461SOL     OW 1841   0.365   2.378   0.575 -0.0335 -0.1227  0.0958
  461SOL    HW1 1842   0.344   2.462   0.530  1.7179  0.6740 -2.5594
  461SOL    HW2 1843   0.332   2.392   0.661  0.1734  0.8625 -2.3947
  461SOL     MW 1844   0.358   2.391   0.580  0.2249  0.1124 -0.5831
  462SOL     OW 1845   0.410   0.292   1.294 -0.1676 -0.3360 -0.3180
  462SOL    HW1 1846   0.443   0.246   1.214  0.0851 -1.2193 -1.7621
  462SOL    HW2 1847   0.488   0.332   1.331 -1.9769  0.5182 -2.9122
  462SOL     MW 1848   0.424   0.291   1.289 -0.3729 -0.3398 -0.8508
  463SOL     OW 1849   0.978   0.071   0.645  0.3032 -0.0116  0.3877
  463SOL    HW1 1850   0.987   0.115   0.558  1.5128  2.8837 -0.8144
  463SOL    HW2 1851   0.886   0.083   0.664  1.8455  0.7403 -2.0638
  463SOL     MW 1852   0.967   0.078   0.636  0.6663  0.4696 -0.0944
  464SOL     OW 1853   0.822   3.078   2.305 -0.3458 -0.2694 -0.3306
  464SOL    HW1 1854   0.786   2.992   2.285  0.6521  1.5738 -0.5485
  464SOL    HW2 1855   0.846   3.072   2.405 -1.7631  1.3528  1.5829
  464SOL     MW 1856   0.821   3.066   2.315 -0.4011  0.1879 -0.1069
  465SOL     OW 1857   0.714   0.296   0.483  0.5678 -0.2159  0.3934
  465SOL    HW1 1858   0.711   0.235   0.555  0.4485 -1.3335 -0.6160
  465SOL    HW2 1859   0.691   0.261   0.394 -0.4626  0.3881 -0.7061
  465SOL     MW 1860   0.711   0.284   0.481  0.4161 -0.2837  0.1152
  466SOL     OW 1861   1.066   2.016   0.711 -0.4039 -0.0770  0.2940
  466SOL    HW1 1862   1.032   1.952   0.650  1.8440  0.4378 -1.5391
  466SOL    HW2 1863   1.057   2.095   0.658  2.5711 -0.5218 -1.7739
  466SOL     MW 1864   1.060   2.018   0.696  0.2852 -0.0678 -0.2207
  467SOL     OW 1865   1.222   2.281   0.926 -0.1668  0.2798  0.0998
  467SOL    HW1 1866   1.321   2.298   0.929 -0.5606  0.5107  0.8300
  467SOL    HW2 1867   1.219   2.191   0.902  0.3159  0.6532  0.6214
  467SOL     MW 1868   1.235   2.272   0.924 -0.1550  0.3595  0.2649
  468SOL     OW 1869   0.380   2.602   2.024 -0.1125 -0.3508  0.3809
  468SOL    HW1 1870   0.429   2.573   1.941 -1.1211  1.3973  1.4193
  468SOL    HW2 1871   0.327   2.681   1.991 -0.6062 -0.8836  0.0769
  468SOL     MW 1872   0.379   2.608   2.009 -0.3107 -0.1905  0.4778
  469SOL     OW 1873   0.360   2.195   1.799 -0.1968  0.3268  0.2896
  469SOL    HW1 1874   0.300   2.133   1.840  1.8864  0.4370  0.3226
  469SOL    HW2 1875   0.428   2.140   1.751 -0.1380 -2.3924 -1.9234
  469SOL     MW 1876   0.361   2.180   1.798  0.0859 -0.0174  0.0020
  470SOL     OW 1877   3.002   2.598   0.098  0.1814  0.3232 -0.2859
  470SOL    HW1 1878   2.937   2.571   0.167  1.8167  2.5005 -1.1852
  470SOL    HW2 1879   2.951   2.602   0.016 -1.9768 -2.8352  0.2904
  470SOL     MW 1880   2.987   2.595   0.097  0.1124  0.1938 -0.3285
  471SOL     OW 1881   1.171   2.704   1.462  0.6468  0.5039  0.1975
  471SOL    HW1 1882   1.110   2.689   1.539 -0.4191 -2.6390  2.5510
  471SOL    HW2 1883   1.112   2.730   1.386  1.0030 -0.7125 -0.9085
  471SOL     MW 1884   1.155   2.705   1.462  0.5532 -0.0712  0.3621
  472SOL     OW 1885   2.874   2.115   0.365 -0.4878 -0.3955 -0.7302
  472SOL    HW1 1886   2.931   2.074   0.305  0.2308 -2.0720  2.3351
  472SOL    HW2 1887   2.821   2.038   0.389  0.9019 -1.6343 -0.5343
  472SOL     MW 1888   2.875   2.100   0.360 -0.2096 -0.7801 -0.2999
  473SOL     OW 1889   0.827   2.562   1.255 -0.5838 -0.7343  0.1010
  473SOL    HW1 1890   0.878   2.484   1.259 -0.6456 -1.0463 -0.4096
  473SOL    HW2 1891   0.812   2.588   1.348  2.4200  2.1676 -1.0709
  473SOL     MW 1892   0.832   2.555   1.268 -0.1957 -0.3926 -0.1210
  474SOL     OW 1893   0.870   2.110   1.794  0.0125  0.1973 -0.0222
  474SOL    HW1 1894   0.947   2.152   1.827 -2.1879 -1.4983 -0.4204
  474SOL    HW2 1895   0.862   2.136   1.699 -2.1605 -2.3060 -0.0473
  474SOL     MW 1896   0.879   2.119   1.786 -0.5645 -0.3567 -0.0781
  475SOL     OW 1897   1.649   0.005   1.495  0.0705 -0.5184  0.3244
  475SOL    HW1 1898   1.610   0.030   1.411 -2.4103  0.0786 -2.6716
  475SOL    HW2 1899   1.633  -0.091   1.500 -1.6373 -0.7654  1.3868
  475SOL     MW 1900   1.642  -0.005   1.485 -0.4822 -0.4722  0.0693
  476SOL     OW 1901   1.408   2.603   0.963  0.2422  0.4083  0.7461
  476SOL    HW1 1902   1.335   2.630   1.011  1.6959  0.9313 -0.2389
  476SOL    HW2 1903   1.442   2.674   0.912 -0.7618 -3.2040 -0.5772
  476SOL     MW 1904   1.403   2.616   0.963  0.3015  0.0007  0.4415
  477SOL     OW 1905   0.774   2.497   0.643 -0.2234 -0.0175  0.5219
  477SOL    HW1 1906   0.836   2.549   0.594 -1.3654 -2.7899 -1.5922
  477SOL    HW2 1907   0.756   2.416   0.591  2.4788  0.0331  0.3973
  477SOL     MW 1908   0.780   2.493   0.630 -0.0175 -0.3766  0.2265
  478SOL     OW 1909   0.158   2.723   0.924  0.4742  0.1079 -0.0628
  478SOL    HW1 1910   0.215   2.795   0.926 -0.9503 -0.8310 -1.5967
  478SOL    HW2 1911   0.222   2.646   0.917 -1.8100 -1.8518 -0.7793
  478SOL     MW 1912   0.174   2.722   0.923 -0.0151 -0.2746 -0.3597
  479SOL     OW 1913   1.438   1.986   1.271  0.0172 -0.1939 -0.6434
  479SOL    HW1 1914   1.397   2.009   1.356  0.1057  0.1765  1.2010
  479SOL    HW2 1915   1.520   1.936   1.293 -0.6717  1.4053  2.8648
  479SOL     MW 1916   1.444   1.982   1.285 -0.0620  0.0659  0.0628
  480SOL     OW 1917   1.885   2.383   1.314  0.2476  0.4919 -0.6909
  480SOL    HW1 1918   1.889   2.293   1.342 -3.5541  0.5151  1.2812
  480SOL    HW2 1919   1.951   2.386   1.245 -0.4492 -1.7263  0.1809
  480SOL     MW 1920   1.894   2.372   1.309 -0.3459  0.2023 -0.3157
  481SOL     OW 1921   0.993   0.056   1.018  0.1847  0.1088 -0.7022
  481SOL    HW1 1922   1.035  -0.004   0.955  0.1634 -1.2339 -1.6511
  481SOL    HW2 1923   1.063   0.118   1.027  2.5912 -0.6704 -0.1946
  481SOL     MW 1924   1.007   0.056   1.011  0.4994 -0.1712 -0.7605
  482SOL     OW 1925   1.030   3.016   0.272  0.1951 -0.0225 -0.7267
  482SOL    HW1 1926   0.972   2.951   0.309  1.5187  1.5626  0.9304
  482SOL    HW2 1927   0.994   3.100   0.301 -0.7521 -0.5526  2.1176
  482SOL     MW 1928   1.018   3.019   0.280  0.2448  0.1167 -0.1328
  483SOL     OW 1929   0.415   2.910   0.473 -0.2663 -0.0879  0.0649
  483SOL    HW1 1930   0.344   2.929   0.413  0.5904  0.4220 -0.4762
  483SOL    HW2 1931   0.382   2.952   0.552  1.8673 -0.4054  0.0824
  483SOL     MW 1932   0.401   2.918   0.475  0.1283 -0.0625 -0.0042
  484SOL     OW 1933   1.678   1.872   1.378  0.5316 -0.1609  0.3073
  484SOL    HW1 1934   1.741   1.945   1.381  2.0782 -1.7586  0.2575
  484SOL    HW2 1935   1.672   1.842   1.468 -2.0879  2.3094  0.1284
  484SOL     MW 1936   1.685   1.878   1.390  0.3900 -0.0458  0.2771
  485SOL     OW 1937   0.553   2.391   0.224  0.2558 -0.8050  0.1781
  485SOL    HW1 1938   0.583   2.357   0.314  1.2420  1.2562 -0.6680
  485SOL    HW2 1939   0.476   2.444   0.248 -1.1866 -3.1631  0.5582
  485SOL     MW 1940   0.547   2.393   0.239  0.1956 -0.8442  0.1166
  486SOL     OW 1941   0.143   2.402   1.502  0.4530  0.7054  0.1766
  486SOL    HW1 1942   0.151   2.483   1.450  1.9628 -1.8260  1.5786
  486SOL    HW2 1943   0.147   2.426   1.598  2.9479  2.0712  0.7155
  486SOL     MW 1944   0.145   2.416   1.508  0.9814  0.5516  0.4327
  487SOL     OW 1945   1.281   1.641   1.041  0.1060  0.3885  0.0715
  487SOL    HW1 1946   1.253   1.731   1.058 -0.1882 -0.7878  2.4114
  487SOL    HW2 1947   1.363   1.639   0.992  4.7137 -3.1884  0.4992
  487SOL     MW 1948   1.288   1.652   1.037  0.6751 -0.2386  0.4366
  488SOL     OW 1949   1.657   1.865   0.535 -0.0522 -0.5259 -0.6086
  488SOL    HW1 1950   1.740   1.852   0.492 -2.1475  1.3627  1.6270
  488SOL    HW2 1951   1.592   1.905   0.474  0.6146  0.6682 -0.5919
  488SOL     MW 1952   1.660   1.869   0.521 -0.2407 -0.1192 -0.3114
  489SOL     OW 1953   0.645   0.770   0.599 -0.1161  0.1307  0.8037
  489SOL    HW1 1954   0.690   0.690   0.590 -1.0865  2.2903  1.3513
  489SOL    HW2 1955   0.645   0.803   0.687 -1.9054  1.6023  0.0013
  489SOL     MW 1956   0.651   0.764   0.609 -0.4802  0.6098  0.7701
  490SOL     OW 1957   1.478   2.020   0.419  0.5955  0.2069 -0.1955
  490SOL    HW1 1958   1.531   2.075   0.362  0.7360 -0.8787  4.1249
  490SOL    HW2 1959   1.391   2.065   0.433 -0.9908  0.7176 -0.7315
  490SOL     MW 1960   1.474   2.033   0.413  0.4047  0.1311  0.3038
  491SOL     OW 1961   1.210   2.939   0.475  0.4020  0.3041 -0.1890
  491SOL    HW1 1962   1.280   2.998   0.469 -0.0883 -0.9181  0.2776
  491SOL    HW2 1963   1.155   2.953   0.399  0.0258 -1.9198  0.5853
  491SOL     MW 1964   1.212   2.949   0.464  0.2877 -0.1505 -0.0253
  492SOL     OW 1965   1.515   2.091   0.732  0.0860  0.1290  0.5084
  492SOL    HW1 1966   1.508   2.045   0.647 -1.2615  1.6473  0.1350
  492SOL    HW2 1967   1.430   2.066   0.777 -1.8766 -1.5620  1.7949
  492SOL     MW 1968   1.503   2.082   0.727 -0.3507  0.1062  0.6289
  493SOL     OW 1969   0.204   2.982   0.319  0.3838  0.0231 -0.1137
  493SOL    HW1 1970   0.142   3.042   0.362  1.6856  0.0566  0.8211
  493SOL    HW2 1971   0.220   3.023   0.231  1.4831  1.9482  0.2813
  493SOL     MW 1972   0.198   2.995   0.313  0.7006  0.2815  0.0618
  494SOL     OW 1973   0.438   2.467   1.798 -0.2881 -0.3200  0.2051
  494SOL    HW1 1974   0.410   2.377   1.821  1.2645 -0.7822 -0.7714
  494SOL    HW2 1975   0.464   2.459   1.710  2.1662 -1.6249  0.0338
  494SOL     MW 1976   0.437   2.454   1.790  0.2406 -0.5531  0.0537
  495SOL     OW 1977   2.912   1.687   2.596 -0.4959 -0.1664 -0.2638
  495SOL    HW1 1978   2.907   1.775   2.565 -1.3487 -0.4845  0.6129
  495SOL    HW2 1979   2.916   1.685   2.690 -0.8327  0.5558 -3.3046
  495SOL     MW 1980   2.912   1.698   2.605 -0.6529 -0.1130 -0.5493
  496SOL     OW 1981   2.895   2.313   2.684  0.5835 -0.2946 -0.4568
  496SOL    HW1 1982   2.942   2.236   2.722  0.8389 -3.1705  2.6562
  496SOL    HW2 1983   2.949   2.400   2.674  1.7198  0.5871  2.4205
  496SOL     MW 1984   2.908   2.314   2.688  0.7671 -0.5577  0.3336
  497SOL     OW 1985   1.581   2.251   2.643 -0.3595 -0.2178  0.0374
  497SOL    HW1 1986   1.505   2.207   2.603 -1.5058  1.0537 -0.2138
  497SOL    HW2 1987   1.612   2.196   2.713  1.3195 -0.8393 -1.0529
  497SOL     MW 1988   1.575   2.238   2.647 -0.2892 -0.1320 -0.1396
  498SOL     OW 1989   1.529   2.735   2.386  0.5409  0.0395  0.1959
  498SOL    HW1 1990   1.501   2.643   2.360 -0.7991 -0.7344  1.5734
  498SOL    HW2 1991   1.618   2.738   2.420  3.5455 -2.5005 -1.8406
  498SOL     MW 1992   1.537   2.724   2.387  0.7605 -0.3978  0.1090
  499SOL     OW 1993   0.937   0.084   0.020  0.4064 -0.0759  0.0839
  499SOL    HW1 1994   0.882   0.080   0.097  1.4466  0.1720 -1.1439
  499SOL    HW2 1995   0.988  -0.003   0.017  0.8616  3.0389 -2.3299
  499SOL     MW 1996   0.936   0.072   0.030  0.6037  0.3678 -0.3966
  500SOL     OW 1997   1.139   2.538   2.757  0.4339  0.6599 -0.0903
  500SOL    HW1 1998   1.184   2.478   2.816  2.1941  1.8838  0.7029
  500SOL    HW2 1999   1.062   2.564   2.809 -2.1931 -0.7388 -0.5208
  500SOL     MW 2000   1.135   2.533   2.771  0.3195  0.6368 -0.0425
  501SOL     OW 2001   1.770   2.229   3.066  0.1843 -0.6505 -0.1297
  501SOL    HW1 2002   1.748   2.319   3.091  0.4250  4.4257 -0.3805
  501SOL    HW2 2003   1.866   2.215   3.090  0.2983  2.6681  1.9755
  501SOL     MW 2004   1.780   2.239   3.072  0.2311  0.4571  0.1149
  502SOL     OW 2005   0.074   2.806   2.962  0.4290 -0.3750  0.0091
  502SOL    HW1 2006   0.030   2.740   2.915  0.7861  2.6122  2.0353
  502SOL    HW2 2007   0.114   2.869   2.898 -0.6052  0.7483  3.9241
  502SOL     MW 2008   0.074   2.805   2.947  0.3397  0.1673  0.7930
  503SOL     OW 2009   1.100   2.679   2.069  0.3853  0.2695  0.6523
  503SOL    HW1 2010   1.175   2.641   2.030 -1.8465 -1.8603  1.0525
  503SOL    HW2 2011   1.035   2.693   2.006 -0.8073  1.8906  1.3554
  503SOL     MW 2012   1.101   2.676   2.055 -0.0665  0.2024  0.7979
  504SOL     OW 2013   3.093   2.697   2.078 -0.0085  0.0321  0.0106
  504SOL    HW1 2014   3.135   2.611   2.071 -3.4772 -2.5324 -0.5364
  504SOL    HW2 2015   2.999   2.695   2.050  0.2914  0.2234  0.4465
  504SOL     MW 2016   3.086   2.686   2.074 -0.4266 -0.2810 -0.0040
  505SOL     OW 2017   1.700   2.614   2.851  1.2365 -0.1892  0.6168
  505SOL    HW1 2018   1.725   2.620   2.761 -0.0936  1.2820  1.5089
  505SOL    HW2 2019   1.658   2.698   2.858  0.6897 -0.5099  1.7515
  505SOL     MW 2020   1.698   2.626   2.840  0.9889 -0.0374  0.8843
  506SOL     OW 2021   1.579   3.091   2.867 -0.5830 -0.0379  0.3583
  506SOL    HW1 2022   1.641   3.075   2.939 -0.2102  2.6682  0.4992
  506SOL    HW2 2023   1.638   3.082   2.791 -0.9500 -1.8961  2.8486
  506SOL     MW 2024   1.595   3.088   2.866 -0.5822  0.0740  0.7054
  507SOL     OW 2025   0.893   2.655   2.846 -0.2522 -0.3749  0.2782
  507SOL    HW1 2026   0.909   2.733   2.796 -1.8329 -1.2295 -0.7294
  507SOL    HW2 2027   0.808   2.629   2.814 -0.1460  1.3724 -3.3172
  507SOL     MW 2028   0.884   2.662   2.835 -0.4467 -0.2571 -0.3291
  508SOL     OW 2029   1.152   2.103   2.500 -0.3319 -0.4462 -0.2427
  508SOL    HW1 2030   1.215   2.085   2.568 -2.9478  0.1656 -0.3982
  508SOL    HW2 2031   1.091   2.174   2.541 -3.2966  3.4258 -0.3972
  508SOL     MW 2032   1.152   2.110   2.515 -1.0682  0.1454 -0.2836
  509SOL     OW 2033   0.621   2.608   2.749  0.3874  0.0910 -0.1699
  509SOL    HW1 2034   0.657   2.576   2.665 -0.6466 -0.7513  0.7676
  509SOL    HW2 2035   0.531   2.569   2.749  0.2473 -2.4266  0.3250
  509SOL     MW 2036   0.614   2.598   2.738  0.2325 -0.3523  0.0191
  510SOL     OW 2037   1.493   2.608   1.666 -0.0165  0.1386 -0.7419
  510SOL    HW1 2038   1.506   2.695   1.636 -1.2278  3.4375 -0.5171
  510SOL    HW2 2039   1.442   2.624   1.748 -0.3063 -0.6611 -0.2420
  510SOL     MW 2040   1.488   2.622   1.673 -0.2145  0.4683 -0.6463
  511SOL     OW 2041   0.421   2.622   2.447  0.0688 -0.1463  0.3791
  511SOL    HW1 2042   0.514   2.586   2.462 -4.4755  0.6574 -0.4561
  511SOL    HW2 2043   0.432   2.659   2.359 -1.0367  2.3198  1.8264
  511SOL     MW 2044   0.435   2.622   2.437 -0.6766  0.2851  0.4599
  512SOL     OW 2045   0.973   2.050   2.807 -0.2468 -0.1617 -0.3869
  512SOL    HW1 2046   0.897   2.086   2.861 -1.9433  0.0868  1.4220
  512SOL    HW2 2047   0.979   1.960   2.837 -0.0033  0.0097 -3.1101
  512SOL     MW 2048   0.964   2.043   2.818 -0.4385 -0.1063 -0.5076
  513SOL     OW 2049   1.585   2.481   2.267 -0.6270 -0.2536  0.3714
  513SOL    HW1 2050   1.628   2.483   2.184  0.5895  1.4632  0.9493
  513SOL    HW2 2051   1.653   2.474   2.333  0.5409 -0.8350 -0.1001
  513SOL     MW 2052   1.600   2.481   2.265 -0.3124 -0.1038  0.3854
  514SOL     OW 2053   0.243   2.508   2.631  0.6637  0.0407 -0.1488
  514SOL    HW1 2054   0.314   2.542   2.577 -0.8498 -3.9429 -0.3007
  514SOL    HW2 2055   0.288   2.463   2.706  3.4200 -0.8082  1.0944
  514SOL     MW 2056   0.258   2.507   2.634  0.8277 -0.5969 -0.0048
  515SOL     OW 2057   1.142   2.015   2.046 -0.1267  0.1573 -0.4241
  515SOL    HW1 2058   1.155   2.093   1.984  1.2028  1.0737 -2.4895
  515SOL    HW2 2059   1.222   2.016   2.093 -1.1312 -0.7512  1.7002
  515SOL     MW 2060   1.154   2.026   2.044 -0.0838  0.1584 -0.4163
  516SOL     OW 2061   1.481   2.510   0.013  0.1948  0.6964  0.2642
  516SOL    HW1 2062   1.482   2.456  -0.067  0.1008  2.3119  1.0329
  516SOL    HW2 2063   1.407   2.566  -0.009 -0.8449  1.2127  0.0461
  516SOL     MW 2064   1.471   2.510  -0.000  0.0452  0.9776  0.3369
  517SOL     OW 2065   0.563   2.434   2.127  1.0071  0.7281 -0.7319
  517SOL    HW1 2066   0.516   2.519   2.129 -2.5265  0.3092 -0.2508
  517SOL    HW2 2067   0.488   2.376   2.110 -1.5780 -1.7823 -0.4041
  517SOL     MW 2068   0.547   2.438   2.125  0.1998  0.3416 -0.6252
  518SOL     OW 2069   1.751   0.199   3.069 -0.6649  0.0058 -0.4973
  518SOL    HW1 2070   1.742   0.203   3.164 -0.3302 -0.0014  3.0110
  518SOL    HW2 2071   1.777   0.103   3.057  3.6688  0.3144  0.8016
  518SOL     MW 2072   1.753   0.187   3.080 -0.0490  0.0456  0.1370
  519SOL     OW 2073   0.721   2.377   1.777  0.2395 -0.9118  0.1924
  519SOL    HW1 2074   0.753   2.290   1.766  0.9565 -0.6744  1.7283
  519SOL    HW2 2075   0.634   2.378   1.733 -0.6888  0.4975 -1.5251
  519SOL     MW 2076   0.714   2.366   1.770  0.2116 -0.6946  0.1684
  520SOL     OW 2077   1.186   2.125   2.974  1.3459  0.1369  0.0932
  520SOL    HW1 2078   1.124   2.068   2.923  1.4799  0.0798 -0.4752
  520SOL    HW2 2079   1.225   2.081   3.051 -1.7508 -1.5798 -1.4813
  520SOL     MW 2080   1.183   2.112   2.977  0.9550 -0.0971 -0.1895
  521SOL     OW 2081   1.735   2.032   2.158  0.5181  0.4999  0.0106
  521SOL    HW1 2082   1.744   2.070   2.067  1.4707 -2.6863 -0.2994
  521SOL    HW2 2083   1.669   1.965   2.142  1.4310  0.6722 -0.2593
  521SOL     MW 2084   1.727   2.028   2.144  0.7642  0.1023 -0.0659
  522SOL     OW 2085   2.872   2.531   2.229 -0.1288  0.5349  0.0891
  522SOL    HW1 2086   2.947   2.473   2.222  0.7170 -0.7984  0.3256
  522SOL    HW2 2087   2.896   2.591   2.290 -0.2836 -1.2537 -0.2539
  522SOL     MW 2088   2.885   2.531   2.236 -0.0377  0.1230  0.0750
  523SOL     OW 2089   0.964   1.566   2.181  0.3302 -0.8548  0.4688
  523SOL    HW1 2090   0.906   1.599   2.110  1.9693 -0.5314 -1.3385
  523SOL    HW2 2091   0.999   1.493   2.136 -0.6546 -0.7123 -1.4336
  523SOL     MW 2092   0.961   1.561   2.166  0.4165 -0.7933 -0.0207
  524SOL     OW 2093   0.697   2.437   2.947  0.0673  0.1665 -0.6689
  524SOL    HW1 2094   0.697   2.476   2.864  0.0489 -0.6948  2.7511
  524SOL    HW2 2095   0.738   2.342   2.937 -0.0362 -0.0679 -0.3583
  524SOL     MW 2096   0.702   2.429   2.935  0.0512  0.0220 -0.1767
  525SOL     OW 2097   0.356   2.281   2.074 -0.9060  0.3843 -0.0097
  525SOL    HW1 2098   0.345   2.217   2.145 -1.7922 -2.0968  3.1609
  525SOL    HW2 2099   0.375   2.228   1.991  0.7044  1.1765  0.2140
  525SOL     MW 2100   0.357   2.266   2.073 -0.8105  0.1615  0.4382
  526SOL     OW 2101   0.676   2.017   1.960 -0.8014  0.5706  0.4541
  526SOL    HW1 2102   0.733   2.029   1.885  1.6234 -2.7358  1.3262
  526SOL    HW2 2103   0.676   2.093   2.019 -0.4261 -0.0295 -1.0080
  526SOL     MW 2104   0.684   2.028   1.958 -0.4319  0.0552  0.3762
  527SOL     OW 2105   1.444   2.018   2.090 -0.1416  0.0776  0.3535
  527SOL    HW1 2106   1.425   1.997   2.181  0.4955 -2.0204 -1.3939
  527SOL    HW2 2107   1.432   1.945   2.026  1.8560  1.4517  0.2708
  527SOL     MW 2108   1.440   2.005   2.093  0.2060 -0.0179  0.1120
  528SOL     OW 2109   0.697   2.891   2.850 -0.5822  1.2742 -0.0653
  528SOL    HW1 2110   0.713   2.980   2.886 -1.9273  0.5165  1.1507
  528SOL    HW2 2111   0.631   2.905   2.780  0.4779  0.0979 -1.1334
  528SOL     MW 2112   0.690   2.905   2.846 -0.6198  1.0191 -0.0457
  529SOL     OW 2113   1.100   2.246   1.882 -0.0106  0.0289  0.0334
  529SOL    HW1 2114   1.057   2.292   1.960  0.0921 -0.2606  1.2133
  529SOL    HW2 2115   1.104   2.309   1.806  0.8880 -4.5261  1.5044
  529SOL     MW 2116   1.095   2.260   1.882  0.1215 -0.6103  0.3831
  530SOL     OW 2117   1.148   2.385   2.996 -0.0836 -0.1963  0.6616
  530SOL    HW1 2118   1.101   2.425   3.067  3.7238  1.6387  2.6476
  530SOL    HW2 2119   1.145   2.288   2.994  0.0349 -0.7061  0.9136
  530SOL     MW 2120   1.141   2.377   3.005  0.4343 -0.0214  0.9569
  531SOL     OW 2121   0.890   1.869   2.579 -0.3055 -0.0514  0.1665
  531SOL    HW1 2122   0.896   1.947   2.640  0.8999 -0.2778 -1.7413
  531SOL    HW2 2123   0.867   1.790   2.627  1.4896 -0.3629  0.9450
  531SOL     MW 2124   0.888   1.869   2.594  0.0904 -0.1224  0.0175
  532SOL     OW 2125   1.758   0.310   2.838  0.4331 -0.4809 -0.1959
  532SOL    HW1 2126   1.752   0.266   2.926 -0.1802 -0.0524 -0.4391
  532SOL    HW2 2127   1.825   0.373   2.856 -2.6781 -0.5619 -0.8053
  532SOL     MW 2128   1.766   0.312   2.852 -0.0583 -0.4351 -0.3084
  533SOL     OW 2129   1.913   2.638   3.016 -0.3977 -0.5627  0.3925
  533SOL    HW1 2130   1.897   2.590   3.096 -1.2331 -0.9900  0.4674
  533SOL    HW2 2131   1.835   2.627   2.971  3.0424  0.8043  1.4128
  533SOL     MW 2132   1.901   2.630   3.020 -0.0541 -0.4387  0.5370
  534SOL     OW 2133   1.762   2.417   2.487 -0.3340  0.3352  0.5073
  534SOL    HW1 2134   1.700   2.361   2.538 -0.3620  0.1751  0.6354
  534SOL    HW2 2135   1.838   2.409   2.548 -0.0015  0.7653 -3.1265
  534SOL     MW 2136   1.764   2.408   2.502 -0.2938  0.3708  0.0447
  535SOL     OW 2137   1.905   2.360   1.837  0.1259  0.1395 -0.0434
  535SOL    HW1 2138   1.854   2.412   1.775 -1.3779 -2.2147  0.5397
  535SOL    HW2 2139   1.999   2.391   1.830 -0.1288 -0.4778 -0.0100
  535SOL     MW 2140   1.911   2.371   1.828 -0.1061 -0.2525  0.0379
  536SOL     OW 2141   0.436   1.860   2.052 -0.0348  0.5147  0.0321
  536SOL    HW1 2142   0.422   1.777   1.996  1.5730  1.1293  2.9172
  536SOL    HW2 2143   0.513   1.893   2.013 -2.9956  1.2249 -0.9689
  536SOL     MW 2144   0.445   1.853   2.040 -0.2133  0.6895  0.2807
  537SOL     OW 2145   1.037   0.208   2.852  0.5098  0.5138 -0.3159
  537SOL    HW1 2146   1.004   0.283   2.904 -1.7049  1.7495  1.2925
  537SOL    HW2 2147   1.075   0.244   2.768  0.6659  2.1453 -0.5182
  537SOL     MW 2148   1.038   0.223   2.848  0.2382  0.8921 -0.1304
  538SOL     OW 2149   1.367   0.063   3.006  0.0298  0.3374  0.6244
  538SOL    HW1 2150   1.348   0.153   2.982 -0.6105 -0.8347  0.5048
  538SOL    HW2 2151   1.447   0.041   2.950 -1.1308  1.7272 -0.7571
  538SOL     MW 2152   1.375   0.072   2.996 -0.2078  0.3661  0.4263
  539SOL     OW 2153   0.741   2.784   2.501 -0.1709  0.1463 -0.4700
  539SOL    HW1 2154   0.808   2.813   2.565 -1.8966  1.5217 -1.9236
  539SOL    HW2 2155   0.752   2.687   2.506  1.0227  0.9716  2.2547
  539SOL     MW 2156   0.751   2.775   2.510 -0.2411  0.4366 -0.3023
  540SOL     OW 2157   0.420   2.433   2.850  0.1960  0.6131 -0.0436
  540SOL    HW1 2158   0.508   2.415   2.887 -0.5801  1.3060  2.1089
  540SOL    HW2 2159   0.373   2.435   2.933  1.3958  1.4268  0.5542
  540SOL     MW 2160   0.426   2.431   2.866  0.2519  0.8119  0.3193
  541SOL     OW 2161   0.190   2.918   2.193  0.0357 -0.5936 -0.4030
  541SOL    HW1 2162   0.159   2.848   2.141 -1.9035  1.4438  1.5502
  541SOL    HW2 2163   0.228   2.889   2.274  0.1506 -2.0641  0.6826
  541SOL     MW 2164   0.191   2.905   2.197 -0.2050 -0.5188 -0.0021
  542SOL     OW 2165   1.013   2.278   2.663 -0.1660 -0.3472  0.1199
  542SOL    HW1 2166   1.008   2.189   2.704  1.0325  1.3477  0.4032
  542SOL    HW2 2167   1.079   2.320   2.720  3.0119 -0.9211  1.7206
  542SOL     MW 2168   1.021   2.272   2.676  0.4114 -0.1993  0.3685
  543SOL     OW 2169   1.480   2.436   2.851  0.2495 -0.0806  0.0400
  543SOL    HW1 2170   1.500   2.355   2.801  3.1531 -1.7986  0.1269
  543SOL    HW2 2171   1.558   2.499   2.834  2.7568 -0.2817 -0.6392
  543SOL     MW 2172   1.493   2.434   2.842  0.9635 -0.3338 -0.0382
  544SOL     OW 2173   0.723   0.198   2.767  0.2952 -0.6163  0.0388
  544SOL    HW1 2174   0.629   0.211   2.749 -3.3503  1.9613  1.7855
  544SOL    HW2 2175   0.770   0.135   2.710 -0.5524 -2.0626  0.1892
  544SOL     MW 2176   0.717   0.191   2.757 -0.2976 -0.4670  0.2891
  545SOL     OW 2177   1.589   2.199   2.320  0.0423  0.2964  0.3201
  545SOL    HW1 2178   1.556   2.279   2.279 -1.9303  0.1771  1.7955
  545SOL    HW2 2179   1.661   2.164   2.270 -0.6085 -0.3355  0.3242
  545SOL     MW 2180   1.594   2.205   2.308 -0.3039  0.1973  0.5153
  546SOL     OW 2181   3.032   1.990   0.120  0.0492 -0.2225  0.3678
  546SOL    HW1 2182   3.019   2.067   0.063  0.5265  1.7432 -0.0487
  546SOL    HW2 2183   3.116   1.956   0.079  2.7604  1.4357  0.5372
  546SOL     MW 2184   3.041   1.996   0.107  0.4699  0.2556  0.3352
  547SOL     OW 2185   0.244   3.051   0.061 -0.5655  0.0083 -0.9427
  547SOL    HW1 2186   0.305   3.103   0.015 -5.4163 -1.0156  1.6232
  547SOL    HW2 2187   0.165   3.047   0.003 -2.8560  4.6952 -1.9166
  547SOL     MW 2188   0.241   3.057   0.047 -1.5077  0.4916 -0.7327
  548SOL     OW 2189   0.299   2.512   0.200  0.1655  0.0771  0.1942
  548SOL    HW1 2190   0.300   2.586   0.129 -0.4348 -0.3771 -1.1390
  548SOL    HW2 2191   0.213   2.465   0.190 -0.4211  1.5819  2.2190
  548SOL     MW 2192   0.288   2.516   0.190  0.0089  0.2157  0.2855
  549SOL     OW 2193   0.860   1.887   2.148 -0.1626 -0.1988 -0.5942
  549SOL    HW1 2194   0.825   1.958   2.099  0.1642 -0.5709  3.5127
  549SOL    HW2 2195   0.802   1.882   2.232 -0.1368  4.8513  1.0877
  549SOL     MW 2196   0.848   1.895   2.153 -0.1161  0.4184  0.1696
  550SOL     OW 2197   1.777   1.733   2.607  0.1225 -0.5959  0.2030
  550SOL    HW1 2198   1.796   1.733   2.511 -1.0344  1.6629 -1.5840
  550SOL    HW2 2199   1.763   1.817   2.643  0.1704  0.5308 -1.6730
  550SOL     MW 2200   1.778   1.744   2.599 -0.0238 -0.1492 -0.2803
  551SOL     OW 2201   0.836   2.277   0.205 -0.3563  0.5771 -0.4293
  551SOL    HW1 2202   0.934   2.278   0.201  0.5226 -0.2611  2.7785
  551SOL    HW2 2203   0.795   2.203   0.161 -0.3729  0.8598  0.8739
  551SOL     MW 2204   0.843   2.268   0.199 -0.2425  0.5038  0.1659
  552SOL     OW 2205   1.763   1.683   2.334 -0.3348 -0.3223 -0.9548
  552SOL    HW1 2206   1.669   1.687   2.316  1.8672  0.5772  1.9391
  552SOL    HW2 2207   1.776   1.646   2.240 -1.1284  2.5005 -0.1495
  552SOL     MW 2208   1.752   1.678   2.319 -0.1490  0.1688 -0.4668
  553SOL     OW 2209   1.255   2.323   1.486  0.1452 -0.1345  0.4342
  553SOL    HW1 2210   1.287   2.238   1.515 -2.4438  1.0211 -0.3368
  553SOL    HW2 2211   1.327   2.364   1.437 -0.5109 -1.8100 -2.7230
  553SOL     MW 2212   1.269   2.318   1.483 -0.2829 -0.2031 -0.0841
  554SOL     OW 2213   0.529   2.917   2.636 -0.1427  0.3785 -0.0321
  554SOL    HW1 2214   0.522   2.987   2.566 -2.0844 -0.6082  2.3818
  554SOL    HW2 2215   0.589   2.851   2.598 -0.5233 -0.8426 -2.0818
  554SOL     MW 2216   0.536   2.918   2.622 -0.4491  0.0872  0.0160
  555SOL     OW 2217   0.692   2.489   2.511 -0.5589 -0.2224 -0.3419
  555SOL    HW1 2218   0.624   2.418   2.526 -1.1160  1.7678 -0.2552
  555SOL    HW2 2219   0.775   2.446   2.468  2.7783 -2.7727 -2.5347
  555SOL     MW 2220   0.694   2.474   2.507 -0.1921 -0.2963 -0.6197
  556SOL     OW 2221   0.967   1.874   0.132  0.0524  0.0231 -0.3583
  556SOL    HW1 2222   1.014   1.915   0.061 -0.6342 -0.3355  0.4655
  556SOL    HW2 2223   1.021   1.899   0.211  3.1059  1.7146 -0.2879
  556SOL     MW 2224   0.981   1.883   0.133  0.3647  0.1989 -0.2403
  557SOL     OW 2225   0.949   2.697   0.512  0.1109 -0.3370 -0.1044
  557SOL    HW1 2226   1.003   2.638   0.460 -2.1184  2.4719  0.8868
  557SOL    HW2 2227   0.886   2.739   0.447 -1.6973  1.5351 -1.5697
  557SOL     MW 2228   0.948   2.695   0.497 -0.4218  0.2806 -0.1670
  558SOL     OW 2229   0.219   2.334   3.015 -0.4729  0.1278 -0.0305
  558SOL    HW1 2230   0.167   2.286   2.952 -2.0586  0.2054 -0.0679
  558SOL    HW2 2231   0.154   2.336   3.088 -1.2069 -0.0478  0.4813
  558SOL     MW 2232   0.204   2.328   3.016 -0.7790  0.1149  0.0321
  559SOL     OW 2233   0.970   2.344   2.113  0.4923 -0.2497 -0.1228
  559SOL    HW1 2234   1.026   2.404   2.164  1.0506 -3.1923 -0.6339
  559SOL    HW2 2235   0.963   2.257   2.167 -0.3381  2.0646  0.9975
  559SOL     MW 2236   0.977   2.341   2.127  0.4564 -0.3326 -0.0424
  560SOL     OW 2237   1.987   2.886   0.027  0.1501  0.4442  0.0229
  560SOL    HW1 2238   2.068   2.894  -0.025 -1.5263  0.0864  1.5939
  560SOL    HW2 2239   1.941   2.805  -0.005 -0.3071  0.3396 -3.3402
  560SOL     MW 2240   1.991   2.876   0.016 -0.1314  0.3832 -0.2136
  561SOL     OW 2241   0.416   2.204   0.071 -0.2555 -0.3887 -0.8596
  561SOL    HW1 2242   0.362   2.264   0.013 -0.7090  0.1786  0.8444
  561SOL    HW2 2243   0.470   2.273   0.117  0.7348 -0.3924 -0.8914
  561SOL     MW 2244   0.416   2.221   0.070 -0.1847 -0.3143 -0.6390
  562SOL     OW 2245   0.678   2.179   2.183  0.3928  0.1035  0.2644
  562SOL    HW1 2246   0.630   2.258   2.170 -1.9224 -1.2046 -0.5528
  562SOL    HW2 2247   0.770   2.206   2.217  0.6104  1.9019  2.1366
  562SOL     MW 2248   0.684   2.193   2.186  0.1160  0.1682  0.4036
  563SOL     OW 2249   1.213   0.308   0.567  0.4265 -0.0684  0.2109
  563SOL    HW1 2250   1.141   0.276   0.509  1.1904  1.4241 -0.1916
  563SOL    HW2 2251   1.236   0.228   0.613  1.1093  0.4986  2.3591
  563SOL     MW 2252   1.207   0.293   0.565  0.6174  0.2033  0.4412
  564SOL     OW 2253   1.108   2.525   2.296  0.6666 -0.4184  0.1326
  564SOL    HW1 2254   1.102   2.591   2.228  0.1809 -1.6635 -0.7810
  564SOL    HW2 2255   1.145   2.572   2.378  0.4991  0.5639 -0.4013
  564SOL     MW 2256   1.112   2.540   2.298  0.5804 -0.4530 -0.0584
  565SOL     OW 2257   2.834   2.727   2.648 -0.2859  0.4746 -0.1872
  565SOL    HW1 2258   2.886   2.808   2.658  1.0510  0.2087 -0.5593
  565SOL    HW2 2259   2.787   2.719   2.562  1.1709 -1.3079  1.1741
  565SOL     MW 2260   2.835   2.737   2.638  0.0827  0.2044 -0.0567
  566SOL     OW 2261   2.161   1.850   2.337 -0.3633  0.1097  0.5605
  566SOL    HW1 2262   2.168   1.837   2.244 -1.8570  0.6081  0.1628
  566SOL    HW2 2263   2.219   1.925   2.349 -1.2797 -3.4127  1.3486
  566SOL     MW 2264   2.169   1.859   2.326 -0.6813 -0.2893  0.6120
  567SOL     OW 2265   1.190   2.921   2.992 -0.0083 -0.1213  0.9990
  567SOL    HW1 2266   1.243   3.002   2.994 -0.8074 -1.8276 -1.4278
  567SOL    HW2 2267   1.248   2.836   2.982 -2.2111  2.1263 -2.1405
  567SOL     MW 2268   1.204   2.920   2.991 -0.4043 -0.0499  0.2646
  568SOL     OW 2269   1.573   2.109   2.882  0.4942  0.6277  0.0621
  568SOL    HW1 2270   1.625   2.182   2.915 -2.1713  0.6035 -0.7566
  568SOL    HW2 2271   1.622   2.055   2.813  2.8162 -0.0867 -3.6215
  568SOL     MW 2272   1.586   2.111   2.877  0.4489  0.5302 -0.5319
  569SOL     OW 2273   0.179   2.275   2.456  0.3109  0.5900 -0.0380
  569SOL    HW1 2274   0.111   2.287   2.391 -0.4490 -0.5198  1.1044
  569SOL    HW2 2275   0.196   2.357   2.504  0.1436 -1.7176  1.6890
  569SOL     MW 2276   0.172   2.287   2.454  0.1886  0.1391  0.3406
  570SOL     OW 2277   1.459   0.383   0.484  0.5668 -0.1318  0.3037
  570SOL    HW1 2278   1.367   0.371   0.525 -1.0909 -0.7695  2.1631
  570SOL    HW2 2279   1.516   0.395   0.560  0.3256 -1.4628  0.4667
  570SOL     MW 2280   1.454   0.383   0.499  0.3163 -0.3915  0.5705
  571SOL     OW 2281   1.501   2.453   2.010 -0.3760 -0.1623 -0.0623
  571SOL    HW1 2282   1.437   2.424   2.075 -0.9053  0.1289  1.4045
  571SOL    HW2 2283   1.514   2.372   1.960  0.1185 -0.9978 -1.9657
  571SOL     MW 2284   1.494   2.438   2.012 -0.3806 -0.2341 -0.1199
  572SOL     OW 2285   1.062   2.604   0.101  0.5630 -0.1856  0.2498
  572SOL    HW1 2286   1.078   2.688   0.056  1.8465 -0.3282  0.1030
  572SOL    HW2 2287   0.962   2.594   0.124 -0.4493 -2.3591 -0.8412
  572SOL     MW 2288   1.051   2.614   0.098  0.5988 -0.4912  0.0865
  573SOL     OW 2289   1.105   2.277   0.202 -0.3351 -0.2508 -0.5017
  573SOL    HW1 2290   1.166   2.287   0.127 -0.6668  0.4565  0.1885
  573SOL    HW2 2291   1.129   2.360   0.253  0.6990  0.3025  0.9860
  573SOL     MW 2292   1.116   2.290   0.199 -0.2424 -0.0845 -0.2143
  574SOL     OW 2293   1.127   2.519   0.357 -0.0436 -0.2981  0.0642
  574SOL    HW1 2294   1.203   2.564   0.383 -0.7765 -0.7599  1.2687
  574SOL    HW2 2295   1.102   2.570   0.278  1.1333  0.3987  2.7027
  574SOL     MW 2296   1.133   2.532   0.350  0.0150 -0.2671  0.5713
  575SOL     OW 2297   3.088   2.215   1.804 -0.5468 -0.3999  0.0348
  575SOL    HW1 2298   3.116   2.143   1.743 -4.1287  0.6454 -0.0782
  575SOL    HW2 2299   3.164   2.273   1.799 -0.4004 -3.2913  1.5239
  575SOL     MW 2300   3.102   2.213   1.795 -1.0001 -0.6435  0.2164
  576SOL     OW 2301   2.772   1.780   2.108  0.5209 -0.8016 -0.0003
  576SOL    HW1 2302   2.815   1.799   2.024 -0.9788 -0.0261 -1.7497
  576SOL    HW2 2303   2.688   1.740   2.086  1.3970  1.1387  0.1246
  576SOL     MW 2304   2.767   1.777   2.094  0.4386 -0.4432 -0.2146
  577SOL     OW 2305   2.054   0.209   0.099  0.4766 -0.1709 -0.3384
  577SOL    HW1 2306   1.996   0.266   0.046  1.9827  0.5538  1.3069
  577SOL    HW2 2307   2.004   0.191   0.178  1.4953 -0.1824  0.8244
  577SOL     MW 2308   2.040   0.214   0.103  0.8097 -0.0768  0.0321
  578SOL     OW 2309   1.944   2.014   2.365 -0.0292  0.5116 -0.0399
  578SOL    HW1 2310   1.881   1.995   2.287  1.6102  0.2574 -2.3957
  578SOL    HW2 2311   2.014   1.949   2.363 -1.7467 -1.0615 -0.8362
  578SOL     MW 2312   1.945   2.003   2.354 -0.0395  0.2705 -0.4558
  579SOL     OW 2313   0.911   2.377   2.408 -0.0153  0.0888  0.3893
  579SOL    HW1 2314   0.942   2.342   2.492 -0.2129  1.6705 -0.9059
  579SOL    HW2 2315   0.981   2.436   2.377 -1.5446 -0.6209 -2.1906
  579SOL     MW 2316   0.924   2.380   2.415 -0.2431  0.2039 -0.1220
  580SOL     OW 2317   0.921   2.906   3.046  0.1063 -0.2720  0.7733
  580SOL    HW1 2318   1.012   2.915   3.015 -0.0385 -1.0754 -0.2083
  580SOL    HW2 2319   0.875   2.861   2.978 -0.2212 -0.7967  1.3690
  580SOL     MW 2320   0.927   2.901   3.033  0.0440 -0.4472  0.7224
  581SOL     OW 2321   1.126   2.449   1.706 -0.3261  0.2214 -0.1268
  581SOL    HW1 2322   1.184   2.508   1.753  2.7897  3.0603 -0.2439
  581SOL    HW2 2323   1.187   2.400   1.645  2.6365  1.5651 -2.0074
  581SOL     MW 2324   1.141   2.450   1.704  0.4759  0.7732 -0.3904
  582SOL     OW 2325   0.049   2.787   2.601 -0.0105 -0.5303  0.1404
  582SOL    HW1 2326   0.025   2.842   2.677  3.2810  2.1933  0.5462
  582SOL    HW2 2327   0.139   2.813   2.586  1.4108 -1.8557 -1.2030
  582SOL     MW 2328   0.057   2.797   2.609  0.6113 -0.3458  0.0167
  583SOL     OW 2329   1.988   2.403   2.649  0.1408 -0.2136  0.5090
  583SOL    HW1 2330   2.065   2.412   2.584 -0.4390  0.5207 -1.6117
  583SOL    HW2 2331   1.982   2.303   2.653  1.2438  1.4065 -0.1311
  583SOL     MW 2332   1.998   2.391   2.641  0.2098  0.0971  0.1448
  584SOL     OW 2333   0.134   1.863   2.222 -0.9216 -0.1117  0.2788
  584SOL    HW1 2334   0.188   1.900   2.148 -2.4457  0.9498 -2.2660
  584SOL    HW2 2335   0.109   1.929   2.286 -0.1058 -1.7348  1.4493
  584SOL     MW 2336   0.138   1.877   2.220 -1.0150 -0.1858  0.0975
  585SOL     OW 2337   1.565   2.674   0.225  0.6961 -0.6070 -0.4184
  585SOL    HW1 2338   1.540   2.601   0.166  1.0779 -0.5160  0.4390
  585SOL    HW2 2339   1.503   2.660   0.300 -2.8285 -1.2209  1.7757
  585SOL     MW 2340   1.554   2.662   0.227  0.2814 -0.6760 -0.0158
  586SOL     OW 2341   1.349   2.867   2.540  0.4671  0.2606  0.3371
  586SOL    HW1 2342   1.414   2.835   2.469 -1.2788  0.2410 -0.3527
  586SOL    HW2 2343   1.347   2.961   2.532  1.2063 -2.6059  0.6825
  586SOL     MW 2344   1.358   2.875   2.530  0.3343 -0.1202  0.2917
  587SOL     OW 2345   1.344   1.591   2.138  0.0075  0.4835 -0.6862
  587SOL    HW1 2346   1.344   1.524   2.210  0.1487 -0.1324  0.4790
  587SOL    HW2 2347   1.300   1.552   2.061  0.8596  0.4950  0.9559
  587SOL     MW 2348   1.338   1.577   2.137  0.1386  0.4037 -0.3158
  588SOL     OW 2349   1.316   2.080   2.711 -0.2435  0.0466 -0.5266
  588SOL    HW1 2350   1.351   1.996   2.691 -0.6673 -1.9464  0.1869
  588SOL    HW2 2351   1.299   2.083   2.802 -2.1124  2.8876  0.5480
  588SOL     MW 2352   1.319   2.070   2.721 -0.5460  0.1585 -0.2906
  589SOL     OW 2353   1.343   2.012   0.116  0.4552 -0.4581  0.1050
  589SOL    HW1 2354   1.381   2.096   0.151 -0.0258  1.6353  1.6634
  589SOL    HW2 2355   1.301   1.965   0.189  0.2554 -0.4305  1.9012
  589SOL     MW 2356   1.342   2.017   0.130  0.3653 -0.1783  0.5476
  590SOL     OW 2357   0.498   2.769   2.208  0.4082 -0.1473  0.2250
  590SOL    HW1 2358   0.466   2.736   2.124 -2.6460  1.2904  0.3410
  590SOL    HW2 2359   0.591   2.787   2.208 -2.1451  1.5414  0.4712
  590SOL     MW 2360   0.506   2.767   2.197 -0.3317  0.2652  0.2728
  591SOL     OW 2361   2.248   0.633   0.007  0.2278  0.1318 -0.1822
  591SOL    HW1 2362   2.194   0.661  -0.062  3.2302  0.1333  2.3114
  591SOL    HW2 2363   2.323   0.663  -0.033  1.6638  0.7464  0.0081
  591SOL     MW 2364   2.250   0.641  -0.007  0.8134  0.2131  0.1719
  592SOL     OW 2365   1.767   2.953   0.780 -0.4532  0.0146 -0.1698
  592SOL    HW1 2366   1.764   3.018   0.710  0.0543 -1.4457  2.3279
  592SOL    HW2 2367   1.854   2.915   0.799 -0.4614  1.3557 -1.7505
  592SOL     MW 2368   1.778   2.957   0.773 -0.3873 -0.0011 -0.0488
  593SOL     OW 2369   1.953   0.648   0.803  0.4818 -0.3097  0.2094
  593SOL    HW1 2370   1.860   0.652   0.766 -0.9945  1.0400 -0.3486
  593SOL    HW2 2371   1.977   0.557   0.789  1.6010 -0.4792 -1.1630
  593SOL     MW 2372   1.944   0.636   0.796  0.4347 -0.1540 -0.0453
  594SOL     OW 2373   2.788   1.169   1.403 -0.6333  0.0269  0.4178
  594SOL    HW1 2374   2.866   1.233   1.417  2.6685  1.6011 -0.7940
  594SOL    HW2 2375   2.799   1.136   1.311  2.0514 -1.3489 -1.4359
  594SOL     MW 2376   2.800   1.173   1.392  0.1565  0.0531  0.0133
  595SOL     OW 2377   0.444   0.997   0.797 -0.1633 -0.5309  0.1071
  595SOL    HW1 2378   0.487   1.036   0.724 -2.1027 -1.8560  2.5648
  595SOL    HW2 2379   0.440   1.073   0.856  0.7420  1.3327  2.6241
  595SOL     MW 2380   0.449   1.012   0.795 -0.2997 -0.4599  0.7635
  596SOL     OW 2381   2.486   1.339   0.580  0.1207 -0.1485 -0.2753
  596SOL    HW1 2382   2.560   1.380   0.534 -0.5936  0.6481  1.5288
  596SOL    HW2 2383   2.515   1.342   0.669  1.4625 -0.5923 -1.4337
  596SOL     MW 2384   2.500   1.344   0.586  0.2035 -0.1019 -0.1901
  597SOL     OW 2385   2.195   0.670   1.611  0.0144  0.3766  0.3945
  597SOL    HW1 2386   2.211   0.608   1.680 -1.2065  1.2104  0.1212
  597SOL    HW2 2387   2.121   0.634   1.565  3.4404  0.0760  1.3790
  597SOL     MW 2388   2.188   0.657   1.614  0.3054  0.4470  0.4883
  598SOL     OW 2389   2.569   1.031   2.785 -0.9209  0.3234 -0.3640
  598SOL    HW1 2390   2.603   1.002   2.698  1.0442 -0.7404 -0.3455
  598SOL    HW2 2391   2.649   1.067   2.834  1.0663 -0.9276  0.1901
  598SOL     MW 2392   2.584   1.032   2.780 -0.3994  0.0180 -0.2884
  599SOL     OW 2393   2.968   0.383   2.049  0.2244  0.0088 -0.3817
  599SOL    HW1 2394   3.022   0.382   2.130  1.3985  0.2589 -1.3912
  599SOL    HW2 2395   2.983   0.467   1.999  2.5258  2.0939  0.1644
  599SOL     MW 2396   2.977   0.394   2.053  0.6829  0.3169 -0.4429
  600SOL     OW 2397   1.866   1.599   0.867  0.0787 -0.1034  0.5949
  600SOL    HW1 2398   1.902   1.629   0.953 -2.1605 -1.1976  1.1568
  600SOL    HW2 2399   1.796   1.666   0.860  0.0559  2.4473  1.3419
  600SOL     MW 2400   1.862   1.612   0.877 -0.2197  0.0888  0.7676
  601SOL     OW 2401   2.516   0.756   0.831  0.1041  0.3122 -0.3104
  601SOL    HW1 2402   2.521   0.770   0.927  0.7627  0.0234  0.8191
  601SOL    HW2 2403   2.438   0.704   0.819 -2.8167  0.4770 -1.2203
  601SOL     MW 2404   2.506   0.751   0.842 -0.1944  0.2958 -0.2815
  602SOL     OW 2405   2.307   1.945   0.779 -0.3858 -0.1847 -0.1311
  602SOL    HW1 2406   2.269   1.859   0.760 -1.3787 -0.5951  2.4718
  602SOL    HW2 2407   2.280   2.005   0.709 -0.7486 -2.2768 -2.3743
  602SOL     MW 2408   2.298   1.941   0.767 -0.5647 -0.5148 -0.0836
  603SOL     OW 2409   0.021   1.347   1.822 -0.7182 -0.1360 -0.2310
  603SOL    HW1 2410   0.077   1.412   1.863  0.6185 -1.4773 -1.7861
  603SOL    HW2 2411   0.033   1.269   1.879  3.2382  0.9109  0.9451
  603SOL     MW 2412   0.030   1.345   1.835 -0.0198 -0.1748 -0.2810
  604SOL     OW 2413   2.125   1.538   0.475 -0.7949  0.0094 -0.2307
  604SOL    HW1 2414   2.147   1.455   0.518  1.0253  0.8502 -0.9315
  604SOL    HW2 2415   2.056   1.566   0.527  2.2287 -1.0424 -0.2554
  604SOL     MW 2416   2.119   1.530   0.488 -0.1558 -0.0185 -0.3264
  605SOL     OW 2417   2.547   1.475   0.848 -0.0961 -0.3332 -0.0215
  605SOL    HW1 2418   2.539   1.534   0.775 -1.5105 -1.1623  3.5176
  605SOL    HW2 2419   2.598   1.400   0.829 -2.2497  1.9659  0.2187
  605SOL     MW 2420   2.552   1.473   0.836 -0.5669 -0.1392  0.4771
  606SOL     OW 2421   2.549   1.665   2.021 -0.6740  0.6745  0.0847
  606SOL    HW1 2422   2.466   1.714   2.009  0.1407  0.4691 -0.4008
  606SOL    HW2 2423   2.569   1.624   1.934  0.3644  0.6312 -0.8486
  606SOL     MW 2424   2.541   1.666   2.008 -0.4295  0.6417 -0.1025
  607SOL     OW 2425   2.430   1.092   3.008  0.4196 -0.7598  0.7111
  607SOL    HW1 2426   2.490   1.064   2.937  1.6093 -0.4176  0.3751
  607SOL    HW2 2427   2.463   1.066   3.092 -2.7754  0.7401 -1.3161
  607SOL     MW 2428   2.442   1.085   3.010  0.1551 -0.5167  0.3993
  608SOL     OW 2429   1.856   0.279   0.574  0.2045  0.0142  0.1387
  608SOL    HW1 2430   1.854   0.325   0.493 -2.2672  1.7887  1.2755
  608SOL    HW2 2431   1.800   0.201   0.570  2.4454 -2.9125 -3.3899
  608SOL     MW 2432   1.848   0.275   0.563  0.1741 -0.1378 -0.1769
  609SOL     OW 2433   2.043   1.957   3.011  0.0886  0.1642  0.7871
  609SOL    HW1 2434   1.986   1.880   2.978  0.2847  1.1215  0.8216
  609SOL    HW2 2435   2.087   1.905   3.080 -0.9214  0.6523  0.7888
  609SOL     MW 2436   2.041   1.940   3.016 -0.0188  0.3549  0.7919
  610SOL     OW 2437   1.769   0.987   1.251  0.6727 -0.2285 -0.2255
  610SOL    HW1 2438   1.769   0.928   1.170  3.3320 -0.9001 -0.8496
  610SOL    HW2 2439   1.679   1.012   1.248  0.8648  0.7451  0.0667
  610SOL     MW 2440   1.757   0.983   1.240  1.0489 -0.1887 -0.2693
  611SOL     OW 2441   2.524   1.692   0.686 -0.3472  0.1862 -0.1977
  611SOL    HW1 2442   2.566   1.774   0.663 -0.5121 -2.7382 -1.6746
  611SOL    HW2 2443   2.426   1.706   0.685 -0.3169  1.3878 -3.0612
  611SOL     MW 2444   2.516   1.704   0.682 -0.3650 -0.0411 -0.7704
  612SOL     OW 2445   2.870   2.889   0.380 -0.0944 -0.0974 -0.7797
  612SOL    HW1 2446   2.896   2.924   0.468 -0.8711  0.7410 -0.0607
  612SOL    HW2 2447   2.949   2.852   0.339  0.4172  3.6376  1.8677
  612SOL     MW 2448   2.884   2.889   0.387 -0.1294  0.5060 -0.3355
  613SOL     OW 2449   1.457   1.026   0.897 -0.3399 -0.2335  0.3232
  613SOL    HW1 2450   1.499   1.102   0.850 -0.5894  0.5587 -0.5488
  613SOL    HW2 2451   1.475   1.032   0.988  1.5312  2.5969 -1.4053
  613SOL     MW 2452   1.465   1.037   0.903 -0.1259  0.2445 -0.0199
  614SOL     OW 2453   1.996   0.560   1.475 -0.3094 -0.5835  0.0022
  614SOL    HW1 2454   1.970   0.473   1.524 -0.0566 -1.0145  3.2771
  614SOL    HW2 2455   1.957   0.563   1.387 -2.7025 -0.6444  0.6465
  614SOL     MW 2456   1.987   0.549   1.470 -0.5918 -0.6484  0.5193
  615SOL     OW 2457   2.326   0.764   0.240 -0.3940  0.1062 -0.0459
  615SOL    HW1 2458   2.394   0.717   0.284 -0.9688  2.4608 -0.5675
  615SOL    HW2 2459   2.300   0.698   0.175 -1.4653  0.8288  3.4349
  615SOL     MW 2460   2.331   0.749   0.237 -0.6112  0.5122  0.3446
  616SOL     OW 2461   2.507   0.412   1.653 -0.0220 -0.1061  0.3964
  616SOL    HW1 2462   2.476   0.326   1.614 -2.5485 -0.4868 -1.2112
  616SOL    HW2 2463   2.485   0.468   1.578  1.5017 -0.1232 -1.6065
  616SOL     MW 2464   2.500   0.408   1.638 -0.1543 -0.1586 -0.0800
  617SOL     OW 2465   2.790   0.639   1.705 -0.0772  0.1786 -0.2444
  617SOL    HW1 2466   2.709   0.626   1.764  1.6885 -2.6074  0.9714
  617SOL    HW2 2467   2.819   0.549   1.697 -1.0263  0.3883 -2.5829
  617SOL     MW 2468   2.783   0.625   1.712  0.0305 -0.1613 -0.3925
  618SOL     OW 2469   2.729   0.347   1.924 -0.7221 -0.2446  0.6061
  618SOL    HW1 2470   2.685   0.434   1.939  1.5289  2.5765 -0.9052
  618SOL    HW2 2471   2.814   0.360   1.965 -0.5696 -3.2023  0.1883
  618SOL     MW 2472   2.734   0.360   1.931 -0.4050 -0.2626  0.3515
  619SOL     OW 2473   2.680   0.723   0.063 -0.6506  0.2714 -0.1627
  619SOL    HW1 2474   2.720   0.810   0.079 -0.5343 -0.2591 -0.2426
  619SOL    HW2 2475   2.639   0.698   0.143 -1.1509  1.9094 -0.2013
  619SOL     MW 2476   2.680   0.732   0.076 -0.7012  0.4175 -0.1783
  620SOL     OW 2477   2.210   1.047   0.917 -0.2136 -0.1673 -0.2321
  620SOL    HW1 2478   2.281   1.045   0.852  1.0710 -1.0595 -1.7326
  620SOL    HW2 2479   2.127   1.009   0.886 -0.5996 -0.0145  0.3125
  620SOL     MW 2480   2.208   1.041   0.905 -0.0951 -0.2649 -0.3582
  621SOL     OW 2481   1.562   2.208   1.917 -0.0598 -0.4463  0.2893
  621SOL    HW1 2482   1.517   2.139   1.970 -0.8382  3.7549 -1.5110
  621SOL    HW2 2483   1.658   2.188   1.916  1.3341  1.8339 -1.3035
  621SOL     MW 2484   1.569   2.197   1.924  0.0214  0.4088 -0.1584
  622SOL     OW 2485   2.591   0.186   0.242  0.7044  0.3875  0.0966
  622SOL    HW1 2486   2.679   0.221   0.236  0.1479 -0.6438 -0.6131
  622SOL    HW2 2487   2.604   0.093   0.278  1.1676  0.0860  1.1602
  622SOL     MW 2488   2.604   0.178   0.246  0.6921  0.2117  0.1433
  623SOL     OW 2489   2.420   2.771   0.851  0.6842 -0.2943  0.0689
  623SOL    HW1 2490   2.457   2.853   0.828 -0.1060  0.3511 -0.5641
  623SOL    HW2 2491   2.389   2.776   0.946  0.0689  0.8197  1.3758
  623SOL     MW 2492   2.421   2.783   0.861  0.4987 -0.0622  0.1578
  624SOL     OW 2493   2.150   1.675   3.020  0.0756 -0.7148  0.3523
  624SOL    HW1 2494   2.131   1.587   3.037  0.2832 -1.7292  0.5371
  624SOL    HW2 2495   2.088   1.696   2.960  0.5234  0.6505 -0.3833
  624SOL     MW 2496   2.139   1.666   3.014  0.1621 -0.6685  0.2796
  625SOL     OW 2497   2.186   1.865   1.043  0.1789 -0.3634  0.2003
  625SOL    HW1 2498   2.256   1.833   1.107 -2.2669  0.6121  1.3751
  625SOL    HW2 2499   2.233   1.885   0.962 -0.1252  0.1677  1.0112
  625SOL     MW 2500   2.201   1.863   1.041 -0.1839 -0.1646  0.4623
  626SOL     OW 2501   0.280   1.701   2.421 -0.2475  0.5515  0.6855
  626SOL    HW1 2502   0.217   1.671   2.484  1.9674  1.4414  2.0337
  626SOL    HW2 2503   0.234   1.760   2.362 -1.7153  0.3899  1.2007
  626SOL     MW 2504   0.266   1.705   2.422 -0.1489  0.6476  0.9313
  627SOL     OW 2505   2.463   0.715   2.537  0.6366  0.5480 -0.2688
  627SOL    HW1 2506   2.418   0.799   2.532 -2.0589  0.5352  0.7801
  627SOL    HW2 2507   2.447   0.682   2.450  1.9348 -0.9704  0.2786
  627SOL     MW 2508   2.455   0.721   2.525  0.4523  0.3460 -0.0582
  628SOL     OW 2509   2.290   1.380   1.310 -0.9348  0.3312  0.2911
  628SOL    HW1 2510   2.273   1.296   1.261  1.2315  0.8794  1.3308
  628SOL    HW2 2511   2.347   1.428   1.248  2.6893  2.1901  0.7571
  628SOL     MW 2512   2.295   1.375   1.296 -0.1708  0.6488  0.4898
  629SOL     OW 2513   1.855   0.543   1.233  0.1559  0.0372 -0.2755
  629SOL    HW1 2514   1.847   0.616   1.175  3.1477  0.4253 -1.1454
  629SOL    HW2 2515   1.766   0.517   1.265 -0.4361  3.3577  2.1246
  629SOL     MW 2516   1.842   0.549   1.230  0.4726  0.5265 -0.0736
  630SOL     OW 2517   2.360   1.874   3.068  0.3196  0.1890 -0.1067
  630SOL    HW1 2518   2.327   1.956   3.016 -2.6988  0.1538 -1.0694
  630SOL    HW2 2519   2.293   1.808   3.058  1.8736  0.8064 -3.0108
  630SOL     MW 2520   2.347   1.876   3.060  0.1264  0.2658 -0.6169
  631SOL     OW 2521   2.067   1.763   1.548  0.1442 -0.4302  0.3611
  631SOL    HW1 2522   2.072   1.676   1.593 -0.4386 -4.7948 -0.2243
  631SOL    HW2 2523   2.042   1.740   1.455 -1.3469 -1.6157 -0.4565
  631SOL     MW 2524   2.064   1.748   1.542 -0.1294 -1.1625  0.1760
  632SOL     OW 2525   0.228   1.985   1.406  0.0966 -0.1170  0.1010
  632SOL    HW1 2526   0.176   1.992   1.489  2.4303  0.4231  0.2694
  632SOL    HW2 2527   0.243   1.891   1.407  2.7627  3.7600  1.0332
  632SOL     MW 2528   0.223   1.974   1.417  0.7563  0.4658  0.2462
  633SOL     OW 2529   2.566   0.604   0.282 -0.3276  0.7418 -0.6949
  633SOL    HW1 2530   2.594   0.564   0.365 -0.2795  0.2515 -3.5053
  633SOL    HW2 2531   2.545   0.527   0.228  1.5285 -2.3998  0.4038
  633SOL     MW 2532   2.567   0.589   0.286 -0.0764  0.2626 -0.9207
  634SOL     OW 2533   2.667   0.031   0.656  0.1770  0.2631 -0.1817
  634SOL    HW1 2534   2.735   0.107   0.657  2.6898  0.1702  1.4983
  634SOL    HW2 2535   2.652   0.009   0.565 -3.3030  0.4941  0.3752
  634SOL     MW 2536   2.674   0.038   0.644  0.0494  0.2813  0.1134
  635SOL     OW 2537   2.573   0.133   1.852  0.2996  0.3911 -0.5987
  635SOL    HW1 2538   2.638   0.091   1.791  0.7529  2.2506  1.4371
  635SOL    HW2 2539   2.629   0.206   1.893  2.0333  0.4726  0.3026
  635SOL     MW 2540   2.589   0.137   1.850  0.5882  0.6472 -0.2112
  636SOL     OW 2541   2.839   1.608   0.900  0.0967  0.0107 -0.0511
  636SOL    HW1 2542   2.751   1.610   0.939 -0.8696 -0.0876 -2.4752
  636SOL    HW2 2543   2.897   1.664   0.950  0.3109 -1.3550  3.5104
  636SOL     MW 2544   2.835   1.616   0.912 -0.0025 -0.1824  0.0990
  637SOL     OW 2545   2.866   1.466   0.661 -0.0423  0.2704 -0.9058
  637SOL    HW1 2546   2.897   1.547   0.615  1.0266 -2.4908 -4.6216
  637SOL    HW2 2547   2.841   1.502   0.747 -0.0836  1.3663  0.5410
  637SOL     MW 2548   2.867   1.482   0.666  0.0933  0.0507 -1.2052
  638SOL     OW 2549   2.665   0.522   0.530 -0.0057 -0.2359 -0.6407
  638SOL    HW1 2550   2.755   0.507   0.503 -1.6217 -2.4113  0.1036
  638SOL    HW2 2551   2.680   0.555   0.621 -1.7358 -0.3215  0.5795
  638SOL     MW 2552   2.679   0.525   0.538 -0.4472 -0.5342 -0.3815
  639SOL     OW 2553   1.708   0.021   0.567 -0.2137 -0.2442 -0.3656
  639SOL    HW1 2554   1.616   0.023   0.529 -2.2560 -0.1375 -4.2130
  639SOL    HW2 2555   1.747  -0.045   0.505 -1.7704 -0.4014  0.5458
  639SOL     MW 2556   1.701   0.013   0.554 -0.6886 -0.2509 -0.7530
  640SOL     OW 2557   0.264   1.310   0.124 -0.3680  0.0935 -0.5906
  640SOL    HW1 2558   0.307   1.319   0.038 -0.2296  0.2620 -0.6615
  640SOL    HW2 2559   0.262   1.216   0.141  1.9529  1.4955 -0.8992
  640SOL     MW 2560   0.270   1.299   0.115 -0.0435  0.3007 -0.6407
  641SOL     OW 2561   2.233   0.415   0.418  0.3109  0.3936 -0.6182
  641SOL    HW1 2562   2.252   0.385   0.335  1.2574  0.2589  0.4323
  641SOL    HW2 2563   2.297   0.377   0.478 -2.6500  1.6085 -1.4332
  641SOL     MW 2564   2.244   0.406   0.415  0.0451  0.5361 -0.5871
  642SOL     OW 2565   0.030   0.002   0.538 -0.0348  0.6225 -0.5974
  642SOL    HW1 2566  -0.029   0.067   0.497 -0.0513 -2.6396 -0.6575
  642SOL    HW2 2567  -0.036  -0.057   0.584 -1.1963 -1.0751  1.9566
  642SOL     MW 2568   0.013   0.003   0.538 -0.1903 -0.0319 -0.2683
  643SOL     OW 2569   2.010   0.365   1.678 -0.1443 -0.2927  0.1764
  643SOL    HW1 2570   1.932   0.321   1.719  1.8965 -0.9448 -0.7789
  643SOL    HW2 2571   2.038   0.304   1.606  3.8331 -2.3600  1.9880
  643SOL     MW 2572   2.004   0.351   1.674  0.6497 -0.6515  0.2894
  644SOL     OW 2573   2.711   1.925   1.048 -0.8126 -0.3721 -0.3408
  644SOL    HW1 2574   2.693   1.849   1.106 -0.0280 -1.2276 -1.5800
  644SOL    HW2 2575   2.624   1.961   1.029  0.6857  2.6681 -0.7742
  644SOL     MW 2576   2.697   1.920   1.053 -0.5114 -0.0839 -0.5615
  645SOL     OW 2577   2.823   0.836   0.641  0.3045 -0.0148 -0.2529
  645SOL    HW1 2578   2.902   0.789   0.659  0.3584 -1.3097 -1.0810
  645SOL    HW2 2579   2.751   0.795   0.693 -0.6739 -1.3373  0.5061
  645SOL     MW 2580   2.824   0.824   0.650  0.1825 -0.3601 -0.2620
  646SOL     OW 2581   0.064   2.270   0.868 -0.0405  0.1078  0.9277
  646SOL    HW1 2582   0.123   2.196   0.854  1.1940  0.2080 -3.4613
  646SOL    HW2 2583  -0.016   2.262   0.814  1.7753  0.4842 -1.6416
  646SOL     MW 2584   0.061   2.259   0.859  0.3620  0.1707  0.0096
  647SOL     OW 2585   2.718   0.503   2.933 -0.2042  0.0387  0.3450
  647SOL    HW1 2586   2.675   0.488   3.014  0.5243 -0.5156  0.3337
  647SOL    HW2 2587   2.641   0.511   2.877  0.8218  3.6069 -1.2196
  647SOL     MW 2588   2.702   0.502   2.937  0.0273  0.4364  0.1371
  648SOL     OW 2589   2.184   0.706   1.175  0.5101 -0.0721 -0.3079
  648SOL    HW1 2590   2.223   0.625   1.206  1.8133 -2.6674 -0.6113
  648SOL    HW2 2591   2.213   0.778   1.225 -2.8308 -1.2970  1.1456
  648SOL     MW 2592   2.193   0.705   1.186  0.2413 -0.5761 -0.1561
  649SOL     OW 2593   2.375   2.681   1.320 -0.2039  0.3205  0.3604
  649SOL    HW1 2594   2.467   2.702   1.329  0.7943 -1.6463 -2.2899
  649SOL    HW2 2595   2.371   2.585   1.332  0.4820 -0.8324  5.5253
  649SOL     MW 2596   2.386   2.671   1.323  0.0183 -0.0911  0.6922
  650SOL     OW 2597   2.851   0.241   0.674  0.0551 -0.2588 -0.0487
  650SOL    HW1 2598   2.868   0.304   0.742 -1.3876 -0.2068  0.0294
  650SOL    HW2 2599   2.928   0.248   0.613 -2.4555 -0.0975  1.3223
  650SOL     MW 2600   2.864   0.250   0.675 -0.4665 -0.2307  0.1425
  651SOL     OW 2601   3.064   0.439   0.990  0.0298  0.0754  0.0889
  651SOL    HW1 2602   3.142   0.468   0.935 -1.6024  0.1964  0.1051
  651SOL    HW2 2603   3.008   0.517   0.999 -0.3186  0.5295  0.5761
  651SOL     MW 2604   3.067   0.453   0.984 -0.2315  0.1513  0.1554
  652SOL     OW 2605   2.430   1.543   3.051 -0.6456  0.3165  0.4852
  652SOL    HW1 2606   2.484   1.550   2.977 -0.5363  1.8133  1.2954
  652SOL    HW2 2607   2.365   1.617   3.034 -3.0849 -0.4858  1.9671
  652SOL     MW 2608   2.428   1.554   3.039 -0.9530  0.4081  0.7876
  653SOL     OW 2609   1.821   0.473   0.360 -0.4655  0.1677 -0.8275
  653SOL    HW1 2610   1.754   0.412   0.322 -0.5478 -3.5293 -3.0927
  653SOL    HW2 2611   1.876   0.469   0.283 -1.8578  1.7023 -0.0452
  653SOL     MW 2612   1.819   0.464   0.345 -0.6601 -0.1176 -1.0231
  654SOL     OW 2613   2.414   1.019   0.750  0.5304 -0.4923 -0.3724
  654SOL    HW1 2614   2.356   1.013   0.670 -1.0059 -0.2423  0.1559
  654SOL    HW2 2615   2.444   0.929   0.770 -0.2902  1.0443  0.1700
  654SOL     MW 2616   2.411   1.006   0.743  0.2194 -0.2566 -0.2312
  655SOL     OW 2617   2.902   0.847   0.388 -0.5203  0.5746 -0.0572
  655SOL    HW1 2618   2.865   0.855   0.475 -1.7015  0.5928 -0.7200
  655SOL    HW2 2619   2.909   0.749   0.368  2.0562 -0.9141  0.7478
  655SOL     MW 2620   2.898   0.835   0.397 -0.3362  0.3806 -0.0384
  656SOL     OW 2621   1.793   2.657   1.353 -0.8415  0.0959  0.3072
  656SOL    HW1 2622   1.855   2.729   1.386 -0.5587 -0.3905  0.3467
  656SOL    HW2 2623   1.844   2.577   1.367 -1.2294  1.4571  0.4685
  656SOL     MW 2624   1.808   2.656   1.359 -0.8554  0.2113  0.3337
  657SOL     OW 2625   0.144   1.766   1.161 -0.1766 -0.8426  0.3775
  657SOL    HW1 2626   0.210   1.824   1.118  0.2231  0.6465 -2.2157
  657SOL    HW2 2627   0.185   1.683   1.148 -0.9540  2.9502  2.1401
  657SOL     MW 2628   0.158   1.763   1.153 -0.2264 -0.1457  0.2679
  658SOL     OW 2629   2.653   1.314   0.245 -0.1303 -0.1389 -0.5556
  658SOL    HW1 2630   2.633   1.247   0.316  0.7511 -1.8410  2.4599
  658SOL    HW2 2631   2.690   1.386   0.302  1.6878 -2.0387  1.5027
  658SOL     MW 2632   2.655   1.314   0.262  0.2259 -0.6142  0.1139
  659SOL     OW 2633   2.257   1.540   0.978 -0.0970  0.1441 -0.1711
  659SOL    HW1 2634   2.352   1.563   0.961  1.1604  2.5387  0.9682
  659SOL    HW2 2635   2.227   1.597   1.060 -0.2329  2.4153  0.9972
  659SOL     MW 2636   2.266   1.550   0.987  0.0510  0.7597  0.1334
  660SOL     OW 2637   2.086   1.529   1.683  0.6744 -0.4932  0.5240
  660SOL    HW1 2638   2.113   1.549   1.775 -2.8430  0.2661 -0.0000
  660SOL    HW2 2639   1.997   1.488   1.689  1.1854  0.0936 -0.1314
  660SOL     MW 2640   2.078   1.526   1.696  0.2777 -0.3156  0.3684
  661SOL     OW 2641   2.487   0.986   0.161  0.2825 -0.3204 -0.6269
  661SOL    HW1 2642   2.534   1.010   0.241 -3.0414 -1.9302 -1.0524
  661SOL    HW2 2643   2.423   0.916   0.190  2.6337 -2.8029 -0.1195
  661SOL     MW 2644   2.485   0.980   0.175  0.1542 -0.8603 -0.6161
  662SOL     OW 2645   2.576   3.040   0.898  0.4256 -0.4543  0.1139
  662SOL    HW1 2646   2.498   3.085   0.922 -0.0329  1.4652 -0.0418
  662SOL    HW2 2647   2.594   3.081   0.815  0.4278  0.0335  1.1683
  662SOL     MW 2648   2.568   3.051   0.891  0.3654 -0.1367  0.2325
  663SOL     OW 2649   2.684   1.490   0.458 -0.2007 -0.2832 -0.2941
  663SOL    HW1 2650   2.662   1.579   0.438  3.5605 -0.4657  0.0138
  663SOL    HW2 2651   2.744   1.483   0.533 -1.2161  1.1596 -2.6333
  663SOL     MW 2652   2.689   1.501   0.465  0.1616 -0.1169 -0.5621
  664SOL     OW 2653   2.567   1.543   1.573  0.2828  0.1245  0.5117
  664SOL    HW1 2654   2.542   1.633   1.555  0.0864 -0.0108  1.2307
  664SOL    HW2 2655   2.483   1.487   1.585  0.8632  0.3054  0.4758
  664SOL     MW 2656   2.553   1.547   1.572  0.3334  0.1305  0.6018
  665SOL     OW 2657   2.801   0.842   2.040 -0.8467 -0.4767 -0.0519
  665SOL    HW1 2658   2.764   0.892   1.969  1.0397 -0.7406 -1.0716
  665SOL    HW2 2659   2.850   0.780   1.990  0.3897  2.1250 -0.5427
  665SOL     MW 2660   2.803   0.840   2.024 -0.4347 -0.1682 -0.2512
  666SOL     OW 2661   2.774   3.089   1.705 -0.1151 -0.1175  0.0399
  666SOL    HW1 2662   2.733   3.091   1.618 -2.0963 -0.2388  0.1249
  666SOL    HW2 2663   2.752   3.005   1.745  0.8469 -0.1074 -0.0069
  666SOL     MW 2664   2.766   3.078   1.698 -0.2495 -0.1322  0.0449
  667SOL     OW 2665   1.969   2.664   1.782 -0.5932  0.6138 -0.7138
  667SOL    HW1 2666   2.001   2.645   1.870  0.5940 -0.1173 -1.7156
  667SOL    HW2 2667   2.033   2.724   1.744 -0.4091  0.5335 -0.8147
  667SOL     MW 2668   1.981   2.669   1.789 -0.4122  0.5067 -0.8593
  668SOL     OW 2669   2.720   0.584   0.789 -0.3050 -0.1383  0.2085
  668SOL    HW1 2670   2.798   0.606   0.836  0.3573 -0.4472  0.0887
  668SOL    HW2 2671   2.652   0.654   0.803  5.2934 -1.1903 -2.7937
  668SOL     MW 2672   2.722   0.596   0.797  0.5211 -0.3178 -0.2034
  669SOL     OW 2673   0.142   0.883   0.709 -0.2391 -0.3718  0.4490
  669SOL    HW1 2674   0.087   0.960   0.726 -2.1857  1.3801  0.0117
  669SOL    HW2 2675   0.202   0.863   0.785  0.6802 -1.0573  2.3132
  669SOL     MW 2676   0.143   0.891   0.721 -0.3747 -0.2311  0.6372
  670SOL     OW 2677   2.863   0.294   0.206  0.2074 -0.3448  0.1055
  670SOL    HW1 2678   2.907   0.244   0.131 -0.7994 -1.4139 -2.6090
  670SOL    HW2 2679   2.903   0.380   0.209  0.4170  2.4714 -0.5272
  670SOL     MW 2680   2.874   0.299   0.196  0.1022 -0.1142 -0.3361
  671SOL     OW 2681   2.039   3.052   1.577 -0.4389  0.0366  0.1040
  671SOL    HW1 2682   1.997   3.003   1.503  2.3461  0.0376 -1.8397
  671SOL    HW2 2683   1.970   3.078   1.641 -2.7649  0.1423 -0.8586
  671SOL     MW 2684   2.024   3.049   1.575 -0.3783  0.0507 -0.2795
  672SOL     OW 2685   1.901   1.700   1.309  0.1251 -0.2280 -0.5336
  672SOL    HW1 2686   1.820   1.749   1.327  0.0384  0.3940  0.5254
  672SOL    HW2 2687   1.919   1.730   1.215  0.4976 -0.5980  1.6491
  672SOL     MW 2688   1.893   1.711   1.299  0.1628 -0.1947 -0.1059
  673SOL     OW 2689   2.786   1.124   0.612  0.2169 -0.0847  0.1843
  673SOL    HW1 2690   2.800   1.039   0.654 -0.9273  1.5925  0.8893
  673SOL    HW2 2691   2.871   1.172   0.622  0.5913  0.8588 -1.9360
  673SOL     MW 2692   2.799   1.119   0.619  0.1153  0.2611 -0.0024
  674SOL     OW 2693   2.454   3.069   1.281  0.2114  0.4243 -0.6578
  674SOL    HW1 2694   2.411   3.075   1.190  0.0502  1.0530 -1.2580
  674SOL    HW2 2695   2.465   2.975   1.283 -1.6932 -0.1672  0.5210
  674SOL     MW 2696   2.449   3.057   1.269 -0.0611  0.4292 -0.5815
  675SOL     OW 2697   3.062   0.879   1.081 -0.4839  0.4332  0.0827
  675SOL    HW1 2698   3.127   0.891   1.151  1.1074  0.1102  0.7671
  675SOL    HW2 2699   3.089   0.931   1.009  0.0729 -0.3306 -1.4118
  675SOL     MW 2700   3.074   0.887   1.081 -0.2005  0.2898 -0.0242
  676SOL     OW 2701   2.955   1.485   1.655  0.4228 -0.3095 -0.2567
  676SOL    HW1 2702   2.888   1.420   1.651 -2.3767 -1.5439  0.9604
  676SOL    HW2 2703   3.002   1.450   1.728 -0.9063  1.0906  1.2366
  676SOL     MW 2704   2.952   1.472   1.664 -0.1219 -0.2876  0.1009
  677SOL     OW 2705   2.367   0.582   1.987 -0.2278  0.1820 -0.0618
  677SOL    HW1 2706   2.322   0.547   1.912 -0.1955 -1.0642  1.3564
  677SOL    HW2 2707   2.318   0.665   2.007 -0.7815  2.9655 -0.4009
  677SOL     MW 2708   2.355   0.589   1.980 -0.2966  0.3849  0.0806
  678SOL     OW 2709   2.514   1.680   0.327 -0.4307 -0.5163  0.1284
  678SOL    HW1 2710   2.433   1.729   0.350  0.5822  0.6331 -4.9231
  678SOL    HW2 2711   2.474   1.599   0.302  0.7111  2.0529 -1.0064
  678SOL     MW 2712   2.498   1.676   0.326 -0.1464 -0.0257 -0.6878
  679SOL     OW 2713   2.241   0.477   1.286 -0.0712  0.6262  0.0638
  679SOL    HW1 2714   2.243   0.386   1.260 -0.8861  0.3826 -0.0030
  679SOL    HW2 2715   2.167   0.491   1.343 -0.9879  1.6974 -0.9663
  679SOL     MW 2716   2.231   0.467   1.290 -0.2996  0.7354 -0.0809
  680SOL     OW 2717   2.374   0.180   1.457  0.2753 -0.2271 -0.1414
  680SOL    HW1 2718   2.277   0.182   1.462 -2.8363 -1.1172 -0.4753
  680SOL    HW2 2719   2.403   0.111   1.394 -1.0688  4.1119  1.1289
  680SOL     MW 2720   2.365   0.171   1.449 -0.3126  0.2280 -0.0178
  681SOL     OW 2721   0.293   0.522   1.540 -0.2752  0.8199  0.4244
  681SOL    HW1 2722   0.274   0.466   1.621  1.2891 -2.5872  3.9764
  681SOL    HW2 2723   0.385   0.525   1.540 -1.2622 -0.2107 -0.1447
  681SOL     MW 2724   0.303   0.515   1.550 -0.1991  0.2344  0.8180
  682SOL     OW 2725   0.143   2.844   1.521 -0.2180 -0.1625  0.4256
  682SOL    HW1 2726   0.218   2.895   1.556 -0.0827  2.0797  0.2646
  682SOL    HW2 2727   0.070   2.896   1.551 -1.8285 -3.1986 -0.8152
  682SOL     MW 2728   0.143   2.857   1.529 -0.4126 -0.2673  0.2406
  683SOL     OW 2729   2.060   0.787   2.955 -0.1403  0.0678 -0.6008
  683SOL    HW1 2730   1.970   0.747   2.968  1.5852 -0.8360  0.1875
  683SOL    HW2 2731   2.065   0.868   3.008  0.2914 -1.2749 -0.0116
  683SOL     MW 2732   2.048   0.793   2.964  0.1443 -0.2286 -0.4191
  684SOL     OW 2733   2.253   1.665   0.744  0.4896  0.5325  0.4781
  684SOL    HW1 2734   2.219   1.607   0.673  2.4705 -0.5503 -0.9244
  684SOL    HW2 2735   2.238   1.623   0.828  3.1932  0.9403  0.1389
  684SOL     MW 2736   2.247   1.651   0.745  1.1076  0.4434  0.2483
  685SOL     OW 2737   2.633   1.721   1.211  0.2996 -0.9530  0.4543
  685SOL    HW1 2738   2.696   1.676   1.267 -1.1057 -1.2031  1.7363
  685SOL    HW2 2739   2.594   1.654   1.163  2.1348  1.3711  0.2334
  685SOL     MW 2740   2.636   1.706   1.212  0.3563 -0.6794  0.5943
  686SOL     OW 2741   2.911   0.741   1.485  0.1194 -0.2279 -0.3804
  686SOL    HW1 2742   2.881   0.699   1.562  2.2312  0.2076  1.0755
  686SOL    HW2 2743   3.005   0.709   1.481  0.4564 -1.5182  2.0588
  686SOL     MW 2744   2.919   0.731   1.495  0.4425 -0.3407  0.1335
  687SOL     OW 2745   2.147   0.211   1.210 -0.0437 -0.0927  0.3619
  687SOL    HW1 2746   2.201   0.158   1.151  1.3194  0.6991  0.6163
  687SOL    HW2 2747   2.085   0.263   1.164  1.5013 -1.5602 -2.2095
  687SOL     MW 2748   2.146   0.211   1.196  0.3400 -0.1819  0.0562
  688SOL     OW 2749   2.392   0.577   1.475  0.6313  0.4524 -0.1530
  688SOL    HW1 2750   2.340   0.530   1.407  0.3380 -2.1838 -0.8954
  688SOL    HW2 2751   2.338   0.633   1.532 -2.5727  2.0312  0.7132
  688SOL     MW 2752   2.378   0.578   1.474  0.1698  0.3129 -0.1366
  689SOL     OW 2753   2.476   0.709   2.951  0.3187 -0.8219 -0.0581
  689SOL    HW1 2754   2.492   0.789   2.899 -1.3248 -0.3118 -3.6859
  689SOL    HW2 2755   2.545   0.719   3.018 -0.8681  1.7738 -0.4295
  689SOL     MW 2756   2.487   0.721   2.953 -0.0547 -0.4121 -0.5858
  690SOL     OW 2757   1.982   0.831   1.861  0.0147 -0.3711  0.3253
  690SOL    HW1 2758   1.950   0.742   1.855 -0.2713  0.9359 -0.2606
  690SOL    HW2 2759   2.019   0.838   1.776 -2.0831 -1.7790 -1.4471
  690SOL     MW 2760   1.982   0.820   1.849 -0.2998 -0.3844  0.0142
  691SOL     OW 2761   2.401   0.268   0.869 -0.2677 -0.4152 -0.7547
  691SOL    HW1 2762   2.464   0.315   0.918  0.1444  1.1782 -1.8175
  691SOL    HW2 2763   2.312   0.306   0.871 -2.0608 -4.6496 -0.6676
  691SOL     MW 2764   2.397   0.279   0.875 -0.4499 -0.7637 -0.8834
  692SOL     OW 2765   2.847   1.679   1.440  0.5637 -0.3526  0.4144
  692SOL    HW1 2766   2.860   1.629   1.518 -0.9667 -0.1259 -0.0558
  692SOL    HW2 2767   2.872   1.773   1.474  0.2009 -0.5281  1.1079
  692SOL     MW 2768   2.852   1.685   1.455  0.3139 -0.3459  0.4439
  693SOL     OW 2769   2.256   0.389   0.134  0.3085 -0.3176  0.0654
  693SOL    HW1 2770   2.183   0.337   0.104 -2.8362 -0.3336 -1.1088
  693SOL    HW2 2771   2.249   0.476   0.088 -1.3929 -0.4726  1.1061
  693SOL     MW 2772   2.246   0.394   0.124 -0.3309 -0.3402  0.0478
  694SOL     OW 2773   1.926   1.218   1.202 -0.3992 -0.1373  0.0015
  694SOL    HW1 2774   2.020   1.204   1.175 -0.5423  2.8096 -4.6571
  694SOL    HW2 2775   1.884   1.133   1.222 -0.1285 -0.8952 -1.7169
  694SOL     MW 2776   1.933   1.205   1.201 -0.3824  0.1515 -0.8399
  695SOL     OW 2777   3.075   1.530   1.287  0.3209 -0.7820 -0.0089
  695SOL    HW1 2778   3.025   1.491   1.212  1.8791  1.5102  0.2085
  695SOL    HW2 2779   3.010   1.595   1.326 -0.5723  0.4924  0.8406
  695SOL     MW 2780   3.060   1.533   1.282  0.4087 -0.3114  0.1318
  696SOL     OW 2781   2.064   1.355   0.828 -0.5016 -0.0974 -0.1546
  696SOL    HW1 2782   2.105   1.401   0.895 -2.0004 -2.3828 -2.5465
  696SOL    HW2 2783   1.995   1.303   0.860  0.0226  0.2113  0.2476
  696SOL     MW 2784   2.060   1.354   0.841 -0.6302 -0.3582 -0.4171
  697SOL     OW 2785   2.918   1.044   2.175  0.4033 -0.0784 -0.6569
  697SOL    HW1 2786   2.856   1.107   2.196  2.3137 -3.6706 -0.0161
  697SOL    HW2 2787   2.872   0.979   2.122 -0.8921 -1.4859  1.9361
  697SOL     MW 2788   2.904   1.044   2.171  0.4844 -0.7381 -0.2302
  698SOL     OW 2789   2.494   0.345   0.021 -0.7318  0.1084 -0.0100
  698SOL    HW1 2790   2.404   0.356   0.061 -0.7454 -1.7613  3.1287
  698SOL    HW2 2791   2.537   0.284   0.083 -1.6776 -1.7821  2.9844
  698SOL     MW 2792   2.488   0.339   0.034 -0.8584 -0.3877  0.7992
  699SOL     OW 2793   1.831   1.557   2.070  0.4890 -0.2171  0.1131
  699SOL    HW1 2794   1.790   1.470   2.057 -2.5596 -0.5060 -1.0506
  699SOL    HW2 2795   1.914   1.544   2.040  0.6119 -0.4654 -0.1862
  699SOL     MW 2796   1.836   1.544   2.065  0.1030 -0.2880 -0.0799
  700SOL     OW 2797   2.700   0.923   1.496  0.1785 -0.0142  0.7708
  700SOL    HW1 2798   2.740   1.006   1.469  0.4008 -2.3953 -3.3059
  700SOL    HW2 2799   2.767   0.851   1.499  1.7726  1.7522  0.5982
  700SOL     MW 2800   2.714   0.924   1.492  0.4182 -0.0953  0.2102
  701SOL     OW 2801   1.635   1.183   2.500  0.3978 -0.0049 -0.2929
  701SOL    HW1 2802   1.729   1.182   2.482 -1.7432 -0.2735  0.0245
  701SOL    HW2 2803   1.630   1.232   2.582  1.0269 -0.1728  1.8220
  701SOL     MW 2804   1.647   1.189   2.508  0.1983 -0.0625  0.0280
  702SOL     OW 2805   2.140   0.408   0.860  0.0120  0.1237 -0.3777
  702SOL    HW1 2806   2.129   0.358   0.782  0.4860 -1.2478  3.0879
  702SOL    HW2 2807   2.185   0.493   0.835  2.5610 -0.1072  0.5213
  702SOL     MW 2808   2.145   0.412   0.846  0.4108 -0.0877  0.1981
  703SOL     OW 2809   2.718   1.208   1.063 -0.0623  0.5214 -0.2123
  703SOL    HW1 2810   2.683   1.196   0.977  3.7108  1.5268  0.9733
  703SOL    HW2 2811   2.741   1.115   1.093 -0.2978 -0.9875 -1.0613
  703SOL     MW 2812   2.716   1.194   1.056  0.4045  0.4550 -0.1679
  704SOL     OW 2813   3.059   1.165   0.060  0.1218 -0.2474  0.4069
  704SOL    HW1 2814   2.959   1.163   0.076  0.2970 -0.5976 -2.0178
  704SOL    HW2 2815   3.105   1.131   0.131 -2.0826 -1.0228  0.6283
  704SOL     MW 2816   3.052   1.160   0.072 -0.1460 -0.3959  0.1162
  705SOL     OW 2817   2.184   1.618   1.225  0.6412 -0.3974  0.0356
  705SOL    HW1 2818   2.090   1.622   1.244 -1.3668  0.2599  1.7646
  705SOL    HW2 2819   2.199   1.527   1.252  0.0933  0.6893  1.0616
  705SOL     MW 2820   2.173   1.606   1.231  0.3040 -0.1673  0.3991
  706SOL     OW 2821   3.024   1.231   0.659 -0.1809  0.6440 -0.1329
  706SOL    HW1 2822   3.047   1.236   0.561 -2.3717 -0.5558 -0.9492
  706SOL    HW2 2823   2.999   1.315   0.692  0.6784 -3.0379  0.6096
  706SOL     MW 2824   3.023   1.243   0.650 -0.3566 -0.0001 -0.1426
  707SOL     OW 2825   2.320   0.063   1.027 -0.7960 -0.3701  0.0470
  707SOL    HW1 2826   2.361   0.139   0.993  2.8105 -1.6336 -0.2930
  707SOL    HW2 2827   2.248   0.049   0.965  0.6714  3.1269  0.2696
  707SOL     MW 2828   2.316   0.071   1.014 -0.1265 -0.0754  0.0315
  708SOL     OW 2829   2.413   1.433   0.190  0.0898  0.5373  0.0798
  708SOL    HW1 2830   2.505   1.402   0.204  1.3345 -0.3402  0.5897
  708SOL    HW2 2831   2.427   1.488   0.116  2.9401 -2.6218  0.6153
  708SOL     MW 2832   2.427   1.436   0.182  0.6301  0.0047  0.2177
  709SOL     OW 2833   1.769   1.644   0.209  0.0737  0.1630  0.2252
  709SOL    HW1 2834   1.753   1.684   0.122 -0.2272  1.3462 -1.6528
  709SOL    HW2 2835   1.691   1.654   0.264  2.0955  2.9296  0.8369
  709SOL     MW 2836   1.756   1.651   0.205  0.3008  0.6841  0.0581
  710SOL     OW 2837   2.203   1.154   1.164 -0.6984 -0.1055 -0.5300
  710SOL    HW1 2838   2.206   1.104   1.079  1.0096 -1.9041  2.1770
  710SOL    HW2 2839   2.215   1.090   1.238  1.5085  1.4484  2.3259
  710SOL     MW 2840   2.205   1.139   1.162 -0.1819 -0.1378  0.2040
  711SOL     OW 2841   2.332   0.182   1.730  0.0222  0.2748 -0.4100
  711SOL    HW1 2842   2.423   0.168   1.769  0.2071 -1.4747 -1.3435
  711SOL    HW2 2843   2.338   0.167   1.640 -0.2896  2.2131  0.1038
  711SOL     MW 2844   2.345   0.178   1.724  0.0055  0.2997 -0.4654
  712SOL     OW 2845   1.907   0.529   0.093  0.2486  0.8799  0.0086
  712SOL    HW1 2846   1.816   0.565   0.111 -1.0032  2.4529  1.1032
  712SOL    HW2 2847   1.959   0.603   0.109 -3.0619 -1.0302 -1.1137
  712SOL     MW 2848   1.902   0.543   0.097 -0.3533  0.8354  0.0049
  713SOL     OW 2849   2.553   0.824   1.082  0.2753 -0.0582  0.0693
  713SOL    HW1 2850   2.558   0.735   1.111 -0.6965 -0.9485  0.9171
  713SOL    HW2 2851   2.474   0.863   1.113 -2.9485 -0.0860  1.4863
  713SOL     MW 2852   2.543   0.817   1.090 -0.2782 -0.1793  0.3681
  714SOL     OW 2853   2.221   0.201   1.978 -0.2640  0.3007 -0.0967
  714SOL    HW1 2854   2.250   0.143   2.055 -0.8449  0.3864  4.2649
  714SOL    HW2 2855   2.270   0.193   1.890 -2.1174 -1.4987 -1.4042
  714SOL     MW 2856   2.231   0.192   1.977 -0.5852  0.0746  0.3063
  715SOL     OW 2857   1.750   1.889   1.705 -0.2300  0.8321  0.4192
  715SOL    HW1 2858   1.841   1.868   1.681  2.4209 -0.9911 -1.1869
  715SOL    HW2 2859   1.741   1.853   1.792  0.6696 -1.8975 -0.1946
  715SOL     MW 2860   1.761   1.882   1.713  0.2384  0.2314  0.1263
  716SOL     OW 2861   2.299   0.598   0.728 -0.3794 -0.0626 -0.0319
  716SOL    HW1 2862   2.353   0.539   0.678 -1.2903 -0.7216  1.3836
  716SOL    HW2 2863   2.255   0.659   0.667  0.2343 -0.0825 -2.9370
  716SOL     MW 2864   2.300   0.598   0.713 -0.4186 -0.1522 -0.2284
  717SOL     OW 2865   2.883   1.614   2.868  0.4871 -0.1309 -0.0228
  717SOL    HW1 2866   2.961   1.583   2.907 -2.8800 -1.7914 -0.0979
  717SOL    HW2 2867   2.836   1.663   2.938  1.8512 -1.7209  2.0532
  717SOL     MW 2868   2.887   1.616   2.882  0.2228 -0.5598  0.2412
  718SOL     OW 2869   2.687   1.437   1.335  0.4479  0.0615  0.0784
  718SOL    HW1 2870   2.676   1.484   1.416  3.3528 -2.6392  0.8907
  718SOL    HW2 2871   2.716   1.350   1.367  0.1524 -0.9516 -1.5973
  718SOL     MW 2872   2.690   1.432   1.350  0.7922 -0.4285 -0.0355
  719SOL     OW 2873   2.206   1.280   0.596  0.6441 -0.6608  0.4143
  719SOL    HW1 2874   2.299   1.307   0.589 -1.7374 -0.1843 -0.0738
  719SOL    HW2 2875   2.165   1.307   0.683 -1.9257  2.0098  0.8110
  719SOL     MW 2876   2.213   1.287   0.607 -0.0091 -0.2456  0.4023
  720SOL     OW 2877   2.791   1.181   0.054  0.3459  0.5565  0.2504
  720SOL    HW1 2878   2.769   1.088   0.078  2.7075  0.3196  0.0351
  720SOL    HW2 2879   2.742   1.215   0.132  1.0750 -3.5991  0.5795
  720SOL     MW 2880   2.782   1.173   0.068  0.7537 -0.0231  0.2654
  721SOL     OW 2881   2.458   0.836   1.351  0.7445 -0.2453  0.6669
  721SOL    HW1 2882   2.450   0.758   1.409  0.3907 -0.7127 -1.3468
  721SOL    HW2 2883   2.546   0.869   1.370  0.3805 -1.6699 -0.7517
  721SOL     MW 2884   2.468   0.830   1.361  0.6498 -0.4949  0.2140
  722SOL     OW 2885   2.608   1.108   0.427 -0.1425  0.0856  0.4696
  722SOL    HW1 2886   2.534   1.144   0.477 -2.0741  0.1654 -0.4589
  722SOL    HW2 2887   2.677   1.117   0.497  1.1668 -1.4171 -3.2513
  722SOL     MW 2888   2.608   1.114   0.443 -0.2246 -0.1022 -0.1438
  723SOL     OW 2889   2.321   1.384   1.580 -0.6478  0.3643 -0.6245
  723SOL    HW1 2890   2.295   1.387   1.488 -1.1652  1.2637  0.6053
  723SOL    HW2 2891   2.248   1.412   1.630  0.1177  0.4368  0.3933
  723SOL     MW 2892   2.308   1.388   1.575 -0.6150  0.4925 -0.3280
  724SOL     OW 2893   2.427   0.365   0.607  0.3219 -0.0744  0.6382
  724SOL    HW1 2894   2.433   0.310   0.683  0.8755 -0.8592 -0.4559
  724SOL    HW2 2895   2.520   0.387   0.587 -1.1219  2.6213 -0.8351
  724SOL     MW 2896   2.440   0.361   0.614  0.2045  0.1777  0.2995
  725SOL     OW 2897   2.549   0.596   1.210  0.1391 -0.1363  0.4209
  725SOL    HW1 2898   2.632   0.583   1.251  1.7978  1.8401 -1.9104
  725SOL    HW2 2899   2.486   0.615   1.277  1.5583  0.4376 -0.8474
  725SOL     MW 2900   2.552   0.597   1.225  0.5452  0.2002 -0.0540
  726SOL     OW 2901   2.563   2.468   0.565 -0.2955  0.2378  0.0320
  726SOL    HW1 2902   2.534   2.517   0.490  1.5063  0.2274 -2.0610
  726SOL    HW2 2903   2.502   2.474   0.643  0.0393  0.2399  1.0131
  726SOL     MW 2904   2.551   2.476   0.565 -0.0136  0.2367 -0.1147
  727SOL     OW 2905   2.886   0.342   1.707 -0.4886 -0.2547 -0.1039
  727SOL    HW1 2906   2.824   0.353   1.635  2.7307 -1.5474  0.0686
  727SOL    HW2 2907   2.823   0.317   1.781  1.7188 -1.7990 -2.3345
  727SOL     MW 2908   2.869   0.340   1.708  0.2274 -0.6290 -0.3754
  728SOL     OW 2909   2.799   1.168   2.887  0.0876 -0.1938  0.6828
  728SOL    HW1 2910   2.786   1.250   2.847 -0.9814 -1.5047 -0.6181
  728SOL    HW2 2911   2.791   1.184   2.982  0.0886 -1.1840  0.1983
  728SOL     MW 2912   2.797   1.181   2.894 -0.0533 -0.4974  0.4472
  729SOL     OW 2913   2.496   1.492   1.141 -0.2053  0.2393  0.1341
  729SOL    HW1 2914   2.549   1.440   1.208  0.7285  2.0726 -2.4768
  729SOL    HW2 2915   2.503   1.447   1.058 -2.4996 -1.6064  1.6837
  729SOL     MW 2916   2.504   1.479   1.139 -0.3848  0.2376 -0.0059
  730SOL     OW 2917   2.267   1.183   0.186  0.5789  0.0427 -0.2546
  730SOL    HW1 2918   2.340   1.118   0.175 -1.9409  0.4147 -0.6786
  730SOL    HW2 2919   2.291   1.262   0.143 -3.7485  2.2469  1.7877
  730SOL     MW 2920   2.280   1.185   0.179 -0.3245  0.3826 -0.0411
  731SOL     OW 2921   2.764   1.941   2.854  0.3997  0.9223  0.1979
  731SOL    HW1 2922   2.706   1.969   2.780 -0.9530  1.4327  1.3376
  731SOL    HW2 2923   2.837   1.998   2.842 -0.5594 -1.1733 -0.3955
  731SOL     MW 2924   2.766   1.952   2.843  0.0947  0.7132  0.2700
  732SOL     OW 2925   2.223   0.958   1.341  0.1442 -1.1194 -0.1372
  732SOL    HW1 2926   2.182   0.964   1.427 -1.2221 -2.4095 -0.1901
  732SOL    HW2 2927   2.316   0.934   1.352 -2.6484  0.7232 -0.9179
  732SOL     MW 2928   2.230   0.956   1.354 -0.4045 -1.0465 -0.2472
  733SOL     OW 2929   2.355   2.744   2.996 -0.3385 -0.1835 -0.1109
  733SOL    HW1 2930   2.281   2.776   2.950  0.0714 -1.1000 -0.9116
  733SOL    HW2 2931   2.355   2.653   2.965  2.3630 -0.2840  1.2770
  733SOL     MW 2932   2.345   2.737   2.986  0.0720 -0.3177 -0.0334
  734SOL     OW 2933   1.418   0.342   2.479 -0.1724  0.2747 -0.2522
  734SOL    HW1 2934   1.410   0.321   2.571  0.6727 -0.8846 -2.7932
  734SOL    HW2 2935   1.446   0.259   2.441  1.7670  0.3186  0.9982
  734SOL     MW 2936   1.421   0.328   2.486  0.1950  0.1275 -0.4225
  735SOL     OW 2937   2.918   0.906   2.646  0.0170  0.2073  0.2430
  735SOL    HW1 2938   2.930   0.812   2.637  0.3094 -3.6314  2.7183
  735SOL    HW2 2939   2.943   0.937   2.734 -0.5230  2.6179 -0.0184
  735SOL     MW 2940   2.923   0.898   2.657 -0.0157  0.0189  0.5351
  736SOL     OW 2941   0.090   0.577   2.516  0.2446  0.1895 -0.0273
  736SOL    HW1 2942   0.129   0.658   2.490  0.0407 -1.1535  2.1077
  736SOL    HW2 2943   0.096   0.522   2.437  0.9626  0.4678 -0.1063
  736SOL     MW 2944   0.096   0.581   2.502  0.3125  0.0490  0.2440
  737SOL     OW 2945   2.928   0.637   2.582 -0.0153  0.1174  0.2827
  737SOL    HW1 2946   2.873   0.607   2.512  1.2850 -1.4111  1.5128
  737SOL    HW2 2947   3.021   0.606   2.559  2.6848  0.1087 -0.8914
  737SOL     MW 2948   2.933   0.629   2.570  0.5125 -0.0854  0.2901
  738SOL     OW 2949   0.125   0.578   1.903 -0.0745 -0.0770  0.3034
  738SOL    HW1 2950   0.190   0.588   1.969 -2.2896 -0.8803  1.9855
  738SOL    HW2 2951   0.162   0.513   1.842 -0.3599  0.1250 -1.4468
  738SOL     MW 2952   0.138   0.570   1.904 -0.4044 -0.1563  0.2944
  739SOL     OW 2953   2.477   0.998   2.057  0.3740 -0.0823 -0.4715
  739SOL    HW1 2954   2.392   0.963   2.022 -1.9444 -0.2801 -0.6174
  739SOL    HW2 2955   2.497   1.052   1.980  2.2966 -2.4620 -1.9601
  739SOL     MW 2956   2.468   1.001   2.042  0.3218 -0.4224 -0.6871
  740SOL     OW 2957   0.247   1.709   2.956 -0.1738  0.3714  0.3315
  740SOL    HW1 2958   0.168   1.648   2.967 -0.2341  1.1529 -1.6571
  740SOL    HW2 2959   0.326   1.667   2.988  0.4762 -1.3968  1.2279
  740SOL     MW 2960   0.247   1.695   2.961 -0.0960  0.2412  0.1874
  741SOL     OW 2961   2.227   1.116   2.758 -0.1637 -0.6935 -0.1860
  741SOL    HW1 2962   2.145   1.152   2.717 -2.5099 -2.6094  2.6786
  741SOL    HW2 2963   2.257   1.187   2.820 -0.6299  0.3974  1.1316
  741SOL     MW 2964   2.220   1.130   2.761 -0.5348 -0.8024  0.3658
  742SOL     OW 2965   1.523   1.245   2.215  0.6528 -0.1623 -0.1620
  742SOL    HW1 2966   1.499   1.152   2.210  0.1493  0.3052 -2.3110
  742SOL    HW2 2967   1.548   1.254   2.310  2.5653 -0.0828  1.3999
  742SOL     MW 2968   1.523   1.234   2.227  0.8387 -0.0902 -0.2395
  743SOL     OW 2969   2.445   1.296   2.702  0.2088 -0.0906  0.1458
  743SOL    HW1 2970   2.346   1.278   2.709 -0.0788  0.0062  1.7607
  743SOL    HW2 2971   2.483   1.217   2.720 -0.1422  0.5788 -0.8039
  743SOL     MW 2972   2.437   1.283   2.705  0.1246  0.0105  0.2336
  744SOL     OW 2973   2.746   0.976   1.791 -0.0868 -0.4030  0.3111
  744SOL    HW1 2974   2.661   1.024   1.783 -4.2849 -1.4519  1.0879
  744SOL    HW2 2975   2.748   0.935   1.702 -2.7040 -0.1490 -0.0949
  744SOL     MW 2976   2.735   0.977   1.778 -0.9860 -0.5079  0.3600
  745SOL     OW 2977   1.700   0.471   2.469  0.0775  0.1303  0.2781
  745SOL    HW1 2978   1.687   0.457   2.372  0.4041 -2.2058 -2.6880
  745SOL    HW2 2979   1.628   0.428   2.512  1.1996  1.4761  1.7479
  745SOL     MW 2980   1.689   0.464   2.462  0.2687 -0.0003  0.0807
  746SOL     OW 2981   1.570   1.432   1.573 -0.3435  0.0266  0.4797
  746SOL    HW1 2982   1.660   1.451   1.601 -1.8270  1.0246  1.6952
  746SOL    HW2 2983   1.519   1.401   1.652 -1.6889  1.5436  1.7363
  746SOL     MW 2984   1.575   1.431   1.587 -0.7168  0.3584  0.8059
  747SOL     OW 2985   2.553   1.166   1.812  0.1437 -0.5887  0.1771
  747SOL    HW1 2986   2.464   1.169   1.765 -0.9705 -2.3273 -1.2028
  747SOL    HW2 2987   2.563   1.232   1.890 -0.6639 -2.1450  0.9332
  747SOL     MW 2988   2.543   1.175   1.816 -0.1098 -1.0234  0.0948
  748SOL     OW 2989   0.123   0.027   1.821 -0.4319 -0.1754  0.7349
  748SOL    HW1 2990   0.215   0.035   1.820 -1.0130 -0.0728 -0.2242
  748SOL    HW2 2991   0.087   0.079   1.901  0.7203  1.0134 -0.6914
  748SOL     MW 2992   0.130   0.035   1.832 -0.3565 -0.0050  0.4202
  749SOL     OW 2993   2.455   0.525   2.758  0.6548 -0.5157  0.4695
  749SOL    HW1 2994   2.478   0.571   2.674 -2.3899  0.2314 -0.4679
  749SOL    HW2 2995   2.460   0.595   2.828  1.2108 -1.0050 -2.0451
  749SOL     MW 2996   2.459   0.540   2.756  0.3264 -0.4816  0.0140
  750SOL     OW 2997   2.026  -0.000   1.997 -0.1936 -0.4804  0.5658
  750SOL    HW1 2998   2.082   0.079   2.001 -0.7035 -1.3633 -0.2409
  750SOL    HW2 2999   2.082  -0.072   1.981 -0.3835 -0.2043 -0.4299
  750SOL     MW 3000   2.041   0.001   1.996 -0.2859 -0.5605  0.3280
  751SOL     OW 3001   0.058   0.392   2.298  0.0632  0.1850  0.2763
  751SOL    HW1 3002  -0.004   0.332   2.347  1.2443  1.4062  0.8680
  751SOL    HW2 3003   0.127   0.333   2.277  0.9826  3.3133 -0.0345
  751SOL     MW 3004   0.059   0.376   2.302  0.3403  0.7588  0.3134
  752SOL     OW 3005   2.133   0.815   2.661 -0.2278  0.1019  0.6659
  752SOL    HW1 3006   2.162   0.885   2.605  0.0092 -1.7775 -0.6786
  752SOL    HW2 3007   2.157   0.835   2.753 -0.7192  1.0673 -0.0993
  752SOL     MW 3008   2.140   0.827   2.665 -0.2614 -0.0187  0.3876
  753SOL     OW 3009   2.934   0.262   2.404  0.0787  0.0077  0.2126
  753SOL    HW1 3010   2.879   0.204   2.343 -4.2411 -1.1377  0.3622
  753SOL    HW2 3011   2.876   0.333   2.422  0.2725  1.5212  1.6715
  753SOL     MW 3012   2.919   0.264   2.398 -0.4656  0.0562  0.4248
  754SOL     OW 3013   2.250   2.987   2.584  0.4771 -0.1112 -0.0177
  754SOL    HW1 3014   2.268   2.978   2.492 -0.0112 -1.2098 -0.4167
  754SOL    HW2 3015   2.317   2.931   2.629 -0.8162 -2.3747 -0.9866
  754SOL     MW 3016   2.261   2.979   2.578  0.2421 -0.5548 -0.1982
  755SOL     OW 3017   2.716   1.520   2.488  0.0347 -0.1153  0.6361
  755SOL    HW1 3018   2.713   1.433   2.525  0.4929  2.0625 -0.6701
  755SOL    HW2 3019   2.785   1.565   2.542  0.0766 -0.0539  2.3185
  755SOL     MW 3020   2.724   1.515   2.500  0.1007  0.1801  0.6858
  756SOL     OW 3021   2.276   1.300   2.968  0.4798 -0.5168  0.2122
  756SOL    HW1 3022   2.345   1.355   3.003  0.2335 -1.2618  1.1479
  756SOL    HW2 3023   2.320   1.211   2.984 -0.0817 -2.3946  1.9022
  756SOL     MW 3024   2.291   1.295   2.975  0.3732 -0.8629  0.5586
  757SOL     OW 3025   2.129   0.925   1.604 -0.2091 -0.4336  0.2591
  757SOL    HW1 3026   2.158   0.832   1.605  1.2256 -0.9188  1.6594
  757SOL    HW2 3027   2.036   0.926   1.571 -0.5409  1.0506 -2.0661
  757SOL     MW 3028   2.121   0.913   1.600 -0.0636 -0.3018  0.1371
  758SOL     OW 3029   2.190   1.779   2.608  0.1071  0.0106  0.1687
  758SOL    HW1 3030   2.170   1.768   2.516 -1.1861  1.7248  0.7099
  758SOL    HW2 3031   2.282   1.759   2.622 -0.2795  0.4608 -0.6483
  758SOL     MW 3032   2.199   1.775   2.598 -0.1145  0.2962  0.1323
  759SOL     OW 3033   1.612   1.349   2.713 -0.3172  0.3159 -0.2986
  759SOL    HW1 3034   1.609   1.437   2.670 -1.5760 -1.2905  0.7014
  759SOL    HW2 3035   1.650   1.371   2.801  1.3144  1.0846  0.1427
  759SOL     MW 3036   1.617   1.364   2.719 -0.2680  0.2054 -0.1084
  760SOL     OW 3037   2.566   2.003   2.689  0.5662 -0.1155 -0.3930
  760SOL    HW1 3038   2.574   1.907   2.658  1.5978  1.2468 -0.4878
  760SOL    HW2 3039   2.576   2.062   2.614 -0.8396 -1.9472  1.7420
  760SOL     MW 3040   2.568   1.998   2.675  0.5168 -0.1775 -0.1238
  761SOL     OW 3041   2.135   0.429   2.478  0.1238 -0.1314  0.0771
  761SOL    HW1 3042   2.052   0.394   2.446  0.8176  3.3683 -1.2096
  761SOL    HW2 3043   2.113   0.476   2.559  0.9294  2.1252  2.1081
  761SOL     MW 3044   2.121   0.431   2.484  0.3216  0.6281  0.1753
  762SOL     OW 3045   3.097   0.155   2.021  0.6773  0.2705  0.4364
  762SOL    HW1 3046   3.086   0.101   2.099  0.3811  1.3039  0.2275
  762SOL    HW2 3047   3.047   0.238   2.026  2.0102 -0.4485 -0.3552
  762SOL     MW 3048   3.089   0.159   2.032  0.8141  0.3120  0.3044
  763SOL     OW 3049   2.444   1.076   2.307 -0.1689  0.2093 -0.3003
  763SOL    HW1 3050   2.471   1.045   2.216  0.6880  0.4500 -1.5463
  763SOL    HW2 3051   2.515   1.128   2.338 -1.4528 -1.6193  0.6302
  763SOL     MW 3052   2.457   1.079   2.299 -0.2252 -0.0002 -0.3419
  764SOL     OW 3053   0.437   0.283   2.782 -0.2111  0.3874  0.1308
  764SOL    HW1 3054   0.355   0.243   2.768  1.4469 -0.3725  1.2016
  764SOL    HW2 3055   0.414   0.358   2.835  0.2417 -0.0353  2.4349
  764SOL     MW 3056   0.423   0.288   2.787  0.0674  0.2314  0.5761
  765SOL     OW 3057   2.758   0.086   2.287  0.2544 -0.2015 -0.5169
  765SOL    HW1 3058   2.689   0.079   2.218 -0.3114  0.6145  1.8431
  765SOL    HW2 3059   2.791  -0.008   2.297 -0.6473 -1.6289 -0.0919
  765SOL     MW 3060   2.754   0.073   2.279  0.0608 -0.2821 -0.1494
  766SOL     OW 3061   1.863   3.008   2.214  0.7601 -0.3783  0.0380
  766SOL    HW1 3062   1.898   3.079   2.159 -1.9033  2.1108 -1.4927
  766SOL    HW2 3063   1.825   2.941   2.159  1.1272  0.2036  4.0587
  766SOL     MW 3064   1.862   3.008   2.200  0.4571  0.0269  0.3665
  767SOL     OW 3065   2.631   0.619   1.943  0.0449  0.1909 -0.1070
  767SOL    HW1 3066   2.661   0.694   1.992 -1.4681  1.0813 -1.1295
  767SOL    HW2 3067   2.533   0.620   1.948  0.3372 -0.5545  0.8628
  767SOL     MW 3068   2.622   0.629   1.950 -0.1161  0.2101 -0.1140
  768SOL     OW 3069   0.027   1.562   2.974  0.1206 -0.3464 -0.7488
  768SOL    HW1 3070   0.029   1.525   3.062 -2.4248 -1.1693 -3.2277
  768SOL    HW2 3071   0.017   1.486   2.912  1.1542 -0.5598  1.2184
  768SOL     MW 3072   0.026   1.547   2.978 -0.0789 -0.4831 -0.8163
  769SOL     OW 3073   2.339   0.704   2.299  0.4570 -0.3650 -0.2185
  769SOL    HW1 3074   2.252   0.665   2.296 -0.8810  0.1627  1.1567
  769SOL    HW2 3075   2.390   0.682   2.219 -1.4730 -1.7831 -1.1262
  769SOL     MW 3076   2.334   0.696   2.288  0.0258 -0.4825 -0.1568
  770SOL     OW 3077   0.099   1.623   2.598 -0.1353 -0.5807 -0.4749
  770SOL    HW1 3078   0.003   1.619   2.585  0.1841 -0.8755 -0.8790
  770SOL    HW2 3079   0.107   1.536   2.647  2.2139 -0.8794 -0.5510
  770SOL     MW 3080   0.087   1.611   2.603  0.2168 -0.6590 -0.5383
  771SOL     OW 3081   2.960   0.623   1.924 -0.3050 -0.1682  0.3178
  771SOL    HW1 3082   2.909   0.648   1.848  1.9806 -1.7316  2.0742
  771SOL    HW2 3083   3.051   0.636   1.898 -0.3494 -0.2223 -1.2918
  771SOL     MW 3084   2.966   0.628   1.911 -0.0093 -0.3816  0.3372
  772SOL     OW 3085   3.090   3.103   2.249  0.5447  0.0834  0.6040
  772SOL    HW1 3086   3.014   3.063   2.288  1.7453  2.7949 -1.1839
  772SOL    HW2 3087   3.149   3.027   2.228 -3.9461  2.0561 -2.2932
  772SOL     MW 3088   3.088   3.087   2.252  0.1106  0.7014 -0.0142
  773SOL     OW 3089   2.448   2.827   2.747  0.4695  0.2188 -0.5467
  773SOL    HW1 3090   2.439   2.740   2.713 -2.7086  0.6943  0.1376
  773SOL    HW2 3091   2.444   2.800   2.839 -1.2843  2.9437  1.0003
  773SOL     MW 3092   2.446   2.812   2.755 -0.1812  0.6410 -0.2523
  774SOL     OW 3093   2.287   1.155   1.728  0.1147  0.3945  0.2479
  774SOL    HW1 3094   2.276   1.216   1.653  3.9976  0.0343 -2.1295
  774SOL    HW2 3095   2.232   1.071   1.715 -0.2047 -2.5662  1.1372
  774SOL     MW 3096   2.278   1.152   1.716  0.5849 -0.0437  0.0516
  775SOL     OW 3097   2.323   2.918   2.338  0.0128  0.3998 -0.2356
  775SOL    HW1 3098   2.345   2.996   2.292 -0.3789  0.1818  1.4225
  775SOL    HW2 3099   2.383   2.841   2.334 -2.4139 -2.3320 -1.0554
  775SOL     MW 3100   2.334   2.918   2.332 -0.3591  0.0106 -0.1250
  776SOL     OW 3101   0.018   1.434   0.124  0.1126  0.4097  0.3561
  776SOL    HW1 3102   0.105   1.409   0.129 -2.6279  2.2765 -0.2048
  776SOL    HW2 3103  -0.023   1.347   0.107  1.0943  1.8819 -1.5379
  776SOL     MW 3104   0.024   1.419   0.122 -0.1195  0.8503  0.0322
  777SOL     OW 3105   3.028   1.080   1.746  0.1402  0.1322  0.2780
  777SOL    HW1 3106   3.004   1.164   1.715 -1.2526 -0.4688  1.3647
  777SOL    HW2 3107   2.945   1.043   1.780  1.3515 -1.1622 -0.7400
  777SOL     MW 3108   3.014   1.086   1.746  0.1163 -0.1179  0.2870
  778SOL     OW 3109   2.914   0.407   2.748 -0.3181  0.0771  0.0916
  778SOL    HW1 3110   2.853   0.431   2.821  1.3197 -2.3270  1.2118
  778SOL    HW2 3111   2.917   0.480   2.692 -1.6170 -1.2599  0.0769
  778SOL     MW 3112   2.906   0.420   2.751 -0.2734 -0.4165  0.2375
  779SOL     OW 3113   2.100   0.614   2.299  0.0199 -0.3119 -0.2323
  779SOL    HW1 3114   2.033   0.661   2.345  0.7559  3.3443  2.8100
  779SOL    HW2 3115   2.122   0.536   2.358  1.7577 -3.3181  1.8139
  779SOL     MW 3116   2.094   0.610   2.313  0.3463 -0.2261  0.4390
  780SOL     OW 3117   0.206   0.158   2.746  0.2727 -0.6771  0.2824
  780SOL    HW1 3118   0.184   0.200   2.825 -2.3778 -1.5943 -0.4220
  780SOL    HW2 3119   0.123   0.148   2.700  2.5946 -1.8873 -2.2463
  780SOL     MW 3120   0.192   0.162   2.750  0.2294 -0.9578 -0.1442
  781SOL     OW 3121   3.052   1.318   2.511  0.4664  0.5534  0.3520
  781SOL    HW1 3122   3.025   1.372   2.436 -0.8608  0.3516  1.4694
  781SOL    HW2 3123   3.038   1.226   2.483 -3.1721 -2.6532 -0.3860
  781SOL     MW 3124   3.046   1.313   2.497 -0.1888  0.1037  0.4020
  782SOL     OW 3125   0.747   1.528   3.062 -0.6732  0.8280  1.0097
  782SOL    HW1 3126   0.669   1.565   3.019 -0.3504  0.7097 -0.1827
  782SOL    HW2 3127   0.727   1.511   3.154 -3.5012  1.0793 -2.1658
  782SOL     MW 3128   0.734   1.531   3.068 -1.0037  0.8456  0.4334
  783SOL     OW 3129   2.730   0.475   2.417 -1.0488  0.0501  0.0843
  783SOL    HW1 3130   2.672   0.467   2.338  1.2417  1.5138 -1.6134
  783SOL    HW2 3131   2.684   0.441   2.493  1.4563 -2.6249 -0.8757
  783SOL     MW 3132   2.716   0.469   2.417 -0.4160 -0.1097 -0.2664
  784SOL     OW 3133   0.251   0.876   2.881  0.4957  0.7324  0.1288
  784SOL    HW1 3134   0.203   0.951   2.905  1.4804  1.3202  0.4940
  784SOL    HW2 3135   0.301   0.906   2.808 -3.1166 -0.4545  2.8544
  784SOL     MW 3136   0.252   0.890   2.874  0.1490  0.6534  0.5366
  785SOL     OW 3137   0.429   0.491   2.188  0.0494  0.4758  0.0389
  785SOL    HW1 3138   0.414   0.558   2.122 -2.4689 -0.0714 -0.5319
  785SOL    HW2 3139   0.374   0.418   2.151  0.6325 -0.3196 -0.0990
  785SOL     MW 3140   0.419   0.490   2.175 -0.2059  0.2987 -0.0546
  786SOL     OW 3141   1.969   0.479   2.913 -0.3507  0.3297 -0.8099
  786SOL    HW1 3142   1.990   0.498   3.007  0.2445  0.8603  3.0501
  786SOL    HW2 3143   2.055   0.484   2.861 -2.9721 -1.0767 -0.1455
  786SOL     MW 3144   1.983   0.482   2.919 -0.6180  0.2142 -0.2129
  787SOL     OW 3145   2.421   0.167   2.915  0.1921 -0.2117  0.3606
  787SOL    HW1 3146   2.489   0.103   2.869  0.3167  0.3399  1.2537
  787SOL    HW2 3147   2.470   0.238   2.961 -0.2010  2.7628 -1.3097
  787SOL     MW 3148   2.437   0.167   2.915  0.1567  0.2535  0.2581
  788SOL     OW 3149   2.882   2.962   2.362 -0.1357 -0.0646 -0.2827
  788SOL    HW1 3150   2.817   2.951   2.433 -2.1912 -2.5998  1.9698
  788SOL    HW2 3151   2.940   2.880   2.357 -0.3614  0.8139  1.5422
  788SOL     MW 3152   2.882   2.950   2.370 -0.4367 -0.2832  0.2553
  789SOL     OW 3153   0.055   0.317   2.955  0.7131  0.2535 -0.1515
  789SOL    HW1 3154  -0.032   0.281   2.968 -0.5203 -0.1656 -2.1944
  789SOL    HW2 3155   0.048   0.417   2.945 -0.2255  0.2034 -1.4489
  789SOL     MW 3156   0.043   0.326   2.955  0.4265  0.1916 -0.5922
  790SOL     OW 3157   3.044   1.065   2.437  0.0604  0.1319  0.1544
  790SOL    HW1 3158   3.015   1.004   2.506  0.8345 -0.5100 -0.6164
  790SOL    HW2 3159   2.994   1.035   2.361  0.2228 -0.9816 -2.9510
  790SOL     MW 3160   3.034   1.053   2.436  0.1839 -0.0997 -0.3570
  791SOL     OW 3161   2.604   0.336   2.630  0.1159 -0.3507  0.2539
  791SOL    HW1 3162   2.524   0.383   2.659  0.6041 -0.2326  0.6330
  791SOL    HW2 3163   2.663   0.326   2.708 -1.8072  1.1652  0.5792
  791SOL     MW 3164   2.601   0.341   2.644 -0.0734 -0.1351  0.3469
  792SOL     OW 3165   2.354   0.268   2.385  0.0944 -0.0071 -0.5326
  792SOL    HW1 3166   2.282   0.299   2.444 -0.4630  2.2815  0.4546
  792SOL    HW2 3167   2.424   0.219   2.439  0.0090 -1.2260 -1.3811
  792SOL     MW 3168   2.354   0.266   2.400  0.0096  0.1340 -0.5143
  793SOL     OW 3169   1.846   1.065   1.982 -0.1030  0.5680 -0.0858
  793SOL    HW1 3170   1.827   1.099   1.902  0.8561 -0.3051  1.5416
  793SOL    HW2 3171   1.877   0.977   1.963 -1.4338 -2.2110  1.2169
  793SOL     MW 3172   1.848   1.058   1.969 -0.1521  0.0862  0.3008
  794SOL     OW 3173   1.430   2.265   0.179  0.5322 -0.1965 -0.0012
  794SOL    HW1 3174   1.443   2.339   0.114 -0.3706 -0.3530  1.7839
  794SOL    HW2 3175   1.468   2.291   0.260 -0.5576 -2.3130  0.5122
  794SOL     MW 3176   1.437   2.278   0.181  0.2693 -0.4964  0.3020
  795SOL     OW 3177   2.360   0.965   2.553  0.1884  0.0302  0.0440
  795SOL    HW1 3178   2.332   1.022   2.626 -0.4000 -0.6041  0.2977
  795SOL    HW2 3179   2.420   1.015   2.497 -2.6847 -0.7394  1.9502
  795SOL     MW 3180   2.364   0.979   2.555 -0.2683 -0.1550  0.3290
  796SOL     OW 3181   0.272   0.599   2.731  0.3599  0.0282 -0.2544
  796SOL    HW1 3182   0.228   0.675   2.768 -0.8829  1.0502  1.4255
  796SOL    HW2 3183   0.210   0.561   2.665 -1.1589  1.1747  0.9566
  796SOL     MW 3184   0.258   0.604   2.727 -0.0045  0.3143  0.1270
  797SOL     OW 3185   2.573   0.110   2.494 -0.0492 -0.2728  0.0969
  797SOL    HW1 3186   2.585   0.201   2.548  0.0141  3.4876  1.2638
  797SOL    HW2 3187   2.649   0.101   2.438  0.6660 -2.7355  2.2507
  797SOL     MW 3188   2.584   0.121   2.494  0.0535 -0.1016  0.5350
  798SOL     OW 3189   2.325   0.066   2.215  0.2034 -0.3110 -0.2483
  798SOL    HW1 3190   2.316   0.152   2.263 -0.6116 -0.0991 -0.6859
  798SOL    HW2 3191   2.419   0.055   2.187  3.4509 -1.1986 -1.6114
  798SOL     MW 3192   2.336   0.076   2.218  0.5243 -0.4002 -0.4859
  799SOL     OW 3193   2.459   2.928   0.126 -0.0629 -0.1373  0.7177
  799SOL    HW1 3194   2.420   2.853   0.076  2.0310  0.5712 -1.9832
  799SOL    HW2 3195   2.404   3.003   0.101 -2.0017  0.2136 -0.8375
  799SOL     MW 3196   2.446   2.928   0.116 -0.0424  0.0025  0.1561
  800SOL     OW 3197   1.859   0.011   1.778 -0.5507 -0.5665  0.2211
  800SOL    HW1 3198   1.806  -0.069   1.775 -1.3463 -0.3258  1.5580
  800SOL    HW2 3199   1.912   0.005   1.855 -0.6078 -0.2995 -0.8222
  800SOL     MW 3200   1.859  -0.001   1.787 -0.6632 -0.4996  0.2598
  801SOL     OW 3201   2.800   1.272   2.625 -0.0256 -0.3388  0.9392
  801SOL    HW1 3202   2.801   1.181   2.604  0.7333  4.0794  0.1822
  801SOL    HW2 3203   2.884   1.310   2.597 -0.6093 -1.8599  1.4553
  801SOL     MW 3204   2.811   1.265   2.618 -0.0025  0.0435  0.9074
  802SOL     OW 3205   2.581   1.543   2.827  0.2274 -0.1663 -0.1782
  802SOL    HW1 3206   2.557   1.464   2.771 -0.3174  1.9683 -0.9350
  802SOL    HW2 3207   2.674   1.563   2.812 -2.4700  0.3801 -2.1950
  802SOL     MW 3208   2.590   1.535   2.817 -0.2004  0.1874 -0.5441
  803SOL     OW 3209   2.301   1.408   2.003 -0.8507 -0.2856 -0.0732
  803SOL    HW1 3210   2.291   1.385   2.094  1.7161 -3.2307  2.5216
  803SOL    HW2 3211   2.282   1.328   1.953  0.8541  0.9677 -0.9173
  803SOL     MW 3212   2.297   1.394   2.009 -0.2871 -0.5088  0.1578
  804SOL     OW 3213   2.275   0.059   0.040 -0.6615 -0.2906  0.3421
  804SOL    HW1 3214   2.190   0.105   0.059  0.1394  1.0657  1.9538
  804SOL    HW2 3215   2.307   0.099  -0.043  1.9971  1.4181  0.6282
  804SOL     MW 3216   2.268   0.071   0.032 -0.2051  0.1138  0.5925
  805SOL     OW 3217   2.689   1.001   2.518  0.3064  0.2336 -0.7599
  805SOL    HW1 3218   2.664   0.928   2.462 -1.2866 -0.2448  0.1128
  805SOL    HW2 3219   2.770   0.967   2.557  0.0651  0.3751 -0.6727
  805SOL     MW 3220   2.696   0.987   2.516  0.0644  0.1892 -0.6332
  806SOL     OW 3221   2.538   0.396   2.220  0.5622 -0.2834 -0.0891
  806SOL    HW1 3222   2.461   0.360   2.264 -1.1474 -0.3546 -1.0487
  806SOL    HW2 3223   2.514   0.409   2.127 -3.0520  0.7598 -0.3670
  806SOL     MW 3224   2.525   0.393   2.213 -0.1402 -0.1551 -0.2524
  807SOL     OW 3225   0.069   1.173   2.110 -0.9234 -0.4619  0.3533
  807SOL    HW1 3226   0.070   1.094   2.059 -1.3423 -0.6980 -1.2304
  807SOL    HW2 3227  -0.024   1.154   2.141 -3.1701 -0.3495 -3.6291
  807SOL     MW 3228   0.057   1.160   2.107 -1.2751 -0.4782 -0.3811
  808SOL     OW 3229   2.569   3.081   2.751  0.2426  0.2171  0.8521
  808SOL    HW1 3230   2.519   2.997   2.748  0.1678 -0.3638 -1.3799
  808SOL    HW2 3231   2.555   3.114   2.658 -1.6245 -1.1204 -4.7509
  808SOL     MW 3232   2.560   3.074   2.738 -0.0136 -0.0360 -0.1816
  809SOL     OW 3233   2.565   1.279   2.416 -0.0265 -0.2104 -0.5689
  809SOL    HW1 3234   2.626   1.246   2.482  1.4381 -0.1161  2.3195
  809SOL    HW2 3235   2.615   1.281   2.336 -0.3000  0.1699 -2.4037
  809SOL     MW 3236   2.580   1.275   2.414  0.1307 -0.1478 -0.4299
  810SOL     OW 3237   2.250   1.293   2.236  0.4228  1.2866 -0.2078
  810SOL    HW1 3238   2.312   1.215   2.236  3.2891 -1.0595 -2.7006
  810SOL    HW2 3239   2.164   1.247   2.224 -0.8460 -1.8086  0.4980
  810SOL     MW 3240   2.247   1.276   2.234  0.6336  0.5687 -0.4436
  811SOL     OW 3241   1.555   0.146   2.271  0.3046 -0.6245 -0.1918
  811SOL    HW1 3242   1.627   0.103   2.332  0.3351 -1.3053  1.0229
  811SOL    HW2 3243   1.534   0.091   2.193  0.0168  1.4097 -0.3979
  811SOL     MW 3244   1.562   0.133   2.269  0.2706 -0.4459 -0.0587
  812SOL     OW 3245   1.460   2.841   2.130  0.0711 -0.4045 -0.4834
  812SOL    HW1 3246   1.550   2.827   2.087  0.8408 -1.1678  1.3576
  812SOL    HW2 3247   1.466   2.802   2.216 -2.1342 -1.4792 -0.7997
  812SOL     MW 3248   1.473   2.834   2.136 -0.1183 -0.6470 -0.2822
  813SOL     OW 3249   1.821   0.734   2.188 -0.6441 -0.6904 -0.0314
  813SOL    HW1 3250   1.784   0.645   2.203  1.1949  0.0274  1.9974
  813SOL    HW2 3251   1.833   0.764   2.278  0.0106  0.3719 -0.5240
  813SOL     MW 3252   1.818   0.726   2.202 -0.3151 -0.4555  0.1713
  814SOL     OW 3253   2.765   1.267   1.664  0.8659  0.5085  0.5346
  814SOL    HW1 3254   2.690   1.223   1.707 -0.9025  0.3988 -0.5264
  814SOL    HW2 3255   2.754   1.212   1.583 -2.2487  0.6827  0.0840
  814SOL     MW 3256   2.754   1.254   1.659  0.2216  0.5170  0.3351
  815SOL     OW 3257   2.481   1.654   2.427 -0.2719 -0.0212  0.4988
  815SOL    HW1 3258   2.405   1.588   2.434 -2.6690 -1.7629  0.4293
  815SOL    HW2 3259   2.562   1.599   2.453  4.6076 -1.6178  0.5389
  815SOL     MW 3260   2.482   1.638   2.431  0.0557 -0.4616  0.4950
  816SOL     OW 3261   0.746   0.696   2.725  0.0519  0.3399 -0.0857
  816SOL    HW1 3262   0.761   0.606   2.765 -1.3942  0.7310 -1.4413
  816SOL    HW2 3263   0.647   0.705   2.720 -1.5418  0.2486 -1.2102
  816SOL     MW 3264   0.735   0.685   2.730 -0.3492  0.3795 -0.4129
  817SOL     OW 3265   3.029   1.282   1.408 -0.0014  0.0944 -0.6515
  817SOL    HW1 3266   3.110   1.236   1.438  0.2395 -0.6417 -0.4263
  817SOL    HW2 3267   3.051   1.369   1.371  0.0091 -0.4920 -0.2164
  817SOL     MW 3268   3.042   1.288   1.407  0.0317 -0.0801 -0.5644
  818SOL     OW 3269   1.956   1.033   2.703  0.2123 -1.0330  0.5960
  818SOL    HW1 3270   1.924   1.068   2.619  1.2562  0.0494  1.4615
  818SOL    HW2 3271   1.997   0.945   2.690  0.5790 -1.1648 -1.1390
  818SOL     MW 3272   1.957   1.026   2.690  0.3984 -0.9076  0.4813
  819SOL     OW 3273   1.894   0.278   2.452 -0.2414  0.0609  0.0617
  819SOL    HW1 3274   1.820   0.338   2.462  0.8631 -2.6874 -0.2574
  819SOL    HW2 3275   1.944   0.277   2.542 -0.5107  1.1669  0.7432
  819SOL     MW 3276   1.891   0.286   2.465 -0.1312 -0.1558  0.1095
  820SOL     OW 3277   2.462   1.745   2.676 -0.0099  0.4091 -0.0314
  820SOL    HW1 3278   2.488   1.673   2.738  0.1457  0.6949 -0.7533
  820SOL    HW2 3279   2.479   1.711   2.584  0.0140 -2.9875  0.1362
  820SOL     MW 3280   2.468   1.731   2.672  0.0138 -0.0013 -0.1045
  821SOL     OW 3281   2.569   1.344   1.995 -0.0590  0.0735 -0.3735
  821SOL    HW1 3282   2.605   1.414   1.938 -0.4154  1.6349  1.0634
  821SOL    HW2 3283   2.474   1.374   2.002 -0.4960  0.6841 -1.1632
  821SOL     MW 3284   2.561   1.357   1.988 -0.1637  0.3601 -0.2881
  822SOL     OW 3285   2.822   2.597   1.479  0.0294 -0.1489  0.2448
  822SOL    HW1 3286   2.830   2.613   1.572 -0.9099  2.4646 -0.1128
  822SOL    HW2 3287   2.740   2.646   1.453  0.9323 -0.9113 -1.0440
  822SOL     MW 3288   2.812   2.606   1.488  0.0246  0.0953  0.0276
  823SOL     OW 3289   2.252   0.476   1.790 -0.1131 -0.1547  0.3419
  823SOL    HW1 3290   2.332   0.428   1.764  2.4322  0.8783  1.0548
  823SOL    HW2 3291   2.180   0.418   1.762 -0.0161  2.2348  1.2020
  823SOL     MW 3292   2.253   0.462   1.783  0.2355  0.2969  0.5494
  824SOL     OW 3293   2.071   1.379   2.589  0.0735  0.6622 -0.6791
  824SOL    HW1 3294   2.149   1.409   2.534  1.2902 -2.2626 -2.6440
  824SOL    HW2 3295   2.045   1.452   2.656 -0.3837  2.8653 -0.7560
  824SOL     MW 3296   2.078   1.393   2.590  0.1737  0.5670 -0.9485
  825SOL     OW 3297   2.070   2.582   0.279  0.7393 -0.3590 -0.0186
  825SOL    HW1 3298   2.107   2.554   0.365  1.6423 -1.0552 -0.9348
  825SOL    HW2 3299   2.132   2.533   0.223  0.8666 -0.0520  0.1487
  825SOL     MW 3300   2.083   2.572   0.283  0.8752 -0.4104 -0.1174
  826SOL     OW 3301   1.941   2.361   0.534  0.3312 -0.8987  0.0517
  826SOL    HW1 3302   1.891   2.283   0.567  1.7756 -2.6842  1.1125
  826SOL    HW2 3303   1.906   2.434   0.590 -0.2456  1.3041  1.5498
  826SOL     MW 3304   1.929   2.360   0.546  0.4457 -0.8436  0.3893
  827SOL     OW 3305   1.952   2.186   0.852  0.4934 -0.4341 -0.2255
  827SOL    HW1 3306   1.898   2.249   0.808  3.4211  2.6985 -0.2901
  827SOL    HW2 3307   1.902   2.107   0.851  0.8041  3.1724 -1.1211
  827SOL     MW 3308   1.938   2.184   0.846  0.9207  0.4551 -0.3522
  828SOL     OW 3309   0.059   2.683   0.583 -0.3695 -0.0189 -0.5231
  828SOL    HW1 3310   0.136   2.658   0.534 -1.0434 -3.4895 -0.9068
  828SOL    HW2 3311   0.013   2.737   0.520 -1.0912  1.9893 -1.5484
  828SOL     MW 3312   0.063   2.687   0.568 -0.5536 -0.2119 -0.7090
  829SOL     OW 3313   2.987   2.928   1.260  0.6452  0.3013 -0.4194
  829SOL    HW1 3314   2.911   2.926   1.207 -0.9427 -0.5006  2.2933
  829SOL    HW2 3315   3.014   2.836   1.257 -0.8270 -0.2171  0.8231
  829SOL     MW 3316   2.981   2.916   1.253  0.2414  0.1271  0.1024
  830SOL     OW 3317   2.504   2.853   2.045  0.3260  0.6818 -0.0742
  830SOL    HW1 3318   2.409   2.866   2.014 -0.9448  3.0856 -1.3126
  830SOL    HW2 3319   2.562   2.861   1.969 -0.7273 -0.1885 -1.2395
  830SOL     MW 3320   2.499   2.856   2.031  0.0194  0.8842 -0.3913
  831SOL     OW 3321   2.408   2.410   1.254 -0.5149  0.3882 -0.5357
  831SOL    HW1 3322   2.361   2.349   1.317  0.4870 -1.2804  0.5889
  831SOL    HW2 3323   2.503   2.392   1.255 -1.7555 -0.3648 -0.6669
  831SOL     MW 3324   2.414   2.400   1.263 -0.5464  0.0687 -0.4047
  832SOL     OW 3325   2.428   2.242   1.893 -0.2516 -0.1540  0.0920
  832SOL    HW1 3326   2.457   2.339   1.916  0.7124 -0.2156  2.2579
  832SOL    HW2 3327   2.513   2.198   1.879  1.7945  2.5903  0.8330
  832SOL     MW 3328   2.443   2.249   1.894  0.1455  0.1999  0.4755
  833SOL     OW 3329   1.772   2.435   0.937  0.1532  0.2391 -0.1373
  833SOL    HW1 3330   1.684   2.412   0.925 -0.7442  1.9299  0.1125
  833SOL    HW2 3331   1.787   2.514   0.986  0.4918  1.6573  3.1593
  833SOL     MW 3332   1.762   2.442   0.942  0.0795  0.6493  0.3306
  834SOL     OW 3333   2.226   2.453   0.533 -0.1398 -0.2597 -0.3282
  834SOL    HW1 3334   2.190   2.370   0.566  0.1503  1.5185  0.4424
  834SOL    HW2 3335   2.298   2.436   0.465  1.3074  2.4399 -1.5258
  834SOL     MW 3336   2.230   2.440   0.528  0.0894  0.3311 -0.3845
  835SOL     OW 3337   1.840   2.573   0.677  0.7340  0.3106 -0.1965
  835SOL    HW1 3338   1.813   2.505   0.754  0.3862 -1.0313  1.7845
  835SOL    HW2 3339   1.885   2.652   0.704 -0.7895 -0.1823  2.2452
  835SOL     MW 3340   1.842   2.575   0.690  0.4871  0.0685  0.3870
  836SOL     OW 3341   1.953   2.129   1.668  0.2361  0.2918  0.2880
  836SOL    HW1 3342   2.044   2.131   1.692 -0.1591 -0.2750  0.1346
  836SOL    HW2 3343   1.910   2.210   1.698  0.2803  1.3079 -0.9874
  836SOL     MW 3344   1.959   2.140   1.675  0.1898  0.3511  0.0995
  837SOL     OW 3345   2.086   0.182   0.706  0.2718  0.0970  0.5222
  837SOL    HW1 3346   2.007   0.228   0.662 -2.4507  0.0159 -0.1848
  837SOL    HW2 3347   2.121   0.151   0.617 -1.9740  0.8337 -0.7957
  837SOL     MW 3348   2.080   0.184   0.689 -0.3837  0.1835  0.2551
  838SOL     OW 3349   2.906   2.038   0.910  0.0203 -0.3878 -0.2748
  838SOL    HW1 3350   2.835   2.009   0.971  2.0118 -0.0778  1.6347
  838SOL    HW2 3351   2.936   1.965   0.857 -0.2313  0.5453  0.4858
  838SOL     MW 3352   2.901   2.024   0.911  0.2498 -0.2238  0.0775
  839SOL     OW 3353   1.486   2.339   0.921 -0.4877 -0.0234 -0.2820
  839SOL    HW1 3354   1.481   2.414   0.982 -0.8883  1.3182 -2.3563
  839SOL    HW2 3355   1.534   2.267   0.970 -1.5351 -1.8980 -1.0613
  839SOL     MW 3356   1.492   2.340   0.935 -0.6787 -0.0937 -0.6585
  840SOL     OW 3357   2.294   2.087   2.397 -0.2307 -0.3809  0.1964
  840SOL    HW1 3358   2.274   2.176   2.357  1.2585 -2.1161 -2.2176
  840SOL    HW2 3359   2.372   2.118   2.438  2.3718 -3.6014 -1.2687
  840SOL     MW 3360   2.302   2.103   2.397  0.3092 -1.0348 -0.3154
  841SOL     OW 3361   2.185   2.431   0.084 -0.3966  0.2718 -0.6412
  841SOL    HW1 3362   2.256   2.428   0.026 -0.1112 -0.2008  0.5517
  841SOL    HW2 3363   2.109   2.383   0.040 -1.4016 -0.4004 -0.3434
  841SOL     MW 3364   2.184   2.424   0.071 -0.4916  0.1208 -0.4445
  842SOL     OW 3365   2.679   1.999   1.581 -0.1520 -0.2017 -0.3281
  842SOL    HW1 3366   2.617   1.926   1.598  2.8610  1.4011  2.2079
  842SOL    HW2 3367   2.636   2.053   1.508  1.2014  2.1931 -4.0517
  842SOL     MW 3368   2.665   1.996   1.573  0.4241  0.3257 -0.4848
  843SOL     OW 3369   2.668   2.856   1.823 -0.0246  0.4425  0.3237
  843SOL    HW1 3370   2.719   2.777   1.813 -3.9951  0.5169 -0.2027
  843SOL    HW2 3371   2.600   2.844   1.761 -0.2324 -1.2274  1.0409
  843SOL     MW 3372   2.666   2.844   1.814 -0.5759  0.2320  0.3489
  844SOL     OW 3373   2.662   2.318   1.222  0.1665  0.3634 -0.3016
  844SOL    HW1 3374   2.693   2.366   1.145 -3.6654 -1.7491  0.6436
  844SOL    HW2 3375   2.735   2.311   1.280 -1.1367  0.7579 -0.0871
  844SOL     MW 3376   2.675   2.323   1.219 -0.5111  0.1367 -0.1486
  845SOL     OW 3377   2.853   2.498   0.301 -0.7557  0.4974  0.6629
  845SOL    HW1 3378   2.808   2.411   0.323  2.9765  0.9776  3.3338
  845SOL    HW2 3379   2.842   2.546   0.386  0.4463 -1.5540  3.7369
  845SOL     MW 3380   2.845   2.493   0.315 -0.1047  0.2901  1.4209
  846SOL     OW 3381   1.532   2.840   0.832  0.0717 -0.3117  0.2124
  846SOL    HW1 3382   1.622   2.878   0.821  0.0573 -3.1782 -0.2417
  846SOL    HW2 3383   1.473   2.912   0.858 -0.7571  0.5478 -2.5962
  846SOL     MW 3384   1.536   2.855   0.834 -0.0396 -0.5765 -0.2181
  847SOL     OW 3385   2.513   1.963   0.176 -0.0551 -0.6109  0.0257
  847SOL    HW1 3386   2.545   1.882   0.211 -0.3909  2.6764  1.4675
  847SOL    HW2 3387   2.470   1.925   0.097  1.4965  3.1505  0.5325
  847SOL     MW 3388   2.511   1.947   0.171  0.1053  0.3191  0.2828
  848SOL     OW 3389   2.555   2.106   1.346  0.4048  0.1852  0.1332
  848SOL    HW1 3390   2.591   2.185   1.311  0.1948 -2.8693  3.9748
  848SOL    HW2 3391   2.560   2.046   1.275 -1.0700 -0.2670  1.5374
  848SOL     MW 3392   2.561   2.109   1.332  0.1825 -0.2774  0.8253
  849SOL     OW 3393   2.018   2.804   0.773  0.6506 -0.1020  0.4338
  849SOL    HW1 3394   2.049   2.749   0.850 -0.5338  0.2465  1.1185
  849SOL    HW2 3395   2.081   2.785   0.700 -1.0385  3.0931 -2.6576
  849SOL     MW 3396   2.030   2.794   0.773  0.2715  0.3656  0.1162
  850SOL     OW 3397   2.260   1.884   1.701 -0.8383 -0.7419 -0.3061
  850SOL    HW1 3398   2.190   1.845   1.644  5.0352 -1.5329 -1.9915
  850SOL    HW2 3399   2.249   1.976   1.677 -0.4927 -0.7891  0.2771
  850SOL     MW 3400   2.249   1.891   1.691 -0.0178 -0.8525 -0.4515
  851SOL     OW 3401   2.363   2.345   0.314 -0.5305  0.1314  0.0160
  851SOL    HW1 3402   2.320   2.385   0.242  0.7396 -0.5423  0.9404
  851SOL    HW2 3403   2.459   2.365   0.304  3.1427 -4.3779 -2.3526
  851SOL     MW 3404   2.370   2.353   0.303  0.1217 -0.5525 -0.1745
  852SOL     OW 3405   2.337   2.083   0.334 -0.2018  0.1804 -0.1672
  852SOL    HW1 3406   2.341   2.179   0.328 -2.0184 -1.1314  0.6613
  852SOL    HW2 3407   2.410   2.052   0.275 -2.8600 -0.2950 -2.7213
  852SOL     MW 3408   2.347   2.092   0.326 -0.7922 -0.0554 -0.3949
  853SOL     OW 3409   2.479   2.502   1.962 -0.1992 -0.3446  0.1802
  853SOL    HW1 3410   2.497   2.549   1.880 -0.4683  0.4633 -0.2249
  853SOL    HW2 3411   2.566   2.473   1.993  0.5498  2.9558 -1.5733
  853SOL     MW 3412   2.493   2.504   1.955 -0.1359  0.1974 -0.1046
  854SOL     OW 3413   2.873   2.261   0.783 -0.0389 -0.1296 -0.1698
  854SOL    HW1 3414   2.785   2.226   0.753 -0.9896 -0.6517  3.1779
  854SOL    HW2 3415   2.894   2.177   0.841 -0.4354 -0.6370  1.4542
  854SOL     MW 3416   2.864   2.245   0.786 -0.2167 -0.2654  0.4862
  855SOL     OW 3417   2.658   2.300   0.358 -0.2264  0.7128 -0.2765
  855SOL    HW1 3418   2.639   2.315   0.452  1.1823  1.3463  2.7542
  855SOL    HW2 3419   2.721   2.231   0.358 -2.4839 -2.4835 -0.0680
  855SOL     MW 3420   2.663   2.293   0.370 -0.3384  0.3746  0.1509
  856SOL     OW 3421   2.145   1.909   0.195  0.2536  0.6379  0.3813
  856SOL    HW1 3422   2.060   1.883   0.233  2.3322  1.7220 -2.0030
  856SOL    HW2 3423   2.189   1.966   0.257 -0.1361  2.1045  0.8806
  856SOL     MW 3424   2.139   1.913   0.208  0.4764  0.9745  0.1326
  857SOL     OW 3425   2.485   1.986   0.553 -0.2947 -0.3179  0.4965
  857SOL    HW1 3426   2.441   2.040   0.483  0.6436  2.9496 -2.6873
  857SOL    HW2 3427   2.440   1.902   0.570  0.8752  0.4076  2.8919
  857SOL     MW 3428   2.473   1.982   0.546 -0.0165  0.2089  0.3925
  858SOL     OW 3429   2.869   2.645   1.763  0.0934 -0.2561 -0.1896
  858SOL    HW1 3430   2.964   2.678   1.771  1.2641  0.2051 -0.0163
  858SOL    HW2 3431   2.885   2.558   1.797 -2.6860 -0.3710 -1.1110
  858SOL     MW 3432   2.884   2.638   1.769 -0.1188 -0.2104 -0.2883
  859SOL     OW 3433   2.142   2.563   0.928  0.1299  0.0911 -0.3102
  859SOL    HW1 3434   2.108   2.504   0.994  1.7623  0.3940 -1.5521
  859SOL    HW2 3435   2.137   2.516   0.847  0.6737  1.6289 -1.1276
  859SOL     MW 3436   2.136   2.549   0.926  0.4170  0.3340 -0.5819
  860SOL     OW 3437   2.669   2.606   0.119  0.6472 -0.0277  0.0743
  860SOL    HW1 3438   2.748   2.584   0.174 -3.6823 -2.1875 -0.5718
  860SOL    HW2 3439   2.685   2.696   0.085 -1.5679 -2.0050 -1.0853
  860SOL     MW 3440   2.682   2.615   0.122 -0.2163 -0.5736 -0.1640
  861SOL     OW 3441   1.593   2.157   1.091  0.5717  0.2633  0.2978
  861SOL    HW1 3442   1.626   2.230   1.146  1.4254  1.7601  0.6782
  861SOL    HW2 3443   1.527   2.109   1.143 -0.0206  1.6687  0.1580
  861SOL     MW 3444   1.589   2.160   1.105  0.6062  0.6462  0.3296
  862SOL     OW 3445   2.481   1.802   1.558  0.2747  0.1291 -0.2615
  862SOL    HW1 3446   2.412   1.820   1.624 -1.6748  0.6145 -1.1606
  862SOL    HW2 3447   2.446   1.839   1.478 -1.5292  0.1347  0.4202
  862SOL     MW 3448   2.468   1.810   1.556 -0.2205  0.1939 -0.2901
  863SOL     OW 3449   3.017   1.762   1.030 -0.1855 -0.5647 -0.1695
  863SOL    HW1 3450   3.093   1.751   1.091 -0.4594  1.4940 -1.5077
  863SOL    HW2 3451   2.987   1.852   1.048 -1.6408 -1.4071  1.2768
  863SOL     MW 3452   3.023   1.772   1.040 -0.4137 -0.4043 -0.1553
  864SOL     OW 3453   3.048   1.841   0.754  0.2077  0.3963  0.6655
  864SOL    HW1 3454   3.043   1.783   0.835  0.0831 -0.5927  2.5934
  864SOL    HW2 3455   2.999   1.799   0.678  1.6903 -0.7094 -3.1856
  864SOL     MW 3456   3.041   1.828   0.754  0.3869  0.1199  0.4117
  865SOL     OW 3457   2.479   2.202   0.017 -0.0012  0.2122  0.4372
  865SOL    HW1 3458   2.533   2.150   0.077 -1.3632  0.2431 -0.1400
  865SOL    HW2 3459   2.431   2.127  -0.024  2.0630 -1.3047  0.8066
  865SOL     MW 3460   2.480   2.185   0.019  0.0914  0.0161  0.4098
  866SOL     OW 3461   2.667   2.361   1.681  0.3783 -0.9655 -0.3849
  866SOL    HW1 3462   2.674   2.275   1.725  1.1340 -0.6358 -1.1636
  866SOL    HW2 3463   2.722   2.347   1.595  0.1206  2.0383 -0.6616
  866SOL     MW 3464   2.675   2.348   1.675  0.4440 -0.5257 -0.5241
  867SOL     OW 3465   0.037   2.717   1.782  0.1835 -0.1607  0.1226
  867SOL    HW1 3466   0.004   2.748   1.863  1.0633 -1.5774 -2.6555
  867SOL    HW2 3467   0.045   2.795   1.726 -0.0051 -1.8154 -1.6393
  867SOL     MW 3468   0.034   2.731   1.786  0.2747 -0.5660 -0.4764
  868SOL     OW 3469   2.775   2.629   0.536 -0.2373  0.6535 -0.0794
  868SOL    HW1 3470   2.716   2.559   0.562  0.3575  1.1420  2.2254
  868SOL    HW2 3471   2.723   2.698   0.495  0.6046  0.4088  0.1099
  868SOL     MW 3472   2.761   2.629   0.534 -0.0477  0.6857  0.2497
  869SOL     OW 3473   2.072   2.313   1.075 -0.4507 -0.0955 -0.6046
  869SOL    HW1 3474   2.152   2.309   1.022 -2.1409 -1.0932 -2.7420
  869SOL    HW2 3475   2.008   2.278   1.009  1.1374 -1.5668 -0.5242
  869SOL     MW 3476   2.074   2.308   1.059 -0.4642 -0.4213 -0.8760
  870SOL     OW 3477   2.131   0.052   0.455 -0.2931 -0.4019  0.3558
  870SOL    HW1 3478   2.209   0.071   0.394  0.1365 -0.5258  0.5641
  870SOL    HW2 3479   2.120  -0.045   0.448 -0.1623 -2.1979  0.5241
  870SOL     MW 3480   2.140   0.042   0.446 -0.2192 -0.6552  0.4055
  871SOL     OW 3481   2.471   2.034   0.957 -0.7002 -0.2909 -0.2511
  871SOL    HW1 3482   2.417   2.011   0.879 -0.6837 -0.1191  2.1637
  871SOL    HW2 3483   2.433   2.111   0.997 -2.7141 -0.9092  0.4053
  871SOL     MW 3484   2.459   2.041   0.952 -0.9637 -0.3498  0.1541
  872SOL     OW 3485   2.022   2.505   1.557  0.0679 -0.3521 -0.0818
  872SOL    HW1 3486   2.022   2.543   1.645  0.2016 -4.0475 -0.0074
  872SOL    HW2 3487   1.936   2.460   1.544 -0.3433 -0.1311 -0.3232
  872SOL     MW 3488   2.010   2.504   1.567  0.0313 -0.8105 -0.1038
  873SOL     OW 3489   2.906   2.030   1.965 -0.2154  0.4052  0.1212
  873SOL    HW1 3490   2.888   2.101   2.028 -1.5891  0.9815  0.1190
  873SOL    HW2 3491   2.992   2.061   1.925  0.4277  0.9000 -5.0580
  873SOL     MW 3492   2.915   2.044   1.968 -0.3118  0.5465 -0.5624
  874SOL     OW 3493   2.323   1.425   2.455  0.3279 -0.1529 -0.2042
  874SOL    HW1 3494   2.307   1.372   2.375 -0.2635  1.5789 -0.8099
  874SOL    HW2 3495   2.401   1.378   2.491  2.1371  0.9774  1.2525
  874SOL     MW 3496   2.331   1.412   2.449  0.4886  0.2247 -0.0919
  875SOL     OW 3497   2.327   2.292   1.014  0.2393  0.2244 -0.3203
  875SOL    HW1 3498   2.367   2.359   0.955  1.0704  0.9475  1.1733
  875SOL    HW2 3499   2.374   2.305   1.098 -1.2676 -0.9549  1.0563
  875SOL     MW 3500   2.338   2.303   1.017  0.1502  0.1642  0.0584
  876SOL     OW 3501   3.059   2.288   1.308 -0.0068  0.1394  0.3372
  876SOL    HW1 3502   3.094   2.316   1.217  1.4709 -0.8036  1.8055
  876SOL    HW2 3503   3.105   2.345   1.374 -1.4271  2.7403 -0.1881
  876SOL     MW 3504   3.070   2.299   1.304  0.0008  0.3581  0.4616
  877SOL     OW 3505   0.014   2.773   0.312  0.0602  0.3330  0.0948
  877SOL    HW1 3506   0.070   2.850   0.295  1.3039 -0.4695 -1.3892
  877SOL    HW2 3507  -0.005   2.723   0.230 -0.5869  0.4214  0.9123
  877SOL     MW 3508   0.019   2.777   0.299  0.1389  0.2388  0.0069
  878SOL     OW 3509   2.374   1.824   1.290 -0.3884 -0.2820 -0.5930
  878SOL    HW1 3510   2.316   1.752   1.324  0.5998  3.2395 -0.5435
  878SOL    HW2 3511   2.458   1.789   1.259  2.0326 -0.7641  0.1115
  878SOL     MW 3512   2.377   1.810   1.290  0.0614  0.1190 -0.4936
  879SOL     OW 3513   2.746   2.447   0.973  0.3497  0.2142  0.0196
  879SOL    HW1 3514   2.779   2.538   0.971 -0.0992 -2.0875  0.0072
  879SOL    HW2 3515   2.804   2.390   0.926  1.0993 -0.2482  0.3964
  879SOL     MW 3516   2.758   2.452   0.966  0.3894 -0.1505  0.0677
  880SOL     OW 3517   2.619   2.164   0.739 -0.0770  0.0489 -0.2151
  880SOL    HW1 3518   2.607   2.094   0.810  1.5619 -3.4567  2.0721
  880SOL    HW2 3519   2.578   2.125   0.664 -1.2986  0.4852 -1.8299
  880SOL     MW 3520   2.612   2.150   0.739 -0.0219 -0.3560 -0.1264
  881SOL     OW 3521   2.931   2.728   0.754  0.8927 -0.5551 -0.1682
  881SOL    HW1 3522   2.879   2.694   0.681 -0.2660 -1.6824 -3.1875
  881SOL    HW2 3523   3.021   2.692   0.743 -0.5445 -0.8736 -0.4793
  881SOL     MW 3524   2.936   2.719   0.743  0.5502 -0.7458 -0.6076
  882SOL     OW 3525   2.234   2.905   1.954 -0.0986  0.3668 -0.2921
  882SOL    HW1 3526   2.212   2.906   1.857  0.9859 -1.8543  2.4192
  882SOL    HW2 3527   2.192   2.821   1.985  1.7709 -5.6545  1.8123
  882SOL     MW 3528   2.226   2.894   1.946  0.2912 -0.7207  0.3433
  883SOL     OW 3529   2.313   2.200   1.416  0.2367 -0.1103 -0.6780
  883SOL    HW1 3530   2.394   2.151   1.382 -0.8696 -0.5286 -2.6492
  883SOL    HW2 3531   2.239   2.156   1.369  0.5492  0.3365 -1.6471
  883SOL     MW 3532   2.314   2.187   1.405  0.1319 -0.1065 -1.0660
  884SOL     OW 3533   1.945   1.764   1.057  0.3721  0.8924  0.0710
  884SOL    HW1 3534   1.889   1.836   1.018 -2.8918  0.6581  2.4417
  884SOL    HW2 3535   2.042   1.800   1.050  0.5329 -1.4073  1.4002
  884SOL     MW 3536   1.950   1.778   1.051 -0.0373  0.5580  0.5591
  885SOL     OW 3537   2.887   2.397   1.839 -0.0181  0.9057 -0.2784
  885SOL    HW1 3538   2.961   2.335   1.826 -1.8032 -1.5478  0.2901
  885SOL    HW2 3539   2.833   2.378   1.766  1.3097 -0.5214 -0.6827
  885SOL     MW 3540   2.890   2.386   1.828 -0.0784  0.3937 -0.2567
  886SOL     OW 3541   2.807   2.322   1.462  0.3129  0.8427 -0.0856
  886SOL    HW1 3542   2.888   2.295   1.428 -1.3207 -0.5017  0.7219
  886SOL    HW2 3543   2.814   2.423   1.451  1.0327  0.7616 -2.0146
  886SOL     MW 3544   2.819   2.332   1.457  0.1923  0.6546 -0.2336
  887SOL     OW 3545   2.282   2.633   1.583 -0.1215  0.2666  0.3664
  887SOL    HW1 3546   2.310   2.668   1.495  1.0397 -0.9739 -1.0397
  887SOL    HW2 3547   2.205   2.579   1.564  0.6450  1.4193 -2.3707
  887SOL     MW 3548   2.276   2.630   1.569  0.1328  0.2550 -0.1802
  888SOL     OW 3549   1.889   2.108   1.380 -0.5120  0.6260  0.4261
  888SOL    HW1 3550   1.966   2.094   1.325 -1.7553  2.3831 -0.5342
  888SOL    HW2 3551   1.912   2.135   1.468  0.6042 -0.1095  0.7640
  888SOL     MW 3552   1.902   2.110   1.384 -0.5287  0.7608  0.3440
  889SOL     OW 3553   2.317   2.030   2.065  0.3033 -0.2599  0.0732
  889SOL    HW1 3554   2.381   2.017   2.139  0.2756 -1.5104  0.1363
  889SOL    HW2 3555   2.333   2.115   2.019  3.4440 -0.4577  0.0817
  889SOL     MW 3556   2.327   2.040   2.069  0.7140 -0.4510  0.0827
  890SOL     OW 3557   0.053   2.355   0.146 -0.2838  0.1091 -0.3383
  890SOL    HW1 3558   0.002   2.439   0.132 -0.5730 -1.7331 -2.8930
  890SOL    HW2 3559   0.027   2.323   0.235  2.3243  3.0053  0.6921
  890SOL     MW 3560   0.043   2.362   0.156  0.0222  0.2482 -0.5394
  891SOL     OW 3561   3.043   2.011   1.294  0.5168  0.2171  0.1181
  891SOL    HW1 3562   3.127   1.969   1.276  1.6992 -0.1503 -3.4345
  891SOL    HW2 3563   3.052   2.103   1.283 -1.9851 -3.2064 -0.8589
  891SOL     MW 3564   3.055   2.018   1.290  0.3427 -0.2831 -0.4795
  892SOL     OW 3565   2.448   2.311   2.748  0.2669 -0.0437 -0.1742
  892SOL    HW1 3566   2.426   2.231   2.795 -3.4451 -0.2837 -0.2766
  892SOL    HW2 3567   2.527   2.338   2.791  1.5100 -1.1531  2.2278
  892SOL     MW 3568   2.456   2.304   2.760 -0.0588 -0.2217  0.1292
  893SOL     OW 3569   1.600   2.414   1.233 -0.2758  0.0450 -0.0615
  893SOL    HW1 3570   1.542   2.468   1.285  0.1766 -1.6966 -1.5082
  893SOL    HW2 3571   1.690   2.432   1.263  0.6218  1.1274 -3.3293
  893SOL     MW 3572   1.604   2.423   1.244 -0.0977 -0.0419 -0.6835
  894SOL     OW 3573   2.744   1.868   0.449  0.4786 -0.2736  0.4737
  894SOL    HW1 3574   2.656   1.885   0.469  0.7333 -0.5757  0.7580
  894SOL    HW2 3575   2.737   1.851   0.351 -0.0329 -0.4535 -1.2365
  894SOL     MW 3576   2.731   1.868   0.439  0.4447 -0.3372  0.2855
  895SOL     OW 3577   2.120   2.100   1.243  0.7622  0.1066  0.1725
  895SOL    HW1 3578   2.092   2.174   1.173  1.1319  0.9798 -1.5859
  895SOL    HW2 3579   2.144   2.024   1.196 -0.7771 -0.5775 -0.6665
  895SOL     MW 3580   2.119   2.100   1.227  0.6079  0.1315 -0.1702
  896SOL     OW 3581   2.311   2.806   1.084  0.1035  0.2866  0.3698
  896SOL    HW1 3582   2.344   2.751   1.151 -0.5787  1.0941  2.8845
  896SOL    HW2 3583   2.225   2.789   1.072  4.7425  0.8619 -1.1140
  896SOL     MW 3584   2.304   2.797   1.091  0.6256  0.4690  0.5058
  897SOL     OW 3585   3.048   3.005   3.092  0.2310  0.5011 -0.2424
  897SOL    HW1 3586   3.077   2.944   3.020  0.2144 -2.1187 -4.5025
  897SOL    HW2 3587   3.034   2.949   3.169  3.0141  0.6724  0.3302
  897SOL     MW 3588   3.050   2.990   3.093  0.5960  0.1781 -0.7290
  898SOL     OW 3589   2.102   0.201   1.472  0.1931  0.0364  0.4228
  898SOL    HW1 3590   2.077   0.123   1.522 -1.2482  1.3360  1.9756
  898SOL    HW2 3591   2.091   0.172   1.380 -1.5183  0.3261  1.9273
  898SOL     MW 3592   2.098   0.187   1.466 -0.2228  0.2461  0.8262
  899SOL     OW 3593   2.923   2.974   0.638  0.2526  0.2875  0.1252
  899SOL    HW1 3594   2.919   2.893   0.687 -0.7964 -1.3137  1.1198
  899SOL    HW2 3595   2.836   3.013   0.660 -0.8882 -0.7262  0.1010
  899SOL     MW 3596   2.911   2.968   0.647 -0.0363 -0.0575  0.2532
  900SOL     OW 3597   0.086   2.405   1.086 -1.0816 -0.1791  0.1811
  900SOL    HW1 3598   0.039   2.486   1.099 -0.9166 -2.0909 -0.2245
  900SOL    HW2 3599   0.064   2.367   0.998 -0.7082 -0.7063 -0.0277
  900SOL     MW 3600   0.077   2.411   1.076 -1.0106 -0.5009  0.1000
  901SOL     OW 3601   1.728   2.836   1.769  0.3949  0.0946 -0.3027
  901SOL    HW1 3602   1.808   2.785   1.742 -1.4927  1.1134 -0.5746
  901SOL    HW2 3603   1.662   2.829   1.697 -0.7995 -1.0224 -0.0516
  901SOL     MW 3604   1.730   2.828   1.756 -0.0117  0.0816 -0.3055
  902SOL     OW 3605   2.700   2.123   1.811 -0.0445 -0.0652  0.0565
  902SOL    HW1 3606   2.705   2.075   1.729 -1.0476  0.0656  1.3146
  902SOL    HW2 3607   2.788   2.104   1.847 -0.1168  0.4253 -1.4723
  902SOL     MW 3608   2.712   2.114   1.805 -0.1864  0.0168  0.0208
  903SOL     OW 3609   1.595   2.718   0.590  0.3073 -0.4033  0.7397
  903SOL    HW1 3610   1.668   2.657   0.602 -1.7926  0.1383 -0.3523
  903SOL    HW2 3611   1.560   2.752   0.671 -0.5804 -0.7159  1.4587
  903SOL     MW 3612   1.600   2.714   0.602 -0.0869 -0.3731  0.6905
  904SOL     OW 3613   2.529   2.586   1.715 -0.0071 -0.2978 -0.0022
  904SOL    HW1 3614   2.460   2.591   1.649  0.8009 -0.7409 -1.3091
  904SOL    HW2 3615   2.575   2.510   1.688  0.1565  0.5816  0.4612
  904SOL     MW 3616   2.526   2.577   1.702  0.1211 -0.2402 -0.1135
  905SOL     OW 3617   2.278   2.530   2.153  0.4360 -0.5503 -0.8373
  905SOL    HW1 3618   2.357   2.508   2.105 -2.4219 -1.9209  0.4138
  905SOL    HW2 3619   2.241   2.454   2.197 -0.4080 -0.1074 -1.0594
  905SOL     MW 3620   2.283   2.517   2.152 -0.0524 -0.6727 -0.7015
  906SOL     OW 3621   2.436   2.477   0.848  0.1413  0.1007 -0.6706
  906SOL    HW1 3622   2.528   2.457   0.860  0.0420  3.6109  2.3745
  906SOL    HW2 3623   2.424   2.566   0.863  3.9151 -4.1958 -1.1208
  906SOL     MW 3624   2.447   2.486   0.852  0.6262 -0.0030 -0.3282
  907SOL     OW 3625   2.635   2.798   1.352  0.1922  0.2753 -0.0711
  907SOL    HW1 3626   2.681   2.871   1.391 -0.3154 -2.3184  0.8075
  907SOL    HW2 3627   2.639   2.817   1.258  0.1255  1.5034  0.6218
  907SOL     MW 3628   2.642   2.810   1.345  0.1164  0.0951  0.1363
  908SOL     OW 3629   2.711   2.333   3.090 -0.4798 -0.1033  0.4733
  908SOL    HW1 3630   2.626   2.291   3.084  2.0020  1.9994  3.2569
  908SOL    HW2 3631   2.692   2.415   3.135 -0.3899 -0.5090 -1.6406
  908SOL     MW 3632   2.697   2.338   3.095 -0.1405  0.1206  0.5617
  909SOL     OW 3633   1.725   0.065   1.181  0.8545 -0.5773  0.4377
  909SOL    HW1 3634   1.718   0.129   1.105 -1.8831 -1.3636 -1.2227
  909SOL    HW2 3635   1.776   0.109   1.250 -1.2721 -2.4191 -0.6002
  909SOL     MW 3636   1.731   0.079   1.180  0.2127 -0.9240  0.0817
  910SOL     OW 3637   2.267   1.803   0.415 -0.4944  0.7465 -0.5070
  910SOL    HW1 3638   2.219   1.728   0.443 -0.4255 -0.5117 -0.8532
  910SOL    HW2 3639   2.221   1.830   0.334 -1.3380  2.3187 -0.0933
  910SOL     MW 3640   2.255   1.797   0.408 -0.5966  0.7879 -0.4981
  911SOL     OW 3641   2.262   2.171   1.685 -0.2224 -0.7989 -0.7646
  911SOL    HW1 3642   2.332   2.188   1.746  0.2827  0.7850 -1.2661
  911SOL    HW2 3643   2.296   2.198   1.597  0.6189 -1.7257 -0.5479
  911SOL     MW 3644   2.276   2.177   1.681 -0.0448 -0.7122 -0.8022
  912SOL     OW 3645   2.932   1.920   1.538  0.0192 -0.3223 -0.2433
  912SOL    HW1 3646   2.955   1.959   1.446  0.2928 -0.2483  0.5098
  912SOL    HW2 3647   2.841   1.955   1.561  1.1305  4.6467  0.8879
  912SOL     MW 3648   2.923   1.930   1.529  0.2019  0.3431  0.0053
  913SOL     OW 3649   2.632   3.041   0.361  0.1619 -0.1563 -0.3739
  913SOL    HW1 3650   2.716   2.992   0.340  1.1325  0.4448  1.5074
  913SOL    HW2 3651   2.558   2.996   0.328 -1.1306  0.2541  3.5493
  913SOL     MW 3652   2.633   3.028   0.354  0.1194 -0.0229  0.3919
  914SOL     OW 3653   2.715   1.747   3.050 -0.2324 -0.1713 -0.1852
  914SOL    HW1 3654   2.712   1.831   2.998  0.9322  1.4444 -2.8230
  914SOL    HW2 3655   2.633   1.711   3.036  1.6203 -0.2646 -1.8654
  914SOL     MW 3656   2.704   1.754   3.041  0.1657  0.0296 -0.7549
  915SOL     OW 3657   1.700   0.229   0.223 -0.5846  0.0786  0.1024
  915SOL    HW1 3658   1.759   0.170   0.277  1.4203 -1.4206 -0.5440
  915SOL    HW2 3659   1.611   0.190   0.233  0.5350 -1.6103 -3.1269
  915SOL     MW 3660   1.696   0.216   0.232 -0.1723 -0.3421 -0.4089
  916SOL     OW 3661   1.816   2.115   1.908  0.1289  0.1971  0.8436
  916SOL    HW1 3662   1.872   2.192   1.907 -0.6848 -1.5627  0.1890
  916SOL    HW2 3663   1.835   2.078   1.822  1.9403  1.2570  1.2091
  916SOL     MW 3664   1.826   2.120   1.897  0.2605  0.1048  0.8054
  917SOL     OW 3665   2.520   2.226   2.501 -1.0014 -0.2182  0.2405
  917SOL    HW1 3666   2.504   2.256   2.593 -0.2965  2.0006  1.0791
  917SOL    HW2 3667   2.597   2.283   2.483 -1.0180  0.6364  0.5704
  917SOL     MW 3668   2.528   2.237   2.511 -0.9106  0.1873  0.3947
  918SOL     OW 3669   1.991   1.597   2.716 -0.4584  0.0484 -0.1606
  918SOL    HW1 3670   1.919   1.626   2.661  1.0182  0.5205 -0.5640
  918SOL    HW2 3671   2.064   1.647   2.680 -0.9568 -0.5578  2.0946
  918SOL     MW 3672   1.991   1.608   2.704 -0.3293  0.0307  0.0837
  919SOL     OW 3673   3.071   2.329   2.259 -0.0388 -0.1464 -0.2446
  919SOL    HW1 3674   3.009   2.263   2.229  0.4650  1.0266  1.2532
  919SOL    HW2 3675   3.126   2.347   2.183 -2.9809 -0.4068  2.7791
  919SOL     MW 3676   3.070   2.323   2.245 -0.3605 -0.0260  0.3519
  920SOL     OW 3677   2.710   2.867   0.005 -0.2409  0.5189 -0.1220
  920SOL    HW1 3678   2.626   2.881   0.050  1.1929 -0.8530  1.1115
  920SOL    HW2 3679   2.700   2.808  -0.078  0.7592 -1.7798  0.2009
  920SOL     MW 3680   2.697   2.861  -0.000  0.0802  0.0346  0.0834
  921SOL     OW 3681   2.430   2.568   2.638  0.0206  0.0899  0.5967
  921SOL    HW1 3682   2.509   2.581   2.593 -1.4653 -3.1389  0.8710
  921SOL    HW2 3683   2.429   2.485   2.680 -1.8385  3.1793 -0.4124
  921SOL     MW 3684   2.440   2.559   2.638 -0.4207  0.0715  0.4997
  922SOL     OW 3685   2.034   2.849   0.294 -0.6721 -0.0044 -0.2713
  922SOL    HW1 3686   2.021   2.879   0.203 -0.0339  0.0739  0.1011
  922SOL    HW2 3687   2.052   2.754   0.279  1.5513  2.2905  1.6454
  922SOL     MW 3688   2.035   2.840   0.280 -0.2945  0.3087  0.0307
  923SOL     OW 3689   2.148   2.850   1.684  0.5985  0.1815  0.0622
  923SOL    HW1 3690   2.194   2.782   1.635 -0.9654  0.4245 -0.5288
  923SOL    HW2 3691   2.120   2.925   1.630 -1.4024  0.1347 -0.5710
  923SOL     MW 3692   2.151   2.851   1.671  0.1282  0.2074 -0.0993
  924SOL     OW 3693   1.128   2.677   2.525 -0.4518 -0.0155 -0.2836
  924SOL    HW1 3694   1.186   2.752   2.518  0.4437  0.7360  1.6336
  924SOL    HW2 3695   1.157   2.646   2.609 -2.1493  3.7270  0.2978
  924SOL     MW 3696   1.140   2.683   2.536 -0.5576  0.5775  0.0461
  925SOL     OW 3697   3.053   0.181   2.639  0.4730 -0.2539 -0.5292
  925SOL    HW1 3698   3.013   0.202   2.552  1.9213  1.1622  1.1099
  925SOL    HW2 3699   3.015   0.248   2.694 -0.5671  2.7865 -0.9365
  925SOL     MW 3700   3.043   0.192   2.634  0.5269  0.3341 -0.3667
  926SOL     OW 3701   2.703   2.416   2.045 -0.5583  0.4338 -0.1116
  926SOL    HW1 3702   2.749   2.464   2.114  0.5945 -2.5062  0.0161
  926SOL    HW2 3703   2.770   2.412   1.970  0.7360 -5.4875 -1.1853
  926SOL     MW 3704   2.718   2.422   2.044 -0.2354 -0.7354 -0.2364
  927SOL     OW 3705   2.348   0.120   0.312 -0.1151  0.0335  0.3239
  927SOL    HW1 3706   2.431   0.159   0.295 -1.9641 -2.5668  0.7477
  927SOL    HW2 3707   2.308   0.106   0.220  0.2098 -0.1672 -0.7400
  927SOL     MW 3708   2.353   0.123   0.297 -0.3162 -0.3360  0.2394
  928SOL     OW 3709   2.160   2.397   1.795  0.3310 -0.5393 -0.4385
  928SOL    HW1 3710   2.234   2.423   1.850 -0.7121  1.6481 -4.9651
  928SOL    HW2 3711   2.199   2.330   1.740 -0.4043  0.0898 -0.1904
  928SOL     MW 3712   2.175   2.391   1.795  0.0963 -0.1677 -1.0030
  929SOL     OW 3713   2.748   2.371   2.453  0.2434 -0.6263  0.1112
  929SOL    HW1 3714   2.793   2.381   2.369  1.7858 -1.8706 -1.7877
  929SOL    HW2 3715   2.815   2.360   2.519  1.1227 -0.3437 -1.0979
  929SOL     MW 3716   2.763   2.371   2.450  0.5629 -0.7532 -0.2989
  930SOL     OW 3717   2.012   2.859   2.739 -0.2088 -0.2776  0.1961
  930SOL    HW1 3718   2.029   2.766   2.770  0.3503 -2.7403 -0.7704
  930SOL    HW2 3719   2.095   2.902   2.746  2.2761 -0.4057 -0.8188
  930SOL     MW 3720   2.025   2.853   2.744  0.1928 -0.6194 -0.0653
  931SOL     OW 3721   3.030   2.740   2.359 -0.0785 -0.4824  0.3185
  931SOL    HW1 3722   3.091   2.756   2.433  0.6488 -0.2241 -0.4277
  931SOL    HW2 3723   3.090   2.728   2.279  2.3953  0.9020  0.9379
  931SOL     MW 3724   3.046   2.741   2.359  0.3439 -0.2657  0.3018
  932SOL     OW 3725   2.903   1.957   2.555  0.6775 -0.2855 -0.3997
  932SOL    HW1 3726   2.991   1.981   2.530 -1.0626 -1.5353 -0.9463
  932SOL    HW2 3727   2.844   1.979   2.480 -0.5534  0.3336 -0.8370
  932SOL     MW 3728   2.907   1.963   2.542  0.2855 -0.3687 -0.5295
  933SOL     OW 3729   2.072   2.834   2.254 -0.2810 -0.4740 -0.1308
  933SOL    HW1 3730   2.161   2.852   2.283  1.8449 -2.5942 -1.5373
  933SOL    HW2 3731   2.031   2.924   2.250 -0.4520  3.0071 -0.2426
  933SOL     MW 3732   2.078   2.848   2.257 -0.0231 -0.2944 -0.3311
  934SOL     OW 3733   2.027   2.715   2.513  0.1515  0.5916  0.0917
  934SOL    HW1 3734   2.049   2.774   2.587 -0.1200  0.2582  1.3484
  934SOL    HW2 3735   2.042   2.763   2.428 -0.3490 -2.5764 -1.4956
  934SOL     MW 3736   2.031   2.729   2.512  0.0496  0.1296  0.0481
  935SOL     OW 3737   2.691   1.513   1.811  0.2739 -0.1124  0.8240
  935SOL    HW1 3738   2.782   1.496   1.809 -0.8556  1.7660 -2.8915
  935SOL    HW2 3739   2.650   1.516   1.728 -2.8832  0.9022  1.1358
  935SOL     MW 3740   2.697   1.511   1.800 -0.2917  0.2693  0.3749
  936SOL     OW 3741   3.008   2.206   3.066  0.1578  0.2441  0.4483
  936SOL    HW1 3742   3.053   2.274   3.115  0.1233  0.6118 -1.4854
  936SOL    HW2 3743   2.924   2.250   3.063 -0.5300  1.3408  1.2758
  936SOL     MW 3744   3.003   2.221   3.072  0.0625  0.4373  0.3024
  937SOL     OW 3745   1.956   2.134   2.601  0.0679  0.1756 -0.0192
  937SOL    HW1 3746   2.024   2.072   2.644 -1.4204 -0.9293 -0.4173
  937SOL    HW2 3747   1.946   2.096   2.512  0.2367  1.5629 -2.1484
  937SOL     MW 3748   1.964   2.121   2.595 -0.1062  0.2129 -0.3527
  938SOL     OW 3749   2.295   1.786   1.975  0.5359  0.3308 -0.1422
  938SOL    HW1 3750   2.277   1.806   1.882 -1.5154 -0.1409  0.7607
  938SOL    HW2 3751   2.306   1.879   2.005  0.2787  3.4336 -1.4297
  938SOL     MW 3752   2.294   1.801   1.967  0.2313  0.6779 -0.1929
  939SOL     OW 3753   2.741   1.989   2.314  0.7558  0.2383 -0.2963
  939SOL    HW1 3754   2.778   1.917   2.261 -1.2324 -0.3989  2.8468
  939SOL    HW2 3755   2.644   1.965   2.287 -2.2148 -0.7137 -2.5951
  939SOL     MW 3756   2.733   1.976   2.303  0.1016  0.0286 -0.1849
  940SOL     OW 3757   2.279   0.172   2.699 -0.0996 -0.0194  0.3034
  940SOL    HW1 3758   2.288   0.084   2.664  0.6847  1.6125 -2.1837
  940SOL    HW2 3759   2.330   0.156   2.788  0.4081 -0.9379  1.6134
  940SOL     MW 3760   2.287   0.158   2.706  0.0709  0.0747  0.1481
  941SOL     OW 3761   0.128   2.449   2.068  0.1365  0.5983 -0.0189
  941SOL    HW1 3762   0.216   2.438   2.079 -2.5047 -2.4484 -2.0527
  941SOL    HW2 3763   0.127   2.463   1.971  1.5202  0.9909 -2.2004
  941SOL     MW 3764   0.139   2.449   2.056 -0.0294  0.2481 -0.5751
  942SOL     OW 3765   2.859   2.206   2.180 -0.2897  0.3618 -0.1440
  942SOL    HW1 3766   2.796   2.239   2.118  1.2024  2.0574  0.0151
  942SOL    HW2 3767   2.822   2.132   2.220 -0.0381  1.4163 -0.9473
  942SOL     MW 3768   2.845   2.201   2.177 -0.0596  0.7246 -0.2290
  943SOL     OW 3769   0.286   2.109   2.277 -0.2905 -0.3822  0.3351
  943SOL    HW1 3770   0.259   2.170   2.343 -4.0478 -2.4262  0.4589
  943SOL    HW2 3771   0.356   2.058   2.320  0.7402  0.2244 -0.8184
  943SOL     MW 3772   0.292   2.111   2.292 -0.6503 -0.5719  0.1992
  944SOL     OW 3773   2.085   2.655   2.032 -0.1522 -0.3673 -0.3645
  944SOL    HW1 3774   2.154   2.605   2.072 -0.2708 -0.6022 -0.9420
  944SOL    HW2 3775   2.031   2.704   2.098 -0.2854  1.6661  1.3909
  944SOL     MW 3776   2.087   2.655   2.046 -0.1854 -0.1300 -0.2091
  945SOL     OW 3777   2.670   2.689   2.901  0.0216  0.2219 -0.1928
  945SOL    HW1 3778   2.661   2.597   2.882 -3.0800  0.5068 -1.1666
  945SOL    HW2 3779   2.679   2.722   2.811  0.3836 -0.5114  0.5718
  945SOL     MW 3780   2.670   2.681   2.886 -0.3399  0.1627 -0.2204
  946SOL     OW 3781   2.476   2.687   2.263  0.3973 -0.3016 -0.4700
  946SOL    HW1 3782   2.497   2.734   2.173 -0.2551 -2.8499  0.5183
  946SOL    HW2 3783   2.400   2.626   2.251 -1.8670 -1.0017 -0.1361
  946SOL     MW 3784   2.469   2.685   2.249  0.0125 -0.7302 -0.2955
  947SOL     OW 3785   1.910   0.075   0.308  0.1475 -0.0498  0.0003
  947SOL    HW1 3786   1.883  -0.012   0.311 -1.1918 -1.8603 -3.3218
  947SOL    HW2 3787   1.996   0.084   0.359  0.8271 -0.3005  1.9901
  947SOL     MW 3788   1.918   0.065   0.315  0.0604 -0.3217 -0.1754
  948SOL     OW 3789   1.790   3.030   2.706  0.2610 -0.2196  0.3878
  948SOL    HW1 3790   1.851   2.956   2.692  0.2941 -1.0680 -0.9872
  948SOL    HW2 3791   1.759   3.061   2.613 -0.1069  0.4253 -0.2286
  948SOL     MW 3792   1.794   3.024   2.692  0.2168 -0.2465  0.1250
  949SOL     OW 3793   2.473   1.921   2.266 -0.2589  0.0061 -0.1508
  949SOL    HW1 3794   2.452   1.846   2.319  2.6522 -1.9042  1.2563
  949SOL    HW2 3795   2.432   1.998   2.310  2.8480  0.1224  1.2797
  949SOL     MW 3796   2.465   1.922   2.279  0.5351 -0.2306  0.2236
  950SOL     OW 3797   2.311   2.491   2.917  0.6730  0.8782 -0.2565
  950SOL    HW1 3798   2.354   2.422   2.865 -1.3251 -0.3889  0.1545
  950SOL    HW2 3799   2.234   2.522   2.859 -1.2957  1.4505 -0.4420
  950SOL     MW 3800   2.307   2.486   2.902  0.1496  0.7865 -0.2267
  951SOL     OW 3801   3.007   2.070   2.825  0.0490  0.0799  0.2495
  951SOL    HW1 3802   3.035   2.107   2.913  0.3137  1.5075 -0.0575
  951SOL    HW2 3803   3.062   1.993   2.806 -1.5494 -0.0123  0.5083
  951SOL     MW 3804   3.018   2.065   2.834 -0.1270  0.2561  0.2432
  952SOL     OW 3805   3.027   1.685   2.173 -0.2820  0.5479  0.2200
  952SOL    HW1 3806   2.953   1.740   2.160  0.3406 -0.6599  0.5513
  952SOL    HW2 3807   3.099   1.742   2.205 -0.8226  0.3703  3.1235
  952SOL     MW 3808   3.026   1.700   2.175 -0.2712  0.3651  0.6468
  953SOL     OW 3809   1.895   1.774   2.905  0.1232  0.0256  0.4762
  953SOL    HW1 3810   1.817   1.734   2.954 -0.7131 -2.4023 -1.2466
  953SOL    HW2 3811   1.922   1.705   2.838 -1.0832 -3.6148 -2.2018
  953SOL     MW 3812   1.888   1.759   2.903 -0.1463 -0.7750 -0.1044
  954SOL     OW 3813   2.377   2.079   2.885 -0.3782  0.2720 -0.1078
  954SOL    HW1 3814   2.298   2.088   2.840  3.1371 -0.8928 -0.8656
  954SOL    HW2 3815   2.445   2.049   2.815  1.0220 -1.0225 -1.0059
  954SOL     MW 3816   2.375   2.076   2.870  0.2704 -0.0525 -0.3263
  955SOL     OW 3817   1.560   1.580   2.563  0.2917  0.0488 -0.2201
  955SOL    HW1 3818   1.520   1.595   2.475  1.8733 -2.4478  0.4271
  955SOL    HW2 3819   1.652   1.611   2.551 -1.0772  1.7266  0.9129
  955SOL     MW 3820   1.567   1.586   2.550  0.3198 -0.0593  0.0148
  956SOL     OW 3821   2.686   2.420   2.825  0.1974 -0.0093  0.3962
  956SOL    HW1 3822   2.701   2.384   2.915 -5.2320 -0.2469 -0.9243
  956SOL    HW2 3823   2.759   2.387   2.776  0.8174 -0.7230 -2.4925
  956SOL     MW 3824   2.698   2.411   2.830 -0.4372 -0.1348 -0.1592
  957SOL     OW 3825   2.311   2.830   0.380 -0.4822  0.0964  0.4502
  957SOL    HW1 3826   2.225   2.820   0.337 -1.0543  0.9688 -1.8443
  957SOL    HW2 3827   2.293   2.797   0.475  1.0884  0.3747  2.8985
  957SOL     MW 3828   2.297   2.825   0.387 -0.3505  0.2482  0.4705
  958SOL     OW 3829   2.095   2.616   2.801 -0.0150 -0.5783 -0.4950
  958SOL    HW1 3830   2.063   2.548   2.741 -1.4962 -0.7157 -1.1186
  958SOL    HW2 3831   2.033   2.597   2.880 -0.4995 -3.6393 -3.5802
  958SOL     MW 3832   2.083   2.604   2.804 -0.2744 -1.0003 -0.9844
  959SOL     OW 3833   2.519   2.641   0.352  0.0381 -0.0286  0.7499
  959SOL    HW1 3834   2.574   2.649   0.279  0.5335 -1.3691  0.2514
  959SOL    HW2 3835   2.464   2.720   0.358  0.4745  0.1635 -0.5326
  959SOL     MW 3836   2.519   2.652   0.343  0.1611 -0.1801  0.5149
  960SOL     OW 3837   1.925   2.299   2.287 -0.2880 -0.0050  0.4374
  960SOL    HW1 3838   1.933   2.209   2.270  0.9348  0.9594  2.0278
  960SOL    HW2 3839   1.854   2.316   2.347  2.0511 -1.8507  1.8713
  960SOL     MW 3840   1.916   2.289   2.293  0.1819 -0.1213  0.8365
  961SOL     OW 3841   2.202   2.327   2.304 -0.4886 -0.1135 -0.1725
  961SOL    HW1 3842   2.111   2.309   2.287  1.0030 -0.2833 -1.4126
  961SOL    HW2 3843   2.201   2.381   2.385  0.4607  3.2670  0.7506
  961SOL     MW 3844   2.190   2.331   2.312 -0.1666  0.3101 -0.2143
  962SOL     OW 3845   2.137   1.996   2.759  0.2505 -0.5839  0.0835
  962SOL    HW1 3846   2.095   1.986   2.842 -0.9670 -1.4044 -0.8938
  962SOL    HW2 3847   2.162   1.905   2.728 -0.6818  0.3948  1.4691
  962SOL     MW 3848   2.135   1.983   2.766 -0.0331 -0.5630  0.1374
  963SOL     OW 3849   1.829   2.535   2.072  0.3526 -0.5474 -0.0855
  963SOL    HW1 3850   1.858   2.459   2.124 -0.7339  1.0786 -0.6871
  963SOL    HW2 3851   1.810   2.498   1.986 -0.2304 -1.0749 -1.2048
  963SOL     MW 3852   1.830   2.520   2.068  0.1323 -0.4025 -0.3126
  964SOL     OW 3853   1.751   1.997   2.723  0.0566  0.7386 -0.2161
  964SOL    HW1 3854   1.815   2.055   2.681  0.7956 -0.7191  1.7315
  964SOL    HW2 3855   1.807   1.963   2.798  0.1606  2.0360  0.1698
  964SOL     MW 3856   1.767   2.000   2.728  0.1678  0.7174  0.0918
  965SOL     OW 3857   2.237   2.719   0.612  0.0935 -0.6460  0.1985
  965SOL    HW1 3858   2.238   2.627   0.578 -1.3717  0.0686 -1.8689
  965SOL    HW2 3859   2.310   2.733   0.676  1.2233 -0.6626  0.3211
  965SOL     MW 3860   2.246   2.709   0.616  0.0493 -0.5539 -0.0581
  966SOL     OW 3861   2.644   2.628   2.460 -0.0291  0.0434 -0.0405
  966SOL    HW1 3862   2.597   2.638   2.373  0.1623 -0.2280  1.9384
  966SOL    HW2 3863   2.702   2.555   2.438 -3.9778  0.7320 -0.0370
  966SOL     MW 3864   2.645   2.619   2.446 -0.5248  0.0984  0.2211
  967SOL     OW 3865   2.775   3.078   2.931  0.4255  0.5594  1.1175
  967SOL    HW1 3866   2.745   3.013   2.994  0.3007 -0.9588 -0.2862
  967SOL    HW2 3867   2.698   3.076   2.871  1.9089  0.9845  2.0864
  967SOL     MW 3868   2.761   3.069   2.931  0.6048  0.4152  1.0602
  968SOL     OW 3869   2.957   2.619   2.910  0.8160 -0.1233  0.4479
  968SOL    HW1 3870   2.873   2.648   2.877 -3.7073 -1.4758  1.5046
  968SOL    HW2 3871   2.995   2.563   2.841 -0.9326  1.1125 -0.8034
  968SOL     MW 3872   2.951   2.615   2.896 -0.0115 -0.1387  0.4222
  969SOL     OW 3873   1.618   2.160   1.657 -0.4841 -0.3448  0.4493
  969SOL    HW1 3874   1.678   2.082   1.673  1.0482 -0.5862  0.1135
  969SOL    HW2 3875   1.578   2.177   1.743  0.8987  1.1785 -0.9289
  969SOL     MW 3876   1.620   2.152   1.670 -0.0995 -0.1757  0.2231
  970SOL     OW 3877   1.697   1.786   1.962 -0.3789 -0.2917 -0.1458
  970SOL    HW1 3878   1.731   1.706   2.011  1.1215  0.1624 -0.1734
  970SOL    HW2 3879   1.611   1.751   1.940  2.2181  0.4858  0.3773
  970SOL     MW 3880   1.690   1.771   1.966  0.1617 -0.1292 -0.0804
  971SOL     OW 3881   1.741   0.030   2.438  0.1294  1.0197 -0.2432
  971SOL    HW1 3882   1.784  -0.016   2.367 -0.1504  2.1538  0.6752
  971SOL    HW2 3883   1.797   0.103   2.454 -0.3764 -0.8670  0.3183
  971SOL     MW 3884   1.754   0.033   2.431  0.0257  0.9204 -0.0479
  972SOL     OW 3885   0.268   2.877   2.474 -0.1586 -0.3196  0.0280
  972SOL    HW1 3886   0.341   2.816   2.470  1.0593  0.8554  0.4628
  972SOL    HW2 3887   0.305   2.963   2.481  0.0486 -1.3594 -0.8537
  972SOL     MW 3888   0.283   2.880   2.474  0.0294 -0.3018 -0.0310
  973SOL     OW 3889   2.566   0.009   2.093  0.6994 -0.3176  0.7981
  973SOL    HW1 3890   2.539  -0.085   2.071  1.9519 -2.0090 -2.5471
  973SOL    HW2 3891   2.566   0.051   2.002  0.9364  1.2944  0.6871
  973SOL     MW 3892   2.562   0.003   2.078  0.8960 -0.3281  0.3421
  974SOL     OW 3893   2.030   0.260   2.690  0.1717  0.6016  0.2591
  974SOL    HW1 3894   2.123   0.241   2.691  0.3253 -1.4208  0.8512
  974SOL    HW2 3895   2.001   0.206   2.767 -1.2817  0.4595 -1.5396
  974SOL     MW 3896   2.039   0.250   2.701  0.0002  0.3160  0.0999
  975SOL     OW 3897   2.195   2.502   2.498 -0.6007  0.4432  0.5092
  975SOL    HW1 3898   2.276   2.540   2.527 -2.1417  2.6559 -0.1987
  975SOL    HW2 3899   2.130   2.575   2.506 -3.4157  0.4711 -1.4564
  975SOL     MW 3900   2.197   2.517   2.503 -1.1754  0.7388  0.1564
  976SOL     OW 3901   0.238   0.360   1.780  0.7140  0.2933  0.4014
  976SOL    HW1 3902   0.283   0.285   1.814 -0.2482  0.3551 -3.3366
  976SOL    HW2 3903   0.157   0.324   1.733  0.3001 -0.6459 -1.2039
  976SOL     MW 3904   0.234   0.345   1.778  0.5324  0.1775 -0.3036
  977SOL     OW 3905   1.760   2.681   2.555 -0.1061 -0.0468 -0.3061
  977SOL    HW1 3906   1.763   2.590   2.529  1.0344  2.6409  0.8483
  977SOL    HW2 3907   1.850   2.714   2.549  1.7890 -0.3251 -0.5405
  977SOL     MW 3908   1.772   2.674   2.551  0.2944  0.2711 -0.1847
   3.10000   3.10000   3.10000
