977 TIP4P/2005f water molecules t=   0.54000 step= 540
 3908
    1SOL     OW    1   0.225   0.822   0.022 -0.7551  0.6120 -0.1564
    1SOL    HW1    2   0.202   0.849  -0.065  0.6366 -1.0120 -0.5782
    1SOL    HW2    3   0.215   0.726   0.023 -1.5751  2.7618  1.6925
    1SOL     MW    4   0.221   0.813   0.011 -0.6796  0.6813  0.0319
    2SOL     OW    5   0.267   3.025   1.154 -0.2090 -0.8090  0.4016
    2SOL    HW1    6   0.329   3.081   1.106 -0.8473  1.1761 -3.1307
    2SOL    HW2    7   0.184   3.073   1.166 -0.7228  1.7163 -1.1187
    2SOL     MW    8   0.264   3.039   1.149 -0.3610 -0.2139 -0.2651
    3SOL     OW    9   2.699   0.383   0.926 -0.1853  0.1232 -0.1760
    3SOL    HW1   10   2.720   0.460   0.878  1.0884 -0.1042 -2.7090
    3SOL    HW2   11   2.659   0.427   1.009 -1.5368 -2.5013  1.1595
    3SOL     MW   12   2.696   0.399   0.931 -0.1956 -0.2531 -0.3340
    4SOL     OW   13   3.055   1.757   0.587 -0.0775 -0.0877 -0.2261
    4SOL    HW1   14   2.983   1.780   0.530  0.5051 -0.8255 -0.1404
    4SOL    HW2   15   3.101   1.703   0.521 -0.1070  2.7742  0.1065
    4SOL     MW   16   3.052   1.753   0.571 -0.0045  0.1926 -0.1709
    5SOL     OW   17   1.726   1.496   0.581 -0.2524  0.0814 -0.8164
    5SOL    HW1   18   1.784   1.432   0.631 -1.7912 -0.2089 -2.0375
    5SOL    HW2   19   1.630   1.480   0.600  0.3256  1.9921 -0.1302
    5SOL     MW   20   1.721   1.486   0.590 -0.3791  0.2952 -0.8870
    6SOL     OW   21   0.865   1.389   0.680 -0.2588  0.1547  0.1550
    6SOL    HW1   22   0.780   1.415   0.705  0.0174 -1.2178 -0.5763
    6SOL    HW2   23   0.868   1.296   0.706 -0.3304 -2.1576 -2.6888
    6SOL     MW   24   0.854   1.380   0.687 -0.2318 -0.3315 -0.3167
    7SOL     OW   25   2.004   1.115   0.040  0.1487  1.1005 -0.5075
    7SOL    HW1   26   2.038   1.188  -0.012  1.2086  3.4968  0.7408
    7SOL    HW2   27   2.058   1.109   0.117  0.9832 -0.8328 -0.9657
    7SOL     MW   28   2.016   1.124   0.043  0.3986  1.1616 -0.4032
    8SOL     OW   29   0.947   1.369   1.017 -0.4285  0.2101  0.0636
    8SOL    HW1   30   0.943   1.361   0.921 -1.1069 -1.0392  2.3420
    8SOL    HW2   31   0.947   1.283   1.052  1.7365  2.2140 -1.4101
    8SOL     MW   32   0.946   1.357   1.009 -0.2323  0.3097  0.1698
    9SOL     OW   33   1.070   0.472   1.373 -0.0729 -0.6281  0.5319
    9SOL    HW1   34   1.010   0.418   1.318 -1.2117  1.4010 -1.5991
    9SOL    HW2   35   1.104   0.417   1.441 -1.1363  1.0563 -0.0931
    9SOL     MW   36   1.067   0.458   1.374 -0.3634 -0.1382  0.1682
   10SOL     OW   37   0.256   0.785   0.435 -0.5581  0.0642 -0.5001
   10SOL    HW1   38   0.349   0.802   0.418  2.7900  0.7326 -1.2201
   10SOL    HW2   39   0.228   0.849   0.503  1.9828  2.4952  0.8429
   10SOL     MW   40   0.264   0.796   0.442  0.2189  0.4731 -0.4179
   11SOL     OW   41   0.783   1.120   1.656 -0.3857  0.6746  0.4222
   11SOL    HW1   42   0.834   1.084   1.731 -0.0719  1.3306  1.1672
   11SOL    HW2   43   0.744   1.047   1.605  0.6044  3.6338  2.6351
   11SOL     MW   44   0.784   1.105   1.659 -0.2137  1.1516  0.8124
   12SOL     OW   45   0.032   1.060   0.855 -0.4364 -0.3729 -0.0783
   12SOL    HW1   46   0.060   1.147   0.890 -3.1811 -3.4632  0.6858
   12SOL    HW2   47  -0.053   1.092   0.828  2.6038  3.9229  3.1402
   12SOL     MW   48   0.025   1.075   0.856 -0.3974 -0.2138  0.4471
   13SOL     OW   49   1.857   1.423   1.320 -0.3803 -0.1418 -0.1647
   13SOL    HW1   50   1.870   1.389   1.236  0.1773 -1.3257  1.9706
   13SOL    HW2   51   1.870   1.524   1.310 -0.8993  1.2655 -0.8687
   13SOL     MW   52   1.860   1.432   1.308 -0.3752 -0.1124  0.0241
   14SOL     OW   53   0.582   0.324   1.812 -0.0991  0.2509  0.2905
   14SOL    HW1   54   0.573   0.239   1.762  0.2033  0.5915 -0.2914
   14SOL    HW2   55   0.649   0.308   1.874  0.3414  2.3744  0.8429
   14SOL     MW   56   0.590   0.310   1.813 -0.0011  0.5760  0.2866
   15SOL     OW   57   1.952   0.520   0.966 -0.7298  0.0726  0.2209
   15SOL    HW1   58   1.944   0.538   1.065 -2.7139 -0.6995  0.6025
   15SOL    HW2   59   2.041   0.493   0.940 -0.3878  0.9316  1.0945
   15SOL     MW   60   1.962   0.519   0.976 -0.9465  0.0840  0.3865
   16SOL     OW   61   0.238   1.779   0.327  0.5357  0.2341 -0.0107
   16SOL    HW1   62   0.324   1.736   0.341  0.2793  1.4438  0.0528
   16SOL    HW2   63   0.244   1.850   0.391  1.5202 -1.8315 -1.0619
   16SOL     MW   64   0.250   1.782   0.337  0.6318  0.1211 -0.1410
   17SOL     OW   65   1.002   0.842   1.492 -0.2031  0.2281  0.0026
   17SOL    HW1   66   1.024   0.845   1.583  1.4147  1.4834 -0.0053
   17SOL    HW2   67   0.907   0.836   1.495  0.7689  1.3664 -0.1049
   17SOL     MW   68   0.992   0.841   1.504  0.1386  0.5439 -0.0126
   18SOL     OW   69   0.086   1.583   0.440  0.2010  0.1282 -0.4814
   18SOL    HW1   70   0.139   1.638   0.379  1.3217 -1.0974 -0.7730
   18SOL    HW2   71   0.031   1.530   0.381 -1.5614 -1.0226 -0.6976
   18SOL     MW   72   0.086   1.583   0.424  0.1164 -0.1853 -0.5484
   19SOL     OW   73   0.082   1.299   0.998 -0.1008 -0.1496  0.2818
   19SOL    HW1   74   0.145   1.329   0.929  1.1202 -0.2731  0.4352
   19SOL    HW2   75   0.013   1.362   0.995 -0.9475  0.1018  2.1044
   19SOL     MW   76   0.081   1.311   0.989 -0.0514 -0.1327  0.5425
   20SOL     OW   77   0.425   2.128   1.298 -0.5428 -0.4913 -0.2857
   20SOL    HW1   78   0.367   2.060   1.259  0.9509  0.1349  1.2687
   20SOL    HW2   79   0.384   2.182   1.370  2.2398  1.5165 -1.9147
   20SOL     MW   80   0.412   2.126   1.303  0.0214 -0.1437 -0.2955
   21SOL     OW   81   0.521   0.830   0.374 -0.0017 -0.5245  0.3831
   21SOL    HW1   82   0.593   0.816   0.432  1.2689  1.8971  1.6257
   21SOL    HW2   83   0.541   0.790   0.289 -0.8830  1.7221 -0.4969
   21SOL     MW   84   0.533   0.823   0.370  0.0496  0.0914  0.4310
   22SOL     OW   85   1.535   0.570   1.111 -0.8541 -0.3925 -0.0787
   22SOL    HW1   86   1.568   0.505   1.041 -0.1793  0.0098  3.1720
   22SOL    HW2   87   1.458   0.611   1.074 -2.8278 -2.4219  0.5880
   22SOL     MW   88   1.529   0.567   1.097 -1.0255 -0.6072  0.4381
   23SOL     OW   89   3.084   0.762   0.685  0.1100  0.3499 -0.8370
   23SOL    HW1   90   3.127   0.688   0.728  0.0778  1.7830  0.3101
   23SOL    HW2   91   3.162   0.824   0.676  1.0036 -0.0986  0.2512
   23SOL     MW   92   3.100   0.760   0.689  0.2237  0.4798 -0.5421
   24SOL     OW   93   1.991   2.200   0.078 -0.2697  0.5251  0.4284
   24SOL    HW1   94   2.002   2.178   0.172  0.6178  1.6008 -0.5971
   24SOL    HW2   95   2.043   2.137   0.034 -0.1159  1.1614 -0.4165
   24SOL     MW   96   1.999   2.189   0.085 -0.1323  0.7510  0.1816
   25SOL     OW   97   0.284   1.413   0.532 -1.0028 -0.6035  0.1458
   25SOL    HW1   98   0.217   1.487   0.507  0.7031  3.3003 -0.7844
   25SOL    HW2   99   0.328   1.390   0.458 -2.2118 -1.8335  4.1656
   25SOL     MW  100   0.281   1.420   0.519 -0.9372 -0.2507  0.5535
   26SOL     OW  101   2.028   0.909   0.456 -0.5791  0.3213 -0.4548
   26SOL    HW1  102   1.950   0.953   0.477  1.3722 -3.0078  3.0939
   26SOL    HW2  103   2.048   0.935   0.367 -0.7174  2.3070  1.8201
   26SOL     MW  104   2.021   0.918   0.447 -0.3399  0.1441  0.3135
   27SOL     OW  105   2.045   1.387   0.269  0.5922  0.1958 -0.4637
   27SOL    HW1  106   1.952   1.373   0.290  0.3762 -0.7966  0.2840
   27SOL    HW2  107   2.073   1.463   0.322  2.1068 -0.7829 -1.1029
   27SOL     MW  108   2.037   1.395   0.279  0.7636 -0.0643 -0.4494
   28SOL     OW  109   0.372   1.080   1.963  0.8707  0.8016 -0.2585
   28SOL    HW1  110   0.461   1.110   1.956  1.6472 -2.9124 -1.9144
   28SOL    HW2  111   0.392   1.011   2.026  3.2265  2.2152  1.8643
   28SOL     MW  112   0.387   1.075   1.970  1.2840  0.4981 -0.1969
   29SOL     OW  113   0.268   1.430   0.810  0.1583  0.2166  0.1095
   29SOL    HW1  114   0.259   1.526   0.814  0.5511 -0.8328 -1.9087
   29SOL    HW2  115   0.269   1.416   0.717  1.1075  0.2571  1.0792
   29SOL     MW  116   0.267   1.441   0.798  0.3354  0.0835 -0.0288
   30SOL     OW  117   0.868   1.123   1.236 -0.4522  0.7383  0.0394
   30SOL    HW1  118   0.777   1.142   1.268 -1.0444  0.2222  2.4958
   30SOL    HW2  119   0.934   1.129   1.310  2.4289  0.8265 -0.0808
   30SOL     MW  120   0.864   1.126   1.250 -0.1502  0.6819  0.3477
   31SOL     OW  121   0.386   0.245   0.179 -0.3010 -0.4146 -0.5968
   31SOL    HW1  122   0.387   0.176   0.250  1.3526 -1.5053  1.0084
   31SOL    HW2  123   0.388   0.195   0.103  1.3078  0.7068 -1.3263
   31SOL     MW  124   0.386   0.229   0.179  0.1295 -0.4105 -0.4813
   32SOL     OW  125   2.763   1.028   1.127 -0.0488 -0.4876  0.6052
   32SOL    HW1  126   2.713   0.955   1.093  2.8880 -0.1198  1.0587
   32SOL    HW2  127   2.856   0.996   1.126  0.7210  1.1352 -2.1685
   32SOL     MW  128   2.769   1.014   1.123  0.4402 -0.2250  0.2990
   33SOL     OW  129   1.793   1.356   0.346 -0.2360 -0.3512  0.2811
   33SOL    HW1  130   1.793   1.268   0.385 -0.1320 -1.1462 -1.1869
   33SOL    HW2  131   1.790   1.417   0.420  2.4307 -0.2027  0.7331
   33SOL     MW  132   1.793   1.353   0.361  0.1295 -0.4365  0.1470
   34SOL     OW  133   1.220   1.890   1.102 -0.1767 -0.2237  0.0845
   34SOL    HW1  134   1.125   1.906   1.136  0.4102 -0.8550  1.5809
   34SOL    HW2  135   1.281   1.928   1.171 -0.0576 -1.1749 -2.7692
   34SOL     MW  136   1.216   1.897   1.116 -0.0835 -0.4325 -0.0946
   35SOL     OW  137   0.341   0.128   1.814  0.5964 -0.1573  0.2662
   35SOL    HW1  138   0.332   0.088   1.904  0.2042 -1.2623  0.9069
   35SOL    HW2  139   0.361   0.047   1.761  1.0006  1.1640  0.6572
   35SOL     MW  140   0.342   0.112   1.819  0.5979 -0.1288  0.4023
   36SOL     OW  141   1.847   1.922   0.475 -0.3026 -0.3231 -0.7103
   36SOL    HW1  142   1.866   1.900   0.385  2.1396  2.2065  2.1011
   36SOL    HW2  143   1.860   1.850   0.532  0.8430 -1.7870  0.5905
   36SOL     MW  144   1.852   1.910   0.471  0.1707 -0.1825 -0.1677
   37SOL     OW  145   1.764   2.046   1.042  0.6933 -0.4421  0.4919
   37SOL    HW1  146   1.731   1.984   0.977  1.1574 -2.4623 -1.0479
   37SOL    HW2  147   1.685   2.091   1.090 -1.6144 -3.4312  2.1978
   37SOL     MW  148   1.749   2.044   1.039  0.4500 -1.1030  0.5138
   38SOL     OW  149   2.820   0.928   0.171 -0.4696 -0.0506 -0.1604
   38SOL    HW1  150   2.879   0.923   0.246  2.5639  0.2956 -1.4104
   38SOL    HW2  151   2.873   0.884   0.111 -0.5893 -0.0696  2.0876
   38SOL     MW  152   2.834   0.922   0.173 -0.0852 -0.0074 -0.0287
   39SOL     OW  153   1.414   0.616   0.801 -0.6203  0.0879  0.1921
   39SOL    HW1  154   1.405   0.523   0.821  0.9600 -0.4856 -2.2607
   39SOL    HW2  155   1.327   0.653   0.823 -1.9054 -1.7757 -0.3821
   39SOL     MW  156   1.401   0.609   0.807 -0.5813 -0.2336 -0.2073
   40SOL     OW  157   1.211   1.877   0.247 -0.3792  0.2145  0.0438
   40SOL    HW1  158   1.249   1.828   0.320 -3.0567  1.3353  0.0778
   40SOL    HW2  159   1.172   1.957   0.281 -1.8161 -0.7581 -0.0078
   40SOL     MW  160   1.211   1.881   0.261 -0.9221  0.2341  0.0415
   41SOL     OW  161   0.606   0.490   1.568  0.3085 -0.0394 -0.2779
   41SOL    HW1  162   0.693   0.525   1.575 -0.2371 -0.2978 -0.2610
   41SOL    HW2  163   0.596   0.431   1.643 -0.3117 -0.0642  1.8202
   41SOL     MW  164   0.616   0.487   1.579  0.1547 -0.0767  0.0012
   42SOL     OW  165   1.268   2.985   1.987 -0.7875 -0.1588  0.0738
   42SOL    HW1  166   1.182   2.997   2.021  1.8709  0.5651  2.0842
   42SOL    HW2  167   1.315   2.911   2.028  1.4438  1.7492  0.4639
   42SOL     MW  168   1.263   2.977   1.997 -0.1423  0.1885  0.3905
   43SOL     OW  169   1.515   0.158   1.727  0.2662 -0.2551  0.3609
   43SOL    HW1  170   1.576   0.120   1.664 -0.6000  2.2648 -0.6262
   43SOL    HW2  171   1.438   0.105   1.753 -2.0504 -1.0624  1.0129
   43SOL     MW  172   1.513   0.146   1.722 -0.1537 -0.0291  0.3167
   44SOL     OW  173   1.255   0.741   1.087 -0.1076  0.2632 -0.0335
   44SOL    HW1  174   1.240   0.839   1.064 -2.7041  1.2614  2.0748
   44SOL    HW2  175   1.251   0.745   1.184 -0.9076 -0.3059  0.2154
   44SOL     MW  176   1.252   0.755   1.097 -0.5557  0.3198  0.2775
   45SOL     OW  177   1.146   0.728   0.794 -0.5231 -0.2455 -0.1327
   45SOL    HW1  178   1.073   0.723   0.853  2.0474  1.1786 -2.5932
   45SOL    HW2  179   1.126   0.670   0.724  1.7116  2.4539  1.0882
   45SOL     MW  180   1.134   0.719   0.793  0.1109  0.2985 -0.2962
   46SOL     OW  181   0.540   1.172   0.542 -0.0515  0.5921 -0.1463
   46SOL    HW1  182   0.516   1.174   0.444 -1.9870  2.2737  1.1242
   46SOL    HW2  183   0.634   1.161   0.544 -1.6379 -0.7869 -1.6430
   46SOL     MW  184   0.549   1.171   0.529 -0.5162  0.6321 -0.1761
   47SOL     OW  185   0.204   1.924   1.791 -0.3891  0.4733 -0.5098
   47SOL    HW1  186   0.257   1.862   1.731  1.8790  2.2431  1.3015
   47SOL    HW2  187   0.224   1.899   1.886 -0.7185  4.0174 -0.6337
   47SOL     MW  188   0.213   1.913   1.796 -0.1333  1.1744 -0.2872
   48SOL     OW  189   1.034   0.599   1.018 -0.0779 -0.3004  0.0709
   48SOL    HW1  190   0.966   0.641   1.064  1.7408 -0.7624  0.8407
   48SOL    HW2  191   1.113   0.649   1.044  1.1978 -3.2055 -3.7502
   48SOL     MW  192   1.035   0.611   1.027  0.3304 -0.7447 -0.3317
   49SOL     OW  193   1.804   0.746   1.543 -0.6388  0.2623 -0.8946
   49SOL    HW1  194   1.766   0.725   1.629 -1.3265  0.3399  2.2912
   49SOL    HW2  195   1.864   0.667   1.548  0.3685 -1.4686  1.9741
   49SOL     MW  196   1.807   0.733   1.555 -0.5966  0.0442 -0.0958
   50SOL     OW  197   1.167   1.057   0.503  0.1353  0.1711 -0.3212
   50SOL    HW1  198   1.170   1.070   0.596 -1.4935  1.1796  0.6761
   50SOL    HW2  199   1.235   0.988   0.502 -0.7269  0.7222  0.3065
   50SOL     MW  200   1.177   1.050   0.515 -0.1933  0.3769 -0.1068
   51SOL     OW  201   0.358   2.873   0.962  0.5896 -0.1434 -0.0567
   51SOL    HW1  202   0.445   2.852   0.999  0.5769  1.6840 -0.4534
   51SOL    HW2  203   0.304   2.909   1.033 -0.8852 -0.6083 -1.5600
   51SOL     MW  204   0.363   2.875   0.976  0.3933  0.0363 -0.3074
   52SOL     OW  205   0.810   1.794   0.390  0.7186  0.1618  0.4326
   52SOL    HW1  206   0.778   1.878   0.421 -0.5138 -1.2795 -3.3458
   52SOL    HW2  207   0.829   1.809   0.298 -1.4166  0.6967  1.8522
   52SOL     MW  208   0.808   1.807   0.382  0.2743  0.0422  0.1214
   53SOL     OW  209   0.504   2.146   0.597 -0.0543  0.3287  0.2865
   53SOL    HW1  210   0.427   2.109   0.554  1.5356  1.3167  0.0565
   53SOL    HW2  211   0.546   2.228   0.565  1.5835  1.4919 -1.5914
   53SOL     MW  212   0.500   2.152   0.587  0.3715  0.6126  0.0084
   54SOL     OW  213   2.188   0.821   0.861  0.2910  0.4984  0.0842
   54SOL    HW1  214   2.209   0.869   0.784 -1.3626  1.7541 -0.0469
   54SOL    HW2  215   2.098   0.783   0.845 -1.4736 -2.6387  2.7227
   54SOL     MW  216   2.179   0.822   0.849 -0.1600  0.2501  0.4150
   55SOL     OW  217   0.572   1.488   1.579  0.3221 -0.0682  0.5271
   55SOL    HW1  218   0.512   1.518   1.511  0.7222 -1.4188 -1.3763
   55SOL    HW2  219   0.647   1.447   1.533  1.2990 -2.8151 -1.5649
   55SOL     MW  220   0.574   1.486   1.564  0.5038 -0.6088 -0.0001
   56SOL     OW  221   0.557   0.756   0.089 -0.2394 -0.1081  0.1204
   56SOL    HW1  222   0.565   0.842   0.054  1.1158 -3.3873 -1.4328
   56SOL    HW2  223   0.470   0.735   0.058 -1.0415 -1.6775 -2.1331
   56SOL     MW  224   0.547   0.765   0.080 -0.1665 -0.7479 -0.3819
   57SOL     OW  225   1.256   1.224   1.202  0.1376  0.0161 -0.3234
   57SOL    HW1  226   1.329   1.254   1.143  0.1551 -0.7427  1.6993
   57SOL    HW2  227   1.296   1.196   1.283  0.7708 -3.0837 -2.0606
   57SOL     MW  228   1.271   1.225   1.205  0.2235 -0.4930 -0.2858
   58SOL     OW  229   0.573   1.148   1.281 -0.3199  0.5335 -0.0425
   58SOL    HW1  230   0.543   1.239   1.264 -2.0624 -0.3322  0.3880
   58SOL    HW2  231   0.567   1.146   1.375  0.0571  1.1324  1.3976
   58SOL     MW  232   0.568   1.159   1.291 -0.5001  0.4983  0.2043
   59SOL     OW  233   1.581   1.636   0.375 -0.2597  0.4806 -0.0342
   59SOL    HW1  234   1.608   1.681   0.453 -0.7830 -1.2820 -2.7562
   59SOL    HW2  235   1.487   1.630   0.379  0.4985  0.8306  1.2835
   59SOL     MW  236   1.572   1.641   0.386 -0.2287  0.2942 -0.2195
   60SOL     OW  237   0.063   0.213   1.703  0.6171  0.0296  0.2242
   60SOL    HW1  238  -0.029   0.213   1.683 -0.5993 -2.1029 -2.1565
   60SOL    HW2  239   0.084   0.155   1.778  2.1367  0.4266  0.6152
   60SOL     MW  240   0.054   0.205   1.710  0.6571 -0.1994 -0.0383
   61SOL     OW  241   2.039   1.453   3.093  0.0889  0.5845 -0.3985
   61SOL    HW1  242   2.052   1.434   3.190 -1.2880  1.1824  0.7704
   61SOL    HW2  243   2.112   1.402   3.053  0.8821 -2.8231 -0.3653
   61SOL     MW  244   2.051   1.443   3.101  0.0119  0.2138 -0.2399
   62SOL     OW  245   0.650   1.685   0.623 -0.5167  0.6150 -0.3151
   62SOL    HW1  246   0.703   1.682   0.551 -1.4915 -0.8895  4.3192
   62SOL    HW2  247   0.628   1.590   0.650 -1.0217  1.0042  0.9874
   62SOL     MW  248   0.654   1.672   0.617 -0.7120  0.4678  0.4682
   63SOL     OW  249   1.656   0.744   0.712 -0.2919 -0.1680 -0.3023
   63SOL    HW1  250   1.635   0.788   0.632  0.9951 -0.0326  0.9669
   63SOL    HW2  251   1.577   0.709   0.753 -0.7411  1.0498  1.0377
   63SOL     MW  252   1.643   0.745   0.707 -0.1814  0.0105  0.0420
   64SOL     OW  253   0.264   1.698   0.734 -0.2217 -0.0113 -0.3250
   64SOL    HW1  254   0.332   1.765   0.723  1.0321  1.0988  0.5497
   64SOL    HW2  255   0.185   1.738   0.749  2.7400  0.6589 -3.9160
   64SOL     MW  256   0.262   1.712   0.734  0.3345  0.2236 -0.6834
   65SOL     OW  257   1.535   2.331   0.371 -0.0733  0.5035 -0.0308
   65SOL    HW1  258   1.618   2.282   0.380  0.9722 -0.3220 -1.4073
   65SOL    HW2  259   1.527   2.378   0.462 -0.7895  0.1445 -1.6908
   65SOL     MW  260   1.545   2.331   0.384 -0.0299  0.3472 -0.4315
   66SOL     OW  261   0.299   0.511   0.522 -0.1757  0.1443 -0.3766
   66SOL    HW1  262   0.366   0.467   0.473 -1.1205  0.2273  1.0083
   66SOL    HW2  263   0.286   0.594   0.471 -1.3048  3.5300  1.0589
   66SOL     MW  264   0.306   0.516   0.509 -0.4494  0.6020 -0.0045
   67SOL     OW  265   1.464   0.107   2.046 -0.1712 -0.2220 -0.0909
   67SOL    HW1  266   1.513   0.102   1.966 -0.1713 -2.6376  0.9586
   67SOL    HW2  267   1.408   0.031   2.052  1.3409  2.2462  1.3864
   67SOL     MW  268   1.463   0.096   2.036  0.0283 -0.2150  0.2425
   68SOL     OW  269   0.617   0.087   2.991 -0.3119 -0.0966  0.3785
   68SOL    HW1  270   0.599   0.130   2.904  0.5530  0.8621 -0.2381
   68SOL    HW2  271   0.668   0.150   3.043 -1.5703  0.2218  0.0137
   68SOL     MW  272   0.622   0.101   2.986 -0.3638  0.0719  0.2490
   69SOL     OW  273   0.989   0.200   1.963  0.1501 -0.0736  0.1295
   69SOL    HW1  274   1.076   0.229   2.000 -2.0184  1.5224  2.7938
   69SOL    HW2  275   0.976   0.104   1.993  0.2216  0.5488  0.4731
   69SOL     MW  276   0.999   0.191   1.972 -0.1266  0.2191  0.5263
   70SOL     OW  277   0.570   1.768   1.120 -0.2387 -1.0050 -0.1651
   70SOL    HW1  278   0.582   1.682   1.162 -1.5491  0.9183  0.8668
   70SOL    HW2  279   0.653   1.790   1.076  2.8528  1.0869 -0.1644
   70SOL     MW  280   0.583   1.760   1.120 -0.0037 -0.4753 -0.0289
   71SOL     OW  281   1.717   0.604   1.334  0.1177 -0.4779  0.2587
   71SOL    HW1  282   1.732   0.668   1.410  0.5551 -1.2465  2.9942
   71SOL    HW2  283   1.634   0.623   1.290  1.2027  0.4505  1.3491
   71SOL     MW  284   1.708   0.615   1.338  0.3185 -0.4568  0.7635
   72SOL     OW  285   0.792   1.758   0.973 -0.7847 -0.3237  0.0062
   72SOL    HW1  286   0.783   1.807   0.886  0.1066  1.1739 -1.2112
   72SOL    HW2  287   0.774   1.662   0.964 -1.2500  0.2911 -1.6795
   72SOL     MW  288   0.788   1.752   0.961 -0.7285 -0.0450 -0.3769
   73SOL     OW  289   1.213   0.707   1.353 -0.0092 -0.0378  0.3184
   73SOL    HW1  290   1.185   0.615   1.352  1.1900 -0.1087 -0.9955
   73SOL    HW2  291   1.138   0.747   1.400  0.5561 -0.0236  1.5233
   73SOL     MW  292   1.199   0.700   1.359  0.2236 -0.0452  0.3040
   74SOL     OW  293   2.885   0.199   0.975  0.0378  0.1077 -0.8007
   74SOL    HW1  294   2.886   0.161   0.890 -0.7374 -2.9872  1.5921
   74SOL    HW2  295   2.845   0.284   0.962 -0.4828 -0.4543 -1.1303
   74SOL     MW  296   2.879   0.205   0.962 -0.1332 -0.3748 -0.5285
   75SOL     OW  297   1.614   1.386   0.139  0.3013  0.8538  0.2260
   75SOL    HW1  298   1.671   1.411   0.212 -1.7879 -0.6288  1.0783
   75SOL    HW2  299   1.656   1.300   0.111  3.4100  0.4628 -0.9261
   75SOL     MW  300   1.627   1.378   0.145  0.4358  0.6066  0.1864
   76SOL     OW  301   3.021   0.635   0.436  0.3605 -0.3305 -0.0654
   76SOL    HW1  302   3.045   0.666   0.522 -0.0391  1.0338  0.0634
   76SOL    HW2  303   3.064   0.549   0.427 -0.6190  0.6465 -1.3413
   76SOL     MW  304   3.030   0.628   0.446  0.1785 -0.0216 -0.2167
   77SOL     OW  305   0.826   0.530   0.419 -0.4223  0.3463 -0.9372
   77SOL    HW1  306   0.795   0.548   0.331  0.2857 -0.6247 -0.3679
   77SOL    HW2  307   0.767   0.464   0.453  1.7910  0.0192 -1.6144
   77SOL     MW  308   0.814   0.524   0.412 -0.0369  0.1750 -0.9514
   78SOL     OW  309   0.744   0.813   1.237  0.2378  0.4264  0.2059
   78SOL    HW1  310   0.664   0.789   1.191  3.4735  1.2413  0.8405
   78SOL    HW2  311   0.785   0.883   1.186 -0.4519  1.1289 -0.3376
   78SOL     MW  312   0.739   0.819   1.224  0.5737  0.6266  0.2180
   79SOL     OW  313   1.933   1.705   0.617  0.2306 -0.1594  0.4776
   79SOL    HW1  314   1.865   1.638   0.606 -1.2929 -2.2968 -1.8402
   79SOL    HW2  315   1.924   1.721   0.708 -0.3144  1.2381 -3.1904
   79SOL     MW  316   1.923   1.698   0.628 -0.0423 -0.2570 -0.3121
   80SOL     OW  317   0.136   1.010   0.319 -0.3804 -0.3068  0.0676
   80SOL    HW1  318   0.043   0.976   0.321 -1.5760 -1.4591  1.3787
   80SOL    HW2  319   0.185   0.922   0.315 -0.5530 -2.2211  1.3186
   80SOL     MW  320   0.130   0.994   0.318 -0.5609 -0.7114  0.4056
   81SOL     OW  321   1.920   1.930   0.203  0.0516  0.1763  0.1918
   81SOL    HW1  322   1.879   1.846   0.171 -2.7460 -1.1791  0.0519
   81SOL    HW2  323   1.839   1.985   0.222  0.9247 -0.2811 -1.5995
   81SOL     MW  324   1.904   1.926   0.201 -0.2023 -0.0629 -0.0630
   82SOL     OW  325   0.819   1.052   0.532  0.1183  0.0370 -0.1208
   82SOL    HW1  326   0.828   1.095   0.451  0.6039  2.9388 -1.3275
   82SOL    HW2  327   0.809   0.964   0.509  1.5067  0.5624 -0.7008
   82SOL     MW  328   0.819   1.046   0.518  0.3655  0.4892 -0.3566
   83SOL     OW  329   0.208   0.599   1.300 -0.2291  0.0814 -0.4546
   83SOL    HW1  330   0.173   0.680   1.340  0.9101  3.7550  1.9712
   83SOL    HW2  331   0.277   0.566   1.359  1.6412  0.4584 -1.0835
   83SOL     MW  332   0.213   0.605   1.313  0.1679  0.6158 -0.2175
   84SOL     OW  333   0.068   0.204   0.897 -0.0469 -0.1423  0.0857
   84SOL    HW1  334  -0.022   0.221   0.863  0.5132 -0.8641  1.4319
   84SOL    HW2  335   0.059   0.153   0.981 -1.7948 -0.5492  0.7613
   84SOL     MW  336   0.055   0.199   0.904 -0.2036 -0.2912  0.3525
   85SOL     OW  337   0.471   0.457   0.760  0.5716  0.2199  0.1129
   85SOL    HW1  338   0.437   0.496   0.682 -0.6876 -2.4971  2.5961
   85SOL    HW2  339   0.417   0.378   0.787  1.8242 -2.8343  2.2160
   85SOL     MW  340   0.459   0.452   0.753  0.5707 -0.5415  0.7180
   86SOL     OW  341   1.236   0.386   1.056 -0.0382  0.0971  0.1729
   86SOL    HW1  342   1.165   0.453   1.052 -1.0041 -1.5710  0.5735
   86SOL    HW2  343   1.297   0.406   1.129 -1.9789  0.3266  1.2925
   86SOL     MW  344   1.234   0.398   1.065 -0.4217 -0.0927  0.3735
   87SOL     OW  345   1.172   1.479   1.244 -0.8455 -0.2112  0.7368
   87SOL    HW1  346   1.168   1.516   1.156  0.9712 -0.0097 -0.7964
   87SOL    HW2  347   1.181   1.380   1.229  0.9239  1.0464  0.2581
   87SOL     MW  348   1.173   1.471   1.231 -0.3723 -0.0187  0.4714
   88SOL     OW  349   1.227   1.011   1.038 -0.1325 -0.0813 -0.7050
   88SOL    HW1  350   1.324   1.016   1.025  0.0430  0.9677 -0.4263
   88SOL    HW2  351   1.221   1.074   1.116 -1.1554 -0.8050  0.2278
   88SOL     MW  352   1.239   1.020   1.046 -0.2443 -0.0384 -0.5452
   89SOL     OW  353   1.770   0.667   0.307 -0.5379  0.1791 -0.5346
   89SOL    HW1  354   1.835   0.593   0.309  1.4594 -1.4358 -0.6575
   89SOL    HW2  355   1.830   0.740   0.285  1.6246 -1.8541 -2.3532
   89SOL     MW  356   1.787   0.667   0.304  0.0110 -0.3022 -0.7908
   90SOL     OW  357   0.676   1.175   2.826  0.0907 -0.3104  0.4980
   90SOL    HW1  358   0.718   1.121   2.887 -0.4757  2.3899 -1.8127
   90SOL    HW2  359   0.653   1.246   2.881  0.9261  1.4462  3.2560
   90SOL     MW  360   0.678   1.177   2.841  0.1262  0.2776  0.5570
   91SOL     OW  361   2.223   0.688   0.553  0.5144 -0.7999 -0.2173
   91SOL    HW1  362   2.176   0.756   0.511  1.1093  0.5913 -0.0013
   91SOL    HW2  363   2.222   0.622   0.481  0.0923  1.1104 -1.6654
   91SOL     MW  364   2.217   0.688   0.538  0.5372 -0.3643 -0.3799
   92SOL     OW  365   1.631   0.884   0.449 -0.5383  0.7027  0.4263
   92SOL    HW1  366   1.537   0.869   0.476  1.0106  1.0030 -0.9668
   92SOL    HW2  367   1.661   0.800   0.407 -0.8645  0.6960 -0.6373
   92SOL     MW  368   1.622   0.871   0.447 -0.3770  0.7414  0.1022
   93SOL     OW  369   1.038   0.307   0.358 -0.2554 -0.1531  0.5262
   93SOL    HW1  370   0.963   0.367   0.362  0.7068  0.7572 -0.8149
   93SOL    HW2  371   1.074   0.304   0.267  1.0684 -2.2448 -0.8799
   93SOL     MW  372   1.033   0.315   0.346  0.0462 -0.3090  0.1638
   94SOL     OW  373   1.917   1.346   1.582 -0.3001 -0.0077  0.1127
   94SOL    HW1  374   1.907   1.352   1.484  1.3812  2.7507 -0.3868
   94SOL    HW2  375   1.881   1.258   1.608 -0.9096  3.1504  0.3744
   94SOL     MW  376   1.911   1.335   1.572 -0.1587  0.7730  0.0813
   95SOL     OW  377   0.720   1.505   0.962 -0.1573 -0.4354  0.5598
   95SOL    HW1  378   0.773   1.467   1.035  0.9503  0.8486 -0.3520
   95SOL    HW2  379   0.640   1.450   0.950  1.5859  0.5085  0.3056
   95SOL     MW  380   0.716   1.493   0.970  0.2189 -0.1415  0.4059
   96SOL     OW  381   1.218   1.818   1.568  0.3300 -0.3040 -0.4611
   96SOL    HW1  382   1.133   1.800   1.623 -2.4762  0.7608  1.2642
   96SOL    HW2  383   1.245   1.742   1.523  0.7314 -1.1683 -0.1502
   96SOL     MW  384   1.210   1.806   1.569  0.0128 -0.2775 -0.1925
   97SOL     OW  385   1.213   1.436   0.757  0.2947  0.4115  0.1131
   97SOL    HW1  386   1.219   1.479   0.846  1.5499  0.4364  0.0599
   97SOL    HW2  387   1.168   1.498   0.707  0.4857  0.1052 -1.3254
   97SOL     MW  388   1.208   1.450   0.762  0.4855  0.3744 -0.0837
   98SOL     OW  389   1.491   1.290   1.061 -0.3898 -0.0369 -0.0771
   98SOL    HW1  390   1.496   1.355   1.132 -0.3690 -3.2554 -1.4369
   98SOL    HW2  391   1.533   1.323   0.983  0.4303  1.7885  0.7354
   98SOL     MW  392   1.498   1.303   1.060 -0.2789 -0.2207 -0.1493
   99SOL     OW  393   1.442   0.361   1.296 -0.2593  0.3296 -0.1218
   99SOL    HW1  394   1.460   0.435   1.236 -1.4495 -0.2212 -0.4537
   99SOL    HW2  395   1.463   0.390   1.384 -2.4200  3.1089  1.8808
   99SOL     MW  396   1.447   0.374   1.299 -0.7015  0.6236  0.0987
  100SOL     OW  397   1.032   1.110   1.466  0.6525  0.5893 -0.2627
  100SOL    HW1  398   0.948   1.130   1.505  0.9978 -3.0160 -1.3860
  100SOL    HW2  399   1.044   1.018   1.479  0.4143  1.2241 -0.7288
  100SOL     MW  400   1.022   1.100   1.473  0.6666  0.1974 -0.4724
  101SOL     OW  401   0.560   1.074   0.255 -0.4028 -0.3463  0.3801
  101SOL    HW1  402   0.541   0.987   0.296 -0.1384 -0.0018 -0.9077
  101SOL    HW2  403   0.529   1.071   0.161 -0.2549 -0.4114 -2.0110
  101SOL     MW  404   0.553   1.062   0.248 -0.3484 -0.3095 -0.1053
  102SOL     OW  405   2.988   0.654   0.969 -0.1492 -0.1530 -0.3387
  102SOL    HW1  406   2.985   0.746   1.003 -0.5411  3.8435 -1.4836
  102SOL    HW2  407   3.049   0.603   1.021  1.6341 -2.0698 -2.5026
  102SOL     MW  408   2.995   0.660   0.980  0.0344  0.1214 -0.7753
  103SOL     OW  409   1.690   0.370   1.845  0.8208  0.4054 -0.1942
  103SOL    HW1  410   1.622   0.313   1.807 -1.7035 -2.8162 -1.4233
  103SOL    HW2  411   1.742   0.313   1.899 -0.7584 -2.7235  1.6685
  103SOL     MW  412   1.688   0.355   1.847  0.2794 -0.4325 -0.1106
  104SOL     OW  413   0.171   1.804   1.487  0.2167 -0.5712  0.8633
  104SOL    HW1  414   0.165   1.727   1.544 -1.4351 -4.6031  2.7399
  104SOL    HW2  415   0.219   1.757   1.416  1.6935  2.6771  1.1444
  104SOL     MW  416   0.176   1.787   1.485  0.1936 -0.6746  1.1480
  105SOL     OW  417   0.093   1.235   0.497 -0.3372 -0.2979 -0.0548
  105SOL    HW1  418   0.129   1.147   0.466 -2.1104 -1.8742  0.4867
  105SOL    HW2  419   0.165   1.297   0.513 -2.4644  0.3548 -0.3986
  105SOL     MW  420   0.107   1.231   0.495 -0.8518 -0.4197 -0.0287
  106SOL     OW  421   0.847   0.327   0.989  0.3440  1.2640  0.3041
  106SOL    HW1  422   0.782   0.397   0.969 -2.0580  0.2728 -1.2911
  106SOL    HW2  423   0.923   0.342   0.934  0.2554 -1.3594  0.7596
  106SOL     MW  424   0.848   0.338   0.979  0.0154  0.7871  0.1538
  107SOL     OW  425   0.815   2.169   2.976 -0.3201 -0.2042  0.2345
  107SOL    HW1  426   0.741   2.116   2.952 -0.5812 -0.2075 -1.3647
  107SOL    HW2  427   0.819   2.176   3.070  2.0782 -0.0200  0.1783
  107SOL     MW  428   0.806   2.163   2.985 -0.0381 -0.1804  0.0161
  108SOL     OW  429   1.330   1.590   1.426  0.3821 -0.2098  0.2398
  108SOL    HW1  430   1.264   1.545   1.360 -0.0372 -2.5407  0.9699
  108SOL    HW2  431   1.328   1.535   1.498 -0.9719  1.7313  0.5999
  108SOL     MW  432   1.321   1.577   1.427  0.1481 -0.2613  0.3837
  109SOL     OW  433   1.992   0.772   0.191  0.1475 -0.1913  0.6968
  109SOL    HW1  434   2.043   0.797   0.109  1.7533 -0.8385 -0.3616
  109SOL    HW2  435   2.072   0.763   0.242  0.8366 -3.2297 -0.0151
  109SOL     MW  436   2.009   0.774   0.187  0.4503 -0.6775  0.4633
  110SOL     OW  437   0.480   1.899   0.774  0.4106 -0.2813  0.3398
  110SOL    HW1  438   0.536   1.818   0.751  0.1166  0.0419  0.9777
  110SOL    HW2  439   0.526   1.975   0.742  0.5090  2.4391 -1.9634
  110SOL     MW  440   0.493   1.899   0.767  0.3848  0.1203  0.1201
  111SOL     OW  441   0.715   0.887   1.508  0.1584  0.4947  0.1892
  111SOL    HW1  442   0.724   0.863   1.416 -1.1947 -0.1074 -0.2216
  111SOL    HW2  443   0.630   0.850   1.540  0.3996 -0.2657  3.7621
  111SOL     MW  444   0.705   0.879   1.500  0.0117  0.3149  0.6064
  112SOL     OW  445   1.309   1.068   1.714 -0.1693 -0.6247 -0.0734
  112SOL    HW1  446   1.248   1.140   1.720 -0.0058  1.6323 -2.3888
  112SOL    HW2  447   1.259   0.992   1.676 -1.8806 -0.3335 -1.1585
  112SOL     MW  448   1.294   1.068   1.710 -0.3735 -0.2885 -0.5221
  113SOL     OW  449   1.310   3.086   1.746 -0.1373 -0.1357  0.5778
  113SOL    HW1  450   1.289   3.031   1.822 -1.6671  1.0983  0.3773
  113SOL    HW2  451   1.305   3.032   1.663  0.7259 -2.2589 -0.2281
  113SOL     MW  452   1.306   3.071   1.745 -0.2252 -0.2530  0.4450
  114SOL     OW  453   0.470   2.820   1.933 -0.3379  0.4893  0.1046
  114SOL    HW1  454   0.462   2.874   2.009  0.4061 -0.4227  0.1156
  114SOL    HW2  455   0.467   2.875   1.854  2.1623 -1.2807  2.0193
  114SOL     MW  456   0.469   2.835   1.933  0.0902  0.1354  0.3587
  115SOL     OW  457   0.490   0.812   1.116 -0.1546 -0.3291  0.2170
  115SOL    HW1  458   0.475   0.724   1.152 -0.0155 -2.5579 -1.0953
  115SOL    HW2  459   0.452   0.875   1.174  0.1459 -0.2295 -2.2450
  115SOL     MW  460   0.483   0.808   1.129 -0.0966 -0.6100 -0.2810
  116SOL     OW  461   0.788   1.032   0.967 -0.1835 -0.8083  0.5256
  116SOL    HW1  462   0.868   1.052   0.920  1.0813  1.3705  0.2456
  116SOL    HW2  463   0.816   1.027   1.057 -1.2438 -0.2278  0.5416
  116SOL     MW  464   0.802   1.034   0.973 -0.1566 -0.4442  0.4908
  117SOL     OW  465   1.216   1.149   0.780 -0.3072  0.3667  0.3216
  117SOL    HW1  466   1.228   1.116   0.867 -2.0776  1.1254 -1.3237
  117SOL    HW2  467   1.203   1.242   0.784  2.3610 -0.9791  2.1998
  117SOL     MW  468   1.215   1.157   0.792 -0.1887  0.2892  0.3523
  118SOL     OW  469   3.050   2.918   1.700 -0.4657 -0.6283  0.0714
  118SOL    HW1  470   3.082   2.995   1.746  1.5468 -1.7251 -3.2921
  118SOL    HW2  471   2.955   2.939   1.681 -3.6326 -1.4019 -0.3086
  118SOL     MW  472   3.041   2.931   1.703 -0.6180 -0.8751 -0.4225
  119SOL     OW  473   0.474   1.375   1.202 -0.4285  0.4462  0.3355
  119SOL    HW1  474   0.486   1.346   1.114 -0.8620  0.1423  2.6954
  119SOL    HW2  475   0.385   1.355   1.225  2.0090  1.7510 -0.3475
  119SOL     MW  476   0.464   1.369   1.194 -0.1641  0.5782  0.5568
  120SOL     OW  477   0.174   0.694   0.995  0.7325 -0.4192  0.7221
  120SOL    HW1  478   0.202   0.642   1.066  0.2960 -1.8408  0.1255
  120SOL    HW2  479   0.228   0.771   0.994  0.8478  1.9786  3.3206
  120SOL     MW  480   0.185   0.698   1.004  0.6901 -0.2904  0.9862
  121SOL     OW  481   1.839   1.104   1.705 -0.2636 -0.4651 -0.1427
  121SOL    HW1  482   1.747   1.071   1.706 -1.3047  0.6550  0.9223
  121SOL    HW2  483   1.880   1.035   1.654 -1.9049 -1.8311 -2.3214
  121SOL     MW  484   1.832   1.091   1.698 -0.6175 -0.4976 -0.2897
  122SOL     OW  485   0.151   0.554   0.745 -0.3964  0.2194  0.6081
  122SOL    HW1  486   0.228   0.557   0.690 -0.8932 -1.1111 -0.6514
  122SOL    HW2  487   0.177   0.591   0.830 -1.0835  1.6565 -0.4719
  122SOL     MW  488   0.165   0.560   0.749 -0.5526  0.2335  0.2994
  123SOL     OW  489   1.821   1.094   0.486 -0.0448  0.0777  0.1957
  123SOL    HW1  490   1.742   1.035   0.471  0.8776 -0.2114  0.8942
  123SOL    HW2  491   1.833   1.112   0.583 -0.4418  1.5406 -1.1587
  123SOL     MW  492   1.812   1.088   0.497  0.0245  0.2326  0.1092
  124SOL     OW  493   0.652   0.562   0.924  0.0541 -0.0690  0.4562
  124SOL    HW1  494   0.589   0.519   0.859 -1.8727  1.6421 -0.9591
  124SOL    HW2  495   0.672   0.650   0.885  2.1242  2.0895  0.1030
  124SOL     MW  496   0.647   0.568   0.910  0.0730  0.4415  0.2228
  125SOL     OW  497   0.668   1.743   1.696  0.5356  0.3142  0.1480
  125SOL    HW1  498   0.597   1.683   1.682  1.9456  1.7497 -1.3633
  125SOL    HW2  499   0.640   1.840   1.687  0.2430  0.6359  5.2041
  125SOL     MW  500   0.655   1.748   1.693  0.6830  0.5461  0.6157
  126SOL     OW  501   2.097   1.610   1.960  0.1744  0.3623  0.3644
  126SOL    HW1  502   2.163   1.680   1.972  0.7148  0.7867  0.2436
  126SOL    HW2  503   2.129   1.523   1.981  0.4364 -1.4815 -0.4299
  126SOL     MW  504   2.110   1.608   1.964  0.2803  0.1750  0.2437
  127SOL     OW  505   0.634   0.752   1.881  0.1693  0.4545  0.0100
  127SOL    HW1  506   0.723   0.717   1.905  2.8577 -0.4228 -0.3752
  127SOL    HW2  507   0.626   0.827   1.938  0.7713 -1.1558  0.7124
  127SOL     MW  508   0.645   0.757   1.892  0.6035  0.1263  0.0518
  128SOL     OW  509   1.833   0.794   2.864 -0.1407  0.2790 -0.4636
  128SOL    HW1  510   1.852   0.738   2.789  2.9236 -0.3614  0.3867
  128SOL    HW2  511   1.793   0.876   2.820  0.6036  1.0686 -1.7458
  128SOL     MW  512   1.830   0.798   2.848  0.3618  0.2987 -0.5206
  129SOL     OW  513   1.561   0.980   0.195  0.4900 -0.3865  0.5747
  129SOL    HW1  514   1.508   0.914   0.163 -0.7212  1.1261 -1.5987
  129SOL    HW2  515   1.569   0.957   0.287  0.1638 -0.6832 -1.1708
  129SOL     MW  516   1.555   0.968   0.203  0.2872 -0.2261  0.0577
  130SOL     OW  517   0.767   1.414   0.414  0.6996 -0.2315  0.3525
  130SOL    HW1  518   0.788   1.403   0.512  2.3753  0.6127  3.0833
  130SOL    HW2  519   0.851   1.399   0.366 -0.2705  2.6636 -2.3154
  130SOL     MW  520   0.781   1.411   0.421  0.7927  0.2619  0.3608
  131SOL     OW  521   3.020   0.817   3.092  0.1759 -0.3695 -0.6555
  131SOL    HW1  522   3.023   0.869   3.007 -0.2329 -1.3836 -1.8945
  131SOL    HW2  523   3.104   0.851   3.133  0.9483  5.3598  2.6396
  131SOL     MW  524   3.031   0.829   3.086  0.2239  0.2526 -0.3842
  132SOL     OW  525   2.793   0.134   1.234  0.6198 -0.3745 -0.2074
  132SOL    HW1  526   2.830   0.141   1.147 -1.3846  1.8815 -0.2887
  132SOL    HW2  527   2.700   0.122   1.210  0.9768  1.7667  0.2210
  132SOL     MW  528   2.786   0.133   1.219  0.4025  0.2057 -0.1616
  133SOL     OW  529   1.076   0.137   1.714 -0.9750  0.6046 -0.1082
  133SOL    HW1  530   1.139   0.065   1.724 -0.8273  1.7749 -1.1148
  133SOL    HW2  531   1.055   0.159   1.807  0.5204 -0.8136  0.4761
  133SOL     MW  532   1.082   0.130   1.728 -0.7582  0.5719 -0.1639
  134SOL     OW  533   1.411   2.521   1.432  0.3933 -0.1859  0.2824
  134SOL    HW1  534   1.351   2.595   1.414  0.5546  1.2703 -1.8314
  134SOL    HW2  535   1.459   2.539   1.515 -0.8824  1.1114 -1.8224
  134SOL     MW  536   1.409   2.533   1.440  0.2463  0.1774 -0.2742
  135SOL     OW  537   3.031   1.015   2.886 -0.5871 -0.0481 -0.4207
  135SOL    HW1  538   3.089   1.086   2.920 -3.1212  2.7932 -0.1084
  135SOL    HW2  539   2.945   1.053   2.903  3.2205  2.4419 -0.7327
  135SOL     MW  540   3.027   1.029   2.892 -0.4191  0.6553 -0.4207
  136SOL     OW  541   0.261   2.014   0.847  0.4237  0.1321  0.4273
  136SOL    HW1  542   0.186   1.959   0.825  0.8935  0.9929  3.5788
  136SOL    HW2  543   0.346   1.979   0.823  0.2507  1.7237  2.9864
  136SOL     MW  544   0.262   2.002   0.841  0.4629  0.4557  1.1808
  137SOL     OW  545   0.755   2.037   0.514 -0.6482  0.6076  0.5668
  137SOL    HW1  546   0.774   2.005   0.601 -0.7018  0.7315 -0.6994
  137SOL    HW2  547   0.663   2.066   0.517 -0.1760  0.0532 -2.7014
  137SOL     MW  548   0.746   2.036   0.525 -0.5930  0.5508 -0.0315
  138SOL     OW  549   0.517   0.549   1.174  0.0406 -0.0466 -0.0041
  138SOL    HW1  550   0.436   0.508   1.123 -2.1981  0.5795  0.5911
  138SOL    HW2  551   0.571   0.571   1.102 -1.9959 -0.4014  0.9940
  138SOL     MW  552   0.514   0.546   1.158 -0.5235 -0.0108  0.2062
  139SOL     OW  553   2.669   0.519   1.411 -0.2762  0.0900  0.2906
  139SOL    HW1  554   2.746   0.477   1.372 -0.7927  1.7167  0.7965
  139SOL    HW2  555   2.694   0.611   1.439 -1.7241  2.0464 -2.4571
  139SOL     MW  556   2.683   0.526   1.410 -0.5354  0.5628 -0.0051
  140SOL     OW  557   0.846   0.387   2.087 -0.0505 -0.5365  0.4437
  140SOL    HW1  558   0.896   0.313   2.036 -1.1156 -2.0002  2.3960
  140SOL    HW2  559   0.903   0.414   2.157 -2.2140  0.0756  0.1174
  140SOL     MW  560   0.860   0.381   2.089 -0.4765 -0.6489  0.6583
  141SOL     OW  561   1.082   0.581   1.754  0.4422 -0.2532  0.1544
  141SOL    HW1  562   1.132   0.532   1.697 -1.6789 -1.6363  1.9203
  141SOL    HW2  563   1.117   0.672   1.758  4.2168  0.7394  0.0255
  141SOL     MW  564   1.093   0.587   1.747  0.6603 -0.3048  0.3704
  142SOL     OW  565   0.938   1.098   0.770 -0.2274  0.1933 -0.0825
  142SOL    HW1  566   0.911   1.062   0.682  1.1671 -0.9916 -0.7860
  142SOL    HW2  567   1.035   1.087   0.773  2.6778  1.6081  1.8596
  142SOL     MW  568   0.947   1.092   0.759  0.3399  0.2237  0.0809
  143SOL     OW  569   1.784   0.782   1.107 -0.0541 -0.3798 -0.2263
  143SOL    HW1  570   1.824   0.782   1.021  1.4486  0.1664  0.7180
  143SOL    HW2  571   1.725   0.704   1.110  0.5994  1.4553 -1.4256
  143SOL     MW  572   1.782   0.772   1.096  0.2304 -0.0657 -0.2600
  144SOL     OW  573   0.197   1.230   1.538 -0.7478 -0.1664 -0.0023
  144SOL    HW1  574   0.286   1.194   1.550  0.0326  0.8622  1.7157
  144SOL    HW2  575   0.178   1.261   1.628 -1.0327  1.5914  1.1902
  144SOL     MW  576   0.206   1.229   1.551 -0.6824  0.2012  0.3817
  145SOL     OW  577   0.310   0.435   1.070 -0.0538 -0.4449 -0.1686
  145SOL    HW1  578   0.303   0.380   1.154 -2.3744  3.2871 -0.4024
  145SOL    HW2  579   0.260   0.379   1.001  1.6667  1.0432  0.8860
  145SOL     MW  580   0.303   0.420   1.072 -0.1329  0.2438 -0.0603
  146SOL     OW  581   0.866   1.951   1.385  0.0181 -0.6936 -0.1302
  146SOL    HW1  582   0.909   1.944   1.296  0.0841  1.6969  0.6023
  146SOL    HW2  583   0.777   1.932   1.378  4.3813 -1.5196  1.2012
  146SOL     MW  584   0.860   1.947   1.373  0.6025 -0.4872  0.1421
  147SOL     OW  585   0.372   0.411   2.950 -0.1163 -1.0134 -0.1974
  147SOL    HW1  586   0.300   0.443   3.009 -1.3656 -2.4388  1.2751
  147SOL    HW2  587   0.375   0.480   2.880 -0.4787  1.9429 -0.2321
  147SOL     MW  588   0.363   0.424   2.949 -0.3289 -0.8114 -0.0077
  148SOL     OW  589   0.096   0.871   1.365  0.7299 -0.0254 -0.5807
  148SOL    HW1  590   0.161   0.927   1.317 -1.8469  0.6412  1.9576
  148SOL    HW2  591   0.108   0.880   1.456  0.8820 -0.4768 -1.0466
  148SOL     MW  592   0.106   0.880   1.371  0.4100  0.0030 -0.3073
  149SOL     OW  593   1.392   1.173   1.442  0.1740  0.7071 -0.6521
  149SOL    HW1  594   1.363   1.125   1.518  1.5880 -1.0092 -0.4532
  149SOL    HW2  595   1.465   1.227   1.458 -1.5411  1.9202 -2.1341
  149SOL     MW  596   1.398   1.174   1.454  0.1343  0.6407 -0.8214
  150SOL     OW  597   1.864   1.354   0.753  0.3183  0.2139 -0.4751
  150SOL    HW1  598   1.866   1.259   0.759 -1.1403  0.3483 -0.9141
  150SOL    HW2  599   1.939   1.379   0.803 -0.5023 -0.1203  0.3862
  150SOL     MW  600   1.874   1.345   0.760  0.0176  0.1876 -0.4194
  151SOL     OW  601   1.656   1.870   0.850  0.1172 -0.2554  0.2126
  151SOL    HW1  602   1.617   1.849   0.766 -2.2923 -1.4520  1.8210
  151SOL    HW2  603   1.617   1.816   0.918 -3.1153  2.0454 -4.0617
  151SOL     MW  604   1.646   1.860   0.848 -0.6272 -0.1097 -0.1391
  152SOL     OW  605   0.775   1.346   1.471 -0.2242 -0.0505 -0.0194
  152SOL    HW1  606   0.773   1.279   1.531  0.4282 -0.0606  0.8600
  152SOL    HW2  607   0.864   1.388   1.471 -1.6207  3.1280  0.5227
  152SOL     MW  608   0.786   1.343   1.479 -0.3224  0.3675  0.1681
  153SOL     OW  609   2.623   1.274   0.756  0.3920  0.3529  0.3117
  153SOL    HW1  610   2.685   1.276   0.686 -1.8935 -0.9754  1.1098
  153SOL    HW2  611   2.556   1.201   0.740  3.3140 -0.0668  0.0237
  153SOL     MW  612   2.622   1.265   0.745  0.4760  0.1223  0.3790
  154SOL     OW  613   0.370   1.725   1.697 -0.3910 -0.2749  0.0403
  154SOL    HW1  614   0.386   1.710   1.601 -1.0382  1.2164 -0.0670
  154SOL    HW2  615   0.332   1.648   1.734  1.9860  2.3949 -2.8751
  154SOL     MW  616   0.367   1.713   1.689 -0.1628  0.2741 -0.3585
  155SOL     OW  617   1.096   0.648   0.292  0.3095  0.5706 -0.1146
  155SOL    HW1  618   1.079   0.602   0.376 -0.8198 -1.2203 -0.0497
  155SOL    HW2  619   1.052   0.736   0.308 -0.4196  0.7231  0.2752
  155SOL     MW  620   1.088   0.654   0.305  0.0643  0.3545 -0.0546
  156SOL     OW  621   1.549   3.020   1.068  0.9289 -0.0824  0.4689
  156SOL    HW1  622   1.581   3.105   1.107  0.3602  1.4669  1.0444
  156SOL    HW2  623   1.567   2.950   1.137  1.8822 -0.8497 -0.7848
  156SOL     MW  624   1.556   3.022   1.082  0.9796  0.0208  0.3794
  157SOL     OW  625   1.395   1.174   0.132  0.5862 -1.2712  0.0698
  157SOL    HW1  626   1.446   1.095   0.155 -1.6719  0.3921  2.1387
  157SOL    HW2  627   1.459   1.245   0.134  0.9892 -2.0835 -3.0849
  157SOL     MW  628   1.410   1.173   0.135  0.3415 -1.1589 -0.0734
  158SOL     OW  629   0.463   1.641   2.232 -0.2647  0.8869  0.0090
  158SOL    HW1  630   0.469   1.699   2.157  0.4164  1.9990 -0.5947
  158SOL    HW2  631   0.373   1.655   2.257 -0.3825  0.9327  0.8800
  158SOL     MW  632   0.452   1.650   2.226 -0.1904  1.0397  0.0443
  159SOL     OW  633   1.307   1.706   0.462 -0.9932  0.3823 -0.4035
  159SOL    HW1  634   1.261   1.630   0.432  1.1154 -0.3890  2.6404
  159SOL    HW2  635   1.230   1.756   0.500  1.8483 -1.5580 -0.7228
  159SOL     MW  636   1.291   1.703   0.463 -0.3401  0.0245 -0.0440
  160SOL     OW  637   0.474   1.118   1.569 -0.0187 -0.4591  0.0735
  160SOL    HW1  638   0.484   1.035   1.617 -0.5561  2.9969  1.0627
  160SOL    HW2  639   0.513   1.183   1.635  0.7306 -0.1550 -1.3363
  160SOL     MW  640   0.481   1.116   1.584  0.0093  0.0370  0.0180
  161SOL     OW  641   0.543   2.158   2.629  0.0420  0.2605 -0.4749
  161SOL    HW1  642   0.451   2.151   2.613  0.6171  0.0078  0.0170
  161SOL    HW2  643   0.576   2.094   2.568 -1.2430 -0.3086 -0.7281
  161SOL     MW  644   0.535   2.149   2.619 -0.0517  0.1521 -0.4434
  162SOL     OW  645   1.000   1.720   1.746  0.5451  0.5338  0.0833
  162SOL    HW1  646   1.026   1.814   1.771  2.7923  1.4988  1.6551
  162SOL    HW2  647   0.927   1.717   1.813 -2.9771  1.1901  0.7273
  162SOL     MW  648   0.994   1.732   1.758  0.3769  0.7477  0.3756
  163SOL     OW  649   2.107   0.101   0.984 -0.3916 -0.7089  0.2403
  163SOL    HW1  650   2.061   0.121   0.908  1.0703 -3.6253  1.3739
  163SOL    HW2  651   2.073   0.012   1.008 -1.1272 -0.0866  0.2433
  163SOL     MW  652   2.097   0.092   0.977 -0.2958 -1.0116  0.3903
  164SOL     OW  653   0.308   0.203   0.756  0.8441 -0.4008  0.7055
  164SOL    HW1  654   0.219   0.199   0.794 -0.5163 -1.1636  2.2681
  164SOL    HW2  655   0.315   0.119   0.714 -0.7266  1.7222 -1.0447
  164SOL     MW  656   0.297   0.192   0.755  0.4573 -0.2214  0.6807
  165SOL     OW  657   1.348   1.256   0.409 -0.5846 -0.3471 -0.2606
  165SOL    HW1  658   1.278   1.188   0.435  0.5425 -1.2021 -2.2465
  165SOL    HW2  659   1.392   1.232   0.331  0.1696 -0.7348  3.3741
  165SOL     MW  660   1.345   1.244   0.402 -0.3364 -0.5111 -0.0431
  166SOL     OW  661   0.511   1.046   0.936 -0.2189  0.8368  0.2461
  166SOL    HW1  662   0.488   0.969   0.995 -0.4441  1.2528  0.0742
  166SOL    HW2  663   0.607   1.054   0.952 -0.7716 -2.3599 -0.9081
  166SOL     MW  664   0.521   1.037   0.946 -0.3215  0.4699  0.0711
  167SOL     OW  665   0.840   1.152   0.247 -0.1016 -0.7286  0.1660
  167SOL    HW1  666   0.743   1.146   0.247  2.7046 -0.6575  0.2835
  167SOL    HW2  667   0.874   1.180   0.166  0.3478 -3.1486  2.3122
  167SOL     MW  668   0.831   1.155   0.236  0.3279 -1.0385  0.4647
  168SOL     OW  669   1.686   1.709   2.921  0.0667 -0.2863  0.0704
  168SOL    HW1  670   1.596   1.720   2.895  0.0663 -1.2358  0.0241
  168SOL    HW2  671   1.699   1.619   2.945  0.3230  4.0926  0.2228
  168SOL     MW  672   1.676   1.698   2.921  0.1004  0.1662  0.0844
  169SOL     OW  673   0.352   0.974   1.301 -0.0585 -0.0697 -0.4133
  169SOL    HW1  674   0.374   0.939   1.389  0.2494  0.3868  0.9068
  169SOL    HW2  675   0.432   1.028   1.285  0.3844 -1.7761  1.4529
  169SOL     MW  676   0.365   0.976   1.310  0.0406 -0.2346  0.0071
  170SOL     OW  677   1.022   1.459   1.481 -0.5123 -0.3384 -0.8641
  170SOL    HW1  678   0.980   1.546   1.502  0.8198 -1.4724 -0.1171
  170SOL    HW2  679   1.082   1.467   1.402 -3.3515  1.6696  2.8287
  170SOL     MW  680   1.025   1.472   1.473 -0.7111 -0.2231 -0.2783
  171SOL     OW  681   0.574   1.422   0.692  0.1296  0.5933 -0.2124
  171SOL    HW1  682   0.555   1.378   0.774  0.8271 -0.6433  1.5966
  171SOL    HW2  683   0.553   1.357   0.628  0.2001 -0.8771  2.1850
  171SOL     MW  684   0.569   1.408   0.695  0.2309  0.2361  0.3426
  172SOL     OW  685   0.871   0.327   1.269 -0.0581  0.4958  0.4818
  172SOL    HW1  686   0.878   0.317   1.170  1.1823 -1.0151 -0.2860
  172SOL    HW2  687   0.773   0.340   1.287 -1.1587  0.6539  0.1714
  172SOL     MW  688   0.859   0.327   1.259 -0.0397  0.3173  0.3395
  173SOL     OW  689   0.478   1.664   0.396  0.0124 -0.1621  0.3376
  173SOL    HW1  690   0.469   1.571   0.368 -1.2630 -3.7803  1.0919
  173SOL    HW2  691   0.540   1.662   0.472  1.9764  1.6836 -0.1564
  173SOL     MW  692   0.485   1.651   0.403  0.1033 -0.3959  0.3720
  174SOL     OW  693   1.976   0.946   1.453  0.0546  0.8939  0.2319
  174SOL    HW1  694   1.909   0.871   1.470 -1.4727  0.9991  1.9143
  174SOL    HW2  695   1.917   0.996   1.397 -2.3761  0.6036  1.2002
  174SOL     MW  696   1.959   0.943   1.448 -0.4676  0.8694  0.5816
  175SOL     OW  697   0.484   1.407   0.326  0.0116 -0.4452  0.0742
  175SOL    HW1  698   0.462   1.401   0.234 -1.7144  3.1063 -0.2885
  175SOL    HW2  699   0.577   1.425   0.330 -4.1460 -2.4186 -0.6558
  175SOL     MW  700   0.494   1.408   0.314 -0.7647 -0.2370 -0.0700
  176SOL     OW  701   0.236   1.303   1.276 -0.2853  0.9728 -0.4015
  176SOL    HW1  702   0.178   1.281   1.199 -1.5616 -0.0031  1.3783
  176SOL    HW2  703   0.212   1.258   1.363  1.0823 -1.6768 -2.3694
  176SOL     MW  704   0.225   1.294   1.277 -0.2732  0.4944 -0.4263
  177SOL     OW  705   0.581   0.329   1.300 -0.0140 -0.1804  0.0023
  177SOL    HW1  706   0.570   0.422   1.272  1.5324  1.2679  1.8202
  177SOL    HW2  707   0.581   0.322   1.391 -0.8017 -1.3229 -2.8594
  177SOL     MW  708   0.580   0.341   1.308  0.0861 -0.1401 -0.1354
  178SOL     OW  709   3.044   0.401   2.897 -0.6362  0.2627 -0.5223
  178SOL    HW1  710   3.008   0.456   2.972 -0.2988  0.4441 -0.3073
  178SOL    HW2  711   2.980   0.417   2.833 -0.5879 -1.7711  2.3663
  178SOL     MW  712   3.030   0.410   2.898 -0.5853  0.0183 -0.1128
  179SOL     OW  713   1.628   1.323   1.443 -0.7133  0.0860  0.3319
  179SOL    HW1  714   1.635   1.351   1.534 -1.9005 -3.5387 -0.5634
  179SOL    HW2  715   1.721   1.334   1.403  0.9929  3.9920 -0.0651
  179SOL     MW  716   1.641   1.329   1.449 -0.6449  0.1231  0.1614
  180SOL     OW  717   2.984   0.183   0.436 -0.1909  0.0866  0.0832
  180SOL    HW1  718   2.947   0.226   0.359  0.9700  0.8115  1.1289
  180SOL    HW2  719   3.068   0.236   0.444  1.5631  1.8925 -0.0481
  180SOL     MW  720   2.990   0.196   0.426  0.1937  0.4205  0.2039
  181SOL     OW  721   1.148   1.437   3.033 -0.3924 -0.6326  0.0478
  181SOL    HW1  722   1.223   1.464   3.086 -0.6505 -4.3137  0.8102
  181SOL    HW2  723   1.188   1.418   2.947 -0.0324  2.0443  0.9290
  181SOL     MW  724   1.163   1.438   3.028 -0.3790 -0.7651  0.2646
  182SOL     OW  725   0.493   0.858   1.651  0.5059  0.2749 -0.0714
  182SOL    HW1  726   0.415   0.836   1.700 -0.2694  2.0769 -0.3151
  182SOL    HW2  727   0.557   0.844   1.724  0.6377  1.1135 -0.2310
  182SOL     MW  728   0.491   0.854   1.667  0.4210  0.6233 -0.1246
  183SOL     OW  729   1.518   1.491   1.243 -0.9542  0.5930  0.4035
  183SOL    HW1  730   1.467   1.540   1.310  0.3281  0.2310 -0.3684
  183SOL    HW2  731   1.579   1.442   1.296  0.5805 -0.4113  0.2902
  183SOL     MW  732   1.519   1.491   1.259 -0.5825  0.4127  0.2867
  184SOL     OW  733   0.863   0.632   1.957  0.3952 -0.0632  0.2749
  184SOL    HW1  734   0.936   0.612   1.896  2.0137  4.0774  0.7431
  184SOL    HW2  735   0.856   0.559   2.015 -0.3022  3.4291  1.2954
  184SOL     MW  736   0.872   0.620   1.957  0.5168  0.9439  0.4713
  185SOL     OW  737   1.203   0.938   1.966 -0.1881  0.1518 -0.1474
  185SOL    HW1  738   1.207   0.855   2.008  0.0476  0.7301 -1.5324
  185SOL    HW2  739   1.208   1.010   2.034  2.1084  1.8636  2.5315
  185SOL     MW  740   1.204   0.937   1.981  0.1460  0.4540  0.0233
  186SOL     OW  741   0.413   1.659   1.409  0.4238  0.3782  0.3306
  186SOL    HW1  742   0.504   1.685   1.389  1.7872 -3.4385  1.1002
  186SOL    HW2  743   0.375   1.633   1.330 -0.9290 -0.8751  0.4608
  186SOL     MW  744   0.420   1.659   1.396  0.4252 -0.2907  0.4493
  187SOL     OW  745   1.451   0.760   1.454 -0.3669  0.4842 -0.6179
  187SOL    HW1  746   1.445   0.737   1.545 -0.1538  1.1881 -0.8875
  187SOL    HW2  747   1.364   0.738   1.417  0.7685 -2.7776  1.4191
  187SOL     MW  748   1.439   0.754   1.461 -0.1890  0.1467 -0.3847
  188SOL     OW  749   1.896   1.063   0.763  0.2761  0.4123  0.9096
  188SOL    HW1  750   1.837   1.008   0.808 -0.9966  2.0123  3.1767
  188SOL    HW2  751   1.977   1.011   0.766  0.3055 -1.0536 -0.9684
  188SOL     MW  752   1.899   1.049   0.769  0.1121  0.4300  0.9610
  189SOL     OW  753   0.723   0.814   0.777  0.5699 -0.8715 -0.8497
  189SOL    HW1  754   0.634   0.850   0.764  1.0955 -0.8395  0.9806
  189SOL    HW2  755   0.760   0.886   0.837  0.7560  0.8163  1.4358
  189SOL     MW  756   0.716   0.828   0.783  0.6638 -0.6446 -0.3067
  190SOL     OW  757   1.878   0.213   2.028  0.1363 -0.1252  0.3427
  190SOL    HW1  758   1.843   0.123   2.055 -2.8897 -0.8648 -0.3639
  190SOL    HW2  759   1.968   0.187   2.002  0.0968 -4.8416 -1.1383
  190SOL     MW  760   1.885   0.198   2.028 -0.2681 -0.8451  0.0541
  191SOL     OW  761   1.507   0.959   1.273 -0.7899 -0.7489 -0.4486
  191SOL    HW1  762   1.448   1.028   1.304  0.5370  0.8046 -1.5034
  191SOL    HW2  763   1.504   0.900   1.350 -1.2398  0.6287  0.0977
  191SOL     MW  764   1.499   0.960   1.287 -0.6742 -0.3622 -0.5157
  192SOL     OW  765   0.656   2.011   2.827 -0.6923  1.1593 -0.2883
  192SOL    HW1  766   0.614   2.072   2.769 -0.2887 -3.3569  0.7705
  192SOL    HW2  767   0.601   1.929   2.821  2.2098  0.9157  0.2270
  192SOL     MW  768   0.643   2.008   2.819 -0.2562  0.5313 -0.0807
  193SOL     OW  769   0.988   1.627   0.732  0.8386 -0.7409 -0.6896
  193SOL    HW1  770   0.979   1.655   0.828 -0.9518  1.6232  0.8279
  193SOL    HW2  771   0.945   1.542   0.715  1.2709  0.9414 -0.7061
  193SOL     MW  772   0.981   1.619   0.742  0.6594 -0.2070 -0.4916
  194SOL     OW  773   0.516   1.317   0.939  0.1248  0.0710 -0.8106
  194SOL    HW1  774   0.500   1.222   0.946  1.8623  3.8567 -1.2274
  194SOL    HW2  775   0.436   1.355   0.908  2.1153  0.1023  0.4982
  194SOL     MW  776   0.503   1.309   0.936  0.6166  0.5746 -0.6929
  195SOL     OW  777   1.293   1.089   2.960 -0.1795 -0.0726 -0.0223
  195SOL    HW1  778   1.323   1.132   3.045 -0.2461  1.1558 -0.5552
  195SOL    HW2  779   1.207   1.050   2.979 -1.7609 -1.1646  1.7606
  195SOL     MW  780   1.286   1.090   2.974 -0.3969 -0.0546  0.1427
  196SOL     OW  781   2.192   1.069   0.623 -0.3374 -0.7981  0.0767
  196SOL    HW1  782   2.149   1.002   0.570 -0.0885 -0.2648  1.4793
  196SOL    HW2  783   2.193   1.148   0.569  1.9745 -1.2287 -1.5012
  196SOL     MW  784   2.187   1.070   0.609  0.0005 -0.7846  0.0536
  197SOL     OW  785   0.641   1.281   2.017  0.6898  0.1013 -0.6490
  197SOL    HW1  786   0.639   1.185   2.018 -0.3170  3.3062  2.2149
  197SOL    HW2  787   0.597   1.302   1.935  2.6496  1.2450 -2.4866
  197SOL     MW  788   0.635   1.271   2.006  0.8156  0.6750 -0.5136
  198SOL     OW  789   2.943   1.477   1.044  0.1772 -0.3107  0.3388
  198SOL    HW1  790   2.913   1.573   1.035 -0.5707  0.9082  1.8043
  198SOL    HW2  791   2.870   1.428   1.011 -1.6879 -0.2901 -0.6698
  198SOL     MW  792   2.929   1.484   1.039 -0.1676 -0.1472  0.3991
  199SOL     OW  793   0.504   1.308   1.797 -0.1426  0.3522  0.6910
  199SOL    HW1  794   0.410   1.291   1.801 -0.5044 -1.2706 -0.7011
  199SOL    HW2  795   0.520   1.388   1.741 -0.8302 -0.1193  0.8049
  199SOL     MW  796   0.494   1.316   1.790 -0.2811  0.0759  0.5223
  200SOL     OW  797   1.910   3.093   1.359  0.0068 -0.5167  0.1199
  200SOL    HW1  798   1.932   3.080   1.269  0.6494 -1.6667  1.1550
  200SOL    HW2  799   1.816   3.108   1.369  2.3347  1.8960  3.5862
  200SOL     MW  800   1.900   3.093   1.349  0.3987 -0.3501  0.7138
  201SOL     OW  801   1.057   0.264   0.801 -0.6154 -0.3777 -0.0749
  201SOL    HW1  802   1.042   0.177   0.764  0.4444 -3.4896  1.5311
  201SOL    HW2  803   1.121   0.303   0.734 -0.5579 -0.6295  1.1041
  201SOL     MW  804   1.063   0.258   0.787 -0.4680 -0.8215  0.2926
  202SOL     OW  805   1.544   1.672   1.026  0.1336 -0.1034 -0.9684
  202SOL    HW1  806   1.585   1.600   0.971  2.4058  0.7912  0.6872
  202SOL    HW2  807   1.554   1.638   1.115  0.0877 -0.3380 -1.3552
  202SOL     MW  808   1.551   1.658   1.031  0.4273 -0.0163 -0.8010
  203SOL     OW  809   3.092   0.473   1.155  0.1671 -0.2497 -0.1849
  203SOL    HW1  810   3.114   0.377   1.143 -1.2175 -1.6723  1.1108
  203SOL    HW2  811   3.172   0.507   1.200 -0.4118 -0.7276  0.3134
  203SOL     MW  812   3.105   0.465   1.160 -0.0920 -0.5004  0.0518
  204SOL     OW  813   1.047   1.784   0.533 -0.0139 -0.1819  0.0690
  204SOL    HW1  814   1.030   1.716   0.602  0.2111  1.6718  0.1241
  204SOL    HW2  815   0.962   1.779   0.488 -1.5957  2.0522  1.3440
  204SOL     MW  816   1.034   1.775   0.536 -0.1929  0.3575  0.2445
  205SOL     OW  817   1.361   0.097   1.342  0.1006 -0.0045 -0.1578
  205SOL    HW1  818   1.307   0.109   1.266  1.3835  1.5977 -0.7375
  205SOL    HW2  819   1.359   0.183   1.379 -2.8816  0.7583 -1.8949
  205SOL     MW  820   1.354   0.110   1.337 -0.1236  0.3075 -0.4635
  206SOL     OW  821   0.414   3.084   1.429  0.1981 -0.1712  0.1650
  206SOL    HW1  822   0.344   3.044   1.381 -1.5955 -1.0728 -0.2569
  206SOL    HW2  823   0.502   3.049   1.409 -1.4961  1.5267  1.2443
  206SOL     MW  824   0.416   3.074   1.420 -0.2621 -0.0662  0.2517
  207SOL     OW  825   0.968   1.515   0.200  0.3490  0.5015 -0.1683
  207SOL    HW1  826   0.968   1.608   0.191  0.3539 -0.1380  0.1302
  207SOL    HW2  827   1.052   1.490   0.226 -1.0588  2.7680 -0.1360
  207SOL     MW  828   0.979   1.524   0.203  0.1639  0.7162 -0.1246
  208SOL     OW  829   0.696   1.582   1.300 -0.1202 -0.0325  0.2555
  208SOL    HW1  830   0.769   1.615   1.360 -0.0123  1.7890  2.5965
  208SOL    HW2  831   0.675   1.489   1.321 -0.2712 -1.3101 -0.5613
  208SOL     MW  832   0.703   1.574   1.311 -0.1259  0.0393  0.4566
  209SOL     OW  833   1.566   0.546   2.842  0.4663  0.3052  0.2248
  209SOL    HW1  834   1.639   0.594   2.874  0.6489 -1.4335  0.8900
  209SOL    HW2  835   1.608   0.453   2.825 -1.4117  1.8513 -0.2786
  209SOL     MW  836   1.581   0.540   2.844  0.2426  0.2798  0.2462
  210SOL     OW  837   1.624   1.444   0.869 -0.1172  0.0189  0.0522
  210SOL    HW1  838   1.715   1.427   0.851  0.3800 -1.0792 -1.0568
  210SOL    HW2  839   1.573   1.432   0.784  1.5539 -0.8500 -2.1118
  210SOL     MW  840   1.629   1.440   0.855  0.1689 -0.2406 -0.3797
  211SOL     OW  841   1.692   0.377   0.949 -0.7775 -0.6350  0.4499
  211SOL    HW1  842   1.662   0.404   0.866  0.8072 -3.3576  0.8374
  211SOL    HW2  843   1.787   0.406   0.948  1.7482 -0.7062 -1.5663
  211SOL     MW  844   1.701   0.384   0.938 -0.2352 -1.0036  0.2350
  212SOL     OW  845   0.245   1.123   0.083  0.6417 -0.1355 -0.1607
  212SOL    HW1  846   0.209   1.082   0.163 -0.4002 -0.7278 -1.8745
  212SOL    HW2  847   0.315   1.066   0.056 -0.6227 -1.1698  0.7877
  212SOL     MW  848   0.249   1.110   0.090  0.3374 -0.3501 -0.2617
  213SOL     OW  849   0.394   1.768   3.036 -0.4436  0.0884  0.1647
  213SOL    HW1  850   0.441   1.823   3.095 -1.3644  1.3968 -0.8024
  213SOL    HW2  851   0.434   1.780   2.949  0.5308 -0.3229  0.1850
  213SOL     MW  852   0.406   1.777   3.032 -0.4365  0.2067  0.0398
  214SOL     OW  853   0.624   0.289   2.235  0.1611  0.0431 -0.1764
  214SOL    HW1  854   0.557   0.353   2.202 -3.2873  0.3460  1.0646
  214SOL    HW2  855   0.693   0.290   2.165  3.5225  2.2366 -2.0347
  214SOL     MW  856   0.625   0.298   2.222  0.1496  0.3725 -0.2579
  215SOL     OW  857   0.459   0.692   2.631  0.1108 -0.1093  0.5148
  215SOL    HW1  858   0.499   0.671   2.546 -0.3782  0.4695 -1.2029
  215SOL    HW2  859   0.400   0.613   2.643 -1.2268 -1.5470  0.6758
  215SOL     MW  860   0.456   0.678   2.621 -0.1302 -0.2226  0.3094
  216SOL     OW  861   3.038   3.032   2.648  0.1095 -0.3157 -0.4588
  216SOL    HW1  862   3.013   2.998   2.739  0.3284  3.3377 -0.0188
  216SOL    HW2  863   3.026   3.128   2.661 -1.5897 -0.2233  0.1833
  216SOL     MW  864   3.033   3.040   2.661 -0.0858  0.1785 -0.3160
  217SOL     OW  865   0.958   1.259   0.024 -0.0462 -0.6997 -0.4168
  217SOL    HW1  866   1.006   1.174   0.019 -0.6658  1.4398  0.9919
  217SOL    HW2  867   1.019   1.328   0.007 -0.7805  1.5983  1.3937
  217SOL     MW  868   0.973   1.257   0.021 -0.2248 -0.1142  0.0080
  218SOL     OW  869   0.903   1.320   2.523  0.2057 -0.6853 -0.3023
  218SOL    HW1  870   0.912   1.247   2.578 -2.1424  1.4155 -1.0432
  218SOL    HW2  871   0.968   1.378   2.551 -1.8248  0.9808 -2.8528
  218SOL     MW  872   0.913   1.318   2.534 -0.3720 -0.1883 -0.7366
  219SOL     OW  873   1.070   0.456   2.526  0.5255 -0.0883  0.5843
  219SOL    HW1  874   1.146   0.498   2.565  0.7925  0.5787 -4.0928
  219SOL    HW2  875   1.011   0.533   2.516  1.1277 -2.1964 -1.3640
  219SOL     MW  876   1.072   0.472   2.530  0.6402 -0.2785 -0.2898
  220SOL     OW  877   1.779   0.420   2.182 -0.5514 -0.2026 -0.3062
  220SOL    HW1  878   1.717   0.465   2.126  1.6989 -2.1147  0.3994
  220SOL    HW2  879   1.810   0.352   2.124 -0.3661  1.7287 -2.8515
  220SOL     MW  880   1.775   0.417   2.167 -0.2301 -0.2001 -0.5489
  221SOL     OW  881   0.352   1.322   2.877  0.0055 -0.2682 -0.2251
  221SOL    HW1  882   0.387   1.240   2.839 -2.6318  0.4686 -2.5131
  221SOL    HW2  883   0.383   1.380   2.804  1.8019 -0.6707 -2.0058
  221SOL     MW  884   0.361   1.319   2.862 -0.1055 -0.2241 -0.7619
  222SOL     OW  885   0.284   0.893   2.649  0.6903 -0.4916  0.8263
  222SOL    HW1  886   0.265   0.933   2.566 -2.6459  0.8127  0.2420
  222SOL    HW2  887   0.348   0.824   2.635 -2.4298 -1.0769 -2.1071
  222SOL     MW  888   0.290   0.889   2.636 -0.1616 -0.3967  0.3622
  223SOL     OW  889   0.042   2.061   2.610 -0.1296  0.2818 -0.0195
  223SOL    HW1  890   0.115   2.012   2.645  2.7283 -0.8068  3.4612
  223SOL    HW2  891   0.067   2.128   2.543 -0.7175 -2.2164 -1.2539
  223SOL     MW  892   0.055   2.064   2.606  0.1699 -0.1915  0.2769
  224SOL     OW  893   1.488   0.806   2.601  0.3445 -0.0753  0.4099
  224SOL    HW1  894   1.468   0.817   2.690  0.0670  2.3178  0.9895
  224SOL    HW2  895   1.508   0.890   2.562  0.3404  0.6822 -1.4754
  224SOL     MW  896   1.488   0.819   2.608  0.3074  0.3404  0.2376
  225SOL     OW  897   2.970   1.521   2.291  0.2603 -0.0581  0.0447
  225SOL    HW1  898   2.998   1.588   2.227  1.9688 -0.8160 -0.3585
  225SOL    HW2  899   2.910   1.568   2.349  0.2203  2.5436 -1.9226
  225SOL     MW  900   2.966   1.536   2.290  0.4804  0.1852 -0.2681
  226SOL     OW  901   0.408   1.419   2.615 -0.0560 -0.2305  0.2795
  226SOL    HW1  902   0.505   1.414   2.609  1.2036 -0.1581 -1.1097
  226SOL    HW2  903   0.395   1.514   2.597  2.1691 -1.1598 -0.7187
  226SOL     MW  904   0.419   1.431   2.612  0.4038 -0.3436 -0.0355
  227SOL     OW  905   0.440   1.063   2.805 -0.2332  0.1836  0.0373
  227SOL    HW1  906   0.522   1.101   2.777 -2.5164 -0.8787  0.0700
  227SOL    HW2  907   0.414   1.015   2.732 -1.9301 -0.0831  4.4016
  227SOL     MW  908   0.448   1.062   2.791 -0.7583  0.0083  0.6174
  228SOL     OW  909   0.646   0.996   2.003 -0.0083 -0.1519 -0.1371
  228SOL    HW1  910   0.737   1.017   1.965  1.6147  2.2668 -0.2453
  228SOL    HW2  911   0.652   0.944   2.089  2.8505 -1.4999  1.9870
  228SOL     MW  912   0.659   0.992   2.009  0.5830 -0.0107  0.1289
  229SOL     OW  913   0.171   0.556   3.084 -0.7083 -0.1219  0.0493
  229SOL    HW1  914   0.103   0.544   3.016  0.1201 -2.1331  2.0166
  229SOL    HW2  915   0.149   0.488   3.147  0.7175  1.9388 -2.6098
  229SOL     MW  916   0.159   0.545   3.084 -0.4109 -0.1154 -0.0420
  230SOL     OW  917   1.755   1.397   2.032 -0.1699 -0.2313 -0.1372
  230SOL    HW1  918   1.729   1.380   2.125 -1.9982 -0.2443 -0.3617
  230SOL    HW2  919   1.835   1.340   2.029  0.9571  0.8938  3.0621
  230SOL     MW  920   1.762   1.387   2.044 -0.2624 -0.0846  0.2553
  231SOL     OW  921   2.775   1.345   2.237 -0.4121 -0.1099  1.0584
  231SOL    HW1  922   2.848   1.410   2.235 -2.1272  0.7694 -1.5700
  231SOL    HW2  923   2.714   1.367   2.160  0.1416  2.5404 -0.2121
  231SOL     MW  924   2.777   1.356   2.227 -0.5653  0.3558  0.5440
  232SOL     OW  925   2.248   0.875   2.132 -0.7713 -0.0265  0.0315
  232SOL    HW1  926   2.187   0.907   2.059  0.6197 -1.2552 -0.5210
  232SOL    HW2  927   2.197   0.886   2.209 -1.6387  1.7603 -0.8611
  232SOL     MW  928   2.233   0.881   2.132 -0.7023  0.0471 -0.1592
  233SOL     OW  929   2.045   0.528   1.965 -0.0745  0.2961  0.3012
  233SOL    HW1  930   2.004   0.478   1.891 -0.8430 -0.8007 -1.5259
  233SOL    HW2  931   2.126   0.490   2.002  0.9757 -2.2016 -0.3194
  233SOL     MW  932   2.050   0.517   1.960 -0.0373 -0.1782 -0.0218
  234SOL     OW  933   0.292   1.002   2.376 -0.2614 -0.0754 -0.5466
  234SOL    HW1  934   0.210   1.040   2.349  1.2998  0.9948 -0.3529
  234SOL    HW2  935   0.355   1.073   2.398  2.2987 -0.9459  1.3369
  234SOL     MW  936   0.289   1.016   2.375  0.2823 -0.0490 -0.2726
  235SOL     OW  937   1.089   3.081   2.746  0.1578  0.4413 -0.2286
  235SOL    HW1  938   1.116   3.017   2.812 -0.8334  0.7025  0.1506
  235SOL    HW2  939   1.090   3.161   2.793 -2.7772 -0.8129  2.3676
  235SOL     MW  940   1.093   3.083   2.761 -0.3602  0.3103  0.1640
  236SOL     OW  941   2.957   0.541   0.029 -0.2737 -0.1470  0.1983
  236SOL    HW1  942   2.862   0.550   0.016 -0.7844 -1.3772  2.2897
  236SOL    HW2  943   2.983   0.632   0.011 -0.1266 -1.4920 -1.6195
  236SOL     MW  944   2.948   0.555   0.025 -0.3217 -0.4868  0.2344
  237SOL     OW  945   1.826   0.970   2.157  0.3527  0.0045  0.1685
  237SOL    HW1  946   1.880   1.043   2.116  0.4400  1.2993 -3.8395
  237SOL    HW2  947   1.832   0.992   2.254  2.1722 -1.4273  1.0029
  237SOL     MW  948   1.834   0.983   2.164  0.6043 -0.0136 -0.2502
  238SOL     OW  949   1.066   1.763   2.997  0.1048  0.1340  0.8195
  238SOL    HW1  950   0.999   1.689   3.014  1.3819  0.1292 -0.2786
  238SOL    HW2  951   1.158   1.731   3.002 -0.3698 -0.7704 -1.4576
  238SOL     MW  952   1.069   1.749   3.000  0.2107  0.0141  0.3742
  239SOL     OW  953   1.227   1.428   2.350  0.7553 -0.3013 -0.0668
  239SOL    HW1  954   1.194   1.475   2.429  0.6341  2.9769 -0.2261
  239SOL    HW2  955   1.252   1.342   2.382  1.5923 -1.5277 -3.2300
  239SOL     MW  956   1.226   1.423   2.365  0.8497 -0.0306 -0.5051
  240SOL     OW  957   0.691   0.861   2.225 -0.1858 -1.0483 -0.3636
  240SOL    HW1  958   0.700   0.901   2.315 -1.8465  0.1513  1.8648
  240SOL    HW2  959   0.786   0.836   2.210  3.1400 -0.2171  1.8026
  240SOL     MW  960   0.705   0.863   2.235  0.0339 -0.7804  0.2162
  241SOL     OW  961   0.636   0.351   3.071  0.4765  0.4121  0.5563
  241SOL    HW1  962   0.663   0.424   3.132 -0.1144  3.0136  0.4787
  241SOL    HW2  963   0.543   0.373   3.070  1.1878  1.1255 -0.6397
  241SOL     MW  964   0.627   0.364   3.079  0.4924  0.8495  0.3883
  242SOL     OW  965   1.516   1.726   2.259 -0.9777 -0.7512  0.2030
  242SOL    HW1  966   1.473   1.792   2.311  1.0636 -2.7987 -1.1759
  242SOL    HW2  967   1.448   1.679   2.208 -0.0643 -0.3561 -3.3768
  242SOL     MW  968   1.501   1.728   2.259 -0.5879 -0.9692 -0.4513
  243SOL     OW  969   0.992   0.229   2.396  0.7782  0.1795  0.5730
  243SOL    HW1  970   1.084   0.220   2.367 -2.4606 -0.3966  1.3088
  243SOL    HW2  971   0.984   0.313   2.436  2.6159  0.7697 -0.7384
  243SOL     MW  972   1.003   0.239   2.398  0.5933  0.1813  0.4970
  244SOL     OW  973   0.230   0.726   2.373  0.0942  0.3806  0.6011
  244SOL    HW1  974   0.247   0.822   2.351  0.1315  1.6537  2.5524
  244SOL    HW2  975   0.321   0.694   2.368  3.6114  0.3133 -0.9981
  244SOL     MW  976   0.244   0.735   2.369  0.5632  0.5397  0.6476
  245SOL     OW  977   1.260   0.229   2.327 -0.1966  0.1474 -0.1859
  245SOL    HW1  978   1.338   0.170   2.324 -0.2420 -2.7398 -1.1846
  245SOL    HW2  979   1.293   0.293   2.394  2.1468  1.0992 -0.0025
  245SOL     MW  980   1.274   0.230   2.335  0.1066 -0.1080 -0.2935
  246SOL     OW  981   1.227   1.207   2.126 -0.5459  0.4501  0.3561
  246SOL    HW1  982   1.146   1.164   2.163 -0.1304 -1.7820 -1.8476
  246SOL    HW2  983   1.285   1.207   2.197 -3.6476  2.7514 -2.4101
  246SOL     MW  984   1.224   1.201   2.140 -0.9003  0.4593 -0.2996
  247SOL     OW  985   0.736   0.554   0.120  0.6926  0.6498  0.2837
  247SOL    HW1  986   0.694   0.640   0.122  0.3027 -0.8961  2.4877
  247SOL    HW2  987   0.822   0.566   0.082  0.0729 -1.2191 -1.4635
  247SOL     MW  988   0.742   0.567   0.115  0.5594  0.1993  0.3439
  248SOL     OW  989   0.476   1.186   2.467 -0.4929 -0.3970  0.4652
  248SOL    HW1  990   0.508   1.217   2.381  1.5522  0.1899 -1.8105
  248SOL    HW2  991   0.457   1.270   2.515  0.3859  1.6949  1.7220
  248SOL     MW  992   0.478   1.201   2.462 -0.1071 -0.0435  0.3307
  249SOL     OW  993   0.192   1.850   2.685 -0.2830  0.6693  0.1087
  249SOL    HW1  994   0.133   1.780   2.640  0.0504  2.2742  1.3935
  249SOL    HW2  995   0.171   1.835   2.775 -0.7875  1.6780  0.6439
  249SOL     MW  996   0.182   1.839   2.691 -0.3056  1.0141  0.3488
  250SOL     OW  997   2.133   0.842   2.412  0.1138 -0.0753  0.4844
  250SOL    HW1  998   2.150   0.749   2.417 -1.1749  3.0391  0.2914
  250SOL    HW2  999   2.198   0.890   2.463 -1.1422  3.2231 -0.4958
  250SOL     MW 1000   2.144   0.836   2.419 -0.2220  0.7708  0.3296
  251SOL     OW 1001   0.208   0.832   2.074 -0.4433 -0.0422 -0.3094
  251SOL    HW1 1002   0.158   0.775   2.138 -0.4943  0.8315  1.8072
  251SOL    HW2 1003   0.211   0.793   1.987  1.5093  0.5196  2.8059
  251SOL     MW 1004   0.202   0.819   2.071 -0.1924  0.1472  0.3809
  252SOL     OW 1005   1.677   1.019   2.872  0.0491 -0.1601  0.2417
  252SOL    HW1 1006   1.705   1.048   2.958  0.1626 -0.4888  0.7928
  252SOL    HW2 1007   1.752   1.052   2.817 -0.6917 -1.2433 -0.1028
  252SOL     MW 1008   1.691   1.027   2.876 -0.0337 -0.3464  0.2689
  253SOL     OW 1009   1.133   1.738   2.551 -0.0917  0.2957  0.0787
  253SOL    HW1 1010   1.169   1.765   2.465 -0.2842 -1.3142  2.2800
  253SOL    HW2 1011   1.057   1.803   2.575 -1.0630  2.7335  1.0973
  253SOL     MW 1012   1.127   1.751   2.543 -0.2453  0.4049  0.5035
  254SOL     OW 1013   1.017   1.081   2.231 -0.3524  0.2688  0.3519
  254SOL    HW1 1014   1.006   0.990   2.197 -0.8045 -1.1882  2.1441
  254SOL    HW2 1015   0.924   1.115   2.242 -2.0598 -0.5283  0.3950
  254SOL     MW 1016   1.003   1.073   2.228 -0.6373 -0.0286  0.5940
  255SOL     OW 1017   0.836   2.484   2.154 -0.2960  0.5653  0.6639
  255SOL    HW1 1018   0.762   2.436   2.185  2.0169 -1.6780 -1.2512
  255SOL    HW2 1019   0.893   2.501   2.230  2.9111  1.1048 -0.2397
  255SOL     MW 1020   0.834   2.480   2.168  0.4323  0.3405  0.2920
  256SOL     OW 1021   1.179   2.844   2.851  0.5695  0.2310 -0.0050
  256SOL    HW1 1022   1.149   2.775   2.790  0.6919 -0.4375 -3.3148
  256SOL    HW2 1023   1.276   2.845   2.823  1.0708 -2.6946 -0.7057
  256SOL     MW 1024   1.188   2.835   2.840  0.6518 -0.2432 -0.5341
  257SOL     OW 1025   0.157   1.936   0.102 -0.1818  0.3450 -0.5295
  257SOL    HW1 1026   0.205   1.893   0.175  2.3672  3.6787  1.6229
  257SOL    HW2 1027   0.147   1.875   0.029 -2.0872  2.2586  1.1291
  257SOL     MW 1028   0.162   1.922   0.102 -0.0969  1.0373 -0.0267
  258SOL     OW 1029   0.707   1.036   2.497  0.5435 -0.2130  0.4358
  258SOL    HW1 1030   0.738   1.100   2.435  2.7678  0.0938 -1.8511
  258SOL    HW2 1031   0.625   1.070   2.522 -2.0406  0.1824 -0.9718
  258SOL     MW 1032   0.701   1.049   2.492  0.4961 -0.1203 -0.0517
  259SOL     OW 1033   0.756   0.515   2.345 -0.1735 -0.1562 -0.7489
  259SOL    HW1 1034   0.683   0.579   2.334  0.0757  2.7313  1.2180
  259SOL    HW2 1035   0.726   0.434   2.306 -0.2695 -1.4532  2.7425
  259SOL     MW 1036   0.742   0.513   2.338 -0.1533  0.0536 -0.0287
  260SOL     OW 1037   0.591   0.146   1.595  0.0501  0.2132 -0.3102
  260SOL    HW1 1038   0.519   0.105   1.550  0.5135 -1.7009  1.9014
  260SOL    HW2 1039   0.672   0.128   1.547 -1.8680 -3.1048  0.4360
  260SOL     MW 1040   0.592   0.138   1.583 -0.1419 -0.4771  0.0800
  261SOL     OW 1041   1.206   0.667   2.036  0.3278 -0.2245 -0.5582
  261SOL    HW1 1042   1.215   0.685   2.132 -0.4398  0.4543 -0.1235
  261SOL    HW2 1043   1.277   0.609   2.010 -1.2078  0.0622 -3.1497
  261SOL     MW 1044   1.216   0.661   2.045  0.0239 -0.0971 -0.8428
  262SOL     OW 1045   1.170   0.317   0.115 -0.2129  0.2785  0.7494
  262SOL    HW1 1046   1.267   0.320   0.111 -1.5765  1.2005 -2.4214
  262SOL    HW2 1047   1.149   0.243   0.054 -0.4927 -2.5568 -2.3130
  262SOL     MW 1048   1.180   0.308   0.106 -0.4298  0.0261 -0.0730
  263SOL     OW 1049   0.429   3.048   2.515 -0.2974  0.2428  0.4116
  263SOL    HW1 1050   0.362   3.115   2.528 -0.4442  0.1309 -0.9174
  263SOL    HW2 1051   0.488   3.075   2.443 -2.2732 -1.8758 -1.7861
  263SOL     MW 1052   0.428   3.061   2.508 -0.5775 -0.0514 -0.0537
  264SOL     OW 1053   1.523   1.302   1.923  0.0238 -0.2336 -0.1365
  264SOL    HW1 1054   1.493   1.238   1.990 -1.2538 -0.5664 -0.2385
  264SOL    HW2 1055   1.604   1.346   1.956 -1.2851 -1.3689 -1.2190
  264SOL     MW 1056   1.530   1.299   1.936 -0.3174 -0.4273 -0.2928
  265SOL     OW 1057   0.639   2.719   2.252  0.4750  0.2954  0.1952
  265SOL    HW1 1058   0.699   2.681   2.184  1.7242  2.0148 -0.7482
  265SOL    HW2 1059   0.671   2.686   2.333  1.1469  4.2777 -0.1421
  265SOL     MW 1060   0.651   2.709   2.254  0.7285  1.0477  0.0262
  266SOL     OW 1061   0.962   0.810   2.169  0.7339 -0.4203 -0.6833
  266SOL    HW1 1062   0.961   0.757   2.090 -0.4266 -2.1629 -1.6925
  266SOL    HW2 1063   1.028   0.781   2.231  3.8220  0.8756  1.1252
  266SOL     MW 1064   0.970   0.799   2.167  0.9882 -0.4792 -0.5778
  267SOL     OW 1065   1.376   1.670   2.700  0.3327 -0.5500  0.3196
  267SOL    HW1 1066   1.447   1.689   2.641 -2.1689  0.6601 -0.6421
  267SOL    HW2 1067   1.294   1.699   2.668 -0.1363  0.2771 -0.7181
  267SOL     MW 1068   1.374   1.676   2.688 -0.0592 -0.2812  0.0558
  268SOL     OW 1069   0.243   0.770   1.781  0.1556  0.0477  0.1602
  268SOL    HW1 1070   0.199   0.848   1.737 -0.7932  3.2921 -0.2171
  268SOL    HW2 1071   0.247   0.708   1.711 -2.0292 -2.1173  0.5536
  268SOL     MW 1072   0.238   0.772   1.766 -0.2578  0.1902  0.1623
  269SOL     OW 1073   1.385   1.923   2.400  0.4747  0.2705 -0.7034
  269SOL    HW1 1074   1.446   1.996   2.384 -0.7268  0.2553 -0.2830
  269SOL    HW2 1075   1.320   1.966   2.443  0.8061  1.0032 -1.2432
  269SOL     MW 1076   1.385   1.938   2.404  0.3599  0.3652 -0.7191
  270SOL     OW 1077   1.184   0.364   1.609  0.4479  0.4560 -0.1569
  270SOL    HW1 1078   1.152   0.288   1.657  1.7137 -0.3813 -0.4422
  270SOL    HW2 1079   1.284   0.364   1.621  1.6880 -1.4599 -1.9328
  270SOL     MW 1080   1.193   0.354   1.617  0.7785  0.0927 -0.4289
  271SOL     OW 1081   0.869   3.081   2.409  0.3075  0.4336  0.0256
  271SOL    HW1 1082   0.918   3.009   2.440  0.9984 -0.8595 -0.9752
  271SOL    HW2 1083   0.918   3.167   2.399  1.2841  1.3722  1.4773
  271SOL     MW 1084   0.882   3.083   2.412  0.5275  0.3868  0.0851
  272SOL     OW 1085   1.457   2.847   2.784  0.0218 -0.4335 -0.6465
  272SOL    HW1 1086   1.465   2.932   2.727 -1.4360  5.7796  1.1820
  272SOL    HW2 1087   1.499   2.866   2.868  2.6972 -3.8586  0.8488
  272SOL     MW 1088   1.464   2.861   2.787  0.1825 -0.0657 -0.2080
  273SOL     OW 1089   1.428   0.860   2.869 -0.0637 -0.2046  0.1661
  273SOL    HW1 1090   1.522   0.884   2.893  2.6327  1.1027 -0.9860
  273SOL    HW2 1091   1.378   0.941   2.875  0.0066 -0.6520 -1.8744
  273SOL     MW 1092   1.434   0.874   2.872  0.3014 -0.0912 -0.2551
  274SOL     OW 1093   1.392   0.739   0.211  0.2330 -0.2209 -0.4594
  274SOL    HW1 1094   1.443   0.656   0.215  0.4760 -0.4667 -2.2531
  274SOL    HW2 1095   1.302   0.712   0.234 -1.2061 -1.8722  0.6541
  274SOL     MW 1096   1.387   0.725   0.215  0.0752 -0.4712 -0.5492
  275SOL     OW 1097   1.693   0.685   1.789 -0.6516 -0.3049  0.0552
  275SOL    HW1 1098   1.745   0.726   1.862 -2.9791 -0.2140  0.0190
  275SOL    HW2 1099   1.700   0.592   1.804 -0.8295 -0.7566  1.1276
  275SOL     MW 1100   1.701   0.678   1.801 -0.9821 -0.3525  0.1919
  276SOL     OW 1101   0.237   1.258   1.809  0.7215  0.0382  0.4014
  276SOL    HW1 1102   0.247   1.186   1.872  1.8495  0.4956 -1.3744
  276SOL    HW2 1103   0.165   1.315   1.842  2.7284 -1.0361  1.2291
  276SOL     MW 1104   0.229   1.256   1.822  1.1351 -0.0432  0.2763
  277SOL     OW 1105   1.902   1.335   2.564 -0.1285 -0.8331 -0.2022
  277SOL    HW1 1106   1.993   1.375   2.547  0.8813  0.1031  1.1650
  277SOL    HW2 1107   1.917   1.262   2.625 -3.1432 -0.1051 -0.8945
  277SOL     MW 1108   1.916   1.331   2.570 -0.3930 -0.6135 -0.1132
  278SOL     OW 1109   1.430   0.688   1.746  0.1679  0.0241 -0.7288
  278SOL    HW1 1110   1.393   0.613   1.795  1.2538 -1.9422  2.9591
  278SOL    HW2 1111   1.525   0.684   1.770  0.0051 -1.4504  0.7236
  278SOL     MW 1112   1.438   0.678   1.756  0.2897 -0.4299 -0.0506
  279SOL     OW 1113   0.533   0.023   2.238 -0.0546  0.6776  0.2036
  279SOL    HW1 1114   0.620  -0.011   2.219 -0.1284 -0.3412  0.0461
  279SOL    HW2 1115   0.535   0.114   2.210 -1.3205  0.4631 -2.6145
  279SOL     MW 1116   0.545   0.031   2.232 -0.2314  0.5148 -0.1890
  280SOL     OW 1117   1.507   1.121   2.211 -0.0036 -0.3857  0.1760
  280SOL    HW1 1118   1.502   1.048   2.151  1.6452  0.7508 -1.3903
  280SOL    HW2 1119   1.505   1.084   2.298 -1.5966  0.8853 -1.4095
  280SOL     MW 1120   1.506   1.106   2.215  0.0038 -0.0681 -0.2398
  281SOL     OW 1121   1.300   1.289   2.773  0.3757 -0.7350 -0.3557
  281SOL    HW1 1122   1.390   1.325   2.780  0.2639  2.2442 -0.9631
  281SOL    HW2 1123   1.292   1.209   2.827 -1.7437  0.0966  0.9712
  281SOL     MW 1124   1.311   1.283   2.781  0.0813 -0.2322 -0.2608
  282SOL     OW 1125   1.125   1.297   1.705 -0.0052 -0.4579 -0.1418
  282SOL    HW1 1126   1.107   1.349   1.620 -0.1732 -0.7273  2.0697
  282SOL    HW2 1127   1.047   1.291   1.759  0.2977 -0.7946 -1.7315
  282SOL     MW 1128   1.113   1.303   1.701  0.0126 -0.5379 -0.0598
  283SOL     OW 1129   0.683   1.273   3.090 -0.3350  0.3776 -0.3112
  283SOL    HW1 1130   0.779   1.278   3.102 -0.0228 -0.7820 -1.3023
  283SOL    HW2 1131   0.648   1.365   3.088  0.1332  1.4193 -1.5895
  283SOL     MW 1132   0.691   1.286   3.091 -0.2321  0.3620 -0.6106
  284SOL     OW 1133   0.525   0.646   2.345  0.3347  0.0865  0.0290
  284SOL    HW1 1134   0.546   0.723   2.294  0.5979 -0.8145 -2.0762
  284SOL    HW2 1135   0.482   0.591   2.281 -0.6256  0.9139 -2.5571
  284SOL     MW 1136   0.522   0.649   2.330  0.2427  0.0768 -0.5900
  285SOL     OW 1137   0.846   0.958   2.885  0.4135  0.1061  0.2366
  285SOL    HW1 1138   0.888   0.983   2.798 -0.9153  2.2992 -0.3168
  285SOL    HW2 1139   0.804   0.875   2.857 -0.1389 -2.8749 -1.8977
  285SOL     MW 1140   0.846   0.951   2.870  0.1653  0.0021 -0.1180
  286SOL     OW 1141   1.118   1.457   2.603 -0.8049  0.0663 -0.0832
  286SOL    HW1 1142   1.186   1.415   2.661  0.4904 -0.1638 -2.0056
  286SOL    HW2 1143   1.125   1.552   2.599 -0.8861 -0.7396  0.0477
  286SOL     MW 1144   1.128   1.464   2.610 -0.6447 -0.0704 -0.3196
  287SOL     OW 1145   0.992   0.914   0.308  0.1182  0.3801 -0.2354
  287SOL    HW1 1146   1.020   0.970   0.378  0.4210  0.3448  0.7922
  287SOL    HW2 1147   0.916   0.959   0.267 -0.9905  0.6154 -1.1222
  287SOL     MW 1148   0.986   0.927   0.312  0.0119  0.4065 -0.2168
  288SOL     OW 1149   1.587   0.606   2.105  0.2662 -0.5733  0.4263
  288SOL    HW1 1150   1.573   0.614   2.202  0.3608 -2.3173 -0.3195
  288SOL    HW2 1151   1.595   0.697   2.074  2.6860 -1.1676 -2.7702
  288SOL     MW 1152   1.586   0.619   2.114  0.5979 -0.8818 -0.0939
  289SOL     OW 1153   0.939   1.051   2.635  0.2352 -0.1037 -0.0617
  289SOL    HW1 1154   0.999   0.986   2.608 -2.9463  1.2139  2.1446
  289SOL    HW2 1155   0.858   1.037   2.583 -0.0113 -2.2289 -3.1428
  289SOL     MW 1156   0.936   1.041   2.624 -0.2171 -0.2103 -0.1771
  290SOL     OW 1157   0.865   0.534   1.565  0.4808 -0.2349  0.3581
  290SOL    HW1 1158   0.925   0.538   1.490 -1.2714  1.4781 -1.4834
  290SOL    HW2 1159   0.922   0.566   1.633 -0.1694  0.4649 -2.0948
  290SOL     MW 1160   0.880   0.539   1.564  0.1638  0.0834 -0.2085
  291SOL     OW 1161   0.134   0.328   0.168 -0.1743  0.2312 -0.0328
  291SOL    HW1 1162   0.228   0.309   0.185  3.2643 -0.9472  1.4829
  291SOL    HW2 1163   0.100   0.267   0.106  1.4256  0.7938 -1.2360
  291SOL     MW 1164   0.142   0.318   0.162  0.4905  0.1500  0.0085
  292SOL     OW 1165   0.994   0.527   0.069  0.7582  0.1300  0.0414
  292SOL    HW1 1166   1.025   0.597   0.133  1.2179  1.2200  1.5266
  292SOL    HW2 1167   1.038   0.446   0.101 -0.6339 -3.5679 -0.8487
  292SOL     MW 1168   1.004   0.526   0.082  0.6352 -0.2141  0.1199
  293SOL     OW 1169   0.224   0.145   2.464  0.0434  0.4268 -0.1082
  293SOL    HW1 1170   0.175   0.072   2.424  1.2630 -0.4871 -1.3504
  293SOL    HW2 1171   0.160   0.193   2.520 -1.4310  0.1603 -1.7881
  293SOL     MW 1172   0.209   0.141   2.466  0.0098  0.2711 -0.4938
  294SOL     OW 1173   1.518   0.626   2.389  0.1395 -0.1893 -0.0217
  294SOL    HW1 1174   1.520   0.681   2.463  0.8025 -1.7910 -1.6637
  294SOL    HW2 1175   1.481   0.542   2.426  0.8342  2.7557  0.1821
  294SOL     MW 1176   1.513   0.622   2.404  0.3187 -0.0121 -0.2115
  295SOL     OW 1177   0.909   0.679   2.508  0.0782 -0.0008 -0.5208
  295SOL    HW1 1178   0.859   0.627   2.451  5.6401  1.6584  0.6760
  295SOL    HW2 1179   0.845   0.722   2.564 -3.2825 -2.5451 -1.2439
  295SOL     MW 1180   0.894   0.678   2.508  0.3686 -0.1175 -0.4583
  296SOL     OW 1181   1.271   0.310   2.071 -0.7260 -0.0052  0.1059
  296SOL    HW1 1182   1.326   0.225   2.061  0.1863  0.0291 -0.1321
  296SOL    HW2 1183   1.258   0.308   2.171 -0.5921 -0.3712 -0.5040
  296SOL     MW 1184   1.276   0.298   2.083 -0.5879 -0.0489 -0.0060
  297SOL     OW 1185   1.476   0.400   1.607 -0.2649 -0.6852  0.5191
  297SOL    HW1 1186   1.510   0.475   1.652 -1.6069  1.9891 -0.4807
  297SOL    HW2 1187   1.506   0.316   1.641  0.0897 -1.3422  1.6996
  297SOL     MW 1188   1.484   0.399   1.617 -0.3951 -0.4191  0.5429
  298SOL     OW 1189   1.590   0.887   2.042  1.2990  0.1579 -0.0408
  298SOL    HW1 1190   1.586   0.921   1.954  0.3447 -0.3854  0.2426
  298SOL    HW2 1191   1.670   0.926   2.078  2.0577  1.0885 -1.6823
  298SOL     MW 1192   1.600   0.897   2.035  1.2732  0.2090 -0.2200
  299SOL     OW 1193   0.508   1.046   3.070 -0.0626  0.3112 -0.5333
  299SOL    HW1 1194   0.574   1.113   3.061 -0.1430 -0.5834  0.3363
  299SOL    HW2 1195   0.466   1.039   2.988  0.9580  1.7657  0.9828
  299SOL     MW 1196   0.511   1.054   3.058  0.0614  0.3851 -0.2186
  300SOL     OW 1197   1.240   1.183   2.503 -0.2393  0.1317 -0.0046
  300SOL    HW1 1198   1.146   1.160   2.488 -1.9742  0.1826  0.6113
  300SOL    HW2 1199   1.252   1.203   2.592 -0.2243  2.9304 -3.8560
  300SOL     MW 1200   1.229   1.183   2.513 -0.4662  0.5077 -0.4315
  301SOL     OW 1201   1.376   0.869   0.574  0.4933  0.4736  0.1416
  301SOL    HW1 1202   1.379   0.908   0.664  2.3064  1.3023 -0.3522
  301SOL    HW2 1203   1.362   0.772   0.586 -0.3132  1.7803 -1.3138
  301SOL     MW 1204   1.375   0.861   0.587  0.6261  0.7554 -0.1156
  302SOL     OW 1205   0.078   1.493   2.015 -0.5640 -0.0006  0.4187
  302SOL    HW1 1206   0.103   1.430   2.080  0.0641  0.1685 -1.4178
  302SOL    HW2 1207   0.040   1.570   2.053  2.3592  1.2259  3.6091
  302SOL     MW 1208   0.076   1.495   2.028 -0.0954  0.1835  0.5974
  303SOL     OW 1209   0.380   1.694   2.544 -0.5982 -0.5000 -0.5025
  303SOL    HW1 1210   0.338   1.665   2.460  1.7238 -0.3215 -1.5743
  303SOL    HW2 1211   0.328   1.763   2.584 -0.0045 -0.6588 -2.1025
  303SOL     MW 1212   0.367   1.699   2.538 -0.2135 -0.4974 -0.8550
  304SOL     OW 1213   0.651   2.051   2.402  0.2766 -0.2849 -0.0471
  304SOL    HW1 1214   0.689   2.133   2.379  0.6188 -0.2071  0.8691
  304SOL    HW2 1215   0.724   1.995   2.378 -0.6219  0.4840  1.4122
  304SOL     MW 1216   0.666   2.055   2.396  0.2032 -0.1732  0.2664
  305SOL     OW 1217   1.069   0.554   0.551  0.3406  0.0004 -0.4817
  305SOL    HW1 1218   0.966   0.555   0.546 -3.0884 -0.8122  2.7540
  305SOL    HW2 1219   1.088   0.461   0.554 -1.2637  0.5423  0.2123
  305SOL     MW 1220   1.058   0.542   0.551 -0.3235 -0.0353  0.0368
  306SOL     OW 1221   1.213   1.480   0.290 -0.1409  0.2678 -0.1383
  306SOL    HW1 1222   1.245   1.403   0.333 -0.6751 -0.6460 -4.6142
  306SOL    HW2 1223   1.284   1.504   0.225  0.7738 -0.4590 -0.7121
  306SOL     MW 1224   1.227   1.473   0.287 -0.0907  0.0513 -0.8046
  307SOL     OW 1225   1.399   0.493   1.927  0.4497  0.0665  0.5246
  307SOL    HW1 1226   1.338   0.429   1.983 -0.8758 -1.8986  1.8313
  307SOL    HW2 1227   1.467   0.519   1.991  0.4584 -0.5203  0.0323
  307SOL     MW 1228   1.400   0.488   1.943  0.2760 -0.2702  0.6320
  308SOL     OW 1229   2.134   0.634   2.665  0.4108  0.0300  0.4181
  308SOL    HW1 1230   2.222   0.605   2.682 -2.4648  0.9904 -1.1496
  308SOL    HW2 1231   2.127   0.731   2.694 -1.5062 -1.7531  1.5114
  308SOL     MW 1232   2.145   0.643   2.671 -0.2216 -0.0786  0.3555
  309SOL     OW 1233   0.505   0.376   0.386 -0.9994 -0.5101  0.1866
  309SOL    HW1 1234   0.571   0.329   0.438 -1.3413  0.2753 -1.4372
  309SOL    HW2 1235   0.478   0.325   0.307 -1.1794 -0.4594  0.3798
  309SOL     MW 1236   0.510   0.363   0.383 -1.0683 -0.3998 -0.0022
  310SOL     OW 1237   0.461   0.533   1.904 -0.3600  0.2189 -0.4247
  310SOL    HW1 1238   0.514   0.464   1.863 -0.1803 -1.9781 -1.5777
  310SOL    HW2 1239   0.519   0.609   1.891 -0.0380 -1.3846 -2.6925
  310SOL     MW 1240   0.476   0.534   1.897 -0.2938 -0.2825 -0.8760
  311SOL     OW 1241   1.907   0.783   1.958  0.1296 -0.1162  0.2389
  311SOL    HW1 1242   1.882   0.815   2.042  0.5088 -0.4369 -1.6192
  311SOL    HW2 1243   1.951   0.693   1.971 -1.5098 -0.3723 -0.2656
  311SOL     MW 1244   1.910   0.776   1.971 -0.0367 -0.1923 -0.0728
  312SOL     OW 1245   1.687   2.496   0.060 -0.6997 -0.5320  0.3502
  312SOL    HW1 1246   1.736   2.506   0.148  1.8276  3.9910 -0.8988
  312SOL    HW2 1247   1.612   2.564   0.064 -0.7724  0.9407 -2.2670
  312SOL     MW 1248   1.683   2.506   0.072 -0.3759  0.2591 -0.1599
  313SOL     OW 1249   0.126   1.199   2.952  0.1798  0.9970  0.0753
  313SOL    HW1 1250   0.144   1.161   3.042 -2.6713 -1.1051  0.6887
  313SOL    HW2 1251   0.216   1.244   2.929  2.9455  0.0185  2.2587
  313SOL     MW 1252   0.140   1.200   2.961  0.1685  0.5905  0.4443
  314SOL     OW 1253   2.142   2.988   3.003 -0.0133 -0.3087  0.1268
  314SOL    HW1 1254   2.086   3.045   2.950 -1.7312  0.3688 -0.0527
  314SOL    HW2 1255   2.201   3.050   3.042 -1.6270 -1.9993 -0.6277
  314SOL     MW 1256   2.143   3.004   3.001 -0.4528 -0.4424  0.0036
  315SOL     OW 1257   1.504   1.878   3.070 -0.0064  0.1120  0.2389
  315SOL    HW1 1258   1.462   1.952   3.118 -1.1837  1.9831  0.6946
  315SOL    HW2 1259   1.568   1.919   3.005 -0.4825 -0.9693  3.3761
  315SOL     MW 1260   1.507   1.893   3.068 -0.2246  0.2162  0.7129
  316SOL     OW 1261   1.250   0.608   2.703 -0.2211 -0.2822 -0.3286
  316SOL    HW1 1262   1.341   0.610   2.731  0.1150  1.7535 -1.0116
  316SOL    HW2 1263   1.186   0.604   2.772 -1.9119 -1.5602  1.1986
  316SOL     MW 1264   1.253   0.608   2.716 -0.3998 -0.1822 -0.2172
  317SOL     OW 1265   0.665   1.452   2.594 -0.4513  0.1472 -0.0918
  317SOL    HW1 1266   0.752   1.405   2.594  0.6492  2.2792  1.5488
  317SOL    HW2 1267   0.682   1.534   2.533 -0.2117  2.0294 -1.8969
  317SOL     MW 1268   0.679   1.456   2.586 -0.2745  0.6768 -0.1135
  318SOL     OW 1269   1.361   0.392   2.921 -0.3150  0.0299  0.2833
  318SOL    HW1 1270   1.280   0.431   2.894  1.0107  0.3890  1.6831
  318SOL    HW2 1271   1.433   0.457   2.903  3.1969 -2.0709 -2.5734
  318SOL     MW 1272   1.360   0.406   2.915  0.3232 -0.1999  0.0911
  319SOL     OW 1273   0.827   0.456   2.819 -0.6327 -0.9182  0.3561
  319SOL    HW1 1274   0.811   0.372   2.780  1.2670  0.2748 -1.2394
  319SOL    HW2 1275   0.773   0.464   2.896  0.9761 -1.7168  0.5825
  319SOL     MW 1276   0.818   0.446   2.824 -0.1698 -0.8662  0.1755
  320SOL     OW 1277   1.033   1.342   1.957 -0.0007  0.0368 -0.2820
  320SOL    HW1 1278   1.095   1.294   2.008  0.6639  0.3675  0.9133
  320SOL    HW2 1279   1.082   1.419   1.934 -0.8466 -0.9519  1.8453
  320SOL     MW 1280   1.048   1.346   1.961 -0.0246 -0.0500  0.1564
  321SOL     OW 1281   1.030   1.013   3.057  0.3760  0.4386 -0.1434
  321SOL    HW1 1282   0.961   0.987   2.994 -1.6282  0.4058  2.4609
  321SOL    HW2 1283   1.085   0.932   3.072 -2.4124 -2.4939 -1.4267
  321SOL     MW 1284   1.028   0.999   3.050 -0.2564  0.0474  0.0309
  322SOL     OW 1285   1.174   0.829   1.722 -0.1108 -0.1347 -0.5519
  322SOL    HW1 1286   1.257   0.786   1.745 -0.1112 -1.4557  1.8904
  322SOL    HW2 1287   1.164   0.885   1.803 -0.9602  0.5875  0.3539
  322SOL     MW 1288   1.183   0.830   1.736 -0.2229 -0.2137 -0.1101
  323SOL     OW 1289   1.211   1.526   1.828  0.2181 -0.2468  0.1756
  323SOL    HW1 1290   1.199   1.440   1.787  1.4663  0.8850  3.0023
  323SOL    HW2 1291   1.148   1.587   1.793  1.0342  0.5669 -1.0809
  323SOL     MW 1292   1.201   1.523   1.818  0.4905  0.0099  0.3828
  324SOL     OW 1293   1.501   1.053   2.465 -0.5181 -0.7102 -0.6177
  324SOL    HW1 1294   1.409   1.083   2.489 -1.8605 -1.4030  0.7690
  324SOL    HW2 1295   1.558   1.131   2.496 -3.8349 -1.2821 -0.3546
  324SOL     MW 1296   1.496   1.067   2.472 -1.1328 -0.8771 -0.4000
  325SOL     OW 1297   1.097   0.491   2.910  0.2898  0.4610  0.1818
  325SOL    HW1 1298   1.069   0.516   3.003 -2.4340 -1.1767  0.0303
  325SOL    HW2 1299   1.018   0.490   2.861  1.9615  4.4134 -1.6948
  325SOL     MW 1300   1.083   0.494   2.916  0.1510  0.7664 -0.0858
  326SOL     OW 1301   0.473   1.345   2.216 -0.4690 -0.0465 -0.2349
  326SOL    HW1 1302   0.527   1.333   2.135 -0.1432  1.6326 -0.4914
  326SOL    HW2 1303   0.464   1.439   2.226  0.3702 -0.4452  1.0788
  326SOL     MW 1304   0.479   1.356   2.207 -0.3153  0.1225 -0.0954
  327SOL     OW 1305   1.861   0.896   2.475  0.4868 -0.3227 -0.1787
  327SOL    HW1 1306   1.848   0.817   2.538  0.1328  1.1801 -1.4634
  327SOL    HW2 1307   1.952   0.888   2.449  1.4051  0.9005  1.5863
  327SOL     MW 1308   1.871   0.885   2.480  0.5613  0.0370 -0.1154
  328SOL     OW 1309   0.212   1.305   2.231  0.2465 -0.0238  0.3726
  328SOL    HW1 1310   0.187   1.220   2.189  0.6319 -1.1722 -0.9001
  328SOL    HW2 1311   0.308   1.294   2.221 -2.5193 -0.5761 -0.5059
  328SOL     MW 1312   0.222   1.292   2.224 -0.0675 -0.2482  0.0888
  329SOL     OW 1313   0.107   0.121   1.435  0.0029 -0.4340 -0.3860
  329SOL    HW1 1314   0.095   0.155   1.529 -0.9525  1.4767  2.7377
  329SOL    HW2 1315   0.192   0.170   1.407  1.5038  2.5899 -1.6658
  329SOL     MW 1316   0.116   0.132   1.444  0.0749  0.2171 -0.1427
  330SOL     OW 1317   0.343   3.025   2.076 -0.5924  0.3635  0.1085
  330SOL    HW1 1318   0.411   3.037   2.142  0.2763  1.5855  3.0712
  330SOL    HW2 1319   0.271   2.971   2.114  0.7851  4.1114 -0.7590
  330SOL     MW 1320   0.342   3.020   2.090 -0.2960  1.0192  0.3850
  331SOL     OW 1321   0.770   1.223   2.297  0.5117  0.3034  0.3674
  331SOL    HW1 1322   0.762   1.247   2.208 -0.4367 -1.0903  0.3102
  331SOL    HW2 1323   0.818   1.292   2.346  1.5080 -2.5499 -0.0934
  331SOL     MW 1324   0.776   1.235   2.292  0.5180 -0.2569  0.2990
  332SOL     OW 1325   1.329   1.683   2.976 -0.2530 -0.2491 -0.2355
  332SOL    HW1 1326   1.347   1.670   2.883  1.3107  0.9344 -0.4801
  332SOL    HW2 1327   1.395   1.755   3.010 -0.3228  2.5782  0.3650
  332SOL     MW 1328   1.340   1.691   2.968 -0.0559  0.2801 -0.1886
  333SOL     OW 1329   1.733   1.457   3.008  0.3327 -0.1345 -0.0574
  333SOL    HW1 1330   1.822   1.456   3.041 -0.0608 -4.0301 -1.6700
  333SOL    HW2 1331   1.691   1.440   3.096  1.4110  1.8992 -0.7439
  333SOL     MW 1332   1.739   1.454   3.024  0.4230 -0.3802 -0.3608
  334SOL     OW 1333   1.356   3.067   2.619  0.4671 -0.0318 -0.3186
  334SOL    HW1 1334   1.266   3.092   2.635  2.4538  0.5091  0.4545
  334SOL    HW2 1335   1.402   3.153   2.635 -1.3598  0.2164 -0.0667
  334SOL     MW 1336   1.350   3.082   2.623  0.4882  0.0723 -0.1833
  335SOL     OW 1337   1.208   0.797   3.066  0.0540  0.3361  0.3259
  335SOL    HW1 1338   1.270   0.783   3.141 -1.9337 -0.1089  1.4053
  335SOL    HW2 1339   1.255   0.813   2.988 -1.4615  0.3953  0.2482
  335SOL     MW 1340   1.222   0.798   3.066 -0.4082  0.2852  0.4581
  336SOL     OW 1341   0.895   1.092   1.924  0.2978 -0.4856  0.0362
  336SOL    HW1 1342   0.887   1.183   1.941  0.8609 -3.7338 -0.8256
  336SOL    HW2 1343   0.983   1.072   1.946 -1.3754  0.4887 -0.0805
  336SOL     MW 1344   0.905   1.101   1.929  0.1513 -0.7856 -0.0929
  337SOL     OW 1345   0.521   1.769   2.785  0.4624 -1.0027 -0.5279
  337SOL    HW1 1346   0.487   1.722   2.713  1.6557  0.5545 -3.9343
  337SOL    HW2 1347   0.607   1.721   2.803  0.4499  0.5513  1.7657
  337SOL     MW 1348   0.528   1.756   2.778  0.6182 -0.5922 -0.6747
  338SOL     OW 1349   1.115   0.850   2.537 -0.2096  0.0323  0.2351
  338SOL    HW1 1350   1.039   0.788   2.531  1.8066 -2.5898 -1.3309
  338SOL    HW2 1351   1.193   0.800   2.568  0.0999  0.9448 -1.1734
  338SOL     MW 1352   1.115   0.835   2.540  0.0972 -0.1933 -0.1574
  339SOL     OW 1353   1.562   1.038   1.804 -0.4837  0.2406 -0.3660
  339SOL    HW1 1354   1.470   1.037   1.786 -1.7313 -0.7294 -0.4162
  339SOL    HW2 1355   1.573   1.134   1.830 -0.2626  2.1794  1.3208
  339SOL     MW 1356   1.552   1.051   1.805 -0.6192  0.3684 -0.1501
  340SOL     OW 1357   1.377   1.504   0.086  0.8270 -0.2775  0.1516
  340SOL    HW1 1358   1.389   1.568   0.017 -0.7745 -2.8921  0.0725
  340SOL    HW2 1359   1.470   1.494   0.115  2.8187 -1.1107 -0.8259
  340SOL     MW 1360   1.391   1.511   0.080  0.8785 -0.7324  0.0122
  341SOL     OW 1361   0.142   1.352   2.657 -0.0505 -0.2320 -0.1876
  341SOL    HW1 1362   0.230   1.363   2.622 -0.3812  0.9686  1.1607
  341SOL    HW2 1363   0.094   1.327   2.579  0.7010  0.6996  0.3254
  341SOL     MW 1364   0.147   1.350   2.642  0.0050  0.0493  0.0580
  342SOL     OW 1365   1.447   0.313   0.062 -0.0321  0.0346 -0.0017
  342SOL    HW1 1366   1.453   0.392   0.120 -0.4077 -0.6253 -0.1330
  342SOL    HW2 1367   1.432   0.347  -0.026 -0.5308  0.9247  0.8964
  342SOL     MW 1368   1.446   0.328   0.058 -0.1475  0.0650  0.0995
  343SOL     OW 1369   0.224   0.296   2.236  0.1806  0.6506  0.0368
  343SOL    HW1 1370   0.256   0.235   2.302  1.5307  0.0256  1.8517
  343SOL    HW2 1371   0.159   0.241   2.187 -3.4123  0.6575  2.5061
  343SOL     MW 1372   0.220   0.280   2.238 -0.1153  0.5690  0.6021
  344SOL     OW 1373   1.677   2.065   0.240  0.0696 -0.3346 -0.4923
  344SOL    HW1 1374   1.692   2.114   0.159  0.3971  2.0419  1.1563
  344SOL    HW2 1375   1.631   1.992   0.218 -0.8397  2.8470  0.8643
  344SOL     MW 1376   1.673   2.062   0.227 -0.0071  0.3987 -0.0958
  345SOL     OW 1377   0.722   1.597   2.373 -0.1678  0.7412 -0.7315
  345SOL    HW1 1378   0.639   1.631   2.340 -1.7321  0.4605 -2.8939
  345SOL    HW2 1379   0.782   1.584   2.291  0.8921  1.6831 -0.2278
  345SOL     MW 1380   0.719   1.600   2.358 -0.2344  0.8284 -0.9504
  346SOL     OW 1381   1.730   1.146   0.032 -0.1218  0.0871  0.1437
  346SOL    HW1 1382   1.827   1.147   0.054  0.2035  2.5516 -0.4018
  346SOL    HW2 1383   1.686   1.075   0.085  0.1498 -0.1085  0.6293
  346SOL     MW 1384   1.737   1.137   0.042 -0.0431  0.3864  0.1358
  347SOL     OW 1385   1.253   0.722   2.308  0.4204  0.2594 -0.0986
  347SOL    HW1 1386   1.333   0.681   2.332 -1.9572  0.9569 -0.7880
  347SOL    HW2 1387   1.243   0.786   2.373  2.5891 -1.5813 -1.5197
  347SOL     MW 1388   1.262   0.725   2.320  0.3928  0.1086 -0.3770
  348SOL     OW 1389   1.313   2.587   1.884  0.2109 -0.2551 -0.2844
  348SOL    HW1 1390   1.342   2.494   1.918  0.7837  0.9765 -1.3388
  348SOL    HW2 1391   1.369   2.653   1.932  0.3720  1.2560 -0.9244
  348SOL     MW 1392   1.324   2.583   1.895  0.3077  0.1067 -0.5080
  349SOL     OW 1393   1.447   0.250   2.699 -0.2459  0.0536  0.4112
  349SOL    HW1 1394   1.400   0.299   2.764 -0.4953  0.5875  0.2967
  349SOL    HW2 1395   1.519   0.216   2.757  2.3102  0.7319  0.4713
  349SOL     MW 1396   1.450   0.252   2.716  0.0584  0.2136  0.4040
  350SOL     OW 1397   1.873   0.654   2.597 -0.0835 -0.3644  0.0548
  350SOL    HW1 1398   1.832   0.591   2.536 -1.5653 -0.0409 -2.4460
  350SOL    HW2 1399   1.968   0.627   2.617 -1.9412 -2.6267  1.5229
  350SOL     MW 1400   1.880   0.642   2.592 -0.5241 -0.6202 -0.0814
  351SOL     OW 1401   0.120   0.948   1.637  0.5419  0.1244  0.1238
  351SOL    HW1 1402   0.039   0.984   1.677 -0.0676  1.6636  0.4697
  351SOL    HW2 1403   0.175   1.026   1.640  2.5309  0.4832 -1.7371
  351SOL     MW 1404   0.116   0.963   1.643  0.7239  0.3748 -0.0761
  352SOL     OW 1405   0.771   1.638   2.772  0.5921  0.4508 -0.6206
  352SOL    HW1 1406   0.817   1.594   2.847  2.3864 -0.2913  0.6181
  352SOL    HW2 1407   0.745   1.558   2.723 -0.6763 -0.1710  3.0810
  352SOL     MW 1408   0.774   1.621   2.775  0.6615  0.2708  0.0312
  353SOL     OW 1409   3.009   2.427   2.694 -0.3685 -0.4247 -0.6168
  353SOL    HW1 1410   3.101   2.393   2.678  3.0568  2.3251  0.3376
  353SOL    HW2 1411   3.012   2.519   2.657 -0.2470  0.5057  0.4544
  353SOL     MW 1412   3.022   2.435   2.687  0.0995  0.0609 -0.3495
  354SOL     OW 1413   0.412   2.440   0.843 -0.5281  0.2529 -0.3377
  354SOL    HW1 1414   0.413   2.374   0.913 -0.7045 -0.8512  0.8522
  354SOL    HW2 1415   0.350   2.391   0.793  0.6057  1.3232  0.5841
  354SOL     MW 1416   0.404   2.425   0.846 -0.4018  0.2484 -0.0591
  355SOL     OW 1417   0.043   2.181   0.416 -0.3931 -0.2524 -0.1816
  355SOL    HW1 1418  -0.043   2.146   0.374 -1.1570  0.5865 -0.6756
  355SOL    HW2 1419   0.031   2.202   0.509 -0.0777  3.1479  1.0884
  355SOL     MW 1420   0.030   2.179   0.423 -0.4523  0.3069 -0.0792
  356SOL     OW 1421   0.834   2.906   1.032 -0.6594 -0.9514  0.5337
  356SOL    HW1 1422   0.872   2.881   0.944  0.4078 -0.8164 -1.3017
  356SOL    HW2 1423   0.746   2.876   1.032  2.8782  1.5749 -0.9753
  356SOL     MW 1424   0.827   2.899   1.021 -0.0519 -0.6003  0.0925
  357SOL     OW 1425   1.770   2.935   0.381  0.5999  0.0278 -0.5229
  357SOL    HW1 1426   1.708   2.867   0.422  3.3844 -1.2063  1.1093
  357SOL    HW2 1427   1.844   2.878   0.365 -4.0176 -3.0719 -1.1997
  357SOL     MW 1428   1.771   2.919   0.385  0.3581 -0.5440 -0.3968
  358SOL     OW 1429   0.408   0.118   1.031 -0.6812 -0.0644 -0.5513
  358SOL    HW1 1430   0.501   0.099   1.044  0.5264  1.8115  0.4909
  358SOL    HW2 1431   0.408   0.161   0.943 -0.7155  0.8618 -0.6321
  358SOL     MW 1432   0.421   0.121   1.021 -0.5264  0.3053 -0.4244
  359SOL     OW 1433   0.949   2.883   1.828 -0.3945  0.3086 -0.4173
  359SOL    HW1 1434   0.960   2.792   1.878 -0.7404  1.0746  0.0846
  359SOL    HW2 1435   0.999   2.864   1.752 -2.1391 -0.0764  1.6560
  359SOL     MW 1436   0.957   2.869   1.825 -0.6703  0.3589 -0.0775
  360SOL     OW 1437   0.590   2.781   1.010 -0.2270  0.6249 -0.0230
  360SOL    HW1 1438   0.592   2.745   0.922  1.1402 -1.2254 -0.6484
  360SOL    HW2 1439   0.577   2.694   1.051 -1.8220 -0.5895  1.5701
  360SOL     MW 1440   0.589   2.765   1.004 -0.2571  0.2205  0.1047
  361SOL     OW 1441   0.186   2.699   1.323  0.3257 -0.2752 -0.6332
  361SOL    HW1 1442   0.168   2.784   1.367  0.0911  1.1406  1.9923
  361SOL    HW2 1443   0.271   2.668   1.341 -0.3757  1.1670 -1.9210
  361SOL     MW 1444   0.195   2.706   1.331  0.2022  0.1019 -0.4567
  362SOL     OW 1445   1.479   2.432   0.607 -0.3112 -0.3386  0.6006
  362SOL    HW1 1446   1.494   2.353   0.663 -1.4425  1.8837 -1.6185
  362SOL    HW2 1447   1.496   2.503   0.673  2.6186 -1.1095 -0.6399
  362SOL     MW 1448   1.483   2.431   0.623 -0.0739 -0.1471  0.1442
  363SOL     OW 1449   0.295   3.026   0.728  0.3619  0.3798 -0.4470
  363SOL    HW1 1450   0.309   2.983   0.812 -0.4536  1.8008  1.3354
  363SOL    HW2 1451   0.203   3.043   0.737 -0.4839 -1.8245  0.8871
  363SOL     MW 1452   0.285   3.023   0.740  0.1427  0.2764 -0.0358
  364SOL     OW 1453   0.742   0.171   0.256  0.4252  0.0683  0.1217
  364SOL    HW1 1454   0.717   0.081   0.273 -0.3440  3.1916  0.0160
  364SOL    HW2 1455   0.672   0.204   0.209  1.7027 -1.2082 -2.7427
  364SOL     MW 1456   0.730   0.163   0.252  0.4923  0.3120 -0.2702
  365SOL     OW 1457   0.928   1.939   1.125  0.6128 -0.1616 -0.2283
  365SOL    HW1 1458   0.904   2.011   1.070 -0.7284  1.1108  2.4267
  365SOL    HW2 1459   0.894   1.858   1.082  0.6017  0.4991 -0.5009
  365SOL     MW 1460   0.920   1.938   1.112  0.4344  0.0935  0.0860
  366SOL     OW 1461   2.891   2.615   1.016 -0.3005  0.0626  0.2878
  366SOL    HW1 1462   2.979   2.630   1.058 -0.8137  0.4348 -3.2907
  366SOL    HW2 1463   2.904   2.628   0.914 -1.0357 -1.0034 -1.1414
  366SOL     MW 1464   2.904   2.619   1.008 -0.4652 -0.0289 -0.3729
  367SOL     OW 1465   1.253   2.801   0.881 -0.5788  0.2577  0.1483
  367SOL    HW1 1466   1.175   2.854   0.875  1.9581 -1.7343  0.0794
  367SOL    HW2 1467   1.249   2.746   0.806  1.3553 -0.2066 -0.1613
  367SOL     MW 1468   1.242   2.801   0.870  0.0111 -0.0664  0.0983
  368SOL     OW 1469   1.670   0.465   0.665  0.2797 -0.0912  0.5575
  368SOL    HW1 1470   1.735   0.408   0.614 -0.6315 -0.0303  0.1300
  368SOL    HW2 1471   1.700   0.551   0.648  2.0013 -1.6655  1.8612
  368SOL     MW 1472   1.683   0.469   0.656  0.3866 -0.2909  0.6731
  369SOL     OW 1473   0.150   2.456   1.710  0.1642 -0.1090 -0.1119
  369SOL    HW1 1474   0.240   2.434   1.744  1.6737  0.6715  3.0238
  369SOL    HW2 1475   0.125   2.547   1.734 -2.8213 -0.5222  1.5678
  369SOL     MW 1476   0.159   2.465   1.718 -0.0305 -0.0605  0.5234
  370SOL     OW 1477   0.738   0.079   0.996  0.7226  0.0252  0.0450
  370SOL    HW1 1478   0.779   0.164   1.001 -1.0744 -0.5339  0.5432
  370SOL    HW2 1479   0.803   0.014   1.015 -1.1766 -1.7107 -1.9223
  370SOL     MW 1480   0.752   0.082   0.999  0.2349 -0.2776 -0.1488
  371SOL     OW 1481   1.323   2.985   1.502  0.3056 -0.3212  0.1196
  371SOL    HW1 1482   1.282   2.913   1.456  2.4893 -1.0794 -0.5272
  371SOL    HW2 1483   1.314   3.065   1.448  0.6359 -2.3581  1.3528
  371SOL     MW 1484   1.317   2.986   1.489  0.6373 -0.6900  0.1969
  372SOL     OW 1485   0.831   2.293   0.469  0.0696 -0.1313 -0.2284
  372SOL    HW1 1486   0.796   2.202   0.471  0.0467  0.9251  0.3501
  372SOL    HW2 1487   0.834   2.324   0.375 -1.7846  1.3280 -0.0614
  372SOL     MW 1488   0.827   2.285   0.457 -0.1780  0.2006 -0.1301
  373SOL     OW 1489   2.816   2.996   1.394 -0.7007  0.0278  0.0965
  373SOL    HW1 1490   2.893   2.957   1.348  0.0450  0.7638 -1.0927
  373SOL    HW2 1491   2.798   3.081   1.346  1.1355  0.0594 -0.6957
  373SOL     MW 1492   2.823   3.002   1.382 -0.3600  0.1291 -0.1649
  374SOL     OW 1493   1.525   0.504   0.252  0.2581  0.5055  0.0160
  374SOL    HW1 1494   1.610   0.540   0.245 -1.7959 -2.7967 -0.1951
  374SOL    HW2 1495   1.518   0.499   0.346 -2.1669 -1.8492 -0.5322
  374SOL     MW 1496   1.536   0.508   0.264 -0.3329 -0.2408 -0.0842
  375SOL     OW 1497   1.129   2.113   2.308  0.2247 -0.3269 -0.3783
  375SOL    HW1 1498   1.141   2.101   2.404  0.5777 -0.3159 -2.6009
  375SOL    HW2 1499   1.158   2.030   2.270  0.9273  0.5213  0.2666
  375SOL     MW 1500   1.135   2.101   2.316  0.3640 -0.2135 -0.5864
  376SOL     OW 1501   0.695   2.499   0.055  0.4678 -0.6216 -0.2596
  376SOL    HW1 1502   0.759   2.440   0.089 -0.7391  1.6086 -0.0033
  376SOL    HW2 1503   0.640   2.445  -0.010 -1.9966 -2.8733 -0.7163
  376SOL     MW 1504   0.696   2.484   0.051 -0.0166 -0.6245 -0.2861
  377SOL     OW 1505   1.309   1.959   0.862  0.1833  0.0130  0.1711
  377SOL    HW1 1506   1.234   1.960   0.801  0.4039  2.1226  0.0912
  377SOL    HW2 1507   1.270   1.927   0.944  0.4183  0.9030  0.4931
  377SOL     MW 1508   1.294   1.955   0.865  0.2434  0.4087  0.2031
  378SOL     OW 1509   1.050   2.804   1.561  0.3629  0.5647  0.1174
  378SOL    HW1 1510   1.018   2.714   1.546  1.4374 -0.3021 -0.6031
  378SOL    HW2 1511   0.990   2.861   1.505 -1.2857 -0.6589 -0.6811
  378SOL     MW 1512   1.038   2.800   1.551  0.2872  0.2889 -0.0830
  379SOL     OW 1513   1.115   1.803   2.258  0.2510  0.2345  0.2322
  379SOL    HW1 1514   1.019   1.805   2.285 -3.1375 -0.4067 -0.2806
  379SOL    HW2 1515   1.137   1.723   2.206 -0.6469  0.0542 -0.6272
  379SOL     MW 1516   1.105   1.793   2.255 -0.3145  0.1261  0.0511
  380SOL     OW 1517   0.863   0.051   1.556 -0.4410 -0.8161  0.1363
  380SOL    HW1 1518   0.865   0.056   1.462 -2.5036 -1.3094  1.5534
  380SOL    HW2 1519   0.946   0.084   1.591  2.4510 -0.1990  1.7601
  380SOL     MW 1520   0.874   0.056   1.548 -0.3316 -0.7998  0.5375
  381SOL     OW 1521   0.789   1.959   0.777  0.2715  0.1244  0.2087
  381SOL    HW1 1522   0.888   1.965   0.777  0.9380  0.8729 -1.2344
  381SOL    HW2 1523   0.758   2.007   0.850 -1.0781 -1.0537  1.5817
  381SOL     MW 1524   0.798   1.966   0.787  0.1814  0.0677  0.1995
  382SOL     OW 1525   0.722   0.071   0.720 -0.3395 -0.1630 -0.0342
  382SOL    HW1 1526   0.749   0.076   0.814  0.2503  2.3387  2.7782
  382SOL    HW2 1527   0.684  -0.022   0.718 -0.9713 -1.7638  2.0295
  382SOL     MW 1528   0.720   0.060   0.732 -0.3450 -0.0441  0.6091
  383SOL     OW 1529   0.452   0.044   0.365  0.5155 -0.2232 -0.1670
  383SOL    HW1 1530   0.500  -0.005   0.306  0.3499  3.5510 -0.1834
  383SOL    HW2 1531   0.387  -0.020   0.389  0.1735 -1.6853 -0.5308
  383SOL     MW 1532   0.450   0.029   0.360  0.4485  0.0819 -0.2172
  384SOL     OW 1533   0.641   2.909   0.662  0.0707 -0.1349  0.1843
  384SOL    HW1 1534   0.672   2.824   0.689  2.1149 -3.1785  1.6485
  384SOL    HW2 1535   0.557   2.890   0.617  1.3819  0.7815  0.7864
  384SOL     MW 1536   0.634   2.895   0.659  0.5134 -0.4156  0.4569
  385SOL     OW 1537   1.310   2.060   1.514  0.1368 -0.2321  0.0089
  385SOL    HW1 1538   1.374   2.068   1.582  0.2096 -0.8673 -0.8858
  385SOL    HW2 1539   1.270   1.968   1.527 -0.2407  2.9971  0.1456
  385SOL     MW 1540   1.313   2.049   1.525  0.0966  0.1101 -0.0911
  386SOL     OW 1541   1.380   0.331   0.829  0.5195 -0.1171  0.1060
  386SOL    HW1 1542   1.347   0.330   0.739  0.5394  2.5378 -4.2379
  386SOL    HW2 1543   1.302   0.314   0.882 -0.1719  1.8680  0.3711
  386SOL     MW 1544   1.366   0.329   0.824  0.4309  0.4951 -0.4322
  387SOL     OW 1545   0.819   2.204   1.464 -0.1027  0.2444 -0.3458
  387SOL    HW1 1546   0.889   2.269   1.442  0.8094  1.8551  2.0135
  387SOL    HW2 1547   0.851   2.117   1.442  1.1864 -0.2827 -0.8887
  387SOL     MW 1548   0.833   2.201   1.458  0.1877  0.3874 -0.1062
  388SOL     OW 1549   1.566   2.776   1.263  0.1143  0.2526 -0.6053
  388SOL    HW1 1550   1.477   2.747   1.240  0.8388 -0.7370 -0.4136
  388SOL    HW2 1551   1.620   2.734   1.192  0.2819 -1.5110  0.0636
  388SOL     MW 1552   1.561   2.766   1.251  0.2320 -0.1106 -0.4918
  389SOL     OW 1553   0.365   0.045   3.061 -0.0404 -0.6002 -0.7206
  389SOL    HW1 1554   0.456   0.066   3.034  0.0407  0.7488  0.1607
  389SOL    HW2 1555   0.305   0.080   2.990  2.8486 -2.6358  0.1121
  389SOL     MW 1556   0.369   0.053   3.048  0.3515 -0.6908 -0.4944
  390SOL     OW 1557   1.292   0.012   0.611 -0.6962 -0.0324 -0.3240
  390SOL    HW1 1558   1.382   0.031   0.587  0.0529  1.9687 -1.6996
  390SOL    HW2 1559   1.290  -0.027   0.696 -1.2377  1.9038  0.4374
  390SOL     MW 1560   1.304   0.010   0.619 -0.6688  0.4871 -0.4050
  391SOL     OW 1561   0.286   2.277   1.499 -0.3087  0.1002 -0.6465
  391SOL    HW1 1562   0.223   2.208   1.516  0.3817  0.2484 -0.3149
  391SOL    HW2 1563   0.229   2.345   1.456 -0.0522 -0.2257  0.0923
  391SOL     MW 1564   0.270   2.277   1.496 -0.1838  0.0767 -0.5053
  392SOL     OW 1565   2.029   2.167   0.374  0.5893 -0.3799 -0.0487
  392SOL    HW1 1566   1.976   2.236   0.413  1.6403 -0.4709 -2.2689
  392SOL    HW2 1567   2.111   2.166   0.428  0.8873 -4.1858 -1.0800
  392SOL     MW 1568   2.033   2.176   0.386  0.7673 -0.8940 -0.4777
  393SOL     OW 1569   0.226   2.995   2.808 -0.5714  0.1157 -0.2434
  393SOL    HW1 1570   0.282   3.073   2.791  1.8819  1.2327  2.7123
  393SOL    HW2 1571   0.146   3.017   2.774 -0.7163  0.9312  1.1054
  393SOL     MW 1572   0.223   3.008   2.802 -0.2668  0.3707  0.3246
  394SOL     OW 1573   0.877   1.685   1.481  0.1867  0.3597  0.2579
  394SOL    HW1 1574   0.849   1.708   1.570 -1.1327  0.6068  1.1404
  394SOL    HW2 1575   0.893   1.770   1.440  2.8591  0.8738 -1.1278
  394SOL     MW 1576   0.875   1.699   1.487  0.3652  0.4601  0.1915
  395SOL     OW 1577   0.961   2.851   2.622 -0.4799  0.0941  0.0436
  395SOL    HW1 1578   0.966   2.935   2.671 -1.6649  0.7737  1.7213
  395SOL    HW2 1579   1.060   2.822   2.614  2.0003 -0.1555 -0.5777
  395SOL     MW 1580   0.974   2.858   2.627 -0.3090  0.1508  0.1830
  396SOL     OW 1581   0.858   1.841   2.379  0.5156 -0.0588  0.3563
  396SOL    HW1 1582   0.890   1.844   2.472  1.0150  0.3205  1.1701
  396SOL    HW2 1583   0.802   1.767   2.384  2.1521  0.4695 -1.1508
  396SOL     MW 1584   0.855   1.831   2.392  0.7974  0.0609  0.2649
  397SOL     OW 1585   1.023   2.367   1.376 -0.2926  0.4033  0.1406
  397SOL    HW1 1586   1.058   2.393   1.290 -0.0595 -2.2955 -0.3851
  397SOL    HW2 1587   1.106   2.329   1.414  2.6268  1.8143 -1.3477
  397SOL     MW 1588   1.038   2.366   1.370  0.1233  0.2334 -0.1251
  398SOL     OW 1589   0.658   2.646   0.790  0.0950  0.9618  0.2055
  398SOL    HW1 1590   0.579   2.604   0.744 -1.4540 -1.9065 -0.2355
  398SOL    HW2 1591   0.727   2.585   0.747 -1.5018  2.1997 -3.0510
  398SOL     MW 1592   0.657   2.633   0.778 -0.3201  0.7467 -0.2823
  399SOL     OW 1593   0.282   2.033   0.446  0.0625  0.6664  0.4531
  399SOL    HW1 1594   0.216   2.106   0.422 -0.7027  2.8506  0.1427
  399SOL    HW2 1595   0.345   2.029   0.369  1.2040  3.4910 -0.2701
  399SOL     MW 1596   0.281   2.042   0.432  0.1121  1.3273  0.3168
  400SOL     OW 1597   0.558   1.831   0.188 -0.5672 -0.0934  0.5538
  400SOL    HW1 1598   0.530   1.919   0.201 -0.5791  2.0986  1.8509
  400SOL    HW2 1599   0.528   1.782   0.261  1.5237  1.7526 -1.7419
  400SOL     MW 1600   0.551   1.836   0.199 -0.2929  0.4393  0.4220
  401SOL     OW 1601   0.912   2.073   0.195  0.1018  0.0272 -0.1939
  401SOL    HW1 1602   0.917   1.985   0.158 -0.0711 -2.4796 -2.3645
  401SOL    HW2 1603   0.980   2.077   0.256  0.4982  0.5140 -2.4357
  401SOL     MW 1604   0.921   2.062   0.198  0.1313 -0.2393 -0.7761
  402SOL     OW 1605   0.688   2.977   1.675  0.3502  0.4966 -0.4620
  402SOL    HW1 1606   0.756   2.936   1.723  0.3052  1.4601 -0.4132
  402SOL    HW2 1607   0.728   3.061   1.654  0.2482 -2.3671 -0.3180
  402SOL     MW 1608   0.702   2.983   1.679  0.3308  0.2459 -0.4366
  403SOL     OW 1609   0.080   0.394   0.431 -0.1542  0.3605 -0.6104
  403SOL    HW1 1610   0.161   0.450   0.453  2.4417 -3.9787 -0.0843
  403SOL    HW2 1611   0.090   0.375   0.340  2.4362 -1.3251 -0.0036
  403SOL     MW 1612   0.092   0.399   0.422  0.5301 -0.4344 -0.4610
  404SOL     OW 1613   0.978   2.868   0.795 -0.2323  0.1256 -0.1312
  404SOL    HW1 1614   1.018   2.799   0.743  1.4774  1.5553  1.3236
  404SOL    HW2 1615   0.992   2.951   0.743 -0.1509  0.8452 -0.2892
  404SOL     MW 1616   0.985   2.869   0.781  0.0040  0.4092  0.0399
  405SOL     OW 1617   0.507   2.425   1.567  0.7802  0.0909 -0.2929
  405SOL    HW1 1618   0.506   2.494   1.504 -1.5225 -2.0500  1.0216
  405SOL    HW2 1619   0.435   2.362   1.532 -1.4051 -2.2067 -3.8940
  405SOL     MW 1620   0.497   2.426   1.554  0.1881 -0.4947 -0.5946
  406SOL     OW 1621   0.386   2.324   1.100 -0.5777  0.4224  0.0271
  406SOL    HW1 1622   0.296   2.368   1.093 -2.1289  3.3436  1.4924
  406SOL    HW2 1623   0.377   2.251   1.171  1.2864  0.6855  0.9317
  406SOL     MW 1624   0.373   2.320   1.108 -0.5364  0.8425  0.3398
  407SOL     OW 1625   0.015   2.732   1.102  0.2442  0.2621  0.1984
  407SOL    HW1 1626   0.062   2.729   1.184  2.0030  2.3250 -2.2678
  407SOL    HW2 1627   0.089   2.726   1.028  0.9840 -0.1664 -2.8213
  407SOL     MW 1628   0.031   2.731   1.103  0.5739  0.4777 -0.5254
  408SOL     OW 1629   2.088   2.052   0.674 -0.0534  0.1189  0.2976
  408SOL    HW1 1630   2.037   2.065   0.756 -1.4149  3.1037 -0.7237
  408SOL    HW2 1631   2.027   2.020   0.611 -1.5722 -2.0449 -1.5432
  408SOL     MW 1632   2.073   2.050   0.676 -0.4334  0.2273 -0.0800
  409SOL     OW 1633   1.382   0.059   0.907  0.4319 -0.5892 -0.0382
  409SOL    HW1 1634   1.412   0.148   0.875 -0.0187  1.0905  2.3555
  409SOL    HW2 1635   1.456   0.027   0.955 -1.7275 -1.2254  2.2613
  409SOL     MW 1636   1.396   0.067   0.909  0.0875 -0.4515  0.5811
  410SOL     OW 1637   1.103   2.442   1.100 -0.2348 -0.1291 -0.8234
  410SOL    HW1 1638   1.014   2.440   1.071  0.1339  1.5245 -0.7953
  410SOL    HW2 1639   1.141   2.380   1.034  2.1820  2.1196 -0.8435
  410SOL     MW 1640   1.096   2.434   1.087  0.1327  0.3858 -0.8224
  411SOL     OW 1641   1.964   0.040   2.878  0.4104 -0.3670 -0.2081
  411SOL    HW1 1642   1.888   0.046   2.812  0.4909 -0.5638  0.9005
  411SOL    HW2 1643   1.919   0.032   2.960  0.5046  2.7517  1.1263
  411SOL     MW 1644   1.948   0.040   2.880  0.4335  0.0185  0.1142
  412SOL     OW 1645   1.069   2.220   0.592 -0.6379  0.6771 -0.4475
  412SOL    HW1 1646   1.119   2.294   0.626  0.3275 -3.4048 -1.1947
  412SOL    HW2 1647   0.987   2.253   0.566  0.2892  1.3573 -0.6445
  412SOL     MW 1648   1.065   2.234   0.593 -0.3882  0.2282 -0.5721
  413SOL     OW 1649   0.533   2.770   0.067  0.0100 -0.1277 -0.7256
  413SOL    HW1 1650   0.588   2.697   0.091  0.3129  1.4285  0.0508
  413SOL    HW2 1651   0.569   2.827  -0.000 -1.1737 -0.1435 -0.3521
  413SOL     MW 1652   0.545   2.768   0.061 -0.1062  0.0756 -0.5739
  414SOL     OW 1653   1.940   2.995   1.065 -0.6047  0.2367 -0.1995
  414SOL    HW1 1654   1.904   3.006   0.977 -0.9369 -3.2573  1.3218
  414SOL    HW2 1655   2.014   2.930   1.067 -0.2252 -0.1704  0.9495
  414SOL     MW 1656   1.945   2.988   1.054 -0.5985 -0.2780  0.1528
  415SOL     OW 1657   1.715   2.621   1.114  0.2805 -1.1294  0.4319
  415SOL    HW1 1658   1.677   2.541   1.164  2.5784 -1.0503  2.0703
  415SOL    HW2 1659   1.811   2.636   1.140 -0.3873  1.1656  1.9720
  415SOL     MW 1660   1.723   2.612   1.124  0.4956 -0.8162  0.8513
  416SOL     OW 1661   0.597   1.915   1.342 -0.9234  0.2648 -0.1427
  416SOL    HW1 1662   0.522   1.976   1.335 -0.9251  2.1345  1.1331
  416SOL    HW2 1663   0.588   1.861   1.264 -1.3331  0.0936 -0.4637
  416SOL     MW 1664   0.586   1.916   1.331 -0.9776  0.4889 -0.0167
  417SOL     OW 1665   0.996   3.033   2.035 -0.3388 -0.7655 -0.1260
  417SOL    HW1 1666   0.930   2.987   2.091 -0.9749 -0.6735 -1.9840
  417SOL    HW2 1667   0.979   2.983   1.950 -2.6411 -0.6554  0.2945
  417SOL     MW 1668   0.985   3.020   2.031 -0.7265 -0.7388 -0.3157
  418SOL     OW 1669   0.633   2.993   0.215  0.2849  0.0239 -0.4706
  418SOL    HW1 1670   0.697   3.011   0.140  0.7335  0.5771  0.0969
  418SOL    HW2 1671   0.582   2.911   0.194 -0.2822  2.5484  1.4427
  418SOL     MW 1672   0.635   2.984   0.202  0.2692  0.4300 -0.1433
  419SOL     OW 1673   0.471   2.639   1.386  0.6277 -0.0611  0.0906
  419SOL    HW1 1674   0.518   2.725   1.410 -1.4856  0.7765 -1.3167
  419SOL    HW2 1675   0.503   2.628   1.294 -0.4968 -0.0846 -0.2773
  419SOL     MW 1676   0.482   2.649   1.377  0.2005  0.0463 -0.1436
  420SOL     OW 1677   0.756   2.138   0.998  0.0703  0.2968  0.0703
  420SOL    HW1 1678   0.729   2.168   1.089  1.9165 -0.0876 -0.3712
  420SOL    HW2 1679   0.779   2.224   0.960 -1.3114  0.3684 -0.7108
  420SOL     MW 1680   0.755   2.153   1.005  0.1315  0.2555 -0.0910
  421SOL     OW 1681   2.946   0.084   0.035  0.0999  0.2981  0.4788
  421SOL    HW1 1682   2.935   0.065  -0.061  0.3759  1.1188 -0.3043
  421SOL    HW2 1683   2.929   0.003   0.079 -2.8798 -0.8391 -0.7618
  421SOL     MW 1684   2.942   0.071   0.028 -0.2568  0.2563  0.2118
  422SOL     OW 1685   0.830   2.452   0.996  0.1296 -0.4872 -0.2741
  422SOL    HW1 1686   0.745   2.495   1.010  1.0242  1.6086  1.5270
  422SOL    HW2 1687   0.845   2.455   0.902  1.3322 -1.1405  1.1306
  422SOL     MW 1688   0.821   2.458   0.985  0.4063 -0.2969  0.1488
  423SOL     OW 1689   1.515   0.143   0.515 -0.2448 -0.1238  0.1228
  423SOL    HW1 1690   1.532   0.119   0.419 -0.4617 -2.1707  0.5100
  423SOL    HW2 1691   1.496   0.232   0.503 -0.9622  0.6904  1.1517
  423SOL     MW 1692   1.514   0.151   0.501 -0.3681 -0.2864  0.3097
  424SOL     OW 1693   0.684   2.236   1.234 -0.3804 -0.4532 -0.3668
  424SOL    HW1 1694   0.602   2.205   1.255  0.8820 -0.1627 -0.0697
  424SOL    HW2 1695   0.728   2.238   1.320  0.4386  1.4209 -2.0704
  424SOL     MW 1696   0.679   2.232   1.248 -0.1058 -0.1676 -0.5524
  425SOL     OW 1697   1.714   2.819   1.923 -0.0097 -0.4276  0.1073
  425SOL    HW1 1698   1.744   2.862   1.838 -1.5286  2.8950  0.8606
  425SOL    HW2 1699   1.744   2.724   1.926 -1.1291 -0.1175  0.3394
  425SOL     MW 1700   1.722   2.812   1.912 -0.3578  0.0517  0.2373
  426SOL     OW 1701   0.808   1.706   1.935 -0.5726  0.1640  0.1040
  426SOL    HW1 1702   0.754   1.728   1.864 -1.3306  1.1337  0.9590
  426SOL    HW2 1703   0.780   1.778   1.989  0.2451  1.8560 -1.5295
  426SOL     MW 1704   0.797   1.718   1.933 -0.5647  0.5152  0.0013
  427SOL     OW 1705   0.331   1.540   1.887  0.0243 -0.2259 -0.1098
  427SOL    HW1 1706   0.391   1.492   1.945  2.8600 -1.4421 -0.0221
  427SOL    HW2 1707   0.243   1.556   1.928  3.9220  2.5087  1.9452
  427SOL     MW 1708   0.327   1.536   1.900  0.9127 -0.0256  0.1729
  428SOL     OW 1709   0.540   2.543   1.131 -0.3848 -0.1132  0.1066
  428SOL    HW1 1710   0.614   2.523   1.192 -1.1902 -0.9633 -0.7855
  428SOL    HW2 1711   0.491   2.461   1.121 -0.8242  1.1402  0.1407
  428SOL     MW 1712   0.544   2.530   1.138 -0.5490 -0.0600 -0.0066
  429SOL     OW 1713   1.340   2.608   1.083 -0.1816 -0.0738 -0.3243
  429SOL    HW1 1714   1.268   2.542   1.098  0.2241  0.1124 -1.2610
  429SOL    HW2 1715   1.298   2.680   1.025 -1.8182  1.2879  1.3064
  429SOL     MW 1716   1.325   2.609   1.077 -0.3440  0.1304 -0.2328
  430SOL     OW 1717   1.117   2.685   0.630  0.0785 -0.3306 -0.3149
  430SOL    HW1 1718   1.116   2.591   0.644 -0.8069  1.4779  2.5961
  430SOL    HW2 1719   1.047   2.706   0.566  0.4085  0.3426  0.9053
  430SOL     MW 1720   1.107   2.675   0.623  0.0052 -0.0031  0.2302
  431SOL     OW 1721   0.331   1.938   1.105 -0.3741 -0.3497 -0.1318
  431SOL    HW1 1722   0.395   1.868   1.084  1.0357 -1.5007 -2.7233
  431SOL    HW2 1723   0.314   1.975   1.016 -1.8308  2.4460 -1.4262
  431SOL     MW 1724   0.337   1.934   1.090 -0.3803 -0.1327 -0.6445
  432SOL     OW 1725   0.030   0.107   1.171 -0.2873  0.7245 -0.5243
  432SOL    HW1 1726   0.047   0.125   1.264  1.1943 -0.9040 -0.7888
  432SOL    HW2 1727  -0.039   0.031   1.174 -0.0153 -1.9154  0.7669
  432SOL     MW 1728   0.023   0.099   1.183 -0.0560  0.1613 -0.3888
  433SOL     OW 1729   0.606   2.881   1.407  0.0481 -0.5301 -0.0179
  433SOL    HW1 1730   0.621   2.905   1.500 -1.6663 -0.5846 -1.2409
  433SOL    HW2 1731   0.691   2.853   1.376 -1.7777  1.1944  0.7458
  433SOL     MW 1732   0.620   2.880   1.415 -0.4190 -0.3098 -0.0785
  434SOL     OW 1733   1.567   2.822   1.530  0.1420  0.0932  0.4030
  434SOL    HW1 1734   1.472   2.848   1.535 -0.7769  1.8079 -0.4780
  434SOL    HW2 1735   1.581   2.781   1.445 -1.4326  3.9235  0.8020
  434SOL     MW 1736   1.557   2.820   1.519 -0.1870  0.8248  0.3394
  435SOL     OW 1737   2.853   1.777   0.172 -0.6275 -0.1298 -0.5032
  435SOL    HW1 1738   2.922   1.843   0.150 -0.8007  0.9153 -2.4543
  435SOL    HW2 1739   2.846   1.717   0.102  0.4303  0.3634 -0.7657
  435SOL     MW 1740   2.861   1.778   0.160 -0.5108  0.0731 -0.7953
  436SOL     OW 1741   1.376   2.741   0.324 -0.7315 -0.4578 -0.4731
  436SOL    HW1 1742   1.429   2.737   0.403 -0.6261  2.1049 -1.3398
  436SOL    HW2 1743   1.308   2.814   0.340 -0.4191 -2.0166  0.3576
  436SOL     MW 1744   1.374   2.750   0.336 -0.6764 -0.3253 -0.4779
  437SOL     OW 1745   0.876   2.894   1.369 -0.5234 -0.1210  0.4173
  437SOL    HW1 1746   0.871   2.984   1.334 -1.3788  0.2733  0.1600
  437SOL    HW2 1747   0.910   2.845   1.298 -0.7151  0.8250  0.7891
  437SOL     MW 1748   0.880   2.900   1.355 -0.6615  0.0558  0.4324
  438SOL     OW 1749   0.921   2.643   1.948  0.2053  0.0765 -0.3599
  438SOL    HW1 1750   0.891   2.616   2.039 -1.2096  0.5945  0.5340
  438SOL    HW2 1751   0.872   2.593   1.882  2.0809  0.2940 -1.0415
  438SOL     MW 1752   0.910   2.633   1.951  0.2661  0.1735 -0.3319
  439SOL     OW 1753   1.142   2.164   0.342 -0.0229 -0.5064  0.3101
  439SOL    HW1 1754   1.116   2.191   0.433 -0.8277 -0.7090  0.1761
  439SOL    HW2 1755   1.128   2.256   0.306 -0.5274 -1.5460 -0.6147
  439SOL     MW 1756   1.137   2.180   0.349 -0.1956 -0.6703  0.1704
  440SOL     OW 1757   1.597   2.902   3.027 -0.2742 -0.4097 -0.0310
  440SOL    HW1 1758   1.540   2.898   3.103  0.6096  1.4229 -0.9821
  440SOL    HW2 1759   1.650   2.821   3.028  1.3061  3.4387  2.3656
  440SOL     MW 1760   1.597   2.891   3.037  0.0509  0.3399  0.1597
  441SOL     OW 1761   0.335   2.575   0.530 -0.3655  0.2798  0.4616
  441SOL    HW1 1762   0.301   2.569   0.442 -0.1946 -1.3514  0.4208
  441SOL    HW2 1763   0.373   2.661   0.532 -2.6856 -0.9013  0.4405
  441SOL     MW 1764   0.335   2.586   0.519 -0.6491 -0.0912  0.4534
  442SOL     OW 1765   3.057   2.291   0.635 -0.2465  0.1929  0.2292
  442SOL    HW1 1766   3.049   2.381   0.600  1.9537  0.9388  0.3919
  442SOL    HW2 1767   2.985   2.278   0.698 -0.5218  0.9555 -1.0189
  442SOL     MW 1768   3.046   2.301   0.639  0.0075  0.3919  0.0860
  443SOL     OW 1769   1.376   1.762   1.838  0.6273  0.6314 -0.1272
  443SOL    HW1 1770   1.352   1.806   1.754  3.1692  0.3933  2.1385
  443SOL    HW2 1771   1.343   1.673   1.840  0.6774  1.9075  0.9644
  443SOL     MW 1772   1.368   1.756   1.827  0.9693  0.7684  0.3158
  444SOL     OW 1773   0.882   2.581   1.553  0.4668 -0.0881 -0.2582
  444SOL    HW1 1774   0.916   2.485   1.553  0.8595 -1.0459  0.2325
  444SOL    HW2 1775   0.818   2.575   1.627  2.8541  1.4935  2.0968
  444SOL     MW 1776   0.878   2.568   1.563  0.8336 -0.0058  0.1172
  445SOL     OW 1777   0.966   0.076   1.268 -0.1243 -0.0647 -0.1587
  445SOL    HW1 1778   0.924   0.160   1.291  0.8092  1.9023  2.7100
  445SOL    HW2 1779   1.054   0.095   1.235  1.8943 -0.9055 -0.7702
  445SOL     MW 1780   0.972   0.090   1.267  0.2652  0.0839  0.1391
  446SOL     OW 1781   2.695   2.803   1.070 -0.3006 -0.2722  0.6701
  446SOL    HW1 1782   2.642   2.838   0.996 -1.6754 -2.0568  0.6527
  446SOL    HW2 1783   2.762   2.738   1.039  3.1512  0.7660  1.2378
  446SOL     MW 1784   2.697   2.799   1.056 -0.0266 -0.3707  0.7427
  447SOL     OW 1785   3.041   2.032   1.712  0.0464 -0.4455 -0.0998
  447SOL    HW1 1786   3.112   1.973   1.742 -2.5707  0.4231 -0.5891
  447SOL    HW2 1787   2.987   1.985   1.642  0.0032 -1.1856  0.1096
  447SOL     MW 1788   3.043   2.018   1.706 -0.3046 -0.4286 -0.1367
  448SOL     OW 1789   1.670   2.372   1.656 -0.1488  0.6617  0.2554
  448SOL    HW1 1790   1.617   2.292   1.673  0.8116  2.7656 -0.3523
  448SOL    HW2 1791   1.622   2.453   1.687  1.4332 -1.9146 -2.6197
  448SOL     MW 1792   1.656   2.372   1.662  0.1867  0.5993 -0.2041
  449SOL     OW 1793   0.791   2.952   0.438 -0.2452 -0.2446 -0.4557
  449SOL    HW1 1794   0.737   2.965   0.358  0.7193 -0.4429 -0.7901
  449SOL    HW2 1795   0.731   2.965   0.514 -0.5746  0.1535 -1.2474
  449SOL     MW 1796   0.776   2.956   0.437 -0.1614 -0.2182 -0.6042
  450SOL     OW 1797   1.218   2.416   0.703 -0.2778  0.4174  0.3031
  450SOL    HW1 1798   1.240   2.380   0.792 -0.5331 -2.2611  0.2441
  450SOL    HW2 1799   1.308   2.403   0.669 -0.6977  0.9450  1.2418
  450SOL     MW 1800   1.233   2.410   0.711 -0.3669  0.1336  0.4191
  451SOL     OW 1801   0.587   2.028   1.656  0.1891  0.0055 -0.0770
  451SOL    HW1 1802   0.641   2.112   1.671 -0.2232 -0.4772 -1.0790
  451SOL    HW2 1803   0.577   2.024   1.559 -1.3604 -2.8370  0.9533
  451SOL     MW 1804   0.593   2.038   1.645 -0.0697 -0.4333 -0.0732
  452SOL     OW 1805   0.259   2.742   0.105 -0.3173  0.6762 -0.1298
  452SOL    HW1 1806   0.351   2.747   0.092  1.6256 -2.4743 -0.8002
  452SOL    HW2 1807   0.220   2.729   0.010  0.1093 -0.8768 -2.1807
  452SOL     MW 1808   0.266   2.741   0.091 -0.0047  0.0556 -0.4889
  453SOL     OW 1809   0.407   2.992   1.700 -0.3631  0.3608 -0.2380
  453SOL    HW1 1810   0.508   2.997   1.692  1.2293  3.0271  0.6284
  453SOL    HW2 1811   0.382   3.009   1.611  2.9887  0.1514  1.4729
  453SOL     MW 1812   0.417   2.995   1.687  0.2892  0.6850  0.1020
  454SOL     OW 1813   1.014   2.755   1.187 -0.3547 -1.3681  0.1679
  454SOL    HW1 1814   0.957   2.686   1.225  0.5325 -0.7679  0.1987
  454SOL    HW2 1815   0.955   2.798   1.126 -1.2384  0.1448  0.4483
  454SOL     MW 1816   0.999   2.751   1.184 -0.3542 -1.0893  0.2090
  455SOL     OW 1817   1.527   2.953   0.203 -0.0738 -0.2892  0.1386
  455SOL    HW1 1818   1.612   2.942   0.244 -0.1336  1.0318 -0.1483
  455SOL    HW2 1819   1.461   2.901   0.255 -0.2212  1.0947  1.8250
  455SOL     MW 1820   1.529   2.945   0.215 -0.1011  0.0677  0.3232
  456SOL     OW 1821   2.886   0.390   1.323 -0.2553  0.5445 -0.1632
  456SOL    HW1 1822   2.866   0.310   1.273 -0.4921 -3.3278 -1.0822
  456SOL    HW2 1823   2.957   0.432   1.274 -1.4503 -2.1338 -1.6771
  456SOL     MW 1824   2.893   0.385   1.310 -0.4442 -0.3198 -0.4842
  457SOL     OW 1825   0.898   1.564   3.001  0.7701  0.0596  0.6060
  457SOL    HW1 1826   0.826   1.550   3.066  1.4188  0.2351 -2.2369
  457SOL    HW2 1827   0.977   1.518   3.019 -1.0740 -3.3619 -0.9561
  457SOL     MW 1828   0.899   1.556   3.012  0.6124 -0.3687  0.0248
  458SOL     OW 1829   1.469   1.418   0.637 -0.3184  0.1205  0.0128
  458SOL    HW1 1830   1.385   1.449   0.677 -1.5016  1.4915 -0.3231
  458SOL    HW2 1831   1.438   1.358   0.577 -1.5858 -0.0472  1.6047
  458SOL     MW 1832   1.454   1.414   0.634 -0.6417  0.2793  0.1785
  459SOL     OW 1833   1.577   0.142   0.235  0.5256 -0.4343 -0.1076
  459SOL    HW1 1834   1.542   0.057   0.203 -0.0730  0.8397 -2.1563
  459SOL    HW2 1835   1.540   0.215   0.176  0.7164 -1.4640 -0.4540
  459SOL     MW 1836   1.568   0.140   0.223  0.4718 -0.4021 -0.4236
  460SOL     OW 1837   1.729   2.163   0.639  0.4277  0.4618  0.3100
  460SOL    HW1 1838   1.646   2.125   0.685 -0.5672 -2.1561  1.8973
  460SOL    HW2 1839   1.771   2.080   0.600 -3.5391 -0.2342 -1.5872
  460SOL     MW 1840   1.724   2.147   0.640 -0.2269  0.0246  0.2691
  461SOL     OW 1841   0.549   2.433   0.609 -0.2878 -0.1874 -0.0468
  461SOL    HW1 1842   0.468   2.469   0.570 -0.3325  0.1315  0.3789
  461SOL    HW2 1843   0.530   2.399   0.702  2.1829 -2.3870 -0.4580
  461SOL     MW 1844   0.536   2.433   0.616  0.0323 -0.4356 -0.0448
  462SOL     OW 1845   0.289   0.248   1.270  0.1469 -0.0460  0.5532
  462SOL    HW1 1846   0.305   0.185   1.198 -1.5465 -4.4361 -1.6841
  462SOL    HW2 1847   0.375   0.259   1.305 -3.0482 -0.4394 -2.4851
  462SOL     MW 1848   0.303   0.241   1.265 -0.4981 -0.6771 -0.1429
  463SOL     OW 1849   0.989   0.024   0.695 -0.2990 -0.6973  0.0626
  463SOL    HW1 1850   1.021   0.013   0.605  0.6446 -1.8452  0.5199
  463SOL    HW2 1851   0.893   0.038   0.687 -0.8906 -1.5385  1.2235
  463SOL     MW 1852   0.980   0.024   0.682 -0.2526 -0.9597  0.2761
  464SOL     OW 1853   0.769   2.965   2.173  0.4883  0.7486  0.6960
  464SOL    HW1 1854   0.711   2.895   2.204  3.7572  3.0404 -1.6725
  464SOL    HW2 1855   0.827   2.983   2.249  2.8063  1.7541  3.4017
  464SOL     MW 1856   0.769   2.958   2.187  1.2254  1.1837  0.7405
  465SOL     OW 1857   0.721   0.281   0.535 -0.3432  0.5876  0.2726
  465SOL    HW1 1858   0.709   0.244   0.623  0.9477  3.0972 -0.1889
  465SOL    HW2 1859   0.745   0.212   0.473 -0.0297 -0.9609  1.5273
  465SOL     MW 1860   0.722   0.267   0.539 -0.1315  0.7144  0.3772
  466SOL     OW 1861   1.064   1.980   0.725  0.0175  0.0102  0.3555
  466SOL    HW1 1862   1.067   1.922   0.646 -1.1809  1.2305 -0.8136
  466SOL    HW2 1863   1.065   2.072   0.689 -3.8736 -0.0550  0.1372
  466SOL     MW 1864   1.064   1.985   0.710 -0.6540  0.1626  0.1724
  467SOL     OW 1865   1.238   2.245   0.925  0.0526 -0.2707 -0.7964
  467SOL    HW1 1866   1.335   2.240   0.939  1.5138 -1.5977  0.4505
  467SOL    HW2 1867   1.204   2.160   0.891  1.6631 -0.5589  0.6748
  467SOL     MW 1868   1.247   2.233   0.923  0.4579 -0.4838 -0.4378
  468SOL     OW 1869   0.352   2.586   2.005 -0.2527  0.0071  0.1791
  468SOL    HW1 1870   0.398   2.520   1.953 -0.1698 -0.0757 -1.4646
  468SOL    HW2 1871   0.372   2.671   1.959  1.0961 -2.8276  2.2379
  468SOL     MW 1872   0.361   2.589   1.992 -0.0638 -0.3778  0.2339
  469SOL     OW 1873   0.374   2.145   1.815 -0.5423 -0.2437  0.0100
  469SOL    HW1 1874   0.307   2.080   1.800  1.0668  0.6202 -1.3023
  469SOL    HW2 1875   0.451   2.112   1.768 -1.5848  1.5383 -2.1699
  469SOL     MW 1876   0.376   2.132   1.807 -0.4675  0.1054 -0.4507
  470SOL     OW 1877   3.029   2.563   0.144 -0.2954  0.3774 -0.2086
  470SOL    HW1 1878   2.961   2.510   0.187  1.4854 -2.5278 -0.8253
  470SOL    HW2 1879   3.003   2.565   0.051  1.7207  2.4703 -2.2537
  470SOL     MW 1880   3.016   2.557   0.137  0.2056  0.2702 -0.5598
  471SOL     OW 1881   1.256   2.737   1.385  0.3305 -0.1104  0.7501
  471SOL    HW1 1882   1.168   2.743   1.432 -0.3767  2.1818  2.3663
  471SOL    HW2 1883   1.226   2.725   1.296  1.4173 -1.7373  1.9619
  471SOL     MW 1884   1.240   2.736   1.380  0.3806 -0.0226  1.1233
  472SOL     OW 1885   2.900   2.094   0.332 -0.2919  0.0012  0.5994
  472SOL    HW1 1886   2.948   2.063   0.242  3.0636  1.8183  0.7604
  472SOL    HW2 1887   2.873   2.009   0.382  0.5322 -1.4846  2.1437
  472SOL     MW 1888   2.903   2.078   0.327  0.2596  0.0449  0.8244
  473SOL     OW 1889   0.792   2.551   1.258  0.2948  0.2167 -0.4266
  473SOL    HW1 1890   0.836   2.464   1.244  2.4206  1.3325  1.6587
  473SOL    HW2 1891   0.822   2.571   1.353  0.5181 -2.4408  1.7733
  473SOL     MW 1892   0.801   2.542   1.268  0.6047  0.0133  0.1388
  474SOL     OW 1893   0.765   2.243   1.720 -0.4887  0.2008  0.0888
  474SOL    HW1 1894   0.854   2.229   1.751  0.4690 -1.3081  0.5323
  474SOL    HW2 1895   0.781   2.234   1.625 -1.0635  2.7421 -1.7004
  474SOL     MW 1896   0.779   2.240   1.711 -0.4382  0.3370 -0.0888
  475SOL     OW 1897   1.618   0.009   1.440 -0.4016  0.7036  0.0519
  475SOL    HW1 1898   1.557   0.055   1.377  0.4939 -0.8253 -0.2418
  475SOL    HW2 1899   1.579  -0.077   1.446  1.6382  0.7654 -0.3391
  475SOL     MW 1900   1.605   0.004   1.433 -0.0143  0.5100 -0.0385
  476SOL     OW 1901   1.483   2.609   0.815  0.2118  0.9853  0.7715
  476SOL    HW1 1902   1.459   2.590   0.903  1.4966 -2.0462 -1.0684
  476SOL    HW2 1903   1.512   2.699   0.820  1.2474  1.8927 -1.8683
  476SOL     MW 1904   1.484   2.618   0.827  0.5180  0.7050  0.1805
  477SOL     OW 1905   0.857   2.493   0.685 -0.2651 -0.4067  0.7991
  477SOL    HW1 1906   0.864   2.550   0.607 -0.5369  1.2634 -4.2038
  477SOL    HW2 1907   0.810   2.422   0.640  1.6589 -0.9853 -1.4582
  477SOL     MW 1908   0.851   2.491   0.669 -0.0471 -0.2627 -0.1588
  478SOL     OW 1909   0.231   2.652   0.905 -0.7941  0.2633  0.1601
  478SOL    HW1 1910   0.281   2.742   0.917  0.5017  1.9080 -1.2234
  478SOL    HW2 1911   0.290   2.577   0.889  1.7997  0.2806  1.3466
  478SOL     MW 1912   0.245   2.654   0.905 -0.2809  0.4826  0.1341
  479SOL     OW 1913   1.409   1.933   1.299  0.6879 -0.2841 -0.1877
  479SOL    HW1 1914   1.360   1.970   1.372 -1.2606  0.6801  1.1318
  479SOL    HW2 1915   1.483   1.894   1.347  1.4547  0.8845  1.2225
  479SOL     MW 1916   1.412   1.933   1.315  0.5320 -0.0027  0.1725
  480SOL     OW 1917   1.850   2.394   1.310 -0.5296 -0.1368  0.2743
  480SOL    HW1 1918   1.844   2.302   1.335  1.2731  1.5971  0.7513
  480SOL    HW2 1919   1.886   2.389   1.219  2.4095 -1.2449  2.3997
  480SOL     MW 1920   1.854   2.381   1.301  0.0960 -0.0542  0.6177
  481SOL     OW 1921   1.188   0.119   1.111 -0.6411 -0.0146  0.3485
  481SOL    HW1 1922   1.235   0.082   1.034  0.6423 -3.7344 -0.4541
  481SOL    HW2 1923   1.179   0.211   1.091 -0.0131 -0.1195  1.9246
  481SOL     MW 1924   1.193   0.127   1.098 -0.3889 -0.5192  0.4505
  482SOL     OW 1925   1.035   0.034   0.427 -0.6791 -0.2000 -0.5005
  482SOL    HW1 1926   0.947   0.004   0.417 -1.1445  1.8655 -1.5763
  482SOL    HW2 1927   1.035   0.126   0.400 -0.9771  0.8722  1.0199
  482SOL     MW 1928   1.024   0.042   0.422 -0.7798  0.2140 -0.4418
  483SOL     OW 1929   0.401   2.863   0.541  0.8039  0.1074 -0.7364
  483SOL    HW1 1930   0.350   2.887   0.469 -1.5006  0.7054  0.7646
  483SOL    HW2 1931   0.357   2.900   0.620  0.0984 -2.8253 -0.0891
  483SOL     MW 1932   0.389   2.871   0.542  0.4068 -0.2006 -0.4529
  484SOL     OW 1933   1.667   1.855   1.441 -0.1179  0.0959 -0.2415
  484SOL    HW1 1934   1.721   1.937   1.426 -0.0152  3.7158 -0.2810
  484SOL    HW2 1935   1.658   1.856   1.537  0.9662  0.8183 -0.1172
  484SOL     MW 1936   1.673   1.866   1.451  0.0387  0.6688 -0.2303
  485SOL     OW 1937   0.551   2.288   0.349  0.0567  0.5164 -0.3252
  485SOL    HW1 1938   0.628   2.343   0.379  3.4948  0.3904  0.5100
  485SOL    HW2 1939   0.480   2.358   0.367 -3.9877 -2.4845  0.9800
  485SOL     MW 1940   0.552   2.305   0.355 -0.0233  0.1039 -0.0428
  486SOL     OW 1941   0.096   2.459   1.433 -0.1887 -0.3892  0.3289
  486SOL    HW1 1942   0.129   2.551   1.403  0.2039 -0.9301 -1.7203
  486SOL    HW2 1943   0.100   2.476   1.528  2.0286 -3.1049  0.0894
  486SOL     MW 1944   0.101   2.474   1.442  0.1557 -0.8189  0.0269
  487SOL     OW 1945   1.252   1.630   0.991 -0.5069  0.0804  0.5657
  487SOL    HW1 1946   1.248   1.716   1.038  1.5138  1.2987  1.7016
  487SOL    HW2 1947   1.346   1.631   0.977  0.8122  0.4068 -0.0477
  487SOL     MW 1948   1.264   1.642   0.996 -0.0663  0.2842  0.6346
  488SOL     OW 1949   1.540   1.879   0.561  0.3674 -0.2598 -0.5120
  488SOL    HW1 1950   1.551   1.944   0.495  0.2756  1.0464  0.2934
  488SOL    HW2 1951   1.455   1.840   0.544 -0.9134  0.4734  0.1149
  488SOL     MW 1952   1.530   1.883   0.550  0.1863  0.0092 -0.3230
  489SOL     OW 1953   0.763   0.790   0.505  0.3186  0.3001  0.2378
  489SOL    HW1 1954   0.768   0.698   0.501 -1.0472  2.0314  2.9826
  489SOL    HW2 1955   0.734   0.804   0.596 -1.3834  1.1933  1.2582
  489SOL     MW 1956   0.760   0.779   0.517 -0.0862  0.6464  0.7346
  490SOL     OW 1957   1.404   2.100   0.402 -0.3886  0.0877  0.2156
  490SOL    HW1 1958   1.457   2.179   0.378 -0.7635  0.3083 -0.2417
  490SOL    HW2 1959   1.313   2.129   0.394 -1.1337  1.5037 -2.5951
  490SOL     MW 1960   1.399   2.114   0.398 -0.5364  0.3036 -0.2156
  491SOL     OW 1961   1.236   2.951   0.392 -0.1456  0.2637  0.4522
  491SOL    HW1 1962   1.268   3.006   0.463 -1.0897  1.6984 -0.4058
  491SOL    HW2 1963   1.156   3.009   0.374 -3.1250 -0.6491  0.1848
  491SOL     MW 1964   1.230   2.966   0.399 -0.6633  0.3326  0.3037
  492SOL     OW 1965   1.470   2.142   0.696  0.3465  0.3310 -0.1299
  492SOL    HW1 1966   1.451   2.109   0.607  0.8153 -0.7921 -1.8284
  492SOL    HW2 1967   1.440   2.081   0.766  1.4354 -0.1160  0.8078
  492SOL     MW 1968   1.464   2.130   0.693  0.5520  0.1238 -0.2303
  493SOL     OW 1969   0.170   2.975   0.391 -0.4452 -0.5119  1.2281
  493SOL    HW1 1970   0.112   3.021   0.455  0.6777 -0.8323  2.3072
  493SOL    HW2 1971   0.157   3.001   0.296 -0.7779 -0.8443 -0.4958
  493SOL     MW 1972   0.161   2.985   0.387 -0.3410 -0.5980  1.1430
  494SOL     OW 1973   0.391   2.406   1.808  0.2517 -0.5183 -0.4727
  494SOL    HW1 1974   0.396   2.303   1.819  2.5588 -0.8864 -0.1135
  494SOL    HW2 1975   0.425   2.421   1.723 -1.2159  0.7240 -0.9210
  494SOL     MW 1976   0.396   2.395   1.799  0.3625 -0.4029 -0.4845
  495SOL     OW 1977   2.907   1.652   2.720  0.0842  0.1050 -0.1191
  495SOL    HW1 1978   2.879   1.729   2.760 -0.6030 -1.5850  0.2857
  495SOL    HW2 1979   2.908   1.582   2.786 -0.2575  0.8153  0.9387
  495SOL     MW 1980   2.903   1.653   2.734 -0.0515 -0.0242  0.0739
  496SOL     OW 1981   2.774   2.273   2.694  0.7467  0.5787 -0.5041
  496SOL    HW1 1982   2.781   2.197   2.755  0.9084  1.1844 -0.1194
  496SOL    HW2 1983   2.870   2.296   2.684  2.0551  0.5144 -0.4254
  496SOL     MW 1984   2.788   2.266   2.701  0.9406  0.6501 -0.4429
  497SOL     OW 1985   1.499   2.322   2.515 -0.2136 -0.3316 -0.2926
  497SOL    HW1 1986   1.493   2.260   2.435 -1.3602 -0.5342 -2.8476
  497SOL    HW2 1987   1.457   2.273   2.586 -1.6702 -2.9263  1.0347
  497SOL     MW 1988   1.492   2.308   2.514 -0.5571 -0.7007 -0.4546
  498SOL     OW 1989   1.553   2.776   2.265  0.6599 -0.7124 -0.2467
  498SOL    HW1 1990   1.578   2.688   2.229  0.3164 -1.4854  0.9070
  498SOL    HW2 1991   1.627   2.790   2.334  0.9707  0.8977  0.7511
  498SOL     MW 1992   1.566   2.766   2.269  0.6556 -0.6020  0.0372
  499SOL     OW 1993   0.920   0.148   0.021 -0.2628 -0.0109 -0.3956
  499SOL    HW1 1994   0.879   0.191   0.093 -0.4946 -0.8504 -0.2738
  499SOL    HW2 1995   0.890   0.058   0.019 -1.7798 -0.0052  2.2905
  499SOL     MW 1996   0.910   0.141   0.030 -0.4935 -0.1209 -0.0252
  500SOL     OW 1997   1.035   2.469   2.764 -0.2117 -0.1254 -0.4222
  500SOL    HW1 1998   1.065   2.467   2.858 -1.4004 -1.5610  0.4540
  500SOL    HW2 1999   0.965   2.533   2.784 -1.2757 -1.7288 -0.3007
  500SOL     MW 2000   1.029   2.477   2.779 -0.5089 -0.5264 -0.2906
  501SOL     OW 2001   1.736   2.210   0.020  0.1488  0.1961 -0.3304
  501SOL    HW1 2002   1.714   2.305   0.028  0.3664 -0.4181  2.3129
  501SOL    HW2 2003   1.833   2.205   0.038 -0.2893  0.1801  2.5232
  501SOL     MW 2004   1.746   2.222   0.024  0.1197  0.1129  0.3949
  502SOL     OW 2005   0.176   2.744   2.962 -0.1822  0.8583 -0.6693
  502SOL    HW1 2006   0.087   2.735   2.932 -0.5619  3.7374 -0.4194
  502SOL    HW2 2007   0.204   2.832   2.940  1.4331 -0.3074  0.2672
  502SOL     MW 2008   0.168   2.754   2.955 -0.0191  1.0844 -0.5128
  503SOL     OW 2009   1.150   2.607   2.095  0.1426  0.0980 -0.3893
  503SOL    HW1 2010   1.203   2.592   2.018  2.3119 -1.0627  1.5931
  503SOL    HW2 2011   1.061   2.612   2.061 -1.2058 -0.4792  1.7127
  503SOL     MW 2012   1.145   2.606   2.080  0.2509 -0.1313  0.1496
  504SOL     OW 2013   0.080   2.628   2.084  0.0246  0.1910 -0.2708
  504SOL    HW1 2014   0.170   2.638   2.057  0.4081  2.7610 -0.7673
  504SOL    HW2 2015   0.080   2.541   2.129 -1.0345 -1.8401 -1.9010
  504SOL     MW 2016   0.092   2.618   2.087 -0.0646  0.2621 -0.5514
  505SOL     OW 2017   1.634   2.664   2.707 -0.1275  0.0959  0.4895
  505SOL    HW1 2018   1.672   2.692   2.617  0.0587 -0.8459 -2.7329
  505SOL    HW2 2019   1.570   2.732   2.720  3.1930 -0.4769 -0.8366
  505SOL     MW 2020   1.631   2.677   2.697  0.3352 -0.1039 -0.1107
  506SOL     OW 2021   1.599   0.033   2.839 -0.0852 -0.2903  1.1238
  506SOL    HW1 2022   1.645   0.002   2.910  1.5962  2.2867 -2.0133
  506SOL    HW2 2023   1.651  -0.001   2.768 -1.1449 -0.6615  0.2224
  506SOL     MW 2024   1.612   0.025   2.839 -0.0032  0.0007  0.5910
  507SOL     OW 2025   0.880   2.687   2.850  0.0234 -0.2802  0.2130
  507SOL    HW1 2026   0.909   2.750   2.782  3.1765 -0.0237  0.2173
  507SOL    HW2 2027   0.797   2.642   2.827  1.2785 -0.1823 -2.1701
  507SOL     MW 2028   0.873   2.690   2.838  0.6050 -0.2335 -0.1009
  508SOL     OW 2029   1.159   2.094   2.572  0.9077  0.6841 -0.2849
  508SOL    HW1 2030   1.215   2.103   2.647 -0.7364 -0.8035 -3.1924
  508SOL    HW2 2031   1.082   2.154   2.598 -1.7291 -1.3396  0.8927
  508SOL     MW 2032   1.156   2.103   2.586  0.3428  0.2208 -0.5131
  509SOL     OW 2033   0.593   2.571   2.828 -0.2511  0.0795 -0.0657
  509SOL    HW1 2034   0.594   2.534   2.739 -0.8559 -0.2005 -1.3432
  509SOL    HW2 2035   0.530   2.647   2.833 -0.9049  2.1261 -2.9068
  509SOL     MW 2036   0.585   2.576   2.817 -0.4171  0.3126 -0.6091
  510SOL     OW 2037   1.498   2.592   1.678 -0.1573 -0.0785  0.1965
  510SOL    HW1 2038   1.517   2.684   1.637 -0.8787  2.9596 -0.1041
  510SOL    HW2 2039   1.418   2.594   1.731 -2.1780  0.1917 -1.9754
  510SOL     MW 2040   1.490   2.604   1.680 -0.5191  0.3580 -0.1297
  511SOL     OW 2041   0.323   2.547   2.530 -0.0919  0.0018  0.0838
  511SOL    HW1 2042   0.417   2.522   2.554  1.4258  1.8422  1.8875
  511SOL    HW2 2043   0.320   2.539   2.433  1.0948  1.4342  0.7415
  511SOL     MW 2044   0.335   2.543   2.520  0.2649  0.4336  0.4086
  512SOL     OW 2045   1.032   2.010   2.865 -0.4394  0.3050  0.4378
  512SOL    HW1 2046   0.969   2.034   2.930 -0.0662  0.8544  0.3202
  512SOL    HW2 2047   1.064   1.925   2.900 -0.9118  0.5417 -0.5986
  512SOL     MW 2048   1.028   2.002   2.878 -0.4525  0.4087  0.2855
  513SOL     OW 2049   1.630   2.528   2.175  1.2859 -0.2509  0.5824
  513SOL    HW1 2050   1.721   2.548   2.129 -1.9491  1.1164  0.6262
  513SOL    HW2 2051   1.645   2.473   2.249 -0.3424  1.5828 -1.6782
  513SOL     MW 2052   1.644   2.524   2.179  0.6442  0.1714  0.2899
  514SOL     OW 2053   0.165   2.356   2.657  0.1899 -0.3674  0.1877
  514SOL    HW1 2054   0.225   2.433   2.637  3.1005 -1.5514  0.4803
  514SOL    HW2 2055   0.211   2.309   2.724  1.5822 -1.4389 -2.2581
  514SOL     MW 2056   0.179   2.360   2.663  0.7576 -0.6650 -0.0964
  515SOL     OW 2057   1.076   1.940   1.858 -0.6709  0.9279  0.3472
  515SOL    HW1 2058   1.036   2.023   1.839  3.0263 -1.2949  2.9600
  515SOL    HW2 2059   1.147   1.957   1.924  1.6733  1.6450  1.8276
  515SOL     MW 2060   1.080   1.953   1.864  0.1262  0.7293  0.8872
  516SOL     OW 2061   1.387   2.542   2.939  0.7207 -0.1045 -0.0015
  516SOL    HW1 2062   1.391   2.531   2.843  0.8467  0.4922 -1.5378
  516SOL    HW2 2063   1.303   2.501   2.968 -0.8704 -0.1239  2.4280
  516SOL     MW 2064   1.377   2.535   2.930  0.5274 -0.0283  0.1163
  517SOL     OW 2065   0.612   2.358   2.286 -0.2886  0.0963 -0.3870
  517SOL    HW1 2066   0.538   2.423   2.295  0.5115  1.5972  0.1004
  517SOL    HW2 2067   0.559   2.289   2.256  2.3327 -1.2695  0.2785
  517SOL     MW 2068   0.595   2.357   2.283  0.1628  0.1141 -0.2349
  518SOL     OW 2069   1.786   0.027   3.072 -0.1632 -0.3834 -0.3297
  518SOL    HW1 2070   1.745   0.095   3.129 -1.8867 -1.4202 -0.8015
  518SOL    HW2 2071   1.747  -0.048   3.117 -0.5938  1.4382  0.9194
  518SOL     MW 2072   1.776   0.026   3.086 -0.4474 -0.2799 -0.2272
  519SOL     OW 2073   0.732   2.509   1.778 -0.4679  0.5201 -0.4521
  519SOL    HW1 2074   0.738   2.414   1.770 -0.0798 -2.2362  0.8730
  519SOL    HW2 2075   0.637   2.524   1.795 -1.1675 -0.6629 -0.3167
  519SOL     MW 2076   0.720   2.499   1.779 -0.5090  0.0004 -0.2594
  520SOL     OW 2077   1.218   2.195   2.943 -0.0843  0.4612  0.2853
  520SOL    HW1 2078   1.138   2.138   2.915  0.4057 -0.5014 -1.0533
  520SOL    HW2 2079   1.257   2.159   3.027  0.0646  0.3149 -0.5860
  520SOL     MW 2080   1.212   2.183   2.951 -0.0000  0.3149 -0.0063
  521SOL     OW 2081   1.774   2.071   2.211 -0.4546 -0.7988 -0.6844
  521SOL    HW1 2082   1.769   2.075   2.116 -0.5213  0.4861 -0.0927
  521SOL    HW2 2083   1.771   1.978   2.244  1.8028  0.4610 -1.7449
  521SOL     MW 2084   1.773   2.059   2.203 -0.1656 -0.4630 -0.7463
  522SOL     OW 2085   2.897   2.530   2.259  0.2454 -0.2170  0.6327
  522SOL    HW1 2086   2.981   2.490   2.298  0.1591  0.0207  0.3840
  522SOL    HW2 2087   2.922   2.625   2.244  0.2725 -2.3854 -2.0026
  522SOL     MW 2088   2.911   2.537   2.262  0.2376 -0.4718  0.2522
  523SOL     OW 2089   0.864   1.512   2.149  0.7270 -0.3203  0.1358
  523SOL    HW1 2090   0.832   1.566   2.078  1.8925  0.7701 -1.2198
  523SOL    HW2 2091   0.931   1.462   2.101 -1.4450 -1.4933 -0.5736
  523SOL     MW 2092   0.869   1.512   2.133  0.5942 -0.3312 -0.1366
  524SOL     OW 2093   0.581   2.336   2.973 -0.0795 -0.1078 -0.1719
  524SOL    HW1 2094   0.606   2.414   2.925  1.1030  0.9171  0.1485
  524SOL    HW2 2095   0.643   2.269   2.934  0.1644  1.2496 -1.0856
  524SOL     MW 2096   0.592   2.338   2.962  0.1087  0.2065 -0.2502
  525SOL     OW 2097   0.481   2.200   2.129  0.4717 -0.5186 -0.3055
  525SOL    HW1 2098   0.452   2.118   2.159 -2.6080 -0.7549  0.2366
  525SOL    HW2 2099   0.543   2.187   2.054 -1.2693  0.6474  0.5666
  525SOL     MW 2100   0.485   2.188   2.123 -0.1643 -0.3959 -0.1189
  526SOL     OW 2101   0.691   2.150   1.972 -0.4757 -0.2849  0.0853
  526SOL    HW1 2102   0.719   2.187   1.895 -0.4571 -0.5749  1.1341
  526SOL    HW2 2103   0.763   2.173   2.036 -1.9277 -0.6480 -3.1616
  526SOL     MW 2104   0.704   2.158   1.970 -0.6648 -0.3710 -0.2047
  527SOL     OW 2105   1.292   1.916   2.056  0.2932  0.5646  0.0091
  527SOL    HW1 2106   1.254   1.887   2.136  2.3500  1.0227 -0.6509
  527SOL    HW2 2107   1.317   1.844   2.004  1.7553  2.2338  1.3517
  527SOL     MW 2108   1.291   1.903   2.060  0.7575  0.8453  0.0991
  528SOL     OW 2109   0.662   2.914   2.925 -0.3547 -0.2843 -0.0863
  528SOL    HW1 2110   0.653   3.010   2.927 -0.6418 -0.4473 -0.0611
  528SOL    HW2 2111   0.633   2.891   2.834  2.0851  3.6075 -4.1697
  528SOL     MW 2112   0.657   2.924   2.913 -0.0707  0.2077 -0.6217
  529SOL     OW 2113   1.001   2.227   1.869 -0.3763 -0.0252  1.0795
  529SOL    HW1 2114   1.025   2.253   1.959 -1.8234  1.9110  0.4899
  529SOL    HW2 2115   1.017   2.309   1.822 -0.9231 -0.6107  1.9879
  529SOL     MW 2116   1.006   2.241   1.874 -0.6394  0.1530  1.1216
  530SOL     OW 2117   1.120   2.429   3.015 -0.0527  0.2408  0.7321
  530SOL    HW1 2118   1.130   2.421   3.106  3.7140  1.4349 -0.1191
  530SOL    HW2 2119   1.153   2.343   2.977 -4.1074  0.4464  0.7620
  530SOL     MW 2120   1.126   2.417   3.022 -0.0907  0.4255  0.6238
  531SOL     OW 2121   0.911   1.857   2.651 -0.3287  0.2282 -0.1957
  531SOL    HW1 2122   0.940   1.935   2.696 -0.3338  0.2659 -1.8010
  531SOL    HW2 2123   0.867   1.795   2.706 -3.4910 -2.0743 -1.7280
  531SOL     MW 2124   0.909   1.859   2.664 -0.7466 -0.0706 -0.6097
  532SOL     OW 2125   1.696   0.283   2.837  0.1904 -0.0664 -0.2076
  532SOL    HW1 2126   1.696   0.182   2.846  0.2090 -0.7377 -0.0070
  532SOL    HW2 2127   1.782   0.311   2.868  0.8571  0.3144 -2.0662
  532SOL     MW 2128   1.707   0.273   2.842  0.2808 -0.1047 -0.4264
  533SOL     OW 2129   1.764   2.698   2.974  0.0236 -0.3577 -0.1431
  533SOL    HW1 2130   1.758   2.629   3.045 -0.4915 -3.5084  0.3694
  533SOL    HW2 2131   1.725   2.661   2.891  0.5397 -2.4389 -0.7366
  533SOL     MW 2132   1.758   2.684   2.972  0.0237 -1.0480 -0.1538
  534SOL     OW 2133   1.725   2.459   2.432  0.0338 -0.0305 -0.3371
  534SOL    HW1 2134   1.652   2.420   2.472  1.3839  1.0178  1.0482
  534SOL    HW2 2135   1.787   2.452   2.506 -0.0287 -0.3760 -2.0643
  534SOL     MW 2136   1.724   2.453   2.447  0.2037  0.0622 -0.3822
  535SOL     OW 2137   1.848   2.328   1.920  0.0117 -0.2600  0.1158
  535SOL    HW1 2138   1.785   2.352   1.852  0.3835 -2.4146  2.6574
  535SOL    HW2 2139   1.937   2.356   1.892 -0.4987  4.2319 -1.1642
  535SOL     MW 2140   1.851   2.335   1.908 -0.0066  0.0484  0.2822
  536SOL     OW 2141   0.456   1.813   2.019 -0.3013 -0.6142  0.1772
  536SOL    HW1 2142   0.455   1.754   1.944  0.6978 -1.9176 -0.8804
  536SOL    HW2 2143   0.549   1.842   2.028  1.3466 -1.1070 -3.4998
  536SOL     MW 2144   0.468   1.809   2.010  0.0479 -0.8512 -0.4475
  537SOL     OW 2145   1.070   0.215   2.914  0.0835 -0.5352 -0.4150
  537SOL    HW1 2146   0.999   0.205   2.981  0.4539  0.2364 -1.9555
  537SOL    HW2 2147   1.091   0.313   2.910 -2.3795  3.4674 -0.0107
  537SOL     MW 2148   1.063   0.226   2.922 -0.1926  0.0947 -0.5649
  538SOL     OW 2149   1.294   0.036   2.975  0.3486 -0.4478 -0.0579
  538SOL    HW1 2150   1.231   0.108   2.945  0.3239 -0.8003 -0.2447
  538SOL    HW2 2151   1.368   0.043   2.920 -0.6517 -2.3078  0.5981
  538SOL     MW 2152   1.295   0.047   2.964  0.2134 -0.7398  0.0040
  539SOL     OW 2153   0.756   2.674   2.501  0.3435  0.3003 -0.2720
  539SOL    HW1 2154   0.823   2.722   2.541  0.6624 -0.3240 -0.8889
  539SOL    HW2 2155   0.781   2.586   2.490 -1.5295  1.7747 -0.6606
  539SOL     MW 2156   0.768   2.669   2.505  0.1384  0.4125 -0.4047
  540SOL     OW 2157   0.331   2.266   2.872  0.3324  0.1898 -0.2711
  540SOL    HW1 2158   0.422   2.278   2.869 -0.2347  0.5938 -1.4576
  540SOL    HW2 2159   0.305   2.225   2.953 -0.8613  1.0126  0.6858
  540SOL     MW 2160   0.339   2.262   2.882  0.1001  0.3517 -0.3014
  541SOL     OW 2161   0.156   2.863   2.217  0.3680  0.3874 -0.0859
  541SOL    HW1 2162   0.123   2.778   2.188 -0.0554 -0.1616  0.6980
  541SOL    HW2 2163   0.208   2.845   2.298 -0.2830 -0.8754  0.8334
  541SOL     MW 2164   0.159   2.850   2.224  0.2263  0.1483  0.1388
  542SOL     OW 2165   0.941   2.238   2.672  0.4406 -0.4854 -0.2236
  542SOL    HW1 2166   0.895   2.207   2.758 -0.2781  0.1595  0.2394
  542SOL    HW2 2167   0.974   2.327   2.695  1.2204  0.9672 -0.7594
  542SOL     MW 2168   0.939   2.246   2.687  0.4487 -0.2087 -0.2332
  543SOL     OW 2169   1.390   2.540   2.660  0.6882 -0.4002  0.2896
  543SOL    HW1 2170   1.400   2.452   2.618  0.5737  0.4573  0.0599
  543SOL    HW2 2171   1.475   2.584   2.657  2.7447 -1.8843  2.0531
  543SOL     MW 2172   1.402   2.535   2.654  0.9444 -0.4829  0.4920
  544SOL     OW 2173   0.606   0.207   2.726 -0.3807  0.5851  0.0189
  544SOL    HW1 2174   0.516   0.179   2.697 -4.6302 -0.2192 -1.0541
  544SOL    HW2 2175   0.659   0.181   2.652 -2.6468 -0.8416 -0.0711
  544SOL     MW 2176   0.601   0.200   2.713 -1.2404  0.2907 -0.1345
  545SOL     OW 2177   1.522   2.140   2.303 -0.5503 -0.4104 -0.7717
  545SOL    HW1 2178   1.490   2.153   2.216 -0.7853  4.7035  0.3043
  545SOL    HW2 2179   1.610   2.102   2.289 -0.0337 -0.4938  2.5489
  545SOL     MW 2180   1.530   2.137   2.290 -0.5132  0.2533 -0.1916
  546SOL     OW 2181   3.002   1.994   0.110 -0.2566  0.4201 -0.2557
  546SOL    HW1 2182   2.985   2.068   0.056  1.9019 -1.7137 -0.7025
  546SOL    HW2 2183   3.096   1.976   0.106 -1.4619 -2.4124  1.0552
  546SOL     MW 2184   3.012   2.001   0.102 -0.1309 -0.2352 -0.1416
  547SOL     OW 2185   0.194   3.006   0.116  0.3670 -0.5368 -0.1731
  547SOL    HW1 2186   0.268   3.046   0.065  0.2684  2.2800 -2.7629
  547SOL    HW2 2187   0.206   2.909   0.105 -0.6161 -1.9031 -0.7438
  547SOL     MW 2188   0.205   2.999   0.108  0.2243 -0.3454 -0.5901
  548SOL     OW 2189   0.316   2.528   0.261  0.3983  0.7040 -0.4915
  548SOL    HW1 2190   0.312   2.596   0.192 -0.5500 -0.1904 -1.6709
  548SOL    HW2 2191   0.244   2.462   0.241  1.5897 -0.6301  1.6371
  548SOL     MW 2192   0.306   2.529   0.249  0.4304  0.4100 -0.3663
  549SOL     OW 2193   0.700   1.908   2.073  0.1539  0.0239 -0.5411
  549SOL    HW1 2194   0.690   1.980   2.014  1.7445 -0.6172 -0.2034
  549SOL    HW2 2195   0.735   1.943   2.154  0.6488  1.0042  1.3092
  549SOL     MW 2196   0.703   1.922   2.076  0.4290  0.0686 -0.2524
  550SOL     OW 2197   1.834   1.755   2.573  0.2593  0.1319 -0.7736
  550SOL    HW1 2198   1.851   1.800   2.490  2.1888  0.0365  0.7875
  550SOL    HW2 2199   1.826   1.835   2.630  0.8047 -0.3447 -0.1892
  550SOL     MW 2200   1.835   1.771   2.570  0.5858  0.0564 -0.4905
  551SOL     OW 2201   0.865   2.349   0.207  0.0672  0.2746 -0.0488
  551SOL    HW1 2202   0.955   2.376   0.174  0.8384  0.2866 -2.0181
  551SOL    HW2 2203   0.871   2.253   0.194  2.6238 -1.0551  0.8533
  551SOL     MW 2204   0.878   2.340   0.201  0.5063  0.1008 -0.1896
  552SOL     OW 2205   1.775   1.815   2.282  0.5037 -0.3193 -0.0675
  552SOL    HW1 2206   1.681   1.791   2.275 -1.6955  1.5053 -0.4637
  552SOL    HW2 2207   1.799   1.750   2.210 -2.4937  4.0867  1.7599
  552SOL     MW 2208   1.766   1.803   2.271 -0.1819  0.5028  0.1214
  553SOL     OW 2209   1.251   2.321   1.526  0.6649 -0.0041  0.0309
  553SOL    HW1 2210   1.286   2.234   1.511 -1.7242  1.7059  0.3832
  553SOL    HW2 2211   1.313   2.387   1.497 -1.3502  2.2421  0.7099
  553SOL     MW 2212   1.264   2.319   1.521  0.0838  0.5179  0.1670
  554SOL     OW 2213   0.578   2.858   2.658  0.3834  0.0955  0.1576
  554SOL    HW1 2214   0.515   2.922   2.625 -1.9443 -0.0074 -0.4484
  554SOL    HW2 2215   0.620   2.819   2.581  1.1117 -0.2241 -3.2110
  554SOL     MW 2216   0.575   2.861   2.643  0.1724  0.0398 -0.3668
  555SOL     OW 2217   0.575   2.442   2.586 -0.3126  0.5286  0.2125
  555SOL    HW1 2218   0.565   2.348   2.582  4.5944  2.5798  1.1993
  555SOL    HW2 2219   0.652   2.447   2.519  0.2484 -2.0321  0.0047
  555SOL     MW 2220   0.584   2.430   2.577  0.4089  0.4614  0.3153
  556SOL     OW 2221   0.970   1.803   0.161 -0.3675 -0.1600  0.4309
  556SOL    HW1 2222   0.993   1.817   0.070 -0.9461  0.1049  0.8259
  556SOL    HW2 2223   1.055   1.818   0.208 -0.3713 -1.3903  0.5874
  556SOL     MW 2224   0.984   1.807   0.155 -0.4444 -0.2874  0.5037
  557SOL     OW 2225   0.889   2.706   0.464 -0.1740  0.7174  0.4687
  557SOL    HW1 2226   0.938   2.686   0.383  0.8260 -2.9632  0.1127
  557SOL    HW2 2227   0.861   2.793   0.451 -1.0907 -1.2451  0.8295
  557SOL     MW 2228   0.892   2.715   0.452 -0.1630 -0.0271  0.4693
  558SOL     OW 2229   0.267   2.175   0.048 -0.1069 -0.4745  0.5917
  558SOL    HW1 2230   0.198   2.107   0.066 -0.4563  0.5132  2.7911
  558SOL    HW2 2231   0.220   2.246   0.095  0.6469  1.1169  0.8613
  558SOL     MW 2232   0.252   2.175   0.056 -0.0536 -0.1342  0.9175
  559SOL     OW 2233   1.185   2.313   2.118 -0.2898 -0.4753  0.4250
  559SOL    HW1 2234   1.193   2.404   2.141  1.6495  2.1167 -1.5696
  559SOL    HW2 2235   1.186   2.265   2.197  0.6475 -2.5306 -0.2112
  559SOL     MW 2236   1.186   2.318   2.131  0.0897 -0.4045  0.0779
  560SOL     OW 2237   1.982   2.790   0.047 -0.3264  0.1873 -0.3442
  560SOL    HW1 2238   2.024   2.852  -0.003 -0.3474 -1.4801 -0.2663
  560SOL    HW2 2239   1.900   2.767   0.000 -1.1864 -0.2761  0.9489
  560SOL     MW 2240   1.976   2.795   0.034 -0.4426 -0.0939 -0.1634
  561SOL     OW 2241   0.446   2.088   0.227  0.0573 -0.5286  0.2052
  561SOL    HW1 2242   0.386   2.114   0.151 -0.1340  1.4729 -3.8537
  561SOL    HW2 2243   0.487   2.161   0.266  1.7078 -0.9472 -0.0686
  561SOL     MW 2244   0.444   2.101   0.223  0.2498 -0.3198 -0.3665
  562SOL     OW 2245   0.897   2.192   2.171 -0.2682  0.4865  0.1368
  562SOL    HW1 2246   0.931   2.276   2.148  1.4986  0.1381  0.3487
  562SOL    HW2 2247   0.970   2.161   2.230 -3.3647  1.4241 -0.4433
  562SOL     MW 2248   0.911   2.199   2.176 -0.4436  0.5642  0.0882
  563SOL     OW 2249   1.205   0.294   0.576 -0.6034  0.3111  0.2271
  563SOL    HW1 2250   1.131   0.289   0.511 -0.4158 -1.5160 -2.5713
  563SOL    HW2 2251   1.241   0.203   0.579  0.7060 -0.4445  0.0137
  563SOL     MW 2252   1.200   0.281   0.568 -0.4059 -0.0297 -0.1703
  564SOL     OW 2253   1.101   2.556   2.370  0.3561 -0.0057 -0.2554
  564SOL    HW1 2254   1.128   2.595   2.283 -0.0603 -0.6495 -0.9203
  564SOL    HW2 2255   1.136   2.609   2.447 -1.4525 -0.5540  1.2646
  564SOL     MW 2256   1.109   2.568   2.369  0.0625 -0.1630 -0.1426
  565SOL     OW 2257   2.870   2.685   2.570 -1.1769 -0.2833 -0.0247
  565SOL    HW1 2258   2.946   2.724   2.526 -0.3068  0.4478  2.3171
  565SOL    HW2 2259   2.805   2.678   2.509  0.5792  0.6785  3.0282
  565SOL     MW 2260   2.872   2.689   2.556 -0.8304 -0.0600  0.6871
  566SOL     OW 2261   2.260   1.893   2.372 -0.1332 -0.3190  0.1652
  566SOL    HW1 2262   2.260   1.919   2.278  0.4907 -0.2994  0.0115
  566SOL    HW2 2263   2.295   1.971   2.420 -0.8536  1.0140  2.1748
  566SOL     MW 2264   2.265   1.907   2.366 -0.1460 -0.1405  0.4101
  567SOL     OW 2265   1.145   2.888   0.047 -0.5033  0.3365 -0.2109
  567SOL    HW1 2266   1.177   2.968   0.078 -0.2567  0.8164 -0.2752
  567SOL    HW2 2267   1.170   2.877  -0.046 -0.9571  2.0666 -0.2297
  567SOL     MW 2268   1.152   2.897   0.039 -0.5306  0.6281 -0.2219
  568SOL     OW 2269   1.643   2.075   2.900 -0.5494 -1.1096  0.7474
  568SOL    HW1 2270   1.687   2.129   2.967  1.0687 -3.1566  0.4562
  568SOL    HW2 2271   1.719   2.060   2.842  1.9556  1.7714  1.0623
  568SOL     MW 2272   1.659   2.080   2.901 -0.0054 -0.9996  0.7505
  569SOL     OW 2273   0.222   2.194   2.432  0.1138  0.4861  0.2879
  569SOL    HW1 2274   0.175   2.251   2.364  0.2661  1.8946  0.0347
  569SOL    HW2 2275   0.222   2.251   2.506  0.2296 -0.3397 -1.6786
  569SOL     MW 2276   0.216   2.209   2.433  0.1492  0.5629 -0.0050
  570SOL     OW 2277   1.461   0.440   0.515  0.0029  0.7500 -0.7210
  570SOL    HW1 2278   1.373   0.448   0.544  1.4325  0.6999 -0.3253
  570SOL    HW2 2279   1.531   0.444   0.590  2.1591 -2.0750 -0.5671
  570SOL     MW 2280   1.459   0.442   0.529  0.4760  0.3706 -0.6485
  571SOL     OW 2281   1.486   2.392   1.959  0.2057  0.2020  0.7595
  571SOL    HW1 2282   1.526   2.445   2.032 -4.7508  1.9492  0.5904
  571SOL    HW2 2283   1.460   2.303   1.992  1.9628 -1.4800 -0.2179
  571SOL     MW 2284   1.488   2.387   1.973 -0.2164  0.2106  0.6082
  572SOL     OW 2285   0.932   2.680   0.080 -0.2900  0.3082  0.0155
  572SOL    HW1 2286   0.987   2.701   0.003  0.5826  0.5004  1.1090
  572SOL    HW2 2287   0.869   2.616   0.055  1.0169  1.2355  0.9020
  572SOL     MW 2288   0.931   2.674   0.066 -0.0025  0.4559  0.2767
  573SOL     OW 2289   1.139   2.393   0.200  0.2368 -0.6760  0.6530
  573SOL    HW1 2290   1.228   2.371   0.195 -4.4953  0.2916 -1.2413
  573SOL    HW2 2291   1.135   2.484   0.235  0.4277 -1.2552  0.0625
  573SOL     MW 2292   1.150   2.402   0.204 -0.3624 -0.6247  0.3252
  574SOL     OW 2293   1.102   2.634   0.291 -0.3744 -0.4500 -0.1980
  574SOL    HW1 2294   1.189   2.679   0.297  1.5560  2.4616  2.0611
  574SOL    HW2 2295   1.063   2.661   0.206 -1.8216  0.1422  3.0003
  574SOL     MW 2296   1.108   2.643   0.281 -0.3107  0.0123  0.5221
  575SOL     OW 2297   3.069   2.291   1.801 -0.2382  0.4679 -0.1719
  575SOL    HW1 2298   3.087   2.202   1.765 -0.1355  1.9681  0.4233
  575SOL    HW2 2299   3.138   2.348   1.757 -0.1362  0.3102 -0.7354
  575SOL     MW 2300   3.080   2.287   1.791 -0.2112  0.6450 -0.1677
  576SOL     OW 2301   2.834   1.823   2.053  0.2685 -0.0212  0.1999
  576SOL    HW1 2302   2.831   1.905   2.005 -0.7625 -5.3478 -4.0927
  576SOL    HW2 2303   2.753   1.787   2.016  0.8549  0.8996  0.1228
  576SOL     MW 2304   2.823   1.829   2.041  0.2098 -0.6025 -0.3766
  577SOL     OW 2305   2.090   0.318   0.054  0.3830 -0.0974  0.2754
  577SOL    HW1 2306   2.023   0.348  -0.011 -0.5791  2.2383  2.8922
  577SOL    HW2 2307   2.038   0.258   0.114  1.7943 -0.1006 -2.9187
  577SOL     MW 2308   2.074   0.314   0.053  0.4423  0.2104  0.1992
  578SOL     OW 2309   2.006   2.027   2.441 -0.5980 -0.2290  0.5027
  578SOL    HW1 2310   1.965   2.049   2.359 -0.6562 -0.0454  4.0362
  578SOL    HW2 2311   2.083   1.972   2.413  0.5745  0.5279  0.6849
  578SOL     MW 2312   2.011   2.022   2.426 -0.4510 -0.1049  0.9929
  579SOL     OW 2313   0.862   2.432   2.490  0.6003  0.3010  0.4914
  579SOL    HW1 2314   0.874   2.350   2.538 -1.9832 -0.2135  0.3132
  579SOL    HW2 2315   0.957   2.457   2.481  1.4881 -0.2460  0.3677
  579SOL     MW 2316   0.876   2.425   2.495  0.3766  0.1610  0.4516
  580SOL     OW 2317   0.859   2.972   0.032 -0.5135 -0.0384  0.6523
  580SOL    HW1 2318   0.944   2.914   0.029  3.5845 -0.9597  0.9620
  580SOL    HW2 2319   0.808   2.933  -0.038  0.3453  0.2303  0.6904
  580SOL     MW 2320   0.864   2.959   0.022  0.1405 -0.1245  0.6982
  581SOL     OW 2321   1.065   2.437   1.713  0.7790 -0.2010 -0.2162
  581SOL    HW1 2322   1.101   2.525   1.722 -1.6692 -0.4117  2.4960
  581SOL    HW2 2323   1.126   2.388   1.660  0.3089  0.6799  1.6869
  581SOL     MW 2324   1.078   2.442   1.707  0.3940 -0.1126  0.3927
  582SOL     OW 2325   3.092   2.818   2.494  0.1348  0.0229  0.2427
  582SOL    HW1 2326   3.092   2.895   2.560  0.8177  0.5123  2.8406
  582SOL    HW2 2327   3.184   2.806   2.459 -0.9643 -0.6821  1.2566
  582SOL     MW 2328   3.104   2.827   2.498  0.0799 -0.0056  0.7193
  583SOL     OW 2329   1.938   2.446   2.642  0.3818  0.0448  0.0145
  583SOL    HW1 2330   2.022   2.490   2.634  0.3095 -0.3163 -0.0229
  583SOL    HW2 2331   1.961   2.349   2.642  1.8121 -1.4091 -1.0808
  583SOL     MW 2332   1.952   2.439   2.641  0.5610 -0.1946 -0.1350
  584SOL     OW 2333   0.206   1.901   2.074  0.0263 -0.1397 -0.5272
  584SOL    HW1 2334   0.293   1.864   2.078  1.6248 -0.0083 -0.1938
  584SOL    HW2 2335   0.197   1.940   2.162 -1.4778 -0.4604  1.8765
  584SOL     MW 2336   0.216   1.901   2.086  0.0388 -0.1647 -0.1661
  585SOL     OW 2337   1.494   2.668   0.070  0.1875  0.3767 -0.7104
  585SOL    HW1 2338   1.447   2.639  -0.006 -2.2538 -2.5333 -0.0529
  585SOL    HW2 2339   1.434   2.715   0.131 -0.9766  2.1929  2.7223
  585SOL     MW 2340   1.480   2.671   0.068 -0.2882  0.2324 -0.1708
  586SOL     OW 2341   1.330   2.859   2.383  1.1558 -0.8890 -0.4409
  586SOL    HW1 2342   1.411   2.825   2.347  0.3733 -1.3200  1.0729
  586SOL    HW2 2343   1.359   2.946   2.420  3.2817  2.2709 -1.5626
  586SOL     MW 2344   1.344   2.866   2.383  1.3331 -0.5290 -0.3891
  587SOL     OW 2345   1.274   1.593   2.117  0.3282 -0.9283  0.5811
  587SOL    HW1 2346   1.264   1.513   2.173 -1.3810 -1.0196 -0.2904
  587SOL    HW2 2347   1.282   1.561   2.033 -1.6123 -0.5174 -0.8760
  587SOL     MW 2348   1.274   1.578   2.114 -0.1533 -0.8861  0.2739
  588SOL     OW 2349   1.417   2.169   2.728 -0.1975  0.1263 -0.2335
  588SOL    HW1 2350   1.500   2.146   2.773 -0.0119  2.1653  1.3677
  588SOL    HW2 2351   1.355   2.175   2.803  3.5068  0.5247  0.3371
  588SOL     MW 2352   1.420   2.167   2.744  0.3157  0.4479  0.0531
  589SOL     OW 2353   1.368   2.099   0.062  0.1392  0.1868 -0.2154
  589SOL    HW1 2354   1.411   2.187   0.068 -1.2327 -0.0459 -1.1043
  589SOL    HW2 2355   1.346   2.077   0.152  2.4742  0.5003  0.1158
  589SOL     MW 2356   1.371   2.108   0.075  0.2663  0.1974 -0.2890
  590SOL     OW 2357   0.416   2.574   2.274  0.0621 -0.7289  0.4982
  590SOL    HW1 2358   0.389   2.583   2.179 -2.3210  2.3113  0.8646
  590SOL    HW2 2359   0.487   2.641   2.277 -0.3776 -0.8645 -1.7383
  590SOL     MW 2360   0.422   2.584   2.262 -0.3104 -0.3457  0.2515
  591SOL     OW 2361   2.291   0.702   0.027  0.1138 -0.1957 -0.0006
  591SOL    HW1 2362   2.216   0.750  -0.014  0.7873 -0.4846 -0.6248
  591SOL    HW2 2363   2.360   0.711  -0.036 -1.9310  0.0384  2.1512
  591SOL     MW 2364   2.290   0.710   0.013 -0.0672 -0.2029  0.2010
  592SOL     OW 2365   1.878   3.034   0.795  0.0870 -0.2063 -0.6355
  592SOL    HW1 2366   1.859   3.106   0.732 -1.3769  0.1620  0.4258
  592SOL    HW2 2367   1.920   2.959   0.748  0.4088 -1.0741 -0.4316
  592SOL     MW 2368   1.881   3.034   0.780 -0.0637 -0.2722 -0.4686
  593SOL     OW 2369   1.890   0.757   0.851 -0.1080  0.2393  0.2257
  593SOL    HW1 2370   1.808   0.745   0.803  0.7414  1.1700  1.9822
  593SOL    HW2 2371   1.914   0.676   0.899  0.7840 -1.4904 -0.2696
  593SOL     MW 2372   1.882   0.745   0.851  0.1218  0.1339  0.3921
  594SOL     OW 2373   2.739   1.127   1.392  0.6594 -0.1276 -0.6399
  594SOL    HW1 2374   2.827   1.164   1.374  0.2595  1.2661 -1.8073
  594SOL    HW2 2375   2.721   1.086   1.310 -2.8103  0.3692  0.3393
  594SOL     MW 2376   2.748   1.127   1.379  0.1489  0.1219 -0.6647
  595SOL     OW 2377   0.480   0.945   0.680  0.1859 -0.4700  0.6059
  595SOL    HW1 2378   0.486   1.016   0.617  1.6969  1.1053  0.3169
  595SOL    HW2 2379   0.504   0.990   0.763 -0.6530 -1.1463  1.8002
  595SOL     MW 2380   0.484   0.960   0.683  0.2746 -0.3514  0.7254
  596SOL     OW 2381   2.450   1.392   0.550  0.3772  0.3954 -0.5842
  596SOL    HW1 2382   2.484   1.451   0.488 -0.8196 -1.7828  0.9484
  596SOL    HW2 2383   2.500   1.397   0.631 -0.2184  1.3148  0.6628
  596SOL     MW 2384   2.461   1.400   0.553  0.1407  0.2293 -0.2175
  597SOL     OW 2385   2.203   0.666   1.675 -0.0520 -0.5209 -0.1114
  597SOL    HW1 2386   2.260   0.587   1.698 -0.0868  1.1464 -1.9752
  597SOL    HW2 2387   2.122   0.626   1.633 -0.4753 -0.5180 -0.8166
  597SOL     MW 2388   2.200   0.650   1.672 -0.1125 -0.3006 -0.4503
  598SOL     OW 2389   2.628   1.004   2.845  0.4304 -0.3573 -0.3738
  598SOL    HW1 2390   2.677   0.978   2.761  0.3307  4.1808  1.2386
  598SOL    HW2 2391   2.703   1.053   2.885  1.3552 -1.0510 -0.4551
  598SOL     MW 2392   2.644   1.007   2.839  0.5393  0.1499 -0.1718
  599SOL     OW 2393   2.921   0.335   2.082  0.5548  0.0915  0.0704
  599SOL    HW1 2394   2.889   0.364   2.173  2.3472 -0.8655 -0.0912
  599SOL    HW2 2395   2.947   0.425   2.050 -0.5116  1.2959  0.0169
  599SOL     MW 2396   2.920   0.351   2.090  0.6506  0.1242  0.0420
  600SOL     OW 2397   1.897   1.725   0.884  0.1404  0.4986 -0.1027
  600SOL    HW1 2398   1.946   1.763   0.957 -0.2982  1.1833  1.8439
  600SOL    HW2 2399   1.814   1.773   0.877  0.3264  0.5000  0.4137
  600SOL     MW 2400   1.893   1.736   0.892  0.1071  0.5891  0.2222
  601SOL     OW 2401   2.500   0.807   0.811 -0.1415  0.1396 -0.0235
  601SOL    HW1 2402   2.511   0.836   0.902  0.4382 -0.9056 -0.4104
  601SOL    HW2 2403   2.443   0.724   0.812  0.4989 -1.0249 -1.9420
  601SOL     MW 2404   2.494   0.800   0.823  0.0195 -0.1520 -0.3277
  602SOL     OW 2405   2.334   1.956   0.797 -0.0653  0.3164  0.3960
  602SOL    HW1 2406   2.284   1.883   0.842 -0.8513 -0.7908  0.5442
  602SOL    HW2 2407   2.271   1.990   0.735  1.0461  0.1446  3.0983
  602SOL     MW 2408   2.319   1.951   0.795 -0.0224  0.1476  0.7721
  603SOL     OW 2409   3.078   1.387   1.784 -0.0020  0.0460 -0.6337
  603SOL    HW1 2410   3.083   1.412   1.880  2.9325  0.9472  0.8231
  603SOL    HW2 2411   3.050   1.291   1.770  1.2885 -0.4606  4.0424
  603SOL     MW 2412   3.075   1.377   1.795  0.5555  0.0980  0.1754
  604SOL     OW 2413   2.102   1.570   0.448 -0.0006  0.4541  0.3164
  604SOL    HW1 2414   2.105   1.488   0.494  3.9665 -0.0124  2.7874
  604SOL    HW2 2415   2.068   1.627   0.517 -2.8382 -2.4130 -0.0625
  604SOL     MW 2416   2.098   1.567   0.463  0.1484  0.0143  0.5924
  605SOL     OW 2417   2.694   1.546   0.834 -1.1491  0.1295  0.4139
  605SOL    HW1 2418   2.618   1.593   0.796  0.4211 -0.7356 -1.2352
  605SOL    HW2 2419   2.660   1.463   0.855  1.7570 -1.7728 -0.1758
  605SOL     MW 2420   2.680   1.541   0.832 -0.5585 -0.2357  0.1185
  606SOL     OW 2421   2.568   1.796   1.832 -0.0761  0.5875 -0.0248
  606SOL    HW1 2422   2.476   1.783   1.856  0.6524  0.1482 -0.1278
  606SOL    HW2 2423   2.602   1.711   1.799  1.6926 -0.9364  1.0490
  606SOL     MW 2424   2.560   1.783   1.831  0.2534  0.3284  0.1033
  607SOL     OW 2425   2.369   1.010   2.972  0.4111  0.0414  0.2467
  607SOL    HW1 2426   2.459   1.003   2.931 -1.2269  1.2156  3.4065
  607SOL    HW2 2427   2.383   0.982   3.064  0.6156 -2.0647  2.2009
  607SOL     MW 2428   2.383   1.005   2.979  0.2219 -0.0815  0.9214
  608SOL     OW 2429   1.868   0.308   0.574  0.2741  0.2463  0.4500
  608SOL    HW1 2430   1.884   0.364   0.499  0.3509  2.1250  1.5576
  608SOL    HW2 2431   1.837   0.213   0.544  3.4907  0.9745 -0.8435
  608SOL     MW 2432   1.866   0.303   0.560  0.7087  0.5902  0.4254
  609SOL     OW 2433   2.134   1.965   3.064  0.0921  0.2087 -0.2731
  609SOL    HW1 2434   2.048   1.927   3.042  0.5446 -1.8969  0.8588
  609SOL    HW2 2435   2.148   1.930   3.156  2.0292  0.8066 -0.9715
  609SOL     MW 2436   2.125   1.956   3.073  0.4074  0.0098 -0.2159
  610SOL     OW 2437   1.762   1.014   1.235 -0.1672 -0.0105  0.0468
  610SOL    HW1 2438   1.757   0.927   1.193 -0.0454  0.4708 -0.8007
  610SOL    HW2 2439   1.674   1.013   1.264  1.0047  0.9559  0.3742
  610SOL     MW 2440   1.750   1.003   1.234  0.0035  0.1805 -0.0218
  611SOL     OW 2441   2.461   1.680   0.735  0.6981 -0.0724 -0.3769
  611SOL    HW1 2442   2.445   1.773   0.727  0.8921  2.1522  1.0300
  611SOL    HW2 2443   2.457   1.664   0.645 -2.1067  2.8067 -1.1352
  611SOL     MW 2444   2.459   1.690   0.722  0.3537  0.6010 -0.2913
  612SOL     OW 2445   2.784   2.832   0.429  0.4848 -0.4980 -0.4326
  612SOL    HW1 2446   2.817   2.868   0.513  0.9195 -1.4976 -0.2440
  612SOL    HW2 2447   2.865   2.809   0.383 -1.5820 -0.6472 -1.4525
  612SOL     MW 2448   2.799   2.834   0.434  0.2695 -0.6496 -0.5423
  613SOL     OW 2449   1.498   1.018   0.979 -0.5556 -0.6461 -0.4091
  613SOL    HW1 2450   1.499   1.112   0.999  4.0696  0.4301 -1.1885
  613SOL    HW2 2451   1.521   0.977   1.068  0.3303  0.8095  1.1362
  613SOL     MW 2452   1.501   1.025   0.993  0.1716 -0.3121 -0.3080
  614SOL     OW 2453   1.982   0.554   1.547 -0.0079 -0.6938 -0.0039
  614SOL    HW1 2454   2.016   0.479   1.599  1.1388 -1.9683  0.3256
  614SOL    HW2 2455   1.966   0.527   1.456  1.8477 -0.6741 -1.8128
  614SOL     MW 2456   1.984   0.541   1.542  0.3883 -0.8594 -0.1991
  615SOL     OW 2457   2.276   0.788   0.296  0.5245 -0.8114  0.0955
  615SOL    HW1 2458   2.346   0.741   0.339 -0.5569  0.1077  0.6143
  615SOL    HW2 2459   2.297   0.794   0.204 -0.4087  1.7940 -0.3042
  615SOL     MW 2460   2.288   0.783   0.289  0.2587 -0.3464  0.1112
  616SOL     OW 2461   2.549   0.368   1.600 -0.9219  0.4232 -0.5029
  616SOL    HW1 2462   2.513   0.314   1.528 -1.1704 -0.4863  0.3719
  616SOL    HW2 2463   2.589   0.436   1.546  4.0087 -2.4468 -0.2980
  616SOL     MW 2464   2.550   0.370   1.583 -0.3041 -0.0754 -0.3604
  617SOL     OW 2465   2.870   0.542   1.705  0.6604  0.4296  0.9551
  617SOL    HW1 2466   2.782   0.571   1.739  0.9284 -0.7175  1.4707
  617SOL    HW2 2467   2.863   0.449   1.671  0.8123  0.6479 -4.2918
  617SOL     MW 2468   2.857   0.533   1.705  0.7158  0.3070  0.3309
  618SOL     OW 2469   2.664   0.338   1.972 -0.6731 -0.2591  0.2799
  618SOL    HW1 2470   2.667   0.432   1.947  0.9885 -1.5364 -1.8695
  618SOL    HW2 2471   2.751   0.326   2.017  0.9405 -0.4456  1.7675
  618SOL     MW 2472   2.676   0.349   1.974 -0.2410 -0.4522  0.1926
  619SOL     OW 2473   2.644   0.726   0.150  0.3282 -0.1664  0.2832
  619SOL    HW1 2474   2.691   0.809   0.161 -0.6076  0.2326 -0.8233
  619SOL    HW2 2475   2.604   0.712   0.233  2.7288  2.9763  0.6453
  619SOL     MW 2476   2.645   0.735   0.163  0.5215  0.3009  0.1850
  620SOL     OW 2477   2.333   1.054   0.995  0.0101 -0.2706 -0.0948
  620SOL    HW1 2478   2.412   1.091   0.963  0.4450  0.0376  3.0149
  620SOL    HW2 2479   2.328   0.970   0.954 -0.0050  0.8223 -2.4779
  620SOL     MW 2480   2.343   1.048   0.985  0.0655 -0.0857  0.0010
  621SOL     OW 2481   1.466   2.132   1.993 -0.4077  0.1492  0.3754
  621SOL    HW1 2482   1.419   2.049   2.007 -2.8837 -2.7305 -0.7059
  621SOL    HW2 2483   1.557   2.110   1.976 -0.6120 -2.6668  1.1728
  621SOL     MW 2484   1.472   2.119   1.993 -0.7613 -0.6023  0.3379
  622SOL     OW 2485   2.634   0.159   0.268 -0.5114 -0.3957  0.3379
  622SOL    HW1 2486   2.708   0.220   0.270 -1.5491  0.7210  0.0583
  622SOL    HW2 2487   2.670   0.098   0.326 -1.0394 -0.3698 -1.3923
  622SOL     MW 2488   2.648   0.159   0.276 -0.7180 -0.2449  0.0728
  623SOL     OW 2489   2.313   2.733   0.901  0.3731  0.5698  0.1615
  623SOL    HW1 2490   2.390   2.795   0.897  2.6063  1.4836  0.7064
  623SOL    HW2 2491   2.252   2.774   0.968  1.2183 -0.1552  1.9845
  623SOL     MW 2492   2.315   2.747   0.909  0.7793  0.5947  0.4739
  624SOL     OW 2493   2.211   1.675   2.994 -0.5425  0.3871  0.2338
  624SOL    HW1 2494   2.146   1.604   2.994 -0.6161 -2.5663 -3.4870
  624SOL    HW2 2495   2.159   1.742   3.030 -0.0667 -0.5706 -1.4437
  624SOL     MW 2496   2.195   1.675   2.999 -0.4894 -0.1290 -0.4784
  625SOL     OW 2497   2.203   2.016   1.119  0.4867  0.4245  0.0658
  625SOL    HW1 2498   2.243   1.935   1.140 -0.2143  2.1225 -1.0133
  625SOL    HW2 2499   2.260   2.076   1.066  1.4270  0.6633  0.1400
  625SOL     MW 2500   2.216   2.013   1.115  0.5183  0.6800 -0.0668
  626SOL     OW 2501   0.213   1.634   2.347  1.0656 -0.3488  0.7363
  626SOL    HW1 2502   0.180   1.562   2.288 -1.0263 -0.7833 -1.3662
  626SOL    HW2 2503   0.167   1.628   2.429  0.9086 -0.6469  2.3967
  626SOL     MW 2504   0.203   1.623   2.350  0.7689 -0.4455  0.6780
  627SOL     OW 2505   2.491   0.822   2.632 -0.7023 -0.2678  0.1714
  627SOL    HW1 2506   2.431   0.890   2.594 -1.0677  0.5759 -0.4356
  627SOL    HW2 2507   2.466   0.739   2.581  0.3711 -2.5894 -0.9150
  627SOL     MW 2508   2.480   0.820   2.620 -0.6089 -0.4628 -0.0521
  628SOL     OW 2509   2.241   1.364   1.359  0.1421 -0.5311  0.2430
  628SOL    HW1 2510   2.205   1.294   1.305 -0.8257 -2.2769 -2.1983
  628SOL    HW2 2511   2.334   1.355   1.345 -1.1509  0.7292 -0.3217
  628SOL     MW 2512   2.249   1.354   1.350 -0.1562 -0.5951 -0.1536
  629SOL     OW 2513   1.968   0.569   1.249 -0.6091  0.0061 -0.0653
  629SOL    HW1 2514   2.008   0.652   1.227 -1.1123  1.0229  0.3234
  629SOL    HW2 2515   1.878   0.595   1.271 -0.3501  1.3455  0.6518
  629SOL     MW 2516   1.961   0.583   1.249 -0.6414  0.3170  0.0806
  630SOL     OW 2517   2.468   1.835   3.060 -0.5387 -0.2553  0.2918
  630SOL    HW1 2518   2.465   1.916   3.014  1.3323 -0.5945 -1.1109
  630SOL    HW2 2519   2.399   1.772   3.021 -2.9610 -0.7745 -1.0051
  630SOL     MW 2520   2.459   1.837   3.049 -0.6114 -0.3686 -0.0644
  631SOL     OW 2521   1.988   1.832   1.577 -0.1418 -0.1810 -0.4576
  631SOL    HW1 2522   2.002   1.742   1.605 -1.4390 -0.9131 -0.0215
  631SOL    HW2 2523   1.914   1.824   1.515 -1.7157 -0.5703 -0.2261
  631SOL     MW 2524   1.980   1.819   1.572 -0.5206 -0.3290 -0.3695
  632SOL     OW 2525   0.083   2.071   1.480 -0.4069 -0.8132 -0.2204
  632SOL    HW1 2526   0.027   2.073   1.553  0.1667  2.1832 -1.7049
  632SOL    HW2 2527   0.117   1.982   1.478 -1.4791  2.9778 -2.2461
  632SOL     MW 2528   0.080   2.059   1.490 -0.4727  0.0823 -0.6836
  633SOL     OW 2529   2.507   0.671   0.372  0.7550 -0.7323 -0.1362
  633SOL    HW1 2530   2.560   0.711   0.442  1.8916 -0.3462 -2.3160
  633SOL    HW2 2531   2.523   0.581   0.392  0.3738  2.3258  2.4835
  633SOL     MW 2532   2.516   0.664   0.384  0.8547 -0.2779 -0.0782
  634SOL     OW 2533   2.652   3.047   0.675  0.3062 -0.6355 -0.4012
  634SOL    HW1 2534   2.696   3.135   0.677  2.2263  0.8456 -0.7271
  634SOL    HW2 2535   2.622   3.035   0.580  3.0551 -1.7476 -2.3096
  634SOL     MW 2536   2.654   3.057   0.663  0.9223 -0.5868 -0.6960
  635SOL     OW 2537   2.589   0.113   1.828 -0.2980 -0.6945 -0.3062
  635SOL    HW1 2538   2.669   0.066   1.786  2.5647 -0.8157  1.2461
  635SOL    HW2 2539   2.620   0.199   1.868 -1.0719 -0.1172  1.3017
  635SOL     MW 2540   2.604   0.118   1.828 -0.0224 -0.6343  0.1108
  636SOL     OW 2541   2.911   1.759   1.046  0.2970 -0.3914  1.0087
  636SOL    HW1 2542   2.833   1.811   1.074 -1.6305  0.6991 -0.6583
  636SOL    HW2 2543   2.991   1.792   1.088 -0.0954  1.0354 -1.2544
  636SOL     MW 2544   2.912   1.770   1.055 -0.0091 -0.0593  0.4901
  637SOL     OW 2545   2.904   1.519   0.654  0.0500 -0.1920 -0.8041
  637SOL    HW1 2546   2.943   1.605   0.642 -0.5656 -1.2447  0.2411
  637SOL    HW2 2547   2.835   1.531   0.721  2.0803 -1.9740 -0.2327
  637SOL     MW 2548   2.900   1.532   0.661  0.2367 -0.5660 -0.5908
  638SOL     OW 2549   2.737   0.558   0.532  0.3732 -0.3269  0.1657
  638SOL    HW1 2550   2.831   0.579   0.523 -1.8358 -0.8350  1.5576
  638SOL    HW2 2551   2.718   0.585   0.625  1.0116 -2.8950  0.3262
  638SOL     MW 2552   2.747   0.564   0.543  0.1660 -0.7328  0.3705
  639SOL     OW 2553   1.778   0.052   0.523 -0.1210 -0.4438  0.6435
  639SOL    HW1 2554   1.687   0.071   0.541 -0.6845 -0.7797  1.0419
  639SOL    HW2 2555   1.774  -0.020   0.457  2.6885 -2.0415  1.8401
  639SOL     MW 2556   1.765   0.045   0.516  0.1754 -0.6989  0.8540
  640SOL     OW 2557   0.345   1.389   0.060  0.3464  0.0511 -0.3312
  640SOL    HW1 2558   0.371   1.416  -0.026  0.1447  2.8375  1.9168
  640SOL    HW2 2559   0.325   1.294   0.069 -1.2964 -1.3847  0.3485
  640SOL     MW 2560   0.346   1.380   0.050  0.1031  0.2293  0.0551
  641SOL     OW 2561   2.207   0.459   0.391  0.4729  0.0198 -0.1179
  641SOL    HW1 2562   2.239   0.441   0.306  0.9072  2.1480  0.3357
  641SOL    HW2 2563   2.227   0.381   0.440 -2.2442 -2.2322  0.3168
  641SOL     MW 2564   2.214   0.446   0.386  0.1717  0.0035 -0.0007
  642SOL     OW 2565   0.019   3.089   0.601 -0.5981 -0.4333  0.2407
  642SOL    HW1 2566  -0.031   3.147   0.542 -1.7593  0.9204  0.5716
  642SOL    HW2 2567  -0.045   3.025   0.618 -0.2602 -0.0077  2.5218
  642SOL     MW 2568   0.004   3.088   0.596 -0.7068 -0.1985  0.5854
  643SOL     OW 2569   2.076   0.352   1.703 -0.3491 -0.0374 -0.1729
  643SOL    HW1 2570   2.093   0.304   1.787  1.0393  2.1940  1.8481
  643SOL    HW2 2571   2.081   0.287   1.628  2.5567  2.8253 -1.9641
  643SOL     MW 2572   2.079   0.337   1.704  0.2174  0.6347 -0.1426
  644SOL     OW 2573   2.715   1.958   1.063 -0.3663  0.6374 -0.0894
  644SOL    HW1 2574   2.665   1.878   1.094 -0.4259 -3.1090  0.6554
  644SOL    HW2 2575   2.649   2.016   1.024 -0.1520  0.0267 -1.0646
  644SOL     MW 2576   2.699   1.955   1.062 -0.3459  0.0625 -0.1198
  645SOL     OW 2577   2.835   0.885   0.677  0.1570  0.0110  0.2806
  645SOL    HW1 2578   2.918   0.843   0.692 -1.6680 -0.5319 -1.2853
  645SOL    HW2 2579   2.770   0.821   0.705  0.0243  0.0995 -2.2326
  645SOL     MW 2580   2.837   0.871   0.683 -0.1013 -0.0490 -0.2576
  646SOL     OW 2581   0.167   2.279   0.788 -0.1612  0.6907 -0.5346
  646SOL    HW1 2582   0.199   2.185   0.792 -1.7965 -3.7173 -0.7948
  646SOL    HW2 2583   0.088   2.269   0.727  0.2593  2.2432  1.2510
  646SOL     MW 2584   0.161   2.266   0.780 -0.3215  0.3140 -0.3333
  647SOL     OW 2585   2.724   0.497   2.975  0.2219 -0.2178 -0.3307
  647SOL    HW1 2586   2.681   0.418   3.011  2.0650  0.7452 -0.1175
  647SOL    HW2 2587   2.662   0.571   3.009 -1.4820  1.2257 -0.7122
  647SOL     MW 2588   2.710   0.497   2.984  0.2403  0.0997 -0.3529
  648SOL     OW 2589   2.136   0.752   1.112 -0.0389 -0.0261 -0.0528
  648SOL    HW1 2590   2.172   0.776   1.026  1.1146 -1.9315  0.8334
  648SOL    HW2 2591   2.169   0.825   1.169  3.1120  1.6498  1.4516
  648SOL     MW 2592   2.145   0.765   1.108  0.5290 -0.0564  0.2626
  649SOL     OW 2593   2.347   2.774   1.297 -0.1960 -0.2554  0.4114
  649SOL    HW1 2594   2.424   2.832   1.292 -0.7390 -0.7488  1.0331
  649SOL    HW2 2595   2.374   2.695   1.250 -0.5289  1.1662 -0.2202
  649SOL     MW 2596   2.360   2.771   1.291 -0.3116 -0.1330  0.4101
  650SOL     OW 2597   2.828   0.176   0.673 -0.0693 -0.3046  0.2358
  650SOL    HW1 2598   2.817   0.265   0.702 -0.8497  1.1573 -0.7911
  650SOL    HW2 2599   2.888   0.185   0.594 -1.1530  1.6807  0.1086
  650SOL     MW 2600   2.835   0.189   0.667 -0.3152  0.1502  0.0835
  651SOL     OW 2601   2.993   0.415   0.780  0.5355  0.3147 -0.4161
  651SOL    HW1 2602   3.077   0.423   0.741 -0.5455  0.6343  1.5756
  651SOL    HW2 2603   2.979   0.487   0.839 -0.9091  0.4472 -2.7228
  651SOL     MW 2604   3.002   0.426   0.782  0.2023  0.3743 -0.4576
  652SOL     OW 2605   2.421   1.489   3.020  0.3412 -0.3372 -0.1384
  652SOL    HW1 2606   2.496   1.497   2.966 -0.1872 -2.2667 -2.5440
  652SOL    HW2 2607   2.363   1.561   2.991  0.2317 -1.5057 -1.0462
  652SOL     MW 2608   2.424   1.500   3.009  0.2570 -0.7459 -0.5756
  653SOL     OW 2609   1.928   0.447   0.336  0.5022  0.3552  0.2875
  653SOL    HW1 2610   1.901   0.388   0.265  1.4243  0.9351 -0.0835
  653SOL    HW2 2611   2.016   0.441   0.365 -1.3730 -2.7925  0.9653
  653SOL     MW 2612   1.936   0.439   0.331  0.3764  0.0164  0.3280
  654SOL     OW 2613   2.459   1.063   0.707 -0.3427 -0.0889  0.1963
  654SOL    HW1 2614   2.364   1.054   0.694  0.5018  0.0253  0.0314
  654SOL    HW2 2615   2.497   0.978   0.739  0.8634 -0.4107  0.3262
  654SOL     MW 2616   2.451   1.050   0.709 -0.0721 -0.1163  0.1917
  655SOL     OW 2617   2.984   0.913   0.391  0.0277 -0.1249  0.0559
  655SOL    HW1 2618   2.918   0.950   0.452 -1.1719 -4.2320 -0.2835
  655SOL    HW2 2619   3.013   0.829   0.434 -0.6073  0.9241  1.9965
  655SOL     MW 2620   2.979   0.907   0.405 -0.2143 -0.5284  0.2671
  656SOL     OW 2621   1.963   2.688   1.212 -0.5340  0.2451  0.2368
  656SOL    HW1 2622   1.940   2.769   1.260  0.1725 -0.6944 -0.6453
  656SOL    HW2 2623   1.997   2.627   1.275  1.5688  2.0670  2.7634
  656SOL     MW 2624   1.964   2.691   1.227 -0.1634  0.3615  0.4537
  657SOL     OW 2625   0.182   1.583   1.278 -0.6309  0.3236  0.0382
  657SOL    HW1 2626   0.107   1.623   1.239 -0.3457 -1.1924  1.8953
  657SOL    HW2 2627   0.165   1.488   1.288  0.2915 -0.3854 -1.1627
  657SOL     MW 2628   0.170   1.576   1.274 -0.4716  0.0300  0.1248
  658SOL     OW 2629   2.682   1.347   0.184  0.0338 -0.2889 -0.0785
  658SOL    HW1 2630   2.616   1.323   0.252 -0.9808  0.5816 -1.2883
  658SOL    HW2 2631   2.751   1.399   0.232  3.6493  0.4095 -1.0090
  658SOL     MW 2632   2.682   1.351   0.199  0.3770 -0.0819 -0.3609
  659SOL     OW 2633   2.309   1.525   1.030  0.4470 -0.1295 -0.0611
  659SOL    HW1 2634   2.399   1.506   1.034 -5.0661  0.1294  0.7734
  659SOL    HW2 2635   2.285   1.552   1.120  3.1628  0.5171 -1.1707
  659SOL     MW 2636   2.318   1.526   1.042  0.0779 -0.0100 -0.0974
  660SOL     OW 2637   2.027   1.570   1.689 -0.3190  0.2988 -0.0158
  660SOL    HW1 2638   2.045   1.574   1.787  0.9485  0.1642 -1.4024
  660SOL    HW2 2639   1.978   1.489   1.673  3.6788 -1.1751 -1.2947
  660SOL     MW 2640   2.023   1.560   1.700  0.3757  0.0866 -0.3675
  661SOL     OW 2641   2.362   1.028   0.226 -0.2338 -0.5336  0.0831
  661SOL    HW1 2642   2.444   1.076   0.260  2.0105 -0.8157  0.1210
  661SOL    HW2 2643   2.343   0.948   0.280 -1.4504  0.7707 -1.1273
  661SOL     MW 2644   2.370   1.024   0.238 -0.0982 -0.3988 -0.0716
  662SOL     OW 2645   2.518   2.922   0.891  0.0589  0.0652  0.0291
  662SOL    HW1 2646   2.485   2.998   0.934  0.6475 -0.6543 -2.3197
  662SOL    HW2 2647   2.557   2.960   0.813  0.0166 -0.0931 -0.5287
  662SOL     MW 2648   2.519   2.937   0.886  0.1310 -0.0506 -0.3544
  663SOL     OW 2649   2.846   1.490   0.353 -0.4175 -0.3070 -0.1841
  663SOL    HW1 2650   2.855   1.583   0.339  0.9248  1.6748  1.8075
  663SOL    HW2 2651   2.863   1.483   0.451  2.1754 -2.9570 -2.3254
  663SOL     MW 2652   2.850   1.501   0.364  0.1017 -0.3952 -0.2039
  664SOL     OW 2653   2.473   1.550   1.578 -0.0148 -0.0138  0.2889
  664SOL    HW1 2654   2.469   1.648   1.574  0.7711 -2.4234 -0.4373
  664SOL    HW2 2655   2.385   1.522   1.602  1.6600 -1.2712  3.9566
  664SOL     MW 2656   2.461   1.559   1.581  0.3098 -0.4976  0.6770
  665SOL     OW 2657   2.857   0.826   2.055  0.5081  0.7362 -0.4544
  665SOL    HW1 2658   2.846   0.864   1.965  2.2375 -0.3819 -1.0980
  665SOL    HW2 2659   2.925   0.772   2.035 -0.4770  3.9210 -2.4727
  665SOL     MW 2660   2.864   0.824   2.040  0.6063  1.0089 -0.8056
  666SOL     OW 2661   2.733   3.026   1.679 -0.3595 -0.3563 -0.2972
  666SOL    HW1 2662   2.749   3.035   1.583  2.3464 -1.1892 -1.4049
  666SOL    HW2 2663   2.686   2.939   1.687 -0.9281  0.7633  3.4794
  666SOL     MW 2664   2.729   3.016   1.667 -0.0775 -0.3184  0.0549
  667SOL     OW 2665   1.980   2.674   1.669 -0.0850 -0.4610 -0.0818
  667SOL    HW1 2666   1.996   2.592   1.717 -1.4729  1.5334  0.7648
  667SOL    HW2 2667   2.061   2.724   1.683 -1.6136  1.6095 -0.8954
  667SOL     MW 2668   1.993   2.670   1.677 -0.4698  0.0753 -0.0775
  668SOL     OW 2669   2.729   0.632   0.793 -0.2917  0.1755 -0.0971
  668SOL    HW1 2670   2.804   0.647   0.857  1.0996  2.1854  1.9534
  668SOL    HW2 2671   2.644   0.671   0.820  0.8391 -1.4870 -1.4486
  668SOL     MW 2672   2.728   0.639   0.805  0.0410  0.2214 -0.0049
  669SOL     OW 2673   0.179   0.944   0.658  0.0225  0.0074 -0.0793
  669SOL    HW1 2674   0.125   0.992   0.714 -1.9947 -3.3492 -1.7480
  669SOL    HW2 2675   0.264   0.977   0.689  2.9483 -1.1065  1.2462
  669SOL     MW 2676   0.183   0.955   0.669  0.1424 -0.5824 -0.1246
  670SOL     OW 2677   2.888   0.312   0.200  0.0013  0.0856 -0.1039
  670SOL    HW1 2678   2.886   0.239   0.130 -1.3148  0.3287 -0.8535
  670SOL    HW2 2679   2.930   0.382   0.148  2.5827 -0.0538  0.3719
  670SOL     MW 2680   2.893   0.311   0.184  0.1682  0.0993 -0.1400
  671SOL     OW 2681   2.127   3.014   1.533 -0.3608 -0.9019 -0.2159
  671SOL    HW1 2682   2.079   2.989   1.461  1.4947  0.8288 -1.7960
  671SOL    HW2 2683   2.067   3.064   1.583 -2.1632 -3.5434 -0.8791
  671SOL     MW 2684   2.113   3.017   1.530 -0.3538 -1.0221 -0.5119
  672SOL     OW 2685   1.847   1.688   1.312  0.1901  0.3572  0.0286
  672SOL    HW1 2686   1.774   1.736   1.356  1.0476  0.7839 -2.5001
  672SOL    HW2 2687   1.889   1.753   1.249 -0.6179  0.2194 -1.0504
  672SOL     MW 2688   1.843   1.703   1.310  0.1966  0.3953 -0.4474
  673SOL     OW 2689   2.785   1.096   0.515 -0.0305 -0.0578  0.3460
  673SOL    HW1 2690   2.788   1.022   0.577 -0.1592 -0.9810  0.9403
  673SOL    HW2 2691   2.840   1.165   0.560 -1.8738 -0.4714  2.7249
  673SOL     MW 2692   2.793   1.095   0.529 -0.2907 -0.2342  0.7383
  674SOL     OW 2693   2.511   0.100   1.213  0.2262 -0.9549  0.1883
  674SOL    HW1 2694   2.469   0.099   1.124 -2.4891  0.4812 -0.7625
  674SOL    HW2 2695   2.510   0.010   1.239  0.4535  1.8177  2.9264
  674SOL     MW 2696   2.505   0.088   1.204 -0.1021 -0.3996  0.4241
  675SOL     OW 2697   3.015   0.925   1.102 -0.1092 -0.4915  0.0443
  675SOL    HW1 2698   3.067   0.895   1.174  2.1748 -1.1504 -0.8168
  675SOL    HW2 2699   3.071   0.977   1.041 -0.0213 -1.3266 -0.2070
  675SOL     MW 2700   3.029   0.928   1.103  0.2038 -0.6886 -0.1025
  676SOL     OW 2701   2.883   1.495   1.655 -0.6237 -0.6912  0.7037
  676SOL    HW1 2702   2.837   1.415   1.640  0.1183  2.4182  1.2777
  676SOL    HW2 2703   2.952   1.471   1.714 -4.0795 -3.2782  0.8902
  676SOL     MW 2704   2.886   1.481   1.661 -0.9818 -0.6223  0.8041
  677SOL     OW 2705   2.439   0.711   1.942 -0.4219 -0.5795  0.3398
  677SOL    HW1 2706   2.405   0.649   1.885  0.9822  0.5982  2.0638
  677SOL    HW2 2707   2.362   0.749   1.982 -2.8406  0.5528  1.2475
  677SOL     MW 2708   2.424   0.708   1.940 -0.5558 -0.2747  0.6871
  678SOL     OW 2709   2.535   1.617   0.404  0.5228 -0.1702  0.6941
  678SOL    HW1 2710   2.452   1.679   0.408 -0.1209  0.7475  0.4154
  678SOL    HW2 2711   2.539   1.597   0.311  1.7334 -0.3028 -1.0064
  678SOL     MW 2712   2.525   1.622   0.392  0.5976 -0.0666  0.4330
  679SOL     OW 2713   2.304   0.517   1.174  0.1886  0.5572  0.5051
  679SOL    HW1 2714   2.267   0.432   1.209  0.8758 -0.2642  1.6939
  679SOL    HW2 2715   2.238   0.583   1.179  1.3719  0.7139 -0.5138
  679SOL     MW 2716   2.290   0.514   1.180  0.4354  0.4695  0.5275
  680SOL     OW 2717   2.373   0.241   1.404  0.2910  0.1196  0.5013
  680SOL    HW1 2718   2.279   0.212   1.416 -3.6148 -3.7635  1.1673
  680SOL    HW2 2719   2.410   0.179   1.333 -2.9529 -0.4014 -0.3961
  680SOL     MW 2720   2.366   0.229   1.396 -0.6523 -0.4614  0.4708
  681SOL     OW 2721   0.355   0.599   1.544 -0.0561  0.3577  0.1523
  681SOL    HW1 2722   0.324   0.531   1.607 -0.8887 -2.3507  0.2693
  681SOL    HW2 2723   0.452   0.579   1.533 -1.0736 -2.2438 -1.3860
  681SOL     MW 2724   0.364   0.587   1.551 -0.3002 -0.3429 -0.0352
  682SOL     OW 2725   0.139   2.950   1.460  0.1443 -0.0072  0.0160
  682SOL    HW1 2726   0.123   3.044   1.457  0.2699  3.2888 -0.1728
  682SOL    HW2 2727   0.074   2.928   1.523 -2.2686 -2.0444 -1.4383
  682SOL     MW 2728   0.129   2.959   1.468 -0.1575  0.1589 -0.2008
  683SOL     OW 2729   2.066   0.871   3.034 -0.6043 -0.2537 -0.2660
  683SOL    HW1 2730   1.990   0.845   2.980 -1.4599 -0.2944  1.8844
  683SOL    HW2 2731   2.047   0.947   3.085  1.4634 -1.4502 -0.2125
  683SOL     MW 2732   2.054   0.877   3.034 -0.4444 -0.4169  0.0248
  684SOL     OW 2733   2.182   1.757   0.923 -0.3029 -0.2748  0.3575
  684SOL    HW1 2734   2.104   1.729   0.867 -0.5359 -2.4541  0.7791
  684SOL    HW2 2735   2.226   1.675   0.956 -1.2917 -1.8161  2.7269
  684SOL     MW 2736   2.177   1.743   0.920 -0.4641 -0.7657  0.7258
  685SOL     OW 2737   2.645   1.744   1.233  0.5101 -0.1355 -0.3322
  685SOL    HW1 2738   2.688   1.728   1.316 -0.1505  3.0353  1.2823
  685SOL    HW2 2739   2.620   1.657   1.192  0.6880 -0.8215  0.2736
  685SOL     MW 2740   2.647   1.731   1.238  0.4464  0.1924 -0.0392
  686SOL     OW 2741   2.882   0.708   1.465  0.4594 -0.1587  0.1612
  686SOL    HW1 2742   2.924   0.646   1.529  0.1963  0.9069  1.4992
  686SOL    HW2 2743   2.944   0.746   1.397  1.4412  2.5052  0.8732
  686SOL     MW 2744   2.895   0.705   1.464  0.5542  0.3334  0.4317
  687SOL     OW 2745   2.129   0.291   1.190 -0.9173  0.0135 -0.8261
  687SOL    HW1 2746   2.144   0.220   1.124  1.5724  0.9632 -0.3290
  687SOL    HW2 2747   2.078   0.358   1.140 -1.5037 -1.2783 -1.8454
  687SOL     MW 2748   2.125   0.290   1.175 -0.6662 -0.0316 -0.8950
  688SOL     OW 2749   2.365   0.634   1.464  0.5719  0.3764 -1.0464
  688SOL    HW1 2750   2.338   0.562   1.410 -2.7186 -0.4496 -0.1022
  688SOL    HW2 2751   2.303   0.650   1.540  0.6907  0.2613  1.7482
  688SOL     MW 2752   2.353   0.627   1.467  0.1534  0.2522 -0.5531
  689SOL     OW 2753   2.544   0.736   2.998  0.0149 -0.1710  0.1133
  689SOL    HW1 2754   2.595   0.810   2.964  0.2926  0.4817  0.7950
  689SOL    HW2 2755   2.557   0.728   3.099 -0.8366 -0.2473  1.7674
  689SOL     MW 2756   2.552   0.744   3.007 -0.0608 -0.0949  0.4215
  690SOL     OW 2757   2.120   0.928   1.914 -0.1229 -0.5314  0.1479
  690SOL    HW1 2758   2.037   0.882   1.929 -0.1236  1.5296  0.0422
  690SOL    HW2 2759   2.144   0.927   1.822 -1.2431 -1.2344  0.1501
  690SOL     MW 2760   2.112   0.921   1.904 -0.2708 -0.3522  0.1343
  691SOL     OW 2761   2.453   0.272   0.820  0.9377 -0.1834 -0.2626
  691SOL    HW1 2762   2.533   0.304   0.868 -0.8644 -0.8053 -0.6082
  691SOL    HW2 2763   2.375   0.321   0.859 -2.6213  1.0197  1.1122
  691SOL     MW 2764   2.453   0.283   0.832  0.2304 -0.1067 -0.1268
  692SOL     OW 2765   2.823   1.666   1.452  0.0777 -1.2447 -0.6404
  692SOL    HW1 2766   2.838   1.603   1.515  0.8971  2.4639 -2.2900
  692SOL    HW2 2767   2.847   1.748   1.481 -1.5141  0.6378 -1.9589
  692SOL     MW 2768   2.828   1.668   1.464 -0.0242 -0.5070 -1.0320
  693SOL     OW 2769   2.324   0.429   0.120 -0.1013  0.1516  0.1626
  693SOL    HW1 2770   2.242   0.401   0.080 -1.7411 -2.7418  0.5719
  693SOL    HW2 2771   2.322   0.519   0.107 -0.7977 -2.4306 -0.7662
  693SOL     MW 2772   2.313   0.437   0.113 -0.4096 -0.5709  0.0941
  694SOL     OW 2773   1.922   1.275   1.093 -0.4610 -0.2764 -0.1824
  694SOL    HW1 2774   1.988   1.230   1.146 -0.7400  2.1132 -0.4603
  694SOL    HW2 2775   1.850   1.211   1.094 -1.4122 -0.3986  2.1747
  694SOL     MW 2776   1.921   1.261   1.100 -0.6233  0.0228  0.0919
  695SOL     OW 2777   2.982   1.439   1.301  0.3462  0.0495  0.2918
  695SOL    HW1 2778   2.976   1.459   1.208  0.3858  2.9183  0.1041
  695SOL    HW2 2779   2.931   1.516   1.329 -0.7688 -1.2938  0.0825
  695SOL     MW 2780   2.974   1.452   1.293  0.2043  0.2508  0.2394
  696SOL     OW 2781   2.099   1.389   0.897 -0.0442 -0.1601 -0.0789
  696SOL    HW1 2782   2.180   1.438   0.926  1.0170  0.5499  0.8698
  696SOL    HW2 2783   2.053   1.349   0.972 -0.9180 -0.7645 -1.0655
  696SOL     MW 2784   2.103   1.391   0.910 -0.0195 -0.1462 -0.0839
  697SOL     OW 2785   2.912   1.098   2.128  0.0265 -0.3392 -0.1141
  697SOL    HW1 2786   2.860   1.178   2.152  0.3178  3.7092 -0.0775
  697SOL    HW2 2787   2.854   1.018   2.121 -2.3005 -2.1998 -0.2035
  697SOL     MW 2788   2.897   1.098   2.130 -0.2421 -0.0505 -0.1211
  698SOL     OW 2789   2.574   0.306   0.008  0.0291  0.3961  0.1490
  698SOL    HW1 2790   2.498   0.355   0.035 -0.2868  3.1041 -2.0767
  698SOL    HW2 2791   2.597   0.255   0.095  1.6402  1.5754  1.2460
  698SOL     MW 2792   2.567   0.306   0.023  0.2000  0.9090  0.0001
  699SOL     OW 2793   1.823   1.659   2.063  0.3683  0.5468 -0.0933
  699SOL    HW1 2794   1.781   1.569   2.060 -1.8205  0.6855  1.2204
  699SOL    HW2 2795   1.915   1.649   2.031  0.0976  2.5111  1.0165
  699SOL     MW 2796   1.830   1.646   2.059  0.0438  0.8243  0.2264
  700SOL     OW 2797   2.729   0.923   1.579 -0.0597  0.3843 -0.2055
  700SOL    HW1 2798   2.720   0.994   1.512 -0.2727 -2.3832 -1.2943
  700SOL    HW2 2799   2.798   0.857   1.557 -2.6312 -0.1830  2.1737
  700SOL     MW 2800   2.737   0.924   1.568 -0.4271 -0.0557 -0.0352
  701SOL     OW 2801   1.630   1.276   2.546 -0.0584  0.0310 -0.9463
  701SOL    HW1 2802   1.714   1.285   2.586 -2.5954 -0.5681 -0.1049
  701SOL    HW2 2803   1.574   1.313   2.617 -0.2203 -0.8950 -1.6505
  701SOL     MW 2804   1.634   1.282   2.561 -0.4145 -0.1702 -0.9282
  702SOL     OW 2805   2.184   0.388   0.852  0.3531  0.0136  0.1228
  702SOL    HW1 2806   2.171   0.334   0.776 -3.4194 -0.1427  0.3825
  702SOL    HW2 2807   2.234   0.467   0.840 -0.3855 -0.8451  1.3856
  702SOL     MW 2808   2.189   0.392   0.840 -0.2421 -0.1203  0.3237
  703SOL     OW 2809   2.690   1.281   1.034  0.3939 -0.0843  0.4896
  703SOL    HW1 2810   2.662   1.272   0.937  2.4920  0.2635 -2.2853
  703SOL    HW2 2811   2.707   1.184   1.049 -1.0320 -1.0217 -1.1021
  703SOL     MW 2812   2.688   1.267   1.023  0.4825 -0.1621 -0.0865
  704SOL     OW 2813   3.086   1.328   0.270 -0.1579 -0.0510 -0.8652
  704SOL    HW1 2814   3.021   1.270   0.236 -1.0546  2.1818 -2.3527
  704SOL    HW2 2815   3.119   1.289   0.357  0.9033  1.3989  4.5885
  704SOL     MW 2816   3.082   1.315   0.277 -0.1362  0.4349 -0.3419
  705SOL     OW 2817   2.191   1.610   1.278  0.2575  0.4813  0.6627
  705SOL    HW1 2818   2.140   1.639   1.340  4.8219 -0.4388 -2.5167
  705SOL    HW2 2819   2.201   1.515   1.300 -1.4795  1.8033  0.1615
  705SOL     MW 2820   2.186   1.601   1.289  0.6305  0.5343  0.1770
  706SOL     OW 2821   2.949   1.233   0.697 -0.2249 -0.4104  0.2740
  706SOL    HW1 2822   3.033   1.236   0.652  3.0661  0.0223 -1.3538
  706SOL    HW2 2823   2.930   1.327   0.710  0.1650  0.0382  0.5749
  706SOL     MW 2824   2.957   1.246   0.693  0.2607 -0.2941  0.0989
  707SOL     OW 2825   2.378   0.061   0.983 -0.1169  0.1428 -0.3919
  707SOL    HW1 2826   2.409   0.135   0.920 -0.4692  1.7354 -0.1255
  707SOL    HW2 2827   2.282   0.072   0.973 -0.2173 -0.2814 -0.9162
  707SOL     MW 2828   2.370   0.072   0.974 -0.1766  0.2970 -0.4259
  708SOL     OW 2829   2.552   1.567   0.141  0.3878 -0.1796  0.1232
  708SOL    HW1 2830   2.603   1.487   0.167  1.0793  0.5884  0.6433
  708SOL    HW2 2831   2.496   1.543   0.066  0.5485 -2.5047 -2.2231
  708SOL     MW 2832   2.552   1.553   0.135  0.5002 -0.3850 -0.1177
  709SOL     OW 2833   1.723   1.728   0.146  0.0905 -0.2972  0.1470
  709SOL    HW1 2834   1.655   1.767   0.090  0.6741 -0.9918  2.6276
  709SOL    HW2 2835   1.694   1.700   0.230  0.7665  2.6336  3.0810
  709SOL     MW 2836   1.710   1.730   0.150  0.2567 -0.0022  0.8614
  710SOL     OW 2837   2.145   1.150   1.202  0.5055  0.4500  0.1589
  710SOL    HW1 2838   2.189   1.149   1.114  1.8344 -1.7518  1.6953
  710SOL    HW2 2839   2.163   1.062   1.239 -0.2059  1.5117 -1.4938
  710SOL     MW 2840   2.153   1.138   1.195  0.5870  0.2996  0.1436
  711SOL     OW 2841   2.327   0.125   1.772  0.1317  0.0828  0.4759
  711SOL    HW1 2842   2.427   0.115   1.787 -2.2581  0.8586  0.7752
  711SOL    HW2 2843   2.328   0.115   1.675  2.4975  0.9791  0.6880
  711SOL     MW 2844   2.341   0.122   1.761  0.1285  0.3034  0.5434
  712SOL     OW 2845   1.811   0.606   3.061  1.2754 -0.3895 -0.0741
  712SOL    HW1 2846   1.806   0.668   2.992 -0.0339 -2.4432 -0.1996
  712SOL    HW2 2847   1.849   0.650   3.144  0.9074  3.7448 -0.0776
  712SOL     MW 2848   1.816   0.620   3.063  1.0541 -0.1150 -0.0911
  713SOL     OW 2849   2.595   0.824   1.086 -0.2737  0.1349 -0.0573
  713SOL    HW1 2850   2.628   0.736   1.121  3.1463  0.5836  1.6285
  713SOL    HW2 2851   2.538   0.850   1.158 -0.6772  1.6003 -0.1716
  713SOL     MW 2852   2.592   0.816   1.100  0.1243  0.3874  0.1501
  714SOL     OW 2853   2.163   0.215   1.948  0.3584  0.0355  0.3340
  714SOL    HW1 2854   2.206   0.211   2.034 -2.2289  1.4764  0.9419
  714SOL    HW2 2855   2.228   0.174   1.886  4.1988 -1.6525 -0.8796
  714SOL     MW 2856   2.177   0.209   1.952  0.5237  0.0029  0.2541
  715SOL     OW 2857   1.740   1.908   1.734 -0.5136  0.2108 -0.0715
  715SOL    HW1 2858   1.835   1.912   1.710 -2.4484 -3.0039  1.6297
  715SOL    HW2 2859   1.723   1.814   1.750  0.6620 -1.4514 -1.0340
  715SOL     MW 2860   1.750   1.897   1.733 -0.6138 -0.4327  0.0260
  716SOL     OW 2861   2.399   0.561   0.733 -0.1184 -0.1279 -0.0446
  716SOL    HW1 2862   2.442   0.501   0.672 -2.1731  0.6676  1.3656
  716SOL    HW2 2863   2.330   0.608   0.681 -0.0269  2.7295  0.0074
  716SOL     MW 2864   2.396   0.560   0.718 -0.3774  0.3541  0.1483
  717SOL     OW 2865   2.861   1.442   2.900  0.4712 -0.9964  0.1381
  717SOL    HW1 2866   2.957   1.440   2.914 -1.9895 -2.0342  0.5144
  717SOL    HW2 2867   2.825   1.501   2.972  0.2721 -0.9213 -0.8108
  717SOL     MW 2868   2.869   1.449   2.911  0.1203 -1.1234  0.0626
  718SOL     OW 2869   2.519   1.349   1.379 -0.5008  0.3531  0.0335
  718SOL    HW1 2870   2.521   1.390   1.466  0.9083 -0.1844 -2.5336
  718SOL    HW2 2871   2.556   1.261   1.385  0.5734  1.7125  0.7909
  718SOL     MW 2872   2.524   1.343   1.391 -0.1732  0.4616 -0.2052
  719SOL     OW 2873   2.165   1.341   0.575  0.1594  0.2146 -0.2110
  719SOL    HW1 2874   2.257   1.361   0.561  0.0089  2.2308 -2.2651
  719SOL    HW2 2875   2.157   1.349   0.670 -1.8625  1.4255  0.8902
  719SOL     MW 2876   2.176   1.344   0.585 -0.1272  0.6403 -0.3367
  720SOL     OW 2877   2.889   1.188   0.145 -0.0464 -0.2847  0.1743
  720SOL    HW1 2878   2.872   1.097   0.159  0.6795  0.1496 -3.2038
  720SOL    HW2 2879   2.807   1.230   0.160  2.6079 -0.9849  0.9546
  720SOL     MW 2880   2.876   1.182   0.149  0.3996 -0.3198 -0.1684
  721SOL     OW 2881   2.514   0.829   1.363  0.0100  0.1663  0.1453
  721SOL    HW1 2882   2.445   0.764   1.395 -4.0376  0.0903  2.4025
  721SOL    HW2 2883   2.566   0.864   1.433 -0.8255 -2.5076 -1.6266
  721SOL     MW 2884   2.512   0.825   1.376 -0.6343 -0.1965  0.2093
  722SOL     OW 2885   2.549   1.191   0.357  0.2214 -1.1063 -0.4850
  722SOL    HW1 2886   2.505   1.258   0.419 -0.4815  0.9746 -0.3517
  722SOL    HW2 2887   2.626   1.159   0.404  0.5642  0.0028  4.2579
  722SOL     MW 2888   2.554   1.195   0.371  0.1738 -0.6854  0.1584
  723SOL     OW 2889   2.222   1.376   1.647  0.0155  0.0661  0.1367
  723SOL    HW1 2890   2.217   1.345   1.559  0.8869 -1.8150  1.8434
  723SOL    HW2 2891   2.152   1.438   1.650  2.1529  0.1992 -0.7243
  723SOL     MW 2892   2.212   1.380   1.636  0.4124 -0.1645  0.2482
  724SOL     OW 2893   2.497   0.384   0.552  0.0846  0.5788 -0.0466
  724SOL    HW1 2894   2.495   0.310   0.613  0.2531 -1.0959  0.2354
  724SOL    HW2 2895   2.586   0.383   0.522  1.6071 -0.4702  2.8648
  724SOL     MW 2896   2.508   0.374   0.556  0.3077  0.2194  0.3747
  725SOL     OW 2897   2.579   0.526   1.126 -0.5394  0.2558 -0.0344
  725SOL    HW1 2898   2.619   0.509   1.207  2.0606  0.0231  1.4892
  725SOL    HW2 2899   2.483   0.523   1.135  0.1008 -0.9509 -1.4508
  725SOL     MW 2900   2.572   0.524   1.138 -0.1119  0.0659 -0.0203
  726SOL     OW 2901   2.584   2.429   0.548  0.5600 -0.2141  0.3023
  726SOL    HW1 2902   2.502   2.432   0.494  1.7288  0.0640  1.6733
  726SOL    HW2 2903   2.569   2.368   0.615 -0.8414 -0.0559 -1.6862
  726SOL     MW 2904   2.571   2.422   0.550  0.5293 -0.1565  0.2208
  727SOL     OW 2905   2.903   0.271   1.584  0.6100 -0.6570 -0.2798
  727SOL    HW1 2906   2.936   0.307   1.497  2.9083  0.9192 -1.0077
  727SOL    HW2 2907   2.807   0.278   1.582 -0.1747  1.4783  0.8362
  727SOL     MW 2908   2.895   0.277   1.573  0.8097 -0.1673 -0.2286
  728SOL     OW 2909   2.813   1.165   2.975 -0.0938  0.1238  0.3071
  728SOL    HW1 2910   2.843   1.247   2.937 -2.0854  0.8708  0.5126
  728SOL    HW2 2911   2.839   1.162   3.069  3.0440  2.8166 -2.5694
  728SOL     MW 2912   2.820   1.176   2.982  0.0574  0.5777 -0.0453
  729SOL     OW 2913   2.563   1.504   1.155  0.1166  0.6528 -0.0523
  729SOL    HW1 2914   2.541   1.469   1.244 -3.1849  0.4520 -4.2181
  729SOL    HW2 2915   2.614   1.430   1.112  3.6863  2.3369 -1.5460
  729SOL     MW 2916   2.567   1.489   1.161  0.1520  0.8485 -0.7990
  730SOL     OW 2917   2.115   1.117   0.290  0.1168 -0.1169  0.1044
  730SOL    HW1 2918   2.202   1.080   0.270  0.1371  0.8874  1.0332
  730SOL    HW2 2919   2.121   1.210   0.305 -0.0283  1.2591  0.5545
  730SOL     MW 2920   2.127   1.124   0.289  0.1003  0.1972  0.2863
  731SOL     OW 2921   2.806   1.846   2.890 -0.0696 -0.0076 -0.6683
  731SOL    HW1 2922   2.731   1.875   2.834  0.3804  2.4176  2.0355
  731SOL    HW2 2923   2.865   1.922   2.893  0.7590 -1.4751  0.3144
  731SOL     MW 2924   2.804   1.860   2.883  0.0991  0.1188 -0.1819
  732SOL     OW 2925   2.236   0.927   1.306 -0.2381 -0.8178 -0.9649
  732SOL    HW1 2926   2.177   0.914   1.382  1.7509  3.0462  1.2314
  732SOL    HW2 2927   2.320   0.897   1.345 -2.1791 -1.0662  0.9609
  732SOL     MW 2928   2.239   0.921   1.321 -0.2317 -0.3408 -0.4211
  733SOL     OW 2929   2.354   2.813   3.059  0.4778 -0.0428 -0.3980
  733SOL    HW1 2930   2.268   2.842   3.031  0.0742  1.0603 -2.5113
  733SOL    HW2 2931   2.340   2.717   3.050  1.0196  1.2667 -0.1384
  733SOL     MW 2932   2.341   2.804   3.054  0.4960  0.2755 -0.6426
  734SOL     OW 2933   1.491   0.361   2.471  0.2729 -0.3903  0.1340
  734SOL    HW1 2934   1.487   0.322   2.563 -1.2192  0.3256  1.1805
  734SOL    HW2 2935   1.512   0.283   2.415 -0.3744  0.3850  4.4744
  734SOL     MW 2936   1.493   0.346   2.476 -0.0094 -0.1936  0.8447
  735SOL     OW 2937   3.014   0.969   2.596 -0.4197 -0.8569 -0.2575
  735SOL    HW1 2938   3.005   0.880   2.621 -0.3162  0.0112 -1.2092
  735SOL    HW2 2939   3.025   1.021   2.677  0.8600  1.5040 -0.8517
  735SOL     MW 2940   3.014   0.964   2.610 -0.2372 -0.4309 -0.4615
  736SOL     OW 2941   0.060   0.583   2.549 -0.0606  0.1932 -0.0856
  736SOL    HW1 2942   0.114   0.642   2.494 -0.7726  0.7936 -1.8706
  736SOL    HW2 2943   0.046   0.504   2.486 -1.3887 -0.9668  1.1009
  736SOL     MW 2944   0.065   0.580   2.533 -0.3298  0.1193 -0.1646
  737SOL     OW 2945   2.924   0.695   2.621  0.3344 -0.0132  0.1286
  737SOL    HW1 2946   2.852   0.681   2.555  0.5248 -1.4164  0.3442
  737SOL    HW2 2947   3.005   0.668   2.579 -0.1659  0.7920  0.3641
  737SOL     MW 2948   2.925   0.690   2.606  0.2935 -0.0921  0.1881
  738SOL     OW 2949   0.168   0.530   1.960 -0.0803  0.0542 -0.6131
  738SOL    HW1 2950   0.241   0.562   2.013  0.0199 -1.5152 -1.4528
  738SOL    HW2 2951   0.214   0.483   1.886  2.2649 -2.1543  4.5994
  738SOL     MW 2952   0.184   0.528   1.957  0.2424 -0.4443 -0.0362
  739SOL     OW 2953   2.526   0.957   2.156 -0.0033  0.5741  0.2218
  739SOL    HW1 2954   2.429   0.954   2.161  0.3863  0.3173 -0.5726
  739SOL    HW2 2955   2.549   0.990   2.068  1.2683 -0.0461  0.2132
  739SOL     MW 2956   2.517   0.961   2.145  0.2159  0.4584  0.1159
  740SOL     OW 2957   0.119   1.777   2.954  0.2119  0.0413  0.0066
  740SOL    HW1 2958   0.071   1.695   2.961  1.5237  0.6883 -0.9500
  740SOL    HW2 2959   0.214   1.756   2.969 -0.9466 -2.1012  1.9383
  740SOL     MW 2960   0.125   1.764   2.957  0.2321 -0.1560  0.1353
  741SOL     OW 2961   2.230   1.221   2.710  0.1886  0.4934 -0.4508
  741SOL    HW1 2962   2.198   1.306   2.676  0.7632 -1.0522  1.4748
  741SOL    HW2 2963   2.212   1.220   2.804 -2.6155  0.5339 -1.6916
  741SOL     MW 2964   2.224   1.232   2.718 -0.1055  0.2948 -0.3604
  742SOL     OW 2965   1.646   1.380   2.275 -0.1735 -0.1177  0.2310
  742SOL    HW1 2966   1.600   1.297   2.267 -0.0688 -0.1812 -0.4332
  742SOL    HW2 2967   1.657   1.391   2.368 -2.8453  1.5752 -2.4513
  742SOL     MW 2968   1.642   1.370   2.286 -0.5122  0.0973 -0.2105
  743SOL     OW 2969   2.505   1.245   2.712  0.4237  0.1275  0.5948
  743SOL    HW1 2970   2.410   1.229   2.721  2.5468 -1.8761 -0.6830
  743SOL    HW2 2971   2.541   1.168   2.747 -1.2055  4.4873 -2.2704
  743SOL     MW 2972   2.497   1.233   2.718  0.4889  0.4384  0.0482
  744SOL     OW 2973   2.795   0.990   1.831  0.3642  0.0093  0.0859
  744SOL    HW1 2974   2.716   1.030   1.871  0.4377 -1.5200  2.0810
  744SOL    HW2 2975   2.764   0.947   1.751 -0.2905 -0.2925  0.1794
  744SOL     MW 2976   2.780   0.990   1.826  0.2875 -0.2323  0.3614
  745SOL     OW 2977   1.790   0.437   2.458  0.3399 -0.0584  0.4329
  745SOL    HW1 2978   1.807   0.426   2.363 -0.2240 -1.1597  0.6765
  745SOL    HW2 2979   1.692   0.440   2.466 -1.4381  2.1292 -0.8719
  745SOL     MW 2980   1.779   0.436   2.446  0.0309  0.0849  0.2929
  746SOL     OW 2981   1.503   1.477   1.684  0.0013  0.0098 -0.3167
  746SOL    HW1 2982   1.581   1.527   1.703 -0.1953 -1.7176 -1.1909
  746SOL    HW2 2983   1.493   1.433   1.769  1.9692  1.8794  2.7154
  746SOL     MW 2984   1.512   1.478   1.698  0.2350  0.0285 -0.0320
  747SOL     OW 2985   2.554   1.126   1.915 -0.6642  0.2429 -0.2834
  747SOL    HW1 2986   2.478   1.150   1.860  2.4086  0.8195 -0.8050
  747SOL    HW2 2987   2.572   1.208   1.964  1.0404 -0.5161 -1.0930
  747SOL     MW 2988   2.546   1.140   1.914 -0.0339  0.2188 -0.4590
  748SOL     OW 2989   0.075   3.060   1.916  0.1061  0.0595  0.0542
  748SOL    HW1 2990   0.159   3.020   1.931 -0.8904 -3.0270 -0.4678
  748SOL    HW2 2991   0.057   3.119   1.986  0.5644  0.9971 -0.6456
  748SOL     MW 2992   0.084   3.063   1.927  0.0351 -0.2240 -0.1070
  749SOL     OW 2993   2.458   0.586   2.773  0.5538 -0.6935 -0.0368
  749SOL    HW1 2994   2.459   0.678   2.737 -2.9556  1.7692  0.1214
  749SOL    HW2 2995   2.492   0.604   2.865 -3.2864 -1.0908 -0.8582
  749SOL     MW 2996   2.463   0.601   2.780 -0.4159 -0.4210 -0.1243
  750SOL     OW 2997   2.062   3.059   1.954  0.1348  0.4710 -0.1060
  750SOL    HW1 2998   2.103   3.141   1.975 -1.3627 -3.0247 -0.8977
  750SOL    HW2 2999   2.138   2.992   1.940  1.9447 -1.2991  2.7610
  750SOL     MW 3000   2.078   3.061   1.955  0.1760 -0.2238  0.1678
  751SOL     OW 3001   0.010   0.385   2.399  0.5755 -0.0974  0.1725
  751SOL    HW1 3002  -0.074   0.408   2.366 -1.2834 -1.3166  2.1094
  751SOL    HW2 3003   0.069   0.369   2.322 -1.5301 -1.0512 -0.9873
  751SOL     MW 3004   0.007   0.386   2.385  0.0524 -0.3841  0.2750
  752SOL     OW 3005   2.126   0.901   2.768 -0.0409  0.0874 -0.8070
  752SOL    HW1 3006   2.210   0.950   2.766  0.3816  0.0783 -1.0106
  752SOL    HW2 3007   2.112   0.900   2.866  0.8420  0.1784 -1.7301
  752SOL     MW 3008   2.135   0.907   2.781  0.1313  0.0982 -0.9556
  753SOL     OW 3009   2.842   0.430   2.318  0.4518 -0.0162  0.5233
  753SOL    HW1 3010   2.802   0.344   2.327 -0.2303  0.8924 -0.6528
  753SOL    HW2 3011   2.777   0.495   2.355 -0.1622  1.0771 -0.1525
  753SOL     MW 3012   2.828   0.428   2.324  0.2808  0.2480  0.2790
  754SOL     OW 3013   2.261   2.998   2.605 -0.4873  0.5029 -0.5553
  754SOL    HW1 3014   2.291   3.003   2.510  0.5530 -0.1609 -0.3277
  754SOL    HW2 3015   2.335   2.949   2.651 -0.2136 -1.0462  1.1041
  754SOL     MW 3016   2.275   2.992   2.598 -0.3139  0.2109 -0.3064
  755SOL     OW 3017   2.792   1.594   2.488 -0.5841  0.2553  0.1332
  755SOL    HW1 3018   2.766   1.509   2.522  0.4057 -0.3209  1.9051
  755SOL    HW2 3019   2.830   1.642   2.562 -0.8239  0.5048  0.2440
  755SOL     MW 3020   2.794   1.589   2.502 -0.4851  0.2122  0.3816
  756SOL     OW 3021   2.242   1.269   2.972  0.2500  0.0513 -0.0566
  756SOL    HW1 3022   2.318   1.317   3.010  3.3189  0.9730  2.0236
  756SOL    HW2 3023   2.281   1.183   2.987 -0.5998  0.1419 -0.2261
  756SOL     MW 3024   2.257   1.264   2.979  0.5428  0.1849  0.1955
  757SOL     OW 3025   2.199   0.937   1.643 -0.2086  0.1144 -0.0011
  757SOL    HW1 3026   2.202   0.842   1.642  0.1080 -2.0862 -1.7726
  757SOL    HW2 3027   2.116   0.951   1.596  1.3900  1.1812 -0.0409
  757SOL     MW 3028   2.188   0.926   1.636  0.0441 -0.0352 -0.2401
  758SOL     OW 3029   2.265   1.795   2.627 -0.1622 -0.1889  0.2681
  758SOL    HW1 3030   2.260   1.816   2.530 -1.4847 -1.2210  1.2689
  758SOL    HW2 3031   2.355   1.774   2.646 -0.1301 -3.4517 -0.5900
  758SOL     MW 3032   2.276   1.795   2.616 -0.3325 -0.7555  0.2869
  759SOL     OW 3033   1.536   1.423   2.782  0.2217  0.1374  0.6305
  759SOL    HW1 3034   1.539   1.499   2.717 -0.8766  3.3682 -0.4522
  759SOL    HW2 3035   1.620   1.422   2.827  0.0052 -3.1105 -2.6541
  759SOL     MW 3036   1.548   1.433   2.779  0.0482  0.1352  0.0543
  760SOL     OW 3037   2.649   1.980   2.680  0.7676 -0.3023 -0.7019
  760SOL    HW1 3038   2.587   1.908   2.691  4.4247  0.8127  0.3235
  760SOL    HW2 3039   2.722   1.957   2.629 -1.5413 -0.8198  0.9184
  760SOL     MW 3040   2.650   1.968   2.674  0.9455 -0.2235 -0.3528
  761SOL     OW 3041   2.175   0.455   2.445  0.2059  0.1424 -0.2615
  761SOL    HW1 3042   2.130   0.374   2.434 -3.1198  0.3314  0.5616
  761SOL    HW2 3043   2.133   0.472   2.533 -2.5444 -1.2280  1.9452
  761SOL     MW 3044   2.164   0.446   2.455 -0.5958 -0.0135  0.1382
  762SOL     OW 3045   0.029   0.151   2.086 -0.5455 -0.2425  0.0737
  762SOL    HW1 3046  -0.001   0.092   2.156  0.6958  1.3333  2.6105
  762SOL    HW2 3047  -0.037   0.217   2.069  1.2384  1.3478 -0.8838
  762SOL     MW 3048   0.017   0.152   2.093 -0.1464  0.1753  0.2820
  763SOL     OW 3049   2.453   1.160   2.369  0.4753  0.1778 -0.3421
  763SOL    HW1 3050   2.497   1.121   2.293  1.6009 -1.8230  1.3358
  763SOL    HW2 3051   2.515   1.213   2.417  0.5366 -0.3935  0.4193
  763SOL     MW 3052   2.467   1.162   2.366  0.6319 -0.1616 -0.0202
  764SOL     OW 3053   0.333   0.181   2.792 -0.3225  0.2712  0.6139
  764SOL    HW1 3054   0.256   0.216   2.752  2.2714 -2.0127 -0.3466
  764SOL    HW2 3055   0.374   0.257   2.826  2.2805  0.8896 -0.5120
  764SOL     MW 3056   0.328   0.196   2.791  0.3632  0.0515  0.3386
  765SOL     OW 3057   2.752   0.176   2.320  0.0111  0.0120 -0.3268
  765SOL    HW1 3058   2.701   0.137   2.245  1.1440 -1.2073 -0.8066
  765SOL    HW2 3059   2.813   0.106   2.349 -0.1444 -0.5665  3.6907
  765SOL     MW 3060   2.753   0.162   2.314  0.1400 -0.2252  0.1399
  766SOL     OW 3061   1.849   3.001   2.096 -0.1178 -0.2848  0.0732
  766SOL    HW1 3062   1.931   3.012   2.048 -0.5637 -0.3148  1.2952
  766SOL    HW2 3063   1.786   2.945   2.050 -0.6803  2.1130 -0.1518
  766SOL     MW 3064   1.851   2.995   2.083 -0.2508  0.0276  0.2048
  767SOL     OW 3065   2.701   0.622   1.925 -0.3043 -0.0939 -0.9858
  767SOL    HW1 3066   2.768   0.664   1.980 -0.0258  0.5453  1.5170
  767SOL    HW2 3067   2.618   0.650   1.966  0.1909 -1.4526 -0.2317
  767SOL     MW 3068   2.699   0.631   1.938 -0.2022 -0.1888 -0.5561
  768SOL     OW 3069   0.030   1.469   2.952 -0.5195  0.3919 -0.1206
  768SOL    HW1 3070   0.054   1.484   3.045  1.7241  1.1999 -1.5072
  768SOL    HW2 3071   0.054   1.377   2.946  2.3759  2.6304  0.8748
  768SOL     MW 3072   0.037   1.459   2.963  0.1585  0.7939 -0.1722
  769SOL     OW 3073   2.391   0.638   2.471 -0.1316 -0.3265  0.1873
  769SOL    HW1 3074   2.318   0.568   2.460 -0.4507 -0.3931 -0.5377
  769SOL    HW2 3075   2.428   0.633   2.384 -2.6630 -2.3162  1.1474
  769SOL     MW 3076   2.386   0.628   2.458 -0.5077 -0.5978  0.2183
  770SOL     OW 3077   0.062   1.613   2.621 -0.2794 -0.4203 -0.8478
  770SOL    HW1 3078  -0.027   1.631   2.653 -0.3367 -2.1906 -0.4891
  770SOL    HW2 3079   0.083   1.520   2.638  0.3610  2.1695 -1.2618
  770SOL     MW 3080   0.053   1.603   2.627 -0.2025 -0.3122 -0.8551
  771SOL     OW 3081   2.996   0.579   1.972  0.6590  0.6081  0.1014
  771SOL    HW1 3082   2.963   0.546   1.885 -0.9372 -1.4955 -0.8053
  771SOL    HW2 3083   3.085   0.561   1.963 -1.5005 -0.1593  0.9280
  771SOL     MW 3084   3.004   0.573   1.959  0.1635  0.2293  0.0908
  772SOL     OW 3085   0.030   3.088   2.308  0.6326  0.5501 -0.2154
  772SOL    HW1 3086  -0.047   3.061   2.356 -0.4506  0.3125 -2.4974
  772SOL    HW2 3087   0.063   3.005   2.272 -0.7761  0.0104  1.6118
  772SOL     MW 3088   0.025   3.074   2.310  0.3038  0.4475 -0.2754
  773SOL     OW 3089   2.455   2.854   2.792 -0.6898  0.8128 -0.2641
  773SOL    HW1 3090   2.460   2.764   2.755  0.0255 -2.4190 -1.5910
  773SOL    HW2 3091   2.434   2.846   2.888 -2.2349  1.4689 -0.0601
  773SOL     MW 3092   2.453   2.841   2.800 -0.7993  0.4730 -0.4123
  774SOL     OW 3093   2.292   1.170   1.816  0.2639  0.1615 -0.3383
  774SOL    HW1 3094   2.252   1.238   1.757  0.3277 -0.9198 -1.6907
  774SOL    HW2 3095   2.276   1.079   1.774 -0.3796  0.4179  0.0516
  774SOL     MW 3096   2.285   1.167   1.802  0.1874  0.0527 -0.4653
  775SOL     OW 3097   2.305   2.985   2.333  0.5358  0.4589 -0.0357
  775SOL    HW1 3098   2.312   3.052   2.258  0.9639 -0.6080 -1.6654
  775SOL    HW2 3099   2.367   2.918   2.311 -2.5478 -1.5518  1.4486
  775SOL     MW 3100   2.314   2.985   2.320  0.1855  0.0529 -0.0549
  776SOL     OW 3101   0.102   1.499   0.118 -0.3152 -0.3624 -0.4899
  776SOL    HW1 3102   0.199   1.480   0.111  0.1453 -2.7095  0.5098
  776SOL    HW2 3103   0.064   1.430   0.172  1.7294  0.2132  0.7845
  776SOL     MW 3104   0.110   1.488   0.124  0.0153 -0.5962 -0.1899
  777SOL     OW 3105   3.019   1.129   1.719 -0.5311 -0.2154 -0.4021
  777SOL    HW1 3106   2.994   1.124   1.631  0.4649 -2.0555  1.6938
  777SOL    HW2 3107   2.951   1.100   1.777 -0.4523  0.5538 -0.5627
  777SOL     MW 3108   3.006   1.124   1.715 -0.3893 -0.3567 -0.1467
  778SOL     OW 3109   2.806   0.432   2.709  0.6060  0.4146  0.5494
  778SOL    HW1 3110   2.779   0.463   2.792  0.9387 -0.0976 -1.9400
  778SOL    HW2 3111   2.861   0.505   2.675 -2.1233  1.3793  1.2888
  778SOL     MW 3112   2.809   0.446   2.716  0.2898  0.4743  0.3185
  779SOL     OW 3113   2.246   0.553   2.197 -0.3077 -0.3862  0.3059
  779SOL    HW1 3114   2.215   0.639   2.166  3.2980  3.6830  2.7370
  779SOL    HW2 3115   2.183   0.528   2.261  2.9248 -1.6445 -1.1111
  779SOL     MW 3116   2.233   0.561   2.202  0.5945 -0.0153  0.4397
  780SOL     OW 3117   0.113   0.316   2.674  0.0951 -0.0639 -0.3283
  780SOL    HW1 3118   0.040   0.325   2.738  1.5780 -0.5948  2.4469
  780SOL    HW2 3119   0.156   0.405   2.658  2.7419  0.7826 -1.9913
  780SOL     MW 3120   0.109   0.329   2.680  0.6400 -0.0223 -0.1816
  781SOL     OW 3121   3.070   1.298   2.454  0.4152 -0.2553  0.3557
  781SOL    HW1 3122   3.064   1.370   2.392  0.0242 -1.9689  0.7783
  781SOL    HW2 3123   3.082   1.219   2.399  1.1191 -1.5502 -1.0404
  781SOL     MW 3124   3.071   1.297   2.438  0.4565 -0.6522  0.2273
  782SOL     OW 3125   0.653   1.581   0.018  0.4152 -0.0056 -0.2723
  782SOL    HW1 3126   0.580   1.625  -0.004  1.7174  2.3369  0.2767
  782SOL    HW2 3127   0.675   1.620   0.104 -0.2734 -0.5828 -2.1954
  782SOL     MW 3128   0.646   1.592   0.026  0.4961  0.2273 -0.4536
  783SOL     OW 3129   2.696   0.639   2.454 -0.2324  0.1004 -0.2558
  783SOL    HW1 3130   2.638   0.659   2.384 -0.9851 -0.4554 -0.4300
  783SOL    HW2 3131   2.637   0.577   2.502 -2.5508 -1.2845 -1.4752
  783SOL     MW 3132   2.681   0.634   2.451 -0.6376 -0.1557 -0.4397
  784SOL     OW 3133   0.151   0.837   2.865 -0.4004 -0.4465 -0.2995
  784SOL    HW1 3134   0.066   0.874   2.862  2.2375 -3.3130 -1.7353
  784SOL    HW2 3135   0.193   0.865   2.777  1.1681 -0.7303  0.5727
  784SOL     MW 3136   0.145   0.846   2.853  0.1546 -0.8621 -0.3739
  785SOL     OW 3137   0.427   0.466   2.175 -0.6501 -0.0049 -0.0451
  785SOL    HW1 3138   0.433   0.495   2.084 -0.2704  3.0247  3.5533
  785SOL    HW2 3139   0.355   0.408   2.178  1.0772 -0.0731  1.1077
  785SOL     MW 3140   0.418   0.462   2.163 -0.3721  0.3858  0.5818
  786SOL     OW 3141   1.914   0.390   2.958  0.1985  0.1027 -0.1026
  786SOL    HW1 3142   1.879   0.472   2.991 -0.8957  0.6783  1.4443
  786SOL    HW2 3143   1.974   0.418   2.894 -0.5482  0.5350  0.9836
  786SOL     MW 3144   1.917   0.404   2.954 -0.0444  0.2357  0.2448
  787SOL     OW 3145   2.473   0.088   2.970 -0.4149 -0.0483  0.6253
  787SOL    HW1 3146   2.546   0.028   2.938  0.8558 -0.5205  0.0154
  787SOL    HW2 3147   2.508   0.160   3.024 -1.2116  2.4658 -1.4583
  787SOL     MW 3148   2.487   0.089   2.973 -0.3524  0.2211  0.2699
  788SOL     OW 3149   2.871   3.038   2.436 -0.3612 -0.4628 -0.1487
  788SOL    HW1 3150   2.901   3.042   2.530  0.8989  0.4380 -0.9230
  788SOL    HW2 3151   2.856   2.947   2.421  2.2490  0.9137  0.5519
  788SOL     MW 3152   2.873   3.027   2.447  0.1495 -0.1624 -0.1584
  789SOL     OW 3153   0.064   0.196   3.033  0.0572  0.0720  0.1834
  789SOL    HW1 3154  -0.013   0.157   3.081 -0.9218 -0.4758 -1.8060
  789SOL    HW2 3155   0.015   0.263   2.982  1.1779 -3.3395 -2.0969
  789SOL     MW 3156   0.047   0.199   3.032  0.0759 -0.4504 -0.3799
  790SOL     OW 3157   3.091   1.057   2.346  0.4595  0.6868 -0.5320
  790SOL    HW1 3158   3.061   1.030   2.433  1.2888 -1.8724 -1.8367
  790SOL    HW2 3159   3.012   1.065   2.287 -2.8056 -0.9357 -0.2405
  790SOL     MW 3160   3.076   1.054   2.350  0.1382  0.1351 -0.6657
  791SOL     OW 3161   2.562   0.431   2.575  0.0415 -0.3420 -0.1036
  791SOL    HW1 3162   2.503   0.468   2.651  0.9714  3.2546  0.5690
  791SOL    HW2 3163   2.652   0.419   2.611  1.7446 -2.1242  0.9337
  791SOL     MW 3164   2.566   0.434   2.590  0.3889 -0.1026  0.1220
  792SOL     OW 3165   2.333   0.192   2.419  0.0357 -0.0560 -0.2120
  792SOL    HW1 3166   2.320   0.284   2.414  0.8701 -2.4583 -0.4714
  792SOL    HW2 3167   2.340   0.159   2.509  0.8373  0.3456 -1.0807
  792SOL     MW 3168   2.332   0.200   2.430  0.2515 -0.3200 -0.3609
  793SOL     OW 3169   1.955   1.197   1.978  0.2593  0.7541 -0.1399
  793SOL    HW1 3170   1.947   1.173   1.885  1.7303  3.1480  1.1662
  793SOL    HW2 3171   2.045   1.178   1.989  0.1350 -2.2909 -1.3388
  793SOL     MW 3172   1.966   1.191   1.967  0.4370  0.6682 -0.1257
  794SOL     OW 3173   1.412   2.372   0.133 -0.1201  0.0714 -0.0434
  794SOL    HW1 3174   1.431   2.458   0.096 -0.8886 -2.5087  2.0878
  794SOL    HW2 3175   1.471   2.366   0.211  1.9932 -1.2528 -1.1146
  794SOL     MW 3176   1.422   2.383   0.139  0.0573 -0.4437  0.0965
  795SOL     OW 3177   2.313   0.996   2.542 -0.2460 -0.0957  0.3339
  795SOL    HW1 3178   2.277   1.062   2.605 -1.5092 -1.5005  0.5546
  795SOL    HW2 3179   2.364   1.054   2.488 -1.1042 -0.4179 -0.7437
  795SOL     MW 3180   2.315   1.013   2.543 -0.5259 -0.3236  0.2209
  796SOL     OW 3181   0.249   0.595   2.772 -0.2142 -0.9118  0.5167
  796SOL    HW1 3182   0.228   0.671   2.832 -1.7297  1.6855  0.5084
  796SOL    HW2 3183   0.186   0.611   2.703  0.5338  0.5060 -0.3798
  796SOL     MW 3184   0.238   0.607   2.771 -0.3154 -0.3820  0.3973
  797SOL     OW 3185   2.606   0.155   2.583  0.1459 -0.2366 -0.0920
  797SOL    HW1 3186   2.559   0.233   2.548  1.1939  5.5704 -1.1944
  797SOL    HW2 3187   2.656   0.129   2.506 -0.3149 -0.4109  2.9133
  797SOL     MW 3188   2.606   0.162   2.568  0.2234  0.5066  0.1591
  798SOL     OW 3189   2.328   0.088   2.152 -0.7235  0.3725  0.6404
  798SOL    HW1 3190   2.328   0.153   2.217 -2.0527 -0.7018 -1.0712
  798SOL    HW2 3191   2.418   0.085   2.120 -1.4325  1.4337 -0.2989
  798SOL     MW 3192   2.340   0.096   2.156 -0.9924  0.3708  0.2907
  799SOL     OW 3193   2.562   2.941   0.117  0.0117 -0.2984 -0.0434
  799SOL    HW1 3194   2.477   2.907   0.086 -0.6083 -3.0935  1.0288
  799SOL    HW2 3195   2.540   2.969   0.202  0.7349  0.5191 -1.1064
  799SOL     MW 3196   2.548   2.940   0.124  0.0253 -0.5593 -0.0422
  800SOL     OW 3197   1.918   0.031   1.706  0.0254 -0.0328 -0.2443
  800SOL    HW1 3198   1.863  -0.043   1.687 -0.8761  1.7955 -0.9772
  800SOL    HW2 3199   1.964   0.004   1.789  0.4010 -0.7642 -0.7982
  800SOL     MW 3200   1.917   0.018   1.714 -0.0440  0.1119 -0.4141
  801SOL     OW 3201   2.817   1.252   2.616 -0.0532  0.2718 -0.0769
  801SOL    HW1 3202   2.779   1.163   2.619  0.7076 -0.2143  2.8611
  801SOL    HW2 3203   2.906   1.248   2.587 -1.0805 -1.3220 -0.5488
  801SOL     MW 3204   2.824   1.240   2.612 -0.0884 -0.0026  0.2485
  802SOL     OW 3205   2.582   1.480   2.817 -0.4205  0.2967 -0.1921
  802SOL    HW1 3206   2.556   1.388   2.792  0.1771 -0.9985  3.4422
  802SOL    HW2 3207   2.681   1.465   2.836  0.7336 -3.0306 -1.7456
  802SOL     MW 3208   2.592   1.466   2.816 -0.1894 -0.3132  0.0825
  803SOL     OW 3209   2.235   1.394   2.024  0.1864  0.3914 -0.3960
  803SOL    HW1 3210   2.225   1.371   2.117  0.8871  3.4766  0.2188
  803SOL    HW2 3211   2.241   1.321   1.962  1.7397  1.6100 -0.6582
  803SOL     MW 3212   2.234   1.381   2.028  0.4838  0.9593 -0.3495
  804SOL     OW 3213   2.256   0.093   0.034  0.5179  0.5938 -0.4275
  804SOL    HW1 3214   2.195   0.171   0.017  0.1977  0.5973  3.6608
  804SOL    HW2 3215   2.332   0.103  -0.022 -1.8862 -0.3362  0.1403
  804SOL     MW 3216   2.258   0.105   0.024  0.1584  0.4716  0.1868
  805SOL     OW 3217   2.719   0.960   2.614 -0.3609  0.6235  0.2041
  805SOL    HW1 3218   2.651   0.892   2.601  1.3579  0.5049 -1.1317
  805SOL    HW2 3219   2.804   0.913   2.604 -0.0544  0.7036  0.5792
  805SOL     MW 3220   2.722   0.945   2.611 -0.0937  0.6184  0.0774
  806SOL     OW 3221   2.543   0.625   2.215  0.8809 -0.0572  0.0547
  806SOL    HW1 3222   2.465   0.576   2.196  2.2247  1.8548  2.2709
  806SOL    HW2 3223   2.538   0.695   2.150 -1.8663 -0.8517 -1.8699
  806SOL     MW 3224   2.532   0.628   2.204  0.6958  0.0902  0.0931
  807SOL     OW 3225   0.098   1.109   2.057 -0.6022  0.8667  0.5329
  807SOL    HW1 3226   0.135   1.030   2.029  0.2436  2.8895  1.2164
  807SOL    HW2 3227   0.013   1.081   2.085  2.2196  2.4486 -0.8567
  807SOL     MW 3228   0.091   1.095   2.057 -0.1183  1.3423  0.4398
  808SOL     OW 3229   2.658   3.045   2.790  0.6964 -0.2484  0.3380
  808SOL    HW1 3230   2.592   2.976   2.774 -3.5542 -0.5032  1.5184
  808SOL    HW2 3231   2.653   3.107   2.717 -0.4123 -2.1047  1.7894
  808SOL     MW 3232   2.649   3.044   2.778 -0.0107 -0.5269  0.6852
  809SOL     OW 3233   2.588   1.373   2.450  0.3794 -0.3301 -0.1018
  809SOL    HW1 3234   2.618   1.368   2.538 -0.0435 -0.3331  2.1716
  809SOL    HW2 3235   2.662   1.355   2.384  0.1869  1.7440  0.7142
  809SOL     MW 3236   2.602   1.370   2.453  0.2982 -0.0568  0.3058
  810SOL     OW 3237   2.225   1.321   2.298 -0.1821  0.1146  0.0861
  810SOL    HW1 3238   2.277   1.255   2.336 -2.0296  0.4667 -2.3409
  810SOL    HW2 3239   2.168   1.352   2.368  0.6557 -1.4167 -0.5468
  810SOL     MW 3240   2.224   1.317   2.312 -0.3153 -0.0409 -0.3176
  811SOL     OW 3241   1.537   0.146   2.312  0.2580 -0.0939 -0.2987
  811SOL    HW1 3242   1.597   0.082   2.352  1.2305  1.2043 -1.8508
  811SOL    HW2 3243   1.529   0.125   2.218 -0.5405  0.0765 -0.4551
  811SOL     MW 3244   1.544   0.135   2.305  0.2809  0.0999 -0.5241
  812SOL     OW 3245   1.449   2.790   2.005 -0.0146  0.1421 -0.0163
  812SOL    HW1 3246   1.532   2.821   1.964 -1.8531 -0.0644  0.1475
  812SOL    HW2 3247   1.466   2.796   2.098  0.3331 -1.4776 -2.1694
  812SOL     MW 3248   1.462   2.795   2.012 -0.2113 -0.0989 -0.2788
  813SOL     OW 3249   1.968   0.663   2.258  0.0339  1.1193  0.2770
  813SOL    HW1 3250   1.904   0.598   2.231 -3.8585  0.6206  0.6094
  813SOL    HW2 3251   1.912   0.741   2.268 -0.1135 -0.1356 -0.5860
  813SOL     MW 3252   1.952   0.665   2.256 -0.4991  0.8879  0.2070
  814SOL     OW 3253   2.693   1.272   1.641  0.0949  0.4462  0.1506
  814SOL    HW1 3254   2.656   1.212   1.712  1.2618 -0.2535 -0.0279
  814SOL    HW2 3255   2.701   1.220   1.559 -1.1927  1.6376  3.0753
  814SOL     MW 3256   2.690   1.257   1.640  0.0789  0.5110  0.5129
  815SOL     OW 3257   2.577   1.743   2.407 -0.3036  0.0083 -0.0857
  815SOL    HW1 3258   2.507   1.680   2.411  1.4153 -1.2537  3.1087
  815SOL    HW2 3259   2.662   1.690   2.403  1.8589 -2.6767  3.1493
  815SOL     MW 3260   2.579   1.727   2.407  0.2085 -0.5125  0.7626
  816SOL     OW 3261   0.712   0.710   2.716 -0.1465  0.4129  0.3993
  816SOL    HW1 3262   0.744   0.621   2.733  3.8962 -0.6626  0.7739
  816SOL    HW2 3263   0.620   0.690   2.730 -1.2221  0.9414 -0.5125
  816SOL     MW 3264   0.705   0.696   2.720  0.2450  0.3408  0.3284
  817SOL     OW 3265   3.015   1.212   1.453  0.1488 -0.1900  0.2263
  817SOL    HW1 3266   3.102   1.213   1.502 -0.4234  3.4129 -0.2126
  817SOL    HW2 3267   3.005   1.303   1.414 -0.6691  0.9305  0.5335
  817SOL     MW 3268   3.026   1.224   1.455 -0.0346  0.4332  0.2090
  818SOL     OW 3269   1.901   1.031   2.712 -0.2138  0.2214  0.5470
  818SOL    HW1 3270   1.868   0.993   2.625 -0.0464 -0.3865  0.5398
  818SOL    HW2 3271   1.986   0.985   2.722 -0.5683  0.9926  0.2313
  818SOL     MW 3272   1.908   1.020   2.702 -0.2385  0.2429  0.5044
  819SOL     OW 3273   1.982   0.252   2.515 -0.4980 -0.4185 -0.1280
  819SOL    HW1 3274   1.903   0.314   2.520  0.6019  0.4501  0.6792
  819SOL    HW2 3275   2.023   0.245   2.601  1.2251 -1.4464 -1.3339
  819SOL     MW 3276   1.977   0.259   2.527 -0.1256 -0.4395 -0.1806
  820SOL     OW 3277   2.522   1.752   2.689  0.3880  0.3817  0.6519
  820SOL    HW1 3278   2.536   1.675   2.744  1.4227 -0.8549  0.6201
  820SOL    HW2 3279   2.556   1.732   2.598  0.3470 -4.3051  0.0412
  820SOL     MW 3280   2.528   1.739   2.685  0.5191 -0.3999  0.5671
  821SOL     OW 3281   2.585   1.381   2.026  0.0368  0.4330  0.2674
  821SOL    HW1 3282   2.603   1.426   1.938 -1.6309  1.3585  4.0756
  821SOL    HW2 3283   2.509   1.422   2.064  2.9188  4.2344 -1.5947
  821SOL     MW 3284   2.577   1.392   2.019  0.1970  1.0566  0.5241
  822SOL     OW 3285   2.768   2.645   1.386 -0.5907  0.3034 -0.0154
  822SOL    HW1 3286   2.808   2.643   1.474 -1.9469 -0.9939 -1.3006
  822SOL    HW2 3287   2.695   2.707   1.392  0.1023 -2.1010 -0.8669
  822SOL     MW 3288   2.764   2.653   1.398 -0.6782 -0.1850 -0.2973
  823SOL     OW 3289   2.369   0.480   1.757 -0.1325  0.1782 -0.5186
  823SOL    HW1 3290   2.439   0.451   1.707  0.0595 -1.1314  4.7179
  823SOL    HW2 3291   2.313   0.411   1.783 -0.3971 -0.6664 -2.2370
  823SOL     MW 3292   2.371   0.467   1.754 -0.1421 -0.1060 -0.0545
  824SOL     OW 3293   2.150   1.455   2.543 -0.2994  0.6848  0.1677
  824SOL    HW1 3294   2.223   1.498   2.497 -0.4318 -0.4661  0.0805
  824SOL    HW2 3295   2.123   1.514   2.611 -1.5717  0.5003 -0.9320
  824SOL     MW 3296   2.156   1.468   2.546 -0.4847  0.5086  0.0111
  825SOL     OW 3297   1.850   2.545   0.258 -0.0767 -0.1311  0.2014
  825SOL    HW1 3298   1.843   2.488   0.332 -0.1691 -0.9384  1.0726
  825SOL    HW2 3299   1.939   2.529   0.220 -0.4978 -0.9297  0.0337
  825SOL     MW 3300   1.861   2.536   0.263 -0.1445 -0.3430  0.2942
  826SOL     OW 3301   1.855   2.383   0.539  0.3668  0.1392  0.6003
  826SOL    HW1 3302   1.795   2.313   0.570  1.2326 -1.3280 -0.3344
  826SOL    HW2 3303   1.826   2.458   0.590  1.1370 -0.4287 -1.8860
  826SOL     MW 3304   1.843   2.384   0.550  0.5826 -0.1293  0.1490
  827SOL     OW 3305   1.935   2.172   0.881  0.2949 -0.3527  0.8853
  827SOL    HW1 3306   1.877   2.229   0.830 -1.8409  0.9433  1.7194
  827SOL    HW2 3307   1.873   2.136   0.952  0.8295 -0.7761 -0.3069
  827SOL     MW 3308   1.919   2.175   0.884  0.0837 -0.2376  0.8380
  828SOL     OW 3309   0.054   2.568   0.595  0.0973 -0.0255  0.3777
  828SOL    HW1 3310   0.146   2.571   0.584 -1.0568  0.6967  2.5000
  828SOL    HW2 3311   0.040   2.647   0.549  2.7344 -0.1445  2.0909
  828SOL     MW 3312   0.064   2.579   0.587  0.2930  0.0541  0.8838
  829SOL     OW 3313   2.986   2.970   1.151 -0.3470  0.1400 -0.2319
  829SOL    HW1 3314   2.907   2.965   1.103  0.5946  0.4632  0.4350
  829SOL    HW2 3315   3.027   2.885   1.129 -1.6894 -1.4360  2.0266
  829SOL     MW 3316   2.981   2.958   1.142 -0.3999 -0.0253  0.1541
  830SOL     OW 3317   2.554   2.834   2.030 -0.2192  0.4562 -0.0003
  830SOL    HW1 3318   2.459   2.847   2.002 -2.8070  1.3077  0.4153
  830SOL    HW2 3319   2.613   2.824   1.951  0.3196  3.4617 -1.5038
  830SOL     MW 3320   2.549   2.834   2.016 -0.4895  0.9651 -0.1438
  831SOL     OW 3321   2.387   2.500   1.224  0.4563 -0.0688  0.0517
  831SOL    HW1 3322   2.346   2.460   1.302  0.6940 -0.9322  2.6639
  831SOL    HW2 3323   2.468   2.457   1.203 -2.6221  1.7155  0.9075
  831SOL     MW 3324   2.393   2.489   1.232  0.0815  0.0527  0.5093
  832SOL     OW 3325   2.374   2.197   1.917  0.2810 -0.0014  0.0445
  832SOL    HW1 3326   2.394   2.289   1.947 -0.6526  1.9064  1.6836
  832SOL    HW2 3327   2.468   2.160   1.908 -0.3618  2.3285  0.8625
  832SOL     MW 3328   2.389   2.204   1.920  0.0730  0.5577  0.3687
  833SOL     OW 3329   1.744   2.450   0.907  0.3358  0.0337  0.1489
  833SOL    HW1 3330   1.655   2.412   0.902 -1.8843  2.0307  0.6782
  833SOL    HW2 3331   1.733   2.513   0.970  0.9013 -4.4006 -1.0114
  833SOL     MW 3332   1.731   2.453   0.915  0.1175 -0.2879  0.0657
  834SOL     OW 3333   2.104   2.460   0.598 -0.0572  0.0287 -0.3311
  834SOL    HW1 3334   2.015   2.415   0.572 -2.1192  0.7957  1.1784
  834SOL    HW2 3335   2.149   2.435   0.513  0.7615  1.5007  0.5999
  834SOL     MW 3336   2.098   2.451   0.583 -0.2212  0.3241 -0.0091
  835SOL     OW 3337   1.768   2.613   0.694  0.0615 -0.1313  0.0167
  835SOL    HW1 3338   1.752   2.565   0.780 -1.7341 -1.0217  0.8002
  835SOL    HW2 3339   1.829   2.678   0.715 -2.1908 -2.1884 -2.1316
  835SOL     MW 3340   1.774   2.615   0.708 -0.4726 -0.5202 -0.1634
  836SOL     OW 3341   1.911   2.214   1.637 -0.5756 -0.1162  0.0313
  836SOL    HW1 3342   1.996   2.247   1.665  0.3637 -0.9667  0.6188
  836SOL    HW2 3343   1.862   2.296   1.623  2.6204  0.9769 -1.0580
  836SOL     MW 3344   1.915   2.229   1.639 -0.0300 -0.0842 -0.0349
  837SOL     OW 3345   2.079   0.159   0.685  0.0981 -0.8339  0.5855
  837SOL    HW1 3346   1.993   0.196   0.653 -0.1684 -0.1904 -2.4560
  837SOL    HW2 3347   2.115   0.109   0.610 -0.6202  1.9032 -2.6094
  837SOL     MW 3348   2.072   0.157   0.671 -0.0319 -0.3879 -0.2373
  838SOL     OW 3349   2.923   2.072   0.926 -0.0352  0.3746  0.2072
  838SOL    HW1 3350   2.854   2.022   0.970 -0.2280 -0.2935 -1.4358
  838SOL    HW2 3351   2.992   2.007   0.910  0.9165  0.5313  1.5263
  838SOL     MW 3352   2.923   2.057   0.930  0.0649  0.3071  0.1644
  839SOL     OW 3353   1.502   2.330   0.969  0.6135 -0.2803  0.3257
  839SOL    HW1 3354   1.486   2.406   1.026  0.7298  1.8610 -1.1764
  839SOL    HW2 3355   1.534   2.261   1.034 -4.9164 -2.8394 -1.9610
  839SOL     MW 3356   1.505   2.331   0.985 -0.1007 -0.3354 -0.1742
  840SOL     OW 3357   2.376   2.130   2.431 -0.0226 -0.3270 -0.0760
  840SOL    HW1 3358   2.310   2.177   2.383  4.7018 -2.1676 -0.6495
  840SOL    HW2 3359   2.388   2.187   2.507 -1.8186 -0.9053  1.2246
  840SOL     MW 3360   2.369   2.143   2.434  0.3637 -0.6461  0.0200
  841SOL     OW 3361   2.091   2.437   0.140 -0.6900  0.4796 -0.0246
  841SOL    HW1 3362   2.158   2.477   0.077 -1.3210  1.4323 -0.4925
  841SOL    HW2 3363   2.072   2.351   0.097 -0.4574  1.3337 -0.3894
  841SOL     MW 3364   2.098   2.431   0.126 -0.7426  0.7180 -0.1344
  842SOL     OW 3365   2.564   2.078   1.520 -0.3319  0.0236 -0.2406
  842SOL    HW1 3366   2.534   2.012   1.582 -0.3003  0.0117  2.5616
  842SOL    HW2 3367   2.516   2.077   1.441  1.2048 -4.3093  0.2804
  842SOL     MW 3368   2.554   2.069   1.518 -0.1250 -0.5496  0.1979
  843SOL     OW 3369   2.650   2.777   1.754 -0.2260  0.7742  0.1599
  843SOL    HW1 3370   2.744   2.745   1.747  3.2329 -2.6176  1.0844
  843SOL    HW2 3371   2.597   2.693   1.757 -3.5364 -1.7904  1.3410
  843SOL     MW 3372   2.656   2.762   1.753 -0.2064 -0.0117  0.4377
  844SOL     OW 3373   2.592   2.330   1.155  0.0863  0.2431  0.5298
  844SOL    HW1 3374   2.639   2.355   1.074 -0.2639  0.9460  2.2501
  844SOL    HW2 3375   2.668   2.336   1.215  0.7793 -2.9130 -0.2187
  844SOL     MW 3376   2.609   2.334   1.152  0.1315 -0.0806  0.6580
  845SOL     OW 3377   2.826   2.460   0.308  0.0151  0.4861 -0.1022
  845SOL    HW1 3378   2.775   2.377   0.303  0.4103  1.2081  0.5595
  845SOL    HW2 3379   2.804   2.512   0.390  2.5918  2.4818  1.0486
  845SOL     MW 3380   2.816   2.456   0.318  0.4072  0.8447  0.1370
  846SOL     OW 3381   1.522   2.905   0.734 -0.2273 -0.1706  0.1281
  846SOL    HW1 3382   1.604   2.945   0.765 -0.7182  0.2447 -0.9407
  846SOL    HW2 3383   1.465   2.913   0.810  0.6835 -1.0903 -3.0722
  846SOL     MW 3384   1.525   2.912   0.748 -0.1719 -0.2372 -0.4351
  847SOL     OW 3385   2.620   1.920   0.181  0.3233  0.0786  0.3206
  847SOL    HW1 3386   2.695   1.864   0.164  1.3778 -0.1272 -3.1278
  847SOL    HW2 3387   2.555   1.879   0.116  3.1397  0.8492 -0.1551
  847SOL     MW 3388   2.621   1.907   0.170  0.8340  0.1531 -0.1971
  848SOL     OW 3389   2.420   2.113   1.291 -0.3325 -0.2302 -0.1893
  848SOL    HW1 3390   2.470   2.166   1.230  1.9614  0.9238 -0.6271
  848SOL    HW2 3391   2.396   2.028   1.256 -0.4714 -0.9210  0.6911
  848SOL     MW 3392   2.424   2.109   1.278 -0.0482 -0.1691 -0.1309
  849SOL     OW 3393   1.974   2.773   0.737  0.5049 -0.1148 -0.0159
  849SOL    HW1 3394   2.013   2.731   0.814  1.2871  1.7266  1.3751
  849SOL    HW2 3395   2.048   2.766   0.679 -3.5335 -3.3758  3.1679
  849SOL     MW 3396   1.989   2.767   0.739  0.0753 -0.3021  0.5877
  850SOL     OW 3397   2.191   1.980   1.692  0.2603  0.8896  0.6160
  850SOL    HW1 3398   2.108   1.945   1.650  0.6110 -1.4193 -1.7295
  850SOL    HW2 3399   2.191   2.070   1.669 -0.1906 -0.3747  1.2842
  850SOL     MW 3400   2.180   1.987   1.683  0.2471  0.4181  0.3947
  851SOL     OW 3401   2.250   2.416   0.360  0.1230  0.2000  0.0331
  851SOL    HW1 3402   2.189   2.408   0.276 -1.4204 -1.1500  0.0897
  851SOL    HW2 3403   2.325   2.477   0.338  0.0415  3.4990 -1.4003
  851SOL     MW 3404   2.252   2.423   0.346 -0.0914  0.4571 -0.1486
  852SOL     OW 3405   2.314   2.157   0.193  0.2644 -0.0415  0.5046
  852SOL    HW1 3406   2.323   2.231   0.248 -1.2949 -0.4183 -2.7114
  852SOL    HW2 3407   2.397   2.154   0.135 -0.4857 -0.8588  2.4452
  852SOL     MW 3408   2.326   2.166   0.192 -0.0403 -0.1991  0.3363
  853SOL     OW 3409   2.446   2.457   1.969 -0.1922 -0.0900 -0.2769
  853SOL    HW1 3410   2.465   2.483   1.879 -1.0965 -0.2258 -1.1327
  853SOL    HW2 3411   2.533   2.439   2.001 -0.7608  0.7518  2.3279
  853SOL     MW 3412   2.460   2.458   1.961 -0.3866  0.0032 -0.0461
  854SOL     OW 3413   2.810   2.267   0.775 -0.2663 -0.1224 -0.3305
  854SOL    HW1 3414   2.728   2.241   0.732  0.5550 -2.3115 -0.6616
  854SOL    HW2 3415   2.831   2.193   0.832 -0.4934  1.1890  0.0743
  854SOL     MW 3416   2.802   2.254   0.777 -0.1879 -0.2382 -0.3208
  855SOL     OW 3417   2.673   2.243   0.345  0.3462  0.7328  0.1791
  855SOL    HW1 3418   2.660   2.292   0.433  0.1134 -0.2076  1.5842
  855SOL    HW2 3419   2.762   2.202   0.340 -0.5770  2.5073  3.0683
  855SOL     MW 3420   2.683   2.244   0.356  0.1937  0.8429  0.7457
  856SOL     OW 3421   2.187   1.915   0.228  0.1039  0.0517 -0.3948
  856SOL    HW1 3422   2.093   1.930   0.253 -0.7458 -2.6883  1.5099
  856SOL    HW2 3423   2.232   2.000   0.208  0.1108  0.8700 -0.7090
  856SOL     MW 3424   2.180   1.928   0.229 -0.0073 -0.2019 -0.1849
  857SOL     OW 3425   2.591   2.014   0.476 -0.2990 -0.3123  0.3613
  857SOL    HW1 3426   2.604   2.085   0.410  1.4679  1.8640 -0.2074
  857SOL    HW2 3427   2.530   1.946   0.430  0.6951 -3.7898 -2.7577
  857SOL     MW 3428   2.585   2.015   0.461  0.0653 -0.4840 -0.1253
  858SOL     OW 3429   2.886   2.643   1.674  0.2182 -0.4386  0.0417
  858SOL    HW1 3430   2.974   2.672   1.699 -2.5227  4.4764 -1.0184
  858SOL    HW2 3431   2.877   2.555   1.711  1.3487 -0.2459  0.6741
  858SOL     MW 3432   2.897   2.636   1.682  0.0058  0.2353 -0.0148
  859SOL     OW 3433   2.120   2.511   0.873 -0.4432  0.6114  0.1903
  859SOL    HW1 3434   2.092   2.502   0.780  0.1548  0.0889  0.6457
  859SOL    HW2 3435   2.215   2.516   0.871 -3.2461  0.2934 -0.4441
  859SOL     MW 3436   2.128   2.510   0.861 -0.7342  0.5005  0.1667
  860SOL     OW 3437   2.655   2.586   0.132 -0.2037 -0.1726  0.0600
  860SOL    HW1 3438   2.715   2.561   0.203 -1.5486 -0.5829  1.0709
  860SOL    HW2 3439   2.683   2.673   0.101  1.1893 -0.7966  0.6314
  860SOL     MW 3440   2.666   2.594   0.137 -0.1974 -0.3091  0.2688
  861SOL     OW 3441   1.553   2.151   1.177 -0.4637  0.5086 -0.6453
  861SOL    HW1 3442   1.561   2.221   1.250 -0.8355  2.3832  3.1202
  861SOL    HW2 3443   1.508   2.078   1.211 -0.1256 -0.4443 -2.4769
  861SOL     MW 3444   1.548   2.151   1.191 -0.4682  0.6302 -0.3901
  862SOL     OW 3445   2.428   1.816   1.548  0.3199 -0.9878  0.6516
  862SOL    HW1 3446   2.357   1.876   1.572  0.7184 -3.4975 -0.8692
  862SOL    HW2 3447   2.466   1.834   1.460  1.1026 -2.3671  2.5435
  862SOL     MW 3448   2.424   1.826   1.539  0.4757 -1.5009  0.7006
  863SOL     OW 3449   0.032   1.838   1.156  0.8572  0.9846 -0.4041
  863SOL    HW1 3450   0.119   1.873   1.145 -0.1844  0.9542  0.0144
  863SOL    HW2 3451  -0.017   1.911   1.191 -4.0381  0.3712 -1.3137
  863SOL     MW 3452   0.037   1.852   1.159  0.0739  0.8996 -0.4689
  864SOL     OW 3453   0.025   1.854   0.844  0.1257  0.2426  0.5166
  864SOL    HW1 3454  -0.042   1.804   0.893  1.7857  0.9175  1.5222
  864SOL    HW2 3455   0.009   1.834   0.745 -0.6775  3.1377  1.0139
  864SOL     MW 3456   0.014   1.845   0.837  0.2387  0.7136  0.7149
  865SOL     OW 3457   2.568   2.164   0.042  0.6679 -0.2030 -0.3001
  865SOL    HW1 3458   2.599   2.092   0.098 -1.3379 -0.2503 -2.3479
  865SOL    HW2 3459   2.555   2.129  -0.046 -1.0599  0.4301  1.3529
  865SOL     MW 3460   2.571   2.150   0.038  0.1753 -0.1257 -0.3522
  866SOL     OW 3461   2.640   2.336   1.634 -0.1303 -0.3540  0.0841
  866SOL    HW1 3462   2.599   2.248   1.615  0.6066 -0.7336  0.7024
  866SOL    HW2 3463   2.657   2.366   1.543  2.9047 -3.7324 -1.5933
  866SOL     MW 3464   2.637   2.328   1.619  0.3674 -0.8498 -0.0556
  867SOL     OW 3465   0.036   2.681   1.819 -0.3831 -0.6571 -0.6171
  867SOL    HW1 3466   0.050   2.654   1.912  1.0249  0.1723  2.1769
  867SOL    HW2 3467   0.016   2.777   1.819  2.2615 -1.5406 -0.7467
  867SOL     MW 3468   0.035   2.690   1.831  0.1516 -0.6642 -0.2656
  868SOL     OW 3469   2.798   2.586   0.539  0.1529 -0.0408 -0.5234
  868SOL    HW1 3470   2.712   2.546   0.565  0.0229  1.4870  0.9920
  868SOL    HW2 3471   2.790   2.675   0.506 -2.7363 -0.6076  2.9755
  868SOL     MW 3472   2.785   2.592   0.538 -0.2455  0.0860  0.1382
  869SOL     OW 3473   1.979   2.387   1.076 -0.1588  0.5209  0.7032
  869SOL    HW1 3474   2.018   2.453   1.019  1.7473  1.7563  1.0539
  869SOL    HW2 3475   1.958   2.322   1.006 -1.4293 -1.5704 -2.8378
  869SOL     MW 3476   1.982   2.388   1.060 -0.0749  0.4080  0.2822
  870SOL     OW 3477   2.183   0.014   0.463  0.1041  0.4417 -0.3169
  870SOL    HW1 3478   2.258   0.040   0.403 -0.7019 -2.2745  0.2989
  870SOL    HW2 3479   2.176  -0.082   0.450 -0.5205  0.7083  1.1264
  870SOL     MW 3480   2.192   0.005   0.454 -0.0846  0.1185 -0.0452
  871SOL     OW 3481   2.511   2.078   0.938  0.2414  0.4461  0.9504
  871SOL    HW1 3482   2.449   2.028   0.881  0.6571 -2.2823  1.3357
  871SOL    HW2 3483   2.474   2.160   0.962  0.0406  0.1701  1.6828
  871SOL     MW 3484   2.498   2.082   0.934  0.2698  0.0497  1.0979
  872SOL     OW 3485   2.056   2.539   1.426  0.1725  0.5932  0.2377
  872SOL    HW1 3486   2.029   2.590   1.507  0.2152  0.5385  1.0078
  872SOL    HW2 3487   1.986   2.479   1.405 -0.7291  0.2579 -1.1044
  872SOL     MW 3488   2.044   2.538   1.434  0.0592  0.5417  0.1622
  873SOL     OW 3489   2.882   2.080   1.946  0.8615  0.2754 -0.2399
  873SOL    HW1 3490   2.918   2.142   2.008  3.4612 -0.2882 -1.1544
  873SOL    HW2 3491   2.946   2.079   1.868  2.8400  1.2524 -0.2672
  873SOL     MW 3492   2.895   2.088   1.944  1.4656  0.3299 -0.3641
  874SOL     OW 3493   2.370   1.545   2.427 -0.1116  0.1825 -0.7537
  874SOL    HW1 3494   2.353   1.529   2.333  0.6698 -2.6359 -2.3793
  874SOL    HW2 3495   2.447   1.488   2.436  2.4846 -2.0802  0.1604
  874SOL     MW 3496   2.378   1.536   2.416  0.3340 -0.4879 -0.8476
  875SOL     OW 3497   2.279   2.284   1.042  0.0321  0.0006  0.3807
  875SOL    HW1 3498   2.229   2.311   0.967 -1.8307 -0.9555  1.7271
  875SOL    HW2 3499   2.315   2.357   1.094  3.4473  0.6070  0.2460
  875SOL     MW 3500   2.277   2.297   1.039  0.2369 -0.0455  0.5406
  876SOL     OW 3501   3.033   2.342   1.243  0.0140 -0.2789 -0.0840
  876SOL    HW1 3502   3.088   2.339   1.160  2.4593 -2.7026 -2.7785
  876SOL    HW2 3503   3.090   2.385   1.307 -1.7279  2.8036 -1.1929
  876SOL     MW 3504   3.048   2.347   1.241  0.1068 -0.1920 -0.5858
  877SOL     OW 3505   3.071   2.761   0.396  0.3151  0.3941  0.2167
  877SOL    HW1 3506   3.082   2.852   0.375 -0.7854 -0.2267 -1.0278
  877SOL    HW2 3507   3.077   2.705   0.318  0.0953  1.6427 -0.4061
  877SOL     MW 3508   3.073   2.766   0.383  0.1409  0.4769 -0.0296
  878SOL     OW 3509   2.381   1.840   1.242  0.5095 -0.4203  0.1081
  878SOL    HW1 3510   2.331   1.762   1.269 -1.6745 -1.6073 -3.7366
  878SOL    HW2 3511   2.473   1.819   1.242  1.7580  1.6416  0.8597
  878SOL     MW 3512   2.386   1.827   1.245  0.3861 -0.3049 -0.3000
  879SOL     OW 3513   2.669   2.457   0.921 -0.1708  0.1142  0.2383
  879SOL    HW1 3514   2.726   2.513   0.969 -0.6014  0.9414 -1.5639
  879SOL    HW2 3515   2.722   2.380   0.888  3.4847 -0.2805 -0.9464
  879SOL     MW 3516   2.683   2.454   0.923  0.2547  0.1713 -0.1558
  880SOL     OW 3517   2.576   2.204   0.691 -0.1008  0.2305 -0.5275
  880SOL    HW1 3518   2.560   2.166   0.781 -0.0986  2.4972 -1.7122
  880SOL    HW2 3519   2.592   2.132   0.634 -0.9411 -0.6147 -1.3207
  880SOL     MW 3520   2.576   2.189   0.695 -0.2114  0.4180 -0.7884
  881SOL     OW 3521   2.954   2.687   0.755 -0.0780 -0.1811 -0.3274
  881SOL    HW1 3522   2.913   2.630   0.687 -0.2197 -0.5863 -3.1705
  881SOL    HW2 3523   3.046   2.661   0.741  1.0569  0.1104 -0.5901
  881SOL     MW 3524   2.961   2.676   0.744  0.0530 -0.1961 -0.7372
  882SOL     OW 3525   2.284   2.829   1.972 -0.5226  0.6203  0.2787
  882SOL    HW1 3526   2.264   2.811   1.880 -0.2249 -3.3500  2.0455
  882SOL    HW2 3527   2.228   2.758   2.001 -0.8301 -0.0651 -1.4090
  882SOL     MW 3528   2.274   2.817   1.964 -0.5239  0.0060  0.2891
  883SOL     OW 3529   2.291   2.312   1.433  0.3039 -0.0135  0.1240
  883SOL    HW1 3530   2.343   2.239   1.397 -0.7253 -0.7947 -1.0520
  883SOL    HW2 3531   2.208   2.289   1.381  1.5455 -0.0279 -0.8066
  883SOL     MW 3532   2.287   2.299   1.421  0.3319 -0.1185 -0.1539
  884SOL     OW 3533   1.952   1.868   1.124  0.5594 -0.3698 -0.0274
  884SOL    HW1 3534   1.875   1.926   1.099 -0.1139  0.6162  0.2699
  884SOL    HW2 3535   2.030   1.927   1.126 -0.9472  0.3702 -0.8376
  884SOL     MW 3536   1.952   1.883   1.121  0.2718 -0.1421 -0.0951
  885SOL     OW 3537   2.833   2.416   1.800  0.7429  0.3750  0.1067
  885SOL    HW1 3538   2.911   2.359   1.803 -0.4155  2.5336 -0.0850
  885SOL    HW2 3539   2.770   2.375   1.731 -0.2057 -0.7001 -1.3358
  885SOL     MW 3540   2.835   2.403   1.792  0.4649  0.5180 -0.1089
  886SOL     OW 3541   2.779   2.386   1.372  0.5931 -0.3556 -0.5694
  886SOL    HW1 3542   2.866   2.375   1.338 -1.3068  1.9620 -1.6745
  886SOL    HW2 3543   2.774   2.482   1.370  1.3915 -0.2610 -2.4975
  886SOL     MW 3544   2.789   2.397   1.367  0.4477 -0.0373 -0.9696
  887SOL     OW 3545   2.331   2.627   1.510 -0.3177 -0.0671  0.1426
  887SOL    HW1 3546   2.335   2.670   1.420 -2.7241 -1.6682  2.0495
  887SOL    HW2 3547   2.247   2.583   1.505  1.4920 -1.0005  1.3863
  887SOL     MW 3548   2.321   2.627   1.497 -0.3964 -0.4015  0.5583
  888SOL     OW 3549   1.883   2.055   1.400  0.0249  0.1443 -0.4277
  888SOL    HW1 3550   1.933   2.092   1.324  0.0858 -0.0964 -1.7331
  888SOL    HW2 3551   1.920   2.087   1.481  0.4255  1.6667 -0.0191
  888SOL     MW 3552   1.894   2.064   1.401  0.0858  0.3134 -0.5461
  889SOL     OW 3553   2.319   1.988   2.118 -0.7542 -0.1675  0.0305
  889SOL    HW1 3554   2.409   1.987   2.150  0.3427  1.3453  0.3579
  889SOL    HW2 3555   2.308   2.059   2.055  0.1523 -0.5820  0.1949
  889SOL     MW 3556   2.329   1.997   2.114 -0.4899 -0.0226  0.0954
  890SOL     OW 3557   0.097   2.343   0.199 -0.2415  0.3290  0.4398
  890SOL    HW1 3558   0.037   2.415   0.194 -1.9994  0.8981  0.8888
  890SOL    HW2 3559   0.070   2.291   0.278 -2.4690  1.9496  0.4492
  890SOL     MW 3560   0.085   2.346   0.209 -0.7673  0.6179  0.5003
  891SOL     OW 3561   2.980   2.029   1.297  0.2396  0.3006  0.0940
  891SOL    HW1 3562   3.051   2.061   1.355 -1.3339  0.6365  0.4689
  891SOL    HW2 3563   2.955   2.113   1.251 -1.3212  2.2598 -0.9373
  891SOL     MW 3564   2.986   2.044   1.299 -0.1740  0.6034  0.0074
  892SOL     OW 3565   2.408   2.359   2.894  0.2973  0.1474 -0.7990
  892SOL    HW1 3566   2.400   2.261   2.903  1.6060 -0.3588  1.6618
  892SOL    HW2 3567   2.495   2.377   2.868 -0.9509  2.0910 -0.0541
  892SOL     MW 3568   2.418   2.348   2.892  0.3053  0.3371 -0.3760
  893SOL     OW 3569   1.581   2.413   1.248  0.6200 -0.4644  0.1723
  893SOL    HW1 3570   1.519   2.454   1.316 -0.8780  0.8136 -2.7479
  893SOL    HW2 3571   1.663   2.422   1.291 -2.7645 -0.6121  0.2535
  893SOL     MW 3572   1.584   2.419   1.262 -0.0242 -0.3153 -0.2023
  894SOL     OW 3573   2.827   1.843   0.435 -0.1578 -0.8265 -0.2329
  894SOL    HW1 3574   2.739   1.881   0.461 -4.2590  4.2293 -0.4941
  894SOL    HW2 3575   2.810   1.805   0.349  0.4349 -0.6589  1.2725
  894SOL     MW 3576   2.813   1.843   0.427 -0.6207 -0.1373 -0.0687
  895SOL     OW 3577   2.100   2.219   1.275 -0.5470  0.5023  0.7830
  895SOL    HW1 3578   2.094   2.275   1.196  0.5649 -1.5602  2.8693
  895SOL    HW2 3579   2.155   2.146   1.234 -0.5526  0.2244  0.9062
  895SOL     MW 3580   2.107   2.216   1.259 -0.4011  0.1935  1.0745
  896SOL     OW 3581   2.172   2.829   1.105 -0.0450 -0.1611 -0.3775
  896SOL    HW1 3582   2.236   2.829   1.172  0.2761 -0.5444 -3.5176
  896SOL    HW2 3583   2.109   2.760   1.139  0.1869 -1.4095 -2.7034
  896SOL     MW 3584   2.172   2.820   1.119  0.0279 -0.3764 -1.0987
  897SOL     OW 3585   2.979   2.896   0.109  0.2739  0.1960 -0.2385
  897SOL    HW1 3586   3.052   2.837   0.108 -3.3612 -2.6511 -2.7476
  897SOL    HW2 3587   2.901   2.857   0.066  3.6090  3.4681 -0.8169
  897SOL     MW 3588   2.978   2.883   0.103  0.2343  0.2521 -0.6458
  898SOL     OW 3589   2.091   0.183   1.437 -0.1130  0.5111 -0.4113
  898SOL    HW1 3590   2.030   0.113   1.434  0.8699  1.0473  0.0931
  898SOL    HW2 3591   2.083   0.222   1.348  0.1610  3.0394  0.3086
  898SOL     MW 3592   2.082   0.179   1.425  0.0528  0.9155 -0.2498
  899SOL     OW 3593   2.893   2.933   0.664  0.3151 -0.3483  0.0765
  899SOL    HW1 3594   2.908   2.844   0.704  0.0669 -0.2787  0.8816
  899SOL    HW2 3595   2.804   2.970   0.689  1.1838  2.3902 -0.2577
  899SOL     MW 3596   2.883   2.926   0.672  0.3970  0.0222  0.1386
  900SOL     OW 3597   0.121   2.394   1.025 -0.1168 -0.2794 -0.1091
  900SOL    HW1 3598   0.126   2.491   1.027 -0.7854 -0.9687  0.8683
  900SOL    HW2 3599   0.139   2.375   0.929 -1.1813  0.9121  0.0589
  900SOL     MW 3600   0.124   2.404   1.013 -0.3455 -0.2131  0.0420
  901SOL     OW 3601   1.800   2.889   1.666  0.2227 -0.8839 -0.1850
  901SOL    HW1 3602   1.861   2.815   1.669  0.6683  1.6535  0.1366
  901SOL    HW2 3603   1.722   2.857   1.617 -1.7484 -1.4909 -0.8162
  901SOL     MW 3604   1.798   2.875   1.660  0.0214 -0.6292 -0.2259
  902SOL     OW 3605   2.593   2.067   1.864  0.2636  0.4631 -0.0531
  902SOL    HW1 3606   2.587   1.973   1.849 -1.6245  1.7130  1.7190
  902SOL    HW2 3607   2.682   2.081   1.895  1.9320 -1.4893 -0.6746
  902SOL     MW 3608   2.604   2.056   1.866  0.2346  0.3704  0.0987
  903SOL     OW 3609   1.595   2.765   0.509  0.3015  0.4706  0.1960
  903SOL    HW1 3610   1.629   2.686   0.559 -0.1522  0.8767  2.9660
  903SOL    HW2 3611   1.544   2.805   0.576  1.7450 -2.0025  0.8557
  903SOL     MW 3612   1.592   2.760   0.524  0.4321  0.1979  0.6485
  904SOL     OW 3613   2.499   2.548   1.714 -0.1424 -0.5536  0.0043
  904SOL    HW1 3614   2.450   2.579   1.639  1.4056  0.4158  1.6461
  904SOL    HW2 3615   2.552   2.475   1.684 -0.8599  1.4942  2.0299
  904SOL     MW 3616   2.499   2.542   1.700 -0.0329 -0.1555  0.4882
  905SOL     OW 3617   2.318   2.494   2.210 -0.0254 -0.0676  0.1202
  905SOL    HW1 3618   2.346   2.465   2.124  2.5276  0.4378  0.5178
  905SOL    HW2 3619   2.270   2.425   2.264  1.8680  0.9650 -2.7251
  905SOL     MW 3620   2.315   2.481   2.206  0.5613  0.1353 -0.2028
  906SOL     OW 3621   2.397   2.487   0.856  0.4067  0.3607  0.3535
  906SOL    HW1 3622   2.491   2.488   0.871  0.1884 -0.1495  2.6436
  906SOL    HW2 3623   2.377   2.580   0.871 -3.7426  0.7775  0.5336
  906SOL     MW 3624   2.407   2.500   0.860 -0.1696  0.3484  0.6794
  907SOL     OW 3625   2.574   2.923   1.276 -0.2022  0.0658 -0.3446
  907SOL    HW1 3626   2.647   2.934   1.337 -0.0665 -0.3320 -0.3732
  907SOL    HW2 3627   2.619   2.873   1.212 -0.4914 -0.7310  2.3892
  907SOL     MW 3628   2.590   2.918   1.276 -0.2224 -0.0918  0.0123
  908SOL     OW 3629   2.758   2.379   3.082  0.4399  0.4207 -0.2967
  908SOL    HW1 3630   2.690   2.309   3.105  1.7913  3.1944 -1.1577
  908SOL    HW2 3631   2.726   2.452   3.131 -0.7523 -2.0053  1.8720
  908SOL     MW 3632   2.745   2.379   3.091  0.4609  0.4666 -0.1242
  909SOL     OW 3633   1.585   0.182   1.101  0.5072  0.2234 -0.2224
  909SOL    HW1 3634   1.643   0.237   1.047  0.8428 -1.2965  1.5888
  909SOL    HW2 3635   1.536   0.244   1.151 -1.7759  1.4433 -0.6434
  909SOL     MW 3636   1.586   0.198   1.101  0.2503  0.1838 -0.0390
  910SOL     OW 3637   2.307   1.743   0.399 -0.7464  0.0839  0.6859
  910SOL    HW1 3638   2.233   1.686   0.416 -0.4397 -1.3478  0.6422
  910SOL    HW2 3639   2.279   1.805   0.326 -1.3152  0.0816 -1.5530
  910SOL     MW 3640   2.293   1.744   0.392 -0.7810 -0.1053  0.3847
  911SOL     OW 3641   2.224   2.257   1.692 -0.1453 -0.3309  0.3219
  911SOL    HW1 3642   2.291   2.238   1.756 -1.1643 -0.8782 -2.5167
  911SOL    HW2 3643   2.277   2.288   1.614  2.0226  0.8708  0.7838
  911SOL     MW 3644   2.240   2.259   1.690  0.0063 -0.2446  0.0083
  912SOL     OW 3645   2.833   1.953   1.525  0.2793  0.1205  0.7182
  912SOL    HW1 3646   2.874   1.975   1.441 -0.0029  0.1028 -1.6131
  912SOL    HW2 3647   2.761   2.017   1.520 -0.1636 -0.4327 -1.8969
  912SOL     MW 3648   2.829   1.965   1.513  0.1836  0.0452  0.0656
  913SOL     OW 3649   2.548   2.971   0.418  0.2077  0.1314 -0.4782
  913SOL    HW1 3650   2.612   2.898   0.417  0.5336 -0.7592 -1.3980
  913SOL    HW2 3651   2.463   2.930   0.434 -0.0303  1.7657  0.6141
  913SOL     MW 3652   2.546   2.956   0.420  0.2193  0.2295 -0.4554
  914SOL     OW 3653   2.748   1.626   3.061  0.0237 -0.0232  0.1549
  914SOL    HW1 3654   2.748   1.710   3.011 -1.4877 -1.6516  3.0764
  914SOL    HW2 3655   2.672   1.621   3.126  3.4559  2.0079 -2.2604
  914SOL     MW 3656   2.738   1.636   3.063  0.2771  0.0299  0.2217
  915SOL     OW 3657   1.815   0.250   0.178 -0.2944 -0.0537 -0.1937
  915SOL    HW1 3658   1.851   0.170   0.208 -1.4840  1.5489  0.0834
  915SOL    HW2 3659   1.723   0.228   0.183 -0.3270  0.5122 -1.7746
  915SOL     MW 3660   1.808   0.237   0.183 -0.4556  0.2324 -0.3657
  916SOL     OW 3661   1.725   2.082   1.951 -0.0186  0.6411  0.4996
  916SOL    HW1 3662   1.758   2.169   1.918  0.2860  0.3118  0.3315
  916SOL    HW2 3663   1.741   2.017   1.882  1.0444 -2.2449  2.2965
  916SOL     MW 3664   1.731   2.085   1.937  0.1618  0.2169  0.7145
  917SOL     OW 3665   2.448   2.323   2.619  0.0117  0.0944 -0.9811
  917SOL    HW1 3666   2.420   2.360   2.701 -0.4735 -1.3139  0.1752
  917SOL    HW2 3667   2.541   2.332   2.597  0.1392 -2.8699  0.9041
  917SOL     MW 3668   2.457   2.329   2.627 -0.0355 -0.4825 -0.5798
  918SOL     OW 3669   2.059   1.650   2.703 -0.3500  0.0251  0.1165
  918SOL    HW1 3670   1.982   1.693   2.666  0.2176 -2.4058  0.5307
  918SOL    HW2 3671   2.137   1.705   2.662  0.6293  3.4177 -1.7664
  918SOL     MW 3672   2.059   1.663   2.692 -0.1459  0.1520 -0.0773
  919SOL     OW 3673   0.067   2.366   2.258 -0.1564 -0.4155 -0.1860
  919SOL    HW1 3674  -0.014   2.316   2.231  0.9135  1.0545 -0.0565
  919SOL    HW2 3675   0.115   2.343   2.176 -0.1053 -1.5954  1.3460
  919SOL     MW 3676   0.063   2.357   2.244 -0.0085 -0.3772  0.0332
  920SOL     OW 3677   2.764   2.794   3.093 -0.0892  0.0691  0.3692
  920SOL    HW1 3678   2.685   2.849   3.118  2.3031  0.9892 -2.1481
  920SOL    HW2 3679   2.761   2.778   2.996  1.1997 -0.6871 -2.5692
  920SOL     MW 3680   2.753   2.799   3.084  0.3965  0.0907 -0.3506
  921SOL     OW 3681   2.463   2.624   2.666 -0.2270 -0.3926  0.3920
  921SOL    HW1 3682   2.536   2.643   2.598  1.2529  0.2405  4.6591
  921SOL    HW2 3683   2.506   2.554   2.715 -1.2434  2.1405 -0.7783
  921SOL     MW 3684   2.478   2.617   2.663 -0.1658  0.0251  0.8006
  922SOL     OW 3685   1.984   2.773   0.308 -0.2506  0.0947  0.8164
  922SOL    HW1 3686   1.989   2.781   0.212 -1.1367  2.5256 -1.2821
  922SOL    HW2 3687   1.936   2.695   0.319  3.2061  1.8796 -0.0808
  922SOL     MW 3688   1.979   2.764   0.296  0.0885  0.6509  0.4211
  923SOL     OW 3689   2.222   2.811   1.703 -0.0030  0.1470 -0.3692
  923SOL    HW1 3690   2.292   2.768   1.648 -0.2328  0.2043 -0.5695
  923SOL    HW2 3691   2.181   2.882   1.645 -1.0883  0.7213 -0.5599
  923SOL     MW 3692   2.225   2.815   1.688 -0.1765  0.2304 -0.4208
  924SOL     OW 3693   1.212   2.731   2.586 -0.2320 -0.5076 -0.2328
  924SOL    HW1 3694   1.258   2.774   2.509 -1.1682  0.3542  0.8890
  924SOL    HW2 3695   1.263   2.657   2.621 -0.6182 -1.7328 -0.3389
  924SOL     MW 3696   1.225   2.727   2.580 -0.4065 -0.5556 -0.0988
  925SOL     OW 3697   2.958   0.206   2.582  0.0243  0.9419 -0.0937
  925SOL    HW1 3698   3.020   0.253   2.523  4.4540  2.3239 -2.1033
  925SOL    HW2 3699   2.881   0.264   2.601 -0.7107 -0.5138  0.0529
  925SOL     MW 3700   2.956   0.219   2.577  0.5118  0.9321 -0.3395
  926SOL     OW 3701   2.718   2.409   2.074  0.3583 -0.0774 -0.3684
  926SOL    HW1 3702   2.761   2.468   2.134  0.8022 -0.0126 -2.4598
  926SOL    HW2 3703   2.761   2.429   1.992 -1.7771 -0.0906  0.4256
  926SOL     MW 3704   2.729   2.419   2.071  0.1351 -0.0706 -0.5396
  927SOL     OW 3705   2.361   0.162   0.315 -0.7397  0.3668  0.0077
  927SOL    HW1 3706   2.455   0.166   0.309  0.2907  0.2135  0.6454
  927SOL    HW2 3707   2.328   0.149   0.229  0.9796 -0.6791  0.5700
  927SOL     MW 3708   2.369   0.161   0.302 -0.3769  0.2086  0.1660
  928SOL     OW 3709   2.074   2.457   1.834  0.0448 -0.5656  0.6156
  928SOL    HW1 3710   2.136   2.407   1.780 -0.8359 -0.7388 -0.0640
  928SOL    HW2 3711   2.122   2.503   1.899  0.2998 -0.9302 -0.6083
  928SOL     MW 3712   2.089   2.457   1.835 -0.0377 -0.6366  0.3644
  929SOL     OW 3713   2.669   2.377   2.441 -0.5799 -0.3407 -0.0333
  929SOL    HW1 3714   2.714   2.367   2.361 -0.0940 -0.1709 -0.5726
  929SOL    HW2 3715   2.719   2.319   2.498 -1.8625  1.4956 -1.6110
  929SOL     MW 3716   2.681   2.368   2.438 -0.6850 -0.0760 -0.3126
  930SOL     OW 3717   2.014   2.902   2.652  0.2930 -0.5202  0.0091
  930SOL    HW1 3718   2.022   2.832   2.725 -0.3777 -4.4338 -0.5934
  930SOL    HW2 3719   2.099   2.936   2.652 -0.8536 -2.3487 -0.9008
  930SOL     MW 3720   2.026   2.897   2.662  0.0532 -1.2778 -0.1904
  931SOL     OW 3721   2.952   2.807   2.253 -0.2014 -0.0315  0.0721
  931SOL    HW1 3722   3.024   2.823   2.316  1.2320  0.4987 -0.9430
  931SOL    HW2 3723   2.960   2.868   2.181  3.6474  2.7226 -0.9937
  931SOL     MW 3724   2.963   2.817   2.252  0.4956  0.4018 -0.2025
  932SOL     OW 3725   2.898   1.924   2.548  0.5786  0.7772 -0.1183
  932SOL    HW1 3726   2.983   1.973   2.548  3.0189 -1.2519 -2.5082
  932SOL    HW2 3727   2.861   1.963   2.467  0.6811  1.4108 -0.4019
  932SOL     MW 3728   2.905   1.936   2.537  0.9141  0.5931 -0.4710
  933SOL     OW 3729   2.075   2.871   2.231  0.1546  0.1398 -0.1641
  933SOL    HW1 3730   2.158   2.912   2.264  0.7900  0.8021 -0.3892
  933SOL    HW2 3731   2.014   2.938   2.203  3.6204  1.7306 -0.7002
  933SOL     MW 3732   2.078   2.886   2.232  0.6957  0.4371 -0.2645
  934SOL     OW 3733   1.995   2.741   2.444  0.0932 -0.4474  0.1819
  934SOL    HW1 3734   2.005   2.805   2.522 -0.4713 -2.9058  1.1898
  934SOL    HW2 3735   2.021   2.790   2.364  2.4137  1.1567  0.3393
  934SOL     MW 3736   2.000   2.756   2.444  0.3249 -0.5601  0.3356
  935SOL     OW 3737   2.644   1.535   1.792  0.3449  0.0194 -0.2531
  935SOL    HW1 3738   2.734   1.537   1.750 -0.3027  1.5389  0.2153
  935SOL    HW2 3739   2.581   1.532   1.716 -0.0622 -2.7797 -3.1036
  935SOL     MW 3740   2.648   1.535   1.777  0.2058 -0.1494 -0.5674
  936SOL     OW 3741   2.993   2.239   3.091  0.1472 -0.6321 -0.0695
  936SOL    HW1 3742   3.066   2.277   3.144 -1.1831  2.0611  1.1712
  936SOL    HW2 3743   2.914   2.299   3.087  0.5927  0.6006 -1.9305
  936SOL     MW 3744   2.993   2.252   3.097  0.0305 -0.1141 -0.1513
  937SOL     OW 3745   2.046   2.181   2.691 -0.1589  0.1030  0.1565
  937SOL    HW1 3746   2.130   2.157   2.717 -3.7098 -0.3000 -1.3572
  937SOL    HW2 3747   2.029   2.138   2.605 -2.7407  1.9960  0.8811
  937SOL     MW 3748   2.055   2.172   2.683 -0.9681  0.2996  0.0524
  938SOL     OW 3749   2.299   1.809   1.920 -0.1549 -0.4725 -0.4413
  938SOL    HW1 3750   2.271   1.855   1.835  1.5996  0.8896 -0.2569
  938SOL    HW2 3751   2.304   1.869   1.995  0.7910 -0.8913  0.1660
  938SOL     MW 3752   2.296   1.823   1.919  0.2014 -0.3481 -0.3368
  939SOL     OW 3753   2.816   1.991   2.294 -0.0815  0.0933 -1.0155
  939SOL    HW1 3754   2.816   1.912   2.240  0.9475 -1.4906  1.9849
  939SOL    HW2 3755   2.721   2.009   2.306  0.2461 -2.6974 -0.1346
  939SOL     MW 3756   2.804   1.983   2.288  0.0975 -0.4839 -0.5034
  940SOL     OW 3757   2.313   0.144   2.707 -0.2668  0.3714 -0.7155
  940SOL    HW1 3758   2.276   0.053   2.686 -0.7745 -0.0987 -0.1220
  940SOL    HW2 3759   2.381   0.133   2.775  1.5528  0.3474  2.2252
  940SOL     MW 3760   2.317   0.131   2.713 -0.0937  0.3062 -0.2492
  941SOL     OW 3761   0.210   2.315   2.047 -0.1230 -0.8331  0.3558
  941SOL    HW1 3762   0.269   2.235   2.044 -2.1791  3.2656 -1.5898
  941SOL    HW2 3763   0.233   2.369   1.970  0.7146  1.2430 -2.6234
  941SOL     MW 3764   0.221   2.312   2.037 -0.2838 -0.0184 -0.2940
  942SOL     OW 3765   2.941   2.231   2.185  0.4875 -0.0202  0.1671
  942SOL    HW1 3766   2.871   2.283   2.149 -1.2512  0.8454  0.2389
  942SOL    HW2 3767   2.893   2.160   2.227  1.7975  2.7363 -3.0033
  942SOL     MW 3768   2.925   2.228   2.186  0.4309  0.4577 -0.2418
  943SOL     OW 3769   0.406   1.994   2.276 -0.1715  0.1793  0.2190
  943SOL    HW1 3770   0.358   2.047   2.342  2.0665  0.4582 -0.6629
  943SOL    HW2 3771   0.496   1.992   2.306  1.5016 -0.1679  2.2148
  943SOL     MW 3772   0.411   2.001   2.289  0.3445  0.1703  0.3660
  944SOL     OW 3773   2.107   2.638   2.099  0.1619  0.4326  0.1571
  944SOL    HW1 3774   2.165   2.591   2.161 -0.4166  2.2207 -0.7319
  944SOL    HW2 3775   2.094   2.718   2.151 -0.8789  0.8385 -0.8424
  944SOL     MW 3776   2.113   2.643   2.114 -0.0518  0.7221 -0.0921
  945SOL     OW 3777   2.784   2.715   2.834  0.2572 -0.3431 -0.7137
  945SOL    HW1 3778   2.752   2.622   2.835 -0.4403 -0.1559  0.1468
  945SOL    HW2 3779   2.806   2.736   2.743  0.7494 -0.7344  1.3546
  945SOL     MW 3780   2.783   2.706   2.822  0.2301 -0.3700 -0.3273
  946SOL     OW 3781   2.452   2.733   2.270  0.1639 -0.1440  0.0277
  946SOL    HW1 3782   2.496   2.756   2.190 -3.3731 -0.3693 -1.1043
  946SOL    HW2 3783   2.408   2.652   2.257  1.1327  1.2741 -0.9759
  946SOL     MW 3784   2.452   2.726   2.258 -0.1749  0.0133 -0.2541
  947SOL     OW 3785   2.004   0.070   0.231 -0.2591  0.4384  0.4435
  947SOL    HW1 3786   2.077   0.026   0.176  1.5689  1.3194 -0.5138
  947SOL    HW2 3787   2.005   0.035   0.321  0.6869  0.9712 -4.3833
  947SOL     MW 3788   2.014   0.059   0.236  0.1069  0.6249 -0.3196
  948SOL     OW 3789   1.796   3.065   2.655 -0.0317 -0.1100  0.1503
  948SOL    HW1 3790   1.873   2.999   2.657  0.7162  0.5038  1.0905
  948SOL    HW2 3791   1.788   3.098   2.567 -1.0739 -1.4418  1.2407
  948SOL     MW 3792   1.805   3.061   2.644 -0.0706 -0.2047  0.4182
  949SOL     OW 3793   2.550   1.970   2.290  0.6141  0.1397 -0.0683
  949SOL    HW1 3794   2.540   1.879   2.327 -0.3679 -3.2993  1.5109
  949SOL    HW2 3795   2.493   2.022   2.348 -2.1951 -1.2405  0.8641
  949SOL     MW 3796   2.541   1.965   2.303  0.1139 -0.4961  0.2631
  950SOL     OW 3797   2.257   2.564   3.021  0.1207 -0.5614  0.2613
  950SOL    HW1 3798   2.328   2.501   2.987  1.4552  1.6091 -2.2438
  950SOL    HW2 3799   2.199   2.584   2.947 -2.0474  0.5181 -1.4170
  950SOL     MW 3800   2.259   2.559   3.007  0.0107 -0.1326 -0.2906
  951SOL     OW 3801   2.968   2.089   2.832 -0.2028  0.5586  0.0658
  951SOL    HW1 3802   3.030   2.143   2.877  2.4974  0.0656  0.8123
  951SOL    HW2 3803   3.017   2.080   2.750  0.1572  0.3619 -1.0300
  951SOL     MW 3804   2.983   2.095   2.827  0.2010  0.4676  0.0197
  952SOL     OW 3805   3.066   1.719   2.120 -0.4285  1.5558  0.3525
  952SOL    HW1 3806   2.982   1.754   2.084 -0.0451  1.9161 -0.6820
  952SOL    HW2 3807   3.136   1.782   2.104  0.2683 -2.5561  0.9740
  952SOL     MW 3808   3.064   1.732   2.113 -0.2859  1.0608  0.2980
  953SOL     OW 3809   1.938   1.791   2.936 -0.9995 -0.6867 -0.2240
  953SOL    HW1 3810   1.838   1.767   2.931 -0.0746  0.6092  0.4268
  953SOL    HW2 3811   1.990   1.738   2.869 -0.4604 -0.8389 -3.2372
  953SOL     MW 3812   1.932   1.781   2.927 -0.8063 -0.5358 -0.5357
  954SOL     OW 3813   2.472   2.085   2.880 -0.2251 -0.5415  0.0979
  954SOL    HW1 3814   2.391   2.044   2.853  2.9032 -0.1742 -1.6808
  954SOL    HW2 3815   2.523   2.075   2.801 -0.9449 -1.1711 -0.6225
  954SOL     MW 3816   2.468   2.078   2.866  0.0927 -0.5761 -0.2318
  955SOL     OW 3817   1.589   1.634   2.527  0.4569  0.1258  0.6014
  955SOL    HW1 3818   1.578   1.640   2.430  0.2232  0.2052 -0.1409
  955SOL    HW2 3819   1.668   1.676   2.550 -4.2511 -2.3184 -0.7860
  955SOL     MW 3820   1.598   1.641   2.517 -0.1951 -0.1862  0.3204
  956SOL     OW 3821   2.653   2.469   2.840  0.7515 -0.2849  0.4162
  956SOL    HW1 3822   2.682   2.455   2.930 -3.2061  1.2298 -1.1253
  956SOL    HW2 3823   2.691   2.395   2.792  3.2541  0.6856 -2.0121
  956SOL     MW 3824   2.662   2.457   2.845  0.5595  0.0430 -0.1076
  957SOL     OW 3825   2.256   2.838   0.393 -0.3222  0.6894  0.1740
  957SOL    HW1 3826   2.169   2.813   0.365 -1.2236 -1.8121  0.3520
  957SOL    HW2 3827   2.255   2.813   0.484 -0.8381  1.2577  0.8297
  957SOL     MW 3828   2.244   2.831   0.402 -0.5092  0.4343  0.2840
  958SOL     OW 3829   2.002   2.667   2.828 -0.2242 -0.5588  0.0247
  958SOL    HW1 3830   1.953   2.612   2.767 -0.3051  3.4357  3.1784
  958SOL    HW2 3831   1.930   2.695   2.885  0.9211  1.3443 -1.0140
  958SOL     MW 3832   1.986   2.663   2.827 -0.0838  0.2193  0.3037
  959SOL     OW 3833   2.457   2.596   0.315 -0.1339  0.1403  0.6996
  959SOL    HW1 3834   2.529   2.617   0.251  3.8310  0.8140 -1.9067
  959SOL    HW2 3835   2.395   2.671   0.313 -0.7232  0.8578 -0.8608
  959SOL     MW 3836   2.459   2.609   0.306  0.3115  0.3238  0.1498
  960SOL     OW 3837   1.907   2.329   2.279  0.2618  0.5182 -0.1897
  960SOL    HW1 3838   1.869   2.240   2.274 -1.0758 -0.0396  3.0929
  960SOL    HW2 3839   1.835   2.371   2.324 -0.0149  0.6351 -3.4806
  960SOL     MW 3840   1.892   2.322   2.284  0.0488  0.4600 -0.1908
  961SOL     OW 3841   2.165   2.324   2.356  0.3077  0.2783  0.2650
  961SOL    HW1 3842   2.082   2.330   2.321  2.3930 -1.8601 -1.3099
  961SOL    HW2 3843   2.166   2.379   2.434 -0.4018 -0.1074  1.0673
  961SOL     MW 3844   2.154   2.332   2.362  0.4892 -0.0548  0.1631
  962SOL     OW 3845   2.244   1.999   2.801 -0.0245 -0.8350  0.0471
  962SOL    HW1 3846   2.200   1.975   2.883  0.7858  1.4232 -1.5272
  962SOL    HW2 3847   2.237   1.925   2.740  1.5870 -0.7539  0.3579
  962SOL     MW 3848   2.237   1.986   2.804  0.2950 -0.5263 -0.1196
  963SOL     OW 3849   1.837   2.580   2.008 -0.1317 -0.2389 -0.6565
  963SOL    HW1 3850   1.922   2.606   2.041 -1.6876  2.2909  0.9443
  963SOL    HW2 3851   1.849   2.486   1.976 -2.4165  1.5572 -0.2908
  963SOL     MW 3852   1.849   2.571   2.008 -0.6384  0.3318 -0.3971
  964SOL     OW 3853   1.862   1.972   2.747 -0.3495  0.0190  0.0764
  964SOL    HW1 3854   1.948   2.034   2.740  0.9075 -0.2248  2.0059
  964SOL    HW2 3855   1.875   1.913   2.823 -2.3383  2.4364 -3.0595
  964SOL     MW 3856   1.875   1.973   2.756 -0.4460  0.3058 -0.0828
  965SOL     OW 3857   2.250   2.736   0.646  0.0781  0.4060 -0.6024
  965SOL    HW1 3858   2.269   2.641   0.637  0.4761 -1.7475 -2.8527
  965SOL    HW2 3859   2.259   2.762   0.739 -0.3135  0.9392 -1.0473
  965SOL     MW 3860   2.254   2.727   0.657  0.0790  0.1922 -0.9580
  966SOL     OW 3861   2.628   2.639   2.456  0.1399  0.2661  0.2107
  966SOL    HW1 3862   2.562   2.647   2.389  2.4902  0.4402  0.5977
  966SOL    HW2 3863   2.643   2.535   2.457  1.8532 -1.6548  1.0115
  966SOL     MW 3864   2.622   2.627   2.447  0.6761  0.0356  0.3674
  967SOL     OW 3865   2.913   3.032   2.900  0.0841 -0.2035 -0.2096
  967SOL    HW1 3866   2.921   2.973   2.976 -1.4162  0.5326  2.3837
  967SOL    HW2 3867   2.821   3.025   2.865 -0.8838 -2.3663  0.6477
  967SOL     MW 3868   2.902   3.023   2.906 -0.2416 -0.3918  0.2457
  968SOL     OW 3869   3.016   2.601   2.937 -0.6731  0.0847  0.3715
  968SOL    HW1 3870   2.926   2.633   2.908 -3.0013 -1.2830  0.7053
  968SOL    HW2 3871   3.026   2.524   2.875 -0.0970  3.1293 -0.5576
  968SOL     MW 3872   3.005   2.595   2.925 -0.9043  0.3059  0.2929
  969SOL     OW 3873   1.510   2.124   1.694 -0.1770 -0.2470 -0.5263
  969SOL    HW1 3874   1.564   2.041   1.711  0.8764 -0.2912 -0.9410
  969SOL    HW2 3875   1.471   2.150   1.776  0.2214  0.5083  0.6954
  969SOL     MW 3876   1.512   2.117   1.707  0.0145 -0.1532 -0.4199
  970SOL     OW 3877   1.679   1.653   1.817 -0.2484 -0.5596 -0.3276
  970SOL    HW1 3878   1.741   1.643   1.887 -1.0743  0.0958 -2.5686
  970SOL    HW2 3879   1.591   1.638   1.858 -0.2693  2.0261  0.2584
  970SOL     MW 3880   1.676   1.649   1.832 -0.3601 -0.1320 -0.5459
  971SOL     OW 3881   1.777   0.015   2.373 -0.6825 -0.3348 -0.0001
  971SOL    HW1 3882   1.815  -0.040   2.294  4.0732 -2.6286 -1.3162
  971SOL    HW2 3883   1.841   0.092   2.372  0.8860  3.7053  0.3274
  971SOL     MW 3884   1.791   0.018   2.362  0.1519 -0.1044 -0.1305
  972SOL     OW 3885   0.260   2.811   2.470 -0.4709  0.6465 -1.1024
  972SOL    HW1 3886   0.295   2.737   2.521 -1.3711  1.8133  0.9420
  972SOL    HW2 3887   0.320   2.873   2.505 -1.7377 -0.8317 -1.0863
  972SOL     MW 3888   0.272   2.809   2.481 -0.7568  0.6054 -0.8305
  973SOL     OW 3889   2.595   0.022   2.119 -0.3798 -0.0904  0.0477
  973SOL    HW1 3890   2.569  -0.068   2.101 -0.2998  0.4776  2.5830
  973SOL    HW2 3891   2.605   0.065   2.037 -0.4828 -2.1098  2.2078
  973SOL     MW 3892   2.593   0.016   2.106 -0.3829 -0.2819  0.6672
  974SOL     OW 3893   2.074   0.283   2.771 -0.4947 -0.1364 -0.7278
  974SOL    HW1 3894   2.166   0.249   2.775  0.0847 -1.8855  1.5862
  974SOL    HW2 3895   2.029   0.211   2.821  0.8988 -0.0722 -2.1279
  974SOL     MW 3896   2.080   0.269   2.778 -0.2344 -0.3587 -0.6072
  975SOL     OW 3897   2.173   2.551   2.521 -0.2469 -0.5439 -0.0350
  975SOL    HW1 3898   2.260   2.586   2.554 -1.2756  0.2138 -1.0351
  975SOL    HW2 3899   2.115   2.624   2.498 -1.5473 -1.1156  1.3881
  975SOL     MW 3900   2.177   2.566   2.522 -0.5542 -0.5194  0.0208
  976SOL     OW 3901   0.260   0.406   1.743  0.1892 -0.0289  0.6433
  976SOL    HW1 3902   0.327   0.351   1.773 -1.0611  2.6693 -2.9135
  976SOL    HW2 3903   0.188   0.355   1.710 -0.0814  0.7157 -3.1065
  976SOL     MW 3904   0.259   0.392   1.743 -0.0115  0.4253 -0.3208
  977SOL     OW 3905   1.736   2.737   2.456 -0.8540 -0.4357 -0.1822
  977SOL    HW1 3906   1.719   2.643   2.442 -0.5222  1.6583  0.6582
  977SOL    HW2 3907   1.831   2.744   2.442 -0.1056 -1.1606 -0.2123
  977SOL     MW 3908   1.746   2.725   2.452 -0.7114 -0.2551 -0.0753
   3.10000   3.10000   3.10000
