977 TIP4P/2005f water molecules t=   1.07000 step= 1070
 3908
    1SOL     OW    1   0.399   0.795   0.030  0.3812 -0.3491 -0.1987
    1SOL    HW1    2   0.419   0.836  -0.058  0.7368 -1.3137 -0.1334
    1SOL    HW2    3   0.318   0.742   0.012 -1.4295 -0.5631 -3.3953
    1SOL     MW    4   0.391   0.794   0.016  0.1892 -0.5046 -0.6118
    2SOL     OW    5   0.335   3.058   1.178  0.0480 -0.2603  0.3751
    2SOL    HW1    6   0.361   3.141   1.134 -1.6426  2.8072 -1.8987
    2SOL    HW2    7   0.241   3.079   1.190  0.8316 -0.6404 -1.0605
    2SOL     MW    8   0.326   3.072   1.173 -0.0717  0.0943 -0.1143
    3SOL     OW    9   2.623   0.440   0.983 -0.6798 -0.0686  0.3391
    3SOL    HW1   10   2.645   0.499   0.914  1.4323  0.0786 -3.6640
    3SOL    HW2   11   2.594   0.503   1.053 -1.3905  1.3407 -0.3733
    3SOL     MW   12   2.622   0.456   0.983 -0.4949  0.1368 -0.2830
    4SOL     OW   13   2.933   1.676   0.558  0.1099  0.4332 -0.3169
    4SOL    HW1   14   2.869   1.736   0.519 -0.3048  1.6931 -3.3741
    4SOL    HW2   15   3.007   1.649   0.503  0.6976 -0.1122  0.1245
    4SOL     MW   16   2.934   1.680   0.545  0.1327  0.5274 -0.6621
    5SOL     OW   17   1.756   1.485   0.527 -0.8812 -0.0808  0.0392
    5SOL    HW1   18   1.743   1.457   0.615 -1.6052 -0.0078  0.2328
    5SOL    HW2   19   1.668   1.523   0.500 -1.5989 -1.0137 -0.2193
    5SOL     MW   20   1.743   1.486   0.535 -1.0714 -0.1943  0.0306
    6SOL     OW   21   0.803   1.369   0.578  0.0405 -0.3093  0.0141
    6SOL    HW1   22   0.721   1.411   0.614 -2.2858 -2.1011 -2.7727
    6SOL    HW2   23   0.829   1.299   0.638 -1.2068  0.0024 -1.3458
    6SOL     MW   24   0.796   1.365   0.590 -0.4310 -0.5046 -0.5330
    7SOL     OW   25   2.070   1.023   0.004  0.0551 -0.2805  0.3910
    7SOL    HW1   26   2.120   1.050  -0.068 -0.1744  0.2786  0.2397
    7SOL    HW2   27   2.127   1.040   0.076 -0.0004  0.9204 -1.2576
    7SOL     MW   28   2.084   1.029   0.004  0.0175 -0.0483  0.1535
    8SOL     OW   29   0.908   1.438   1.163 -0.3090  0.2887  0.6568
    8SOL    HW1   30   0.987   1.401   1.128  0.3955 -0.7363  0.7878
    8SOL    HW2   31   0.860   1.361   1.190 -0.5148  2.2607 -0.3572
    8SOL     MW   32   0.912   1.423   1.162 -0.2432  0.4136  0.5403
    9SOL     OW   33   1.017   0.534   1.399 -0.1352 -0.1500  0.1233
    9SOL    HW1   34   0.962   0.470   1.349 -2.0577 -1.2203 -0.2095
    9SOL    HW2   35   1.055   0.481   1.470 -2.5106 -1.3657 -1.4192
    9SOL     MW   36   1.015   0.519   1.402 -0.7023 -0.4516 -0.1241
   10SOL     OW   37   0.206   0.764   0.460  0.1855  0.0314  0.4876
   10SOL    HW1   38   0.293   0.812   0.454  1.2027  0.4796  0.8523
   10SOL    HW2   39   0.165   0.814   0.536  0.6966  1.1335 -1.2249
   10SOL     MW   40   0.212   0.777   0.469  0.3872  0.2359  0.3097
   11SOL     OW   41   0.811   1.137   1.633  0.1564  0.1826 -1.2145
   11SOL    HW1   42   0.847   1.126   1.725  2.6781  2.1452 -0.7190
   11SOL    HW2   43   0.839   1.060   1.594 -0.3837 -0.7747  4.6396
   11SOL     MW   44   0.820   1.126   1.640  0.4178  0.3153 -0.3767
   12SOL     OW   45   0.024   1.087   0.864 -0.2082 -0.0176  0.0075
   12SOL    HW1   46   0.070   1.136   0.932  1.3777  1.2894  2.2616
   12SOL    HW2   47  -0.006   1.150   0.801 -5.6695  0.0462  1.0336
   12SOL     MW   48   0.026   1.102   0.865 -0.7195  0.1632  0.4403
   13SOL     OW   49   1.844   1.441   1.335 -0.1656  0.0014 -0.3635
   13SOL    HW1   50   1.883   1.399   1.262 -2.6641 -0.2884  1.1379
   13SOL    HW2   51   1.845   1.537   1.323 -0.6420  0.2025  1.7426
   13SOL     MW   52   1.849   1.448   1.324 -0.5581 -0.0103  0.1125
   14SOL     OW   53   0.579   0.396   1.863 -0.3040  0.1886 -0.1273
   14SOL    HW1   54   0.507   0.329   1.874 -0.3978  1.5642  2.2279
   14SOL    HW2   55   0.666   0.353   1.844 -1.7323  1.7212 -1.5727
   14SOL     MW   56   0.581   0.382   1.862 -0.5048  0.5723 -0.0073
   15SOL     OW   57   1.951   0.350   1.063  0.2436 -0.0277 -0.0815
   15SOL    HW1   58   1.925   0.422   1.119  4.5603  3.4752 -1.3872
   15SOL    HW2   59   2.018   0.388   1.006  1.5325 -3.0360  0.3521
   15SOL     MW   60   1.956   0.365   1.063  0.9832  0.0376 -0.1966
   16SOL     OW   61   0.191   1.802   0.328 -0.1064  0.0295 -0.1790
   16SOL    HW1   62   0.283   1.764   0.337 -0.9688 -3.0137 -0.1406
   16SOL    HW2   63   0.197   1.893   0.342  0.2499 -0.9722 -0.1404
   16SOL     MW   64   0.204   1.809   0.331 -0.1732 -0.5042 -0.1689
   17SOL     OW   65   1.096   0.912   1.443 -0.2717  0.5642  0.4079
   17SOL    HW1   66   1.138   0.898   1.526 -4.4730  4.1471  0.4484
   17SOL    HW2   67   1.005   0.886   1.458  1.2989  0.2836  0.5372
   17SOL     MW   68   1.089   0.907   1.456 -0.6188  0.9999  0.4303
   18SOL     OW   69   0.037   1.571   0.418 -0.2755  0.0358 -0.6758
   18SOL    HW1   70   0.067   1.645   0.371 -2.5763 -0.3225  4.1986
   18SOL    HW2   71   0.018   1.505   0.349  1.6708  0.5624 -0.4290
   18SOL     MW   72   0.038   1.572   0.403 -0.3223  0.0580 -0.0001
   19SOL     OW   73   0.109   1.279   1.031 -0.4204  0.1512  0.1040
   19SOL    HW1   74   0.138   1.327   0.951 -2.3446 -2.9063  1.8008
   19SOL    HW2   75   0.025   1.317   1.062 -1.8550  0.0164  0.0358
   19SOL     MW   76   0.102   1.290   1.025 -0.8635 -0.2700  0.3188
   20SOL     OW   77   0.440   2.152   1.169  0.1434  0.3348  0.1375
   20SOL    HW1   78   0.405   2.074   1.124 -0.8532 -1.1545 -0.1005
   20SOL    HW2   79   0.401   2.160   1.258  0.0185 -0.1459 -1.2512
   20SOL     MW   80   0.430   2.143   1.175 -0.0046  0.0748 -0.0771
   21SOL     OW   81   0.456   0.869   0.410 -0.1079  0.1825  0.4875
   21SOL    HW1   82   0.504   0.830   0.484 -1.0473 -1.5597  0.5594
   21SOL    HW2   83   0.507   0.842   0.335  0.4953  2.2408  2.0821
   21SOL     MW   84   0.469   0.860   0.410 -0.1523  0.2242  0.7074
   22SOL     OW   85   1.592   0.637   1.030  0.0169  0.0651  0.1289
   22SOL    HW1   86   1.538   0.624   0.955  2.2500  0.5318  1.7418
   22SOL    HW2   87   1.539   0.688   1.095  0.2107  0.1373 -0.9008
   22SOL     MW   88   1.578   0.642   1.029  0.3371  0.1362  0.2058
   23SOL     OW   89   3.056   0.702   0.665 -0.4605 -0.4745  0.5802
   23SOL    HW1   90   3.098   0.625   0.715  1.5258 -2.7412  0.2509
   23SOL    HW2   91   3.112   0.779   0.684  0.7523  0.4427 -1.4398
   23SOL     MW   92   3.069   0.702   0.674 -0.0384 -0.6526  0.2703
   24SOL     OW   93   2.028   2.208   0.030 -0.3220 -0.1992  0.1120
   24SOL    HW1   94   2.019   2.175   0.120 -0.2263 -0.0022 -1.4627
   24SOL    HW2   95   2.044   2.125  -0.017 -1.0770 -1.9703 -1.1351
   24SOL     MW   96   2.029   2.193   0.036 -0.4090 -0.4069 -0.2603
   25SOL     OW   97   0.227   1.425   0.568  0.2318  0.1461  0.1153
   25SOL    HW1   98   0.173   1.482   0.520  0.5390 -1.4945  1.3917
   25SOL    HW2   99   0.317   1.456   0.572 -2.1307 -0.9620 -2.7722
   25SOL     MW  100   0.232   1.436   0.562 -0.0393 -0.2166 -0.0973
   26SOL     OW  101   2.108   1.032   0.353 -0.0656  1.1583 -0.3245
   26SOL    HW1  102   2.044   1.076   0.405 -2.3291 -1.0240 -1.1299
   26SOL    HW2  103   2.170   1.090   0.307 -0.6975 -0.6775 -1.6725
   26SOL     MW  104   2.107   1.045   0.354 -0.4477  0.6281 -0.6086
   27SOL     OW  105   2.000   1.438   0.237 -0.5261  0.2813 -0.4006
   27SOL    HW1  106   1.909   1.473   0.241 -1.1557  2.0060  2.4592
   27SOL    HW2  107   2.053   1.492   0.298  2.2721 -3.3952  0.8080
   27SOL     MW  108   1.995   1.450   0.245 -0.2400  0.0238  0.1362
   28SOL     OW  109   0.432   0.994   1.950 -0.1095  0.3143  0.1613
   28SOL    HW1  110   0.506   0.975   2.017 -1.5569 -0.8442  1.1606
   28SOL    HW2  111   0.354   0.944   1.968  0.3560 -0.4530 -0.5433
   28SOL     MW  112   0.431   0.985   1.961 -0.2391  0.0602  0.2002
   29SOL     OW  113   0.217   1.454   0.839 -0.3273  0.6443  0.8972
   29SOL    HW1  114   0.202   1.550   0.828 -0.8300 -1.4700 -2.4520
   29SOL    HW2  115   0.217   1.423   0.748 -0.0691 -1.9956  0.2412
   29SOL     MW  116   0.215   1.462   0.826 -0.3595  0.0170  0.3688
   30SOL     OW  117   0.817   1.197   1.226  0.0742  0.2390 -0.1691
   30SOL    HW1  118   0.736   1.197   1.276 -2.0425  1.7530  0.0160
   30SOL    HW2  119   0.898   1.189   1.288  1.4999 -0.9388  1.2706
   30SOL     MW  120   0.817   1.196   1.241 -0.0170  0.2834  0.0452
   31SOL     OW  121   0.447   0.236   0.164  0.5243  0.7727 -0.0686
   31SOL    HW1  122   0.437   0.184   0.238  0.3495  2.7988 -0.3954
   31SOL    HW2  123   0.444   0.169   0.094 -2.4914 -0.8202 -0.2086
   31SOL     MW  124   0.445   0.220   0.165  0.1033  0.8298 -0.1302
   32SOL     OW  125   2.814   0.972   1.182 -0.1071 -0.1437  0.0151
   32SOL    HW1  126   2.762   0.896   1.191  1.0667  1.3121  1.5630
   32SOL    HW2  127   2.901   0.944   1.149  0.1357  0.7016  0.2432
   32SOL     MW  128   2.819   0.958   1.179  0.0798  0.1599  0.2494
   33SOL     OW  129   1.724   1.303   0.322 -0.0785 -0.0148 -0.0647
   33SOL    HW1  130   1.804   1.252   0.337 -1.6695  0.4556  0.4842
   33SOL    HW2  131   1.723   1.360   0.396 -1.9372 -1.8447  1.5879
   33SOL     MW  132   1.735   1.304   0.333 -0.5337 -0.1942  0.2258
   34SOL     OW  133   1.222   1.891   1.105 -0.1689  0.2471 -0.4545
   34SOL    HW1  134   1.141   1.939   1.123 -1.6926 -0.8771  0.0373
   34SOL    HW2  135   1.290   1.921   1.166 -0.3320  1.5213  1.6677
   34SOL     MW  136   1.221   1.901   1.115 -0.3914  0.2669 -0.1096
   35SOL     OW  137   0.417   0.149   1.842 -0.4470 -0.3349  0.8320
   35SOL    HW1  138   0.434   0.084   1.911 -1.0675  0.2424 -0.7075
   35SOL    HW2  139   0.459   0.122   1.759 -3.9352  1.0960  1.4902
   35SOL     MW  140   0.425   0.137   1.840 -0.9891 -0.0700  0.7157
   36SOL     OW  141   1.965   1.965   0.595 -0.0030  0.1294  0.5978
   36SOL    HW1  142   1.992   1.940   0.509  0.0479 -1.9605  0.6165
   36SOL    HW2  143   1.955   1.876   0.633  0.0254  0.3743 -1.3058
   36SOL     MW  144   1.967   1.950   0.589  0.0075 -0.1141  0.3491
   37SOL     OW  145   1.804   1.977   0.962 -0.0046 -0.1501 -0.5512
   37SOL    HW1  146   1.769   1.929   0.887 -0.3707  1.7114  2.2929
   37SOL    HW2  147   1.726   2.019   0.996  0.4024  0.4616  0.7849
   37SOL     MW  148   1.789   1.976   0.957  0.0008  0.1762  0.0004
   38SOL     OW  149   2.819   0.930   0.148 -0.5318  0.3848 -0.2440
   38SOL    HW1  150   2.838   0.913   0.244  2.4848 -1.3014  0.2019
   38SOL    HW2  151   2.894   0.889   0.110 -0.1032  1.2173 -0.6067
   38SOL     MW  152   2.832   0.922   0.156 -0.0773  0.2721 -0.2330
   39SOL     OW  153   1.427   0.628   0.805  0.2496 -0.2433 -0.1004
   39SOL    HW1  154   1.406   0.540   0.840  0.2307 -1.3797 -0.4728
   39SOL    HW2  155   1.344   0.662   0.762  0.4410  0.2434  1.6661
   39SOL     MW  156   1.413   0.621   0.804  0.2724 -0.3290  0.0836
   40SOL     OW  157   1.182   1.917   0.318 -0.2919  0.0739 -0.3036
   40SOL    HW1  158   1.246   1.849   0.335  1.9288  1.3762  0.6904
   40SOL    HW2  159   1.206   1.990   0.377  3.5845  0.6140 -2.1169
   40SOL     MW  160   1.193   1.918   0.328  0.5125  0.3170 -0.4117
   41SOL     OW  161   0.582   0.533   1.629 -0.5550 -0.3984 -0.7726
   41SOL    HW1  162   0.660   0.589   1.633 -0.1866 -1.6674 -0.5624
   41SOL    HW2  163   0.574   0.483   1.717  1.5509 -3.2574  0.4424
   41SOL     MW  164   0.591   0.534   1.641 -0.2286 -0.9430 -0.5845
   42SOL     OW  165   1.275   2.999   2.009  0.4013 -0.0351  0.0983
   42SOL    HW1  166   1.192   3.014   2.051  1.4273  0.0219 -0.4360
   42SOL    HW2  167   1.328   2.932   2.060  3.8377  2.1997  1.4338
   42SOL     MW  168   1.271   2.992   2.021  0.9901  0.2673  0.2040
   43SOL     OW  169   1.521   0.123   1.705  0.1200 -0.4688 -0.4802
   43SOL    HW1  170   1.568   0.066   1.639  2.7535  1.2074 -1.1267
   43SOL    HW2  171   1.440   0.075   1.721 -1.0419  0.6362 -0.6891
   43SOL     MW  172   1.517   0.109   1.698  0.3141 -0.1019 -0.5930
   44SOL     OW  173   1.096   0.800   1.037  0.5124 -0.0812 -0.0827
   44SOL    HW1  174   1.101   0.893   1.021 -0.8769  0.0653 -1.0292
   44SOL    HW2  175   1.138   0.781   1.120  2.4344  3.7283 -1.4728
   44SOL     MW  176   1.102   0.810   1.046  0.5827  0.4408 -0.3910
   45SOL     OW  177   1.221   0.757   0.640  0.5070  0.0355 -0.1509
   45SOL    HW1  178   1.149   0.819   0.619 -1.9157 -1.2462 -1.8141
   45SOL    HW2  179   1.211   0.683   0.570  0.5606 -0.7154 -2.6745
   45SOL     MW  180   1.210   0.756   0.628  0.1944 -0.2327 -0.7033
   46SOL     OW  181   0.551   1.158   0.599 -0.2814 -0.6400 -0.2717
   46SOL    HW1  182   0.518   1.146   0.508 -0.1201  0.7889 -0.4563
   46SOL    HW2  183   0.621   1.100   0.619  1.6055 -1.1513  0.5999
   46SOL     MW  184   0.556   1.149   0.590 -0.0111 -0.5189 -0.1811
   47SOL     OW  185   0.214   2.053   1.990  0.3175 -0.1588 -0.1835
   47SOL    HW1  186   0.298   2.005   1.989  1.9023  1.2298 -0.6468
   47SOL    HW2  187   0.205   2.083   2.077  0.1087  2.4510 -0.9901
   47SOL     MW  188   0.224   2.051   2.002  0.4990  0.3687 -0.3510
   48SOL     OW  189   1.058   0.483   1.051 -0.2512  0.0687  0.4769
   48SOL    HW1  190   0.982   0.454   1.004  0.8417  1.8569  3.5106
   48SOL    HW2  191   1.057   0.579   1.054  1.9046  3.6060  0.9522
   48SOL     MW  192   1.048   0.492   1.045  0.1774  0.7713  0.9399
   49SOL     OW  193   1.734   0.705   1.534 -0.7174 -0.2667  0.5275
   49SOL    HW1  194   1.726   0.652   1.616 -0.5898 -1.2119  2.0559
   49SOL    HW2  195   1.806   0.670   1.481 -3.6572  0.3871 -0.7544
   49SOL     MW  196   1.743   0.693   1.538 -1.0884 -0.3051  0.5600
   50SOL     OW  197   1.327   1.070   0.515  0.3398 -0.1564  0.2535
   50SOL    HW1  198   1.297   1.115   0.593 -2.1622 -0.3819 -0.3299
   50SOL    HW2  199   1.381   0.995   0.540 -2.6260 -1.4476  0.1189
   50SOL     MW  200   1.330   1.066   0.528 -0.3816 -0.3565  0.1588
   51SOL     OW  201   0.339   2.919   0.908  0.0555  0.0517 -0.2447
   51SOL    HW1  202   0.426   2.874   0.910  0.6450 -0.5106  2.4089
   51SOL    HW2  203   0.345   2.956   0.998  4.0868  2.6484  1.5891
   51SOL     MW  204   0.351   2.918   0.920  0.6652  0.3201  0.3474
   52SOL     OW  205   0.779   1.724   0.413  0.0825 -0.3309 -0.0939
   52SOL    HW1  206   0.740   1.797   0.360  1.8422 -0.3485 -0.2392
   52SOL    HW2  207   0.806   1.659   0.348 -1.2014 -0.2893 -0.5519
   52SOL     MW  208   0.777   1.725   0.398  0.1453 -0.3278 -0.1735
   53SOL     OW  209   0.440   2.097   0.490  0.0060  0.3512 -1.1854
   53SOL    HW1  210   0.373   2.107   0.424  0.6553 -0.3631 -2.7588
   53SOL    HW2  211   0.425   2.168   0.558  0.5267  2.5990  0.3286
   53SOL     MW  212   0.429   2.108   0.491  0.1603  0.5535 -1.1933
   54SOL     OW  213   2.000   0.942   0.790  0.0415 -0.0368  0.1708
   54SOL    HW1  214   2.034   0.975   0.705 -0.4663  0.3496 -0.6735
   54SOL    HW2  215   1.976   0.851   0.777 -0.2362 -0.6847 -0.0495
   54SOL     MW  216   2.002   0.934   0.777 -0.0622 -0.0713  0.0303
   55SOL     OW  217   0.543   1.550   1.614  0.4364  0.0245  0.0830
   55SOL    HW1  218   0.477   1.595   1.562 -0.6590  1.2358  1.3398
   55SOL    HW2  219   0.594   1.494   1.558 -0.0231  1.2186 -2.0533
   55SOL     MW  220   0.541   1.549   1.600  0.2313  0.3419 -0.0330
   56SOL     OW  221   0.617   0.825   0.189  0.1332  0.5027 -0.1655
   56SOL    HW1  222   0.623   0.919   0.174 -1.2581 -0.5391 -0.8965
   56SOL    HW2  223   0.548   0.803   0.125  0.7494 -2.3943  2.3289
   56SOL     MW  224   0.609   0.835   0.179  0.0310 -0.0170  0.0672
   57SOL     OW  225   1.165   1.258   1.178  0.7468 -0.2434  0.1820
   57SOL    HW1  226   1.251   1.233   1.204 -0.4845  1.6693  0.0614
   57SOL    HW2  227   1.123   1.206   1.247 -1.9940 -2.7791  0.0766
   57SOL     MW  228   1.170   1.248   1.191  0.2227 -0.3256  0.1522
   58SOL     OW  229   0.532   1.230   1.350 -0.8414  0.8402  0.0760
   58SOL    HW1  230   0.484   1.299   1.305 -0.5274 -0.0900 -3.1160
   58SOL    HW2  231   0.527   1.229   1.443  1.4491  2.0007  0.2721
   58SOL     MW  232   0.525   1.239   1.357 -0.4978  0.8706 -0.3193
   59SOL     OW  233   1.545   1.692   0.355  0.2439 -0.1240 -0.1998
   59SOL    HW1  234   1.557   1.765   0.413 -0.4498 -2.1768  0.5567
   59SOL    HW2  235   1.458   1.661   0.390 -1.9636 -0.2770  1.1673
   59SOL     MW  236   1.535   1.697   0.368 -0.1389 -0.4150  0.0804
   60SOL     OW  237   0.028   0.222   1.640  0.7408  0.0717  0.6932
   60SOL    HW1  238  -0.049   0.257   1.669  0.8522 -1.2347 -1.4769
   60SOL    HW2  239   0.036   0.141   1.694  2.2579 -0.7788  1.5464
   60SOL     MW  240   0.019   0.216   1.651  0.9557 -0.2129  0.5194
   61SOL     OW  241   2.046   1.437   3.061  0.1875 -0.9124 -0.1815
   61SOL    HW1  242   2.049   1.422   3.159 -1.0496  0.5968  0.7787
   61SOL    HW2  243   2.120   1.385   3.019  0.3437  0.1777 -2.3538
   61SOL     MW  244   2.056   1.428   3.068  0.0449 -0.5694 -0.3414
   62SOL     OW  245   0.577   1.705   0.605  0.2190 -0.3740 -0.4231
   62SOL    HW1  246   0.653   1.704   0.546 -0.3374  1.5867  0.6395
   62SOL    HW2  247   0.568   1.620   0.629 -3.5367  4.4801  1.5196
   62SOL     MW  248   0.586   1.694   0.600 -0.3499  0.5252 -0.0266
   63SOL     OW  249   1.693   0.691   0.714 -0.1820 -0.0114  0.0778
   63SOL    HW1  250   1.698   0.775   0.665 -0.0827 -1.5102 -0.0580
   63SOL    HW2  251   1.599   0.688   0.740 -0.5635  1.0351 -0.6253
   63SOL     MW  252   1.681   0.702   0.711 -0.2192 -0.0711 -0.0329
   64SOL     OW  253   0.226   1.711   0.826  0.1275  0.1105  0.0613
   64SOL    HW1  254   0.261   1.761   0.758  0.5122 -1.9301 -0.4577
   64SOL    HW2  255   0.144   1.761   0.844  0.5900  1.3696 -0.2784
   64SOL     MW  256   0.220   1.724   0.820  0.2393  0.0074 -0.0520
   65SOL     OW  257   1.586   2.312   0.398 -0.0046  0.3488  0.6732
   65SOL    HW1  258   1.651   2.244   0.420  0.2919 -1.4226  1.4935
   65SOL    HW2  259   1.556   2.355   0.480 -0.7258 -0.6346 -0.5615
   65SOL     MW  260   1.591   2.308   0.412 -0.0606 -0.0147  0.6185
   66SOL     OW  261   0.289   0.521   0.545 -0.2655 -0.0195 -0.0297
   66SOL    HW1  262   0.356   0.505   0.470  2.9067  0.1404 -0.2128
   66SOL    HW2  263   0.258   0.611   0.527 -1.4556 -2.2400  0.8568
   66SOL     MW  264   0.294   0.531   0.533 -0.0040 -0.2914  0.0631
   67SOL     OW  265   1.493   0.074   2.010 -0.4508  0.1486 -0.4939
   67SOL    HW1  266   1.510   0.064   1.919 -0.0521 -1.7103 -1.9755
   67SOL    HW2  267   1.411   0.022   2.021 -3.1982  0.1392  0.2981
   67SOL     MW  268   1.485   0.066   1.999 -0.7607 -0.0979 -0.5849
   68SOL     OW  269   0.704   0.039   2.972 -0.4486  0.0756  1.0090
   68SOL    HW1  270   0.705   0.093   2.889  2.0947 -0.7198 -0.3943
   68SOL    HW2  271   0.794   0.058   3.008  0.7555  0.2683 -4.0549
   68SOL     MW  272   0.716   0.049   2.966  0.0458 -0.0039  0.1557
   69SOL     OW  273   1.049   0.200   1.953 -0.1879 -0.0718  0.5039
   69SOL    HW1  274   1.143   0.223   1.961 -0.5018 -1.2961 -0.3661
   69SOL    HW2  275   1.031   0.131   2.018 -3.5838 -2.1036  1.1300
   69SOL     MW  276   1.059   0.194   1.962 -0.6774 -0.5014  0.4717
   70SOL     OW  277   0.581   1.732   1.153  0.2625 -0.0877  0.4564
   70SOL    HW1  278   0.620   1.688   1.227 -0.3901  2.3287  0.5175
   70SOL    HW2  279   0.656   1.786   1.124  0.6605  2.7725  0.2908
   70SOL     MW  280   0.596   1.733   1.159  0.2289  0.6085  0.4426
   71SOL     OW  281   1.597   0.467   1.246 -0.5117 -0.5506  0.0117
   71SOL    HW1  282   1.561   0.523   1.317  2.3958  0.3057  2.3454
   71SOL    HW2  283   1.582   0.511   1.160 -0.1602  2.6559  1.0181
   71SOL     MW  284   1.590   0.480   1.244 -0.0817 -0.0145  0.4524
   72SOL     OW  285   0.781   1.850   0.997  0.0982 -0.6290  0.1028
   72SOL    HW1  286   0.779   1.904   0.913  0.7871 -0.5567  1.7491
   72SOL    HW2  287   0.801   1.753   0.978  1.3607 -1.6922  1.2600
   72SOL     MW  288   0.783   1.844   0.983  0.3557 -0.7598  0.4727
   73SOL     OW  289   1.189   0.712   1.271  0.5078  0.5000  0.0653
   73SOL    HW1  290   1.120   0.650   1.282  0.1532  1.5173 -1.2691
   73SOL    HW2  291   1.155   0.789   1.328  0.4231  1.8340  0.1171
   73SOL     MW  292   1.175   0.714   1.280  0.4498  0.8103 -0.1039
   74SOL     OW  293   2.734   0.197   1.030  0.5876 -0.2272  0.7595
   74SOL    HW1  294   2.805   0.194   0.967 -0.8779  0.6314  1.6132
   74SOL    HW2  295   2.715   0.291   1.025  0.5045  1.1191  0.4554
   74SOL     MW  296   2.741   0.209   1.021  0.3833  0.0637  0.8320
   75SOL     OW  297   1.552   1.441   0.146 -0.6126  0.3975  0.2806
   75SOL    HW1  298   1.625   1.502   0.142 -0.4830  1.0047 -3.1735
   75SOL    HW2  299   1.575   1.394   0.229  0.4664  2.0141 -0.6210
   75SOL     MW  300   1.565   1.442   0.156 -0.4532  0.6909 -0.2941
   76SOL     OW  301   2.937   0.549   0.473  0.0585 -0.4252  0.3338
   76SOL    HW1  302   2.985   0.599   0.542 -0.8146  1.8239 -0.6684
   76SOL    HW2  303   3.005   0.503   0.423 -1.0472  0.0050  1.1837
   76SOL     MW  304   2.952   0.549   0.475 -0.2026 -0.0717  0.3137
   77SOL     OW  305   0.824   0.569   0.479  0.3385  0.4622 -0.0025
   77SOL    HW1  306   0.813   0.582   0.384 -0.7492 -0.4921  0.8357
   77SOL    HW2  307   0.773   0.488   0.501 -1.5553 -0.5225  1.1438
   77SOL     MW  308   0.816   0.560   0.469 -0.0549  0.2064  0.2593
   78SOL     OW  309   0.757   0.905   1.251 -0.1302 -0.3241 -0.5135
   78SOL    HW1  310   0.809   0.986   1.221 -0.8894  0.9908 -0.1404
   78SOL    HW2  311   0.688   0.892   1.184 -0.4443 -1.4587  0.3343
   78SOL     MW  312   0.755   0.914   1.238 -0.2718 -0.3004 -0.3525
   79SOL     OW  313   1.946   1.673   0.601 -0.4368 -0.2546  0.3844
   79SOL    HW1  314   1.875   1.637   0.551 -2.9370  1.0607 -0.8885
   79SOL    HW2  315   1.919   1.650   0.694  0.4022 -0.0844  2.1689
   79SOL     MW  316   1.933   1.665   0.607 -0.6560 -0.0586  0.4519
   80SOL     OW  317   0.086   0.957   0.321 -0.0263 -0.6341 -0.0455
   80SOL    HW1  318  -0.004   0.930   0.313 -2.1281 -0.2405 -2.2367
   80SOL    HW2  319   0.134   0.895   0.374 -2.2632 -1.2706  2.0886
   80SOL     MW  320   0.080   0.945   0.327 -0.5987 -0.6662 -0.0530
   81SOL     OW  321   1.909   1.887   0.328 -0.2614 -0.2593 -1.0319
   81SOL    HW1  322   1.890   1.797   0.301  1.2028 -0.3226 -0.3043
   81SOL    HW2  323   1.857   1.949   0.277  0.5418 -0.0788  2.2186
   81SOL     MW  324   1.900   1.883   0.318  0.0378 -0.2438 -0.5070
   82SOL     OW  325   0.796   1.004   0.556  0.4440 -0.2055  0.0644
   82SOL    HW1  326   0.782   1.038   0.463 -0.1047 -0.2624 -2.8728
   82SOL    HW2  327   0.760   0.918   0.566  1.5827  1.4382 -1.0400
   82SOL     MW  328   0.789   0.997   0.545  0.5219  0.0038 -0.4689
   83SOL     OW  329   0.069   0.675   1.436 -0.2022  0.4789 -0.1333
   83SOL    HW1  330   0.099   0.738   1.368 -0.6361  0.5553 -0.0106
   83SOL    HW2  331   0.151   0.626   1.447 -1.3005 -0.9061  1.5641
   83SOL     MW  332   0.084   0.677   1.428 -0.4044  0.3063  0.1069
   84SOL     OW  333   0.128   0.207   1.023 -0.6247 -0.3922 -0.4176
   84SOL    HW1  334   0.068   0.280   1.022  0.1214  0.9990  0.8087
   84SOL    HW2  335   0.088   0.147   1.085  1.9245  2.1617  1.8790
   84SOL     MW  336   0.115   0.208   1.031 -0.1899  0.1283  0.0472
   85SOL     OW  337   0.469   0.443   0.772 -0.3688  0.2320 -0.5413
   85SOL    HW1  338   0.431   0.480   0.696 -0.1839  1.0828 -1.8616
   85SOL    HW2  339   0.428   0.357   0.788  0.0747  3.0653 -1.3907
   85SOL     MW  340   0.459   0.436   0.764 -0.2859  0.7181 -0.8275
   86SOL     OW  341   1.179   0.241   1.115 -0.2779 -0.2496 -0.2097
   86SOL    HW1  342   1.124   0.308   1.085  1.7905 -1.2745 -1.1979
   86SOL    HW2  343   1.237   0.275   1.184  2.3313 -1.6216 -1.7131
   86SOL     MW  344   1.179   0.254   1.120  0.3392 -0.5659 -0.5384
   87SOL     OW  345   1.250   1.533   1.304 -0.5176  0.4728 -0.1726
   87SOL    HW1  346   1.253   1.585   1.225 -2.8604  1.3852  1.1747
   87SOL    HW2  347   1.243   1.441   1.270 -0.7071  2.6667 -0.2963
   87SOL     MW  348   1.249   1.528   1.289 -0.8517  0.8827 -0.0111
   88SOL     OW  349   1.189   1.076   0.959 -0.1754 -0.0647 -0.5212
   88SOL    HW1  350   1.272   1.033   0.946  1.0615  0.7644  2.1140
   88SOL    HW2  351   1.206   1.133   1.037  1.0585  0.3384  0.7060
   88SOL     MW  352   1.202   1.078   0.967  0.1506  0.0978 -0.0116
   89SOL     OW  353   1.712   0.731   0.358  0.4636 -0.1675 -0.0351
   89SOL    HW1  354   1.741   0.652   0.409  1.3664 -0.9563  0.4010
   89SOL    HW2  355   1.785   0.731   0.291  0.6404  3.3181  0.5598
   89SOL     MW  356   1.726   0.720   0.356  0.6060  0.1883  0.1009
   90SOL     OW  357   0.819   1.064   2.784  0.4384 -0.5451  0.5461
   90SOL    HW1  358   0.894   1.002   2.795 -0.3416  1.0275  0.0438
   90SOL    HW2  359   0.806   1.131   2.847 -0.4363  1.3438 -0.5342
   90SOL     MW  360   0.827   1.065   2.794  0.2201 -0.0884  0.3373
   91SOL     OW  361   2.158   0.684   0.419 -0.5971  0.2004  0.2394
   91SOL    HW1  362   2.246   0.695   0.380  1.0725 -0.0264 -1.0513
   91SOL    HW2  363   2.157   0.591   0.442 -3.3820 -1.0833  0.0426
   91SOL     MW  364   2.170   0.673   0.417 -0.7442  0.0011  0.0431
   92SOL     OW  365   1.737   0.921   0.569  0.0246 -0.1777  0.1931
   92SOL    HW1  366   1.640   0.937   0.589  2.6223  1.0926  0.8578
   92SOL    HW2  367   1.735   0.856   0.497 -2.4850  1.2302  0.3330
   92SOL     MW  368   1.724   0.915   0.562  0.0362  0.1757  0.2993
   93SOL     OW  369   0.973   0.263   0.421 -0.0352 -0.2273  0.3444
   93SOL    HW1  370   0.880   0.278   0.436  0.6802  1.4129 -0.7725
   93SOL    HW2  371   0.993   0.285   0.325  2.1815  0.5745 -0.1079
   93SOL     MW  372   0.964   0.268   0.410  0.3516  0.0949  0.1373
   94SOL     OW  373   1.843   1.379   1.675  0.2449 -0.3434  0.9581
   94SOL    HW1  374   1.876   1.354   1.587  1.0575 -0.1605 -2.9421
   94SOL    HW2  375   1.825   1.303   1.732 -1.2283  1.3150 -0.0553
   94SOL     MW  376   1.845   1.365   1.671  0.1577 -0.1005  0.3098
   95SOL     OW  377   0.797   1.593   0.945  0.0080  0.5406  0.2197
   95SOL    HW1  378   0.837   1.544   1.016 -2.2461 -1.1543  1.8037
   95SOL    HW2  379   0.704   1.569   0.953 -0.3654 -0.6431  1.9136
   95SOL     MW  380   0.790   1.583   0.955 -0.3387  0.1608  0.6522
   96SOL     OW  381   1.227   1.878   1.682  0.8772  0.0041 -0.1592
   96SOL    HW1  382   1.158   1.860   1.743  3.1576 -1.6749 -0.2561
   96SOL    HW2  383   1.258   1.798   1.663 -1.7161  2.7021  0.7705
   96SOL     MW  384   1.222   1.865   1.687  0.8359  0.1386 -0.0493
   97SOL     OW  385   1.220   1.460   0.827 -0.8934  0.0993  0.7374
   97SOL    HW1  386   1.215   1.486   0.918  0.1350  0.4950  0.5680
   97SOL    HW2  387   1.137   1.494   0.778  0.4099  1.0578 -1.5354
   97SOL     MW  388   1.209   1.468   0.832 -0.5858  0.2779  0.4152
   98SOL     OW  389   1.434   1.281   1.045  0.1238  0.0668  0.6575
   98SOL    HW1  390   1.494   1.322   1.109 -0.6375  0.4413 -1.3510
   98SOL    HW2  391   1.425   1.337   0.968 -1.3340  2.4722  0.0406
   98SOL     MW  392   1.440   1.294   1.043 -0.1690  0.4335  0.3111
   99SOL     OW  393   1.361   0.331   1.298  0.8325 -0.4907 -0.5438
   99SOL    HW1  394   1.432   0.377   1.245 -0.6863  0.7025 -1.6743
   99SOL    HW2  395   1.394   0.342   1.386  2.8902 -0.2728 -1.5109
   99SOL     MW  396   1.375   0.338   1.303  0.9036 -0.3045 -0.8205
  100SOL     OW  397   1.039   1.177   1.395  0.6115  0.0029 -0.5214
  100SOL    HW1  398   1.039   1.234   1.474  2.9967  0.5379  0.9776
  100SOL    HW2  399   1.079   1.098   1.434 -0.7082  1.1728  1.0471
  100SOL     MW  400   1.044   1.174   1.411  0.7521  0.2278 -0.1167
  101SOL     OW  401   0.502   1.149   0.348  0.1729  0.6993  0.2763
  101SOL    HW1  402   0.457   1.067   0.325  0.0660  1.3253 -0.4252
  101SOL    HW2  403   0.590   1.127   0.314  2.2244 -2.0390 -1.0638
  101SOL     MW  404   0.508   1.135   0.340  0.4295  0.4206  0.0069
  102SOL     OW  405   2.875   0.670   1.026 -0.2107 -0.2383 -0.4249
  102SOL    HW1  406   2.951   0.720   1.041 -0.5236 -0.9176 -0.7561
  102SOL    HW2  407   2.854   0.630   1.113  1.4793 -3.2444  1.3646
  102SOL     MW  408   2.882   0.671   1.039 -0.0290 -0.7246 -0.2325
  103SOL     OW  409   1.679   0.290   1.869 -0.0826  0.1418 -0.1051
  103SOL    HW1  410   1.629   0.236   1.804  0.9429  2.3126  1.7532
  103SOL    HW2  411   1.726   0.231   1.922 -0.5516  0.1351  3.7693
  103SOL     MW  412   1.679   0.275   1.867 -0.0092  0.4273  0.6513
  104SOL     OW  413   0.141   1.539   1.580  0.1657 -0.7723  1.0699
  104SOL    HW1  414   0.173   1.467   1.626  0.7040  3.3594 -1.5236
  104SOL    HW2  415   0.048   1.544   1.603 -3.0355 -0.7772  1.0886
  104SOL     MW  416   0.133   1.530   1.589 -0.1856 -0.2278  0.7301
  105SOL     OW  417   0.063   1.232   0.418 -0.1188  0.2714 -0.5240
  105SOL    HW1  418   0.086   1.149   0.391 -1.9899  2.8798  0.4580
  105SOL    HW2  419   0.145   1.272   0.440  0.8387 -3.1430 -1.3257
  105SOL     MW  420   0.077   1.226   0.417 -0.2393  0.1650 -0.5002
  106SOL     OW  421   0.847   0.344   0.979 -0.3559 -0.0575  0.2111
  106SOL    HW1  422   0.800   0.422   0.948  1.4486  1.7290  0.0248
  106SOL    HW2  423   0.904   0.319   0.903 -0.3684  0.2213 -0.0669
  106SOL     MW  424   0.848   0.351   0.965 -0.1195  0.2150  0.1498
  107SOL     OW  425   0.792   2.190   2.941 -0.4220  0.1349 -0.6088
  107SOL    HW1  426   0.713   2.158   2.896 -1.2056 -0.3045  2.3489
  107SOL    HW2  427   0.775   2.160   3.032 -1.1811  1.0565 -1.6878
  107SOL     MW  428   0.779   2.182   2.947 -0.6256  0.1985 -0.3609
  108SOL     OW  429   1.332   1.595   1.635 -0.7758  0.5084 -0.0458
  108SOL    HW1  430   1.255   1.559   1.579  1.4127 -1.8502 -0.3293
  108SOL    HW2  431   1.407   1.538   1.614  1.3073 -1.1136 -1.1374
  108SOL     MW  432   1.332   1.583   1.625 -0.2122 -0.0168 -0.2272
  109SOL     OW  433   1.970   0.756   0.242  0.7026  0.2046  1.0009
  109SOL    HW1  434   1.998   0.845   0.255  0.0381 -1.4434 -0.7471
  109SOL    HW2  435   2.034   0.699   0.288 -1.6296  0.1058  2.0947
  109SOL     MW  436   1.982   0.760   0.250  0.3072 -0.0259  0.9146
  110SOL     OW  437   0.356   1.852   0.641  0.2248 -0.8196 -0.0308
  110SOL    HW1  438   0.435   1.795   0.632  0.7761  2.0550  4.4048
  110SOL    HW2  439   0.374   1.916   0.575  1.7090 -0.4162  0.2251
  110SOL     MW  440   0.369   1.853   0.631  0.4934 -0.3871  0.5882
  111SOL     OW  441   0.835   0.891   1.513 -0.4780 -0.4158 -0.4229
  111SOL    HW1  442   0.785   0.906   1.430  0.9316  3.9711 -1.2393
  111SOL    HW2  443   0.834   0.798   1.544 -3.6271  1.4042 -0.3213
  111SOL     MW  444   0.828   0.881   1.506 -0.7075  0.4032 -0.5172
  112SOL     OW  445   1.311   1.113   1.623 -0.4620 -0.0104  0.2238
  112SOL    HW1  446   1.244   1.179   1.650 -0.1359  0.3436  0.4690
  112SOL    HW2  447   1.266   1.028   1.630  1.1584 -0.1549  1.2472
  112SOL     MW  448   1.296   1.111   1.628 -0.2052  0.0172  0.3912
  113SOL     OW  449   1.270   3.094   1.739 -0.2718 -0.4497  0.0551
  113SOL    HW1  450   1.271   3.078   1.832 -1.0974 -0.0227  2.1241
  113SOL    HW2  451   1.281   3.012   1.689  0.4873 -3.0179  2.1421
  113SOL     MW  452   1.271   3.081   1.744 -0.2806 -0.7322  0.6034
  114SOL     OW  453   0.296   2.856   1.927 -0.0225 -0.4869  0.3519
  114SOL    HW1  454   0.371   2.912   1.955 -4.3911  0.7030 -1.1515
  114SOL    HW2  455   0.282   2.878   1.834 -1.9874 -0.1737  0.5202
  114SOL     MW  456   0.304   2.866   1.919 -0.8582 -0.2886  0.1758
  115SOL     OW  457   0.510   0.854   1.129  0.2944 -0.1542 -0.0378
  115SOL    HW1  458   0.519   0.756   1.150  4.3547 -0.7893 -1.1078
  115SOL    HW2  459   0.468   0.901   1.207 -0.4930 -0.6299  0.3934
  115SOL     MW  460   0.506   0.847   1.142  0.7263 -0.3007 -0.1221
  116SOL     OW  461   0.793   1.088   0.980  0.5381 -0.3011 -0.3061
  116SOL    HW1  462   0.855   1.130   0.924 -2.2087 -1.0636  1.6163
  116SOL    HW2  463   0.818   1.117   1.067  0.9097 -0.6107  3.2378
  116SOL     MW  464   0.804   1.098   0.984  0.2247 -0.4426  0.4151
  117SOL     OW  465   1.196   1.209   0.717 -0.4242 -0.2305  0.2924
  117SOL    HW1  466   1.186   1.173   0.807 -2.5131  1.0411 -2.3955
  117SOL    HW2  467   1.214   1.299   0.733 -0.0988 -0.3882  2.6970
  117SOL     MW  468   1.197   1.216   0.731 -0.6569 -0.0835  0.2550
  118SOL     OW  469   3.038   2.978   1.692 -0.1185 -0.1488 -0.5949
  118SOL    HW1  470   3.109   3.033   1.724  1.5635 -0.9978 -2.7961
  118SOL    HW2  471   2.954   3.029   1.713 -3.9955 -1.4711 -0.0688
  118SOL     MW  472   3.037   2.992   1.699 -0.4081 -0.4352 -0.8159
  119SOL     OW  473   0.475   1.469   1.248 -0.1663 -0.5137 -0.6108
  119SOL    HW1  474   0.531   1.497   1.177  0.4577 -0.2289 -1.1182
  119SOL    HW2  475   0.382   1.471   1.223 -0.2661  2.7972  0.4939
  119SOL     MW  476   0.470   1.473   1.236 -0.0971 -0.0393 -0.5320
  120SOL     OW  477   0.283   0.729   0.962  0.7621  0.8985 -0.2510
  120SOL    HW1  478   0.266   0.685   1.046  0.1272  0.5198  0.5252
  120SOL    HW2  479   0.343   0.802   0.984 -1.4703  1.5744  0.6512
  120SOL     MW  480   0.289   0.733   0.976  0.3838  0.9377 -0.0295
  121SOL     OW  481   1.731   1.122   1.753  0.0262  0.2228 -0.5567
  121SOL    HW1  482   1.632   1.108   1.773 -0.5131 -0.7092 -2.4380
  121SOL    HW2  483   1.752   1.063   1.684  1.3271  0.2654  2.6159
  121SOL     MW  484   1.721   1.113   1.747  0.1267  0.1054 -0.3863
  122SOL     OW  485   0.140   0.554   0.800 -0.2756 -0.6481 -0.0931
  122SOL    HW1  486   0.210   0.520   0.744  0.6131  1.6557 -0.8326
  122SOL    HW2  487   0.180   0.624   0.855 -2.0678 -0.0785  1.8188
  122SOL     MW  488   0.154   0.559   0.800 -0.3948 -0.2689  0.0615
  123SOL     OW  489   1.896   1.150   0.509  0.4303 -0.3027 -0.1991
  123SOL    HW1  490   1.837   1.081   0.542  0.5835 -0.9006  0.4040
  123SOL    HW2  491   1.892   1.228   0.559  2.2761 -0.9802  0.7839
  123SOL     MW  492   1.888   1.151   0.520  0.6941 -0.4710  0.0101
  124SOL     OW  493   0.665   0.555   0.934 -0.3063  0.1979  0.3356
  124SOL    HW1  494   0.614   0.514   0.867 -0.0243  0.0744  0.5791
  124SOL    HW2  495   0.655   0.654   0.928 -0.1802  0.8891 -0.0518
  124SOL     MW  496   0.657   0.563   0.925 -0.2525  0.2728  0.3166
  125SOL     OW  497   0.645   1.789   1.742  0.0379 -0.0068 -0.8584
  125SOL    HW1  498   0.580   1.721   1.725  0.6917  0.6113 -1.2821
  125SOL    HW2  499   0.609   1.870   1.718 -0.6738 -4.4152  2.2094
  125SOL     MW  500   0.632   1.791   1.737  0.0302 -0.5069 -0.5095
  126SOL     OW  501   2.077   1.584   1.959  0.3087  0.1721  0.2897
  126SOL    HW1  502   2.146   1.651   1.959  0.2096  0.9259 -1.8922
  126SOL    HW2  503   2.121   1.505   1.988  2.3013 -0.0893 -1.8318
  126SOL     MW  504   2.092   1.582   1.963  0.5585  0.2371 -0.2781
  127SOL     OW  505   0.622   0.792   1.808 -0.2167 -0.0158  0.0994
  127SOL    HW1  506   0.696   0.748   1.845 -0.0611  0.0374 -0.0385
  127SOL    HW2  507   0.612   0.876   1.847 -0.6050  0.2858 -2.2729
  127SOL     MW  508   0.630   0.797   1.818 -0.2474  0.0310 -0.2318
  128SOL     OW  509   1.788   0.732   2.922 -1.0480 -0.2088 -0.0141
  128SOL    HW1  510   1.783   0.718   2.823 -0.1954 -0.4244 -0.4606
  128SOL    HW2  511   1.741   0.812   2.936 -1.1507 -1.3060  0.4086
  128SOL     MW  512   1.781   0.741   2.910 -0.9491 -0.3820 -0.0172
  129SOL     OW  513   1.570   0.932   0.211  0.1344  0.5254 -0.3235
  129SOL    HW1  514   1.529   0.864   0.157  0.3075  1.7310 -3.0450
  129SOL    HW2  515   1.605   0.876   0.278  0.5516  0.2468 -1.3845
  129SOL     MW  516   1.569   0.916   0.213  0.2123  0.6477 -0.8226
  130SOL     OW  517   0.746   1.350   0.315 -0.0109 -0.0476  0.2844
  130SOL    HW1  518   0.753   1.363   0.415  1.7127  0.4304 -0.1387
  130SOL    HW2  519   0.792   1.421   0.273  0.2544  2.7693 -0.4047
  130SOL     MW  520   0.753   1.361   0.322  0.2515  0.3872  0.1377
  131SOL     OW  521   3.033   0.827   0.027 -0.3682  0.1609  0.0461
  131SOL    HW1  522   3.016   0.870  -0.053 -0.7558 -1.0922  0.8171
  131SOL    HW2  523   3.121   0.796   0.014  1.1319  0.7705 -1.8388
  131SOL     MW  524   3.042   0.829   0.015 -0.2214  0.0760 -0.1009
  132SOL     OW  525   2.686   0.122   1.308 -0.2183 -0.2022  0.8539
  132SOL    HW1  526   2.704   0.131   1.207 -0.3027  1.3772 -1.0424
  132SOL    HW2  527   2.592   0.100   1.322 -1.1954 -1.5351  0.9262
  132SOL     MW  528   2.676   0.121   1.297 -0.3583 -0.1697  0.6132
  133SOL     OW  529   1.057   0.162   1.701  0.2481  0.5134  0.1154
  133SOL    HW1  530   1.108   0.084   1.679  0.0998  2.0628 -2.7431
  133SOL    HW2  531   1.051   0.166   1.799 -1.6535  0.9743 -1.9830
  133SOL     MW  532   1.063   0.152   1.711 -0.0223  0.7786 -0.5386
  134SOL     OW  533   1.405   2.528   1.415  0.0380 -0.2517 -0.4419
  134SOL    HW1  534   1.342   2.595   1.383  0.7066 -0.4277  0.6359
  134SOL    HW2  535   1.444   2.554   1.497  2.1752  0.8853 -1.3152
  134SOL     MW  536   1.402   2.540   1.421  0.4082 -0.1249 -0.4149
  135SOL     OW  537   2.998   0.970   2.908 -0.0951  0.0325  0.7170
  135SOL    HW1  538   3.077   1.021   2.894  0.1582  3.9616 -1.8061
  135SOL    HW2  539   2.928   1.035   2.898  0.4095 -0.7418 -1.1515
  135SOL     MW  540   2.999   0.985   2.905  0.0049  0.4488  0.1376
  136SOL     OW  541   0.169   2.010   0.804  0.0951  0.3612  0.1051
  136SOL    HW1  542   0.093   1.966   0.764 -0.4957  1.3142 -3.6117
  136SOL    HW2  543   0.248   1.982   0.752  0.7217 -0.9180 -0.1911
  136SOL     MW  544   0.169   2.001   0.792  0.0998  0.3182 -0.4244
  137SOL     OW  545   0.724   2.043   0.526 -0.4915 -0.2962  0.0888
  137SOL    HW1  546   0.734   2.031   0.623  1.7419 -0.3036  2.6183
  137SOL    HW2  547   0.628   2.054   0.518 -1.3446  1.1147 -2.0601
  137SOL     MW  548   0.713   2.043   0.538 -0.3094 -0.1110  0.1390
  138SOL     OW  549   0.515   0.577   1.176 -0.3176  0.0849  0.2014
  138SOL    HW1  550   0.445   0.512   1.181 -0.2931  2.1626 -2.9414
  138SOL    HW2  551   0.570   0.552   1.101  1.6052  2.5735  1.2541
  138SOL     MW  552   0.513   0.565   1.167 -0.0607  0.6874 -0.0744
  139SOL     OW  553   2.805   0.638   1.281  0.4276 -0.0428 -0.3129
  139SOL    HW1  554   2.824   0.548   1.290  0.3670 -0.5564 -2.3881
  139SOL    HW2  555   2.828   0.680   1.370  2.7900 -1.7600  0.4553
  139SOL     MW  556   2.810   0.632   1.294  0.7313 -0.3371 -0.4854
  140SOL     OW  557   0.922   0.428   2.066  0.4015  0.1706 -0.1902
  140SOL    HW1  558   0.961   0.353   2.022 -1.0142  2.7440  0.1520
  140SOL    HW2  559   0.919   0.405   2.163  0.9968 -4.3456 -0.1385
  140SOL     MW  560   0.927   0.415   2.073  0.2932 -0.0857 -0.1382
  141SOL     OW  561   1.048   0.668   1.768  0.1283 -0.4872  0.1539
  141SOL    HW1  562   1.080   0.584   1.735 -0.5799 -0.4534  0.9335
  141SOL    HW2  563   1.104   0.739   1.735  1.0797  1.4102  0.8915
  141SOL     MW  564   1.060   0.666   1.760  0.1604 -0.2324  0.3541
  142SOL     OW  565   0.935   1.173   0.735  0.1244 -0.1549  0.5151
  142SOL    HW1  566   0.892   1.115   0.668  0.5624  1.9268  1.0569
  142SOL    HW2  567   1.024   1.171   0.704 -1.1239 -2.8287  0.8252
  142SOL     MW  568   0.941   1.165   0.722  0.0175 -0.2331  0.6275
  143SOL     OW  569   1.850   0.759   1.053 -0.2493  0.0002 -0.1987
  143SOL    HW1  570   1.901   0.752   0.970 -0.5931 -2.9041  1.0024
  143SOL    HW2  571   1.761   0.725   1.035 -0.2952  1.2186 -2.5262
  143SOL     MW  572   1.845   0.753   1.039 -0.3007 -0.2223 -0.3473
  144SOL     OW  573   0.284   1.245   1.648  0.3296  0.8073 -0.1103
  144SOL    HW1  574   0.370   1.200   1.642  0.1650  1.5176 -2.8726
  144SOL    HW2  575   0.262   1.251   1.742 -1.1824  1.2834 -0.8499
  144SOL     MW  576   0.292   1.240   1.659  0.1084  0.9638 -0.5723
  145SOL     OW  577   0.225   0.488   1.166  0.1357  0.0114  0.4503
  145SOL    HW1  578   0.249   0.432   1.244  1.6440  1.5739  1.3332
  145SOL    HW2  579   0.158   0.455   1.108 -2.1782 -1.0845 -3.7135
  145SOL     MW  580   0.219   0.476   1.169  0.0294  0.0730  0.0174
  146SOL     OW  581   0.845   1.974   1.384  0.2627  0.3569  0.7103
  146SOL    HW1  582   0.873   1.987   1.294  1.8775  1.0710  1.1999
  146SOL    HW2  583   0.750   1.948   1.377 -1.1572 -0.6063 -3.4135
  146SOL     MW  584   0.836   1.972   1.371  0.2884  0.3240  0.2308
  147SOL     OW  585   0.424   0.454   2.991 -0.6152 -0.1270 -0.0812
  147SOL    HW1  586   0.335   0.422   3.012 -0.1834  0.1185  1.4771
  147SOL    HW2  587   0.413   0.538   2.954  0.0115  0.1040  2.6110
  147SOL     MW  588   0.411   0.461   2.989 -0.4755 -0.0641  0.4796
  148SOL     OW  589   0.133   0.907   1.307 -0.0045  1.0771  0.5710
  148SOL    HW1  590   0.226   0.940   1.292 -2.6028  0.1901 -1.9143
  148SOL    HW2  591   0.120   0.953   1.391 -0.8456 -1.0717 -0.2600
  148SOL     MW  592   0.143   0.917   1.316 -0.4583  0.6766  0.1335
  149SOL     OW  593   1.384   1.177   1.358  0.5607 -0.5382  0.0142
  149SOL    HW1  594   1.394   1.180   1.455  0.5562  2.2571  0.2525
  149SOL    HW2  595   1.453   1.238   1.323  0.2814 -0.4106  0.2471
  149SOL     MW  596   1.395   1.185   1.366  0.5232 -0.1525  0.0764
  150SOL     OW  597   1.776   1.353   0.756 -0.1920  0.1686  0.2700
  150SOL    HW1  598   1.816   1.282   0.806 -2.0268  2.0150  0.3224
  150SOL    HW2  599   1.825   1.429   0.794  1.8132 -2.3015 -1.2755
  150SOL     MW  600   1.787   1.354   0.768 -0.1695  0.0863  0.0730
  151SOL     OW  601   1.649   1.774   0.819  0.2781  0.3258  0.4926
  151SOL    HW1  602   1.662   1.793   0.730  1.7500 -1.4700  2.9398
  151SOL    HW2  603   1.595   1.691   0.830  0.3194 -1.1643  0.7263
  151SOL     MW  604   1.643   1.765   0.809  0.4777 -0.1077  0.8463
  152SOL     OW  605   0.771   1.401   1.522  0.3558  0.5808  0.4748
  152SOL    HW1  606   0.791   1.312   1.550 -3.0576  1.7648  3.0739
  152SOL    HW2  607   0.823   1.451   1.579 -2.0060 -1.8320  1.0835
  152SOL     MW  608   0.780   1.396   1.533 -0.4062  0.4187  0.8981
  153SOL     OW  609   2.608   1.205   0.801  0.1644  0.3518 -0.0183
  153SOL    HW1  610   2.685   1.172   0.740  1.0815 -2.2019  0.0717
  153SOL    HW2  611   2.543   1.144   0.778  0.3405  0.5751 -1.5275
  153SOL     MW  612   2.610   1.193   0.790  0.3086  0.0443 -0.2056
  154SOL     OW  613   0.200   1.787   1.711 -0.7712  0.0446 -0.1146
  154SOL    HW1  614   0.221   1.710   1.652  1.0510 -0.2054 -0.1503
  154SOL    HW2  615   0.201   1.748   1.800  0.0122 -2.3191  0.1169
  154SOL     MW  616   0.203   1.772   1.715 -0.4274 -0.3002 -0.0887
  155SOL     OW  617   1.201   0.679   0.228 -0.2141 -1.0276  0.3757
  155SOL    HW1  618   1.159   0.638   0.305  1.6139  0.5278 -0.3694
  155SOL    HW2  619   1.176   0.771   0.235 -2.1902  0.2952  2.9299
  155SOL     MW  620   1.192   0.686   0.239 -0.2336 -0.6478  0.6144
  156SOL     OW  621   1.489   3.043   1.106  0.3284  0.0448 -0.0068
  156SOL    HW1  622   1.557   3.098   1.148 -1.5344  2.4780  2.0460
  156SOL    HW2  623   1.513   2.955   1.129  0.6618 -1.6195 -1.4462
  156SOL     MW  624   1.501   3.038   1.115  0.1266  0.1462  0.0741
  157SOL     OW  625   1.468   1.182   0.105 -0.0722 -0.2768 -0.2082
  157SOL    HW1  626   1.533   1.105   0.129  2.0257 -2.4021 -0.8316
  157SOL    HW2  627   1.528   1.256   0.098  0.9216 -2.2683  0.3207
  157SOL     MW  628   1.485   1.182   0.107  0.3357 -0.8200 -0.2206
  158SOL     OW  629   0.502   1.642   2.219 -0.5293 -0.4136  0.2461
  158SOL    HW1  630   0.503   1.723   2.170  0.0811 -3.3715 -2.4280
  158SOL    HW2  631   0.425   1.650   2.278  3.8073 -0.1303  0.8461
  158SOL     MW  632   0.492   1.653   2.221  0.1234 -0.7665 -0.0276
  159SOL     OW  633   1.274   1.659   0.457  0.0964  0.5134  0.7469
  159SOL    HW1  634   1.227   1.589   0.408 -1.7268  1.0849 -0.2950
  159SOL    HW2  635   1.196   1.706   0.495  1.0880 -0.2415 -0.7621
  159SOL     MW  636   1.257   1.656   0.455 -0.0133  0.4892  0.4103
  160SOL     OW  637   0.530   1.119   1.638 -0.3064 -0.6785 -0.2144
  160SOL    HW1  638   0.531   1.028   1.612 -0.4789  0.1343 -0.3278
  160SOL    HW2  639   0.624   1.148   1.631 -0.8741 -0.7056 -2.5653
  160SOL     MW  640   0.542   1.111   1.633 -0.4040 -0.5748 -0.5396
  161SOL     OW  641   0.511   2.286   2.565 -0.2060 -0.1343  0.0549
  161SOL    HW1  642   0.430   2.329   2.576 -0.9752 -0.8703 -1.1210
  161SOL    HW2  643   0.502   2.222   2.497 -0.0957 -0.0645 -1.4327
  161SOL     MW  644   0.499   2.283   2.558 -0.2929 -0.2222 -0.2965
  162SOL     OW  645   1.090   1.777   1.896 -0.6261  0.0745  0.5774
  162SOL    HW1  646   1.119   1.852   1.949  1.1972 -1.7775 -0.1109
  162SOL    HW2  647   0.996   1.772   1.892  1.2475 -2.7930 -2.0288
  162SOL     MW  648   1.081   1.786   1.902 -0.1383 -0.5482  0.1427
  163SOL     OW  649   2.095   3.086   0.898  0.3844 -0.2889 -0.4441
  163SOL    HW1  650   2.086   3.160   0.830  0.7470 -0.5366 -2.0588
  163SOL    HW2  651   2.074   3.009   0.840  1.0694  1.0134 -2.6850
  163SOL     MW  652   2.091   3.086   0.882  0.5226 -0.1497 -0.9528
  164SOL     OW  653   0.324   0.204   0.794  0.1161  0.0551 -0.3478
  164SOL    HW1  654   0.244   0.197   0.846 -1.7270 -1.6382 -0.6955
  164SOL    HW2  655   0.328   0.129   0.742  1.5884 -0.3592  0.3465
  164SOL     MW  656   0.314   0.193   0.794  0.0672 -0.2230 -0.3020
  165SOL     OW  657   1.363   1.294   0.354  0.1093  0.4504 -0.0116
  165SOL    HW1  658   1.366   1.227   0.422  0.4505  4.3117 -0.5007
  165SOL    HW2  659   1.393   1.262   0.267  0.2741 -0.4822 -0.9934
  165SOL     MW  660   1.367   1.281   0.351  0.1761  0.8368 -0.2056
  166SOL     OW  661   0.521   1.212   1.004 -0.1378  0.2838 -0.1199
  166SOL    HW1  662   0.509   1.163   1.088 -3.2477 -1.0659  1.9039
  166SOL    HW2  663   0.610   1.187   0.966 -0.2383 -2.5021 -2.0457
  166SOL     MW  664   0.531   1.202   1.011 -0.5614 -0.2619 -0.1070
  167SOL     OW  665   0.781   1.108   0.283  0.5101  0.3697 -0.1684
  167SOL    HW1  666   0.781   1.210   0.284 -1.1340  2.2195  0.2782
  167SOL    HW2  667   0.862   1.105   0.226 -0.2987 -1.5616 -2.3014
  167SOL     MW  668   0.792   1.121   0.276  0.1865  0.3590 -0.3909
  168SOL     OW  669   1.680   1.657   3.045 -0.3193  0.0695 -0.2344
  168SOL    HW1  670   1.602   1.711   3.022  1.1988  1.3543 -3.7316
  168SOL    HW2  671   1.664   1.567   3.024  4.1365  1.4109  1.0616
  168SOL     MW  672   1.668   1.652   3.039  0.4689  0.4160 -0.5248
  169SOL     OW  673   0.414   0.980   1.337 -0.2291  0.4570  0.2377
  169SOL    HW1  674   0.445   0.920   1.406 -1.1315 -1.2799 -2.3352
  169SOL    HW2  675   0.450   1.068   1.355  2.4698 -0.2205  0.3310
  169SOL     MW  676   0.423   0.984   1.349  0.0079  0.1384 -0.0895
  170SOL     OW  677   1.074   1.544   1.529  0.6808  0.4398 -0.2252
  170SOL    HW1  678   1.022   1.627   1.547  2.0295  0.8876  0.5394
  170SOL    HW2  679   1.088   1.545   1.436  0.0385  1.9983 -1.5950
  170SOL     MW  680   1.069   1.555   1.519  0.7740  0.7045 -0.3051
  171SOL     OW  681   0.514   1.435   0.641  0.3840 -0.3295 -0.6905
  171SOL    HW1  682   0.509   1.450   0.735 -1.0392 -0.6194  0.5221
  171SOL    HW2  683   0.508   1.337   0.626  2.3218 -2.5877 -0.8995
  171SOL     MW  684   0.513   1.424   0.652  0.4519 -0.6657 -0.5580
  172SOL     OW  685   0.879   0.319   1.265 -0.2504 -0.4681  0.3772
  172SOL    HW1  686   0.885   0.318   1.172  0.9225 -0.1598  1.1478
  172SOL    HW2  687   0.790   0.343   1.270  0.8182  2.4759  1.0600
  172SOL     MW  688   0.868   0.322   1.254  0.0454 -0.0390  0.5690
  173SOL     OW  689   0.449   1.691   0.359  0.3020  0.0420 -0.3734
  173SOL    HW1  690   0.475   1.615   0.301  0.6234  1.9029 -3.0265
  173SOL    HW2  691   0.484   1.666   0.443 -0.2108  0.6022 -3.2378
  173SOL     MW  692   0.457   1.677   0.362  0.2767  0.3614 -1.1014
  174SOL     OW  693   1.857   0.950   1.550  0.4415 -0.4619 -0.7497
  174SOL    HW1  694   1.820   0.858   1.546 -1.6958 -2.0880  1.1079
  174SOL    HW2  695   1.822   0.992   1.475  0.4767 -1.1922 -0.3224
  174SOL     MW  696   1.847   0.943   1.540  0.1641 -0.7728 -0.4482
  175SOL     OW  697   0.503   1.456   0.229  0.1824  0.2530  0.2183
  175SOL    HW1  698   0.430   1.411   0.197 -1.6527 -1.2471 -1.0362
  175SOL    HW2  699   0.561   1.388   0.246 -1.1761  1.4533 -2.3148
  175SOL     MW  700   0.501   1.441   0.227 -0.2390  0.2134 -0.2814
  176SOL     OW  701   0.220   1.491   1.170  0.1496 -0.2428 -0.0478
  176SOL    HW1  702   0.187   1.421   1.110 -2.7584 -1.9699  0.6780
  176SOL    HW2  703   0.146   1.532   1.216  2.3372 -1.7314 -3.1115
  176SOL     MW  704   0.206   1.487   1.168  0.0545 -0.6671 -0.3563
  177SOL     OW  705   0.668   0.464   1.361  0.0525 -0.6676 -0.7466
  177SOL    HW1  706   0.607   0.497   1.296  1.6416 -3.6249 -0.0458
  177SOL    HW2  707   0.650   0.488   1.451  1.7387  0.2253 -3.9146
  177SOL     MW  708   0.657   0.471   1.365  0.4847 -0.9400 -1.0721
  178SOL     OW  709   3.057   0.576   2.948  0.0126 -0.1385 -0.3808
  178SOL    HW1  710   2.991   0.606   3.014  0.8847 -0.1125  1.2008
  178SOL    HW2  711   3.002   0.568   2.873  0.4132  0.9643  0.5440
  178SOL     MW  712   3.041   0.579   2.946  0.1805  0.0104 -0.0501
  179SOL     OW  713   1.590   1.350   1.304  0.1096  0.8049 -0.0772
  179SOL    HW1  714   1.567   1.373   1.397  1.8484 -1.3825 -0.7712
  179SOL    HW2  715   1.683   1.372   1.297  0.9847  2.0200 -0.0618
  179SOL     MW  716   1.599   1.356   1.315  0.4545  0.6766 -0.1667
  180SOL     OW  717   3.022   0.209   0.427  0.0404  0.5634  0.3464
  180SOL    HW1  718   2.980   0.221   0.342 -2.7869 -0.7031  1.1348
  180SOL    HW2  719   3.081   0.287   0.436  0.0122  1.4078  0.2384
  180SOL     MW  720   3.024   0.221   0.417 -0.3364  0.5077  0.4362
  181SOL     OW  721   1.125   1.332   3.099  0.2888  0.2543  0.0484
  181SOL    HW1  722   1.184   1.401   3.134 -0.9637 -1.6328 -0.3875
  181SOL    HW2  723   1.182   1.272   3.053  0.6655  0.4079 -0.4969
  181SOL     MW  724   1.141   1.333   3.098  0.1732  0.0256 -0.0810
  182SOL     OW  725   0.476   0.846   1.575 -0.1144  0.1747 -0.3817
  182SOL    HW1  726   0.388   0.822   1.619  3.0404  1.9472  1.4275
  182SOL    HW2  727   0.540   0.833   1.648 -1.8406 -0.6531 -0.8376
  182SOL     MW  728   0.473   0.841   1.590  0.0741  0.2994 -0.2031
  183SOL     OW  729   1.601   1.575   1.144  0.0844  0.4676 -0.0507
  183SOL    HW1  730   1.512   1.600   1.172 -0.7200 -1.4408 -0.5021
  183SOL    HW2  731   1.620   1.510   1.207 -0.5604  1.2459 -0.1613
  183SOL     MW  732   1.592   1.570   1.156 -0.1068  0.3185 -0.1248
  184SOL     OW  733   0.837   0.661   1.960 -0.0270  0.3249  0.0879
  184SOL    HW1  734   0.929   0.681   1.935 -1.9924  1.1830 -0.6548
  184SOL    HW2  735   0.849   0.566   1.984  0.8645  1.2174  0.2432
  184SOL     MW  736   0.851   0.651   1.960 -0.1687  0.5558  0.0104
  185SOL     OW  737   1.186   0.961   1.919 -0.2810  0.1106 -0.6000
  185SOL    HW1  738   1.165   0.882   1.977 -0.4726  0.9695 -2.4251
  185SOL    HW2  739   1.203   1.033   1.975 -1.6113 -2.1209  1.0101
  185SOL     MW  740   1.186   0.960   1.934 -0.4818 -0.0705 -0.6284
  186SOL     OW  741   0.363   1.693   1.422  0.0916 -0.7245 -0.1625
  186SOL    HW1  742   0.413   1.651   1.346  0.3072  2.3791 -1.4544
  186SOL    HW2  743   0.289   1.636   1.450 -0.2719  1.4248 -2.7855
  186SOL     MW  744   0.360   1.680   1.416  0.0721 -0.0315 -0.6790
  187SOL     OW  745   1.431   0.702   1.344 -0.4275  0.2634 -0.4992
  187SOL    HW1  746   1.455   0.707   1.437  3.8253 -1.0772 -0.8508
  187SOL    HW2  747   1.336   0.697   1.329  1.6543  1.0150  0.9325
  187SOL     MW  748   1.422   0.702   1.354  0.4083  0.1857 -0.3567
  188SOL     OW  749   1.889   1.153   0.920 -0.4327  0.5945 -0.7421
  188SOL    HW1  750   1.923   1.151   1.011  0.2890 -1.7957 -1.3279
  188SOL    HW2  751   1.920   1.077   0.866  1.5573  0.5926  0.9130
  188SOL     MW  752   1.898   1.143   0.925 -0.0749  0.2789 -0.6010
  189SOL     OW  753   0.652   0.838   0.846 -0.4051  0.2811  0.4347
  189SOL    HW1  754   0.576   0.897   0.831  3.1678 -0.5714 -3.0250
  189SOL    HW2  755   0.714   0.898   0.893  2.0183  0.3685  0.5678
  189SOL     MW  756   0.650   0.854   0.850  0.3861  0.1801 -0.0042
  190SOL     OW  757   1.924   0.237   2.177 -0.1875  0.2625  0.2341
  190SOL    HW1  758   1.939   0.244   2.271 -1.0121 -1.6080 -0.5840
  190SOL    HW2  759   1.998   0.284   2.128  2.3246  2.1013  2.0760
  190SOL     MW  760   1.936   0.244   2.183  0.0352  0.2583  0.3692
  191SOL     OW  761   1.477   0.963   1.225  0.2882  0.1981 -0.1188
  191SOL    HW1  762   1.448   1.031   1.285  0.1369 -0.4507 -2.7532
  191SOL    HW2  763   1.445   0.881   1.263 -0.7125 -0.0779 -1.0127
  191SOL     MW  764   1.469   0.961   1.238  0.1362  0.0761 -0.5843
  192SOL     OW  765   0.611   2.114   2.764  0.3194 -0.3953  0.0858
  192SOL    HW1  766   0.543   2.144   2.698 -1.9847 -0.5982 -1.8792
  192SOL    HW2  767   0.609   2.024   2.783  0.7701  0.6926  3.6297
  192SOL     MW  768   0.601   2.106   2.758  0.0748 -0.2786  0.2941
  193SOL     OW  769   0.984   1.527   0.726 -0.6037 -0.5941  0.0826
  193SOL    HW1  770   0.940   1.570   0.801  2.7515  0.8067 -2.3213
  193SOL    HW2  771   0.909   1.475   0.677 -0.0610 -2.3780 -1.7790
  193SOL     MW  772   0.968   1.526   0.729 -0.0894 -0.6446 -0.4802
  194SOL     OW  773   0.532   1.474   0.918  0.2428  0.4511  0.6080
  194SOL    HW1  774   0.524   1.387   0.959  0.2280 -0.2102  1.2530
  194SOL    HW2  775   0.442   1.509   0.925 -0.8539  1.8959 -0.0547
  194SOL     MW  776   0.519   1.467   0.924  0.0962  0.5545  0.6057
  195SOL     OW  777   1.311   1.165   2.992 -0.4632  0.3177 -0.1233
  195SOL    HW1  778   1.369   1.159   3.067  0.3622 -2.9137 -2.2404
  195SOL    HW2  779   1.281   1.076   2.990  0.3212 -1.2285  1.6647
  195SOL     MW  780   1.315   1.152   3.001 -0.2508 -0.3126 -0.1667
  196SOL     OW  781   2.184   1.016   0.614 -0.3643 -1.0583 -0.3777
  196SOL    HW1  782   2.184   0.996   0.522  0.2555  2.4857  2.5138
  196SOL    HW2  783   2.169   1.113   0.617  0.0923  1.9294 -0.0818
  196SOL     MW  784   2.182   1.026   0.602 -0.2223 -0.1965  0.0428
  197SOL     OW  785   0.644   1.300   2.117  0.2861  0.5162 -0.2092
  197SOL    HW1  786   0.647   1.206   2.084  0.6474  1.5383  3.2019
  197SOL    HW2  787   0.608   1.359   2.044  2.7272  1.3981 -1.1183
  197SOL     MW  788   0.639   1.295   2.103  0.6558  0.7674  0.1209
  198SOL     OW  789   2.933   1.388   1.072 -0.0124 -0.2333 -0.4348
  198SOL    HW1  790   2.906   1.439   0.996  1.2845 -0.7134 -1.5004
  198SOL    HW2  791   2.863   1.329   1.081 -0.5272  0.9283 -0.8087
  198SOL     MW  792   2.920   1.387   1.063  0.0908 -0.1434 -0.6247
  199SOL     OW  793   0.494   1.414   1.885  0.0871 -0.2861  0.3709
  199SOL    HW1  794   0.434   1.341   1.876 -3.4561  0.5111 -2.2897
  199SOL    HW2  795   0.503   1.441   1.794 -3.7422  2.1153 -1.7620
  199SOL     MW  796   0.487   1.408   1.872 -0.8857  0.1359 -0.2616
  200SOL     OW  797   1.901   2.940   1.344  0.3601 -0.7785  0.8057
  200SOL    HW1  798   1.933   2.948   1.255 -1.4998  2.0715 -1.0009
  200SOL    HW2  799   1.825   3.000   1.340 -2.8852 -0.3254 -0.9340
  200SOL     MW  800   1.895   2.949   1.332 -0.3134 -0.3427  0.3378
  201SOL     OW  801   1.040   0.260   0.813 -0.1277  0.5754 -0.3719
  201SOL    HW1  802   1.041   0.185   0.754 -0.4487  0.0103  1.4773
  201SOL    HW2  803   1.108   0.312   0.783 -1.9813  3.2394  0.3609
  201SOL     MW  804   1.049   0.257   0.801 -0.4146  0.8523 -0.0312
  202SOL     OW  805   1.511   1.542   0.882  0.4557  0.2353  0.5958
  202SOL    HW1  806   1.537   1.477   0.819  1.1515 -0.7072  0.1781
  202SOL    HW2  807   1.568   1.538   0.961 -0.9734  0.4572  1.7878
  202SOL     MW  808   1.522   1.533   0.884  0.3589  0.1402  0.6980
  203SOL     OW  809   3.021   0.417   1.335 -0.9050  0.5298  0.5972
  203SOL    HW1  810   3.099   0.349   1.333  1.9493  0.4276  2.6286
  203SOL    HW2  811   3.074   0.494   1.362 -1.7253  0.0128  1.6215
  203SOL     MW  812   3.038   0.418   1.338 -0.6366  0.4481  1.0004
  204SOL     OW  813   1.036   1.753   0.560 -0.4336  0.4619 -0.0143
  204SOL    HW1  814   1.016   1.677   0.608  1.3611  0.7529  0.9679
  204SOL    HW2  815   0.955   1.783   0.518  1.0473 -0.4691 -1.6331
  204SOL     MW  816   1.023   1.747   0.561 -0.0014  0.3775 -0.0983
  205SOL     OW  817   1.389   0.024   1.345  0.0713  0.2709 -1.1731
  205SOL    HW1  818   1.409  -0.018   1.262  1.0752  0.8995 -1.0589
  205SOL    HW2  819   1.329   0.097   1.330 -1.2333  0.1174  0.9912
  205SOL     MW  820   1.383   0.028   1.332  0.0317  0.3336 -0.8725
  206SOL     OW  821   0.443   3.015   1.424  0.5375  0.1635 -0.4115
  206SOL    HW1  822   0.392   2.991   1.341  1.6148  2.0216 -0.0423
  206SOL    HW2  823   0.502   2.942   1.446  3.0485  1.2074 -0.2144
  206SOL     MW  824   0.444   3.002   1.416  1.0109  0.5464 -0.3368
  207SOL     OW  825   0.907   1.555   0.210  0.1911 -0.0546  0.4366
  207SOL    HW1  826   0.928   1.649   0.208 -0.1720 -0.5744 -6.1495
  207SOL    HW2  827   0.980   1.510   0.256 -2.0975  0.7784  0.5454
  207SOL     MW  828   0.919   1.561   0.215 -0.1588 -0.0133 -0.4180
  208SOL     OW  829   0.739   1.608   1.352  0.3081 -0.2100 -0.2609
  208SOL    HW1  830   0.788   1.650   1.422  0.5907 -1.5965 -0.3938
  208SOL    HW2  831   0.747   1.512   1.355  2.6847 -1.8272 -0.8704
  208SOL     MW  832   0.747   1.601   1.361  0.6590 -0.6063 -0.3588
  209SOL     OW  833   1.560   0.467   2.962  0.1936 -0.4985 -0.7668
  209SOL    HW1  834   1.557   0.561   2.955  0.1353 -1.9758  0.8732
  209SOL    HW2  835   1.638   0.433   2.908  1.0016 -3.1117 -1.0374
  209SOL     MW  836   1.570   0.475   2.954  0.2925 -1.0382 -0.5861
  210SOL     OW  837   1.521   1.276   0.779 -0.3626 -0.5389  0.1208
  210SOL    HW1  838   1.614   1.289   0.769 -1.5422  1.8063  0.0831
  210SOL    HW2  839   1.477   1.320   0.701  2.3455  1.2686 -0.9493
  210SOL     MW  840   1.527   1.283   0.767 -0.1609  0.0090 -0.0254
  211SOL     OW  841   1.722   0.255   0.950  0.2270 -0.7909  0.6488
  211SOL    HW1  842   1.709   0.302   0.868 -1.1569 -1.7719  1.1708
  211SOL    HW2  843   1.803   0.290   0.992  1.9807  0.6232 -1.2326
  211SOL     MW  844   1.731   0.266   0.945  0.2758 -0.7337  0.4695
  212SOL     OW  845   0.295   1.024   0.150 -0.1609  0.5316  0.0139
  212SOL    HW1  846   0.213   1.016   0.198 -0.9200 -2.6229  0.3145
  212SOL    HW2  847   0.314   0.935   0.133 -0.4908  2.0055 -1.2173
  212SOL     MW  848   0.287   1.011   0.154 -0.3046  0.3099 -0.1089
  213SOL     OW  849   0.548   1.700   3.045 -0.3264  0.4854 -0.9788
  213SOL    HW1  850   0.538   1.783   3.096  1.0707  2.3396  0.4006
  213SOL    HW2  851   0.561   1.743   2.959  0.8574  1.8975  1.2502
  213SOL     MW  852   0.549   1.717   3.040  0.0141  0.9163 -0.5027
  214SOL     OW  853   0.650   0.339   2.153  0.3541  0.8169 -0.0266
  214SOL    HW1  854   0.567   0.391   2.171  1.9027  0.2356 -2.3597
  214SOL    HW2  855   0.661   0.374   2.065 -2.5023 -1.7288  1.0567
  214SOL     MW  856   0.641   0.350   2.144  0.1816  0.4043 -0.1915
  215SOL     OW  857   0.500   0.733   2.650 -0.3601  0.1402  0.2748
  215SOL    HW1  858   0.499   0.722   2.548 -0.9704  1.2232 -4.1773
  215SOL    HW2  859   0.430   0.671   2.684 -1.1081  1.5343  4.0625
  215SOL     MW  860   0.490   0.723   2.641 -0.5394  0.4670  0.1871
  216SOL     OW  861   2.916   3.018   2.676  0.2773  0.1694  0.9037
  216SOL    HW1  862   2.856   3.041   2.743  0.6623  0.3111  1.8487
  216SOL    HW2  863   2.987   3.078   2.698  2.8080  1.2101 -2.9951
  216SOL     MW  864   2.918   3.029   2.687  0.6620  0.3254  0.5140
  217SOL     OW  865   1.033   1.078   0.137  0.2723  0.4338  0.1115
  217SOL    HW1  866   1.061   1.038   0.056 -0.7230 -0.7760 -1.7153
  217SOL    HW2  867   1.070   1.166   0.121  1.9210 -0.6502 -1.2941
  217SOL     MW  868   1.042   1.085   0.124  0.3585  0.1311 -0.3150
  218SOL     OW  869   0.924   1.309   2.554 -0.4185  0.1203 -0.0107
  218SOL    HW1  870   0.974   1.231   2.568  1.3200  0.7027  2.6620
  218SOL    HW2  871   0.988   1.379   2.577 -0.6863  0.4491 -2.0056
  218SOL     MW  872   0.939   1.308   2.559 -0.2244  0.2405  0.0787
  219SOL     OW  873   1.135   0.377   2.650 -0.0899 -0.5256 -0.5826
  219SOL    HW1  874   1.205   0.437   2.663 -0.8892 -0.9835  2.1198
  219SOL    HW2  875   1.059   0.425   2.617 -0.1905 -1.1294  3.3174
  219SOL     MW  876   1.135   0.391   2.647 -0.2087 -0.6657  0.2885
  220SOL     OW  877   1.765   0.453   2.205 -0.2236 -0.5881 -0.1011
  220SOL    HW1  878   1.696   0.458   2.134 -2.4291  0.1072 -1.8676
  220SOL    HW2  879   1.815   0.375   2.186  0.1278  1.7226 -1.1998
  220SOL     MW  880   1.763   0.443   2.193 -0.4683 -0.1915 -0.4792
  221SOL     OW  881   0.373   1.309   2.959 -0.2266 -0.3038 -0.5579
  221SOL    HW1  882   0.444   1.260   2.916 -0.9241 -0.7540  0.0047
  221SOL    HW2  883   0.366   1.384   2.901 -1.3669  3.0468  2.5029
  221SOL     MW  884   0.381   1.312   2.946 -0.4691  0.0789 -0.0798
  222SOL     OW  885   0.370   0.979   2.682  1.2745  0.0489  0.1920
  222SOL    HW1  886   0.329   1.019   2.603 -2.9361 -1.6259  1.7647
  222SOL    HW2  887   0.407   0.891   2.667  2.4618 -0.4849  0.3921
  222SOL     MW  888   0.370   0.972   2.670  0.8756 -0.2425  0.4259
  223SOL     OW  889   0.054   2.026   2.518  0.6018  0.3128  0.0763
  223SOL    HW1  890   0.109   1.979   2.580  0.6521 -1.7482 -1.2932
  223SOL    HW2  891   0.078   2.118   2.535  1.9653 -0.4578 -1.3475
  223SOL     MW  892   0.064   2.032   2.529  0.7884 -0.0608 -0.2922
  224SOL     OW  893   1.543   0.745   2.597  0.7810  0.4978  0.1460
  224SOL    HW1  894   1.538   0.793   2.679 -1.2869 -2.4104 -0.7000
  224SOL    HW2  895   1.556   0.812   2.535  1.8193 -0.2821 -0.8204
  224SOL     MW  896   1.544   0.760   2.600  0.6451  0.0112 -0.0931
  225SOL     OW  897   2.891   1.437   2.308 -0.0380  0.4691  0.3878
  225SOL    HW1  898   2.950   1.504   2.279  0.3862  2.6445 -1.1993
  225SOL    HW2  899   2.824   1.478   2.364  0.9701  0.8696 -1.3972
  225SOL     MW  900   2.890   1.452   2.311  0.1510  0.8089 -0.0571
  226SOL     OW  901   0.457   1.506   2.720 -0.2029 -0.1089  0.0335
  226SOL    HW1  902   0.541   1.491   2.675  1.2740  1.4398 -1.6879
  226SOL    HW2  903   0.450   1.602   2.710 -1.5273 -2.1611 -0.5350
  226SOL     MW  904   0.467   1.516   2.713 -0.1828 -0.1754 -0.2686
  227SOL     OW  905   0.542   1.115   2.837 -0.2742  0.0323  0.2698
  227SOL    HW1  906   0.629   1.082   2.818 -2.0940 -2.9998  0.8866
  227SOL    HW2  907   0.485   1.097   2.763  1.6341 -1.1118  0.5434
  227SOL     MW  908   0.546   1.108   2.825 -0.2625 -0.5187  0.3873
  228SOL     OW  909   0.737   1.017   2.037 -0.4715  1.2049  0.0303
  228SOL    HW1  910   0.814   1.056   1.993  0.7278  0.1225 -1.7224
  228SOL    HW2  911   0.770   0.936   2.077 -0.8129  1.7780 -0.1152
  228SOL     MW  912   0.752   1.011   2.036 -0.3583  1.1377 -0.2201
  229SOL     OW  913   0.184   0.629   3.099 -0.0166  0.3242  0.5338
  229SOL    HW1  914   0.125   0.605   3.024  1.8831  1.4955  0.4212
  229SOL    HW2  915   0.193   0.551   3.157  2.3322  1.4808 -0.5513
  229SOL     MW  916   0.177   0.615   3.097  0.5439  0.6313  0.3758
  230SOL     OW  917   1.680   1.304   2.009  0.3441  0.0307 -0.3922
  230SOL    HW1  918   1.620   1.290   2.085 -0.0318 -1.3622  0.3330
  230SOL    HW2  919   1.716   1.219   1.997 -2.4223 -1.3540 -0.9816
  230SOL     MW  920   1.677   1.291   2.018 -0.0705 -0.3358 -0.3743
  231SOL     OW  921   2.717   1.242   2.194 -0.1656 -0.2628 -0.1169
  231SOL    HW1  922   2.788   1.310   2.194  3.9458  3.7509 -0.3911
  231SOL    HW2  923   2.647   1.271   2.129  1.4118  0.2127 -1.9636
  231SOL     MW  924   2.717   1.254   2.186  0.5850  0.3295 -0.3967
  232SOL     OW  925   2.215   0.872   2.006  0.3437  0.2574 -0.4132
  232SOL    HW1  926   2.136   0.891   1.954 -0.9882  0.2343  0.6843
  232SOL    HW2  927   2.192   0.902   2.099  2.2429  0.7601  1.0771
  232SOL     MW  928   2.202   0.879   2.011  0.4186  0.3207 -0.0718
  233SOL     OW  929   2.059   0.445   2.068  0.5774  0.2490  0.2141
  233SOL    HW1  930   2.136   0.395   2.035 -3.0980 -0.8044  0.0863
  233SOL    HW2  931   2.077   0.509   2.142  0.0540  1.1035  0.3637
  233SOL     MW  932   2.072   0.447   2.073  0.0234  0.2228  0.2170
  234SOL     OW  933   0.229   1.059   2.474 -0.2236  0.4232  0.4338
  234SOL    HW1  934   0.135   1.053   2.468  0.4950 -1.6724 -0.6228
  234SOL    HW2  935   0.251   1.149   2.495  1.1622  0.5134 -1.0907
  234SOL     MW  936   0.219   1.070   2.476  0.0540  0.1586  0.0933
  235SOL     OW  937   1.123   3.061   2.747  0.3691  0.1892  1.1101
  235SOL    HW1  938   1.150   3.016   2.828  0.1102  0.8707  0.1402
  235SOL    HW2  939   1.092   3.145   2.780  2.6252  0.1328  0.5550
  235SOL     MW  940   1.123   3.066   2.762  0.6326  0.2717  0.9089
  236SOL     OW  941   2.921   0.599   0.140 -0.4451  0.9802 -0.0450
  236SOL    HW1  942   2.845   0.656   0.123 -0.8143  1.2786 -2.9847
  236SOL    HW2  943   2.988   0.661   0.123 -0.9841  3.3631 -0.3748
  236SOL     MW  944   2.920   0.615   0.136 -0.5649  1.3340 -0.4764
  237SOL     OW  945   2.014   1.119   2.180  0.5369  0.4373  0.3356
  237SOL    HW1  946   1.958   1.083   2.112 -1.4928 -0.0051  2.5553
  237SOL    HW2  947   2.055   1.035   2.223 -0.3002 -1.0081  2.1074
  237SOL     MW  948   2.012   1.103   2.177  0.1586  0.1882  0.8622
  238SOL     OW  949   1.078   1.827   2.942  0.1357 -0.1527 -0.2020
  238SOL    HW1  950   1.044   1.735   2.943  0.5612  0.9081  1.5842
  238SOL    HW2  951   1.175   1.815   2.954 -1.2592 -2.9519 -1.9435
  238SOL     MW  952   1.086   1.813   2.943  0.0078 -0.3820 -0.1961
  239SOL     OW  953   1.305   1.405   2.365  0.1235  0.6140  0.1432
  239SOL    HW1  954   1.277   1.457   2.438 -2.7537  1.7117 -3.2504
  239SOL    HW2  955   1.320   1.311   2.392  3.0599 -2.6201 -0.3779
  239SOL     MW  956   1.304   1.399   2.378  0.1313  0.3321 -0.3733
  240SOL     OW  957   0.668   0.874   2.321 -0.4190  0.3196 -0.2448
  240SOL    HW1  958   0.710   0.942   2.374  0.3070  0.7843  3.9172
  240SOL    HW2  959   0.749   0.833   2.292 -0.3722  1.8807  2.1246
  240SOL     MW  960   0.684   0.877   2.325 -0.3170  0.5869  0.6169
  241SOL     OW  961   0.675   0.397   0.007 -0.0300 -0.2819 -0.3621
  241SOL    HW1  962   0.679   0.463   0.076 -0.9763 -0.1141 -1.5636
  241SOL    HW2  963   0.592   0.409  -0.036 -0.0266 -1.0035  3.7121
  241SOL     MW  964   0.665   0.407   0.010 -0.1544 -0.3550  0.0169
  242SOL     OW  965   1.499   1.723   2.326 -0.0886  0.2337  0.0900
  242SOL    HW1  966   1.463   1.812   2.343 -0.8133  0.1705 -0.6596
  242SOL    HW2  967   1.442   1.665   2.267  0.8566 -1.8585 -0.1892
  242SOL     MW  968   1.486   1.727   2.321 -0.0595 -0.0507 -0.0457
  243SOL     OW  969   1.038   0.176   2.475  0.1958 -0.2538 -0.4082
  243SOL    HW1  970   1.105   0.163   2.409 -2.8066  0.6149 -0.9568
  243SOL    HW2  971   1.075   0.225   2.548 -0.7884  1.2696 -0.3707
  243SOL     MW  972   1.052   0.181   2.476 -0.3302  0.0618 -0.4756
  244SOL     OW  973   0.238   0.787   2.391 -0.0275  0.6306 -0.6907
  244SOL    HW1  974   0.243   0.883   2.392 -1.9206 -0.2724  0.3316
  244SOL    HW2  975   0.331   0.762   2.389 -0.3223  0.3839 -0.0958
  244SOL     MW  976   0.251   0.797   2.391 -0.3162  0.4789 -0.4773
  245SOL     OW  977   1.250   0.193   2.312 -0.8566 -0.3907 -0.5966
  245SOL    HW1  978   1.317   0.123   2.327 -2.5606 -1.2198  0.2187
  245SOL    HW2  979   1.289   0.264   2.367  0.5976  2.1936  0.2812
  245SOL     MW  980   1.264   0.193   2.322 -0.8895 -0.1591 -0.3732
  246SOL     OW  981   1.255   1.158   2.093 -0.6096 -0.2237 -0.1460
  246SOL    HW1  982   1.205   1.107   2.163 -1.2561 -0.1872  0.4355
  246SOL    HW2  983   1.346   1.177   2.124  3.5688 -0.3058  0.1690
  246SOL     MW  984   1.261   1.153   2.106 -0.1436 -0.2297 -0.0277
  247SOL     OW  985   0.746   0.588   0.212  0.5331 -0.0876 -0.0337
  247SOL    HW1  986   0.704   0.670   0.184  0.1548 -3.4669 -2.1294
  247SOL    HW2  987   0.829   0.574   0.156  0.4454 -0.8289  1.1135
  247SOL     MW  988   0.752   0.597   0.201  0.4716 -0.6313 -0.1588
  248SOL     OW  989   0.305   1.311   2.569  0.2152 -0.4674  0.7347
  248SOL    HW1  990   0.351   1.317   2.486 -1.1784  0.6091  1.0086
  248SOL    HW2  991   0.361   1.356   2.635 -1.6102 -2.6553  1.2180
  248SOL     MW  992   0.318   1.318   2.567 -0.2095 -0.6140  0.8346
  249SOL     OW  993   0.170   1.878   2.720  0.2202  0.3866 -0.0998
  249SOL    HW1  994   0.129   1.795   2.677 -0.6283 -0.5930  1.2282
  249SOL    HW2  995   0.189   1.844   2.807 -1.6243 -0.7162 -2.2436
  249SOL     MW  996   0.167   1.863   2.726 -0.1351  0.1119 -0.2075
  250SOL     OW  997   2.193   0.941   2.283 -0.2664 -0.4368  0.6487
  250SOL    HW1  998   2.226   0.851   2.281 -2.0668  2.3343 -0.9932
  250SOL    HW2  999   2.281   0.982   2.293  0.3457 -2.7699 -0.6904
  250SOL     MW 1000   2.209   0.935   2.284 -0.4232 -0.3790  0.2554
  251SOL     OW 1001   0.169   0.928   1.966  0.4394  0.0578 -0.3122
  251SOL    HW1 1002   0.132   0.847   1.998  3.2267  2.3695 -0.3122
  251SOL    HW2 1003   0.151   0.928   1.869 -1.3295  0.6542 -3.2478
  251SOL     MW 1004   0.162   0.917   1.958  0.5738  0.4415 -0.6995
  252SOL     OW 1005   1.739   1.018   2.871 -0.1303  0.2673  0.8377
  252SOL    HW1 1006   1.769   1.047   2.962  0.8631  1.0601  1.5605
  252SOL    HW2 1007   1.818   1.038   2.817  0.4128  2.4244  1.1133
  252SOL     MW 1008   1.754   1.025   2.876  0.0724  0.6565  0.9694
  253SOL     OW 1009   1.183   1.786   2.555 -0.4538  0.1266 -0.0933
  253SOL    HW1 1010   1.170   1.778   2.454  0.2783 -0.5572  0.5332
  253SOL    HW2 1011   1.118   1.849   2.586  0.9136 -0.0085  0.5333
  253SOL     MW 1012   1.173   1.793   2.546 -0.1768  0.0186  0.0720
  254SOL     OW 1013   1.065   1.029   2.244  0.1298  0.4570 -0.1816
  254SOL    HW1 1014   1.006   0.972   2.193  0.4170 -0.4050  0.3092
  254SOL    HW2 1015   1.006   1.111   2.261 -3.1450  1.3087  0.6282
  254SOL     MW 1016   1.050   1.032   2.239 -0.2644  0.4557 -0.0100
  255SOL     OW 1017   0.800   2.562   2.122  0.6226 -0.4524  0.4578
  255SOL    HW1 1018   0.712   2.524   2.129  0.6465  0.9602 -2.1224
  255SOL    HW2 1019   0.862   2.489   2.126 -0.2110  0.3431 -0.3711
  255SOL     MW 1020   0.797   2.547   2.124  0.5158 -0.1610  0.0080
  256SOL     OW 1021   1.359   2.695   2.949 -0.0704  0.4174 -0.4352
  256SOL    HW1 1022   1.331   2.618   2.906 -2.3982  0.1510 -1.0831
  256SOL    HW2 1023   1.423   2.733   2.892  0.2449  1.8479  1.4710
  256SOL     MW 1024   1.363   2.690   2.936 -0.3360  0.5710 -0.2692
  257SOL     OW 1025   0.188   1.905   0.041  0.2168  0.4394 -0.3235
  257SOL    HW1 1026   0.215   1.867   0.122 -0.6078  2.9866 -1.0288
  257SOL    HW2 1027   0.218   1.838  -0.021  0.3993 -1.2604  0.4899
  257SOL     MW 1028   0.195   1.891   0.044  0.1320  0.5512 -0.3093
  258SOL     OW 1029   0.822   1.048   2.473  0.1720  0.6252 -0.0632
  258SOL    HW1 1030   0.812   1.131   2.425 -2.4907 -2.7856  2.3731
  258SOL    HW2 1031   0.805   1.077   2.564 -2.5895  0.3029  1.6757
  258SOL     MW 1032   0.818   1.062   2.479 -0.5437  0.1326  0.4877
  259SOL     OW 1033   0.858   0.378   2.332  0.2310 -0.3923 -0.4768
  259SOL    HW1 1034   0.779   0.396   2.281  1.1557  3.6002  0.8181
  259SOL    HW2 1035   0.851   0.290   2.371  3.4264  0.1735 -0.5993
  259SOL     MW 1036   0.847   0.369   2.330  0.7746  0.2091 -0.3221
  260SOL     OW 1037   0.519   0.117   1.587  0.7299 -0.4964  0.2327
  260SOL    HW1 1038   0.492   0.066   1.506  0.0118 -1.0965 -0.5122
  260SOL    HW2 1039   0.618   0.101   1.587 -0.4978 -0.2701  0.0383
  260SOL     MW 1040   0.529   0.108   1.576  0.4732 -0.5457  0.1088
  261SOL     OW 1041   1.152   0.721   2.038  0.2240 -0.1131  0.2635
  261SOL    HW1 1042   1.157   0.714   2.130 -0.8051  0.5719  1.2239
  261SOL    HW2 1043   1.225   0.663   2.002  1.2013  0.9132 -1.5567
  261SOL     MW 1044   1.162   0.713   2.045  0.2172  0.1127  0.1500
  262SOL     OW 1045   1.031   0.300   0.164 -0.2783 -0.3623  0.1697
  262SOL    HW1 1046   1.124   0.273   0.160  1.3714  0.9175  1.2378
  262SOL    HW2 1047   0.990   0.230   0.111  3.0182  0.3816 -0.1798
  262SOL     MW 1048   1.038   0.287   0.156  0.3743 -0.0953  0.2645
  263SOL     OW 1049   0.401   0.016   2.443  0.2750  0.3928  0.1197
  263SOL    HW1 1050   0.320   0.070   2.427 -0.5971  0.2064  0.4128
  263SOL    HW2 1051   0.456   0.043   2.368 -0.5652 -0.7565 -1.2481
  263SOL     MW 1052   0.398   0.027   2.431  0.0491  0.2166 -0.0221
  264SOL     OW 1053   1.463   1.359   1.837  0.4642 -0.3112 -0.2556
  264SOL    HW1 1054   1.445   1.264   1.834 -0.9614 -0.7087 -1.3612
  264SOL    HW2 1055   1.550   1.370   1.882 -1.3833 -0.5649  0.5483
  264SOL     MW 1056   1.472   1.348   1.843  0.0323 -0.3971 -0.2954
  265SOL     OW 1057   0.750   2.812   2.256 -0.1475 -0.1664 -0.7026
  265SOL    HW1 1058   0.776   2.736   2.202 -1.1269 -2.7522  1.0804
  265SOL    HW2 1059   0.734   2.775   2.342  0.7521  0.4076  1.9300
  265SOL     MW 1060   0.751   2.797   2.261 -0.1580 -0.4318 -0.1200
  266SOL     OW 1061   0.885   0.762   2.221 -1.0541 -0.0694 -0.2474
  266SOL    HW1 1062   0.861   0.715   2.145  0.3039  0.4200 -0.4251
  266SOL    HW2 1063   0.975   0.733   2.244 -2.0575 -0.7437  3.2172
  266SOL     MW 1064   0.894   0.752   2.214 -1.0074 -0.0938  0.1863
  267SOL     OW 1065   1.420   1.776   2.699  0.0351 -0.1149 -0.0721
  267SOL    HW1 1066   1.449   1.698   2.652  1.6266 -2.9027  1.6288
  267SOL    HW2 1067   1.350   1.802   2.632 -2.8696 -2.2897 -2.0221
  267SOL     MW 1068   1.414   1.769   2.684 -0.1382 -0.7697 -0.1050
  268SOL     OW 1069   0.191   0.829   1.658  0.1411  0.3387 -0.1713
  268SOL    HW1 1070   0.154   0.902   1.613  0.7051 -1.1638  1.4531
  268SOL    HW2 1071   0.126   0.765   1.626 -1.1665  0.1692 -0.5706
  268SOL     MW 1072   0.177   0.830   1.648  0.0430  0.1181 -0.0097
  269SOL     OW 1073   1.402   1.986   2.379  0.1928  0.3368 -0.6438
  269SOL    HW1 1074   1.449   2.064   2.358 -2.3018  1.5192 -0.0069
  269SOL    HW2 1075   1.316   2.028   2.412 -3.6704 -1.3314  2.5703
  269SOL     MW 1076   1.397   2.002   2.380 -0.6461  0.2727 -0.1357
  270SOL     OW 1077   1.115   0.414   1.616 -0.2145 -0.3163  0.0817
  270SOL    HW1 1078   1.086   0.320   1.634  2.3815 -1.7536  1.0303
  270SOL    HW2 1079   1.206   0.403   1.605 -1.0891  0.8170  0.5819
  270SOL     MW 1080   1.123   0.400   1.617  0.0126 -0.3564  0.2728
  271SOL     OW 1081   0.853   0.006   2.588  0.1047  0.1220  0.3139
  271SOL    HW1 1082   0.892  -0.061   2.642 -2.2591  1.2436  0.7804
  271SOL    HW2 1083   0.924   0.064   2.555 -2.2258 -2.0514 -0.1260
  271SOL     MW 1084   0.867   0.005   2.591 -0.5147 -0.0168  0.3174
  272SOL     OW 1085   1.507   2.835   2.764  0.5165 -0.2942  0.4141
  272SOL    HW1 1086   1.453   2.855   2.690 -1.2837 -1.5965 -0.2310
  272SOL    HW2 1087   1.568   2.913   2.777  1.5668  2.7183 -0.6787
  272SOL     MW 1088   1.508   2.848   2.756  0.4175 -0.0686  0.1848
  273SOL     OW 1089   1.485   0.944   2.801  0.6783 -0.3966 -0.1187
  273SOL    HW1 1090   1.572   0.986   2.821 -1.5213 -2.4051 -0.6445
  273SOL    HW2 1091   1.445   1.002   2.736 -0.7645 -2.4985 -0.3426
  273SOL     MW 1092   1.491   0.958   2.795  0.1977 -0.9389 -0.2176
  274SOL     OW 1093   1.466   0.699   0.105 -0.2137  0.4671  0.3352
  274SOL    HW1 1094   1.517   0.634   0.153 -0.1326  0.8810  1.1714
  274SOL    HW2 1095   1.377   0.682   0.149 -1.7297 -2.4349 -2.3089
  274SOL     MW 1096   1.461   0.688   0.117 -0.4030  0.1389  0.0967
  275SOL     OW 1097   1.676   0.558   1.781 -0.6190 -0.2642 -0.1338
  275SOL    HW1 1098   1.750   0.572   1.840 -1.6373 -0.1301  1.9847
  275SOL    HW2 1099   1.682   0.461   1.789 -1.3923  0.2393  2.2181
  275SOL     MW 1100   1.687   0.547   1.790 -0.8554 -0.1800  0.4560
  276SOL     OW 1101   0.298   1.222   1.923  0.1022  0.2507  0.6640
  276SOL    HW1 1102   0.342   1.140   1.938 -1.5298 -1.4702  0.4596
  276SOL    HW2 1103   0.210   1.216   1.960 -1.7764 -2.0183  0.2736
  276SOL     MW 1104   0.292   1.211   1.930 -0.3610 -0.2757  0.5855
  277SOL     OW 1105   1.915   1.186   2.445 -0.3172 -0.7263  0.3357
  277SOL    HW1 1106   1.964   1.251   2.498  0.1183 -3.8094  1.6088
  277SOL    HW2 1107   1.927   1.218   2.355 -1.3377 -2.1009  1.4092
  277SOL     MW 1108   1.923   1.199   2.440 -0.3944 -1.3144  0.6453
  278SOL     OW 1109   1.404   0.671   1.697 -0.2735  0.8463 -0.1110
  278SOL    HW1 1110   1.353   0.627   1.768 -0.0562  0.8554 -2.1305
  278SOL    HW2 1111   1.496   0.678   1.730  1.0140  1.0511  1.1776
  278SOL     MW 1112   1.410   0.666   1.710 -0.0749  0.8745 -0.2074
  279SOL     OW 1113   0.586   0.094   2.251  0.3242  0.7470  0.0073
  279SOL    HW1 1114   0.664   0.036   2.264  0.1974 -1.0948  3.0421
  279SOL    HW2 1115   0.610   0.170   2.201  0.2494 -2.2788 -1.9000
  279SOL     MW 1116   0.599   0.096   2.246  0.2976  0.1048  0.1561
  280SOL     OW 1117   1.490   0.978   2.137 -0.6942 -0.5657  0.5677
  280SOL    HW1 1118   1.541   0.909   2.094  0.2512  0.7887 -1.5844
  280SOL    HW2 1119   1.469   0.949   2.225  1.7784  1.6716 -1.8658
  280SOL     MW 1120   1.494   0.965   2.143 -0.2432 -0.0918 -0.0373
  281SOL     OW 1121   1.338   1.336   2.760  0.5649 -0.2494 -0.9019
  281SOL    HW1 1122   1.426   1.344   2.737 -0.0981 -1.5138  1.6058
  281SOL    HW2 1123   1.340   1.283   2.838  0.7133 -1.4967 -1.0968
  281SOL     MW 1124   1.350   1.330   2.767  0.4970 -0.5808 -0.5967
  282SOL     OW 1125   1.084   1.297   1.669 -0.4642 -0.5774 -0.4084
  282SOL    HW1 1126   1.083   1.380   1.618  3.6910 -0.1758 -0.5910
  282SOL    HW2 1127   1.006   1.304   1.722 -1.8763  0.7148  0.9302
  282SOL     MW 1128   1.073   1.309   1.669 -0.1023 -0.3539 -0.2558
  283SOL     OW 1129   0.794   1.245   2.989 -0.1861  0.7059  0.5169
  283SOL    HW1 1130   0.875   1.253   3.032  0.9691 -0.9632 -2.2593
  283SOL    HW2 1131   0.754   1.337   2.988 -1.5775  0.5389 -0.6362
  283SOL     MW 1132   0.799   1.258   2.995 -0.2173  0.4637 -0.0015
  284SOL     OW 1133   0.487   0.676   2.387 -0.4114  0.2078  0.3217
  284SOL    HW1 1134   0.562   0.738   2.356 -0.7439  0.2566  0.4403
  284SOL    HW2 1135   0.476   0.625   2.308  0.0861 -1.6967 -2.3663
  284SOL     MW 1136   0.496   0.677   2.373 -0.3897 -0.0370 -0.0173
  285SOL     OW 1137   0.986   0.846   2.817 -0.0445 -0.7056 -0.1000
  285SOL    HW1 1138   1.019   0.878   2.730 -1.6876 -0.2509 -1.0627
  285SOL    HW2 1139   0.917   0.783   2.791  0.4101  0.8021  0.9097
  285SOL     MW 1140   0.981   0.842   2.802 -0.2013 -0.4467 -0.0938
  286SOL     OW 1141   1.123   1.511   2.639 -0.1146  0.3162  0.9297
  286SOL    HW1 1142   1.188   1.466   2.698  0.5614 -0.4574  2.8846
  286SOL    HW2 1143   1.144   1.602   2.639 -0.1547 -2.7845  4.1369
  286SOL     MW 1144   1.134   1.517   2.647 -0.0307 -0.1950  1.6108
  287SOL     OW 1145   1.128   0.924   0.338  0.0069  0.1124  0.3976
  287SOL    HW1 1146   1.161   0.988   0.401  0.3275  3.4495  0.2157
  287SOL    HW2 1147   1.077   0.971   0.274  0.8788 -0.9652  1.8600
  287SOL     MW 1148   1.126   0.939   0.338  0.1642  0.4105  0.5666
  288SOL     OW 1149   1.548   0.563   2.084  0.2549 -0.0255 -0.5635
  288SOL    HW1 1150   1.510   0.608   2.158  0.7182  1.6923 -0.0270
  288SOL    HW2 1151   1.602   0.627   2.043  1.2898 -1.1871 -1.4498
  288SOL     MW 1152   1.550   0.578   2.089  0.4525  0.0479 -0.6097
  289SOL     OW 1153   1.064   1.008   2.595  1.1846 -0.3100  0.1382
  289SOL    HW1 1154   1.102   0.922   2.574  0.7807  2.5346 -1.6628
  289SOL    HW2 1155   0.989   1.014   2.529 -3.0727  1.4198  2.6205
  289SOL     MW 1156   1.059   0.997   2.583  0.5696  0.2936  0.2281
  290SOL     OW 1157   0.843   0.641   1.582 -0.3596  0.1344 -0.2264
  290SOL    HW1 1158   0.897   0.606   1.508  1.9096 -2.0367  1.3939
  290SOL    HW2 1159   0.905   0.651   1.661 -0.4042 -2.7409 -0.3454
  290SOL     MW 1160   0.858   0.637   1.583 -0.0661 -0.5314 -0.0283
  291SOL     OW 1161   0.200   0.377   0.106  0.0119 -0.1963  0.6302
  291SOL    HW1 1162   0.286   0.334   0.105  0.3027  2.7105  0.4034
  291SOL    HW2 1163   0.148   0.346   0.030 -3.5636 -0.3642  1.0546
  291SOL     MW 1164   0.205   0.367   0.096 -0.4215  0.1650  0.6563
  292SOL     OW 1165   0.990   0.554   0.066 -0.2577 -0.0564 -0.3567
  292SOL    HW1 1166   1.057   0.609   0.095 -0.8436 -0.8934 -1.4195
  292SOL    HW2 1167   1.033   0.466   0.082 -0.0420  1.8782  2.3632
  292SOL     MW 1168   1.005   0.549   0.072 -0.3065  0.0884 -0.1380
  293SOL     OW 1169   0.158   0.142   2.418  0.1008 -0.5014  0.2880
  293SOL    HW1 1170   0.093   0.090   2.371  1.1641  0.3853  2.1689
  293SOL    HW2 1171   0.123   0.154   2.505 -1.3386  1.7550  1.0386
  293SOL     MW 1172   0.145   0.137   2.423  0.0511 -0.0867  0.6352
  294SOL     OW 1173   1.451   0.604   2.343 -0.2204 -0.1915 -0.3516
  294SOL    HW1 1174   1.490   0.658   2.417 -1.6609 -0.9998  0.2790
  294SOL    HW2 1175   1.422   0.528   2.393  2.5800  2.7062 -0.9480
  294SOL     MW 1176   1.452   0.601   2.360 -0.0410  0.0842 -0.3471
  295SOL     OW 1177   0.937   0.565   2.548  0.0647 -0.0333 -0.2109
  295SOL    HW1 1178   0.899   0.514   2.478 -0.7812 -0.1598 -0.7782
  295SOL    HW2 1179   0.867   0.601   2.598  4.3246 -4.8094  0.6652
  295SOL     MW 1180   0.923   0.563   2.545  0.5151 -0.6801 -0.1702
  296SOL     OW 1181   1.293   0.283   2.041 -0.7156 -0.2497  0.5998
  296SOL    HW1 1182   1.376   0.234   2.018  1.5975  2.1507  0.8119
  296SOL    HW2 1183   1.276   0.270   2.136 -1.3042 -1.3548 -1.7604
  296SOL     MW 1184   1.301   0.275   2.051 -0.4881 -0.0788  0.3164
  297SOL     OW 1185   1.388   0.394   1.594 -0.0841  0.2939 -0.3567
  297SOL    HW1 1186   1.407   0.475   1.642  2.2577  0.6921  1.5253
  297SOL    HW2 1187   1.432   0.326   1.643  4.2780  0.5633  0.6092
  297SOL     MW 1188   1.396   0.396   1.607  0.8004  0.3819  0.0190
  298SOL     OW 1189   1.641   0.805   1.979  0.2203 -0.2257 -0.0282
  298SOL    HW1 1190   1.651   0.859   1.902  0.9769 -0.9686  0.2770
  298SOL    HW2 1191   1.725   0.833   2.008 -1.3714 -1.7975 -2.7214
  298SOL     MW 1192   1.653   0.816   1.973  0.1101 -0.5311 -0.3432
  299SOL     OW 1193   0.570   1.085   0.062  0.0803  0.4983 -0.5060
  299SOL    HW1 1194   0.580   1.114  -0.030 -3.4130 -0.2995  2.5259
  299SOL    HW2 1195   0.478   1.113   0.077 -0.8296  1.2893 -2.1173
  299SOL     MW 1196   0.559   1.093   0.052 -0.5006  0.4974 -0.3186
  300SOL     OW 1197   1.307   1.158   2.538 -0.0924  0.0910  0.3082
  300SOL    HW1 1198   1.223   1.111   2.553 -0.4354 -0.7428  0.5134
  300SOL    HW2 1199   1.313   1.228   2.607 -2.6529 -0.1046  1.1583
  300SOL     MW 1200   1.297   1.161   2.549 -0.4755 -0.0448  0.4474
  301SOL     OW 1201   1.490   0.882   0.638 -0.1348 -0.3374 -0.4508
  301SOL    HW1 1202   1.485   0.925   0.728 -2.1725  0.7885 -1.8332
  301SOL    HW2 1203   1.418   0.815   0.640 -3.6129  0.2383  2.0758
  301SOL     MW 1204   1.480   0.879   0.650 -0.8625 -0.1129 -0.2998
  302SOL     OW 1205   0.129   1.541   1.984  0.3513  0.8665 -0.4514
  302SOL    HW1 1206   0.148   1.490   2.060 -3.0346  1.1156  1.3517
  302SOL    HW2 1207   0.054   1.593   2.022  0.8017  0.2386 -2.1218
  302SOL     MW 1208   0.121   1.541   1.999 -0.0360  0.8165 -0.4339
  303SOL     OW 1209   0.418   1.798   2.614 -0.3178  0.5134  0.6931
  303SOL    HW1 1210   0.378   1.799   2.525 -1.8362  0.9194  1.3228
  303SOL    HW2 1211   0.348   1.840   2.663  0.8052 -0.9017 -2.2305
  303SOL     MW 1212   0.403   1.804   2.609 -0.3700  0.3803  0.3905
  304SOL     OW 1213   0.554   2.066   2.386  0.1809 -0.3067 -0.0089
  304SOL    HW1 1214   0.612   2.092   2.314 -0.1312  0.3210  1.8368
  304SOL    HW2 1215   0.600   1.980   2.400  1.7881  2.2892  1.6732
  304SOL     MW 1216   0.568   2.058   2.378  0.3517  0.1186  0.4565
  305SOL     OW 1217   1.119   0.560   0.484  0.2754  0.1975 -0.0254
  305SOL    HW1 1218   1.022   0.558   0.496  0.4284  0.4654  2.2161
  305SOL    HW2 1219   1.158   0.477   0.514 -0.4652  2.3833  1.6572
  305SOL     MW 1220   1.112   0.548   0.489  0.1978  0.5212  0.4924
  306SOL     OW 1221   1.165   1.470   0.283  0.0568  0.0081 -0.7376
  306SOL    HW1 1222   1.227   1.396   0.313  0.2142  0.8967  1.5304
  306SOL    HW2 1223   1.205   1.502   0.204 -2.4856  0.9251  0.3585
  306SOL     MW 1224   1.178   1.464   0.277 -0.2579  0.2464 -0.2937
  307SOL     OW 1225   1.336   0.527   1.920  0.3751  0.2149 -0.6834
  307SOL    HW1 1226   1.307   0.439   1.963  2.9885 -2.3196 -1.2470
  307SOL    HW2 1227   1.416   0.537   1.977  3.0024 -3.0272 -2.3511
  307SOL     MW 1228   1.343   0.516   1.933  1.0665 -0.5472 -0.9778
  308SOL     OW 1229   2.165   0.527   2.739 -0.6150  0.4099  0.2902
  308SOL    HW1 1230   2.258   0.529   2.752  1.8218  0.7903 -1.0584
  308SOL    HW2 1231   2.161   0.603   2.689 -1.7578 -1.8102 -1.2441
  308SOL     MW 1232   2.177   0.537   2.734 -0.4443  0.1672 -0.0901
  309SOL     OW 1233   0.483   0.456   0.341  0.1483  0.0534 -0.1932
  309SOL    HW1 1234   0.573   0.477   0.319 -2.3042  1.1558 -2.7145
  309SOL    HW2 1235   0.456   0.384   0.281 -0.5724  0.0137 -1.1036
  309SOL     MW 1236   0.491   0.449   0.330 -0.2703  0.1936 -0.6460
  310SOL     OW 1237   0.433   0.645   1.966 -0.1426 -0.4040  0.2826
  310SOL    HW1 1238   0.464   0.568   1.915  0.2728 -4.0518 -2.2535
  310SOL    HW2 1239   0.471   0.723   1.922  1.2542  0.2871  0.1139
  310SOL     MW 1240   0.442   0.645   1.954  0.0965 -0.7941 -0.0742
  311SOL     OW 1241   1.894   0.607   1.954 -0.6956 -0.5942  0.3683
  311SOL    HW1 1242   1.858   0.654   2.028  0.3868 -1.7261 -1.6970
  311SOL    HW2 1243   1.964   0.554   1.992 -3.8551 -0.7711  4.7027
  311SOL     MW 1244   1.898   0.606   1.969 -0.9696 -0.7669  0.6677
  312SOL     OW 1245   1.841   2.515   0.138  0.4152  0.0397  0.4362
  312SOL    HW1 1246   1.917   2.528   0.198 -0.4771  0.6203  0.7161
  312SOL    HW2 1247   1.765   2.533   0.190 -2.0307  0.4303  0.9262
  312SOL     MW 1248   1.841   2.519   0.153 -0.0253  0.1678  0.5378
  313SOL     OW 1249   0.151   1.108   2.979  0.3391  0.6219  0.1203
  313SOL    HW1 1250   0.109   1.138   3.060 -2.5465  2.8197 -2.1250
  313SOL    HW2 1251   0.197   1.186   2.950 -0.4650 -0.4016  2.4904
  313SOL     MW 1252   0.152   1.122   2.986 -0.1477  0.7768  0.1368
  314SOL     OW 1253   2.185   2.976   2.952 -0.3110  0.4516 -0.4390
  314SOL    HW1 1254   2.136   3.032   2.894  1.8804  1.4512  0.2711
  314SOL    HW2 1255   2.235   3.039   3.006  0.5906 -2.6017 -0.7548
  314SOL     MW 1256   2.185   2.992   2.951  0.0971  0.1806 -0.3869
  315SOL     OW 1257   1.534   1.933   3.082  0.4345  0.0468 -0.7129
  315SOL    HW1 1258   1.452   1.972   3.131 -0.8498 -0.8466 -0.2205
  315SOL    HW2 1259   1.551   2.002   3.007 -5.8017  0.1686 -0.0770
  315SOL     MW 1260   1.526   1.948   3.079 -0.5578 -0.0550 -0.5640
  316SOL     OW 1261   1.300   0.605   2.709  0.2281 -0.6022 -0.5381
  316SOL    HW1 1262   1.387   0.630   2.702 -1.2086 -1.8940  4.8508
  316SOL    HW2 1263   1.281   0.631   2.800  1.3868 -2.0482  1.5333
  316SOL     MW 1264   1.309   0.611   2.720  0.1914 -0.9634  0.4462
  317SOL     OW 1265   0.674   1.423   2.578 -0.1003  0.5737  1.0619
  317SOL    HW1 1266   0.746   1.359   2.576 -1.0256  0.7692 -0.7325
  317SOL    HW2 1267   0.687   1.468   2.487 -1.9656  0.7964 -3.8052
  317SOL     MW 1268   0.685   1.421   2.566 -0.4685  0.6289  0.1830
  318SOL     OW 1269   1.315   0.339   2.956  0.5650 -0.3706  0.6987
  318SOL    HW1 1270   1.241   0.402   2.934 -0.2400  0.6364 -1.5489
  318SOL    HW2 1271   1.394   0.389   2.965 -0.1610 -0.3004 -1.3773
  318SOL     MW 1272   1.316   0.354   2.955  0.3630 -0.2284  0.1282
  319SOL     OW 1273   0.790   0.454   2.857  0.3569  0.3408 -0.2730
  319SOL    HW1 1274   0.781   0.366   2.813  1.6654 -2.8100  1.8733
  319SOL    HW2 1275   0.796   0.423   2.950 -1.7650  0.9357 -0.2079
  319SOL     MW 1276   0.789   0.438   2.864  0.2496  0.0036  0.0188
  320SOL     OW 1277   1.060   1.359   2.042  0.1621 -0.0507 -0.0287
  320SOL    HW1 1278   1.131   1.305   2.080  2.3566  0.1977 -0.6125
  320SOL    HW2 1279   1.107   1.422   1.985 -0.0151  0.7819 -0.7321
  320SOL     MW 1280   1.076   1.360   2.040  0.4283  0.0919 -0.1985
  321SOL     OW 1281   1.135   0.939   3.026  0.0710  0.5230  0.0467
  321SOL    HW1 1282   1.072   0.907   2.962  0.1643  2.9370 -0.7720
  321SOL    HW2 1283   1.201   0.883   3.000 -0.6155  2.8226 -0.1544
  321SOL     MW 1284   1.135   0.927   3.014 -0.0073  1.1449 -0.0879
  322SOL     OW 1285   1.217   0.859   1.679 -0.3139 -0.6725 -0.3419
  322SOL    HW1 1286   1.299   0.808   1.689  0.8812 -1.7598 -0.2948
  322SOL    HW2 1287   1.212   0.903   1.772 -1.8577 -0.8843  1.9022
  322SOL     MW 1288   1.227   0.858   1.693 -0.3599 -0.8439 -0.0396
  323SOL     OW 1289   1.200   1.542   1.882  0.2509 -0.1949 -0.5032
  323SOL    HW1 1290   1.248   1.558   1.802  0.6216  1.7394  1.4752
  323SOL    HW2 1291   1.151   1.622   1.880 -1.5168 -2.5022 -0.7848
  323SOL     MW 1292   1.200   1.555   1.871  0.0666 -0.2441 -0.2793
  324SOL     OW 1293   1.487   0.959   2.432  0.1230  0.5470 -0.0436
  324SOL    HW1 1294   1.404   0.982   2.464  5.2995  1.0439  0.8725
  324SOL    HW2 1295   1.542   1.037   2.452 -3.0430 -0.3478  2.8515
  324SOL     MW 1296   1.484   0.972   2.439  0.3883  0.4945  0.4593
  325SOL     OW 1297   1.090   0.509   2.909  0.2123  0.4668 -0.0191
  325SOL    HW1 1298   1.038   0.534   2.988 -1.3465  0.1629 -1.5922
  325SOL    HW2 1299   1.023   0.515   2.848 -0.8363 -1.5002 -1.9585
  325SOL     MW 1300   1.075   0.513   2.912 -0.1317  0.1672 -0.4826
  326SOL     OW 1301   0.456   1.358   2.301 -0.4527  0.2220  0.1865
  326SOL    HW1 1302   0.525   1.312   2.252  0.4073 -1.6508 -1.7548
  326SOL    HW2 1303   0.467   1.452   2.271 -0.1920 -2.0248 -0.5533
  326SOL     MW 1304   0.467   1.365   2.290 -0.3048 -0.3216 -0.1672
  327SOL     OW 1305   1.920   0.781   2.437  0.0958  0.0747 -0.1460
  327SOL    HW1 1306   1.899   0.728   2.522 -0.3891 -0.6986  0.5958
  327SOL    HW2 1307   1.944   0.866   2.466 -3.0460 -1.4621 -0.4842
  327SOL     MW 1308   1.920   0.786   2.452 -0.3827 -0.2301 -0.0927
  328SOL     OW 1309   0.212   1.390   2.210  0.5899 -0.3039  0.2068
  328SOL    HW1 1310   0.193   1.295   2.198  0.6336 -1.2033 -2.0030
  328SOL    HW2 1311   0.297   1.382   2.248 -1.4099  0.1091 -0.6935
  328SOL     MW 1312   0.221   1.376   2.213  0.3318 -0.3681 -0.2036
  329SOL     OW 1313   0.140   0.247   1.399 -0.1543 -0.5376  0.7095
  329SOL    HW1 1314   0.110   0.251   1.490 -3.0000  1.5071 -1.9884
  329SOL    HW2 1315   0.238   0.252   1.402  1.3246  0.1818  0.3778
  329SOL     MW 1316   0.149   0.249   1.411 -0.3346 -0.1729  0.3098
  330SOL     OW 1317   0.375   0.007   2.098  0.0425 -0.0767 -0.5465
  330SOL    HW1 1318   0.462   0.018   2.146  2.0875 -2.4702 -0.6498
  330SOL    HW2 1319   0.307  -0.038   2.152 -1.2254  0.5924  0.0464
  330SOL     MW 1320   0.377   0.002   2.111  0.1450 -0.3042 -0.4819
  331SOL     OW 1321   0.879   1.245   2.279 -0.6750 -0.0691  0.5646
  331SOL    HW1 1322   0.815   1.265   2.212  2.4740  0.1156 -0.4158
  331SOL    HW2 1323   0.912   1.330   2.304 -0.0503  0.5174  0.8913
  331SOL     MW 1324   0.875   1.259   2.273 -0.1771  0.0327  0.4784
  332SOL     OW 1325   1.350   1.766   2.971 -0.0484 -0.9882 -0.3909
  332SOL    HW1 1326   1.373   1.776   2.875 -1.8213  1.1260 -0.7318
  332SOL    HW2 1327   1.413   1.823   3.019  0.9444 -2.0674 -2.3281
  332SOL     MW 1328   1.361   1.775   2.965 -0.1513 -0.8516 -0.6915
  333SOL     OW 1329   1.734   1.403   2.962 -0.4111 -0.0042 -0.0179
  333SOL    HW1 1330   1.827   1.411   2.956 -4.2291 -0.5151 -3.4509
  333SOL    HW2 1331   1.717   1.318   3.000 -2.4619 -0.7062 -0.4898
  333SOL     MW 1332   1.744   1.393   2.966 -1.1855 -0.1642 -0.5331
  334SOL     OW 1333   1.337   0.020   2.589 -0.3248 -0.0516 -0.6346
  334SOL    HW1 1334   1.252   0.018   2.636 -0.1310  1.3062 -0.4768
  334SOL    HW2 1335   1.379   0.092   2.637 -2.0387  0.1878 -0.8821
  334SOL     MW 1336   1.331   0.029   2.601 -0.5254  0.1591 -0.6464
  335SOL     OW 1337   1.357   0.758   2.961 -0.5308  0.2283 -0.4150
  335SOL    HW1 1338   1.405   0.734   3.044  0.6968  0.9666 -0.4522
  335SOL    HW2 1339   1.412   0.829   2.932  0.6632 -0.0176  1.9670
  335SOL     MW 1340   1.371   0.764   2.968 -0.2113  0.2933 -0.1056
  336SOL     OW 1341   0.949   1.138   1.886  0.0807  0.2839 -0.3111
  336SOL    HW1 1342   0.992   1.211   1.929 -3.2946  1.1670 -4.2857
  336SOL    HW2 1343   1.018   1.077   1.890  0.4193  0.3369  2.2369
  336SOL     MW 1344   0.964   1.140   1.893 -0.3200  0.4074 -0.4993
  337SOL     OW 1345   0.640   1.812   2.811  0.5772 -0.1007  0.7289
  337SOL    HW1 1346   0.574   1.825   2.746 -0.1828  0.4858 -0.3284
  337SOL    HW2 1347   0.703   1.752   2.775  1.4207  1.9858  1.4814
  337SOL     MW 1348   0.640   1.806   2.797  0.5882  0.2520  0.6887
  338SOL     OW 1349   1.139   0.746   2.547  0.3147 -0.7770  0.1846
  338SOL    HW1 1350   1.063   0.681   2.539  1.8198 -1.5794 -0.3585
  338SOL    HW2 1351   1.194   0.688   2.610 -1.8272 -1.6704  0.0163
  338SOL     MW 1352   1.137   0.730   2.554  0.2307 -1.0007  0.0907
  339SOL     OW 1353   1.481   1.057   1.815  0.5154  0.5387  0.3124
  339SOL    HW1 1354   1.412   1.060   1.752 -0.1321  1.5865 -0.9421
  339SOL    HW2 1355   1.433   1.034   1.893 -0.9660 -0.1330 -1.7477
  339SOL     MW 1356   1.466   1.055   1.817  0.2345  0.5883 -0.1249
  340SOL     OW 1357   1.309   1.533   0.050 -0.0275 -0.2919 -0.0929
  340SOL    HW1 1358   1.324   1.601  -0.021 -0.5504  0.2181 -0.2334
  340SOL    HW2 1359   1.398   1.511   0.082  3.3774  1.1800  0.6588
  340SOL     MW 1360   1.322   1.539   0.045  0.3527 -0.0304 -0.0123
  341SOL     OW 1361   0.098   1.394   2.770 -0.5621 -0.8122  0.0105
  341SOL    HW1 1362   0.154   1.347   2.708 -2.1394 -1.0438  0.7963
  341SOL    HW2 1363   0.016   1.365   2.729 -2.7069 -1.0593  0.6436
  341SOL     MW 1364   0.095   1.384   2.757 -1.0532 -0.8754  0.1977
  342SOL     OW 1365   1.306   0.302   0.122  0.1745  0.0092  0.2125
  342SOL    HW1 1366   1.350   0.385   0.153  1.4374 -0.6806 -1.2565
  342SOL    HW2 1367   1.333   0.295   0.029  1.9379 -1.0101 -1.5315
  342SOL     MW 1368   1.315   0.312   0.114  0.5738 -0.2163 -0.2114
  343SOL     OW 1369   0.264   0.269   2.127  0.2429  0.1682 -1.1603
  343SOL    HW1 1370   0.318   0.192   2.119  3.1498  1.2143  2.8283
  343SOL    HW2 1371   0.184   0.254   2.078 -1.1295 -0.0530  1.4303
  343SOL     MW 1372   0.261   0.257   2.119  0.4453  0.2770 -0.2923
  344SOL     OW 1373   1.717   2.003   0.176  0.0364 -0.3470  0.5481
  344SOL    HW1 1374   1.726   2.090   0.144 -0.3857  1.4607  0.4663
  344SOL    HW2 1375   1.647   1.970   0.123  1.0105  0.3540 -1.4341
  344SOL     MW 1376   1.709   2.010   0.164  0.1092 -0.0160  0.2758
  345SOL     OW 1377   0.746   1.580   2.338 -0.4480 -0.0978 -0.1213
  345SOL    HW1 1378   0.665   1.582   2.280  1.9556 -3.1686 -2.4895
  345SOL    HW2 1379   0.821   1.597   2.281 -2.4326  2.8631 -1.1666
  345SOL     MW 1380   0.745   1.583   2.323 -0.3927 -0.1123 -0.5717
  346SOL     OW 1381   1.763   1.097   0.032 -0.0637  0.3409  0.0345
  346SOL    HW1 1382   1.842   1.119   0.080 -0.8683  0.8306 -0.9481
  346SOL    HW2 1383   1.722   1.024   0.081 -2.3128  1.3647 -3.1346
  346SOL     MW 1384   1.768   1.090   0.045 -0.4666  0.5406 -0.5133
  347SOL     OW 1385   1.199   0.671   2.293 -0.3919 -0.4259  0.4529
  347SOL    HW1 1386   1.295   0.656   2.305  0.4713  0.0950  0.2870
  347SOL    HW2 1387   1.173   0.701   2.381 -1.5138  1.1889  1.9512
  347SOL     MW 1388   1.208   0.673   2.306 -0.4260 -0.1441  0.6287
  348SOL     OW 1389   1.370   2.671   1.918 -0.4656 -0.6672 -0.5494
  348SOL    HW1 1390   1.402   2.578   1.935 -1.4740 -0.5567 -0.3702
  348SOL    HW2 1391   1.408   2.733   1.987  1.1625  0.9328  1.1114
  348SOL     MW 1392   1.379   2.667   1.930 -0.3839 -0.4415 -0.3067
  349SOL     OW 1393   1.445   0.250   2.719 -0.0875 -0.3003  0.3955
  349SOL    HW1 1394   1.400   0.288   2.794  0.3121  1.8861  1.5262
  349SOL    HW2 1395   1.527   0.234   2.752 -0.4691  2.4589 -1.8898
  349SOL     MW 1396   1.450   0.253   2.733 -0.0851  0.3522  0.2431
  350SOL     OW 1397   1.844   0.653   2.667 -0.1862 -0.5468 -0.5989
  350SOL    HW1 1398   1.766   0.619   2.616  1.0539  1.2184  0.7259
  350SOL    HW2 1399   1.895   0.580   2.694  1.0001 -0.7912  1.3761
  350SOL     MW 1400   1.840   0.639   2.664  0.1340 -0.3461 -0.1636
  351SOL     OW 1401   0.101   1.067   1.534  0.1579  0.7096  0.5212
  351SOL    HW1 1402   0.025   1.089   1.587 -0.4526 -0.6319 -1.3976
  351SOL    HW2 1403   0.169   1.132   1.561  0.6612 -4.0461 -1.9881
  351SOL     MW 1404   0.100   1.078   1.545  0.1437 -0.0948 -0.0631
  352SOL     OW 1405   0.810   1.647   2.705  0.0752 -0.4736  0.1287
  352SOL    HW1 1406   0.863   1.600   2.774 -0.9502 -0.8188  0.4997
  352SOL    HW2 1407   0.763   1.572   2.659 -2.5169 -0.2731 -1.7748
  352SOL     MW 1408   0.811   1.631   2.708 -0.4021 -0.4927 -0.0735
  353SOL     OW 1409   3.064   2.513   2.648  0.1198  0.4487  0.3387
  353SOL    HW1 1410   3.165   2.513   2.646  3.4018  0.8318  0.2684
  353SOL    HW2 1411   3.040   2.605   2.627  0.7837 -0.8210 -0.5061
  353SOL     MW 1412   3.074   2.525   2.645  0.6404  0.3317  0.2179
  354SOL     OW 1413   0.251   2.483   0.810  0.4691  0.3061  0.2897
  354SOL    HW1 1414   0.285   2.477   0.896 -2.1330 -2.7013 -0.2452
  354SOL    HW2 1415   0.178   2.422   0.814 -1.4214 -0.0958 -1.7892
  354SOL     MW 1416   0.246   2.474   0.822 -0.1236 -0.1437 -0.0551
  355SOL     OW 1417   0.024   2.254   0.389 -0.6793  0.0001 -0.0098
  355SOL    HW1 1418  -0.058   2.207   0.369 -0.0407  0.3621 -1.5345
  355SOL    HW2 1419   0.006   2.307   0.467 -0.6056  1.7209 -3.5091
  355SOL     MW 1420   0.011   2.255   0.396 -0.5853  0.2749 -0.6727
  356SOL     OW 1421   0.844   2.822   0.987 -0.4406 -0.0798 -0.5177
  356SOL    HW1 1422   0.876   2.871   0.901  2.2031 -0.1345  0.1336
  356SOL    HW2 1423   0.753   2.802   0.970 -0.5489  0.8623 -2.1097
  356SOL     MW 1424   0.836   2.826   0.973 -0.1061  0.0373 -0.6418
  357SOL     OW 1425   1.776   2.917   0.399 -0.1301  0.3445 -0.3150
  357SOL    HW1 1426   1.720   2.842   0.418 -0.9678  1.8135 -0.5096
  357SOL    HW2 1427   1.852   2.868   0.365 -1.7308  0.3772 -1.5382
  357SOL     MW 1428   1.779   2.900   0.397 -0.4518  0.5427 -0.5021
  358SOL     OW 1429   0.459   0.157   1.054  0.2291 -0.0318 -0.2626
  358SOL    HW1 1430   0.548   0.119   1.062  2.2984 -0.1100 -1.3324
  358SOL    HW2 1431   0.436   0.172   0.964  0.8691  0.6109  0.8317
  358SOL     MW 1432   0.468   0.154   1.043  0.5866  0.0426 -0.2594
  359SOL     OW 1433   0.848   2.899   1.851  0.1718 -0.8028 -0.1331
  359SOL    HW1 1434   0.831   2.805   1.852  1.3759 -0.0541 -1.4786
  359SOL    HW2 1435   0.889   2.913   1.767  0.2377 -4.3900 -1.9836
  359SOL     MW 1436   0.851   2.888   1.840  0.3394 -1.1773 -0.5548
  360SOL     OW 1437   0.578   2.773   0.918  0.3727  0.0863 -0.0131
  360SOL    HW1 1438   0.565   2.721   0.841 -0.6065  0.8244 -0.3642
  360SOL    HW2 1439   0.574   2.707   0.989 -2.6111  0.6216 -0.3475
  360SOL     MW 1440   0.576   2.757   0.917 -0.1502  0.2543 -0.1035
  361SOL     OW 1441   0.192   2.646   1.348  0.2240 -0.2799  0.4716
  361SOL    HW1 1442   0.187   2.724   1.404  0.2386 -0.2053  2.6872
  361SOL    HW2 1443   0.289   2.628   1.348  1.9380  0.9261 -0.0638
  361SOL     MW 1444   0.204   2.654   1.355  0.4520 -0.1109  0.6933
  362SOL     OW 1445   1.496   2.390   0.640  0.0991  0.0845  0.0435
  362SOL    HW1 1446   1.520   2.332   0.713  1.8941 -0.1116  1.0555
  362SOL    HW2 1447   1.533   2.474   0.659 -1.0258 -1.0857  0.3008
  362SOL     MW 1448   1.504   2.394   0.652  0.1875 -0.0958  0.2110
  363SOL     OW 1449   0.296   3.072   0.664 -0.0838 -0.0878  0.0163
  363SOL    HW1 1450   0.295   3.014   0.738  1.1799 -0.6925 -1.9639
  363SOL    HW2 1451   0.213   3.074   0.613 -0.9233 -2.1237 -2.2885
  363SOL     MW 1452   0.285   3.065   0.667 -0.0279 -0.4362 -0.5491
  364SOL     OW 1453   0.733   0.169   0.198  0.5962  0.2687 -0.0052
  364SOL    HW1 1454   0.660   0.103   0.215  0.7858  0.5049 -1.2254
  364SOL    HW2 1455   0.687   0.229   0.136 -0.1084  2.9294  0.9591
  364SOL     MW 1456   0.718   0.168   0.192  0.5282  0.6509 -0.0390
  365SOL     OW 1457   0.977   2.029   1.122 -0.0264  0.5007  0.6855
  365SOL    HW1 1458   0.946   2.098   1.063 -0.2752 -1.6333  3.7703
  365SOL    HW2 1459   0.931   1.954   1.081  0.2715 -0.3583 -0.3948
  365SOL     MW 1460   0.967   2.028   1.109 -0.0199  0.1058  0.9499
  366SOL     OW 1461   2.854   2.689   1.025  0.5535  0.3816  0.1769
  366SOL    HW1 1462   2.945   2.682   1.069 -0.2269 -0.3018 -1.2832
  366SOL    HW2 1463   2.869   2.719   0.933 -1.1432  0.4928 -0.3554
  366SOL     MW 1464   2.868   2.692   1.019  0.2266  0.3061 -0.0860
  367SOL     OW 1465   1.226   2.971   0.868 -0.2031  0.7659  0.3280
  367SOL    HW1 1466   1.236   3.047   0.809  1.3231  0.6724 -2.4757
  367SOL    HW2 1467   1.211   2.891   0.811  0.1483 -0.8341  0.8353
  367SOL     MW 1468   1.226   2.970   0.853  0.0446  0.5425  0.0250
  368SOL     OW 1469   1.665   0.416   0.706  0.0219  0.3155  0.3369
  368SOL    HW1 1470   1.731   0.363   0.658  1.9673  2.2839 -2.1987
  368SOL    HW2 1471   1.689   0.502   0.681 -0.6488 -0.4931 -0.4973
  368SOL     MW 1472   1.677   0.421   0.696  0.1901  0.4686 -0.1077
  369SOL     OW 1473   0.133   2.475   1.769  0.3016 -0.8040  0.7095
  369SOL    HW1 1474   0.234   2.489   1.755  1.0792 -0.7200 -0.6650
  369SOL    HW2 1475   0.091   2.565   1.783 -1.7961  1.1775  2.1050
  369SOL     MW 1476   0.141   2.488   1.769  0.1274 -0.5315  0.7123
  370SOL     OW 1477   0.720   0.095   1.029  0.1167 -0.0688 -0.4787
  370SOL    HW1 1478   0.730   0.189   1.013  2.1168 -1.8112  1.7188
  370SOL    HW2 1479   0.804   0.054   1.022 -1.8181  0.5945  2.1602
  370SOL     MW 1480   0.732   0.102   1.026  0.1253 -0.2112  0.1594
  371SOL     OW 1481   1.313   2.924   1.526  0.4121 -0.1153  0.3091
  371SOL    HW1 1482   1.270   2.858   1.468  2.0358 -1.3030 -0.8413
  371SOL    HW2 1483   1.329   3.000   1.468  0.1320 -0.3335 -0.1508
  371SOL     MW 1484   1.309   2.925   1.511  0.5894 -0.3008  0.0966
  372SOL     OW 1485   0.740   2.295   0.454  0.1046 -0.0673 -0.1744
  372SOL    HW1 1486   0.731   2.207   0.487 -0.7503  2.5850 -1.5341
  372SOL    HW2 1487   0.770   2.271   0.359 -1.0785 -1.2244  2.2599
  372SOL     MW 1488   0.743   2.281   0.446 -0.1643  0.1300 -0.0326
  373SOL     OW 1489   2.768   2.997   1.442  0.2601  0.0406 -0.1311
  373SOL    HW1 1490   2.845   2.963   1.399 -0.7672  0.5378 -3.7250
  373SOL    HW2 1491   2.753   3.080   1.398 -1.6960  2.3598  0.8103
  373SOL     MW 1492   2.776   3.003   1.430 -0.1335  0.4122 -0.4811
  374SOL     OW 1493   1.535   0.462   0.232  0.2334 -0.3930 -0.2586
  374SOL    HW1 1494   1.575   0.377   0.224  0.8032  0.5464 -1.0389
  374SOL    HW2 1495   1.493   0.462   0.317  0.2786 -2.3643  0.7471
  374SOL     MW 1496   1.535   0.451   0.242  0.3146 -0.5292 -0.2289
  375SOL     OW 1497   0.972   2.117   2.274  0.1484 -0.0842 -0.7248
  375SOL    HW1 1498   1.035   2.109   2.348  2.4857 -2.9063  1.1212
  375SOL    HW2 1499   1.012   2.064   2.200  0.4977 -1.8663  3.4680
  375SOL     MW 1500   0.985   2.109   2.274  0.5029 -0.6917  0.0719
  376SOL     OW 1501   0.751   2.554   0.082 -0.3329 -0.6222  0.2858
  376SOL    HW1 1502   0.707   2.514   0.165  1.3192 -2.0893 -1.2330
  376SOL    HW2 1503   0.738   2.494   0.003 -3.5569 -0.7225 -1.9770
  376SOL     MW 1504   0.744   2.541   0.082 -0.5403 -0.8290 -0.2131
  377SOL     OW 1505   1.286   2.014   0.873 -0.0134 -0.0293 -0.2948
  377SOL    HW1 1506   1.200   2.000   0.834  3.2744  0.2479 -0.9240
  377SOL    HW2 1507   1.277   1.966   0.953 -1.4057  3.1575  0.8761
  377SOL     MW 1508   1.274   2.006   0.878  0.2367  0.4277 -0.2234
  378SOL     OW 1509   0.894   2.827   1.569 -0.1747  0.5353  0.1693
  378SOL    HW1 1510   0.877   2.731   1.574  0.2914 -2.0044 -0.0085
  378SOL    HW2 1511   0.902   2.859   1.476 -0.1064  1.7449  0.1659
  378SOL     MW 1512   0.893   2.818   1.558 -0.1042  0.3598  0.1454
  379SOL     OW 1513   1.148   1.778   2.268 -0.3189 -0.2825 -0.5454
  379SOL    HW1 1514   1.072   1.734   2.231 -0.3608  1.4553 -2.0655
  379SOL    HW2 1515   1.217   1.713   2.242  2.0134  1.2324  1.8458
  379SOL     MW 1516   1.147   1.763   2.260 -0.0167  0.1467 -0.4305
  380SOL     OW 1517   0.801   0.107   1.627 -0.1127 -0.1416  0.0448
  380SOL    HW1 1518   0.813   0.163   1.547 -0.9302  1.1524 -1.7182
  380SOL    HW2 1519   0.889   0.109   1.663 -1.3707  0.6885  0.2678
  380SOL     MW 1520   0.814   0.114   1.621 -0.3865  0.1387 -0.1584
  381SOL     OW 1521   0.807   2.038   0.801 -0.1160 -0.4635 -0.1295
  381SOL    HW1 1522   0.887   2.020   0.756 -0.3988 -1.1697  1.4381
  381SOL    HW2 1523   0.806   2.135   0.821 -3.6185 -2.4159 -1.5644
  381SOL     MW 1524   0.817   2.049   0.797 -0.6154 -0.8143 -0.1120
  382SOL     OW 1525   0.704   0.071   0.719  1.0713 -0.1372 -0.2440
  382SOL    HW1 1526   0.703   0.073   0.811 -1.6817  1.6739  1.9054
  382SOL    HW2 1527   0.687  -0.019   0.680  0.5683  0.0308  0.3516
  382SOL     MW 1528   0.702   0.059   0.726  0.6417  0.1239  0.1182
  383SOL     OW 1529   0.528   3.082   0.277 -0.1456 -0.2635 -0.3280
  383SOL    HW1 1530   0.598   3.029   0.240  1.1722  2.4557  0.9283
  383SOL    HW2 1531   0.481   3.035   0.341  0.5982  2.4913 -1.1930
  383SOL     MW 1532   0.531   3.068   0.280  0.1264  0.4588 -0.2764
  384SOL     OW 1533   0.707   2.915   0.613  0.4510 -0.1474 -0.1744
  384SOL    HW1 1534   0.789   2.913   0.664  0.8634 -1.6712  1.3301
  384SOL    HW2 1535   0.646   2.856   0.660 -0.5460 -0.6105 -1.9100
  384SOL     MW 1536   0.710   2.907   0.626  0.3739 -0.4096 -0.2049
  385SOL     OW 1537   1.387   2.092   1.524 -0.2160 -0.4634 -0.0030
  385SOL    HW1 1538   1.472   2.114   1.573 -1.9350 -0.0850  1.0290
  385SOL    HW2 1539   1.323   2.043   1.572  2.9486  0.0639  1.4217
  385SOL     MW 1540   1.390   2.088   1.537 -0.0252 -0.3439  0.3212
  386SOL     OW 1541   1.308   0.407   0.898 -0.0653 -0.6015  0.2283
  386SOL    HW1 1542   1.237   0.438   0.955  2.5745 -0.0645 -0.6223
  386SOL    HW2 1543   1.344   0.321   0.929 -0.6888 -1.3195 -2.1846
  386SOL     MW 1544   1.303   0.400   0.910  0.2007 -0.6254 -0.2023
  387SOL     OW 1545   0.814   2.199   1.534  0.3088  0.0021  0.4677
  387SOL    HW1 1546   0.861   2.270   1.494  2.2357  0.0306 -0.0414
  387SOL    HW2 1547   0.833   2.126   1.476 -1.2291 -0.7971  1.7064
  387SOL     MW 1548   0.822   2.198   1.521  0.3601 -0.0996  0.5640
  388SOL     OW 1549   1.529   2.778   1.187 -0.5176 -0.3842 -0.2735
  388SOL    HW1 1550   1.453   2.742   1.137  0.3212 -1.7779 -0.1557
  388SOL    HW2 1551   1.578   2.697   1.180 -1.1887 -1.2939 -2.3749
  388SOL     MW 1552   1.525   2.762   1.180 -0.4955 -0.6881 -0.5352
  389SOL     OW 1553   0.434   0.097   3.030  0.2307 -0.0063 -0.1622
  389SOL    HW1 1554   0.522   0.064   3.026 -0.5218  0.6997  2.2990
  389SOL    HW2 1555   0.411   0.129   2.947 -0.3207  1.7145  0.9480
  389SOL     MW 1556   0.443   0.097   3.018  0.0586  0.3139  0.3090
  390SOL     OW 1557   1.291   0.083   0.702 -0.2219 -0.2107  0.0498
  390SOL    HW1 1558   1.341   0.074   0.620 -0.3217  0.7458 -2.6216
  390SOL    HW2 1559   1.354   0.091   0.778 -3.3670 -1.1149 -0.6381
  390SOL     MW 1560   1.306   0.083   0.701 -0.6500 -0.2038 -0.3935
  391SOL     OW 1561   0.350   2.233   1.417  0.4313  0.7321  0.1208
  391SOL    HW1 1562   0.298   2.148   1.429  1.1255  0.0389  1.2891
  391SOL    HW2 1563   0.277   2.289   1.435  1.7862  3.1469  0.2142
  391SOL     MW 1564   0.334   2.229   1.421  0.7016  0.9592  0.2872
  392SOL     OW 1565   2.037   2.214   0.319 -0.8293  0.2161 -0.0434
  392SOL    HW1 1566   2.127   2.222   0.350  0.8252 -0.0816 -0.9663
  392SOL    HW2 1567   1.989   2.254   0.397  1.7291 -0.4997  2.6248
  392SOL     MW 1568   2.042   2.221   0.333 -0.2735  0.0824  0.1869
  393SOL     OW 1569   0.211   2.978   2.794  0.4960 -0.5698  0.4360
  393SOL    HW1 1570   0.276   2.970   2.730  0.2712 -1.7184  2.0847
  393SOL    HW2 1571   0.202   3.076   2.808 -2.0577  1.0062  0.7055
  393SOL     MW 1572   0.219   2.990   2.787  0.1294 -0.5134  0.6891
  394SOL     OW 1573   0.859   1.742   1.561 -0.2390  0.1551 -0.1583
  394SOL    HW1 1574   0.781   1.755   1.617 -0.9007  2.9110 -0.4550
  394SOL    HW2 1575   0.865   1.829   1.512 -0.0571 -1.2854  0.9114
  394SOL     MW 1576   0.849   1.755   1.562 -0.3023  0.3287 -0.0563
  395SOL     OW 1577   0.986   2.830   2.651 -0.5978 -0.4240  0.1176
  395SOL    HW1 1578   1.024   2.903   2.700 -2.0183 -1.9598  0.3886
  395SOL    HW2 1579   1.063   2.806   2.595  1.1973 -0.5526 -0.0980
  395SOL     MW 1580   1.001   2.837   2.650 -0.5484 -0.6436  0.1249
  396SOL     OW 1581   0.718   1.843   2.376 -0.3634 -0.1112 -0.4572
  396SOL    HW1 1582   0.783   1.852   2.449  1.7213  0.1332  0.2473
  396SOL    HW2 1583   0.730   1.749   2.356 -0.8067  2.9668  2.1340
  396SOL     MW 1584   0.728   1.831   2.383 -0.1468  0.3272 -0.0224
  397SOL     OW 1585   1.013   2.315   1.304  0.1642  0.1469  0.4550
  397SOL    HW1 1586   1.054   2.360   1.232  0.7928  0.2417  2.5041
  397SOL    HW2 1587   1.078   2.309   1.376 -1.1594  1.8861 -0.9961
  397SOL     MW 1588   1.027   2.320   1.304  0.0725  0.3888  0.5339
  398SOL     OW 1589   0.526   2.651   0.676 -0.3827  0.2616 -0.1302
  398SOL    HW1 1590   0.445   2.611   0.642  1.3258  1.3936  1.7622
  398SOL    HW2 1591   0.596   2.583   0.678  0.2147  1.1290 -0.2344
  398SOL     MW 1592   0.525   2.637   0.672 -0.0785  0.5254  0.1057
  399SOL     OW 1593   0.241   2.084   0.318 -0.0542  0.1040 -0.0194
  399SOL    HW1 1594   0.164   2.133   0.348 -0.5109 -1.0982  0.0374
  399SOL    HW2 1595   0.285   2.145   0.254  1.0905  3.8688 -1.5938
  399SOL     MW 1596   0.236   2.098   0.313  0.0366  0.4421 -0.2196
  400SOL     OW 1597   0.501   1.945   0.096  0.5057  0.0275 -0.4670
  400SOL    HW1 1598   0.458   2.032   0.091 -1.4432 -0.3130 -0.5658
  400SOL    HW2 1599   0.494   1.927   0.187 -1.8722 -0.2897 -0.6517
  400SOL     MW 1600   0.494   1.954   0.107 -0.0652 -0.0593 -0.5044
  401SOL     OW 1601   0.752   2.059   0.071 -0.1136  0.2908 -0.4190
  401SOL    HW1 1602   0.831   2.000   0.099  1.1920  1.7124  0.0143
  401SOL    HW2 1603   0.665   2.024   0.090 -0.3791  0.3764  1.4099
  401SOL     MW 1604   0.751   2.046   0.077  0.0236  0.4897 -0.1205
  402SOL     OW 1605   0.594   2.966   1.782 -0.0818  0.2641 -0.4556
  402SOL    HW1 1606   0.672   2.942   1.832 -0.1273  1.2637 -1.5593
  402SOL    HW2 1607   0.621   3.038   1.729 -0.6975 -1.7953 -1.5100
  402SOL     MW 1608   0.608   2.973   1.781 -0.1690  0.1243 -0.7404
  403SOL     OW 1609   0.069   0.443   0.373  0.6714 -0.2866  0.5776
  403SOL    HW1 1610   0.136   0.467   0.441 -0.7791  2.7919 -0.0432
  403SOL    HW2 1611   0.119   0.420   0.291 -0.6640 -2.1107  1.2145
  403SOL     MW 1612   0.084   0.443   0.371  0.3038 -0.1211  0.5797
  404SOL     OW 1613   0.934   2.929   0.765  0.1410 -0.0992  0.1675
  404SOL    HW1 1614   1.000   2.856   0.757  0.9385  0.7288  0.5834
  404SOL    HW2 1615   0.958   3.013   0.718  1.6531  2.2899  1.7749
  404SOL     MW 1616   0.946   2.930   0.758  0.4457  0.3253  0.4345
  405SOL     OW 1617   0.524   2.397   1.543  0.1124  0.0857  0.1560
  405SOL    HW1 1618   0.516   2.457   1.471 -0.7074 -1.1622 -2.7721
  405SOL    HW2 1619   0.458   2.325   1.530 -0.8083 -3.8501  0.9033
  405SOL     MW 1620   0.514   2.395   1.532 -0.1173 -0.5983 -0.1317
  406SOL     OW 1621   0.377   2.403   1.069 -0.6262 -0.0406  0.3054
  406SOL    HW1 1622   0.283   2.405   1.094 -2.0584  0.6772  0.3204
  406SOL    HW2 1623   0.405   2.317   1.101 -2.0906 -2.3180  0.4841
  406SOL     MW 1624   0.368   2.392   1.077 -1.0084 -0.2464  0.3309
  407SOL     OW 1625  -0.001   2.660   1.146 -0.2905 -0.2782 -0.2586
  407SOL    HW1 1626   0.066   2.654   1.219  1.4132 -1.9276  0.3850
  407SOL    HW2 1627   0.046   2.702   1.078  0.2143 -2.4922  0.6010
  407SOL     MW 1628   0.014   2.665   1.147  0.0009 -0.7880 -0.0603
  408SOL     OW 1629   2.175   2.153   0.674  0.1292  0.3433 -0.6494
  408SOL    HW1 1630   2.100   2.192   0.718  3.8964  2.7842 -0.3949
  408SOL    HW2 1631   2.137   2.078   0.622  0.5178  1.1528 -1.9586
  408SOL     MW 1632   2.160   2.148   0.673  0.6775  0.7722 -0.7885
  409SOL     OW 1633   1.454   0.144   0.922 -0.4499  0.1576  0.7618
  409SOL    HW1 1634   1.543   0.171   0.933  0.0448 -1.7178  1.9831
  409SOL    HW2 1635   1.448   0.059   0.970  1.2083 -0.0318 -1.5220
  409SOL     MW 1636   1.465   0.136   0.930 -0.1659 -0.1148  0.6216
  410SOL     OW 1637   1.113   2.467   1.108 -0.1071 -0.3502  0.4811
  410SOL    HW1 1638   1.051   2.524   1.065  1.5442 -1.2999  0.5973
  410SOL    HW2 1639   1.146   2.400   1.043  1.9853 -1.8914 -1.4569
  410SOL     MW 1640   1.109   2.466   1.094  0.3869 -0.6789  0.2408
  411SOL     OW 1641   1.978   0.066   2.892  0.0375  0.7124 -0.4368
  411SOL    HW1 1642   1.925   0.021   2.832 -0.1630  0.9563 -0.4040
  411SOL    HW2 1643   1.925   0.104   2.959 -0.2225 -1.6861 -2.1766
  411SOL     MW 1644   1.964   0.065   2.893 -0.0233  0.4281 -0.6620
  412SOL     OW 1645   1.020   2.261   0.600  0.6940 -0.4514 -0.4914
  412SOL    HW1 1646   1.040   2.353   0.590  0.4259 -0.4628  2.5248
  412SOL    HW2 1647   0.925   2.241   0.568 -3.0699 -0.6930  0.5101
  412SOL     MW 1648   1.010   2.271   0.594  0.1620 -0.4847  0.0387
  413SOL     OW 1649   0.581   2.743   3.054  0.4839 -0.1802 -0.3772
  413SOL    HW1 1650   0.641   2.668   3.092  0.7989 -2.5695  2.2039
  413SOL    HW2 1651   0.620   2.772   2.970  0.1055 -1.1348  4.2675
  413SOL     MW 1652   0.594   2.737   3.048  0.4755 -0.6214  0.5762
  414SOL     OW 1653   1.917   2.959   1.066 -0.3684  0.4540  0.0529
  414SOL    HW1 1654   1.841   3.006   1.038  0.0785  1.2131  3.4728
  414SOL    HW2 1655   1.987   3.003   1.013 -1.1622  0.2755 -0.9771
  414SOL     MW 1656   1.916   2.971   1.055 -0.4141  0.5306  0.3682
  415SOL     OW 1657   1.820   2.647   1.083  0.6568  0.7819 -0.0653
  415SOL    HW1 1658   1.814   2.640   1.182 -2.6757 -0.1152  0.9190
  415SOL    HW2 1659   1.830   2.738   1.058 -0.3738  0.4765  0.3137
  415SOL     MW 1660   1.821   2.658   1.093  0.0811  0.6232  0.1146
  416SOL     OW 1661   0.567   1.970   1.375 -0.4456  0.3755 -0.1603
  416SOL    HW1 1662   0.509   2.004   1.307  0.1608  2.1851 -0.7499
  416SOL    HW2 1663   0.555   1.877   1.363 -0.5576  3.1955 -1.1883
  416SOL     MW 1664   0.558   1.963   1.365 -0.3804  0.9863 -0.3737
  417SOL     OW 1665   0.996   3.060   2.074 -0.5090  0.0909  0.1069
  417SOL    HW1 1666   0.945   3.066   2.154  1.8589 -0.3524 -2.4414
  417SOL    HW2 1667   0.943   3.007   2.004  0.9087 -1.3197 -4.7126
  417SOL     MW 1668   0.982   3.054   2.075 -0.0096 -0.1537 -0.8652
  418SOL     OW 1669   0.725   2.922   0.123 -0.3193  0.0749 -0.2160
  418SOL    HW1 1670   0.810   2.899   0.083 -0.1045  1.4422 -0.7130
  418SOL    HW2 1671   0.668   2.850   0.083 -1.0557  1.9099  0.3955
  418SOL     MW 1672   0.729   2.909   0.112 -0.3881  0.4974 -0.2009
  419SOL     OW 1673   0.452   2.614   1.353  0.2023 -0.3329 -0.6065
  419SOL    HW1 1674   0.504   2.693   1.389 -0.1051 -1.3139 -4.5376
  419SOL    HW2 1675   0.492   2.598   1.262  3.1091 -0.0743  1.5795
  419SOL     MW 1676   0.464   2.623   1.346  0.5453 -0.4282 -0.8368
  420SOL     OW 1677   0.854   2.238   0.981 -0.0004  0.2206  0.7827
  420SOL    HW1 1678   0.779   2.255   1.040  0.7231  0.3452  0.6504
  420SOL    HW2 1679   0.870   2.331   0.962 -0.6930  2.7669 -2.9611
  420SOL     MW 1680   0.846   2.253   0.987  0.0037  0.5730  0.2713
  421SOL     OW 1681   2.952   0.139   3.059  0.0075  0.4234 -0.4970
  421SOL    HW1 1682   2.891   0.101   2.997  2.3963  3.7941  0.5683
  421SOL    HW2 1683   2.992   0.059   3.097  0.5001  0.7858 -3.5997
  421SOL     MW 1684   2.949   0.123   3.056  0.3877  0.9159 -0.7658
  422SOL     OW 1685   0.885   2.527   0.898  0.1382 -0.2305  0.7469
  422SOL    HW1 1686   0.884   2.621   0.916 -0.9310 -0.3745  2.2658
  422SOL    HW2 1687   0.870   2.518   0.805  1.8758  1.5054 -2.4330
  422SOL     MW 1688   0.883   2.538   0.888  0.2264 -0.0204  0.5278
  423SOL     OW 1689   1.442   0.086   0.468  0.1446 -0.2873 -0.3113
  423SOL    HW1 1690   1.455   0.071   0.374  0.8585 -0.7102 -1.0486
  423SOL    HW2 1691   1.462   0.179   0.468  0.1525 -1.9122  0.7933
  423SOL     MW 1692   1.447   0.096   0.455  0.2398 -0.5575 -0.2628
  424SOL     OW 1693   0.696   2.283   1.195 -0.0348  0.2501 -0.0343
  424SOL    HW1 1694   0.609   2.238   1.204 -2.4698 -3.0305 -0.6047
  424SOL    HW2 1695   0.745   2.246   1.269 -1.0342  0.6623 -0.2130
  424SOL     MW 1696   0.691   2.272   1.206 -0.4879 -0.1283 -0.1332
  425SOL     OW 1697   1.740   2.809   2.059 -0.4122 -0.2944 -0.3480
  425SOL    HW1 1698   1.709   2.844   1.980 -2.2240 -0.1257  0.6818
  425SOL    HW2 1699   1.777   2.719   2.058  0.9735 -0.4459 -0.3557
  425SOL     MW 1700   1.741   2.802   2.049 -0.4684 -0.2921 -0.2131
  426SOL     OW 1701   0.805   1.690   1.955  0.8401 -0.4450  0.4438
  426SOL    HW1 1702   0.735   1.720   1.901  0.1832  1.8610  1.9571
  426SOL    HW2 1703   0.812   1.754   2.025 -0.6162  0.2396 -0.1670
  426SOL     MW 1704   0.797   1.702   1.957  0.5613 -0.0504  0.5629
  427SOL     OW 1705   0.362   1.651   1.896  0.5017  0.0939 -0.3384
  427SOL    HW1 1706   0.421   1.578   1.904  0.7813  2.5890  5.2206
  427SOL    HW2 1707   0.277   1.618   1.926 -1.6537  0.9921 -0.6022
  427SOL     MW 1708   0.359   1.637   1.901  0.2542  0.5416  0.3602
  428SOL     OW 1709   0.601   2.596   1.126  0.2537  0.0721 -0.2459
  428SOL    HW1 1710   0.675   2.582   1.179  1.9291  1.6259  0.2359
  428SOL    HW2 1711   0.551   2.522   1.100  3.3029 -0.5765 -0.6282
  428SOL     MW 1712   0.604   2.584   1.130  0.8771  0.1915 -0.2327
  429SOL     OW 1713   1.257   2.783   1.110 -0.1625 -0.0663  1.1400
  429SOL    HW1 1714   1.165   2.769   1.142 -0.5456 -2.5634 -0.1785
  429SOL    HW2 1715   1.257   2.860   1.050  1.0619 -0.7270  0.1251
  429SOL     MW 1716   1.245   2.791   1.106 -0.0515 -0.4830  0.8321
  430SOL     OW 1717   1.134   2.749   0.711 -0.1697 -0.3269 -0.5613
  430SOL    HW1 1718   1.167   2.659   0.714  2.3908  1.3849  1.4353
  430SOL    HW2 1719   1.083   2.741   0.622  0.0457 -2.2182 -2.4402
  430SOL     MW 1720   1.132   2.736   0.700  0.1965 -0.3506 -0.5457
  431SOL     OW 1721   0.343   1.921   1.067 -0.3292 -0.1431  0.2746
  431SOL    HW1 1722   0.422   1.873   1.048 -0.4885 -1.0260 -0.7468
  431SOL    HW2 1723   0.297   1.932   0.982 -0.1322  0.2919 -3.3589
  431SOL     MW 1724   0.347   1.916   1.053 -0.3242 -0.2022 -0.3396
  432SOL     OW 1725   0.075   0.027   1.225 -0.0751  0.2114  0.6192
  432SOL    HW1 1726   0.080   0.103   1.281 -1.4675 -1.4863 -2.2648
  432SOL    HW2 1727  -0.004  -0.019   1.261 -0.2355  1.7610 -0.0819
  432SOL     MW 1728   0.066   0.031   1.237 -0.2800  0.1919  0.1462
  433SOL     OW 1729   0.620   2.806   1.508 -0.2732  0.2142  0.0275
  433SOL    HW1 1730   0.587   2.807   1.594  0.9199  1.4703 -3.6510
  433SOL    HW2 1731   0.709   2.842   1.527 -1.1865 -0.7580  0.3555
  433SOL     MW 1732   0.627   2.811   1.522 -0.2363  0.2516 -0.4146
  434SOL     OW 1733   1.586   2.848   1.512 -0.2882 -0.4614  0.1213
  434SOL    HW1 1734   1.487   2.848   1.508  0.0646 -2.1885 -0.1688
  434SOL    HW2 1735   1.610   2.838   1.419 -0.7079  1.6288 -1.0353
  434SOL     MW 1736   1.576   2.846   1.499 -0.2970 -0.4135 -0.0695
  435SOL     OW 1737   2.851   1.788   0.217  0.3412  0.1607  0.2413
  435SOL    HW1 1738   2.922   1.854   0.188  1.3345 -1.5247  2.0794
  435SOL    HW2 1739   2.805   1.763   0.138 -1.6902 -2.5111 -1.9001
  435SOL     MW 1740   2.854   1.794   0.203  0.2043 -0.4142  0.2013
  436SOL     OW 1741   1.327   2.702   0.415  0.6159 -0.4589  0.4741
  436SOL    HW1 1742   1.370   2.675   0.494 -0.2411  1.0930  3.8129
  436SOL    HW2 1743   1.303   2.796   0.417  0.2368 -0.3414  1.7414
  436SOL     MW 1744   1.330   2.711   0.426  0.4528 -0.2386  1.0818
  437SOL     OW 1745   0.851   2.959   1.342 -0.0253  0.1778 -0.1707
  437SOL    HW1 1746   0.889   3.046   1.341  1.7125  0.2043 -1.2936
  437SOL    HW2 1747   0.885   2.911   1.269  0.4516  1.0092  1.2892
  437SOL     MW 1748   0.860   2.964   1.333  0.2669  0.2910 -0.1262
  438SOL     OW 1749   0.817   2.635   1.851 -0.3240 -0.1951 -0.6257
  438SOL    HW1 1750   0.809   2.621   1.943  2.8601 -0.8977 -3.0967
  438SOL    HW2 1751   0.790   2.550   1.805 -2.1672  0.3773 -2.4157
  438SOL     MW 1752   0.812   2.622   1.857 -0.1471 -0.2123 -1.1879
  439SOL     OW 1753   1.237   2.179   0.432  0.1073 -0.0968 -0.3623
  439SOL    HW1 1754   1.175   2.212   0.500  2.5379  1.5739 -0.2755
  439SOL    HW2 1755   1.198   2.221   0.353 -1.7545 -0.8004  1.5177
  439SOL     MW 1756   1.224   2.189   0.430  0.1823  0.0308 -0.1028
  440SOL     OW 1757   1.767   3.017   3.071  0.3895  0.7851  0.1027
  440SOL    HW1 1758   1.700   2.979   3.132  1.6623 -1.4721 -0.2033
  440SOL    HW2 1759   1.848   2.972   3.096 -2.8097  0.8933 -2.4190
  440SOL     MW 1760   1.769   3.006   3.083  0.1353  0.5016 -0.2704
  441SOL     OW 1761   0.305   2.627   0.468 -0.2159  0.2874  0.4517
  441SOL    HW1 1762   0.288   2.612   0.379  2.0467  0.8219  0.3868
  441SOL    HW2 1763   0.378   2.692   0.461  0.0921 -1.0988 -0.7760
  441SOL     MW 1764   0.313   2.633   0.455  0.1233  0.1750  0.2812
  442SOL     OW 1765   3.075   2.430   0.615  0.5215 -0.4351  0.3362
  442SOL    HW1 1766   3.083   2.523   0.624  1.2285  3.4424 -0.8596
  442SOL    HW2 1767   3.002   2.399   0.666  1.8362 -1.6289  0.8803
  442SOL     MW 1768   3.066   2.438   0.623  0.7883 -0.0810  0.2502
  443SOL     OW 1769   1.411   1.807   1.911 -0.2124  0.0496 -0.2004
  443SOL    HW1 1770   1.380   1.859   1.838  2.4656  0.0266  0.8124
  443SOL    HW2 1771   1.340   1.754   1.939 -0.8993  0.9411 -2.8484
  443SOL     MW 1772   1.398   1.807   1.905  0.0503  0.1642 -0.4162
  444SOL     OW 1773   0.872   2.548   1.557 -0.2107  0.3503 -0.6569
  444SOL    HW1 1774   0.953   2.508   1.578  0.8065  2.6801 -1.1688
  444SOL    HW2 1775   0.804   2.515   1.617 -1.2602 -1.4716  0.5491
  444SOL     MW 1776   0.874   2.539   1.567 -0.2150  0.4173 -0.5653
  445SOL     OW 1777   1.034   0.088   1.356  0.6455  0.3087  0.0291
  445SOL    HW1 1778   0.987   0.172   1.349 -3.9368 -2.8142 -0.2712
  445SOL    HW2 1779   1.047   0.074   1.259 -1.6131 -1.8504  0.2963
  445SOL     MW 1780   1.030   0.097   1.342 -0.2571 -0.3882  0.0247
  446SOL     OW 1781   2.739   2.919   1.113  0.1895 -0.0363  0.3882
  446SOL    HW1 1782   2.684   2.964   1.049 -1.2287 -0.1591 -0.7372
  446SOL    HW2 1783   2.779   2.846   1.060 -0.2206 -0.4003 -1.7156
  446SOL     MW 1784   2.737   2.915   1.098 -0.0518 -0.1005 -0.0378
  447SOL     OW 1785   0.090   2.018   1.642  0.1867 -0.2707  0.1430
  447SOL    HW1 1786   0.117   1.929   1.661  0.1624 -0.4581 -1.4163
  447SOL    HW2 1787   0.002   1.993   1.606 -2.6708  0.5960  2.8693
  447SOL     MW 1788   0.082   2.003   1.640 -0.1935 -0.1811  0.2969
  448SOL     OW 1789   1.736   2.413   1.604  0.0148  0.3899  0.2026
  448SOL    HW1 1790   1.685   2.332   1.614 -3.1593 -0.1401  0.4624
  448SOL    HW2 1791   1.679   2.468   1.560  2.1037 -0.4725 -0.2143
  448SOL     MW 1792   1.722   2.410   1.600 -0.1284  0.2062  0.1819
  449SOL     OW 1793   0.788   2.848   0.374 -0.1900  0.5960 -0.3272
  449SOL    HW1 1794   0.750   2.861   0.280 -0.8221  0.5305 -0.7429
  449SOL    HW2 1795   0.724   2.869   0.451 -2.3066  0.6505  1.6276
  449SOL     MW 1796   0.775   2.852   0.372 -0.5527  0.5946 -0.1241
  450SOL     OW 1797   1.206   2.479   0.711  0.1710 -0.0558  0.5782
  450SOL    HW1 1798   1.189   2.408   0.767 -2.5957 -1.1887  2.6732
  450SOL    HW2 1799   1.296   2.468   0.678 -1.7776  0.4287 -1.9979
  450SOL     MW 1800   1.215   2.468   0.714 -0.4512 -0.1413  0.5147
  451SOL     OW 1801   0.569   2.097   1.639 -0.2065 -0.2256  0.0453
  451SOL    HW1 1802   0.656   2.139   1.633  1.0568 -0.3008 -0.4584
  451SOL    HW2 1803   0.549   2.060   1.553 -2.7985  0.0875 -2.3209
  451SOL     MW 1804   0.578   2.098   1.627 -0.3818 -0.1942 -0.3333
  452SOL     OW 1805   0.300   2.706   3.102 -0.4255 -0.0828  0.2042
  452SOL    HW1 1806   0.385   2.724   3.056  0.9637  1.5994  0.2213
  452SOL    HW2 1807   0.235   2.735   3.036 -0.9511  0.1202 -0.4056
  452SOL     MW 1808   0.303   2.712   3.088 -0.3115  0.1660  0.1260
  453SOL     OW 1809   0.347   2.955   1.677 -0.0677  0.6634 -0.3336
  453SOL    HW1 1810   0.427   2.946   1.727 -0.8044  1.6817 -1.9129
  453SOL    HW2 1811   0.375   2.998   1.591  0.0441  2.8179 -1.9141
  453SOL     MW 1812   0.362   2.959   1.673 -0.1502  1.0820 -0.7505
  454SOL     OW 1813   1.007   2.772   1.210 -0.0746 -0.2817  0.2064
  454SOL    HW1 1814   0.935   2.705   1.222 -3.2875  1.5824  3.2144
  454SOL    HW2 1815   1.003   2.814   1.126  0.9292 -3.3898  0.3034
  454SOL     MW 1816   0.997   2.769   1.200 -0.3660 -0.4459  0.6161
  455SOL     OW 1817   1.618   2.937   0.170  0.2575 -0.2371 -0.3928
  455SOL    HW1 1818   1.670   2.954   0.250 -0.9313  1.7082  1.7319
  455SOL    HW2 1819   1.570   2.845   0.181 -0.8653 -0.3937  1.7305
  455SOL     MW 1820   1.618   2.927   0.182 -0.0475 -0.0011  0.1677
  456SOL     OW 1821   2.761   0.366   1.455 -0.0740  0.1560  0.7163
  456SOL    HW1 1822   2.733   0.292   1.402 -0.6869 -2.4084  0.8167
  456SOL    HW2 1823   2.851   0.390   1.419  1.7894  2.3395  0.0445
  456SOL     MW 1824   2.769   0.359   1.443  0.0910  0.1058  0.6409
  457SOL     OW 1825   0.977   1.577   2.909  0.0107 -0.0987 -0.0287
  457SOL    HW1 1826   0.890   1.542   2.947 -1.9076 -4.2802  0.0093
  457SOL    HW2 1827   1.037   1.511   2.939 -0.1769  0.1013  1.1790
  457SOL     MW 1828   0.973   1.563   2.918 -0.2672 -0.6240  0.1357
  458SOL     OW 1829   1.472   1.462   0.553 -0.3431  0.6054  0.0210
  458SOL    HW1 1830   1.398   1.520   0.570  1.8777  1.7771  0.7047
  458SOL    HW2 1831   1.442   1.419   0.474  1.0193  1.3052 -2.1436
  458SOL     MW 1832   1.458   1.464   0.545  0.1297  0.8523 -0.1744
  459SOL     OW 1833   1.447   0.088   0.202  0.0754  0.0669 -0.2821
  459SOL    HW1 1834   1.429   0.037   0.125 -0.8975  0.5788  0.0183
  459SOL    HW2 1835   1.394   0.165   0.178  0.6713 -1.8184 -0.6739
  459SOL     MW 1836   1.437   0.091   0.189  0.0257 -0.1143 -0.2942
  460SOL     OW 1837   1.767   2.181   0.621 -0.9768 -0.9197 -0.0146
  460SOL    HW1 1838   1.680   2.166   0.658 -1.1690  1.1537  1.6074
  460SOL    HW2 1839   1.825   2.106   0.641  0.1618 -0.0585  2.5363
  460SOL     MW 1840   1.763   2.169   0.629 -0.8519 -0.5325  0.5360
  461SOL     OW 1841   0.370   2.378   0.574 -0.2460  0.1562  0.1379
  461SOL    HW1 1842   0.352   2.453   0.519 -0.0708  2.2528  1.5414
  461SOL    HW2 1843   0.333   2.405   0.663 -0.9610 -3.3134  0.0801
  461SOL     MW 1844   0.363   2.392   0.579 -0.3172 -0.0249  0.3154
  462SOL     OW 1845   0.412   0.309   1.310 -0.0341 -0.2308 -0.1167
  462SOL    HW1 1846   0.425   0.273   1.223  0.4479  1.3985 -1.6284
  462SOL    HW2 1847   0.504   0.320   1.348  1.4266 -2.2695 -0.2526
  462SOL     MW 1848   0.426   0.306   1.304  0.2222 -0.2848 -0.3341
  463SOL     OW 1849   0.963   0.070   0.638  0.2606 -0.1745  0.2722
  463SOL    HW1 1850   0.970   0.113   0.557  0.2307 -0.5816 -0.1922
  463SOL    HW2 1851   0.869   0.079   0.662 -0.8644  3.2054  1.2531
  463SOL     MW 1852   0.951   0.077   0.631  0.1082  0.2177  0.3404
  464SOL     OW 1853   0.843   3.071   2.307 -0.2574  0.2435 -0.1548
  464SOL    HW1 1854   0.821   2.977   2.281  0.4236  1.7965 -0.0688
  464SOL    HW2 1855   0.837   3.074   2.407 -2.1000  2.3272  2.2313
  464SOL     MW 1856   0.839   3.059   2.317 -0.4107  0.7233  0.1714
  465SOL     OW 1857   0.704   0.302   0.478  0.2113 -0.2910  0.1975
  465SOL    HW1 1858   0.633   0.286   0.541 -0.4811 -0.4068 -0.6311
  465SOL    HW2 1859   0.683   0.275   0.390 -0.5619  0.0159 -0.6941
  465SOL     MW 1860   0.692   0.297   0.475  0.0179 -0.2658 -0.0295
  466SOL     OW 1861   1.063   2.007   0.704  0.0070  0.5623  0.1117
  466SOL    HW1 1862   1.078   1.937   0.641  0.7277 -0.2023  0.5144
  466SOL    HW2 1863   1.086   2.089   0.664  0.4846  1.6530 -0.5323
  466SOL     MW 1864   1.068   2.008   0.690  0.1651  0.6053  0.0799
  467SOL     OW 1865   1.241   2.270   0.930 -0.5978 -0.2505 -0.1114
  467SOL    HW1 1866   1.333   2.308   0.918 -0.5139 -0.7726 -0.7573
  467SOL    HW2 1867   1.252   2.179   0.907 -1.0598  0.8638  0.6326
  467SOL     MW 1868   1.255   2.263   0.925 -0.6477 -0.1724 -0.0985
  468SOL     OW 1869   0.383   2.617   2.003 -0.1062  0.0374  0.4708
  468SOL    HW1 1870   0.412   2.577   1.917 -2.8760 -0.1370  2.1596
  468SOL    HW2 1871   0.343   2.703   1.974  2.6859 -0.4241 -0.3758
  468SOL     MW 1872   0.381   2.623   1.988 -0.1033 -0.0465  0.5819
  469SOL     OW 1873   0.369   2.195   1.793 -0.3160 -0.1207  0.4933
  469SOL    HW1 1874   0.288   2.142   1.803  2.1001 -0.5970  0.5150
  469SOL    HW2 1875   0.435   2.146   1.735 -1.1372 -0.6504 -3.3239
  469SOL     MW 1876   0.367   2.182   1.787 -0.1055 -0.2535 -0.0075
  470SOL     OW 1877   3.022   2.592   0.097 -0.8781  0.2495  0.4618
  470SOL    HW1 1878   2.951   2.579   0.160  0.6869 -2.1408 -1.4747
  470SOL    HW2 1879   2.967   2.581   0.021 -2.2148 -0.1988  1.6557
  470SOL     MW 1880   3.005   2.589   0.095 -0.8480 -0.1250  0.3638
  471SOL     OW 1881   1.146   2.695   1.450  0.4371 -0.1227  0.5604
  471SOL    HW1 1882   1.091   2.730   1.515  0.0056 -2.8946  1.1798
  471SOL    HW2 1883   1.110   2.723   1.362  0.9427  3.4690 -1.5713
  471SOL     MW 1884   1.134   2.704   1.447  0.4469 -0.0146  0.3609
  472SOL     OW 1885   2.888   2.122   0.386 -0.1636  0.3321 -0.5988
  472SOL    HW1 1886   2.862   2.093   0.299  0.0289  0.9737  1.7687
  472SOL    HW2 1887   2.862   2.044   0.436 -0.5601 -0.7471 -0.8541
  472SOL     MW 1888   2.881   2.108   0.381 -0.1905  0.2744 -0.3201
  473SOL     OW 1889   0.850   2.561   1.271 -0.1749  0.3288 -0.8293
  473SOL    HW1 1890   0.895   2.485   1.238 -1.4770  1.4843  0.6536
  473SOL    HW2 1891   0.854   2.557   1.370 -2.3531  0.4201  0.2284
  473SOL     MW 1892   0.856   2.551   1.280 -0.6341  0.4933 -0.4941
  474SOL     OW 1893   0.881   2.119   1.794  0.0916  0.0318  0.0108
  474SOL    HW1 1894   0.955   2.173   1.814 -1.5540 -3.1247 -0.3004
  474SOL    HW2 1895   0.863   2.130   1.698 -1.7510 -2.3418 -0.2962
  474SOL     MW 1896   0.889   2.127   1.784 -0.3686 -0.6978 -0.0708
  475SOL     OW 1897   1.659   0.008   1.465  0.0075 -0.1691  0.7924
  475SOL    HW1 1898   1.581   0.030   1.421  0.0635  3.1841  1.2090
  475SOL    HW2 1899   1.632  -0.071   1.514 -0.8933  1.0204  2.8661
  475SOL     MW 1900   1.645   0.000   1.466 -0.1040  0.4303  1.1210
  476SOL     OW 1901   1.400   2.601   0.941 -0.0168  0.0597  0.5538
  476SOL    HW1 1902   1.341   2.654   0.994  2.1085 -1.8639 -1.4275
  476SOL    HW2 1903   1.461   2.656   0.889 -1.2250 -0.6039  0.8501
  476SOL     MW 1904   1.400   2.615   0.941  0.1042 -0.2817  0.3314
  477SOL     OW 1905   0.783   2.521   0.634 -0.1090 -0.6023  0.2529
  477SOL    HW1 1906   0.830   2.580   0.575 -1.6614 -3.0158  0.0224
  477SOL    HW2 1907   0.767   2.436   0.588  1.1406  0.5917 -1.0198
  477SOL     MW 1908   0.787   2.517   0.620 -0.1489 -0.7632  0.0545
  478SOL     OW 1909   0.144   2.726   0.937  0.7461  0.2094 -0.1087
  478SOL    HW1 1910   0.224   2.778   0.930 -1.5491 -1.8995 -1.0780
  478SOL    HW2 1911   0.155   2.673   0.856 -2.4944 -2.8085 -2.9620
  478SOL     MW 1912   0.156   2.726   0.926  0.0157 -0.4671 -0.6130
  479SOL     OW 1913   1.437   1.987   1.277  0.1993  0.0213 -0.1419
  479SOL    HW1 1914   1.400   2.030   1.357  1.9271 -0.0192  1.8341
  479SOL    HW2 1915   1.511   1.928   1.310 -1.5666  0.4716  2.6376
  479SOL     MW 1916   1.442   1.985   1.292  0.1943  0.0753  0.4855
  480SOL     OW 1917   1.881   2.366   1.332  0.1900  0.4391 -0.1626
  480SOL    HW1 1918   1.860   2.281   1.367  0.4190  0.8175 -1.7489
  480SOL    HW2 1919   1.930   2.342   1.250 -0.3784  3.2398 -2.9327
  480SOL     MW 1920   1.885   2.351   1.326  0.1453  0.8586 -0.7374
  481SOL     OW 1921   0.997   0.035   1.048 -0.6614  0.6896 -0.9569
  481SOL    HW1 1922   1.036  -0.015   0.981  0.9557  0.7691 -0.0813
  481SOL    HW2 1923   1.059   0.106   1.048 -0.2184  3.1904 -0.5235
  481SOL     MW 1924   1.010   0.038   1.039 -0.3896  1.0301 -0.7842
  482SOL     OW 1925   1.014   3.015   0.299  0.6859 -0.1090 -0.5490
  482SOL    HW1 1926   0.932   2.974   0.331  0.3921  0.7698 -3.5898
  482SOL    HW2 1927   0.993   3.091   0.248  0.9306  0.5941  1.7817
  482SOL     MW 1928   1.000   3.020   0.296  0.6794  0.0997 -0.6427
  483SOL     OW 1929   0.416   2.911   0.455  0.0553  0.0243  0.7353
  483SOL    HW1 1930   0.329   2.921   0.418 -0.1017 -0.0863 -0.4265
  483SOL    HW2 1931   0.410   2.960   0.536  1.2960 -0.0817  0.2638
  483SOL     MW 1932   0.404   2.919   0.461  0.1983 -0.0043  0.5198
  484SOL     OW 1933   1.672   1.876   1.375 -0.2179 -0.1366 -0.1992
  484SOL    HW1 1934   1.738   1.943   1.353 -1.3780  0.4612 -0.6957
  484SOL    HW2 1935   1.651   1.900   1.466  1.0782 -1.4111  0.8866
  484SOL     MW 1936   1.678   1.888   1.384 -0.1999 -0.2259 -0.1214
  485SOL     OW 1937   0.544   2.420   0.224  0.0935 -0.6411 -0.3961
  485SOL    HW1 1938   0.559   2.411   0.321 -1.0529 -1.6843  3.4717
  485SOL    HW2 1939   0.454   2.455   0.227  1.6959 -1.0187 -1.1393
  485SOL     MW 1940   0.534   2.424   0.237  0.1537 -0.8285  0.0162
  486SOL     OW 1941   0.123   2.378   1.487  0.2546  0.3421  0.1802
  486SOL    HW1 1942   0.139   2.461   1.439  1.2282 -0.2397  3.1230
  486SOL    HW2 1943   0.110   2.397   1.580 -0.2088 -0.9165  1.8648
  486SOL     MW 1944   0.124   2.391   1.493  0.3219  0.0993  0.7907
  487SOL     OW 1945   1.275   1.640   1.028  0.1263  0.2018  0.3558
  487SOL    HW1 1946   1.276   1.731   1.059 -2.1007  0.0055  0.1212
  487SOL    HW2 1947   1.351   1.619   0.987 -0.7587 -0.6029 -0.2366
  487SOL     MW 1948   1.285   1.650   1.027 -0.2843  0.0697  0.2467
  488SOL     OW 1949   1.668   1.868   0.552 -0.5234  0.2691 -0.0489
  488SOL    HW1 1950   1.761   1.900   0.536  0.1517 -2.5901 -3.6402
  488SOL    HW2 1951   1.612   1.945   0.539  1.0565  0.2898 -3.6261
  488SOL     MW 1952   1.673   1.883   0.548 -0.2258 -0.1054 -0.9947
  489SOL     OW 1953   0.661   0.764   0.563 -0.5502 -0.0108  0.7350
  489SOL    HW1 1954   0.720   0.695   0.538 -0.1553  2.5040  0.7004
  489SOL    HW2 1955   0.642   0.763   0.652 -0.2728  0.0824  0.7501
  489SOL     MW 1956   0.667   0.755   0.571 -0.4615  0.3333  0.7324
  490SOL     OW 1957   1.456   2.019   0.422  0.3523 -0.0174  0.0886
  490SOL    HW1 1958   1.499   1.989   0.335  1.2466  0.8816 -1.9714
  490SOL    HW2 1959   1.408   2.104   0.408 -0.6855  1.0183  0.6547
  490SOL     MW 1960   1.455   2.026   0.408  0.3334  0.2379 -0.1085
  491SOL     OW 1961   1.202   2.930   0.472 -0.0275  0.1205 -0.0231
  491SOL    HW1 1962   1.201   3.005   0.534  4.0711  0.5782 -0.3075
  491SOL    HW2 1963   1.135   2.951   0.408 -0.0467  0.3815  1.1000
  491SOL     MW 1964   1.193   2.943   0.471  0.5107  0.2153  0.0876
  492SOL     OW 1965   1.505   2.072   0.708  0.4595  0.5642  0.5726
  492SOL    HW1 1966   1.438   2.057   0.640 -0.3103 -2.1489 -0.5843
  492SOL    HW2 1967   1.461   2.036   0.784 -1.2975  0.5923  2.3983
  492SOL     MW 1968   1.491   2.065   0.709  0.1261  0.2099  0.6609
  493SOL     OW 1969   0.181   2.968   0.330  0.5746  0.4685 -0.5556
  493SOL    HW1 1970   0.126   3.023   0.390 -0.1700  1.2526 -0.2978
  493SOL    HW2 1971   0.203   3.028   0.256  1.3094  1.1621 -1.8757
  493SOL     MW 1972   0.176   2.983   0.328  0.5733  0.6634 -0.6957
  494SOL     OW 1973   0.430   2.465   1.781  0.3903  0.4114  0.6949
  494SOL    HW1 1974   0.395   2.375   1.793  1.8238 -0.1053  0.1320
  494SOL    HW2 1975   0.468   2.459   1.696  2.4317  0.3657 -0.0497
  494SOL     MW 1976   0.431   2.453   1.772  0.8488  0.3372  0.5224
  495SOL     OW 1977   2.931   1.690   2.612  0.1189 -0.1040 -0.3286
  495SOL    HW1 1978   2.914   1.782   2.603 -1.6796 -0.2310  2.0332
  495SOL    HW2 1979   2.923   1.665   2.704 -1.7462 -1.1823 -2.4835
  495SOL     MW 1980   2.928   1.699   2.623 -0.3645 -0.2631 -0.3013
  496SOL     OW 1981   2.881   2.325   2.681  0.1212  0.1555  0.1596
  496SOL    HW1 1982   2.899   2.240   2.713 -0.4508 -0.9807  2.0723
  496SOL    HW2 1983   2.964   2.390   2.671  0.7137  0.5444  1.7444
  496SOL     MW 1984   2.894   2.322   2.684  0.1239  0.0569  0.6211
  497SOL     OW 1985   1.592   2.264   2.646 -0.0642 -0.4849  0.0057
  497SOL    HW1 1986   1.545   2.218   2.578 -1.7374  0.5052  0.1165
  497SOL    HW2 1987   1.565   2.225   2.730 -0.9680  1.4029  0.0839
  497SOL     MW 1988   1.582   2.252   2.648 -0.4042 -0.1052  0.0306
  498SOL     OW 1989   1.521   2.734   2.379 -0.3288  0.5546  0.4033
  498SOL    HW1 1990   1.521   2.642   2.335  2.0746 -0.8812 -3.2364
  498SOL    HW2 1991   1.588   2.739   2.442 -0.9919 -1.6334 -0.1777
  498SOL     MW 1992   1.529   2.723   2.381 -0.0992  0.0765 -0.1536
  499SOL     OW 1993   0.916   0.083   0.039  0.3773 -0.0648 -0.4446
  499SOL    HW1 1994   0.850   0.103   0.104  2.1267  3.6355 -1.2252
  499SOL    HW2 1995   0.912  -0.019   0.028 -1.2158 -1.2569  0.3099
  499SOL     MW 1996   0.907   0.072   0.046  0.3980  0.2661 -0.4481
  500SOL     OW 1997   1.124   2.514   2.757  0.7500  0.0296  0.6008
  500SOL    HW1 1998   1.152   2.456   2.833  0.0496  1.3837  3.0757
  500SOL    HW2 1999   1.042   2.551   2.792 -1.3853  1.3857 -0.8146
  500SOL     MW 2000   1.117   2.511   2.771  0.3759  0.3872  0.7406
  501SOL     OW 2001   1.748   2.240   3.069  0.4681 -0.3433 -0.1723
  501SOL    HW1 2002   1.734   2.313   3.119  5.1605 -2.2825 -0.3242
  501SOL    HW2 2003   1.847   2.233   3.061  1.4763  2.2322 -1.4093
  501SOL     MW 2004   1.759   2.249   3.074  1.2203 -0.2593 -0.3556
  502SOL     OW 2005   0.061   2.807   2.950  0.3381  0.4085 -0.1268
  502SOL    HW1 2006  -0.020   2.761   2.921  3.5172 -0.1728  2.3026
  502SOL    HW2 2007   0.085   2.878   2.887 -0.3481 -2.5204 -0.0810
  502SOL     MW 2008   0.053   2.811   2.938  0.6670 -0.0546  0.1998
  503SOL     OW 2009   1.099   2.670   2.034 -0.1785  0.1820  0.8139
  503SOL    HW1 2010   1.183   2.689   1.996 -2.2843  1.1122  2.4667
  503SOL    HW2 2011   1.034   2.651   1.966  1.5431  0.6238  2.1509
  503SOL     MW 2012   1.101   2.670   2.020 -0.2292  0.3630  1.2083
  504SOL     OW 2013   0.005   2.696   2.081 -0.4176  0.4533 -0.0966
  504SOL    HW1 2014   0.057   2.618   2.063 -1.4025  0.1348  1.5877
  504SOL    HW2 2015  -0.084   2.660   2.090 -0.8139 -4.0848 -0.9783
  504SOL     MW 2016  -0.000   2.681   2.080 -0.5998 -0.1875  0.0093
  505SOL     OW 2017   1.661   2.625   2.815  0.5819 -0.1715  0.8305
  505SOL    HW1 2018   1.707   2.630   2.731  0.4698 -2.0901  2.6140
  505SOL    HW2 2019   1.605   2.700   2.799  0.3659 -1.2277 -0.8793
  505SOL     MW 2020   1.660   2.636   2.802  0.5386 -0.5640  0.8402
  506SOL     OW 2021   1.599   3.084   2.858 -0.3196  0.3493 -0.0178
  506SOL    HW1 2022   1.643   3.077   2.944  0.9942 -3.9232 -1.1810
  506SOL    HW2 2023   1.678   3.079   2.800 -3.3022  0.2317  0.8029
  506SOL     MW 2024   1.615   3.083   2.862 -0.5398 -0.2299 -0.0630
  507SOL     OW 2025   0.912   2.661   2.850 -0.5439 -0.0867 -0.1551
  507SOL    HW1 2026   0.944   2.726   2.788 -2.6712  0.4517  0.2637
  507SOL    HW2 2027   0.820   2.678   2.867 -0.0963  1.2126  0.2715
  507SOL     MW 2028   0.904   2.672   2.844 -0.7656  0.1558 -0.0436
  508SOL     OW 2029   1.173   2.115   2.504 -0.2493 -0.4259 -0.0560
  508SOL    HW1 2030   1.226   2.092   2.582 -2.5690 -0.1087 -0.7671
  508SOL    HW2 2031   1.115   2.190   2.531 -2.9946  3.3762  0.6091
  508SOL     MW 2032   1.172   2.121   2.518 -0.9175  0.1176 -0.0621
  509SOL     OW 2033   0.614   2.607   2.757  0.2693  0.0564 -0.5698
  509SOL    HW1 2034   0.640   2.547   2.684 -0.9211 -0.9506 -0.3218
  509SOL    HW2 2035   0.542   2.563   2.798 -0.7548  1.2938  0.8158
  509SOL     MW 2036   0.608   2.593   2.753 -0.0229  0.0868 -0.3543
  510SOL     OW 2037   1.491   2.601   1.678  0.1480  0.1925  0.1039
  510SOL    HW1 2038   1.550   2.669   1.676 -2.6176 -2.3550 -1.7133
  510SOL    HW2 2039   1.449   2.620   1.764  0.0685  0.4678  1.4451
  510SOL     MW 2040   1.493   2.612   1.689 -0.2274 -0.1073  0.0411
  511SOL     OW 2041   0.431   2.629   2.432 -0.2315 -0.2005  0.1386
  511SOL    HW1 2042   0.517   2.563   2.430  0.5422 -1.3581  1.9040
  511SOL    HW2 2043   0.460   2.686   2.361  0.4816 -0.7770  2.3964
  511SOL     MW 2044   0.446   2.628   2.422 -0.0353 -0.4293  0.6694
  512SOL     OW 2045   0.978   2.029   2.812  0.2588  0.6026  0.1919
  512SOL    HW1 2046   0.892   2.042   2.861 -0.1190  1.0940  1.6704
  512SOL    HW2 2047   1.010   1.948   2.854 -1.1332  1.5389 -1.5170
  512SOL     MW 2048   0.971   2.020   2.824  0.0253  0.7910  0.1615
  513SOL     OW 2049   1.609   2.491   2.266 -0.7758 -0.3317  0.0636
  513SOL    HW1 2050   1.666   2.512   2.193 -3.0397 -0.0355 -0.6724
  513SOL    HW2 2051   1.674   2.462   2.330  1.8987 -0.7481 -3.9139
  513SOL     MW 2052   1.625   2.490   2.265 -0.7216 -0.3476 -0.5583
  514SOL     OW 2053   0.228   2.501   2.631 -0.3012  0.2346  0.1198
  514SOL    HW1 2054   0.258   2.556   2.551  0.0054  1.9927  2.4986
  514SOL    HW2 2055   0.301   2.502   2.689  1.8427  1.3192 -1.4067
  514SOL     MW 2056   0.242   2.508   2.628  0.0221  0.6096  0.2322
  515SOL     OW 2057   1.158   2.006   2.041 -0.3887  0.0498  0.6184
  515SOL    HW1 2058   1.135   2.081   1.987 -2.2669  1.9371 -0.4123
  515SOL    HW2 2059   1.253   2.018   2.054 -0.7940 -0.0958  0.0412
  515SOL     MW 2060   1.167   2.017   2.036 -0.6900  0.2796  0.4062
  516SOL     OW 2061   1.469   2.482   0.015  0.4612  0.3101 -0.3307
  516SOL    HW1 2062   1.470   2.427  -0.067  0.0672  2.6485  0.1331
  516SOL    HW2 2063   1.406   2.544  -0.016 -0.2064 -0.7508  0.1860
  516SOL     MW 2064   1.461   2.483   0.000  0.3212  0.4787 -0.2014
  517SOL     OW 2065   0.562   2.433   2.169 -0.0639 -0.2820 -0.9287
  517SOL    HW1 2066   0.500   2.489   2.124 -1.2370 -2.3517 -1.5938
  517SOL    HW2 2067   0.509   2.345   2.159 -1.7462 -2.2874 -1.3126
  517SOL     MW 2068   0.547   2.429   2.162 -0.4406 -0.8197 -1.0671
  518SOL     OW 2069   1.783   0.198   3.076 -0.8588  0.0639 -0.3171
  518SOL    HW1 2070   1.752   0.231   3.159 -0.7089  0.3541  2.1763
  518SOL    HW2 2071   1.789   0.099   3.088 -2.7397 -1.0247  0.5337
  518SOL     MW 2072   1.780   0.189   3.088 -1.0872 -0.0415  0.1241
  519SOL     OW 2073   0.717   2.401   1.760 -0.0862 -0.4804  0.5194
  519SOL    HW1 2074   0.747   2.311   1.775  0.9487  0.0680 -1.4328
  519SOL    HW2 2075   0.623   2.396   1.756 -1.5893  0.5571 -0.2402
  519SOL     MW 2076   0.708   2.389   1.762 -0.1480 -0.2711  0.1616
  520SOL     OW 2077   1.164   2.123   2.988  0.0582  0.0129 -0.2794
  520SOL    HW1 2078   1.108   2.088   2.917  0.6750 -1.9247 -0.3357
  520SOL    HW2 2079   1.173   2.048   3.053  0.4275 -1.8807 -0.7417
  520SOL     MW 2080   1.158   2.109   2.987  0.1883 -0.4926 -0.3478
  521SOL     OW 2081   1.721   2.015   2.160 -0.0898  0.8100 -0.0094
  521SOL    HW1 2082   1.809   2.016   2.117  0.7562 -1.6504 -1.5676
  521SOL    HW2 2083   1.684   1.946   2.103 -0.1251 -0.6207  1.1835
  521SOL     MW 2084   1.728   2.006   2.147  0.0171  0.2966 -0.0576
  522SOL     OW 2085   2.889   2.521   2.242 -0.7342  0.3881 -0.6171
  522SOL    HW1 2086   2.967   2.464   2.254  2.0035 -1.6752  0.0860
  522SOL    HW2 2087   2.905   2.599   2.290 -3.5228 -2.2923 -1.8086
  522SOL     MW 2088   2.901   2.524   2.250 -0.7409 -0.2378 -0.6815
  523SOL     OW 2089   0.946   1.587   2.166  0.0124 -0.3557  0.6639
  523SOL    HW1 2090   0.904   1.604   2.080  2.7765  0.0540 -1.9433
  523SOL    HW2 2091   0.989   1.508   2.147  0.8489  1.7974  0.0639
  523SOL     MW 2092   0.946   1.579   2.152  0.4874 -0.0176  0.2408
  524SOL     OW 2093   0.678   2.432   2.951  1.1778 -0.1264 -0.1030
  524SOL    HW1 2094   0.708   2.480   2.873 -2.9020 -1.4984  2.5007
  524SOL    HW2 2095   0.728   2.347   2.945 -1.6903  1.1948 -1.2932
  524SOL     MW 2096   0.689   2.427   2.940  0.2611 -0.1331  0.0835
  525SOL     OW 2097   0.382   2.259   2.056 -0.5331  0.2967  0.4725
  525SOL    HW1 2098   0.348   2.200   2.131 -1.2696 -0.8468  3.9386
  525SOL    HW2 2099   0.366   2.209   1.967 -1.4473  0.1779 -0.9891
  525SOL     MW 2100   0.375   2.245   2.054 -0.7509  0.1302  0.7370
  526SOL     OW 2101   0.695   1.992   1.964 -0.2970  0.6361 -0.4026
  526SOL    HW1 2102   0.763   2.007   1.902  1.4050  1.7266  0.3446
  526SOL    HW2 2103   0.670   2.078   2.001 -0.8444 -0.0518 -0.4178
  526SOL     MW 2104   0.701   2.005   1.961 -0.1447  0.6892 -0.3060
  527SOL     OW 2105   1.436   2.017   2.076  0.5710 -0.1207  0.0943
  527SOL    HW1 2106   1.417   1.998   2.166  1.3367  3.0911 -0.4649
  527SOL    HW2 2107   1.433   1.942   2.011  0.0570 -3.0025  1.8301
  527SOL     MW 2108   1.433   2.004   2.079  0.6042 -0.0772  0.2496
  528SOL     OW 2109   0.718   2.863   2.858 -0.2099  0.3874 -0.1175
  528SOL    HW1 2110   0.693   2.953   2.881 -0.1766 -0.3294  0.9303
  528SOL    HW2 2111   0.668   2.842   2.778 -0.6640  0.3486  0.6354
  528SOL     MW 2112   0.708   2.872   2.851 -0.2654  0.2877  0.1201
  529SOL     OW 2113   1.089   2.247   1.892  0.2410  0.4652 -0.6772
  529SOL    HW1 2114   1.045   2.298   1.963  1.2323  0.9725 -0.0826
  529SOL    HW2 2115   1.104   2.302   1.817 -1.0062 -4.8595  0.5804
  529SOL     MW 2116   1.085   2.261   1.891  0.2073 -0.1704 -0.4328
  530SOL     OW 2117   1.146   2.395   2.980 -0.0384  0.1121 -0.2367
  530SOL    HW1 2118   1.053   2.393   2.998  0.7437  0.0201 -2.8566
  530SOL    HW2 2119   1.179   2.307   2.997  0.9329 -0.3441 -1.9900
  530SOL     MW 2120   1.138   2.383   2.985  0.1929  0.0398 -0.8137
  531SOL     OW 2121   0.905   1.873   2.580 -0.4835 -0.2546 -0.0835
  531SOL    HW1 2122   0.913   1.948   2.645 -0.1445  1.0206  1.2552
  531SOL    HW2 2123   0.892   1.789   2.625 -0.9719 -0.0678 -1.7539
  531SOL     MW 2124   0.904   1.872   2.595 -0.5032 -0.0617 -0.1273
  532SOL     OW 2125   1.754   0.327   2.831  0.1533 -0.2447  0.4298
  532SOL    HW1 2126   1.744   0.284   2.918 -0.4545  2.1865  0.7442
  532SOL    HW2 2127   1.826   0.381   2.852 -1.2523 -2.8795 -0.4996
  532SOL     MW 2128   1.762   0.328   2.845 -0.1123 -0.2716  0.3487
  533SOL     OW 2129   1.910   2.652   3.005  0.6360 -0.0921 -0.0469
  533SOL    HW1 2130   1.880   2.602   3.079 -0.5186 -2.1095 -0.7376
  533SOL    HW2 2131   1.833   2.669   2.962  4.5401 -0.4377  0.3719
  533SOL     MW 2132   1.896   2.648   3.009  0.9988 -0.4039 -0.0828
  534SOL     OW 2133   1.774   2.404   2.473 -0.1857  0.2188  0.3397
  534SOL    HW1 2134   1.716   2.347   2.528 -0.7455 -0.6789  0.5013
  534SOL    HW2 2135   1.838   2.413   2.542 -1.0796  1.7445 -1.4999
  534SOL     MW 2136   1.775   2.397   2.489 -0.3775  0.3016  0.1183
  535SOL     OW 2137   1.892   2.362   1.836  0.6440  0.0670  0.1522
  535SOL    HW1 2138   1.823   2.394   1.776  0.3435 -2.3873  0.1592
  535SOL    HW2 2139   1.969   2.414   1.815  0.9019 -2.0719  0.3234
  535SOL     MW 2140   1.893   2.373   1.826  0.6384 -0.5390  0.1757
  536SOL     OW 2141   0.440   1.847   2.052 -0.0793 -0.2867 -0.2158
  536SOL    HW1 2142   0.416   1.779   1.990  1.7589 -0.0199  0.6212
  536SOL    HW2 2143   0.516   1.881   2.005 -2.1759 -0.4033  1.8088
  536SOL     MW 2144   0.447   1.843   2.038 -0.1134 -0.2669  0.1618
  537SOL     OW 2145   1.022   0.193   2.852  0.1483  0.0168  0.1821
  537SOL    HW1 2146   0.984   0.185   2.935  1.0603  3.4150 -0.9044
  537SOL    HW2 2147   1.050   0.284   2.835  1.9195  2.0312 -2.9953
  537SOL     MW 2148   1.021   0.204   2.860  0.5024  0.7309 -0.3805
  538SOL     OW 2149   1.360   0.042   2.992  0.2027  0.4033  0.0749
  538SOL    HW1 2150   1.318   0.125   2.968  1.7357  0.6129  2.3285
  538SOL    HW2 2151   1.434   0.033   2.929 -0.4681  2.7594 -0.1605
  538SOL     MW 2152   1.364   0.052   2.981  0.3165  0.7418  0.3412
  539SOL     OW 2153   0.747   2.767   2.523 -0.0579  0.3181 -0.5286
  539SOL    HW1 2154   0.825   2.799   2.574 -1.6391 -0.9772 -0.3272
  539SOL    HW2 2155   0.725   2.678   2.560  0.2983 -0.4158  0.3798
  539SOL     MW 2156   0.755   2.759   2.534 -0.2195  0.0503 -0.3822
  540SOL     OW 2157   0.412   2.415   2.840  0.1527  0.2010  0.2971
  540SOL    HW1 2158   0.489   2.398   2.895 -1.8789  0.3313  2.0982
  540SOL    HW2 2159   0.342   2.398   2.904  1.0605 -1.1277  0.9435
  540SOL     MW 2160   0.413   2.410   2.856  0.0045  0.0429  0.6200
  541SOL     OW 2161   0.195   2.941   2.213 -0.3726 -0.2902 -0.7200
  541SOL    HW1 2162   0.212   2.866   2.151 -2.1695 -1.9887  1.9182
  541SOL    HW2 2163   0.231   2.922   2.299  1.1894 -0.2764  1.0508
  541SOL     MW 2164   0.202   2.928   2.216 -0.4036 -0.5125 -0.1383
  542SOL     OW 2165   1.009   2.286   2.644  0.0916 -0.4123  0.2651
  542SOL    HW1 2166   1.008   2.223   2.723  2.2930  2.0448  3.2658
  542SOL    HW2 2167   1.043   2.367   2.678 -3.2819  0.5028  1.5442
  542SOL     MW 2168   1.013   2.289   2.659 -0.0630  0.0326  0.8298
  543SOL     OW 2169   1.464   2.440   2.840  0.2003 -0.1549  0.7131
  543SOL    HW1 2170   1.454   2.414   2.752  1.1035  1.0251  0.5920
  543SOL    HW2 2171   1.542   2.505   2.836  1.6212 -0.2256 -0.7777
  543SOL     MW 2172   1.473   2.445   2.828  0.5069 -0.0086  0.5005
  544SOL     OW 2173   0.717   0.216   2.756  0.3491 -0.1999  0.4053
  544SOL    HW1 2174   0.622   0.244   2.760 -3.3604  2.0043 -0.1945
  544SOL    HW2 2175   0.736   0.152   2.689  1.1542 -1.2426  0.5905
  544SOL     MW 2176   0.707   0.212   2.748 -0.0341 -0.0466  0.3506
  545SOL     OW 2177   1.583   2.197   2.313  0.4166 -0.0007  0.0317
  545SOL    HW1 2178   1.606   2.287   2.299  1.2402  0.3023 -0.2261
  545SOL    HW2 2179   1.640   2.142   2.261 -2.7883 -1.6319 -0.6823
  545SOL     MW 2180   1.594   2.201   2.305  0.1024 -0.1759 -0.0965
  546SOL     OW 2181   3.019   1.986   0.116  0.1172  0.1376 -0.0079
  546SOL    HW1 2182   3.003   2.057   0.054  0.4723  2.1074 -0.6802
  546SOL    HW2 2183   3.114   1.976   0.110  2.5349  0.0261 -0.3097
  546SOL     MW 2184   3.029   1.994   0.107  0.4831  0.3828 -0.1365
  547SOL     OW 2185   0.275   3.053   0.086 -0.4984  0.0842 -0.5249
  547SOL    HW1 2186   0.325   3.106   0.022 -2.8905 -3.3096  1.0767
  547SOL    HW2 2187   0.264   2.970   0.048 -1.2551  3.4266 -2.0632
  547SOL     MW 2188   0.280   3.049   0.072 -0.9139  0.0774 -0.5165
  548SOL     OW 2189   0.293   2.516   0.203  0.1591 -0.0154 -0.2966
  548SOL    HW1 2190   0.295   2.576   0.122  0.0775 -1.8850 -0.1570
  548SOL    HW2 2191   0.219   2.453   0.191  1.4944 -3.7780 -0.4224
  548SOL     MW 2192   0.283   2.516   0.191  0.3245 -0.7585 -0.2948
  549SOL     OW 2193   0.858   1.886   2.145  0.2548  0.2697  0.3208
  549SOL    HW1 2194   0.799   1.942   2.092  1.3066 -1.1604  3.2372
  549SOL    HW2 2195   0.819   1.866   2.235 -1.4613  2.1596  0.9265
  549SOL     MW 2196   0.845   1.891   2.150  0.1672  0.3304  0.7855
  550SOL     OW 2197   1.782   1.740   2.605  0.0842  0.5671  0.3730
  550SOL    HW1 2198   1.794   1.717   2.506 -2.2904  0.2616 -0.9260
  550SOL    HW2 2199   1.760   1.831   2.625 -1.8666  0.2272 -2.0708
  550SOL     MW 2200   1.781   1.749   2.594 -0.4865  0.4820 -0.1208
  551SOL     OW 2201   0.849   2.260   0.221 -0.4848  0.1499 -0.3823
  551SOL    HW1 2202   0.945   2.252   0.220 -0.1667  0.2173  0.7169
  551SOL    HW2 2203   0.803   2.197   0.166 -0.8845  1.5296  0.9457
  551SOL     MW 2204   0.855   2.251   0.213 -0.4956  0.3408 -0.0620
  552SOL     OW 2205   1.779   1.690   2.353 -0.5589 -0.0527  0.3474
  552SOL    HW1 2206   1.687   1.709   2.324  1.1973  0.5719 -1.0672
  552SOL    HW2 2207   1.792   1.643   2.263  0.6733 -3.6883 -3.1052
  552SOL     MW 2208   1.769   1.686   2.337 -0.1646 -0.4499 -0.2948
  553SOL     OW 2209   1.245   2.321   1.481  1.0286 -0.0381  0.0032
  553SOL    HW1 2210   1.282   2.234   1.498 -2.6456  0.5995 -1.3273
  553SOL    HW2 2211   1.310   2.371   1.435  0.7118  0.9435  0.4364
  553SOL     MW 2212   1.258   2.316   1.477  0.5021  0.1755 -0.1152
  554SOL     OW 2213   0.536   2.907   2.636 -0.0966 -0.0222 -0.0332
  554SOL    HW1 2214   0.519   3.002   2.608 -0.3111  3.1494 -0.6198
  554SOL    HW2 2215   0.592   2.869   2.568  0.0691 -0.4675  0.1865
  554SOL     MW 2216   0.541   2.915   2.623 -0.1030  0.3375 -0.0816
  555SOL     OW 2217   0.693   2.499   2.522  0.3351  0.1284 -0.0740
  555SOL    HW1 2218   0.631   2.421   2.534 -1.0705  3.2399  0.6612
  555SOL    HW2 2219   0.776   2.462   2.474  1.9544 -0.6791 -1.2688
  555SOL     MW 2220   0.696   2.484   2.517  0.3633  0.4324 -0.1346
  556SOL     OW 2221   0.956   1.871   0.139  0.0826  0.3097 -0.1148
  556SOL    HW1 2222   0.994   1.830   0.059  1.2127 -0.7810  1.0639
  556SOL    HW2 2223   1.036   1.897   0.185  2.2280 -1.7627  0.5519
  556SOL     MW 2224   0.972   1.869   0.135  0.5148 -0.1076  0.1287
  557SOL     OW 2225   0.954   2.681   0.512 -0.1052  0.3860  0.1550
  557SOL    HW1 2226   0.996   2.635   0.438 -1.0954  2.3956  2.9385
  557SOL    HW2 2227   0.895   2.748   0.467  0.0803  3.5546 -0.1584
  557SOL     MW 2228   0.951   2.684   0.496 -0.2114  1.0692  0.4809
  558SOL     OW 2229   0.236   2.321   3.021 -0.1304  0.5203 -0.3357
  558SOL    HW1 2230   0.187   2.245   2.997  0.0302  1.4134 -2.4332
  558SOL    HW2 2231   0.171   2.360   3.080 -1.7788  0.6270  0.9685
  558SOL     MW 2232   0.221   2.316   3.026 -0.3267  0.6522 -0.4404
  559SOL     OW 2233   0.977   2.340   2.117 -0.5837  0.1152 -0.0740
  559SOL    HW1 2234   1.063   2.369   2.150 -2.9777  0.3485  1.4473
  559SOL    HW2 2235   0.951   2.272   2.184  0.8322  0.7785 -3.1905
  559SOL     MW 2236   0.985   2.335   2.130 -0.7127  0.2335 -0.2845
  560SOL     OW 2237   1.995   2.874   0.026 -0.3677  0.1111  0.1638
  560SOL    HW1 2238   2.071   2.910  -0.024 -2.0405 -0.0602  0.1572
  560SOL    HW2 2239   1.964   2.797  -0.028 -1.1723 -0.6094 -1.7794
  560SOL     MW 2240   2.001   2.868   0.012 -0.6946 -0.0066 -0.0935
  561SOL     OW 2241   0.416   2.209   0.108  0.3612  0.0406 -0.7858
  561SOL    HW1 2242   0.371   2.272   0.044 -0.2273 -0.0095 -2.8328
  561SOL    HW2 2243   0.494   2.266   0.129  0.3900  0.6267 -1.5858
  561SOL     MW 2244   0.420   2.225   0.102  0.2874  0.1113 -1.1614
  562SOL     OW 2245   0.676   2.176   2.167 -0.6694  0.2994  0.2267
  562SOL    HW1 2246   0.657   2.268   2.168  0.0277 -0.5932 -0.8377
  562SOL    HW2 2247   0.763   2.162   2.212  2.0837 -1.0402  1.5212
  562SOL     MW 2248   0.685   2.186   2.173 -0.2142  0.0049  0.2571
  563SOL     OW 2249   1.189   0.305   0.555  0.0646 -0.1000  0.0320
  563SOL    HW1 2250   1.107   0.283   0.503  1.1899  1.3874  0.8040
  563SOL    HW2 2251   1.189   0.236   0.619  1.3845 -0.4447  0.1659
  563SOL     MW 2252   1.178   0.293   0.557  0.3872  0.0508  0.1515
  564SOL     OW 2253   1.085   2.544   2.288  0.4739 -0.3895  0.5386
  564SOL    HW1 2254   1.098   2.587   2.206  1.0669 -2.8446  1.0757
  564SOL    HW2 2255   1.117   2.606   2.362 -0.0535  2.3741 -0.0587
  564SOL     MW 2256   1.091   2.558   2.287  0.4826 -0.3488  0.5306
  565SOL     OW 2257   2.839   2.726   2.657  0.1327 -0.0939 -0.1732
  565SOL    HW1 2258   2.809   2.814   2.640 -0.0947 -0.2482 -0.1974
  565SOL    HW2 2259   2.795   2.661   2.596 -0.6987 -0.4259  0.1929
  565SOL     MW 2260   2.829   2.729   2.647 -0.0070 -0.1580 -0.1281
  566SOL     OW 2261   2.183   1.859   2.318 -0.4144 -0.1518  0.1968
  566SOL    HW1 2262   2.229   1.825   2.243 -2.3504 -0.3205 -0.1139
  566SOL    HW2 2263   2.221   1.945   2.326 -1.4665 -2.5816  1.6544
  566SOL     MW 2264   2.194   1.866   2.309 -0.8086 -0.4946  0.3481
  567SOL     OW 2265   1.197   2.928   2.974 -0.0444  0.0389  0.0583
  567SOL    HW1 2266   1.254   3.007   2.987 -1.1252 -1.7489  3.2893
  567SOL    HW2 2267   1.240   2.842   2.959 -2.4992  2.7625 -0.7339
  567SOL     MW 2268   1.210   2.927   2.973 -0.5109  0.1624  0.3801
  568SOL     OW 2269   1.571   2.103   2.887 -0.5164 -0.4153  0.2926
  568SOL    HW1 2270   1.601   2.176   2.945 -0.2692 -2.2421  0.7205
  568SOL    HW2 2271   1.646   2.059   2.829  1.9946  0.4138 -2.1256
  568SOL     MW 2272   1.585   2.107   2.887 -0.1525 -0.5469  0.0300
  569SOL     OW 2273   0.171   2.283   2.454  0.1600 -0.2980 -0.0526
  569SOL    HW1 2274   0.101   2.309   2.396 -1.5931 -2.8578 -0.3104
  569SOL    HW2 2275   0.182   2.346   2.527  1.2591 -0.6831 -0.1098
  569SOL     MW 2276   0.163   2.295   2.456  0.0737 -0.6865 -0.0942
  570SOL     OW 2277   1.453   0.383   0.471  0.5208  0.2987 -0.0655
  570SOL    HW1 2278   1.359   0.353   0.493 -1.8489 -1.4107  0.6815
  570SOL    HW2 2279   1.484   0.419   0.555 -2.1804  1.8083  0.5854
  570SOL     MW 2280   1.445   0.384   0.485 -0.1482  0.2723  0.1190
  571SOL     OW 2281   1.507   2.461   2.004  0.0553  0.0309  0.1545
  571SOL    HW1 2282   1.510   2.440   2.096 -3.8953  1.0449  0.5488
  571SOL    HW2 2283   1.524   2.375   1.963  0.5210 -1.6941 -1.1134
  571SOL     MW 2284   1.510   2.447   2.011 -0.4045 -0.0629  0.0392
  572SOL     OW 2285   1.024   2.617   0.099  1.2064 -0.2919  0.0172
  572SOL    HW1 2286   1.057   2.664   0.024  2.1693  1.4788  1.5684
  572SOL    HW2 2287   0.938   2.569   0.082 -0.9384 -2.0502 -0.6558
  572SOL     MW 2288   1.017   2.617   0.087  1.0504 -0.2903  0.1330
  573SOL     OW 2289   1.127   2.292   0.216 -0.6063 -0.7339 -0.4090
  573SOL    HW1 2290   1.196   2.324   0.157  0.5194  1.0499 -1.6816
  573SOL    HW2 2291   1.113   2.380   0.263  0.1420  0.1891  1.2201
  573SOL     MW 2292   1.134   2.308   0.214 -0.3591 -0.3767 -0.3619
  574SOL     OW 2293   1.124   2.538   0.343  0.1745 -0.4845  0.2286
  574SOL    HW1 2294   1.194   2.593   0.369 -0.2141 -2.7749  1.2143
  574SOL    HW2 2295   1.091   2.587   0.266  2.9167  0.9582  3.1189
  574SOL     MW 2296   1.129   2.552   0.336  0.4851 -0.5964  0.7400
  575SOL     OW 2297   0.024   2.232   1.806 -0.8240 -0.0029 -0.2707
  575SOL    HW1 2298   0.054   2.173   1.734 -2.1838  0.0829  0.9341
  575SOL    HW2 2299   0.070   2.314   1.784  0.5858 -2.8493  0.6992
  575SOL     MW 2300   0.034   2.235   1.793 -0.8174 -0.3671  0.0163
  576SOL     OW 2301   2.770   1.815   2.114 -0.1047 -0.8501 -0.2115
  576SOL    HW1 2302   2.786   1.892   2.062 -2.8954 -0.5844 -0.8026
  576SOL    HW2 2303   2.697   1.766   2.079  0.7290 -0.2926  1.0551
  576SOL     MW 2304   2.762   1.819   2.102 -0.3629 -0.7415 -0.1224
  577SOL     OW 2305   2.031   0.215   0.101  0.2961  0.0864  0.2398
  577SOL    HW1 2306   1.948   0.236   0.050 -1.1536 -0.0983 -1.1618
  577SOL    HW2 2307   2.000   0.152   0.165  1.0206 -1.2895 -2.0015
  577SOL     MW 2308   2.016   0.209   0.102  0.2004 -0.1195 -0.2408
  578SOL     OW 2309   1.940   1.996   2.361  0.4796  0.4297  0.2493
  578SOL    HW1 2310   1.849   1.973   2.333 -1.8051 -2.4691 -0.3702
  578SOL    HW2 2311   1.994   1.922   2.339 -1.8048  0.8588 -1.2215
  578SOL     MW 2312   1.935   1.983   2.354 -0.1233  0.1038 -0.0265
  579SOL     OW 2313   0.908   2.373   2.415  0.4632  0.0923 -0.2003
  579SOL    HW1 2314   0.948   2.337   2.497 -0.1108 -1.4446 -1.9512
  579SOL    HW2 2315   0.974   2.433   2.375 -0.1066 -2.5190 -1.3111
  579SOL     MW 2316   0.922   2.376   2.421  0.3123 -0.4550 -0.5779
  580SOL     OW 2317   0.926   2.911   3.023 -0.6741 -0.2973 -0.0556
  580SOL    HW1 2318   1.018   2.929   3.006 -0.5052  0.0621  0.6190
  580SOL    HW2 2319   0.894   2.869   2.944  2.0678  0.2630  1.4042
  580SOL     MW 2320   0.934   2.908   3.010 -0.2901 -0.1759  0.2260
  581SOL     OW 2321   1.129   2.445   1.705 -0.2362  0.2958  0.7918
  581SOL    HW1 2322   1.209   2.473   1.736 -1.3104 -4.0311 -1.8431
  581SOL    HW2 2323   1.156   2.402   1.621  1.0697 -1.5024 -1.6355
  581SOL     MW 2324   1.143   2.443   1.698 -0.2056 -0.5124  0.1239
  582SOL     OW 2325   0.035   2.812   2.601  0.4684 -0.7776  0.5008
  582SOL    HW1 2326  -0.012   2.890   2.617 -0.0296 -0.0321 -1.0669
  582SOL    HW2 2327   0.117   2.845   2.571 -0.0965 -0.1516 -2.5210
  582SOL     MW 2328   0.040   2.827   2.599  0.3282 -0.5966 -0.1047
  583SOL     OW 2329   1.984   2.408   2.634 -0.3042 -0.5868  0.4063
  583SOL    HW1 2330   2.067   2.435   2.589  0.0621  1.8494 -1.2630
  583SOL    HW2 2331   1.994   2.309   2.636  1.2164  2.1323 -0.8709
  583SOL     MW 2332   1.996   2.398   2.628 -0.0553  0.0934  0.0176
  584SOL     OW 2333   0.169   1.860   2.222 -0.8764  0.2609 -0.1938
  584SOL    HW1 2334   0.237   1.862   2.159  1.1696  1.3333  0.3540
  584SOL    HW2 2335   0.175   1.932   2.285 -2.8722  1.5423 -0.6830
  584SOL     MW 2336   0.179   1.869   2.222 -0.8698  0.5715 -0.1861
  585SOL     OW 2337   1.544   2.679   0.230  0.9287  0.0929 -0.1193
  585SOL    HW1 2338   1.516   2.607   0.169 -1.9415  0.2513 -0.9273
  585SOL    HW2 2339   1.469   2.678   0.290 -2.4953  1.1990  0.7348
  585SOL     MW 2340   1.530   2.669   0.230  0.0983  0.2597 -0.1132
  586SOL     OW 2341   1.332   2.849   2.537  0.3027  0.4963 -0.3744
  586SOL    HW1 2342   1.386   2.825   2.454 -1.9620  0.8644 -1.9951
  586SOL    HW2 2343   1.330   2.941   2.541  2.7186 -1.8217 -0.4991
  586SOL     MW 2344   1.339   2.858   2.526  0.3226  0.2391 -0.6047
  587SOL     OW 2345   1.335   1.572   2.160  0.1567  0.3713 -0.4147
  587SOL    HW1 2346   1.314   1.500   2.224  0.2237 -0.4914 -1.1553
  587SOL    HW2 2347   1.348   1.527   2.074  0.9377  0.1104 -1.4800
  587SOL     MW 2348   1.334   1.557   2.157  0.2686  0.2230 -0.6530
  588SOL     OW 2349   1.336   2.066   2.722 -0.2720  0.5022 -0.0184
  588SOL    HW1 2350   1.397   2.011   2.764 -2.9178 -0.4874 -2.5527
  588SOL    HW2 2351   1.308   2.128   2.786 -0.3627 -2.4956 -1.2930
  588SOL     MW 2352   1.340   2.067   2.736 -0.6330 -0.0239 -0.5209
  589SOL     OW 2353   1.321   2.036   0.093  1.0738 -0.7017  0.2187
  589SOL    HW1 2354   1.340   2.130   0.123 -0.6467  1.0592  1.1938
  589SOL    HW2 2355   1.273   1.995   0.166  0.2517 -0.8440  0.6840
  589SOL     MW 2356   1.317   2.043   0.107  0.7383 -0.4881  0.4087
  590SOL     OW 2357   0.475   2.771   2.206  0.7642 -0.3325 -0.3560
  590SOL    HW1 2358   0.451   2.710   2.138  0.1074  0.9708 -0.4077
  590SOL    HW2 2359   0.567   2.783   2.210  0.0507  0.7012  0.9846
  590SOL     MW 2360   0.484   2.765   2.197  0.5834 -0.0242 -0.1859
  591SOL     OW 2361   2.236   0.638   3.100  0.2584 -0.2699  0.0017
  591SOL    HW1 2362   2.167   0.674   3.048  0.5123  0.6075  3.9870
  591SOL    HW2 2363   2.302   0.655   3.043 -2.4522 -1.6617 -2.0518
  591SOL     MW 2364   2.236   0.645   3.086 -0.0657 -0.3378  0.2566
  592SOL     OW 2365   1.786   2.957   0.787 -0.2375 -0.0266 -0.0605
  592SOL    HW1 2366   1.771   3.037   0.730 -0.9328 -2.7494 -0.0756
  592SOL    HW2 2367   1.858   2.897   0.755 -1.0137 -0.3496 -2.7668
  592SOL     MW 2368   1.793   2.960   0.775 -0.4316 -0.4285 -0.4196
  593SOL     OW 2369   1.939   0.661   0.805  0.1179 -0.4613 -0.2202
  593SOL    HW1 2370   1.846   0.664   0.765 -0.8173  0.6100 -0.9780
  593SOL    HW2 2371   1.966   0.570   0.801 -0.1322 -0.2227  0.7201
  593SOL     MW 2372   1.930   0.649   0.799 -0.0385 -0.2885 -0.1961
  594SOL     OW 2373   2.792   1.163   1.387 -0.1098  0.2667  0.9328
  594SOL    HW1 2374   2.877   1.220   1.411  2.9669 -1.3690 -2.9224
  594SOL    HW2 2375   2.810   1.126   1.303 -0.1857 -0.7678  0.6504
  594SOL     MW 2376   2.805   1.166   1.379  0.2861 -0.0856  0.3869
  595SOL     OW 2377   0.440   1.018   0.792  0.4662 -0.1386 -0.3968
  595SOL    HW1 2378   0.438   1.080   0.723 -0.8367 -1.4848  1.3584
  595SOL    HW2 2379   0.443   1.073   0.864  1.1711 -1.4379 -1.6572
  595SOL     MW 2380   0.440   1.033   0.793  0.3873 -0.4876 -0.3315
  596SOL     OW 2381   2.469   1.340   0.580  0.7062 -0.0551  0.2948
  596SOL    HW1 2382   2.535   1.403   0.551  0.3710 -0.8456  1.4041
  596SOL    HW2 2383   2.504   1.319   0.667 -0.7124  3.5740 -0.0455
  596SOL     MW 2384   2.482   1.346   0.587  0.4748  0.3194  0.3962
  597SOL     OW 2385   2.186   0.676   1.615  0.2198 -0.7075 -0.2677
  597SOL    HW1 2386   2.213   0.602   1.673 -1.4959 -1.2510  2.0101
  597SOL    HW2 2387   2.119   0.648   1.553 -0.7403 -2.0188  0.3060
  597SOL     MW 2388   2.181   0.663   1.614 -0.1333 -0.9522  0.1085
  598SOL     OW 2389   2.594   1.022   2.796 -0.2743  0.2153 -0.4606
  598SOL    HW1 2390   2.620   1.008   2.702  1.5049  0.5321 -0.7514
  598SOL    HW2 2391   2.669   1.081   2.833  0.3503  0.4415 -0.8355
  598SOL     MW 2392   2.608   1.028   2.789  0.0429  0.2869 -0.5484
  599SOL     OW 2393   2.958   0.394   2.075 -0.0759 -0.7679 -0.6678
  599SOL    HW1 2394   3.032   0.406   2.138  0.0666  3.2447 -0.5918
  599SOL    HW2 2395   2.952   0.474   2.019  1.2188  0.5497 -2.2541
  599SOL     MW 2396   2.967   0.407   2.076  0.1137 -0.0647 -0.8671
  600SOL     OW 2397   1.861   1.596   0.837  0.3992 -0.1242  0.5661
  600SOL    HW1 2398   1.889   1.618   0.928 -1.7687  2.7019  0.0428
  600SOL    HW2 2399   1.784   1.654   0.830 -1.2350  0.1921 -0.1051
  600SOL     MW 2400   1.855   1.607   0.848 -0.1025  0.2904  0.4085
  601SOL     OW 2401   2.510   0.752   0.823  0.3197 -0.4070  0.5059
  601SOL    HW1 2402   2.506   0.773   0.923  2.0804 -1.4953  2.8356
  601SOL    HW2 2403   2.429   0.704   0.804 -3.3489  0.2966 -0.4029
  601SOL     MW 2404   2.499   0.748   0.833  0.0680 -0.4577  0.6934
  602SOL     OW 2405   2.308   1.946   0.782  0.0666  0.3159 -0.3314
  602SOL    HW1 2406   2.281   1.864   0.742  1.2588  1.0558 -1.0501
  602SOL    HW2 2407   2.260   2.015   0.738  0.5510 -0.0574 -1.6898
  602SOL     MW 2408   2.298   1.944   0.771  0.2878  0.3643 -0.6054
  603SOL     OW 2409   0.033   1.354   1.831  0.1187 -0.0129 -0.3194
  603SOL    HW1 2410   0.081   1.428   1.875 -0.3893 -2.1147  2.5945
  603SOL    HW2 2411   0.033   1.292   1.902 -0.4511 -0.3242  0.4288
  603SOL     MW 2412   0.039   1.356   1.847 -0.0235 -0.3313  0.1637
  604SOL     OW 2413   2.150   1.541   0.492 -0.4239 -0.2472 -0.2981
  604SOL    HW1 2414   2.158   1.449   0.524  0.6653  0.1626  1.7956
  604SOL    HW2 2415   2.074   1.573   0.539 -0.6883  2.0973  0.5345
  604SOL     MW 2416   2.141   1.533   0.503 -0.3151  0.1162  0.0880
  605SOL     OW 2417   2.556   1.480   0.862 -0.3504  0.0809 -1.0261
  605SOL    HW1 2418   2.580   1.543   0.796  2.3104 -0.7766  3.8032
  605SOL    HW2 2419   2.591   1.394   0.847 -1.2405  2.7607 -0.1030
  605SOL     MW 2420   2.564   1.477   0.851 -0.1168  0.3214 -0.2672
  606SOL     OW 2421   2.563   1.642   2.015 -0.3242  0.3086  0.2756
  606SOL    HW1 2422   2.469   1.649   1.990 -0.9525  0.3422 -0.1189
  606SOL    HW2 2423   2.612   1.620   1.935  0.5105  0.2918 -1.1614
  606SOL     MW 2424   2.557   1.640   2.001 -0.2970  0.3108  0.0340
  607SOL     OW 2425   2.425   1.107   2.997 -0.0955 -0.0445  0.1500
  607SOL    HW1 2426   2.497   1.077   2.938 -1.0102 -0.0153 -1.6543
  607SOL    HW2 2427   2.445   1.075   3.088  0.1914 -1.0434 -1.9543
  607SOL     MW 2428   2.437   1.099   3.001 -0.1783 -0.1725 -0.3657
  608SOL     OW 2429   1.851   0.275   0.583 -0.0137  0.1507 -0.1582
  608SOL    HW1 2430   1.849   0.345   0.518 -1.9386 -2.1746 -0.9820
  608SOL    HW2 2431   1.830   0.197   0.535 -0.0894  0.3123 -0.7036
  608SOL     MW 2432   1.848   0.274   0.568 -0.2777 -0.1348 -0.3389
  609SOL     OW 2433   2.053   1.960   3.006 -0.0690 -0.4337 -0.5061
  609SOL    HW1 2434   1.970   1.911   2.982  0.7951  0.4942 -0.6709
  609SOL    HW2 2435   2.060   1.919   3.094 -2.2454 -0.7112  0.6380
  609SOL     MW 2436   2.043   1.948   3.014 -0.2422 -0.3479 -0.3769
  610SOL     OW 2437   1.747   0.997   1.262 -0.2344 -0.1690 -0.4548
  610SOL    HW1 2438   1.806   0.933   1.215  4.6736 -0.5666 -0.3287
  610SOL    HW2 2439   1.660   0.970   1.230  0.0955 -0.0669  0.5932
  610SOL     MW 2440   1.743   0.985   1.252  0.4567 -0.2080 -0.2999
  611SOL     OW 2441   2.538   1.696   0.687 -0.1401 -0.2608 -0.2622
  611SOL    HW1 2442   2.531   1.778   0.739 -0.2114  0.9606  2.1702
  611SOL    HW2 2443   2.444   1.669   0.684 -0.7254 -1.0713  4.5671
  611SOL     MW 2444   2.525   1.703   0.693 -0.2268 -0.2066  0.6959
  612SOL     OW 2445   2.864   2.881   0.393  0.5717  0.1907 -0.2527
  612SOL    HW1 2446   2.877   2.916   0.484  0.2192  0.9944  0.0327
  612SOL    HW2 2447   2.952   2.876   0.349 -0.3706  0.2057  2.1858
  612SOL     MW 2448   2.877   2.885   0.399  0.4009  0.2987  0.1067
  613SOL     OW 2449   1.466   1.020   0.892 -0.0943  0.1471  0.1278
  613SOL    HW1 2450   1.477   1.116   0.866 -0.0557  2.2983  2.7372
  613SOL    HW2 2451   1.507   1.009   0.980  0.0092  0.6585 -1.3772
  613SOL     MW 2452   1.473   1.032   0.900 -0.0755  0.4984  0.2735
  614SOL     OW 2453   1.994   0.579   1.453  0.3328 -0.0320  0.1664
  614SOL    HW1 2454   1.989   0.512   1.530  1.2483 -0.2136  4.3858
  614SOL    HW2 2455   1.942   0.543   1.377 -1.2977  0.3248  0.5602
  614SOL     MW 2456   1.986   0.565   1.453  0.2384 -0.0089  0.7750
  615SOL     OW 2457   2.351   0.756   0.240 -0.8003  0.1433  0.2566
  615SOL    HW1 2458   2.411   0.683   0.258 -2.0320  1.5473 -1.7206
  615SOL    HW2 2459   2.297   0.709   0.173 -1.0393  1.0373 -0.3300
  615SOL     MW 2460   2.352   0.740   0.234 -0.9943  0.4465 -0.0817
  616SOL     OW 2461   2.505   0.409   1.654 -0.2443  0.0106 -0.0468
  616SOL    HW1 2462   2.571   0.370   1.605 -0.8992 -0.9845 -0.7354
  616SOL    HW2 2463   2.493   0.490   1.601  1.8938  1.3579 -1.5448
  616SOL     MW 2464   2.512   0.415   1.640 -0.0486  0.0570 -0.3353
  617SOL     OW 2465   2.797   0.625   1.712  0.1291  0.2966 -0.1500
  617SOL    HW1 2466   2.734   0.623   1.788 -2.6494  1.7396  0.4244
  617SOL    HW2 2467   2.779   0.540   1.675 -0.5895  0.5806  2.8364
  617SOL     MW 2468   2.787   0.614   1.717 -0.3323  0.5244  0.3198
  618SOL     OW 2469   2.727   0.357   1.916  0.6327 -0.0731 -0.0071
  618SOL    HW1 2470   2.722   0.453   1.918  2.5926  1.3566 -1.5667
  618SOL    HW2 2471   2.785   0.334   1.989 -1.0043  0.6634 -0.1332
  618SOL     MW 2472   2.734   0.366   1.926  0.6753  0.2127 -0.2295
  619SOL     OW 2473   2.666   0.705   0.065  0.7734  0.4475 -0.1084
  619SOL    HW1 2474   2.695   0.795   0.086  0.4771  1.2909  0.2738
  619SOL    HW2 2475   2.631   0.659   0.139 -0.3468  2.3591  0.7389
  619SOL     MW 2476   2.665   0.711   0.078  0.5865  0.8110  0.0538
  620SOL     OW 2477   2.208   1.058   0.937  0.1154 -0.1446 -0.4464
  620SOL    HW1 2478   2.285   1.049   0.880  1.1439 -1.5032 -1.5270
  620SOL    HW2 2479   2.139   0.996   0.912 -1.2494 -0.3985  0.8053
  620SOL     MW 2480   2.209   1.049   0.926  0.0710 -0.3573 -0.4238
  621SOL     OW 2481   1.560   2.204   1.914  0.0619 -0.1367  0.3746
  621SOL    HW1 2482   1.494   2.151   1.959  1.5325  3.7278 -2.4538
  621SOL    HW2 2483   1.644   2.164   1.932  2.0390  1.7950 -0.7658
  621SOL     MW 2484   1.562   2.191   1.922  0.5168  0.6280 -0.1491
  622SOL     OW 2485   2.603   0.186   0.231 -1.0871 -0.1632  0.2197
  622SOL    HW1 2486   2.690   0.231   0.224 -1.5398 -0.6873  1.3810
  622SOL    HW2 2487   2.627   0.093   0.251  0.5446 -0.1095  1.5096
  622SOL     MW 2488   2.618   0.180   0.232 -0.9315 -0.2253  0.5431
  623SOL     OW 2489   2.400   2.777   0.825  0.4159  0.1772  0.4991
  623SOL    HW1 2490   2.478   2.830   0.829  0.7123 -2.9019  2.6325
  623SOL    HW2 2491   2.349   2.781   0.911 -0.9894 -0.9163  1.8558
  623SOL     MW 2492   2.404   2.785   0.837  0.2696 -0.3733  0.9596
  624SOL     OW 2493   2.147   1.690   3.008 -0.2067  0.0942  0.0952
  624SOL    HW1 2494   2.115   1.609   3.033  1.5506  1.1286  1.4886
  624SOL    HW2 2495   2.078   1.736   2.962  2.8733 -2.7262  1.2404
  624SOL     MW 2496   2.134   1.685   3.005  0.4316 -0.1414  0.4301
  625SOL     OW 2497   2.193   1.889   1.035 -0.2117 -0.8485  0.1504
  625SOL    HW1 2498   2.278   1.865   1.076  1.2149 -1.3280  1.9243
  625SOL    HW2 2499   2.212   1.895   0.940 -1.1515 -0.7035  0.4765
  625SOL     MW 2500   2.207   1.887   1.028 -0.1475 -0.8926  0.4275
  626SOL     OW 2501   0.296   1.683   2.385 -0.4115  0.2632  0.9112
  626SOL    HW1 2502   0.252   1.629   2.447 -0.5125  1.8188 -1.5469
  626SOL    HW2 2503   0.235   1.734   2.332 -0.2364  0.7523  1.0028
  626SOL     MW 2504   0.282   1.683   2.386 -0.4017  0.5329  0.5989
  627SOL     OW 2505   2.446   0.696   2.551  0.3627 -0.1566 -0.0310
  627SOL    HW1 2506   2.469   0.785   2.571 -0.7282 -0.1879 -0.0742
  627SOL    HW2 2507   2.439   0.701   2.457 -0.7611  2.1428  0.3712
  627SOL     MW 2508   2.448   0.708   2.542  0.0705  0.1426  0.0164
  628SOL     OW 2509   2.319   1.370   1.296 -0.9716 -0.3778 -0.3206
  628SOL    HW1 2510   2.285   1.306   1.230 -1.4651  0.1894  2.5316
  628SOL    HW2 2511   2.392   1.407   1.250  1.4244 -2.0875 -0.1672
  628SOL     MW 2512   2.324   1.367   1.281 -0.7206 -0.5286  0.0759
  629SOL     OW 2513   1.854   0.538   1.239 -0.2026 -0.0403  0.1357
  629SOL    HW1 2514   1.865   0.607   1.176  1.8671  0.2972  0.2191
  629SOL    HW2 2515   1.758   0.516   1.245 -1.4648 -0.5171 -0.0037
  629SOL     MW 2516   1.843   0.544   1.231 -0.0961 -0.0586  0.1283
  630SOL     OW 2517   2.359   1.857   3.081 -0.3768  0.5655  0.0693
  630SOL    HW1 2518   2.364   1.915   3.002  1.8652 -0.7951 -4.3101
  630SOL    HW2 2519   2.284   1.794   3.072 -0.8810  1.7336  0.2359
  630SOL     MW 2520   2.349   1.857   3.070 -0.1475  0.5401 -0.4865
  631SOL     OW 2521   2.059   1.795   1.543  0.4970 -0.6142  0.2146
  631SOL    HW1 2522   2.062   1.702   1.570 -1.6683 -3.5217 -2.1812
  631SOL    HW2 2523   2.003   1.792   1.465 -1.4609 -2.6472 -1.1611
  631SOL     MW 2524   2.052   1.782   1.536 -0.0470 -1.2661 -0.2830
  632SOL     OW 2525   0.211   1.983   1.404  0.2796  0.0649  0.3771
  632SOL    HW1 2526   0.200   1.971   1.502  2.4710  0.3767 -0.3130
  632SOL    HW2 2527   0.255   1.898   1.369 -1.3214 -1.7915 -0.5601
  632SOL     MW 2528   0.216   1.970   1.412  0.3575 -0.1389  0.1624
  633SOL     OW 2529   2.566   0.581   0.300  0.4866  0.4887 -0.1530
  633SOL    HW1 2530   2.614   0.598   0.380 -3.3871 -1.2825  0.0318
  633SOL    HW2 2531   2.531   0.499   0.323 -0.1702  1.8786  0.2685
  633SOL     MW 2532   2.568   0.573   0.313 -0.1111  0.4384 -0.0730
  634SOL     OW 2533   2.671   0.019   0.650 -0.3342  0.2735  0.0041
  634SOL    HW1 2534   2.731   0.098   0.648  1.5598  0.8652  1.7608
  634SOL    HW2 2535   2.623   0.017   0.567 -0.1067 -2.6596  0.9072
  634SOL     MW 2536   2.673   0.029   0.639 -0.0543 -0.0354  0.3550
  635SOL     OW 2537   2.575   0.125   1.847 -0.7236 -0.2492  0.4489
  635SOL    HW1 2538   2.648   0.083   1.793 -1.2788  1.8403  1.8145
  635SOL    HW2 2539   2.614   0.215   1.860  1.8988 -0.6704  0.3063
  635SOL     MW 2540   2.590   0.131   1.842 -0.4509 -0.0291  0.6103
  636SOL     OW 2541   2.831   1.606   0.920  0.1591 -0.0246 -1.0047
  636SOL    HW1 2542   2.747   1.644   0.931 -0.3180 -0.2548  1.0925
  636SOL    HW2 2543   2.888   1.643   0.983  0.7843  0.1758 -0.8639
  636SOL     MW 2544   2.828   1.615   0.930  0.1786 -0.0286 -0.7094
  637SOL     OW 2545   2.871   1.455   0.696 -0.1635  0.6123 -0.6798
  637SOL    HW1 2546   2.895   1.523   0.631 -1.2675 -1.1527 -1.6573
  637SOL    HW2 2547   2.845   1.510   0.768 -0.9563 -1.0911  1.1584
  637SOL     MW 2548   2.871   1.471   0.697 -0.4138  0.1547 -0.5663
  638SOL     OW 2549   2.674   0.527   0.543 -0.0148  0.0827 -0.4310
  638SOL    HW1 2550   2.764   0.509   0.517 -1.5694  0.6491 -0.6560
  638SOL    HW2 2551   2.685   0.542   0.638 -2.7931 -1.4401  1.1277
  638SOL     MW 2552   2.687   0.527   0.552 -0.5865 -0.0435 -0.2550
  639SOL     OW 2553   1.723   0.039   0.586 -0.2329 -0.0728 -0.5674
  639SOL    HW1 2554   1.635   0.058   0.594 -0.6368 -2.6631  2.1646
  639SOL    HW2 2555   1.719  -0.050   0.543 -0.7606  0.0940 -0.9615
  639SOL     MW 2556   1.711   0.030   0.582 -0.3558 -0.3925 -0.2590
  640SOL     OW 2557   0.281   1.306   0.142 -0.6112 -0.0826  0.0014
  640SOL    HW1 2558   0.313   1.323   0.053 -0.9603  0.1016 -1.3436
  640SOL    HW2 2559   0.286   1.211   0.157  0.5761  0.1530 -2.0343
  640SOL     MW 2560   0.286   1.296   0.133 -0.5006 -0.0272 -0.4446
  641SOL     OW 2561   2.213   0.404   0.431  0.8946 -0.1013 -0.0049
  641SOL    HW1 2562   2.248   0.383   0.347 -0.9158  1.3796  2.4585
  641SOL    HW2 2563   2.277   0.377   0.496  0.6258  2.6416 -1.9517
  641SOL     MW 2564   2.226   0.398   0.428  0.6202  0.4560  0.0633
  642SOL     OW 2565   0.052   3.092   0.551 -0.5847  0.2223 -0.1852
  642SOL    HW1 2566   0.002   3.164   0.501  0.9581  1.1849  1.4304
  642SOL    HW2 2567  -0.022   3.039   0.589 -4.5770  0.3267 -1.0247
  642SOL     MW 2568   0.035   3.094   0.550 -0.9079  0.3631 -0.0828
  643SOL     OW 2569   2.001   0.373   1.666  0.3358 -0.3359  0.0377
  643SOL    HW1 2570   1.939   0.351   1.740 -2.2357  0.1340  2.2534
  643SOL    HW2 2571   2.045   0.290   1.646  1.4808  0.1162  1.4158
  643SOL     MW 2572   1.999   0.359   1.673  0.1476 -0.2142  0.5119
  644SOL     OW 2573   2.727   1.939   1.064 -0.5440 -0.3898 -0.2653
  644SOL    HW1 2574   2.673   1.863   1.091  1.0259 -2.1928 -0.2786
  644SOL    HW2 2575   2.658   2.000   1.038  1.2625 -0.4096 -1.4769
  644SOL     MW 2576   2.711   1.937   1.064 -0.0985 -0.6303 -0.4269
  645SOL     OW 2577   2.810   0.848   0.656  0.3137 -0.2738 -0.2356
  645SOL    HW1 2578   2.881   0.797   0.689  0.3877 -0.9893 -0.5045
  645SOL    HW2 2579   2.735   0.795   0.651 -0.4499  0.6287  0.8556
  645SOL     MW 2580   2.809   0.834   0.660  0.2227 -0.2492 -0.1271
  646SOL     OW 2581   0.062   2.265   0.843  0.0713  0.0823  0.3702
  646SOL    HW1 2582   0.107   2.186   0.815 -1.9874 -1.3249 -0.6335
  646SOL    HW2 2583  -0.030   2.272   0.812 -1.2799 -0.4954 -0.0916
  646SOL     MW 2584   0.055   2.255   0.835 -0.3786 -0.1796  0.1768
  647SOL     OW 2585   2.718   0.492   2.913 -0.0488  0.4587  0.6863
  647SOL    HW1 2586   2.732   0.466   3.005  1.4748  0.7312 -0.1374
  647SOL    HW2 2587   2.622   0.489   2.909  0.2765 -0.9787 -2.4668
  647SOL     MW 2588   2.707   0.488   2.924  0.1951  0.3050  0.1616
  648SOL     OW 2589   2.160   0.722   1.178  0.6332 -0.3091  0.0666
  648SOL    HW1 2590   2.190   0.642   1.206 -0.2433 -0.2559 -1.2369
  648SOL    HW2 2591   2.196   0.792   1.235  2.5540  0.1510 -1.1179
  648SOL     MW 2592   2.169   0.720   1.189  0.7710 -0.2414 -0.2617
  649SOL     OW 2593   2.382   2.671   1.306 -0.3925  0.3306 -0.0454
  649SOL    HW1 2594   2.468   2.711   1.320 -0.5449  0.7470  3.3534
  649SOL    HW2 2595   2.399   2.578   1.312  2.2791 -0.8062  0.9761
  649SOL     MW 2596   2.396   2.664   1.309 -0.0601  0.2356  0.5378
  650SOL     OW 2597   2.853   0.251   0.672  0.1004 -0.1574  0.3042
  650SOL    HW1 2598   2.909   0.320   0.707 -0.3717 -0.0420  0.2074
  650SOL    HW2 2599   2.899   0.232   0.583 -1.9825  0.6015 -0.0648
  650SOL     MW 2600   2.866   0.257   0.665 -0.2367 -0.0421  0.2427
  651SOL     OW 2601   3.060   0.431   0.985  0.2276  0.2545  0.1612
  651SOL    HW1 2602   3.097   0.472   0.900 -1.6948  0.4709 -0.8629
  651SOL    HW2 2603   3.009   0.500   1.026 -0.2382 -0.0397 -0.0615
  651SOL     MW 2604   3.058   0.446   0.979 -0.0875  0.2442 -0.0033
  652SOL     OW 2605   2.440   1.538   3.033  0.2982 -0.1084  0.0317
  652SOL    HW1 2606   2.490   1.562   2.957  2.8310 -1.6840 -1.6307
  652SOL    HW2 2607   2.385   1.614   3.050 -1.9515  2.4195 -0.0110
  652SOL     MW 2608   2.439   1.551   3.026  0.3356  0.0172 -0.1933
  653SOL     OW 2609   1.837   0.466   0.388 -0.0955  0.2113 -0.4856
  653SOL    HW1 2610   1.757   0.431   0.365 -0.7254  0.3482 -0.1795
  653SOL    HW2 2611   1.874   0.446   0.301  0.3767 -0.0915 -0.9092
  653SOL     MW 2612   1.831   0.459   0.374 -0.1163  0.1894 -0.5011
  654SOL     OW 2613   2.417   1.026   0.759 -0.2118  0.2128 -0.1853
  654SOL    HW1 2614   2.344   1.015   0.692 -1.9919 -0.6498  0.3718
  654SOL    HW2 2615   2.458   0.936   0.771  1.0974  0.9582  0.5674
  654SOL     MW 2616   2.413   1.012   0.752 -0.2739  0.1974 -0.0125
  655SOL     OW 2617   2.924   0.822   0.379 -0.5628  0.9559  0.3999
  655SOL    HW1 2618   2.884   0.847   0.462 -0.3560 -0.4759  0.6738
  655SOL    HW2 2619   2.950   0.728   0.390 -0.5341 -2.4438 -1.2228
  655SOL     MW 2620   2.922   0.813   0.391 -0.5317  0.3184  0.2219
  656SOL     OW 2621   1.829   2.651   1.348 -0.9856 -0.0492 -0.1827
  656SOL    HW1 2622   1.888   2.730   1.363  2.2156  0.8736  0.1047
  656SOL    HW2 2623   1.885   2.577   1.383 -1.2282 -0.4957 -0.1935
  656SOL     MW 2624   1.844   2.651   1.355 -0.5953  0.0136 -0.1462
  657SOL     OW 2625   0.158   1.780   1.163  0.0726  0.0785 -0.4722
  657SOL    HW1 2626   0.235   1.836   1.131  1.2182  1.6063 -1.7791
  657SOL    HW2 2627   0.198   1.691   1.144 -0.5679  2.2745  0.1557
  657SOL     MW 2628   0.173   1.775   1.156  0.1393  0.5698 -0.5618
  658SOL     OW 2629   2.658   1.329   0.255 -0.1613 -0.1369 -0.4275
  658SOL    HW1 2630   2.639   1.248   0.309  1.3260 -2.7121  1.4616
  658SOL    HW2 2631   2.681   1.390   0.330 -0.2689 -2.1425  1.9381
  658SOL     MW 2632   2.659   1.326   0.272  0.0207 -0.7413  0.1338
  659SOL     OW 2633   2.252   1.523   0.975  0.2189  0.6546 -0.3101
  659SOL    HW1 2634   2.313   1.460   1.010  0.5916 -0.0848 -0.0368
  659SOL    HW2 2635   2.205   1.559   1.060  0.3338 -0.9872  3.4699
  659SOL     MW 2636   2.254   1.519   0.991  0.2832  0.3404  0.2247
  660SOL     OW 2637   2.070   1.543   1.671  0.4224 -0.3753  0.0962
  660SOL    HW1 2638   2.047   1.572   1.765 -0.7262  0.0544 -0.0966
  660SOL    HW2 2639   2.004   1.471   1.657  0.2917  0.0604  1.6028
  660SOL     MW 2640   2.058   1.537   1.682  0.2536 -0.2611  0.2695
  661SOL     OW 2641   2.471   1.007   0.189  0.2138 -0.3070 -0.4457
  661SOL    HW1 2642   2.515   1.036   0.274  2.7380 -2.1403 -2.7901
  661SOL    HW2 2643   2.445   0.918   0.212  2.6181 -0.2678 -0.4616
  661SOL     MW 2644   2.473   0.999   0.204  0.8641 -0.5437 -0.7571
  662SOL     OW 2645   2.555   3.040   0.901  0.2505  0.4734 -0.1893
  662SOL    HW1 2646   2.519   3.115   0.938  0.8347 -0.7000 -1.5143
  662SOL    HW2 2647   2.594   3.076   0.822  0.3483  0.2555  0.2175
  662SOL     MW 2648   2.556   3.055   0.895  0.3405  0.2898 -0.3105
  663SOL     OW 2649   2.680   1.496   0.473  0.3255  0.0050 -0.5085
  663SOL    HW1 2650   2.665   1.588   0.451 -0.6939 -1.9370  2.6317
  663SOL    HW2 2651   2.740   1.482   0.550  1.1683  1.2172 -2.4575
  663SOL     MW 2652   2.686   1.507   0.480  0.3022 -0.0913 -0.3513
  664SOL     OW 2653   2.550   1.534   1.548  0.4434  0.1473 -0.1684
  664SOL    HW1 2654   2.526   1.627   1.547  1.6378  0.7619  2.7156
  664SOL    HW2 2655   2.466   1.479   1.571  1.5207 -1.4585  2.8492
  664SOL     MW 2656   2.536   1.539   1.551  0.7431  0.0165  0.6102
  665SOL     OW 2657   2.826   0.846   2.033 -0.6857 -0.0671  0.2774
  665SOL    HW1 2658   2.825   0.900   1.955 -0.7442 -1.4114 -0.4392
  665SOL    HW2 2659   2.895   0.787   2.005  0.5913  2.8199  1.4060
  665SOL     MW 2660   2.835   0.845   2.019 -0.5250  0.1364  0.3318
  666SOL     OW 2661   2.774   3.082   1.711 -0.0505  0.4333 -0.1371
  666SOL    HW1 2662   2.739   3.084   1.623  3.0704  0.1626 -1.7661
  666SOL    HW2 2663   2.745   3.000   1.749  0.4718  1.0805  0.1074
  666SOL     MW 2664   2.766   3.072   1.705  0.4302  0.4830 -0.3197
  667SOL     OW 2665   1.972   2.653   1.800  0.5355  0.0126 -0.1113
  667SOL    HW1 2666   2.021   2.651   1.882  1.6681 -1.1447 -1.2518
  667SOL    HW2 2667   2.022   2.719   1.748  1.1565  1.0497  0.2418
  667SOL     MW 2668   1.985   2.662   1.804  0.7669 -0.0032 -0.2152
  668SOL     OW 2669   2.725   0.602   0.804 -0.4187 -0.7982 -0.7753
  668SOL    HW1 2670   2.792   0.624   0.869  0.7575  2.5018  1.2819
  668SOL    HW2 2671   2.649   0.659   0.811  0.8292  2.1518 -1.9860
  668SOL     MW 2672   2.724   0.612   0.813 -0.0989  0.0264 -0.6636
  669SOL     OW 2673   0.154   0.901   0.705 -0.4258 -0.3974 -0.2142
  669SOL    HW1 2674   0.114   0.968   0.761 -0.3408 -0.1006  3.9628
  669SOL    HW2 2675   0.242   0.882   0.731  1.1847 -3.4555 -1.0098
  669SOL     MW 2676   0.160   0.907   0.716 -0.2021 -0.7617  0.2319
  670SOL     OW 2677   2.855   0.303   0.207  0.3513 -0.0464  0.0466
  670SOL    HW1 2678   2.873   0.254   0.127 -0.1099 -2.1874 -2.1807
  670SOL    HW2 2679   2.866   0.393   0.189 -1.2164 -0.1681  2.3102
  670SOL     MW 2680   2.859   0.308   0.194  0.0836 -0.3449  0.0514
  671SOL     OW 2681   2.050   3.064   1.562 -0.0995 -0.1283  0.4953
  671SOL    HW1 2682   2.020   3.025   1.477 -0.7534  0.2614 -0.1874
  671SOL    HW2 2683   1.972   3.091   1.616  0.3997  2.2389  2.5974
  671SOL     MW 2684   2.036   3.062   1.558 -0.1199  0.2354  0.6826
  672SOL     OW 2685   1.898   1.716   1.318  0.2660 -0.4446 -0.3328
  672SOL    HW1 2686   1.814   1.758   1.335  0.4591 -0.2480  0.2666
  672SOL    HW2 2687   1.907   1.726   1.224 -0.8499 -1.5720  2.3711
  672SOL     MW 2688   1.888   1.723   1.308  0.1442 -0.5674  0.1030
  673SOL     OW 2689   2.789   1.112   0.616 -0.1516  0.6106  0.1074
  673SOL    HW1 2690   2.795   1.025   0.663 -1.4475  0.6591 -2.4829
  673SOL    HW2 2691   2.878   1.146   0.626 -0.3328 -0.2767 -0.2572
  673SOL     MW 2692   2.802   1.105   0.624 -0.3465  0.4999 -0.2825
  674SOL     OW 2693   2.442   3.054   1.303  0.1777  0.0836 -0.3515
  674SOL    HW1 2694   2.415   3.073   1.211 -1.1802  1.7344 -2.1124
  674SOL    HW2 2695   2.499   2.979   1.291  1.5168  0.8434  0.3244
  674SOL     MW 2696   2.446   3.047   1.289  0.1752  0.4016 -0.4946
  675SOL     OW 2697   3.071   0.870   1.077 -0.0177  0.0122  0.0506
  675SOL    HW1 2698   3.133   0.869   1.148  1.4717 -0.6117  0.5059
  675SOL    HW2 2699   3.103   0.921   1.009 -0.4530  1.2010  1.1616
  675SOL     MW 2700   3.084   0.876   1.077  0.1214  0.0867  0.2573
  676SOL     OW 2701   2.944   1.489   1.666  0.3152  0.0370 -0.3073
  676SOL    HW1 2702   2.916   1.412   1.630 -1.0108  2.0462 -0.9067
  676SOL    HW2 2703   2.995   1.454   1.737 -0.3480 -1.2149 -0.1778
  676SOL     MW 2704   2.947   1.474   1.670  0.0528  0.1369 -0.3693
  677SOL     OW 2705   2.370   0.587   2.007  0.2831 -0.2358 -0.5293
  677SOL    HW1 2706   2.351   0.535   1.933 -0.1252  0.5517  0.0451
  677SOL    HW2 2707   2.339   0.670   1.983 -1.5393 -0.7502 -1.0647
  677SOL     MW 2708   2.363   0.591   1.994 -0.0112 -0.1998 -0.5242
  678SOL     OW 2709   2.519   1.693   0.326 -0.2054 -0.2903  0.2285
  678SOL    HW1 2710   2.433   1.723   0.363  0.7483 -1.0444  0.7963
  678SOL    HW2 2711   2.490   1.632   0.256  0.2153  0.7395  1.6720
  678SOL     MW 2712   2.504   1.689   0.322 -0.0240 -0.2539  0.4939
  679SOL     OW 2713   2.236   0.444   1.289  0.3495  0.8851  0.0443
  679SOL    HW1 2714   2.229   0.369   1.230  1.3053  0.7989  0.0181
  679SOL    HW2 2715   2.159   0.435   1.344  0.3916 -1.8903 -1.0280
  679SOL     MW 2716   2.225   0.433   1.288  0.4812  0.5076 -0.1006
  680SOL     OW 2717   2.372   0.178   1.465  0.3883  0.0626 -0.3792
  680SOL    HW1 2718   2.278   0.184   1.464 -2.3196  0.6559  1.3571
  680SOL    HW2 2719   2.396   0.097   1.409 -1.3577  1.1983  0.2990
  680SOL     MW 2720   2.363   0.168   1.458 -0.1993  0.2907 -0.0607
  681SOL     OW 2721   0.296   0.499   1.516  0.2603  0.5083  0.0498
  681SOL    HW1 2722   0.286   0.465   1.601 -0.4047 -0.1925  3.1183
  681SOL    HW2 2723   0.388   0.528   1.520 -1.3371 -1.5530  2.8326
  681SOL     MW 2724   0.307   0.498   1.528 -0.0382  0.1439  0.8218
  682SOL     OW 2725   0.146   2.859   1.510  0.0126 -0.2993  0.1811
  682SOL    HW1 2726   0.196   2.905   1.578  1.1929 -2.6567  2.4941
  682SOL    HW2 2727   0.062   2.907   1.504  0.3708 -0.0193 -1.3583
  682SOL     MW 2728   0.142   2.872   1.519  0.2156 -0.5734  0.2832
  683SOL     OW 2729   2.056   0.787   2.978  0.3815 -0.1038 -0.3795
  683SOL    HW1 2730   1.963   0.756   2.961 -1.2629  1.4757 -1.4570
  683SOL    HW2 2731   2.056   0.866   3.035  2.3162 -1.3008 -0.2539
  683SOL     MW 2732   2.044   0.794   2.984  0.4198 -0.0533 -0.5051
  684SOL     OW 2733   2.230   1.656   0.721  0.2527 -0.2338  0.3583
  684SOL    HW1 2734   2.199   1.605   0.647 -3.2332  1.0641  0.5824
  684SOL    HW2 2735   2.236   1.602   0.800  0.3491  1.6633  0.0425
  684SOL     MW 2736   2.227   1.642   0.721 -0.1945  0.1878  0.3462
  685SOL     OW 2737   2.615   1.737   1.205  0.5185 -0.1574 -0.4070
  685SOL    HW1 2738   2.674   1.726   1.280 -0.0297  1.6035  0.2864
  685SOL    HW2 2739   2.591   1.651   1.182  0.7290  2.1717  1.6853
  685SOL     MW 2740   2.620   1.724   1.212  0.4740  0.3822 -0.0394
  686SOL     OW 2741   2.896   0.758   1.496  0.0420 -0.5543 -0.7884
  686SOL    HW1 2742   2.864   0.726   1.578  0.7931 -0.4346  0.2670
  686SOL    HW2 2743   2.993   0.748   1.502  0.9775 -0.3595  3.1371
  686SOL     MW 2744   2.905   0.752   1.508  0.2645 -0.5128 -0.1312
  687SOL     OW 2745   2.150   0.212   1.185 -0.3127  0.3710  1.1235
  687SOL    HW1 2746   2.221   0.168   1.138 -0.4218  0.0896 -0.2920
  687SOL    HW2 2747   2.071   0.222   1.135  1.7268  0.5507 -1.2416
  687SOL     MW 2748   2.149   0.207   1.172 -0.0580  0.3576  0.6247
  688SOL     OW 2749   2.400   0.576   1.461 -0.3036 -0.3861  0.5946
  688SOL    HW1 2750   2.356   0.494   1.426 -0.2357 -2.6657 -0.6891
  688SOL    HW2 2751   2.330   0.627   1.517 -4.7895  0.0994  0.8949
  688SOL     MW 2752   2.385   0.572   1.464 -0.8865 -0.6228  0.4649
  689SOL     OW 2753   2.470   0.737   2.967  0.0319 -0.3114 -0.3360
  689SOL    HW1 2754   2.467   0.829   2.951  1.0006 -1.9796  0.0685
  689SOL    HW2 2755   2.545   0.729   3.031  2.1696 -3.5486 -1.8993
  689SOL     MW 2756   2.480   0.748   2.973  0.4418 -0.9586 -0.4889
  690SOL     OW 2757   1.992   0.853   1.856 -0.3178 -0.3671 -0.0519
  690SOL    HW1 2758   1.967   0.761   1.868 -1.8882 -0.3006  0.1234
  690SOL    HW2 2759   2.025   0.848   1.770  0.4777 -2.0756  2.2765
  690SOL     MW 2760   1.993   0.840   1.846 -0.4201 -0.5837  0.2785
  691SOL     OW 2761   2.405   0.304   0.890 -0.2166 -1.1894 -0.3192
  691SOL    HW1 2762   2.481   0.351   0.921  2.4528 -0.1263 -1.6271
  691SOL    HW2 2763   2.325   0.338   0.927  0.8489  1.1988  0.5412
  691SOL     MW 2764   2.405   0.315   0.899  0.2762 -0.7340 -0.3782
  692SOL     OW 2765   2.840   1.694   1.421 -0.0156 -0.4707  0.5587
  692SOL    HW1 2766   2.825   1.626   1.488  1.5761  0.6626  0.6580
  692SOL    HW2 2767   2.865   1.774   1.479  0.8011 -1.1450  0.3601
  692SOL     MW 2768   2.841   1.695   1.438  0.3022 -0.4101  0.5456
  693SOL     OW 2769   2.257   0.398   0.137  0.1533 -0.0307 -0.2838
  693SOL    HW1 2770   2.174   0.357   0.129 -1.3016 -0.7236  1.3098
  693SOL    HW2 2771   2.242   0.487   0.096 -2.5482  0.6480  0.5108
  693SOL     MW 2772   2.244   0.404   0.131 -0.3951 -0.0326  0.0313
  694SOL     OW 2773   1.942   1.210   1.201 -0.1504  0.1902  0.1486
  694SOL    HW1 2774   2.035   1.193   1.180  1.4713 -0.8710  1.3309
  694SOL    HW2 2775   1.886   1.135   1.220 -2.7419  2.6624  0.8689
  694SOL     MW 2776   1.947   1.198   1.201 -0.2784  0.3764  0.3996
  695SOL     OW 2777   3.047   1.543   1.285  0.8041 -0.1646  0.0317
  695SOL    HW1 2778   2.999   1.505   1.207 -0.0256  0.3238  0.5751
  695SOL    HW2 2779   2.990   1.612   1.314  0.2763  0.7745  0.4223
  695SOL     MW 2780   3.033   1.547   1.279  0.6250  0.0237  0.1550
  696SOL     OW 2781   2.103   1.362   0.832 -1.0104 -0.0337  0.2050
  696SOL    HW1 2782   2.157   1.425   0.886 -2.9171 -2.9759 -0.3755
  696SOL    HW2 2783   2.078   1.287   0.884 -0.4438  2.0795 -1.2653
  696SOL     MW 2784   2.107   1.360   0.846 -1.1872 -0.1431 -0.0656
  697SOL     OW 2785   2.908   1.060   2.210 -0.0847  0.0628 -0.9244
  697SOL    HW1 2786   2.844   1.128   2.212  0.2881 -2.4996 -2.3250
  697SOL    HW2 2787   2.871   0.988   2.161  0.7797 -2.1392  0.5186
  697SOL     MW 2788   2.895   1.059   2.204  0.0785 -0.5658 -0.9188
  698SOL     OW 2789   2.530   0.344   0.012 -0.6109  0.1395 -0.0825
  698SOL    HW1 2790   2.444   0.380   0.042 -1.3665 -1.7908  2.4288
  698SOL    HW2 2791   2.548   0.278   0.080 -2.9291  1.2686  2.4804
  698SOL     MW 2792   2.521   0.340   0.025 -1.0164  0.0338  0.5870
  699SOL     OW 2793   1.815   1.566   2.070  0.5231 -0.3290  0.0027
  699SOL    HW1 2794   1.783   1.483   2.036 -1.5218 -0.4388 -0.9459
  699SOL    HW2 2795   1.904   1.557   2.048  0.1791  2.4939  0.0594
  699SOL     MW 2796   1.822   1.554   2.063  0.2079  0.0290 -0.1150
  700SOL     OW 2797   2.682   0.925   1.474  0.5183 -0.1200  0.4614
  700SOL    HW1 2798   2.717   1.015   1.450  1.4266 -1.5253 -0.5706
  700SOL    HW2 2799   2.763   0.868   1.490  1.8167  0.5640 -1.3491
  700SOL     MW 2800   2.697   0.929   1.473  0.8095 -0.2152  0.0863
  701SOL     OW 2801   1.644   1.196   2.499 -0.2062 -0.1938  0.3003
  701SOL    HW1 2802   1.739   1.197   2.478 -1.5060 -0.0483  2.0256
  701SOL    HW2 2803   1.638   1.238   2.583 -1.0844  0.6244  1.0858
  701SOL     MW 2804   1.656   1.201   2.507 -0.4935 -0.0666  0.6316
  702SOL     OW 2805   2.144   0.414   0.854 -0.0004 -0.0598  0.0790
  702SOL    HW1 2806   2.122   0.338   0.802 -0.3813  0.4996  4.7019
  702SOL    HW2 2807   2.199   0.473   0.800  0.3813 -0.1396 -1.7638
  702SOL     MW 2808   2.148   0.412   0.840 -0.0003  0.0035  0.4458
  703SOL     OW 2809   2.719   1.192   1.072 -0.2872  0.1676 -0.1073
  703SOL    HW1 2810   2.706   1.192   0.975  0.4000  0.0138  1.7645
  703SOL    HW2 2811   2.751   1.098   1.090  2.9039 -1.7398 -1.3579
  703SOL     MW 2812   2.722   1.180   1.062  0.2245 -0.1043 -0.0253
  704SOL     OW 2813   3.056   1.173   0.058  0.4551 -0.0660  0.1407
  704SOL    HW1 2814   2.962   1.179   0.026 -0.2331 -1.7591  0.0844
  704SOL    HW2 2815   3.054   1.137   0.149  1.6405  0.1503 -2.6266
  704SOL     MW 2816   3.043   1.169   0.066  0.5207 -0.2609 -0.2318
  705SOL     OW 2817   2.171   1.626   1.229 -0.0310 -0.2065 -0.1236
  705SOL    HW1 2818   2.087   1.648   1.260  0.3713 -0.5968 -3.9524
  705SOL    HW2 2819   2.190   1.548   1.283 -1.1282  0.9420  0.6061
  705SOL     MW 2820   2.162   1.618   1.240 -0.1227 -0.1065 -0.5325
  706SOL     OW 2821   3.033   1.227   0.657 -0.0348 -0.0843  0.4460
  706SOL    HW1 2822   3.087   1.230   0.572  2.6511 -1.7771 -0.4944
  706SOL    HW2 2823   2.992   1.309   0.681 -1.0288 -3.1953 -1.3191
  706SOL     MW 2824   3.035   1.238   0.649  0.1885 -0.7181  0.0890
  707SOL     OW 2825   2.340   0.064   1.033 -0.3574 -0.1038 -0.2209
  707SOL    HW1 2826   2.368   0.142   0.988 -2.0747  1.2806 -4.5608
  707SOL    HW2 2827   2.268   0.031   0.975  0.1665 -0.7129  0.9410
  707SOL     MW 2828   2.334   0.070   1.019 -0.5149 -0.0015 -0.6402
  708SOL     OW 2829   2.404   1.422   0.192 -0.1008  0.1132 -0.2903
  708SOL    HW1 2830   2.492   1.399   0.224  1.7566 -2.7280 -1.0082
  708SOL    HW2 2831   2.430   1.435   0.102 -0.0003  0.2961  2.0400
  708SOL     MW 2832   2.419   1.421   0.184  0.1575 -0.2375 -0.0776
  709SOL     OW 2833   1.773   1.634   0.204 -0.1928  0.0222  0.1392
  709SOL    HW1 2834   1.752   1.663   0.116 -2.7371 -0.1757 -1.2103
  709SOL    HW2 2835   1.702   1.660   0.263  1.5759  0.8132  0.5063
  709SOL     MW 2836   1.761   1.641   0.200 -0.2951  0.1005  0.0096
  710SOL     OW 2837   2.215   1.176   1.168  0.0786 -0.4913 -0.0874
  710SOL    HW1 2838   2.221   1.112   1.094 -1.0559  1.3118  0.5147
  710SOL    HW2 2839   2.225   1.127   1.252  1.2028 -1.8800  1.2606
  710SOL     MW 2840   2.217   1.161   1.169  0.0772 -0.4366  0.1699
  711SOL     OW 2841   2.335   0.167   1.739  0.0981  0.6612  0.0282
  711SOL    HW1 2842   2.423   0.144   1.778 -0.4501 -0.5153 -0.9658
  711SOL    HW2 2843   2.353   0.195   1.651  0.2678 -2.0099  1.9345
  711SOL     MW 2844   2.349   0.168   1.733  0.0481  0.1535  0.1486
  712SOL     OW 2845   1.911   0.507   0.103  0.0408 -0.0074 -0.3053
  712SOL    HW1 2846   1.854   0.528   0.034  0.6036  3.6233 -0.0948
  712SOL    HW2 2847   1.931   0.596   0.138 -1.4398 -2.6632 -0.7416
  712SOL     MW 2848   1.906   0.522   0.099 -0.0803  0.1212 -0.3351
  713SOL     OW 2849   2.558   0.839   1.080 -0.0551 -0.0661 -0.3282
  713SOL    HW1 2850   2.512   0.763   1.116  0.1852 -2.5399  3.2565
  713SOL    HW2 2851   2.537   0.910   1.138 -1.7993 -4.2952 -1.1031
  713SOL     MW 2852   2.549   0.838   1.092 -0.2535 -0.9505  0.0425
  714SOL     OW 2853   2.226   0.205   1.990  0.1898 -0.6404 -0.7046
  714SOL    HW1 2854   2.251   0.170   2.073  1.0553  0.6300  2.1068
  714SOL    HW2 2855   2.268   0.169   1.908 -2.2355 -1.3191 -3.0122
  714SOL     MW 2856   2.235   0.196   1.990 -0.0160 -0.5623 -0.6381
  715SOL     OW 2857   1.751   1.870   1.689  0.0834  0.3481  0.5866
  715SOL    HW1 2858   1.840   1.855   1.674 -1.2375  1.0777  1.0136
  715SOL    HW2 2859   1.734   1.832   1.773  0.1114 -1.6553 -0.2393
  715SOL     MW 2860   1.761   1.863   1.698 -0.0872  0.1800  0.5340
  716SOL     OW 2861   2.310   0.598   0.730  0.1591  0.2355  0.2023
  716SOL    HW1 2862   2.353   0.534   0.670 -1.7774  0.5643 -0.7921
  716SOL    HW2 2863   2.245   0.643   0.680 -0.6942 -0.0912  0.7783
  716SOL     MW 2864   2.307   0.595   0.715 -0.2090  0.2358  0.1471
  717SOL     OW 2865   2.863   1.622   2.866  0.4460 -0.0480 -0.0339
  717SOL    HW1 2866   2.942   1.588   2.903 -1.4595  2.2608  0.2315
  717SOL    HW2 2867   2.818   1.676   2.933  1.0165  1.5219 -0.1472
  717SOL     MW 2868   2.867   1.625   2.880  0.2698  0.4638 -0.0138
  718SOL     OW 2869   2.665   1.433   1.335 -0.0775  0.5994  0.2198
  718SOL    HW1 2870   2.651   1.449   1.426  1.6313  0.5026 -1.3587
  718SOL    HW2 2871   2.721   1.356   1.330  0.5098 -0.5808  1.3962
  718SOL     MW 2872   2.671   1.425   1.347  0.2255  0.4309  0.1667
  719SOL     OW 2873   2.192   1.300   0.585  0.4787 -0.4636  0.0548
  719SOL    HW1 2874   2.289   1.308   0.581 -1.4577  0.5408 -2.0184
  719SOL    HW2 2875   2.158   1.324   0.677 -1.7869  3.1016  0.3043
  719SOL     MW 2876   2.200   1.304   0.596 -0.0757  0.1393 -0.1858
  720SOL     OW 2877   2.768   1.190   0.040  0.4304 -0.5176  0.2555
  720SOL    HW1 2878   2.765   1.102   0.082  2.9019  0.4800  3.6671
  720SOL    HW2 2879   2.734   1.232   0.121 -1.6507 -0.3883 -0.4930
  720SOL     MW 2880   2.763   1.184   0.056  0.4819 -0.3689  0.6068
  721SOL     OW 2881   2.442   0.846   1.351  0.1013  0.0242 -0.5220
  721SOL    HW1 2882   2.423   0.752   1.371 -0.2702 -0.4387  2.6451
  721SOL    HW2 2883   2.522   0.864   1.401 -1.5109  1.4252 -0.3626
  721SOL     MW 2884   2.450   0.836   1.360 -0.1604  0.1480 -0.0831
  722SOL     OW 2885   2.598   1.111   0.402  0.3762 -0.2571  0.8451
  722SOL    HW1 2886   2.537   1.166   0.452 -1.1996  0.1799 -0.5026
  722SOL    HW2 2887   2.672   1.106   0.467  0.4883 -0.2907 -3.2079
  722SOL     MW 2888   2.600   1.118   0.417  0.1831 -0.2038  0.1325
  723SOL     OW 2889   2.337   1.382   1.595 -0.5567  0.0606 -0.0105
  723SOL    HW1 2890   2.340   1.350   1.503  1.0668 -0.8019  1.2802
  723SOL    HW2 2891   2.266   1.443   1.597  3.5242 -0.2454 -3.5208
  723SOL     MW 2892   2.328   1.386   1.583  0.1960 -0.0935 -0.3033
  724SOL     OW 2893   2.429   0.364   0.598 -0.2369 -0.1950  0.0330
  724SOL    HW1 2894   2.441   0.314   0.677 -2.9173  0.6779 -0.7467
  724SOL    HW2 2895   2.515   0.404   0.580  0.5664 -0.3067 -1.2344
  724SOL     MW 2896   2.442   0.363   0.606 -0.4846 -0.0946 -0.2371
  725SOL     OW 2897   2.539   0.582   1.201  0.1709  0.2673  0.1095
  725SOL    HW1 2898   2.625   0.608   1.226  0.1265 -0.4993 -0.7176
  725SOL    HW2 2899   2.485   0.568   1.282 -1.3900  2.3132  0.7796
  725SOL     MW 2900   2.544   0.583   1.215 -0.0409  0.4361  0.0888
  726SOL     OW 2901   2.561   2.457   0.565  0.2207  0.2578  0.0548
  726SOL    HW1 2902   2.520   2.514   0.504  1.5085  1.6074  0.4333
  726SOL    HW2 2903   2.502   2.422   0.630 -1.7103 -0.4743  1.6039
  726SOL     MW 2904   2.548   2.460   0.566  0.1359  0.3393  0.3091
  727SOL     OW 2905   2.912   0.361   1.707 -1.0469 -0.4342  0.5021
  727SOL    HW1 2906   2.852   0.342   1.637  2.2862  0.1672  0.5891
  727SOL    HW2 2907   2.864   0.322   1.781  0.1118  0.2950 -1.0324
  727SOL     MW 2908   2.898   0.353   1.708 -0.4543 -0.2587  0.3111
  728SOL     OW 2909   2.794   1.177   2.866 -0.2707  0.0238  0.4162
  728SOL    HW1 2910   2.839   1.252   2.826  1.5301 -3.1623  0.8240
  728SOL    HW2 2911   2.768   1.205   2.952 -0.5458 -0.5970  0.1094
  728SOL     MW 2912   2.797   1.190   2.872 -0.0694 -0.4785  0.4295
  729SOL     OW 2913   2.514   1.481   1.134 -0.4422 -0.2256  0.5563
  729SOL    HW1 2914   2.584   1.441   1.184 -0.5479  3.8937 -0.3443
  729SOL    HW2 2915   2.537   1.482   1.042  0.0465  2.8976  1.6806
  729SOL     MW 2916   2.526   1.476   1.129 -0.3917  0.7300  0.5858
  730SOL     OW 2917   2.270   1.183   0.176  0.3678  0.2069  0.2567
  730SOL    HW1 2918   2.355   1.131   0.169 -1.4717  0.3206 -1.2617
  730SOL    HW2 2919   2.295   1.263   0.221 -2.4430 -3.1485  2.3093
  730SOL     MW 2920   2.285   1.186   0.181 -0.2457 -0.2208  0.3272
  731SOL     OW 2921   2.760   1.909   2.855  0.2491  0.7002 -0.0753
  731SOL    HW1 2922   2.692   1.949   2.799 -0.1549  1.3338  0.1355
  731SOL    HW2 2923   2.838   1.939   2.807 -2.0805 -0.6148  0.9528
  731SOL     MW 2924   2.761   1.919   2.841 -0.1115  0.6103  0.0882
  732SOL     OW 2925   2.221   0.986   1.361  0.3012 -0.5026 -0.5138
  732SOL    HW1 2926   2.179   0.964   1.444 -0.1200 -0.7357 -0.7221
  732SOL    HW2 2927   2.306   0.948   1.361 -2.0665  0.0764 -1.0264
  732SOL     MW 2928   2.227   0.978   1.372 -0.0667 -0.4569 -0.6089
  733SOL     OW 2929   2.360   2.754   3.006  0.0521 -0.3597 -0.4199
  733SOL    HW1 2930   2.279   2.802   2.989  2.3448  1.8776 -1.2907
  733SOL    HW2 2931   2.330   2.664   2.990 -0.3489  0.0331  0.1397
  733SOL     MW 2932   2.345   2.749   3.002  0.3017 -0.0127 -0.4610
  734SOL     OW 2933   1.428   0.332   2.466 -0.5268 -0.0990  1.1520
  734SOL    HW1 2934   1.435   0.305   2.557  0.2837 -0.7730 -0.8331
  734SOL    HW2 2935   1.475   0.265   2.416  1.2790  1.1502  2.6054
  734SOL     MW 2936   1.435   0.320   2.472 -0.1816 -0.0231  1.0818
  735SOL     OW 2937   2.921   0.901   2.631 -0.1816  0.6583  0.3471
  735SOL    HW1 2938   2.925   0.803   2.626 -0.6233 -3.3220 -0.3578
  735SOL    HW2 2939   2.959   0.931   2.713 -0.2885 -0.5808  1.1064
  735SOL     MW 2940   2.927   0.892   2.641 -0.2540 -0.0304  0.3542
  736SOL     OW 2941   0.083   0.578   2.499  0.1117  0.0291  0.5309
  736SOL    HW1 2942   0.140   0.645   2.461 -1.2903 -2.4894  0.4426
  736SOL    HW2 2943   0.084   0.503   2.438 -0.3974 -1.2927  2.6645
  736SOL     MW 2944   0.091   0.577   2.486 -0.1404 -0.4776  0.8008
  737SOL     OW 2945   2.923   0.631   2.569 -0.1567  0.2057  0.3150
  737SOL    HW1 2946   2.871   0.582   2.504  2.1990 -0.0629  1.2344
  737SOL    HW2 2947   3.023   0.617   2.546  1.4525  0.4017 -0.8195
  737SOL     MW 2948   2.929   0.623   2.558  0.3664  0.1961  0.2866
  738SOL     OW 2949   0.142   0.588   1.898 -0.4077 -0.5485  0.0585
  738SOL    HW1 2950   0.216   0.642   1.866  0.7348 -1.1978  0.7441
  738SOL    HW2 2951   0.157   0.502   1.861 -2.3124 -1.6234  0.6361
  738SOL     MW 2952   0.154   0.584   1.889 -0.5082 -0.7760  0.2251
  739SOL     OW 2953   2.466   1.006   2.061  0.1649 -0.2480  0.1534
  739SOL    HW1 2954   2.402   0.953   2.016  0.5886 -2.9042 -0.5709
  739SOL    HW2 2955   2.510   1.046   1.986 -0.4202  3.3268  0.9371
  739SOL     MW 2956   2.464   1.005   2.045  0.1436 -0.1268  0.1612
  740SOL     OW 2957   0.262   1.718   2.941 -0.4665 -0.6341  0.3735
  740SOL    HW1 2958   0.185   1.672   2.981 -0.1484 -1.0604  0.2891
  740SOL    HW2 2959   0.342   1.682   2.972 -0.6157 -0.3645 -1.4303
  740SOL     MW 2960   0.262   1.707   2.950 -0.4442 -0.6548  0.1244
  741SOL     OW 2961   2.233   1.149   2.747  0.1935 -0.7510  0.2095
  741SOL    HW1 2962   2.135   1.154   2.748 -1.1488 -1.1963 -1.9399
  741SOL    HW2 2963   2.254   1.202   2.830 -0.6106 -0.1203  2.2041
  741SOL     MW 2964   2.223   1.157   2.758 -0.0897 -0.7265  0.1891
  742SOL     OW 2965   1.497   1.240   2.219  0.2888  0.0938  0.2310
  742SOL    HW1 2966   1.508   1.142   2.211  3.0436  0.6503 -1.7344
  742SOL    HW2 2967   1.516   1.263   2.308 -0.6479  3.1229  0.6696
  742SOL     MW 2968   1.501   1.230   2.230  0.5287  0.5669  0.0296
  743SOL     OW 2969   2.457   1.302   2.700 -0.5090 -0.4594 -0.2367
  743SOL    HW1 2970   2.362   1.293   2.708 -4.0023 -0.2300  0.3031
  743SOL    HW2 2971   2.490   1.238   2.766 -3.0500  1.5976 -1.9269
  743SOL     MW 2972   2.449   1.293   2.710 -1.3052 -0.1577 -0.3885
  744SOL     OW 2973   2.767   0.979   1.780 -0.1340  0.3145  0.2460
  744SOL    HW1 2974   2.712   1.046   1.812 -3.9809 -1.1867  0.6278
  744SOL    HW2 2975   2.718   0.957   1.700 -1.4861 -1.4618 -0.5983
  744SOL     MW 2976   2.754   0.985   1.773 -0.8200 -0.1179  0.1850
  745SOL     OW 2977   1.691   0.460   2.475 -0.2382  0.2559  0.1231
  745SOL    HW1 2978   1.721   0.467   2.382  4.9653  0.6548 -1.4417
  745SOL    HW2 2979   1.596   0.448   2.467  0.4806 -0.7537 -2.8079
  745SOL     MW 2980   1.683   0.460   2.461  0.5432  0.1753 -0.4701
  746SOL     OW 2981   1.582   1.433   1.561 -0.0999 -0.2064 -0.5030
  746SOL    HW1 2982   1.676   1.453   1.579  0.8008  0.6261  0.3662
  746SOL    HW2 2983   1.542   1.405   1.644 -1.1724  2.6859  1.4765
  746SOL     MW 2984   1.589   1.432   1.574 -0.1225  0.2851 -0.1272
  747SOL     OW 2985   2.541   1.177   1.798  0.5416  0.4200  0.3711
  747SOL    HW1 2986   2.449   1.140   1.781  0.5556 -2.8995 -1.4096
  747SOL    HW2 2987   2.548   1.253   1.860  1.2484 -2.3044  0.3710
  747SOL     MW 2988   2.529   1.182   1.804  0.6367 -0.3774  0.1361
  748SOL     OW 2989   0.134   0.020   1.809 -0.0052 -0.0336  0.3038
  748SOL    HW1 2990   0.226   0.041   1.820 -2.8061  2.1381 -0.2783
  748SOL    HW2 2991   0.086   0.057   1.886 -0.5703 -0.6689 -2.6465
  748SOL     MW 2992   0.140   0.027   1.820 -0.4493  0.1691 -0.1622
  749SOL     OW 2993   2.429   0.546   2.754  0.5942 -0.2299 -0.4539
  749SOL    HW1 2994   2.444   0.584   2.663 -0.1712  1.9321  0.4120
  749SOL    HW2 2995   2.454   0.622   2.815 -0.5415 -1.4845 -1.7696
  749SOL     MW 2996   2.434   0.561   2.750  0.3434 -0.1102 -0.5133
  750SOL     OW 2997   2.037   0.010   1.982 -0.1394 -0.1011  0.0877
  750SOL    HW1 2998   2.089   0.086   2.016 -2.4477  1.9795  0.0292
  750SOL    HW2 2999   2.098  -0.059   1.963 -0.1230  2.0301  1.4132
  750SOL     MW 3000   2.052   0.011   1.984 -0.4418  0.4546  0.2549
  751SOL     OW 3001   0.047   0.382   2.291  0.2062 -0.2280  0.2470
  751SOL    HW1 3002  -0.022   0.318   2.329  0.7068  2.3618  0.2583
  751SOL    HW2 3003   0.125   0.322   2.288 -0.6093  0.7833 -1.3066
  751SOL     MW 3004   0.048   0.365   2.296  0.1647  0.2471  0.0435
  752SOL     OW 3005   2.138   0.820   2.654 -0.0169  0.0012 -0.2136
  752SOL    HW1 3006   2.222   0.841   2.611 -0.4422 -3.5829 -0.0524
  752SOL    HW2 3007   2.143   0.831   2.749  0.6190  1.2978  0.8894
  752SOL     MW 3008   2.150   0.824   2.661  0.0109 -0.3006 -0.0468
  753SOL     OW 3009   2.936   0.267   2.396  0.3796  0.1615 -0.0945
  753SOL    HW1 3010   2.867   0.210   2.357 -1.2018 -2.8150  0.8542
  753SOL    HW2 3011   2.892   0.350   2.403 -1.9247 -0.6990  1.0874
  753SOL     MW 3012   2.921   0.271   2.392 -0.1330 -0.3448  0.1866
  754SOL     OW 3013   2.237   2.997   2.609  0.2042  0.0751 -1.0898
  754SOL    HW1 3014   2.266   2.977   2.522 -0.0630 -1.4653 -0.8935
  754SOL    HW2 3015   2.292   2.946   2.670  0.7774 -1.2356  0.9568
  754SOL     MW 3016   2.248   2.988   2.605  0.2446 -0.3011 -0.7939
  755SOL     OW 3017   2.723   1.539   2.472 -0.1479 -1.3738 -0.2102
  755SOL    HW1 3018   2.729   1.452   2.517  0.4832  0.9954  0.9692
  755SOL    HW2 3019   2.788   1.586   2.525 -0.4411  0.3937  1.3096
  755SOL     MW 3020   2.732   1.534   2.485 -0.1033 -0.8280  0.1459
  756SOL     OW 3021   2.255   1.331   2.962  0.2947 -0.8200  0.4465
  756SOL    HW1 3022   2.308   1.409   2.939 -1.8241 -0.1967 -1.3938
  756SOL    HW2 3023   2.318   1.279   3.017  2.9619  0.1817  0.5469
  756SOL     MW 3024   2.271   1.334   2.966  0.3670 -0.6056  0.2170
  757SOL     OW 3025   2.130   0.946   1.601  0.1823 -0.3790 -0.1122
  757SOL    HW1 3026   2.155   0.853   1.613  0.8447 -1.0961  0.5135
  757SOL    HW2 3027   2.030   0.948   1.579  0.0794  1.0128 -1.9835
  757SOL     MW 3028   2.120   0.934   1.600  0.2561 -0.2900 -0.2765
  758SOL     OW 3029   2.189   1.769   2.607  0.0023 -0.0095 -0.1382
  758SOL    HW1 3030   2.190   1.785   2.513  1.7790  2.5537  1.5109
  758SOL    HW2 3031   2.278   1.746   2.627 -1.6689 -0.9889  0.5198
  758SOL     MW 3032   2.201   1.768   2.597  0.0162  0.1994  0.1662
  759SOL     OW 3033   1.619   1.346   2.718  0.1171 -0.2968 -0.1933
  759SOL    HW1 3034   1.617   1.422   2.657 -2.4132 -0.9898  1.3282
  759SOL    HW2 3035   1.658   1.384   2.799  2.6167  1.1931  0.4204
  759SOL     MW 3036   1.624   1.361   2.721  0.1131 -0.1917  0.0884
  760SOL     OW 3037   2.539   2.006   2.692  0.5885  0.1068 -0.1597
  760SOL    HW1 3038   2.525   1.907   2.671 -2.4157  2.3773  2.1452
  760SOL    HW2 3039   2.567   2.059   2.610  0.4840 -0.7784  0.5765
  760SOL     MW 3040   2.541   2.000   2.679  0.1783  0.2895  0.2415
  761SOL     OW 3041   2.129   0.421   2.481 -0.3113  0.2038 -0.3700
  761SOL    HW1 3042   2.043   0.376   2.474  1.5115 -0.0984  1.1388
  761SOL    HW2 3043   2.140   0.423   2.577  3.3067 -0.4519  1.7188
  761SOL     MW 3044   2.119   0.415   2.493  0.4066  0.0775  0.1047
  762SOL     OW 3045   3.085   0.136   2.004  0.1358  0.3831  0.4470
  762SOL    HW1 3046   3.070   0.088   2.083 -1.5600  0.9332 -0.4202
  762SOL    HW2 3047   3.057   0.226   2.017 -0.1055 -0.9800  0.3306
  762SOL     MW 3048   3.079   0.141   2.016 -0.1198  0.2758  0.3172
  763SOL     OW 3049   2.433   1.071   2.326  0.5134 -0.0255 -0.3113
  763SOL    HW1 3050   2.470   1.052   2.235 -0.2623 -0.2153 -1.3032
  763SOL    HW2 3051   2.496   1.130   2.365 -0.1245 -0.2713 -1.3745
  763SOL     MW 3052   2.446   1.076   2.319  0.3269 -0.0830 -0.5825
  764SOL     OW 3053   0.457   0.259   2.769 -0.7175  0.5952  0.1473
  764SOL    HW1 3054   0.372   0.239   2.739  1.5081  0.6405 -2.0887
  764SOL    HW2 3055   0.443   0.328   2.833 -2.0355 -0.0048  1.7299
  764SOL     MW 3056   0.444   0.266   2.774 -0.5977  0.5220  0.0611
  765SOL     OW 3057   2.745   0.094   2.283  0.3215  0.1343  0.3142
  765SOL    HW1 3058   2.672   0.087   2.216  2.2968 -1.3137 -1.0857
  765SOL    HW2 3059   2.762  -0.001   2.314  0.2983 -0.7896  1.7100
  765SOL     MW 3060   2.738   0.080   2.279  0.5791 -0.1786  0.3136
  766SOL     OW 3061   1.842   3.017   2.203  0.1522 -0.2288  0.3099
  766SOL    HW1 3062   1.873   3.076   2.136  1.7481  0.9688  1.2615
  766SOL    HW2 3063   1.811   2.932   2.165 -1.6378  1.9248  0.9897
  766SOL     MW 3064   1.842   3.014   2.189  0.1266  0.2133  0.5251
  767SOL     OW 3065   2.637   0.612   1.945 -0.4294  0.0494 -0.0097
  767SOL    HW1 3066   2.675   0.676   2.006 -1.0123 -1.6303  0.9822
  767SOL    HW2 3067   2.544   0.603   1.975 -0.1190 -0.1789  0.2252
  767SOL     MW 3068   2.630   0.620   1.957 -0.4654 -0.2023  0.1522
  768SOL     OW 3069   0.020   1.562   2.999  0.1800  0.2477 -0.1754
  768SOL    HW1 3070   0.027   1.531   3.087 -1.9330 -1.7644 -1.7299
  768SOL    HW2 3071   0.050   1.495   2.933  0.4274 -0.8328  1.1175
  768SOL     MW 3072   0.025   1.549   3.002 -0.0661 -0.1603 -0.2099
  769SOL     OW 3073   2.345   0.718   2.296 -0.3774  0.3384  0.1763
  769SOL    HW1 3074   2.261   0.670   2.310 -2.0352 -1.6416  0.7077
  769SOL    HW2 3075   2.405   0.659   2.253  1.4152 -0.4412 -0.1204
  769SOL     MW 3076   2.342   0.704   2.293 -0.3596 -0.0257  0.2073
  770SOL     OW 3077   0.091   1.648   2.624  0.1620 -0.4684 -0.7386
  770SOL    HW1 3078  -0.007   1.644   2.610 -0.1638  1.1890 -1.8059
  770SOL    HW2 3079   0.104   1.563   2.674 -1.6708 -2.4792  2.7053
  770SOL     MW 3080   0.080   1.636   2.629 -0.1228 -0.5151 -0.4251
  771SOL     OW 3081   2.967   0.638   1.922 -0.7013 -0.1801 -0.3851
  771SOL    HW1 3082   2.915   0.620   1.845  1.8888  0.9434  1.2623
  771SOL    HW2 3083   3.056   0.631   1.890 -0.1943 -1.4907 -0.7240
  771SOL     MW 3084   2.972   0.634   1.908 -0.2927 -0.2048 -0.2125
  772SOL     OW 3085   3.079   3.096   2.238  0.2585 -0.4392  0.2100
  772SOL    HW1 3086   3.000   3.060   2.268  2.9291 -0.2357 -0.1648
  772SOL    HW2 3087   3.130   3.027   2.199 -1.5724  3.3126 -1.3283
  772SOL     MW 3088   3.075   3.082   2.237  0.3693  0.0827 -0.0424
  773SOL     OW 3089   2.438   2.819   2.752  0.2117 -0.0772  0.2492
  773SOL    HW1 3090   2.427   2.731   2.720 -0.0585  1.5324 -1.3275
  773SOL    HW2 3091   2.427   2.799   2.848  0.1879  0.9657  1.7350
  773SOL     MW 3092   2.435   2.805   2.761  0.1729  0.2728  0.2372
  774SOL     OW 3093   2.279   1.140   1.730 -0.0560  0.2678 -0.2650
  774SOL    HW1 3094   2.298   1.220   1.677  3.3864  1.2902  2.0679
  774SOL    HW2 3095   2.219   1.080   1.681 -1.2417 -2.2462 -1.8572
  774SOL     MW 3096   2.274   1.143   1.716  0.2417  0.0710 -0.1673
  775SOL     OW 3097   2.321   2.921   2.346  0.4711 -0.3672 -0.3781
  775SOL    HW1 3098   2.356   3.001   2.312 -1.3197 -0.3644  1.4626
  775SOL    HW2 3099   2.364   2.844   2.308 -2.0326 -2.1900 -1.9745
  775SOL     MW 3100   2.332   2.922   2.336 -0.0955 -0.6074 -0.3459
  776SOL     OW 3101   0.027   1.422   0.124 -0.2856  0.1519 -0.2892
  776SOL    HW1 3102   0.114   1.403   0.137 -2.5176 -1.0304 -2.0615
  776SOL    HW2 3103  -0.011   1.337   0.091 -1.5858  0.0252 -1.6076
  776SOL     MW 3104   0.034   1.408   0.121 -0.7516 -0.0208 -0.6970
  777SOL     OW 3105   3.010   1.084   1.739  0.5912 -0.2165  0.2298
  777SOL    HW1 3106   2.967   1.170   1.725  1.4720 -1.1400 -0.6335
  777SOL    HW2 3107   2.935   1.020   1.738 -0.6549  0.4656  0.7515
  777SOL     MW 3108   2.995   1.087   1.737  0.5430 -0.2484  0.1848
  778SOL     OW 3109   2.912   0.416   2.744  0.2321 -0.2671  0.0583
  778SOL    HW1 3110   2.840   0.429   2.809  1.0258 -0.5213  0.6246
  778SOL    HW2 3111   2.913   0.493   2.689  0.7307 -3.2755 -0.3697
  778SOL     MW 3112   2.903   0.428   2.745  0.4026 -0.6975  0.0766
  779SOL     OW 3113   2.088   0.620   2.285  0.1472  0.0723  0.3606
  779SOL    HW1 3114   2.050   0.675   2.350  1.4846  1.3499 -2.0488
  779SOL    HW2 3115   2.089   0.530   2.340 -1.6445 -1.9648  2.1048
  779SOL     MW 3116   2.083   0.615   2.301  0.0873 -0.0279  0.2728
  780SOL     OW 3117   0.177   0.180   2.748  0.9051 -0.2765 -0.1490
  780SOL    HW1 3118   0.153   0.225   2.827  3.2422 -2.1275 -1.3467
  780SOL    HW2 3119   0.096   0.170   2.700  0.5871  0.0827  0.1164
  780SOL     MW 3120   0.163   0.184   2.752  1.1715 -0.4734 -0.2720
  781SOL     OW 3121   3.040   1.320   2.503  0.1300  0.1517  0.0755
  781SOL    HW1 3122   2.995   1.376   2.437  1.2005  0.6408  0.2212
  781SOL    HW2 3123   3.045   1.225   2.469 -1.3984 -4.2050 -0.1482
  781SOL     MW 3124   3.035   1.315   2.490  0.0696 -0.3586  0.0652
  782SOL     OW 3125   0.757   1.501   3.042 -0.0368  0.0461 -0.1334
  782SOL    HW1 3126   0.675   1.555   3.049  1.9855  2.1915  2.8492
  782SOL    HW2 3127   0.794   1.484   3.135  1.0670  1.0928  0.3003
  782SOL     MW 3128   0.751   1.506   3.055  0.3756  0.4672  0.3174
  783SOL     OW 3129   2.762   0.469   2.416 -0.7449  0.1197  0.0491
  783SOL    HW1 3130   2.717   0.478   2.330 -0.8972 -0.5347 -0.5880
  783SOL    HW2 3131   2.699   0.429   2.477  1.9649  2.3987  2.0950
  783SOL     MW 3132   2.747   0.465   2.413 -0.4075  0.3340  0.2350
  784SOL     OW 3133   0.236   0.849   2.870  0.6240  0.7098  0.0413
  784SOL    HW1 3134   0.218   0.922   2.922  0.7371 -0.2790 -2.7390
  784SOL    HW2 3135   0.277   0.885   2.796 -1.7932 -0.2915  1.7139
  784SOL     MW 3136   0.239   0.863   2.867  0.3200  0.4472 -0.1049
  785SOL     OW 3137   0.426   0.477   2.198  0.2970 -0.0911 -0.5494
  785SOL    HW1 3138   0.398   0.551   2.143  1.1410  0.9000  1.4095
  785SOL    HW2 3139   0.357   0.405   2.184 -3.0498  1.3416  1.1162
  785SOL     MW 3140   0.413   0.478   2.189 -0.0332  0.2287 -0.0712
  786SOL     OW 3141   1.973   0.456   2.935  0.2140  0.5356 -0.6071
  786SOL    HW1 3142   1.991   0.480   3.021 -3.4904  3.9990 -0.2654
  786SOL    HW2 3143   2.063   0.466   2.891 -0.4359  1.8597  2.0216
  786SOL     MW 3144   1.987   0.461   2.941 -0.3605  1.1672 -0.2152
  787SOL     OW 3145   2.424   0.165   2.920 -0.1764  0.0803 -0.1202
  787SOL    HW1 3146   2.483   0.095   2.869 -2.0539  0.2035  0.1989
  787SOL    HW2 3147   2.478   0.239   2.949 -0.7325 -0.4012  1.1512
  787SOL     MW 3148   2.439   0.165   2.917 -0.4975  0.0330  0.0897
  788SOL     OW 3149   2.882   2.970   2.375  0.3007 -0.4114 -0.7880
  788SOL    HW1 3150   2.916   2.999   2.454 -1.3321 -0.5922 -0.6220
  788SOL    HW2 3151   2.916   2.880   2.354  0.2256  1.4836  0.1932
  788SOL     MW 3152   2.891   2.962   2.383  0.0754 -0.1852 -0.6366
  789SOL     OW 3153   0.049   0.307   2.969 -0.1983  0.6131 -0.2512
  789SOL    HW1 3154  -0.012   0.242   3.004  1.6106 -3.5987 -2.2920
  789SOL    HW2 3155  -0.006   0.386   2.938 -2.9720  0.7097 -3.6963
  789SOL     MW 3156   0.033   0.309   2.969 -0.3256  0.0702 -0.9750
  790SOL     OW 3157   3.041   1.051   2.437  0.0678  0.2623  0.1248
  790SOL    HW1 3158   2.990   0.986   2.495 -1.3471  0.5943  0.9446
  790SOL    HW2 3159   2.988   1.051   2.352 -1.5054  1.9933 -2.2363
  790SOL     MW 3160   3.028   1.042   2.433 -0.3265  0.5345 -0.0785
  791SOL     OW 3161   2.610   0.351   2.625 -0.6691 -0.6745 -0.0090
  791SOL    HW1 3162   2.552   0.421   2.661  1.1512 -1.4710  1.8074
  791SOL    HW2 3163   2.692   0.342   2.677  1.4180 -0.6448  0.3535
  791SOL     MW 3164   2.613   0.359   2.636 -0.1535 -0.7757  0.2785
  792SOL     OW 3165   2.357   0.271   2.405  0.0290 -0.2919 -0.4053
  792SOL    HW1 3166   2.284   0.328   2.426  0.4295  0.6966  1.4728
  792SOL    HW2 3167   2.365   0.211   2.486  2.3457 -1.3899  0.1693
  792SOL     MW 3168   2.348   0.270   2.419  0.3875 -0.3063 -0.0817
  793SOL     OW 3169   1.852   1.045   1.969 -0.2653  0.6417  0.2145
  793SOL    HW1 3170   1.808   1.082   1.898  1.6439  1.1902  0.7216
  793SOL    HW2 3171   1.908   0.982   1.926  2.6862 -0.0449  0.5302
  793SOL     MW 3172   1.853   1.042   1.954  0.3760  0.6235  0.3230
  794SOL     OW 3173   1.416   2.280   0.176  0.3572 -0.3075  0.0773
  794SOL    HW1 3174   1.433   2.366   0.124 -0.4137 -0.1429  0.6468
  794SOL    HW2 3175   1.463   2.288   0.257 -0.1980 -1.3531 -2.2449
  794SOL     MW 3176   1.425   2.293   0.180  0.1823 -0.4238 -0.1540
  795SOL     OW 3177   2.358   0.968   2.560  0.0238  0.1592 -0.7259
  795SOL    HW1 3178   2.321   1.042   2.609  2.0729  0.4516 -0.3025
  795SOL    HW2 3179   2.385   1.004   2.472 -0.2426 -1.3771  1.0261
  795SOL     MW 3180   2.356   0.983   2.555  0.2590 -0.0049 -0.4389
  796SOL     OW 3181   0.258   0.597   2.740  0.4331 -0.1012 -0.1736
  796SOL    HW1 3182   0.227   0.660   2.801 -1.4346 -1.7783 -1.3612
  796SOL    HW2 3183   0.193   0.598   2.668 -0.1958  0.5847 -1.3051
  796SOL     MW 3184   0.245   0.606   2.739  0.1037 -0.2320 -0.4796
  797SOL     OW 3185   2.568   0.112   2.494  0.2927  0.2963 -0.2173
  797SOL    HW1 3186   2.578   0.212   2.529  1.0393  0.4901 -1.5453
  797SOL    HW2 3187   2.637   0.102   2.429 -2.3271 -1.1170  0.5622
  797SOL     MW 3188   2.578   0.124   2.490  0.0455  0.1354 -0.2897
  798SOL     OW 3189   2.315   0.066   2.218  0.2543  0.2610  0.0386
  798SOL    HW1 3190   2.324   0.149   2.273 -2.1949  0.0738  0.1891
  798SOL    HW2 3191   2.406   0.039   2.178  2.2746 -1.8755 -0.3937
  798SOL     MW 3192   2.329   0.073   2.220  0.1977 -0.0456  0.0014
  799SOL     OW 3193   2.470   2.938   0.099 -0.2451 -0.3484  0.3427
  799SOL    HW1 3194   2.421   2.857   0.087 -2.9303 -0.8148  3.1374
  799SOL    HW2 3195   2.406   3.004   0.092 -0.0883 -0.9165  1.8209
  799SOL     MW 3196   2.455   2.936   0.097 -0.5787 -0.4849  0.9065
  800SOL     OW 3197   1.879   0.025   1.766 -0.3398 -0.2052  0.3337
  800SOL    HW1 3198   1.827  -0.052   1.783 -0.2205 -0.3488  0.9232
  800SOL    HW2 3199   1.949   0.019   1.829 -0.5719  0.0932  0.5582
  800SOL     MW 3200   1.882   0.014   1.776 -0.3547 -0.1848  0.4411
  801SOL     OW 3201   2.795   1.280   2.584  0.4431 -0.0110  0.7390
  801SOL    HW1 3202   2.775   1.181   2.583  0.0495  0.5172  1.7733
  801SOL    HW2 3203   2.888   1.295   2.558 -1.7503 -2.1145 -1.0576
  801SOL     MW 3204   2.804   1.269   2.581  0.1017 -0.2188  0.6384
  802SOL     OW 3205   2.592   1.535   2.815 -0.5352  0.4378  0.7880
  802SOL    HW1 3206   2.557   1.458   2.763 -0.2707 -0.3176  0.9888
  802SOL    HW2 3207   2.687   1.520   2.839 -1.6513 -0.8393  2.8270
  802SOL     MW 3208   2.600   1.523   2.811 -0.6476  0.1696  1.0835
  803SOL     OW 3209   2.315   1.418   1.999  0.0948  0.0471 -0.0285
  803SOL    HW1 3210   2.297   1.371   2.076  1.3536  0.9128  2.0753
  803SOL    HW2 3211   2.299   1.361   1.922 -0.8375 -2.6418  0.1037
  803SOL     MW 3212   2.310   1.404   1.999  0.1379 -0.1934  0.2665
  804SOL     OW 3213   2.293   0.064   0.025 -0.2998 -0.0576  0.0555
  804SOL    HW1 3214   2.224   0.133   0.032 -1.2289 -0.6986  2.2382
  804SOL    HW2 3215   2.353   0.099  -0.044  0.8413 -0.0048  0.8360
  804SOL     MW 3216   2.292   0.078   0.017 -0.2718 -0.1352  0.4465
  805SOL     OW 3217   2.680   0.993   2.553  0.1450 -0.0336 -0.6057
  805SOL    HW1 3218   2.661   0.986   2.461  0.3995 -0.6310 -0.1423
  805SOL    HW2 3219   2.766   0.949   2.566 -0.0256 -0.9605  0.1845
  805SOL     MW 3220   2.689   0.987   2.543  0.1561 -0.2347 -0.4403
  806SOL     OW 3221   2.531   0.413   2.234  0.2135 -0.4175 -0.5668
  806SOL    HW1 3222   2.482   0.360   2.297 -2.7050  0.0201 -2.4301
  806SOL    HW2 3223   2.485   0.404   2.154  0.4104 -2.3129  0.4447
  806SOL     MW 3224   2.519   0.405   2.232 -0.1456 -0.6099 -0.6792
  807SOL     OW 3225   0.103   1.171   2.093 -0.2922  0.8437  0.4911
  807SOL    HW1 3226   0.096   1.084   2.059 -1.6565  1.7559  0.0826
  807SOL    HW2 3227   0.033   1.166   2.156 -0.5601 -2.6523  2.9574
  807SOL     MW 3228   0.093   1.159   2.097 -0.5075  0.5028  0.7626
  808SOL     OW 3229   2.550   3.076   2.731  0.6846  0.2094  0.7724
  808SOL    HW1 3230   2.518   2.985   2.722  1.7380  0.1805 -1.2375
  808SOL    HW2 3231   2.548   3.109   2.638  1.0046 -2.5853 -3.2273
  808SOL     MW 3232   2.545   3.069   2.718  0.8658 -0.1631 -0.0205
  809SOL     OW 3233   2.566   1.284   2.432  0.4641  0.1331  0.2696
  809SOL    HW1 3234   2.610   1.274   2.512 -1.7148 -4.2298 -0.0169
  809SOL    HW2 3235   2.626   1.278   2.360 -0.0867  0.6955 -2.7790
  809SOL     MW 3236   2.580   1.282   2.433  0.1040 -0.3684 -0.1705
  810SOL     OW 3237   2.237   1.252   2.251 -0.1080  0.8891 -0.1418
  810SOL    HW1 3238   2.307   1.189   2.256  1.6378 -1.6947 -0.7043
  810SOL    HW2 3239   2.164   1.202   2.203 -0.0344 -1.3573 -2.4052
  810SOL     MW 3240   2.237   1.237   2.245  0.1320  0.2518 -0.5147
  811SOL     OW 3241   1.542   0.169   2.287  0.1786 -0.3479 -0.5888
  811SOL    HW1 3242   1.578   0.084   2.325  1.5147 -2.5701  1.7928
  811SOL    HW2 3243   1.540   0.168   2.188 -0.7308 -0.3097 -1.7468
  811SOL     MW 3244   1.547   0.157   2.279  0.2349 -0.6361 -0.4274
  812SOL     OW 3245   1.466   2.853   2.141 -0.5386 -0.2652 -0.1417
  812SOL    HW1 3246   1.565   2.835   2.135  0.9641  0.8447  0.4031
  812SOL    HW2 3247   1.441   2.807   2.219  2.7166  0.8261  0.5696
  812SOL     MW 3248   1.476   2.845   2.151  0.0892  0.0253  0.0240
  813SOL     OW 3249   1.829   0.752   2.186  0.1235 -0.1940  0.2940
  813SOL    HW1 3250   1.812   0.660   2.209 -1.5117  0.2163  1.0075
  813SOL    HW2 3251   1.849   0.787   2.272  0.4252 -1.0920 -0.2117
  813SOL     MW 3252   1.830   0.745   2.200 -0.0525 -0.2583  0.3214
  814SOL     OW 3253   2.756   1.258   1.641 -0.0675 -0.2438  0.9273
  814SOL    HW1 3254   2.667   1.247   1.670 -1.9721  1.8698 -1.6992
  814SOL    HW2 3255   2.740   1.235   1.548 -1.3381 -0.0608 -0.8861
  814SOL     MW 3256   2.742   1.253   1.632 -0.4865  0.0592  0.3415
  815SOL     OW 3257   2.482   1.663   2.403 -0.0484 -0.0584  0.6471
  815SOL    HW1 3258   2.417   1.590   2.421 -0.8266 -3.5585  1.5734
  815SOL    HW2 3259   2.573   1.620   2.415  4.8561  0.1477 -1.7821
  815SOL     MW 3260   2.486   1.648   2.407  0.4960 -0.4930  0.4488
  816SOL     OW 3261   0.768   0.675   2.730 -0.6462  0.1611  0.3527
  816SOL    HW1 3262   0.766   0.584   2.772 -1.1638  0.7955 -1.8331
  816SOL    HW2 3263   0.682   0.692   2.685 -1.1736 -0.0718 -2.5556
  816SOL     MW 3264   0.756   0.666   2.730 -0.7840  0.2141 -0.3194
  817SOL     OW 3265   3.040   1.287   1.439 -0.5024 -0.1117 -0.9179
  817SOL    HW1 3266   3.113   1.230   1.461 -0.1670 -0.4784  0.7959
  817SOL    HW2 3267   3.075   1.371   1.401  0.2221  0.4754  0.6304
  817SOL     MW 3268   3.055   1.291   1.437 -0.3625 -0.0826 -0.4875
  818SOL     OW 3269   1.940   1.066   2.689  0.0605 -0.5728 -0.0576
  818SOL    HW1 3270   1.916   1.125   2.614  2.9296  1.8639  0.9237
  818SOL    HW2 3271   2.008   1.007   2.655  0.9340 -1.6522  1.2447
  818SOL     MW 3272   1.946   1.066   2.675  0.5543 -0.3937  0.2437
  819SOL     OW 3273   1.894   0.268   2.452  0.2882  0.5165  0.2443
  819SOL    HW1 3274   1.809   0.309   2.472  3.3569  3.1228 -2.3697
  819SOL    HW2 3275   1.941   0.259   2.539 -0.5402  1.0461 -0.7075
  819SOL     MW 3276   1.889   0.272   2.466  0.5838  0.9302 -0.2261
  820SOL     OW 3277   2.456   1.739   2.672  0.2087  0.1014  0.2941
  820SOL    HW1 3278   2.507   1.685   2.736  0.2301 -0.0073 -1.9851
  820SOL    HW2 3279   2.475   1.701   2.582 -1.1500 -2.0183  1.8176
  820SOL     MW 3280   2.465   1.727   2.669  0.0323 -0.1926  0.1944
  821SOL     OW 3281   2.579   1.354   2.008 -0.0290 -0.4266  0.2033
  821SOL    HW1 3282   2.631   1.417   1.959 -2.0887  0.1863  0.0730
  821SOL    HW2 3283   2.492   1.402   2.011 -0.5471 -0.2100 -0.9657
  821SOL     MW 3284   2.575   1.369   2.002 -0.3691 -0.3171  0.0319
  822SOL     OW 3285   2.814   2.593   1.480  0.3363  0.2322 -0.0129
  822SOL    HW1 3286   2.823   2.641   1.562 -0.1368 -1.5668 -0.7686
  822SOL    HW2 3287   2.769   2.657   1.421  0.1809  3.0544 -1.1840
  822SOL     MW 3288   2.809   2.607   1.483  0.2534  0.3672 -0.2672
  823SOL     OW 3289   2.250   0.461   1.761 -0.0643  0.3382  0.3975
  823SOL    HW1 3290   2.327   0.411   1.731  1.9613  1.4470  0.1604
  823SOL    HW2 3291   2.168   0.417   1.728 -0.6028  2.7050  1.8869
  823SOL     MW 3292   2.249   0.448   1.753  0.1319  0.7968  0.5627
  824SOL     OW 3293   2.075   1.341   2.610 -0.0626  0.8967 -0.3908
  824SOL    HW1 3294   2.161   1.346   2.563  1.5874  1.6075 -0.4860
  824SOL    HW2 3295   2.047   1.432   2.639 -3.5491  2.0706  1.1820
  824SOL     MW 3296   2.083   1.354   2.608 -0.3049  1.1454 -0.1959
  825SOL     OW 3297   2.045   2.583   0.290  0.1224  0.5186 -0.4906
  825SOL    HW1 3298   2.049   2.512   0.354  2.6706 -0.1846  0.4019
  825SOL    HW2 3299   2.111   2.545   0.230 -0.6253 -0.3474 -1.3648
  825SOL     MW 3300   2.055   2.569   0.290  0.3599  0.3116 -0.4882
  826SOL     OW 3301   1.924   2.387   0.527  0.4051 -0.3976  0.0885
  826SOL    HW1 3302   1.874   2.308   0.558 -0.6835 -1.7857  0.0285
  826SOL    HW2 3303   1.880   2.457   0.580  0.0338  1.1203  0.8864
  826SOL     MW 3304   1.911   2.386   0.538  0.2125 -0.3805  0.1859
  827SOL     OW 3305   1.937   2.194   0.865 -0.2651 -0.2537 -0.4780
  827SOL    HW1 3306   1.867   2.245   0.825 -0.8277 -4.2704 -1.0246
  827SOL    HW2 3307   1.895   2.110   0.892  4.5658  1.2384  1.0761
  827SOL     MW 3308   1.922   2.190   0.863  0.2981 -0.5868 -0.3451
  828SOL     OW 3309   0.064   2.689   0.604  0.4223 -0.2321 -0.7584
  828SOL    HW1 3310   0.148   2.659   0.629  0.0007  1.8604  1.2723
  828SOL    HW2 3311   0.066   2.692   0.511 -1.5729 -2.6351 -0.5156
  828SOL     MW 3312   0.075   2.685   0.595  0.1034 -0.2731 -0.4585
  829SOL     OW 3313   2.967   2.921   1.271  0.5081  0.0963 -0.0563
  829SOL    HW1 3314   2.900   2.924   1.206 -0.3062  0.6444  1.5061
  829SOL    HW2 3315   3.021   2.850   1.239  0.1727 -0.8208 -1.6623
  829SOL     MW 3316   2.965   2.912   1.258  0.3564  0.0476 -0.0621
  830SOL     OW 3317   2.493   2.832   2.045  0.2782  0.0917  0.6393
  830SOL    HW1 3318   2.412   2.876   2.009 -0.2155 -0.2509 -2.8590
  830SOL    HW2 3319   2.543   2.807   1.969 -0.7031  0.2527  1.4830
  830SOL     MW 3320   2.489   2.834   2.030  0.0836  0.0677  0.2890
  831SOL     OW 3321   2.419   2.399   1.268 -0.0551  0.4671 -0.2434
  831SOL    HW1 3322   2.389   2.348   1.347  0.6367 -1.0011  0.7832
  831SOL    HW2 3323   2.512   2.374   1.247 -2.5360 -1.1975 -1.3162
  831SOL     MW 3324   2.427   2.389   1.276 -0.2912  0.0538 -0.2495
  832SOL     OW 3325   2.443   2.238   1.889 -0.7143  0.0858 -0.4566
  832SOL    HW1 3326   2.444   2.332   1.933  0.7129 -0.2812  1.1753
  832SOL    HW2 3327   2.533   2.204   1.899 -0.9224  0.1321  1.9865
  832SOL     MW 3328   2.455   2.246   1.896 -0.5534  0.0435  0.0810
  833SOL     OW 3329   1.768   2.432   0.921  0.0043 -0.0417  0.4867
  833SOL    HW1 3330   1.681   2.395   0.931  2.3053 -0.3816  2.1925
  833SOL    HW2 3331   1.788   2.493   0.988 -0.1849 -1.7849  3.8499
  833SOL     MW 3332   1.759   2.435   0.931  0.2829 -0.3165  1.1555
  834SOL     OW 3333   2.230   2.456   0.545 -0.0026 -0.3056 -0.2718
  834SOL    HW1 3334   2.145   2.410   0.564 -0.6618  0.8446  1.9399
  834SOL    HW2 3335   2.287   2.415   0.478  1.4766 -1.1935 -1.4498
  834SOL     MW 3336   2.226   2.445   0.539  0.1056 -0.2710 -0.1354
  835SOL     OW 3337   1.806   2.578   0.687  0.9297 -0.3438 -0.5145
  835SOL    HW1 3338   1.786   2.509   0.770  1.2613 -0.0186 -0.8694
  835SOL    HW2 3339   1.870   2.648   0.713  0.9865 -1.9355  0.0034
  835SOL     MW 3340   1.812   2.578   0.701  0.9810 -0.5109 -0.4930
  836SOL     OW 3341   1.956   2.121   1.644 -0.3663  0.1911  0.9605
  836SOL    HW1 3342   2.052   2.117   1.642 -0.7141  0.0355 -1.3938
  836SOL    HW2 3343   1.924   2.208   1.665 -0.3426  0.6966  0.9981
  836SOL     MW 3344   1.964   2.132   1.646 -0.4090  0.2373  0.6548
  837SOL     OW 3345   2.083   0.184   0.685  0.2100 -0.1817  0.3659
  837SOL    HW1 3346   1.996   0.230   0.664 -2.8916 -1.3125 -2.1158
  837SOL    HW2 3347   2.094   0.153   0.591 -0.0506  0.4651 -1.4995
  837SOL     MW 3348   2.073   0.186   0.670 -0.2336 -0.2456 -0.2077
  838SOL     OW 3349   2.925   2.040   0.912 -0.7359 -0.1948  0.0688
  838SOL    HW1 3350   2.857   2.013   0.974  1.2578 -1.8848  0.7312
  838SOL    HW2 3351   2.929   1.978   0.837 -1.2482  0.9732  0.2364
  838SOL     MW 3352   2.917   2.028   0.910 -0.5404 -0.2637  0.1783
  839SOL     OW 3353   1.511   2.343   0.928 -0.3919 -0.2990  0.4815
  839SOL    HW1 3354   1.487   2.432   0.955  1.0057 -0.5708 -2.0224
  839SOL    HW2 3355   1.520   2.288   1.010 -1.0132 -0.7346 -0.5602
  839SOL     MW 3356   1.509   2.347   0.942 -0.2895 -0.3923  0.0137
  840SOL     OW 3357   2.305   2.099   2.403 -0.3972  0.3519 -0.4877
  840SOL    HW1 3358   2.281   2.158   2.327  0.3472 -0.9795 -0.2029
  840SOL    HW2 3359   2.395   2.120   2.416 -2.5825 -1.5891 -0.2330
  840SOL     MW 3360   2.314   2.109   2.394 -0.5873 -0.0798 -0.4165
  841SOL     OW 3361   2.208   2.420   0.104 -0.4358  0.5608 -0.4416
  841SOL    HW1 3362   2.230   2.448   0.017 -2.6258  0.3540  1.3760
  841SOL    HW2 3363   2.158   2.336   0.094  1.5754 -3.6164  0.1512
  841SOL     MW 3364   2.204   2.412   0.091 -0.4594 -0.0176 -0.1235
  842SOL     OW 3365   2.665   1.991   1.581  0.0894 -0.2740  0.1661
  842SOL    HW1 3366   2.595   1.923   1.583  1.9946  2.9195  1.8935
  842SOL    HW2 3367   2.657   2.030   1.496  3.4973  2.4958 -1.6068
  842SOL     MW 3368   2.655   1.987   1.570  0.7904  0.5128  0.1601
  843SOL     OW 3369   2.674   2.838   1.803  0.0665  0.6101  0.2948
  843SOL    HW1 3370   2.760   2.797   1.809 -2.9150  0.3345  2.1622
  843SOL    HW2 3371   2.620   2.767   1.769  2.2737  0.6911  2.5201
  843SOL     MW 3372   2.678   2.823   1.800 -0.0357  0.5844  0.8348
  844SOL     OW 3373   2.672   2.315   1.223 -0.0663  0.1608  0.2287
  844SOL    HW1 3374   2.715   2.344   1.140 -1.6774 -2.5992  1.3715
  844SOL    HW2 3375   2.733   2.328   1.291 -2.0907  0.9558  0.3568
  844SOL     MW 3376   2.686   2.321   1.221 -0.5460 -0.0984  0.3964
  845SOL     OW 3377   2.848   2.472   0.280  0.4605  0.7287  0.0629
  845SOL    HW1 3378   2.801   2.384   0.295  0.4860  2.0106  1.3214
  845SOL    HW2 3379   2.884   2.504   0.361  0.3295  0.0731 -0.0198
  845SOL     MW 3380   2.846   2.465   0.293  0.4465  0.8113  0.2180
  846SOL     OW 3381   1.521   2.852   0.828  0.5304 -0.0710  0.0732
  846SOL    HW1 3382   1.614   2.869   0.839 -0.8176 -0.9602 -0.1697
  846SOL    HW2 3383   1.475   2.925   0.866 -1.6201 -0.5971  1.8050
  846SOL     MW 3384   1.527   2.864   0.835  0.0688 -0.2578  0.2696
  847SOL     OW 3385   2.517   1.957   0.169 -0.1143  0.0983 -0.0213
  847SOL    HW1 3386   2.561   1.887   0.222  0.2721  1.3446 -0.0102
  847SOL    HW2 3387   2.481   1.904   0.099  1.5479  4.9769  0.5665
  847SOL     MW 3388   2.518   1.941   0.167  0.1560  0.9064  0.0577
  848SOL     OW 3389   2.544   2.098   1.335  0.4630  0.5426 -0.1638
  848SOL    HW1 3390   2.607   2.144   1.289 -2.5640  0.5481  2.1797
  848SOL    HW2 3391   2.533   2.012   1.291  1.1754 -0.6665  1.5417
  848SOL     MW 3392   2.551   2.092   1.323  0.1576  0.3838  0.3704
  849SOL     OW 3393   2.006   2.790   0.759  0.4388  0.5753  0.2238
  849SOL    HW1 3394   2.021   2.730   0.835 -3.8718  0.0841  2.1102
  849SOL    HW2 3395   2.082   2.786   0.701 -0.7952  1.6994 -0.1367
  849SOL     MW 3396   2.018   2.782   0.762 -0.2928  0.6588  0.4252
  850SOL     OW 3397   2.280   1.913   1.719 -0.5309 -0.6769 -0.5153
  850SOL    HW1 3398   2.235   1.895   1.632  0.7691  0.2725  1.2589
  850SOL    HW2 3399   2.267   2.008   1.723  1.3795 -0.4540 -0.0807
  850SOL     MW 3400   2.273   1.923   1.708 -0.1074 -0.5222 -0.2239
  851SOL     OW 3401   2.368   2.363   0.313 -0.0241 -0.5905 -0.1237
  851SOL    HW1 3402   2.331   2.380   0.225  1.0215 -3.4533  0.7190
  851SOL    HW2 3403   2.439   2.421   0.317 -0.9658  0.0088  0.1237
  851SOL     MW 3404   2.372   2.373   0.302 -0.0104 -0.8891  0.0202
  852SOL     OW 3405   2.340   2.085   0.338  0.0703 -0.1841  0.1625
  852SOL    HW1 3406   2.370   2.175   0.346  1.7470 -2.0475  1.6751
  852SOL    HW2 3407   2.404   2.039   0.279 -0.3555 -1.7181  1.8966
  852SOL     MW 3408   2.352   2.091   0.331  0.2353 -0.6324  0.5909
  853SOL     OW 3409   2.471   2.506   1.965  0.3741 -0.1407 -0.2696
  853SOL    HW1 3410   2.473   2.540   1.873  2.3744  2.5547 -0.8576
  853SOL    HW2 3411   2.560   2.488   1.990 -0.9336  1.4899  1.3040
  853SOL     MW 3412   2.483   2.508   1.956  0.4655  0.4301 -0.1395
  854SOL     OW 3413   2.879   2.289   0.782  0.0348 -0.9120 -0.0874
  854SOL    HW1 3414   2.795   2.254   0.747 -0.4990 -0.8377 -0.6625
  854SOL    HW2 3415   2.901   2.206   0.835 -3.1560  0.0033  0.3634
  854SOL     MW 3416   2.870   2.273   0.784 -0.4566 -0.7815 -0.1038
  855SOL     OW 3417   2.675   2.281   0.358 -0.2625  0.1691 -0.1749
  855SOL    HW1 3418   2.644   2.326   0.433 -1.7007 -0.4513  1.3031
  855SOL    HW2 3419   2.720   2.208   0.391  0.3128  0.6230  0.7070
  855SOL     MW 3420   2.677   2.277   0.372 -0.3763  0.1471  0.1365
  856SOL     OW 3421   2.140   1.885   0.177 -0.1659  0.3916  0.6918
  856SOL    HW1 3422   2.067   1.886   0.235  2.3558  1.0179 -0.6492
  856SOL    HW2 3423   2.186   1.961   0.202 -0.4661 -0.4341 -0.9165
  856SOL     MW 3424   2.136   1.895   0.188  0.1272  0.3653  0.3027
  857SOL     OW 3425   2.494   1.986   0.529 -0.1809 -0.0292  0.6303
  857SOL    HW1 3426   2.448   2.043   0.465  0.7990  4.8971 -1.8444
  857SOL    HW2 3427   2.448   1.903   0.546 -2.0244 -1.3522 -0.1418
  857SOL     MW 3428   2.482   1.982   0.523 -0.2948  0.4462  0.2019
  858SOL     OW 3429   2.867   2.658   1.766 -0.1458 -0.2543 -0.1048
  858SOL    HW1 3430   2.954   2.675   1.812  1.9048  2.0064  0.5385
  858SOL    HW2 3431   2.858   2.569   1.794  1.2011  0.6949 -0.2347
  858SOL     MW 3432   2.878   2.649   1.775  0.3025  0.1692 -0.0371
  859SOL     OW 3433   2.121   2.562   0.939  0.7355 -0.0636 -0.0940
  859SOL    HW1 3434   2.081   2.507   1.009  0.1854  0.7942 -0.0533
  859SOL    HW2 3435   2.197   2.516   0.906 -2.2548 -2.7580 -2.1745
  859SOL     MW 3436   2.126   2.549   0.944  0.2684 -0.3059 -0.3632
  860SOL     OW 3437   2.664   2.612   0.118  0.1507  0.2217  0.1381
  860SOL    HW1 3438   2.727   2.587   0.196 -0.7497  1.7131 -0.3648
  860SOL    HW2 3439   2.680   2.705   0.089 -3.0581 -2.3022 -0.8315
  860SOL     MW 3440   2.675   2.621   0.125 -0.3915  0.0855 -0.0562
  861SOL     OW 3441   1.578   2.137   1.096  0.2668  0.4591 -0.7289
  861SOL    HW1 3442   1.604   2.207   1.155 -1.8963  2.6536 -0.6950
  861SOL    HW2 3443   1.518   2.078   1.146 -0.4245  0.7697 -1.2159
  861SOL     MW 3444   1.573   2.139   1.110 -0.1098  0.7896 -0.7887
  862SOL     OW 3445   2.477   1.800   1.563  0.4359  0.2368 -0.0664
  862SOL    HW1 3446   2.414   1.847   1.618 -2.5698 -0.1190 -3.0434
  862SOL    HW2 3447   2.437   1.799   1.476 -0.9546 -2.4848  0.8297
  862SOL     MW 3448   2.463   1.806   1.559 -0.1441 -0.1693 -0.3410
  863SOL     OW 3449   3.015   1.790   1.023  0.1663 -0.8192  0.3261
  863SOL    HW1 3450   3.092   1.794   1.082 -1.1515  0.9296 -0.9589
  863SOL    HW2 3451   2.970   1.872   1.043  1.2956  0.5907  0.8679
  863SOL     MW 3452   3.019   1.802   1.033  0.1414 -0.4024  0.2281
  864SOL     OW 3453   3.044   1.839   0.742 -0.0735 -0.0248  0.1457
  864SOL    HW1 3454   3.009   1.807   0.825 -0.5432 -2.6314  1.1287
  864SOL    HW2 3455   3.004   1.779   0.671  1.6792 -1.2221 -3.3214
  864SOL     MW 3456   3.034   1.827   0.743  0.0957 -0.5267 -0.1820
  865SOL     OW 3457   2.486   2.200   0.006 -0.2314  0.1487  0.3917
  865SOL    HW1 3458   2.485   2.119   0.057 -1.9954 -1.5383 -2.1103
  865SOL    HW2 3459   2.449   2.165  -0.075  0.9109  0.2366 -1.9487
  865SOL     MW 3460   2.481   2.185   0.002 -0.3134 -0.0623 -0.2472
  866SOL     OW 3461   2.660   2.371   1.698  0.0695  0.0422 -0.2227
  866SOL    HW1 3462   2.646   2.281   1.728  0.1307  0.6448  1.2795
  866SOL    HW2 3463   2.714   2.361   1.613 -0.1202 -0.7774 -0.2278
  866SOL     MW 3464   2.665   2.358   1.691  0.0525  0.0136 -0.0252
  867SOL     OW 3465   0.031   2.722   1.787 -0.0173 -0.2513 -0.0053
  867SOL    HW1 3466   0.058   2.755   1.878  1.4578 -1.0931 -2.4748
  867SOL    HW2 3467  -0.010   2.801   1.744  0.2091 -0.4274 -0.7154
  867SOL     MW 3468   0.029   2.737   1.793  0.2072 -0.3856 -0.4248
  868SOL     OW 3469   2.794   2.611   0.538 -0.7767  0.1012 -0.2840
  868SOL    HW1 3470   2.712   2.563   0.554 -1.1781 -0.0458  1.4471
  868SOL    HW2 3471   2.783   2.680   0.470 -1.7480  2.7925  0.9616
  868SOL     MW 3472   2.782   2.614   0.531 -0.9578  0.4369  0.1088
  869SOL     OW 3473   2.070   2.324   1.102  0.3557 -0.2095 -0.4374
  869SOL    HW1 3474   2.151   2.319   1.054  0.3317 -0.7310  0.3372
  869SOL    HW2 3475   2.012   2.292   1.031  2.6956  0.0438 -1.3212
  869SOL     MW 3476   2.073   2.319   1.086  0.6613 -0.2449 -0.4518
  870SOL     OW 3477   2.140   0.061   0.452  0.0883  0.0645 -0.1944
  870SOL    HW1 3478   2.193   0.105   0.381 -1.6488 -0.8646  0.6332
  870SOL    HW2 3479   2.176  -0.025   0.446  0.4380  0.4184 -2.2175
  870SOL     MW 3480   2.152   0.055   0.442 -0.0947 -0.0114 -0.3521
  871SOL     OW 3481   2.504   2.058   0.969 -0.5540 -0.7559 -0.3530
  871SOL    HW1 3482   2.457   2.013   0.895 -0.4587 -2.9397  1.9819
  871SOL    HW2 3483   2.443   2.113   1.015  0.4734 -0.6825 -0.3419
  871SOL     MW 3484   2.490   2.059   0.965 -0.4058 -1.0344 -0.0435
  872SOL     OW 3485   2.018   2.529   1.560  0.1643 -0.3937  0.1641
  872SOL    HW1 3486   1.991   2.546   1.652 -0.0778 -0.3590 -0.7865
  872SOL    HW2 3487   1.968   2.460   1.518 -1.3637 -1.5008  0.1052
  872SOL     MW 3488   2.008   2.522   1.567 -0.0692 -0.5352  0.0309
  873SOL     OW 3489   2.916   2.013   1.970  0.0024  0.4312 -0.0307
  873SOL    HW1 3490   2.908   2.081   2.042 -1.8581 -0.0685  1.6755
  873SOL    HW2 3491   2.996   2.030   1.928  0.1752 -0.8145 -1.0835
  873SOL     MW 3492   2.926   2.025   1.974 -0.2203  0.2009  0.0555
  874SOL     OW 3493   2.307   1.433   2.465  0.2112 -0.3130 -0.1821
  874SOL    HW1 3494   2.267   1.388   2.384 -1.2094  1.0539  0.2906
  874SOL    HW2 3495   2.392   1.385   2.472  2.7755  1.7974 -0.0912
  874SOL     MW 3496   2.313   1.421   2.455  0.3621  0.1458 -0.1077
  875SOL     OW 3497   2.337   2.280   1.027 -0.4372  0.1808 -0.5518
  875SOL    HW1 3498   2.378   2.336   0.960 -0.6109  0.8913 -0.4343
  875SOL    HW2 3499   2.379   2.307   1.110 -0.4648  2.0176 -1.0880
  875SOL     MW 3500   2.348   2.291   1.029 -0.4638  0.5169 -0.6071
  876SOL     OW 3501   3.058   2.280   1.298  0.0540  0.0289  0.2267
  876SOL    HW1 3502   3.106   2.323   1.220 -0.7133  2.2859 -0.1228
  876SOL    HW2 3503   3.099   2.322   1.376  2.6950 -0.9157  0.4318
  876SOL     MW 3504   3.070   2.291   1.298  0.3012  0.2021  0.2076
  877SOL     OW 3505   0.006   2.759   0.313 -0.0150  0.5473 -0.0632
  877SOL    HW1 3506   0.063   2.834   0.293  1.7497 -1.1184 -0.3683
  877SOL    HW2 3507  -0.018   2.721   0.226  3.2544 -0.6459 -1.6785
  877SOL     MW 3508   0.011   2.764   0.299  0.6492  0.1701 -0.3166
  878SOL     OW 3509   2.386   1.822   1.311 -0.3404  0.1779 -0.1723
  878SOL    HW1 3510   2.301   1.770   1.290 -0.4916  1.0039 -1.5323
  878SOL    HW2 3511   2.464   1.786   1.270  2.5900  1.8323 -0.6386
  878SOL     MW 3512   2.385   1.811   1.303  0.0263  0.5052 -0.4133
  879SOL     OW 3513   2.727   2.439   0.973  0.6025  0.4212 -0.1491
  879SOL    HW1 3514   2.772   2.522   1.002  1.1511 -2.1162  1.0629
  879SOL    HW2 3515   2.782   2.392   0.913 -1.0150  0.2692  0.8592
  879SOL     MW 3516   2.740   2.443   0.969  0.4615  0.0664  0.1438
  880SOL     OW 3517   2.616   2.163   0.737  0.1672  0.0242  0.0578
  880SOL    HW1 3518   2.576   2.138   0.818 -1.8566  1.8325  3.8947
  880SOL    HW2 3519   2.590   2.096   0.675  0.9024 -1.1070  0.7378
  880SOL     MW 3520   2.607   2.151   0.739 -0.0028  0.1135  0.6538
  881SOL     OW 3521   2.909   2.740   0.764  0.5081  0.1874  0.2056
  881SOL    HW1 3522   2.862   2.693   0.693 -1.3427 -1.1384 -1.9495
  881SOL    HW2 3523   3.004   2.742   0.733  0.4085  0.3707 -1.8199
  881SOL     MW 3524   2.915   2.734   0.751  0.2507  0.0367 -0.3460
  882SOL     OW 3525   2.230   2.898   1.955  0.1222  0.4054 -0.2304
  882SOL    HW1 3526   2.207   2.879   1.857  1.0043  0.8971  1.1509
  882SOL    HW2 3527   2.196   2.818   1.998 -1.9419 -1.8927  3.5491
  882SOL     MW 3528   2.222   2.885   1.948 -0.0338  0.1671  0.4505
  883SOL     OW 3529   2.306   2.207   1.442 -0.0241 -0.0585 -0.2769
  883SOL    HW1 3530   2.385   2.160   1.406 -0.6796  0.4548 -1.0288
  883SOL    HW2 3531   2.238   2.177   1.379  1.5290 -0.5067 -1.1720
  883SOL     MW 3532   2.308   2.197   1.429  0.0944 -0.0499 -0.4942
  884SOL     OW 3533   1.944   1.748   1.055  0.1927  0.3199 -0.2021
  884SOL    HW1 3534   1.889   1.820   1.026 -1.5174 -0.9250  2.4818
  884SOL    HW2 3535   2.035   1.772   1.028 -2.4418 -1.9733  1.0325
  884SOL     MW 3536   1.948   1.761   1.047 -0.3805 -0.1469  0.3149
  885SOL     OW 3537   2.889   2.377   1.847  0.1095  0.4098 -0.3030
  885SOL    HW1 3538   2.956   2.310   1.835 -2.7818 -3.5404  2.5624
  885SOL    HW2 3539   2.829   2.351   1.783 -0.7964 -0.5383  1.3875
  885SOL     MW 3540   2.890   2.365   1.837 -0.3915 -0.2365  0.2981
  886SOL     OW 3541   2.809   2.306   1.454 -0.1932 -0.2699  0.1841
  886SOL    HW1 3542   2.888   2.275   1.413 -2.2077  2.1034  2.0739
  886SOL    HW2 3543   2.833   2.402   1.460 -1.4199 -0.0998 -0.0960
  886SOL     MW 3544   2.823   2.315   1.449 -0.6209  0.0657  0.3965
  887SOL     OW 3545   2.285   2.623   1.570 -0.0820  0.5472  0.4120
  887SOL    HW1 3546   2.311   2.610   1.478 -0.3232 -4.3264 -0.4284
  887SOL    HW2 3547   2.201   2.577   1.572  1.9422 -0.7012  1.1337
  887SOL     MW 3548   2.278   2.615   1.558  0.1532 -0.2605  0.3963
  888SOL     OW 3549   1.883   2.081   1.382  0.6589  0.8003 -0.2469
  888SOL    HW1 3550   1.958   2.077   1.323  0.9781  1.1003 -0.3488
  888SOL    HW2 3551   1.907   2.081   1.475  1.2823 -1.1387 -0.4418
  888SOL     MW 3552   1.896   2.081   1.387  0.7833  0.5840 -0.2861
  889SOL     OW 3553   2.299   2.046   2.065  0.1721 -0.3419  0.0410
  889SOL    HW1 3554   2.370   2.011   2.123  4.3963  0.3107 -0.9245
  889SOL    HW2 3555   2.338   2.108   2.002 -1.6583  2.1249 -0.0287
  889SOL     MW 3556   2.314   2.050   2.064  0.4879  0.0696 -0.0956
  890SOL     OW 3557   0.064   2.361   0.141 -0.4378 -0.3877  0.6719
  890SOL    HW1 3558   0.006   2.438   0.120  0.1640 -1.0190  1.4358
  890SOL    HW2 3559   0.032   2.340   0.229  1.8473  1.3240  0.6625
  890SOL     MW 3560   0.052   2.368   0.150 -0.0569 -0.2451  0.7715
  891SOL     OW 3561   3.026   2.009   1.299  0.3078  0.2098 -0.1465
  891SOL    HW1 3562   3.117   1.995   1.308 -1.2890  0.5625 -0.6000
  891SOL    HW2 3563   3.005   2.092   1.264  2.1789 -2.8215  1.3323
  891SOL     MW 3564   3.035   2.018   1.296  0.3440 -0.1436 -0.0113
  892SOL     OW 3565   2.451   2.319   2.753  0.0743 -0.2884  0.1220
  892SOL    HW1 3566   2.403   2.245   2.787 -1.0973 -0.0701 -1.3545
  892SOL    HW2 3567   2.532   2.328   2.813  2.4627  1.4735  2.0035
  892SOL     MW 3568   2.456   2.311   2.765  0.2348 -0.0271  0.1754
  893SOL     OW 3569   1.613   2.404   1.237 -0.4028  0.7193  0.1003
  893SOL    HW1 3570   1.550   2.447   1.297  0.1419 -0.8708 -1.2047
  893SOL    HW2 3571   1.701   2.418   1.272  0.4390 -2.5165 -0.0880
  893SOL     MW 3572   1.616   2.412   1.249 -0.2198  0.0825 -0.0967
  894SOL     OW 3573   2.733   1.889   0.440 -0.5797 -0.5911  0.1922
  894SOL    HW1 3574   2.643   1.919   0.458  2.1470  1.3091 -2.1275
  894SOL    HW2 3575   2.741   1.868   0.340  2.5575 -2.7513 -1.2876
  894SOL     MW 3576   2.722   1.890   0.429  0.1940 -0.6254 -0.3091
  895SOL     OW 3577   2.118   2.089   1.231 -0.3285  0.1879  0.4145
  895SOL    HW1 3578   2.096   2.178   1.182 -1.7426 -0.7538  0.9183
  895SOL    HW2 3579   2.129   2.020   1.165 -0.3504  2.8575  0.5782
  895SOL     MW 3580   2.116   2.091   1.216 -0.5179  0.4159  0.5026
  896SOL     OW 3581   2.286   2.797   1.083  0.9092 -0.2472 -0.0514
  896SOL    HW1 3582   2.319   2.771   1.165  0.6860  4.8508  0.5870
  896SOL    HW2 3583   2.189   2.763   1.078  0.2145  2.3934  1.3905
  896SOL     MW 3584   2.278   2.789   1.093  0.7881  0.7738  0.2231
  897SOL     OW 3585   3.031   2.990   0.019  0.5793  0.5758 -0.5920
  897SOL    HW1 3586   3.082   2.931  -0.043  2.9920 -2.0901 -3.2871
  897SOL    HW2 3587   2.942   2.955   0.027 -1.5465  1.3947  0.9165
  897SOL     MW 3588   3.026   2.978   0.012  0.6171  0.3321 -0.7486
  898SOL     OW 3589   2.096   0.202   1.453  0.0749 -0.3492  0.3111
  898SOL    HW1 3590   2.070   0.121   1.501 -1.0188 -0.5073  0.3608
  898SOL    HW2 3591   2.077   0.184   1.360 -0.5642  2.4627  0.4338
  898SOL     MW 3592   2.090   0.189   1.447 -0.1537  0.0009  0.3338
  899SOL     OW 3593   2.905   2.975   0.640  0.8220 -0.4290 -0.3751
  899SOL    HW1 3594   2.887   2.894   0.694 -1.7622 -1.6942  0.9655
  899SOL    HW2 3595   2.820   3.025   0.653  0.3822  0.6354  2.7247
  899SOL     MW 3596   2.891   2.971   0.649  0.4230 -0.4555  0.2107
  900SOL     OW 3597   0.116   2.411   1.095 -0.3169  0.2545 -0.3189
  900SOL    HW1 3598   0.068   2.493   1.091  2.3796 -0.4694 -1.5278
  900SOL    HW2 3599   0.103   2.364   1.011  1.2073 -0.2511 -0.5329
  900SOL     MW 3600   0.108   2.415   1.084  0.2400  0.0923 -0.5066
  901SOL     OW 3601   1.731   2.832   1.773 -0.3888  0.1527  0.0147
  901SOL    HW1 3602   1.806   2.765   1.787 -0.8923 -0.9736 -0.7250
  901SOL    HW2 3603   1.715   2.839   1.679  0.7070  0.4754 -0.8084
  901SOL     MW 3604   1.739   2.824   1.763 -0.3106  0.0466 -0.1915
  902SOL     OW 3605   2.693   2.134   1.824  0.2319 -0.0675 -0.6433
  902SOL    HW1 3606   2.682   2.079   1.749  1.4894 -0.4860  0.0163
  902SOL    HW2 3607   2.778   2.099   1.855  0.0529 -1.1740 -0.3805
  902SOL     MW 3608   2.703   2.122   1.818  0.3742 -0.2687 -0.5216
  903SOL     OW 3609   1.596   2.733   0.565 -0.1803 -0.4579  0.3266
  903SOL    HW1 3610   1.665   2.666   0.590 -0.2323  0.1139  1.3776
  903SOL    HW2 3611   1.566   2.783   0.637 -0.1128 -0.3878 -0.2264
  903SOL     MW 3612   1.601   2.731   0.578 -0.1783 -0.3732  0.3923
  904SOL     OW 3613   2.519   2.619   1.714  0.4023 -1.2275 -0.0559
  904SOL    HW1 3614   2.454   2.620   1.644 -0.8498 -2.8528 -0.2352
  904SOL    HW2 3615   2.574   2.548   1.694  0.0741  0.1343 -1.9346
  904SOL     MW 3616   2.518   2.610   1.702  0.1938 -1.2623 -0.3274
  905SOL     OW 3617   2.288   2.549   2.174 -0.2791 -0.2517 -0.1081
  905SOL    HW1 3618   2.362   2.534   2.113 -1.9004  1.2965 -0.3778
  905SOL    HW2 3619   2.252   2.466   2.209 -1.1984 -1.4980 -0.3796
  905SOL     MW 3620   2.293   2.536   2.171 -0.6143 -0.2118 -0.1795
  906SOL     OW 3621   2.435   2.479   0.859 -0.2637 -0.0394 -0.3452
  906SOL    HW1 3622   2.512   2.479   0.916 -2.0096  0.4748 -1.2349
  906SOL    HW2 3623   2.415   2.573   0.846  2.7250 -4.2052  4.4567
  906SOL     MW 3624   2.443   2.491   0.865 -0.0997 -0.5212  0.1710
  907SOL     OW 3625   2.625   2.789   1.353  0.0965  0.3523  0.0257
  907SOL    HW1 3626   2.655   2.862   1.405  0.1356  0.2794 -0.3562
  907SOL    HW2 3627   2.663   2.811   1.266  2.6857 -2.0502  0.4945
  907SOL     MW 3628   2.634   2.802   1.348  0.4433  0.0257  0.0372
  908SOL     OW 3629   2.730   2.339   3.070 -0.7287 -0.1442  0.0965
  908SOL    HW1 3630   2.669   2.290   3.118  2.6925  0.3221 -1.7361
  908SOL    HW2 3631   2.721   2.429   3.107 -1.9427 -1.3242  1.3964
  908SOL     MW 3632   2.721   2.344   3.081 -0.4375 -0.2384  0.0262
  909SOL     OW 3633   1.715   0.091   1.169 -0.0153 -0.4036  0.0497
  909SOL    HW1 3634   1.723   0.152   1.093 -0.1647 -2.0770 -0.7720
  909SOL    HW2 3635   1.741   0.140   1.251  2.5450 -0.9644  3.5603
  909SOL     MW 3636   1.720   0.106   1.170  0.3028 -0.6984  0.4045
  910SOL     OW 3637   2.290   1.760   0.443 -0.6112  1.0072 -0.5428
  910SOL    HW1 3638   2.245   1.678   0.456 -0.5102  1.1494 -0.3951
  910SOL    HW2 3639   2.243   1.801   0.372  1.5291 -0.1148 -3.3958
  910SOL     MW 3640   2.278   1.755   0.435 -0.3155  0.8779 -0.8997
  911SOL     OW 3641   2.253   2.189   1.708  0.4725 -0.0614 -0.2004
  911SOL    HW1 3642   2.335   2.200   1.758  2.5970  0.6570 -0.9044
  911SOL    HW2 3643   2.279   2.199   1.614  1.0885 -1.3328 -0.3414
  911SOL     MW 3644   2.267   2.191   1.702  0.8341 -0.1344 -0.3119
  912SOL     OW 3645   2.941   1.927   1.535 -0.4978 -0.1711 -0.2765
  912SOL    HW1 3646   2.967   1.953   1.442 -0.9055  0.6200  2.6106
  912SOL    HW2 3647   2.865   1.981   1.560  1.0579  0.0641  2.6646
  912SOL     MW 3648   2.935   1.937   1.526 -0.3463 -0.0357  0.4924
  913SOL     OW 3649   2.627   3.040   0.364 -0.1627 -0.2114 -0.2178
  913SOL    HW1 3650   2.716   3.000   0.372  0.8265  2.0427  2.4055
  913SOL    HW2 3651   2.562   2.978   0.333  1.6628  3.4436 -0.0957
  913SOL     MW 3652   2.630   3.026   0.361  0.2087  0.5682  0.1444
  914SOL     OW 3653   2.718   1.748   3.069 -0.0339 -0.2764 -0.5598
  914SOL    HW1 3654   2.735   1.825   3.009 -0.8246  1.9880 -1.7697
  914SOL    HW2 3655   2.633   1.776   3.111  0.0471 -0.7996 -0.9029
  914SOL     MW 3656   2.709   1.762   3.067 -0.1275 -0.0466 -0.7647
  915SOL     OW 3657   1.699   0.233   0.238  0.2434 -0.3492 -0.1009
  915SOL    HW1 3658   1.784   0.190   0.276  4.1535  1.8202 -2.0290
  915SOL    HW2 3659   1.643   0.155   0.214  0.7770  0.2069 -2.6510
  915SOL     MW 3660   1.703   0.217   0.240  0.8297  0.0104 -0.6917
  916SOL     OW 3661   1.805   2.109   1.894  0.0093  0.1881  0.1046
  916SOL    HW1 3662   1.843   2.195   1.902 -1.5215 -1.0284 -2.9414
  916SOL    HW2 3663   1.852   2.072   1.820  0.9464  0.6347  0.5115
  916SOL     MW 3664   1.816   2.115   1.885 -0.0690  0.0865 -0.2436
  917SOL     OW 3665   2.546   2.214   2.497 -0.2603  0.4810 -0.1517
  917SOL    HW1 3666   2.528   2.251   2.584  0.2616  1.6208  1.1898
  917SOL    HW2 3667   2.614   2.278   2.468 -0.5355  2.1371  0.3794
  917SOL     MW 3668   2.552   2.228   2.505 -0.2277  0.8499  0.0954
  918SOL     OW 3669   1.999   1.610   2.720  0.0472 -0.0817  0.2012
  918SOL    HW1 3670   1.942   1.650   2.652  0.4335 -2.4484 -0.3157
  918SOL    HW2 3671   2.082   1.652   2.696 -1.1813 -0.9154 -0.1342
  918SOL     MW 3672   2.002   1.621   2.708 -0.0639 -0.5040  0.0887
  919SOL     OW 3673   3.082   2.339   2.268 -0.1179 -0.2047 -0.4450
  919SOL    HW1 3674   3.053   2.255   2.239 -0.1376  0.7669 -1.6639
  919SOL    HW2 3675   3.141   2.366   2.201 -0.5104 -0.5845  0.4460
  919SOL     MW 3676   3.086   2.331   2.255 -0.1723 -0.1266 -0.4883
  920SOL     OW 3677   2.710   2.853   0.005 -0.2293  0.2389  0.1551
  920SOL    HW1 3678   2.629   2.887   0.045  1.0305 -1.9192  2.4532
  920SOL    HW2 3679   2.699   2.796  -0.076  1.5704  0.9067  0.0551
  920SOL     MW 3680   2.698   2.850  -0.000  0.1744  0.0422  0.4451
  921SOL     OW 3681   2.443   2.570   2.609 -0.5661 -0.2331  0.4648
  921SOL    HW1 3682   2.516   2.594   2.558 -0.7269 -3.5657 -2.2430
  921SOL    HW2 3683   2.464   2.497   2.671  0.7864  0.1308 -1.5567
  921SOL     MW 3684   2.455   2.564   2.610 -0.4088 -0.6248 -0.1592
  922SOL     OW 3685   2.051   2.859   0.301 -0.4296 -0.7317 -0.2108
  922SOL    HW1 3686   2.026   2.863   0.208  0.8703  0.3567 -0.0043
  922SOL    HW2 3687   2.061   2.766   0.315  2.0215  1.9716  1.0744
  922SOL     MW 3688   2.049   2.847   0.291  0.0653 -0.2314 -0.0140
  923SOL     OW 3689   2.144   2.827   1.703 -0.0699  0.3009 -0.4172
  923SOL    HW1 3690   2.185   2.765   1.643 -0.6179  0.9932 -0.1923
  923SOL    HW2 3691   2.114   2.905   1.657 -1.5141  0.5740 -1.2759
  923SOL     MW 3692   2.145   2.829   1.689 -0.3328  0.4282 -0.5008
  924SOL     OW 3693   1.158   2.659   2.522 -0.7810  0.6509 -0.0014
  924SOL    HW1 3694   1.222   2.728   2.537 -0.1986  0.7915  3.5121
  924SOL    HW2 3695   1.166   2.607   2.598 -0.9579  1.2049 -1.2480
  924SOL     MW 3696   1.168   2.661   2.534 -0.7275  0.7425  0.2977
  925SOL     OW 3697   3.024   0.189   2.651  0.7082 -0.4191 -0.0889
  925SOL    HW1 3698   3.004   0.209   2.555  1.4453  1.6249  0.9821
  925SOL    HW2 3699   2.985   0.261   2.695  2.0717  2.0110  1.2009
  925SOL     MW 3700   3.017   0.201   2.644  0.9854  0.1712  0.2226
  926SOL     OW 3701   2.723   2.403   2.059 -0.2567  0.5760 -0.5633
  926SOL    HW1 3702   2.785   2.448   2.118 -3.7842  1.5942  1.3229
  926SOL    HW2 3703   2.773   2.353   1.992  0.2815 -2.6554 -0.4691
  926SOL     MW 3704   2.738   2.402   2.058 -0.6511  0.2840 -0.3020
  927SOL     OW 3705   2.338   0.125   0.291  0.4495 -0.2157  1.0663
  927SOL    HW1 3706   2.431   0.145   0.290 -3.0121 -1.1621  0.5497
  927SOL    HW2 3707   2.316   0.107   0.197 -0.1809 -0.4034 -1.2123
  927SOL     MW 3708   2.347   0.125   0.279 -0.0904 -0.3653  0.6975
  928SOL     OW 3709   2.168   2.419   1.830 -0.1260 -0.4649 -1.2992
  928SOL    HW1 3710   2.162   2.384   1.920  0.3089 -0.6106  1.3877
  928SOL    HW2 3711   2.201   2.345   1.781 -1.3467 -0.3219  0.2208
  928SOL     MW 3712   2.172   2.405   1.835 -0.2297 -0.4652 -0.7441
  929SOL     OW 3713   2.748   2.390   2.449 -0.3949 -0.4747  0.1710
  929SOL    HW1 3714   2.801   2.442   2.395  0.6997  1.2303  2.0006
  929SOL    HW2 3715   2.798   2.381   2.529 -0.3661  0.0028 -0.5005
  929SOL     MW 3716   2.761   2.396   2.452 -0.2467 -0.1867  0.3238
  930SOL     OW 3717   2.011   2.880   2.729  0.0010 -0.2002  0.5983
  930SOL    HW1 3718   2.050   2.801   2.773 -0.2523 -4.0511 -0.1708
  930SOL    HW2 3719   2.075   2.918   2.672 -0.8858  1.0091  1.6052
  930SOL     MW 3720   2.025   2.875   2.727 -0.1494 -0.5487  0.6296
  931SOL     OW 3721   3.022   2.742   2.339  0.1006  0.0485  0.5038
  931SOL    HW1 3722   3.072   2.748   2.421  1.5544  0.2961 -1.1497
  931SOL    HW2 3723   3.092   2.768   2.276  1.9205  1.9177 -0.3217
  931SOL     MW 3724   3.038   2.746   2.341  0.5326  0.3278  0.1767
  932SOL     OW 3725   2.879   1.966   2.561  0.7115 -0.0127  0.1082
  932SOL    HW1 3726   2.974   1.983   2.550 -0.6069  1.2799 -0.0083
  932SOL    HW2 3727   2.841   1.963   2.472  1.2942 -1.3763 -1.3854
  932SOL     MW 3728   2.886   1.968   2.547  0.6144 -0.0221 -0.1042
  933SOL     OW 3729   2.065   2.843   2.270  0.8395 -0.2097 -0.2133
  933SOL    HW1 3730   2.152   2.881   2.284  1.0755  0.4202 -1.6378
  933SOL    HW2 3731   2.005   2.919   2.251 -3.9707  0.5400 -0.6086
  933SOL     MW 3732   2.069   2.858   2.269  0.2360 -0.0277 -0.4534
  934SOL     OW 3733   2.027   2.705   2.499 -0.0220  0.2460  0.4934
  934SOL    HW1 3734   2.022   2.777   2.563 -0.2177  0.1329  1.2549
  934SOL    HW2 3735   2.045   2.747   2.409  1.4524 -2.7438  0.3319
  934SOL     MW 3736   2.029   2.720   2.496  0.1467 -0.1634  0.5726
  935SOL     OW 3737   2.684   1.516   1.801  0.1496 -0.2544  0.3695
  935SOL    HW1 3738   2.768   1.525   1.752  0.3201 -0.6196 -0.0381
  935SOL    HW2 3739   2.614   1.514   1.743  1.3387  0.3279 -2.2753
  935SOL     MW 3740   2.686   1.517   1.787  0.3290 -0.2258 -0.0332
  936SOL     OW 3741   2.996   2.209   3.053  0.5830 -0.4519  0.1891
  936SOL    HW1 3742   3.050   2.263   3.108 -0.3136 -0.0031  0.6991
  936SOL    HW2 3743   2.915   2.255   3.064 -0.5578 -0.4852 -0.3602
  936SOL     MW 3744   2.992   2.222   3.061  0.3142 -0.3970  0.1840
  937SOL     OW 3745   1.948   2.133   2.612  0.4614 -0.0699 -0.1747
  937SOL    HW1 3746   2.020   2.091   2.665 -2.5678 -0.5587  0.1709
  937SOL    HW2 3747   1.953   2.086   2.529  2.0729 -0.4512 -0.9084
  937SOL     MW 3748   1.958   2.121   2.608  0.2744 -0.1847 -0.2259
  938SOL     OW 3749   2.282   1.774   1.974  0.2923 -0.1395  0.2440
  938SOL    HW1 3750   2.279   1.791   1.879  0.3345  0.5561  0.5605
  938SOL    HW2 3751   2.270   1.865   2.002 -0.2335  2.0315 -0.0990
  938SOL     MW 3752   2.280   1.789   1.965  0.2285  0.2387  0.2405
  939SOL     OW 3753   2.733   1.978   2.323  0.3693  0.0981 -0.3555
  939SOL    HW1 3754   2.745   1.903   2.259 -2.9695  2.1287 -0.9056
  939SOL    HW2 3755   2.633   1.988   2.307 -4.1659  1.0142  0.5857
  939SOL     MW 3756   2.721   1.969   2.313 -0.6696  0.4869 -0.3039
  940SOL     OW 3757   2.279   0.171   2.664 -0.0813  0.0440  0.9734
  940SOL    HW1 3758   2.290   0.079   2.633 -1.6078 -0.7039  3.2252
  940SOL    HW2 3759   2.335   0.162   2.748  1.8186  0.5600  1.7923
  940SOL     MW 3760   2.288   0.158   2.671 -0.0320  0.0134  1.3785
  941SOL     OW 3761   0.125   2.443   2.067  0.0766  0.0535  0.0805
  941SOL    HW1 3762   0.219   2.452   2.071 -4.3356 -0.0835  0.3823
  941SOL    HW2 3763   0.117   2.380   2.001  1.9636 -1.3184  0.1134
  941SOL     MW 3764   0.136   2.436   2.059 -0.2566 -0.1456  0.1247
  942SOL     OW 3765   2.853   2.179   2.179  0.0963  0.3483  0.1476
  942SOL    HW1 3766   2.796   2.249   2.154  2.1344  0.6212 -0.9096
  942SOL    HW2 3767   2.800   2.117   2.223 -1.4788  3.9590 -0.1158
  942SOL     MW 3768   2.839   2.180   2.181  0.1574  0.8607 -0.0267
  943SOL     OW 3769   0.310   2.119   2.263 -0.5483 -0.0470  0.1151
  943SOL    HW1 3770   0.255   2.154   2.330 -1.8044 -0.1138 -1.5344
  943SOL    HW2 3771   0.397   2.111   2.310  0.4507  0.7415  0.7781
  943SOL     MW 3772   0.315   2.123   2.278 -0.5822  0.0482 -0.0151
  944SOL     OW 3773   2.091   2.681   2.044 -0.3581 -0.9450 -1.0157
  944SOL    HW1 3774   2.154   2.620   2.086  1.5750 -1.8440  0.3146
  944SOL    HW2 3775   2.073   2.759   2.100 -1.3683  0.9979  1.6546
  944SOL     MW 3776   2.097   2.684   2.057 -0.2363 -0.8073 -0.4879
  945SOL     OW 3777   2.673   2.690   2.897  0.0965 -0.2394  0.3401
  945SOL    HW1 3778   2.673   2.597   2.885  0.8765  1.0328  0.6961
  945SOL    HW2 3779   2.636   2.717   2.813  1.6174 -0.6864 -1.8961
  945SOL     MW 3780   2.668   2.681   2.885  0.4001 -0.1305  0.0920
  946SOL     OW 3781   2.472   2.707   2.277  0.0326 -0.1679 -0.7194
  946SOL    HW1 3782   2.497   2.743   2.189  0.1115 -2.8750  3.2173
  946SOL    HW2 3783   2.407   2.634   2.264 -3.4444 -0.6198 -1.7280
  946SOL     MW 3784   2.467   2.702   2.264 -0.4157 -0.5847 -0.3331
  947SOL     OW 3785   1.908   0.079   0.309 -0.2382 -0.1188 -0.1007
  947SOL    HW1 3786   1.857   0.004   0.331  0.5816  4.3151 -0.4928
  947SOL    HW2 3787   1.994   0.068   0.361  0.8220  1.3540  0.4845
  947SOL     MW 3788   1.913   0.067   0.319  0.0099  0.6605 -0.0752
  948SOL     OW 3789   1.801   3.045   2.687 -0.6521 -0.3358  0.2908
  948SOL    HW1 3790   1.846   2.960   2.683 -1.6138 -1.6378  1.6970
  948SOL    HW2 3791   1.768   3.065   2.591  0.0534 -1.0952 -0.3325
  948SOL     MW 3792   1.803   3.037   2.674 -0.6859 -0.6077  0.3941
  949SOL     OW 3793   2.473   1.928   2.276 -0.0352 -0.0115 -0.0549
  949SOL    HW1 3794   2.490   1.840   2.307  0.4031  0.7114 -2.7067
  949SOL    HW2 3795   2.411   1.972   2.339  0.7833  0.0450  0.8337
  949SOL     MW 3796   2.467   1.922   2.288  0.1307  0.0914 -0.2876
  950SOL     OW 3797   2.286   2.459   2.938  0.8243  0.4271 -0.5772
  950SOL    HW1 3798   2.338   2.413   2.867  1.1599 -0.4606 -1.2124
  950SOL    HW2 3799   2.213   2.504   2.889 -0.3683  1.3910 -2.0818
  950SOL     MW 3800   2.283   2.459   2.922  0.7112  0.4372 -0.8595
  951SOL     OW 3801   3.009   2.068   2.812 -0.1271 -0.1571  0.3208
  951SOL    HW1 3802   3.004   2.121   2.895 -0.2030  1.5579  0.6347
  951SOL    HW2 3803   3.094   2.023   2.812  1.0169 -1.3459  0.1936
  951SOL     MW 3804   3.020   2.069   2.823  0.0139 -0.0877  0.3455
  952SOL     OW 3805   3.036   1.665   2.156  0.0429  0.5741  0.4585
  952SOL    HW1 3806   2.954   1.709   2.131 -0.7925 -2.7920  2.0374
  952SOL    HW2 3807   3.084   1.727   2.208 -0.0404  1.6749 -0.4899
  952SOL     MW 3808   3.031   1.679   2.160 -0.0783  0.2752  0.5417
  953SOL     OW 3809   1.880   1.777   2.886  0.5070  0.1623  0.3715
  953SOL    HW1 3810   1.815   1.728   2.942  0.9172 -1.5108 -1.0827
  953SOL    HW2 3811   1.919   1.705   2.823 -0.2355 -3.2646  0.5914
  953SOL     MW 3812   1.876   1.761   2.885  0.4632 -0.5106  0.2087
  954SOL     OW 3813   2.374   2.071   2.883 -0.0126  0.0050  0.3127
  954SOL    HW1 3814   2.296   2.050   2.837  3.7260  0.7359 -1.9154
  954SOL    HW2 3815   2.447   2.066   2.811  0.2359  2.1920  0.3582
  954SOL     MW 3816   2.374   2.068   2.867  0.5135  0.3900  0.0248
  955SOL     OW 3817   1.549   1.574   2.570  0.1969  0.1020 -0.4462
  955SOL    HW1 3818   1.533   1.591   2.474 -0.9779  0.4031 -0.0901
  955SOL    HW2 3819   1.618   1.643   2.588 -2.0311  1.4854 -0.7123
  955SOL     MW 3820   1.556   1.585   2.560 -0.2521  0.3242 -0.4343
  956SOL     OW 3821   2.678   2.421   2.828  0.4246 -0.2476 -0.2185
  956SOL    HW1 3822   2.694   2.385   2.918 -4.9213 -0.0185 -1.6433
  956SOL    HW2 3823   2.760   2.388   2.787  2.3304  0.6928 -0.9566
  956SOL     MW 3824   2.691   2.412   2.835 -0.0293 -0.0933 -0.5038
  957SOL     OW 3825   2.321   2.824   0.361 -0.0719 -0.0084  0.4847
  957SOL    HW1 3826   2.237   2.859   0.332  0.7561  0.7434 -1.8304
  957SOL    HW2 3827   2.309   2.799   0.459  1.1647 -1.6789  1.1787
  957SOL     MW 3828   2.309   2.826   0.370  0.2005 -0.1296  0.2708
  958SOL     OW 3829   2.099   2.627   2.829 -0.2604  0.0032 -0.2426
  958SOL    HW1 3830   2.059   2.567   2.767 -2.2538  0.8326  2.6930
  958SOL    HW2 3831   2.028   2.624   2.894  1.4968 -0.5720 -2.0327
  958SOL     MW 3832   2.084   2.619   2.829 -0.2915  0.0367 -0.0915
  959SOL     OW 3833   2.511   2.637   0.337  0.3544  0.4905  0.1767
  959SOL    HW1 3834   2.559   2.640   0.260 -1.0669 -0.3897 -1.1062
  959SOL    HW2 3835   2.447   2.711   0.327 -0.3463  0.2844 -0.9359
  959SOL     MW 3836   2.509   2.647   0.326  0.0744  0.3471 -0.1393
  960SOL     OW 3837   1.931   2.298   2.261 -0.3419  0.0060  0.4934
  960SOL    HW1 3838   1.919   2.205   2.273 -0.2040  2.5687  2.0719
  960SOL    HW2 3839   1.895   2.340   2.339  3.1867 -0.2293 -0.2833
  960SOL     MW 3840   1.924   2.292   2.273  0.1419  0.3131  0.5992
  961SOL     OW 3841   2.199   2.320   2.291  0.3525 -0.1775  0.8500
  961SOL    HW1 3842   2.110   2.291   2.279  1.1407  1.2324 -0.4500
  961SOL    HW2 3843   2.198   2.343   2.389  0.2179  2.9391  2.8076
  961SOL     MW 3844   2.187   2.319   2.302  0.4387  0.4197  0.9368
  962SOL     OW 3845   2.143   2.023   2.753 -0.2971 -0.4143  0.3142
  962SOL    HW1 3846   2.110   2.007   2.838 -3.4076 -2.4634 -0.1839
  962SOL    HW2 3847   2.148   1.935   2.709 -2.6088  0.8016 -1.6373
  962SOL     MW 3848   2.140   2.010   2.758 -1.0125 -0.5242 -0.0090
  963SOL     OW 3849   1.807   2.543   2.082  0.2489 -0.2541 -0.1916
  963SOL    HW1 3850   1.890   2.538   2.134  1.8472 -1.0680  1.2904
  963SOL    HW2 3851   1.830   2.492   2.007  1.7648  2.9903 -0.8759
  963SOL     MW 3852   1.821   2.535   2.079  0.6598  0.0666 -0.0863
  964SOL     OW 3853   1.754   1.963   2.733 -0.0857  0.3667 -0.5378
  964SOL    HW1 3854   1.821   2.019   2.693 -1.6947  0.2317  0.6406
  964SOL    HW2 3855   1.808   1.891   2.779  2.6961  0.9923 -0.5341
  964SOL     MW 3856   1.770   1.961   2.734  0.0690  0.4315 -0.3818
  965SOL     OW 3857   2.234   2.738   0.622  0.0084 -0.4452 -0.2223
  965SOL    HW1 3858   2.238   2.650   0.583 -0.2380  0.3469 -0.0652
  965SOL    HW2 3859   2.311   2.754   0.683  0.4700  0.4093 -0.0472
  965SOL     MW 3860   2.244   2.729   0.625  0.0368 -0.2280 -0.1784
  966SOL     OW 3861   2.652   2.638   2.472 -0.2449 -0.4764 -0.4302
  966SOL    HW1 3862   2.598   2.660   2.396  1.9656 -1.0435 -0.3387
  966SOL    HW2 3863   2.679   2.554   2.438 -2.1011 -0.4911  0.9254
  966SOL     MW 3864   2.648   2.629   2.457 -0.1982 -0.5532 -0.2393
  967SOL     OW 3865   2.765   3.058   2.896 -0.0222  0.4484  0.6320
  967SOL    HW1 3866   2.736   2.985   2.948  1.0139 -0.1888  0.0528
  967SOL    HW2 3867   2.681   3.069   2.847  0.3432 -0.5841 -0.2397
  967SOL     MW 3868   2.750   3.050   2.897  0.1627  0.2281  0.4406
  968SOL     OW 3869   2.951   2.622   2.897 -0.4074  0.0456  0.3620
  968SOL    HW1 3870   2.883   2.664   2.852  1.9400 -0.1557 -2.0535
  968SOL    HW2 3871   2.989   2.564   2.831 -1.4186 -1.2622 -0.0696
  968SOL     MW 3872   2.947   2.619   2.882 -0.2311 -0.1535 -0.0137
  969SOL     OW 3873   1.622   2.163   1.638  0.0619  0.2745  0.5004
  969SOL    HW1 3874   1.677   2.084   1.647 -0.5331 -3.3879 -0.6356
  969SOL    HW2 3875   1.600   2.187   1.729  1.5162  0.9487 -1.8098
  969SOL     MW 3876   1.626   2.156   1.651  0.1753 -0.1197  0.0457
  970SOL     OW 3877   1.696   1.794   1.959  0.1509 -0.0391  0.0401
  970SOL    HW1 3878   1.728   1.715   2.013  0.9600 -2.2508  0.1515
  970SOL    HW2 3879   1.598   1.774   1.959  0.2628  0.8380  2.4843
  970SOL     MW 3880   1.687   1.781   1.966  0.2725 -0.2152  0.3773
  971SOL     OW 3881   1.743   0.001   2.437  0.1288  0.4472  0.4053
  971SOL    HW1 3882   1.784  -0.030   2.359 -1.1307 -0.1511  1.8586
  971SOL    HW2 3883   1.789   0.085   2.451 -0.8403 -1.8780 -0.7025
  971SOL     MW 3884   1.754   0.008   2.428 -0.1652  0.0615  0.4509
  972SOL     OW 3885   0.277   2.888   2.462 -0.2102  0.0655  0.4307
  972SOL    HW1 3886   0.341   2.818   2.473 -0.3845  0.4833 -0.1930
  972SOL    HW2 3887   0.328   2.971   2.450  1.9273 -1.8297 -0.3514
  972SOL     MW 3888   0.292   2.890   2.462  0.0488 -0.1294  0.2452
  973SOL     OW 3889   2.539   0.015   2.095  0.2469  0.2706 -0.4124
  973SOL    HW1 3890   2.543  -0.076   2.058  0.4810 -1.4175 -2.9581
  973SOL    HW2 3891   2.545   0.068   2.012  1.1304 -0.5116  0.4233
  973SOL     MW 3892   2.541   0.010   2.079  0.3944 -0.0554 -0.6380
  974SOL     OW 3893   2.020   0.243   2.677  0.2152  0.4694 -0.0969
  974SOL    HW1 3894   2.109   0.215   2.681  0.2979  2.3717  0.1767
  974SOL    HW2 3895   1.987   0.223   2.767  0.9026 -1.0257  0.1901
  974SOL     MW 3896   2.027   0.237   2.690  0.3168  0.5231 -0.0229
  975SOL     OW 3897   2.222   2.492   2.502  0.0576  0.0512 -0.3524
  975SOL    HW1 3898   2.302   2.531   2.538 -1.5115  0.5738  3.1813
  975SOL    HW2 3899   2.168   2.568   2.478 -0.7338  0.5459 -1.7172
  975SOL     MW 3900   2.225   2.507   2.504 -0.2538  0.1854 -0.0663
  976SOL     OW 3901   0.228   0.367   1.774  0.1726 -0.1711  0.3386
  976SOL    HW1 3902   0.285   0.294   1.801 -1.5565  2.3675  1.4126
  976SOL    HW2 3903   0.146   0.327   1.728  0.6033 -1.7779 -1.2213
  976SOL     MW 3904   0.224   0.352   1.772  0.0013 -0.0482  0.2745
  977SOL     OW 3905   1.751   2.669   2.563  0.1475  0.5173  0.0410
  977SOL    HW1 3906   1.727   2.579   2.538  1.2355  2.2625  0.8496
  977SOL    HW2 3907   1.841   2.685   2.538  1.4910 -0.6013 -0.5298
  977SOL     MW 3908   1.760   2.659   2.557  0.4683  0.5999  0.0724
   3.10000   3.10000   3.10000
