977 TIP4P/2005f water molecules t=   1.72000 step= 1720
 3908
    1SOL     OW    1   0.395   0.781   0.111  0.4609  0.0335 -0.0662
    1SOL    HW1    2   0.327   0.770   0.050  0.8219  0.2411  1.6492
    1SOL    HW2    3   0.411   0.686   0.125 -2.0576  0.1479 -1.6054
    1SOL     MW    4   0.389   0.767   0.105  0.1763  0.0760 -0.0429
    2SOL     OW    5   0.312   3.013   1.081 -0.0324  0.3809 -0.2717
    2SOL    HW1    6   0.366   3.095   1.069  0.7722 -0.0168  1.4336
    2SOL    HW2    7   0.219   3.045   1.079  0.1191 -0.2063  1.9110
    2SOL     MW    8   0.307   3.028   1.079  0.0937  0.2510  0.2413
    3SOL     OW    9   2.675   0.331   0.982  0.4364  0.2731  0.1175
    3SOL    HW1   10   2.711   0.400   0.925 -2.2345 -2.6166  1.5690
    3SOL    HW2   11   2.668   0.374   1.075 -2.6585  0.4405 -1.8651
    3SOL     MW   12   2.679   0.346   0.987 -0.3244 -0.0861  0.0474
    4SOL     OW   13   2.948   1.710   0.508 -0.1339 -0.4133 -0.1821
    4SOL    HW1   14   2.892   1.791   0.492 -3.0377 -0.7362  2.3657
    4SOL    HW2   15   2.999   1.693   0.428  0.1226  2.0465 -1.3897
    4SOL     MW   16   2.947   1.718   0.495 -0.4832 -0.1314 -0.0052
    5SOL     OW   17   1.593   1.407   0.619 -0.0715  0.0403  0.1025
    5SOL    HW1   18   1.626   1.398   0.711  2.7125 -1.8989  1.7725
    5SOL    HW2   19   1.511   1.449   0.629 -1.3864 -2.7730 -1.9792
    5SOL     MW   20   1.587   1.411   0.632  0.1223 -0.5867  0.0482
    6SOL     OW   21   0.774   1.437   0.605  0.3503 -0.4228 -0.4101
    6SOL    HW1   22   0.679   1.461   0.625  1.2731  0.0484  0.7695
    6SOL    HW2   23   0.791   1.347   0.638  0.7024  1.1623  0.2337
    6SOL     MW   24   0.763   1.428   0.612  0.5185 -0.1515 -0.1696
    7SOL     OW   25   1.948   1.067   0.007  0.4685 -0.5154  0.2799
    7SOL    HW1   26   2.005   1.129  -0.027 -2.2371 -1.3373 -0.5950
    7SOL    HW2   27   1.974   1.066   0.107  0.2222 -3.0884  1.5798
    7SOL     MW   28   1.959   1.075   0.016  0.0790 -0.9633  0.3360
    8SOL     OW   29   0.794   1.463   1.060  0.3271 -0.3302 -0.1505
    8SOL    HW1   30   0.874   1.491   1.095  0.6036 -0.8810 -3.5676
    8SOL    HW2   31   0.775   1.390   1.120 -0.2828  1.5471 -1.3141
    8SOL     MW   32   0.802   1.457   1.073  0.2831 -0.1552 -0.7548
    9SOL     OW   33   0.924   0.517   1.313 -0.1798  0.2990 -0.3103
    9SOL    HW1   34   0.847   0.450   1.302 -1.3526 -0.7344 -0.7812
    9SOL    HW2   35   0.989   0.482   1.372 -0.8964 -0.1632  0.1639
    9SOL     MW   36   0.922   0.503   1.319 -0.4291  0.1016 -0.3099
   10SOL     OW   37   0.288   0.834   0.484  0.2089 -0.9220  0.0513
   10SOL    HW1   38   0.379   0.854   0.450 -0.8112  0.5176 -0.4705
   10SOL    HW2   39   0.280   0.880   0.573 -0.7282  3.1604  0.0789
   10SOL     MW   40   0.299   0.842   0.491 -0.0493 -0.1934 -0.0139
   11SOL     OW   41   0.772   1.130   1.491 -0.1903  0.4477 -0.0505
   11SOL    HW1   42   0.856   1.153   1.536  0.3253 -2.1064 -0.8389
   11SOL    HW2   43   0.801   1.050   1.440  2.3859 -1.3665 -0.6771
   11SOL     MW   44   0.787   1.123   1.491  0.2176 -0.1287 -0.2372
   12SOL     OW   45   0.040   1.080   0.908  0.6050  0.0601  0.3768
   12SOL    HW1   46   0.079   1.164   0.940 -0.2291 -0.7956  0.3485
   12SOL    HW2   47  -0.017   1.112   0.840 -2.0332  0.6923 -0.4195
   12SOL     MW   48   0.038   1.095   0.903  0.1468  0.0306  0.2680
   13SOL     OW   49   1.812   1.405   1.312  0.2722 -0.3582 -0.5666
   13SOL    HW1   50   1.853   1.328   1.278  0.2460  1.4083 -1.2797
   13SOL    HW2   51   1.873   1.471   1.282  1.8622 -1.6308  0.5316
   13SOL     MW   52   1.825   1.404   1.303  0.4785 -0.2931 -0.5158
   14SOL     OW   53   0.550   0.328   1.790  0.7609 -0.1369  0.7944
   14SOL    HW1   54   0.494   0.254   1.764 -0.8234 -1.6699  0.3852
   14SOL    HW2   55   0.629   0.312   1.737 -0.0250  0.4509  1.4614
   14SOL     MW   56   0.553   0.316   1.779  0.4481 -0.2616  0.8284
   15SOL     OW   57   2.003   0.421   0.987  0.3148  0.3965 -0.3155
   15SOL    HW1   58   2.024   0.492   1.049 -2.1574  0.7063  0.3302
   15SOL    HW2   59   2.040   0.433   0.899 -1.9018 -0.1917  0.9961
   15SOL     MW   60   2.011   0.432   0.984 -0.3039  0.3598 -0.0573
   16SOL     OW   61   0.265   1.816   0.283  0.1216 -0.2113 -0.0768
   16SOL    HW1   62   0.343   1.764   0.299 -2.4819  0.7191 -1.5966
   16SOL    HW2   63   0.281   1.904   0.318 -0.5334  0.2323 -1.2137
   16SOL     MW   64   0.277   1.821   0.290 -0.3083 -0.0300 -0.4273
   17SOL     OW   65   1.124   0.861   1.416  0.0019 -0.7801 -0.2413
   17SOL    HW1   66   1.139   0.871   1.515 -0.9875 -0.2730 -0.2526
   17SOL    HW2   67   1.026   0.863   1.399  2.2242  1.5941 -2.1410
   17SOL     MW   68   1.113   0.862   1.427  0.1646 -0.4000 -0.4935
   18SOL     OW   69   0.055   1.645   0.334 -0.5424  0.0082  0.7075
   18SOL    HW1   70   0.124   1.712   0.311 -1.0107 -0.4047 -1.9119
   18SOL    HW2   71   0.044   1.611   0.246 -2.9921 -1.2134 -0.2683
   18SOL     MW   72   0.063   1.650   0.319 -0.9274 -0.2075  0.2332
   19SOL     OW   73   0.107   1.326   0.978  0.2444  0.4180  0.2203
   19SOL    HW1   74   0.149   1.366   0.903 -2.6160  4.1151  1.2366
   19SOL    HW2   75   0.014   1.339   0.957  0.0977 -1.4029 -2.8587
   19SOL     MW   76   0.100   1.333   0.965 -0.1523  0.6655 -0.0518
   20SOL     OW   77   0.436   2.112   1.259  0.3097 -0.0124 -0.2174
   20SOL    HW1   78   0.387   2.030   1.242  1.2736 -0.6933  1.1556
   20SOL    HW2   79   0.387   2.151   1.338 -1.3528  2.4247 -0.9411
   20SOL     MW   80   0.423   2.107   1.267  0.2175  0.2193 -0.1317
   21SOL     OW   81   0.557   0.885   0.409 -0.0052  0.3600  0.2639
   21SOL    HW1   82   0.623   0.902   0.468  1.1388 -1.6612  1.3265
   21SOL    HW2   83   0.600   0.873   0.321 -0.5067  2.5632 -0.7136
   21SOL     MW   84   0.572   0.886   0.405  0.0795  0.3840  0.2751
   22SOL     OW   85   1.550   0.709   1.023  0.0836  0.1463  0.1519
   22SOL    HW1   86   1.537   0.659   0.944  1.1563  1.3938  0.7926
   22SOL    HW2   87   1.463   0.747   1.045  0.1159  0.3992 -2.4717
   22SOL     MW   88   1.537   0.707   1.015  0.2294  0.3443 -0.1098
   23SOL     OW   89   3.045   0.816   0.741  0.0813 -0.3063  0.3886
   23SOL    HW1   90   3.098   0.739   0.773  2.1251  0.9524  0.0491
   23SOL    HW2   91   3.105   0.889   0.739  2.7119 -2.0184  0.9312
   23SOL     MW   92   3.060   0.815   0.745  0.6981 -0.3662  0.4154
   24SOL     OW   93   2.076   2.171   0.072  0.1751 -0.7179  0.2222
   24SOL    HW1   94   2.041   2.173   0.165 -5.2814 -1.5971  0.2535
   24SOL    HW2   95   2.119   2.084   0.059 -2.0367 -2.5326 -0.6599
   24SOL     MW   96   2.077   2.159   0.083 -0.8367 -1.0733  0.1099
   25SOL     OW   97   0.209   1.440   0.420  0.3092  0.0043 -0.0775
   25SOL    HW1   98   0.153   1.525   0.411  3.5643 -1.7767  1.2203
   25SOL    HW2   99   0.249   1.441   0.337 -1.1613  0.3477 -1.1226
   25SOL     MW  100   0.207   1.452   0.407  0.5446 -0.1854 -0.0442
   26SOL     OW  101   1.998   1.062   0.280  0.4805  0.3331 -0.6319
   26SOL    HW1  102   1.975   1.128   0.347  2.3912 -0.4285  0.8813
   26SOL    HW2  103   2.088   1.092   0.255  1.0298 -0.7722  1.2315
   26SOL     MW  104   2.007   1.074   0.285  0.8051  0.0868 -0.1864
   27SOL     OW  105   1.855   1.368   0.118 -0.1120 -0.2569 -0.3541
   27SOL    HW1  106   1.816   1.453   0.136  0.5429  0.7980 -0.8057
   27SOL    HW2  107   1.909   1.340   0.190 -0.2850  0.9140 -1.4485
   27SOL     MW  108   1.857   1.376   0.130 -0.0484  0.0368 -0.5581
   28SOL     OW  109   0.414   0.931   2.038  0.2053  0.0790  0.6168
   28SOL    HW1  110   0.464   0.933   2.121  2.2533  0.5864  2.5698
   28SOL    HW2  111   0.320   0.897   2.048 -1.0098 -1.7593  1.6481
   28SOL     MW  112   0.408   0.927   2.051  0.3152 -0.0966  1.0106
   29SOL     OW  113   0.183   1.438   0.738 -0.5584 -0.1566 -0.4575
   29SOL    HW1  114   0.224   1.530   0.723 -0.5816 -0.2693  1.5043
   29SOL    HW2  115   0.187   1.404   0.650 -4.0368  1.1933 -0.8926
   29SOL     MW  116   0.189   1.445   0.725 -1.0204  0.0067 -0.2561
   30SOL     OW  117   0.712   1.273   1.230  0.4213  0.4030  0.5012
   30SOL    HW1  118   0.617   1.270   1.257  1.0311 -2.5664  0.0361
   30SOL    HW2  119   0.762   1.239   1.308  1.8608  2.9832 -2.6042
   30SOL     MW  120   0.706   1.268   1.244  0.6916  0.3516  0.0301
   31SOL     OW  121   0.511   0.273   0.222 -0.1679 -0.7836  0.0105
   31SOL    HW1  122   0.525   0.204   0.293 -0.1532 -0.5783 -0.0137
   31SOL    HW2  123   0.495   0.223   0.139  2.2348  0.7197  1.4509
   31SOL     MW  124   0.511   0.257   0.221  0.1511 -0.5581  0.1974
   32SOL     OW  125   2.708   0.957   1.071  0.0658  0.5222 -0.2170
   32SOL    HW1  126   2.645   0.884   1.082 -3.5808 -2.5419  1.3821
   32SOL    HW2  127   2.794   0.918   1.083  1.4704 -0.3075  1.0130
   32SOL     MW  128   2.711   0.942   1.074 -0.2300  0.0084  0.1563
   33SOL     OW  129   1.616   1.239   0.407 -0.5003  0.0696 -0.1535
   33SOL    HW1  130   1.678   1.195   0.459 -2.6482 -0.1778  1.9029
   33SOL    HW2  131   1.600   1.308   0.469  0.2788  0.7103 -0.3199
   33SOL     MW  132   1.622   1.242   0.422 -0.6809  0.1215  0.0959
   34SOL     OW  133   1.163   1.984   1.148 -0.2040 -0.1204  0.4883
   34SOL    HW1  134   1.075   1.984   1.182  1.4496  0.3829 -1.4337
   34SOL    HW2  135   1.222   1.999   1.222 -1.1264 -0.9245 -2.6164
   34SOL     MW  136   1.159   1.986   1.162 -0.1075 -0.1601 -0.1749
   35SOL     OW  137   0.358   0.146   1.752 -0.1537 -0.0834 -1.0291
   35SOL    HW1  138   0.356   0.101   1.838 -1.2391 -3.1110 -1.7409
   35SOL    HW2  139   0.324   0.079   1.690 -1.1780 -1.7721 -2.5649
   35SOL     MW  140   0.353   0.131   1.755 -0.4321 -0.7057 -1.3257
   36SOL     OW  141   1.924   1.982   0.602 -0.0462  0.0946  0.0246
   36SOL    HW1  142   1.876   1.957   0.524  0.3278  2.5027  1.0797
   36SOL    HW2  143   1.950   1.890   0.617 -1.8056 -1.6334 -0.5234
   36SOL     MW  144   1.921   1.967   0.594 -0.2290  0.1844  0.0915
   37SOL     OW  145   1.804   2.089   1.002 -0.3918  0.0074 -0.2506
   37SOL    HW1  146   1.730   2.060   0.950 -2.2912  0.6575  0.0381
   37SOL    HW2  147   1.766   2.114   1.084  1.5343  0.6500 -1.9541
   37SOL     MW  148   1.789   2.088   1.006 -0.3883  0.1780 -0.4372
   38SOL     OW  149   2.799   0.963   0.047 -0.1335 -0.1833 -0.3874
   38SOL    HW1  150   2.852   0.959   0.128 -0.6618  3.2820 -1.3180
   38SOL    HW2  151   2.864   0.948  -0.027  1.5244 -1.0786 -2.4740
   38SOL     MW  152   2.815   0.961   0.048  0.0155  0.1558 -0.7855
   39SOL     OW  153   1.525   0.665   0.752  0.3047  0.2405 -0.9075
   39SOL    HW1  154   1.491   0.573   0.746 -0.5074  0.0570  0.6863
   39SOL    HW2  155   1.451   0.719   0.738  0.4817 -2.4380  0.6977
   39SOL     MW  156   1.511   0.660   0.749  0.2209 -0.1371 -0.4855
   40SOL     OW  157   1.254   1.887   0.238 -0.1384 -0.3460  0.1740
   40SOL    HW1  158   1.331   1.837   0.271  1.6275  0.7015  0.0890
   40SOL    HW2  159   1.225   1.954   0.304 -1.5809  0.7518 -1.2481
   40SOL     MW  160   1.260   1.889   0.251 -0.0957 -0.0630 -0.0248
   41SOL     OW  161   0.496   0.552   1.525  0.0239 -0.6547  0.2473
   41SOL    HW1  162   0.573   0.616   1.516  5.8467 -0.3174  2.0266
   41SOL    HW2  163   0.416   0.597   1.484 -0.7832  0.0289  1.4582
   41SOL     MW  164   0.495   0.566   1.519  0.6857 -0.5200  0.6418
   42SOL     OW  165   1.218   2.930   1.988  0.4232 -0.6485 -0.0552
   42SOL    HW1  166   1.145   2.940   2.049 -1.6653 -3.0893  1.5913
   42SOL    HW2  167   1.275   2.886   2.049 -1.7841 -0.5687  1.8304
   42SOL     MW  168   1.216   2.926   2.004 -0.1436 -0.9600  0.4108
   43SOL     OW  169   1.411   0.100   1.691 -0.3343 -0.2443  0.0765
   43SOL    HW1  170   1.491   0.066   1.642  1.6218  1.0425  0.0211
   43SOL    HW2  171   1.357   0.015   1.708 -0.5928  0.8034  2.5684
   43SOL     MW  172   1.414   0.084   1.686 -0.1103  0.0637  0.3979
   44SOL     OW  173   1.235   0.811   1.016 -0.3138  0.2893 -0.3459
   44SOL    HW1  174   1.210   0.903   1.023 -1.1458  0.6984 -3.2460
   44SOL    HW2  175   1.196   0.764   1.094 -1.6005  0.8434 -1.3336
   44SOL     MW  176   1.226   0.817   1.027 -0.5934  0.4164 -0.8589
   45SOL     OW  177   1.302   0.843   0.725  0.4181 -0.3744 -0.1157
   45SOL    HW1  178   1.254   0.828   0.803 -1.0040  1.3691 -1.6177
   45SOL    HW2  179   1.241   0.803   0.661 -2.8391 -2.4513  1.5965
   45SOL     MW  180   1.288   0.836   0.726 -0.1993 -0.4184 -0.0880
   46SOL     OW  181   0.438   1.133   0.657 -0.1236 -0.3228  0.3644
   46SOL    HW1  182   0.475   1.165   0.571  0.3983 -0.1750 -0.1086
   46SOL    HW2  183   0.457   1.199   0.722 -2.6903  1.2025 -1.0959
   46SOL     MW  184   0.446   1.146   0.654 -0.3934 -0.1020  0.1093
   47SOL     OW  185   0.096   2.016   1.901 -0.0102 -0.6869  0.4234
   47SOL    HW1  186   0.080   1.935   1.849 -0.0063  0.7751  0.9139
   47SOL    HW2  187   0.086   1.981   1.988  4.0400 -0.0585 -2.9536
   47SOL     MW  188   0.093   2.001   1.906  0.5247 -0.4111  0.0426
   48SOL     OW  189   1.218   0.502   1.005 -0.1742  0.1351 -0.2570
   48SOL    HW1  190   1.181   0.450   0.936  2.4369 -1.2192 -0.8828
   48SOL    HW2  191   1.159   0.576   1.012  0.7583  0.9354  1.4330
   48SOL     MW  192   1.205   0.505   0.997  0.2933  0.0620 -0.1166
   49SOL     OW  193   1.686   0.690   1.570 -0.1766  0.3195 -0.2090
   49SOL    HW1  194   1.732   0.635   1.634  0.4758  1.0284  0.2744
   49SOL    HW2  195   1.724   0.676   1.484  1.3275  0.9452  1.3312
   49SOL     MW  196   1.697   0.681   1.567  0.1079  0.4956  0.0580
   50SOL     OW  197   1.307   1.214   0.618 -0.0351 -0.0559  0.1645
   50SOL    HW1  198   1.218   1.216   0.673  0.5504  1.0271  0.7294
   50SOL    HW2  199   1.368   1.149   0.669  2.2812 -1.7056  1.1987
   50SOL     MW  200   1.303   1.206   0.632  0.3478 -0.1307  0.3755
   51SOL     OW  201   0.330   2.896   0.851  0.9091  0.3966  0.7004
   51SOL    HW1  202   0.416   2.857   0.851 -1.0309 -0.0855 -1.9436
   51SOL    HW2  203   0.327   2.943   0.935 -2.7890 -0.1144 -2.3927
   51SOL     MW  204   0.341   2.897   0.862  0.1652  0.2655 -0.0566
   52SOL     OW  205   0.787   1.819   0.481  0.1916  0.1789  0.0878
   52SOL    HW1  206   0.763   1.910   0.509 -0.8546  1.5832 -0.8038
   52SOL    HW2  207   0.831   1.831   0.397 -0.7657 -0.2002  0.4369
   52SOL     MW  208   0.789   1.833   0.474 -0.0727  0.3142  0.0162
   53SOL     OW  209   0.492   2.142   0.591 -0.3688 -0.5417  0.0734
   53SOL    HW1  210   0.431   2.098   0.526 -0.3369 -0.7403  0.1832
   53SOL    HW2  211   0.459   2.225   0.614 -0.3577 -2.7794  0.6499
   53SOL     MW  212   0.480   2.147   0.586 -0.3631 -0.8631  0.1639
   54SOL     OW  213   2.039   0.974   0.745 -0.5200 -0.2289 -0.1109
   54SOL    HW1  214   2.072   0.981   0.656 -0.0107 -2.6318  0.6345
   54SOL    HW2  215   2.021   0.881   0.760  2.1913  1.0686  1.6948
   54SOL     MW  216   2.041   0.963   0.735 -0.0951 -0.3747  0.2257
   55SOL     OW  217   0.436   1.525   1.719  0.0489  0.5689  0.4085
   55SOL    HW1  218   0.373   1.561   1.657 -0.1542 -0.1206  0.1168
   55SOL    HW2  219   0.516   1.499   1.663 -0.8828  0.0974  0.0238
   55SOL     MW  220   0.438   1.526   1.703 -0.1008  0.4158  0.3193
   56SOL     OW  221   0.644   0.920   0.137 -0.7533 -0.4380 -0.3563
   56SOL    HW1  222   0.637   1.014   0.137 -0.2538 -1.1362 -0.2968
   56SOL    HW2  223   0.559   0.903   0.097 -0.5912 -0.4619  0.8649
   56SOL     MW  224   0.632   0.930   0.132 -0.6660 -0.5333 -0.1873
   57SOL     OW  225   1.096   1.283   1.150  0.0584 -0.0138 -0.2996
   57SOL    HW1  226   1.184   1.320   1.176 -1.7558  1.2809  0.0117
   57SOL    HW2  227   1.063   1.225   1.226 -0.7685  0.9332 -0.1913
   57SOL     MW  228   1.103   1.280   1.163 -0.2901  0.2820 -0.2442
   58SOL     OW  229   0.454   1.272   1.300 -0.4484  0.2602  0.1098
   58SOL    HW1  230   0.449   1.368   1.292 -1.1426 -0.0065 -0.5513
   58SOL    HW2  231   0.462   1.241   1.396 -2.3812  1.5162 -1.3858
   58SOL     MW  232   0.454   1.280   1.312 -0.7950  0.3908 -0.1747
   59SOL     OW  233   1.439   1.681   0.386  0.0686  0.1783 -0.2674
   59SOL    HW1  234   1.487   1.725   0.452  1.4531 -1.4750 -0.8065
   59SOL    HW2  235   1.354   1.665   0.435 -3.0180 -0.1058  2.1992
   59SOL     MW  236   1.434   1.685   0.401 -0.1560 -0.0773 -0.0131
   60SOL     OW  237   3.099   0.186   1.632 -0.4089  0.3799  0.3421
   60SOL    HW1  238   3.019   0.229   1.655  0.8481  0.9752 -0.7944
   60SOL    HW2  239   3.127   0.134   1.714  2.1741 -0.3976  2.9099
   60SOL     MW  240   3.092   0.185   1.646  0.0978  0.3559  0.5309
   61SOL     OW  241   1.958   1.339   2.982  0.4048  0.1859 -0.1149
   61SOL    HW1  242   1.919   1.352   3.071  1.0843 -1.7649 -0.3841
   61SOL    HW2  243   2.051   1.307   2.985 -0.6821 -2.1424 -1.1408
   61SOL     MW  244   1.965   1.337   2.994  0.3510 -0.3787 -0.2858
   62SOL     OW  245   0.584   1.709   0.661 -0.4449 -0.1307  0.1255
   62SOL    HW1  246   0.680   1.705   0.658 -0.5009  0.8751  0.8130
   62SOL    HW2  247   0.554   1.621   0.674  1.5022 -0.2857 -0.0832
   62SOL     MW  248   0.593   1.697   0.663 -0.1954 -0.0185  0.1887
   63SOL     OW  249   1.729   0.714   0.611 -0.1431 -0.2200 -0.3446
   63SOL    HW1  250   1.701   0.801   0.573 -1.6735  0.2267 -0.7048
   63SOL    HW2  251   1.650   0.688   0.668  0.0734  1.8510 -0.7361
   63SOL     MW  252   1.715   0.722   0.614 -0.3165  0.1122 -0.4438
   64SOL     OW  253   0.278   1.681   0.701  0.1642  0.4435 -0.4867
   64SOL    HW1  254   0.348   1.744   0.688 -0.3502  1.7012 -0.4622
   64SOL    HW2  255   0.190   1.711   0.728 -2.2337  1.8728  0.9546
   64SOL     MW  256   0.275   1.693   0.703 -0.2201  0.7981 -0.2933
   65SOL     OW  257   1.489   2.291   0.387 -0.1386 -0.0684  0.0561
   65SOL    HW1  258   1.578   2.321   0.398 -2.1770 -0.8008  2.4942
   65SOL    HW2  259   1.443   2.350   0.456  2.3191  3.1966 -0.9201
   65SOL     MW  260   1.494   2.303   0.398 -0.0833  0.2657  0.2490
   66SOL     OW  261   0.388   0.592   0.510 -0.2655 -0.1588  0.7401
   66SOL    HW1  262   0.437   0.578   0.426  1.3869  0.5925 -0.5586
   66SOL    HW2  263   0.353   0.679   0.513 -1.8760 -0.9649 -1.5650
   66SOL     MW  264   0.390   0.601   0.500 -0.2600 -0.1660  0.2646
   67SOL     OW  265   1.422   0.056   1.973 -0.5459  0.5455 -0.4456
   67SOL    HW1  266   1.470   0.062   1.892 -0.9176 -0.9093 -1.1194
   67SOL    HW2  267   1.358  -0.017   1.956 -1.6594 -1.6402 -0.2900
   67SOL     MW  268   1.420   0.047   1.960 -0.7419  0.0652 -0.5140
   68SOL     OW  269   0.758   0.076   2.939  0.0033  0.1745 -0.6124
   68SOL    HW1  270   0.768   0.144   2.873  0.8948 -1.8200  0.4611
   68SOL    HW2  271   0.838   0.092   2.990  2.2500  4.3119 -0.2253
   68SOL     MW  272   0.770   0.087   2.937  0.4173  0.4572 -0.4197
   69SOL     OW  273   1.091   0.274   1.951 -0.2162  0.6339  0.2945
   69SOL    HW1  274   1.184   0.273   1.983  2.3825  0.8761  0.6101
   69SOL    HW2  275   1.043   0.229   2.020  1.5070  2.7865  2.0201
   69SOL     MW  276   1.097   0.268   1.964  0.3540  0.9499  0.5638
   70SOL     OW  277   0.510   1.736   1.104  0.2975 -0.1652  0.2713
   70SOL    HW1  278   0.591   1.785   1.103 -0.5295  3.6025  1.8947
   70SOL    HW2  279   0.513   1.664   1.035  2.1579  1.5008 -2.3262
   70SOL     MW  280   0.521   1.733   1.095  0.4339  0.5517  0.1428
   71SOL     OW  281   1.542   0.555   1.275  0.2441  0.0462  0.3314
   71SOL    HW1  282   1.478   0.624   1.318 -1.4177  0.7982  0.1619
   71SOL    HW2  283   1.532   0.579   1.184 -1.2577  0.1189  0.7239
   71SOL     MW  284   1.532   0.567   1.269 -0.1733  0.1550  0.3608
   72SOL     OW  285   0.801   1.826   1.003 -0.2571 -0.6575  0.2605
   72SOL    HW1  286   0.776   1.902   0.943 -0.6206  1.2879  1.3635
   72SOL    HW2  287   0.848   1.779   0.932 -0.1085 -0.4231 -1.4717
   72SOL     MW  288   0.804   1.830   0.986 -0.2855 -0.3699  0.1775
   73SOL     OW  289   1.121   0.691   1.217 -0.3583  0.5933 -0.4114
   73SOL    HW1  290   1.061   0.617   1.243  1.3224  1.0890 -3.0142
   73SOL    HW2  291   1.109   0.754   1.294  2.5792  3.5561 -0.3270
   73SOL     MW  292   1.112   0.690   1.230  0.2510  1.0496 -0.7437
   74SOL     OW  293   2.771   0.088   0.976 -0.0134 -0.2125 -0.0706
   74SOL    HW1  294   2.864   0.078   0.954 -0.7097 -3.4143  0.4516
   74SOL    HW2  295   2.739   0.176   0.961  3.5032 -0.5318 -0.4517
   74SOL     MW  296   2.779   0.098   0.971  0.3587 -0.6771 -0.0520
   75SOL     OW  297   1.516   1.346   0.164 -0.2152 -0.7106  0.6000
   75SOL    HW1  298   1.579   1.280   0.132  1.2292  0.1740 -0.2889
   75SOL    HW2  299   1.534   1.340   0.263  0.6343  0.0778  0.3933
   75SOL     MW  300   1.527   1.336   0.173  0.0874 -0.4899  0.4555
   76SOL     OW  301   3.032   0.689   0.478  0.0576 -0.0503 -1.4164
   76SOL    HW1  302   3.039   0.733   0.568  0.6557  0.7412  1.4878
   76SOL    HW2  303   3.111   0.638   0.461 -1.9285  0.4259 -0.8065
   76SOL     MW  304   3.043   0.688   0.488 -0.1255  0.1169 -0.9527
   77SOL     OW  305   0.830   0.620   0.449  0.1052  0.0058 -0.2657
   77SOL    HW1  306   0.807   0.649   0.358  2.7295 -2.9323 -2.0361
   77SOL    HW2  307   0.816   0.521   0.447 -2.3169 -0.1755 -0.8902
   77SOL     MW  308   0.825   0.611   0.437  0.1319 -0.4058 -0.5817
   78SOL     OW  309   0.777   0.871   1.086 -0.0750 -0.3202 -0.0559
   78SOL    HW1  310   0.779   0.945   1.032  1.5439 -0.9482  0.9933
   78SOL    HW2  311   0.690   0.875   1.127 -1.1661 -0.8456 -1.8798
   78SOL     MW  312   0.766   0.881   1.085 -0.0053 -0.4724 -0.1581
   79SOL     OW  313   1.849   1.501   0.540  0.2834 -0.1363 -0.1698
   79SOL    HW1  314   1.758   1.483   0.560 -0.9457 -0.2133 -0.2850
   79SOL    HW2  315   1.905   1.485   0.619 -0.3514  3.7595 -1.2399
   79SOL     MW  316   1.844   1.497   0.553  0.0375  0.3675 -0.3262
   80SOL     OW  317   0.164   0.980   0.296  0.7572 -0.6084 -0.2598
   80SOL    HW1  318   0.120   0.932   0.228 -0.0974 -0.8749 -2.5804
   80SOL    HW2  319   0.202   0.914   0.357 -0.8769 -0.8693 -0.9176
   80SOL     MW  320   0.163   0.965   0.295  0.4289 -0.6780 -0.6528
   81SOL     OW  321   1.832   1.878   0.362  0.7038  0.1361 -0.2247
   81SOL    HW1  322   1.806   1.791   0.339  2.7774  2.0561  0.7512
   81SOL    HW2  323   1.778   1.933   0.293  1.0331  3.6271  0.0932
   81SOL     MW  324   1.821   1.874   0.350  1.0209  0.8501 -0.0540
   82SOL     OW  325   0.966   1.039   0.557 -0.1274 -0.1470  0.2299
   82SOL    HW1  326   0.915   1.086   0.490 -0.2446  0.3937 -0.1719
   82SOL    HW2  327   0.934   0.952   0.570  1.6970  1.0592 -1.9245
   82SOL     MW  328   0.955   1.034   0.550  0.0978  0.0835 -0.1074
   83SOL     OW  329   0.032   0.744   1.573 -0.2595  0.4186  0.3219
   83SOL    HW1  330   0.039   0.827   1.507 -0.4452 -3.0551 -1.3579
   83SOL    HW2  331   0.098   0.685   1.528  0.7290  0.0712  0.1571
   83SOL     MW  332   0.041   0.747   1.558 -0.1535 -0.0856  0.0785
   84SOL     OW  333   0.030   0.172   0.933 -0.3937  0.2875 -0.1854
   84SOL    HW1  334   0.028   0.253   0.984 -2.8981  0.0518 -0.9035
   84SOL    HW2  335   0.028   0.109   1.010  0.0448  1.0964 -2.0280
   84SOL     MW  336   0.029   0.175   0.950 -0.6663  0.3631 -0.5233
   85SOL     OW  337   0.330   0.495   0.774  0.2488 -0.0005 -0.0293
   85SOL    HW1  338   0.345   0.517   0.683 -1.0826 -0.6404  0.6066
   85SOL    HW2  339   0.319   0.399   0.789  2.7252  2.0227  1.0678
   85SOL     MW  340   0.330   0.485   0.764  0.3999  0.1820  0.1993
   86SOL     OW  341   1.242   0.272   1.158  0.9149  0.3594  0.3329
   86SOL    HW1  342   1.223   0.363   1.131  2.2865 -0.8823  0.6319
   86SOL    HW2  343   1.336   0.271   1.176  0.4275  0.2494 -0.8583
   86SOL     MW  344   1.252   0.284   1.157  1.0316  0.1810  0.2151
   87SOL     OW  345   1.034   1.544   1.171 -0.1512  0.0767 -0.3316
   87SOL    HW1  346   1.105   1.569   1.112  1.3433  1.6104 -0.8419
   87SOL    HW2  347   1.049   1.450   1.186 -2.0806 -0.6555  2.8318
   87SOL     MW  348   1.046   1.535   1.165 -0.2086  0.1825  0.0184
   88SOL     OW  349   1.185   1.079   0.987 -0.7242  0.0771 -0.2523
   88SOL    HW1  350   1.283   1.091   0.984 -0.7976 -0.5688 -1.9780
   88SOL    HW2  351   1.156   1.132   1.063 -1.0466  2.1075  0.2338
   88SOL     MW  352   1.194   1.088   0.996 -0.7764  0.2598 -0.4158
   89SOL     OW  353   1.776   0.690   0.213 -0.1391 -0.1628 -0.2457
   89SOL    HW1  354   1.713   0.642   0.268 -2.1450 -0.4522 -0.8233
   89SOL    HW2  355   1.827   0.742   0.274  0.9585 -1.8738 -0.7174
   89SOL     MW  356   1.774   0.690   0.229 -0.2589 -0.4267 -0.3841
   90SOL     OW  357   0.783   1.228   2.855  0.1284 -0.3489 -0.0515
   90SOL    HW1  358   0.833   1.147   2.856  0.3144  2.3260  1.6452
   90SOL    HW2  359   0.813   1.276   2.931 -0.7188 -0.2971 -2.5919
   90SOL     MW  360   0.793   1.223   2.865  0.0411  0.0109 -0.1628
   91SOL     OW  361   2.219   0.618   0.481  0.5447  0.4242  0.9098
   91SOL    HW1  362   2.298   0.663   0.441  0.3196 -0.8531  1.5380
   91SOL    HW2  363   2.228   0.524   0.447  1.9228  1.3932 -2.0310
   91SOL     MW  364   2.231   0.611   0.471  0.6968  0.3835  0.6047
   92SOL     OW  365   1.633   0.961   0.516 -0.0440 -0.1347 -0.4999
   92SOL    HW1  366   1.602   0.989   0.602  1.9423 -2.5086 -1.9216
   92SOL    HW2  367   1.598   1.006   0.444  1.8467 -0.7401 -0.0053
   92SOL     MW  368   1.625   0.971   0.518  0.4675 -0.5278 -0.6222
   93SOL     OW  369   1.069   0.288   0.373  0.5711 -0.3219  0.5719
   93SOL    HW1  370   0.975   0.292   0.380  0.2042  0.0629 -0.9787
   93SOL    HW2  371   1.100   0.320   0.284  0.2565 -2.4460 -0.8102
   93SOL     MW  372   1.061   0.293   0.362  0.4812 -0.5514  0.1850
   94SOL     OW  373   1.895   1.385   1.592  0.2250 -0.1258  0.5619
   94SOL    HW1  374   1.851   1.408   1.508 -0.0324 -0.7847  3.4314
   94SOL    HW2  375   1.875   1.288   1.596 -2.0202 -0.1798 -0.1207
   94SOL     MW  376   1.887   1.375   1.581 -0.1052 -0.2199  0.8505
   95SOL     OW  377   0.596   1.553   0.923 -0.1129 -0.2653  0.0567
   95SOL    HW1  378   0.660   1.504   0.982 -0.3030  3.1736 -1.2051
   95SOL    HW2  379   0.540   1.487   0.883 -1.4228  0.7154  0.4300
   95SOL     MW  380   0.597   1.538   0.925 -0.3108  0.3178 -0.0605
   96SOL     OW  381   1.329   1.862   1.683 -0.3754  0.0177  0.0775
   96SOL    HW1  382   1.245   1.853   1.739 -1.2861 -1.8561 -0.3724
   96SOL    HW2  383   1.329   1.782   1.629 -3.6984  0.3028 -0.4497
   96SOL     MW  384   1.318   1.850   1.683 -0.9340 -0.1919 -0.0514
   97SOL     OW  385   1.094   1.566   0.835  0.3964  0.0658 -0.1536
   97SOL    HW1  386   1.138   1.631   0.897  1.3870  0.8813 -0.9364
   97SOL    HW2  387   1.002   1.595   0.820 -1.4709  1.7977  2.9651
   97SOL     MW  388   1.088   1.578   0.841  0.2807  0.4019  0.1546
   98SOL     OW  389   1.332   1.406   1.197  0.1379  0.0475  0.9015
   98SOL    HW1  390   1.388   1.454   1.260  0.7095 -1.1617 -2.0531
   98SOL    HW2  391   1.379   1.406   1.113  1.2234 -1.0504 -0.7594
   98SOL     MW  392   1.346   1.413   1.195  0.3566 -0.2569  0.2925
   99SOL     OW  393   1.506   0.301   1.339  0.3717  0.4861  0.1661
   99SOL    HW1  394   1.531   0.394   1.325 -0.9091 -2.5052 -1.5793
   99SOL    HW2  395   1.467   0.304   1.434 -0.3898 -0.1289  0.8185
   99SOL     MW  396   1.504   0.314   1.350  0.1023  0.0103  0.0219
  100SOL     OW  397   1.054   1.146   1.374 -0.2967  0.5477  0.0751
  100SOL    HW1  398   1.108   1.191   1.442  0.7177  0.0030  1.7397
  100SOL    HW2  399   1.056   1.049   1.398  1.1564 -0.2611  0.3588
  100SOL     MW  400   1.062   1.139   1.386  0.0289  0.3691  0.3321
  101SOL     OW  401   0.544   1.220   0.416  0.1669  0.4088  0.4380
  101SOL    HW1  402   0.481   1.202   0.342 -1.4115  1.0448 -3.8027
  101SOL    HW2  403   0.623   1.180   0.383  0.6741 -0.9317  0.8139
  101SOL     MW  404   0.546   1.212   0.402  0.0256  0.3158 -0.0719
  102SOL     OW  405   2.957   0.618   1.106 -0.0495 -0.5034  0.1232
  102SOL    HW1  406   2.982   0.705   1.095 -0.6592 -3.1291 -1.5051
  102SOL    HW2  407   2.892   0.626   1.180  0.8847 -0.2387  0.4350
  102SOL     MW  408   2.952   0.630   1.114 -0.0067 -0.8149 -0.0505
  103SOL     OW  409   1.856   0.258   1.783 -0.0426 -0.7146 -0.2975
  103SOL    HW1  410   1.875   0.166   1.766 -1.8494  1.1067 -1.6919
  103SOL    HW2  411   1.854   0.263   1.882  1.6786 -0.7612 -0.4212
  103SOL     MW  412   1.858   0.246   1.794 -0.0539 -0.4804 -0.4978
  104SOL     OW  413   0.045   1.538   1.669 -0.0846  0.0274  0.6095
  104SOL    HW1  414   0.100   1.469   1.721 -0.5455  0.9964 -1.9449
  104SOL    HW2  415  -0.041   1.504   1.685  1.6772  2.1394  0.0483
  104SOL     MW  416   0.041   1.524   1.678  0.0870  0.4339  0.1985
  105SOL     OW  417   0.021   1.229   0.407  0.8331 -0.0212  0.4585
  105SOL    HW1  418   0.060   1.142   0.395  1.2385  1.2971 -1.3214
  105SOL    HW2  419   0.089   1.296   0.417 -2.0290  0.5859 -3.3521
  105SOL     MW  420   0.035   1.226   0.407  0.5090  0.2328 -0.2791
  106SOL     OW  421   0.784   0.286   0.832  0.2464 -0.7084  0.0200
  106SOL    HW1  422   0.711   0.333   0.878 -0.3752  0.3194  0.7480
  106SOL    HW2  423   0.838   0.358   0.808  0.2085  1.5128  0.8299
  106SOL     MW  424   0.781   0.301   0.835  0.1594 -0.2797  0.2229
  107SOL     OW  425   0.809   2.211   2.892 -0.4850 -0.0700  0.3015
  107SOL    HW1  426   0.716   2.214   2.902 -2.8563 -0.1449 -1.6666
  107SOL    HW2  427   0.832   2.164   2.977 -1.1044  0.7401  0.4987
  107SOL     MW  428   0.800   2.205   2.905 -0.8796  0.0270  0.0678
  108SOL     OW  429   1.351   1.570   1.631 -1.0648  0.0109 -0.1580
  108SOL    HW1  430   1.328   1.549   1.544  1.9071  0.8000 -2.0295
  108SOL    HW2  431   1.424   1.508   1.662  1.3716 -1.3418  0.5370
  108SOL     MW  432   1.358   1.559   1.624 -0.3513 -0.0635 -0.3133
  109SOL     OW  433   2.033   0.761   0.345  0.1831  0.2681  0.3202
  109SOL    HW1  434   2.053   0.853   0.370 -1.0890 -1.1868  0.4089
  109SOL    HW2  435   2.088   0.706   0.403 -0.8413 -0.6647  1.2866
  109SOL     MW  436   2.043   0.766   0.356 -0.1199 -0.0469  0.4594
  110SOL     OW  437   0.412   1.938   0.741  0.3980  0.6282 -0.6255
  110SOL    HW1  438   0.479   1.873   0.739  0.6638 -0.0081  2.4262
  110SOL    HW2  439   0.454   2.016   0.698  1.9339 -1.5502  2.4961
  110SOL     MW  440   0.427   1.940   0.735  0.6357  0.2569  0.1890
  111SOL     OW  441   0.864   0.870   1.351  0.0302  0.2708 -0.2757
  111SOL    HW1  442   0.830   0.869   1.262 -1.0163 -0.4231  0.2004
  111SOL    HW2  443   0.827   0.799   1.401  1.1330  1.5483 -1.4947
  111SOL     MW  444   0.855   0.861   1.346  0.0376  0.3478 -0.3737
  112SOL     OW  445   1.403   1.105   1.599 -0.1066  0.1582  0.3166
  112SOL    HW1  446   1.335   1.172   1.608  2.3565  0.8411  1.1799
  112SOL    HW2  447   1.367   1.020   1.631 -0.9382  0.8447  1.3664
  112SOL     MW  448   1.389   1.103   1.605  0.1087  0.3389  0.5690
  113SOL     OW  449   1.231   3.007   1.727  0.2132 -0.0641  0.1134
  113SOL    HW1  450   1.193   2.975   1.812 -1.8817  0.5191 -0.7987
  113SOL    HW2  451   1.209   2.952   1.656  1.3633 -0.1702  0.3971
  113SOL     MW  452   1.223   2.995   1.729  0.0885 -0.0012  0.0305
  114SOL     OW  453   0.333   2.871   1.766  1.4631 -0.0389 -0.3350
  114SOL    HW1  454   0.424   2.922   1.763  0.3016  0.9278 -0.0664
  114SOL    HW2  455   0.285   2.921   1.835  2.1825  0.0935  2.0110
  114SOL     MW  456   0.339   2.885   1.775  1.4048  0.1061  0.0099
  115SOL     OW  457   0.537   0.846   1.185  1.1200 -0.2581 -0.4527
  115SOL    HW1  458   0.516   0.755   1.181  0.4392 -0.6085 -1.9306
  115SOL    HW2  459   0.476   0.886   1.255 -0.3585  1.8835  0.9966
  115SOL     MW  460   0.526   0.839   1.194  0.8351 -0.0217 -0.4565
  116SOL     OW  461   0.705   1.125   0.950 -0.6006 -0.0470  0.3751
  116SOL    HW1  462   0.771   1.143   0.873  1.6567 -0.8688  0.2105
  116SOL    HW2  463   0.734   1.185   1.017  2.7607  1.5720 -0.6925
  116SOL     MW  464   0.717   1.135   0.948  0.1407  0.0582  0.2125
  117SOL     OW  465   1.128   1.297   0.802 -0.1882  0.3744 -0.1797
  117SOL    HW1  466   1.143   1.242   0.879 -1.1800  1.1514  3.1805
  117SOL    HW2  467   1.141   1.392   0.836  1.5144  0.2368 -0.4860
  117SOL     MW  468   1.132   1.302   0.817 -0.0944  0.4587  0.2233
  118SOL     OW  469   3.054   2.937   1.808  0.7692 -0.2142 -0.0351
  118SOL    HW1  470   3.099   3.017   1.828  0.3840 -0.3168  2.6111
  118SOL    HW2  471   2.959   2.950   1.789 -0.5390 -1.6397 -1.1643
  118SOL     MW  472   3.048   2.949   1.808  0.5458 -0.4158  0.1650
  119SOL     OW  473   0.370   1.546   1.249  0.1131 -0.1119  0.7874
  119SOL    HW1  474   0.411   1.620   1.198 -2.4615  0.1138  1.4150
  119SOL    HW2  475   0.286   1.540   1.202  1.6762  1.6878 -0.0906
  119SOL     MW  476   0.364   1.555   1.236 -0.0203  0.1553  0.7543
  120SOL     OW  477   0.271   0.828   0.993  0.0843  0.0371  0.0592
  120SOL    HW1  478   0.270   0.907   1.049 -2.0460  2.5023 -3.1610
  120SOL    HW2  479   0.355   0.842   0.949 -0.3073  0.3975 -1.2583
  120SOL     MW  480   0.282   0.840   0.995 -0.2484  0.4099 -0.5395
  121SOL     OW  481   1.777   1.123   1.611  0.3542 -0.2493  0.0755
  121SOL    HW1  482   1.723   1.150   1.535  0.2224 -3.1974 -1.5488
  121SOL    HW2  483   1.825   1.051   1.577  0.1925 -0.2336  0.1751
  121SOL     MW  484   1.776   1.117   1.596  0.3155 -0.6362 -0.1257
  122SOL     OW  485   0.103   0.645   0.852 -0.1774  1.0854  0.3548
  122SOL    HW1  486   0.176   0.594   0.818  0.6615  0.9313  2.6084
  122SOL    HW2  487   0.154   0.691   0.913 -1.6471  0.3608 -1.0970
  122SOL     MW  488   0.120   0.644   0.856 -0.2606  0.9695  0.4606
  123SOL     OW  489   1.870   1.098   0.529  0.0377  0.1907  0.1131
  123SOL    HW1  490   1.786   1.048   0.528 -0.0598 -0.5132  2.0617
  123SOL    HW2  491   1.903   1.079   0.617  0.0205 -0.2188 -1.3463
  123SOL     MW  492   1.863   1.089   0.540  0.0226  0.0438  0.1777
  124SOL     OW  493   0.609   0.455   0.950  0.1169  0.3771 -0.2905
  124SOL    HW1  494   0.522   0.479   0.917 -0.1673  3.5894 -0.1986
  124SOL    HW2  495   0.658   0.540   0.949  2.1879 -0.3277 -3.4101
  124SOL     MW  496   0.604   0.469   0.945  0.3527  0.7080 -0.6900
  125SOL     OW  497   0.681   1.705   1.762 -0.3944 -0.3895 -0.7957
  125SOL    HW1  498   0.697   1.688   1.669  1.2691 -3.9353 -0.6688
  125SOL    HW2  499   0.628   1.789   1.760  0.5371 -2.4756 -0.5180
  125SOL     MW  500   0.676   1.714   1.750 -0.0520 -1.1326 -0.7423
  126SOL     OW  501   2.124   1.542   1.911 -0.3723  0.2781  0.1408
  126SOL    HW1  502   2.178   1.621   1.906 -0.7801 -1.3114  4.3818
  126SOL    HW2  503   2.178   1.470   1.938 -0.3167  0.9560 -1.0780
  126SOL     MW  504   2.138   1.543   1.914 -0.4187  0.1578  0.5396
  127SOL     OW  505   0.525   0.783   1.809 -0.5456 -0.2443 -0.0016
  127SOL    HW1  506   0.625   0.777   1.820  0.4047 -2.1251  1.8985
  127SOL    HW2  507   0.495   0.844   1.873 -2.6748  0.2993  1.9631
  127SOL     MW  508   0.534   0.791   1.819 -0.7012 -0.4208  0.5084
  128SOL     OW  509   1.741   0.722   2.890 -0.3990  0.9515 -0.1940
  128SOL    HW1  510   1.766   0.725   2.799 -1.6020  1.8113 -2.7683
  128SOL    HW2  511   1.719   0.812   2.907  1.2959  1.9387  2.2642
  128SOL     MW  512   1.741   0.734   2.880 -0.3341  1.1952 -0.2093
  129SOL     OW  513   1.568   0.862   0.185 -0.1164 -0.2794 -0.0849
  129SOL    HW1  514   1.506   0.791   0.181 -0.7946 -0.4940 -2.4925
  129SOL    HW2  515   1.647   0.813   0.199  0.1387 -1.9141  1.5901
  129SOL     MW  516   1.570   0.846   0.187 -0.1722 -0.5234 -0.1816
  130SOL     OW  517   0.831   1.468   0.336 -0.3575 -0.0310  0.6633
  130SOL    HW1  518   0.816   1.442   0.425  1.1907  2.0135 -0.6257
  130SOL    HW2  519   0.927   1.488   0.325  3.8608 -0.0573  2.3107
  130SOL     MW  520   0.842   1.467   0.347  0.4034  0.2353  0.7106
  131SOL     OW  521   0.069   0.802   0.114  0.2097  0.1000  0.6205
  131SOL    HW1  522   0.018   0.830   0.044 -0.7545  1.0093  0.6365
  131SOL    HW2  523   0.127   0.735   0.081  0.7055 -0.6126  0.9847
  131SOL     MW  524   0.070   0.797   0.101  0.1479  0.1259  0.6707
  132SOL     OW  525   2.750   0.086   1.245 -0.2491  0.0472  0.0768
  132SOL    HW1  526   2.745   0.074   1.152 -1.0433  0.5604 -1.6756
  132SOL    HW2  527   2.658   0.062   1.259 -2.1353 -0.4231 -0.7203
  132SOL     MW  528   2.737   0.081   1.235 -0.6028  0.0529 -0.2596
  133SOL     OW  529   1.027   0.121   1.675 -0.0942 -0.4345  0.5490
  133SOL    HW1  530   1.098   0.055   1.677 -0.0810 -0.2916  1.1979
  133SOL    HW2  531   1.037   0.163   1.758 -0.6253 -0.8586  1.1493
  133SOL     MW  532   1.038   0.118   1.686 -0.1625 -0.4716  0.7138
  134SOL     OW  533   1.404   2.475   1.454 -0.4763  0.4390 -0.2900
  134SOL    HW1  534   1.367   2.560   1.428 -0.5943  3.0539 -0.2117
  134SOL    HW2  535   1.439   2.498   1.538  0.8552 -2.5325 -3.9618
  134SOL     MW  536   1.404   2.490   1.462 -0.3162  0.3919 -0.7641
  135SOL     OW  537   3.023   0.981   2.960  0.0578  0.0955  0.0348
  135SOL    HW1  538   3.121   1.001   2.963  0.7460 -0.1588 -1.0414
  135SOL    HW2  539   2.978   1.069   2.947 -1.4441 -0.6829 -0.3574
  135SOL     MW  540   3.030   0.995   2.958 -0.0496 -0.0407 -0.1590
  136SOL     OW  541   0.187   1.975   0.874 -0.8376  0.3299  0.3787
  136SOL    HW1  542   0.112   1.924   0.851  2.1485 -0.7626 -0.3151
  136SOL    HW2  543   0.255   1.943   0.811 -1.4352  0.2125 -0.1531
  136SOL     MW  544   0.186   1.964   0.863 -0.5225  0.1703  0.2170
  137SOL     OW  545   0.747   2.074   0.590 -0.4932 -0.1469  0.3520
  137SOL    HW1  546   0.778   2.088   0.682  0.5511  1.0920  1.6019
  137SOL    HW2  547   0.650   2.075   0.599  0.5373 -2.2148  0.0400
  137SOL     MW  548   0.738   2.076   0.603 -0.2195 -0.2563  0.4758
  138SOL     OW  549   0.466   0.579   1.165 -0.1806  0.1032 -1.0037
  138SOL    HW1  550   0.380   0.551   1.159  0.8067  1.3942 -1.4354
  138SOL    HW2  551   0.514   0.524   1.101 -0.3375  0.5018  1.0191
  138SOL     MW  552   0.461   0.568   1.156 -0.0711  0.3261 -0.7938
  139SOL     OW  553   2.844   0.534   1.361 -0.0444  0.0238  0.4204
  139SOL    HW1  554   2.923   0.477   1.345  0.3944  1.1366 -0.9291
  139SOL    HW2  555   2.870   0.587   1.438  0.8343  0.6768 -1.8219
  139SOL     MW  556   2.858   0.534   1.369  0.1295  0.2568 -0.0535
  140SOL     OW  557   0.874   0.459   1.952  0.2222  0.3901 -0.7265
  140SOL    HW1  558   0.958   0.409   1.944  1.4674  2.4416  1.5496
  140SOL    HW2  559   0.871   0.476   2.044 -2.8247 -1.8631  0.5098
  140SOL     MW  560   0.884   0.454   1.963 -0.0155  0.3635 -0.2631
  141SOL     OW  561   1.062   0.619   1.658  0.3926  0.1663  0.4252
  141SOL    HW1  562   1.079   0.527   1.632  2.5239 -0.0020  1.8120
  141SOL    HW2  563   1.124   0.672   1.619  2.2365 -0.7611  1.5453
  141SOL     MW  564   1.072   0.614   1.649  0.9171  0.0217  0.7560
  142SOL     OW  565   0.865   1.209   0.743  0.1654  0.2823 -0.3800
  142SOL    HW1  566   0.884   1.147   0.670 -2.9084 -0.7216  1.2429
  142SOL    HW2  567   0.944   1.260   0.767 -0.3387  0.7931  1.5366
  142SOL     MW  568   0.878   1.208   0.737 -0.3067  0.2172  0.0870
  143SOL     OW  569   1.828   0.732   1.030  0.2372 -0.0628  0.0661
  143SOL    HW1  570   1.867   0.719   0.946 -2.0690 -0.2488 -1.4974
  143SOL    HW2  571   1.735   0.713   1.026  0.3093  0.2544 -1.3189
  143SOL     MW  572   1.821   0.728   1.018 -0.0575 -0.0455 -0.3229
  144SOL     OW  573   0.250   1.317   1.727 -0.6276 -0.1041  0.0592
  144SOL    HW1  574   0.314   1.394   1.721  1.2023 -2.0586 -1.0980
  144SOL    HW2  575   0.307   1.269   1.785 -1.5005  0.7903 -1.9303
  144SOL     MW  576   0.266   1.321   1.734 -0.5013 -0.2440 -0.3559
  145SOL     OW  577   0.206   0.488   1.222  0.8517  0.2879 -0.7621
  145SOL    HW1  578   0.234   0.395   1.235 -0.4990  0.1163  1.4046
  145SOL    HW2  579   0.152   0.491   1.142  0.8107 -2.9155 -4.6502
  145SOL     MW  580   0.203   0.476   1.213  0.6681 -0.1574 -0.9893
  146SOL     OW  581   0.777   1.935   1.495 -0.2226  0.3490  0.7655
  146SOL    HW1  582   0.800   1.972   1.404 -1.2714  0.3564 -0.4682
  146SOL    HW2  583   0.743   1.843   1.476 -1.0628  0.8827  0.4935
  146SOL     MW  584   0.776   1.928   1.481 -0.4718  0.4203  0.5668
  147SOL     OW  585   0.474   0.499   2.924  0.2630  0.0400  0.5992
  147SOL    HW1  586   0.404   0.463   2.981 -1.9764 -0.1824 -1.1951
  147SOL    HW2  587   0.423   0.564   2.877  0.9291 -0.0096  1.3984
  147SOL     MW  588   0.458   0.503   2.926  0.0555  0.0041  0.4679
  148SOL     OW  589   0.058   0.920   1.369 -0.4313 -0.0641  0.4208
  148SOL    HW1  590   0.146   0.959   1.352  1.7541  0.3754  0.7722
  148SOL    HW2  591   0.003   0.996   1.365 -0.3450 -0.9574 -0.1459
  148SOL     MW  592   0.062   0.935   1.366 -0.1316 -0.1240  0.3924
  149SOL     OW  593   1.604   1.183   1.380 -0.5288  0.1168  0.3133
  149SOL    HW1  594   1.546   1.160   1.456  0.9127  3.4524 -3.0097
  149SOL    HW2  595   1.581   1.275   1.366 -0.4594 -0.2888 -1.2038
  149SOL     MW  596   1.593   1.192   1.388 -0.3295  0.5034 -0.3253
  150SOL     OW  597   1.731   1.468   0.870  0.2062 -0.1344 -0.8048
  150SOL    HW1  598   1.794   1.397   0.873 -0.5971 -1.3781 -0.2411
  150SOL    HW2  599   1.780   1.549   0.848 -2.7066  3.1544  1.4462
  150SOL     MW  600   1.746   1.469   0.867 -0.2841  0.1354 -0.4334
  151SOL     OW  601   1.638   1.884   0.828 -0.6347 -0.0543 -0.0752
  151SOL    HW1  602   1.598   1.867   0.740  0.5483  0.7769  0.9036
  151SOL    HW2  603   1.584   1.841   0.895 -0.3713 -0.5962  0.2965
  151SOL     MW  604   1.626   1.876   0.825 -0.4438 -0.0161  0.1030
  152SOL     OW  605   0.647   1.423   1.559  0.1807 -0.1111  0.0275
  152SOL    HW1  606   0.710   1.445   1.494  1.7054  1.6307 -0.9294
  152SOL    HW2  607   0.621   1.326   1.566 -2.4163 -0.0526 -0.1615
  152SOL     MW  608   0.652   1.413   1.551  0.0392  0.1264 -0.1237
  153SOL     OW  609   2.582   1.215   0.716 -0.1998  0.2319 -0.0764
  153SOL    HW1  610   2.659   1.175   0.680  0.6377  2.8193  1.7988
  153SOL    HW2  611   2.534   1.138   0.760 -2.9558 -0.1138  2.6015
  153SOL     MW  612   2.586   1.200   0.717 -0.4530  0.5277  0.5243
  154SOL     OW  613   0.117   1.783   1.781 -0.3716 -0.1444 -0.2934
  154SOL    HW1  614   0.093   1.687   1.767  3.7961  2.1297 -0.2575
  154SOL    HW2  615   0.209   1.778   1.806  0.4951  0.3232  1.8175
  154SOL     MW  616   0.126   1.770   1.783  0.2926  0.2173 -0.0102
  155SOL     OW  617   1.223   0.703   0.288 -0.0736 -0.3128  0.6706
  155SOL    HW1  618   1.199   0.666   0.369  0.1531  1.4956 -2.6640
  155SOL    HW2  619   1.207   0.800   0.297  0.2921  1.9048  2.1370
  155SOL     MW  620   1.218   0.711   0.300  0.0045  0.2184  0.4241
  156SOL     OW  621   1.556   0.008   1.080  0.2516 -0.0538 -0.2300
  156SOL    HW1  622   1.613   0.033   1.148 -0.2585 -2.3990 -2.4775
  156SOL    HW2  623   1.579  -0.082   1.059  0.7390  0.0031 -0.2962
  156SOL     MW  624   1.567  -0.000   1.086  0.2486 -0.3557 -0.5352
  157SOL     OW  625   1.323   1.134   0.192 -0.1974 -0.3882  0.5218
  157SOL    HW1  626   1.350   1.051   0.234 -0.9563  0.4451 -1.3631
  157SOL    HW2  627   1.394   1.195   0.190  1.7685  0.1415 -0.9745
  157SOL     MW  628   1.336   1.131   0.198 -0.0382 -0.2084  0.0757
  158SOL     OW  629   0.393   1.663   2.231 -0.7192 -0.4299  0.3328
  158SOL    HW1  630   0.440   1.731   2.182 -1.2878 -0.9316 -1.8377
  158SOL    HW2  631   0.329   1.624   2.168  0.9411 -2.4891 -0.4865
  158SOL     MW  632   0.391   1.667   2.216 -0.5752 -0.7678 -0.0617
  159SOL     OW  633   1.197   1.655   0.542 -0.2131  1.0218 -0.3205
  159SOL    HW1  634   1.140   1.618   0.473  0.6557 -0.4629  0.6577
  159SOL    HW2  635   1.134   1.693   0.608 -0.7705 -0.3770 -0.3685
  159SOL     MW  636   1.181   1.655   0.541 -0.1720  0.6414 -0.1978
  160SOL     OW  637   0.510   1.150   1.522 -0.2402 -1.1517  0.4774
  160SOL    HW1  638   0.460   1.085   1.574  0.5763  1.3365 -0.2841
  160SOL    HW2  639   0.596   1.106   1.516  1.3814  0.8725 -3.4617
  160SOL     MW  640   0.514   1.136   1.528  0.0815 -0.5563 -0.1428
  161SOL     OW  641   0.452   2.256   2.687  0.3016  0.8417 -0.0459
  161SOL    HW1  642   0.374   2.295   2.635  1.0466 -1.6105 -0.9083
  161SOL    HW2  643   0.475   2.177   2.639  1.0872  0.0876  2.1681
  161SOL     MW  644   0.445   2.251   2.674  0.5036  0.4187  0.1325
  162SOL     OW  645   1.089   1.816   1.787  0.3074  0.2759  0.2432
  162SOL    HW1  646   1.090   1.887   1.855  0.8066 -0.0511 -2.1363
  162SOL    HW2  647   1.026   1.757   1.824  3.3728 -3.2317  0.5131
  162SOL     MW  648   1.081   1.817   1.801  0.7777 -0.2301 -0.0352
  163SOL     OW  649   2.123   3.090   0.838  0.1740 -0.3052 -0.4174
  163SOL    HW1  650   2.121   3.148   0.764  1.7736  1.6690 -0.7566
  163SOL    HW2  651   2.102   2.997   0.807 -0.1720  0.5558  0.4800
  163SOL     MW  652   2.120   3.085   0.825  0.3394  0.0688 -0.3438
  164SOL     OW  653   0.283   0.234   0.847  0.1002 -0.2433  0.7683
  164SOL    HW1  654   0.190   0.224   0.878  1.2962 -1.1536  1.4486
  164SOL    HW2  655   0.293   0.154   0.796 -0.4809 -0.8587  1.7727
  164SOL     MW  656   0.272   0.222   0.844  0.1814 -0.4446  0.9906
  165SOL     OW  657   1.192   1.318   0.400 -0.6337 -0.0602 -0.1728
  165SOL    HW1  658   1.243   1.294   0.488  2.4825  1.4265  1.9492
  165SOL    HW2  659   1.195   1.235   0.360 -0.4019  1.5869  1.3221
  165SOL     MW  660   1.199   1.304   0.407 -0.1919  0.3533  0.3044
  166SOL     OW  661   0.434   1.165   1.050 -0.7717 -0.0507  0.0455
  166SOL    HW1  662   0.447   1.210   1.134 -2.5236 -0.6884 -0.9264
  166SOL    HW2  663   0.528   1.145   1.018 -0.3406 -1.8369 -4.3139
  166SOL     MW  664   0.448   1.168   1.057 -0.9460 -0.3705 -0.6579
  167SOL     OW  665   0.823   1.167   0.344  0.5245 -0.1760  0.7961
  167SOL    HW1  666   0.802   1.256   0.317  1.6062  1.6179 -1.7184
  167SOL    HW2  667   0.854   1.112   0.270  0.5633 -1.7062  0.8071
  167SOL     MW  668   0.824   1.172   0.331  0.6723 -0.1412  0.4658
  168SOL     OW  669   1.705   1.643   3.042 -0.0206  0.5735  0.0038
  168SOL    HW1  670   1.624   1.694   3.020 -1.0355 -1.2450  0.6817
  168SOL    HW2  671   1.700   1.557   2.994  2.0341  0.2815 -0.1025
  168SOL     MW  672   1.694   1.638   3.033  0.1166  0.2950  0.0792
  169SOL     OW  673   0.335   0.977   1.317 -0.2114 -0.2129  0.3059
  169SOL    HW1  674   0.338   0.952   1.406 -0.4063 -2.5059  0.2857
  169SOL    HW2  675   0.367   1.064   1.319 -1.4455  0.1390  1.6059
  169SOL     MW  676   0.340   0.985   1.329 -0.4000 -0.4690  0.4747
  170SOL     OW  677   1.133   1.505   1.470  0.2787  0.0129  0.2014
  170SOL    HW1  678   1.111   1.585   1.521 -0.9975 -1.0853 -1.4208
  170SOL    HW2  679   1.092   1.532   1.389 -2.2575 -0.1433  0.5056
  170SOL     MW  680   1.125   1.519   1.466 -0.2243 -0.1526  0.0275
  171SOL     OW  681   0.515   1.445   0.573 -0.0921  0.2164 -0.2019
  171SOL    HW1  682   0.435   1.489   0.531 -4.7103 -0.1264 -0.8844
  171SOL    HW2  683   0.532   1.376   0.496  0.5203 -0.9803 -1.8186
  171SOL     MW  684   0.507   1.442   0.557 -0.6206  0.0133 -0.5052
  172SOL     OW  685   0.751   0.301   1.291 -0.1171  0.1871  0.5152
  172SOL    HW1  686   0.748   0.254   1.211  0.0259  0.3719  1.9531
  172SOL    HW2  687   0.785   0.241   1.366 -2.1471 -1.4032  3.6308
  172SOL     MW  688   0.755   0.287   1.291 -0.3661  0.0017  1.1160
  173SOL     OW  689   0.545   1.719   0.340 -0.7022  0.5629  0.2302
  173SOL    HW1  690   0.548   1.637   0.297 -1.4698  4.2019  2.1432
  173SOL    HW2  691   0.613   1.718   0.404 -2.0249  2.4557  0.3923
  173SOL     MW  692   0.554   1.708   0.343 -0.9780  1.2928  0.5040
  174SOL     OW  693   1.903   0.927   1.476 -0.4738  0.5919 -0.5119
  174SOL    HW1  694   1.833   0.871   1.503 -1.9078  3.5977 -2.4337
  174SOL    HW2  695   1.907   0.919   1.381  0.3258  0.1964  1.1146
  174SOL     MW  696   1.895   0.919   1.467 -0.5575  0.9363 -0.5509
  175SOL     OW  697   0.569   1.473   0.188  0.0040 -0.4789  0.1766
  175SOL    HW1  698   0.554   1.381   0.199  0.0639 -0.3069 -0.7964
  175SOL    HW2  699   0.657   1.480   0.218  0.3024  1.2711  3.3939
  175SOL     MW  700   0.579   1.462   0.193  0.0513 -0.2253  0.4727
  176SOL     OW  701   0.086   1.518   1.180 -0.2228  0.1069 -0.1532
  176SOL    HW1  702   0.108   1.440   1.122  1.4906 -1.6335  0.8405
  176SOL    HW2  703   0.023   1.488   1.245 -3.1314  0.1543 -0.1197
  176SOL     MW  704   0.081   1.504   1.181 -0.3805 -0.1165 -0.0177
  177SOL     OW  705   0.507   0.280   1.421 -0.1009 -0.7052 -0.5211
  177SOL    HW1  706   0.567   0.297   1.344  0.9089  3.3238  1.7623
  177SOL    HW2  707   0.496   0.370   1.467  0.0125 -0.7702 -0.6705
  177SOL     MW  708   0.513   0.294   1.417  0.0473 -0.1822 -0.2395
  178SOL     OW  709   3.064   0.531   3.014  0.5192  0.6248 -0.4846
  178SOL    HW1  710   2.965   0.565   3.011 -2.5890 -2.1957 -0.7754
  178SOL    HW2  711   3.083   0.495   2.929 -2.0161 -0.0791  2.5525
  178SOL     MW  712   3.054   0.531   3.002 -0.2254  0.1598 -0.1223
  179SOL     OW  713   1.555   1.478   1.395 -0.0493  0.3356 -0.5807
  179SOL    HW1  714   1.586   1.465   1.490  1.3384 -1.1425  0.3307
  179SOL    HW2  715   1.631   1.472   1.331 -1.0121 -0.3104  0.7128
  179SOL     MW  716   1.569   1.476   1.399  0.0068  0.0554 -0.2898
  180SOL     OW  717   0.014   0.248   0.419  0.3762 -0.6350  0.1833
  180SOL    HW1  718  -0.064   0.267   0.370 -2.5643 -1.0597 -1.3237
  180SOL    HW2  719   0.073   0.327   0.422  0.7167  1.6142  0.4129
  180SOL     MW  720   0.012   0.261   0.413  0.0332 -0.3943  0.0147
  181SOL     OW  721   1.079   1.336   0.005  0.4896  0.2443  0.3052
  181SOL    HW1  722   1.155   1.393   0.032  2.5644 -1.3631 -1.7943
  181SOL    HW2  723   1.129   1.259  -0.029  0.7208  4.2676 -0.4442
  181SOL     MW  724   1.096   1.333   0.004  0.7938  0.5630 -0.0707
  182SOL     OW  725   0.375   0.918   1.593 -0.3364 -0.5578 -0.6439
  182SOL    HW1  726   0.297   0.928   1.642  0.6358  1.7787  0.4769
  182SOL    HW2  727   0.416   0.834   1.614  2.1583  2.5525 -0.3554
  182SOL     MW  728   0.370   0.908   1.602  0.1210  0.1609 -0.4580
  183SOL     OW  729   1.577   1.759   1.272  0.3795 -0.1304 -0.2047
  183SOL    HW1  730   1.664   1.783   1.299 -1.9643 -0.1163 -1.0966
  183SOL    HW2  731   1.554   1.688   1.335 -1.2932 -2.2557 -0.3595
  183SOL     MW  732   1.585   1.753   1.284 -0.1504 -0.4089 -0.3428
  184SOL     OW  733   0.822   0.650   1.773  0.1193 -1.1876  0.1565
  184SOL    HW1  734   0.911   0.646   1.727  0.0367  0.6152 -1.9990
  184SOL    HW2  735   0.817   0.564   1.816  1.9825 -0.8611 -0.6665
  184SOL     MW  736   0.833   0.638   1.773  0.3542 -0.9067 -0.2365
  185SOL     OW  737   1.137   0.960   1.874  0.0305  0.0336 -0.4324
  185SOL    HW1  738   1.120   0.878   1.927 -1.2836 -2.6754 -0.5347
  185SOL    HW2  739   1.162   1.032   1.939 -1.4425  2.2431 -0.0855
  185SOL     MW  740   1.138   0.959   1.890 -0.3372 -0.0323 -0.4001
  186SOL     OW  741   0.263   1.609   1.520  0.0736 -0.3850 -0.1284
  186SOL    HW1  742   0.272   1.595   1.423 -0.3962  1.2895 -1.4541
  186SOL    HW2  743   0.171   1.591   1.554 -0.3761 -1.4244  0.3235
  186SOL     MW  744   0.252   1.605   1.512 -0.0477 -0.3012 -0.2437
  187SOL     OW  745   1.385   0.786   1.369  0.2693  0.2599 -0.7050
  187SOL    HW1  746   1.359   0.822   1.452 -0.6424 -0.0985 -2.1926
  187SOL    HW2  747   1.298   0.778   1.331  0.5007  0.4139  1.2927
  187SOL     MW  748   1.370   0.790   1.375  0.1795  0.2329 -0.6377
  188SOL     OW  749   1.883   1.232   0.916 -0.6615 -0.0541  0.6150
  188SOL    HW1  750   1.888   1.215   1.014  0.2552 -1.7534  1.9284
  188SOL    HW2  751   1.909   1.155   0.868 -0.4791 -0.4152 -0.7391
  188SOL     MW  752   1.887   1.220   0.922 -0.5165 -0.3259  0.6097
  189SOL     OW  753   0.701   0.704   0.888 -0.0482  0.2431  0.1617
  189SOL    HW1  754   0.626   0.753   0.872  0.3487 -0.5862 -0.2740
  189SOL    HW2  755   0.743   0.759   0.953  2.8300 -2.2050  0.4958
  189SOL     MW  756   0.697   0.718   0.895  0.3839 -0.1893  0.1483
  190SOL     OW  757   1.868   0.283   2.053  0.4878 -0.3033 -0.0020
  190SOL    HW1  758   1.852   0.250   2.144  0.4683 -1.0326 -3.6186
  190SOL    HW2  759   1.963   0.311   2.046  3.1138 -0.9001  0.2964
  190SOL     MW  760   1.878   0.283   2.064  0.8317 -0.4783 -0.4398
  191SOL     OW  761   1.563   0.961   1.215 -0.1793  0.3053  0.4141
  191SOL    HW1  762   1.574   1.028   1.283  1.7790 -0.8247 -0.2882
  191SOL    HW2  763   1.492   0.905   1.244  0.1320  1.5672 -0.1877
  191SOL     MW  764   1.555   0.962   1.228  0.1202  0.3227  0.2420
  192SOL     OW  765   0.506   2.177   2.954  0.0072 -0.5261  0.2978
  192SOL    HW1  766   0.477   2.253   2.903  2.5219  1.3994  0.7688
  192SOL    HW2  767   0.515   2.108   2.892  3.5637  0.0536 -0.4092
  192SOL     MW  768   0.503   2.178   2.939  0.8082 -0.1956  0.2667
  193SOL     OW  769   0.835   1.632   0.803  0.5814 -0.3580 -0.1838
  193SOL    HW1  770   0.762   1.623   0.876 -4.3424 -0.0694  2.3023
  193SOL    HW2  771   0.831   1.555   0.739 -2.6584  1.1809  0.6871
  193SOL     MW  772   0.825   1.620   0.804 -0.4957 -0.1169  0.2591
  194SOL     OW  773   0.423   1.350   0.837 -0.0754  0.3497  0.3555
  194SOL    HW1  774   0.420   1.290   0.918 -1.8139 -3.2667  2.3305
  194SOL    HW2  775   0.332   1.358   0.804 -2.1322  0.2900  2.2037
  194SOL     MW  776   0.411   1.343   0.843 -0.5762 -0.1353  0.8599
  195SOL     OW  777   1.216   1.104   3.012 -0.5422  0.4727 -0.1592
  195SOL    HW1  778   1.266   1.079   3.091 -2.8078  0.5021  3.7957
  195SOL    HW2  779   1.148   1.039   3.003 -0.8586 -1.4532  1.5464
  195SOL     MW  780   1.214   1.092   3.021 -0.8829  0.2225  0.5877
  196SOL     OW  781   2.238   1.016   0.516  0.1355  0.4273 -0.4070
  196SOL    HW1  782   2.268   1.023   0.421  0.1518  0.0361 -3.6370
  196SOL    HW2  783   2.233   1.105   0.545 -2.6214 -2.6879  0.8527
  196SOL     MW  784   2.241   1.028   0.507 -0.2261 -0.0354 -0.6670
  197SOL     OW  785   0.612   1.338   2.157  0.0943  0.0632 -0.0960
  197SOL    HW1  786   0.629   1.244   2.139 -1.5659 -0.4609 -0.0114
  197SOL    HW2  787   0.683   1.387   2.121  2.1367 -0.3927  1.5556
  197SOL     MW  788   0.624   1.332   2.150  0.1447 -0.0661  0.1331
  198SOL     OW  789   2.940   1.391   1.015 -0.1284 -0.5298  0.1405
  198SOL    HW1  790   2.913   1.483   0.999  0.3541  1.6780 -0.9519
  198SOL    HW2  791   2.864   1.343   0.989  2.5255  0.1179  1.2046
  198SOL     MW  792   2.927   1.397   1.010  0.2854 -0.1530  0.1368
  199SOL     OW  793   0.657   1.266   1.826  0.2127 -0.2243 -0.1032
  199SOL    HW1  794   0.570   1.250   1.859 -1.4653 -0.0824  0.3547
  199SOL    HW2  795   0.655   1.347   1.783  0.9092  0.4410 -0.5244
  199SOL     MW  796   0.646   1.275   1.825  0.0832 -0.1178 -0.0983
  200SOL     OW  797   1.848   2.960   1.293  0.0808  0.5319  0.2267
  200SOL    HW1  798   1.905   2.981   1.211  0.5372  1.6063 -2.6321
  200SOL    HW2  799   1.800   3.037   1.305  1.6724 -3.9145 -1.6051
  200SOL     MW  800   1.849   2.973   1.284  0.3510  0.0870 -0.3922
  201SOL     OW  801   1.200   0.293   0.818 -0.0183 -0.4371 -0.0901
  201SOL    HW1  802   1.133   0.227   0.817 -1.4936  1.5428  0.2614
  201SOL    HW2  803   1.261   0.259   0.884  1.7508  0.9662 -1.1777
  201SOL     MW  804   1.199   0.280   0.827  0.0205  0.0093 -0.1872
  202SOL     OW  805   1.492   1.729   1.013 -0.3955  0.2287  0.4230
  202SOL    HW1  806   1.487   1.643   0.983  1.4232  3.1887  2.6392
  202SOL    HW2  807   1.515   1.729   1.110 -1.6929 -0.4388  2.5398
  202SOL     MW  808   1.494   1.718   1.022 -0.3267  0.5312  0.9947
  203SOL     OW  809   3.035   0.348   1.306  0.6647  0.4332  0.1609
  203SOL    HW1  810   3.058   0.250   1.309 -0.4565 -2.0797  1.8407
  203SOL    HW2  811   3.119   0.396   1.292  2.6710 -1.8782 -1.4794
  203SOL     MW  812   3.049   0.341   1.305  0.7815 -0.2033  0.1661
  204SOL     OW  813   0.985   1.814   0.666  0.0296  0.2290 -0.2085
  204SOL    HW1  814   0.941   1.779   0.745  2.2712 -1.9394 -1.1356
  204SOL    HW2  815   0.913   1.826   0.603 -3.0917  1.6946  1.1106
  204SOL     MW  816   0.970   1.811   0.668 -0.0865  0.1363 -0.1568
  205SOL     OW  817   1.421   3.037   1.326 -0.2681  0.0488 -0.1784
  205SOL    HW1  818   1.460   3.061   1.242 -0.5618  1.1852  0.4905
  205SOL    HW2  819   1.349   3.099   1.345 -0.5364 -0.6375  2.1921
  205SOL     MW  820   1.417   3.048   1.318 -0.3423  0.1082  0.2226
  206SOL     OW  821   0.378   2.924   1.333 -0.3117 -0.1038  0.1171
  206SOL    HW1  822   0.352   2.955   1.246 -0.2903 -1.4604 -1.3860
  206SOL    HW2  823   0.464   2.965   1.351 -0.9286  3.1352 -0.7732
  206SOL     MW  824   0.386   2.934   1.324 -0.3903  0.1446 -0.1987
  207SOL     OW  825   0.892   1.741   0.230 -0.0598  0.0766  0.2021
  207SOL    HW1  826   0.957   1.779   0.176 -0.5399 -1.8273 -1.4900
  207SOL    HW2  827   0.923   1.650   0.244  3.4535 -0.7384 -2.1370
  207SOL     MW  828   0.905   1.734   0.225  0.3404 -0.2822 -0.3298
  208SOL     OW  829   0.782   1.554   1.330  0.0110 -0.2863 -0.3928
  208SOL    HW1  830   0.863   1.578   1.293  1.3673  1.5308  1.4510
  208SOL    HW2  831   0.717   1.542   1.257 -2.5625 -1.9318  0.8284
  208SOL     MW  832   0.784   1.556   1.315 -0.1496 -0.2637  0.0116
  209SOL     OW  833   1.605   0.488   2.835  0.2107 -0.5934 -0.1676
  209SOL    HW1  834   1.648   0.563   2.877  0.7348  1.7992 -1.8196
  209SOL    HW2  835   1.681   0.434   2.812 -1.8048 -0.7657 -1.1061
  209SOL     MW  836   1.620   0.491   2.838  0.0139 -0.3005 -0.5094
  210SOL     OW  837   1.471   1.436   0.953  0.4035 -0.5758  0.8248
  210SOL    HW1  838   1.561   1.461   0.931 -0.0640  1.9076 -0.0466
  210SOL    HW2  839   1.421   1.451   0.870  0.7066 -2.0696 -0.5169
  210SOL     MW  840   1.476   1.441   0.940  0.3818 -0.4452  0.5328
  211SOL     OW  841   1.740   0.436   0.900  0.0907  0.6205  0.0998
  211SOL    HW1  842   1.732   0.471   0.804 -0.3448  2.7821  0.2407
  211SOL    HW2  843   1.825   0.475   0.926  3.0526  0.6149 -1.5776
  211SOL     MW  844   1.750   0.446   0.891  0.4241  0.9049 -0.1029
  212SOL     OW  845   0.369   1.158   0.224 -0.1851  0.5270 -0.3745
  212SOL    HW1  846   0.306   1.096   0.259  1.0973  0.2277 -1.2505
  212SOL    HW2  847   0.422   1.122   0.157 -0.6473 -0.1600  0.2596
  212SOL     MW  848   0.368   1.145   0.219 -0.0769  0.3968 -0.4064
  213SOL     OW  849   0.368   1.846   3.008  0.0346 -0.5496  0.2021
  213SOL    HW1  850   0.417   1.902   3.075  1.0114  1.8489  0.9554
  213SOL    HW2  851   0.412   1.877   2.924  2.8522 -0.1739 -1.4257
  213SOL     MW  852   0.381   1.857   3.006  0.5352 -0.1836  0.0867
  214SOL     OW  853   0.607   0.352   2.114  0.3397  0.0145 -0.1930
  214SOL    HW1  854   0.520   0.390   2.094  3.5381 -0.6549  0.8188
  214SOL    HW2  855   0.653   0.380   2.038 -3.3846  1.1094 -0.4035
  214SOL     MW  856   0.602   0.361   2.101  0.2703  0.0706 -0.0873
  215SOL     OW  857   0.505   0.532   2.514  0.8225 -0.4355  0.1819
  215SOL    HW1  858   0.479   0.585   2.439 -1.0136  2.0830 -0.9852
  215SOL    HW2  859   0.446   0.457   2.527 -1.7090  1.3915  2.7951
  215SOL     MW  860   0.494   0.529   2.506  0.2463  0.1378  0.3727
  216SOL     OW  861   2.885   3.084   2.761 -0.0689  0.4118  0.6433
  216SOL    HW1  862   2.840   3.129   2.833 -2.1346  0.0289  0.3451
  216SOL    HW2  863   2.929   3.162   2.719 -0.6054 -3.0930  0.3395
  216SOL     MW  864   2.885   3.100   2.765 -0.4123 -0.1012  0.5639
  217SOL     OW  865   0.999   1.082   0.126 -0.5485  0.1467 -0.3219
  217SOL    HW1  866   1.022   1.019   0.059 -0.4544 -0.3649 -0.5059
  217SOL    HW2  867   1.034   1.172   0.119 -2.0222 -2.3314 -0.9341
  217SOL     MW  868   1.007   1.086   0.116 -0.7305 -0.2478 -0.4269
  218SOL     OW  869   0.855   1.348   2.616 -0.0787  0.4185 -0.4449
  218SOL    HW1  870   0.834   1.286   2.688 -1.4111  0.3319 -2.6214
  218SOL    HW2  871   0.944   1.377   2.638 -1.3207  2.1447 -1.4644
  218SOL     MW  872   0.864   1.344   2.629 -0.4183  0.6348 -0.8666
  219SOL     OW  873   1.054   0.454   2.603 -0.0221  0.0226 -0.1797
  219SOL    HW1  874   1.117   0.524   2.624  0.8528  1.2065  0.5822
  219SOL    HW2  875   0.975   0.504   2.569  1.0491 -0.6581  0.7744
  219SOL     MW  876   1.052   0.470   2.601  0.2347  0.0890  0.0467
  220SOL     OW  877   1.720   0.494   2.201 -0.1873  0.5682  0.0897
  220SOL    HW1  878   1.646   0.534   2.150 -1.5242 -0.9320  1.5538
  220SOL    HW2  879   1.758   0.423   2.148 -0.8886 -1.8167  1.0266
  220SOL     MW  880   1.715   0.490   2.187 -0.4562  0.0556  0.4065
  221SOL     OW  881   0.390   1.378   2.936 -0.1281  0.0648 -0.4877
  221SOL    HW1  882   0.454   1.309   2.923  0.8401  1.4381 -0.9687
  221SOL    HW2  883   0.442   1.458   2.913  4.6273  1.3290  1.6338
  221SOL     MW  884   0.405   1.379   2.932  0.6271  0.4128 -0.2713
  222SOL     OW  885   0.517   0.936   2.717  0.0870  0.1251  0.0354
  222SOL    HW1  886   0.434   0.903   2.682  1.7422 -2.2875 -0.0452
  222SOL    HW2  887   0.565   0.857   2.743  0.7597 -2.0769  0.2860
  222SOL     MW  888   0.513   0.921   2.716  0.3941 -0.4837  0.0579
  223SOL     OW  889   3.092   2.039   2.541  0.0043  0.3687  0.3016
  223SOL    HW1  890   3.097   2.022   2.635 -1.0182 -0.0623  1.5294
  223SOL    HW2  891   3.134   2.124   2.518  0.7422 -2.1686 -1.4313
  223SOL     MW  892   3.098   2.048   2.550 -0.0332 -0.0229  0.2349
  224SOL     OW  893   1.458   0.700   2.443  0.2023  0.0476  0.1495
  224SOL    HW1  894   1.534   0.649   2.451 -0.6123 -0.0085 -0.9037
  224SOL    HW2  895   1.460   0.791   2.479 -1.2864 -0.2885  1.0387
  224SOL     MW  896   1.468   0.705   2.449 -0.1016 -0.0041  0.1278
  225SOL     OW  897   2.957   1.483   2.262  0.2973  0.1960 -0.3956
  225SOL    HW1  898   2.981   1.561   2.209 -2.4968  1.7228 -2.3012
  225SOL    HW2  899   2.878   1.514   2.305  0.0245  1.5447 -2.5595
  225SOL     MW  900   2.950   1.498   2.261 -0.1074  0.5754 -0.9326
  226SOL     OW  901   0.428   1.539   2.677 -0.0857  0.2127 -0.1258
  226SOL    HW1  902   0.522   1.564   2.672  0.5604 -1.3519  4.0485
  226SOL    HW2  903   0.369   1.621   2.690  1.0700  2.2889  2.2688
  226SOL     MW  904   0.433   1.553   2.678  0.1520  0.2802  0.7409
  227SOL     OW  905   0.540   1.126   2.919 -0.6432  0.3819  0.5170
  227SOL    HW1  906   0.618   1.164   2.874 -2.2103 -1.3873  0.7063
  227SOL    HW2  907   0.521   1.048   2.858 -0.7094  0.3092  2.9371
  227SOL     MW  908   0.548   1.121   2.905 -0.8587  0.1389  0.8613
  228SOL     OW  909   0.742   1.117   2.058  0.1407 -0.2637 -0.2938
  228SOL    HW1  910   0.721   1.158   1.973  1.7247 -1.8592  1.1253
  228SOL    HW2  911   0.830   1.147   2.084  0.0620 -3.3308  1.4009
  228SOL     MW  912   0.751   1.126   2.050  0.3393 -0.8789  0.1170
  229SOL     OW  913   0.210   0.564   3.098 -0.6926  0.1749  0.2493
  229SOL    HW1  914   0.121   0.549   3.064  2.7885 -0.5958  1.6074
  229SOL    HW2  915   0.234   0.489   3.158 -0.3375 -0.3542  0.0326
  229SOL     MW  916   0.201   0.552   3.101 -0.1865  0.0034  0.3999
  230SOL     OW  917   1.752   1.369   2.042 -1.1032  0.4651  0.1702
  230SOL    HW1  918   1.721   1.323   2.116  0.0253  0.4407 -0.2894
  230SOL    HW2  919   1.760   1.295   1.980  3.0280 -1.3355  3.4869
  230SOL     MW  920   1.749   1.353   2.043 -0.4092  0.2243  0.5472
  231SOL     OW  921   2.728   1.247   2.241  0.2527  0.5877 -0.0615
  231SOL    HW1  922   2.770   1.327   2.273  2.8354  2.1174 -0.1614
  231SOL    HW2  923   2.672   1.263   2.167 -0.6962 -2.9171 -2.9586
  231SOL     MW  924   2.726   1.259   2.236  0.4683  0.3271 -0.4570
  232SOL     OW  925   2.294   0.887   1.929 -0.2452  0.4914  0.2290
  232SOL    HW1  926   2.213   0.885   1.889  2.3717  0.6639 -2.2264
  232SOL    HW2  927   2.271   0.838   2.008 -0.7303 -1.8000  0.9619
  232SOL     MW  928   2.281   0.880   1.935  0.0360  0.2118  0.0017
  233SOL     OW  929   2.106   0.426   2.061 -0.6069  0.0698 -0.6755
  233SOL    HW1  930   2.163   0.346   2.043  2.2041 -3.9615 -1.6484
  233SOL    HW2  931   2.126   0.459   2.154 -0.9037 -0.4695 -0.1661
  233SOL     MW  932   2.116   0.419   2.071 -0.2752 -0.5333 -0.7366
  234SOL     OW  933   0.236   1.064   2.662  0.2114  0.2059  0.1872
  234SOL    HW1  934   0.167   1.071   2.594 -0.4324 -3.1002  2.3021
  234SOL    HW2  935   0.281   1.152   2.651  0.4925 -0.9232  0.1642
  234SOL     MW  936   0.233   1.077   2.652  0.1636 -0.3793  0.4632
  235SOL     OW  937   1.148   3.053   2.818 -0.5714  0.7620  0.6699
  235SOL    HW1  938   1.191   3.042   2.905  1.6431  0.1340 -0.4492
  235SOL    HW2  939   1.133   3.151   2.805  3.3897  1.3405 -1.7989
  235SOL     MW  940   1.152   3.064   2.828  0.2434  0.7555  0.1965
  236SOL     OW  941   2.972   0.607   0.219  0.3846 -0.4234  0.1278
  236SOL    HW1  942   2.980   0.655   0.303  1.7480 -0.2009  0.7885
  236SOL    HW2  943   3.043   0.653   0.179  1.9745  1.3703  2.0153
  236SOL     MW  944   2.982   0.619   0.225  0.7742 -0.1574  0.4640
  237SOL     OW  945   1.902   1.078   2.147 -0.2642 -0.7699 -0.7328
  237SOL    HW1  946   1.806   1.104   2.155 -0.3376 -0.8133  2.8151
  237SOL    HW2  947   1.914   1.054   2.061 -1.5646 -1.4246  1.4544
  237SOL     MW  948   1.891   1.078   2.137 -0.4455 -0.8620  0.0239
  238SOL     OW  949   1.075   1.726   2.938  0.2024 -0.3076  0.0919
  238SOL    HW1  950   0.984   1.705   2.934  1.7555  3.3220 -0.2662
  238SOL    HW2  951   1.129   1.648   2.925  0.1932 -0.2073  0.1280
  238SOL     MW  952   1.070   1.713   2.936  0.4061  0.1846  0.0494
  239SOL     OW  953   1.199   1.316   2.354 -0.2472  0.1471  0.2226
  239SOL    HW1  954   1.127   1.287   2.303  1.5912  1.3745 -1.1282
  239SOL    HW2  955   1.185   1.261   2.430  1.7915  1.1847 -1.4092
  239SOL     MW  956   1.187   1.305   2.357  0.2644  0.4459 -0.1709
  240SOL     OW  957   0.572   0.880   2.281 -0.0710  0.0348 -0.1181
  240SOL    HW1  958   0.609   0.914   2.365  1.7274  0.6217  2.7886
  240SOL    HW2  959   0.649   0.869   2.229  1.0641  0.8728 -2.3083
  240SOL     MW  960   0.587   0.883   2.285  0.3161  0.2228 -0.0235
  241SOL     OW  961   0.687   0.434   3.097  0.1970 -0.0129 -0.0964
  241SOL    HW1  962   0.717   0.507   3.152 -0.0345 -0.8999  1.5316
  241SOL    HW2  963   0.618   0.467   3.032  1.4452 -0.9243  1.2445
  241SOL     MW  964   0.682   0.448   3.096  0.3312 -0.2502  0.2953
  242SOL     OW  965   1.498   1.657   2.304  0.6364 -0.5476 -0.0751
  242SOL    HW1  966   1.446   1.735   2.314 -2.1491  0.6029  0.3223
  242SOL    HW2  967   1.446   1.596   2.253 -0.1740 -1.6206  3.0525
  242SOL     MW  968   1.484   1.659   2.299  0.1620 -0.5374  0.3900
  243SOL     OW  969   1.021   0.332   2.364 -0.1982 -0.6329  0.0528
  243SOL    HW1  970   1.099   0.272   2.361 -0.3000  0.8932  2.3920
  243SOL    HW2  971   1.048   0.385   2.441  2.5138  0.3920  0.2641
  243SOL     MW  972   1.035   0.331   2.374  0.1462 -0.2963  0.3893
  244SOL     OW  973   0.115   0.755   2.375 -0.2445  0.5859 -0.3189
  244SOL    HW1  974   0.088   0.840   2.355 -1.8649  0.3346  0.0554
  244SOL    HW2  975   0.209   0.743   2.360 -3.2639  0.5471  0.9440
  244SOL     MW  976   0.124   0.765   2.371 -0.8567  0.5476 -0.1029
  245SOL     OW  977   1.272   0.174   2.405 -0.5899 -0.4756  1.1151
  245SOL    HW1  978   1.367   0.170   2.366  0.4272 -1.7519 -0.4811
  245SOL    HW2  979   1.281   0.131   2.491  0.3849 -2.3684 -2.4061
  245SOL     MW  980   1.285   0.167   2.411 -0.3271 -0.8938  0.4399
  246SOL     OW  981   1.215   1.138   2.085  0.2531  0.5415  0.4338
  246SOL    HW1  982   1.128   1.122   2.134 -1.5984 -0.4116  0.7579
  246SOL    HW2  983   1.280   1.115   2.157  1.6235 -1.9808  1.7303
  246SOL     MW  984   1.212   1.133   2.101  0.1896  0.0830  0.6476
  247SOL     OW  985   0.761   0.670   0.172  0.0691  0.4976  0.6913
  247SOL    HW1  986   0.738   0.760   0.137 -1.2731  0.8133  0.5222
  247SOL    HW2  987   0.853   0.652   0.138  1.3825 -0.8107 -0.3480
  247SOL     MW  988   0.770   0.680   0.163  0.0653  0.3666  0.5319
  248SOL     OW  989   0.304   1.340   2.566  0.2425  0.3607  0.4940
  248SOL    HW1  990   0.327   1.352   2.473  0.0696  0.5522  2.8646
  248SOL    HW2  991   0.340   1.417   2.607  0.0251  0.5390 -0.7838
  248SOL     MW  992   0.312   1.351   2.559  0.1910  0.4095  0.6382
  249SOL     OW  993   3.012   1.941   2.790  0.5220 -0.4770 -0.1879
  249SOL    HW1  994   2.987   1.873   2.728  0.7205 -2.4735  1.2783
  249SOL    HW2  995   3.076   1.899   2.849  2.8332  2.1681 -1.2334
  249SOL     MW  996   3.017   1.926   2.790  0.8531 -0.3915 -0.1324
  250SOL     OW  997   2.231   0.782   2.178  0.4793 -0.1203 -0.4421
  250SOL    HW1  998   2.208   0.692   2.214  0.3977 -3.3256  2.3987
  250SOL    HW2  999   2.273   0.823   2.250 -0.9700 -1.3400 -0.7256
  250SOL     MW 1000   2.233   0.776   2.192  0.2773 -0.7041 -0.1047
  251SOL     OW 1001   0.146   0.887   2.039  0.3761 -0.3389 -0.0492
  251SOL    HW1 1002   0.107   0.807   2.064  1.2270  2.4226 -2.7522
  251SOL    HW2 1003   0.146   0.881   1.942  0.9084  0.9877  1.4639
  251SOL     MW 1004   0.141   0.876   2.029  0.5586  0.2005 -0.2062
  252SOL     OW 1005   1.711   0.990   2.874  0.1343 -0.0743  0.2172
  252SOL    HW1 1006   1.759   1.017   2.951  1.7165  1.2360 -1.6746
  252SOL    HW2 1007   1.767   0.994   2.791  0.2428 -0.3186  1.2937
  252SOL     MW 1008   1.725   0.994   2.873  0.3574  0.0663  0.1096
  253SOL     OW 1009   1.154   1.707   2.498 -0.2842 -0.3302  0.4594
  253SOL    HW1 1010   1.116   1.664   2.417 -0.6297  1.3491 -1.1436
  253SOL    HW2 1011   1.079   1.767   2.526  0.7728 -1.8242 -1.4689
  253SOL     MW 1012   1.139   1.709   2.491 -0.1903 -0.3057 -0.0065
  254SOL     OW 1013   0.972   1.132   2.210  0.2553 -0.3284  0.5239
  254SOL    HW1 1014   0.950   1.040   2.227 -0.9718 -0.1041 -2.2065
  254SOL    HW2 1015   0.906   1.190   2.259  0.0012  3.2275  1.4431
  254SOL     MW 1016   0.961   1.128   2.219  0.0599  0.1703  0.2849
  255SOL     OW 1017   0.842   2.554   2.150  0.3510 -0.1686  0.1805
  255SOL    HW1 1018   0.783   2.478   2.142  2.3288 -1.2482  2.0339
  255SOL    HW2 1019   0.919   2.505   2.171 -5.5801 -2.8389 -0.0736
  255SOL     MW 1020   0.844   2.537   2.152 -0.1706 -0.6634  0.3915
  256SOL     OW 1021   1.296   2.786   3.026  0.1026  0.4462  0.8606
  256SOL    HW1 1022   1.273   2.701   3.065  1.9976 -0.4155  2.3439
  256SOL    HW2 1023   1.363   2.780   2.955  0.2691 -0.1053 -0.9228
  256SOL     MW 1024   1.302   2.774   3.022  0.3746  0.2597  0.8210
  257SOL     OW 1025   0.041   1.893   0.097 -0.3756  0.5737 -0.2634
  257SOL    HW1 1026   0.121   1.852   0.141  2.3429  2.9736 -1.2994
  257SOL    HW2 1027   0.073   1.911   0.012 -1.2671 -1.7176  0.8049
  257SOL     MW 1028   0.056   1.890   0.091 -0.1345  0.5880 -0.2592
  258SOL     OW 1029   0.671   1.008   2.499  0.3167  0.3847  0.2915
  258SOL    HW1 1030   0.652   1.098   2.480 -1.0934  2.3332  1.8370
  258SOL    HW2 1031   0.636   1.000   2.585  0.1000 -2.0534  0.3631
  258SOL     MW 1032   0.664   1.019   2.508  0.1020  0.3201  0.5049
  259SOL     OW 1033   0.809   0.445   2.234 -0.6099  0.2279  0.3658
  259SOL    HW1 1034   0.719   0.402   2.213  0.6261  0.0095 -1.2017
  259SOL    HW2 1035   0.871   0.396   2.288 -0.5048 -0.9745 -0.3729
  259SOL     MW 1036   0.805   0.433   2.238 -0.4329  0.0404  0.0615
  260SOL     OW 1037   0.645   0.128   1.592  0.0478 -0.9666  0.0747
  260SOL    HW1 1038   0.588   0.175   1.534  3.6498  0.8376  2.4016
  260SOL    HW2 1039   0.717   0.097   1.535  0.0334 -3.0312  1.0511
  260SOL     MW 1040   0.647   0.130   1.577  0.5212 -1.0010  0.5106
  261SOL     OW 1041   1.043   0.734   2.006 -0.3835 -0.0127  0.7129
  261SOL    HW1 1042   1.090   0.688   2.070 -2.8863  0.9807 -0.2521
  261SOL    HW2 1043   0.994   0.667   1.959  1.6569 -0.8738  2.4083
  261SOL     MW 1044   1.042   0.719   2.008 -0.4445  0.0047  0.8093
  262SOL     OW 1045   1.148   0.338   0.109 -0.1971  0.0075  0.1604
  262SOL    HW1 1046   1.250   0.329   0.103  0.5527 -1.7451  1.4327
  262SOL    HW2 1047   1.110   0.297   0.031 -0.6775 -0.7678  1.1254
  262SOL     MW 1048   1.157   0.332   0.098 -0.1616 -0.3260  0.4556
  263SOL     OW 1049   0.408   0.020   2.526  0.2881 -0.5767 -0.5162
  263SOL    HW1 1050   0.328   0.067   2.523  1.2410  1.1843 -2.3747
  263SOL    HW2 1051   0.446   0.054   2.448  0.2120  0.8051  0.4348
  263SOL     MW 1052   0.403   0.031   2.515  0.4038 -0.1621 -0.6359
  264SOL     OW 1053   1.533   1.500   1.890  0.2058 -0.0189  0.0679
  264SOL    HW1 1054   1.490   1.416   1.908  0.8255 -0.1338 -2.6172
  264SOL    HW2 1055   1.613   1.498   1.953  0.5258 -1.7461  2.0424
  264SOL     MW 1056   1.538   1.489   1.901  0.3298 -0.2619 -0.0259
  265SOL     OW 1057   0.728   2.822   2.296  0.0292 -0.4399 -0.0145
  265SOL    HW1 1058   0.803   2.765   2.292  1.1867  3.0699 -1.3998
  265SOL    HW2 1059   0.706   2.821   2.393  0.2896 -3.9336  0.2491
  265SOL     MW 1060   0.735   2.814   2.309  0.2163 -0.4378 -0.1625
  266SOL     OW 1061   0.831   0.882   2.138  0.0576 -0.1719 -0.1911
  266SOL    HW1 1062   0.773   0.944   2.095 -1.0720  0.2714  0.1050
  266SOL    HW2 1063   0.895   0.833   2.071  1.7699 -1.9367 -1.0429
  266SOL     MW 1064   0.832   0.884   2.124  0.1345 -0.3462 -0.2644
  267SOL     OW 1065   1.397   1.690   2.648  0.2647  0.4341 -0.0972
  267SOL    HW1 1066   1.453   1.633   2.586  0.4238 -1.0724 -1.3002
  267SOL    HW2 1067   1.324   1.714   2.596 -0.0494 -0.8525  0.2534
  267SOL     MW 1068   1.395   1.686   2.633  0.2442  0.0656 -0.2097
  268SOL     OW 1069   0.121   0.896   1.772  0.1598 -0.1652 -0.3227
  268SOL    HW1 1070   0.037   0.944   1.757  1.1278 -1.4474 -1.5277
  268SOL    HW2 1071   0.119   0.817   1.713 -2.5412 -1.9607 -1.8456
  268SOL     MW 1072   0.109   0.892   1.762 -0.0688 -0.5713 -0.6826
  269SOL     OW 1073   1.351   1.877   2.320  0.4770  0.1729  0.5806
  269SOL    HW1 1074   1.401   1.952   2.342  1.1331 -0.9937  0.8487
  269SOL    HW2 1075   1.273   1.871   2.371 -0.3629 -0.3207 -0.1819
  269SOL     MW 1076   1.347   1.886   2.330  0.4528 -0.0461  0.5154
  270SOL     OW 1077   1.101   0.362   1.523  0.1508  0.8656 -0.1479
  270SOL    HW1 1078   1.073   0.277   1.556 -0.3196  0.9652 -0.4478
  270SOL    HW2 1079   1.198   0.362   1.530 -1.8717  1.0358 -2.5160
  270SOL     MW 1080   1.110   0.351   1.528 -0.1781  0.9012 -0.4999
  271SOL     OW 1081   0.894   0.088   2.488  0.0310 -0.1168  0.4228
  271SOL    HW1 1082   0.953   0.046   2.551 -1.5991 -2.5710 -1.0407
  271SOL    HW2 1083   0.949   0.160   2.455 -2.2342 -0.4373 -0.2925
  271SOL     MW 1084   0.909   0.092   2.492 -0.4830 -0.4829  0.1353
  272SOL     OW 1085   1.462   2.772   2.799 -0.1117 -0.4221 -0.7056
  272SOL    HW1 1086   1.411   2.795   2.725  1.2434 -0.9323 -0.8779
  272SOL    HW2 1087   1.525   2.850   2.805  0.3331 -0.1603 -0.7416
  272SOL     MW 1088   1.464   2.786   2.790  0.1258 -0.4549 -0.7331
  273SOL     OW 1089   1.465   0.825   2.809  0.5416 -0.0571  0.1574
  273SOL    HW1 1090   1.526   0.757   2.816 -0.4259 -1.4173  1.4043
  273SOL    HW2 1091   1.522   0.905   2.811  1.8913 -1.3502  0.4934
  273SOL     MW 1092   1.481   0.827   2.810  0.5920 -0.4072  0.3663
  274SOL     OW 1093   1.441   0.632   0.124 -0.1857 -0.0165 -0.0410
  274SOL    HW1 1094   1.490   0.560   0.162 -1.6917 -1.0482 -0.0720
  274SOL    HW2 1095   1.361   0.637   0.181 -0.6872 -1.4297 -0.2088
  274SOL     MW 1096   1.437   0.623   0.136 -0.4505 -0.3391 -0.0672
  275SOL     OW 1097   1.831   0.548   1.737  0.2067  0.5176 -0.1952
  275SOL    HW1 1098   1.871   0.589   1.819 -0.5915  2.0636 -0.0178
  275SOL    HW2 1099   1.832   0.449   1.749  1.6636 -0.8509  1.0607
  275SOL     MW 1100   1.837   0.540   1.749  0.2936  0.5410 -0.0061
  276SOL     OW 1101   0.392   1.202   1.932 -0.4076 -0.3932 -0.1210
  276SOL    HW1 1102   0.397   1.111   1.970 -1.7522 -1.7216  1.9743
  276SOL    HW2 1103   0.342   1.259   1.992 -2.7135  1.0066  0.3344
  276SOL     MW 1104   0.386   1.197   1.945 -0.8892 -0.3838  0.2155
  277SOL     OW 1105   2.003   1.131   2.472  0.3459 -0.2551  0.4802
  277SOL    HW1 1106   2.018   1.217   2.511 -0.7331  0.7676  3.1594
  277SOL    HW2 1107   1.938   1.144   2.401 -1.6827  0.0615  2.3309
  277SOL     MW 1108   1.997   1.144   2.468 -0.0641 -0.0784  1.0778
  278SOL     OW 1109   1.422   0.607   1.667  0.5793  0.0511 -0.4654
  278SOL    HW1 1110   1.444   0.584   1.766  1.7149  1.5416 -2.2632
  278SOL    HW2 1111   1.508   0.636   1.634  2.3076 -2.5012 -2.0368
  278SOL     MW 1112   1.437   0.608   1.676  0.9572 -0.0890 -0.9099
  279SOL     OW 1113   0.514   0.112   2.252  0.1337  0.4084 -0.1860
  279SOL    HW1 1114   0.591   0.048   2.234 -0.0441 -0.5768 -2.0961
  279SOL    HW2 1115   0.547   0.196   2.224 -1.0989  1.1098  0.8555
  279SOL     MW 1116   0.529   0.114   2.246 -0.0524  0.3710 -0.3006
  280SOL     OW 1117   1.431   1.033   2.222 -0.4502 -0.4474 -0.2511
  280SOL    HW1 1118   1.489   0.971   2.180  1.0853 -1.3898  0.4124
  280SOL    HW2 1119   1.441   1.015   2.315 -3.1788 -1.1249 -0.1303
  280SOL     MW 1120   1.440   1.023   2.228 -0.6076 -0.6611 -0.1477
  281SOL     OW 1121   1.304   1.113   2.749  0.5790 -0.5572  0.4932
  281SOL    HW1 1122   1.374   1.180   2.741 -0.0624 -0.0382 -0.6076
  281SOL    HW2 1123   1.289   1.101   2.845 -1.1175  0.9738  1.9263
  281SOL     MW 1124   1.311   1.120   2.761  0.2705 -0.2867  0.5370
  282SOL     OW 1125   1.175   1.290   1.632 -0.2676  0.2101  0.2444
  282SOL    HW1 1126   1.155   1.368   1.586 -2.0689  3.6341 -0.4632
  282SOL    HW2 1127   1.091   1.246   1.664 -0.3989  0.6688  1.0433
  282SOL     MW 1128   1.161   1.294   1.630 -0.5226  0.7224  0.2565
  283SOL     OW 1129   0.807   1.389   3.092 -0.4784 -0.2021 -0.2886
  283SOL    HW1 1130   0.900   1.376   3.115  0.1208  0.7889 -0.5493
  283SOL    HW2 1131   0.800   1.472   3.043  1.3701  2.2516  0.1353
  283SOL     MW 1132   0.818   1.398   3.088 -0.1554  0.2524 -0.2670
  284SOL     OW 1133   0.372   0.676   2.334 -0.4502  0.3155  0.4947
  284SOL    HW1 1134   0.441   0.743   2.326  0.9970  1.1291  0.0802
  284SOL    HW2 1135   0.342   0.633   2.252  0.0313 -1.4077 -0.0759
  284SOL     MW 1136   0.377   0.679   2.322 -0.1957  0.1955  0.3647
  285SOL     OW 1137   0.875   0.829   2.851 -0.0505  0.1553  0.1379
  285SOL    HW1 1138   0.894   0.872   2.768  1.5608 -1.4253 -0.3935
  285SOL    HW2 1139   0.811   0.764   2.813 -0.1842 -0.3196  1.3748
  285SOL     MW 1140   0.869   0.826   2.835  0.1445 -0.1159  0.2310
  286SOL     OW 1141   1.087   1.479   2.685 -0.1486 -0.1575  0.6033
  286SOL    HW1 1142   1.161   1.426   2.673  0.2679  2.8655  0.4319
  286SOL    HW2 1143   1.108   1.571   2.652 -1.6295  1.1823 -3.3544
  286SOL     MW 1144   1.099   1.484   2.679 -0.2891  0.4182  0.0585
  287SOL     OW 1145   1.146   0.964   0.342  0.0810 -0.4964 -0.2599
  287SOL    HW1 1146   1.086   0.979   0.418 -1.6262  2.3420  1.9017
  287SOL    HW2 1147   1.108   1.028   0.275 -0.4434 -1.1014 -1.0825
  287SOL     MW 1148   1.133   0.975   0.343 -0.2134 -0.2017 -0.0833
  288SOL     OW 1149   1.496   0.653   2.137 -0.0495  0.3579 -0.5574
  288SOL    HW1 1150   1.429   0.683   2.189  2.2594  1.4329 -1.2422
  288SOL    HW2 1151   1.527   0.740   2.097  0.2496  3.1647  1.2835
  288SOL     MW 1152   1.491   0.669   2.139  0.2946  0.8700 -0.4049
  289SOL     OW 1153   0.930   0.951   2.614  0.2197  0.5443 -0.4426
  289SOL    HW1 1154   0.970   0.889   2.555  1.8142 -1.0153 -1.0582
  289SOL    HW2 1155   0.850   0.982   2.562  2.6163 -1.4395  2.7324
  289SOL     MW 1156   0.925   0.947   2.600  0.7463  0.0768 -0.1049
  290SOL     OW 1157   0.757   0.641   1.502 -0.3072 -0.0527  0.2189
  290SOL    HW1 1158   0.803   0.576   1.450 -0.6512 -1.2508  2.9037
  290SOL    HW2 1159   0.786   0.631   1.591 -2.0300  0.3481 -0.2185
  290SOL     MW 1160   0.767   0.631   1.507 -0.5799 -0.1579  0.5154
  291SOL     OW 1161   0.240   0.313   0.176  0.0040  0.2529  0.4881
  291SOL    HW1 1162   0.331   0.299   0.209 -0.2762 -1.3105  0.9800
  291SOL    HW2 1163   0.210   0.227   0.141 -0.7723 -1.2982  0.2495
  291SOL     MW 1164   0.248   0.300   0.176 -0.1354 -0.1580  0.5215
  292SOL     OW 1165   1.013   0.606   0.099  0.1813 -1.0493 -0.0936
  292SOL    HW1 1166   1.074   0.645   0.167  1.4968 -0.5080  0.5675
  292SOL    HW2 1167   1.045   0.516   0.093 -3.5598 -1.4005 -0.9859
  292SOL     MW 1168   1.025   0.599   0.107 -0.1388 -1.0242 -0.1241
  293SOL     OW 1169   0.114   0.077   2.573  0.2244  0.2249 -0.6398
  293SOL    HW1 1170   0.094   0.031   2.495  0.8705  0.9690  0.2275
  293SOL    HW2 1171   0.037   0.136   2.594  0.7670  1.9525 -1.9633
  293SOL     MW 1172   0.101   0.079   2.565  0.3813  0.5510 -0.7000
  294SOL     OW 1173   1.342   0.450   2.357 -0.3810  0.2024 -0.1215
  294SOL    HW1 1174   1.390   0.520   2.404  1.1968  0.5579  1.9360
  294SOL    HW2 1175   1.340   0.368   2.412  1.7965 -1.9616 -1.3525
  294SOL     MW 1176   1.348   0.448   2.371  0.1145 -0.0362 -0.0124
  295SOL     OW 1177   0.856   0.599   2.487 -0.1362  0.1628 -1.0936
  295SOL    HW1 1178   0.824   0.552   2.410  2.5927  1.5155 -0.7807
  295SOL    HW2 1179   0.775   0.617   2.535  0.8694  0.0713 -2.3837
  295SOL     MW 1180   0.841   0.595   2.483  0.3566  0.3292 -1.2225
  296SOL     OW 1181   1.334   0.300   2.077  0.6757  0.0767  0.1120
  296SOL    HW1 1182   1.379   0.226   2.033 -0.5201  0.9617 -0.6420
  296SOL    HW2 1183   1.334   0.278   2.168 -0.7890  0.4877  0.8508
  296SOL     MW 1184   1.340   0.288   2.083  0.3247  0.2477  0.1100
  297SOL     OW 1185   1.362   0.333   1.576 -0.2390 -0.1358 -1.0638
  297SOL    HW1 1186   1.391   0.416   1.615  1.8338 -0.1119  0.3732
  297SOL    HW2 1187   1.332   0.277   1.648  0.4769  1.2238 -0.5224
  297SOL     MW 1188   1.362   0.337   1.590  0.1290  0.0467 -0.8028
  298SOL     OW 1189   1.621   0.871   2.055  0.9580  0.4125  0.1870
  298SOL    HW1 1190   1.649   0.938   1.990 -0.4955 -0.5433  4.0781
  298SOL    HW2 1191   1.701   0.836   2.090 -1.1762  1.0244 -1.1170
  298SOL     MW 1192   1.635   0.875   2.051  0.4847  0.3672  0.5283
  299SOL     OW 1193   0.627   1.183   0.067  0.3540 -0.1608 -1.3405
  299SOL    HW1 1194   0.584   1.147  -0.018 -0.7144 -1.3196  0.5728
  299SOL    HW2 1195   0.660   1.274   0.048  1.5512  1.3320  1.7952
  299SOL     MW 1196   0.626   1.190   0.053  0.3710 -0.1167 -0.6744
  300SOL     OW 1197   1.105   1.137   2.553 -0.0014  0.4021 -0.1803
  300SOL    HW1 1198   1.029   1.078   2.576  1.4558 -2.0391  0.7811
  300SOL    HW2 1199   1.168   1.114   2.625  1.3730  0.3599 -1.9737
  300SOL     MW 1200   1.103   1.126   2.565  0.3722  0.0745 -0.2901
  301SOL     OW 1201   1.504   1.028   0.759  0.4316 -0.6785  0.4608
  301SOL    HW1 1202   1.479   1.052   0.849  0.4158 -1.0504  1.4378
  301SOL    HW2 1203   1.437   0.958   0.739 -1.0449 -0.9898  0.0075
  301SOL     MW 1204   1.492   1.022   0.768  0.2347 -0.7686  0.5299
  302SOL     OW 1205   0.210   1.583   2.044  0.5976  0.3914  0.3837
  302SOL    HW1 1206   0.220   1.490   2.064  3.6943  2.3430 -4.0192
  302SOL    HW2 1207   0.121   1.608   2.059  1.5725 -0.4392 -2.1631
  302SOL     MW 1208   0.200   1.574   2.049  1.1348  0.5393 -0.5332
  303SOL     OW 1209   0.292   1.765   2.711 -1.2579  0.0327  0.0352
  303SOL    HW1 1210   0.260   1.801   2.629 -1.2381  1.5704 -0.5084
  303SOL    HW2 1211   0.222   1.782   2.779 -0.9844 -1.5046  3.9106
  303SOL     MW 1212   0.278   1.772   2.709 -1.2192  0.0328  0.4748
  304SOL     OW 1213   0.527   2.058   2.468  0.2825  0.0623 -0.0938
  304SOL    HW1 1214   0.605   2.112   2.439  1.3516  2.1389 -2.8023
  304SOL    HW2 1215   0.538   1.987   2.404 -1.5279  0.1400 -2.2112
  304SOL     MW 1216   0.539   2.056   2.456  0.1847  0.3466 -0.7305
  305SOL     OW 1217   1.158   0.647   0.547  0.1534  0.0538 -0.2333
  305SOL    HW1 1218   1.060   0.645   0.551  0.5632 -1.0982  0.1287
  305SOL    HW2 1219   1.186   0.559   0.564  0.9579 -3.0840  2.1758
  305SOL     MW 1220   1.149   0.635   0.550  0.3136 -0.5122  0.1323
  306SOL     OW 1221   1.093   1.546   0.307  0.3685  0.4146 -0.0701
  306SOL    HW1 1222   1.138   1.468   0.346  2.1494 -0.0422  0.7463
  306SOL    HW2 1223   1.154   1.569   0.240  1.2584 -1.1958  0.0752
  306SOL     MW 1224   1.107   1.539   0.303  0.7209  0.1419  0.0568
  307SOL     OW 1225   1.452   0.505   1.915  0.2564  0.1452  0.0624
  307SOL    HW1 1226   1.393   0.438   1.948  1.4490 -0.0369  0.2394
  307SOL    HW2 1227   1.458   0.565   1.991 -1.5225  0.5672  0.1035
  307SOL     MW 1228   1.445   0.504   1.929  0.1791  0.1768  0.0912
  308SOL     OW 1229   2.256   0.543   2.745  0.0549  0.6411  0.4165
  308SOL    HW1 1230   2.350   0.551   2.770  1.1273  0.5217 -0.6636
  308SOL    HW2 1231   2.238   0.631   2.717  3.3855  0.0717  0.5494
  308SOL     MW 1232   2.266   0.556   2.745  0.6358  0.5502  0.2915
  309SOL     OW 1233   0.513   0.550   0.249 -0.2258  0.0704  0.2348
  309SOL    HW1 1234   0.607   0.561   0.248 -0.3338 -3.6165 -1.3682
  309SOL    HW2 1235   0.513   0.457   0.235 -0.3498 -0.0735  3.6915
  309SOL     MW 1236   0.525   0.539   0.247 -0.2564 -0.4350  0.4794
  310SOL     OW 1237   0.402   0.532   1.863 -0.3099  0.0258 -0.2910
  310SOL    HW1 1238   0.453   0.462   1.816 -0.1490 -0.6899  0.5552
  310SOL    HW2 1239   0.434   0.619   1.828  1.2281  2.6707 -0.4552
  310SOL     MW 1240   0.413   0.534   1.852 -0.0857  0.2804 -0.2010
  311SOL     OW 1241   1.971   0.640   1.952  0.5834  0.0980 -0.2667
  311SOL    HW1 1242   1.946   0.684   2.032 -1.6699 -2.4628 -1.8316
  311SOL    HW2 1243   2.013   0.553   1.980 -1.1834 -0.5309 -1.4002
  311SOL     MW 1244   1.973   0.634   1.966  0.0529 -0.3229 -0.6227
  312SOL     OW 1245   1.707   2.461   0.151  0.0524  0.3545  0.0169
  312SOL    HW1 1246   1.727   2.447   0.244 -1.5791  0.0023  1.3567
  312SOL    HW2 1247   1.642   2.529   0.148  0.6658 -1.1776  2.5504
  312SOL     MW 1248   1.701   2.468   0.163 -0.0820  0.1059  0.5279
  313SOL     OW 1249   0.144   1.149   3.038  0.5086  0.3631 -0.1089
  313SOL    HW1 1250   0.090   1.184   3.115 -0.1537  0.0718 -0.2316
  313SOL    HW2 1251   0.160   1.213   2.966 -0.6535  1.9172 -2.2085
  313SOL     MW 1252   0.139   1.162   3.039  0.2679  0.5297 -0.4021
  314SOL     OW 1253   2.182   2.915   0.028 -0.2176 -0.5591 -0.4332
  314SOL    HW1 1254   2.130   2.931  -0.056 -0.3520 -0.2828 -0.1235
  314SOL    HW2 1255   2.235   2.988   0.032 -1.4765 -6.6803  0.5866
  314SOL     MW 1256   2.182   2.927   0.017 -0.4014 -1.3303 -0.2578
  315SOL     OW 1257   1.537   1.851   3.007  0.2248 -0.1746  0.3177
  315SOL    HW1 1258   1.493   1.909   3.070  0.4760 -0.9376  1.7762
  315SOL    HW2 1259   1.598   1.913   2.956  1.4407 -1.1635  0.9473
  315SOL     MW 1260   1.539   1.867   3.009  0.4184 -0.4058  0.5932
  316SOL     OW 1261   1.203   0.654   2.688  0.0748  0.4818 -0.3305
  316SOL    HW1 1262   1.281   0.706   2.706  0.7415  2.9722  1.6935
  316SOL    HW2 1263   1.150   0.650   2.775  1.7039  0.5546 -1.5168
  316SOL     MW 1264   1.206   0.660   2.702  0.3777  0.8200 -0.2199
  317SOL     OW 1265   0.692   1.585   2.637  0.2238 -0.0379 -0.7385
  317SOL    HW1 1266   0.740   1.502   2.654  4.1931 -1.9358  0.2558
  317SOL    HW2 1267   0.712   1.606   2.545  1.4460 -0.6795  3.0896
  317SOL     MW 1268   0.701   1.577   2.627  0.9088 -0.3729 -0.1022
  318SOL     OW 1269   1.370   0.384   2.895  0.0969 -0.0040 -0.8440
  318SOL    HW1 1270   1.287   0.420   2.862  2.3121  1.0245 -0.8199
  318SOL    HW2 1271   1.450   0.433   2.865  1.4344  3.4499  1.4948
  318SOL     MW 1272   1.370   0.395   2.887  0.5656  0.5874 -0.5322
  319SOL     OW 1273   0.786   0.487   2.829 -0.2152  0.8190  0.2527
  319SOL    HW1 1274   0.760   0.399   2.793 -0.2214 -1.1785 -0.9354
  319SOL    HW2 1275   0.769   0.479   2.920  1.5007  3.8673 -3.0803
  319SOL     MW 1276   0.780   0.474   2.836  0.0104  0.9576 -0.3438
  320SOL     OW 1277   1.036   1.327   1.992 -0.3813  0.4113  0.1693
  320SOL    HW1 1278   1.077   1.266   2.048 -1.2253 -0.7638 -0.3521
  320SOL    HW2 1279   1.109   1.373   1.946 -1.6966  0.3553 -2.2769
  320SOL     MW 1280   1.051   1.325   1.993 -0.6662  0.2488 -0.2223
  321SOL     OW 1281   1.053   0.876   3.051 -0.6260  0.5861  0.1540
  321SOL    HW1 1282   0.999   0.855   2.971  1.0206  0.5396 -2.1533
  321SOL    HW2 1283   1.141   0.832   3.034 -2.0802  0.3432 -1.7434
  321SOL     MW 1284   1.058   0.867   3.038 -0.6007  0.5479 -0.4008
  322SOL     OW 1285   1.257   0.862   1.659  0.5027  0.2414 -0.0320
  322SOL    HW1 1286   1.316   0.794   1.685 -1.5157  0.6393  1.7295
  322SOL    HW2 1287   1.206   0.886   1.738 -0.2413 -0.1969 -1.7948
  322SOL     MW 1288   1.258   0.856   1.673  0.1383  0.2361 -0.0322
  323SOL     OW 1289   1.207   1.526   1.901 -0.4038 -0.2278 -0.1008
  323SOL    HW1 1290   1.248   1.544   1.817 -0.4215  0.3651  0.5907
  323SOL    HW2 1291   1.221   1.600   1.961 -0.4877 -1.0795  1.2642
  323SOL     MW 1292   1.214   1.538   1.898 -0.4172 -0.2620  0.1705
  324SOL     OW 1293   1.432   0.972   2.522  0.1073 -0.7720  0.2951
  324SOL    HW1 1294   1.380   0.982   2.594  1.7085 -3.5297 -3.5174
  324SOL    HW2 1295   1.514   1.010   2.558 -0.1226  0.2399 -2.1651
  324SOL     MW 1296   1.436   0.978   2.536  0.2883 -1.0023 -0.5325
  325SOL     OW 1297   1.052   0.531   2.914  0.6972  0.1694  0.1156
  325SOL    HW1 1298   1.055   0.581   2.994  0.1400 -3.7467  3.3129
  325SOL    HW2 1299   0.960   0.534   2.878 -1.0548  0.7734 -0.8511
  325SOL     MW 1300   1.040   0.538   2.920  0.3925 -0.2676  0.4099
  326SOL     OW 1301   0.387   1.384   2.322  0.3980 -0.0295  0.7784
  326SOL    HW1 1302   0.458   1.367   2.258 -0.9249 -0.8117 -1.6626
  326SOL    HW2 1303   0.370   1.482   2.310  0.4311  3.0738 -2.5198
  326SOL     MW 1304   0.394   1.395   2.312  0.2278  0.2767  0.0212
  327SOL     OW 1305   1.992   0.782   2.426 -0.2865 -0.3770  0.4282
  327SOL    HW1 1306   1.931   0.736   2.482  1.4649  0.6596  1.8633
  327SOL    HW2 1307   2.005   0.855   2.481  0.8233 -0.4502 -2.0251
  327SOL     MW 1308   1.986   0.786   2.441  0.0910 -0.2499  0.2939
  328SOL     OW 1309   0.215   1.333   2.112 -0.1924  0.5551  0.3893
  328SOL    HW1 1310   0.166   1.251   2.083  0.9351 -0.6426  1.1171
  328SOL    HW2 1311   0.249   1.307   2.193  0.8259 -2.3868 -0.8706
  328SOL     MW 1312   0.213   1.319   2.119  0.0907  0.0089  0.3191
  329SOL     OW 1313   0.059   0.099   1.361  0.2888 -0.0682 -0.2631
  329SOL    HW1 1314   0.045   0.117   1.457 -1.1823 -3.6911  3.8523
  329SOL    HW2 1315   0.147   0.139   1.336 -0.8747 -1.9633 -0.7659
  329SOL     MW 1316   0.069   0.107   1.371 -0.0588 -0.7962  0.2136
  330SOL     OW 1317   0.380   0.054   2.013  0.0008  0.0751 -0.1298
  330SOL    HW1 1318   0.458   0.089   2.056  1.3028  0.2522 -2.4116
  330SOL    HW2 1319   0.358  -0.033   2.053 -2.2728  1.0044 -0.5814
  330SOL     MW 1320   0.388   0.047   2.024 -0.1274  0.2211 -0.4905
  331SOL     OW 1321   0.770   1.256   2.372 -0.2043 -0.4392 -0.3626
  331SOL    HW1 1322   0.725   1.324   2.333  2.2550  1.8679 -1.2580
  331SOL    HW2 1323   0.805   1.295   2.454  0.1216 -4.2078  0.0017
  331SOL     MW 1324   0.768   1.270   2.378  0.1631 -0.6320 -0.4327
  332SOL     OW 1325   1.355   1.652   2.929 -0.3749  0.1806 -0.0350
  332SOL    HW1 1326   1.370   1.641   2.831 -0.2360 -1.5959 -1.7320
  332SOL    HW2 1327   1.426   1.713   2.950 -2.1763  0.5105 -0.8667
  332SOL     MW 1328   1.366   1.658   2.919 -0.5942 -0.0103 -0.3686
  333SOL     OW 1329   1.683   1.360   2.921  0.7504  0.5959  0.3130
  333SOL    HW1 1330   1.778   1.351   2.926 -0.8151 -1.4948 -0.3562
  333SOL    HW2 1331   1.656   1.295   2.993 -3.5620 -1.6416  0.8644
  333SOL     MW 1332   1.692   1.350   2.931 -0.0251  0.0248  0.2974
  334SOL     OW 1333   1.346   3.094   2.616  0.3367  0.3329 -0.5385
  334SOL    HW1 1334   1.269   3.075   2.677 -0.2256  0.2388  0.1091
  334SOL    HW2 1335   1.393   3.155   2.671  0.7022 -2.1297 -0.6313
  334SOL     MW 1336   1.342   3.099   2.631  0.3107 -0.0044 -0.4653
  335SOL     OW 1337   1.273   0.728   3.004 -0.0932 -0.0049 -0.3459
  335SOL    HW1 1338   1.332   0.673   3.066  1.3866  2.7376  2.0752
  335SOL    HW2 1339   1.346   0.760   2.953 -2.2188 -1.1964  3.8654
  335SOL     MW 1340   1.291   0.725   3.005 -0.1784  0.1998  0.5291
  336SOL     OW 1341   0.920   1.166   1.718 -0.1880 -0.2723 -0.1768
  336SOL    HW1 1342   0.851   1.210   1.773 -3.4220 -1.1046  3.0422
  336SOL    HW2 1343   0.942   1.090   1.766  0.7576  2.9232 -0.0707
  336SOL     MW 1344   0.914   1.162   1.732 -0.4899  0.0395  0.2619
  337SOL     OW 1345   0.492   1.954   2.782  0.1327  0.3572  0.2914
  337SOL    HW1 1346   0.431   1.914   2.721 -0.3091 -0.7373  0.6950
  337SOL    HW2 1347   0.583   1.936   2.751 -0.2984  1.6638 -0.7080
  337SOL     MW 1348   0.496   1.947   2.770  0.0175  0.3852  0.2128
  338SOL     OW 1349   1.051   0.781   2.456 -0.1579 -0.4021  0.1091
  338SOL    HW1 1350   0.969   0.726   2.466  0.6840  0.3764 -0.3493
  338SOL    HW2 1351   1.118   0.751   2.512 -1.1581 -0.9231 -0.2846
  338SOL     MW 1352   1.049   0.770   2.465 -0.1788 -0.3681 -0.0033
  339SOL     OW 1353   1.407   1.249   1.915 -0.0526  0.7312  0.2981
  339SOL    HW1 1354   1.396   1.226   1.823 -0.6385  2.1052 -1.6585
  339SOL    HW2 1355   1.327   1.218   1.959  0.6366 -0.7263  2.9599
  339SOL     MW 1356   1.395   1.242   1.909 -0.0390  0.7202  0.3911
  340SOL     OW 1357   1.289   1.482   0.066  0.0793 -0.0901 -0.0726
  340SOL    HW1 1358   1.342   1.536   0.002 -0.4231 -1.5223 -0.1312
  340SOL    HW2 1359   1.346   1.449   0.130 -1.9646  1.1776  2.8416
  340SOL     MW 1360   1.304   1.485   0.066 -0.2567 -0.1118  0.3041
  341SOL     OW 1361   0.136   1.363   2.797  0.2777  0.2102  0.8501
  341SOL    HW1 1362   0.214   1.378   2.844 -1.3348 -0.1076 -1.9576
  341SOL    HW2 1363   0.159   1.346   2.704 -0.5117 -1.6004  0.1850
  341SOL     MW 1364   0.149   1.363   2.791 -0.0392 -0.0706  0.3919
  342SOL     OW 1365   1.408   0.338   0.072 -0.4172 -0.3051 -0.0028
  342SOL    HW1 1366   1.489   0.373   0.106 -2.0217 -0.8070 -3.4943
  342SOL    HW2 1367   1.411   0.361  -0.020  0.4571  1.5855 -0.4481
  342SOL     MW 1368   1.419   0.346   0.064 -0.5136 -0.1219 -0.5222
  343SOL     OW 1369   0.233   0.228   2.147 -0.4485 -0.0054  0.3911
  343SOL    HW1 1370   0.288   0.167   2.098  1.1717 -0.5261 -1.2143
  343SOL    HW2 1371   0.142   0.203   2.138  1.1341 -1.1210 -1.5811
  343SOL     MW 1372   0.228   0.217   2.139 -0.0259 -0.2213 -0.0809
  344SOL     OW 1373   1.706   1.986   0.152  0.4957  0.4600  0.9106
  344SOL    HW1 1374   1.734   2.060   0.093 -0.4744 -4.6241 -0.5153
  344SOL    HW2 1375   1.640   1.940   0.087 -1.5905 -2.7824 -0.6610
  344SOL     MW 1376   1.701   1.990   0.135  0.0925 -0.6386  0.5151
  345SOL     OW 1377   0.685   1.641   2.361 -0.7149 -0.5464 -0.3372
  345SOL    HW1 1378   0.593   1.621   2.360  0.5665 -0.8944 -2.1001
  345SOL    HW2 1379   0.729   1.582   2.296  0.7057  0.4698 -1.6735
  345SOL     MW 1380   0.679   1.631   2.353 -0.3584 -0.4583 -0.7461
  346SOL     OW 1381   1.657   1.124   0.034  0.4030  0.7731 -0.0260
  346SOL    HW1 1382   1.746   1.130   0.063 -1.0734 -2.4886  4.1310
  346SOL    HW2 1383   1.644   1.037   0.073  1.8196  0.9276  0.2477
  346SOL     MW 1384   1.667   1.114   0.043  0.3951  0.3631  0.5585
  347SOL     OW 1385   1.166   0.611   2.215  0.2156 -0.0464 -0.3808
  347SOL    HW1 1386   1.228   0.554   2.263  2.1264 -1.1267  1.4722
  347SOL    HW2 1387   1.136   0.664   2.288 -0.2819 -0.8218 -0.5618
  347SOL     MW 1388   1.170   0.611   2.231  0.4021 -0.2912 -0.1602
  348SOL     OW 1389   1.338   2.541   1.916  0.0019  0.4750  0.2825
  348SOL    HW1 1390   1.348   2.477   1.994 -0.1680  1.7002 -0.4648
  348SOL    HW2 1391   1.320   2.619   1.967 -0.5580 -2.5671 -2.6118
  348SOL     MW 1392   1.337   2.543   1.933 -0.0944  0.2353 -0.1980
  349SOL     OW 1393   1.476   0.157   2.787 -0.0201  0.1744  0.1108
  349SOL    HW1 1394   1.449   0.206   2.864 -2.4678  0.8243  1.7462
  349SOL    HW2 1395   1.507   0.076   2.833 -1.7020  0.3832  0.5845
  349SOL     MW 1396   1.477   0.153   2.803 -0.5650  0.2877  0.3891
  350SOL     OW 1397   1.826   0.650   2.644  0.3777 -0.7338  0.1288
  350SOL    HW1 1398   1.771   0.609   2.577 -0.2492  1.6438  1.3737
  350SOL    HW2 1399   1.834   0.569   2.700  0.9070  0.1138  0.2815
  350SOL     MW 1400   1.820   0.634   2.643  0.3648 -0.3083  0.3132
  351SOL     OW 1401   0.080   1.161   1.575  0.1118  0.6691 -0.2022
  351SOL    HW1 1402   0.049   1.111   1.651 -0.2993 -1.9714 -2.1719
  351SOL    HW2 1403   0.153   1.212   1.608  0.2152  1.6782 -2.1530
  351SOL     MW 1404   0.085   1.161   1.589  0.0712  0.4538 -0.7195
  352SOL     OW 1405   0.750   1.831   2.783 -0.4174  1.0961  0.2865
  352SOL    HW1 1406   0.731   1.807   2.873 -1.6671 -0.7860 -2.0504
  352SOL    HW2 1407   0.713   1.762   2.731  1.8350 -1.0411 -1.7795
  352SOL     MW 1408   0.743   1.819   2.788 -0.2851  0.5658 -0.2944
  353SOL     OW 1409   0.004   2.588   2.633 -0.5557  0.4967 -0.3142
  353SOL    HW1 1410   0.084   2.534   2.629 -1.3977  1.4593 -1.1506
  353SOL    HW2 1411   0.017   2.653   2.562 -0.8999 -0.5648 -0.9971
  353SOL     MW 1412   0.017   2.590   2.623 -0.7122  0.4836 -0.5147
  354SOL     OW 1413   0.376   2.417   0.843 -0.4362 -0.3086 -0.8729
  354SOL    HW1 1414   0.421   2.404   0.923  0.4599  0.2438 -1.3175
  354SOL    HW2 1415   0.299   2.370   0.851  1.6092  1.5240 -1.0292
  354SOL     MW 1416   0.371   2.409   0.855 -0.0481  0.0061 -0.9522
  355SOL     OW 1417   0.067   2.216   0.400  0.5528  0.7824  0.3403
  355SOL    HW1 1418  -0.019   2.180   0.367  0.7206  0.4689 -1.2618
  355SOL    HW2 1419   0.063   2.264   0.482  0.0716 -1.7262  1.5148
  355SOL     MW 1420   0.055   2.217   0.406  0.5115  0.4100  0.2839
  356SOL     OW 1421   0.747   2.964   1.057  0.2887 -0.0974 -0.2354
  356SOL    HW1 1422   0.827   2.958   1.001  0.0680 -1.6192  0.5947
  356SOL    HW2 1423   0.672   2.931   1.005 -1.0298 -0.2807 -0.6845
  356SOL     MW 1424   0.747   2.959   1.043  0.0856 -0.3224 -0.1851
  357SOL     OW 1425   1.845   2.802   0.446  0.5265 -0.5695 -0.3716
  357SOL    HW1 1426   1.818   2.808   0.536 -1.2756  1.5080 -1.6728
  357SOL    HW2 1427   1.931   2.759   0.452 -1.1647  1.0677 -0.1854
  357SOL     MW 1428   1.853   2.797   0.459  0.0656 -0.0794 -0.5188
  358SOL     OW 1429   0.438   0.148   1.069  0.0971 -0.1932 -0.4742
  358SOL    HW1 1430   0.538   0.155   1.058  0.5535 -1.4227  0.4300
  358SOL    HW2 1431   0.398   0.180   0.985  1.5283 -0.4544 -1.8581
  358SOL     MW 1432   0.446   0.153   1.056  0.3462 -0.3899 -0.5375
  359SOL     OW 1433   0.893   2.989   1.850 -0.2302  0.2080 -0.0747
  359SOL    HW1 1434   0.919   2.904   1.884 -0.6526 -4.0890  0.4835
  359SOL    HW2 1435   0.889   2.961   1.760 -1.9545  1.2488  2.1409
  359SOL     MW 1436   0.896   2.974   1.843 -0.5135 -0.2216  0.2913
  360SOL     OW 1437   0.583   2.794   0.912  0.3851  0.1128 -0.1029
  360SOL    HW1 1438   0.621   2.764   0.831  0.7605  3.0799 -0.0994
  360SOL    HW2 1439   0.584   2.717   0.976  0.6134 -2.7242 -1.4587
  360SOL     MW 1440   0.588   2.780   0.910  0.4647  0.1300 -0.2814
  361SOL     OW 1441   0.220   2.701   1.359 -0.4119 -0.0656  0.3881
  361SOL    HW1 1442   0.171   2.753   1.416 -1.0921 -2.7622 -0.1390
  361SOL    HW2 1443   0.287   2.761   1.313 -0.1176 -0.3530 -1.7807
  361SOL     MW 1444   0.222   2.716   1.360 -0.4628 -0.4593  0.0324
  362SOL     OW 1445   1.372   2.420   0.609  0.1329 -0.2532  0.0206
  362SOL    HW1 1446   1.407   2.361   0.677 -0.1526 -1.7838  1.8352
  362SOL    HW2 1447   1.437   2.487   0.591 -0.0446  0.1265  0.1625
  362SOL     MW 1448   1.386   2.421   0.616  0.0718 -0.4050  0.2788
  363SOL     OW 1449   0.302   3.104   0.686 -0.3946  0.4910  0.3963
  363SOL    HW1 1450   0.298   3.022   0.742 -1.6761 -1.6206  0.1539
  363SOL    HW2 1451   0.210   3.115   0.655 -1.3804 -1.8246 -0.8650
  363SOL     MW 1452   0.290   3.095   0.689 -0.6938 -0.0931  0.1979
  364SOL     OW 1453   0.801   0.196   0.129  0.2744 -0.3026  0.0313
  364SOL    HW1 1454   0.737   0.125   0.151 -1.4572  0.1199 -1.0891
  364SOL    HW2 1455   0.753   0.249   0.072 -1.5417  0.7181  4.0932
  364SOL     MW 1456   0.786   0.193   0.124 -0.1937 -0.1122  0.4194
  365SOL     OW 1457   0.876   2.011   1.233  0.0148  0.2885  0.6834
  365SOL    HW1 1458   0.905   2.098   1.226  2.0219 -1.3115  0.4478
  365SOL    HW2 1459   0.844   1.980   1.145 -1.5100  2.6934  2.7036
  365SOL     MW 1460   0.875   2.018   1.220  0.0784  0.3947  0.9188
  366SOL     OW 1461   2.933   2.650   0.938 -0.1749  0.2482 -0.3937
  366SOL    HW1 1462   2.999   2.646   1.010  0.4444 -0.1769 -4.4645
  366SOL    HW2 1463   2.975   2.686   0.861 -1.5108  1.6594  1.8225
  366SOL     MW 1464   2.947   2.654   0.938 -0.2695  0.3783 -0.6384
  367SOL     OW 1465   1.225   2.995   1.001  0.7911  0.6457  0.0488
  367SOL    HW1 1466   1.300   3.040   0.977  0.9969 -0.6668  3.6678
  367SOL    HW2 1467   1.196   2.939   0.923  0.8578 -3.4861 -0.7113
  367SOL     MW 1468   1.231   2.993   0.988  0.8270 -0.0726  0.4260
  368SOL     OW 1469   1.716   0.444   0.633 -0.2989  0.4461 -0.4647
  368SOL    HW1 1470   1.771   0.374   0.603 -1.0350  1.6040 -1.1085
  368SOL    HW2 1471   1.743   0.525   0.584 -0.0361  0.7809  0.4266
  368SOL     MW 1472   1.727   0.445   0.623 -0.3614  0.6431 -0.4320
  369SOL     OW 1473   0.148   2.388   1.743 -0.4640 -0.9672 -0.3877
  369SOL    HW1 1474   0.239   2.392   1.759  0.9610  0.4886 -0.3559
  369SOL    HW2 1475   0.117   2.483   1.736 -0.2211 -0.0330 -0.9174
  369SOL     MW 1476   0.156   2.401   1.744 -0.2439 -0.6519 -0.4534
  370SOL     OW 1477   0.696   0.120   1.045 -0.9172 -0.2587 -0.0065
  370SOL    HW1 1478   0.735   0.135   0.956 -1.4923  0.0867  0.1531
  370SOL    HW2 1479   0.692   0.016   1.049 -3.0617 -1.1935 -1.9501
  370SOL     MW 1480   0.701   0.108   1.034 -1.2760 -0.3365 -0.2419
  371SOL     OW 1481   1.161   2.891   1.470 -0.6150  0.2734  0.0068
  371SOL    HW1 1482   1.154   2.813   1.414  0.2346  1.1074 -3.5737
  371SOL    HW2 1483   1.147   2.971   1.420 -0.4638  0.4625  1.7399
  371SOL     MW 1484   1.158   2.891   1.456 -0.4829  0.4084 -0.2369
  372SOL     OW 1485   0.812   2.341   0.480  0.0066  0.0534 -0.8046
  372SOL    HW1 1486   0.755   2.271   0.518  1.1716  0.2204  1.8441
  372SOL    HW2 1487   0.838   2.308   0.393  1.3227  0.4930 -0.3993
  372SOL     MW 1488   0.808   2.328   0.473  0.3340  0.1334 -0.4016
  373SOL     OW 1489   2.860   3.006   1.414 -0.0756  0.2873  0.2866
  373SOL    HW1 1490   2.928   2.959   1.365  0.9480 -0.2627 -0.3262
  373SOL    HW2 1491   2.835   3.073   1.358 -0.0961 -3.7680 -0.9408
  373SOL     MW 1492   2.866   3.009   1.400  0.0568 -0.3203  0.0438
  374SOL     OW 1493   1.600   0.474   0.280 -0.0605  0.7870 -0.3390
  374SOL    HW1 1494   1.680   0.420   0.277  1.8318 -1.2928  1.6462
  374SOL    HW2 1495   1.548   0.431   0.346 -0.4086 -0.2983 -0.6994
  374SOL     MW 1496   1.604   0.461   0.288  0.1433  0.3694 -0.1246
  375SOL     OW 1497   1.048   2.104   2.267  0.5321 -0.7209 -0.2175
  375SOL    HW1 1498   1.066   2.083   2.356  0.1268 -1.2651 -1.7402
  375SOL    HW2 1499   0.993   2.038   2.227  1.8128  0.1355 -2.1090
  375SOL     MW 1500   1.043   2.093   2.274  0.6476 -0.6797 -0.6679
  376SOL     OW 1501   0.797   2.513   0.123  0.6947  0.4521  0.1216
  376SOL    HW1 1502   0.733   2.462   0.168  0.8358 -0.2541  0.2054
  376SOL    HW2 1503   0.815   2.469   0.037  0.9190  1.2539 -1.4536
  376SOL     MW 1504   0.791   2.500   0.118  0.7429  0.4647 -0.0752
  377SOL     OW 1505   1.360   2.060   0.926  0.5923  0.0516 -0.2343
  377SOL    HW1 1506   1.279   2.031   0.890 -0.7764 -0.1005  0.0896
  377SOL    HW2 1507   1.359   2.024   1.013  0.4348  3.0678 -1.9833
  377SOL     MW 1508   1.349   2.052   0.933  0.3909  0.4295 -0.4223
  378SOL     OW 1509   0.885   2.854   1.540  0.0745 -0.0985  0.3937
  378SOL    HW1 1510   0.886   2.764   1.561 -3.2897 -0.1834  3.9571
  378SOL    HW2 1511   0.956   2.865   1.471  0.4618  4.4902 -2.3451
  378SOL     MW 1512   0.895   2.843   1.534 -0.3183  0.4957  0.5025
  379SOL     OW 1513   1.087   1.599   2.256 -0.3262 -0.6766  1.0179
  379SOL    HW1 1514   0.998   1.583   2.226 -0.0214  0.8916 -3.0551
  379SOL    HW2 1515   1.121   1.511   2.243  0.1617 -0.4008 -1.1279
  379SOL     MW 1516   1.080   1.585   2.250 -0.2216 -0.4333  0.1974
  380SOL     OW 1517   0.888   0.106   1.454 -0.1825  0.3448  0.3916
  380SOL    HW1 1518   0.943   0.052   1.402 -3.0859  1.8608  0.2176
  380SOL    HW2 1519   0.926   0.106   1.547  0.0354 -1.6757  0.1250
  380SOL     MW 1520   0.900   0.099   1.459 -0.5369  0.2782  0.3334
  381SOL     OW 1521   0.818   2.058   0.855  0.4402  0.3595 -0.0311
  381SOL    HW1 1522   0.915   2.057   0.850  3.0328  0.0248  0.9436
  381SOL    HW2 1523   0.800   2.126   0.926 -0.6491 -1.4554 -1.1333
  381SOL     MW 1524   0.829   2.067   0.864  0.6386  0.0758 -0.0479
  382SOL     OW 1525   0.842   0.151   0.591  0.3296 -0.3043 -0.6861
  382SOL    HW1 1526   0.792   0.177   0.670 -2.0031 -0.0423  0.5259
  382SOL    HW2 1527   0.793   0.067   0.567 -1.6244  2.7124 -2.6975
  382SOL     MW 1528   0.829   0.143   0.598 -0.2360  0.1283 -0.7916
  383SOL     OW 1529   0.636   0.022   0.323  0.4980 -0.7033 -0.5121
  383SOL    HW1 1530   0.663  -0.047   0.265  1.4635 -0.7909  1.3869
  383SOL    HW2 1531   0.567  -0.029   0.366  2.1290 -0.1291 -1.4400
  383SOL     MW 1532   0.630   0.006   0.321  0.8406 -0.6391 -0.3840
  384SOL     OW 1533   0.753   2.986   0.631  0.6039  0.1040 -0.1520
  384SOL    HW1 1534   0.815   2.961   0.703 -3.9667  0.4278 -1.5438
  384SOL    HW2 1535   0.709   2.901   0.603  0.3758 -1.3367  2.3153
  384SOL     MW 1536   0.755   2.971   0.637 -0.0292 -0.0434 -0.0101
  385SOL     OW 1537   1.340   2.086   1.526 -0.2570 -0.2229  0.0157
  385SOL    HW1 1538   1.413   2.127   1.571 -1.2672  2.1959 -2.3199
  385SOL    HW2 1539   1.323   2.008   1.579 -0.6347 -0.0495 -1.7879
  385SOL     MW 1540   1.348   2.081   1.539 -0.4401  0.1191 -0.5304
  386SOL     OW 1541   1.466   0.445   0.901  0.4435  0.2925 -0.3820
  386SOL    HW1 1542   1.407   0.462   0.973 -0.1195 -1.4214 -0.0085
  386SOL    HW2 1543   1.561   0.438   0.916 -0.6183  2.1833 -0.1987
  386SOL     MW 1544   1.471   0.446   0.912  0.2291  0.3158 -0.3086
  387SOL     OW 1545   0.791   2.216   1.596  0.0623 -0.0780  0.0412
  387SOL    HW1 1546   0.854   2.258   1.542 -3.5826  0.7019  2.0074
  387SOL    HW2 1547   0.816   2.121   1.600  0.9271  1.7138  0.4394
  387SOL     MW 1548   0.802   2.209   1.590 -0.3045  0.2613  0.3532
  388SOL     OW 1549   1.475   2.748   1.409 -0.2200  0.1862  0.4197
  388SOL    HW1 1550   1.424   2.829   1.382  1.0717 -0.0265  0.6200
  388SOL    HW2 1551   1.486   2.692   1.328 -0.0081 -1.9117  1.7912
  388SOL     MW 1552   1.470   2.751   1.395 -0.0216 -0.1187  0.6271
  389SOL     OW 1553   0.496   0.137   3.064 -0.5946 -0.0710 -0.0406
  389SOL    HW1 1554   0.579   0.104   3.024 -0.3185 -0.3825 -0.0310
  389SOL    HW2 1555   0.459   0.191   2.990 -1.8474  1.4263 -2.5965
  389SOL     MW 1556   0.502   0.140   3.049 -0.7235  0.0855 -0.3766
  390SOL     OW 1557   1.366   0.030   0.752 -0.1591 -0.0923 -0.2094
  390SOL    HW1 1558   1.388   0.011   0.658  0.0795 -0.6155  0.0623
  390SOL    HW2 1559   1.436   0.078   0.794 -0.6903  1.3528  2.4647
  390SOL     MW 1560   1.378   0.034   0.745 -0.1977  0.0294  0.1792
  391SOL     OW 1561   0.334   2.188   1.507 -0.4215  0.0470  0.3724
  391SOL    HW1 1562   0.367   2.177   1.596 -1.9144  1.1391 -1.2205
  391SOL    HW2 1563   0.279   2.268   1.496  0.9631  1.8646 -2.6667
  391SOL     MW 1564   0.331   2.197   1.517 -0.4358  0.4309 -0.2388
  392SOL     OW 1565   1.957   2.212   0.314 -0.0041 -0.5496 -0.1923
  392SOL    HW1 1566   2.024   2.278   0.337 -1.4317 -0.3646  0.0039
  392SOL    HW2 1567   1.876   2.259   0.314 -1.1666 -2.9899 -1.5709
  392SOL     MW 1568   1.955   2.227   0.317 -0.3458 -0.8472 -0.3483
  393SOL     OW 1569   0.247   2.962   2.865 -0.3623 -0.5042 -0.1404
  393SOL    HW1 1570   0.328   2.934   2.822  2.5578 -0.9703  1.6473
  393SOL    HW2 1571   0.253   3.058   2.856 -2.0753 -0.4841  0.9584
  393SOL     MW 1572   0.258   2.971   2.858 -0.2030 -0.5631  0.2405
  394SOL     OW 1573   1.044   1.783   1.511 -0.1667  0.2026  0.4210
  394SOL    HW1 1574   1.062   1.823   1.600  0.9390  1.1619  0.2368
  394SOL    HW2 1575   0.980   1.842   1.475 -1.1890  1.8803  0.7712
  394SOL     MW 1576   1.038   1.796   1.518 -0.1557  0.5505  0.4429
  395SOL     OW 1577   0.921   2.945   2.711  0.4230 -0.1564  0.2563
  395SOL    HW1 1578   0.992   2.988   2.775  1.4104 -2.6751  0.4651
  395SOL    HW2 1579   0.977   2.880   2.663  0.2622 -1.5516  0.9054
  395SOL     MW 1580   0.938   2.942   2.713  0.5321 -0.6728  0.3695
  396SOL     OW 1581   0.764   1.910   2.363  0.0903  0.6022  0.0675
  396SOL    HW1 1582   0.824   1.887   2.435  0.9048 -0.7813  2.7586
  396SOL    HW2 1583   0.730   1.821   2.353  1.5209 -0.3114  1.2688
  396SOL     MW 1584   0.767   1.895   2.371  0.3865  0.2991  0.5810
  397SOL     OW 1585   0.984   2.311   1.388  0.2080  0.1470  0.0677
  397SOL    HW1 1586   1.025   2.344   1.311  4.4062 -1.0921  2.2315
  397SOL    HW2 1587   1.058   2.312   1.449  2.9497  0.9806  2.2242
  397SOL     MW 1588   0.999   2.315   1.386  1.1237  0.0935  0.6377
  398SOL     OW 1589   0.630   2.720   0.654 -0.0483  0.2576  0.2601
  398SOL    HW1 1590   0.587   2.707   0.571  0.1274  0.1079  2.2887
  398SOL    HW2 1591   0.696   2.646   0.657  0.5325 -0.1782  4.9836
  398SOL     MW 1592   0.633   2.709   0.643  0.0515  0.1803  1.1510
  399SOL     OW 1593   0.334   2.095   0.355  0.6412 -0.1086  0.8543
  399SOL    HW1 1594   0.252   2.143   0.377  1.1176 -0.6344  0.0018
  399SOL    HW2 1595   0.367   2.139   0.276  1.3257  0.2736 -1.7447
  399SOL     MW 1596   0.327   2.107   0.348  0.7944 -0.1276  0.3989
  400SOL     OW 1597   0.601   1.911   0.073 -0.3721  0.5204 -0.0104
  400SOL    HW1 1598   0.562   2.004   0.095  0.2133 -0.7826  2.1505
  400SOL    HW2 1599   0.578   1.861   0.151 -1.0339  1.2804 -1.0407
  400SOL     MW 1600   0.593   1.917   0.087 -0.3822  0.4488  0.1387
  401SOL     OW 1601   0.835   2.077   0.020  0.7462  0.0040 -0.4549
  401SOL    HW1 1602   0.917   2.026   0.042 -0.3026 -1.3008 -1.2768
  401SOL    HW2 1603   0.758   2.021   0.047 -0.9652 -0.9786 -2.1963
  401SOL     MW 1604   0.835   2.063   0.027  0.3820 -0.2978 -0.7931
  402SOL     OW 1605   0.563   3.016   1.761  0.5333  0.1245  0.5204
  402SOL    HW1 1606   0.638   3.011   1.818 -0.8369  0.8727  0.3163
  402SOL    HW2 1607   0.584   3.091   1.705  0.6781 -0.3754 -2.8142
  402SOL     MW 1608   0.576   3.025   1.761  0.3716  0.1573  0.0535
  403SOL     OW 1609   0.151   0.526   0.394  0.3968 -0.2155 -0.2966
  403SOL    HW1 1610   0.235   0.547   0.443  1.8790  3.1518  1.4055
  403SOL    HW2 1611   0.185   0.478   0.325 -0.1067 -0.3479  2.7451
  403SOL     MW 1612   0.167   0.522   0.391  0.5259  0.2113  0.3293
  404SOL     OW 1613   0.932   2.950   0.847 -0.4873  0.5404 -0.0270
  404SOL    HW1 1614   0.990   2.878   0.832 -0.7581 -0.7048  0.2420
  404SOL    HW2 1615   0.977   3.032   0.846 -0.4863  0.3290 -2.2681
  404SOL     MW 1616   0.945   2.951   0.845 -0.5229  0.3482 -0.2872
  405SOL     OW 1617   0.512   2.463   1.511  0.2255  0.1062 -0.0097
  405SOL    HW1 1618   0.528   2.550   1.482  1.3576  1.2204 -0.2789
  405SOL    HW2 1619   0.541   2.404   1.439  0.5644  1.0475 -4.5923
  405SOL     MW 1620   0.518   2.467   1.497  0.4196  0.3774 -0.6498
  406SOL     OW 1621   0.414   2.358   1.119  0.2340 -0.1681 -0.3937
  406SOL    HW1 1622   0.316   2.374   1.115 -0.5178  1.5114  2.9052
  406SOL    HW2 1623   0.415   2.284   1.180  2.3973  2.3943  0.1798
  406SOL     MW 1624   0.401   2.351   1.127  0.4202  0.3916  0.1172
  407SOL     OW 1625   0.051   2.648   1.166 -0.0892 -0.1795 -0.5943
  407SOL    HW1 1626   0.110   2.658   1.238 -0.8882 -4.4698 -1.6371
  407SOL    HW2 1627   0.108   2.644   1.088  2.2173  1.5826  1.5740
  407SOL     MW 1628   0.066   2.649   1.165  0.1097 -0.5130 -0.4458
  408SOL     OW 1629   2.126   2.128   0.753  0.0121  0.3979 -0.2373
  408SOL    HW1 1630   2.076   2.201   0.806  0.0715  2.9090 -1.1230
  408SOL    HW2 1631   2.052   2.078   0.699 -0.0354 -0.5787 -3.7884
  408SOL     MW 1632   2.110   2.131   0.753  0.0136  0.6004 -0.8227
  409SOL     OW 1633   1.625   0.120   0.829  0.1589 -0.7701  0.1796
  409SOL    HW1 1634   1.692   0.191   0.831  0.6940  0.7889 -2.1233
  409SOL    HW2 1635   1.611   0.092   0.918 -1.5939 -0.8168 -0.5740
  409SOL     MW 1636   1.632   0.126   0.841 -0.0017 -0.5705 -0.2237
  410SOL     OW 1637   1.084   2.416   1.145  0.1210  0.1728 -0.1476
  410SOL    HW1 1638   1.021   2.425   1.074 -0.3164 -0.7403 -0.3894
  410SOL    HW2 1639   1.165   2.390   1.108 -1.3374  0.3003  1.4992
  410SOL     MW 1640   1.087   2.414   1.131 -0.1291  0.0692  0.0378
  411SOL     OW 1641   2.008   2.952   2.910 -0.1791  0.0768  0.4245
  411SOL    HW1 1642   1.977   2.902   2.834  0.4455  1.0267 -0.8398
  411SOL    HW2 1643   1.986   3.043   2.894  0.3997 -0.9327 -0.6038
  411SOL     MW 1644   2.001   2.957   2.898 -0.0203  0.0689  0.1220
  412SOL     OW 1645   1.055   2.229   0.598  0.4593  0.3529  0.5513
  412SOL    HW1 1646   1.068   2.308   0.655  0.2034  0.3709  1.1356
  412SOL    HW2 1647   0.969   2.247   0.551  1.3756  0.5932 -5.1861
  412SOL     MW 1648   1.045   2.242   0.599  0.5464  0.3870 -0.1286
  413SOL     OW 1649   0.606   2.709   0.068  0.5449 -0.2310 -0.7289
  413SOL    HW1 1650   0.664   2.637   0.111 -0.0980  1.3444  0.1250
  413SOL    HW2 1651   0.638   2.717  -0.020 -1.7021  0.0891 -2.4667
  413SOL     MW 1652   0.618   2.701   0.062  0.1636  0.0191 -0.8455
  414SOL     OW 1653   1.996   3.030   1.073 -0.0061 -0.0947  0.2360
  414SOL    HW1 1654   2.033   3.110   1.104  0.8982 -0.6776 -1.2168
  414SOL    HW2 1655   2.022   3.047   0.978  3.3128 -2.5353 -0.2330
  414SOL     MW 1656   2.004   3.043   1.065  0.5511 -0.4936 -0.0175
  415SOL     OW 1657   1.610   2.825   1.114 -0.1193  0.2791 -0.0292
  415SOL    HW1 1658   1.658   2.865   1.187  0.5415  2.1751 -0.7619
  415SOL    HW2 1659   1.673   2.761   1.079 -0.3321  1.0834  0.5466
  415SOL     MW 1660   1.625   2.822   1.119 -0.0602  0.6354 -0.0499
  416SOL     OW 1661   0.628   1.708   1.478  0.4032  0.8161 -0.5158
  416SOL    HW1 1662   0.530   1.715   1.489 -1.9147  0.3564  0.6293
  416SOL    HW2 1663   0.650   1.647   1.410  2.7479  0.7703 -0.0784
  416SOL     MW 1664   0.618   1.701   1.471  0.4067  0.7494 -0.3070
  417SOL     OW 1665   0.967   0.019   2.100 -0.6480  0.4439 -0.1894
  417SOL    HW1 1666   0.879   0.029   2.142 -0.1352 -0.7326  0.5388
  417SOL    HW2 1667   0.951   0.011   2.007 -2.3992  2.7679  2.4920
  417SOL     MW 1668   0.954   0.019   2.093 -0.8114  0.5953  0.2605
  418SOL     OW 1669   0.734   2.933   0.151 -0.4496 -0.7156  0.6460
  418SOL    HW1 1670   0.805   2.913   0.088 -0.7574  1.0207  0.2264
  418SOL    HW2 1671   0.675   2.854   0.134 -0.5264 -0.7448  0.2728
  418SOL     MW 1672   0.736   2.920   0.140 -0.5004 -0.4904  0.5414
  419SOL     OW 1673   0.600   2.672   1.351  0.0700 -0.2449  0.0256
  419SOL    HW1 1674   0.608   2.764   1.388  2.4212  0.9325 -0.4921
  419SOL    HW2 1675   0.687   2.636   1.344  1.6716  0.1581 -2.7275
  419SOL     MW 1676   0.613   2.679   1.355  0.5916 -0.0364 -0.4059
  420SOL     OW 1677   0.793   2.238   1.041 -0.0437 -0.0762  0.7151
  420SOL    HW1 1678   0.756   2.246   1.129 -1.1657  0.2219  1.0361
  420SOL    HW2 1679   0.817   2.330   1.017 -0.9925 -1.7112  1.3227
  420SOL     MW 1680   0.791   2.251   1.049 -0.3169 -0.2526  0.8376
  421SOL     OW 1681   2.897   0.182   0.055 -0.0398  0.2637  0.6645
  421SOL    HW1 1682   2.854   0.107   0.015  0.6879  0.6252  0.1824
  421SOL    HW2 1683   2.986   0.155   0.068  0.4478  1.1038 -2.7571
  421SOL     MW 1684   2.903   0.169   0.051  0.1205  0.4223  0.1494
  422SOL     OW 1685   0.882   2.499   0.976  0.4323  0.0803 -0.2742
  422SOL    HW1 1686   0.806   2.555   0.985  2.2127 -2.2018 -0.9730
  422SOL    HW2 1687   0.925   2.531   0.899 -1.7535 -1.0655  0.7137
  422SOL     MW 1688   0.877   2.511   0.967  0.3788 -0.3720 -0.2361
  423SOL     OW 1689   1.474   0.060   0.475  0.1935 -0.2931  0.3839
  423SOL    HW1 1690   1.538   0.033   0.406  1.5478 -0.3463 -1.8359
  423SOL    HW2 1691   1.478   0.154   0.493  1.4354 -2.1655 -1.2677
  423SOL     MW 1692   1.483   0.068   0.468  0.5361 -0.5471 -0.1269
  424SOL     OW 1693   0.646   2.269   1.356  0.0906 -0.1055 -0.6072
  424SOL    HW1 1694   0.598   2.199   1.317 -0.3029  1.9719  0.1694
  424SOL    HW2 1695   0.681   2.237   1.439  1.7868  1.8465 -2.3497
  424SOL     MW 1696   0.645   2.256   1.362  0.2625  0.4262 -0.7346
  425SOL     OW 1697   1.690   2.792   2.031  0.0006 -0.0231 -0.0114
  425SOL    HW1 1698   1.707   2.820   1.940  1.2939 -0.5900 -1.6575
  425SOL    HW2 1699   1.758   2.727   2.047  0.9194  1.3315  1.7078
  425SOL     MW 1700   1.701   2.787   2.021  0.2925  0.0808 -0.0017
  426SOL     OW 1701   0.879   1.711   1.964  0.2458 -0.1159  0.2834
  426SOL    HW1 1702   0.808   1.726   1.902 -0.1407  1.5105 -0.9934
  426SOL    HW2 1703   0.886   1.784   2.023  0.4200 -1.5439 -1.8025
  426SOL     MW 1704   0.870   1.722   1.963  0.2178 -0.0898 -0.1603
  427SOL     OW 1705   0.394   1.728   1.898  0.0394  0.1302  0.2290
  427SOL    HW1 1706   0.439   1.671   1.842 -3.9747  2.2550  1.4536
  427SOL    HW2 1707   0.347   1.668   1.955  1.3048 -1.9202  1.6600
  427SOL     MW 1708   0.394   1.713   1.898 -0.3233  0.1400  0.5794
  428SOL     OW 1709   0.590   2.574   1.096  0.3171 -0.2132  0.4773
  428SOL    HW1 1710   0.553   2.488   1.121  0.8208 -3.2824  0.4617
  428SOL    HW2 1711   0.579   2.622   1.181  2.4479 -0.1165 -2.1356
  428SOL     MW 1712   0.584   2.569   1.111  0.6647 -0.6054  0.1305
  429SOL     OW 1713   1.156   2.722   1.089  0.0634  0.3434 -0.3806
  429SOL    HW1 1714   1.075   2.717   1.137  0.7211 -0.0628  0.4991
  429SOL    HW2 1715   1.160   2.816   1.085  2.6430  0.3395 -2.1577
  429SOL     MW 1716   1.146   2.734   1.095  0.4905  0.2893 -0.4990
  430SOL     OW 1717   1.163   2.776   0.780 -0.0690  0.3412  0.5979
  430SOL    HW1 1718   1.146   2.683   0.801 -1.5357 -1.2345  4.6090
  430SOL    HW2 1719   1.138   2.773   0.687  2.1650  0.5318  2.2053
  430SOL     MW 1720   1.157   2.764   0.770  0.0322  0.1585  1.3392
  431SOL     OW 1721   0.308   1.921   1.109  0.5053 -0.0289  0.0474
  431SOL    HW1 1722   0.384   1.874   1.081  2.9071 -0.6817 -3.9979
  431SOL    HW2 1723   0.269   1.955   1.025 -0.9195 -2.0390 -0.6752
  431SOL     MW 1724   0.313   1.919   1.094  0.6342 -0.3802 -0.5816
  432SOL     OW 1725   0.055   3.079   1.120  0.1993 -0.7343 -0.2711
  432SOL    HW1 1726   0.050   3.121   1.209 -4.7019  3.0116  0.8169
  432SOL    HW2 1727   0.018   2.998   1.144 -2.4194  2.8061  0.2437
  432SOL     MW 1728   0.049   3.074   1.135 -0.7929  0.2271 -0.0597
  433SOL     OW 1729   0.628   2.932   1.467 -0.2291  0.2965  0.3090
  433SOL    HW1 1730   0.590   2.946   1.556 -0.7047  0.5365  0.4448
  433SOL    HW2 1731   0.732   2.912   1.477  3.6947  1.1743  0.4865
  433SOL     MW 1732   0.637   2.931   1.480  0.2259  0.4440  0.3503
  434SOL     OW 1733   1.522   2.829   1.646 -0.1088 -0.4087  1.1819
  434SOL    HW1 1734   1.429   2.833   1.663  0.6712 -0.6612  2.2048
  434SOL    HW2 1735   1.513   2.785   1.559 -1.2208  1.4305  0.7088
  434SOL     MW 1736   1.509   2.824   1.637 -0.1526 -0.1993  1.2544
  435SOL     OW 1737   2.739   1.736   0.209 -0.5616 -0.5345  0.3732
  435SOL    HW1 1738   2.781   1.806   0.156  1.1143  1.3290 -1.4448
  435SOL    HW2 1739   2.650   1.755   0.194 -0.5706  0.4211 -0.5203
  435SOL     MW 1740   2.733   1.748   0.200 -0.3416 -0.1626  0.0155
  436SOL     OW 1741   1.322   2.718   0.317 -0.2745  0.1312  0.2272
  436SOL    HW1 1742   1.366   2.678   0.390  0.4748 -2.6777 -0.3579
  436SOL    HW2 1743   1.313   2.809   0.342  3.4439  0.4895 -0.8201
  436SOL     MW 1744   1.327   2.725   0.330  0.3150 -0.1921  0.0119
  437SOL     OW 1745   0.998   3.044   1.284 -0.8429  0.3686  0.3570
  437SOL    HW1 1746   1.020   3.110   1.216  0.5446 -1.9511  0.9421
  437SOL    HW2 1747   0.947   2.982   1.234 -1.0208 -0.1091 -2.0731
  437SOL     MW 1748   0.994   3.045   1.268 -0.6833 -0.0005  0.1135
  438SOL     OW 1749   0.903   2.711   1.924  0.0374  0.1942  0.7407
  438SOL    HW1 1750   0.906   2.644   1.998 -1.2938 -0.7874 -0.4239
  438SOL    HW2 1751   0.856   2.659   1.856 -2.3711 -3.4616  0.7853
  438SOL     MW 1752   0.897   2.695   1.925 -0.4560 -0.4177  0.5929
  439SOL     OW 1753   1.197   2.080   0.439 -0.5654  0.0850 -0.0480
  439SOL    HW1 1754   1.142   2.122   0.510 -2.7036 -0.4771 -1.6848
  439SOL    HW2 1755   1.193   2.150   0.368  1.7068 -0.1319  0.4772
  439SOL     MW 1756   1.189   2.095   0.439 -0.5477 -0.0178 -0.1947
  440SOL     OW 1757   1.744   2.909   3.017 -0.1820 -1.0951 -0.3007
  440SOL    HW1 1758   1.765   2.904   3.112 -0.1869  1.9096 -0.3504
  440SOL    HW2 1759   1.826   2.921   2.971  1.3327 -0.7815 -1.7817
  440SOL     MW 1760   1.758   2.910   3.023  0.0172 -0.6573 -0.5026
  441SOL     OW 1761   0.476   2.649   0.429  0.8707  0.3126 -0.0697
  441SOL    HW1 1762   0.430   2.576   0.378  1.4120 -0.5739 -2.4709
  441SOL    HW2 1763   0.426   2.724   0.399 -0.0920  2.5932 -1.2960
  441SOL     MW 1764   0.464   2.649   0.418  0.8151  0.4965 -0.5483
  442SOL     OW 1765   0.026   2.341   0.639 -0.2496 -0.2012 -0.2606
  442SOL    HW1 1766   0.021   2.437   0.619 -0.7145  1.6415 -1.9749
  442SOL    HW2 1767  -0.060   2.313   0.666  0.8195 -0.8331  0.3566
  442SOL     MW 1768   0.014   2.350   0.640 -0.1699 -0.0414 -0.4053
  443SOL     OW 1769   1.478   1.753   1.913 -0.1576 -0.1621  0.7232
  443SOL    HW1 1770   1.454   1.796   1.832  0.8459 -1.9877  2.7400
  443SOL    HW2 1771   1.477   1.662   1.889 -0.4214  1.2565  3.0638
  443SOL     MW 1772   1.475   1.747   1.899 -0.0600 -0.2158  1.2981
  444SOL     OW 1773   0.975   2.584   1.609 -0.3953 -0.1868 -0.2366
  444SOL    HW1 1774   1.040   2.553   1.672 -2.0032 -0.7738  1.0066
  444SOL    HW2 1775   0.898   2.574   1.670 -2.4539 -1.2025 -0.8298
  444SOL     MW 1776   0.973   2.579   1.626 -0.8790 -0.3982 -0.1509
  445SOL     OW 1777   1.242   0.121   1.408 -0.3337 -1.3074 -0.1784
  445SOL    HW1 1778   1.294   0.191   1.449  1.6271 -1.7716  0.4538
  445SOL    HW2 1779   1.182   0.175   1.354  0.3675  0.1869  0.5331
  445SOL     MW 1780   1.241   0.137   1.407  0.0175 -1.1715 -0.0011
  446SOL     OW 1781   2.783   2.869   1.037  0.3060  0.3162  0.4522
  446SOL    HW1 1782   2.735   2.917   0.966  1.1611 -0.9713 -0.6517
  446SOL    HW2 1783   2.837   2.814   0.987 -2.1893 -0.3884  1.3366
  446SOL     MW 1784   2.783   2.868   1.021  0.0896  0.0534  0.4232
  447SOL     OW 1785   0.028   1.934   1.559 -0.5243 -0.0980 -0.0885
  447SOL    HW1 1786   0.059   1.852   1.603  0.3431  1.4804 -0.0027
  447SOL    HW2 1787  -0.032   1.898   1.486 -1.7762 -1.6574  0.7096
  447SOL     MW 1788   0.024   1.919   1.555 -0.5751 -0.0955  0.0281
  448SOL     OW 1789   1.721   2.387   1.666  0.2674 -1.0925 -0.1435
  448SOL    HW1 1790   1.665   2.312   1.659 -3.5875  0.4739  1.0197
  448SOL    HW2 1791   1.660   2.458   1.679 -0.2906 -0.3827  2.5125
  448SOL     MW 1792   1.706   2.386   1.667 -0.3148 -0.7922  0.3604
  449SOL     OW 1793   0.897   2.958   0.401  0.4895  0.2033 -0.2740
  449SOL    HW1 1794   0.846   2.917   0.331  2.1954 -1.9794 -0.1969
  449SOL    HW2 1795   0.843   2.968   0.480  0.6512  1.2438 -0.8676
  449SOL     MW 1796   0.883   2.954   0.402  0.7359  0.0526 -0.3422
  450SOL     OW 1797   1.143   2.490   0.784 -0.4028 -0.4397  0.1080
  450SOL    HW1 1798   1.192   2.446   0.862  1.7020  0.9516 -0.7068
  450SOL    HW2 1799   1.215   2.482   0.721  1.3533 -0.3589  1.0862
  450SOL     MW 1800   1.159   2.483   0.786  0.1066 -0.2455  0.1295
  451SOL     OW 1801   0.525   1.941   1.684  0.2667  1.1204  0.2363
  451SOL    HW1 1802   0.590   1.969   1.619  2.2510  0.8931 -1.1524
  451SOL    HW2 1803   0.447   1.908   1.629  0.8350 -3.6005 -2.0367
  451SOL     MW 1804   0.523   1.940   1.668  0.6035  0.4675 -0.2469
  452SOL     OW 1805   0.348   2.639   0.016  0.6176  0.1727  0.1773
  452SOL    HW1 1806   0.431   2.688   0.027  1.3817  0.4408 -1.8340
  452SOL    HW2 1807   0.264   2.690   0.011 -1.0565  1.2529  0.9209
  452SOL     MW 1808   0.348   2.653   0.017  0.4976  0.3506  0.0101
  453SOL     OW 1809   0.268   3.029   1.571 -0.6200 -0.4327  0.0440
  453SOL    HW1 1810   0.268   2.956   1.635  0.8926 -1.2182 -1.3074
  453SOL    HW2 1811   0.319   3.000   1.492  1.7647 -1.2391  0.6291
  453SOL     MW 1812   0.275   3.016   1.569 -0.1058 -0.6427 -0.0571
  454SOL     OW 1813   0.928   2.767   1.225 -0.6914  0.3156 -0.5255
  454SOL    HW1 1814   0.909   2.685   1.281  2.5476  0.8255 -1.7206
  454SOL    HW2 1815   0.851   2.794   1.176 -2.0410 -0.5568  1.3506
  454SOL     MW 1816   0.916   2.760   1.226 -0.4421  0.2678 -0.4357
  455SOL     OW 1817   1.782   2.866   0.189  0.6481 -0.2012  0.4047
  455SOL    HW1 1818   1.827   2.854   0.271  1.5403  1.1704 -1.0012
  455SOL    HW2 1819   1.698   2.813   0.202 -1.1091 -1.3346 -1.7486
  455SOL     MW 1820   1.777   2.857   0.202  0.5340 -0.1698 -0.0649
  456SOL     OW 1821   2.766   0.269   1.461 -0.0134 -0.2076 -0.0740
  456SOL    HW1 1822   2.789   0.194   1.403 -0.2705  0.5627  0.1023
  456SOL    HW2 1823   2.820   0.341   1.428  0.1946  1.6976 -2.1105
  456SOL     MW 1824   2.776   0.269   1.449 -0.0198  0.1454 -0.3195
  457SOL     OW 1825   0.795   1.675   3.026  0.1193 -0.8164 -0.1415
  457SOL    HW1 1826   0.701   1.666   3.020  2.1240 -0.0636 -0.4260
  457SOL    HW2 1827   0.815   1.713   3.113  2.8525  0.2816 -0.3130
  457SOL     MW 1828   0.785   1.678   3.037  0.7444 -0.5722 -0.2017
  458SOL     OW 1829   1.364   1.487   0.711 -0.4368 -0.1309 -0.3859
  458SOL    HW1 1830   1.299   1.546   0.673  2.0804 -3.1196 -0.4464
  458SOL    HW2 1831   1.341   1.400   0.679 -0.7226 -0.7277  1.1333
  458SOL     MW 1832   1.353   1.484   0.701 -0.1424 -0.6040 -0.1935
  459SOL     OW 1833   1.628   3.086   0.251  0.7728 -0.1587 -0.2202
  459SOL    HW1 1834   1.677   3.008   0.219  1.4633 -0.1502 -1.7058
  459SOL    HW2 1835   1.560   3.102   0.186  0.1078  1.9106 -0.9993
  459SOL     MW 1836   1.625   3.077   0.239  0.7761  0.1154 -0.5190
  460SOL     OW 1837   1.777   2.230   0.648  0.3070 -0.0665 -0.5824
  460SOL    HW1 1838   1.687   2.226   0.687  1.5606  1.0954 -2.5636
  460SOL    HW2 1839   1.814   2.139   0.634 -0.0956 -0.2171  0.3966
  460SOL     MW 1840   1.770   2.217   0.651  0.4193  0.0669 -0.7147
  461SOL     OW 1841   0.410   2.428   0.583 -0.4993 -0.3020  0.0855
  461SOL    HW1 1842   0.465   2.505   0.560  0.6408  1.3405  0.0566
  461SOL    HW2 1843   0.414   2.419   0.680  0.7163 -1.0425 -2.0012
  461SOL     MW 1844   0.418   2.437   0.593 -0.1885 -0.1830 -0.1937
  462SOL     OW 1845   0.289   0.232   1.270  0.5056  0.3684 -0.2950
  462SOL    HW1 1846   0.342   0.200   1.196  0.0163 -1.9667 -0.7320
  462SOL    HW2 1847   0.364   0.243   1.327  0.0948 -0.3642 -0.5341
  462SOL     MW 1848   0.306   0.229   1.268  0.3868 -0.0363 -0.3842
  463SOL     OW 1849   1.074   0.056   0.764  0.2960 -0.2953  0.3473
  463SOL    HW1 1850   1.169   0.040   0.739  0.6035 -2.9270 -1.7618
  463SOL    HW2 1851   1.015   0.072   0.691  0.9140  1.8184 -0.8574
  463SOL     MW 1852   1.079   0.056   0.751  0.4181 -0.3637 -0.0899
  464SOL     OW 1853   0.761   3.102   2.260  0.0837 -0.3373 -0.5933
  464SOL    HW1 1854   0.756   3.006   2.273 -1.9659  0.7971  0.8394
  464SOL    HW2 1855   0.832   3.129   2.325 -3.2226  0.7599  0.4508
  464SOL     MW 1856   0.770   3.093   2.270 -0.6229 -0.0429 -0.2665
  465SOL     OW 1857   0.801   0.365   0.411  0.4545 -0.2675 -0.0173
  465SOL    HW1 1858   0.791   0.293   0.474  0.8332  0.0135  1.0102
  465SOL    HW2 1859   0.739   0.334   0.340 -0.8639  1.7004 -2.6552
  465SOL     MW 1860   0.792   0.351   0.410  0.3305  0.0292 -0.2298
  466SOL     OW 1861   1.095   2.033   0.807 -0.1512 -0.0357  0.3844
  466SOL    HW1 1862   1.077   1.956   0.759 -0.4197  4.7137 -1.2955
  466SOL    HW2 1863   1.091   2.101   0.736  1.7379 -0.8540  0.6158
  466SOL     MW 1864   1.092   2.032   0.792  0.0626  0.4830  0.1933
  467SOL     OW 1865   1.308   2.329   0.950  0.0958  0.7520 -0.3785
  467SOL    HW1 1866   1.396   2.354   0.983  0.8992 -0.2178 -1.1398
  467SOL    HW2 1867   1.305   2.243   0.912  0.7017  1.4581 -1.0649
  467SOL     MW 1868   1.319   2.321   0.950  0.2817  0.7172 -0.5695
  468SOL     OW 1869   0.506   2.688   1.882  0.1139  0.7769  0.0702
  468SOL    HW1 1870   0.465   2.605   1.902 -1.1293 -0.6361  0.6682
  468SOL    HW2 1871   0.429   2.737   1.832 -2.5043  1.4824  4.1266
  468SOL     MW 1872   0.491   2.683   1.878 -0.3956  0.6835  0.6843
  469SOL     OW 1873   0.342   2.098   1.841 -0.9029 -0.2676 -0.3950
  469SOL    HW1 1874   0.254   2.066   1.866  0.6750  0.3830  0.5912
  469SOL    HW2 1875   0.392   2.018   1.810  2.5851  1.1132  0.6656
  469SOL     MW 1876   0.337   2.083   1.840 -0.2345  0.0004 -0.1249
  470SOL     OW 1877   3.057   2.591   0.093  0.1176 -0.4411  0.0008
  470SOL    HW1 1878   2.979   2.592   0.155 -0.0694 -0.3161 -1.0626
  470SOL    HW2 1879   3.029   2.623   0.006  2.0518 -1.4908  0.3004
  470SOL     MW 1880   3.043   2.595   0.090  0.3481 -0.5631 -0.1000
  471SOL     OW 1881   1.176   2.614   1.379  0.0402  0.1410  0.0120
  471SOL    HW1 1882   1.096   2.570   1.404 -0.1287 -0.7802 -1.4016
  471SOL    HW2 1883   1.181   2.592   1.283  2.5036 -0.3366 -1.5948
  471SOL     MW 1884   1.166   2.605   1.369  0.3429 -0.0435 -0.3865
  472SOL     OW 1885   2.896   2.109   0.341  1.0318  0.0165 -0.2417
  472SOL    HW1 1886   2.868   2.086   0.252  1.9495  0.5149 -1.5628
  472SOL    HW2 1887   2.877   2.034   0.396 -1.1360 -2.1967  1.3078
  472SOL     MW 1888   2.890   2.096   0.336  0.8669 -0.2097 -0.2115
  473SOL     OW 1889   0.835   2.543   1.400  0.5046 -0.6898 -0.3827
  473SOL    HW1 1890   0.840   2.447   1.390  0.6087 -1.4941 -1.2735
  473SOL    HW2 1891   0.894   2.552   1.480  1.8707  1.6956 -2.6313
  473SOL     MW 1892   0.843   2.532   1.410  0.6986 -0.4812 -0.7969
  474SOL     OW 1893   0.660   2.313   1.813 -0.0991 -0.2534  0.3872
  474SOL    HW1 1894   0.739   2.299   1.866 -1.4762 -2.3995  0.8256
  474SOL    HW2 1895   0.684   2.261   1.739 -2.7391  1.4364  2.3971
  474SOL     MW 1896   0.674   2.304   1.810 -0.6291 -0.3136  0.7102
  475SOL     OW 1897   1.584   3.072   1.522 -0.2502  0.1018  0.1929
  475SOL    HW1 1898   1.519   3.064   1.449 -1.3594 -2.4365  0.8079
  475SOL    HW2 1899   1.610   2.987   1.555  0.0183  1.9279  1.6391
  475SOL     MW 1900   1.579   3.060   1.516 -0.3611  0.0078  0.4649
  476SOL     OW 1901   1.447   2.631   1.173  0.0662 -0.2086  0.5243
  476SOL    HW1 1902   1.358   2.648   1.138  2.3196 -1.5040 -0.9065
  476SOL    HW2 1903   1.509   2.706   1.145 -0.8219  2.6861 -1.4495
  476SOL     MW 1904   1.443   2.643   1.164  0.2464  0.0024  0.0751
  477SOL     OW 1905   0.830   2.544   0.645 -0.1354 -0.3152  0.7255
  477SOL    HW1 1906   0.891   2.607   0.610 -2.9219  0.0560  1.1917
  477SOL    HW2 1907   0.839   2.469   0.591  0.0093  1.0249 -1.3204
  477SOL     MW 1908   0.839   2.542   0.634 -0.4840 -0.0894  0.5171
  478SOL     OW 1909   0.215   2.628   0.948  0.2578 -0.7949 -0.1928
  478SOL    HW1 1910   0.246   2.719   0.924  0.4455  0.0011  1.5781
  478SOL    HW2 1911   0.272   2.565   0.906 -1.3575 -0.0187 -0.5018
  478SOL     MW 1912   0.226   2.632   0.939  0.0694 -0.5875  0.0000
  479SOL     OW 1913   1.395   2.002   1.266  0.0832 -0.0927  0.1598
  479SOL    HW1 1914   1.385   2.019   1.361  1.4108  0.7090 -1.0798
  479SOL    HW2 1915   1.457   1.929   1.259 -2.3122  0.5305 -2.9271
  479SOL     MW 1916   1.402   1.994   1.278 -0.0577  0.0953 -0.4110
  480SOL     OW 1917   2.014   2.441   1.335  0.2256 -0.7035  0.1937
  480SOL    HW1 1918   1.996   2.348   1.340 -0.3133  0.6243  2.7163
  480SOL    HW2 1919   2.011   2.467   1.240 -3.3328  1.3449 -2.9604
  480SOL     MW 1920   2.011   2.432   1.323 -0.3150 -0.2580  0.1104
  481SOL     OW 1921   1.045   0.107   1.083 -0.1500  0.3194 -0.3783
  481SOL    HW1 1922   1.108   0.050   1.039 -0.3389 -1.7456  1.8497
  481SOL    HW2 1923   1.096   0.181   1.114 -1.4342 -0.0740  1.1653
  481SOL     MW 1924   1.060   0.110   1.081 -0.3443 -0.0049  0.1193
  482SOL     OW 1925   1.079   0.012   0.275 -0.5190  0.5166 -0.0161
  482SOL    HW1 1926   0.997  -0.031   0.319 -1.6853  1.3566  0.4419
  482SOL    HW2 1927   1.066   0.105   0.304 -1.7264  3.0109 -0.4939
  482SOL     MW 1928   1.066   0.019   0.285 -0.8322  0.9565 -0.0187
  483SOL     OW 1929   0.420   3.003   0.443  0.2833  0.0595  0.2086
  483SOL    HW1 1930   0.341   2.999   0.387 -2.7708 -1.4019  1.0174
  483SOL    HW2 1931   0.391   3.045   0.520 -0.7910  1.2743  1.2115
  483SOL     MW 1932   0.406   3.008   0.445 -0.2614  0.0270  0.4477
  484SOL     OW 1933   1.852   1.976   1.484 -0.4804  0.8969 -1.0715
  484SOL    HW1 1934   1.921   2.038   1.465 -1.6410 -0.5712  2.2145
  484SOL    HW2 1935   1.821   1.998   1.572  0.9082 -0.3007  1.3441
  484SOL     MW 1936   1.857   1.987   1.493 -0.4503  0.5452 -0.3192
  485SOL     OW 1937   0.576   2.389   0.245  0.1786  0.1170  0.3557
  485SOL    HW1 1938   0.601   2.408   0.331  1.4739 -1.2350 -0.8506
  485SOL    HW2 1939   0.477   2.408   0.241  0.0994  3.7413  1.6902
  485SOL     MW 1940   0.566   2.394   0.255  0.3391  0.4168  0.3726
  486SOL     OW 1941   0.191   2.420   1.488  0.1696 -0.4460 -0.5403
  486SOL    HW1 1942   0.238   2.501   1.459 -0.5571  0.4586 -0.8229
  486SOL    HW2 1943   0.186   2.415   1.586  1.1105  2.2511 -1.7074
  486SOL     MW 1944   0.197   2.430   1.497  0.1978  0.0292 -0.7316
  487SOL     OW 1945   1.209   1.725   1.021  0.1137  0.4939 -0.1627
  487SOL    HW1 1946   1.170   1.809   1.058 -3.0259  2.4953  1.0486
  487SOL    HW2 1947   1.302   1.730   1.044  1.2348 -1.0547 -0.9573
  487SOL     MW 1948   1.216   1.737   1.029 -0.1526  0.5536 -0.1078
  488SOL     OW 1949   1.597   1.812   0.551 -0.4262 -0.2039  0.1769
  488SOL    HW1 1950   1.692   1.823   0.533  0.3789  1.0103  0.0502
  488SOL    HW2 1951   1.550   1.897   0.526  0.8728  1.0942  0.4321
  488SOL     MW 1952   1.603   1.825   0.546 -0.1486  0.1275  0.1939
  489SOL     OW 1953   0.796   0.830   0.608  0.0692  0.1341  0.3055
  489SOL    HW1 1954   0.798   0.755   0.542  2.6847  0.5955  0.1365
  489SOL    HW2 1955   0.783   0.786   0.691 -2.5295  0.4538  0.8135
  489SOL     MW 1956   0.795   0.814   0.611  0.0714  0.2372  0.3502
  490SOL     OW 1957   1.477   2.044   0.516 -0.5392 -0.3226  0.2832
  490SOL    HW1 1958   1.495   2.116   0.451  2.5714  0.5495 -1.4900
  490SOL    HW2 1959   1.381   2.036   0.513  1.8113  1.4729  0.2179
  490SOL     MW 1960   1.466   2.052   0.507  0.1814  0.0294  0.0407
  491SOL     OW 1961   1.268   2.962   0.429 -0.5831  0.0212 -0.0772
  491SOL    HW1 1962   1.349   3.026   0.419  0.1139  3.1834  0.4795
  491SOL    HW2 1963   1.197   3.013   0.394 -0.0836  0.0414 -0.8841
  491SOL     MW 1964   1.270   2.977   0.423 -0.4252  0.4411 -0.1102
  492SOL     OW 1965   1.533   2.223   0.749 -0.2224  0.3952  0.5885
  492SOL    HW1 1966   1.507   2.161   0.684  0.4700  1.2929  0.2388
  492SOL    HW2 1967   1.517   2.178   0.827 -1.2610  1.5385  0.1246
  492SOL     MW 1968   1.528   2.209   0.751 -0.2681  0.6645  0.4811
  493SOL     OW 1969   0.178   2.996   0.310  0.3852 -0.2186 -0.3692
  493SOL    HW1 1970   0.130   3.045   0.379  1.2421 -1.0221  0.6391
  493SOL    HW2 1971   0.175   3.041   0.230  2.1399 -0.6210 -2.3840
  493SOL     MW 1972   0.171   3.008   0.308  0.7297 -0.3777 -0.5020
  494SOL     OW 1973   0.407   2.460   1.756  0.3111  0.1216  0.1572
  494SOL    HW1 1974   0.459   2.387   1.789 -2.6837  0.2266  0.7198
  494SOL    HW2 1975   0.441   2.472   1.667  0.2430 -1.2004  1.3871
  494SOL     MW 1976   0.418   2.452   1.749 -0.0930 -0.0390  0.3937
  495SOL     OW 1977   2.840   1.732   2.580  0.3595  0.6232 -0.2933
  495SOL    HW1 1978   2.803   1.824   2.561  0.0930  3.5079 -1.8130
  495SOL    HW2 1979   2.837   1.696   2.678  1.1338  1.1460  0.4896
  495SOL     MW 1980   2.834   1.739   2.591  0.4265  1.0728 -0.3905
  496SOL     OW 1981   2.936   2.369   2.672  0.1146 -0.0134 -0.1734
  496SOL    HW1 1982   2.994   2.311   2.722 -1.7213 -0.3085 -2.8028
  496SOL    HW2 1983   2.974   2.457   2.673 -1.8232  0.8057  3.2398
  496SOL     MW 1984   2.949   2.373   2.679 -0.3833  0.0558 -0.0700
  497SOL     OW 1985   1.578   2.196   2.627 -0.3067 -0.1134  0.5076
  497SOL    HW1 1986   1.511   2.127   2.614 -3.1993  0.1713  0.7959
  497SOL    HW2 1987   1.632   2.153   2.695  0.4919 -0.8486 -0.5688
  497SOL     MW 1988   1.576   2.181   2.634 -0.5830 -0.1728  0.4036
  498SOL     OW 1989   1.477   2.690   2.383  0.3819  0.3212  0.1811
  498SOL    HW1 1990   1.437   2.602   2.390  1.1844 -0.3229  1.9957
  498SOL    HW2 1991   1.568   2.677   2.378  1.3528  0.3178 -0.9440
  498SOL     MW 1992   1.483   2.677   2.383  0.6159  0.2357  0.2721
  499SOL     OW 1993   1.011   0.165   3.047 -0.1467 -0.0320 -0.2563
  499SOL    HW1 1994   0.957   0.169   3.121  3.4519  0.9851 -1.5374
  499SOL    HW2 1995   1.064   0.087   3.059 -3.2812  0.9930 -2.1854
  499SOL     MW 1996   1.011   0.155   3.058 -0.0855  0.2374 -0.6799
  500SOL     OW 1997   1.070   2.490   2.743 -1.0900  0.2568 -0.0097
  500SOL    HW1 1998   1.143   2.478   2.807 -1.0227 -2.6989  1.3366
  500SOL    HW2 1999   0.998   2.497   2.803  0.7901  3.7289  0.1590
  500SOL     MW 2000   1.070   2.489   2.759 -0.8331  0.3249  0.1901
  501SOL     OW 2001   1.787   2.197   3.080 -0.2052  0.1438  0.1195
  501SOL    HW1 2002   1.744   2.279   3.097 -0.5620 -0.4537  0.5255
  501SOL    HW2 2003   1.872   2.202   3.128 -1.8213  2.3472 -0.4094
  501SOL     MW 2004   1.793   2.208   3.088 -0.4655  0.3557  0.1033
  502SOL     OW 2005   0.152   2.806   3.064 -0.1730  0.0078 -0.6377
  502SOL    HW1 2006   0.088   2.767   3.005 -0.4533 -0.5729  3.4845
  502SOL    HW2 2007   0.193   2.879   3.007  1.3659 -0.8360 -1.0349
  502SOL     MW 2008   0.149   2.810   3.049 -0.0069 -0.1802 -0.1462
  503SOL     OW 2009   0.984   2.858   2.163 -0.4839  0.1116 -0.0996
  503SOL    HW1 2010   0.926   2.814   2.105  1.2671  1.9530  2.0826
  503SOL    HW2 2011   0.979   2.955   2.161 -0.7317 -4.0647  1.6121
  503SOL     MW 2012   0.976   2.865   2.155 -0.2856 -0.1964  0.4142
  504SOL     OW 2013   0.040   2.735   2.146 -0.0022  0.5025  0.3369
  504SOL    HW1 2014   0.061   2.655   2.100  1.3481  0.2184 -2.4694
  504SOL    HW2 2015   0.058   2.716   2.241 -0.9351  2.1643  4.5310
  504SOL     MW 2016   0.045   2.722   2.153  0.0528  0.6843  0.5200
  505SOL     OW 2017   1.704   2.714   2.669  0.2198  0.4819 -0.2553
  505SOL    HW1 2018   1.704   2.677   2.583  1.7226  3.0246  0.8407
  505SOL    HW2 2019   1.613   2.699   2.702 -1.1550  1.9816 -0.8173
  505SOL     MW 2020   1.692   2.707   2.662  0.2367  1.0152 -0.1849
  506SOL     OW 2021   1.607   3.019   2.812  0.1624  0.1904 -0.2147
  506SOL    HW1 2022   1.661   2.984   2.885 -0.9446 -1.4909  0.3219
  506SOL    HW2 2023   1.671   3.016   2.738  0.8676  0.4490  0.9652
  506SOL     MW 2024   1.622   3.014   2.812  0.1094  0.0027  0.0117
  507SOL     OW 2025   0.845   2.740   2.856 -0.0451  0.0864  0.2073
  507SOL    HW1 2026   0.890   2.802   2.800 -0.7866 -2.2387  5.5273
  507SOL    HW2 2027   0.773   2.787   2.895  2.1473 -0.0075 -0.0621
  507SOL     MW 2028   0.842   2.754   2.854  0.1464 -0.2328  0.8737
  508SOL     OW 2029   1.129   2.047   2.533 -0.1537 -0.1047  0.1301
  508SOL    HW1 2030   1.203   2.010   2.582 -1.5435  0.5751  0.6928
  508SOL    HW2 2031   1.097   2.124   2.581 -0.0416 -2.7752  2.1520
  508SOL     MW 2032   1.134   2.052   2.545 -0.3223 -0.3674  0.4711
  509SOL     OW 2033   0.614   2.556   2.940 -0.1313 -0.0301  0.3408
  509SOL    HW1 2034   0.624   2.590   2.854  0.1730 -1.5439  3.2967
  509SOL    HW2 2035   0.524   2.532   2.951 -0.4274 -0.4299 -2.9214
  509SOL     MW 2036   0.603   2.557   2.930 -0.1302 -0.2826  0.3004
  510SOL     OW 2037   1.519   2.563   1.722 -0.4310  0.2536  0.4521
  510SOL    HW1 2038   1.526   2.654   1.706 -2.8156  1.6354  2.1460
  510SOL    HW2 2039   1.465   2.552   1.799 -1.6294 -1.1234 -2.4389
  510SOL     MW 2040   1.513   2.573   1.730 -0.9037  0.2543  0.2942
  511SOL     OW 2041   0.392   2.611   2.427 -0.4865  0.2587  0.0857
  511SOL    HW1 2042   0.460   2.572   2.488  0.2890  3.9571 -0.8649
  511SOL    HW2 2043   0.446   2.588   2.345 -0.8988 -3.5994 -0.9142
  511SOL     MW 2044   0.408   2.603   2.424 -0.4386  0.2376 -0.1716
  512SOL     OW 2045   1.012   1.976   2.820  0.2669  0.1075  0.1225
  512SOL    HW1 2046   0.924   2.000   2.847 -1.0388  0.4054 -1.1912
  512SOL    HW2 2047   1.025   1.892   2.863 -0.8545  0.0855 -0.2599
  512SOL     MW 2048   1.002   1.968   2.829 -0.0534  0.1439 -0.1013
  513SOL     OW 2049   1.442   2.401   2.394 -0.2465 -0.3648 -0.1128
  513SOL    HW1 2050   1.534   2.419   2.385  0.5088  1.2465 -1.1316
  513SOL    HW2 2051   1.440   2.308   2.415  0.5623  0.5375  3.1517
  513SOL     MW 2052   1.454   2.391   2.396 -0.0401 -0.0332  0.1835
  514SOL     OW 2053   0.244   2.444   2.620  0.0679 -0.3518 -0.1604
  514SOL    HW1 2054   0.282   2.504   2.560 -0.9744  0.3932 -0.6237
  514SOL    HW2 2055   0.261   2.481   2.711 -1.2423 -0.3830 -0.3755
  514SOL     MW 2056   0.251   2.457   2.624 -0.2425 -0.2576 -0.2499
  515SOL     OW 2057   1.089   2.038   1.962  0.4502 -0.2875  0.1433
  515SOL    HW1 2058   1.021   2.108   1.953  2.8790 -2.1353  0.5381
  515SOL    HW2 2059   1.114   2.046   2.051  1.1164 -0.5963  1.4190
  515SOL     MW 2060   1.083   2.048   1.972  0.8586 -0.5721  0.3637
  516SOL     OW 2061   1.468   2.519   3.078  0.0726  0.3182 -0.1591
  516SOL    HW1 2062   1.518   2.534   2.991  3.2365  0.1810  1.4476
  516SOL    HW2 2063   1.379   2.499   3.046 -2.1106 -1.0730 -2.5123
  516SOL     MW 2064   1.463   2.518   3.062  0.2020  0.1165 -0.2576
  517SOL     OW 2065   0.603   2.402   2.141 -0.1444  0.3501 -0.3934
  517SOL    HW1 2066   0.574   2.491   2.151  2.2467 -1.6907 -0.5583
  517SOL    HW2 2067   0.523   2.367   2.117 -0.4335  2.1973  0.1583
  517SOL     MW 2068   0.589   2.409   2.139  0.1330  0.3246 -0.3424
  518SOL     OW 2069   1.899   0.096   2.942 -0.3180 -0.3083  0.4249
  518SOL    HW1 2070   1.857   0.160   2.884  0.9290 -0.7414  0.2963
  518SOL    HW2 2071   1.841   0.088   3.020  1.1246 -2.0673  1.9151
  518SOL     MW 2072   1.885   0.103   2.944  0.0369 -0.5975  0.6046
  519SOL     OW 2073   0.742   2.576   1.754  0.6163  0.2414  0.2305
  519SOL    HW1 2074   0.720   2.486   1.761 -3.3588 -1.5920 -3.0810
  519SOL    HW2 2075   0.663   2.618   1.788  0.1187 -0.8727  0.2700
  519SOL     MW 2076   0.729   2.570   1.760  0.0261 -0.1475 -0.2012
  520SOL     OW 2077   1.255   2.111   2.941 -0.5897  0.0902 -0.6095
  520SOL    HW1 2078   1.185   2.054   2.911 -0.9838  1.0196 -1.2456
  520SOL    HW2 2079   1.302   2.073   3.016 -2.4731  0.6781 -1.6202
  520SOL     MW 2080   1.252   2.099   2.947 -0.8902  0.2904 -0.8268
  521SOL     OW 2081   1.733   2.038   2.242 -0.0297 -0.0887 -0.4771
  521SOL    HW1 2082   1.723   2.058   2.150 -0.6458 -0.4825 -0.4281
  521SOL    HW2 2083   1.720   1.944   2.242 -1.6075  0.0282 -0.8607
  521SOL     MW 2084   1.730   2.028   2.230 -0.3192 -0.1252 -0.5212
  522SOL     OW 2085   2.832   2.545   2.179 -0.0484 -0.1797 -0.1999
  522SOL    HW1 2086   2.907   2.513   2.224 -1.2038  2.8868 -2.3868
  522SOL    HW2 2087   2.777   2.578   2.249 -2.2657 -3.5655 -2.3795
  522SOL     MW 2088   2.834   2.545   2.194 -0.4934 -0.2218 -0.7760
  523SOL     OW 2089   0.861   1.490   2.115  0.0807 -0.1645  0.1078
  523SOL    HW1 2090   0.847   1.559   2.048 -0.3169 -1.2344  0.7282
  523SOL    HW2 2091   0.922   1.424   2.069 -1.8162 -1.1316 -1.7205
  523SOL     MW 2092   0.868   1.490   2.100 -0.2220 -0.4332 -0.0516
  524SOL     OW 2093   0.889   2.469   2.951 -0.2443  0.1453  0.4168
  524SOL    HW1 2094   0.825   2.532   2.912 -0.5313  0.7511 -2.8045
  524SOL    HW2 2095   0.850   2.386   2.925  0.3772  0.8056 -0.9314
  524SOL     MW 2096   0.875   2.466   2.943 -0.2002  0.3123 -0.1861
  525SOL     OW 2097   0.349   2.259   2.075  0.0786  0.0339  0.1623
  525SOL    HW1 2098   0.324   2.191   2.147  0.3372 -0.7557  0.5004
  525SOL    HW2 2099   0.346   2.209   1.987 -0.4836  1.7393 -0.8939
  525SOL     MW 2100   0.345   2.243   2.073  0.0386  0.1547  0.0676
  526SOL     OW 2101   0.646   2.082   2.023 -0.5023  0.0062  0.8140
  526SOL    HW1 2102   0.629   2.134   1.944 -0.2525 -1.6869  1.8650
  526SOL    HW2 2103   0.595   2.114   2.093  1.0449 -2.4813 -0.1277
  526SOL     MW 2104   0.637   2.093   2.022 -0.2652 -0.5454  0.8284
  527SOL     OW 2105   1.357   1.966   2.042  0.5990 -0.3289  0.1093
  527SOL    HW1 2106   1.337   1.927   2.125  0.2394  1.9030  0.8828
  527SOL    HW2 2107   1.390   1.900   1.980 -0.1702 -2.8956  0.9239
  527SOL     MW 2108   1.359   1.952   2.045  0.4501 -0.3731  0.3188
  528SOL     OW 2109   0.655   2.919   2.927 -0.2039  0.5387  0.3452
  528SOL    HW1 2110   0.688   3.005   2.947 -0.7333 -0.9976  2.0967
  528SOL    HW2 2111   0.590   2.939   2.862 -1.2103  1.8193  1.1039
  528SOL     MW 2112   0.651   2.933   2.921 -0.4066  0.5050  0.6764
  529SOL     OW 2113   0.934   2.267   1.921  0.4630 -0.2009  0.6545
  529SOL    HW1 2114   0.962   2.318   1.995  2.0826 -0.4871  1.2488
  529SOL    HW2 2115   0.988   2.312   1.854 -1.2412  0.2977  2.9197
  529SOL     MW 2116   0.945   2.279   1.922  0.4518 -0.1729  1.0318
  530SOL     OW 2117   1.215   2.418   2.987  0.4224 -0.1828  0.1302
  530SOL    HW1 2118   1.139   2.449   3.047  0.7805 -1.3542 -0.8354
  530SOL    HW2 2119   1.197   2.324   2.981 -0.6978  1.5349  0.3371
  530SOL     MW 2120   1.202   2.410   2.994  0.3218 -0.1107  0.0301
  531SOL     OW 2121   0.931   1.854   2.569 -0.4615 -0.3590 -0.3834
  531SOL    HW1 2122   0.990   1.926   2.575 -1.4335  2.3264  2.1302
  531SOL    HW2 2123   0.864   1.869   2.645  0.0456  1.9213 -2.8407
  531SOL     MW 2124   0.930   1.866   2.580 -0.5228  0.2962 -0.3760
  532SOL     OW 2125   1.784   0.284   2.768  0.4125 -0.5162 -0.0550
  532SOL    HW1 2126   1.720   0.252   2.705 -1.8576 -1.4138 -0.2618
  532SOL    HW2 2127   1.869   0.282   2.716  1.1676 -0.8212 -0.8153
  532SOL     MW 2128   1.787   0.279   2.753  0.2126 -0.6749 -0.1826
  533SOL     OW 2129   1.881   2.639   3.073  0.7639 -0.7899  0.3862
  533SOL    HW1 2130   1.843   2.561   3.118  1.1269 -2.6868  0.4004
  533SOL    HW2 2131   1.819   2.705   3.073  0.8577  1.2286  0.3574
  533SOL     MW 2132   1.868   2.637   3.079  0.8242 -0.7738  0.3843
  534SOL     OW 2133   1.738   2.387   2.479 -0.3006 -0.1954 -0.2451
  534SOL    HW1 2134   1.685   2.323   2.534 -2.6533  1.0549 -0.3768
  534SOL    HW2 2135   1.824   2.386   2.529  0.2352 -1.3656  3.1188
  534SOL     MW 2136   1.742   2.378   2.493 -0.5403 -0.1848  0.1814
  535SOL     OW 2137   1.884   2.408   1.895  0.2414  0.3837 -0.7336
  535SOL    HW1 2138   1.823   2.418   1.822 -0.1457  1.1035 -1.5274
  535SOL    HW2 2139   1.976   2.388   1.871  0.1600 -0.3717  0.6226
  535SOL     MW 2140   1.888   2.407   1.882  0.1796  0.3790 -0.6594
  536SOL     OW 2141   0.539   1.855   2.092 -0.3291  0.6127  0.1186
  536SOL    HW1 2142   0.499   1.832   2.006  0.0791  2.4652  1.0144
  536SOL    HW2 2143   0.607   1.918   2.064 -2.7253 -1.6948  0.0212
  536SOL     MW 2144   0.543   1.861   2.077 -0.5914  0.5527  0.2240
  537SOL     OW 2145   1.083   0.226   2.778 -0.3793  0.4059  0.4501
  537SOL    HW1 2146   1.057   0.258   2.868  2.5859  1.5661 -0.1417
  537SOL    HW2 2147   1.071   0.307   2.722  1.6957  1.9414 -0.7187
  537SOL     MW 2148   1.078   0.241   2.782  0.2857  0.7616  0.2178
  538SOL     OW 2149   1.448   0.065   0.042 -0.5602 -0.0180  0.3122
  538SOL    HW1 2150   1.420   0.150   0.074 -0.0408  1.4478  0.5484
  538SOL    HW2 2151   1.377   0.005   0.039 -1.5674  0.7275 -3.3730
  538SOL     MW 2152   1.435   0.068   0.046 -0.6246  0.2737 -0.1429
  539SOL     OW 2153   0.685   2.798   2.563 -0.4396  0.0835  0.1904
  539SOL    HW1 2154   0.768   2.834   2.592 -0.0092 -1.4194  0.2846
  539SOL    HW2 2155   0.703   2.709   2.586  1.9489 -0.7048  2.4218
  539SOL     MW 2156   0.699   2.791   2.570 -0.0677 -0.2188  0.4973
  540SOL     OW 2157   0.248   2.476   2.905 -0.1361 -0.0975 -0.1628
  540SOL    HW1 2158   0.235   2.552   2.966  0.6309  1.7380 -0.0583
  540SOL    HW2 2159   0.227   2.391   2.956  1.1055  1.0662  2.5854
  540SOL     MW 2160   0.244   2.475   2.920  0.1289  0.2982  0.2136
  541SOL     OW 2161   0.221   2.933   2.119  0.1839 -0.0926  0.0635
  541SOL    HW1 2162   0.144   2.875   2.122  1.1797  1.2377  1.2181
  541SOL    HW2 2163   0.261   2.914   2.205  1.3983 -0.6697  2.5757
  541SOL     MW 2164   0.216   2.923   2.131  0.4755  0.0067  0.5473
  542SOL     OW 2165   0.993   2.262   2.629  0.2400 -0.2452 -1.0367
  542SOL    HW1 2166   0.932   2.222   2.694 -0.7183  0.4265 -2.0470
  542SOL    HW2 2167   1.023   2.349   2.674 -1.3454  0.5884  0.5108
  542SOL     MW 2168   0.989   2.268   2.644 -0.0956 -0.0466 -0.9658
  543SOL     OW 2169   1.631   2.449   2.798 -0.4414 -0.0530  0.0452
  543SOL    HW1 2170   1.579   2.383   2.744 -0.4539 -2.7599 -0.1827
  543SOL    HW2 2171   1.687   2.510   2.750 -0.5313 -2.0123 -0.4502
  543SOL     MW 2172   1.632   2.449   2.785 -0.4549 -0.6687 -0.0503
  544SOL     OW 2173   0.721   0.250   2.694 -0.4660  0.7838  0.0561
  544SOL    HW1 2174   0.624   0.240   2.697 -0.2880  2.0403 -1.8307
  544SOL    HW2 2175   0.746   0.201   2.615 -2.2856 -0.5892  1.7842
  544SOL     MW 2176   0.712   0.242   2.684 -0.6826  0.7684  0.0351
  545SOL     OW 2177   1.488   2.124   2.321 -0.0965  0.2068  0.2012
  545SOL    HW1 2178   1.483   2.167   2.236 -0.2600 -0.3509 -1.5820
  545SOL    HW2 2179   1.578   2.077   2.305  0.9388 -0.9592  0.4760
  545SOL     MW 2180   1.499   2.124   2.307  0.0185 -0.0206  0.0022
  546SOL     OW 2181   2.865   1.973   0.093  0.3030 -0.4909  0.3595
  546SOL    HW1 2182   2.864   2.058   0.052  1.0618 -1.6938 -0.0495
  546SOL    HW2 2183   2.960   1.947   0.112 -0.6042  3.1569 -1.8996
  546SOL     MW 2184   2.878   1.981   0.090  0.2834 -0.1683  0.0075
  547SOL     OW 2185   0.225   0.055   0.084  0.1034  0.2068 -0.1601
  547SOL    HW1 2186   0.295   0.042   0.027 -2.1105 -0.9334  0.3156
  547SOL    HW2 2187   0.145   0.027   0.033 -1.6037  0.9818 -1.0505
  547SOL     MW 2188   0.223   0.050   0.070 -0.4140  0.1586 -0.2148
  548SOL     OW 2189   0.313   2.458   0.207 -0.1760  0.8034  0.0172
  548SOL    HW1 2190   0.327   2.510   0.126  0.8550 -0.5050 -0.7825
  548SOL    HW2 2191   0.226   2.414   0.198  1.8976  3.8756 -1.2982
  548SOL     MW 2192   0.303   2.459   0.195  0.2336  1.0361 -0.2618
  549SOL     OW 2193   0.870   1.919   2.130 -0.1483 -0.2744 -0.9966
  549SOL    HW1 2194   0.825   1.993   2.085  0.9553 -1.1763  1.4289
  549SOL    HW2 2195   0.824   1.920   2.219 -3.1835  0.2506  1.6961
  549SOL     MW 2196   0.858   1.929   2.136 -0.4032 -0.3241 -0.3213
  550SOL     OW 2197   1.910   1.741   2.515  0.2437 -0.6636  0.0284
  550SOL    HW1 2198   1.857   1.761   2.434  2.6937  0.8637 -0.9418
  550SOL    HW2 2199   1.870   1.803   2.581 -0.8914 -1.9326 -1.5462
  550SOL     MW 2200   1.898   1.752   2.513  0.4172 -0.6295 -0.3074
  551SOL     OW 2201   0.893   2.215   0.254  0.6252  0.0170 -0.5180
  551SOL    HW1 2202   0.984   2.237   0.232 -2.5220  0.6323  0.6435
  551SOL    HW2 2203   0.853   2.175   0.181 -1.6837 -0.5840  3.1894
  551SOL     MW 2204   0.900   2.212   0.241 -0.0947  0.0189  0.1244
  552SOL     OW 2205   1.745   1.773   2.277 -0.3065 -0.8698 -0.7804
  552SOL    HW1 2206   1.659   1.734   2.291 -4.9836 -1.1223  2.4023
  552SOL    HW2 2207   1.775   1.723   2.197 -0.3790 -1.6118 -0.0072
  552SOL     MW 2208   1.738   1.761   2.268 -0.9332 -1.0010 -0.2585
  553SOL     OW 2209   1.206   2.306   1.545  0.1771  0.1610 -0.2202
  553SOL    HW1 2210   1.246   2.215   1.529  0.6674  0.0294 -0.4382
  553SOL    HW2 2211   1.269   2.366   1.506  1.4564  0.3617 -0.6248
  553SOL     MW 2212   1.220   2.302   1.537  0.4106  0.1701 -0.3024
  554SOL     OW 2213   0.487   2.907   2.722  0.2788  0.2568 -0.1781
  554SOL    HW1 2214   0.449   2.981   2.673  2.7458 -0.2272  1.5238
  554SOL    HW2 2215   0.553   2.870   2.661 -2.8981 -1.4501 -2.9524
  554SOL     MW 2216   0.491   2.912   2.708  0.1852 -0.0323 -0.3196
  555SOL     OW 2217   0.576   2.487   2.601  0.2353  0.2735  0.5093
  555SOL    HW1 2218   0.525   2.407   2.627 -1.3384  0.0595 -1.1371
  555SOL    HW2 2219   0.650   2.443   2.551  0.4052  0.2676  3.4866
  555SOL     MW 2220   0.579   2.470   2.598  0.0501  0.2445  0.6849
  556SOL     OW 2221   1.060   1.893   0.048  0.4474 -0.5895  0.0557
  556SOL    HW1 2222   1.077   1.830  -0.022  1.9096 -2.1233  1.0364
  556SOL    HW2 2223   1.134   1.887   0.104  0.2569 -0.0721  0.3811
  556SOL     MW 2224   1.072   1.884   0.046  0.6152 -0.7236  0.2280
  557SOL     OW 2225   1.032   2.721   0.535  0.2946  0.3538  0.1413
  557SOL    HW1 2226   1.090   2.664   0.473  1.8651 -0.7220  3.0994
  557SOL    HW2 2227   1.011   2.802   0.486  0.5483  0.7780  0.1984
  557SOL     MW 2228   1.037   2.724   0.520  0.5353  0.2678  0.5391
  558SOL     OW 2229   0.186   2.224   3.045  0.5387 -0.2464  0.4192
  558SOL    HW1 2230   0.119   2.214   2.978 -0.8892  2.0158  0.0094
  558SOL    HW2 2231   0.140   2.235   3.123  0.4271 -1.5744  0.4932
  558SOL     MW 2232   0.171   2.224   3.046  0.3356 -0.1232  0.3749
  559SOL     OW 2233   1.061   2.356   2.139  0.3801  0.2023  0.2347
  559SOL    HW1 2234   1.152   2.363   2.123 -0.6515 -1.4669  0.4280
  559SOL    HW2 2235   1.062   2.278   2.201  0.0743  1.8480  2.6279
  559SOL     MW 2236   1.073   2.346   2.145  0.2036  0.1992  0.5760
  560SOL     OW 2237   2.093   2.675   0.150  0.7259 -0.4286  0.4169
  560SOL    HW1 2238   2.149   2.746   0.113  1.9973  1.0081  1.7231
  560SOL    HW2 2239   2.022   2.674   0.085  2.1181  2.2518 -0.5221
  560SOL     MW 2240   2.091   2.684   0.137  1.0773  0.1146  0.4654
  561SOL     OW 2241   0.501   2.166   0.111  0.1779  0.5191  0.6551
  561SOL    HW1 2242   0.476   2.185   0.019  0.7763  1.4906  1.9151
  561SOL    HW2 2243   0.537   2.247   0.154 -0.2744 -2.7648  1.8841
  561SOL     MW 2244   0.503   2.179   0.104  0.1972  0.2140  0.9835
  562SOL     OW 2245   0.683   2.236   2.345  0.1323  0.3416  0.7842
  562SOL    HW1 2246   0.658   2.305   2.285  2.6403  0.0691 -0.2314
  562SOL    HW2 2247   0.764   2.279   2.362  0.4236  3.5886  2.3483
  562SOL     MW 2248   0.691   2.251   2.339  0.5017  0.7341  0.8566
  563SOL     OW 2249   1.240   0.378   0.556  0.1574  0.3444 -0.1742
  563SOL    HW1 2250   1.191   0.331   0.486 -1.1745 -2.1713  1.0253
  563SOL    HW2 2251   1.223   0.321   0.640 -3.1099 -2.8877  3.8370
  563SOL     MW 2252   1.231   0.364   0.558 -0.4494 -0.4140  0.5133
  564SOL     OW 2253   1.026   2.636   2.358 -0.1469  0.3704  0.0269
  564SOL    HW1 2254   1.040   2.698   2.286  0.1619  3.3482 -1.0844
  564SOL    HW2 2255   1.068   2.685   2.430 -0.5088  0.4344 -0.7351
  564SOL     MW 2256   1.033   2.651   2.358 -0.1539  0.7717 -0.2202
  565SOL     OW 2257   2.765   2.845   2.543 -0.0641 -0.0823  0.2717
  565SOL    HW1 2258   2.736   2.919   2.489  2.3999  0.4350 -0.7357
  565SOL    HW2 2259   2.740   2.770   2.482 -2.7675 -0.1796 -0.0945
  565SOL     MW 2260   2.758   2.845   2.528 -0.0957 -0.0269  0.0904
  566SOL     OW 2261   2.188   1.959   2.353  0.1722  0.1028  0.0840
  566SOL    HW1 2262   2.172   1.892   2.289  0.8623  1.9034  2.2259
  566SOL    HW2 2263   2.264   2.012   2.326  0.1196 -2.9736  0.4937
  566SOL     MW 2264   2.196   1.957   2.341  0.2563 -0.0655  0.4207
  567SOL     OW 2265   1.206   3.011   0.047 -0.4628  0.1281  0.3270
  567SOL    HW1 2266   1.166   3.011   0.136 -0.2927 -0.3052 -0.5367
  567SOL    HW2 2267   1.233   2.921   0.013  1.5923 -1.9305 -0.4374
  567SOL     MW 2268   1.204   2.999   0.054 -0.1692 -0.2007  0.1122
  568SOL     OW 2269   1.665   2.056   2.873 -0.3142 -0.2534 -0.7432
  568SOL    HW1 2270   1.699   2.108   2.954 -0.5435  0.6262  0.0603
  568SOL    HW2 2271   1.735   2.003   2.825 -0.2083 -0.2130 -1.7223
  568SOL     MW 2272   1.678   2.056   2.878 -0.3305 -0.1320 -0.7663
  569SOL     OW 2273   0.123   2.269   2.441 -0.2329 -0.2861 -0.3322
  569SOL    HW1 2274   0.068   2.343   2.412 -0.3695 -1.2207  1.5927
  569SOL    HW2 2275   0.158   2.311   2.521 -0.1892 -3.6566 -1.6058
  569SOL     MW 2276   0.121   2.284   2.448 -0.2452 -0.8541 -0.2463
  570SOL     OW 2277   1.488   0.343   0.498 -0.2198  0.0192 -0.4981
  570SOL    HW1 2278   1.395   0.374   0.517 -2.3320  1.3822  2.0937
  570SOL    HW2 2279   1.539   0.371   0.572 -3.2232 -0.8655 -1.0476
  570SOL     MW 2280   1.482   0.350   0.510 -0.8947  0.0823 -0.2286
  571SOL     OW 2281   1.342   2.383   2.139 -0.0023  0.0008  0.1026
  571SOL    HW1 2282   1.382   2.396   2.230 -1.6271 -2.1712  1.3288
  571SOL    HW2 2283   1.399   2.317   2.097 -0.6829  0.4403  1.4848
  571SOL     MW 2284   1.354   2.376   2.145 -0.3065 -0.2278  0.4468
  572SOL     OW 2285   1.069   2.564   0.075 -0.0008 -0.4435  0.3535
  572SOL    HW1 2286   1.043   2.659   0.053 -0.1338  4.8909  1.2084
  572SOL    HW2 2287   0.980   2.534   0.104  0.9140  0.6859 -1.5695
  572SOL     MW 2288   1.054   2.573   0.076  0.1023  0.4093  0.2126
  573SOL     OW 2289   1.156   2.246   0.215  0.6187  0.2008  0.3788
  573SOL    HW1 2290   1.237   2.241   0.165 -0.7399  2.3410 -0.7200
  573SOL    HW2 2291   1.146   2.339   0.246  1.4431  0.5756  1.0007
  573SOL     MW 2292   1.166   2.258   0.212  0.5483  0.5326  0.3159
  574SOL     OW 2293   1.137   2.502   0.322  0.0903 -0.3132 -0.0921
  574SOL    HW1 2294   1.203   2.569   0.324  1.4084  2.8507  0.1660
  574SOL    HW2 2295   1.084   2.527   0.243  1.9314 -0.1510  3.5477
  574SOL     MW 2296   1.139   2.514   0.312  0.5071  0.1257  0.4222
  575SOL     OW 2297   3.065   2.178   1.641 -0.1328  0.2374  0.0188
  575SOL    HW1 2298   3.095   2.086   1.641  1.5740  0.8392  2.6409
  575SOL    HW2 2299   3.134   2.232   1.677  1.3172  0.4008 -0.8995
  575SOL     MW 2300   3.078   2.173   1.646  0.2837  0.3384  0.2436
  576SOL     OW 2301   2.865   1.882   1.973  0.2908 -0.0082 -0.2243
  576SOL    HW1 2302   2.896   1.967   1.938 -1.3172 -0.2672 -0.8081
  576SOL    HW2 2303   2.798   1.841   1.910 -1.2711 -2.4138 -2.4640
  576SOL     MW 2304   2.861   1.888   1.960 -0.1274 -0.3597 -0.5968
  577SOL     OW 2305   2.119   0.189   0.003 -0.1071 -0.8820 -0.0298
  577SOL    HW1 2306   2.057   0.175  -0.069 -2.1490 -3.7205 -0.0771
  577SOL    HW2 2307   2.081   0.139   0.077 -1.2055  1.3843 -2.5583
  577SOL     MW 2308   2.106   0.181   0.003 -0.5214 -0.9575 -0.3696
  578SOL     OW 2309   1.965   2.130   2.379  0.4315  0.7327  0.0260
  578SOL    HW1 2310   1.902   2.084   2.320 -0.7492 -1.7860  3.5389
  578SOL    HW2 2311   2.033   2.061   2.374 -0.3835 -0.1752 -0.6222
  578SOL     MW 2312   1.966   2.115   2.370  0.1682  0.2806  0.4040
  579SOL     OW 2313   0.856   2.449   2.471 -0.2427  0.1031 -0.3816
  579SOL    HW1 2314   0.919   2.392   2.511 -2.4945 -2.5431 -0.4617
  579SOL    HW2 2315   0.920   2.502   2.422 -0.8313  1.1176 -0.0085
  579SOL     MW 2316   0.873   2.449   2.470 -0.6175 -0.1122 -0.3429
  580SOL     OW 2317   0.962   2.845   3.086  0.2048  0.4255 -0.2688
  580SOL    HW1 2318   1.034   2.904   3.064  0.6164  0.3092 -3.6037
  580SOL    HW2 2319   0.941   2.807   3.003  0.6019  0.9703  0.1445
  580SOL     MW 2320   0.969   2.848   3.072  0.3115  0.4821 -0.6543
  581SOL     OW 2321   1.121   2.425   1.769  0.0207  0.5163 -0.0621
  581SOL    HW1 2322   1.188   2.475   1.811 -0.2378  1.6468  0.2248
  581SOL    HW2 2323   1.156   2.384   1.689  1.0543 -1.5586 -2.3852
  581SOL     MW 2324   1.134   2.426   1.764  0.1229  0.3917 -0.3308
  582SOL     OW 2325   3.099   2.907   2.667 -0.0301  0.4134 -0.3310
  582SOL    HW1 2326   3.021   2.964   2.688  0.8829  0.6339 -2.5821
  582SOL    HW2 2327   3.178   2.952   2.695 -0.7527  1.4627 -2.8204
  582SOL     MW 2328   3.099   2.921   2.674 -0.0050  0.5809 -0.9565
  583SOL     OW 2329   1.971   2.386   2.618  0.1271  0.5625 -0.1485
  583SOL    HW1 2330   2.066   2.402   2.607 -0.4191  0.8410 -1.9594
  583SOL    HW2 2331   1.959   2.295   2.640 -0.7758 -1.0615 -3.8222
  583SOL     MW 2332   1.982   2.376   2.619 -0.0641  0.3849 -0.8721
  584SOL     OW 2333   0.142   1.893   2.198  0.2764 -0.3811  0.1759
  584SOL    HW1 2334   0.177   1.853   2.281 -1.4781 -1.8692 -2.3520
  584SOL    HW2 2335   0.200   1.968   2.198 -0.5400  1.0174 -1.8992
  584SOL     MW 2336   0.154   1.898   2.209 -0.0628 -0.3929 -0.4314
  585SOL     OW 2337   1.564   2.706   0.161 -0.3322  0.1681  0.0289
  585SOL    HW1 2338   1.521   2.659   0.090 -1.6926  1.9706  1.9805
  585SOL    HW2 2339   1.496   2.712   0.231  0.7607 -0.1201  2.1740
  585SOL     MW 2340   1.549   2.701   0.161 -0.3675  0.3679  0.5694
  586SOL     OW 2341   1.337   2.821   2.572 -0.0607 -0.8065 -0.0406
  586SOL    HW1 2342   1.384   2.780   2.492  1.7830 -1.0061 -0.6756
  586SOL    HW2 2343   1.344   2.916   2.575 -0.2125  2.6258 -0.1057
  586SOL     MW 2344   1.344   2.828   2.562  0.1626 -0.3799 -0.1330
  587SOL     OW 2345   1.350   1.456   2.168 -0.2340 -0.4196  0.0424
  587SOL    HW1 2346   1.304   1.386   2.210 -1.6952  0.8473 -0.9877
  587SOL    HW2 2347   1.342   1.456   2.077  0.4615 -1.7046  1.2184
  587SOL     MW 2348   1.343   1.447   2.162 -0.3350 -0.4220  0.0617
  588SOL     OW 2349   1.363   2.001   2.682 -0.3147  0.4825  0.7034
  588SOL    HW1 2350   1.379   1.906   2.695  0.7518 -1.3112  0.5180
  588SOL    HW2 2351   1.351   2.034   2.768  1.9619 -2.0089  1.6605
  588SOL     MW 2352   1.363   1.992   2.695  0.1264 -0.0829  0.8052
  589SOL     OW 2353   1.420   2.024   0.053 -0.2149  0.1103 -0.1313
  589SOL    HW1 2354   1.440   2.120   0.082  0.3008  1.1610  0.6113
  589SOL    HW2 2355   1.351   1.988   0.110 -0.4658  2.3796 -1.4338
  589SOL     MW 2356   1.414   2.032   0.064 -0.1800  0.5483 -0.2052
  590SOL     OW 2357   0.535   2.659   2.186 -0.1272  0.1663 -0.0265
  590SOL    HW1 2358   0.547   2.676   2.095  0.2386 -1.3076 -1.1339
  590SOL    HW2 2359   0.612   2.705   2.221  1.5054 -0.8482 -0.2900
  590SOL     MW 2360   0.547   2.667   2.178  0.1365 -0.1620 -0.2074
  591SOL     OW 2361   2.234   0.689   0.124  0.1995 -0.2490  0.2846
  591SOL    HW1 2362   2.161   0.700   0.191 -3.5188  1.7018  3.8417
  591SOL    HW2 2363   2.205   0.733   0.044 -0.7384 -1.6247  1.8027
  591SOL     MW 2364   2.221   0.697   0.122 -0.4148 -0.1731  0.9542
  592SOL     OW 2365   1.673   2.940   0.826 -0.3072 -0.0737 -0.1106
  592SOL    HW1 2366   1.654   3.032   0.811 -2.6905 -2.7207 -1.5557
  592SOL    HW2 2367   1.748   2.923   0.773  1.2113 -1.9552  0.8081
  592SOL     MW 2368   1.681   2.950   0.817 -0.4213 -0.6712 -0.1801
  593SOL     OW 2369   1.950   0.704   0.792 -0.5649  0.1867 -0.4518
  593SOL    HW1 2370   1.874   0.699   0.726 -1.8273  2.6257 -1.9611
  593SOL    HW2 2371   2.008   0.627   0.774  2.8723  1.3606 -0.1531
  593SOL     MW 2372   1.948   0.694   0.781 -0.2780  0.6634 -0.6116
  594SOL     OW 2373   2.779   1.034   1.415  1.3302  0.2396  0.1972
  594SOL    HW1 2374   2.867   1.057   1.385  2.1376  0.5940  3.0928
  594SOL    HW2 2375   2.741   1.000   1.330 -0.0410 -2.7910 -0.2158
  594SOL     MW 2376   2.785   1.032   1.400  1.2558 -0.1135  0.5248
  595SOL     OW 2377   0.509   0.922   0.838  0.3342 -0.0908 -0.1808
  595SOL    HW1 2378   0.491   0.986   0.771  1.1804 -0.3101 -0.4325
  595SOL    HW2 2379   0.531   0.980   0.907  0.4110  3.2658  0.4094
  595SOL     MW 2380   0.509   0.938   0.838  0.4560  0.3231 -0.1362
  596SOL     OW 2381   2.462   1.358   0.493  0.0152  0.5116  0.1949
  596SOL    HW1 2382   2.467   1.441   0.444  1.4021 -0.2395  1.1054
  596SOL    HW2 2383   2.531   1.361   0.558  1.7447  1.0207 -1.1024
  596SOL     MW 2384   2.472   1.369   0.495  0.4264  0.4797  0.1439
  597SOL     OW 2385   2.248   0.621   1.563  1.0345 -0.0432  0.5322
  597SOL    HW1 2386   2.282   0.575   1.637 -1.0354  1.4977  1.8714
  597SOL    HW2 2387   2.190   0.546   1.530 -2.2009 -2.8120 -1.1049
  597SOL     MW 2388   2.244   0.605   1.568  0.3345 -0.2052  0.4929
  598SOL     OW 2389   2.600   1.042   2.899  0.0081 -0.3198  0.1316
  598SOL    HW1 2390   2.576   0.954   2.870 -0.8355 -0.2605  0.8536
  598SOL    HW2 2391   2.694   1.041   2.887 -1.7371  2.4390 -0.0535
  598SOL     MW 2392   2.609   1.031   2.894 -0.3335  0.0520  0.2025
  599SOL     OW 2393   3.084   0.421   2.262  0.1300  0.4079  0.6506
  599SOL    HW1 2394   3.112   0.469   2.334  0.4499  0.0137 -4.8790
  599SOL    HW2 2395   3.064   0.486   2.193 -0.7744 -0.9566 -2.8700
  599SOL     MW 2396   3.085   0.436   2.262  0.0529  0.1758 -0.5435
  600SOL     OW 2397   1.846   1.718   0.825  0.0795  0.3286  0.0896
  600SOL    HW1 2398   1.876   1.744   0.911 -1.1510 -1.6136 -0.5617
  600SOL    HW2 2399   1.776   1.784   0.809 -0.7231 -0.2623  0.8276
  600SOL     MW 2400   1.841   1.730   0.834 -0.1887 -0.0056  0.1010
  601SOL     OW 2401   2.556   0.734   0.825  0.2024  0.5337  0.3443
  601SOL    HW1 2402   2.533   0.711   0.914 -2.4697  1.0734 -1.8188
  601SOL    HW2 2403   2.498   0.684   0.763 -1.6775 -2.4928 -0.0232
  601SOL     MW 2404   2.545   0.725   0.829 -0.3982  0.2056  0.0104
  602SOL     OW 2405   2.260   1.897   0.749 -0.0354 -0.2397  0.1698
  602SOL    HW1 2406   2.199   1.821   0.716 -2.7010 -0.9263 -1.2756
  602SOL    HW2 2407   2.208   1.978   0.748 -1.5558  0.9024 -0.7587
  602SOL     MW 2408   2.245   1.898   0.745 -0.5877 -0.1796 -0.1434
  603SOL     OW 2409   2.964   1.389   1.952  0.4459 -0.4295 -0.0013
  603SOL    HW1 2410   2.942   1.411   2.045  1.5699 -1.6951  1.7998
  603SOL    HW2 2411   3.021   1.313   1.955 -1.3186  2.5193  1.6203
  603SOL     MW 2412   2.968   1.382   1.964  0.3614 -0.2074  0.4503
  604SOL     OW 2413   2.022   1.374   0.389  0.2495 -0.3495  0.0307
  604SOL    HW1 2414   2.098   1.350   0.447  0.7415 -1.1516 -2.6934
  604SOL    HW2 2415   1.953   1.406   0.445 -0.2947 -0.8959  0.0041
  604SOL     MW 2416   2.023   1.375   0.404  0.2426 -0.5274 -0.3322
  605SOL     OW 2417   2.413   1.449   0.804  0.2666 -0.1435 -0.3440
  605SOL    HW1 2418   2.444   1.510   0.738 -0.8972 -0.3457  0.6041
  605SOL    HW2 2419   2.459   1.367   0.795  1.4518 -0.6159 -0.7731
  605SOL     MW 2420   2.423   1.447   0.794  0.2694 -0.2325 -0.2755
  606SOL     OW 2421   2.665   1.737   1.804  0.4991 -0.3376  0.0931
  606SOL    HW1 2422   2.575   1.765   1.785  0.6158  2.6853 -2.2142
  606SOL    HW2 2423   2.666   1.633   1.806 -0.7502 -1.6035 -1.1689
  606SOL     MW 2424   2.653   1.727   1.802  0.3497 -0.1058 -0.3778
  607SOL     OW 2425   2.380   0.984   3.063  0.1818 -0.3917  0.0762
  607SOL    HW1 2426   2.456   1.028   3.023  0.7532 -1.7612 -0.1081
  607SOL    HW2 2427   2.385   0.970   3.162 -0.8206 -1.7266  0.3908
  607SOL     MW 2428   2.391   0.988   3.070  0.1249 -0.7485  0.0934
  608SOL     OW 2429   1.868   0.236   0.532  0.2890  0.3852 -0.2002
  608SOL    HW1 2430   1.849   0.267   0.448  2.0150  2.3026  1.7702
  608SOL    HW2 2431   1.848   0.137   0.531  0.2018 -1.9367  2.4527
  608SOL     MW 2432   1.863   0.227   0.520  0.5052  0.3318  0.4098
  609SOL     OW 2433   2.121   1.881   3.084 -0.1611 -0.2494 -0.2559
  609SOL    HW1 2434   2.054   1.828   3.036  1.9168 -0.7827 -0.8895
  609SOL    HW2 2435   2.099   1.876   3.178  0.3974  0.3579  0.7175
  609SOL     MW 2436   2.109   1.873   3.090  0.1867 -0.2396 -0.2110
  610SOL     OW 2437   1.843   0.916   1.204 -0.0438 -0.0776  0.8934
  610SOL    HW1 2438   1.845   0.847   1.138 -0.5043  2.4140  0.5001
  610SOL    HW2 2439   1.746   0.941   1.197  0.3324  1.2151  0.1391
  610SOL     MW 2440   1.831   0.910   1.195 -0.0549  0.4217  0.7420
  611SOL     OW 2441   2.480   1.644   0.609 -0.0727  0.1857  0.6053
  611SOL    HW1 2442   2.549   1.643   0.537 -1.6056  2.2445 -1.2980
  611SOL    HW2 2443   2.442   1.725   0.590  2.2139 -1.3945 -0.0477
  611SOL     MW 2444   2.484   1.655   0.597  0.0268  0.2488  0.2680
  612SOL     OW 2445   2.929   2.939   0.345 -0.7584 -0.4684 -0.0644
  612SOL    HW1 2446   2.930   2.975   0.431 -0.2156  0.2764  0.8505
  612SOL    HW2 2447   3.000   2.872   0.333  2.2461 -1.1564 -2.6798
  612SOL     MW 2448   2.938   2.935   0.355 -0.2904 -0.4609 -0.2888
  613SOL     OW 2449   1.453   1.127   1.012 -0.3600 -0.3374 -0.2267
  613SOL    HW1 2450   1.480   1.217   1.007 -0.0204 -0.0225 -1.7027
  613SOL    HW2 2451   1.506   1.071   1.068 -2.8310 -2.4565  0.3552
  613SOL     MW 2452   1.464   1.131   1.019 -0.6412 -0.5754 -0.3446
  614SOL     OW 2453   2.035   0.463   1.390 -0.1427  0.0896 -0.3627
  614SOL    HW1 2454   2.004   0.416   1.463  0.0285 -1.3217  0.0187
  614SOL    HW2 2455   1.955   0.507   1.368  0.5139  1.6962 -0.0670
  614SOL     MW 2456   2.020   0.462   1.397 -0.0335  0.1153 -0.2733
  615SOL     OW 2457   2.412   0.734   0.325  0.3964  0.4125  0.2612
  615SOL    HW1 2458   2.481   0.668   0.319  1.0444  0.6198 -1.1881
  615SOL    HW2 2459   2.343   0.711   0.253 -2.5344  0.3358 -1.1899
  615SOL     MW 2460   2.412   0.723   0.315  0.0952  0.4298 -0.1214
  616SOL     OW 2461   2.563   0.424   1.605  0.3378 -0.2648  0.0575
  616SOL    HW1 2462   2.604   0.345   1.582  1.5378  1.5192  0.5777
  616SOL    HW2 2463   2.530   0.472   1.529  0.8801  2.2779  1.1583
  616SOL     MW 2464   2.564   0.420   1.592  0.5677  0.3061  0.2714
  617SOL     OW 2465   2.849   0.545   1.876 -0.9085 -0.0277  0.2552
  617SOL    HW1 2466   2.782   0.536   1.944  1.0605 -0.2069  0.5180
  617SOL    HW2 2467   2.841   0.470   1.824 -0.5974  1.9619 -0.7150
  617SOL     MW 2468   2.839   0.534   1.878 -0.6077  0.2111  0.1619
  618SOL     OW 2469   2.797   0.228   2.004 -0.4218  0.1774 -0.3815
  618SOL    HW1 2470   2.728   0.231   2.075 -2.3259  1.7981  2.2437
  618SOL    HW2 2471   2.878   0.201   2.057  1.8407 -1.5501 -0.3506
  618SOL     MW 2472   2.798   0.225   2.020 -0.3745  0.1633 -0.0311
  619SOL     OW 2473   2.711   0.699   0.094 -0.1386 -0.1250 -0.4689
  619SOL    HW1 2474   2.711   0.791   0.097 -2.4465 -0.8110 -1.2615
  619SOL    HW2 2475   2.776   0.670   0.163 -1.3838 -0.2027  2.2846
  619SOL     MW 2476   2.719   0.707   0.104 -0.6074 -0.2258 -0.2102
  620SOL     OW 2477   2.217   1.043   0.950  0.4054 -0.3019 -0.0512
  620SOL    HW1 2478   2.304   1.038   0.909 -0.3923 -1.8457 -1.4668
  620SOL    HW2 2479   2.149   1.037   0.885 -0.5610  0.7888  1.5136
  620SOL     MW 2480   2.219   1.041   0.936  0.1726 -0.3617 -0.0315
  621SOL     OW 2481   1.508   2.214   2.009  0.1066  0.0531  0.3663
  621SOL    HW1 2482   1.475   2.122   2.007  0.5339  2.6370 -2.4155
  621SOL    HW2 2483   1.602   2.220   1.984 -1.1768  1.9109 -0.9765
  621SOL     MW 2484   1.516   2.202   2.006 -0.0063  0.6392 -0.1779
  622SOL     OW 2485   2.627   0.276   0.216  0.4806  0.1954 -0.3332
  622SOL    HW1 2486   2.716   0.320   0.225  0.1442  2.1086 -1.0767
  622SOL    HW2 2487   2.658   0.185   0.218  0.5058  2.5368 -0.7857
  622SOL     MW 2488   2.643   0.270   0.218  0.4395  0.7568 -0.4910
  623SOL     OW 2489   2.360   2.761   0.834 -0.0685 -0.0080 -0.7746
  623SOL    HW1 2490   2.432   2.816   0.842 -0.8479  0.9053 -0.5185
  623SOL    HW2 2491   2.319   2.762   0.926  0.8662 -0.1978  0.4171
  623SOL     MW 2492   2.364   2.768   0.847 -0.0480  0.0875 -0.5836
  624SOL     OW 2493   2.153   1.529   3.068 -0.4616  0.0505 -0.0226
  624SOL    HW1 2494   2.097   1.457   3.055  1.7145  2.3967  1.2405
  624SOL    HW2 2495   2.102   1.601   3.038 -0.9707  2.2276 -0.7544
  624SOL     MW 2496   2.139   1.529   3.062 -0.2417  0.6473  0.0475
  625SOL     OW 2497   2.187   1.891   1.017 -0.3116 -0.1316  0.1797
  625SOL    HW1 2498   2.206   1.820   1.077 -0.1096  0.5935  0.1722
  625SOL    HW2 2499   2.212   1.860   0.928  2.8096 -0.4374 -0.6167
  625SOL     MW 2500   2.193   1.877   1.013  0.1269 -0.0763  0.0737
  626SOL     OW 2501   0.196   1.829   2.466  0.6983  0.2960 -0.3511
  626SOL    HW1 2502   0.146   1.750   2.470  0.1948  3.7567  2.3326
  626SOL    HW2 2503   0.127   1.895   2.479 -0.8519 -0.2341  4.2152
  626SOL     MW 2504   0.180   1.827   2.468  0.4273  0.6827  0.6055
  627SOL     OW 2505   2.589   0.815   2.579  0.5808 -1.1875  0.1690
  627SOL    HW1 2506   2.510   0.852   2.624 -1.5803  0.6079 -0.2339
  627SOL    HW2 2507   2.549   0.777   2.499  0.6112 -1.1142  0.0566
  627SOL     MW 2508   2.573   0.815   2.574  0.2997 -0.9410  0.1010
  628SOL     OW 2509   2.325   1.380   1.295  0.2807  0.9322  0.7573
  628SOL    HW1 2510   2.280   1.308   1.249  3.3155  1.9477 -0.2201
  628SOL    HW2 2511   2.387   1.417   1.232 -1.4172  4.9345  0.6397
  628SOL     MW 2512   2.327   1.376   1.281  0.4571  1.5942  0.6128
  629SOL     OW 2513   1.814   0.619   1.314  0.2603  0.1833  0.1242
  629SOL    HW1 2514   1.851   0.638   1.230 -1.3580  0.2883  0.6967
  629SOL    HW2 2515   1.724   0.590   1.299  0.9790  0.4755  1.3909
  629SOL     MW 2516   1.807   0.617   1.301  0.1416  0.2357  0.3668
  630SOL     OW 2517   2.417   1.892   3.047 -0.2798  0.1571  0.7312
  630SOL    HW1 2518   2.402   1.953   2.981 -0.8470 -2.4902  0.6540
  630SOL    HW2 2519   2.332   1.847   3.046 -0.4766 -0.2588 -2.8258
  630SOL     MW 2520   2.404   1.894   3.038 -0.3806 -0.2471  0.2517
  631SOL     OW 2521   2.091   1.827   1.505 -0.1254  0.3247 -0.4986
  631SOL    HW1 2522   2.058   1.758   1.557 -0.8828  0.7864 -0.9541
  631SOL    HW2 2523   2.016   1.887   1.498  0.1346  0.9817  2.1973
  631SOL     MW 2524   2.076   1.826   1.511 -0.1910  0.4723 -0.2030
  632SOL     OW 2525   0.317   1.877   1.539 -0.0434 -0.0840 -0.7587
  632SOL    HW1 2526   0.250   1.938   1.526  4.0657 -1.7267 -0.9738
  632SOL    HW2 2527   0.283   1.790   1.546  2.3654  0.9516  1.8334
  632SOL     MW 2528   0.304   1.874   1.538  0.8166 -0.1641 -0.4450
  633SOL     OW 2529   2.582   0.516   0.392 -0.2733 -0.1459 -0.4468
  633SOL    HW1 2530   2.659   0.492   0.444 -1.4356  0.3986 -0.6169
  633SOL    HW2 2531   2.553   0.433   0.354  1.4054  1.4930  0.1550
  633SOL     MW 2532   2.588   0.502   0.394 -0.2052  0.1422 -0.3899
  634SOL     OW 2533   2.640   3.085   0.605  0.4870 -0.3783 -0.4398
  634SOL    HW1 2534   2.648   3.178   0.593  1.8026 -0.0545 -0.1824
  634SOL    HW2 2535   2.641   3.043   0.521  1.7021 -0.5187  0.3774
  634SOL     MW 2536   2.641   3.092   0.593  0.8209 -0.3541 -0.2980
  635SOL     OW 2537   2.640   0.059   1.894  0.3655  0.3666 -0.4785
  635SOL    HW1 2538   2.663   0.009   1.809 -0.4641 -0.1121  1.1991
  635SOL    HW2 2539   2.720   0.104   1.918  1.3130 -1.3378 -1.3517
  635SOL     MW 2540   2.654   0.058   1.886  0.3811  0.0785 -0.3724
  636SOL     OW 2541   2.694   1.712   0.746 -0.2521 -0.4007 -0.4579
  636SOL    HW1 2542   2.615   1.673   0.708 -0.8634 -1.4805  0.0375
  636SOL    HW2 2543   2.672   1.774   0.815  1.2595 -0.6779 -0.4980
  636SOL     MW 2544   2.681   1.715   0.750 -0.1333 -0.5798 -0.3979
  637SOL     OW 2545   2.854   1.486   0.686  0.2215  0.0704  0.1008
  637SOL    HW1 2546   2.914   1.539   0.633 -0.2600 -0.1290 -1.1490
  637SOL    HW2 2547   2.798   1.558   0.727 -0.2613  0.0520  0.6152
  637SOL     MW 2548   2.854   1.502   0.685  0.0943  0.0416  0.0038
  638SOL     OW 2549   2.813   0.523   0.557  0.8482  0.2788 -0.7027
  638SOL    HW1 2550   2.878   0.583   0.529 -0.5996 -2.1783 -0.9474
  638SOL    HW2 2551   2.789   0.533   0.650 -1.6503  0.2633 -2.9017
  638SOL     MW 2552   2.818   0.532   0.566  0.3275 -0.0474 -1.0251
  639SOL     OW 2553   1.763   3.067   0.542  0.7455 -0.5074 -0.0272
  639SOL    HW1 2554   1.665   3.088   0.542  2.8244  3.3740  1.3470
  639SOL    HW2 2555   1.769   2.993   0.481  0.8590  0.2889  2.6750
  639SOL     MW 2556   1.751   3.060   0.534  1.0348  0.1098  0.5106
  640SOL     OW 2557   0.285   1.425   0.093 -0.0529  0.4503 -0.1305
  640SOL    HW1 2558   0.351   1.422   0.019 -2.3728 -1.9766  0.9870
  640SOL    HW2 2559   0.291   1.339   0.132  0.5106  1.1796  1.6942
  640SOL     MW 2560   0.295   1.413   0.089 -0.2846  0.2263  0.2577
  641SOL     OW 2561   2.227   0.339   0.411  0.0403 -0.7173  0.3699
  641SOL    HW1 2562   2.290   0.310   0.347  0.0583  0.2994 -1.6986
  641SOL    HW2 2563   2.261   0.304   0.493  1.3827  1.8785 -1.8316
  641SOL     MW 2564   2.240   0.331   0.413  0.2198 -0.2406 -0.1935
  642SOL     OW 2565   0.091   0.015   0.541  0.2119 -0.3774 -0.2505
  642SOL    HW1 2566   0.067   0.103   0.503 -2.1586 -0.9025 -1.7579
  642SOL    HW2 2567   0.012  -0.036   0.562  0.6695 -0.6203 -3.2154
  642SOL     MW 2568   0.078   0.020   0.539 -0.0405 -0.4787 -0.8406
  643SOL     OW 2569   2.095   0.316   1.659  0.3347 -0.3310  0.3450
  643SOL    HW1 2570   2.015   0.295   1.710 -0.0933 -0.3456 -0.1027
  643SOL    HW2 2571   2.123   0.235   1.616 -0.4999 -1.6387 -2.2606
  643SOL     MW 2572   2.088   0.302   1.660  0.1681 -0.5055 -0.0579
  644SOL     OW 2573   2.636   1.892   0.964  0.4788 -0.0234 -0.0691
  644SOL    HW1 2574   2.612   1.837   1.040 -1.3389  0.4682  0.5059
  644SOL    HW2 2575   2.581   1.974   0.953 -0.6820  1.0932 -2.0529
  644SOL     MW 2576   2.625   1.896   0.973  0.0858  0.1888 -0.2550
  645SOL     OW 2577   2.791   0.885   0.760 -0.0087  0.9778  0.0401
  645SOL    HW1 2578   2.880   0.842   0.764  0.8613  2.2616 -2.0075
  645SOL    HW2 2579   2.725   0.829   0.800 -0.9637  0.7757  2.9976
  645SOL     MW 2580   2.794   0.872   0.766 -0.0200  1.1205  0.1601
  646SOL     OW 2581   0.165   2.251   0.858  0.0416  0.3741  0.2582
  646SOL    HW1 2582   0.179   2.149   0.866  0.8334  0.4084  0.0711
  646SOL    HW2 2583   0.100   2.269   0.793  0.8214 -0.1644  1.5976
  646SOL     MW 2584   0.158   2.240   0.850  0.2489  0.3075  0.4102
  647SOL     OW 2585   2.781   0.536   2.998  0.1434  0.0699 -0.1671
  647SOL    HW1 2586   2.715   0.467   3.012 -2.1984 -1.4907  0.2986
  647SOL    HW2 2587   2.744   0.594   3.065  1.1539  0.7844 -1.5446
  647SOL     MW 2588   2.767   0.535   3.008 -0.0322 -0.0418 -0.2874
  648SOL     OW 2589   2.222   0.645   1.133 -0.5113 -0.4107  0.1804
  648SOL    HW1 2590   2.237   0.557   1.172  1.9950  3.0590 -0.5264
  648SOL    HW2 2591   2.230   0.702   1.205 -1.7184 -1.0468 -0.3363
  648SOL     MW 2592   2.225   0.641   1.148 -0.3399 -0.0369  0.0190
  649SOL     OW 2593   2.395   2.705   1.273 -0.0409  0.0782  0.9032
  649SOL    HW1 2594   2.481   2.743   1.282 -2.4451  0.8555  0.1716
  649SOL    HW2 2595   2.411   2.609   1.290  1.7120 -1.5939 -1.2931
  649SOL     MW 2596   2.409   2.697   1.276 -0.1269 -0.0399  0.5169
  650SOL     OW 2597   2.757   0.259   0.557 -0.3990  0.1885 -0.1842
  650SOL    HW1 2598   2.791   0.348   0.573  0.2366 -0.6655 -0.9885
  650SOL    HW2 2599   2.767   0.257   0.461 -3.8374  1.6007 -0.5672
  650SOL     MW 2600   2.763   0.270   0.546 -0.7688  0.2621 -0.3408
  651SOL     OW 2601   0.048   0.436   1.021  0.3319 -0.0277 -0.3434
  651SOL    HW1 2602   0.075   0.506   0.956  0.2734  0.3986  1.2156
  651SOL    HW2 2603  -0.034   0.476   1.057 -2.4124  0.9637 -1.2637
  651SOL     MW 2604   0.041   0.451   1.018 -0.0379  0.1593 -0.2591
  652SOL     OW 2605   2.389   1.439   3.009  0.3333  0.3981 -0.0950
  652SOL    HW1 2606   2.430   1.466   2.927 -1.3612 -2.6657 -1.5388
  652SOL    HW2 2607   2.309   1.493   3.030 -0.0990  2.9595 -0.8740
  652SOL     MW 2608   2.384   1.449   3.001  0.0527  0.3318 -0.3882
  653SOL     OW 2609   1.826   0.337   0.259  0.1414  0.3840 -0.7385
  653SOL    HW1 2610   1.817   0.261   0.198 -1.2133 -0.2353  1.7519
  653SOL    HW2 2611   1.892   0.388   0.212  3.1775 -1.3476 -0.3136
  653SOL     MW 2612   1.834   0.334   0.245  0.3632  0.0738 -0.3539
  654SOL     OW 2613   2.439   1.001   0.775  0.0896  0.4828 -0.3949
  654SOL    HW1 2614   2.387   0.975   0.700 -2.5966 -2.6779 -0.7979
  654SOL    HW2 2615   2.483   0.912   0.798  2.7555 -1.7509  0.3689
  654SOL     MW 2616   2.438   0.986   0.768  0.0869 -0.2289 -0.3473
  655SOL     OW 2617   2.885   0.911   0.308 -0.2037  0.0726 -0.7853
  655SOL    HW1 2618   2.847   0.967   0.371  0.3629 -0.5122 -0.4935
  655SOL    HW2 2619   2.956   0.866   0.354  0.3130  0.0414 -0.5341
  655SOL     MW 2620   2.890   0.912   0.322 -0.0607 -0.0087 -0.7136
  656SOL     OW 2621   1.810   2.643   1.413 -0.4712  0.1069  0.0911
  656SOL    HW1 2622   1.858   2.723   1.419 -0.7781 -0.1913 -0.6332
  656SOL    HW2 2623   1.870   2.575   1.379  0.4221  0.1880  1.4549
  656SOL     MW 2624   1.825   2.645   1.409 -0.3938  0.0782  0.1755
  657SOL     OW 2625   0.091   1.790   1.149 -0.1917 -0.5595 -0.2206
  657SOL    HW1 2626   0.183   1.817   1.140 -1.5265  0.4048 -2.3363
  657SOL    HW2 2627   0.090   1.697   1.135  0.0677  0.6812 -3.7510
  657SOL     MW 2628   0.103   1.781   1.146 -0.3336 -0.2686 -0.9656
  658SOL     OW 2629   2.663   1.373   0.226 -0.3271  0.3989 -0.0362
  658SOL    HW1 2630   2.649   1.304   0.290 -2.6469 -1.7717  0.7222
  658SOL    HW2 2631   2.691   1.440   0.291  0.0641  0.9323  1.8367
  658SOL     MW 2632   2.665   1.373   0.243 -0.5815  0.1829  0.3110
  659SOL     OW 2633   2.142   1.453   1.030 -0.1964 -0.5322 -0.3115
  659SOL    HW1 2634   2.176   1.365   1.047 -3.1678  0.9019  1.0787
  659SOL    HW2 2635   2.111   1.479   1.113  0.7114  1.8982  1.5569
  659SOL     MW 2636   2.143   1.445   1.043 -0.4686 -0.0223  0.1184
  660SOL     OW 2637   2.086   1.548   1.623  0.1019 -0.4329 -0.8414
  660SOL    HW1 2638   2.119   1.542   1.714 -1.7653 -4.0587 -0.8994
  660SOL    HW2 2639   2.011   1.485   1.635 -1.2710  0.4029  0.7275
  660SOL     MW 2640   2.080   1.539   1.636 -0.3256 -0.8010 -0.6421
  661SOL     OW 2641   2.398   0.984   0.254 -0.1774  0.0835 -0.2031
  661SOL    HW1 2642   2.461   1.045   0.300 -0.7933 -1.2937  1.8223
  661SOL    HW2 2643   2.400   0.890   0.290  1.7866 -1.4779  0.8679
  661SOL     MW 2644   2.407   0.980   0.265  0.0005 -0.3042  0.2055
  662SOL     OW 2645   2.585   2.958   0.849 -0.2854  0.5830 -0.5536
  662SOL    HW1 2646   2.522   3.015   0.888  0.2691 -1.2341 -0.2535
  662SOL    HW2 2647   2.605   3.000   0.762 -1.0200 -3.0431  0.6710
  662SOL     MW 2648   2.580   2.971   0.842 -0.3092 -0.1351 -0.3525
  663SOL     OW 2649   2.705   1.564   0.419  0.3682 -0.4522 -0.5917
  663SOL    HW1 2650   2.730   1.622   0.344 -1.5653  1.6648 -2.0800
  663SOL    HW2 2651   2.769   1.580   0.480 -0.4676 -1.6988 -1.3034
  663SOL     MW 2652   2.717   1.574   0.417  0.0028 -0.3373 -0.8820
  664SOL     OW 2653   2.544   1.477   1.520  0.2035 -0.4860  0.4103
  664SOL    HW1 2654   2.509   1.554   1.469 -0.8190 -0.1250  0.1077
  664SOL    HW2 2655   2.470   1.416   1.532  3.5776 -1.6955  0.3435
  664SOL     MW 2656   2.530   1.479   1.515  0.5138 -0.5979  0.3616
  665SOL     OW 2657   2.845   0.829   2.097 -0.4103 -0.3397 -0.6270
  665SOL    HW1 2658   2.786   0.850   2.021  0.4052 -0.4019 -0.2393
  665SOL    HW2 2659   2.918   0.781   2.057  2.1460 -0.1174  2.1360
  665SOL     MW 2660   2.847   0.826   2.081  0.0346 -0.3186 -0.2113
  666SOL     OW 2661   2.774   3.018   1.698  0.0296 -0.0082  0.0910
  666SOL    HW1 2662   2.803   3.021   1.608  1.8500 -2.2783 -0.9062
  666SOL    HW2 2663   2.721   2.939   1.710  0.7833 -2.1849  0.0370
  666SOL     MW 2664   2.771   3.008   1.688  0.3693 -0.5949 -0.0477
  667SOL     OW 2665   2.000   2.743   1.737 -0.0062  0.2727 -0.3027
  667SOL    HW1 2666   2.023   2.701   1.821 -4.0582  2.4233 -1.5627
  667SOL    HW2 2667   2.070   2.804   1.713  0.3684 -1.2306 -0.6459
  667SOL     MW 2668   2.012   2.746   1.745 -0.4914  0.3581 -0.5142
  668SOL     OW 2669   2.771   0.572   0.845  0.1261 -0.1882 -0.1275
  668SOL    HW1 2670   2.846   0.607   0.900 -1.0574 -1.3207 -2.0739
  668SOL    HW2 2671   2.695   0.628   0.845  0.6553  2.5907  0.2555
  668SOL     MW 2672   2.771   0.584   0.852  0.0398  0.0290 -0.3338
  669SOL     OW 2673   0.201   0.979   0.689 -0.3801 -0.1798 -0.2691
  669SOL    HW1 2674   0.179   1.000   0.781  2.2757 -0.0263 -1.2678
  669SOL    HW2 2675   0.280   1.043   0.674 -1.2064  1.6778  1.2965
  669SOL     MW 2676   0.209   0.991   0.699 -0.1387  0.0856 -0.1943
  670SOL     OW 2677   2.885   0.344   0.270 -0.4210  0.2083  0.3339
  670SOL    HW1 2678   2.893   0.284   0.192  0.3363  0.1962 -0.5841
  670SOL    HW2 2679   2.941   0.419   0.242 -0.3218  1.7852 -3.3463
  670SOL     MW 2680   2.893   0.346   0.256 -0.3080  0.4148 -0.2728
  671SOL     OW 2681   2.013   3.036   1.497  0.5486 -0.1329 -0.1124
  671SOL    HW1 2682   1.958   3.004   1.420 -3.2967  0.2524 -0.2432
  671SOL    HW2 2683   1.952   3.056   1.569 -0.5814  3.5250 -1.7419
  671SOL     MW 2684   1.997   3.034   1.497 -0.1079  0.4005 -0.3447
  672SOL     OW 2685   1.877   1.760   1.295 -0.5750  0.3207 -0.1832
  672SOL    HW1 2686   1.883   1.830   1.360 -2.3751 -1.6119 -2.3119
  672SOL    HW2 2687   1.899   1.802   1.202  0.5127  2.8926 -2.5905
  672SOL     MW 2688   1.880   1.775   1.291 -0.6690  0.4051 -0.7817
  673SOL     OW 2689   2.792   1.070   0.572  0.3082 -0.4277 -0.1809
  673SOL    HW1 2690   2.775   0.994   0.633 -0.4736 -2.0851  3.4667
  673SOL    HW2 2691   2.861   1.109   0.617 -1.5730 -1.0876  0.5131
  673SOL     MW 2692   2.799   1.065   0.586 -0.0432 -0.7334  0.3920
  674SOL     OW 2693   2.460   0.004   1.244  0.0472 -0.0317 -0.6098
  674SOL    HW1 2694   2.421   0.026   1.155  2.3298 -1.7216 -1.5615
  674SOL    HW2 2695   2.438  -0.089   1.247 -1.7212 -2.0140 -0.2381
  674SOL     MW 2696   2.452  -0.005   1.232  0.1151 -0.5162 -0.6863
  675SOL     OW 2697   3.023   0.897   1.093  0.0787  0.1524 -0.2536
  675SOL    HW1 2698   3.065   0.914   1.180 -2.4869 -1.8599  1.3369
  675SOL    HW2 2699   3.084   0.941   1.023 -1.8270  0.5905 -0.6623
  675SOL     MW 2700   3.037   0.905   1.095 -0.5113 -0.0553 -0.0977
  676SOL     OW 2701   2.892   1.446   1.699 -0.1649  0.4181 -0.1895
  676SOL    HW1 2702   2.872   1.361   1.653 -1.1437  1.2096  2.6687
  676SOL    HW2 2703   2.908   1.421   1.786 -2.4145  1.5764 -2.7493
  676SOL     MW 2704   2.891   1.431   1.704 -0.5909  0.6753 -0.1501
  677SOL     OW 2705   2.460   0.622   1.950  0.4421  0.6329 -0.5744
  677SOL    HW1 2706   2.402   0.560   1.897 -0.4616  0.4410  0.5363
  677SOL    HW2 2707   2.465   0.701   1.890 -0.9729  3.3082 -0.6931
  677SOL     MW 2708   2.453   0.625   1.935  0.1362  0.9605 -0.4435
  678SOL     OW 2709   2.399   1.596   0.323 -0.0765 -0.6197 -0.1937
  678SOL    HW1 2710   2.323   1.595   0.383 -2.8831  0.3001 -2.6719
  678SOL    HW2 2711   2.391   1.516   0.266  0.6746 -0.2104  2.2095
  678SOL     MW 2712   2.388   1.585   0.324 -0.3477 -0.4443 -0.2036
  679SOL     OW 2713   2.261   0.412   1.261 -0.0241  0.2139  0.4051
  679SOL    HW1 2714   2.237   0.335   1.207  4.0252  0.8312  0.2992
  679SOL    HW2 2715   2.184   0.435   1.315  1.6602  1.3190 -1.4529
  679SOL     MW 2716   2.248   0.405   1.261  0.7324  0.4411  0.1459
  680SOL     OW 2717   2.477   0.107   1.509  0.3834  0.1099  0.0029
  680SOL    HW1 2718   2.377   0.116   1.510  0.5899  0.9910 -0.1619
  680SOL    HW2 2719   2.477   0.081   1.418  0.7076  2.3971 -3.6864
  680SOL     MW 2720   2.464   0.105   1.497  0.4534  0.5280 -0.5056
  681SOL     OW 2721   0.248   0.600   1.471 -0.3729  0.3100  0.4878
  681SOL    HW1 2722   0.241   0.511   1.508 -3.7586 -2.0599 -4.4987
  681SOL    HW2 2723   0.220   0.588   1.376  1.0582  1.4975 -0.9930
  681SOL     MW 2724   0.243   0.587   1.464 -0.6308  0.1540 -0.3655
  682SOL     OW 2725   0.063   2.844   1.542 -0.6819  0.4373 -0.3193
  682SOL    HW1 2726   0.106   2.931   1.537 -2.3319  1.7913  1.6982
  682SOL    HW2 2727  -0.006   2.875   1.598 -2.5728 -1.3880  3.6800
  682SOL     MW 2728   0.060   2.859   1.548 -1.1491  0.3751  0.4745
  683SOL     OW 2729   2.076   0.805   3.003 -0.2277  0.6180  0.1252
  683SOL    HW1 2730   2.012   0.734   3.002  2.3927 -1.2819 -3.8342
  683SOL    HW2 2731   2.030   0.880   3.047 -1.3517  1.3184  1.8010
  683SOL     MW 2732   2.062   0.805   3.009 -0.0303  0.4597 -0.1761
  684SOL     OW 2733   2.049   1.752   0.657 -0.0544  0.1981  0.2640
  684SOL    HW1 2734   2.056   1.696   0.575 -1.7375  1.5211  0.0510
  684SOL    HW2 2735   1.990   1.712   0.724  0.1342  2.4425 -0.1651
  684SOL     MW 2736   2.042   1.739   0.655 -0.2516  0.6688  0.1793
  685SOL     OW 2737   2.683   1.710   1.186 -0.0842  0.3891  0.1491
  685SOL    HW1 2738   2.744   1.675   1.246 -0.9842  1.5744 -0.8803
  685SOL    HW2 2739   2.611   1.652   1.168  2.0676 -1.5485 -1.3609
  685SOL     MW 2740   2.682   1.698   1.192  0.0810  0.2899 -0.1860
  686SOL     OW 2741   2.878   0.667   1.615 -0.4354 -0.0532  0.2193
  686SOL    HW1 2742   2.874   0.616   1.692 -0.6623  0.8094 -1.6606
  686SOL    HW2 2743   2.972   0.703   1.608 -0.3006 -0.9769 -1.9055
  686SOL     MW 2744   2.890   0.665   1.624 -0.4475 -0.0613 -0.3091
  687SOL     OW 2745   2.109   0.200   1.151 -0.5373 -0.5457 -0.2392
  687SOL    HW1 2746   2.184   0.172   1.100  3.0538  0.9711  1.9845
  687SOL    HW2 2747   2.058   0.260   1.091 -2.6002 -3.3124  0.0672
  687SOL     MW 2748   2.112   0.204   1.136 -0.3356 -0.7106  0.0946
  688SOL     OW 2749   2.461   0.588   1.421  0.0570  0.3615  0.0405
  688SOL    HW1 2750   2.459   0.522   1.354  1.3974  0.6152  0.7957
  688SOL    HW2 2751   2.375   0.593   1.474 -0.9343 -1.9643 -0.6482
  688SOL     MW 2752   2.450   0.580   1.419  0.1030  0.0881  0.0493
  689SOL     OW 2753   2.511   0.736   2.981  0.0082 -0.0961  0.1852
  689SOL    HW1 2754   2.437   0.785   3.019  0.0771  0.5029 -0.2551
  689SOL    HW2 2755   2.581   0.722   3.048  1.3293  0.8377  2.7796
  689SOL     MW 2756   2.511   0.741   2.995  0.1916  0.1061  0.4694
  690SOL     OW 2757   2.028   0.889   1.834  0.5760  0.1059  0.1285
  690SOL    HW1 2758   2.020   0.793   1.843  0.8442 -0.1097  0.3933
  690SOL    HW2 2759   2.067   0.906   1.746  2.3837  0.1336  2.3785
  690SOL     MW 2760   2.032   0.878   1.823  0.8499  0.0811  0.4603
  691SOL     OW 2761   2.422   0.302   0.882  0.4299 -0.0295 -0.0396
  691SOL    HW1 2762   2.506   0.310   0.927 -2.0187  1.7078 -0.1296
  691SOL    HW2 2763   2.399   0.385   0.845 -1.1515  0.4136 -0.7239
  691SOL     MW 2764   2.430   0.314   0.883 -0.1018  0.2582 -0.1417
  692SOL     OW 2765   2.840   1.605   1.431 -0.3993  0.4992 -0.2438
  692SOL    HW1 2766   2.844   1.590   1.523 -1.4196 -2.0712 -2.8096
  692SOL    HW2 2767   2.889   1.688   1.419 -2.1088  0.0247 -0.5507
  692SOL     MW 2768   2.847   1.614   1.441 -0.7594  0.0975 -0.6228
  693SOL     OW 2769   2.332   0.394   0.018 -0.2904  0.0040 -0.7253
  693SOL    HW1 2770   2.256   0.338   0.008  2.4574  2.0065  3.0562
  693SOL    HW2 2771   2.297   0.483   0.019 -2.0699  2.1368  2.7026
  693SOL     MW 2772   2.318   0.398   0.017 -0.1626  0.5496  0.2259
  694SOL     OW 2773   1.901   1.182   1.180  0.0884  0.5175  0.5648
  694SOL    HW1 2774   1.987   1.182   1.215 -0.5752  0.3091  1.1534
  694SOL    HW2 2775   1.872   1.090   1.191  3.8061  3.2233  0.2667
  694SOL     MW 2776   1.909   1.170   1.186  0.4913  0.8470  0.6032
  695SOL     OW 2777   2.942   1.397   1.283 -0.4397 -0.3428  0.7098
  695SOL    HW1 2778   2.938   1.393   1.190  0.8367 -1.8869 -1.2292
  695SOL    HW2 2779   2.906   1.481   1.317 -0.9632 -1.9394  1.0484
  695SOL     MW 2780   2.936   1.408   1.275 -0.3403 -0.7572  0.4987
  696SOL     OW 2781   2.014   1.422   0.778 -0.0431 -0.0088 -0.7631
  696SOL    HW1 2782   2.047   1.480   0.845  1.5403  0.7045 -0.0099
  696SOL    HW2 2783   1.987   1.345   0.833 -1.2540  2.1315  1.3238
  696SOL     MW 2784   2.015   1.420   0.794  0.0060  0.3677 -0.3883
  697SOL     OW 2785   2.941   1.063   2.233  0.0118 -0.1742 -0.7886
  697SOL    HW1 2786   2.862   1.120   2.248 -1.9977  2.1691  0.4036
  697SOL    HW2 2787   2.913   0.985   2.193  0.4906  1.0899 -1.4364
  697SOL     MW 2788   2.927   1.061   2.230 -0.1902  0.3017 -0.7168
  698SOL     OW 2789   2.599   0.338   3.057  0.0326  0.5927  0.5070
  698SOL    HW1 2790   2.512   0.359   3.088  0.6345  0.9083 -0.2786
  698SOL    HW2 2791   2.637   0.296   3.136 -1.7868  0.8234 -0.9405
  698SOL     MW 2792   2.592   0.335   3.072 -0.1281  0.6648  0.2123
  699SOL     OW 2793   1.895   1.611   2.069 -0.2894 -0.0022 -0.2865
  699SOL    HW1 2794   1.865   1.528   2.101  2.1492 -2.5782 -2.4200
  699SOL    HW2 2795   1.980   1.605   2.021 -0.2696  0.8153 -1.0947
  699SOL     MW 2796   1.902   1.599   2.067  0.0349 -0.2342 -0.6746
  700SOL     OW 2797   2.667   0.850   1.604  0.0836  0.2807  0.0881
  700SOL    HW1 2798   2.696   0.918   1.542 -0.0331  0.6511 -1.5481
  700SOL    HW2 2799   2.726   0.780   1.586 -0.3167  2.1368 -3.8055
  700SOL     MW 2800   2.679   0.849   1.594  0.0154  0.5745 -0.6415
  701SOL     OW 2801   1.694   1.104   2.511 -0.1540 -0.3830 -0.0910
  701SOL    HW1 2802   1.768   1.070   2.558 -0.7375 -4.5124  1.4998
  701SOL    HW2 2803   1.647   1.169   2.560 -1.4131 -1.3922 -0.7880
  701SOL     MW 2804   1.698   1.108   2.524 -0.3971 -1.0610  0.0269
  702SOL     OW 2805   2.090   0.471   0.707 -0.2969  0.0569 -0.8268
  702SOL    HW1 2806   2.091   0.374   0.684  0.1499 -0.6195 -0.7206
  702SOL    HW2 2807   2.117   0.522   0.629 -3.3161  1.4209  0.3698
  702SOL     MW 2808   2.093   0.465   0.694 -0.6363  0.1476 -0.6549
  703SOL     OW 2809   2.716   1.259   0.956 -0.1143  0.2063  0.3556
  703SOL    HW1 2810   2.667   1.249   0.875 -0.4198 -0.9479  1.1093
  703SOL    HW2 2811   2.680   1.190   1.005 -0.5911  1.6496 -2.5093
  703SOL     MW 2812   2.705   1.248   0.952 -0.2175  0.2444  0.0770
  704SOL     OW 2813   3.081   1.252   0.117  0.2677  0.4831  0.2301
  704SOL    HW1 2814   2.989   1.249   0.087 -2.5391  1.0192  2.7314
  704SOL    HW2 2815   3.073   1.252   0.214  1.2357 -2.5956 -0.4380
  704SOL     MW 2816   3.068   1.252   0.126  0.0251  0.1476  0.4720
  705SOL     OW 2817   2.051   1.546   1.301 -0.1104  0.0461  0.0046
  705SOL    HW1 2818   1.998   1.625   1.311 -1.7241 -2.2792  0.4209
  705SOL    HW2 2819   2.098   1.536   1.381 -1.4710 -1.1641  0.1549
  705SOL     MW 2820   2.050   1.555   1.313 -0.5028 -0.4204  0.0794
  706SOL     OW 2821   3.005   1.227   0.689  0.0426 -0.0296  0.6261
  706SOL    HW1 2822   3.035   1.235   0.595 -1.7292 -1.7013 -0.2682
  706SOL    HW2 2823   2.980   1.315   0.718  0.8134  0.9163  1.5016
  706SOL     MW 2824   3.006   1.240   0.680 -0.0894 -0.1253  0.6236
  707SOL     OW 2825   2.365   0.034   0.966 -0.3526 -0.0387  0.4594
  707SOL    HW1 2826   2.378   0.115   0.914  0.5642  1.2240 -2.4318
  707SOL    HW2 2827   2.271   0.009   0.945  0.1590 -0.2815 -0.3446
  707SOL     MW 2828   2.354   0.041   0.956 -0.1641  0.0959 -0.0281
  708SOL     OW 2829   2.406   1.379   0.174 -0.4139 -0.0458 -0.6612
  708SOL    HW1 2830   2.500   1.368   0.188 -2.0779 -3.0680 -2.7644
  708SOL    HW2 2831   2.393   1.392   0.078 -1.2248  1.0950  1.5631
  708SOL     MW 2832   2.417   1.380   0.163 -0.7404 -0.2941 -0.6453
  709SOL     OW 2833   1.744   1.651   0.214 -0.6054 -0.1326 -0.4945
  709SOL    HW1 2834   1.734   1.657   0.118 -2.5524  0.1992 -1.3063
  709SOL    HW2 2835   1.658   1.616   0.242  1.3319 -0.7681 -1.8162
  709SOL     MW 2836   1.732   1.647   0.205 -0.6067 -0.1727 -0.7760
  710SOL     OW 2837   2.186   1.174   1.193 -0.3630 -0.2149 -0.1280
  710SOL    HW1 2838   2.193   1.128   1.102  0.9644  2.4607 -0.3666
  710SOL    HW2 2839   2.217   1.099   1.254  0.3102 -1.8653  1.5690
  710SOL     MW 2840   2.191   1.158   1.189 -0.0991 -0.0796  0.0644
  711SOL     OW 2841   2.398   0.139   1.769  0.0428 -0.6384  0.2308
  711SOL    HW1 2842   2.472   0.133   1.834 -2.6883 -3.3230  1.5133
  711SOL    HW2 2843   2.445   0.128   1.682 -0.7316  2.6894 -1.7315
  711SOL     MW 2844   2.414   0.137   1.766 -0.4197 -0.5535  0.1411
  712SOL     OW 2845   1.891   0.604   3.093 -0.0115 -0.1284 -0.1199
  712SOL    HW1 2846   1.829   0.634   3.022  0.5747 -0.9150  2.9910
  712SOL    HW2 2847   1.850   0.632   3.178 -1.5204  1.3827  0.5702
  712SOL     MW 2848   1.877   0.612   3.095 -0.1332 -0.0328  0.3816
  713SOL     OW 2849   2.519   0.686   1.087  0.0457 -0.1971  0.2977
  713SOL    HW1 2850   2.511   0.600   1.133  0.9593  1.0188 -1.1205
  713SOL    HW2 2851   2.494   0.754   1.147  2.4824 -1.6019  0.0784
  713SOL     MW 2852   2.515   0.683   1.101  0.4877 -0.2220  0.0816
  714SOL     OW 2853   2.222   0.161   1.988 -0.2126  0.2827  0.4746
  714SOL    HW1 2854   2.266   0.115   2.061 -0.5395 -1.8449  1.0434
  714SOL    HW2 2855   2.278   0.136   1.915  2.4272  1.7157  2.0205
  714SOL     MW 2856   2.235   0.151   1.988  0.0926  0.1910  0.7536
  715SOL     OW 2857   1.811   2.022   1.749  0.3676 -0.1823 -0.5511
  715SOL    HW1 2858   1.905   2.020   1.743 -2.2902 -2.2058  0.1549
  715SOL    HW2 2859   1.802   1.934   1.796 -0.2068 -0.2813  2.0923
  715SOL     MW 2860   1.822   2.010   1.754 -0.0589 -0.4623 -0.1092
  716SOL     OW 2861   2.417   0.564   0.667  0.1669  0.0126  0.0739
  716SOL    HW1 2862   2.456   0.477   0.635  2.2361 -2.1586 -0.8180
  716SOL    HW2 2863   2.340   0.579   0.616  3.8364  0.8749  0.7872
  716SOL     MW 2864   2.412   0.555   0.656  0.9241 -0.1601  0.0503
  717SOL     OW 2865   2.834   1.610   2.823 -0.0107  0.2900  0.0553
  717SOL    HW1 2866   2.910   1.579   2.868 -0.2565  1.1211  2.6228
  717SOL    HW2 2867   2.792   1.680   2.882  1.5530 -1.1702  0.8835
  717SOL     MW 2868   2.838   1.615   2.837  0.1632  0.2070  0.5033
  718SOL     OW 2869   2.645   1.341   1.269 -0.1733  0.1149 -0.4484
  718SOL    HW1 2870   2.614   1.380   1.350  1.0469 -0.2368  2.6591
  718SOL    HW2 2871   2.739   1.348   1.268  1.0021  1.3008 -0.9691
  718SOL     MW 2872   2.654   1.347   1.279  0.1428  0.2250 -0.1071
  719SOL     OW 2873   2.207   1.303   0.575 -0.1514  0.0572 -0.1522
  719SOL    HW1 2874   2.290   1.329   0.539 -1.1588 -2.8908 -3.1228
  719SOL    HW2 2875   2.186   1.338   0.660 -1.4394 -1.5087 -1.5893
  719SOL     MW 2876   2.215   1.311   0.581 -0.4543 -0.5384 -0.7338
  720SOL     OW 2877   2.827   1.263   0.026 -0.3106  0.6585 -0.2275
  720SOL    HW1 2878   2.796   1.173   0.024 -3.6310  1.3302  0.1728
  720SOL    HW2 2879   2.774   1.301   0.096 -0.9132  0.7787  0.9018
  720SOL     MW 2880   2.816   1.256   0.035 -0.8282  0.7630 -0.0257
  721SOL     OW 2881   2.523   0.849   1.366  0.6338 -0.2914  0.0039
  721SOL    HW1 2882   2.510   0.753   1.390  1.7393 -1.5283  0.3069
  721SOL    HW2 2883   2.538   0.880   1.461  1.2421 -2.7754  1.4722
  721SOL     MW 2884   2.523   0.841   1.382  0.8599 -0.7823  0.2376
  722SOL     OW 2885   2.590   1.138   0.380 -0.0901  0.0468 -0.0848
  722SOL    HW1 2886   2.532   1.189   0.438  0.6472 -1.0791  0.7961
  722SOL    HW2 2887   2.632   1.078   0.437 -3.3058 -2.3468 -1.2228
  722SOL     MW 2888   2.588   1.137   0.395 -0.4171 -0.4176 -0.1187
  723SOL     OW 2889   2.274   1.344   1.556 -0.0831  0.3048 -0.9499
  723SOL    HW1 2890   2.288   1.369   1.466 -1.3470  1.3533  0.2143
  723SOL    HW2 2891   2.213   1.419   1.576 -3.5669  1.4862  0.6380
  723SOL     MW 2892   2.268   1.357   1.547 -0.7095  0.5990 -0.5868
  724SOL     OW 2893   2.494   0.319   0.609 -0.0057 -0.1694  0.3062
  724SOL    HW1 2894   2.471   0.272   0.689  2.1927 -0.6320 -0.1849
  724SOL    HW2 2895   2.586   0.304   0.591 -0.5699  0.1120 -2.5558
  724SOL     MW 2896   2.503   0.311   0.617  0.2099 -0.1933 -0.1362
  725SOL     OW 2897   2.617   0.420   1.247 -0.0152 -0.0230 -0.1980
  725SOL    HW1 2898   2.685   0.477   1.292 -0.9619 -1.4990 -0.3506
  725SOL    HW2 2899   2.622   0.343   1.300 -2.5637 -0.0733 -1.4757
  725SOL     MW 2900   2.627   0.417   1.260 -0.4764 -0.2244 -0.3867
  726SOL     OW 2901   2.496   2.505   0.458 -0.1849  0.3191  0.1096
  726SOL    HW1 2902   2.503   2.595   0.424 -0.2147  0.7893 -1.3198
  726SOL    HW2 2903   2.490   2.506   0.557  0.2819 -0.6172  1.1206
  726SOL     MW 2904   2.496   2.517   0.466 -0.1272  0.2576  0.0544
  727SOL     OW 2905   2.865   0.291   1.727  0.1551 -0.3364  0.0728
  727SOL    HW1 2906   2.807   0.282   1.652 -0.9384  0.1963  0.6825
  727SOL    HW2 2907   2.822   0.251   1.798  3.7957  2.0012 -0.8397
  727SOL     MW 2908   2.852   0.284   1.726  0.4912  0.0423  0.0328
  728SOL     OW 2909   2.845   1.177   2.849 -0.0907 -0.1382 -0.0104
  728SOL    HW1 2910   2.806   1.222   2.773  1.5583 -1.4095  1.8207
  728SOL    HW2 2911   2.835   1.242   2.918 -0.3459  0.2700  0.3826
  728SOL     MW 2912   2.839   1.192   2.848  0.0932 -0.2520  0.2830
  729SOL     OW 2913   2.510   1.513   1.113  0.1255 -0.0564 -0.0843
  729SOL    HW1 2914   2.556   1.439   1.163  3.4646  0.1239 -1.0036
  729SOL    HW2 2915   2.534   1.490   1.024  0.2022  3.3633  0.3455
  729SOL     MW 2916   2.519   1.500   1.108  0.5762  0.4186 -0.1488
  730SOL     OW 2917   2.224   1.160   0.186  0.0179 -0.1034  0.2680
  730SOL    HW1 2918   2.296   1.102   0.199  1.0743  1.7989  0.0683
  730SOL    HW2 2919   2.258   1.250   0.195 -0.3344  0.7093  1.7721
  730SOL     MW 2920   2.238   1.164   0.189  0.1108  0.2549  0.4401
  731SOL     OW 2921   2.749   2.062   2.872  0.1210 -0.1089  0.0002
  731SOL    HW1 2922   2.673   2.076   2.811 -0.6003  1.5129  3.0522
  731SOL    HW2 2923   2.816   2.023   2.813  1.4904 -2.5585  1.9411
  731SOL     MW 2924   2.748   2.059   2.856  0.2065 -0.2181  0.6590
  732SOL     OW 2925   2.259   0.988   1.363  0.6002 -0.3640  0.2251
  732SOL    HW1 2926   2.247   0.951   1.455 -0.0568  0.8553  1.1443
  732SOL    HW2 2927   2.351   0.986   1.355 -1.2117 -1.0496  0.3347
  732SOL     MW 2928   2.269   0.983   1.374  0.2745 -0.2936  0.3609
  733SOL     OW 2929   2.388   2.776   3.012  0.1762 -0.7016 -0.0885
  733SOL    HW1 2930   2.317   2.818   3.065  0.9244  0.6481 -2.2171
  733SOL    HW2 2931   2.358   2.680   3.006  0.3601 -1.0147  0.9224
  733SOL     MW 2932   2.374   2.769   3.018  0.2992 -0.5648 -0.2360
  734SOL     OW 2933   1.543   0.269   2.545 -0.7139  0.2458 -0.5758
  734SOL    HW1 2934   1.511   0.234   2.629  2.7397 -0.2348  0.4324
  734SOL    HW2 2935   1.567   0.190   2.499 -0.4687  1.7130 -0.5774
  734SOL     MW 2936   1.542   0.254   2.550 -0.2259  0.3760 -0.4430
  735SOL     OW 2937   2.981   0.932   2.703  0.2277 -0.7850  0.0314
  735SOL    HW1 2938   2.984   0.836   2.678  0.1873 -2.6200 -1.8401
  735SOL    HW2 2939   2.988   0.939   2.800  2.0338 -0.5855 -0.7570
  735SOL     MW 2940   2.982   0.921   2.712  0.4607 -1.0008 -0.3196
  736SOL     OW 2941   0.135   0.584   2.579  0.1447 -0.4291 -0.3864
  736SOL    HW1 2942   0.142   0.656   2.508 -1.4360  0.6204  0.0863
  736SOL    HW2 2943   0.177   0.503   2.549  0.6644  1.7737  0.6661
  736SOL     MW 2944   0.141   0.583   2.566  0.0047 -0.0000 -0.1852
  737SOL     OW 2945   2.983   0.654   2.647 -0.1101 -0.3689  0.6794
  737SOL    HW1 2946   2.911   0.637   2.581 -1.5404 -1.4279 -0.2667
  737SOL    HW2 2947   3.061   0.628   2.606 -1.1051  0.0538  2.3461
  737SOL     MW 2948   2.984   0.648   2.633 -0.4301 -0.4528  0.7744
  738SOL     OW 2949   0.121   0.475   1.875 -0.3443 -0.5257  0.1082
  738SOL    HW1 2950   0.217   0.481   1.865 -0.3605 -0.0772  0.0299
  738SOL    HW2 2951   0.095   0.455   1.782 -0.1314  2.0417 -2.1627
  738SOL     MW 2952   0.130   0.473   1.861 -0.3184 -0.1278 -0.2018
  739SOL     OW 2953   2.472   1.000   2.111 -0.4319 -0.3566  0.3966
  739SOL    HW1 2954   2.405   0.969   2.055  3.1557 -1.1576  1.5294
  739SOL    HW2 2955   2.553   1.007   2.062 -0.9468  2.0862  1.9204
  739SOL     MW 2956   2.474   0.997   2.097 -0.0265 -0.1400  0.7471
  740SOL     OW 2957   0.110   1.819   2.926  0.4916 -0.2593 -0.1903
  740SOL    HW1 2958   0.075   1.729   2.946 -0.2099 -1.4957  1.3679
  740SOL    HW2 2959   0.196   1.829   2.965  0.4904 -0.9579 -2.2239
  740SOL     MW 2960   0.117   1.809   2.934  0.3989 -0.5146 -0.2531
  741SOL     OW 2961   2.203   1.134   2.711 -0.9185  0.2971 -0.1420
  741SOL    HW1 2962   2.167   1.210   2.673  2.3381 -2.3459  1.8779
  741SOL    HW2 2963   2.196   1.156   2.807 -1.8897 -1.3658 -0.1371
  741SOL     MW 2964   2.197   1.147   2.719 -0.6170 -0.2710  0.1252
  742SOL     OW 2965   1.644   1.224   2.261 -0.9272  0.3858  0.2778
  742SOL    HW1 2966   1.570   1.164   2.248 -0.6872  1.5019  0.2207
  742SOL    HW2 2967   1.689   1.178   2.333 -0.5708 -2.1043 -3.4810
  742SOL     MW 2968   1.640   1.210   2.269 -0.8485  0.2046 -0.2257
  743SOL     OW 2969   2.489   1.240   2.706  0.1434  0.1733  0.5007
  743SOL    HW1 2970   2.402   1.209   2.705  2.1946  1.6779 -2.2543
  743SOL    HW2 2971   2.538   1.175   2.758 -0.0828 -2.1715  2.0652
  743SOL     MW 2972   2.484   1.227   2.712  0.3842  0.0624  0.3436
  744SOL     OW 2973   2.696   0.867   1.883 -0.3559 -0.3542  0.8415
  744SOL    HW1 2974   2.652   0.950   1.856 -1.7689 -1.0867  1.9529
  744SOL    HW2 2975   2.689   0.809   1.808 -2.0948 -0.3355  3.2648
  744SOL     MW 2976   2.689   0.870   1.869 -0.7718 -0.4484  1.3078
  745SOL     OW 2977   1.686   0.496   2.463 -0.3251 -0.1436  0.6805
  745SOL    HW1 2978   1.708   0.500   2.364 -1.2690 -2.3381 -1.4493
  745SOL    HW2 2979   1.627   0.422   2.478 -0.3676 -0.1945  2.0984
  745SOL     MW 2980   1.681   0.487   2.452 -0.4553 -0.4399  0.5866
  746SOL     OW 2981   1.610   1.437   1.645  0.5722  0.0495  0.4607
  746SOL    HW1 2982   1.704   1.432   1.650 -0.4538  0.3072  3.8476
  746SOL    HW2 2983   1.599   1.446   1.739  1.7876 -0.0675 -2.4209
  746SOL     MW 2984   1.621   1.437   1.658  0.5972  0.0681  0.5274
  747SOL     OW 2985   2.634   1.137   1.820  0.1169 -0.0040  0.2162
  747SOL    HW1 2986   2.539   1.135   1.788 -0.3954  1.1411 -1.5171
  747SOL    HW2 2987   2.637   1.224   1.865 -0.5548  0.8485 -0.9292
  747SOL     MW 2988   2.622   1.149   1.822 -0.0393  0.2596 -0.1636
  748SOL     OW 2989   0.051   0.071   1.900  0.0623  0.0799  0.0670
  748SOL    HW1 2990   0.127   0.125   1.892 -0.0839  3.6429 -0.1199
  748SOL    HW2 2991  -0.016   0.123   1.955 -1.7166 -0.9739  0.4313
  748SOL     MW 2992   0.052   0.085   1.906 -0.1917  0.4110  0.0904
  749SOL     OW 2993   2.517   0.625   2.741  0.6403  0.7063  0.0373
  749SOL    HW1 2994   2.558   0.675   2.671  2.0302  1.7232  2.4040
  749SOL    HW2 2995   2.525   0.675   2.827 -0.6070 -0.8568 -0.4552
  749SOL     MW 2996   2.523   0.638   2.743  0.6591  0.6342  0.2846
  750SOL     OW 2997   2.042   3.076   1.995 -0.2689  0.2205 -0.0497
  750SOL    HW1 2998   2.092   3.158   1.985 -1.6300  0.5948 -0.2028
  750SOL    HW2 2999   2.105   3.002   1.982 -0.9634  1.9215 -1.5422
  750SOL     MW 3000   2.057   3.077   1.992 -0.5401  0.4943 -0.2668
  751SOL     OW 3001   0.208   0.302   2.453  1.1068 -0.2914 -0.3241
  751SOL    HW1 3002   0.164   0.218   2.473  0.7102  1.5005  1.0868
  751SOL    HW2 3003   0.222   0.288   2.361  0.4038 -1.2061 -1.0451
  751SOL     MW 3004   0.204   0.289   2.444  0.9617 -0.1757 -0.2331
  752SOL     OW 3005   2.126   0.801   2.732 -0.1393  0.2659 -0.2593
  752SOL    HW1 3006   2.204   0.850   2.706 -0.7929  1.5369 -1.9029
  752SOL    HW2 3007   2.126   0.807   2.829  3.4738 -1.2139  0.3464
  752SOL     MW 3008   2.136   0.808   2.741  0.2512  0.2384 -0.3963
  753SOL     OW 3009   2.852   0.190   2.383 -0.7761  0.0028  0.0401
  753SOL    HW1 3010   2.799   0.108   2.368 -3.0030 -0.7246 -1.4431
  753SOL    HW2 3011   2.806   0.262   2.342 -1.9395 -0.5103  0.7816
  753SOL     MW 3012   2.839   0.189   2.376 -1.2234 -0.1609 -0.0578
  754SOL     OW 3013   2.230   2.972   2.587 -0.2541 -0.5095  0.0492
  754SOL    HW1 3014   2.240   2.947   2.494  2.2064 -2.5878  0.2681
  754SOL    HW2 3015   2.313   2.957   2.636  1.6902  0.9159 -1.2850
  754SOL     MW 3016   2.242   2.967   2.582  0.3271 -0.5957 -0.0980
  755SOL     OW 3017   2.716   1.533   2.448  0.0788  0.0532 -0.9939
  755SOL    HW1 3018   2.741   1.463   2.510  1.4028  0.3359  0.0143
  755SOL    HW2 3019   2.754   1.619   2.488 -2.2424  1.1001  2.7056
  755SOL     MW 3020   2.724   1.535   2.461 -0.0528  0.2286 -0.3727
  756SOL     OW 3021   2.210   1.217   2.978 -0.0737 -0.3626 -0.4552
  756SOL    HW1 3022   2.270   1.291   2.997 -1.1214 -0.9165 -2.1805
  756SOL    HW2 3023   2.252   1.143   3.027 -1.7559  2.0094  0.5787
  756SOL     MW 3024   2.224   1.217   2.987 -0.4339 -0.1227 -0.5464
  757SOL     OW 3025   2.161   0.889   1.608  0.2741  0.1860  0.2468
  757SOL    HW1 3026   2.191   0.801   1.592  2.6497  2.2406 -0.5801
  757SOL    HW2 3027   2.086   0.890   1.545 -2.1226 -1.6684 -2.1849
  757SOL     MW 3028   2.155   0.878   1.598  0.2713  0.2124 -0.1831
  758SOL     OW 3029   2.209   1.863   2.609 -0.5925  0.3904 -0.0955
  758SOL    HW1 3030   2.185   1.882   2.522  1.5710 -2.7241  1.3929
  758SOL    HW2 3031   2.300   1.838   2.602 -1.3755 -0.3843  0.6612
  758SOL     MW 3032   2.218   1.862   2.597 -0.4104 -0.1227  0.2008
  759SOL     OW 3033   1.546   1.267   2.688 -0.6483  0.2216  0.2767
  759SOL    HW1 3034   1.547   1.362   2.656  0.5035 -1.1577 -0.6693
  759SOL    HW2 3035   1.587   1.279   2.775  1.5909  1.6580 -0.2531
  759SOL     MW 3036   1.551   1.281   2.695 -0.2009  0.2291  0.0820
  760SOL     OW 3037   2.506   1.974   2.735 -0.1519  0.2474 -0.2718
  760SOL    HW1 3038   2.515   1.883   2.699 -1.3853 -2.3087  2.8261
  760SOL    HW2 3039   2.531   2.030   2.661  0.3194  2.9615  0.8745
  760SOL     MW 3040   2.510   1.970   2.720 -0.2524  0.2682  0.2882
  761SOL     OW 3041   2.151   0.396   2.526  0.0183  0.5851  0.5476
  761SOL    HW1 3042   2.131   0.316   2.573 -0.4695 -2.0438  1.1855
  761SOL    HW2 3043   2.219   0.441   2.586 -0.0568  3.0984 -0.4041
  761SOL     MW 3044   2.157   0.391   2.540 -0.0560  0.5698  0.5062
  762SOL     OW 3045   3.022   0.195   2.141  0.4688  0.0136  0.8567
  762SOL    HW1 3046   3.056   0.158   2.220 -0.7508  1.4177 -0.6754
  762SOL    HW2 3047   3.016   0.290   2.177  3.1955  1.0843  0.1172
  762SOL     MW 3048   3.026   0.203   2.156  0.6677  0.3401  0.5570
  763SOL     OW 3049   2.322   1.032   2.344  0.1725 -0.2836 -0.2470
  763SOL    HW1 3050   2.404   1.000   2.305 -0.4078 -2.1764 -0.8920
  763SOL    HW2 3051   2.347   1.126   2.370  2.0556  3.9064 -0.7369
  763SOL     MW 3052   2.336   1.040   2.342  0.3444  0.0195 -0.3967
  764SOL     OW 3053   0.460   0.250   2.808 -0.2924  0.4938  0.3535
  764SOL    HW1 3054   0.370   0.230   2.776 -0.2769  0.1330  0.0800
  764SOL    HW2 3055   0.479   0.341   2.828 -0.5372  0.5889  1.4909
  764SOL     MW 3056   0.451   0.259   2.806 -0.3227  0.4588  0.4675
  765SOL     OW 3057   2.745   3.055   2.359  0.1324 -0.4681  0.1117
  765SOL    HW1 3058   2.681   3.036   2.290  0.4693 -3.5316  3.1055
  765SOL    HW2 3059   2.826   3.007   2.327 -0.1157 -0.0156 -2.1059
  765SOL     MW 3060   2.747   3.046   2.346  0.1441 -0.8126  0.2141
  766SOL     OW 3061   1.873   2.962   2.173 -0.1198 -0.1347  0.5401
  766SOL    HW1 3062   1.932   3.019   2.120  1.9870 -0.9801 -2.2075
  766SOL    HW2 3063   1.804   2.925   2.118  0.0629 -1.0914  1.3305
  766SOL     MW 3064   1.872   2.964   2.159  0.1823 -0.3725  0.2819
  767SOL     OW 3065   2.697   0.576   2.096 -0.1157 -0.5986 -0.1629
  767SOL    HW1 3066   2.733   0.663   2.127  3.6693 -2.3474  2.6569
  767SOL    HW2 3067   2.611   0.606   2.059 -0.5488  1.1567  0.3722
  767SOL     MW 3068   2.691   0.592   2.095  0.3265 -0.5977  0.2798
  768SOL     OW 3069   3.091   1.563   2.933 -0.3495 -0.9243 -1.5913
  768SOL    HW1 3070   3.093   1.539   3.033  0.4868  0.3666  3.9880
  768SOL    HW2 3071   3.140   1.496   2.881 -1.4214  3.3661  0.6359
  768SOL     MW 3072   3.098   1.551   2.939 -0.3806 -0.1879 -0.5613
  769SOL     OW 3073   2.464   0.690   2.366  0.1636  0.3935  0.2112
  769SOL    HW1 3074   2.374   0.653   2.354 -0.0967 -1.8216  0.4823
  769SOL    HW2 3075   2.505   0.705   2.281  3.6048 -2.6324  1.5005
  769SOL     MW 3076   2.458   0.687   2.353  0.5833 -0.2980  0.4171
  770SOL     OW 3077   0.007   1.637   2.571 -0.7364  0.1520 -0.2795
  770SOL    HW1 3078  -0.076   1.604   2.558 -1.1481 -4.5811  0.0169
  770SOL    HW2 3079   0.061   1.569   2.613 -1.2516  0.2192 -1.1376
  770SOL     MW 3080   0.003   1.624   2.575 -0.8587 -0.4636 -0.3536
  771SOL     OW 3081   3.058   0.601   2.066 -0.0164  0.1228 -0.3557
  771SOL    HW1 3082   2.987   0.558   2.015  0.1313 -2.7970 -1.4870
  771SOL    HW2 3083   3.134   0.572   2.004  0.8519 -0.8573 -2.0280
  771SOL     MW 3084   3.059   0.592   2.051  0.1177 -0.3917 -0.7256
  772SOL     OW 3085   0.066   0.015   2.301 -0.1205  0.3654 -0.1342
  772SOL    HW1 3086  -0.007  -0.041   2.300 -0.0421 -0.0248 -0.6362
  772SOL    HW2 3087   0.111  -0.021   2.223  0.2674  0.2229 -0.3410
  772SOL     MW 3088   0.062   0.003   2.290 -0.0590  0.2951 -0.2278
  773SOL     OW 3089   2.418   2.863   2.751  0.4129 -0.0460 -0.3155
  773SOL    HW1 3090   2.423   2.791   2.690  0.8355 -1.1473 -0.0158
  773SOL    HW2 3091   2.392   2.824   2.834 -0.0072 -0.9404  1.1549
  773SOL     MW 3092   2.415   2.848   2.754  0.4132 -0.3093 -0.0820
  774SOL     OW 3093   2.348   1.160   1.727  0.3489 -0.1134  0.1489
  774SOL    HW1 3094   2.312   1.225   1.666 -0.7385  1.1065  1.5189
  774SOL    HW2 3095   2.292   1.090   1.709  0.2346 -0.7143 -0.0425
  774SOL     MW 3096   2.336   1.159   1.717  0.1903 -0.0317  0.3044
  775SOL     OW 3097   2.333   2.889   2.325 -0.0042  0.4889  0.1972
  775SOL    HW1 3098   2.353   2.969   2.274  1.3494  1.8224 -1.6758
  775SOL    HW2 3099   2.386   2.824   2.283 -1.8751  1.4591 -0.7856
  775SOL     MW 3100   2.343   2.891   2.313 -0.0724  0.7929 -0.1796
  776SOL     OW 3101   0.025   1.512   0.098  0.3038 -0.0646  0.4174
  776SOL    HW1 3102   0.116   1.490   0.088  1.2500  2.9670  0.1816
  776SOL    HW2 3103  -0.012   1.425   0.095  0.3404  1.5612  0.2745
  776SOL     MW 3104   0.032   1.498   0.096  0.4334  0.5499  0.3675
  777SOL     OW 3105   2.979   1.029   1.750  0.0085 -0.5988  0.3800
  777SOL    HW1 3106   2.937   1.071   1.672 -0.4272 -1.3920 -3.0204
  777SOL    HW2 3107   2.904   0.979   1.780 -2.0238 -0.0999 -2.0761
  777SOL     MW 3108   2.964   1.028   1.744 -0.3172 -0.6376 -0.3927
  778SOL     OW 3109   2.886   0.423   2.764  0.0126 -0.5804 -0.0834
  778SOL    HW1 3110   2.848   0.458   2.850  0.0898  0.3217 -0.1503
  778SOL    HW2 3111   2.925   0.501   2.727 -0.0058 -1.0315  1.2649
  778SOL     MW 3112   2.886   0.438   2.771  0.0204 -0.5209  0.0857
  779SOL     OW 3113   2.121   0.570   2.314 -0.3282 -0.1899  0.2230
  779SOL    HW1 3114   2.073   0.645   2.333 -2.3142 -1.4779 -0.0587
  779SOL    HW2 3115   2.106   0.515   2.385  2.0044  1.7906 -2.0216
  779SOL     MW 3116   2.113   0.573   2.326 -0.2825 -0.0985 -0.1103
  780SOL     OW 3117   0.222   0.134   2.827 -0.4178 -0.2600  0.3669
  780SOL    HW1 3118   0.161   0.179   2.886 -1.9157 -0.1310 -0.3208
  780SOL    HW2 3119   0.159   0.115   2.753 -0.4686  1.0782 -2.3824
  780SOL     MW 3120   0.206   0.137   2.825 -0.6221 -0.0664 -0.0866
  781SOL     OW 3121   3.071   1.339   2.504 -0.1068  0.3647 -0.6650
  781SOL    HW1 3122   3.052   1.392   2.427 -2.4663  1.5937 -0.2464
  781SOL    HW2 3123   3.094   1.259   2.469  0.1792  1.6231  1.3532
  781SOL     MW 3124   3.071   1.336   2.489 -0.3804  0.6929 -0.3435
  782SOL     OW 3125   0.514   1.622   3.052 -0.1456 -0.4630 -0.1691
  782SOL    HW1 3126   0.465   1.704   3.037 -2.5124 -1.1122  0.7993
  782SOL    HW2 3127   0.507   1.584   3.148 -2.0067 -2.2263  0.6445
  782SOL     MW 3128   0.507   1.628   3.063 -0.7034 -0.7813  0.0660
  783SOL     OW 3129   2.786   0.553   2.479 -0.3357 -0.0749 -0.1335
  783SOL    HW1 3130   2.760   0.527   2.388  1.1258  0.5773 -1.7807
  783SOL    HW2 3131   2.726   0.504   2.531  0.5835  2.3564  0.8417
  783SOL     MW 3132   2.774   0.543   2.474 -0.0216  0.3319 -0.2221
  784SOL     OW 3133   0.248   0.913   2.919 -0.5055  0.1858 -0.3515
  784SOL    HW1 3134   0.235   0.984   2.986 -2.6911  3.2824  2.2760
  784SOL    HW2 3135   0.254   0.946   2.830 -0.3908 -3.8340  1.5027
  784SOL     MW 3136   0.247   0.927   2.916 -0.7787  0.0640  0.2398
  785SOL     OW 3137   0.366   0.478   2.127 -0.5073 -0.3245 -1.0355
  785SOL    HW1 3138   0.379   0.503   2.035  0.5597 -0.8824  1.4934
  785SOL    HW2 3139   0.314   0.398   2.120  0.1842  2.4995  2.1987
  785SOL     MW 3140   0.361   0.471   2.114 -0.2753 -0.0255 -0.2751
  786SOL     OW 3141   1.972   0.481   2.863  0.3936  0.6418 -0.3212
  786SOL    HW1 3142   1.966   0.512   2.952 -3.1135 -2.6980  1.4613
  786SOL    HW2 3143   2.064   0.482   2.835 -2.3116 -1.2905  0.1731
  786SOL     MW 3144   1.983   0.485   2.871 -0.4261 -0.0538 -0.0208
  787SOL     OW 3145   2.422   0.184   2.899  0.7041  0.6446  0.2404
  787SOL    HW1 3146   2.473   0.119   2.856  1.6460  0.0237  0.6376
  787SOL    HW2 3147   2.488   0.230   2.943 -1.0076 -0.6230  1.2924
  787SOL     MW 3148   2.437   0.182   2.899  0.6025  0.3954  0.4316
  788SOL     OW 3149   2.967   2.919   2.279  0.0193 -0.3744  0.3329
  788SOL    HW1 3150   2.977   2.846   2.211  1.7213  1.6608 -1.2259
  788SOL    HW2 3151   3.016   2.878   2.351 -1.5893 -1.2658  2.1307
  788SOL     MW 3152   2.974   2.904   2.280  0.0316 -0.2235  0.3644
  789SOL     OW 3153   0.029   0.232   3.014 -0.5459  0.0995  0.6961
  789SOL    HW1 3154  -0.057   0.276   2.990 -0.1123  0.7606  1.5170
  789SOL    HW2 3155   0.067   0.294   3.071 -1.2462  1.2232  0.0673
  789SOL     MW 3156   0.023   0.246   3.018 -0.5811  0.3350  0.7214
  790SOL     OW 3157   0.009   1.050   2.462  0.2415  0.2223  0.8354
  790SOL    HW1 3158  -0.034   1.013   2.535  0.3948  0.9362 -0.0443
  790SOL    HW2 3159  -0.055   1.055   2.391  2.0669  3.5270  0.5257
  790SOL     MW 3160  -0.005   1.046   2.463  0.5026  0.7525  0.6785
  791SOL     OW 3161   2.641   0.395   2.639  0.3658 -0.0353 -0.3800
  791SOL    HW1 3162   2.588   0.464   2.668  1.8766  0.3871 -0.8779
  791SOL    HW2 3163   2.723   0.421   2.679 -0.0648 -0.9426 -0.2916
  791SOL     MW 3164   2.645   0.407   2.648  0.5083 -0.0993 -0.4340
  792SOL     OW 3165   2.383   0.238   2.393  0.5338 -0.1425  0.0286
  792SOL    HW1 3166   2.296   0.268   2.430  2.0385 -1.8286  0.2861
  792SOL    HW2 3167   2.440   0.219   2.465  1.2515  1.5259 -2.6341
  792SOL     MW 3168   2.379   0.240   2.407  0.8270 -0.1449 -0.2888
  793SOL     OW 3169   1.755   1.011   1.869 -0.4899  0.6202 -0.3119
  793SOL    HW1 3170   1.762   1.048   1.785 -1.2641  0.7257 -1.1144
  793SOL    HW2 3171   1.819   0.940   1.875 -2.3866  0.6928 -1.5326
  793SOL     MW 3172   1.765   1.006   1.859 -0.8423  0.6437 -0.5788
  794SOL     OW 3173   1.424   2.287   0.129 -0.4448 -0.1542  0.1260
  794SOL    HW1 3174   1.443   2.359   0.066  0.3774  0.5636 -1.1169
  794SOL    HW2 3175   1.452   2.310   0.217 -1.0919 -0.0404 -0.3211
  794SOL     MW 3176   1.430   2.300   0.132 -0.4217 -0.0445 -0.0970
  795SOL     OW 3177   2.335   0.931   2.593  0.7325 -0.1049 -0.2097
  795SOL    HW1 3178   2.282   0.998   2.635  0.9916 -1.7206 -2.4083
  795SOL    HW2 3179   2.336   0.957   2.499  0.4026  0.3999 -0.5114
  795SOL     MW 3180   2.328   0.943   2.586  0.7232 -0.2515 -0.5396
  796SOL     OW 3181   0.317   0.678   2.765 -0.0192  0.0859 -0.0116
  796SOL    HW1 3182   0.278   0.745   2.824 -0.3070 -0.1376 -0.4228
  796SOL    HW2 3183   0.251   0.648   2.702 -1.4339  1.4961  2.5668
  796SOL     MW 3184   0.303   0.683   2.764 -0.2439  0.2425  0.2744
  797SOL     OW 3185   2.595   0.120   2.567 -0.2974 -0.0631 -0.1309
  797SOL    HW1 3186   2.632   0.207   2.597  1.5317  2.3801  1.6912
  797SOL    HW2 3187   2.667   0.075   2.521 -0.3075  1.2777 -0.3852
  797SOL     MW 3188   2.609   0.126   2.565 -0.0574  0.4361  0.0759
  798SOL     OW 3189   2.369   0.056   2.182  0.6732 -0.4679 -0.3659
  798SOL    HW1 3190   2.386   0.112   2.260  0.1187 -0.1242  0.2957
  798SOL    HW2 3191   2.448   0.001   2.156  2.4024  0.9638  1.1904
  798SOL     MW 3192   2.382   0.056   2.189  0.8282 -0.2337 -0.0733
  799SOL     OW 3193   2.483   2.927   0.198  0.1107  0.0998 -0.0870
  799SOL    HW1 3194   2.528   2.894   0.119  1.1285  2.5346 -0.1649
  799SOL    HW2 3195   2.435   3.004   0.173 -0.0514 -2.2421 -0.2038
  799SOL     MW 3196   2.482   2.933   0.184  0.2236  0.1121 -0.1127
  800SOL     OW 3197   1.902   3.099   1.763  0.0687  0.0692 -0.4135
  800SOL    HW1 3198   1.836   3.033   1.788 -0.3690  0.9996 -0.6956
  800SOL    HW2 3199   1.965   3.098   1.839 -0.5199 -1.0629  0.7456
  800SOL     MW 3200   1.901   3.090   1.776 -0.0667  0.0426 -0.2978
  801SOL     OW 3201   2.804   1.286   2.568  0.3589 -0.2231  0.3378
  801SOL    HW1 3202   2.793   1.188   2.558 -1.1782 -0.5464 -0.3450
  801SOL    HW2 3203   2.897   1.308   2.566  1.1809 -1.4029  2.0956
  801SOL     MW 3204   2.815   1.276   2.566  0.2646 -0.4214  0.4797
  802SOL     OW 3205   2.558   1.512   2.769 -0.1081 -0.3806  0.4598
  802SOL    HW1 3206   2.537   1.430   2.726  0.6093 -1.3159  0.0279
  802SOL    HW2 3207   2.653   1.518   2.791 -1.1517  0.3542 -2.8884
  802SOL     MW 3208   2.568   1.502   2.766 -0.1511 -0.4071 -0.0390
  803SOL     OW 3209   2.305   1.298   1.965 -0.3068  0.1693  0.2152
  803SOL    HW1 3210   2.250   1.247   2.021 -2.7471  0.4668  0.4690
  803SOL    HW2 3211   2.334   1.242   1.889 -0.2362 -0.5711  1.1157
  803SOL     MW 3212   2.302   1.284   1.962 -0.6195  0.1109  0.3675
  804SOL     OW 3213   2.352   0.051   0.036 -0.1247  0.0539  0.3783
  804SOL    HW1 3214   2.262   0.086   0.029  0.6138 -0.5083 -0.0023
  804SOL    HW2 3215   2.397   0.088  -0.042  0.6554  0.9947 -0.2502
  804SOL     MW 3216   2.346   0.060   0.025  0.0757  0.1039  0.2452
  805SOL     OW 3217   2.768   1.023   2.535 -0.0572 -0.1704 -0.2627
  805SOL    HW1 3218   2.709   0.949   2.510 -2.2673  2.3597 -0.7535
  805SOL    HW2 3219   2.826   0.986   2.606  0.1237  0.0225  1.2714
  805SOL     MW 3220   2.768   1.008   2.541 -0.3250  0.1889 -0.1250
  806SOL     OW 3221   2.679   0.354   2.241  0.4571 -0.2370 -0.5042
  806SOL    HW1 3222   2.596   0.353   2.290 -0.8981  2.1740 -1.7905
  806SOL    HW2 3223   2.695   0.430   2.183 -0.7727 -0.7297 -1.1748
  806SOL     MW 3224   2.670   0.364   2.240  0.1160  0.0161 -0.7624
  807SOL     OW 3225   0.025   1.146   2.045  0.0013  0.4223  0.5351
  807SOL    HW1 3226   0.061   1.058   2.024 -1.3912 -1.1726  3.0823
  807SOL    HW2 3227  -0.041   1.134   2.116 -1.3777  0.8067  1.5181
  807SOL     MW 3228   0.021   1.133   2.052 -0.3643  0.2626  1.0009
  808SOL     OW 3229   2.572   3.087   2.797  0.4499  0.1832  0.1165
  808SOL    HW1 3230   2.541   2.996   2.773 -4.0129  0.9784 -1.6088
  808SOL    HW2 3231   2.595   3.123   2.711 -0.5036 -2.9484  2.1713
  808SOL     MW 3232   2.571   3.080   2.783 -0.2648 -0.1251  0.1600
  809SOL     OW 3233   2.489   1.248   2.416  0.2181 -0.2072  0.1083
  809SOL    HW1 3234   2.526   1.222   2.500 -0.7279  0.9623 -1.3148
  809SOL    HW2 3235   2.569   1.239   2.365 -0.1158 -2.9889 -2.2708
  809SOL     MW 3236   2.505   1.243   2.420  0.0492 -0.4199 -0.3934
  810SOL     OW 3237   2.166   1.188   2.173  0.3737 -0.0519 -0.1009
  810SOL    HW1 3238   2.198   1.131   2.242 -0.1794 -0.1629 -1.1228
  810SOL    HW2 3239   2.076   1.154   2.155 -1.6678  1.1200 -1.6005
  810SOL     MW 3240   2.158   1.176   2.180  0.0314  0.0881 -0.4336
  811SOL     OW 3241   1.471   0.107   2.253  0.4095  0.3781 -0.0780
  811SOL    HW1 3242   1.552   0.064   2.279  0.1875 -4.5502  0.1075
  811SOL    HW2 3243   1.464   0.060   2.164  0.0800 -3.4594  0.1764
  811SOL     MW 3244   1.481   0.095   2.245  0.3367 -0.7785 -0.0200
  812SOL     OW 3245   1.404   2.770   2.107  0.5514  0.0894  0.2148
  812SOL    HW1 3246   1.488   2.776   2.053  1.3430 -0.9200  1.9349
  812SOL    HW2 3247   1.435   2.773   2.198  0.2278 -0.0320  0.2809
  812SOL     MW 3248   1.419   2.771   2.112  0.6132 -0.0598  0.4505
  813SOL     OW 3249   1.854   0.760   2.165 -0.3155 -0.0250 -0.0651
  813SOL    HW1 3250   1.846   0.678   2.208  1.5798  0.8510  0.5849
  813SOL    HW2 3251   1.912   0.812   2.222  3.0812 -0.1760  0.6918
  813SOL     MW 3252   1.860   0.756   2.178  0.3827  0.0707  0.1206
  814SOL     OW 3253   2.795   1.212   1.620 -0.2466 -0.7112 -0.2221
  814SOL    HW1 3254   2.722   1.166   1.671  0.5898 -1.8649  0.7158
  814SOL    HW2 3255   2.778   1.192   1.528 -0.0714  1.3991 -0.0450
  814SOL     MW 3256   2.783   1.203   1.614 -0.1131 -0.5850 -0.0750
  815SOL     OW 3257   2.469   1.644   2.341  0.3787  0.0373 -0.2826
  815SOL    HW1 3258   2.390   1.595   2.359 -0.7718 -4.3030  0.5724
  815SOL    HW2 3259   2.543   1.587   2.347 -2.4224  1.3729 -1.8577
  815SOL     MW 3260   2.469   1.630   2.344 -0.1427 -0.3591 -0.3776
  816SOL     OW 3261   0.669   0.694   2.696 -0.2321 -0.9290 -0.7005
  816SOL    HW1 3262   0.697   0.613   2.733  1.1248  1.2517 -0.2893
  816SOL    HW2 3263   0.584   0.664   2.653  0.3951 -1.0157  1.1378
  816SOL     MW 3264   0.661   0.680   2.696  0.0297 -0.6528 -0.4037
  817SOL     OW 3265   3.014   1.149   1.364 -0.8486 -0.4102 -0.6733
  817SOL    HW1 3266   3.076   1.164   1.435 -0.8785  2.4119 -1.8713
  817SOL    HW2 3267   3.008   1.238   1.319  0.2813  4.4836  2.2079
  817SOL     MW 3268   3.021   1.163   1.367 -0.7035  0.6078 -0.4512
  818SOL     OW 3269   1.914   0.965   2.684  0.2197 -0.0964  0.0939
  818SOL    HW1 3270   1.951   1.037   2.635  1.3215  0.3349 -1.1332
  818SOL    HW2 3271   1.988   0.906   2.703 -2.4318 -2.8248  1.1446
  818SOL     MW 3272   1.929   0.967   2.680  0.0152 -0.3995  0.0706
  819SOL     OW 3273   1.850   0.268   2.340  0.7130 -0.6372 -0.4053
  819SOL    HW1 3274   1.807   0.344   2.381  1.2808  2.1386  0.5933
  819SOL    HW2 3275   1.902   0.230   2.413 -0.3397  0.3061 -1.3608
  819SOL     MW 3276   1.851   0.273   2.355  0.6490 -0.1465 -0.3996
  820SOL     OW 3277   2.481   1.737   2.618  0.1009  0.5127  0.0493
  820SOL    HW1 3278   2.524   1.663   2.659  3.9829 -0.1136 -3.5257
  820SOL    HW2 3279   2.481   1.724   2.519  2.6213  2.4625 -2.0989
  820SOL     MW 3280   2.487   1.725   2.610  0.9456  0.6873 -0.7058
  821SOL     OW 3281   2.576   1.330   2.001  0.0501 -0.0433 -0.6483
  821SOL    HW1 3282   2.585   1.397   1.928  1.4591 -1.2447 -1.4785
  821SOL    HW2 3283   2.484   1.318   2.011  0.2749  1.3687 -2.1471
  821SOL     MW 3284   2.565   1.337   1.992  0.2657 -0.0156 -0.9556
  822SOL     OW 3285   2.918   2.673   1.400  0.2230 -0.5083  0.7949
  822SOL    HW1 3286   2.853   2.737   1.373 -0.1975 -1.2028  1.2422
  822SOL    HW2 3287   2.992   2.716   1.433 -1.0587 -0.8884 -0.7374
  822SOL     MW 3288   2.919   2.687   1.400 -0.0016 -0.6501  0.6518
  823SOL     OW 3289   2.328   0.446   1.749  0.4760  0.6306 -0.0781
  823SOL    HW1 3290   2.407   0.414   1.699  0.2454  3.8259 -2.4511
  823SOL    HW2 3291   2.249   0.389   1.725 -2.4314  0.9386  1.9326
  823SOL     MW 3292   2.328   0.434   1.739  0.0619  1.0928 -0.1259
  824SOL     OW 3293   2.119   1.371   2.578 -0.3084  0.6988  0.8519
  824SOL    HW1 3294   2.164   1.397   2.494  0.6493 -0.6713 -1.2330
  824SOL    HW2 3295   2.098   1.457   2.628 -0.0967  1.0573  1.5838
  824SOL     MW 3296   2.122   1.386   2.573 -0.1541  0.5654  0.6734
  825SOL     OW 3297   2.138   2.397   0.371 -0.4704  0.0769 -0.6062
  825SOL    HW1 3298   2.195   2.412   0.293  1.0911 -3.1137 -4.1972
  825SOL    HW2 3299   2.198   2.390   0.445 -3.4199  2.1178 -0.5244
  825SOL     MW 3300   2.153   2.398   0.371 -0.6535 -0.0748 -1.0692
  826SOL     OW 3301   1.741   2.383   0.414 -0.1392  0.6451  0.4481
  826SOL    HW1 3302   1.758   2.307   0.476  0.1776 -1.7225  0.3401
  826SOL    HW2 3303   1.777   2.454   0.473  1.9089  2.7343  0.2345
  826SOL     MW 3304   1.748   2.383   0.430  0.1728  0.6084  0.4056
  827SOL     OW 3305   1.938   2.284   0.859  0.0222 -0.2777 -0.1214
  827SOL    HW1 3306   1.884   2.277   0.775  1.3127  0.5333 -1.4316
  827SOL    HW2 3307   1.889   2.239   0.931 -1.2913 -1.9315  2.6468
  827SOL     MW 3308   1.925   2.277   0.858  0.0191 -0.3889  0.0709
  828SOL     OW 3309   0.061   2.602   0.557  0.5810  0.0740 -0.2395
  828SOL    HW1 3310   0.144   2.559   0.541  2.3047  0.9615 -1.6706
  828SOL    HW2 3311   0.052   2.650   0.469  1.5352  3.3223  1.7918
  828SOL     MW 3312   0.070   2.603   0.543  0.9343  0.6197 -0.1603
  829SOL     OW 3313   2.992   2.886   1.209 -0.4215 -0.4403 -0.6925
  829SOL    HW1 3314   2.919   2.877   1.156 -0.0054  1.8822  0.9234
  829SOL    HW2 3315   3.024   2.798   1.221 -2.6872  0.5002 -0.5078
  829SOL     MW 3316   2.987   2.873   1.203 -0.6656 -0.0098 -0.4549
  830SOL     OW 3317   2.506   2.779   1.989  0.4988 -0.0627  0.5105
  830SOL    HW1 3318   2.421   2.811   1.964 -3.4667 -0.0379 -1.6415
  830SOL    HW2 3319   2.547   2.751   1.908  3.2324  1.0442  2.0429
  830SOL     MW 3320   2.500   2.779   1.975  0.3363  0.0866  0.4287
  831SOL     OW 3321   2.457   2.432   1.223  0.0140 -0.1711  0.8013
  831SOL    HW1 3322   2.453   2.336   1.253 -0.4187 -3.0540 -1.7157
  831SOL    HW2 3323   2.547   2.428   1.188 -0.4665  0.0733 -1.1853
  831SOL     MW 3324   2.468   2.419   1.222 -0.1065 -0.5192  0.2071
  832SOL     OW 3325   2.425   2.122   1.914  0.4328 -0.0794 -0.0412
  832SOL    HW1 3326   2.473   2.205   1.919  2.1275  2.2934  2.3326
  832SOL    HW2 3327   2.469   2.075   1.840 -2.3060  1.0415 -1.4157
  832SOL     MW 3328   2.437   2.127   1.905  0.2950  0.3816  0.0906
  833SOL     OW 3329   1.628   2.534   0.838  0.2014 -0.5852 -0.1483
  833SOL    HW1 3330   1.591   2.446   0.870 -1.0449 -0.2624 -2.9965
  833SOL    HW2 3331   1.545   2.589   0.843 -3.0327 -1.8357  1.1797
  833SOL     MW 3332   1.612   2.529   0.843 -0.3897 -0.7076 -0.3488
  834SOL     OW 3333   2.254   2.370   0.649 -0.2707  0.2344  0.1844
  834SOL    HW1 3334   2.241   2.277   0.685  0.9401 -2.1105  0.8389
  834SOL    HW2 3335   2.341   2.392   0.664 -0.2114  0.6765  1.9817
  834SOL     MW 3336   2.264   2.360   0.656 -0.1031 -0.0167  0.5079
  835SOL     OW 3337   1.797   2.532   0.615  1.0581  0.0138  0.6286
  835SOL    HW1 3338   1.741   2.534   0.688 -1.7361 -1.6933 -1.5463
  835SOL    HW2 3339   1.867   2.479   0.658  4.6257  1.5671 -1.3780
  835SOL     MW 3340   1.799   2.525   0.630  1.1601 -0.0065  0.0769
  836SOL     OW 3341   2.097   2.083   1.718  0.0212 -0.3263  0.7720
  836SOL    HW1 3342   2.177   2.037   1.728 -1.1889  0.3960  0.5439
  836SOL    HW2 3343   2.119   2.176   1.734  1.1651 -0.4498 -1.4734
  836SOL     MW 3344   2.111   2.089   1.721  0.0125 -0.2473  0.4457
  837SOL     OW 3345   2.101   0.173   0.620  0.0229  0.0954 -0.4688
  837SOL    HW1 3346   2.026   0.204   0.577  1.5772 -1.5826  2.4592
  837SOL    HW2 3347   2.152   0.111   0.566  1.7257  1.7038 -0.0243
  837SOL     MW 3348   2.098   0.169   0.607  0.4527  0.0862 -0.0239
  838SOL     OW 3349   2.915   2.056   0.899  0.4414  0.2680 -0.0361
  838SOL    HW1 3350   2.835   2.005   0.889 -0.6985 -2.0806  0.0600
  838SOL    HW2 3351   2.935   2.070   0.994 -0.0245 -0.6200 -0.8695
  838SOL     MW 3352   2.907   2.051   0.910  0.2295 -0.1590 -0.1334
  839SOL     OW 3353   1.542   2.392   1.052 -0.8831  0.1437  0.3445
  839SOL    HW1 3354   1.510   2.468   1.098 -0.1810 -1.1041  1.1811
  839SOL    HW2 3355   1.559   2.309   1.113  1.0098  1.6797 -1.1428
  839SOL     MW 3356   1.540   2.391   1.066 -0.5407  0.1817  0.2586
  840SOL     OW 3357   2.434   2.106   2.326  0.0042  0.1164 -0.2924
  840SOL    HW1 3358   2.362   2.174   2.324 -0.6131  1.2187  0.5978
  840SOL    HW2 3359   2.484   2.139   2.403  0.3598  0.7447  1.1573
  840SOL     MW 3360   2.431   2.120   2.336 -0.0303  0.3448  0.0164
  841SOL     OW 3361   2.329   2.291   0.119 -0.0028  0.2012  0.1240
  841SOL    HW1 3362   2.329   2.356   0.048 -1.1590 -0.4448 -1.9180
  841SOL    HW2 3363   2.247   2.243   0.113  0.8643  0.0511  0.8169
  841SOL     MW 3364   2.318   2.293   0.109 -0.0409  0.0962 -0.0540
  842SOL     OW 3365   2.636   1.921   1.461  0.2350  0.3939  0.6256
  842SOL    HW1 3366   2.578   1.845   1.463  1.6172 -0.8534  2.6405
  842SOL    HW2 3367   2.635   1.952   1.368 -0.7090 -0.3785  0.1480
  842SOL     MW 3368   2.628   1.915   1.449  0.2928  0.1274  0.8284
  843SOL     OW 3369   2.646   2.779   1.760  0.5423 -0.0544  0.2198
  843SOL    HW1 3370   2.738   2.746   1.771  3.4103  0.2351  0.8412
  843SOL    HW2 3371   2.599   2.696   1.724 -3.3611  0.5306 -0.5801
  843SOL     MW 3372   2.652   2.764   1.756  0.4057  0.0610  0.1962
  844SOL     OW 3373   2.700   2.330   1.096 -0.5071  0.0785 -0.4456
  844SOL    HW1 3374   2.695   2.375   1.013  0.5976 -0.5985  0.4285
  844SOL    HW2 3375   2.784   2.363   1.130 -0.1246  0.4601 -1.1556
  844SOL     MW 3376   2.711   2.340   1.089 -0.3108  0.0395 -0.4239
  845SOL     OW 3377   2.860   2.598   0.291 -0.2244 -0.0641 -0.0334
  845SOL    HW1 3378   2.845   2.525   0.350  2.8283  2.2641 -0.5127
  845SOL    HW2 3379   2.863   2.666   0.354 -1.5976 -0.0898  0.4937
  845SOL     MW 3380   2.858   2.598   0.307 -0.0028  0.2397 -0.0271
  846SOL     OW 3381   1.470   2.758   0.793 -0.1750 -0.2807 -0.2842
  846SOL    HW1 3382   1.519   2.838   0.820  1.1341 -0.9537  0.0851
  846SOL    HW2 3383   1.379   2.783   0.785  0.7775  0.5933 -0.5313
  846SOL     MW 3384   1.464   2.772   0.796  0.1234 -0.2542 -0.2681
  847SOL     OW 3385   2.468   1.847   0.225 -0.6049  0.0216 -0.0727
  847SOL    HW1 3386   2.436   1.752   0.248  0.4099 -2.1966 -2.2141
  847SOL    HW2 3387   2.458   1.856   0.120  0.0061 -0.7186 -0.6537
  847SOL     MW 3388   2.462   1.835   0.214 -0.3904 -0.3687 -0.4319
  848SOL     OW 3389   2.681   2.053   1.199 -0.2960 -0.2108  0.1369
  848SOL    HW1 3390   2.715   2.129   1.150 -1.0934 -3.5107 -2.3117
  848SOL    HW2 3391   2.707   1.978   1.148  3.2474  2.7970 -0.2509
  848SOL     MW 3392   2.689   2.053   1.186  0.0663 -0.2493 -0.2374
  849SOL     OW 3393   1.950   2.847   0.817 -0.3700 -0.3282  0.5172
  849SOL    HW1 3394   1.908   2.819   0.900 -1.4587  2.2355  1.8445
  849SOL    HW2 3395   2.000   2.765   0.797 -0.3622 -2.2949 -1.0474
  849SOL     MW 3396   1.951   2.833   0.825 -0.5126 -0.2494  0.4859
  850SOL     OW 3397   2.314   1.903   1.623  0.4467  0.6863  0.0033
  850SOL    HW1 3398   2.233   1.878   1.570  1.0916  1.3924  2.1994
  850SOL    HW2 3399   2.334   1.998   1.593 -1.2947  3.0370 -3.3465
  850SOL     MW 3400   2.306   1.912   1.612  0.3021  1.0896 -0.1489
  851SOL     OW 3401   2.497   2.217   0.383  0.8596 -0.3612  0.3311
  851SOL    HW1 3402   2.535   2.176   0.304  1.8815 -1.1357 -1.7613
  851SOL    HW2 3403   2.485   2.312   0.373  3.1754 -1.1265 -0.2395
  851SOL     MW 3404   2.500   2.224   0.371  1.3000 -0.5644 -0.0202
  852SOL     OW 3405   2.287   2.001   0.361 -0.5310 -0.2997 -0.6491
  852SOL    HW1 3406   2.304   2.094   0.364  0.1736  0.3820  1.2254
  852SOL    HW2 3407   2.347   1.960   0.296  0.3338 -1.7507  3.3468
  852SOL     MW 3408   2.297   2.008   0.353 -0.3239 -0.4012  0.1254
  853SOL     OW 3409   2.531   2.370   1.921  0.1754 -0.0898 -0.2948
  853SOL    HW1 3410   2.527   2.423   1.840  2.8449 -0.5953 -1.3355
  853SOL    HW2 3411   2.628   2.378   1.935 -1.9894 -0.2806 -0.7908
  853SOL     MW 3412   2.543   2.378   1.912  0.2420 -0.1817 -0.4975
  854SOL     OW 3413   2.894   2.282   0.731  0.1762 -0.6836 -0.3932
  854SOL    HW1 3414   2.805   2.261   0.705  0.8704  0.7467  3.2927
  854SOL    HW2 3415   2.910   2.223   0.809  1.6287 -0.3633  1.4543
  854SOL     MW 3416   2.885   2.271   0.738  0.4594 -0.4526  0.3369
  855SOL     OW 3417   2.784   2.386   0.425  0.3208  0.1644 -0.1161
  855SOL    HW1 3418   2.707   2.364   0.476  1.4290  1.8114 -1.1659
  855SOL    HW2 3419   2.823   2.301   0.406 -1.8255  1.2819 -0.5776
  855SOL     MW 3420   2.779   2.372   0.429  0.1839  0.5292 -0.3155
  856SOL     OW 3421   2.058   1.861   0.234  0.1773  0.1313  0.0746
  856SOL    HW1 3422   1.976   1.877   0.286  1.4155  0.3129  1.1288
  856SOL    HW2 3423   2.131   1.905   0.278 -0.4336  2.3093  0.9360
  856SOL     MW 3424   2.057   1.869   0.246  0.2601  0.4427  0.3273
  857SOL     OW 3425   2.468   1.946   0.582 -0.0638 -0.3789  0.0968
  857SOL    HW1 3426   2.417   1.959   0.497  0.1596 -1.6833 -0.5324
  857SOL    HW2 3427   2.401   1.943   0.659 -1.5808 -0.9319  2.0498
  857SOL     MW 3428   2.452   1.948   0.581 -0.2345 -0.6239  0.2714
  858SOL     OW 3429   2.894   2.694   1.789 -0.1019  0.5179  0.3687
  858SOL    HW1 3430   2.976   2.713   1.831 -1.4608 -0.2313  0.9766
  858SOL    HW2 3431   2.913   2.611   1.745 -2.1453  1.4026  0.9962
  858SOL     MW 3432   2.907   2.685   1.789 -0.5508  0.5358  0.5317
  859SOL     OW 3433   1.807   2.688   0.980 -0.8122 -0.1548 -0.6566
  859SOL    HW1 3434   1.747   2.637   0.923 -2.2846 -0.4625 -2.6586
  859SOL    HW2 3435   1.871   2.622   0.996  1.7685 -3.2125 -0.7116
  859SOL     MW 3436   1.808   2.673   0.974 -0.6660 -0.5989 -0.9280
  860SOL     OW 3437   2.614   2.579   0.151  0.2315 -0.1919 -0.3025
  860SOL    HW1 3438   2.692   2.582   0.213 -1.1424  1.8580 -0.8263
  860SOL    HW2 3439   2.630   2.654   0.092  1.1492  1.8476 -1.6231
  860SOL     MW 3440   2.626   2.590   0.152  0.1713  0.3476 -0.5458
  861SOL     OW 3441   1.627   2.141   1.197 -0.3122  0.1842 -0.5010
  861SOL    HW1 3442   1.626   2.205   1.268  1.0750 -3.5225  4.3909
  861SOL    HW2 3443   1.545   2.094   1.214 -1.5646 -0.1037 -0.5014
  861SOL     MW 3444   1.616   2.143   1.209 -0.2944 -0.3428  0.1444
  862SOL     OW 3445   2.429   1.719   1.428 -0.7019 -0.3591 -0.1087
  862SOL    HW1 3446   2.377   1.762   1.492  2.3041 -0.1352 -1.8906
  862SOL    HW2 3447   2.379   1.720   1.347 -0.2397  4.8000  0.2019
  862SOL     MW 3448   2.416   1.725   1.426 -0.2443  0.3511 -0.3029
  863SOL     OW 3449   2.959   1.715   0.974 -0.6541 -0.0134 -0.2377
  863SOL    HW1 3450   3.045   1.730   1.013 -2.7255  1.9900  2.0944
  863SOL    HW2 3451   2.905   1.761   1.035 -1.8255  1.3325 -1.6678
  863SOL     MW 3452   2.963   1.723   0.987 -1.0819  0.4285 -0.1187
  864SOL     OW 3453   0.021   1.769   0.757 -0.0591 -0.4329  0.3198
  864SOL    HW1 3454  -0.050   1.755   0.822  0.7659 -0.3549  1.7573
  864SOL    HW2 3455  -0.014   1.790   0.675  1.3476 -0.6952 -0.8041
  864SOL     MW 3456   0.007   1.769   0.755  0.2354 -0.4572  0.3612
  865SOL     OW 3457   2.565   2.159   0.108 -0.3730 -0.5186  0.6038
  865SOL    HW1 3458   2.551   2.067   0.082  1.8239  1.3604 -1.0192
  865SOL    HW2 3459   2.487   2.217   0.110  1.2798 -1.7337  1.0863
  865SOL     MW 3460   2.553   2.154   0.105  0.1349 -0.4310  0.4533
  866SOL     OW 3461   2.705   2.354   1.531  0.4339 -0.3171 -0.0912
  866SOL    HW1 3462   2.672   2.272   1.559 -0.4482 -1.0355 -2.5364
  866SOL    HW2 3463   2.748   2.341   1.442  2.5388 -1.3980 -0.6523
  866SOL     MW 3464   2.706   2.341   1.523  0.5953 -0.5545 -0.4879
  867SOL     OW 3465   0.098   2.647   1.733 -0.0719  0.5197  0.0877
  867SOL    HW1 3466   0.186   2.676   1.765  0.6468  0.3892 -0.4111
  867SOL    HW2 3467   0.089   2.707   1.656 -0.7596  2.9012 -0.4085
  867SOL     MW 3468   0.109   2.658   1.727 -0.0678  0.8167 -0.0436
  868SOL     OW 3469   2.742   2.697   0.567 -0.2967  0.0201  0.6179
  868SOL    HW1 3470   2.725   2.601   0.539  0.4376 -3.3395 -0.0323
  868SOL    HW2 3471   2.659   2.742   0.552 -2.0582 -1.3827  0.2251
  868SOL     MW 3472   2.729   2.690   0.561 -0.4322 -0.6082  0.4803
  869SOL     OW 3473   2.002   2.471   1.048 -0.8196 -0.0751  0.2819
  869SOL    HW1 3474   2.083   2.506   1.015  0.0865 -0.0027 -0.4724
  869SOL    HW2 3475   1.971   2.404   0.984  0.9009 -1.2817 -2.2934
  869SOL     MW 3476   2.009   2.467   1.035 -0.4731 -0.2247 -0.1574
  870SOL     OW 3477   2.233   3.077   0.473 -0.2704 -0.1263 -0.1307
  870SOL    HW1 3478   2.304   3.097   0.414 -2.5881  0.8372 -2.5176
  870SOL    HW2 3479   2.262   3.009   0.531  1.1082 -1.1896  1.0680
  870SOL     MW 3480   2.246   3.071   0.473 -0.3943 -0.1395 -0.2875
  871SOL     OW 3481   2.482   2.106   0.899 -0.0472 -0.4872  0.4854
  871SOL    HW1 3482   2.420   2.038   0.874 -0.8590  2.0031  0.7955
  871SOL    HW2 3483   2.440   2.187   0.925  0.2624  0.2720  0.2110
  871SOL     MW 3484   2.468   2.108   0.899 -0.1134 -0.0585  0.4901
  872SOL     OW 3485   2.124   2.533   1.596 -0.0617 -0.2034  1.2519
  872SOL    HW1 3486   2.075   2.580   1.664 -0.7374  0.4205 -0.0901
  872SOL    HW2 3487   2.069   2.517   1.515 -0.4447 -1.3882 -1.6431
  872SOL     MW 3488   2.110   2.537   1.594 -0.2014 -0.2774  0.6928
  873SOL     OW 3489   2.867   2.152   1.815  0.0661  0.9137 -0.1057
  873SOL    HW1 3490   2.861   2.223   1.881  0.2141 -0.9915  0.1163
  873SOL    HW2 3491   2.945   2.167   1.757 -1.5635 -0.1453 -2.2162
  873SOL     MW 3492   2.876   2.163   1.816 -0.1294  0.5226 -0.3548
  874SOL     OW 3493   2.248   1.397   2.332  0.2857  0.6339 -0.2650
  874SOL    HW1 3494   2.200   1.338   2.268 -0.9825  0.4561 -1.9014
  874SOL    HW2 3495   2.324   1.351   2.347 -1.9719 -3.2712 -1.3732
  874SOL     MW 3496   2.252   1.383   2.326 -0.1795  0.0952 -0.6271
  875SOL     OW 3497   2.388   2.368   0.948 -0.1519 -0.3525  0.1648
  875SOL    HW1 3498   2.416   2.427   0.877  0.1044 -1.8255 -0.1875
  875SOL    HW2 3499   2.423   2.396   1.035  2.6571  3.1122  1.3237
  875SOL     MW 3500   2.396   2.379   0.950  0.2525 -0.0897  0.2712
  876SOL     OW 3501   3.073   2.243   1.301 -0.2622  0.1388  0.2007
  876SOL    HW1 3502   3.145   2.308   1.294  1.1372 -0.7908  1.7364
  876SOL    HW2 3503   3.080   2.216   1.390 -1.0690 -0.8894 -0.2068
  876SOL     MW 3504   3.083   2.248   1.312 -0.1840 -0.1195  0.3495
  877SOL     OW 3505   0.020   2.737   0.325 -0.4890  0.0870 -0.1730
  877SOL    HW1 3506   0.085   2.794   0.295 -0.3830 -3.1658 -0.9190
  877SOL    HW2 3507   0.010   2.683   0.243 -0.6143 -2.0520 -2.0316
  877SOL     MW 3508   0.027   2.737   0.310 -0.4916 -0.6244 -0.5166
  878SOL     OW 3509   2.261   1.673   1.165 -0.0071 -0.4427 -0.3975
  878SOL    HW1 3510   2.178   1.623   1.215 -0.0485 -0.9013  0.7413
  878SOL    HW2 3511   2.286   1.607   1.102 -0.7054 -1.8874 -0.7389
  878SOL     MW 3512   2.254   1.657   1.163 -0.1047 -0.6938 -0.2923
  879SOL     OW 3513   2.728   2.475   0.843  0.0634  0.3232 -0.0194
  879SOL    HW1 3514   2.785   2.543   0.879 -1.2533 -2.0419  1.9039
  879SOL    HW2 3515   2.786   2.419   0.784  0.7456  0.0039  2.1651
  879SOL     MW 3516   2.743   2.477   0.840 -0.0203 -0.0310  0.5226
  880SOL     OW 3517   2.584   2.216   0.670  0.3739  0.0983  0.5249
  880SOL    HW1 3518   2.552   2.171   0.750  0.6339  1.4925 -1.4902
  880SOL    HW2 3519   2.580   2.142   0.611 -0.9392 -2.5978 -1.7896
  880SOL     MW 3520   2.580   2.200   0.673  0.2350 -0.0735 -0.0464
  881SOL     OW 3521   2.984   2.779   0.697  0.1986 -0.2785  0.4280
  881SOL    HW1 3522   2.917   2.725   0.651  1.0209  1.0334  1.3788
  881SOL    HW2 3523   3.065   2.734   0.663 -2.0734 -0.2633  2.3447
  881SOL     MW 3524   2.986   2.766   0.687  0.0073 -0.1034  0.8063
  882SOL     OW 3525   2.245   2.899   1.938 -0.5512  0.3274 -0.0280
  882SOL    HW1 3526   2.223   2.914   1.844 -1.2083  0.8689  0.0538
  882SOL    HW2 3527   2.204   2.817   1.959 -0.0317  1.1372  0.7878
  882SOL     MW 3528   2.237   2.890   1.928 -0.5694  0.5057  0.0904
  883SOL     OW 3529   2.439   2.150   1.303  0.7876 -0.3187 -0.0352
  883SOL    HW1 3530   2.529   2.142   1.274  2.6879 -0.0599  0.9946
  883SOL    HW2 3531   2.386   2.127   1.221 -1.0618 -0.2545 -0.3653
  883SOL     MW 3532   2.444   2.146   1.289  0.7943 -0.2761  0.0571
  884SOL     OW 3533   1.921   1.838   1.052 -0.4642  0.1822 -0.1155
  884SOL    HW1 3534   1.874   1.923   1.042  3.3569  1.1192 -0.0494
  884SOL    HW2 3535   2.011   1.864   1.033  0.5256 -0.6595  2.5021
  884SOL     MW 3536   1.927   1.853   1.048  0.1705  0.1948  0.2386
  885SOL     OW 3537   2.921   2.433   1.685  0.7965 -0.3887 -0.3191
  885SOL    HW1 3538   2.978   2.361   1.668  1.0786 -0.0696  1.0690
  885SOL    HW2 3539   2.839   2.408   1.640 -2.7171  1.2983 -1.1431
  885SOL     MW 3540   2.918   2.420   1.677  0.3701 -0.1240 -0.2447
  886SOL     OW 3541   2.891   2.429   1.272 -0.0400 -0.4041 -0.3747
  886SOL    HW1 3542   2.960   2.369   1.286  0.2892  0.7503  1.7562
  886SOL    HW2 3543   2.913   2.518   1.313  2.0311  1.9783  1.1714
  886SOL     MW 3544   2.903   2.433   1.279  0.2767  0.0625  0.1105
  887SOL     OW 3545   2.330   2.705   1.559 -0.2941 -0.2417  0.3946
  887SOL    HW1 3546   2.325   2.735   1.467 -2.8293  0.6395 -0.6139
  887SOL    HW2 3547   2.249   2.650   1.576  0.3143 -1.5941  2.2776
  887SOL     MW 3548   2.318   2.702   1.549 -0.5483 -0.3038  0.5100
  888SOL     OW 3549   2.050   2.161   1.408 -0.2519  0.1259  0.3925
  888SOL    HW1 3550   2.088   2.131   1.327 -1.3416  0.2431 -0.0647
  888SOL    HW2 3551   2.122   2.185   1.465  1.8471 -0.4572  0.8880
  888SOL     MW 3552   2.064   2.161   1.405 -0.1188  0.0644  0.3976
  889SOL     OW 3553   2.285   1.904   2.055  0.2991 -0.7369  0.7052
  889SOL    HW1 3554   2.370   1.892   2.108  0.7324  2.5769  1.0875
  889SOL    HW2 3555   2.315   1.981   2.000 -2.0210  0.9583  0.9393
  889SOL     MW 3556   2.301   1.913   2.055  0.0502 -0.0760  0.7865
  890SOL     OW 3557   0.051   2.349   0.171  0.0066 -0.1737  0.0945
  890SOL    HW1 3558   0.011   2.438   0.166  0.7649  1.0619 -1.9976
  890SOL    HW2 3559   0.045   2.321   0.257 -1.1698  1.9490 -2.1978
  890SOL     MW 3560   0.045   2.357   0.182 -0.0486  0.2694 -0.4840
  891SOL     OW 3561   3.007   2.010   1.170 -0.5498 -0.9182 -0.0273
  891SOL    HW1 3562   3.083   1.957   1.167  1.3354  0.2337  1.2264
  891SOL    HW2 3563   3.047   2.096   1.199  3.5668 -1.1897  0.2942
  891SOL     MW 3564   3.022   2.014   1.173  0.2421 -0.8020  0.1806
  892SOL     OW 3565   2.481   2.377   2.793 -0.2633 -0.6515 -0.0429
  892SOL    HW1 3566   2.453   2.303   2.842  2.3279  0.9764 -0.2408
  892SOL    HW2 3567   2.571   2.407   2.821  1.6572  0.6735 -0.9614
  892SOL     MW 3568   2.489   2.371   2.803  0.3320 -0.2619 -0.1902
  893SOL     OW 3569   1.642   2.332   1.382 -0.2455  0.0125  0.3773
  893SOL    HW1 3570   1.557   2.385   1.380 -1.4202  0.0996 -1.4792
  893SOL    HW2 3571   1.690   2.362   1.459 -0.1792  0.1216 -0.0921
  893SOL     MW 3572   1.637   2.343   1.392 -0.3917  0.0384  0.0704
  894SOL     OW 3573   2.763   1.908   0.473 -0.2017  1.2399  0.2507
  894SOL    HW1 3574   2.678   1.922   0.518  2.6018  1.0659 -0.2247
  894SOL    HW2 3575   2.744   1.878   0.387  0.7365  1.1611 -0.7430
  894SOL     MW 3576   2.749   1.906   0.468  0.2920  1.2066  0.0569
  895SOL     OW 3577   2.255   2.108   1.117 -0.2993 -0.2998  0.0919
  895SOL    HW1 3578   2.212   2.170   1.054  1.3106 -0.1552 -0.5891
  895SOL    HW2 3579   2.222   2.021   1.086 -1.6836 -2.7050 -0.5287
  895SOL     MW 3580   2.245   2.105   1.104 -0.2695 -0.5980 -0.0798
  896SOL     OW 3581   2.228   2.792   1.064 -0.2013  0.6862  0.0909
  896SOL    HW1 3582   2.266   2.753   1.144  1.6434  1.6137 -1.6762
  896SOL    HW2 3583   2.155   2.846   1.096  0.9359  1.0286  0.8960
  896SOL     MW 3584   2.223   2.794   1.078  0.1922  0.8538 -0.0361
  897SOL     OW 3585   3.086   3.025   0.007  0.3608  0.5003  0.1795
  897SOL    HW1 3586   3.127   2.938   0.021 -0.3344 -3.7476 -0.8368
  897SOL    HW2 3587   3.057   3.020  -0.086  0.6722  1.5045 -3.2955
  897SOL     MW 3588   3.088   3.013  -0.003  0.3101  0.0723 -0.4131
  898SOL     OW 3589   2.190   0.144   1.454  0.1394  0.3936 -0.0500
  898SOL    HW1 3590   2.125   0.075   1.449 -0.2854 -0.1324 -1.0804
  898SOL    HW2 3591   2.164   0.208   1.386  2.3440  0.4471  2.0318
  898SOL     MW 3592   2.178   0.143   1.445  0.3742  0.3313  0.0887
  899SOL     OW 3593   2.924   3.023   0.624  0.8970  0.4192  0.2627
  899SOL    HW1 3594   2.932   2.935   0.660 -0.4802  1.6015 -0.1569
  899SOL    HW2 3595   2.846   3.072   0.660 -0.7325 -2.1161  2.4958
  899SOL     MW 3596   2.914   3.018   0.633  0.5003  0.2407  0.5020
  900SOL     OW 3597   0.149   2.378   1.100  0.7795  0.4786  0.0367
  900SOL    HW1 3598   0.091   2.453   1.112  1.8433  2.6102  0.9652
  900SOL    HW2 3599   0.128   2.326   1.021  0.2479  2.6130 -2.6631
  900SOL     MW 3600   0.139   2.381   1.091  0.8497  1.0414 -0.1970
  901SOL     OW 3601   1.760   2.878   1.783  0.9972 -0.0926 -0.1712
  901SOL    HW1 3602   1.834   2.834   1.753 -2.6019 -0.0699  2.6540
  901SOL    HW2 3603   1.698   2.871   1.714  0.5727 -0.4374  1.1153
  901SOL     MW 3604   1.762   2.871   1.770  0.4663 -0.1351  0.3713
  902SOL     OW 3605   2.645   2.108   1.674 -0.0389 -0.0912  0.8581
  902SOL    HW1 3606   2.654   2.039   1.605  0.3826  2.4272 -1.6459
  902SOL    HW2 3607   2.729   2.111   1.724  0.9341 -1.1998  1.5917
  902SOL     MW 3608   2.657   2.099   1.672  0.1451  0.0948  0.6245
  903SOL     OW 3609   1.512   2.645   0.537  0.0042 -0.1259 -0.1579
  903SOL    HW1 3610   1.607   2.647   0.533 -0.0696  1.2910 -0.6784
  903SOL    HW2 3611   1.510   2.689   0.627 -0.6214  2.9274  3.0192
  903SOL     MW 3612   1.524   2.651   0.548 -0.0881  0.4639  0.1926
  904SOL     OW 3613   2.516   2.541   1.690 -0.1126  0.0147 -0.4084
  904SOL    HW1 3614   2.450   2.602   1.643 -1.1575  0.1437  0.1503
  904SOL    HW2 3615   2.565   2.501   1.620  2.7133 -0.2134 -0.9643
  904SOL     MW 3616   2.514   2.544   1.675  0.1224  0.0016 -0.4080
  905SOL     OW 3617   2.336   2.478   2.090 -0.2513  0.3226  0.0755
  905SOL    HW1 3618   2.398   2.448   2.021  1.2888 -1.3391 -0.8206
  905SOL    HW2 3619   2.322   2.407   2.165  0.8889  1.3105  0.9291
  905SOL     MW 3620   2.342   2.465   2.091  0.1023  0.2337  0.0699
  906SOL     OW 3621   2.487   2.528   0.727 -0.3284  0.0439 -0.7681
  906SOL    HW1 3622   2.573   2.504   0.758 -2.2942  2.1858 -0.0193
  906SOL    HW2 3623   2.466   2.606   0.773 -1.2891  0.5904 -2.5184
  906SOL     MW 3624   2.496   2.535   0.737 -0.7145  0.3986 -0.9003
  907SOL     OW 3625   2.658   2.814   1.303  0.2657 -0.7147 -0.0349
  907SOL    HW1 3626   2.701   2.884   1.358 -1.7608 -1.0618  1.7529
  907SOL    HW2 3627   2.699   2.823   1.220 -3.1923 -2.6585  0.6857
  907SOL     MW 3628   2.669   2.825   1.299 -0.4579 -1.0170  0.2960
  908SOL     OW 3629   2.685   2.371  -0.000 -0.1380 -0.5003 -0.6343
  908SOL    HW1 3630   2.658   2.281   0.031 -1.9797  0.8501 -2.6137
  908SOL    HW2 3631   2.647   2.450   0.056 -1.3396  1.2545 -0.5026
  908SOL     MW 3632   2.677   2.370   0.011 -0.5395 -0.0906 -0.8781
  909SOL     OW 3633   1.691   0.097   1.319  0.6067  0.4661 -0.0239
  909SOL    HW1 3634   1.627   0.175   1.324 -1.9530 -1.0824  0.3495
  909SOL    HW2 3635   1.656   0.052   1.400  1.5707  0.8513 -0.0426
  909SOL     MW 3636   1.678   0.101   1.330  0.3962  0.3126  0.0229
  910SOL     OW 3637   2.130   1.639   0.387  0.2207 -0.3531  0.2568
  910SOL    HW1 3638   2.072   1.559   0.368  0.4028 -0.0665  4.0101
  910SOL    HW2 3639   2.109   1.708   0.322  0.2726  0.2950 -0.2340
  910SOL     MW 3640   2.119   1.638   0.376  0.2516 -0.2298  0.6872
  911SOL     OW 3641   2.374   2.172   1.563  0.6152  0.5696 -0.4041
  911SOL    HW1 3642   2.456   2.169   1.607  0.5584 -1.7537  2.9057
  911SOL    HW2 3643   2.390   2.157   1.465  2.0876 -0.5610  0.9308
  911SOL     MW 3644   2.387   2.170   1.556  0.8020  0.1139  0.2087
  912SOL     OW 3645   2.921   1.866   1.378 -0.1210 -0.0451  0.1349
  912SOL    HW1 3646   2.944   1.933   1.311  2.0623  3.3345 -1.4509
  912SOL    HW2 3647   2.835   1.872   1.412  2.9814 -2.5171 -0.1415
  912SOL     MW 3648   2.913   1.876   1.374  0.5764  0.0746 -0.1108
  913SOL     OW 3649   2.695   0.021   0.256  0.3040  0.0954  0.1227
  913SOL    HW1 3650   2.777  -0.027   0.264  1.1198  1.4874  1.2458
  913SOL    HW2 3651   2.636  -0.052   0.225 -0.2182  3.1107 -0.2196
  913SOL     MW 3652   2.698   0.005   0.253  0.3427  0.6769  0.2257
  914SOL     OW 3653   2.693   1.803   2.952 -0.5552 -0.1262  0.5731
  914SOL    HW1 3654   2.721   1.892   2.958  0.4893 -2.0812 -0.5647
  914SOL    HW2 3655   2.595   1.810   2.955 -0.1337  1.7312  1.9288
  914SOL     MW 3656   2.684   1.816   2.953 -0.3618 -0.1390  0.6019
  915SOL     OW 3657   1.806   0.111   0.103 -0.5686 -0.3346 -0.2277
  915SOL    HW1 3658   1.887   0.072   0.137  1.1121  0.7915  0.6060
  915SOL    HW2 3659   1.736   0.071   0.149  0.4651  0.0035  0.0681
  915SOL     MW 3660   1.807   0.100   0.113 -0.2104 -0.1414 -0.0787
  916SOL     OW 3661   1.779   2.154   1.975  0.3089 -0.4350 -0.0335
  916SOL    HW1 3662   1.811   2.244   1.955 -2.3282 -2.2157  1.0458
  916SOL    HW2 3663   1.803   2.095   1.901  1.7511 -0.2312 -0.2333
  916SOL     MW 3664   1.787   2.158   1.963  0.1512 -0.6430  0.0826
  917SOL     OW 3665   2.548   2.196   2.579 -0.2543 -0.5934 -0.2986
  917SOL    HW1 3666   2.507   2.263   2.631  0.4020 -2.2667 -1.4254
  917SOL    HW2 3667   2.632   2.226   2.558 -0.8901 -2.2058  0.4343
  917SOL     MW 3668   2.554   2.209   2.583 -0.2516 -1.0269 -0.3505
  918SOL     OW 3669   2.053   1.598   2.685 -0.5808  0.0886  1.2176
  918SOL    HW1 3670   2.002   1.631   2.613  0.2716  0.3378 -0.6686
  918SOL    HW2 3671   2.131   1.647   2.677 -1.0478 -2.9674 -0.2178
  918SOL     MW 3672   2.057   1.609   2.674 -0.5299 -0.2817  0.7794
  919SOL     OW 3673   3.044   2.429   2.288  0.0173 -0.3260  0.4087
  919SOL    HW1 3674   3.000   2.348   2.254 -2.4882 -0.7191 -1.5122
  919SOL    HW2 3675   3.110   2.458   2.228  0.3493  0.3918  5.3916
  919SOL     MW 3676   3.047   2.422   2.275 -0.2695 -0.2831  0.8127
  920SOL     OW 3677   2.638   2.811   3.084  0.1332  0.2956  0.6612
  920SOL    HW1 3678   2.549   2.795   3.053  0.0091  0.8294 -0.7845
  920SOL    HW2 3679   2.696   2.791   3.008 -0.3971  5.0109  2.4870
  920SOL     MW 3680   2.634   2.806   3.070  0.0469  0.9882  0.7114
  921SOL     OW 3681   2.449   2.601   2.636 -0.4716 -0.3255 -0.7414
  921SOL    HW1 3682   2.538   2.616   2.609 -0.8900  0.8032  0.2589
  921SOL    HW2 3683   2.439   2.521   2.687 -1.2164  0.4081  0.7069
  921SOL     MW 3684   2.460   2.592   2.639 -0.6251 -0.0798 -0.4183
  922SOL     OW 3685   2.081   2.652   0.422 -0.1255 -0.1326 -0.1300
  922SOL    HW1 3686   2.091   2.680   0.330 -0.8076  0.1449  1.1203
  922SOL    HW2 3687   2.096   2.558   0.407 -1.9548  3.4672  2.0511
  922SOL     MW 3688   2.084   2.644   0.408 -0.4568  0.3790  0.3228
  923SOL     OW 3689   2.202   2.914   1.666 -0.0774  0.1143 -0.5095
  923SOL    HW1 3690   2.258   2.856   1.609 -0.8687 -0.7067  1.3398
  923SOL    HW2 3691   2.157   2.971   1.602  2.0866  2.1896 -0.2686
  923SOL     MW 3692   2.203   2.914   1.650  0.1037  0.2798 -0.2337
  924SOL     OW 3693   1.092   2.731   2.623  0.3222  0.2468 -0.2715
  924SOL    HW1 3694   1.182   2.766   2.605  0.1533 -0.0054 -0.5611
  924SOL    HW2 3695   1.093   2.654   2.677  1.5908 -2.1540 -0.0617
  924SOL     MW 3696   1.104   2.726   2.627  0.4673 -0.1032 -0.2821
  925SOL     OW 3697   3.000   0.220   2.623  0.2711 -0.9370 -0.3244
  925SOL    HW1 3698   2.950   0.219   2.541 -0.1785 -1.1168 -0.6041
  925SOL    HW2 3699   2.982   0.302   2.674 -3.1349  1.8644  0.6956
  925SOL     MW 3700   2.991   0.231   2.619 -0.2376 -0.5911 -0.2267
  926SOL     OW 3701   2.795   2.396   1.964 -0.0330  0.6357  0.5095
  926SOL    HW1 3702   2.791   2.467   2.031  0.2227 -0.3730 -1.8720
  926SOL    HW2 3703   2.837   2.445   1.891  0.7745  0.6865  1.6943
  926SOL     MW 3704   2.800   2.412   1.964  0.1072  0.5093  0.3516
  927SOL     OW 3705   2.412   0.121   0.300 -0.0670 -0.4443  0.2431
  927SOL    HW1 3706   2.492   0.178   0.314  2.7931 -2.4117  0.6962
  927SOL    HW2 3707   2.408   0.122   0.198 -0.0366 -0.9225 -0.7836
  927SOL     MW 3708   2.422   0.128   0.288  0.3144 -0.7670  0.1674
  928SOL     OW 3709   2.154   2.335   1.814 -0.2277 -0.1978  0.2575
  928SOL    HW1 3710   2.189   2.390   1.742  0.4970  1.3838  1.7293
  928SOL    HW2 3711   2.226   2.298   1.870  1.2160  0.7136 -0.1195
  928SOL     MW 3712   2.168   2.338   1.812  0.0584  0.1311  0.4019
  929SOL     OW 3713   2.757   2.344   2.440  0.2417  0.0026 -0.9902
  929SOL    HW1 3714   2.783   2.324   2.344 -1.0456  1.0755 -0.3198
  929SOL    HW2 3715   2.839   2.341   2.489  1.5714 -1.3865  2.3177
  929SOL     MW 3716   2.771   2.341   2.434  0.2473 -0.0391 -0.4653
  930SOL     OW 3717   2.000   2.811   2.672 -0.0342  0.3276 -0.3352
  930SOL    HW1 3718   2.022   2.729   2.712  0.6285  0.3976  2.0967
  930SOL    HW2 3719   2.083   2.855   2.670  1.5415 -1.7516  1.8985
  930SOL     MW 3720   2.014   2.806   2.677  0.2611  0.0625  0.2803
  931SOL     OW 3721   0.047   2.800   2.430  0.3020  0.2594 -0.3108
  931SOL    HW1 3722   0.012   2.839   2.519 -1.1259  0.1406  3.8337
  931SOL    HW2 3723   0.139   2.832   2.425 -1.2465  0.1529  0.9264
  931SOL     MW 3724   0.055   2.810   2.441 -0.0907  0.2297  0.3993
  932SOL     OW 3725   2.793   1.983   2.508 -0.6161  0.1847 -0.4890
  932SOL    HW1 3726   2.876   2.025   2.536 -1.4645  1.5038  0.0736
  932SOL    HW2 3727   2.809   1.970   2.416  0.3181 -0.5568  0.2728
  932SOL     MW 3728   2.806   1.987   2.499 -0.6048  0.2609 -0.3143
  933SOL     OW 3729   2.093   2.800   2.210  0.2736 -0.1571  0.2926
  933SOL    HW1 3730   2.162   2.847   2.247  0.6572  1.9623 -0.9173
  933SOL    HW2 3731   2.017   2.851   2.210 -2.0023  0.8898  1.0915
  933SOL     MW 3732   2.092   2.813   2.215  0.0239  0.2607  0.2383
  934SOL     OW 3733   2.016   2.669   2.431 -0.0285  0.0858  0.4108
  934SOL    HW1 3734   2.027   2.726   2.502 -1.6137  1.2566 -2.6701
  934SOL    HW2 3735   2.060   2.713   2.349  0.5355 -0.2792 -0.4415
  934SOL     MW 3736   2.023   2.682   2.429 -0.1632  0.1921 -0.1081
  935SOL     OW 3737   2.637   1.479   1.779 -0.0271 -0.4082 -0.0630
  935SOL    HW1 3738   2.731   1.465   1.757  0.3903  1.4290  0.9930
  935SOL    HW2 3739   2.586   1.491   1.695  1.4913  2.6826  1.4663
  935SOL     MW 3740   2.642   1.478   1.765  0.2283  0.2420  0.2781
  936SOL     OW 3741   2.938   2.234   0.030 -0.1473 -0.2228  0.5177
  936SOL    HW1 3742   3.001   2.272   0.086 -3.2710  1.7675 -1.7382
  936SOL    HW2 3743   2.881   2.302   0.000  0.5273 -2.7984  2.6274
  936SOL     MW 3744   2.939   2.248   0.034 -0.4704 -0.3000  0.4984
  937SOL     OW 3745   1.951   2.128   2.656 -0.1200 -0.6445 -0.4467
  937SOL    HW1 3746   2.032   2.106   2.700 -1.6842  0.7367  0.6249
  937SOL    HW2 3747   1.963   2.131   2.561  0.7209  0.5600  1.3496
  937SOL     MW 3748   1.963   2.125   2.649 -0.2154 -0.3033 -0.0683
  938SOL     OW 3749   2.288   1.738   1.843 -0.5786  0.8126  0.4549
  938SOL    HW1 3750   2.301   1.802   1.766  1.5466  0.2847 -0.7198
  938SOL    HW2 3751   2.296   1.806   1.920 -1.0675  0.1585  0.2623
  938SOL     MW 3752   2.291   1.756   1.843 -0.3627  0.6566  0.2745
  939SOL     OW 3753   2.756   1.960   2.231 -0.3959  0.5440 -0.6095
  939SOL    HW1 3754   2.808   1.930   2.153  1.7874 -1.3145 -0.1962
  939SOL    HW2 3755   2.673   1.907   2.215 -0.2146  1.1325 -1.4450
  939SOL     MW 3756   2.752   1.949   2.218 -0.0839  0.3765 -0.6652
  940SOL     OW 3757   2.166   0.126   2.761 -0.4006  0.0903  0.5680
  940SOL    HW1 3758   2.189   0.044   2.711 -0.9019 -1.5592 -2.5601
  940SOL    HW2 3759   2.250   0.145   2.801 -0.5987 -1.8571  1.5187
  940SOL     MW 3760   2.180   0.118   2.760 -0.4929 -0.3843  0.2807
  941SOL     OW 3761   0.121   2.461   2.031 -0.3543  0.0027  0.2344
  941SOL    HW1 3762   0.160   2.384   2.064  1.3140 -0.0518  0.5496
  941SOL    HW2 3763   0.102   2.427   1.945 -1.6484 -0.6328  3.3104
  941SOL     MW 3764   0.124   2.446   2.024 -0.3049 -0.0883  0.6819
  942SOL     OW 3765   2.846   2.217   2.212 -0.7225 -0.3412  0.3572
  942SOL    HW1 3766   2.823   2.247   2.126  1.3913 -0.9529  0.9469
  942SOL    HW2 3767   2.805   2.124   2.206 -2.2082 -1.5148  0.2169
  942SOL     MW 3768   2.838   2.209   2.200 -0.6396 -0.5768  0.4165
  943SOL     OW 3769   0.307   2.134   2.310  0.3838  0.4165 -0.3859
  943SOL    HW1 3770   0.240   2.188   2.356  1.9074 -0.4915 -3.9728
  943SOL    HW2 3771   0.379   2.125   2.372 -2.4119 -0.9960  0.1982
  943SOL     MW 3772   0.308   2.140   2.324  0.2160  0.1103 -0.7821
  944SOL     OW 3773   2.128   2.639   1.964 -0.0135 -0.2986  0.2815
  944SOL    HW1 3774   2.195   2.582   2.006 -0.9994 -4.0698  0.1505
  944SOL    HW2 3775   2.068   2.647   2.032  1.7551  2.7299  0.7893
  944SOL     MW 3776   2.129   2.633   1.979  0.0898 -0.3966  0.3312
  945SOL     OW 3777   2.792   2.754   2.832 -0.8112 -0.7259 -0.0383
  945SOL    HW1 3778   2.776   2.660   2.839 -0.2373 -2.5085  2.1263
  945SOL    HW2 3779   2.763   2.784   2.744  1.5498  0.8845  3.0815
  945SOL     MW 3780   2.786   2.745   2.821 -0.4239 -0.7486  0.6589
  946SOL     OW 3781   2.468   2.663   2.233  0.1626  0.4327  0.2434
  946SOL    HW1 3782   2.506   2.708   2.158  2.7258  1.5687 -3.0684
  946SOL    HW2 3783   2.426   2.590   2.193  2.5281 -0.2457  0.7769
  946SOL     MW 3784   2.467   2.659   2.218  0.8129  0.4931 -0.1232
  947SOL     OW 3785   2.041   0.005   0.227  0.4118 -0.2722  0.5234
  947SOL    HW1 3786   2.071  -0.081   0.197 -1.6265  2.5398  1.6284
  947SOL    HW2 3787   2.102   0.017   0.305  1.3203 -1.4793  0.0774
  947SOL     MW 3788   2.053  -0.005   0.233  0.2627 -0.0604  0.6104
  948SOL     OW 3789   1.797   3.007   2.619  0.0895  0.3723 -0.2749
  948SOL    HW1 3790   1.814   2.910   2.613  1.0252  1.4330  0.1835
  948SOL    HW2 3791   1.771   3.024   2.528 -0.0321 -0.7724 -0.3243
  948SOL     MW 3792   1.796   2.997   2.607  0.1969  0.3612 -0.2209
  949SOL     OW 3793   2.513   1.860   2.197  0.4035 -0.3013  0.1164
  949SOL    HW1 3794   2.487   1.782   2.246 -0.5666  0.1481  0.1800
  949SOL    HW2 3795   2.491   1.936   2.255  1.5823  1.4519 -3.5492
  949SOL     MW 3796   2.506   1.860   2.211  0.4311 -0.0107 -0.3589
  950SOL     OW 3797   2.331   2.513   2.994 -0.5815 -1.1425 -0.2619
  950SOL    HW1 3798   2.377   2.480   2.918  1.6731 -0.7529  1.5936
  950SOL    HW2 3799   2.242   2.531   2.979  0.6707  0.2459  0.8838
  950SOL     MW 3800   2.326   2.511   2.982 -0.1188 -0.9079  0.1340
  951SOL     OW 3801   3.042   2.197   2.887 -0.2307  0.2556 -0.2818
  951SOL    HW1 3802   3.000   2.208   2.975 -0.8929  1.4592  0.8603
  951SOL    HW2 3803   3.045   2.106   2.858  2.1389  2.2489  0.6982
  951SOL     MW 3804   3.037   2.186   2.895 -0.0054  0.6774 -0.0018
  952SOL     OW 3805   3.025   1.723   2.144  0.4803  0.4821  0.0577
  952SOL    HW1 3806   2.966   1.773   2.085 -2.6057  0.1620 -0.7191
  952SOL    HW2 3807   3.082   1.796   2.180 -0.6551 -1.2821  2.0448
  952SOL     MW 3808   3.025   1.739   2.141 -0.0767  0.2071  0.2174
  953SOL     OW 3809   1.969   1.728   2.929 -0.1379  0.2271 -0.5318
  953SOL    HW1 3810   1.883   1.691   2.963  0.2507 -1.5349  1.1043
  953SOL    HW2 3811   1.986   1.692   2.840  2.8579  0.3599  1.0778
  953SOL     MW 3812   1.960   1.718   2.921  0.3086  0.0121 -0.1036
  954SOL     OW 3813   2.377   2.147   2.892 -0.5041 -0.1794 -0.2846
  954SOL    HW1 3814   2.286   2.118   2.884 -0.7863  0.1642 -2.6337
  954SOL    HW2 3815   2.423   2.084   2.834 -1.7601 -2.0145 -2.7085
  954SOL     MW 3816   2.371   2.135   2.884 -0.7071 -0.3762 -0.9144
  955SOL     OW 3817   1.584   1.516   2.548 -0.3150  0.4072 -0.0471
  955SOL    HW1 3818   1.582   1.497   2.448 -0.4760 -1.4631  0.3364
  955SOL    HW2 3819   1.666   1.551   2.573  0.1340 -1.7068 -0.2668
  955SOL     MW 3820   1.594   1.518   2.538 -0.2770 -0.1185 -0.0255
  956SOL     OW 3821   2.732   2.480   2.853 -0.1402 -0.4836 -0.1993
  956SOL    HW1 3822   2.717   2.432   2.929  1.8205  1.2060 -0.5391
  956SOL    HW2 3823   2.804   2.434   2.811  0.1728 -0.0054 -0.8288
  956SOL     MW 3824   2.739   2.468   2.858  0.1598 -0.1976 -0.3272
  957SOL     OW 3825   2.263   2.819   0.596 -0.5102 -0.1442 -0.4566
  957SOL    HW1 3826   2.195   2.774   0.555  3.3515  1.2966  0.2371
  957SOL    HW2 3827   2.271   2.779   0.689 -3.6914 -1.2065  2.3100
  957SOL     MW 3828   2.255   2.808   0.603 -0.4204 -0.0942 -0.0001
  958SOL     OW 3829   2.080   2.564   2.896  0.1836 -0.1400  0.0273
  958SOL    HW1 3830   2.036   2.482   2.869  0.0752 -1.7669 -3.4780
  958SOL    HW2 3831   2.014   2.613   2.947  0.8247 -1.5091  2.4427
  958SOL     MW 3832   2.065   2.559   2.899  0.2539 -0.5353 -0.1165
  959SOL     OW 3833   2.512   2.809   0.455  0.0886 -0.2604 -0.1649
  959SOL    HW1 3834   2.501   2.823   0.362 -0.8756  3.0749  1.0218
  959SOL    HW2 3835   2.425   2.827   0.496  0.8806 -1.7714  0.4367
  959SOL     MW 3836   2.499   2.813   0.448  0.0659 -0.0197  0.0710
  960SOL     OW 3837   1.921   2.390   2.263  0.1088  0.4141  0.2150
  960SOL    HW1 3838   1.913   2.294   2.264 -0.3966 -0.8578 -1.2251
  960SOL    HW2 3839   1.866   2.417   2.339 -1.2949 -0.8470  1.2367
  960SOL     MW 3840   1.913   2.381   2.273 -0.1431  0.0799  0.1598
  961SOL     OW 3841   2.232   2.320   2.315 -0.2721  0.4707  0.1598
  961SOL    HW1 3842   2.136   2.321   2.300 -0.9735  1.6370 -1.0214
  961SOL    HW2 3843   2.254   2.371   2.390  1.8120 -2.1159  1.2116
  961SOL     MW 3844   2.222   2.327   2.323 -0.0897  0.2833  0.1427
  962SOL     OW 3845   2.152   2.018   2.838  0.0795 -0.0939 -0.5920
  962SOL    HW1 3846   2.132   1.979   2.926 -2.1225  1.2106 -0.8912
  962SOL    HW2 3847   2.184   1.951   2.782 -2.2002  5.2086 -0.7906
  962SOL     MW 3848   2.154   2.004   2.842 -0.5118  0.7778 -0.6577
  963SOL     OW 3849   1.884   2.615   2.079 -0.3788 -0.1934 -0.1328
  963SOL    HW1 3850   1.898   2.565   2.162  0.2536  0.8597 -0.5209
  963SOL    HW2 3851   1.887   2.545   2.007  2.2534 -2.0303 -0.9154
  963SOL     MW 3852   1.886   2.599   2.080  0.0520 -0.2968 -0.2873
  964SOL     OW 3853   1.832   1.887   2.736 -0.0595 -0.2321  0.0569
  964SOL    HW1 3854   1.872   1.974   2.716 -0.0886 -0.7737 -1.4536
  964SOL    HW2 3855   1.895   1.858   2.796  1.9510  0.5022  0.9419
  964SOL     MW 3856   1.846   1.894   2.741  0.2019 -0.2067 -0.0256
  965SOL     OW 3857   2.096   2.603   0.813 -0.4789 -0.2924 -0.0345
  965SOL    HW1 3858   2.131   2.536   0.751  1.9265 -0.4103  0.0035
  965SOL    HW2 3859   2.169   2.638   0.867 -2.0460 -0.1939  1.2251
  965SOL     MW 3860   2.110   2.599   0.812 -0.3683 -0.2949  0.1367
  966SOL     OW 3861   2.675   2.611   2.413 -0.4434  0.1490  0.0087
  966SOL    HW1 3862   2.584   2.613   2.384  0.5671  1.0032  0.3405
  966SOL    HW2 3863   2.697   2.517   2.414  1.7429 -0.3148 -1.6902
  966SOL     MW 3864   2.666   2.599   2.410 -0.0216  0.2005 -0.1717
  967SOL     OW 3865   2.727   3.068   3.020 -0.1344  0.5367  0.2409
  967SOL    HW1 3866   2.714   2.982   3.069 -3.4664  1.7053 -1.3366
  967SOL    HW2 3867   2.659   3.081   2.953 -1.4840  1.5788 -0.1502
  967SOL     MW 3868   2.717   3.058   3.018 -0.7521  0.8284 -0.0188
  968SOL     OW 3869   3.072   2.697   2.911  0.1119  0.1277 -0.3672
  968SOL    HW1 3870   2.992   2.751   2.889 -1.3011  1.2078 -1.9960
  968SOL    HW2 3871   3.086   2.643   2.830  0.8655  0.2551 -0.3470
  968SOL     MW 3872   3.063   2.697   2.897  0.0249  0.2870 -0.5794
  969SOL     OW 3873   1.553   2.166   1.694  0.0701 -0.7958 -0.3313
  969SOL    HW1 3874   1.612   2.093   1.703  1.3624 -0.1220  1.0774
  969SOL    HW2 3875   1.519   2.187   1.785 -1.0205  2.4031  2.5068
  969SOL     MW 3876   1.557   2.159   1.707  0.0967 -0.2849  0.2290
  970SOL     OW 3877   1.747   1.811   1.909  0.2191  0.0469 -0.3044
  970SOL    HW1 3878   1.786   1.739   1.956 -1.3372 -0.8422  0.9401
  970SOL    HW2 3879   1.658   1.779   1.898  1.2623 -1.3181 -0.4703
  970SOL     MW 3880   1.740   1.798   1.913  0.1514 -0.2505 -0.1621
  971SOL     OW 3881   1.741   0.023   2.347  0.6243  0.2520  0.3630
  971SOL    HW1 3882   1.779  -0.034   2.271 -0.2329  0.3726  0.0630
  971SOL    HW2 3883   1.769   0.111   2.317  0.8416  0.3469 -4.1839
  971SOL     MW 3884   1.750   0.027   2.333  0.5398  0.2804 -0.2765
  972SOL     OW 3885   0.305   2.876   2.397  0.0005 -0.7339 -0.2299
  972SOL    HW1 3886   0.343   2.788   2.411 -1.5875  0.6932  2.8917
  972SOL    HW2 3887   0.355   2.938   2.446 -2.1556 -0.6887  1.3391
  972SOL     MW 3888   0.316   2.872   2.406 -0.4935 -0.5396  0.3890
  973SOL     OW 3889   2.592   3.003   2.120 -0.5029 -0.2224  0.4704
  973SOL    HW1 3890   2.556   2.918   2.085  1.7518 -1.2232 -0.4341
  973SOL    HW2 3891   2.603   3.066   2.056  0.5567  0.4033  1.6441
  973SOL     MW 3892   2.589   3.000   2.107 -0.0656 -0.2719  0.5059
  974SOL     OW 3893   1.944   0.157   2.602  0.1936 -0.2932 -0.0560
  974SOL    HW1 3894   2.015   0.148   2.666 -1.8228  1.7902 -0.3265
  974SOL    HW2 3895   1.890   0.084   2.624  1.3716 -0.0582 -0.2354
  974SOL     MW 3896   1.946   0.146   2.613  0.0830  0.0127 -0.1154
  975SOL     OW 3897   2.207   2.495   2.526 -0.0878 -0.0477  0.0473
  975SOL    HW1 3898   2.277   2.558   2.549  0.0242 -0.7279 -0.8363
  975SOL    HW2 3899   2.145   2.545   2.484  0.9309  1.0761  0.9228
  975SOL     MW 3900   2.208   2.510   2.523  0.0614  0.0108  0.0463
  976SOL     OW 3901   0.195   0.369   1.591 -0.2405  0.4102 -0.2954
  976SOL    HW1 3902   0.275   0.352   1.642 -1.3990 -0.7960 -0.0365
  976SOL    HW2 3903   0.131   0.299   1.599  0.7513 -0.5350 -3.0086
  976SOL     MW 3904   0.197   0.358   1.599 -0.2625  0.1264 -0.6192
  977SOL     OW 3905   1.757   2.761   2.389 -0.0628 -0.1271  0.1894
  977SOL    HW1 3906   1.847   2.732   2.377 -2.3699 -0.4446 -3.1740
  977SOL    HW2 3907   1.728   2.838   2.341 -2.3911 -2.7206  0.3079
  977SOL     MW 3908   1.765   2.767   2.381 -0.6744 -0.5111 -0.2387
   3.10000   3.10000   3.10000
