977 TIP4P/2005f water molecules t=   0.35000 step= 350
 3908
    1SOL     OW    1   0.291   0.768   0.050 -0.2228 -0.0362  0.0136
    1SOL    HW1    2   0.273   0.828  -0.026  1.4928  1.0479 -1.8201
    1SOL    HW2    3   0.255   0.685   0.017 -1.7093  2.2621  0.2116
    1SOL     MW    4   0.284   0.765   0.036 -0.1925  0.4101 -0.2022
    2SOL     OW    5   0.300   3.055   1.167 -0.7437  0.1241  0.4016
    2SOL    HW1    6   0.343   3.118   1.105 -0.7536  0.0150  3.9397
    2SOL    HW2    7   0.207   3.082   1.159 -0.7196 -1.3291  0.1913
    2SOL     MW    8   0.293   3.067   1.158 -0.7418 -0.0821  0.8407
    3SOL     OW    9   2.670   0.390   0.906  0.3869 -0.4569 -0.3161
    3SOL    HW1   10   2.697   0.466   0.853  3.2878  1.3624  0.1711
    3SOL    HW2   11   2.651   0.431   0.985  3.2703 -2.2279 -1.5328
    3SOL     MW   12   2.671   0.406   0.909  1.1501 -0.4505 -0.4123
    4SOL     OW   13   3.061   1.794   0.576  0.0115 -0.7922 -0.9182
    4SOL    HW1   14   2.984   1.829   0.529 -3.1012  1.2837 -1.7792
    4SOL    HW2   15   3.104   1.729   0.523  1.8297 -0.1396 -0.1617
    4SOL     MW   16   3.056   1.790   0.563 -0.1593 -0.4322 -0.9320
    5SOL     OW   17   1.698   1.428   0.554  0.0379  0.3254  0.6420
    5SOL    HW1   18   1.738   1.375   0.616  0.7997 -0.2521  1.3165
    5SOL    HW2   19   1.610   1.422   0.583  1.1481 -0.2572  0.0219
    5SOL     MW   20   1.691   1.420   0.566  0.2849  0.1723  0.6492
    6SOL     OW   21   0.862   1.391   0.623  0.6368  0.0253  0.2133
    6SOL    HW1   22   0.779   1.391   0.665 -0.1397 -1.6025 -0.0768
    6SOL    HW2   23   0.909   1.324   0.676 -0.5169  1.2566 -0.1373
    6SOL     MW   24   0.858   1.382   0.635  0.3822 -0.0270  0.1288
    7SOL     OW   25   1.990   1.051   0.039 -0.2293  0.1783  0.0280
    7SOL    HW1   26   2.001   1.125  -0.020  2.7244 -2.6020  0.1066
    7SOL    HW2   27   2.046   1.069   0.114  2.4262  2.4070 -0.1311
    7SOL     MW   28   1.999   1.063   0.041  0.5108  0.1055  0.0174
    8SOL     OW   29   0.998   1.332   1.021 -0.2807  0.3968 -0.0591
    8SOL    HW1   30   1.058   1.263   1.053  0.3702  0.4331  0.3850
    8SOL    HW2   31   0.911   1.294   1.006 -3.1135 -2.4286 -2.4092
    8SOL     MW   32   0.995   1.318   1.023 -0.5686  0.0288 -0.3106
    9SOL     OW   33   1.042   0.462   1.350 -0.0359 -0.2291  0.2488
    9SOL    HW1   34   0.975   0.401   1.313  0.6099 -2.6152  0.8448
    9SOL    HW2   35   1.080   0.417   1.429  0.5658 -0.9664  1.5922
    9SOL     MW   36   1.038   0.448   1.355  0.1287 -0.6412  0.5047
   10SOL     OW   37   0.313   0.791   0.457 -0.1916 -0.6751 -0.3518
   10SOL    HW1   38   0.394   0.833   0.407 -0.1358 -0.0902  2.5240
   10SOL    HW2   39   0.310   0.838   0.540 -0.1248 -0.8321 -1.5022
   10SOL     MW   40   0.323   0.803   0.461 -0.1755 -0.6187 -0.1242
   11SOL     OW   41   0.850   1.083   1.610 -1.0179 -0.2084 -0.3352
   11SOL    HW1   42   0.830   1.083   1.702  1.4850  2.5668  0.6276
   11SOL    HW2   43   0.826   0.987   1.582  0.3972 -0.1459 -0.1400
   11SOL     MW   44   0.844   1.070   1.618 -0.5010  0.1660 -0.1824
   12SOL     OW   45   0.014   1.148   0.831  0.3280 -0.7057  0.2109
   12SOL    HW1   46   0.026   1.219   0.899 -1.1682  1.4921  2.6137
   12SOL    HW2   47   0.006   1.180   0.738 -3.3450 -1.6206 -0.5622
   12SOL     MW   48   0.015   1.162   0.828 -0.3540 -0.5364  0.4259
   13SOL     OW   49   1.893   1.420   1.364 -0.6994 -0.2367 -0.1707
   13SOL    HW1   50   1.929   1.379   1.284 -0.5579 -1.2081 -0.5370
   13SOL    HW2   51   1.874   1.510   1.348  1.0213 -3.7919  0.1851
   13SOL     MW   52   1.895   1.426   1.352 -0.4537 -0.8339 -0.1721
   14SOL     OW   53   0.613   0.324   1.809 -0.2385 -0.3772 -0.1471
   14SOL    HW1   54   0.581   0.254   1.756  1.2586 -0.5227  0.2721
   14SOL    HW2   55   0.698   0.291   1.828  0.0113 -1.3892  0.1589
   14SOL     MW   56   0.620   0.310   1.805 -0.0080 -0.5299 -0.0514
   15SOL     OW   57   2.011   0.545   0.951  0.2493 -0.2052  0.2841
   15SOL    HW1   58   2.011   0.540   1.051  0.5784  1.4823  0.3033
   15SOL    HW2   59   2.083   0.483   0.927  0.3900 -1.2899  1.3644
   15SOL     MW   60   2.021   0.536   0.961  0.3113 -0.1257  0.4291
   16SOL     OW   61   0.209   1.757   0.335 -0.1641 -0.4759  0.1156
   16SOL    HW1   62   0.300   1.751   0.313 -1.5799  0.3663  0.0510
   16SOL    HW2   63   0.217   1.855   0.361  0.6278 -0.3941 -0.9465
   16SOL     MW   64   0.222   1.769   0.336 -0.2464 -0.3540 -0.0331
   17SOL     OW   65   1.055   0.812   1.487 -0.6134 -0.0943  0.4130
   17SOL    HW1   66   1.097   0.802   1.577 -1.1846 -0.9690 -0.2660
   17SOL    HW2   67   0.975   0.754   1.488  0.1688  2.4842  3.1980
   17SOL     MW   68   1.050   0.803   1.499 -0.5855  0.1305  0.6909
   18SOL     OW   69   0.053   1.547   0.422  0.7395  0.5568  0.4770
   18SOL    HW1   70   0.114   1.614   0.394 -0.1231 -3.1120  0.6830
   18SOL    HW2   71   0.036   1.488   0.348 -0.3048 -1.6608  0.6940
   18SOL     MW   72   0.059   1.548   0.409  0.4879 -0.2198  0.5328
   19SOL     OW   73   0.106   1.339   1.039  0.0416  0.7413 -0.0066
   19SOL    HW1   74   0.139   1.356   0.956 -1.0903 -0.5603  0.7001
   19SOL    HW2   75   0.013   1.365   1.046 -0.0679 -1.3621  2.0480
   19SOL     MW   76   0.098   1.344   1.029 -0.1222  0.2921  0.3577
   20SOL     OW   77   0.463   2.125   1.300 -0.1148 -0.5487 -0.3392
   20SOL    HW1   78   0.407   2.077   1.232  1.2475  0.1415 -0.7783
   20SOL    HW2   79   0.400   2.162   1.366 -0.2093  0.6664  0.6531
   20SOL     MW   80   0.447   2.124   1.300  0.0524 -0.2973 -0.2662
   21SOL     OW   81   0.552   0.888   0.343 -0.0047  0.0652  0.4896
   21SOL    HW1   82   0.601   0.833   0.400 -0.7919 -0.3220 -1.1207
   21SOL    HW2   83   0.550   0.847   0.255 -1.3264 -0.2188 -0.5873
   21SOL     MW   84   0.558   0.875   0.339 -0.2830 -0.0234  0.1351
   22SOL     OW   85   1.531   0.570   1.127  0.4041  0.5617 -0.2224
   22SOL    HW1   86   1.555   0.549   1.036 -2.0264 -0.0648  1.8753
   22SOL    HW2   87   1.453   0.622   1.118 -1.4294  0.6336 -1.1635
   22SOL     MW   88   1.524   0.574   1.114 -0.1585  0.4885 -0.0698
   23SOL     OW   89   3.052   0.735   0.734  0.3924  0.2985 -0.3734
   23SOL    HW1   90   3.115   0.660   0.743 -1.0509 -0.5447  1.9857
   23SOL    HW2   91   3.116   0.806   0.721 -3.8017  0.5954 -0.5165
   23SOL     MW   92   3.069   0.735   0.733 -0.3514  0.2264 -0.0810
   24SOL     OW   93   2.020   2.191   0.033 -0.4743  0.1236  0.0274
   24SOL    HW1   94   2.002   2.168   0.128  0.5718 -0.0847  0.5763
   24SOL    HW2   95   2.094   2.137   0.014  0.5911 -0.3481  1.9928
   24SOL     MW   96   2.027   2.181   0.043 -0.1957  0.0339  0.3591
   25SOL     OW   97   0.279   1.407   0.527  0.4203 -0.2362 -0.4023
   25SOL    HW1   98   0.190   1.440   0.492 -2.3211  1.0115 -0.5161
   25SOL    HW2   99   0.340   1.417   0.459 -1.0963 -0.0082 -1.5610
   25SOL     MW  100   0.276   1.412   0.513 -0.1415 -0.0415 -0.5701
   26SOL     OW  101   2.057   0.932   0.429 -0.1471 -0.0720  0.4896
   26SOL    HW1  102   1.960   0.942   0.438 -2.7728 -1.1668  1.1934
   26SOL    HW2  103   2.084   0.997   0.359 -2.9138 -0.9523 -2.2452
   26SOL     MW  104   2.048   0.942   0.421 -0.8585 -0.3326  0.2217
   27SOL     OW  105   1.988   1.393   0.254  0.2018 -0.7485  0.4420
   27SOL    HW1  106   1.899   1.365   0.278 -1.0873  1.4125  1.3886
   27SOL    HW2  107   2.009   1.456   0.323 -1.9214  1.4040  0.7802
   27SOL     MW  108   1.979   1.397   0.266 -0.2484 -0.1794  0.6115
   28SOL     OW  109   0.402   0.999   1.907  0.0603  0.7572  0.0652
   28SOL    HW1  110   0.335   0.930   1.922 -0.0545 -0.4939  5.2359
   28SOL    HW2  111   0.442   1.015   1.992 -3.5617  2.5038 -1.0260
   28SOL     MW  112   0.398   0.992   1.920 -0.4327  0.8225  0.6035
   29SOL     OW  113   0.241   1.429   0.822 -0.1171 -0.3884  0.2651
   29SOL    HW1  114   0.251   1.516   0.867  1.4246 -0.1927 -0.7975
   29SOL    HW2  115   0.279   1.430   0.736 -0.2059 -2.0557 -2.1045
   29SOL     MW  116   0.247   1.440   0.816  0.0746 -0.5825 -0.1877
   30SOL     OW  117   0.895   1.040   1.149 -0.0084  0.1182  0.5710
   30SOL    HW1  118   0.810   1.065   1.193  1.1336 -0.4148  1.1101
   30SOL    HW2  119   0.953   1.053   1.226  0.0717 -1.2736 -0.7385
   30SOL     MW  120   0.892   1.045   1.165  0.1528 -0.1358  0.4694
   31SOL     OW  121   0.456   0.274   0.246 -0.5895  0.0215 -0.0789
   31SOL    HW1  122   0.448   0.191   0.302  0.6271  1.6712 -0.1827
   31SOL    HW2  123   0.431   0.255   0.153  1.1349 -2.5833 -3.8262
   31SOL     MW  124   0.452   0.261   0.241 -0.2015 -0.1045 -0.5870
   32SOL     OW  125   2.713   1.061   1.095  0.3431 -0.1836 -0.3516
   32SOL    HW1  126   2.665   0.978   1.077 -1.3077 -0.7165  0.0503
   32SOL    HW2  127   2.808   1.037   1.093  0.8512  1.3617 -0.7421
   32SOL     MW  128   2.719   1.047   1.092  0.1923 -0.0500 -0.3501
   33SOL     OW  129   1.737   1.277   0.326 -0.0993  0.4141  0.0304
   33SOL    HW1  130   1.759   1.191   0.358 -0.3020  1.8586  0.8387
   33SOL    HW2  131   1.709   1.332   0.401  4.0659  1.1430  1.4062
   33SOL     MW  132   1.736   1.273   0.340  0.4235  0.7008  0.3185
   34SOL     OW  133   1.229   1.840   1.114 -0.5263 -0.1321 -0.9159
   34SOL    HW1  134   1.141   1.859   1.145  2.3918 -3.3181 -0.7275
   34SOL    HW2  135   1.293   1.882   1.182  2.0982  2.0705  1.1238
   34SOL     MW  136   1.226   1.848   1.127  0.2050 -0.2618 -0.6219
   35SOL     OW  137   0.341   0.096   1.842 -0.4937  0.3492 -0.8344
   35SOL    HW1  138   0.375   0.079   1.932 -0.6629 -0.0500 -1.9892
   35SOL    HW2  139   0.371   0.017   1.791 -1.9106  1.7397  1.1680
   35SOL     MW  140   0.349   0.083   1.847 -0.7030  0.4800 -0.7226
   36SOL     OW  141   1.882   1.970   0.569 -0.5808  0.2500 -0.2045
   36SOL    HW1  142   1.899   1.987   0.475 -0.6376 -0.0045 -0.9277
   36SOL    HW2  143   1.903   1.876   0.579  0.5153 -0.5484 -2.4353
   36SOL     MW  144   1.887   1.959   0.558 -0.4437  0.1111 -0.5942
   37SOL     OW  145   1.731   2.056   0.968  0.0594 -0.2598 -0.4185
   37SOL    HW1  146   1.685   1.986   0.928 -3.4011  2.6823  0.4452
   37SOL    HW2  147   1.674   2.093   1.048 -1.9556 -0.4280  2.6599
   37SOL     MW  148   1.717   2.052   0.973 -0.6630  0.1062  0.1016
   38SOL     OW  149   2.849   0.951   0.191 -0.3095 -0.3240 -0.2461
   38SOL    HW1  150   2.887   0.945   0.275  0.1725  0.8244  0.1854
   38SOL    HW2  151   2.909   0.895   0.139  0.6005  1.3268  0.6007
   38SOL     MW  152   2.862   0.943   0.195 -0.1258  0.0453 -0.0774
   39SOL     OW  153   1.469   0.678   0.818  0.0644 -0.1682 -0.8703
   39SOL    HW1  154   1.431   0.589   0.821 -0.6690  0.3532 -1.7338
   39SOL    HW2  155   1.426   0.725   0.889 -0.4935 -1.8305  1.5854
   39SOL     MW  156   1.458   0.673   0.828 -0.1060 -0.3187 -0.6602
   40SOL     OW  157   1.277   1.868   0.261 -0.1541 -0.3876  0.2518
   40SOL    HW1  158   1.304   1.797   0.319  0.0836 -0.2207 -1.9817
   40SOL    HW2  159   1.237   1.935   0.315 -0.4512  0.2254 -1.2999
   40SOL     MW  160   1.276   1.867   0.276 -0.1619 -0.2847 -0.2476
   41SOL     OW  161   0.595   0.549   1.586 -0.1590 -0.2707  0.1950
   41SOL    HW1  162   0.685   0.565   1.575  0.0666 -0.2297 -1.2145
   41SOL    HW2  163   0.597   0.483   1.658 -0.2805  0.0296  1.1475
   41SOL     MW  164   0.607   0.542   1.594 -0.1453 -0.2257  0.1347
   42SOL     OW  165   1.310   3.081   1.955 -0.5681 -0.7809  0.6433
   42SOL    HW1  166   1.220   3.075   1.986 -2.1424 -0.2483  1.1508
   42SOL    HW2  167   1.344   2.991   1.971  2.9724  1.9248 -0.5835
   42SOL     MW  168   1.303   3.068   1.961 -0.3087 -0.3537  0.5484
   43SOL     OW  169   1.594   0.219   1.644  0.6153 -0.0966  0.8562
   43SOL    HW1  170   1.629   0.185   1.562  0.2367  0.9003 -1.9144
   43SOL    HW2  171   1.513   0.164   1.663 -3.1906 -1.7864  0.2546
   43SOL     MW  172   1.588   0.207   1.636  0.0632 -0.1880  0.4113
   44SOL     OW  173   1.316   0.753   1.099 -0.0059  0.2226 -0.4999
   44SOL    HW1  174   1.313   0.843   1.069  1.1926  0.7608 -0.0416
   44SOL    HW2  175   1.287   0.747   1.191 -1.1411 -0.8049 -0.0002
   44SOL     MW  176   1.312   0.764   1.107  0.0025  0.1581 -0.3735
   45SOL     OW  177   1.141   0.687   0.758  0.5940  0.2104  0.7703
   45SOL    HW1  178   1.076   0.678   0.825 -0.6849  0.9051 -3.2346
   45SOL    HW2  179   1.102   0.634   0.677  0.5236 -4.8471  0.1883
   45SOL     MW  180   1.127   0.679   0.756  0.4160 -0.3652  0.1651
   46SOL     OW  181   0.575   1.153   0.550 -0.4726 -0.1087 -0.6872
   46SOL    HW1  182   0.584   1.176   0.456  0.1269 -1.9065  1.1922
   46SOL    HW2  183   0.647   1.087   0.558  2.1414 -0.2777  1.7185
   46SOL     MW  184   0.586   1.148   0.538 -0.0486 -0.3682 -0.1218
   47SOL     OW  185   0.153   1.929   1.845  0.0708 -0.0158 -0.5882
   47SOL    HW1  186   0.192   1.853   1.804 -1.0830  3.0988  0.0044
   47SOL    HW2  187   0.149   1.907   1.939  0.6368  0.6718 -1.0344
   47SOL     MW  188   0.157   1.916   1.852 -0.0067  0.4859 -0.5688
   48SOL     OW  189   1.056   0.648   1.019 -0.0171 -0.1688 -0.5414
   48SOL    HW1  190   0.994   0.669   1.088  1.7093  1.0120  2.3064
   48SOL    HW2  191   1.135   0.702   1.051  4.3924 -1.3131 -0.2405
   48SOL     MW  192   1.058   0.658   1.033  0.7925 -0.1640 -0.1260
   49SOL     OW  193   1.877   0.744   1.600 -0.9696  0.1366  0.4785
   49SOL    HW1  194   1.809   0.721   1.656  0.6575  2.4875 -1.6275
   49SOL    HW2  195   1.941   0.670   1.597 -0.9770  1.0268  0.5545
   49SOL     MW  196   1.876   0.731   1.607 -0.7559  0.5643  0.2107
   50SOL     OW  197   1.262   0.996   0.515 -0.6257  0.3803 -0.4390
   50SOL    HW1  198   1.233   1.057   0.593 -0.5104 -0.9805 -0.1066
   50SOL    HW2  199   1.272   0.914   0.555  1.7536  1.3266  1.0636
   50SOL     MW  200   1.259   0.994   0.531 -0.2966  0.3256 -0.1969
   51SOL     OW  201   0.361   2.846   0.974 -0.0988 -0.0719  0.2885
   51SOL    HW1  202   0.453   2.844   0.958 -1.1249  2.0531 -0.6936
   51SOL    HW2  203   0.349   2.902   1.055  1.0912  0.2762 -0.8248
   51SOL     MW  204   0.372   2.853   0.982 -0.0771  0.2544  0.0121
   52SOL     OW  205   0.827   1.781   0.389  0.2334 -0.6233  0.3024
   52SOL    HW1  206   0.779   1.846   0.436 -0.2737 -0.6014  0.1444
   52SOL    HW2  207   0.815   1.810   0.303  0.5145 -0.4914 -0.0514
   52SOL     MW  208   0.819   1.793   0.384  0.2036 -0.6030  0.2349
   53SOL     OW  209   0.463   2.064   0.571  0.2146  0.1529 -0.1820
   53SOL    HW1  210   0.392   2.067   0.494  4.5706 -1.2378 -1.4167
   53SOL    HW2  211   0.475   2.155   0.574 -0.8059  1.3453  0.3874
   53SOL     MW  212   0.455   2.076   0.561  0.6547  0.1267 -0.2698
   54SOL     OW  213   2.197   0.812   0.918 -0.2266  0.2634 -0.4692
   54SOL    HW1  214   2.200   0.721   0.887  0.8251  0.0484  0.6372
   54SOL    HW2  215   2.102   0.835   0.920  0.0232  0.0047 -0.6319
   54SOL     MW  216   2.185   0.803   0.914 -0.0548  0.2009 -0.3447
   55SOL     OW  217   0.539   1.489   1.554 -0.0095 -0.1904  0.1181
   55SOL    HW1  218   0.506   1.546   1.482  0.1870 -0.0435  0.3364
   55SOL    HW2  219   0.620   1.441   1.528  2.1021  0.7230  2.4975
   55SOL     MW  220   0.545   1.490   1.541  0.2950 -0.0505  0.4609
   56SOL     OW  221   0.591   0.770   0.101  0.4274 -0.3188 -0.2785
   56SOL    HW1  222   0.618   0.851   0.058 -0.3257 -2.1252 -0.0893
   56SOL    HW2  223   0.503   0.754   0.074  3.6289 -0.6164 -2.8144
   56SOL     MW  224   0.583   0.778   0.092  0.7505 -0.5964 -0.5881
   57SOL     OW  225   1.258   1.231   1.179 -0.2050  0.4313  0.7712
   57SOL    HW1  226   1.352   1.243   1.179  0.0380  0.7319 -0.1617
   57SOL    HW2  227   1.240   1.185   1.265  2.1769  0.0037 -0.5817
   57SOL     MW  228   1.268   1.227   1.190  0.1413  0.4146  0.4696
   58SOL     OW  229   0.684   1.113   1.308 -0.3629  0.1404  0.0486
   58SOL    HW1  230   0.642   1.188   1.271  1.1096 -0.5278  3.1296
   58SOL    HW2  231   0.645   1.097   1.392 -1.6709 -0.2579  0.1649
   58SOL     MW  232   0.674   1.121   1.315 -0.3412 -0.0003  0.4705
   59SOL     OW  233   1.555   1.637   0.306  0.8663 -0.0212  0.5712
   59SOL    HW1  234   1.618   1.587   0.350  1.3769  0.2976 -1.0179
   59SOL    HW2  235   1.474   1.640   0.366 -0.8652  0.0444 -2.6622
   59SOL     MW  236   1.553   1.631   0.320  0.7052  0.0295 -0.0651
   60SOL     OW  237   3.076   0.151   1.655 -0.0098  0.2331  0.5207
   60SOL    HW1  238   2.991   0.193   1.632 -0.0210  2.3347  1.6641
   60SOL    HW2  239   3.064   0.061   1.682  1.3897 -2.1734 -1.8271
   60SOL     MW  240   3.063   0.145   1.655  0.1733  0.1928  0.3618
   61SOL     OW  241   1.979   1.496  -0.002 -0.5075 -0.1235 -0.5913
   61SOL    HW1  242   1.974   1.464   0.087  1.0294  0.1774 -1.5572
   61SOL    HW2  243   2.017   1.412  -0.040  0.4357 -1.5426 -0.2926
   61SOL     MW  244   1.983   1.481   0.004 -0.1803 -0.2710 -0.6793
   62SOL     OW  245   0.593   1.618   0.573  0.6049 -0.3333  0.2176
   62SOL    HW1  246   0.674   1.596   0.511  1.8616 -1.5070 -2.2673
   62SOL    HW2  247   0.581   1.538   0.625 -2.0977  2.5958 -2.2758
   62SOL     MW  248   0.602   1.604   0.572  0.4141 -0.1017 -0.4392
   63SOL     OW  249   1.706   0.735   0.658 -0.2513  0.1780  0.1143
   63SOL    HW1  250   1.667   0.769   0.578 -1.2673  1.6340  0.1167
   63SOL    HW2  251   1.647   0.770   0.724 -0.1742 -0.0327  1.7881
   63SOL     MW  252   1.693   0.744   0.656 -0.3752  0.3423  0.3355
   64SOL     OW  253   0.245   1.677   0.925 -0.0912  0.0242 -0.8113
   64SOL    HW1  254   0.318   1.712   0.863 -0.1570  0.2285 -2.2554
   64SOL    HW2  255   0.169   1.726   0.900  2.0801 -1.1931 -2.4991
   64SOL     MW  256   0.244   1.688   0.914  0.1866 -0.1095 -1.2245
   65SOL     OW  257   1.538   2.286   0.325 -0.2887 -0.0382 -0.1583
   65SOL    HW1  258   1.620   2.262   0.276  1.6537  0.0879  0.5420
   65SOL    HW2  259   1.568   2.321   0.413  3.3309  1.0009  3.1092
   65SOL     MW  260   1.552   2.288   0.330  0.4451  0.1155  0.3652
   66SOL     OW  261   0.309   0.527   0.528  0.3835 -0.0465  0.2589
   66SOL    HW1  262   0.388   0.493   0.479  2.4929 -1.2817  0.9556
   66SOL    HW2  263   0.294   0.618   0.497 -2.3649 -1.5602 -1.4467
   66SOL     MW  264   0.318   0.534   0.518  0.2992 -0.4092  0.1258
   67SOL     OW  265   1.536   0.126   2.030 -0.3469 -0.3188 -0.0581
   67SOL    HW1  266   1.564   0.195   1.969  1.3636 -0.5082 -0.8577
   67SOL    HW2  267   1.460   0.083   1.999  3.4316  0.6288  1.1549
   67SOL     MW  268   1.530   0.129   2.017  0.3773 -0.2188 -0.0035
   68SOL     OW  269   0.624   0.071   2.937 -0.0795 -0.3684 -0.0538
   68SOL    HW1  270   0.608   0.093   2.846 -0.4582 -2.6611 -0.3651
   68SOL    HW2  271   0.639   0.155   2.975 -1.3818  1.6556 -1.6818
   68SOL     MW  272   0.624   0.085   2.930 -0.3013 -0.4038 -0.3097
   69SOL     OW  273   1.017   0.203   1.952 -0.4066  0.0699 -0.0161
   69SOL    HW1  274   1.112   0.216   1.974 -0.9133 -3.7763  2.2488
   69SOL    HW2  275   1.009   0.107   1.954  1.3015  0.9947 -0.3097
   69SOL     MW  276   1.029   0.192   1.955 -0.2481 -0.3155  0.2440
   70SOL     OW  277   0.578   1.839   1.134 -0.1900  0.5687  0.2728
   70SOL    HW1  278   0.584   1.745   1.128 -3.0141 -0.0678 -3.8590
   70SOL    HW2  279   0.641   1.864   1.074 -1.2004 -0.2652  2.8604
   70SOL     MW  280   0.587   1.830   1.125 -0.6960  0.3747  0.0691
   71SOL     OW  281   1.743   0.679   1.243  0.1279 -0.5197  0.1932
   71SOL    HW1  282   1.734   0.673   1.337 -0.6898 -2.1714  1.4397
   71SOL    HW2  283   1.654   0.653   1.210 -3.4791  2.8696 -0.5442
   71SOL     MW  284   1.730   0.675   1.251 -0.4559 -0.2904  0.2604
   72SOL     OW  285   0.839   1.791   0.970  0.2529 -0.3049  0.1314
   72SOL    HW1  286   0.812   1.838   0.888 -2.3249 -1.1047  0.2526
   72SOL    HW2  287   0.825   1.698   0.952  0.6862  1.4061  0.8492
   72SOL     MW  288   0.834   1.785   0.956 -0.0301 -0.1847  0.2421
   73SOL     OW  289   1.240   0.658   1.357 -0.0053  0.2251  0.3901
   73SOL    HW1  290   1.179   0.583   1.363 -1.1351  0.4086  0.2748
   73SOL    HW2  291   1.184   0.731   1.384  0.6365 -0.0517 -1.5874
   73SOL     MW  292   1.225   0.658   1.361 -0.0697  0.2128  0.1140
   74SOL     OW  293   2.798   0.156   0.995  0.6476  0.4428 -0.1908
   74SOL    HW1  294   2.754   0.099   0.938  1.1887  2.5984 -2.0716
   74SOL    HW2  295   2.800   0.241   0.949  0.5849  1.9584  0.1006
   74SOL     MW  296   2.793   0.159   0.982  0.7107  0.9272 -0.4005
   75SOL     OW  297   1.591   1.324   0.088 -0.3353  0.0435  0.5917
   75SOL    HW1  298   1.637   1.313   0.173 -0.9190  2.2711 -0.3603
   75SOL    HW2  299   1.627   1.249   0.040 -0.1547  1.3868  0.9820
   75SOL     MW  300   1.602   1.313   0.093 -0.3885  0.5146  0.5176
   76SOL     OW  301   2.948   0.657   0.467  0.2979 -0.0048 -0.0595
   76SOL    HW1  302   2.954   0.683   0.563  2.1633  0.5500 -0.1768
   76SOL    HW2  303   3.020   0.594   0.444  1.3556  0.1134  1.0844
   76SOL     MW  304   2.959   0.652   0.477  0.6836  0.0840  0.0759
   77SOL     OW  305   0.886   0.439   0.494 -0.9727  0.3366 -0.5453
   77SOL    HW1  306   0.833   0.501   0.446 -3.4301 -2.2175 -1.0246
   77SOL    HW2  307   0.831   0.356   0.508  1.6790  0.5602  0.0970
   77SOL     MW  308   0.872   0.436   0.490 -0.9471  0.0291 -0.5238
   78SOL     OW  309   0.770   0.761   1.197 -0.0828  0.2724 -0.2255
   78SOL    HW1  310   0.705   0.752   1.123 -0.4439  0.1455  1.0517
   78SOL    HW2  311   0.811   0.848   1.189 -1.6083  1.9250  2.2304
   78SOL     MW  312   0.766   0.771   1.186 -0.3317  0.4737  0.2671
   79SOL     OW  313   1.926   1.697   0.603  1.0958  0.0610  0.1964
   79SOL    HW1  314   1.833   1.664   0.592 -1.5796  0.1096 -0.5486
   79SOL    HW2  315   1.928   1.702   0.700 -0.8831  1.3792  1.3518
   79SOL     MW  316   1.914   1.693   0.615  0.4817  0.2414  0.2506
   80SOL     OW  317   0.148   1.014   0.316  0.6264  0.4211  0.5870
   80SOL    HW1  318   0.050   1.002   0.340 -1.5978 -1.1125  1.4045
   80SOL    HW2  319   0.182   0.934   0.357  1.5402  1.1774 -0.9206
   80SOL     MW  320   0.139   1.002   0.324  0.4535  0.3185  0.4960
   81SOL     OW  321   1.889   1.891   0.220 -0.5732 -0.0976  0.2805
   81SOL    HW1  322   1.828   1.823   0.183  0.9601 -1.2022  0.0945
   81SOL    HW2  323   1.833   1.974   0.216 -0.0171  1.2964 -0.1724
   81SOL     MW  324   1.874   1.893   0.214 -0.2975 -0.0594  0.1962
   82SOL     OW  325   0.806   1.009   0.560  0.1512  0.8216  0.1432
   82SOL    HW1  326   0.866   1.033   0.489 -2.0564 -0.4033  0.4875
   82SOL    HW2  327   0.774   0.914   0.537 -0.7702  0.2547 -2.5619
   82SOL     MW  328   0.810   1.000   0.547 -0.2617  0.5852 -0.1683
   83SOL     OW  329   0.138   0.615   1.366  0.3909 -0.1228 -0.5284
   83SOL    HW1  330   0.145   0.714   1.367 -1.5743  3.1951 -0.0150
   83SOL    HW2  331   0.189   0.587   1.443  2.2830 -3.4816  0.1203
   83SOL     MW  332   0.145   0.624   1.377  0.3813 -0.1282 -0.3751
   84SOL     OW  333   0.084   0.269   0.997  0.5860 -0.1276 -0.2656
   84SOL    HW1  334   0.004   0.302   0.953  0.9201  1.3395 -1.8163
   84SOL    HW2  335   0.052   0.203   1.060 -0.5493  1.8401  0.6565
   84SOL     MW  336   0.069   0.265   1.000  0.4803  0.3256 -0.3485
   85SOL     OW  337   0.413   0.441   0.751 -0.1440  0.0167  0.0824
   85SOL    HW1  338   0.399   0.482   0.671 -0.1279 -2.2093 -0.0422
   85SOL    HW2  339   0.341   0.383   0.750  2.4662  1.3891 -2.1820
   85SOL     MW  340   0.402   0.439   0.741  0.2025 -0.0959 -0.2328
   86SOL     OW  341   1.199   0.433   1.117  0.1729 -0.0588 -0.2373
   86SOL    HW1  342   1.148   0.503   1.069 -1.0805 -2.6389  0.8578
   86SOL    HW2  343   1.164   0.455   1.206  1.4840  0.0708  1.4727
   86SOL     MW  344   1.188   0.445   1.123  0.1805 -0.3821  0.1328
   87SOL     OW  345   1.218   1.499   1.236 -0.1529  0.2874 -0.4112
   87SOL    HW1  346   1.227   1.535   1.144  0.1255 -0.1398 -0.5045
   87SOL    HW2  347   1.236   1.409   1.226  1.1863  1.0344  0.5280
   87SOL     MW  348   1.221   1.492   1.223  0.0605  0.3296 -0.2996
   88SOL     OW  349   1.316   1.015   1.007 -0.2279 -0.6288  0.1806
   88SOL    HW1  350   1.411   1.031   1.025  0.4524 -1.9130  2.0079
   88SOL    HW2  351   1.272   1.092   1.048 -0.4672  0.2651 -1.7770
   88SOL     MW  352   1.323   1.027   1.015 -0.1697 -0.6803  0.1634
   89SOL     OW  353   1.745   0.652   0.343 -0.2957 -0.1445  0.3241
   89SOL    HW1  354   1.793   0.603   0.413  0.1737 -0.3431  2.0319
   89SOL    HW2  355   1.815   0.691   0.285  0.2374  1.1095  1.0057
   89SOL     MW  356   1.761   0.651   0.345 -0.1635 -0.0053  0.6393
   90SOL     OW  357   0.704   1.214   2.782 -0.6088  0.9988  0.5125
   90SOL    HW1  358   0.756   1.136   2.775 -2.8570 -0.6944  2.5259
   90SOL    HW2  359   0.711   1.221   2.882  0.4994 -0.7739  1.1257
   90SOL     MW  360   0.712   1.205   2.794 -0.7592  0.5415  0.8590
   91SOL     OW  361   2.104   0.663   0.542  0.0474  0.2593  0.3925
   91SOL    HW1  362   2.079   0.757   0.515 -3.0195  0.2108  1.2645
   91SOL    HW2  363   2.084   0.607   0.469  3.6414 -2.5329  1.4921
   91SOL     MW  364   2.098   0.668   0.529  0.1170 -0.1155  0.6527
   92SOL     OW  365   1.566   0.848   0.432 -0.2726  0.6332 -0.2553
   92SOL    HW1  366   1.474   0.822   0.449 -1.6283 -0.7524  2.4373
   92SOL    HW2  367   1.607   0.780   0.375 -1.1087  3.1997 -0.0367
   92SOL     MW  368   1.559   0.836   0.427 -0.5618  0.7890  0.1288
   93SOL     OW  369   1.065   0.284   0.331 -0.3478  0.5098  0.0022
   93SOL    HW1  370   1.017   0.357   0.372  0.2174  1.4166 -2.7087
   93SOL    HW2  371   1.081   0.305   0.240 -0.9481  2.8282 -0.1949
   93SOL     MW  372   1.061   0.297   0.324 -0.3525  0.9353 -0.3814
   94SOL     OW  373   1.912   1.310   1.659 -0.4582  0.2317 -0.1140
   94SOL    HW1  374   1.930   1.317   1.569  1.1061  0.1581 -0.9002
   94SOL    HW2  375   1.894   1.217   1.673  1.8533 -3.7765 -1.7590
   94SOL     MW  376   1.912   1.298   1.649  0.0531 -0.3068 -0.4348
   95SOL     OW  377   0.803   1.525   0.965 -0.9048 -0.0931 -0.3057
   95SOL    HW1  378   0.881   1.489   0.999  0.9639  0.6156 -0.8644
   95SOL    HW2  379   0.755   1.536   1.052  0.8648 -1.4229  2.5668
   95SOL     MW  380   0.807   1.522   0.981 -0.4248 -0.1751 -0.0004
   96SOL     OW  381   1.243   1.809   1.595  0.2606 -0.0237  0.0389
   96SOL    HW1  382   1.165   1.757   1.606 -3.7247 -1.5340  0.2381
   96SOL    HW2  383   1.298   1.759   1.538 -0.1434 -0.3351 -0.2345
   96SOL     MW  384   1.240   1.796   1.589 -0.3186 -0.2641  0.0291
   97SOL     OW  385   1.224   1.409   0.815 -0.4120  0.4088 -0.4804
   97SOL    HW1  386   1.229   1.456   0.895  1.3614 -0.5930  2.4482
   97SOL    HW2  387   1.155   1.461   0.775  0.2802 -0.0461  2.4098
   97SOL     MW  388   1.215   1.422   0.820 -0.0867  0.2166  0.2873
   98SOL     OW  389   1.516   1.313   1.130 -0.0822  0.4918 -0.7807
   98SOL    HW1  390   1.556   1.375   1.193 -0.4469  0.1377 -0.4715
   98SOL    HW2  391   1.539   1.340   1.040  1.7920  1.4200  0.3955
   98SOL     MW  392   1.524   1.325   1.126  0.1170  0.5675 -0.5847
   99SOL     OW  393   1.523   0.319   1.292 -0.2417 -0.0569 -0.0015
   99SOL    HW1  394   1.521   0.400   1.246 -1.0615  1.4618 -1.8657
   99SOL    HW2  395   1.480   0.357   1.372  1.6148  0.3622  1.2291
   99SOL     MW  396   1.517   0.335   1.296 -0.1049  0.1987 -0.0851
  100SOL     OW  397   1.038   1.082   1.411 -0.2865  0.0430  0.8102
  100SOL    HW1  398   0.969   1.110   1.470 -0.2685  0.9462 -0.8214
  100SOL    HW2  399   1.048   0.989   1.440 -1.6805 -0.2232  0.0778
  100SOL     MW  400   1.030   1.073   1.422 -0.4680  0.1270  0.4983
  101SOL     OW  401   0.626   1.147   0.275  0.0637 -0.1667 -0.6853
  101SOL    HW1  402   0.593   1.055   0.290 -0.4491 -0.3223  0.5694
  101SOL    HW2  403   0.569   1.184   0.209 -2.2264 -0.7733 -1.7061
  101SOL     MW  404   0.614   1.140   0.268 -0.3061 -0.2672 -0.6544
  102SOL     OW  405   2.953   0.592   0.996 -0.0455 -0.0453  0.1541
  102SOL    HW1  406   3.004   0.664   0.983 -1.7983 -2.4175  0.7190
  102SOL    HW2  407   2.994   0.553   1.072  0.6050 -0.2608 -2.3872
  102SOL     MW  408   2.965   0.596   1.005 -0.1910 -0.3867 -0.1067
  103SOL     OW  409   1.625   0.379   1.863  0.3231  0.1660 -0.0256
  103SOL    HW1  410   1.620   0.328   1.774 -1.1447 -0.1941  0.3051
  103SOL    HW2  411   1.700   0.338   1.901 -2.4136  0.6894 -1.7929
  103SOL     MW  412   1.634   0.367   1.856 -0.2317  0.1875 -0.2151
  104SOL     OW  413   0.165   1.863   1.398  0.7642  0.4589  0.1757
  104SOL    HW1  414   0.248   1.822   1.387 -0.9616 -2.6112 -1.2937
  104SOL    HW2  415   0.108   1.790   1.360  0.2250 -1.3155 -1.4276
  104SOL     MW  416   0.169   1.848   1.392  0.4654 -0.1803 -0.2297
  105SOL     OW  417   0.177   1.165   0.560 -0.3119  0.2075  0.1430
  105SOL    HW1  418   0.177   1.110   0.484  2.7432  2.4455 -0.0323
  105SOL    HW2  419   0.248   1.233   0.544 -0.3031 -0.1441 -1.2596
  105SOL     MW  420   0.186   1.167   0.548  0.0924  0.4564 -0.0652
  106SOL     OW  421   0.857   0.326   0.938 -0.1278 -0.1655  0.2998
  106SOL    HW1  422   0.816   0.396   0.890 -0.7475 -1.8144  0.5029
  106SOL    HW2  423   0.940   0.311   0.892 -0.9673  1.0876 -0.3020
  106SOL     MW  424   0.862   0.333   0.925 -0.3203 -0.2177  0.2472
  107SOL     OW  425   0.816   2.187   3.019  0.0753 -0.4281 -0.5534
  107SOL    HW1  426   0.787   2.107   2.971  1.0324 -1.1287  0.8108
  107SOL    HW2  427   0.863   2.146   3.095  3.7055  3.8054 -0.7576
  107SOL     MW  428   0.819   2.171   3.023  0.6805  0.0380 -0.4003
  108SOL     OW  429   1.379   1.606   1.424 -0.4291  0.5110  0.1807
  108SOL    HW1  430   1.337   1.586   1.341  2.3456 -0.9270 -1.3937
  108SOL    HW2  431   1.329   1.582   1.495 -1.3838  1.8207 -5.3921
  108SOL     MW  432   1.367   1.600   1.422 -0.1890  0.4941 -0.7623
  109SOL     OW  433   1.942   0.766   0.201  0.1752  0.5722 -0.6522
  109SOL    HW1  434   2.002   0.733   0.136  0.9742 -3.4188 -1.9922
  109SOL    HW2  435   2.000   0.814   0.265  1.1979 -1.1492 -0.0516
  109SOL     MW  436   1.957   0.768   0.201  0.4156 -0.1815 -0.7498
  110SOL     OW  437   0.420   1.808   0.706  0.1368  0.0559  0.5500
  110SOL    HW1  438   0.488   1.755   0.664  0.5633  1.8101 -2.1264
  110SOL    HW2  439   0.439   1.898   0.665  0.4950  1.4337 -1.3189
  110SOL     MW  440   0.431   1.813   0.695  0.2403  0.4692 -0.0497
  111SOL     OW  441   0.731   0.849   1.512 -0.0391 -0.1530  0.1133
  111SOL    HW1  442   0.731   0.813   1.421  0.4261  0.1721 -0.4735
  111SOL    HW2  443   0.645   0.836   1.551  0.1576 -1.4875 -1.4973
  111SOL     MW  444   0.720   0.842   1.505  0.0483 -0.2862 -0.1766
  112SOL     OW  445   1.323   1.076   1.711  0.2343 -0.3359  0.6678
  112SOL    HW1  446   1.255   1.145   1.690 -0.4646 -1.2188  3.3638
  112SOL    HW2  447   1.270   1.000   1.715  4.3382 -0.7875  1.8102
  112SOL     MW  448   1.307   1.075   1.708  0.6836 -0.5119  1.1743
  113SOL     OW  449   1.373   0.055   1.709 -0.1250 -1.2416  0.1188
  113SOL    HW1  450   1.353   0.021   1.801 -1.1659  1.0079  1.3086
  113SOL    HW2  451   1.351  -0.016   1.646 -2.5963  1.9750 -0.3581
  113SOL     MW  452   1.368   0.041   1.713 -0.5884 -0.5204  0.2129
  114SOL     OW  453   0.478   2.817   1.834  0.8126  0.2523  0.3613
  114SOL    HW1  454   0.454   2.867   1.916 -1.2634  0.0652  1.0109
  114SOL    HW2  455   0.442   2.875   1.767  2.2978  1.9290 -0.7032
  114SOL     MW  456   0.470   2.831   1.836  0.7347  0.4489  0.3065
  115SOL     OW  457   0.460   0.824   1.121 -0.0188  0.0852  0.3137
  115SOL    HW1  458   0.477   0.734   1.133 -2.0973  1.9963  2.6593
  115SOL    HW2  459   0.406   0.858   1.198 -0.8367  0.9045  0.0831
  115SOL     MW  460   0.455   0.816   1.133 -0.4010  0.4455  0.5928
  116SOL     OW  461   0.757   1.025   0.911 -0.3371  0.6688 -0.1579
  116SOL    HW1  462   0.804   1.063   0.840 -0.6948 -1.2984  0.5683
  116SOL    HW2  463   0.814   1.005   0.982 -1.1442 -1.0554  1.2453
  116SOL     MW  464   0.771   1.027   0.911 -0.4908  0.1818  0.1231
  117SOL     OW  465   1.222   1.117   0.743  0.0010 -0.1462 -0.2386
  117SOL    HW1  466   1.257   1.070   0.820 -3.3784 -0.1069 -2.5648
  117SOL    HW2  467   1.238   1.213   0.763  1.5444 -0.1290  0.7798
  117SOL     MW  468   1.229   1.123   0.756 -0.2412 -0.1387 -0.4111
  118SOL     OW  469   3.052   3.001   1.692 -0.4348  0.3327  0.2279
  118SOL    HW1  470   3.089   3.010   1.781  2.0839 -1.8873  1.5183
  118SOL    HW2  471   2.959   3.027   1.697  2.0266 -0.1860  0.6539
  118SOL     MW  472   3.044   3.005   1.705  0.2223 -0.0286  0.4544
  119SOL     OW  473   0.537   1.323   1.205 -0.2985 -0.0096 -0.1114
  119SOL    HW1  474   0.528   1.351   1.115 -1.4046 -1.1908  0.7581
  119SOL    HW2  475   0.459   1.261   1.212 -3.3627 -1.1360 -2.6106
  119SOL     MW  476   0.525   1.319   1.194 -0.8487 -0.3141 -0.3264
  120SOL     OW  477   0.210   0.689   0.925 -0.2723  0.0779 -0.0492
  120SOL    HW1  478   0.234   0.634   1.002  1.0448  0.8331 -1.3186
  120SOL    HW2  479   0.191   0.778   0.953  0.5089  2.2702  0.1691
  120SOL     MW  480   0.211   0.693   0.939  0.0046  0.4668 -0.1879
  121SOL     OW  481   1.822   1.041   1.709  0.2005  0.3059  0.0175
  121SOL    HW1  482   1.724   1.035   1.722 -1.2631 -0.2739  2.0372
  121SOL    HW2  483   1.862   0.966   1.661  0.9847  2.1697 -0.3855
  121SOL     MW  484   1.814   1.031   1.704  0.1109  0.4753  0.2308
  122SOL     OW  485   0.098   0.512   0.760  0.5263 -0.1473  0.0393
  122SOL    HW1  486   0.152   0.451   0.712  0.2620  0.2805  0.5026
  122SOL    HW2  487   0.155   0.568   0.811  0.0255 -0.5502  1.0131
  122SOL     MW  488   0.112   0.512   0.760  0.4254 -0.1440  0.2289
  123SOL     OW  489   1.785   1.023   0.468  0.2731  0.2465 -0.3438
  123SOL    HW1  490   1.694   0.993   0.490  0.8370 -2.2878 -1.7911
  123SOL    HW2  491   1.828   1.037   0.558 -1.2044  0.3777  1.6804
  123SOL     MW  492   1.779   1.021   0.483  0.1526 -0.0705 -0.2677
  124SOL     OW  493   0.661   0.512   0.856  0.1592 -0.0323  0.3999
  124SOL    HW1  494   0.575   0.474   0.815  0.1688 -1.5443  1.1803
  124SOL    HW2  495   0.653   0.607   0.845  2.5311 -1.5381 -0.6129
  124SOL     MW  496   0.649   0.519   0.849  0.4734 -0.4304  0.3692
  125SOL     OW  497   0.692   1.716   1.666  0.2492  0.1797 -0.0352
  125SOL    HW1  498   0.602   1.667   1.673 -0.1308 -0.1748  0.7738
  125SOL    HW2  499   0.659   1.807   1.674 -1.5458 -0.0584 -1.5004
  125SOL     MW  500   0.676   1.721   1.668 -0.0377  0.1015 -0.1218
  126SOL     OW  501   2.110   1.611   1.970 -0.5769 -0.0642 -0.0642
  126SOL    HW1  502   2.182   1.675   1.942 -0.3384  0.6640  0.8588
  126SOL    HW2  503   2.156   1.527   1.977 -1.0257 -2.0116  0.2961
  126SOL     MW  504   2.126   1.608   1.968 -0.6047 -0.2250  0.1051
  127SOL     OW  505   0.624   0.739   1.879  0.2124  0.2922 -0.5087
  127SOL    HW1  506   0.691   0.701   1.925 -0.4144  1.9643 -1.4616
  127SOL    HW2  507   0.623   0.837   1.903 -2.2219  0.0035  1.1807
  127SOL     MW  508   0.633   0.747   1.888 -0.1915  0.4747 -0.4115
  128SOL     OW  509   1.815   0.746   2.891  0.1280  0.0014  0.2541
  128SOL    HW1  510   1.820   0.714   2.801  3.3468 -0.3585  1.2257
  128SOL    HW2  511   1.774   0.834   2.883 -0.3549 -0.9543  1.6907
  128SOL     MW  512   1.810   0.753   2.878  0.4889 -0.1722  0.5718
  129SOL     OW  513   1.488   0.986   0.213 -0.5142  0.3169 -0.1554
  129SOL    HW1  514   1.423   0.922   0.200  1.2662  1.3653  1.6263
  129SOL    HW2  515   1.520   0.957   0.301  3.0963  3.4174 -0.6803
  129SOL     MW  516   1.483   0.974   0.223  0.1971  0.8643  0.0104
  130SOL     OW  517   0.750   1.473   0.379 -0.5110 -0.3069  0.5513
  130SOL    HW1  518   0.793   1.415   0.450  1.3455 -1.5095  1.6342
  130SOL    HW2  519   0.827   1.502   0.332 -0.9593 -1.1833 -1.1687
  130SOL     MW  520   0.766   1.469   0.382 -0.3252 -0.5812  0.4673
  131SOL     OW  521   3.061   0.781   0.082  0.2336  0.2237  0.3192
  131SOL    HW1  522   3.035   0.847   0.006 -1.8993  1.7795 -2.5039
  131SOL    HW2  523   3.153   0.777   0.080  1.6579  1.8972 -0.2496
  131SOL     MW  524   3.070   0.789   0.072  0.1401  0.6497 -0.1283
  132SOL     OW  525   2.767   0.158   1.269  0.1707  0.1247 -0.1638
  132SOL    HW1  526   2.790   0.153   1.175  0.1044  1.7393  0.8368
  132SOL    HW2  527   2.670   0.145   1.267  0.5957 -0.0628  0.8117
  132SOL     MW  528   2.757   0.156   1.256  0.2180  0.3130  0.0969
  133SOL     OW  529   1.127   0.180   1.696 -0.0889 -0.1366  0.0313
  133SOL    HW1  530   1.207   0.129   1.717 -1.2800 -3.2066 -1.3046
  133SOL    HW2  531   1.077   0.188   1.774  0.3917 -0.9932 -0.0179
  133SOL     MW  532   1.131   0.174   1.709 -0.1826 -0.6547 -0.1515
  134SOL     OW  533   1.360   2.509   1.396  0.4415  0.4874 -0.2592
  134SOL    HW1  534   1.286   2.577   1.404 -0.8950 -2.1562 -0.4402
  134SOL    HW2  535   1.407   2.524   1.486 -0.1778  0.4575  2.2377
  134SOL     MW  536   1.356   2.520   1.409  0.1834  0.1347  0.0464
  135SOL     OW  537   3.030   0.978   2.969 -0.0947  0.4640 -0.2840
  135SOL    HW1  538   3.082   1.055   2.980 -0.1917 -0.0028  3.5433
  135SOL    HW2  539   2.936   1.021   2.950  0.8535  1.2313 -2.9136
  135SOL     MW  540   3.024   0.994   2.968  0.0176  0.5036 -0.1260
  136SOL     OW  541   0.292   2.008   0.860  0.0671 -0.5059  0.4590
  136SOL    HW1  542   0.249   1.927   0.832 -1.9000  1.8947 -1.3824
  136SOL    HW2  543   0.368   1.992   0.814 -0.4079  2.0495 -0.6367
  136SOL     MW  544   0.296   1.995   0.851 -0.2551  0.1480  0.0715
  137SOL     OW  545   0.740   2.008   0.538  0.7550 -0.4506 -0.6578
  137SOL    HW1  546   0.780   2.004   0.623  1.3535 -0.4524  1.5324
  137SOL    HW2  547   0.645   2.025   0.558 -0.9995  2.4749 -1.7661
  137SOL     MW  548   0.732   2.010   0.552  0.6025 -0.0648 -0.5150
  138SOL     OW  549   0.539   0.564   1.085 -0.0880 -0.1434  0.1649
  138SOL    HW1  550   0.452   0.549   1.058  0.9292  1.0117  0.9155
  138SOL    HW2  551   0.583   0.552   0.994 -1.5826  0.0911 -2.0908
  138SOL     MW  552   0.534   0.561   1.070 -0.1510  0.0400 -0.0337
  139SOL     OW  553   2.725   0.478   1.402 -0.3276 -0.3785 -0.1942
  139SOL    HW1  554   2.787   0.402   1.407  1.2858  1.3004  0.7105
  139SOL    HW2  555   2.782   0.556   1.428  0.3512  1.6483 -3.8717
  139SOL     MW  556   2.741   0.478   1.406 -0.0252  0.1104 -0.5601
  140SOL     OW  557   0.860   0.361   2.095 -0.2802  0.9096 -0.5201
  140SOL    HW1  558   0.910   0.308   2.034 -1.0925  1.3034 -0.5592
  140SOL    HW2  559   0.929   0.370   2.160  1.0076  0.1086  1.0467
  140SOL     MW  560   0.876   0.355   2.096 -0.2175  0.8559 -0.3186
  141SOL     OW  561   1.011   0.612   1.731  0.1316 -0.4311 -0.2596
  141SOL    HW1  562   1.071   0.543   1.687 -1.0720 -1.8856 -1.2775
  141SOL    HW2  563   1.067   0.685   1.752  2.1109  1.6837 -0.6652
  141SOL     MW  564   1.027   0.613   1.728  0.2339 -0.3440 -0.4474
  142SOL     OW  565   0.947   1.181   0.752  0.5625 -0.3136 -0.1519
  142SOL    HW1  566   0.922   1.101   0.698 -0.0086 -1.0507 -2.9289
  142SOL    HW2  567   1.043   1.164   0.770 -1.9423  2.2778 -0.7680
  142SOL     MW  568   0.956   1.168   0.747  0.1567 -0.0689 -0.5996
  143SOL     OW  569   1.856   0.890   1.104 -0.7158 -0.6692 -0.5982
  143SOL    HW1  570   1.873   0.866   1.014  0.6405 -1.2547  0.5832
  143SOL    HW2  571   1.822   0.813   1.145 -0.6403 -0.7137  0.2234
  143SOL     MW  572   1.854   0.877   1.098 -0.5269 -0.7523 -0.3340
  144SOL     OW  573   0.169   1.162   1.537  1.1533 -0.0743  0.0250
  144SOL    HW1  574   0.265   1.173   1.540  0.6030 -0.2114  0.7611
  144SOL    HW2  575   0.148   1.192   1.627  0.1855 -0.1377 -1.7269
  144SOL     MW  576   0.179   1.167   1.549  0.9530 -0.1008 -0.1090
  145SOL     OW  577   0.256   0.467   1.082 -0.3397 -0.7511 -0.0966
  145SOL    HW1  578   0.284   0.421   1.160 -2.0707 -4.0157 -1.5016
  145SOL    HW2  579   0.213   0.388   1.041 -0.6373  2.2250  2.8339
  145SOL     MW  580   0.254   0.451   1.087 -0.6073 -0.7891  0.1046
  146SOL     OW  581   0.891   1.893   1.383 -0.2952  0.3018  0.8434
  146SOL    HW1  582   0.912   1.900   1.284  2.0969  2.3982 -0.4107
  146SOL    HW2  583   0.793   1.914   1.392 -3.4527  0.1001 -1.5939
  146SOL     MW  584   0.881   1.897   1.371 -0.3962  0.5518  0.3564
  147SOL     OW  585   0.390   0.429   2.892  0.0538 -0.4815  0.4321
  147SOL    HW1  586   0.323   0.416   2.958  2.3409 -0.3468 -2.1361
  147SOL    HW2  587   0.343   0.487   2.830 -0.3159  0.1516  0.9472
  147SOL     MW  588   0.375   0.435   2.892  0.3068 -0.3802  0.1612
  148SOL     OW  589   0.024   0.925   1.332 -0.1356 -0.4725  0.3598
  148SOL    HW1  590   0.116   0.947   1.351  2.8408  1.2487  0.8312
  148SOL    HW2  591  -0.017   0.950   1.420  0.3471 -0.5088  0.9646
  148SOL     MW  592   0.030   0.931   1.346  0.3208 -0.2502  0.5018
  149SOL     OW  593   1.413   1.169   1.443 -0.3279  0.6391  0.5107
  149SOL    HW1  594   1.407   1.109   1.524  0.9579 -0.6145  0.0527
  149SOL    HW2  595   1.494   1.221   1.460  2.2580 -1.5916  2.1072
  149SOL     MW  596   1.423   1.168   1.456  0.1829  0.1793  0.6609
  150SOL     OW  597   1.821   1.290   0.786  0.1145 -0.7215  0.1654
  150SOL    HW1  598   1.836   1.200   0.766 -1.1480  0.6720 -1.5187
  150SOL    HW2  599   1.876   1.316   0.858  0.8747 -1.5528  2.6831
  150SOL     MW  600   1.830   1.282   0.793  0.0482 -0.6474  0.2754
  151SOL     OW  601   1.641   1.824   0.860  0.6365  0.7909  0.2425
  151SOL    HW1  602   1.581   1.842   0.788  0.0934 -1.3772  2.2198
  151SOL    HW2  603   1.602   1.763   0.926  2.5044  1.7386 -1.1064
  151SOL     MW  604   1.628   1.818   0.859  0.8113  0.6299  0.3254
  152SOL     OW  605   0.794   1.349   1.531  0.1463 -0.6177 -0.1564
  152SOL    HW1  606   0.807   1.249   1.540 -2.1110  0.2890 -1.5434
  152SOL    HW2  607   0.867   1.386   1.486 -1.6084 -0.5972 -0.5339
  152SOL     MW  608   0.806   1.340   1.526 -0.3830 -0.4954 -0.3892
  153SOL     OW  609   2.666   1.227   0.719 -0.1979 -0.2343 -0.1334
  153SOL    HW1  610   2.754   1.210   0.679 -1.2138  0.5666 -1.4111
  153SOL    HW2  611   2.616   1.136   0.720 -0.2239 -0.2707  0.4703
  153SOL     MW  612   2.671   1.213   0.714 -0.3354 -0.1334 -0.2224
  154SOL     OW  613   0.332   1.764   1.687  0.1352 -0.4016 -0.1132
  154SOL    HW1  614   0.348   1.730   1.594 -0.8876  1.5051 -1.0281
  154SOL    HW2  615   0.328   1.679   1.731 -1.0190  0.4574  2.2093
  154SOL     MW  616   0.334   1.748   1.680 -0.1520 -0.0367  0.0725
  155SOL     OW  617   1.102   0.683   0.303 -0.4440 -0.3634 -0.4707
  155SOL    HW1  618   1.112   0.630   0.382 -0.0618 -2.1519 -0.4683
  155SOL    HW2  619   1.066   0.771   0.325 -1.4995  0.5617 -1.6533
  155SOL     MW  620   1.099   0.688   0.316 -0.5328 -0.4773 -0.6264
  156SOL     OW  621   1.483   3.028   1.034  0.0608 -0.0615  0.1056
  156SOL    HW1  622   1.509   3.109   1.069 -3.7065 -2.0744 -0.7266
  156SOL    HW2  623   1.491   2.962   1.103  0.6778  2.0558  0.4866
  156SOL     MW  624   1.488   3.030   1.047 -0.3549 -0.0478  0.0461
  157SOL     OW  625   1.359   1.218   0.148  0.1221 -0.5259  0.4694
  157SOL    HW1  626   1.393   1.127   0.179  2.4576 -1.9619  0.1072
  157SOL    HW2  627   1.440   1.269   0.117 -3.2552  1.2301  0.1839
  157SOL     MW  628   1.374   1.213   0.148 -0.0153 -0.4837  0.3839
  158SOL     OW  629   0.419   1.672   2.265  0.6395 -0.0273 -0.1702
  158SOL    HW1  630   0.420   1.748   2.209 -0.5706 -0.3819  0.3155
  158SOL    HW2  631   0.339   1.621   2.257  0.2523 -1.4054 -1.0938
  158SOL     MW  632   0.409   1.675   2.256  0.4287 -0.2559 -0.2280
  159SOL     OW  633   1.319   1.661   0.453  0.0114 -0.0165 -0.0580
  159SOL    HW1  634   1.286   1.579   0.416 -3.2617  2.9986  2.3621
  159SOL    HW2  635   1.233   1.709   0.473 -0.3575  2.7766 -0.1745
  159SOL     MW  636   1.304   1.656   0.451 -0.4692  0.7499  0.2459
  160SOL     OW  637   0.461   1.082   1.552  0.3809  0.1933  0.0366
  160SOL    HW1  638   0.476   0.998   1.593  0.7513  2.5883  2.4685
  160SOL    HW2  639   0.482   1.153   1.612 -2.7003  2.2731 -0.6217
  160SOL     MW  640   0.466   1.080   1.565  0.0233  0.7837  0.2706
  161SOL     OW  641   0.565   2.109   2.700 -0.4655  0.2319 -0.7734
  161SOL    HW1  642   0.477   2.125   2.731 -0.0778  0.0489 -2.3893
  161SOL    HW2  643   0.560   2.079   2.615 -0.7052 -0.2271  2.4341
  161SOL     MW  644   0.553   2.107   2.693 -0.4460  0.1472 -0.5634
  162SOL     OW  645   0.997   1.673   1.787 -0.3841 -0.4182 -0.2351
  162SOL    HW1  646   0.984   1.766   1.776  3.9440 -3.5326 -1.1351
  162SOL    HW2  647   0.916   1.650   1.826  0.3267  4.0197 -0.2615
  162SOL     MW  648   0.985   1.682   1.790  0.2807 -0.2436 -0.3574
  163SOL     OW  649   2.115   0.189   0.963  0.1043  0.4767 -0.1301
  163SOL    HW1  650   2.126   0.175   0.874  1.7534 -0.2755  3.5376
  163SOL    HW2  651   2.055   0.122   0.997  0.1999  0.2825  0.1816
  163SOL     MW  652   2.109   0.179   0.956  0.3345  0.3519  0.3949
  164SOL     OW  653   0.243   0.231   0.780  0.2148  0.4200 -0.9645
  164SOL    HW1  654   0.164   0.234   0.838 -1.9493  0.9404  0.8336
  164SOL    HW2  655   0.259   0.140   0.763 -1.0573  1.4821 -0.7522
  164SOL     MW  656   0.235   0.219   0.786 -0.2386  0.6288 -0.6993
  165SOL     OW  657   1.369   1.241   0.422  0.0276  0.3678  0.3384
  165SOL    HW1  658   1.339   1.155   0.447  2.0654  1.4584  2.6981
  165SOL    HW2  659   1.380   1.228   0.327  0.1522 -3.9363 -0.1734
  165SOL     MW  660   1.366   1.228   0.413  0.3129 -0.0562  0.5822
  166SOL     OW  661   0.481   1.062   0.954  0.1341 -0.7039 -0.4071
  166SOL    HW1  662   0.463   0.988   1.015 -3.1827 -2.0560  1.3495
  166SOL    HW2  663   0.575   1.048   0.943  1.1120  1.5690 -1.1261
  166SOL     MW  664   0.491   1.050   0.960 -0.1745 -0.5824 -0.2702
  167SOL     OW  665   0.888   1.141   0.262  0.0835  0.1072  0.2929
  167SOL    HW1  666   0.795   1.140   0.261 -0.8445 -0.0602 -1.1153
  167SOL    HW2  667   0.902   1.181   0.171 -2.0784 -1.6788 -1.6947
  167SOL     MW  668   0.877   1.146   0.250 -0.3242 -0.1505 -0.1552
  168SOL     OW  669   1.699   1.738   2.874 -0.4887 -0.0027 -0.0984
  168SOL    HW1  670   1.641   1.805   2.914  1.2053  1.0011  1.6139
  168SOL    HW2  671   1.704   1.663   2.943 -0.0674 -1.6362 -2.5651
  168SOL     MW  672   1.692   1.737   2.888 -0.2096 -0.0858 -0.1979
  169SOL     OW  673   0.330   0.950   1.338 -0.0114 -0.0708  0.1715
  169SOL    HW1  674   0.389   0.959   1.414  0.1935 -1.1747 -1.4326
  169SOL    HW2  675   0.323   1.044   1.308  4.3720  2.2354  1.6621
  169SOL     MW  676   0.337   0.963   1.344  0.5940  0.0878  0.1565
  170SOL     OW  677   1.054   1.464   1.475  0.6821  0.0841 -0.3350
  170SOL    HW1  678   0.994   1.539   1.446 -0.4964  2.7821 -3.4539
  170SOL    HW2  679   1.113   1.457   1.405 -0.0695 -0.8170  1.2134
  170SOL     MW  680   1.054   1.473   1.462  0.4274  0.3212 -0.5422
  171SOL     OW  681   0.611   1.394   0.715 -0.4196  0.1949  0.1079
  171SOL    HW1  682   0.590   1.383   0.811 -0.2538 -0.1415 -0.7265
  171SOL    HW2  683   0.599   1.317   0.664  0.7973  1.6430 -0.9936
  171SOL     MW  684   0.607   1.383   0.721 -0.2371  0.3416 -0.1475
  172SOL     OW  685   0.865   0.320   1.204  0.1868  0.0284 -0.0321
  172SOL    HW1  686   0.852   0.336   1.104 -1.1073  1.4398 -0.5985
  172SOL    HW2  687   0.787   0.361   1.250 -0.2558 -1.3047 -1.7699
  172SOL     MW  688   0.853   0.327   1.197 -0.0423  0.0387 -0.3361
  173SOL     OW  689   0.480   1.730   0.358  0.0220  0.4252  0.1245
  173SOL    HW1  690   0.467   1.633   0.341 -2.4247  0.0092  2.9692
  173SOL    HW2  691   0.495   1.713   0.451 -0.9413 -0.1700  0.8963
  173SOL     MW  692   0.480   1.715   0.368 -0.4279  0.2918  0.6017
  174SOL     OW  693   2.011   0.938   1.487 -0.6790  0.2345 -0.7935
  174SOL    HW1  694   1.975   0.851   1.505 -2.2892 -2.1782  1.3927
  174SOL    HW2  695   1.965   0.975   1.415  2.2614  0.7478  0.6238
  174SOL     MW  696   2.000   0.931   1.480 -0.5035 -0.0161 -0.3181
  175SOL     OW  697   0.484   1.440   0.315  0.4581  0.2403 -0.1143
  175SOL    HW1  698   0.462   1.427   0.225 -0.9681 -0.2777 -1.5654
  175SOL    HW2  699   0.578   1.443   0.325  1.8146  2.9816  0.2030
  175SOL     MW  700   0.494   1.439   0.305  0.4489  0.5336 -0.2639
  176SOL     OW  701   0.297   1.223   1.223 -0.6572  1.1895 -0.8623
  176SOL    HW1  702   0.228   1.200   1.157 -0.8117  0.3924  0.1247
  176SOL    HW2  703   0.275   1.308   1.246 -0.0285 -3.1088  0.2199
  176SOL     MW  704   0.285   1.231   1.217 -0.5946  0.5172 -0.5893
  177SOL     OW  705   0.626   0.441   1.313  0.3025 -1.0646  0.3612
  177SOL    HW1  706   0.597   0.496   1.229  1.0346  1.8589 -0.2872
  177SOL    HW2  707   0.604   0.499   1.388 -0.3318 -0.3824  2.9302
  177SOL     MW  708   0.619   0.456   1.312  0.3154 -0.5889  0.6146
  178SOL     OW  709   3.091   0.411   2.945 -0.3179  0.0700 -0.7293
  178SOL    HW1  710   3.025   0.436   3.019 -0.6566 -0.0069  0.6122
  178SOL    HW2  711   3.054   0.450   2.871 -0.5283 -2.4491  1.0815
  178SOL     MW  712   3.078   0.419   2.945 -0.3904 -0.2725 -0.3134
  179SOL     OW  713   1.646   1.309   1.488  0.6883 -0.2523 -0.3893
  179SOL    HW1  714   1.639   1.372   1.560 -0.7781  2.3014  1.2539
  179SOL    HW2  715   1.735   1.308   1.451  0.1614 -0.0524 -0.0679
  179SOL     MW  716   1.657   1.317   1.492  0.4253  0.1110 -0.1301
  180SOL     OW  717   3.015   0.255   0.468 -0.7072 -1.2317 -0.3037
  180SOL    HW1  718   2.973   0.261   0.377 -1.4066 -1.5007 -2.4425
  180SOL    HW2  719   3.059   0.337   0.477 -0.3964  0.6064  0.5675
  180SOL     MW  720   3.015   0.266   0.457 -0.7584 -1.0247 -0.4709
  181SOL     OW  721   1.109   1.451   3.065 -0.1844  0.1930 -0.1151
  181SOL    HW1  722   1.140   1.511   3.132  0.7866  2.1994 -1.4117
  181SOL    HW2  723   1.174   1.444   2.994 -1.7473  0.9550  0.1125
  181SOL     MW  724   1.121   1.458   3.065 -0.2625  0.5582 -0.2561
  182SOL     OW  725   0.465   0.821   1.625 -0.5212  0.2416  0.3346
  182SOL    HW1  726   0.375   0.805   1.656 -1.0118 -0.4451  0.6207
  182SOL    HW2  727   0.515   0.776   1.692 -0.1514  0.4767 -0.8617
  182SOL     MW  728   0.460   0.813   1.638 -0.5371  0.1820  0.2145
  183SOL     OW  729   1.638   1.524   1.294 -0.6180 -0.4873 -0.3336
  183SOL    HW1  730   1.559   1.555   1.343 -3.0047  0.4607  0.2780
  183SOL    HW2  731   1.675   1.462   1.353  1.4675  1.8211  0.5047
  183SOL     MW  732   1.632   1.520   1.308 -0.6577 -0.0577 -0.1423
  184SOL     OW  733   0.862   0.616   1.994  0.1915 -0.1787  0.4902
  184SOL    HW1  734   0.928   0.617   1.921 -1.0507  1.6352  0.4233
  184SOL    HW2  735   0.863   0.526   2.015 -0.7190  2.5861 -3.2636
  184SOL     MW  736   0.871   0.604   1.987 -0.0925  0.4254 -0.0139
  185SOL     OW  737   1.109   0.941   1.966 -0.4353 -0.2831  0.8134
  185SOL    HW1  738   1.129   0.865   2.024 -0.8777 -3.2146  2.3416
  185SOL    HW2  739   1.160   1.017   2.006  0.5782 -1.2442 -0.9336
  185SOL     MW  740   1.118   0.941   1.979 -0.3599 -0.7967  0.7845
  186SOL     OW  741   0.394   1.676   1.416  0.1242  0.3658 -0.1264
  186SOL    HW1  742   0.465   1.700   1.361  0.7297  0.4174  0.2242
  186SOL    HW2  743   0.339   1.620   1.361 -0.2799 -1.8219  1.5951
  186SOL     MW  744   0.396   1.672   1.401  0.1507  0.0840  0.1470
  187SOL     OW  745   1.514   0.686   1.458 -0.1717  0.3634 -0.4957
  187SOL    HW1  746   1.495   0.697   1.552  1.6679 -0.0790  0.5149
  187SOL    HW2  747   1.427   0.674   1.413 -0.3075  0.5527 -0.5348
  187SOL     MW  748   1.500   0.686   1.464  0.0531  0.3300 -0.3675
  188SOL     OW  749   1.904   1.043   0.714  0.3734  0.3726 -0.2942
  188SOL    HW1  750   1.918   0.964   0.766 -0.0930  3.3161  0.2306
  188SOL    HW2  751   1.995   1.068   0.696 -1.8499 -0.1223 -0.0040
  188SOL     MW  752   1.918   1.036   0.719  0.0185  0.6956 -0.1866
  189SOL     OW  753   0.658   0.787   0.803 -0.0434 -0.2148  0.0569
  189SOL    HW1  754   0.581   0.817   0.759  1.7453  5.2258 -0.8443
  189SOL    HW2  755   0.717   0.860   0.825  2.9985  0.1014  0.0708
  189SOL     MW  756   0.656   0.800   0.800  0.5939  0.5447 -0.0602
  190SOL     OW  757   1.871   0.305   1.967 -0.0994 -1.1327  0.1917
  190SOL    HW1  758   1.904   0.243   1.904 -0.3904  0.9373  1.7821
  190SOL    HW2  759   1.933   0.382   1.949  1.9173 -1.5983 -1.5430
  190SOL     MW  760   1.883   0.307   1.956  0.1283 -0.9210  0.1727
  191SOL     OW  761   1.637   0.942   1.372  0.1624  0.1364 -0.9895
  191SOL    HW1  762   1.557   0.997   1.372  1.3709 -0.5134 -2.0853
  191SOL    HW2  763   1.619   0.852   1.397 -0.7410  0.0461 -2.0276
  191SOL     MW  764   1.624   0.938   1.375  0.2027  0.0388 -1.2710
  192SOL     OW  765   0.754   1.977   2.833 -0.3719  0.4113 -0.5430
  192SOL    HW1  766   0.712   2.054   2.789 -0.1207 -0.2154 -0.0466
  192SOL    HW2  767   0.682   1.916   2.839  0.1663  0.7794 -1.0408
  192SOL     MW  768   0.739   1.979   2.828 -0.2677  0.3772 -0.5432
  193SOL     OW  769   1.050   1.589   0.751 -0.4444  0.2002 -0.1164
  193SOL    HW1  770   1.053   1.636   0.835  0.1721 -0.3715  4.1072
  193SOL    HW2  771   0.965   1.546   0.756 -1.7190 -0.0277  1.0564
  193SOL     MW  772   1.040   1.590   0.762 -0.5312  0.0947  0.5956
  194SOL     OW  773   0.479   1.362   0.939  0.0715  0.2528  0.2433
  194SOL    HW1  774   0.468   1.265   0.943  0.3706 -2.4919  2.6096
  194SOL    HW2  775   0.409   1.391   0.883  0.5673  0.9651 -2.2087
  194SOL     MW  776   0.468   1.353   0.932  0.1764 -0.0154  0.2320
  195SOL     OW  777   1.271   1.144   2.992 -0.0395 -0.4136  0.0210
  195SOL    HW1  778   1.291   1.187   3.074  0.7429  0.8572  0.7880
  195SOL    HW2  779   1.211   1.068   3.012 -1.3872 -1.0810 -0.0989
  195SOL     MW  780   1.266   1.140   3.005 -0.1141 -0.3340  0.1064
  196SOL     OW  781   2.185   1.103   0.652  0.5187  0.5931  0.8186
  196SOL    HW1  782   2.187   1.063   0.564 -3.0067  1.4040 -0.1825
  196SOL    HW2  783   2.173   1.194   0.629 -1.0861 -0.0291  2.8325
  196SOL     MW  784   2.184   1.110   0.637 -0.1582  0.6180  0.9522
  197SOL     OW  785   0.579   1.253   2.003  0.2624 -0.1172 -0.4992
  197SOL    HW1  786   0.620   1.165   1.987  2.3231 -0.0107  0.4866
  197SOL    HW2  787   0.559   1.281   1.919  2.4168 -2.0398  1.8259
  197SOL     MW  788   0.581   1.245   1.990  0.8185 -0.3568 -0.0624
  198SOL     OW  789   2.953   1.401   1.037  0.3260  0.2101 -0.1613
  198SOL    HW1  790   2.943   1.489   1.000 -1.8255  0.5361 -0.4944
  198SOL    HW2  791   2.868   1.356   1.015 -1.7379 -3.8962 -2.9289
  198SOL     MW  792   2.940   1.407   1.029 -0.2302 -0.2887 -0.5704
  199SOL     OW  793   0.516   1.283   1.738  0.0369 -0.2732 -0.0768
  199SOL    HW1  794   0.422   1.283   1.765  1.8383  1.8794 -1.5509
  199SOL    HW2  795   0.525   1.364   1.683 -2.9114  3.3748 -0.5927
  199SOL     MW  796   0.505   1.293   1.735 -0.1144  0.4921 -0.3394
  200SOL     OW  797   1.895   3.094   1.371 -0.5655  0.1807  0.6075
  200SOL    HW1  798   1.926   3.114   1.279  0.1725  1.3043 -0.7113
  200SOL    HW2  799   1.799   3.096   1.371 -0.8434 -0.9005  0.0276
  200SOL     MW  800   1.886   3.097   1.359 -0.5048  0.1863  0.3570
  201SOL     OW  801   1.088   0.305   0.826 -0.3639 -0.0113  0.2414
  201SOL    HW1  802   1.086   0.211   0.791 -0.0716  2.8793  0.8920
  201SOL    HW2  803   1.110   0.354   0.741 -1.0315 -1.3228 -0.6683
  201SOL     MW  804   1.090   0.299   0.810 -0.4134  0.1970  0.2072
  202SOL     OW  805   1.550   1.628   1.044 -0.2437  0.3810  0.0843
  202SOL    HW1  806   1.573   1.560   0.976  2.1929  2.9258 -0.1337
  202SOL    HW2  807   1.582   1.597   1.127 -1.7517  0.4581 -0.4731
  202SOL     MW  808   1.557   1.615   1.046 -0.1212  0.7269 -0.0180
  203SOL     OW  809  -0.003   0.445   1.201  0.5435  0.0700 -0.2998
  203SOL    HW1  810   0.059   0.393   1.155  1.3155  2.7056  0.9598
  203SOL    HW2  811   0.048   0.492   1.267  1.4216 -4.0568 -2.3665
  203SOL     MW  812   0.012   0.445   1.204  0.7612 -0.1268 -0.4063
  204SOL     OW  813   1.065   1.761   0.515 -0.5608  0.3181 -0.1884
  204SOL    HW1  814   1.034   1.707   0.591  1.3460 -0.4474 -2.0284
  204SOL    HW2  815   0.989   1.761   0.451  0.5354 -2.0717 -1.1750
  204SOL     MW  816   1.051   1.754   0.516 -0.1646 -0.0982 -0.5614
  205SOL     OW  817   1.385   0.087   1.328 -0.1351  0.3591 -0.1062
  205SOL    HW1  818   1.324   0.112   1.258 -0.2836  0.1788  2.2973
  205SOL    HW2  819   1.426   0.172   1.333  1.2088  0.0248 -0.6711
  205SOL     MW  820   1.383   0.102   1.319  0.0227  0.2912  0.1364
  206SOL     OW  821   0.480   3.068   1.382 -0.4417 -0.3077  0.3371
  206SOL    HW1  822   0.431   3.043   1.302  0.3819  1.0262  2.0881
  206SOL    HW2  823   0.557   3.018   1.385 -3.4403  0.3382 -0.1934
  206SOL     MW  824   0.484   3.058   1.371 -0.7287 -0.0465  0.4981
  207SOL     OW  825   0.958   1.559   0.253 -0.2489  0.4347 -0.0317
  207SOL    HW1  826   0.988   1.650   0.231  0.8672  0.7110 -1.0206
  207SOL    HW2  827   1.045   1.514   0.282  2.4293  0.9814  1.8536
  207SOL     MW  828   0.973   1.565   0.254  0.2517  0.5433  0.0866
  208SOL     OW  829   0.669   1.564   1.198  0.5870  0.0340 -0.1999
  208SOL    HW1  830   0.719   1.570   1.273  0.3413  0.8985 -1.7094
  208SOL    HW2  831   0.640   1.473   1.207 -0.1456 -1.2066  0.0968
  208SOL     MW  832   0.671   1.553   1.209  0.4580 -0.0156 -0.3599
  209SOL     OW  833   1.480   0.540   2.814  0.7583  0.0777  0.0370
  209SOL    HW1  834   1.514   0.593   2.886  0.5956 -2.0862  0.8473
  209SOL    HW2  835   1.560   0.484   2.795 -0.3598  2.1761 -2.1133
  209SOL     MW  836   1.495   0.539   2.821  0.5893  0.0691 -0.1398
  210SOL     OW  837   1.583   1.400   0.872  0.1232  0.5437  0.1237
  210SOL    HW1  838   1.670   1.378   0.842  0.5273  0.7539  0.1938
  210SOL    HW2  839   1.522   1.394   0.802  0.6669  0.0591  1.7783
  210SOL     MW  840   1.586   1.396   0.858  0.2483  0.5075  0.3513
  211SOL     OW  841   1.712   0.483   0.937  0.4241  0.1195 -0.0067
  211SOL    HW1  842   1.696   0.469   0.845 -2.0829 -1.1085  1.8972
  211SOL    HW2  843   1.809   0.495   0.936 -2.6237 -1.2427 -1.4730
  211SOL     MW  844   1.722   0.483   0.925 -0.3088 -0.2222  0.0511
  212SOL     OW  845   0.243   1.108   0.077  0.4891  0.3837  0.0151
  212SOL    HW1  846   0.203   1.062   0.151 -1.5540  3.8872  1.6773
  212SOL    HW2  847   0.326   1.061   0.064  1.6737 -0.5290  2.4637
  212SOL     MW  848   0.249   1.096   0.085  0.3758  0.7255  0.5575
  213SOL     OW  849   0.445   1.674   3.093 -0.3649  0.0835  0.0549
  213SOL    HW1  850   0.503   1.723   3.149  0.3649 -1.8853  0.3060
  213SOL    HW2  851   0.469   1.702   3.005  0.3713 -1.0556 -3.8301
  213SOL     MW  852   0.456   1.684   3.089 -0.1715 -0.3266 -0.4246
  214SOL     OW  853   0.654   0.248   2.285 -0.0292 -0.5104 -0.3863
  214SOL    HW1  854   0.588   0.300   2.243 -1.2107 -0.8676 -1.7862
  214SOL    HW2  855   0.728   0.276   2.230  2.7220  1.9401 -1.2043
  214SOL     MW  856   0.655   0.259   2.272  0.1779 -0.2342 -0.6789
  215SOL     OW  857   0.477   0.751   2.615 -0.1768  0.0576 -0.5165
  215SOL    HW1  858   0.494   0.734   2.522 -0.9733 -3.9835  2.4322
  215SOL    HW2  859   0.400   0.699   2.632  0.3510  0.2540  0.0970
  215SOL     MW  860   0.469   0.742   2.605 -0.2122 -0.4497 -0.0465
  216SOL     OW  861   3.077   3.068   2.735  0.1092 -0.5011 -0.0775
  216SOL    HW1  862   3.013   3.009   2.785 -3.0129 -1.8656  1.9635
  216SOL    HW2  863   3.038   3.155   2.720 -1.5217  0.6569  0.7141
  216SOL     MW  864   3.063   3.072   2.740 -0.5179 -0.5284  0.2962
  217SOL     OW  865   0.966   1.206   3.095  0.0013  0.6672  0.2771
  217SOL    HW1  866   1.003   1.115   3.104 -3.3873 -1.3336 -0.2655
  217SOL    HW2  867   1.048   1.268   3.101  2.0742  1.5930  2.7506
  217SOL     MW  868   0.981   1.202   3.097 -0.1723  0.5254  0.5319
  218SOL     OW  869   0.906   1.325   2.494 -0.2926 -0.7403  0.1954
  218SOL    HW1  870   0.914   1.252   2.555 -0.1552 -4.1780  1.2223
  218SOL    HW2  871   0.992   1.357   2.458  3.3817 -2.5097  0.2042
  218SOL     MW  872   0.918   1.320   2.498  0.2103 -1.4274  0.3320
  219SOL     OW  873   1.032   0.445   2.493  0.0442  0.3152  0.5162
  219SOL    HW1  874   1.117   0.474   2.465  0.3819  0.6272 -0.4846
  219SOL    HW2  875   0.981   0.527   2.511  0.2794 -0.5929  2.7938
  219SOL     MW  876   1.036   0.459   2.491  0.1198  0.2366  0.6847
  220SOL     OW  877   1.756   0.501   2.220 -0.0820 -0.4373 -0.2010
  220SOL    HW1  878   1.676   0.544   2.199  0.3364 -0.0872  1.6145
  220SOL    HW2  879   1.786   0.436   2.150  1.8628 -1.4256 -1.1101
  220SOL     MW  880   1.749   0.498   2.208  0.2298 -0.5215 -0.0814
  221SOL     OW  881   0.405   1.381   2.899 -0.2616 -0.1295  0.2559
  221SOL    HW1  882   0.415   1.287   2.888  0.4066 -1.6247 -0.0431
  221SOL    HW2  883   0.409   1.427   2.816  1.9832 -1.5990 -4.3002
  221SOL     MW  884   0.407   1.375   2.887  0.1227 -0.5207 -0.3847
  222SOL     OW  885   0.307   0.965   2.634  0.3255 -0.0515  0.2781
  222SOL    HW1  886   0.258   0.971   2.548 -1.8496  2.3940 -1.9924
  222SOL    HW2  887   0.375   0.900   2.625 -1.5977  2.5835 -0.7590
  222SOL     MW  888   0.309   0.957   2.622 -0.2152  0.6188 -0.1583
  223SOL     OW  889  -0.002   2.007   2.601  0.0361  0.0788 -0.5346
  223SOL    HW1  890   0.087   1.961   2.630 -0.1370 -0.6701 -0.2162
  223SOL    HW2  891   0.021   2.052   2.516  0.9800  2.6669  4.6031
  223SOL     MW  892   0.013   2.007   2.594  0.1378  0.3215  0.1852
  224SOL     OW  893   1.473   0.827   2.612 -0.5332 -0.3350 -0.0269
  224SOL    HW1  894   1.442   0.837   2.698 -0.3765  1.9082 -0.1899
  224SOL    HW2  895   1.507   0.912   2.593  0.4129 -0.2762 -0.0302
  224SOL     MW  896   1.474   0.839   2.621 -0.3877 -0.0312 -0.0489
  225SOL     OW  897   2.927   1.487   2.246  0.5473 -0.0825  0.5057
  225SOL    HW1  898   2.959   1.564   2.196 -0.3531  0.9307 -1.7245
  225SOL    HW2  899   2.873   1.531   2.315  1.5900 -0.7412 -0.4386
  225SOL     MW  900   2.924   1.503   2.249  0.5661 -0.0357  0.0868
  226SOL     OW  901   0.383   1.473   2.627  0.2836 -0.5841 -0.0345
  226SOL    HW1  902   0.475   1.451   2.623 -2.3619 -2.2301  2.3339
  226SOL    HW2  903   0.375   1.566   2.620 -1.5408 -1.8795  2.2122
  226SOL     MW  904   0.394   1.482   2.625 -0.3062 -0.9722  0.5744
  227SOL     OW  905   0.441   1.106   2.844  0.6360 -0.5630 -0.7028
  227SOL    HW1  906   0.517   1.121   2.794 -0.1270  1.3899  0.8962
  227SOL    HW2  907   0.381   1.053   2.784 -1.0713 -3.0214 -2.3773
  227SOL     MW  908   0.443   1.101   2.829  0.3101 -0.6297 -0.7127
  228SOL     OW  909   0.686   0.992   1.979  0.0034  0.2737  0.2526
  228SOL    HW1  910   0.762   1.041   1.951 -2.7873 -1.6474  0.1997
  228SOL    HW2  911   0.706   0.958   2.071  0.6890  0.1472  1.1652
  228SOL     MW  912   0.699   0.994   1.988 -0.2743  0.0035  0.3660
  229SOL     OW  913   0.208   0.469   3.090 -0.5884  0.6351 -0.0256
  229SOL    HW1  914   0.125   0.468   3.040  0.5634 -2.9388  0.1422
  229SOL    HW2  915   0.195   0.422   3.177  0.7092  1.0448 -2.0277
  229SOL     MW  916   0.196   0.463   3.095 -0.2652  0.2176 -0.2676
  230SOL     OW  917   1.776   1.357   2.082 -0.0303  0.4661 -0.5052
  230SOL    HW1  918   1.751   1.370   2.174  1.4212  1.4919  0.6732
  230SOL    HW2  919   1.814   1.271   2.066 -1.3228  2.5271 -3.0799
  230SOL     MW  920   1.778   1.348   2.092 -0.0093  0.8734 -0.6894
  231SOL     OW  921   2.760   1.281   2.136 -0.3151  0.5611 -0.3659
  231SOL    HW1  922   2.818   1.353   2.155 -1.6469  1.6026  1.5548
  231SOL    HW2  923   2.686   1.304   2.079 -0.7226 -1.9222  2.1362
  231SOL     MW  924   2.758   1.293   2.131 -0.5446  0.3709  0.2176
  232SOL     OW  925   2.280   0.896   2.109 -0.3293 -0.3725  0.3187
  232SOL    HW1  926   2.216   0.935   2.049  0.7031 -0.8985 -0.2979
  232SOL    HW2  927   2.238   0.907   2.201  3.1737 -0.4221  1.4792
  232SOL     MW  928   2.266   0.902   2.113  0.2691 -0.4485  0.3905
  233SOL     OW  929   2.051   0.517   1.944 -0.0141  0.3858 -0.1357
  233SOL    HW1  930   2.089   0.567   1.868 -0.1676 -0.1784  3.0161
  233SOL    HW2  931   2.105   0.533   2.020 -0.3480  2.4065 -1.1695
  233SOL     MW  932   2.063   0.526   1.944 -0.0784  0.5779  0.1438
  234SOL     OW  933   0.282   0.987   2.331  0.0252 -0.3635 -0.4687
  234SOL    HW1  934   0.197   1.032   2.338 -1.1150  0.2085  0.7442
  234SOL    HW2  935   0.346   1.059   2.347  0.5212  0.7375 -0.7261
  234SOL     MW  936   0.279   1.002   2.334 -0.0598 -0.1427 -0.3426
  235SOL     OW  937   1.035   3.052   2.798  0.3324  0.0091 -0.0275
  235SOL    HW1  938   1.041   2.979   2.859  2.5631  2.1103 -0.4006
  235SOL    HW2  939   0.998   3.130   2.843  0.9808 -0.0068 -0.5259
  235SOL     MW  940   1.031   3.052   2.812  0.7123  0.2842 -0.1425
  236SOL     OW  941   2.930   0.511   0.031  0.2282 -0.1506  0.0254
  236SOL    HW1  942   2.848   0.534  -0.020 -0.8675  1.8443 -0.9881
  236SOL    HW2  943   2.981   0.596   0.054 -1.0875  1.5146 -0.5383
  236SOL     MW  944   2.926   0.525   0.027 -0.0900  0.3323 -0.1827
  237SOL     OW  945   1.747   0.877   2.176  0.0231 -0.0147  0.0280
  237SOL    HW1  946   1.788   0.961   2.136  1.8667  1.8547  2.3364
  237SOL    HW2  947   1.768   0.873   2.271 -0.2855  0.2422 -0.6415
  237SOL     MW  948   1.755   0.888   2.183  0.2256  0.2659  0.2442
  238SOL     OW  949   1.096   1.736   2.968 -0.5103 -0.0625 -0.3307
  238SOL    HW1  950   1.070   1.653   2.932 -0.3638  1.4459 -1.1343
  238SOL    HW2  951   1.194   1.745   2.952 -1.0484  0.7791 -0.8055
  238SOL     MW  952   1.106   1.727   2.961 -0.5620  0.2476 -0.4993
  239SOL     OW  953   1.153   1.403   2.316 -0.6015  0.2888 -0.3197
  239SOL    HW1  954   1.167   1.420   2.411 -2.1462  0.2355  1.0523
  239SOL    HW2  955   1.195   1.316   2.320  3.9078  0.6442  2.3438
  239SOL     MW  956   1.161   1.394   2.329 -0.2104  0.3286  0.2128
  240SOL     OW  957   0.634   0.884   2.277  0.2486 -0.1137 -0.2859
  240SOL    HW1  958   0.635   0.961   2.331  0.6563 -1.4065 -2.9515
  240SOL    HW2  959   0.731   0.874   2.270  3.7436  1.6194 -0.1421
  240SOL     MW  960   0.647   0.893   2.283  0.7635 -0.0556 -0.6186
  241SOL     OW  961   0.628   0.342   2.997 -0.1539 -0.2265  0.2047
  241SOL    HW1  962   0.653   0.369   3.088  0.8763 -0.7685 -0.1494
  241SOL    HW2  963   0.546   0.391   2.978  0.3998 -1.4228 -3.7309
  241SOL     MW  964   0.620   0.352   3.007  0.0551 -0.4558 -0.3613
  242SOL     OW  965   1.499   1.743   2.324  0.0834  0.5133 -0.3694
  242SOL    HW1  966   1.477   1.822   2.376  1.4003  1.4370  1.3248
  242SOL    HW2  967   1.433   1.740   2.255  0.6778 -0.8777  0.2020
  242SOL     MW  968   1.487   1.753   2.322  0.3355  0.4517 -0.0705
  243SOL     OW  969   0.937   0.213   2.340  0.1803  0.0879 -0.2953
  243SOL    HW1  970   1.027   0.194   2.352 -1.0639 -3.8137 -0.2642
  243SOL    HW2  971   0.924   0.294   2.383 -1.1719 -3.8742 -0.2774
  243SOL     MW  972   0.947   0.221   2.347 -0.1623 -0.9497 -0.2888
  244SOL     OW  973   0.198   0.712   2.307  0.0234  0.6363  0.4454
  244SOL    HW1  974   0.228   0.799   2.310 -0.5198 -2.6335 -0.3409
  244SOL    HW2  975   0.278   0.662   2.309  1.3002  0.3322 -1.7152
  244SOL     MW  976   0.213   0.717   2.308  0.1202  0.1647  0.0566
  245SOL     OW  977   1.227   0.188   2.330 -0.5379  0.9395  0.5169
  245SOL    HW1  978   1.245   0.096   2.355  0.9960 -0.3152  2.5526
  245SOL    HW2  979   1.234   0.238   2.412  0.8456  3.2572 -1.5926
  245SOL     MW  980   1.231   0.182   2.344 -0.1530  1.0798  0.5072
  246SOL     OW  981   1.229   1.156   2.098  1.2356  0.4433 -0.2838
  246SOL    HW1  982   1.178   1.105   2.165  0.7394 -1.4290  0.3947
  246SOL    HW2  983   1.316   1.176   2.136 -1.2034 -1.8895 -0.3558
  246SOL     MW  984   1.233   1.152   2.112  0.8483 -0.1115 -0.2038
  247SOL     OW  985   0.697   0.522   0.101  0.3592  0.2279  0.1344
  247SOL    HW1  986   0.668   0.611   0.083  0.5132  0.7075 -0.4230
  247SOL    HW2  987   0.795   0.526   0.104  0.0960 -1.4115 -2.2481
  247SOL     MW  988   0.706   0.534   0.099  0.3448  0.0749 -0.2535
  248SOL     OW  989   0.428   1.196   2.452  0.1694 -0.2119  0.7925
  248SOL    HW1  990   0.443   1.263   2.385  1.0152  1.4992  5.1696
  248SOL    HW2  991   0.375   1.232   2.517 -0.9171 -1.3013 -1.4733
  248SOL     MW  992   0.423   1.209   2.452  0.1376 -0.1299  1.0711
  249SOL     OW  993   0.190   1.847   2.719  0.3785  0.3040 -0.3051
  249SOL    HW1  994   0.157   1.771   2.668  0.6717  0.2353  0.1303
  249SOL    HW2  995   0.221   1.813   2.803 -0.2835  1.7887  0.9348
  249SOL     MW  996   0.190   1.833   2.724  0.3298  0.4908 -0.0841
  250SOL     OW  997   2.166   0.896   2.351 -0.2450 -0.2557 -0.3190
  250SOL    HW1  998   2.210   0.802   2.355  1.7140 -1.4873 -0.6581
  250SOL    HW2  999   2.217   0.944   2.422  0.4149 -2.9174  0.2189
  250SOL     MW 1000   2.178   0.890   2.361  0.1005 -0.7694 -0.2927
  251SOL     OW 1001   0.185   0.821   1.995  0.1553 -0.2889  0.5299
  251SOL    HW1 1002   0.164   0.759   2.059  0.6485 -2.2303 -3.7539
  251SOL    HW2 1003   0.158   0.784   1.909 -0.7072 -0.2254 -1.4204
  251SOL     MW 1004   0.179   0.808   1.992  0.1065 -0.5366 -0.2926
  252SOL     OW 1005   1.711   1.016   2.824 -0.3064  0.0242  0.1646
  252SOL    HW1 1006   1.719   1.095   2.872  0.8753  1.3730  0.4957
  252SOL    HW2 1007   1.767   1.022   2.748 -0.0914 -0.4605  1.3446
  252SOL     MW 1008   1.719   1.027   2.820 -0.1221  0.1382  0.3640
  253SOL     OW 1009   1.153   1.734   2.541  0.1745  0.0202 -0.1973
  253SOL    HW1 1010   1.152   1.774   2.452  1.8911  0.1582 -1.6735
  253SOL    HW2 1011   1.079   1.778   2.590  1.2829 -3.2197 -2.0587
  253SOL     MW 1012   1.143   1.745   2.536  0.5472 -0.3890 -0.6377
  254SOL     OW 1013   1.041   1.043   2.280  0.4387  0.8171 -0.8044
  254SOL    HW1 1014   1.005   0.954   2.265 -0.3926  0.5146 -1.1188
  254SOL    HW2 1015   0.970   1.100   2.300  2.1000 -0.2934 -0.9956
  254SOL     MW 1016   1.027   1.038   2.281  0.5482  0.6306 -0.8711
  255SOL     OW 1017   0.803   2.419   2.213  0.5834  0.4252 -0.1691
  255SOL    HW1 1018   0.707   2.407   2.214 -1.4216 -2.8324  1.9194
  255SOL    HW2 1019   0.832   2.427   2.307  0.8830  2.4955  0.2497
  255SOL     MW 1020   0.794   2.418   2.226  0.3584  0.2685  0.1617
  256SOL     OW 1021   1.152   2.823   2.911 -0.1659 -0.0609  0.1773
  256SOL    HW1 1022   1.167   2.737   2.946 -3.3112  1.7783  0.5153
  256SOL    HW2 1023   1.247   2.862   2.892  1.4936  0.6170 -2.4591
  256SOL     MW 1024   1.166   2.817   2.913 -0.3619  0.2712 -0.1260
  257SOL     OW 1025   0.122   1.860   0.093  0.3607  0.3121  0.7090
  257SOL    HW1 1026   0.137   1.816   0.178 -2.4283  1.5944 -2.4399
  257SOL    HW2 1027   0.149   1.794   0.028 -3.4700  0.7249  1.0245
  257SOL     MW 1028   0.128   1.845   0.096 -0.5127  0.5357  0.3352
  258SOL     OW 1029   0.681   1.081   2.450  0.3765  0.4981  0.5425
  258SOL    HW1 1030   0.724   1.131   2.383  0.7045 -0.1951 -0.6428
  258SOL    HW2 1031   0.589   1.127   2.449  0.0744  4.5930 -2.1282
  258SOL     MW 1032   0.674   1.094   2.441  0.3799  0.9470  0.0338
  259SOL     OW 1033   0.702   0.491   2.412  0.3051  0.3187 -0.5871
  259SOL    HW1 1034   0.611   0.523   2.422 -0.4058 -0.1448  1.2674
  259SOL    HW2 1035   0.693   0.395   2.389 -3.8415  0.7597  0.0437
  259SOL     MW 1036   0.689   0.483   2.410 -0.3358  0.3157 -0.2592
  260SOL     OW 1037   0.580   0.113   1.603  0.0995  0.0190  0.1425
  260SOL    HW1 1038   0.547   0.071   1.521 -2.3718  0.4741 -0.3701
  260SOL    HW2 1039   0.673   0.127   1.584 -0.5115 -0.5789  0.0287
  260SOL     MW 1040   0.588   0.109   1.589 -0.3072  0.0002  0.0598
  261SOL     OW 1041   1.135   0.689   2.115 -0.1672  0.9834 -0.6182
  261SOL    HW1 1042   1.169   0.671   2.205  1.4709  2.1547 -2.1950
  261SOL    HW2 1043   1.188   0.643   2.053  1.4344  1.2346 -0.2172
  261SOL     MW 1044   1.147   0.680   2.119  0.2602  1.1711 -0.7733
  262SOL     OW 1045   1.138   0.347   0.071  0.2527 -0.4583 -0.2475
  262SOL    HW1 1046   1.229   0.327   0.073 -0.6045 -1.6881  2.7548
  262SOL    HW2 1047   1.099   0.261   0.047  0.3368 -0.4530  1.7294
  262SOL     MW 1048   1.145   0.333   0.068  0.1507 -0.6198  0.4095
  263SOL     OW 1049   0.463   3.028   2.556 -0.1609 -0.0085 -0.2045
  263SOL    HW1 1050   0.385   3.084   2.553 -2.7227 -0.7292  0.2835
  263SOL    HW2 1051   0.511   3.030   2.474 -0.8865 -0.8672  0.4607
  263SOL     MW 1052   0.459   3.035   2.545 -0.5946 -0.2169 -0.0523
  264SOL     OW 1053   1.539   1.373   1.934 -0.0859 -0.4412 -0.0402
  264SOL    HW1 1054   1.477   1.347   2.000 -0.2024  1.0744 -1.3825
  264SOL    HW2 1055   1.620   1.363   1.988  0.5425 -2.0469 -0.5359
  264SOL     MW 1056   1.542   1.368   1.950 -0.0184 -0.4531 -0.2827
  265SOL     OW 1057   0.692   2.690   2.245 -0.0364 -0.9793  0.7644
  265SOL    HW1 1058   0.732   2.621   2.192 -1.2196 -4.5136 -1.8365
  265SOL    HW2 1059   0.723   2.683   2.335  2.1236 -1.0066 -3.3572
  265SOL     MW 1060   0.701   2.680   2.250  0.0925 -1.4492 -0.1226
  266SOL     OW 1061   0.885   0.807   2.218 -0.3602 -0.4052 -0.6151
  266SOL    HW1 1062   0.878   0.751   2.140 -1.7337  0.5190  1.0196
  266SOL    HW2 1063   0.891   0.736   2.286 -0.4344  1.4577  0.3675
  266SOL     MW 1064   0.885   0.790   2.217 -0.5512 -0.0375 -0.2697
  267SOL     OW 1065   1.385   1.786   2.693 -0.0074 -0.2539 -0.1581
  267SOL    HW1 1066   1.462   1.736   2.675  1.7390 -1.3005 -1.7181
  267SOL    HW2 1067   1.324   1.757   2.625 -2.3134 -1.2098 -1.4884
  267SOL     MW 1068   1.387   1.776   2.682 -0.0812 -0.5181 -0.5394
  268SOL     OW 1069   0.209   0.752   1.727  0.5468 -0.0767  0.3808
  268SOL    HW1 1070   0.144   0.808   1.683 -0.0775 -1.1547  0.0390
  268SOL    HW2 1071   0.221   0.671   1.680 -1.6863  5.3831 -0.4910
  268SOL     MW 1072   0.202   0.749   1.715  0.1698  0.5015  0.2207
  269SOL     OW 1073   1.414   1.969   2.458 -0.7656 -0.2773  0.4619
  269SOL    HW1 1074   1.446   2.014   2.537 -1.2536  0.8074  5.0492
  269SOL    HW2 1075   1.326   1.985   2.448 -0.9171  2.5148 -4.6899
  269SOL     MW 1076   1.406   1.977   2.467 -0.8500  0.2342  0.3874
  270SOL     OW 1077   1.147   0.422   1.586  0.1470 -0.2544 -0.4290
  270SOL    HW1 1078   1.128   0.331   1.619 -1.1751 -3.1737 -0.7651
  270SOL    HW2 1079   1.239   0.418   1.572 -0.7028  0.1790 -1.0504
  270SOL     MW 1080   1.157   0.409   1.588 -0.1396 -0.5824 -0.5554
  271SOL     OW 1081   0.829   3.058   2.392 -0.1859 -0.3822  0.3127
  271SOL    HW1 1082   0.880   3.018   2.462 -1.1457 -2.6600 -1.6667
  271SOL    HW2 1083   0.871   3.143   2.376  1.5584 -0.7675 -0.9141
  271SOL     MW 1084   0.841   3.064   2.399 -0.0824 -0.7336 -0.1103
  272SOL     OW 1085   1.391   2.926   2.848  0.4639 -0.7049  0.2040
  272SOL    HW1 1086   1.365   3.005   2.797 -0.0895  0.9652 -1.9573
  272SOL    HW2 1087   1.428   2.956   2.928  0.4386  0.8646 -0.6811
  272SOL     MW 1088   1.392   2.941   2.851  0.3875 -0.2775 -0.1980
  273SOL     OW 1089   1.430   0.948   2.878 -0.0763 -0.0667 -0.2482
  273SOL    HW1 1090   1.515   0.979   2.862 -0.5459 -1.1307  0.4706
  273SOL    HW2 1091   1.380   1.017   2.923  2.2489  1.8020 -0.0028
  273SOL     MW 1092   1.435   0.961   2.881  0.1685  0.0394 -0.1210
  274SOL     OW 1093   1.333   0.754   0.183  0.3488  0.0595  0.2540
  274SOL    HW1 1094   1.362   0.664   0.198  3.1617 -1.1749  0.8039
  274SOL    HW2 1095   1.241   0.752   0.215 -2.0674 -0.8745  0.1996
  274SOL     MW 1096   1.325   0.742   0.189  0.4012 -0.2266  0.3194
  275SOL     OW 1097   1.707   0.706   1.827  0.6423 -0.3768  0.5915
  275SOL    HW1 1098   1.773   0.749   1.886  0.0266 -0.8022  0.1376
  275SOL    HW2 1099   1.709   0.616   1.860  1.2679 -0.0847 -2.3973
  275SOL     MW 1100   1.716   0.700   1.839  0.6436 -0.3943  0.1373
  276SOL     OW 1101   0.228   1.203   1.796  0.0164  0.3486 -0.3125
  276SOL    HW1 1102   0.286   1.132   1.814 -0.2591  1.2904  1.7420
  276SOL    HW2 1103   0.168   1.196   1.871  1.6678  0.3416 -0.9177
  276SOL     MW 1104   0.228   1.193   1.808  0.1979  0.4719 -0.1213
  277SOL     OW 1105   1.932   1.357   2.627 -0.1269 -0.4072 -0.1359
  277SOL    HW1 1106   1.976   1.437   2.627  0.8245 -1.4592  1.0922
  277SOL    HW2 1107   1.996   1.290   2.647  0.1647  2.7878 -4.1061
  277SOL     MW 1108   1.946   1.358   2.629  0.0371 -0.1244 -0.4977
  278SOL     OW 1109   1.444   0.708   1.728 -0.2800  0.7916  0.0192
  278SOL    HW1 1110   1.406   0.638   1.785 -2.8138  1.6243 -0.6621
  278SOL    HW2 1111   1.530   0.718   1.776 -0.8768  2.1570  0.6786
  278SOL     MW 1112   1.450   0.700   1.742 -0.6930  1.0816  0.0163
  279SOL     OW 1113   0.568   3.073   2.234  0.0982  0.5166 -0.1865
  279SOL    HW1 1114   0.652   3.036   2.204 -0.6602  2.5436 -2.1133
  279SOL    HW2 1115   0.589   3.159   2.280 -5.8323  0.7068  1.8812
  279SOL     MW 1116   0.582   3.080   2.236 -0.7844  0.8091 -0.1679
  280SOL     OW 1117   1.500   1.155   2.209 -0.6218  0.1967 -0.4514
  280SOL    HW1 1118   1.498   1.078   2.152  0.2951  0.4855  0.0130
  280SOL    HW2 1119   1.487   1.120   2.298  4.0155  0.8370  3.9617
  280SOL     MW 1120   1.498   1.140   2.213  0.1110  0.3193  0.1922
  281SOL     OW 1121   1.278   1.376   2.822  0.2363 -0.5396 -0.5566
  281SOL    HW1 1122   1.371   1.408   2.817 -0.5906  0.7414 -2.2996
  281SOL    HW2 1123   1.273   1.291   2.865 -0.1561 -2.1599 -0.0422
  281SOL     MW 1124   1.289   1.369   2.827  0.0755 -0.5844 -0.7187
  282SOL     OW 1125   1.138   1.315   1.691 -0.0519 -0.2860 -0.2475
  282SOL    HW1 1126   1.112   1.380   1.620  1.3478  0.3078 -1.2298
  282SOL    HW2 1127   1.072   1.247   1.692 -0.0752  0.5785  0.7224
  282SOL     MW 1128   1.126   1.315   1.682  0.1297 -0.0936 -0.2491
  283SOL     OW 1129   0.702   1.260   3.053 -0.8598 -0.0489 -0.7903
  283SOL    HW1 1130   0.785   1.234   3.086 -0.0294  3.2850 -2.5181
  283SOL    HW2 1131   0.686   1.342   3.091  1.7344 -2.4503  0.0553
  283SOL     MW 1132   0.711   1.267   3.062 -0.4079  0.0741 -0.9067
  284SOL     OW 1133   0.454   0.629   2.348  0.2580  0.1904  0.2818
  284SOL    HW1 1134   0.513   0.685   2.299 -1.3563 -0.4658  0.6332
  284SOL    HW2 1135   0.462   0.562   2.278 -2.4606  1.4715  1.9337
  284SOL     MW 1136   0.463   0.628   2.333 -0.3137  0.2729  0.5461
  285SOL     OW 1137   0.860   0.983   2.873 -0.0419  0.2168  0.7126
  285SOL    HW1 1138   0.907   0.999   2.793  1.9104 -0.2628 -2.5781
  285SOL    HW2 1139   0.829   0.893   2.845  2.1220 -1.3288 -1.4679
  285SOL     MW 1140   0.862   0.973   2.859  0.5012 -0.0504 -0.0092
  286SOL     OW 1141   1.172   1.448   2.587  0.1269 -0.0430  0.3980
  286SOL    HW1 1142   1.211   1.432   2.672 -2.0048  2.3696 -1.2869
  286SOL    HW2 1143   1.161   1.543   2.573 -1.0068  0.8021  0.3477
  286SOL     MW 1144   1.176   1.458   2.597 -0.3039  0.3868  0.1691
  287SOL     OW 1145   1.039   0.939   0.356 -0.1679 -0.1223 -0.4595
  287SOL    HW1 1146   1.122   0.971   0.399 -1.6313  0.3472 -0.8535
  287SOL    HW2 1147   0.984   1.010   0.317 -0.2362 -1.9686  0.9021
  287SOL     MW 1148   1.043   0.952   0.356 -0.3700 -0.3040 -0.3319
  288SOL     OW 1149   1.521   0.650   2.119  0.8770  0.2454 -0.4015
  288SOL    HW1 1150   1.508   0.657   2.221 -0.5044  2.1586 -2.7156
  288SOL    HW2 1151   1.495   0.740   2.091 -3.7105 -1.1205 -1.8590
  288SOL     MW 1152   1.516   0.663   2.129  0.0894  0.3176 -0.8991
  289SOL     OW 1153   0.936   1.071   2.623  0.8464 -0.9202  0.3690
  289SOL    HW1 1154   0.991   1.002   2.592 -1.3974  1.7104 -1.5390
  289SOL    HW2 1155   0.847   1.061   2.587 -1.6722 -0.3338  0.4560
  289SOL     MW 1156   0.932   1.060   2.614  0.2181 -0.4957  0.1287
  290SOL     OW 1157   0.853   0.566   1.512  0.3023 -0.1682 -0.4573
  290SOL    HW1 1158   0.910   0.535   1.441  1.2523 -1.6086 -2.1152
  290SOL    HW2 1159   0.900   0.575   1.595 -0.4603 -1.4539  0.1588
  290SOL     MW 1160   0.867   0.563   1.513  0.3270 -0.5279 -0.5947
  291SOL     OW 1161   0.167   0.336   0.221  0.0815 -0.2647  0.0376
  291SOL    HW1 1162   0.238   0.278   0.251 -0.4026 -4.4632 -1.4333
  291SOL    HW2 1163   0.099   0.276   0.189 -1.7596  0.2604  0.6007
  291SOL     MW 1164   0.168   0.321   0.220 -0.2253 -0.7494 -0.0821
  292SOL     OW 1165   0.972   0.559   0.108  0.1382  0.1692  0.3622
  292SOL    HW1 1166   1.009   0.611   0.179  2.0367 -1.4071 -0.3866
  292SOL    HW2 1167   1.031   0.484   0.106 -1.9805  0.4805 -1.5989
  292SOL     MW 1168   0.985   0.556   0.117  0.1091  0.0023  0.0047
  293SOL     OW 1169   0.244   0.068   2.498  0.1417  0.4639  0.0388
  293SOL    HW1 1170   0.168   0.019   2.468 -1.2557  2.9861 -0.8247
  293SOL    HW2 1171   0.217   0.129   2.566 -1.0185  0.2383  2.2558
  293SOL     MW 1172   0.231   0.069   2.503 -0.1958  0.7669  0.2173
  294SOL     OW 1173   1.459   0.633   2.382  0.5091  0.4066 -0.2547
  294SOL    HW1 1174   1.476   0.678   2.473  3.8834  0.0400  2.6890
  294SOL    HW2 1175   1.481   0.536   2.394  0.7554  1.1745 -1.0414
  294SOL     MW 1176   1.464   0.626   2.396  0.9868  0.4595  0.0299
  295SOL     OW 1177   0.869   0.673   2.506  0.0324  0.3707  0.5376
  295SOL    HW1 1178   0.810   0.608   2.469  0.9083 -0.5332 -3.0420
  295SOL    HW2 1179   0.817   0.686   2.590  1.0611  0.4512  0.6622
  295SOL     MW 1180   0.854   0.666   2.512  0.2837  0.2620  0.0818
  296SOL     OW 1181   1.326   0.304   2.078 -0.2462 -0.5532 -0.0119
  296SOL    HW1 1182   1.422   0.281   2.086  4.4865  0.1121  0.5794
  296SOL    HW2 1183   1.286   0.287   2.165 -1.1990 -0.2600  1.7734
  296SOL     MW 1184   1.333   0.299   2.090  0.2525 -0.4268  0.3017
  297SOL     OW 1185   1.436   0.433   1.518 -0.2028  0.0760  0.4764
  297SOL    HW1 1186   1.477   0.520   1.514 -3.9842  0.0731 -1.5267
  297SOL    HW2 1187   1.492   0.375   1.571  0.5247 -1.0589  0.3991
  297SOL     MW 1188   1.449   0.437   1.525 -0.6058 -0.0741  0.2019
  298SOL     OW 1189   1.507   0.912   2.054 -0.4537 -0.2388 -0.3992
  298SOL    HW1 1190   1.537   0.939   1.966 -0.4035  1.3034  1.2437
  298SOL    HW2 1191   1.591   0.883   2.101  0.5830  1.0855 -0.0878
  298SOL     MW 1192   1.522   0.912   2.049 -0.3103  0.1394 -0.1413
  299SOL     OW 1193   0.518   1.073   3.105 -0.3909  0.4792  0.0674
  299SOL    HW1 1194   0.592   1.138   3.083  0.9269  4.7107 -0.7485
  299SOL    HW2 1195   0.475   1.070   3.015  2.5076  2.3082  0.4225
  299SOL     MW 1196   0.522   1.081   3.090  0.1654  1.2788  0.0066
  300SOL     OW 1197   1.258   1.150   2.516  0.4372 -0.0307 -0.0937
  300SOL    HW1 1198   1.227   1.063   2.486  3.2574  2.7730  0.6788
  300SOL    HW2 1199   1.201   1.195   2.577 -0.4088  0.7440  0.5339
  300SOL     MW 1200   1.246   1.144   2.520  0.6977  0.4414  0.0911
  301SOL     OW 1201   1.356   0.740   0.584  0.0975  0.5651  0.0286
  301SOL    HW1 1202   1.393   0.728   0.672  0.6826 -0.1796 -0.8076
  301SOL    HW2 1203   1.271   0.692   0.601 -1.0016  1.5660  2.0748
  301SOL     MW 1204   1.349   0.732   0.598  0.0297  0.5989  0.1882
  302SOL     OW 1205   0.124   1.466   1.980 -0.0327  0.3665  0.2287
  302SOL    HW1 1206   0.167   1.429   2.055 -2.6324 -0.2944  0.4230
  302SOL    HW2 1207   0.053   1.513   2.017 -0.0547 -2.0410  0.4685
  302SOL     MW 1208   0.121   1.468   1.995 -0.3786 -0.0384  0.2859
  303SOL     OW 1209   0.395   1.758   2.561 -0.2476  0.5053 -0.0861
  303SOL    HW1 1210   0.386   1.751   2.466 -0.8868 -3.6840  0.9968
  303SOL    HW2 1211   0.324   1.810   2.593  1.5639 -1.8575 -1.1108
  303SOL     MW 1212   0.384   1.764   2.553 -0.0929 -0.3592 -0.0784
  304SOL     OW 1213   0.589   2.089   2.419  0.8572 -0.2016  0.0360
  304SOL    HW1 1214   0.609   2.173   2.380  2.3132 -0.1203  2.3207
  304SOL    HW2 1215   0.667   2.041   2.406  1.3514  4.8124  1.3584
  304SOL     MW 1216   0.602   2.094   2.412  1.1145  0.4707  0.5119
  305SOL     OW 1217   1.129   0.552   0.540  0.1924 -0.1307  0.3135
  305SOL    HW1 1218   1.051   0.497   0.515 -1.6107 -1.5174 -1.6852
  305SOL    HW2 1219   1.205   0.493   0.553  0.1362 -2.3335  1.1913
  305SOL     MW 1220   1.129   0.537   0.539 -0.0529 -0.6043  0.1656
  306SOL     OW 1221   1.227   1.450   0.316  0.0190  0.5233  0.1010
  306SOL    HW1 1222   1.272   1.375   0.353  0.6037  0.0646  0.5607
  306SOL    HW2 1223   1.252   1.441   0.221 -1.1363 -0.6726  3.5103
  306SOL     MW 1224   1.236   1.439   0.309 -0.0563  0.3050  0.6115
  307SOL     OW 1225   1.313   0.550   1.944  0.0186 -0.5556  0.1623
  307SOL    HW1 1226   1.316   0.456   1.967  0.9190  1.0354 -5.0586
  307SOL    HW2 1227   1.378   0.597   1.998  0.1357 -0.6801 -0.8294
  307SOL     MW 1228   1.322   0.544   1.954  0.1529 -0.3621 -0.6574
  308SOL     OW 1229   2.120   0.643   2.669 -0.3369 -0.0545 -0.5850
  308SOL    HW1 1230   2.118   0.571   2.726 -1.2544  3.7746  1.6210
  308SOL    HW2 1231   2.180   0.689   2.726  1.2839  1.6845  1.4797
  308SOL     MW 1232   2.128   0.640   2.684 -0.2441  0.6801 -0.0215
  309SOL     OW 1233   0.593   0.514   0.436  0.5197 -0.4652 -0.1527
  309SOL    HW1 1234   0.610   0.429   0.471  1.5213  1.3794 -0.0357
  309SOL    HW2 1235   0.598   0.496   0.342  0.2606 -0.3931  0.2714
  309SOL     MW 1236   0.596   0.500   0.428  0.6176 -0.2123 -0.0813
  310SOL     OW 1237   0.456   0.494   1.926 -0.0778 -0.0472  0.0580
  310SOL    HW1 1238   0.514   0.428   1.872  1.9895 -0.0505  2.6321
  310SOL    HW2 1239   0.501   0.577   1.915  1.2773 -2.0636  2.2208
  310SOL     MW 1240   0.470   0.496   1.917  0.3737 -0.3137  0.6830
  311SOL     OW 1241   1.925   0.775   1.989  0.1582  0.0575 -0.3014
  311SOL    HW1 1242   1.878   0.796   2.076 -2.5410 -1.4933  0.6418
  311SOL    HW2 1243   1.971   0.694   1.993 -0.2912  0.9913 -0.0767
  311SOL     MW 1244   1.925   0.767   2.001 -0.2572 -0.0239 -0.1473
  312SOL     OW 1245   1.770   2.523   0.011  0.4388  0.3786  0.3190
  312SOL    HW1 1246   1.795   2.553   0.097 -0.5749 -3.7322  2.7734
  312SOL    HW2 1247   1.675   2.538   0.025  2.4997 -2.3346  1.1687
  312SOL     MW 1248   1.761   2.529   0.025  0.5769 -0.5217  0.7550
  313SOL     OW 1249   0.098   1.226   2.940 -0.1161 -0.4860 -0.4036
  313SOL    HW1 1250   0.174   1.191   2.983 -0.5886 -1.3741 -2.0984
  313SOL    HW2 1251   0.125   1.256   2.854 -0.8193  1.8863  0.4611
  313SOL     MW 1252   0.112   1.225   2.934 -0.2712 -0.2902 -0.5131
  314SOL     OW 1253   2.135   3.024   2.972 -0.1629 -0.7737  0.4094
  314SOL    HW1 1254   2.086   3.082   2.907  1.3272  0.9991  1.3639
  314SOL    HW2 1255   2.184   3.078   3.028 -0.5215 -0.4856 -0.2870
  314SOL     MW 1256   2.135   3.039   2.971 -0.0136 -0.5018  0.4434
  315SOL     OW 1257   1.554   1.951   3.036 -0.4976 -0.3167  0.3892
  315SOL    HW1 1258   1.484   2.010   3.061  1.7539 -2.7578 -0.3627
  315SOL    HW2 1259   1.596   1.996   2.956  2.2395  1.1962  0.2305
  315SOL     MW 1260   1.550   1.964   3.029  0.1606 -0.4391  0.2690
  316SOL     OW 1261   1.252   0.650   2.731  0.1442 -0.0782  0.0447
  316SOL    HW1 1262   1.342   0.618   2.732  1.8864 -1.4552  3.0915
  316SOL    HW2 1263   1.208   0.599   2.799 -2.6350 -0.5465  2.6893
  316SOL     MW 1264   1.258   0.639   2.740  0.0074 -0.3216  0.7956
  317SOL     OW 1265   0.663   1.428   2.621  0.5911 -0.0007  1.1673
  317SOL    HW1 1266   0.678   1.351   2.674 -1.9361 -2.1009 -1.0222
  317SOL    HW2 1267   0.719   1.427   2.552 -1.3059 -0.5087 -0.5755
  317SOL     MW 1268   0.672   1.417   2.619  0.0073 -0.3449  0.6485
  318SOL     OW 1269   1.319   0.342   2.901  0.4451 -0.0028 -0.3687
  318SOL    HW1 1270   1.226   0.379   2.882 -0.5355  2.4978 -1.9944
  318SOL    HW2 1271   1.373   0.415   2.875 -0.5043  1.4770 -1.6334
  318SOL     MW 1272   1.314   0.356   2.895  0.1904  0.5224 -0.7501
  319SOL     OW 1273   0.819   0.427   2.790 -0.5058  0.2732  0.8692
  319SOL    HW1 1274   0.802   0.363   2.718 -0.4178  0.5203 -1.9079
  319SOL    HW2 1275   0.761   0.400   2.862 -0.7827 -0.1853  0.6168
  319SOL     MW 1276   0.809   0.415   2.790 -0.5307  0.2453  0.4695
  320SOL     OW 1277   1.024   1.340   2.039  0.3006 -0.1348  1.0405
  320SOL    HW1 1278   1.110   1.293   2.066  2.4106  0.2934  1.4091
  320SOL    HW2 1279   1.063   1.394   1.966 -1.3523 -0.0979  1.9366
  320SOL     MW 1280   1.040   1.341   2.033  0.3609 -0.0735  1.2074
  321SOL     OW 1281   1.093   0.955   3.022 -0.4657 -0.3275 -0.0268
  321SOL    HW1 1282   1.010   0.957   2.968 -2.5124  2.0001  0.4724
  321SOL    HW2 1283   1.149   0.884   2.990 -1.9605 -1.0592  0.2761
  321SOL     MW 1284   1.089   0.946   3.011 -0.9329 -0.1169  0.0790
  322SOL     OW 1285   1.194   0.823   1.728  0.5436  0.3260 -0.0226
  322SOL    HW1 1286   1.288   0.796   1.727  2.1144  0.6461  0.0663
  322SOL    HW2 1287   1.165   0.855   1.815 -2.5597  0.2619 -1.2383
  322SOL     MW 1288   1.203   0.824   1.739  0.3414  0.3598 -0.1712
  323SOL     OW 1289   1.164   1.494   1.890 -0.2248  0.5525 -0.3599
  323SOL    HW1 1290   1.170   1.425   1.827  0.8738  3.6559  3.2736
  323SOL    HW2 1291   1.094   1.557   1.861 -0.8324  1.1266 -1.0240
  323SOL     MW 1292   1.156   1.493   1.878 -0.1600  1.0377  0.0319
  324SOL     OW 1293   1.519   1.089   2.495 -0.2841 -0.2379  0.0961
  324SOL    HW1 1294   1.430   1.126   2.508  2.0465 -1.4763  0.3822
  324SOL    HW2 1295   1.584   1.126   2.557 -2.7437 -2.0008 -2.1399
  324SOL     MW 1296   1.516   1.099   2.504 -0.3011 -0.6339 -0.1612
  325SOL     OW 1297   1.095   0.498   2.879  0.3365  0.0175 -0.0160
  325SOL    HW1 1298   1.073   0.525   2.968  3.7413  0.6303 -1.4953
  325SOL    HW2 1299   1.013   0.459   2.852 -1.1018  0.2655  0.5920
  325SOL     MW 1300   1.081   0.496   2.887  0.5960  0.1310 -0.1310
  326SOL     OW 1301   0.428   1.329   2.219  0.1678 -0.1770 -0.0046
  326SOL    HW1 1302   0.487   1.306   2.145  1.4530  0.2325  1.5417
  326SOL    HW2 1303   0.458   1.416   2.237  1.3141 -1.3382 -0.0993
  326SOL     MW 1304   0.440   1.337   2.211  0.4886 -0.2762  0.1870
  327SOL     OW 1305   1.892   0.889   2.420 -0.0781  0.8919 -0.2266
  327SOL    HW1 1306   1.880   0.837   2.496  2.4871  1.0529 -0.4232
  327SOL    HW2 1307   1.989   0.888   2.405  1.6098  2.2761 -1.8035
  327SOL     MW 1308   1.903   0.882   2.428  0.4831  1.0958 -0.4606
  328SOL     OW 1309   0.134   1.298   2.213  0.2425 -1.0108  0.1352
  328SOL    HW1 1310   0.115   1.219   2.160  1.6156 -1.2158  2.1401
  328SOL    HW2 1311   0.227   1.299   2.222 -0.4084  0.6402  1.8808
  328SOL     MW 1312   0.144   1.288   2.207  0.3378 -0.8200  0.6300
  329SOL     OW 1313   0.139   0.177   1.378  0.0266 -0.1347  0.3294
  329SOL    HW1 1314   0.086   0.213   1.439  3.5352  1.0671 -0.6082
  329SOL    HW2 1315   0.217   0.231   1.370 -0.9572 -3.1740 -0.7595
  329SOL     MW 1316   0.142   0.189   1.385  0.3597 -0.3772  0.0620
  330SOL     OW 1317   0.391   2.972   2.048 -0.3532 -0.3719 -0.2007
  330SOL    HW1 1318   0.453   3.011   2.112 -1.6463  0.6299 -2.1569
  330SOL    HW2 1319   0.310   2.966   2.091  3.3165  3.2098 -0.7353
  330SOL     MW 1320   0.389   2.977   2.062 -0.0396  0.2328 -0.5293
  331SOL     OW 1321   0.824   1.216   2.279  0.1237  0.7178 -0.1672
  331SOL    HW1 1322   0.831   1.281   2.216 -1.3452 -0.7395  1.3368
  331SOL    HW2 1323   0.834   1.269   2.361 -0.5492  1.8765 -0.5925
  331SOL     MW 1324   0.826   1.232   2.281 -0.1589  0.6784 -0.0249
  332SOL     OW 1325   1.353   1.779   2.976 -0.1034  0.1432  0.2865
  332SOL    HW1 1326   1.366   1.772   2.879  0.7976 -1.3962  1.1323
  332SOL    HW2 1327   1.419   1.842   3.003  0.2428  0.9601  2.4538
  332SOL     MW 1328   1.364   1.786   2.967  0.0612  0.0479  0.6841
  333SOL     OW 1329   1.710   1.484   3.000  0.2135 -0.5144 -0.1915
  333SOL    HW1 1330   1.795   1.508   3.037  1.2085  0.1067  2.2219
  333SOL    HW2 1331   1.681   1.418   3.061 -0.6464 -1.6971 -2.5795
  333SOL     MW 1332   1.718   1.479   3.013  0.2313 -0.5885 -0.1882
  334SOL     OW 1333   1.253   3.084   2.635  0.4690 -0.2380  0.2855
  334SOL    HW1 1334   1.171   3.091   2.684  2.1744 -0.8218 -3.0368
  334SOL    HW2 1335   1.305   3.169   2.644  3.3640 -0.3313 -0.1993
  334SOL     MW 1336   1.249   3.096   2.643  1.0760 -0.3273 -0.2168
  335SOL     OW 1337   1.263   0.736   2.995  0.2183  0.3117  0.7700
  335SOL    HW1 1338   1.290   0.738   3.089 -0.7642  1.3255  3.0868
  335SOL    HW2 1339   1.329   0.785   2.954  0.7070 -1.5376  0.1540
  335SOL     MW 1340   1.275   0.743   3.002  0.1531  0.2015  0.9944
  336SOL     OW 1341   0.910   1.136   1.893  0.1044 -0.6383  0.7013
  336SOL    HW1 1342   0.942   1.211   1.938  1.9667 -0.4200 -2.7054
  336SOL    HW2 1343   0.976   1.065   1.892  2.5239 -0.1539 -0.9328
  336SOL     MW 1344   0.923   1.136   1.899  0.6693 -0.5455  0.0362
  337SOL     OW 1345   0.527   1.772   2.837 -0.0125  0.0246 -0.0048
  337SOL    HW1 1346   0.516   1.813   2.756  1.0006 -0.5911  1.4808
  337SOL    HW2 1347   0.594   1.698   2.822 -3.6603 -1.8989 -1.1491
  337SOL     MW 1348   0.535   1.768   2.824 -0.3601 -0.3104  0.0403
  338SOL     OW 1349   1.109   0.826   2.543  0.4718  0.4207  0.1403
  338SOL    HW1 1350   1.028   0.774   2.542  2.8761 -0.7533  2.9946
  338SOL    HW2 1351   1.147   0.798   2.623  0.8661  0.2536  1.3607
  338SOL     MW 1352   1.104   0.816   2.553  0.8410  0.2437  0.6779
  339SOL     OW 1353   1.575   1.068   1.837  0.4645 -0.5612 -0.2041
  339SOL    HW1 1354   1.490   1.089   1.794  2.1096  0.0585  0.2588
  339SOL    HW2 1355   1.600   1.148   1.881  0.5233  0.3579  2.7795
  339SOL     MW 1356   1.567   1.081   1.838  0.6893 -0.3582  0.2506
  340SOL     OW 1357   1.343   1.594   0.111  0.0758 -0.2811  0.2548
  340SOL    HW1 1358   1.360   1.628   0.021  4.0470 -0.0586 -1.6489
  340SOL    HW2 1359   1.425   1.595   0.155 -0.6832 -2.3389  1.3097
  340SOL     MW 1360   1.356   1.598   0.105  0.4996 -0.5232  0.1428
  341SOL     OW 1361   0.149   1.308   2.691 -0.3313 -0.3863  0.5671
  341SOL    HW1 1362   0.222   1.366   2.681 -0.0316  1.0440 -0.6321
  341SOL    HW2 1363   0.080   1.311   2.619 -1.4746  0.7154 -1.0790
  341SOL     MW 1364   0.149   1.316   2.680 -0.4426 -0.0522  0.1917
  342SOL     OW 1365   1.416   0.333   0.063  0.2062  0.1634  0.3633
  342SOL    HW1 1366   1.455   0.393   0.131  1.5859 -0.7557 -0.5931
  342SOL    HW2 1367   1.405   0.383  -0.022  0.1798  1.7189 -0.2785
  342SOL     MW 1368   1.420   0.347   0.061  0.3848  0.2474  0.1525
  343SOL     OW 1369   0.203   0.282   2.310 -0.1356 -0.1727 -0.2378
  343SOL    HW1 1370   0.240   0.213   2.369  0.4335  1.2916 -0.7601
  343SOL    HW2 1371   0.168   0.235   2.228 -0.8288 -3.2087  1.9008
  343SOL     MW 1372   0.203   0.267   2.307 -0.1520 -0.3801 -0.0245
  344SOL     OW 1373   1.704   2.094   0.192  0.1134 -0.4908  0.3722
  344SOL    HW1 1374   1.709   2.122   0.103 -0.6811 -0.5432  0.0890
  344SOL    HW2 1375   1.626   2.035   0.199 -4.0975 -1.3890 -0.2619
  344SOL     MW 1376   1.694   2.090   0.181 -0.5470 -0.6162  0.2512
  345SOL     OW 1377   0.669   1.613   2.346 -0.0447  0.0094 -0.0159
  345SOL    HW1 1378   0.577   1.625   2.315  0.2186 -1.8529  0.2894
  345SOL    HW2 1379   0.708   1.544   2.290 -0.8057 -1.0038  0.5866
  345SOL     MW 1380   0.662   1.605   2.335 -0.1104 -0.3700  0.1039
  346SOL     OW 1381   1.673   1.079   0.021  0.0227  0.1569 -0.2576
  346SOL    HW1 1382   1.759   1.042   0.016 -0.2790 -3.0564  0.7488
  346SOL    HW2 1383   1.624   1.012   0.063  0.6476  1.6591 -2.4266
  346SOL     MW 1384   1.678   1.065   0.026  0.0653 -0.0689 -0.4110
  347SOL     OW 1385   1.193   0.631   2.365  0.0273  0.7175 -0.2493
  347SOL    HW1 1386   1.295   0.637   2.372 -1.0905  1.9649  1.6752
  347SOL    HW2 1387   1.158   0.706   2.417 -2.2972  1.2244  0.8009
  347SOL     MW 1388   1.202   0.641   2.373 -0.4269  0.9489  0.1432
  348SOL     OW 1389   1.337   2.616   1.896 -0.3146 -0.1778 -0.0921
  348SOL    HW1 1390   1.365   2.537   1.937 -0.4240 -1.3488 -2.3252
  348SOL    HW2 1391   1.381   2.686   1.937 -3.1917 -1.9134  0.9266
  348SOL     MW 1392   1.346   2.615   1.907 -0.7086 -0.5613 -0.2523
  349SOL     OW 1393   1.378   0.214   2.660 -0.3162 -0.1510  0.0184
  349SOL    HW1 1394   1.365   0.268   2.741  2.8878  1.4260  0.4233
  349SOL    HW2 1395   1.471   0.184   2.673  1.3672  3.3538 -0.2529
  349SOL     MW 1396   1.388   0.217   2.672  0.3286  0.5195  0.0360
  350SOL     OW 1397   1.833   0.689   2.625 -0.0849 -0.6124  0.2448
  350SOL    HW1 1398   1.794   0.620   2.565  0.4468 -2.3314  1.1194
  350SOL    HW2 1399   1.917   0.651   2.643  1.4513 -0.0851 -2.1803
  350SOL     MW 1400   1.839   0.675   2.619  0.1879 -0.7696  0.0402
  351SOL     OW 1401   0.032   0.942   1.609  0.5969 -0.0498  0.3428
  351SOL    HW1 1402  -0.026   0.990   1.667  0.3820 -1.2687  1.0100
  351SOL    HW2 1403   0.093   1.009   1.579  0.7782  0.6358 -0.4690
  351SOL     MW 1404   0.032   0.957   1.613  0.5925 -0.1202  0.3237
  352SOL     OW 1405   0.731   1.633   2.774 -0.6705  0.4666 -0.0394
  352SOL    HW1 1406   0.781   1.583   2.841  2.3542 -1.2244  2.1279
  352SOL    HW2 1407   0.714   1.562   2.707 -1.7451  0.1986  0.1688
  352SOL     MW 1408   0.735   1.617   2.774 -0.4132  0.2082  0.2740
  353SOL     OW 1409   2.998   2.416   2.744 -0.0981  0.0031 -0.9467
  353SOL    HW1 1410   3.091   2.398   2.720  1.0876  0.3240 -1.6305
  353SOL    HW2 1411   2.972   2.482   2.680 -0.3969  2.1667  0.6499
  353SOL     MW 1412   3.007   2.422   2.733  0.0189  0.3309 -0.8263
  354SOL     OW 1413   0.412   2.383   0.859  0.2842  0.0582  0.1969
  354SOL    HW1 1414   0.415   2.388   0.953  0.2201 -0.4533 -2.0577
  354SOL    HW2 1415   0.332   2.328   0.845  1.0208 -0.5233  0.7621
  354SOL     MW 1416   0.402   2.376   0.870  0.3730 -0.0860 -0.0260
  355SOL     OW 1417   0.071   2.202   0.375 -0.2081 -0.4105  0.1126
  355SOL    HW1 1418  -0.020   2.169   0.373 -1.3940 -2.9566  0.7603
  355SOL    HW2 1419   0.073   2.262   0.445  1.2070 -0.9381 -0.7024
  355SOL     MW 1420   0.059   2.206   0.384 -0.1779 -0.8161  0.0906
  356SOL     OW 1421   0.835   2.956   1.023  0.7255  0.0320 -0.0839
  356SOL    HW1 1422   0.885   2.941   0.938  2.5270  0.8381 -1.6470
  356SOL    HW2 1423   0.756   2.900   1.009  2.0825  0.9263 -0.2643
  356SOL     MW 1424   0.831   2.947   1.010  1.1422  0.2563 -0.3140
  357SOL     OW 1425   1.780   2.908   0.360 -0.2412 -0.5858  0.2514
  357SOL    HW1 1426   1.724   2.862   0.419  2.0866  0.9729 -1.5716
  357SOL    HW2 1427   1.863   2.865   0.340  1.1639 -1.2888  0.5415
  357SOL     MW 1428   1.784   2.896   0.365  0.2513 -0.4729  0.0492
  358SOL     OW 1429   0.395   0.156   1.016  0.2220 -0.0377 -0.0358
  358SOL    HW1 1430   0.480   0.163   0.979  1.8794  0.3570 -0.5205
  358SOL    HW2 1431   0.334   0.190   0.954  0.6326 -1.7622  0.7529
  358SOL     MW 1432   0.398   0.162   1.003  0.4949 -0.2131  0.0043
  359SOL     OW 1433   0.974   2.816   1.832 -0.4933  0.3646 -0.2171
  359SOL    HW1 1434   0.949   2.720   1.842  3.7365  0.7854 -0.7316
  359SOL    HW2 1435   0.989   2.837   1.739  2.1157  1.3835  0.5028
  359SOL     MW 1436   0.972   2.806   1.821  0.4090  0.5545 -0.1900
  360SOL     OW 1437   0.616   2.787   0.969 -0.3788 -0.2657  1.1846
  360SOL    HW1 1438   0.627   2.759   0.878  0.1623 -2.9668  1.7052
  360SOL    HW2 1439   0.615   2.713   1.034 -0.9633  0.5061 -0.8074
  360SOL     MW 1440   0.617   2.774   0.966 -0.3846 -0.5202  0.9905
  361SOL     OW 1441   0.170   2.741   1.373  0.3713 -0.5648  0.0928
  361SOL    HW1 1442   0.175   2.825   1.412  4.5706 -1.8775  0.1736
  361SOL    HW2 1443   0.262   2.721   1.360 -2.0327  0.1956  1.2946
  361SOL     MW 1444   0.183   2.749   1.376  0.6082 -0.6376  0.2620
  362SOL     OW 1445   1.500   2.439   0.593  0.0814 -0.0546  0.1602
  362SOL    HW1 1446   1.515   2.354   0.630  2.2738  0.8344 -1.2633
  362SOL    HW2 1447   1.503   2.495   0.669 -2.3644 -0.7808 -1.9318
  362SOL     MW 1448   1.502   2.436   0.608  0.0480 -0.0331 -0.3036
  363SOL     OW 1449   0.231   3.041   0.749  0.2231  0.0401 -0.1312
  363SOL    HW1 1450   0.214   3.006   0.840  0.1987 -0.2711  1.0365
  363SOL    HW2 1451   0.149   3.066   0.707 -0.3321  0.1698 -0.9161
  363SOL     MW 1452   0.218   3.039   0.756  0.1466  0.0161 -0.0807
  364SOL     OW 1453   0.696   0.175   0.163 -0.6293 -0.0729  0.4731
  364SOL    HW1 1454   0.649   0.089   0.167 -2.3700 -1.3339 -0.9311
  364SOL    HW2 1455   0.639   0.245   0.190 -3.7862  1.5607  0.9031
  364SOL     MW 1456   0.682   0.173   0.167 -1.2755 -0.0237  0.3445
  365SOL     OW 1457   0.962   1.964   1.126 -0.7369 -0.0465 -0.6017
  365SOL    HW1 1458   0.949   2.042   1.074 -0.4523  0.8628 -2.1371
  365SOL    HW2 1459   0.924   1.899   1.072  1.9412  1.0720  0.3349
  365SOL     MW 1460   0.956   1.966   1.112 -0.3460  0.2210 -0.6807
  366SOL     OW 1461   2.866   2.670   0.990  0.0763 -0.1095 -0.4319
  366SOL    HW1 1462   2.949   2.678   1.045 -1.2174 -1.2278 -3.1155
  366SOL    HW2 1463   2.894   2.674   0.902 -1.3938 -1.3060  0.2013
  366SOL     MW 1464   2.881   2.672   0.986 -0.2883 -0.4149 -0.7024
  367SOL     OW 1465   1.275   2.864   0.868 -0.2468 -0.7578 -0.0754
  367SOL    HW1 1466   1.197   2.914   0.908 -0.5475  0.5910  2.8031
  367SOL    HW2 1467   1.241   2.818   0.783 -1.1047  0.1683  0.2992
  367SOL     MW 1468   1.260   2.864   0.862 -0.3996 -0.4576  0.3538
  368SOL     OW 1469   1.671   0.454   0.652 -0.3493  0.1605  0.1888
  368SOL    HW1 1470   1.755   0.412   0.653  0.0678  1.7745 -0.2342
  368SOL    HW2 1471   1.676   0.549   0.669  0.0753  2.5309  0.1551
  368SOL     MW 1472   1.683   0.461   0.655 -0.2383  0.6862  0.1286
  369SOL     OW 1473   0.136   2.486   1.733 -0.2411 -0.4437 -0.0632
  369SOL    HW1 1474   0.225   2.448   1.749 -1.5552 -0.2245  0.1449
  369SOL    HW2 1475   0.134   2.568   1.774  1.7523 -4.1780 -0.0027
  369SOL     MW 1476   0.148   2.492   1.741 -0.1515 -0.9075 -0.0278
  370SOL     OW 1477   0.664   0.106   0.964  0.2656  0.1021  0.2598
  370SOL    HW1 1478   0.722   0.183   0.969  0.3683 -0.1284  0.7864
  370SOL    HW2 1479   0.703   0.032   1.012  0.2255 -0.2411  1.7922
  370SOL     MW 1480   0.677   0.107   0.971  0.2738  0.0264  0.5315
  371SOL     OW 1481   1.316   2.979   1.508 -0.0429  0.1088 -0.3180
  371SOL    HW1 1482   1.265   2.923   1.450 -1.6879 -1.9837 -1.5438
  371SOL    HW2 1483   1.336   3.060   1.452 -1.4414  1.5993  1.2613
  371SOL     MW 1484   1.312   2.982   1.493 -0.4445  0.0294 -0.2714
  372SOL     OW 1485   0.827   2.265   0.506 -0.1991  0.4425 -0.6062
  372SOL    HW1 1486   0.792   2.172   0.518  0.3042 -1.2948 -0.4262
  372SOL    HW2 1487   0.832   2.294   0.410 -0.0568 -1.4464 -1.2925
  372SOL     MW 1488   0.823   2.257   0.495 -0.1139 -0.0360 -0.6730
  373SOL     OW 1489   2.864   3.030   1.429  0.7717 -0.4273  0.1755
  373SOL    HW1 1490   2.909   3.002   1.348 -0.8234  0.3893  0.5964
  373SOL    HW2 1491   2.812   3.104   1.391 -1.2952  0.5983  1.3365
  373SOL     MW 1492   2.863   3.036   1.413  0.2885 -0.1842  0.3842
  374SOL     OW 1493   1.493   0.515   0.248 -0.0312  0.2089  0.5795
  374SOL    HW1 1494   1.586   0.531   0.253  3.1987  0.8536 -2.8622
  374SOL    HW2 1495   1.453   0.484   0.331 -1.3254  2.1240 -0.5120
  374SOL     MW 1496   1.500   0.513   0.259  0.2242  0.5466 -0.0186
  375SOL     OW 1497   1.155   2.101   2.268 -0.1697  0.0626  0.3692
  375SOL    HW1 1498   1.145   2.123   2.366 -0.5464  0.2110  0.4379
  375SOL    HW2 1499   1.122   2.009   2.258  1.9123 -0.9051  0.6251
  375SOL     MW 1500   1.149   2.091   2.280  0.0553 -0.0455  0.4120
  376SOL     OW 1501   0.646   2.545   0.128 -0.1786  0.0504 -0.4976
  376SOL    HW1 1502   0.615   2.485   0.193  1.8326 -2.3660  2.0046
  376SOL    HW2 1503   0.600   2.515   0.049 -1.7690  0.4137  0.6674
  376SOL     MW 1504   0.636   2.533   0.126 -0.1231 -0.2205 -0.0138
  377SOL     OW 1505   1.229   2.030   0.900  0.8028 -0.0770 -0.2907
  377SOL    HW1 1506   1.160   2.013   0.833  0.4859  0.4415  0.6411
  377SOL    HW2 1507   1.229   1.952   0.962  0.6649 -0.8265  0.3282
  377SOL     MW 1508   1.220   2.017   0.899  0.7428 -0.1075 -0.0861
  378SOL     OW 1509   0.985   2.808   1.538  0.6177 -0.2741  0.5776
  378SOL    HW1 1510   0.909   2.739   1.544 -0.1370 -0.8704 -1.4627
  378SOL    HW2 1511   0.949   2.874   1.479 -1.4200  0.6909  2.3364
  378SOL     MW 1512   0.970   2.807   1.531  0.2493 -0.2254  0.5405
  379SOL     OW 1513   1.075   1.841   2.283  0.3914 -0.3100 -0.3774
  379SOL    HW1 1514   0.983   1.851   2.311  0.1138  1.3891  2.1515
  379SOL    HW2 1515   1.091   1.767   2.218 -0.4360 -2.2413 -1.2249
  379SOL     MW 1516   1.065   1.832   2.278  0.2456 -0.3407 -0.1555
  380SOL     OW 1517   0.890   0.206   1.524 -0.4539 -0.4095 -0.5841
  380SOL    HW1 1518   0.899   0.161   1.437  1.1336 -0.5994  0.8123
  380SOL    HW2 1519   0.960   0.167   1.586  1.2841 -1.0199  0.0661
  380SOL     MW 1520   0.901   0.195   1.521 -0.0152 -0.5151 -0.3141
  381SOL     OW 1521   0.814   2.011   0.800 -0.5431 -0.0952  0.0197
  381SOL    HW1 1522   0.906   1.992   0.770 -1.1452 -0.1661  1.2936
  381SOL    HW2 1523   0.825   2.082   0.868 -0.5985 -1.0234 -0.6131
  381SOL     MW 1524   0.828   2.018   0.805 -0.6298 -0.2270  0.1043
  382SOL     OW 1525   0.736   0.011   0.709  0.9062 -0.0427  0.2223
  382SOL    HW1 1526   0.703   0.041   0.796 -2.7832  0.4295 -0.4456
  382SOL    HW2 1527   0.683  -0.067   0.691 -0.0491 -1.4965 -3.1263
  382SOL     MW 1528   0.725   0.004   0.718  0.2934 -0.1722 -0.3076
  383SOL     OW 1529   0.481   0.042   0.379 -0.1991  0.6667  0.0795
  383SOL    HW1 1530   0.553  -0.022   0.350 -0.5716 -1.2352  0.2628
  383SOL    HW2 1531   0.401  -0.005   0.382  1.0537 -0.0360  0.5289
  383SOL     MW 1532   0.480   0.028   0.375 -0.0829  0.3230  0.1630
  384SOL     OW 1533   0.587   2.887   0.581  0.1559  0.0172  0.4506
  384SOL    HW1 1534   0.614   2.807   0.623  0.1412  2.0848 -2.9109
  384SOL    HW2 1535   0.493   2.881   0.573 -1.0165 -0.9864 -1.1849
  384SOL     MW 1536   0.579   2.875   0.585 -0.0007  0.1576 -0.2087
  385SOL     OW 1537   1.320   2.079   1.559 -0.1590 -0.1491  0.0891
  385SOL    HW1 1538   1.374   2.098   1.642  2.0073 -1.1597  1.4601
  385SOL    HW2 1539   1.278   1.992   1.589  0.2851 -0.5804  0.5447
  385SOL     MW 1540   1.321   2.070   1.574  0.1855 -0.3394  0.3301
  386SOL     OW 1541   1.371   0.419   0.904 -0.3927 -0.4122 -0.5766
  386SOL    HW1 1542   1.291   0.365   0.897 -0.3765  1.4878 -0.9570
  386SOL    HW2 1543   1.372   0.427   1.002  2.5864 -3.8805  0.0341
  386SOL     MW 1544   1.361   0.413   0.916  0.0025 -0.6191 -0.5462
  387SOL     OW 1545   0.844   2.184   1.498 -0.2331  0.2688 -0.8593
  387SOL    HW1 1546   0.914   2.228   1.461 -0.3444 -2.5665  0.5609
  387SOL    HW2 1547   0.868   2.088   1.496 -1.0901  1.6194 -0.0800
  387SOL     MW 1548   0.856   2.177   1.493 -0.3609  0.0729 -0.5691
  388SOL     OW 1549   1.507   2.800   1.213 -0.4330  0.0854 -0.3740
  388SOL    HW1 1550   1.427   2.754   1.189 -0.1459 -0.3975  1.1390
  388SOL    HW2 1551   1.561   2.763   1.148 -2.1231 -0.1609  0.0309
  388SOL     MW 1552   1.503   2.789   1.201 -0.6181 -0.0108 -0.1210
  389SOL     OW 1553   0.374   0.191   3.089  0.3433 -0.2460  0.3691
  389SOL    HW1 1554   0.434   0.163   3.023  0.8515  0.2293  0.5055
  389SOL    HW2 1555   0.291   0.156   3.066 -3.0036  0.0706 -1.9345
  389SOL     MW 1556   0.371   0.183   3.077 -0.0313 -0.1415  0.0831
  390SOL     OW 1557   1.348   0.054   0.607  0.0039 -0.5504  0.4026
  390SOL    HW1 1558   1.428   0.097   0.580 -0.7327  1.5556  1.7459
  390SOL    HW2 1559   1.348   0.050   0.705  1.9133  0.5085  0.7265
  390SOL     MW 1560   1.359   0.059   0.616  0.1586 -0.1328  0.6226
  391SOL     OW 1561   0.299   2.278   1.458  0.0491 -0.2822  0.3900
  391SOL    HW1 1562   0.250   2.203   1.495 -1.2061 -1.2068  0.7644
  391SOL    HW2 1563   0.238   2.351   1.446  0.4778 -0.9158  1.6884
  391SOL     MW 1564   0.284   2.278   1.461 -0.0599 -0.4878  0.6107
  392SOL     OW 1565   1.990   2.174   0.332  0.1942  0.3965  0.2401
  392SOL    HW1 1566   1.927   2.248   0.341 -2.6539  1.7027  0.8230
  392SOL    HW2 1567   2.065   2.197   0.388  0.9362  1.2064 -1.0294
  392SOL     MW 1568   1.991   2.187   0.340 -0.0836  0.6757  0.1496
  393SOL     OW 1569   0.255   3.002   2.856 -0.0103  0.0205 -0.6937
  393SOL    HW1 1570   0.309   3.073   2.841 -0.8800  0.1633 -2.7357
  393SOL    HW2 1571   0.169   3.031   2.827 -1.5745 -0.0302 -1.2907
  393SOL     MW 1572   0.251   3.015   2.850 -0.3314  0.0327 -1.0419
  394SOL     OW 1573   0.830   1.634   1.412  0.0251  0.2245  0.5336
  394SOL    HW1 1574   0.811   1.649   1.508 -1.0757 -0.6093 -0.4917
  394SOL    HW2 1575   0.878   1.721   1.390  0.6386 -0.7478 -0.7543
  394SOL     MW 1576   0.834   1.647   1.422 -0.0392 -0.0138  0.2284
  395SOL     OW 1577   0.931   2.872   2.592  0.1403 -0.0570  0.5490
  395SOL    HW1 1578   0.932   2.937   2.659 -2.1322  0.3803  0.0127
  395SOL    HW2 1579   1.023   2.839   2.566 -0.6467 -0.6776  1.1092
  395SOL     MW 1580   0.943   2.876   2.597 -0.2634 -0.0812  0.5521
  396SOL     OW 1581   0.768   1.862   2.381  0.1009 -0.1875  0.3768
  396SOL    HW1 1582   0.784   1.851   2.472  1.6541 -0.7722  0.5267
  396SOL    HW2 1583   0.730   1.776   2.355 -0.9405 -0.8795  0.0395
  396SOL     MW 1584   0.765   1.849   2.389  0.1684 -0.3560  0.3520
  397SOL     OW 1585   1.008   2.331   1.342 -0.3177 -0.1209  0.1394
  397SOL    HW1 1586   1.013   2.408   1.287  1.6770  1.2160 -2.0534
  397SOL    HW2 1587   1.078   2.353   1.402  0.2594 -2.1620  2.5970
  397SOL     MW 1588   1.018   2.344   1.343  0.0216 -0.2138  0.1744
  398SOL     OW 1589   0.667   2.669   0.723  0.5732  0.3652 -0.1579
  398SOL    HW1 1590   0.623   2.588   0.749 -2.3898 -1.4759  0.6873
  398SOL    HW2 1591   0.748   2.648   0.687  2.1369  2.4860  0.3546
  398SOL     MW 1592   0.672   2.656   0.721  0.3886  0.4021  0.0212
  399SOL     OW 1593   0.275   2.021   0.370 -0.3616 -0.5397  0.5221
  399SOL    HW1 1594   0.202   2.085   0.365  0.2698  1.5755  0.6757
  399SOL    HW2 1595   0.337   2.053   0.296  0.4468 -0.5021  0.0427
  399SOL     MW 1596   0.273   2.034   0.360 -0.1716 -0.2557  0.4791
  400SOL     OW 1597   0.613   1.844   0.150 -0.3215 -0.0400 -0.1709
  400SOL    HW1 1598   0.589   1.937   0.156  1.0447  0.2707 -1.8098
  400SOL    HW2 1599   0.581   1.817   0.235  0.7083  0.1267 -0.6375
  400SOL     MW 1600   0.606   1.853   0.162 -0.0054  0.0230 -0.4487
  401SOL     OW 1601   0.982   2.070   0.128 -0.6434  0.5257  1.2523
  401SOL    HW1 1602   0.991   1.968   0.145  0.5084  0.3309  2.0391
  401SOL    HW2 1603   1.036   2.114   0.191 -0.9602  0.5417  2.6318
  401SOL     MW 1604   0.990   2.062   0.139 -0.5332  0.5021  1.5381
  402SOL     OW 1605   0.734   2.886   1.729 -0.2618  0.4312 -0.5963
  402SOL    HW1 1606   0.650   2.862   1.763 -2.1859  1.0851 -0.0077
  402SOL    HW2 1607   0.796   2.842   1.792  0.7697  3.9905  1.7529
  402SOL     MW 1608   0.731   2.877   1.742 -0.3795  0.9871 -0.2087
  403SOL     OW 1609   0.058   0.498   0.430 -0.0622 -0.1518  0.4247
  403SOL    HW1 1610   0.131   0.527   0.493  0.5522  0.7509 -1.9166
  403SOL    HW2 1611   0.111   0.450   0.358 -1.0590  0.6698  0.7556
  403SOL     MW 1612   0.075   0.496   0.429 -0.1127  0.0757  0.1595
  404SOL     OW 1613   0.993   2.897   0.796  0.4577  0.0085 -0.0088
  404SOL    HW1 1614   1.043   2.838   0.742  0.7072 -1.8716 -0.7806
  404SOL    HW2 1615   0.997   2.985   0.752 -0.9026 -1.7032  1.2881
  404SOL     MW 1616   1.000   2.901   0.783  0.3111 -0.4654  0.0605
  405SOL     OW 1617   0.479   2.474   1.547 -0.0596 -0.0960  0.2297
  405SOL    HW1 1618   0.491   2.561   1.492  1.5280  1.8404 -0.3783
  405SOL    HW2 1619   0.429   2.413   1.502  0.7454  1.9020  2.1659
  405SOL     MW 1620   0.474   2.478   1.534  0.2560  0.4231  0.4049
  406SOL     OW 1621   0.413   2.365   1.145 -0.1420 -0.6933 -0.2707
  406SOL    HW1 1622   0.319   2.365   1.178 -0.2382 -2.8984  1.4405
  406SOL    HW2 1623   0.450   2.278   1.168 -1.7520  1.7088  0.1152
  406SOL     MW 1624   0.406   2.354   1.152 -0.3671 -0.6673  0.0060
  407SOL     OW 1625   0.031   2.701   1.109  0.2199  0.5435 -0.1619
  407SOL    HW1 1626   0.082   2.716   1.192 -0.0770 -2.1275 -1.5421
  407SOL    HW2 1627   0.094   2.638   1.056  0.8356 -1.2981 -0.5964
  407SOL     MW 1628   0.046   2.695   1.113  0.2620 -0.0519 -0.4013
  408SOL     OW 1629   2.134   2.126   0.589  0.2417 -0.3433  0.5349
  408SOL    HW1 1630   2.129   2.183   0.674 -1.3890  0.2439  1.4019
  408SOL    HW2 1631   2.057   2.060   0.604 -0.0620 -2.3471  0.4179
  408SOL     MW 1632   2.123   2.125   0.602 -0.0135 -0.5302  0.6339
  409SOL     OW 1633   1.317   0.085   0.888 -0.2652 -0.8886  0.0727
  409SOL    HW1 1634   1.388   0.153   0.900 -1.0612  0.2599  1.5106
  409SOL    HW2 1635   1.368   0.012   0.925  1.5978  0.1275 -1.1696
  409SOL     MW 1636   1.333   0.084   0.895 -0.1244 -0.6030  0.0985
  410SOL     OW 1637   1.086   2.512   1.067 -0.2708  0.6630  0.3507
  410SOL    HW1 1638   1.007   2.498   1.008 -0.8169 -0.6938 -0.3283
  410SOL    HW2 1639   1.153   2.451   1.026  1.2207  1.7336 -0.1871
  410SOL     MW 1640   1.084   2.502   1.054 -0.1460  0.6253  0.1901
  411SOL     OW 1641   1.970   0.111   2.841 -0.2235  0.0360 -0.7690
  411SOL    HW1 1642   1.931   0.056   2.774  1.5034  1.9765 -1.6591
  411SOL    HW2 1643   1.914   0.096   2.921 -2.6754 -1.2615  1.8182
  411SOL     MW 1644   1.958   0.102   2.843 -0.3191  0.1208 -0.5451
  412SOL     OW 1645   1.092   2.205   0.568  0.4911 -0.2407  0.2941
  412SOL    HW1 1646   1.148   2.273   0.607  2.8510 -1.5991  2.1843
  412SOL    HW2 1647   1.002   2.233   0.566  1.0772  2.4256 -2.2437
  412SOL     MW 1648   1.088   2.218   0.573  0.8798 -0.0681  0.2086
  413SOL     OW 1649   0.555   2.799   0.157 -0.2599 -0.1727 -0.5266
  413SOL    HW1 1650   0.604   2.712   0.171 -2.0706 -3.0404  1.9020
  413SOL    HW2 1651   0.565   2.824   0.068 -0.3476  0.9694 -0.2771
  413SOL     MW 1652   0.563   2.791   0.147 -0.5104 -0.4004 -0.1733
  414SOL     OW 1653   1.979   3.065   1.082 -0.3914  0.1204  0.0370
  414SOL    HW1 1654   1.914   3.044   1.011  1.1747  0.4995 -1.4061
  414SOL    HW2 1655   2.034   2.985   1.089  0.0932  1.5857 -0.2116
  414SOL     MW 1656   1.977   3.052   1.073 -0.1209  0.3637 -0.1862
  415SOL     OW 1657   1.716   2.667   1.053  0.3567  0.2864 -0.4458
  415SOL    HW1 1658   1.665   2.598   1.102 -0.1308 -1.6424 -0.2582
  415SOL    HW2 1659   1.793   2.686   1.101 -1.6485 -4.5743  2.0535
  415SOL     MW 1660   1.719   2.660   1.066  0.0278 -0.6094 -0.0913
  416SOL     OW 1661   0.628   1.920   1.383  0.2024 -0.2244  0.0509
  416SOL    HW1 1662   0.571   1.995   1.356 -2.0394 -1.3298 -0.8950
  416SOL    HW2 1663   0.621   1.865   1.299  0.5201 -0.3221 -0.1040
  416SOL     MW 1664   0.619   1.922   1.368 -0.0514 -0.3831 -0.0944
  417SOL     OW 1665   1.023   3.034   1.989  0.2020  0.9276  0.4214
  417SOL    HW1 1666   0.962   3.008   2.062 -0.8524 -0.6232 -0.5543
  417SOL    HW2 1667   1.023   2.964   1.925 -0.4310  1.8549  1.2572
  417SOL     MW 1668   1.015   3.022   1.990 -0.0206  0.8454  0.4029
  418SOL     OW 1669   0.708   2.999   0.219  0.0389 -0.0046 -0.0822
  418SOL    HW1 1670   0.757   2.974   0.145  1.0176 -0.7395  0.1813
  418SOL    HW2 1671   0.637   2.932   0.216  1.3924  1.0440  2.4491
  418SOL     MW 1672   0.705   2.987   0.209  0.3466  0.0368  0.2865
  419SOL     OW 1673   0.448   2.698   1.373 -0.2459  0.0549 -0.1061
  419SOL    HW1 1674   0.509   2.765   1.393 -0.1672 -1.4459 -0.4612
  419SOL    HW2 1675   0.476   2.676   1.283 -1.5778 -0.7035 -0.5778
  419SOL     MW 1676   0.460   2.704   1.364 -0.4112 -0.2431 -0.2152
  420SOL     OW 1677   0.846   2.179   1.004 -0.7784  0.1520 -0.2973
  420SOL    HW1 1678   0.798   2.192   1.086 -0.7942 -0.5930 -0.3531
  420SOL    HW2 1679   0.864   2.262   0.958 -0.2610  1.7459  2.5512
  420SOL     MW 1680   0.842   2.192   1.009 -0.7122  0.2640  0.0711
  421SOL     OW 1681   2.952   0.085   0.019 -0.2080 -0.0870  0.2176
  421SOL    HW1 1682   2.924   0.036  -0.054  1.0961 -1.8823  1.9238
  421SOL    HW2 1683   2.975   0.016   0.084  1.7180  2.7804 -1.2490
  421SOL     MW 1684   2.952   0.069   0.018  0.2182  0.0544  0.2492
  422SOL     OW 1685   0.898   2.444   0.889  0.1510 -0.3917  0.2916
  422SOL    HW1 1686   0.829   2.508   0.902  1.2338  0.6151  0.7960
  422SOL    HW2 1687   0.922   2.467   0.803 -0.0559 -0.2225  0.9488
  422SOL     MW 1688   0.892   2.455   0.879  0.2666 -0.2365  0.4448
  423SOL     OW 1689   1.581   0.174   0.494 -0.2087 -0.0433 -0.0348
  423SOL    HW1 1690   1.553   0.170   0.403 -1.4366  1.4658  0.9384
  423SOL    HW2 1691   1.575   0.269   0.506 -1.3090  0.2113  0.7876
  423SOL     MW 1692   1.577   0.186   0.483 -0.5159  0.1894  0.2021
  424SOL     OW 1693   0.725   2.224   1.250 -0.1817  0.4221 -0.1224
  424SOL    HW1 1694   0.639   2.204   1.280 -0.4027  0.9783  2.6787
  424SOL    HW2 1695   0.781   2.203   1.329 -1.7557 -1.2563 -0.3519
  424SOL     MW 1696   0.721   2.218   1.264 -0.4186  0.2740  0.2169
  425SOL     OW 1697   1.753   2.860   1.998  0.0600 -0.1244 -0.6761
  425SOL    HW1 1698   1.767   2.864   1.904  1.7703 -0.7399  1.6696
  425SOL    HW2 1699   1.784   2.777   2.035 -0.3819 -1.0009 -0.6365
  425SOL     MW 1700   1.759   2.849   1.991  0.2274 -0.3212 -0.3614
  426SOL     OW 1701   0.762   1.631   1.917  0.1844  0.4447  0.5332
  426SOL    HW1 1702   0.738   1.649   1.829  0.3115 -0.0212 -1.1341
  426SOL    HW2 1703   0.753   1.710   1.964  0.4146  1.7543 -0.3066
  426SOL     MW 1704   0.758   1.644   1.912  0.2315  0.5560  0.2024
  427SOL     OW 1705   0.401   1.573   1.864  0.0644  0.3578  0.5504
  427SOL    HW1 1706   0.452   1.623   1.924 -2.3732 -0.8205 -2.8294
  427SOL    HW2 1707   0.337   1.527   1.915 -3.0508  1.2897 -3.0330
  427SOL     MW 1708   0.399   1.573   1.879 -0.6683  0.3253 -0.3684
  428SOL     OW 1709   0.573   2.588   1.154 -0.1432 -0.3778 -0.0794
  428SOL    HW1 1710   0.659   2.569   1.195  1.8400  0.3879  0.9413
  428SOL    HW2 1711   0.527   2.507   1.130 -0.7569 -0.0938 -5.1521
  428SOL     MW 1712   0.578   2.574   1.156  0.0375 -0.2393 -0.6140
  429SOL     OW 1713   1.331   2.647   1.043 -0.3495 -0.4635 -0.2300
  429SOL    HW1 1714   1.257   2.589   1.056 -0.2977  1.8591 -2.3174
  429SOL    HW2 1715   1.291   2.717   0.989 -0.0381 -2.9432 -2.2934
  429SOL     MW 1716   1.316   2.648   1.038 -0.3016 -0.4842 -0.7777
  430SOL     OW 1717   1.182   2.717   0.678 -0.5277 -0.2514 -0.6051
  430SOL    HW1 1718   1.198   2.625   0.695 -1.9880  1.0445 -2.8295
  430SOL    HW2 1719   1.129   2.706   0.598 -0.4292 -0.3505  0.2787
  430SOL     MW 1720   1.177   2.704   0.670 -0.7074 -0.0935 -0.7820
  431SOL     OW 1721   0.304   1.954   1.154  0.3681  0.1715 -0.0491
  431SOL    HW1 1722   0.385   1.929   1.101 -1.2543  0.0383  0.1208
  431SOL    HW2 1723   0.237   1.956   1.088  0.6045  3.1300 -0.0353
  431SOL     MW 1724   0.306   1.951   1.138  0.1852  0.5443 -0.0249
  432SOL     OW 1725   0.057   0.045   1.147  0.0604  0.4935 -0.0409
  432SOL    HW1 1726   0.062   0.098   1.229 -0.2950 -3.2389 -0.7650
  432SOL    HW2 1727  -0.010  -0.019   1.165  1.9413 -2.9535 -0.2746
  432SOL     MW 1728   0.049   0.044   1.160  0.2617 -0.4538 -0.1673
  433SOL     OW 1729   0.670   2.865   1.466 -0.6649  0.2299  0.1488
  433SOL    HW1 1730   0.698   2.883   1.560 -1.6859 -2.6180 -0.7757
  433SOL    HW2 1731   0.749   2.877   1.412  2.6336  0.6757  1.8255
  433SOL     MW 1732   0.684   2.869   1.472 -0.3644 -0.0870  0.2480
  434SOL     OW 1733   1.556   2.819   1.484  0.2250  0.1196  1.1894
  434SOL    HW1 1734   1.473   2.864   1.491  1.1655 -0.0639  1.2956
  434SOL    HW2 1735   1.552   2.775   1.395 -2.5778 -1.7352  0.1035
  434SOL     MW 1736   1.544   2.819   1.474 -0.0207 -0.1493  1.0601
  435SOL     OW 1737   2.864   1.791   0.244 -0.0897 -0.1760 -0.5721
  435SOL    HW1 1738   2.900   1.856   0.177  0.0210 -0.4305 -1.4385
  435SOL    HW2 1739   2.836   1.718   0.177  2.1604  0.5547  0.2920
  435SOL     MW 1740   2.865   1.790   0.226  0.2218 -0.1132 -0.5724
  436SOL     OW 1741   1.401   2.753   0.313 -0.3649 -0.1881 -0.1530
  436SOL    HW1 1742   1.438   2.754   0.398  0.2294  1.0148 -1.6093
  436SOL    HW2 1743   1.353   2.842   0.319  1.4603  0.4109  1.4899
  436SOL     MW 1744   1.399   2.765   0.325 -0.0456  0.0497 -0.1284
  437SOL     OW 1745   0.882   2.936   1.309  0.2480  0.0643  0.5643
  437SOL    HW1 1746   0.933   3.020   1.311 -1.2810  2.2324 -0.2699
  437SOL    HW2 1747   0.875   2.924   1.216 -0.8251 -0.7265  1.9671
  437SOL     MW 1748   0.888   2.945   1.297 -0.0953  0.2460  0.6393
  438SOL     OW 1749   0.853   2.582   1.996  0.3206  0.5052  0.1854
  438SOL    HW1 1750   0.846   2.521   2.065 -1.7832  3.6110 -2.1199
  438SOL    HW2 1751   0.782   2.552   1.938  0.7516 -1.1710  0.9183
  438SOL     MW 1752   0.843   2.570   1.997  0.0999  0.6938 -0.0220
  439SOL     OW 1753   1.165   2.169   0.311  0.0371  0.3258  0.0254
  439SOL    HW1 1754   1.126   2.168   0.406  1.4084 -0.8739  0.0576
  439SOL    HW2 1755   1.145   2.257   0.278  0.1547 -1.3341 -0.3707
  439SOL     MW 1756   1.157   2.181   0.319  0.2336 -0.0515 -0.0226
  440SOL     OW 1757   1.643   2.976   3.011 -0.6652 -0.5016 -0.0245
  440SOL    HW1 1758   1.623   2.966   3.103 -1.4751  0.5450 -1.1208
  440SOL    HW2 1759   1.689   2.896   2.992  0.7714 -0.6503  2.2256
  440SOL     MW 1760   1.646   2.964   3.020 -0.5826 -0.3831  0.1277
  441SOL     OW 1761   0.311   2.565   0.537 -0.0722 -0.3397 -0.2781
  441SOL    HW1 1762   0.318   2.539   0.438  2.9229  0.0047  0.8457
  441SOL    HW2 1763   0.302   2.664   0.531 -2.1179  0.9235  0.9065
  441SOL     MW 1764   0.311   2.575   0.523  0.0531 -0.1276  0.0265
  442SOL     OW 1765   0.020   2.341   0.640 -0.8325 -0.5257 -0.5365
  442SOL    HW1 1766  -0.004   2.427   0.611  1.3577 -1.7980 -0.2183
  442SOL    HW2 1767  -0.065   2.301   0.657  0.5592  1.0770  2.3144
  442SOL     MW 1768   0.005   2.347   0.638 -0.3599 -0.4821 -0.1183
  443SOL     OW 1769   1.331   1.695   1.821  0.3251  0.2705  0.1024
  443SOL    HW1 1770   1.279   1.735   1.749 -2.8469  0.1963 -2.6088
  443SOL    HW2 1771   1.284   1.612   1.840 -1.0621  0.9970 -3.3219
  443SOL     MW 1772   1.318   1.689   1.814 -0.2764  0.3566 -0.7071
  444SOL     OW 1773   0.825   2.569   1.595 -0.1448 -0.0444  0.1989
  444SOL    HW1 1774   0.890   2.534   1.648 -0.8882  1.2568 -0.0493
  444SOL    HW2 1775   0.750   2.520   1.612  2.5488 -0.0896 -0.1854
  444SOL     MW 1776   0.824   2.558   1.604  0.1125  0.1213  0.1154
  445SOL     OW 1777   0.978   0.091   1.289 -0.1334 -0.0250 -0.0685
  445SOL    HW1 1778   0.933   0.158   1.236  0.8305 -3.1459 -0.3394
  445SOL    HW2 1779   1.069   0.122   1.278  2.3379  0.1562 -0.3874
  445SOL     MW 1780   0.984   0.104   1.280  0.3199 -0.4129 -0.1463
  446SOL     OW 1781   2.782   2.937   1.016 -0.2842 -0.5678 -0.1553
  446SOL    HW1 1782   2.697   2.954   0.970 -1.6899 -0.0260  0.1944
  446SOL    HW2 1783   2.801   2.838   1.012  0.4863  0.0015 -1.5412
  446SOL     MW 1784   2.774   2.926   1.010 -0.3680 -0.4212 -0.2920
  447SOL     OW 1785   3.021   2.049   1.755  0.4393 -0.2214  0.8610
  447SOL    HW1 1786   3.083   1.998   1.808 -0.1864  0.9070 -0.4361
  447SOL    HW2 1787   2.980   2.001   1.682  0.1202  1.4387  0.7985
  447SOL     MW 1788   3.024   2.036   1.753  0.3147  0.1465  0.6816
  448SOL     OW 1789   1.694   2.327   1.660  0.3606  0.0270 -0.0872
  448SOL    HW1 1790   1.631   2.250   1.666 -0.8579  0.8511 -1.1864
  448SOL    HW2 1791   1.639   2.393   1.618 -1.2845  1.7063 -1.5012
  448SOL     MW 1792   1.678   2.326   1.655 -0.0172  0.3573 -0.4188
  449SOL     OW 1793   0.835   2.913   0.434 -0.7657 -0.0265  0.5374
  449SOL    HW1 1794   0.806   2.947   0.348  0.8706  0.5641 -0.2281
  449SOL    HW2 1795   0.753   2.914   0.482  1.3676  3.2147  0.3684
  449SOL     MW 1796   0.821   2.918   0.429 -0.2683  0.4790  0.4141
  450SOL     OW 1797   1.222   2.411   0.695  0.0124 -0.1875  0.7385
  450SOL    HW1 1798   1.229   2.391   0.787 -4.3001  1.1066 -1.3247
  450SOL    HW2 1799   1.313   2.422   0.664 -0.1481 -2.6828  1.3048
  450SOL     MW 1800   1.235   2.409   0.703 -0.5778 -0.3460  0.5410
  451SOL     OW 1801   0.605   1.969   1.680 -0.2387  0.6046 -0.1105
  451SOL    HW1 1802   0.668   2.047   1.683 -1.5400  3.4575 -0.3451
  451SOL    HW2 1803   0.604   1.945   1.587  2.4259 -0.0304  0.7860
  451SOL     MW 1804   0.613   1.976   1.668 -0.0588  0.8973 -0.0232
  452SOL     OW 1805   0.294   2.726   0.141 -0.0351 -0.0129  0.6719
  452SOL    HW1 1806   0.387   2.759   0.152  2.5785  0.3094  1.3952
  452SOL    HW2 1807   0.278   2.709   0.048  0.9903  2.3704  2.1953
  452SOL     MW 1808   0.304   2.728   0.130  0.4450  0.3441  0.9683
  453SOL     OW 1809   0.378   2.980   1.647  0.3244  0.1108  0.6196
  453SOL    HW1 1810   0.431   3.030   1.590  0.5196  0.0784 -0.3547
  453SOL    HW2 1811   0.300   2.950   1.604  1.0455  2.2743  1.5057
  453SOL     MW 1812   0.374   2.983   1.634  0.4453  0.3920  0.6080
  454SOL     OW 1813   1.080   2.795   1.121  0.4428  0.0499 -0.6506
  454SOL    HW1 1814   1.087   2.704   1.084  0.4050 -2.1467 -0.9350
  454SOL    HW2 1815   1.006   2.842   1.088  2.2630 -0.0747 -4.5425
  454SOL     MW 1816   1.071   2.789   1.112  0.6780 -0.2564 -1.2016
  455SOL     OW 1817   1.589   2.942   0.174 -0.5675  0.2169  0.2186
  455SOL    HW1 1818   1.666   2.934   0.224 -0.5955 -2.0725 -0.5670
  455SOL    HW2 1819   1.531   2.872   0.205 -0.8911 -0.4653  0.2318
  455SOL     MW 1820   1.592   2.932   0.185 -0.6138 -0.1752  0.1167
  456SOL     OW 1821   2.961   0.321   1.399  0.0746  0.5985 -0.6068
  456SOL    HW1 1822   2.939   0.239   1.359  2.6269 -2.2196  1.9729
  456SOL    HW2 1823   3.007   0.375   1.321 -1.5350  0.6802  0.9126
  456SOL     MW 1824   2.964   0.317   1.384  0.1990  0.2374 -0.0660
  457SOL     OW 1825   0.850   1.550   2.998 -0.6538 -0.3242  0.1242
  457SOL    HW1 1826   0.802   1.561   3.078 -0.9034  1.0622  1.4406
  457SOL    HW2 1827   0.922   1.493   3.017 -2.7022  1.0799 -2.0739
  457SOL     MW 1828   0.853   1.544   3.011 -0.9570  0.0440  0.0079
  458SOL     OW 1829   1.437   1.404   0.629 -0.2822 -0.3825 -0.2410
  458SOL    HW1 1830   1.363   1.442   0.671 -0.7185  0.0729  0.4054
  458SOL    HW2 1831   1.409   1.356   0.546  0.3253 -0.2836 -0.8616
  458SOL     MW 1832   1.424   1.403   0.623 -0.2596 -0.3093 -0.2376
  459SOL     OW 1833   1.551   0.125   0.216  0.0449  0.2878 -0.0579
  459SOL    HW1 1834   1.515   0.040   0.193 -1.6210 -0.5361  2.9356
  459SOL    HW2 1835   1.496   0.184   0.160 -0.2693 -0.2632 -1.8675
  459SOL     MW 1836   1.539   0.122   0.206 -0.2164  0.1064  0.0983
  460SOL     OW 1837   1.690   2.166   0.575 -0.2728 -0.4943  0.3105
  460SOL    HW1 1838   1.626   2.147   0.634 -0.9889  0.2694  1.8294
  460SOL    HW2 1839   1.748   2.085   0.567  0.5889  2.1627 -2.2642
  460SOL     MW 1840   1.689   2.153   0.582 -0.2536 -0.0430  0.1712
  461SOL     OW 1841   0.508   2.355   0.604  0.5781  0.7174 -0.3661
  461SOL    HW1 1842   0.471   2.434   0.578  4.0603  0.7072  0.7586
  461SOL    HW2 1843   0.491   2.363   0.696 -1.2615 -0.0052 -1.0230
  461SOL     MW 1844   0.501   2.367   0.612  0.7948  0.6207 -0.3044
  462SOL     OW 1845   0.351   0.320   1.291 -0.6829  0.2779 -0.3223
  462SOL    HW1 1846   0.392   0.254   1.232 -0.4194  2.6867  0.4474
  462SOL    HW2 1847   0.422   0.356   1.337  0.1616  3.0600 -3.8276
  462SOL     MW 1848   0.366   0.316   1.289 -0.5367  0.9628 -0.6832
  463SOL     OW 1849   1.009   0.050   0.700 -0.3765 -0.0307  0.0665
  463SOL    HW1 1850   1.020   0.043   0.603 -0.4486 -0.6372  0.3219
  463SOL    HW2 1851   0.910   0.045   0.711  0.0371  1.8302 -3.9788
  463SOL     MW 1852   0.997   0.048   0.689 -0.3315  0.1348 -0.4336
  464SOL     OW 1853   0.788   2.936   2.147 -0.5659 -0.2231 -0.7382
  464SOL    HW1 1854   0.761   2.845   2.155  2.2439  0.3763 -2.5488
  464SOL    HW2 1855   0.833   2.963   2.236 -0.7958 -0.4863  3.9757
  464SOL     MW 1856   0.790   2.928   2.160 -0.2255 -0.1788 -0.3552
  465SOL     OW 1857   0.751   0.208   0.482  0.2391  0.0399  0.4663
  465SOL    HW1 1858   0.734   0.127   0.525  2.2373 -1.3077 -0.3921
  465SOL    HW2 1859   0.730   0.184   0.391 -1.7168  0.4476 -0.7662
  465SOL     MW 1860   0.746   0.194   0.475  0.2447 -0.0841  0.1904
  466SOL     OW 1861   1.054   1.962   0.697  0.2931 -0.5100 -0.2630
  466SOL    HW1 1862   1.058   1.902   0.622 -0.4347 -0.4655 -0.5767
  466SOL    HW2 1863   1.059   2.053   0.661 -1.1527  0.9693 -0.7928
  466SOL     MW 1864   1.055   1.966   0.683  0.0063 -0.3089 -0.3743
  467SOL     OW 1865   1.259   2.313   0.936 -0.2989 -0.9556 -0.6696
  467SOL    HW1 1866   1.342   2.318   0.982 -1.7734  0.0283 -1.2781
  467SOL    HW2 1867   1.239   2.218   0.950  0.2518  1.7661 -0.5069
  467SOL     MW 1868   1.267   2.301   0.944 -0.4208 -0.4667 -0.7285
  468SOL     OW 1869   0.319   2.623   1.967  0.1099 -0.2213  0.2336
  468SOL    HW1 1870   0.324   2.542   1.915  1.0576  0.3788 -1.4657
  468SOL    HW2 1871   0.388   2.671   1.923 -1.0344  0.5504  2.4336
  468SOL     MW 1872   0.329   2.618   1.954  0.0840 -0.0403  0.2997
  469SOL     OW 1873   0.406   2.078   1.825 -0.2088  0.0156 -0.0340
  469SOL    HW1 1874   0.316   2.039   1.821 -0.4219 -1.7877  1.5258
  469SOL    HW2 1875   0.468   2.025   1.764 -0.0817  1.6185  0.0523
  469SOL     MW 1876   0.402   2.066   1.816 -0.2202 -0.0108  0.1832
  470SOL     OW 1877   3.059   2.504   0.160 -0.3220  0.2413 -0.4962
  470SOL    HW1 1878   2.978   2.466   0.196 -0.4873  0.3842 -2.3021
  470SOL    HW2 1879   3.033   2.550   0.080 -0.0781 -1.6893 -0.2948
  470SOL     MW 1880   3.045   2.505   0.154 -0.3116  0.0054 -0.7079
  471SOL     OW 1881   1.173   2.701   1.362  0.1323  0.1021 -0.0743
  471SOL    HW1 1882   1.110   2.706   1.436  0.2507 -1.1101  1.1766
  471SOL    HW2 1883   1.132   2.733   1.282  0.0413  0.3137 -1.0568
  471SOL     MW 1884   1.159   2.706   1.361  0.1359 -0.0299 -0.0389
  472SOL     OW 1885   2.921   2.125   0.332 -0.1011  0.0385 -0.5683
  472SOL    HW1 1886   2.946   2.077   0.250 -0.4459 -0.2126  0.9312
  472SOL    HW2 1887   2.899   2.063   0.397 -0.0694  0.9862  3.1449
  472SOL     MW 1888   2.922   2.111   0.330 -0.1424  0.1304  0.1195
  473SOL     OW 1889   0.798   2.550   1.281  0.0698  0.1896 -0.1293
  473SOL    HW1 1890   0.816   2.459   1.271 -0.9306 -0.8738 -0.4322
  473SOL    HW2 1891   0.809   2.571   1.374  0.3899  0.7076 -0.4794
  473SOL     MW 1892   0.802   2.541   1.292 -0.0199  0.1176 -0.2154
  474SOL     OW 1893   0.839   2.209   1.783 -0.0971 -0.0889  0.5987
  474SOL    HW1 1894   0.926   2.219   1.815  1.0231  0.6572  0.8531
  474SOL    HW2 1895   0.841   2.230   1.684 -1.3871  1.1360 -1.0497
  474SOL     MW 1896   0.851   2.213   1.774 -0.1195  0.1712  0.4148
  475SOL     OW 1897   1.628   3.079   1.419  0.2220 -0.1990 -0.3733
  475SOL    HW1 1898   1.555   3.114   1.368  1.6226  1.2261  0.8867
  475SOL    HW2 1899   1.597   2.994   1.457 -4.0588  2.6282  0.5494
  475SOL     MW 1900   1.614   3.073   1.417 -0.1580  0.3620 -0.0853
  476SOL     OW 1901   1.422   2.591   0.807 -0.1350  0.1814  0.5810
  476SOL    HW1 1902   1.383   2.602   0.893  1.2667  1.6515 -0.2759
  476SOL    HW2 1903   1.488   2.665   0.800  0.2437  2.9644  1.9900
  476SOL     MW 1904   1.426   2.602   0.818  0.0999  0.7426  0.6538
  477SOL     OW 1905   0.876   2.497   0.613  0.4602  0.2601  0.7627
  477SOL    HW1 1906   0.931   2.547   0.551 -2.0544 -0.0898  2.8001
  477SOL    HW2 1907   0.868   2.407   0.562 -2.2626 -1.5625  2.3435
  477SOL     MW 1908   0.882   2.492   0.598 -0.2308 -0.0266  1.2401
  478SOL     OW 1909   0.241   2.592   0.948 -0.1162  0.4097 -0.7117
  478SOL    HW1 1910   0.293   2.672   0.953  3.7490 -1.7929  2.1977
  478SOL    HW2 1911   0.294   2.519   0.915  1.7764  0.5505 -0.7716
  478SOL     MW 1912   0.255   2.593   0.944  0.6435  0.1376 -0.3358
  479SOL     OW 1913   1.405   1.953   1.307 -0.6017 -0.1478  0.1924
  479SOL    HW1 1914   1.359   1.991   1.380  0.4904  1.2963 -0.5223
  479SOL    HW2 1915   1.478   1.911   1.355  0.9861  1.2762  1.0163
  479SOL     MW 1916   1.408   1.953   1.323 -0.2482  0.2306  0.2068
  480SOL     OW 1917   1.803   2.361   1.285  0.5755 -0.8207  0.2288
  480SOL    HW1 1918   1.819   2.272   1.321 -0.1845  0.4834 -0.8655
  480SOL    HW2 1919   1.838   2.354   1.192  0.3224 -2.1533 -2.7549
  480SOL     MW 1920   1.810   2.348   1.278  0.4418 -0.8245 -0.3093
  481SOL     OW 1921   1.214   0.149   1.152  0.7649 -0.0328 -0.2577
  481SOL    HW1 1922   1.225   0.111   1.067  2.2755 -0.9186 -1.1595
  481SOL    HW2 1923   1.208   0.247   1.136 -1.7748  0.6231  1.4485
  481SOL     MW 1924   1.214   0.157   1.139  0.6291 -0.0631 -0.1515
  482SOL     OW 1925   1.021   0.019   0.438  0.6729  0.2915  0.0698
  482SOL    HW1 1926   0.940  -0.028   0.429  2.1527  0.9146  0.1842
  482SOL    HW2 1927   1.012   0.111   0.412 -2.2233  0.0750 -0.0120
  482SOL     MW 1928   1.009   0.025   0.433  0.4860  0.3452  0.0741
  483SOL     OW 1929   0.319   2.847   0.573  0.7492  0.0254  1.0116
  483SOL    HW1 1930   0.260   2.883   0.500 -3.8243 -0.3663 -0.4372
  483SOL    HW2 1931   0.297   2.893   0.652  1.3620 -0.9654 -1.1955
  483SOL     MW 1932   0.308   2.858   0.574  0.2266 -0.1570  0.5292
  484SOL     OW 1933   1.650   1.868   1.410  0.2165  0.1294 -0.1831
  484SOL    HW1 1934   1.703   1.933   1.374  0.4147 -2.7557 -0.4656
  484SOL    HW2 1935   1.654   1.871   1.507  0.1869 -1.5095  1.9342
  484SOL     MW 1936   1.657   1.877   1.418  0.2387 -0.4675  0.0590
  485SOL     OW 1937   0.541   2.328   0.298  0.6888 -0.8548  0.4451
  485SOL    HW1 1938   0.538   2.333   0.396 -1.5759  3.3201 -0.4942
  485SOL    HW2 1939   0.479   2.403   0.281  0.2162  1.7818 -0.5763
  485SOL     MW 1940   0.533   2.339   0.309  0.3277  0.0439  0.1864
  486SOL     OW 1941   0.086   2.483   1.472  0.2862 -0.1464 -0.1221
  486SOL    HW1 1942   0.094   2.569   1.427 -2.1274  1.7643 -1.1767
  486SOL    HW2 1943   0.100   2.488   1.568  3.0811 -0.0238 -3.5463
  486SOL     MW 1944   0.089   2.495   1.479  0.3365  0.1219 -0.7130
  487SOL     OW 1945   1.280   1.604   1.010 -0.3887 -0.4228 -0.3217
  487SOL    HW1 1946   1.257   1.698   1.038 -1.1302  0.4006 -1.9804
  487SOL    HW2 1947   1.375   1.597   1.017  0.5614  1.0448 -0.3488
  487SOL     MW 1948   1.290   1.616   1.014 -0.3612 -0.1205 -0.5441
  488SOL     OW 1949   1.495   1.816   0.623  0.5092  0.2455  0.1962
  488SOL    HW1 1950   1.477   1.898   0.575 -1.4973  0.3931 -0.0661
  488SOL    HW2 1951   1.434   1.756   0.579 -1.8755  1.8090 -1.3350
  488SOL     MW 1952   1.485   1.819   0.611 -0.0702  0.4713 -0.0404
  489SOL     OW 1953   0.688   0.746   0.521  0.1763  0.2454 -0.1203
  489SOL    HW1 1954   0.649   0.664   0.483  0.4898  0.9888  0.3181
  489SOL    HW2 1955   0.693   0.736   0.616 -0.4053 -0.9349  0.2650
  489SOL     MW 1956   0.684   0.734   0.528  0.1409  0.1878 -0.0116
  490SOL     OW 1957   1.403   2.083   0.433  0.3908  0.4032 -0.6997
  490SOL    HW1 1958   1.478   2.139   0.409  0.3787 -0.0376  1.6273
  490SOL    HW2 1959   1.333   2.132   0.387  0.3069  1.0745 -0.6960
  490SOL     MW 1960   1.404   2.097   0.424  0.3782  0.4336 -0.3922
  491SOL     OW 1961   1.260   2.985   0.370 -0.7111  0.1832  0.1405
  491SOL    HW1 1962   1.291   3.048   0.431 -1.0174 -0.5521 -0.0136
  491SOL    HW2 1963   1.165   3.013   0.371  0.7225 -0.9334  0.9602
  491SOL     MW 1964   1.251   2.997   0.378 -0.5623 -0.0611  0.2283
  492SOL     OW 1965   1.446   2.143   0.709  0.0415  0.1876  0.0760
  492SOL    HW1 1966   1.393   2.130   0.631  0.4081  0.3403 -1.4899
  492SOL    HW2 1967   1.390   2.108   0.775 -1.5434 -3.6057 -1.0661
  492SOL     MW 1968   1.432   2.137   0.707 -0.1192 -0.2927 -0.2813
  493SOL     OW 1969   0.218   2.991   0.349 -0.4446 -0.2401 -0.2960
  493SOL    HW1 1970   0.131   3.021   0.378 -0.1187 -3.7728  1.1807
  493SOL    HW2 1971   0.217   3.005   0.253 -2.9961  0.9817 -0.4206
  493SOL     MW 1972   0.206   2.997   0.340 -0.7382 -0.5450 -0.1176
  494SOL     OW 1973   0.375   2.388   1.792 -0.2076  0.4283 -0.2954
  494SOL    HW1 1974   0.386   2.299   1.765  1.5395 -0.6065  0.9282
  494SOL    HW2 1975   0.422   2.446   1.723  1.4551  1.4515 -1.0131
  494SOL     MW 1976   0.383   2.384   1.780  0.2423  0.4268 -0.2286
  495SOL     OW 1977   2.897   1.634   2.717 -0.1434 -0.1684  0.9291
  495SOL    HW1 1978   2.879   1.714   2.770  0.1245  2.6013  0.7250
  495SOL    HW2 1979   2.902   1.565   2.785 -2.2586 -0.5311  0.2006
  495SOL     MW 1980   2.895   1.636   2.733 -0.3871  0.1492  0.8060
  496SOL     OW 1981   2.761   2.273   2.723 -0.5209  0.1559  0.3980
  496SOL    HW1 1982   2.781   2.181   2.732  1.4771  0.1450 -0.2739
  496SOL    HW2 1983   2.852   2.317   2.717  1.3491 -0.9881  0.6724
  496SOL     MW 1984   2.775   2.266   2.723 -0.0105  0.0035  0.3456
  497SOL     OW 1985   1.493   2.333   2.547  0.0767  0.0272 -0.4120
  497SOL    HW1 1986   1.515   2.276   2.464  0.8825  0.3337 -0.1062
  497SOL    HW2 1987   1.462   2.270   2.617 -0.9733  2.0444  1.6179
  497SOL     MW 1988   1.491   2.317   2.545  0.0445  0.3338 -0.1038
  498SOL     OW 1989   1.447   2.774   2.297  0.1858  0.2835 -0.0432
  498SOL    HW1 1990   1.437   2.683   2.270  1.9119  0.4789 -0.5459
  498SOL    HW2 1991   1.536   2.776   2.343  0.5244 -1.0377 -0.7903
  498SOL     MW 1992   1.457   2.762   2.299  0.4582  0.1349 -0.2081
  499SOL     OW 1993   0.953   0.106   0.080  0.2181  0.4885  0.2222
  499SOL    HW1 1994   0.862   0.139   0.106 -2.4385  1.3288  1.2573
  499SOL    HW2 1995   0.935   0.010   0.063  1.1908 -0.7713  1.9005
  499SOL     MW 1996   0.938   0.098   0.081 -0.0040  0.4332  0.5802
  500SOL     OW 1997   1.035   2.526   2.731  0.4005 -0.3409  0.6242
  500SOL    HW1 1998   1.084   2.483   2.802 -0.3571 -0.0810 -0.6177
  500SOL    HW2 1999   0.980   2.594   2.772 -0.7927  0.8684  1.9565
  500SOL     MW 2000   1.034   2.529   2.746  0.1431 -0.1471  0.6361
  501SOL     OW 2001   1.742   2.259   3.071 -0.5860 -0.7108  0.5780
  501SOL    HW1 2002   1.755   2.353   3.086  1.0665 -0.6348  0.7044
  501SOL    HW2 2003   1.835   2.227   3.064 -0.3891 -1.7809  2.1433
  501SOL     MW 2004   1.756   2.267   3.072 -0.3420 -0.8419  0.8012
  502SOL     OW 2005   0.261   2.709   2.966 -0.1577 -0.4870  0.2699
  502SOL    HW1 2006   0.186   2.661   2.936 -0.5677  0.4104  2.2366
  502SOL    HW2 2007   0.265   2.786   2.908  0.4656 -0.1947 -1.5608
  502SOL     MW 2008   0.251   2.713   2.955 -0.1295 -0.3300  0.2878
  503SOL     OW 2009   1.147   2.572   2.101  0.1702  0.4402  0.3392
  503SOL    HW1 2010   1.204   2.579   2.022  2.5901  0.8826  0.7601
  503SOL    HW2 2011   1.063   2.619   2.080  0.7673  0.0018  2.3194
  503SOL     MW 2012   1.144   2.579   2.088  0.5682  0.4407  0.6560
  504SOL     OW 2013   0.071   2.657   2.163 -0.0674  0.3346  0.1156
  504SOL    HW1 2014   0.145   2.616   2.112 -2.5179 -1.3506 -0.6631
  504SOL    HW2 2015   0.018   2.581   2.186 -1.6994 -1.7779 -1.9908
  504SOL     MW 2016   0.073   2.641   2.159 -0.6061 -0.1665 -0.2650
  505SOL     OW 2017   1.604   2.785   2.743 -0.0226 -0.2164 -0.5207
  505SOL    HW1 2018   1.630   2.807   2.657 -0.8298 -0.7520 -1.1980
  505SOL    HW2 2019   1.547   2.859   2.781  0.3325 -0.0943  2.3565
  505SOL     MW 2020   1.600   2.798   2.737 -0.0822 -0.2709 -0.2305
  506SOL     OW 2021   1.597   0.065   2.756 -0.4917 -0.4343  0.1926
  506SOL    HW1 2022   1.595   0.016   2.838  2.4289 -1.4514  4.0010
  506SOL    HW2 2023   1.657   0.016   2.700 -1.0969  1.3987  2.2017
  506SOL     MW 2024   1.605   0.052   2.759 -0.1862 -0.3266  0.9602
  507SOL     OW 2025   0.869   2.725   2.810 -0.0804  0.0604  0.2631
  507SOL    HW1 2026   0.906   2.775   2.735 -1.1333  2.6751  0.8262
  507SOL    HW2 2027   0.787   2.687   2.775 -0.7514  0.2460  0.0600
  507SOL     MW 2028   0.863   2.726   2.795 -0.3079  0.4299  0.3106
  508SOL     OW 2029   1.154   2.109   2.588  0.1614 -0.1809  0.4380
  508SOL    HW1 2030   1.235   2.133   2.622 -0.7624 -0.6980  0.6564
  508SOL    HW2 2031   1.102   2.089   2.664  0.2912 -1.0115  1.2485
  508SOL     MW 2032   1.158   2.109   2.602  0.0566 -0.3587  0.5738
  509SOL     OW 2033   0.640   2.569   2.792  0.0811 -0.1903 -0.0327
  509SOL    HW1 2034   0.638   2.496   2.730  3.3472 -0.7207  2.6773
  509SOL    HW2 2035   0.560   2.619   2.782 -2.1989  0.8968  0.3769
  509SOL     MW 2036   0.629   2.566   2.782  0.2112 -0.1169  0.3789
  510SOL     OW 2037   1.509   2.560   1.620  0.1688 -0.0087  0.2204
  510SOL    HW1 2038   1.526   2.655   1.596  2.7223 -0.8592  0.5736
  510SOL    HW2 2039   1.475   2.570   1.706  2.1872 -0.7156 -0.3910
  510SOL     MW 2040   1.507   2.574   1.628  0.7720 -0.2142  0.1864
  511SOL     OW 2041   0.353   2.516   2.551  0.3729 -0.2524  0.4898
  511SOL    HW1 2042   0.437   2.468   2.558  0.0265  1.2938 -0.7211
  511SOL    HW2 2043   0.332   2.527   2.458 -1.9805  0.4548 -0.9125
  511SOL     MW 2044   0.362   2.511   2.540  0.0167  0.0449  0.1450
  512SOL     OW 2045   1.024   1.966   2.843  0.0794  0.2195  0.3134
  512SOL    HW1 2046   0.931   1.987   2.851  0.4331  0.7830  2.8544
  512SOL    HW2 2047   1.052   1.882   2.894 -1.6989 -1.7327  0.6570
  512SOL     MW 2048   1.015   1.958   2.851 -0.1086  0.0363  0.6940
  513SOL     OW 2049   1.521   2.510   2.203  0.6145  0.5037 -0.4841
  513SOL    HW1 2050   1.606   2.543   2.175 -1.7472  3.2370 -1.8664
  513SOL    HW2 2051   1.553   2.460   2.277  1.1861 -0.6780  2.3509
  513SOL     MW 2052   1.536   2.508   2.209  0.3783  0.7084 -0.2924
  514SOL     OW 2053   0.177   2.342   2.676 -0.9785  0.1611 -0.2124
  514SOL    HW1 2054   0.235   2.407   2.629 -1.4526  0.5609 -0.2325
  514SOL    HW2 2055   0.225   2.298   2.751 -1.7210 -0.6948 -0.7685
  514SOL     MW 2056   0.191   2.345   2.680 -1.1390  0.1010 -0.2884
  515SOL     OW 2057   1.086   1.967   1.823  0.5191 -0.3840 -0.0769
  515SOL    HW1 2058   1.091   2.060   1.814 -2.7429  1.8278 -0.9433
  515SOL    HW2 2059   1.142   1.947   1.904 -3.4554 -0.0141 -0.9391
  515SOL     MW 2060   1.094   1.976   1.833 -0.4356 -0.0434 -0.3050
  516SOL     OW 2061   1.294   2.600   2.946  0.0807  0.1152 -0.1344
  516SOL    HW1 2062   1.325   2.596   2.853  0.8314  1.0591 -0.8876
  516SOL    HW2 2063   1.243   2.519   2.951 -1.6671 -0.3539 -1.3991
  516SOL     MW 2064   1.291   2.588   2.935 -0.0509  0.1778 -0.4006
  517SOL     OW 2065   0.549   2.352   2.279  0.4494  0.4117  0.5504
  517SOL    HW1 2066   0.507   2.437   2.267  0.2242  1.5383  1.3819
  517SOL    HW2 2067   0.505   2.289   2.223 -2.1981  0.6473 -0.4566
  517SOL     MW 2068   0.538   2.355   2.270  0.0704  0.5914  0.5272
  518SOL     OW 2069   1.811   0.106   3.070  0.2876 -0.4856  0.6630
  518SOL    HW1 2070   1.817   0.132   3.161 -2.2632 -1.4328 -1.6576
  518SOL    HW2 2071   1.768   0.022   3.068 -1.1697  0.8190 -0.7673
  518SOL     MW 2072   1.806   0.099   3.082 -0.2412 -0.4385  0.1681
  519SOL     OW 2073   0.656   2.425   1.883  0.0070  0.4628 -0.9890
  519SOL    HW1 2074   0.690   2.334   1.899  0.3351 -0.5183 -1.5558
  519SOL    HW2 2075   0.562   2.420   1.897  2.1786  1.2927  1.8482
  519SOL     MW 2076   0.648   2.412   1.887  0.3368  0.4429 -0.6894
  520SOL     OW 2077   1.230   2.128   2.935  0.3790 -0.0926 -0.0913
  520SOL    HW1 2078   1.154   2.074   2.918 -0.6605 -2.5871 -0.5249
  520SOL    HW2 2079   1.259   2.097   3.024 -2.1495 -0.0715 -0.2340
  520SOL     MW 2080   1.224   2.117   2.945 -0.0917 -0.4190 -0.1674
  521SOL     OW 2081   1.769   2.029   2.255  0.3049  0.2453  0.1883
  521SOL    HW1 2082   1.794   2.044   2.162  2.1103  0.5824 -0.4055
  521SOL    HW2 2083   1.755   1.935   2.253 -0.9043 -0.8886 -0.0616
  521SOL     MW 2084   1.770   2.018   2.242  0.3836  0.1402  0.0770
  522SOL     OW 2085   2.873   2.540   2.228  0.5366 -0.3800 -0.3183
  522SOL    HW1 2086   2.886   2.530   2.322  1.3415  1.2136  2.9026
  522SOL    HW2 2087   2.862   2.637   2.232 -1.8379  1.3579  1.9566
  522SOL     MW 2088   2.873   2.552   2.241  0.3295  0.0595  0.4069
  523SOL     OW 2089   0.820   1.493   2.150 -0.0491  0.0778 -0.1032
  523SOL    HW1 2090   0.799   1.539   2.069  0.3130 -0.9106  1.1946
  523SOL    HW2 2091   0.908   1.457   2.136 -0.5194 -1.4197  2.2665
  523SOL     MW 2092   0.829   1.494   2.137 -0.0634 -0.2502  0.3807
  524SOL     OW 2093   0.631   2.406   2.995  0.3222 -0.1668 -0.1529
  524SOL    HW1 2094   0.656   2.464   2.921  0.0695  2.3737 -2.0767
  524SOL    HW2 2095   0.689   2.337   3.004 -1.7118  0.4158 -1.5888
  524SOL     MW 2096   0.642   2.404   2.986  0.0205  0.2452 -0.5962
  525SOL     OW 2097   0.387   2.186   2.117  0.5038  0.1724  0.0165
  525SOL    HW1 2098   0.360   2.114   2.168  3.0877  0.9718 -1.6799
  525SOL    HW2 2099   0.427   2.155   2.040 -0.2908  0.5851  2.1270
  525SOL     MW 2100   0.389   2.172   2.114  0.7399  0.3323  0.0712
  526SOL     OW 2101   0.712   2.123   2.001 -0.4418 -0.0201  0.0566
  526SOL    HW1 2102   0.774   2.152   1.918  0.5244  0.1079  2.9044
  526SOL    HW2 2103   0.764   2.143   2.082  1.6766  1.9349  0.2859
  526SOL     MW 2104   0.727   2.129   2.001 -0.0348  0.2547  0.4626
  527SOL     OW 2105   1.285   1.905   2.006 -0.2262  0.0029 -0.1099
  527SOL    HW1 2106   1.259   1.857   2.085 -2.0432 -2.3273 -0.2685
  527SOL    HW2 2107   1.322   1.841   1.944  0.5588  1.5457 -1.2480
  527SOL     MW 2108   1.286   1.890   2.008 -0.3623 -0.1010 -0.2810
  528SOL     OW 2109   0.623   2.896   2.998  0.2133  0.6415 -1.0785
  528SOL    HW1 2110   0.647   2.988   2.983 -0.3284 -2.6996 -1.0199
  528SOL    HW2 2111   0.575   2.876   2.916 -0.5582 -1.7540  1.0425
  528SOL     MW 2112   0.620   2.906   2.985  0.0400 -0.1154 -0.7909
  529SOL     OW 2113   1.123   2.237   1.774 -0.0370 -0.6861  0.1883
  529SOL    HW1 2114   1.169   2.255   1.857 -1.1312 -1.5159 -0.2702
  529SOL    HW2 2115   1.174   2.245   1.696  0.1000 -2.8455  1.4870
  529SOL     MW 2116   1.136   2.241   1.775 -0.1633 -1.0805  0.2991
  530SOL     OW 2117   1.145   2.380   2.970  0.1254  0.3972 -0.5159
  530SOL    HW1 2118   1.101   2.400   3.048  0.6069  0.9149 -0.7555
  530SOL    HW2 2119   1.166   2.290   2.976 -0.2258  0.8674  1.3540
  530SOL     MW 2120   1.142   2.371   2.981  0.1426  0.5276 -0.3008
  531SOL     OW 2121   0.904   1.819   2.639  0.2713 -0.0318  0.2049
  531SOL    HW1 2122   0.910   1.894   2.700 -2.0461  3.0654 -1.2850
  531SOL    HW2 2123   0.836   1.768   2.679  0.5175 -0.1003 -1.5426
  531SOL     MW 2124   0.896   1.822   2.652 -0.0020  0.3678 -0.2222
  532SOL     OW 2125   1.674   0.327   2.870 -0.5585  0.1343 -0.1323
  532SOL    HW1 2126   1.648   0.251   2.830  0.9407  1.8585  1.7347
  532SOL    HW2 2127   1.711   0.294   2.953 -1.9598 -1.5119  0.0357
  532SOL     MW 2128   1.675   0.313   2.876 -0.5456  0.1446  0.1362
  533SOL     OW 2129   1.775   2.737   2.959  0.5545 -0.4355  0.1900
  533SOL    HW1 2130   1.774   2.668   3.023  1.6555  1.3353 -1.1522
  533SOL    HW2 2131   1.695   2.730   2.903 -0.1513 -2.4843  0.3808
  533SOL     MW 2132   1.765   2.727   2.960  0.6067 -0.4722  0.0381
  534SOL     OW 2133   1.751   2.482   2.515 -0.2919 -0.4805 -0.1438
  534SOL    HW1 2134   1.696   2.414   2.553  1.7024  0.4724  0.1081
  534SOL    HW2 2135   1.832   2.484   2.574  1.6322  0.7245  1.2472
  534SOL     MW 2136   1.754   2.473   2.528  0.2251 -0.1958  0.0730
  535SOL     OW 2137   1.808   2.347   1.909  0.6257  0.1973  0.0690
  535SOL    HW1 2138   1.748   2.344   1.828  1.1648 -0.1387 -0.6187
  535SOL    HW2 2139   1.885   2.373   1.858  0.9242 -0.3406 -0.6664
  535SOL     MW 2140   1.810   2.350   1.892  0.7362  0.0820 -0.1188
  536SOL     OW 2141   0.436   1.837   2.029  0.5765 -0.3466 -0.4064
  536SOL    HW1 2142   0.441   1.852   1.933 -0.7691 -1.3473 -0.2974
  536SOL    HW2 2143   0.523   1.869   2.054  0.6951  0.0063  2.3264
  536SOL     MW 2144   0.448   1.843   2.020  0.4146 -0.4321 -0.0315
  537SOL     OW 2145   0.985   0.185   2.934  0.6519 -0.2409 -0.5148
  537SOL    HW1 2146   0.952   0.160   3.021  0.7552  0.3735  1.5235
  537SOL    HW2 2147   0.921   0.238   2.888  0.3205  1.7582 -2.9168
  537SOL     MW 2148   0.972   0.189   2.940  0.6218  0.1039 -0.5628
  538SOL     OW 2149   1.309   0.047   3.050  0.0689 -0.0457 -0.3096
  538SOL    HW1 2150   1.237   0.094   3.005  0.3724 -2.3766  1.0507
  538SOL    HW2 2151   1.374   0.112   3.056 -1.1417 -2.1764 -0.9145
  538SOL     MW 2152   1.308   0.062   3.045 -0.0508 -0.6344 -0.2100
  539SOL     OW 2153   0.720   2.693   2.532 -0.3396  0.0014  0.1534
  539SOL    HW1 2154   0.781   2.762   2.558 -1.7028  2.3569 -2.6558
  539SOL    HW2 2155   0.764   2.614   2.553 -0.4614 -1.2330  1.6143
  539SOL     MW 2156   0.734   2.692   2.538 -0.5355  0.1493 -0.0245
  540SOL     OW 2157   0.362   2.230   2.847  0.0313  0.4233 -0.1308
  540SOL    HW1 2158   0.430   2.283   2.889 -1.5660 -0.4798 -1.1879
  540SOL    HW2 2159   0.326   2.179   2.923 -0.2510 -0.9746 -1.1900
  540SOL     MW 2160   0.366   2.230   2.863 -0.2167  0.1197 -0.4100
  541SOL     OW 2161   0.187   2.876   2.272 -0.0615 -0.4256  0.2971
  541SOL    HW1 2162   0.152   2.796   2.230 -0.3017  1.0395 -0.7308
  541SOL    HW2 2163   0.243   2.849   2.343  1.3205 -0.2510  0.8313
  541SOL     MW 2164   0.190   2.862   2.276  0.0892 -0.2092  0.2319
  542SOL     OW 2165   0.887   2.279   2.752  0.1447 -0.1151 -0.6270
  542SOL    HW1 2166   0.885   2.238   2.834  3.2991 -1.8134 -0.1969
  542SOL    HW2 2167   0.935   2.366   2.761 -1.3196  0.5087 -0.0617
  542SOL     MW 2168   0.893   2.285   2.764  0.3677 -0.2568 -0.4957
  543SOL     OW 2169   1.394   2.614   2.670  0.3001 -0.8461  0.1868
  543SOL    HW1 2170   1.427   2.533   2.632 -2.3193 -1.1126  0.2159
  543SOL    HW2 2171   1.469   2.677   2.685  1.4705  0.1046 -1.0797
  543SOL     MW 2172   1.408   2.611   2.667  0.1089 -0.7559  0.0236
  544SOL     OW 2173   0.704   0.107   2.601  0.0552  0.7166  1.1122
  544SOL    HW1 2174   0.617   0.080   2.603 -2.2571 -1.2354 -0.9216
  544SOL    HW2 2175   0.738   0.067   2.523  0.1263  3.7748 -2.1622
  544SOL     MW 2176   0.697   0.098   2.591 -0.2405  0.8625  0.4118
  545SOL     OW 2177   1.551   2.170   2.334 -0.5834 -0.3422  0.1196
  545SOL    HW1 2178   1.504   2.097   2.368  1.7294  1.6070 -3.4163
  545SOL    HW2 2179   1.621   2.115   2.298 -0.1130 -2.7494 -0.3952
  545SOL     MW 2180   1.554   2.153   2.334 -0.2162 -0.4027 -0.4148
  546SOL     OW 2181   2.989   2.003   0.092  0.2490 -0.3715 -0.0585
  546SOL    HW1 2182   2.971   2.084   0.040  0.2479 -0.5214 -2.0015
  546SOL    HW2 2183   3.077   1.963   0.054  1.3467 -2.4494 -0.5114
  546SOL     MW 2184   2.998   2.009   0.080  0.3937 -0.6654 -0.3746
  547SOL     OW 2185   0.128   2.930   0.062 -0.0819  0.5289  0.2456
  547SOL    HW1 2186   0.163   2.947  -0.027  1.9427 -3.3890  0.8271
  547SOL    HW2 2187   0.191   2.868   0.103  1.8785  0.6335  1.4508
  547SOL     MW 2188   0.141   2.924   0.056  0.4439  0.0258  0.4813
  548SOL     OW 2189   0.328   2.496   0.268 -0.2230  0.5663 -0.2904
  548SOL    HW1 2190   0.316   2.576   0.214 -4.1649  2.5848  0.8155
  548SOL    HW2 2191   0.247   2.444   0.244 -1.7202 -1.6326  0.4559
  548SOL     MW 2192   0.316   2.500   0.258 -0.9406  0.5425 -0.0460
  549SOL     OW 2193   0.695   1.857   2.124 -0.1561  0.6668 -0.1258
  549SOL    HW1 2194   0.715   1.941   2.072  2.3327  5.1070 -0.7763
  549SOL    HW2 2195   0.728   1.865   2.216 -0.0321 -2.7336 -0.0877
  549SOL     MW 2196   0.702   1.869   2.130  0.1886  0.8040 -0.2066
  550SOL     OW 2197   1.830   1.744   2.552 -0.3725  0.0030  0.6193
  550SOL    HW1 2198   1.829   1.746   2.461  1.2834 -0.0610  0.5443
  550SOL    HW2 2199   1.816   1.828   2.592  0.3327 -1.2626 -0.1835
  550SOL     MW 2200   1.828   1.755   2.545 -0.0610 -0.1724  0.5035
  551SOL     OW 2201   0.867   2.311   0.260  0.4634 -0.1340 -0.0416
  551SOL    HW1 2202   0.936   2.362   0.221  1.0664  0.8846  1.3282
  551SOL    HW2 2203   0.859   2.233   0.206 -1.1531  1.1381 -0.8683
  551SOL     MW 2204   0.875   2.307   0.248  0.3297  0.1683  0.0301
  552SOL     OW 2205   1.753   1.772   2.282  0.7664  0.1004  0.0033
  552SOL    HW1 2206   1.662   1.748   2.290  1.1521  2.5324  0.4911
  552SOL    HW2 2207   1.810   1.721   2.219 -0.5357  0.8644  1.5087
  552SOL     MW 2208   1.749   1.762   2.274  0.6455  0.5221  0.2662
  553SOL     OW 2209   1.216   2.333   1.529 -0.3112 -0.2098  0.5517
  553SOL    HW1 2210   1.266   2.251   1.530  0.3723 -0.8220 -0.9057
  553SOL    HW2 2211   1.264   2.395   1.471 -1.1018  1.0862 -0.5487
  553SOL     MW 2212   1.229   2.331   1.522 -0.3253 -0.1196  0.2142
  554SOL     OW 2213   0.554   2.824   2.709  0.4421  0.1645 -0.3860
  554SOL    HW1 2214   0.516   2.895   2.652  0.2441  1.6989  0.7347
  554SOL    HW2 2215   0.591   2.769   2.649  1.7916 -0.0463  2.2565
  554SOL     MW 2216   0.554   2.826   2.693  0.5940  0.3391  0.1105
  555SOL     OW 2217   0.586   2.381   2.613  0.1903 -0.1477 -0.3569
  555SOL    HW1 2218   0.595   2.294   2.648  2.1753 -1.8963  0.3307
  555SOL    HW2 2219   0.651   2.383   2.546  0.8447  2.3631  3.4774
  555SOL     MW 2220   0.596   2.370   2.609  0.5385 -0.0471  0.2397
  556SOL     OW 2221   1.046   1.794   0.137 -0.3338 -0.4552  0.2044
  556SOL    HW1 2222   1.038   1.766   0.041  1.4470 -4.9288  0.6355
  556SOL    HW2 2223   1.137   1.798   0.157 -1.0595  0.4668  0.3743
  556SOL     MW 2224   1.057   1.791   0.127 -0.1946 -0.9238  0.2837
  557SOL     OW 2225   1.005   2.688   0.482 -0.6131 -0.0964  0.1562
  557SOL    HW1 2226   1.067   2.671   0.409 -1.0836  0.4949  1.0986
  557SOL    HW2 2227   0.945   2.767   0.455  0.4451  1.4412  1.1332
  557SOL     MW 2228   1.006   2.696   0.468 -0.5355  0.1845  0.4095
  558SOL     OW 2229   0.289   2.113   3.081 -0.3776  0.2694 -0.0334
  558SOL    HW1 2230   0.277   2.024   3.097  2.9853  0.9750  0.7980
  558SOL    HW2 2231   0.222   2.165   3.118  0.7291  0.9432 -1.3754
  558SOL     MW 2232   0.278   2.108   3.088  0.2121  0.4514 -0.1008
  559SOL     OW 2233   1.183   2.300   2.060 -0.0571  0.0493  0.0275
  559SOL    HW1 2234   1.147   2.386   2.091 -1.2952  2.1565 -0.6760
  559SOL    HW2 2235   1.190   2.249   2.145 -2.4476  1.4781 -1.0627
  559SOL     MW 2236   1.179   2.304   2.075 -0.5358  0.5158 -0.2092
  560SOL     OW 2237   1.961   2.887   0.019  0.4436 -1.1479 -0.4301
  560SOL    HW1 2238   2.034   2.925  -0.034 -0.9731  0.0124 -0.8270
  560SOL    HW2 2239   1.909   2.844  -0.053  0.4660  0.1865 -1.6937
  560SOL     MW 2240   1.964   2.886   0.002  0.2597 -0.8187 -0.6492
  561SOL     OW 2241   0.472   2.091   0.196  0.5178  0.1170  0.9010
  561SOL    HW1 2242   0.424   2.096   0.112 -1.9462 -0.1391 -5.1076
  561SOL    HW2 2243   0.492   2.183   0.211 -0.9869 -1.2407  2.2585
  561SOL     MW 2244   0.468   2.104   0.187 -0.0058 -0.0959  0.2874
  562SOL     OW 2245   0.892   2.162   2.202  0.3479  0.1256 -0.6308
  562SOL    HW1 2246   0.862   2.253   2.202 -0.5356 -0.8787  0.4718
  562SOL    HW2 2247   0.987   2.154   2.214  0.9801  1.8306 -0.8331
  562SOL     MW 2248   0.900   2.173   2.204  0.3147  0.2181 -0.5120
  563SOL     OW 2249   1.221   0.283   0.578 -0.1704  0.0640  0.0860
  563SOL    HW1 2250   1.177   0.265   0.493  0.5230  0.3024 -1.6644
  563SOL    HW2 2251   1.262   0.195   0.601  1.4255 -0.1532  2.3276
  563SOL     MW 2252   1.221   0.269   0.570  0.1316  0.0668  0.1508
  564SOL     OW 2253   1.016   2.599   2.364  0.0479 -0.5795  0.6262
  564SOL    HW1 2254   1.071   2.586   2.286 -0.5085  2.7972  0.5643
  564SOL    HW2 2255   1.059   2.660   2.422 -1.2770  0.2875 -3.1445
  564SOL     MW 2256   1.029   2.605   2.362 -0.2003 -0.0196  0.1205
  565SOL     OW 2257   2.922   2.636   2.604 -0.0243 -0.5732 -0.5653
  565SOL    HW1 2258   2.994   2.697   2.580  2.7326  3.8664 -0.3595
  565SOL    HW2 2259   2.843   2.633   2.543  0.6329  1.1599  0.5764
  565SOL     MW 2260   2.921   2.644   2.593  0.4261  0.2413 -0.3875
  566SOL     OW 2261   2.253   1.940   2.359  0.1418 -0.0482 -0.2887
  566SOL    HW1 2262   2.280   1.941   2.267 -1.2829  0.3936 -1.8878
  566SOL    HW2 2263   2.299   2.016   2.402 -0.3712  0.5709  0.0839
  566SOL     MW 2264   2.263   1.950   2.353 -0.1139  0.0918 -0.4505
  567SOL     OW 2265   1.191   2.920   0.040  0.2589 -0.2934 -0.3752
  567SOL    HW1 2266   1.247   3.002   0.031  2.0933 -0.4505 -2.3297
  567SOL    HW2 2267   1.177   2.891  -0.055  0.5088 -3.1961 -0.3768
  567SOL     MW 2268   1.197   2.927   0.026  0.5339 -0.6971 -0.6333
  568SOL     OW 2269   1.651   2.131   2.840 -0.1231 -0.0389  0.2337
  568SOL    HW1 2270   1.693   2.190   2.909 -1.0931  0.4471  1.6154
  568SOL    HW2 2271   1.725   2.091   2.796 -2.9103  2.0214 -0.7251
  568SOL     MW 2272   1.666   2.134   2.843 -0.6188  0.2971  0.2895
  569SOL     OW 2273   0.096   2.173   2.430  0.2693 -0.0024 -0.2483
  569SOL    HW1 2274   0.072   2.238   2.363  0.5673 -2.7968 -0.0971
  569SOL    HW2 2275   0.113   2.222   2.513  2.3180  1.3064 -1.9668
  569SOL     MW 2276   0.095   2.188   2.432  0.5789 -0.1984 -0.4551
  570SOL     OW 2277   1.430   0.423   0.489 -0.2854  0.2350  0.1319
  570SOL    HW1 2278   1.362   0.356   0.512 -1.6615  0.7739  1.8210
  570SOL    HW2 2279   1.489   0.422   0.561 -4.5004 -1.7687 -3.1928
  570SOL     MW 2280   1.428   0.414   0.501 -1.0231  0.0418 -0.0839
  571SOL     OW 2281   1.475   2.400   1.957  0.0724 -0.1320 -0.7419
  571SOL    HW1 2282   1.504   2.436   2.043  1.2040  0.7154 -2.9523
  571SOL    HW2 2283   1.439   2.316   1.987 -0.8227  0.7958  1.0158
  571SOL     MW 2284   1.474   2.393   1.973  0.1036  0.1022 -0.8016
  572SOL     OW 2285   0.923   2.596   3.082  0.0860  0.3275  0.1891
  572SOL    HW1 2286   0.889   2.633   3.001  1.2952  0.5329 -0.2948
  572SOL    HW2 2287   0.842   2.564   3.123  1.0674  1.3840 -1.2336
  572SOL     MW 2288   0.907   2.597   3.077  0.3750  0.4940 -0.0625
  573SOL     OW 2289   1.111   2.416   0.198  0.2101 -0.1100  0.0070
  573SOL    HW1 2290   1.199   2.387   0.161 -0.1573 -2.0157  3.0022
  573SOL    HW2 2291   1.111   2.515   0.206  0.9550  4.3837 -0.5416
  573SOL     MW 2292   1.122   2.425   0.194  0.2599  0.2314  0.3298
  574SOL     OW 2293   1.158   2.682   0.243  0.0115 -0.3799  0.5298
  574SOL    HW1 2294   1.254   2.691   0.263 -2.2067 -1.5459  0.5908
  574SOL    HW2 2295   1.136   2.750   0.180  0.0235  1.9447 -1.2826
  574SOL     MW 2296   1.168   2.692   0.237 -0.2796 -0.2270  0.2987
  575SOL     OW 2297   3.053   2.323   1.884 -0.0409  0.0902 -0.4047
  575SOL    HW1 2298   3.033   2.257   1.817 -0.6447 -1.8400 -1.3315
  575SOL    HW2 2299   3.113   2.385   1.836  0.9221  1.6087  1.1735
  575SOL     MW 2300   3.059   2.323   1.869  0.0065  0.0359 -0.3187
  576SOL     OW 2301   2.820   1.824   2.042 -0.7749  0.5973  0.1045
  576SOL    HW1 2302   2.833   1.907   1.996 -1.5932  0.3557  2.3759
  576SOL    HW2 2303   2.728   1.803   2.021 -1.1408  0.5122  0.9047
  576SOL     MW 2304   2.809   1.832   2.033 -0.9311  0.5542  0.5097
  577SOL     OW 2305   2.083   0.237   0.080  0.4911  0.3247 -0.1281
  577SOL    HW1 2306   2.021   0.297   0.050 -0.0535  1.2936  1.8217
  577SOL    HW2 2307   2.034   0.171   0.139 -1.7645  0.7890  3.0031
  577SOL     MW 2308   2.068   0.236   0.084  0.1216  0.5138  0.5423
  578SOL     OW 2309   2.034   2.098   2.381  0.2625 -0.2576  0.5769
  578SOL    HW1 2310   1.956   2.058   2.333  0.0695 -2.0434  2.9740
  578SOL    HW2 2311   2.110   2.033   2.381 -0.6925 -1.9092 -1.1616
  578SOL     MW 2312   2.034   2.084   2.375  0.1110 -0.7111  0.6638
  579SOL     OW 2313   0.846   2.426   2.510  0.0079 -0.2625 -0.8288
  579SOL    HW1 2314   0.862   2.382   2.592 -2.4226  1.2774 -0.1987
  579SOL    HW2 2315   0.938   2.454   2.490 -0.6241  0.0409 -0.4720
  579SOL     MW 2316   0.860   2.424   2.518 -0.3962 -0.0193 -0.6986
  580SOL     OW 2317   0.919   2.922   0.026 -0.9006  0.4092 -0.0094
  580SOL    HW1 2318   1.011   2.886   0.035  0.2854 -2.2726  1.0596
  580SOL    HW2 2319   0.878   2.856  -0.032  1.2244  0.7765  2.1964
  580SOL     MW 2320   0.925   2.909   0.020 -0.4637  0.1038  0.4226
  581SOL     OW 2321   1.102   2.530   1.736 -0.2784 -0.2359 -0.4393
  581SOL    HW1 2322   1.187   2.548   1.699 -0.0114 -1.6930  0.4461
  581SOL    HW2 2323   1.101   2.432   1.746  0.0523 -0.4148 -3.0693
  581SOL     MW 2324   1.113   2.519   1.732 -0.1996 -0.4518 -0.6695
  582SOL     OW 2325   0.009   2.839   2.561  0.0870 -0.2415 -0.8054
  582SOL    HW1 2326   0.035   2.906   2.624 -1.6503 -2.5633 -0.3460
  582SOL    HW2 2327   0.100   2.808   2.532  2.3909  0.3404 -0.3442
  582SOL     MW 2328   0.024   2.844   2.566  0.1618 -0.4710 -0.6839
  583SOL     OW 2329   1.982   2.455   2.645  0.0090  0.0001 -0.1929
  583SOL    HW1 2330   2.047   2.505   2.595  1.4448  2.2145 -1.6437
  583SOL    HW2 2331   1.993   2.364   2.613 -0.6863 -3.7244  0.0531
  583SOL     MW 2332   1.992   2.449   2.634  0.1067 -0.1991 -0.3519
  584SOL     OW 2333   0.189   1.849   2.107  0.0797 -0.0217  0.4125
  584SOL    HW1 2334   0.281   1.854   2.070  1.2590  0.0522 -0.6826
  584SOL    HW2 2335   0.201   1.883   2.199 -0.0356  1.9976 -0.8158
  584SOL     MW 2336   0.203   1.854   2.114  0.2201  0.2545  0.1059
  585SOL     OW 2337   1.495   2.556   0.030  0.0968  0.0007  0.1731
  585SOL    HW1 2338   1.426   2.565  -0.039 -3.4748 -0.9409  0.8450
  585SOL    HW2 2339   1.469   2.628   0.096  0.8775  1.0806  2.9534
  585SOL     MW 2340   1.482   2.567   0.030 -0.2714  0.0189  0.6286
  586SOL     OW 2341   1.240   3.010   2.377 -0.2381 -0.2843 -0.2539
  586SOL    HW1 2342   1.316   2.949   2.359 -0.2778 -0.5713  0.1942
  586SOL    HW2 2343   1.247   3.041   2.473 -1.1324 -0.1234  2.7329
  586SOL     MW 2344   1.251   3.006   2.387 -0.3613 -0.3009  0.1993
  587SOL     OW 2345   1.228   1.622   2.144  0.4508  0.0512 -0.5748
  587SOL    HW1 2346   1.204   1.548   2.202  0.9918 -0.1141  0.2043
  587SOL    HW2 2347   1.223   1.587   2.060 -0.2381  1.5909 -1.7552
  587SOL     MW 2348   1.224   1.608   2.140  0.4313  0.2325 -0.6278
  588SOL     OW 2349   1.416   2.117   2.730  0.0557 -0.3309 -0.0425
  588SOL    HW1 2350   1.498   2.112   2.772 -0.5439 -2.9768  1.2701
  588SOL    HW2 2351   1.362   2.118   2.811  2.0976 -0.6157 -0.1810
  588SOL     MW 2352   1.419   2.116   2.747  0.2460 -0.7176  0.1124
  589SOL     OW 2353   1.355   2.065   0.070  0.0419  0.0779 -0.1700
  589SOL    HW1 2354   1.379   2.144   0.120 -0.6200  0.8397  0.2015
  589SOL    HW2 2355   1.332   1.998   0.134  3.0232  0.9278  0.7233
  589SOL     MW 2356   1.355   2.067   0.085  0.3479  0.2905 -0.0031
  590SOL     OW 2357   0.425   2.613   2.242 -0.3844 -0.0327 -0.0210
  590SOL    HW1 2358   0.378   2.637   2.163  0.2521  0.7756  0.1861
  590SOL    HW2 2359   0.512   2.648   2.227 -0.8510  0.0654  0.1288
  590SOL     MW 2360   0.430   2.621   2.230 -0.3620  0.0869  0.0261
  591SOL     OW 2361   2.296   0.710   3.069  0.5251 -0.3879  0.7144
  591SOL    HW1 2362   2.222   0.759   3.031  0.3452  2.7270  2.3379
  591SOL    HW2 2363   2.374   0.753   3.037  0.0042  1.7934 -0.4453
  591SOL     MW 2364   2.296   0.722   3.059  0.4326  0.3109  0.7756
  592SOL     OW 2365   1.847   2.997   0.847  0.0256  0.6117 -0.2111
  592SOL    HW1 2366   1.832   3.044   0.767  1.2110  1.3885  1.5280
  592SOL    HW2 2367   1.894   2.918   0.808 -1.7149 -3.5994  0.5956
  592SOL     MW 2368   1.851   2.993   0.831 -0.0476  0.1586  0.1248
  593SOL     OW 2369   1.911   0.791   0.856 -0.4056 -0.5451  0.4762
  593SOL    HW1 2370   1.851   0.767   0.784 -0.8861 -4.5690 -1.1791
  593SOL    HW2 2371   1.936   0.703   0.882  2.0281  0.8537  1.9356
  593SOL     MW 2372   1.906   0.776   0.850 -0.1479 -0.8915  0.4503
  594SOL     OW 2373   2.724   1.123   1.363 -0.3641 -0.1636  0.5929
  594SOL    HW1 2374   2.809   1.157   1.399  1.6953  2.4379 -0.8652
  594SOL    HW2 2375   2.724   1.100   1.270  0.1314  0.9423  0.4438
  594SOL     MW 2376   2.735   1.125   1.355 -0.0270  0.3256  0.3809
  595SOL     OW 2377   0.456   0.936   0.722 -0.3203  0.2272 -0.4666
  595SOL    HW1 2378   0.474   0.995   0.652  2.7708 -1.7732  1.7126
  595SOL    HW2 2379   0.467   0.989   0.799  0.3176 -0.7089 -0.3737
  595SOL     MW 2380   0.460   0.951   0.723  0.1717 -0.1602 -0.1668
  596SOL     OW 2381   2.437   1.360   0.585 -0.4349  0.4841  0.0376
  596SOL    HW1 2382   2.471   1.446   0.573 -0.7036  1.8482  3.7453
  596SOL    HW2 2383   2.509   1.316   0.631  0.8244  2.8427  0.9258
  596SOL     MW 2384   2.451   1.365   0.590 -0.3042  0.9753  0.6440
  597SOL     OW 2385   2.189   0.661   1.733 -0.4761 -0.3222 -0.0294
  597SOL    HW1 2386   2.265   0.605   1.756 -0.5539  0.1835 -3.2733
  597SOL    HW2 2387   2.182   0.644   1.639  1.3865  1.9872  1.5558
  597SOL     MW 2388   2.198   0.651   1.724 -0.2406  0.0492 -0.2482
  598SOL     OW 2389   2.595   1.018   2.861  0.2845 -0.0879 -0.7155
  598SOL    HW1 2390   2.648   0.971   2.788 -2.9339  0.7028 -0.2740
  598SOL    HW2 2391   2.665   1.060   2.921  2.1962  1.8437 -0.2923
  598SOL     MW 2392   2.611   1.017   2.859  0.1121  0.2713 -0.6014
  599SOL     OW 2393   2.928   0.353   2.016  0.0107 -0.4303  0.1562
  599SOL    HW1 2394   2.886   0.353   2.104  1.5896  0.8647 -1.4517
  599SOL    HW2 2395   2.945   0.445   1.998  2.7198 -1.3751  0.0075
  599SOL     MW 2396   2.925   0.365   2.025  0.5764 -0.3841 -0.0755
  600SOL     OW 2397   1.892   1.725   0.890 -0.3579  0.3377 -0.0402
  600SOL    HW1 2398   1.886   1.695   0.982  1.0088 -1.2881  0.3182
  600SOL    HW2 2399   1.806   1.765   0.875  2.7317 -0.3777  0.0888
  600SOL     MW 2400   1.880   1.726   0.900  0.2301  0.0288  0.0241
  601SOL     OW 2401   2.542   0.807   0.867 -0.5734  0.2630 -0.1370
  601SOL    HW1 2402   2.546   0.802   0.967 -0.8134 -0.1639 -0.3226
  601SOL    HW2 2403   2.469   0.761   0.838  2.8499 -0.8478 -1.4021
  601SOL     MW 2404   2.533   0.800   0.876 -0.1534  0.0601 -0.3284
  602SOL     OW 2405   2.312   1.921   0.695  0.1243 -0.3255  0.4876
  602SOL    HW1 2406   2.255   1.870   0.754  0.5920 -0.6992  0.8075
  602SOL    HW2 2407   2.252   1.990   0.660 -0.2725  0.0025 -3.1239
  602SOL     MW 2408   2.297   1.924   0.698  0.1337 -0.3315  0.0533
  603SOL     OW 2409   2.980   1.403   1.791  0.2292  0.1046 -0.1236
  603SOL    HW1 2410   3.065   1.428   1.831 -1.5837 -1.2485 -0.6843
  603SOL    HW2 2411   2.975   1.312   1.800  1.0785  0.0142 -0.8624
  603SOL     MW 2412   2.991   1.394   1.797  0.1021 -0.0859 -0.2951
  604SOL     OW 2413   2.117   1.588   0.446 -0.0810  0.4134 -0.0427
  604SOL    HW1 2414   2.132   1.506   0.489 -0.2371  0.6938 -1.6921
  604SOL    HW2 2415   2.054   1.632   0.506  2.6264  2.2112  0.7946
  604SOL     MW 2416   2.110   1.583   0.459  0.2556  0.6876 -0.1498
  605SOL     OW 2417   2.666   1.571   0.862  0.6163  0.0938 -0.2889
  605SOL    HW1 2418   2.598   1.604   0.808  1.6777 -1.7249  2.6973
  605SOL    HW2 2419   2.615   1.523   0.930  0.4573 -0.8580 -2.7358
  605SOL     MW 2420   2.651   1.569   0.864  0.7354 -0.2717 -0.2178
  606SOL     OW 2421   2.561   1.764   1.989  0.7875 -0.1618 -0.5047
  606SOL    HW1 2422   2.471   1.799   1.973  2.1849  2.1266 -1.2203
  606SOL    HW2 2423   2.579   1.691   1.926 -1.4495  2.1973 -3.3867
  606SOL     MW 2424   2.552   1.759   1.978  0.6767  0.4514 -0.9794
  607SOL     OW 2425   2.356   1.003   3.004 -0.2695 -0.0099  0.0954
  607SOL    HW1 2426   2.420   0.971   2.941  0.5055  0.1383  1.9610
  607SOL    HW2 2427   2.415   1.026   3.081  0.3015  0.3700  0.1300
  607SOL     MW 2428   2.372   1.002   3.006 -0.0919  0.0598  0.3461
  608SOL     OW 2429   1.892   0.293   0.560 -0.3318  0.3997  0.0242
  608SOL    HW1 2430   1.902   0.352   0.487 -0.8195  1.2206  0.1852
  608SOL    HW2 2431   1.859   0.198   0.538 -1.3467 -2.2398 -2.9384
  608SOL     MW 2432   1.889   0.288   0.548 -0.5301  0.1598 -0.3454
  609SOL     OW 2433   2.163   1.948   3.049 -0.1809 -0.0388 -0.0883
  609SOL    HW1 2434   2.083   1.907   3.010  0.0314  1.1141 -1.3625
  609SOL    HW2 2435   2.160   1.919   3.141 -0.1036  2.1474 -0.5402
  609SOL     MW 2436   2.152   1.939   3.056 -0.1427  0.4017 -0.3160
  610SOL     OW 2437   1.852   1.062   1.310  0.2564  0.1511 -0.7027
  610SOL    HW1 2438   1.864   1.008   1.227  1.2232 -0.2267  0.4396
  610SOL    HW2 2439   1.781   1.011   1.353  0.8232 -2.1404  0.7603
  610SOL     MW 2440   1.845   1.048   1.304  0.4587 -0.2011 -0.3590
  611SOL     OW 2441   2.451   1.652   0.710 -0.1350 -0.1265 -0.3206
  611SOL    HW1 2442   2.420   1.740   0.707  0.8318 -0.2234  1.8784
  611SOL    HW2 2443   2.462   1.636   0.610 -1.2467  4.6502 -0.8649
  611SOL     MW 2444   2.448   1.661   0.697 -0.1541  0.4909 -0.1023
  612SOL     OW 2445   2.785   2.844   0.467  0.3891  0.2203  0.3264
  612SOL    HW1 2446   2.813   2.897   0.544 -2.1809 -0.9714  0.3769
  612SOL    HW2 2447   2.870   2.819   0.426 -0.0888 -1.7323  1.1425
  612SOL     MW 2448   2.800   2.847   0.472 -0.0130 -0.1946  0.4407
  613SOL     OW 2449   1.556   1.057   1.104 -0.3404 -0.1833 -0.6484
  613SOL    HW1 2450   1.553   1.150   1.133 -2.0807 -2.2165 -0.7655
  613SOL    HW2 2451   1.630   1.015   1.150 -1.6930 -1.2327  0.5953
  613SOL     MW 2452   1.566   1.063   1.114 -0.7485 -0.5900 -0.4998
  614SOL     OW 2453   2.047   0.568   1.499  0.3906  0.2808  0.1620
  614SOL    HW1 2454   2.054   0.495   1.560 -1.0755 -0.3161  2.1009
  614SOL    HW2 2455   2.047   0.520   1.416  1.8531 -0.2597 -0.8206
  614SOL     MW 2456   2.048   0.552   1.496  0.3901  0.1308  0.2882
  615SOL     OW 2457   2.269   0.843   0.219 -0.5423 -0.2688  0.2692
  615SOL    HW1 2458   2.321   0.791   0.276 -0.7711 -0.0647  0.0495
  615SOL    HW2 2459   2.278   0.802   0.136 -1.5972 -1.7992  3.0210
  615SOL     MW 2460   2.277   0.831   0.216 -0.7116 -0.4438  0.6033
  616SOL     OW 2461   2.532   0.429   1.615 -0.4616  0.0668  0.1682
  616SOL    HW1 2462   2.463   0.372   1.581  0.7875 -0.5660 -1.4219
  616SOL    HW2 2463   2.599   0.434   1.543  0.6120 -0.5735  1.2260
  616SOL     MW 2464   2.532   0.422   1.601 -0.1551 -0.1011  0.0980
  617SOL     OW 2465   2.863   0.577   1.719 -0.3487  0.2262  0.2870
  617SOL    HW1 2466   2.814   0.642   1.761 -0.2727 -1.3382  0.1628
  617SOL    HW2 2467   2.814   0.500   1.748 -1.1245  2.3046  0.9427
  617SOL     MW 2468   2.850   0.576   1.728 -0.4410  0.2940  0.3571
  618SOL     OW 2469   2.667   0.356   1.896  0.6383 -0.2969  0.0003
  618SOL    HW1 2470   2.644   0.437   1.940 -0.0940 -0.7587 -1.3919
  618SOL    HW2 2471   2.758   0.335   1.915 -0.2690  0.2635 -0.3963
  618SOL     MW 2472   2.676   0.364   1.905  0.4220 -0.2839 -0.2357
  619SOL     OW 2473   2.582   0.796   0.163  0.2149 -0.6321  0.0429
  619SOL    HW1 2474   2.668   0.835   0.197  0.0728 -0.8274  2.0492
  619SOL    HW2 2475   2.531   0.759   0.243 -1.7098 -2.7235  0.5183
  619SOL     MW 2476   2.587   0.796   0.178 -0.0578 -0.9338  0.3704
  620SOL     OW 2477   2.293   1.090   0.944  0.1856 -0.3853 -0.2692
  620SOL    HW1 2478   2.318   1.139   0.864  1.0247  1.2176  0.7942
  620SOL    HW2 2479   2.300   0.998   0.910  2.0607  1.1519 -2.1095
  620SOL     MW 2480   2.297   1.084   0.929  0.5437  0.0290 -0.3717
  621SOL     OW 2481   1.483   2.119   2.004  0.2589 -0.3069 -0.2465
  621SOL    HW1 2482   1.414   2.058   2.000  0.4767  1.1883  2.6095
  621SOL    HW2 2483   1.553   2.086   2.056  0.6435  0.8299  1.5566
  621SOL     MW 2484   1.483   2.107   2.010  0.3384  0.0404  0.3682
  622SOL     OW 2485   2.623   0.136   0.217  0.3575 -0.1387  0.3998
  622SOL    HW1 2486   2.719   0.140   0.239 -0.6855 -1.8090  1.8271
  622SOL    HW2 2487   2.604   0.041   0.183  3.3003 -0.5711  1.9720
  622SOL     MW 2488   2.633   0.124   0.215  0.6082 -0.4162  0.7956
  623SOL     OW 2489   2.350   2.747   0.874 -0.1260 -0.8088  0.5491
  623SOL    HW1 2490   2.403   2.824   0.870 -1.2098 -0.2513  0.7697
  623SOL    HW2 2491   2.277   2.771   0.929 -0.5838 -0.9111 -0.2983
  623SOL     MW 2492   2.347   2.761   0.881 -0.3294 -0.7488  0.4664
  624SOL     OW 2493   2.256   1.656   3.045  0.2979  0.0635  0.0510
  624SOL    HW1 2494   2.180   1.616   3.080 -0.6101 -1.5577 -0.6361
  624SOL    HW2 2495   2.240   1.749   3.040  1.5748  0.1238  0.8101
  624SOL     MW 2496   2.244   1.663   3.049  0.3466 -0.1424  0.0605
  625SOL     OW 2497   2.124   1.945   1.056 -0.2916  0.4165  0.3503
  625SOL    HW1 2498   2.184   1.918   1.123  0.1795  2.9384 -1.2664
  625SOL    HW2 2499   2.151   1.887   0.986 -2.0091 -0.5487 -0.3593
  625SOL     MW 2500   2.136   1.934   1.056 -0.4560  0.6219  0.0434
  626SOL     OW 2501   0.169   1.558   2.345  0.5516  0.4505 -0.6124
  626SOL    HW1 2502   0.170   1.467   2.360  0.4728  3.2525 -1.8128
  626SOL    HW2 2503   0.125   1.595   2.420 -0.1280  3.2759 -1.3976
  626SOL     MW 2504   0.163   1.551   2.357  0.4515  1.1930 -0.8744
  627SOL     OW 2505   2.468   0.823   2.586  0.7908  0.3653  0.6474
  627SOL    HW1 2506   2.399   0.892   2.564 -1.4469 -1.9239  0.7761
  627SOL    HW2 2507   2.436   0.739   2.555  0.3932  1.1360 -0.4287
  627SOL     MW 2508   2.455   0.821   2.579  0.4431  0.1649  0.5224
  628SOL     OW 2509   2.261   1.368   1.356 -0.3320  0.0890  0.0844
  628SOL    HW1 2510   2.245   1.310   1.286 -1.0530 -0.7520  3.6284
  628SOL    HW2 2511   2.353   1.346   1.370  0.5126 -0.8874  2.0197
  628SOL     MW 2512   2.271   1.357   1.349 -0.3157 -0.1508  0.8073
  629SOL     OW 2513   2.007   0.545   1.227 -0.1334  0.0357  0.2550
  629SOL    HW1 2514   2.063   0.630   1.215  2.3485 -0.2644 -1.3206
  629SOL    HW2 2515   1.915   0.573   1.224  0.3632  0.6129 -0.6137
  629SOL     MW 2516   2.002   0.560   1.225  0.2596  0.0722 -0.0675
  630SOL     OW 2517   2.515   1.808   3.033 -0.3687 -0.0698 -0.7006
  630SOL    HW1 2518   2.468   1.876   2.989 -1.7480  1.5148 -1.2274
  630SOL    HW2 2519   2.456   1.744   3.058 -0.5642  1.0653 -1.1112
  630SOL     MW 2520   2.501   1.809   3.030 -0.5765  0.2890 -0.8243
  631SOL     OW 2521   1.975   1.801   1.571  0.4238  0.2856 -0.2582
  631SOL    HW1 2522   1.979   1.713   1.613 -2.4544  0.2505 -0.0325
  631SOL    HW2 2523   1.937   1.792   1.481 -0.4004 -1.0603 -1.3573
  631SOL     MW 2524   1.971   1.789   1.565 -0.0647  0.1034 -0.3734
  632SOL     OW 2525   0.135   2.091   1.540 -0.1912  0.0545 -0.8240
  632SOL    HW1 2526   0.087   2.057   1.621 -0.9434 -1.7915  1.3931
  632SOL    HW2 2527   0.164   2.002   1.505 -2.1456  1.0789  0.4972
  632SOL     MW 2528   0.133   2.075   1.546 -0.5483 -0.0539 -0.3572
  633SOL     OW 2529   2.421   0.672   0.355 -0.2825 -0.5031  0.2174
  633SOL    HW1 2530   2.479   0.678   0.431  2.1454 -0.0132  0.5212
  633SOL    HW2 2531   2.361   0.593   0.353  1.5487 -1.0127 -1.3648
  633SOL     MW 2532   2.421   0.662   0.365  0.2794 -0.5057  0.0487
  634SOL     OW 2533   2.651   3.091   0.660  0.0581  0.4349  0.5908
  634SOL    HW1 2534   2.704   3.170   0.655  2.4882 -1.2436 -0.1576
  634SOL    HW2 2535   2.607   3.086   0.572 -2.0627  0.5682 -1.0403
  634SOL     MW 2536   2.652   3.101   0.648  0.0989  0.2310  0.2768
  635SOL     OW 2537   2.587   0.088   1.802  0.2655 -0.5168  0.1661
  635SOL    HW1 2538   2.670   0.057   1.764  0.1915 -3.3631 -0.5980
  635SOL    HW2 2539   2.607   0.176   1.832 -1.0516 -1.1955  2.1378
  635SOL     MW 2540   2.600   0.095   1.801  0.0820 -0.9819  0.3255
  636SOL     OW 2541   2.936   1.671   0.963 -0.5461  0.4721 -0.0513
  636SOL    HW1 2542   2.845   1.695   0.937 -3.6521 -1.1203  2.4839
  636SOL    HW2 2543   2.945   1.736   1.032 -1.0481  1.9012 -0.1867
  636SOL     MW 2544   2.925   1.682   0.968 -1.0221  0.4505  0.2653
  637SOL     OW 2545   2.877   1.492   0.678 -0.2141  0.2355 -0.2140
  637SOL    HW1 2546   2.951   1.538   0.710 -2.6302 -1.1816 -0.4820
  637SOL    HW2 2547   2.801   1.513   0.738 -1.1272  1.3806 -0.9786
  637SOL     MW 2548   2.877   1.501   0.690 -0.6534  0.1996 -0.3502
  638SOL     OW 2549   2.659   0.639   0.509  0.4863 -0.4595  0.2386
  638SOL    HW1 2550   2.747   0.637   0.480  0.6042 -0.8726  1.4399
  638SOL    HW2 2551   2.672   0.614   0.600 -1.0558  4.3163  1.0631
  638SOL     MW 2552   2.673   0.635   0.517  0.2984  0.1161  0.5059
  639SOL     OW 2553   1.838   0.029   0.532 -0.4339  0.5889 -0.6037
  639SOL    HW1 2554   1.749   0.061   0.534  0.7158 -2.2676 -1.6830
  639SOL    HW2 2555   1.841  -0.052   0.482  1.8397  0.3298  0.1784
  639SOL     MW 2556   1.826   0.023   0.525  0.0178  0.1779 -0.6429
  640SOL     OW 2557   0.342   1.358   0.064 -0.6643 -0.2899 -0.2937
  640SOL    HW1 2558   0.365   1.376  -0.031  0.6874  0.0875 -1.6682
  640SOL    HW2 2559   0.323   1.265   0.075  1.1896  1.7172  1.6252
  640SOL     MW 2560   0.343   1.348   0.053 -0.2413  0.0247 -0.2219
  641SOL     OW 2561   2.264   0.456   0.380  0.2559  0.1987 -0.2375
  641SOL    HW1 2562   2.269   0.433   0.287 -1.4197  0.6904  0.2079
  641SOL    HW2 2563   2.320   0.403   0.434  0.6471 -0.0779  0.0243
  641SOL     MW 2564   2.272   0.446   0.375  0.0864  0.2271 -0.1442
  642SOL     OW 2565   0.018   3.082   0.563  0.5277 -0.1209  0.1236
  642SOL    HW1 2566   0.012   3.167   0.518  1.2752 -1.0749 -0.2000
  642SOL    HW2 2567  -0.066   3.067   0.613 -1.2217  3.0464  1.2251
  642SOL     MW 2568   0.006   3.091   0.564  0.3955  0.1712  0.2263
  643SOL     OW 2569   2.021   0.346   1.686  0.1538 -0.2078  0.6709
  643SOL    HW1 2570   2.095   0.303   1.727  0.3749  1.8217  1.2857
  643SOL    HW2 2571   2.017   0.288   1.609  0.1443  1.0032  0.8323
  643SOL     MW 2572   2.030   0.333   1.681  0.1817  0.2198  0.7733
  644SOL     OW 2573   2.712   1.879   1.033 -0.0610  0.7623  0.4390
  644SOL    HW1 2574   2.653   1.836   1.100 -0.6423 -2.7205 -0.1445
  644SOL    HW2 2575   2.649   1.901   0.968 -0.8924 -1.5953  2.8561
  644SOL     MW 2576   2.696   1.876   1.033 -0.2474 -0.0083  0.6809
  645SOL     OW 2577   2.826   0.892   0.650  0.1942 -0.0938  0.2616
  645SOL    HW1 2578   2.887   0.838   0.697  1.9107  0.2416 -0.3262
  645SOL    HW2 2579   2.749   0.842   0.659  0.2850 -0.5509 -1.7173
  645SOL     MW 2580   2.824   0.878   0.658  0.4327 -0.1098 -0.0770
  646SOL     OW 2581   0.181   2.253   0.859 -0.3568  0.2899  0.3811
  646SOL    HW1 2582   0.187   2.154   0.864  1.7888 -0.7998  1.0544
  646SOL    HW2 2583   0.132   2.286   0.777  1.2317  1.6979  0.8150
  646SOL     MW 2584   0.175   2.244   0.849  0.1359  0.3319  0.5272
  647SOL     OW 2585   2.701   0.533   2.975 -0.7734 -0.2995 -0.0927
  647SOL    HW1 2586   2.630   0.478   3.016 -0.8332 -1.8871  3.0193
  647SOL    HW2 2587   2.677   0.621   2.984  2.1195 -1.9326 -1.2168
  647SOL     MW 2588   2.689   0.537   2.981 -0.3996 -0.7244  0.1696
  648SOL     OW 2589   2.186   0.722   1.164 -0.2535 -0.1356  0.0777
  648SOL    HW1 2590   2.189   0.765   1.081 -3.2131  0.5271  2.6875
  648SOL    HW2 2591   2.224   0.790   1.222 -1.0582  1.4866 -1.5922
  648SOL     MW 2592   2.192   0.737   1.161 -0.7501  0.1658  0.2017
  649SOL     OW 2593   2.397   2.729   1.262  0.2847  0.1211  0.1711
  649SOL    HW1 2594   2.466   2.795   1.246 -0.6886 -1.3854 -1.0822
  649SOL    HW2 2595   2.386   2.674   1.185  0.8784  0.8636  1.2298
  649SOL     MW 2596   2.405   2.731   1.250  0.2346  0.0203  0.1454
  650SOL     OW 2597   2.811   0.238   0.659  0.0143 -0.1355  0.4403
  650SOL    HW1 2598   2.838   0.298   0.728  1.9365  0.1776  1.3479
  650SOL    HW2 2599   2.890   0.238   0.599 -1.2508 -1.5109 -0.3038
  650SOL     MW 2600   2.825   0.246   0.660  0.1010 -0.2757  0.4619
  651SOL     OW 2601   2.997   0.366   0.841 -0.5545  0.5372  0.0775
  651SOL    HW1 2602   3.064   0.430   0.799 -0.5840  0.1502  0.6488
  651SOL    HW2 2603   2.948   0.420   0.903 -1.5902 -0.7057 -1.9624
  651SOL     MW 2604   2.999   0.382   0.843 -0.6951  0.3222 -0.1163
  652SOL     OW 2605   2.392   1.404   2.969  0.5203  0.4807 -0.0568
  652SOL    HW1 2606   2.470   1.415   2.915 -2.2456 -0.8242  0.5966
  652SOL    HW2 2607   2.357   1.495   2.988  0.4244 -0.0980 -1.3792
  652SOL     MW 2608   2.398   1.418   2.964  0.1427  0.2322 -0.1451
  653SOL     OW 2609   1.955   0.427   0.341 -0.0592  0.2771 -0.5202
  653SOL    HW1 2610   1.921   0.352   0.295 -0.8209 -0.6510  1.6351
  653SOL    HW2 2611   2.044   0.403   0.355 -1.4353 -2.5105 -3.1536
  653SOL     MW 2612   1.962   0.414   0.337 -0.3413 -0.2131 -0.5833
  654SOL     OW 2613   2.470   1.042   0.726  0.2320  0.0441  0.5471
  654SOL    HW1 2614   2.380   1.027   0.697 -0.5288  0.0420  1.4922
  654SOL    HW2 2615   2.499   0.965   0.772 -2.1114 -1.2532 -0.2127
  654SOL     MW 2616   2.462   1.030   0.728 -0.1775 -0.1273  0.5716
  655SOL     OW 2617   3.006   0.921   0.417 -0.5419 -0.1735 -0.1915
  655SOL    HW1 2618   2.936   0.956   0.474 -0.8140  0.4591 -1.1724
  655SOL    HW2 2619   2.998   0.821   0.425  2.7013 -2.4323  1.2060
  655SOL     MW 2620   2.996   0.912   0.426 -0.1499 -0.3880 -0.1365
  656SOL     OW 2621   1.952   2.731   1.223  0.2226 -0.7967 -0.0396
  656SOL    HW1 2622   1.960   2.789   1.295  1.7200 -0.3780  0.8833
  656SOL    HW2 2623   1.970   2.645   1.256 -2.1567 -0.2434 -4.9349
  656SOL     MW 2624   1.955   2.728   1.237  0.1062 -0.6685 -0.5637
  657SOL     OW 2625   0.234   1.526   1.235 -0.4030 -0.0169 -0.2223
  657SOL    HW1 2626   0.146   1.484   1.246 -1.0154  1.1193 -0.0953
  657SOL    HW2 2627   0.236   1.532   1.140  0.0885  1.1657  0.8407
  657SOL     MW 2628   0.222   1.521   1.224 -0.4190  0.2890 -0.0653
  658SOL     OW 2629   2.710   1.396   0.251  0.4507 -0.3395  0.0050
  658SOL    HW1 2630   2.648   1.346   0.301 -0.2553  1.7549  1.6988
  658SOL    HW2 2631   2.737   1.456   0.319 -1.0447  0.9085 -0.1790
  658SOL     MW 2632   2.705   1.397   0.266  0.1602  0.1015  0.2042
  659SOL     OW 2633   2.281   1.546   1.049  0.5511 -0.4716  0.4863
  659SOL    HW1 2634   2.354   1.495   1.072 -3.8068  1.0907 -2.1371
  659SOL    HW2 2635   2.231   1.579   1.125 -1.0365  1.2254  0.5849
  659SOL     MW 2636   2.284   1.544   1.062 -0.2333 -0.0416  0.1532
  660SOL     OW 2637   2.064   1.564   1.680  0.3954  0.2598  0.0426
  660SOL    HW1 2638   2.080   1.583   1.777  1.9004 -2.1237 -1.0964
  660SOL    HW2 2639   2.009   1.488   1.673  0.9549  1.9766  0.9579
  660SOL     MW 2640   2.059   1.556   1.692  0.6678  0.1718  0.0131
  661SOL     OW 2641   2.392   1.107   0.175  0.5071  0.6661 -0.3299
  661SOL    HW1 2642   2.444   1.142   0.246  4.0570  0.6034 -0.7180
  661SOL    HW2 2643   2.374   1.019   0.211  2.0456  0.8277 -0.1818
  661SOL     MW 2644   2.396   1.100   0.189  1.1784  0.6792 -0.3616
  662SOL     OW 2645   2.520   2.973   0.869  0.2121 -0.1856  0.2237
  662SOL    HW1 2646   2.477   3.035   0.931  1.7870 -1.6528 -0.4676
  662SOL    HW2 2647   2.546   3.024   0.793 -0.6346  1.0336  0.0499
  662SOL     MW 2648   2.518   2.988   0.867  0.3082 -0.2183  0.1096
  663SOL     OW 2649   2.804   1.565   0.426  0.6448 -0.2399  0.0473
  663SOL    HW1 2650   2.862   1.635   0.392 -1.9562 -0.8394 -0.5742
  663SOL    HW2 2651   2.832   1.549   0.512 -0.9537  0.9703 -1.2172
  663SOL     MW 2652   2.816   1.572   0.433  0.0907 -0.1593 -0.2016
  664SOL     OW 2653   2.493   1.596   1.542  0.0494 -0.0021  0.1813
  664SOL    HW1 2654   2.472   1.692   1.546 -3.1415 -2.1048 -3.7935
  664SOL    HW2 2655   2.420   1.546   1.574 -1.5446  0.4481 -2.4511
  664SOL     MW 2656   2.481   1.602   1.546 -0.5819 -0.2201 -0.6905
  665SOL     OW 2657   2.877   0.799   2.052  0.1101  0.0795  0.4003
  665SOL    HW1 2658   2.882   0.871   1.994 -0.3481 -1.8595 -1.5564
  665SOL    HW2 2659   2.946   0.738   2.030  0.9822 -0.9921  0.8966
  665SOL     MW 2660   2.887   0.800   2.041  0.1647 -0.3177  0.2076
  666SOL     OW 2661   2.792   3.031   1.682  0.0192  0.4736 -0.1184
  666SOL    HW1 2662   2.807   3.027   1.585 -2.7829 -2.6013 -0.0790
  666SOL    HW2 2663   2.753   2.941   1.704 -4.1441 -0.3391  3.2147
  666SOL     MW 2664   2.789   3.018   1.672 -0.8998 -0.0393  0.3266
  667SOL     OW 2665   1.967   2.717   1.613  0.1632 -0.1429  0.2606
  667SOL    HW1 2666   1.967   2.642   1.676  2.6547 -2.0163 -2.4789
  667SOL    HW2 2667   2.052   2.765   1.631 -1.4875 -0.2980 -0.6355
  667SOL     MW 2668   1.978   2.713   1.624  0.2741 -0.4106 -0.2191
  668SOL     OW 2669   2.740   0.618   0.770  0.1401 -0.2517 -0.2214
  668SOL    HW1 2670   2.808   0.624   0.838 -2.1434  0.1445 -1.2247
  668SOL    HW2 2671   2.669   0.677   0.805  2.2454 -0.2457 -3.5186
  668SOL     MW 2672   2.740   0.627   0.784  0.1166 -0.1986 -0.7888
  669SOL     OW 2673   0.177   0.908   0.721  0.2750  0.7403 -0.4814
  669SOL    HW1 2674   0.148   0.999   0.724 -0.2849  0.9654  0.6045
  669SOL    HW2 2675   0.277   0.911   0.750 -0.3749  0.3664 -0.3482
  669SOL     MW 2676   0.187   0.920   0.726  0.1154  0.7206 -0.3206
  670SOL     OW 2677   2.942   0.287   0.193  0.1233  0.0196 -0.2236
  670SOL    HW1 2678   2.932   0.228   0.113 -0.3236 -1.0618 -1.1981
  670SOL    HW2 2679   2.944   0.380   0.157 -0.1773  0.6946 -1.0819
  670SOL     MW 2680   2.941   0.291   0.178  0.0247 -0.0340 -0.4654
  671SOL     OW 2681   2.161   3.084   1.605 -0.2077 -0.1747 -0.0224
  671SOL    HW1 2682   2.172   3.169   1.564 -1.7028 -2.3621  1.3484
  671SOL    HW2 2683   2.072   3.086   1.656  0.4639 -0.4072  0.5285
  671SOL     MW 2684   2.150   3.095   1.607 -0.3164 -0.4940  0.2311
  672SOL     OW 2685   1.865   1.707   1.339  0.3471  0.4336 -0.2192
  672SOL    HW1 2686   1.778   1.722   1.376 -3.7454  0.0374  0.9243
  672SOL    HW2 2687   1.873   1.760   1.262 -2.0826 -2.1183  1.0469
  672SOL     MW 2688   1.854   1.716   1.334 -0.5134  0.0447  0.0987
  673SOL     OW 2689   2.773   1.110   0.494 -0.4627  0.0685  0.0983
  673SOL    HW1 2690   2.789   1.042   0.563 -2.3304  2.5726  2.8751
  673SOL    HW2 2691   2.864   1.158   0.495  1.4212  1.2640 -0.9833
  673SOL     MW 2692   2.787   1.108   0.503 -0.4606  0.5566  0.3220
  674SOL     OW 2693   2.485   0.083   1.276 -0.2211  0.0614 -0.4818
  674SOL    HW1 2694   2.436   0.071   1.194  3.0165  1.7567  0.9445
  674SOL    HW2 2695   2.522  -0.009   1.284 -0.9754  0.5712 -2.2860
  674SOL     MW 2696   2.483   0.069   1.266  0.1066  0.3524 -0.5316
  675SOL     OW 2697   2.992   1.038   1.118  0.4417 -0.5826 -0.1766
  675SOL    HW1 2698   3.048   1.019   1.193 -2.0916  2.0727 -0.2538
  675SOL    HW2 2699   3.044   1.022   1.038  1.8326  2.8667  0.9896
  675SOL     MW 2700   3.006   1.033   1.117  0.2910  0.2228 -0.0329
  676SOL     OW 2701   2.795   1.499   1.610  0.3775  0.3343 -0.1265
  676SOL    HW1 2702   2.760   1.417   1.595 -0.5232  1.8159 -1.9216
  676SOL    HW2 2703   2.865   1.478   1.677  1.3610 -0.8457 -4.2365
  676SOL     MW 2704   2.799   1.486   1.617  0.3884  0.3741 -0.9056
  677SOL     OW 2705   2.423   0.809   1.887 -0.2667 -0.2009  0.1462
  677SOL    HW1 2706   2.369   0.737   1.859 -0.5849 -2.6232 -2.2167
  677SOL    HW2 2707   2.390   0.830   1.972  0.4382 -0.6473  2.2230
  677SOL     MW 2708   2.412   0.802   1.895 -0.2157 -0.5794  0.1085
  678SOL     OW 2709   2.549   1.594   0.461 -0.1326 -0.1089  0.3259
  678SOL    HW1 2710   2.499   1.648   0.401 -1.9628  1.7158 -0.6034
  678SOL    HW2 2711   2.639   1.624   0.466  2.7995 -1.7287  0.4539
  678SOL     MW 2712   2.554   1.606   0.454  0.0128 -0.0819  0.2202
  679SOL     OW 2713   2.357   0.489   1.094 -0.1836  0.1507 -0.0594
  679SOL    HW1 2714   2.310   0.430   1.156 -0.5540 -1.2939  0.3415
  679SOL    HW2 2715   2.310   0.571   1.084 -1.9580  0.7242  1.4233
  679SOL     MW 2716   2.345   0.492   1.101 -0.4666  0.0358  0.1891
  680SOL     OW 2717   2.383   0.263   1.451 -0.1665 -0.2708 -0.1589
  680SOL    HW1 2718   2.357   0.223   1.543 -0.8490  2.2471  4.6030
  680SOL    HW2 2719   2.404   0.193   1.388 -1.6565  1.9848 -2.6364
  680SOL     MW 2720   2.382   0.248   1.455 -0.4532  0.3590  0.1425
  681SOL     OW 2721   0.291   0.541   1.585  0.1656  0.1745  0.5663
  681SOL    HW1 2722   0.281   0.452   1.616  0.9573 -0.8866 -3.0534
  681SOL    HW2 2723   0.381   0.559   1.571 -2.0352 -2.7744 -0.0700
  681SOL     MW 2724   0.302   0.532   1.587 -0.0203 -0.3545  0.0048
  682SOL     OW 2725   0.147   2.990   1.501 -0.4012 -0.5681 -0.1577
  682SOL    HW1 2726   0.172   3.073   1.451 -1.6571  2.8527  0.1490
  682SOL    HW2 2727   0.076   3.023   1.562 -0.3682  2.2591 -1.2573
  682SOL     MW 2728   0.141   3.006   1.502 -0.5626  0.2563 -0.2623
  683SOL     OW 2729   2.053   0.816   3.002  0.6473 -0.1161  0.1620
  683SOL    HW1 2730   1.966   0.783   2.984  1.3304 -1.2116 -0.7380
  683SOL    HW2 2731   2.044   0.890   3.058 -0.4437 -1.5619  3.2817
  683SOL     MW 2732   2.041   0.822   3.007  0.5935 -0.4514  0.4548
  684SOL     OW 2733   2.165   1.766   0.852  0.1574  0.0697  0.2299
  684SOL    HW1 2734   2.071   1.749   0.837  1.9317  0.9181  0.1497
  684SOL    HW2 2735   2.207   1.677   0.867  1.2296  1.3672 -0.9953
  684SOL     MW 2736   2.158   1.752   0.852  0.5330  0.3528  0.0577
  685SOL     OW 2737   2.565   1.734   1.220 -0.3494  0.3129  0.2269
  685SOL    HW1 2738   2.621   1.730   1.294  1.2800 -1.1050 -2.4210
  685SOL    HW2 2739   2.579   1.651   1.177  0.6128 -0.0983  1.2445
  685SOL     MW 2740   2.574   1.722   1.224 -0.0074  0.0715  0.0118
  686SOL     OW 2741   2.894   0.711   1.492 -0.2293  0.3081 -0.2737
  686SOL    HW1 2742   2.888   0.669   1.579  0.2976  1.7544  2.2351
  686SOL    HW2 2743   2.991   0.710   1.483 -1.8206 -2.7673 -1.5882
  686SOL     MW 2744   2.906   0.705   1.502 -0.3697  0.0932 -0.1161
  687SOL     OW 2745   2.167   0.318   1.207 -0.1275 -0.2024  0.2629
  687SOL    HW1 2746   2.190   0.279   1.120 -0.8341 -2.0979 -1.1900
  687SOL    HW2 2747   2.115   0.400   1.195 -0.4783 -1.6214 -0.4484
  687SOL     MW 2748   2.164   0.323   1.194 -0.2670 -0.6397 -0.0227
  688SOL     OW 2749   2.372   0.553   1.448  0.9085 -0.1438  0.5391
  688SOL    HW1 2750   2.425   0.544   1.530  0.9797 -0.4030  0.9922
  688SOL    HW2 2751   2.375   0.473   1.400 -0.0749  0.8595  1.3861
  688SOL     MW 2752   2.379   0.541   1.453  0.7881 -0.0456  0.7106
  689SOL     OW 2753   2.587   0.775   2.987 -0.1159 -0.2036 -0.1940
  689SOL    HW1 2754   2.611   0.863   2.954  0.9840 -0.5504  0.1645
  689SOL    HW2 2755   2.582   0.790   3.089 -1.6066 -3.7847  2.1553
  689SOL     MW 2756   2.589   0.789   2.997 -0.1675 -0.7218  0.1633
  690SOL     OW 2757   2.085   0.975   1.963  0.6982 -0.5662 -0.3523
  690SOL    HW1 2758   2.031   0.892   1.977 -0.6563  0.7930 -0.3391
  690SOL    HW2 2759   2.101   0.976   1.864  0.9576 -1.1924 -2.6604
  690SOL     MW 2760   2.080   0.964   1.952  0.5537 -0.4695 -0.6551
  691SOL     OW 2761   2.460   0.242   0.827 -0.2932 -0.1153 -0.0437
  691SOL    HW1 2762   2.539   0.291   0.853 -1.0209 -0.2036 -0.4984
  691SOL    HW2 2763   2.389   0.318   0.830 -2.5709  1.4805  0.9441
  691SOL     MW 2764   2.461   0.259   0.831 -0.6897  0.0836  0.0266
  692SOL     OW 2765   2.799   1.702   1.393  0.4982  0.2207  0.9233
  692SOL    HW1 2766   2.766   1.670   1.475  0.6339  0.6622 -1.5088
  692SOL    HW2 2767   2.847   1.775   1.424 -1.7612 -2.4225 -2.8828
  692SOL     MW 2768   2.801   1.708   1.408  0.2180 -0.0698  0.1002
  693SOL     OW 2769   2.273   0.451   0.093  0.4411  0.5758 -0.3450
  693SOL    HW1 2770   2.199   0.405   0.075  4.2812  1.2295  4.4241
  693SOL    HW2 2771   2.272   0.529   0.036 -0.8849  1.9396 -0.8422
  693SOL     MW 2772   2.263   0.456   0.083  0.7728  0.8420  0.2187
  694SOL     OW 2773   1.968   1.262   1.143 -0.1706 -0.3535 -0.6500
  694SOL    HW1 2774   2.057   1.229   1.158 -1.3527 -3.6082 -1.2125
  694SOL    HW2 2775   1.918   1.188   1.179 -1.8948 -0.1115  1.1983
  694SOL     MW 2776   1.973   1.248   1.150 -0.5541 -0.7510 -0.4803
  695SOL     OW 2777   2.948   1.455   1.299 -0.1522 -0.4227 -0.0191
  695SOL    HW1 2778   2.940   1.462   1.200 -0.1305  0.4794 -2.2888
  695SOL    HW2 2779   2.914   1.534   1.342  2.0724  1.6207  0.3914
  695SOL     MW 2780   2.943   1.466   1.291  0.1442 -0.0341 -0.2644
  696SOL     OW 2781   2.070   1.395   0.908  0.6609  0.0777 -0.4515
  696SOL    HW1 2782   2.122   1.446   0.967 -0.4584 -1.2183  1.8266
  696SOL    HW2 2783   2.030   1.325   0.959 -0.0164 -1.6823  2.2995
  696SOL     MW 2784   2.071   1.393   0.923  0.4239 -0.3255  0.2121
  697SOL     OW 2785   2.866   0.990   2.269  0.3387  0.9494 -0.4326
  697SOL    HW1 2786   2.828   1.074   2.230  0.0189 -0.2375  0.8225
  697SOL    HW2 2787   2.845   0.922   2.202  1.1244  1.8782 -1.6616
  697SOL     MW 2788   2.858   0.992   2.255  0.4001  0.9154 -0.4291
  698SOL     OW 2789   2.532   0.341   0.032 -0.1722  0.2558 -0.3768
  698SOL    HW1 2790   2.464   0.388   0.072 -0.5020 -0.4069  0.2915
  698SOL    HW2 2791   2.563   0.274   0.093  0.8767 -0.0403  3.6520
  698SOL     MW 2792   2.527   0.338   0.045 -0.0773  0.1293  0.2429
  699SOL     OW 2793   1.853   1.622   2.069  0.6634  0.0908 -0.2476
  699SOL    HW1 2794   1.832   1.528   2.063  0.5299  2.1022  1.0374
  699SOL    HW2 2795   1.946   1.622   2.039  0.8766 -0.4961  1.2384
  699SOL     MW 2796   1.863   1.610   2.064  0.6739  0.2788  0.1180
  700SOL     OW 2797   2.722   0.911   1.549 -0.1368 -0.2747  0.1525
  700SOL    HW1 2798   2.743   0.981   1.490  1.1538 -1.1489  0.2280
  700SOL    HW2 2799   2.780   0.844   1.518 -1.4365 -0.6818  4.6382
  700SOL     MW 2800   2.732   0.912   1.537 -0.1380 -0.4437  0.7543
  701SOL     OW 2801   1.675   1.288   2.629  0.0717  0.0228  0.4175
  701SOL    HW1 2802   1.767   1.322   2.635  0.4540 -0.2069 -1.7082
  701SOL    HW2 2803   1.624   1.342   2.692  0.3114  0.5765 -3.1302
  701SOL     MW 2804   1.680   1.299   2.638  0.1538  0.0655 -0.3311
  702SOL     OW 2805   2.258   0.443   0.809 -0.3523 -0.5922  0.1964
  702SOL    HW1 2806   2.209   0.373   0.756 -0.1393 -0.0316 -1.8971
  702SOL    HW2 2807   2.275   0.513   0.743 -0.1192  0.2525 -0.2884
  702SOL     MW 2808   2.254   0.443   0.793 -0.2935 -0.4068 -0.1438
  703SOL     OW 2809   2.654   1.282   0.969  0.4143 -0.0200  0.0782
  703SOL    HW1 2810   2.668   1.279   0.874 -2.0962  2.0866  0.9621
  703SOL    HW2 2811   2.648   1.187   0.998  0.8310 -2.3675  2.2902
  703SOL     MW 2812   2.655   1.269   0.960  0.1380 -0.0518  0.4867
  704SOL     OW 2813   0.021   1.313   0.255 -0.3362  0.5502  0.3606
  704SOL    HW1 2814  -0.052   1.287   0.198  2.2882 -3.4047  0.5061
  704SOL    HW2 2815   0.075   1.237   0.238  0.1064 -0.4607 -2.8795
  704SOL     MW 2816   0.019   1.299   0.246  0.0685 -0.1050 -0.0477
  705SOL     OW 2817   2.149   1.585   1.276  0.0694  0.6557 -0.8909
  705SOL    HW1 2818   2.072   1.594   1.327 -1.2487 -0.5260  0.1755
  705SOL    HW2 2819   2.178   1.491   1.311 -2.4748  0.1322 -0.3991
  705SOL     MW 2820   2.143   1.574   1.287 -0.4402  0.4307 -0.6853
  706SOL     OW 2821   3.005   1.241   0.594  0.3522  0.0348 -0.0125
  706SOL    HW1 2822   3.090   1.256   0.560 -1.3585  1.2655 -0.2147
  706SOL    HW2 2823   2.971   1.326   0.612  0.9786 -0.6690  0.7150
  706SOL     MW 2824   3.011   1.254   0.592  0.2091  0.1043  0.0568
  707SOL     OW 2825   2.387   0.060   1.008 -0.1679 -0.2057 -0.5977
  707SOL    HW1 2826   2.425   0.122   0.946  1.0640 -0.8517 -0.3595
  707SOL    HW2 2827   2.292   0.075   1.013  1.4695  1.7865  0.3565
  707SOL     MW 2828   2.379   0.070   1.001  0.2107 -0.0281 -0.4404
  708SOL     OW 2829   2.536   1.550   0.083  0.0190  1.0804  0.2770
  708SOL    HW1 2830   2.555   1.527   0.170  0.4744  0.5725 -2.0364
  708SOL    HW2 2831   2.508   1.465   0.041 -0.2901  0.8136 -0.3564
  708SOL     MW 2832   2.535   1.536   0.089  0.0383  0.9782 -0.1118
  709SOL     OW 2833   1.688   1.788   0.090 -0.4758  0.6159 -0.3299
  709SOL    HW1 2834   1.632   1.847   0.049  2.8054 -0.6790  0.1398
  709SOL    HW2 2835   1.634   1.755   0.162 -2.2609 -1.1803 -1.2062
  709SOL     MW 2836   1.674   1.791   0.094 -0.2784  0.2081 -0.3835
  710SOL     OW 2837   2.225   1.164   1.176 -0.4570 -0.4807 -0.4950
  710SOL    HW1 2838   2.248   1.136   1.082 -2.8616 -0.5885  0.5807
  710SOL    HW2 2839   2.242   1.081   1.232 -1.7642 -3.0653 -0.0580
  710SOL     MW 2840   2.230   1.150   1.171 -0.9467 -0.8359 -0.2955
  711SOL     OW 2841   2.351   0.164   1.682 -0.3793 -0.3623 -0.2773
  711SOL    HW1 2842   2.439   0.151   1.725 -0.5318  1.3234 -0.7477
  711SOL    HW2 2843   2.301   0.078   1.654 -2.5237 -1.7243 -2.5004
  711SOL     MW 2844   2.356   0.151   1.684 -0.6823 -0.3196 -0.6327
  712SOL     OW 2845   1.628   0.589   3.041  0.3566  0.6026  0.0923
  712SOL    HW1 2846   1.677   0.662   3.004  0.5334 -1.6547 -0.4871
  712SOL    HW2 2847   1.553   0.628   3.088  3.3717  0.1694  0.4152
  712SOL     MW 2848   1.624   0.604   3.042  0.7777  0.2476  0.0585
  713SOL     OW 2849   2.586   0.813   1.147 -0.0648  0.7151 -0.3474
  713SOL    HW1 2850   2.609   0.718   1.149  0.5718 -0.2676  1.5534
  713SOL    HW2 2851   2.538   0.829   1.234 -0.1983  1.5835 -0.0838
  713SOL     MW 2852   2.583   0.803   1.159  0.0016  0.7000 -0.0618
  714SOL     OW 2853   2.253   0.145   1.977 -0.4662 -0.3783 -0.1527
  714SOL    HW1 2854   2.321   0.106   2.034  0.1471 -0.0431  0.4817
  714SOL    HW2 2855   2.289   0.147   1.889 -0.8217  0.9850 -0.8686
  714SOL     MW 2856   2.266   0.140   1.973 -0.4322 -0.1542 -0.1635
  715SOL     OW 2857   1.765   1.907   1.715 -0.3800  0.2062  0.1693
  715SOL    HW1 2858   1.848   1.860   1.689  1.0525 -3.4908  0.4298
  715SOL    HW2 2859   1.726   1.852   1.788 -1.3308 -0.6460  0.5447
  715SOL     MW 2860   1.771   1.893   1.721 -0.3165 -0.3940  0.2532
  716SOL     OW 2861   2.359   0.642   0.674  0.8383 -0.2870  0.5571
  716SOL    HW1 2862   2.413   0.570   0.637  0.9521 -2.3524 -0.2219
  716SOL    HW2 2863   2.276   0.652   0.622  0.9066 -1.5333  1.7639
  716SOL     MW 2864   2.355   0.634   0.662  0.8623 -0.7239  0.6136
  717SOL     OW 2865   2.827   1.454   2.949  0.3853  0.1924  0.0368
  717SOL    HW1 2866   2.920   1.436   2.974  0.1894 -2.2182 -1.1809
  717SOL    HW2 2867   2.803   1.521   3.022  0.9465  1.4182  0.2971
  717SOL     MW 2868   2.836   1.461   2.962  0.4335  0.0361 -0.0895
  718SOL     OW 2869   2.530   1.331   1.404  0.2800 -0.1295  0.0272
  718SOL    HW1 2870   2.555   1.387   1.475 -1.5746 -3.6358 -0.7157
  718SOL    HW2 2871   2.600   1.264   1.386  1.3518  1.3670 -1.7942
  718SOL     MW 2872   2.543   1.329   1.411  0.1767 -0.3947 -0.3111
  719SOL     OW 2873   2.160   1.366   0.649 -0.2586  0.0278  0.2434
  719SOL    HW1 2874   2.240   1.418   0.629  1.2813  0.3456 -2.2534
  719SOL    HW2 2875   2.123   1.393   0.735 -0.4891 -2.2737  1.4507
  719SOL     MW 2876   2.166   1.377   0.657 -0.0858 -0.2339  0.0733
  720SOL     OW 2877   2.891   1.220   0.138  0.3085  0.0228  0.1809
  720SOL    HW1 2878   2.863   1.127   0.139 -1.5281 -0.4371 -0.8366
  720SOL    HW2 2879   2.831   1.283   0.185 -3.2263  2.6035 -0.9146
  720SOL     MW 2880   2.879   1.216   0.144 -0.4002  0.3026 -0.0978
  721SOL     OW 2881   2.502   0.804   1.417  0.4349 -0.3337 -0.2227
  721SOL    HW1 2882   2.462   0.716   1.415 -4.4314  4.1253  2.5259
  721SOL    HW2 2883   2.583   0.807   1.466 -1.0658  3.5198 -0.0213
  721SOL     MW 2884   2.508   0.793   1.423 -0.4051  0.7631  0.1665
  722SOL     OW 2885   2.545   1.196   0.373  0.2265 -0.3088 -0.1800
  722SOL    HW1 2886   2.501   1.246   0.438  0.3105 -2.7102 -1.0441
  722SOL    HW2 2887   2.632   1.162   0.401 -1.4798 -2.8735  1.2312
  722SOL     MW 2888   2.550   1.199   0.385  0.0124 -0.9640 -0.1078
  723SOL     OW 2889   2.297   1.403   1.637 -0.4497 -0.4376  0.0187
  723SOL    HW1 2890   2.283   1.379   1.545 -1.0651 -1.3958 -0.4054
  723SOL    HW2 2891   2.227   1.465   1.656  2.3061 -0.1143  0.8053
  723SOL     MW 2892   2.286   1.408   1.628 -0.1673 -0.5214  0.0665
  724SOL     OW 2893   2.452   0.378   0.554 -0.3295 -0.3717  0.3391
  724SOL    HW1 2894   2.441   0.332   0.634 -0.6253 -1.8319 -0.6397
  724SOL    HW2 2895   2.537   0.353   0.518  0.3890  1.2849  0.9227
  724SOL     MW 2896   2.461   0.369   0.560 -0.2737 -0.3458  0.2870
  725SOL     OW 2897   2.609   0.533   1.142 -0.9412 -0.0841 -0.0992
  725SOL    HW1 2898   2.639   0.506   1.224 -2.8893 -2.5196  1.1150
  725SOL    HW2 2899   2.511   0.521   1.128 -1.1103  2.4237 -0.1034
  725SOL     MW 2900   2.600   0.528   1.151 -1.2205 -0.0746  0.0605
  726SOL     OW 2901   2.574   2.417   0.525 -0.3067 -0.1314 -0.1514
  726SOL    HW1 2902   2.529   2.476   0.461  1.0175  2.4547 -0.9350
  726SOL    HW2 2903   2.535   2.440   0.610  1.6400 -1.4261  3.5316
  726SOL     MW 2904   2.563   2.428   0.528  0.1248  0.0390  0.2311
  727SOL     OW 2905   2.782   0.277   1.637  0.2223 -0.1666 -0.0892
  727SOL    HW1 2906   2.808   0.329   1.566 -1.1912 -0.9005  2.6312
  727SOL    HW2 2907   2.698   0.307   1.672 -1.1340  0.3645  0.0095
  727SOL     MW 2908   2.774   0.288   1.632 -0.1431 -0.1933  0.2828
  728SOL     OW 2909   2.791   1.164   2.981 -0.1073  0.4073 -0.6259
  728SOL    HW1 2910   2.789   1.226   2.909 -2.7594  1.9419 -1.4850
  728SOL    HW2 2911   2.814   1.215   3.058 -0.2316 -0.3184  0.5633
  728SOL     MW 2912   2.793   1.179   2.982 -0.4736  0.5140 -0.5824
  729SOL     OW 2913   2.539   1.447   1.143 -0.1155 -0.0859  0.5058
  729SOL    HW1 2914   2.537   1.403   1.224 -0.5237 -0.1496 -2.1777
  729SOL    HW2 2915   2.570   1.375   1.092  3.4422  0.5061  2.1617
  729SOL     MW 2916   2.543   1.432   1.147  0.3001 -0.0162  0.3702
  730SOL     OW 2917   2.138   1.169   0.258 -0.1135 -0.3899  0.8280
  730SOL    HW1 2918   2.225   1.171   0.219  2.6570 -0.7564 -1.1329
  730SOL    HW2 2919   2.102   1.258   0.262  1.8364 -0.0634  1.4615
  730SOL     MW 2920   2.145   1.181   0.254  0.5093 -0.3952  0.6529
  731SOL     OW 2921   2.831   1.835   2.917  0.1072  0.8308  0.0059
  731SOL    HW1 2922   2.751   1.872   2.960 -1.2182  1.0627 -1.2617
  731SOL    HW2 2923   2.879   1.913   2.885  2.0140 -2.4282  0.1264
  731SOL     MW 2924   2.827   1.850   2.918  0.1839  0.4314 -0.1454
  732SOL     OW 2925   2.264   0.932   1.323  0.3143 -0.3300 -0.6742
  732SOL    HW1 2926   2.200   0.933   1.395  1.2071  1.2564  1.8092
  732SOL    HW2 2927   2.351   0.902   1.354  6.2880  1.2150 -2.3483
  732SOL     MW 2928   2.267   0.929   1.336  1.2203  0.0832 -0.5674
  733SOL     OW 2929   2.326   2.841   3.040 -0.2072 -0.4738  0.3568
  733SOL    HW1 2930   2.257   2.902   3.015 -0.5865 -0.5205 -2.1154
  733SOL    HW2 2931   2.277   2.764   3.066 -0.5970  1.0554 -1.4274
  733SOL     MW 2932   2.311   2.839   3.040 -0.3087 -0.2782 -0.2048
  734SOL     OW 2933   1.500   0.376   2.439  0.0912  0.2668 -0.2480
  734SOL    HW1 2934   1.436   0.361   2.501  3.4390  0.0296  0.3581
  734SOL    HW2 2935   1.504   0.294   2.388  0.4070  0.2144  0.4220
  734SOL     MW 2936   1.492   0.363   2.441  0.5746  0.2286 -0.0796
  735SOL     OW 2937   3.097   0.900   2.666 -0.1298  0.6064 -0.2810
  735SOL    HW1 2938   3.034   0.835   2.638 -0.0986  2.5122 -0.6216
  735SOL    HW2 2939   3.053   0.952   2.730  0.7817  1.1642 -1.3241
  735SOL     MW 2940   3.083   0.898   2.670 -0.0054  0.9314 -0.4636
  736SOL     OW 2941   0.049   0.595   2.494  0.1551  0.0738 -0.4008
  736SOL    HW1 2942   0.089   0.638   2.414  1.3727 -1.6641 -1.2862
  736SOL    HW2 2943   0.034   0.503   2.464  1.0434 -1.8930  0.3388
  736SOL     MW 2944   0.052   0.589   2.479  0.4330 -0.4150 -0.4201
  737SOL     OW 2945   2.904   0.708   2.555  0.4735  0.4383  0.9361
  737SOL    HW1 2946   2.839   0.661   2.500  1.5415  0.1239  0.2300
  737SOL    HW2 2947   2.992   0.692   2.520  0.1241  0.5132  1.7071
  737SOL     MW 2948   2.907   0.700   2.543  0.5683  0.4067  0.9446
  738SOL     OW 2949   0.177   0.457   1.987  0.1409  0.5814  0.0248
  738SOL    HW1 2950   0.260   0.481   1.949 -0.1114  0.1778  0.9310
  738SOL    HW2 2951   0.128   0.395   1.937 -0.1403 -2.3701  0.8878
  738SOL     MW 2952   0.181   0.452   1.975  0.0705  0.1387  0.2582
  739SOL     OW 2953   2.538   0.986   2.147  0.1892 -0.1092  0.5836
  739SOL    HW1 2954   2.442   0.983   2.135 -1.5821 -1.0786 -2.2418
  739SOL    HW2 2955   2.561   1.018   2.062 -2.4914  1.1055  1.7848
  739SOL     MW 2956   2.528   0.990   2.134 -0.3982 -0.0768  0.3693
  740SOL     OW 2957   0.185   1.687   2.977 -0.2826  0.3144  0.2581
  740SOL    HW1 2958   0.109   1.629   2.963 -0.8576  0.3837  1.3204
  740SOL    HW2 2959   0.261   1.648   3.016  0.0037  1.6973 -0.7813
  740SOL     MW 2960   0.185   1.674   2.980 -0.3207  0.5060  0.2611
  741SOL     OW 2961   2.216   1.205   2.738  0.5697 -0.2000 -0.1458
  741SOL    HW1 2962   2.230   1.302   2.741 -0.8084  0.7566  1.9203
  741SOL    HW2 2963   2.177   1.206   2.825  1.6604  1.0464 -0.6487
  741SOL     MW 2964   2.213   1.218   2.750  0.5318  0.0907  0.0604
  742SOL     OW 2965   1.677   1.354   2.339 -0.0977 -0.0491 -0.6745
  742SOL    HW1 2966   1.619   1.281   2.316 -0.9415 -0.8181 -1.4818
  742SOL    HW2 2967   1.683   1.355   2.440 -0.6809  0.2728  2.3256
  742SOL     MW 2968   1.670   1.345   2.349 -0.2860 -0.1081 -0.3852
  743SOL     OW 2969   2.495   1.215   2.705 -0.7451 -0.2130 -0.6549
  743SOL    HW1 2970   2.401   1.240   2.731 -2.6861  0.3412  2.8938
  743SOL    HW2 2971   2.517   1.133   2.751 -2.6227  1.4160  2.5035
  743SOL     MW 2972   2.485   1.207   2.714 -1.2489  0.0750  0.2301
  744SOL     OW 2973   2.758   0.911   1.816  0.0176 -0.3239  0.5106
  744SOL    HW1 2974   2.692   0.976   1.825 -2.3231 -2.7268  0.2399
  744SOL    HW2 2975   2.757   0.899   1.720  1.5455  0.6566  0.1168
  744SOL     MW 2976   2.749   0.918   1.805 -0.0897 -0.5115  0.4229
  745SOL     OW 2977   1.759   0.469   2.486  0.0564  0.3430  0.0252
  745SOL    HW1 2978   1.747   0.475   2.389 -1.2756  0.1168  1.0483
  745SOL    HW2 2979   1.663   0.450   2.503  1.3630 -2.0246  4.5383
  745SOL     MW 2980   1.744   0.468   2.475  0.0530  0.0008  0.7556
  746SOL     OW 2981   1.564   1.488   1.679 -0.5627 -0.6402 -0.2341
  746SOL    HW1 2982   1.586   1.576   1.700  0.6773 -0.1801 -0.5855
  746SOL    HW2 2983   1.562   1.435   1.761  0.3247 -0.0087 -1.5436
  746SOL     MW 2984   1.566   1.492   1.692 -0.2820 -0.4962 -0.4532
  747SOL     OW 2985   2.586   1.111   1.895 -0.2854 -0.2421  0.9530
  747SOL    HW1 2986   2.497   1.102   1.871  1.8914 -1.2388 -2.3111
  747SOL    HW2 2987   2.596   1.206   1.921 -0.7152 -0.1692  2.3612
  747SOL     MW 2988   2.576   1.122   1.895 -0.0549 -0.3640  0.7081
  748SOL     OW 2989   0.108  -0.004   1.931 -0.1957  0.0306 -0.1716
  748SOL    HW1 2990   0.194   0.026   1.900  2.0132 -0.1474  1.1120
  748SOL    HW2 2991   0.085   0.069   1.989 -2.3367 -0.4977 -1.7969
  748SOL     MW 2992   0.116   0.009   1.935 -0.1868 -0.0626 -0.2167
  749SOL     OW 2993   2.387   0.639   2.789 -0.3540 -0.2609  0.0565
  749SOL    HW1 2994   2.405   0.724   2.739 -0.5768  2.2375 -0.6019
  749SOL    HW2 2995   2.455   0.631   2.857  2.2916 -1.2171  2.8042
  749SOL     MW 2996   2.398   0.649   2.791 -0.0343 -0.0574  0.3322
  750SOL     OW 2997   2.125   3.012   1.942  0.0207 -0.5304 -0.0601
  750SOL    HW1 2998   2.178   3.096   1.963  1.7238  1.6893  0.3174
  750SOL    HW2 2999   2.184   2.931   1.965  0.4882  0.8701 -1.3007
  750SOL     MW 3000   2.140   3.012   1.948  0.3071 -0.0527 -0.1740
  751SOL     OW 3001   3.063   0.346   2.427  0.4176 -0.0863 -0.5178
  751SOL    HW1 3002   2.988   0.344   2.365 -0.6692 -0.1365 -2.1352
  751SOL    HW2 3003   3.138   0.327   2.374 -0.4992 -0.6169  1.3974
  751SOL     MW 3004   3.063   0.343   2.412  0.1532 -0.1630 -0.4785
  752SOL     OW 3005   2.128   0.928   2.758  0.2548 -0.2173  0.2658
  752SOL    HW1 3006   2.199   0.988   2.772 -0.2789 -1.0405 -1.6324
  752SOL    HW2 3007   2.094   0.887   2.841 -0.9187 -0.5499  0.4247
  752SOL     MW 3008   2.133   0.930   2.771  0.0295 -0.3698  0.0363
  753SOL     OW 3009   2.834   0.372   2.274 -0.2674  0.4830  0.6189
  753SOL    HW1 3010   2.777   0.300   2.295 -1.7347 -0.7822 -1.1559
  753SOL    HW2 3011   2.790   0.448   2.310 -0.9752 -1.0733 -1.7738
  753SOL     MW 3012   2.821   0.372   2.282 -0.5544  0.1107  0.0690
  754SOL     OW 3013   2.298   2.957   2.628  0.1926 -0.0126  0.1711
  754SOL    HW1 3014   2.332   2.960   2.536  0.5879 -0.5315  1.4986
  754SOL    HW2 3015   2.367   2.910   2.675 -0.3780 -0.3800  0.9311
  754SOL     MW 3016   2.311   2.951   2.622  0.1694 -0.1295  0.4465
  755SOL     OW 3017   2.788   1.595   2.454  0.2317 -0.2978 -0.0855
  755SOL    HW1 3018   2.756   1.506   2.443 -0.7803  1.3916  0.6546
  755SOL    HW2 3019   2.822   1.601   2.544  1.0002  2.0262  1.3020
  755SOL     MW 3020   2.789   1.584   2.465  0.1996  0.2317  0.1952
  756SOL     OW 3021   2.162   1.269   3.012 -0.1198 -0.2144 -0.5163
  756SOL    HW1 3022   2.233   1.341   2.992 -2.2884  3.2576  1.1906
  756SOL    HW2 3023   2.216   1.195   3.047 -0.1281  0.0996  0.9891
  756SOL     MW 3024   2.178   1.269   3.014 -0.4070  0.2851 -0.0925
  757SOL     OW 3025   2.176   0.946   1.705 -0.2231  0.5297 -0.1890
  757SOL    HW1 3026   2.191   0.848   1.710  3.3856  1.0723 -2.5698
  757SOL    HW2 3027   2.110   0.956   1.635 -2.0496 -1.0559 -2.6132
  757SOL     MW 3028   2.170   0.934   1.697  0.0121  0.3921 -0.8230
  758SOL     OW 3029   2.247   1.861   2.622  0.0821 -0.7385  0.7129
  758SOL    HW1 3030   2.251   1.866   2.531 -0.3561 -1.1182  1.8574
  758SOL    HW2 3031   2.322   1.800   2.640 -0.1032  0.0510 -0.6973
  758SOL     MW 3032   2.258   1.854   2.612 -0.0002 -0.6845  0.6778
  759SOL     OW 3033   1.539   1.459   2.786  0.2659  0.7616  0.0346
  759SOL    HW1 3034   1.571   1.512   2.705  2.6841 -1.0785 -0.7472
  759SOL    HW2 3035   1.604   1.470   2.861  1.7691 -0.5534  3.1071
  759SOL     MW 3036   1.552   1.467   2.785  0.7833  0.3453  0.3368
  760SOL     OW 3037   2.601   1.982   2.727  0.5188 -0.2241 -0.5192
  760SOL    HW1 3038   2.558   1.902   2.701 -0.4838  0.3493 -0.0187
  760SOL    HW2 3039   2.687   1.965   2.688  2.3197 -2.1402 -0.3945
  760SOL     MW 3040   2.607   1.969   2.718  0.6241 -0.4012 -0.4367
  761SOL     OW 3041   2.197   0.452   2.469  0.2111 -0.7671  0.0757
  761SOL    HW1 3042   2.114   0.405   2.453  0.1602 -0.1554  0.2951
  761SOL    HW2 3043   2.161   0.514   2.534  2.9650  1.9592  1.3999
  761SOL     MW 3044   2.181   0.454   2.475  0.5677 -0.3267  0.2794
  762SOL     OW 3045   0.022   0.176   2.107  0.2296  0.0328 -0.6786
  762SOL    HW1 3046  -0.024   0.120   2.170 -0.4115 -1.1483 -0.9704
  762SOL    HW2 3047  -0.037   0.241   2.064 -1.2170 -0.7254  0.4225
  762SOL     MW 3048   0.008   0.177   2.110 -0.0458 -0.2231 -0.5719
  763SOL     OW 3049   2.457   1.168   2.314 -0.3210 -0.1732  0.3827
  763SOL    HW1 3050   2.495   1.094   2.258  0.1253 -0.9420 -3.5782
  763SOL    HW2 3051   2.526   1.209   2.363  1.6540 -1.3606 -2.1078
  763SOL     MW 3052   2.471   1.164   2.313 -0.0015 -0.4313 -0.4685
  764SOL     OW 3053   0.390   0.151   2.794  0.4332  0.9696  0.3684
  764SOL    HW1 3054   0.306   0.160   2.753 -2.2592  0.0679  1.6955
  764SOL    HW2 3055   0.420   0.239   2.804  0.0792  0.4957 -4.1125
  764SOL     MW 3056   0.383   0.164   2.790  0.0312  0.7881 -0.0477
  765SOL     OW 3057   2.687   0.116   2.293  0.1232  0.0154  0.3070
  765SOL    HW1 3058   2.657   0.098   2.205  0.2873  0.0100 -0.0227
  765SOL    HW2 3059   2.742   0.038   2.324  1.4908 -0.7803 -2.5853
  765SOL     MW 3060   2.690   0.104   2.285  0.3253 -0.0903 -0.1181
  766SOL     OW 3061   1.916   3.061   2.119 -0.5053  0.0020 -0.5048
  766SOL    HW1 3062   1.991   3.052   2.056 -0.4388 -3.0983 -1.2247
  766SOL    HW2 3063   1.838   3.023   2.075 -1.9596 -1.7980 -2.4620
  766SOL     MW 3064   1.916   3.055   2.105 -0.6884 -0.6446 -0.8580
  767SOL     OW 3065   2.638   0.646   1.946 -0.1886  0.3531 -0.4411
  767SOL    HW1 3066   2.700   0.719   1.961  1.3487  1.0973  0.1634
  767SOL    HW2 3067   2.554   0.687   1.915  1.2309  0.2054 -1.2028
  767SOL     MW 3068   2.635   0.661   1.943  0.2016  0.4318 -0.4618
  768SOL     OW 3069  -0.002   1.479   2.987 -0.0620 -0.3720  0.0813
  768SOL    HW1 3070   0.025   1.518   3.073  0.7486 -1.3981 -2.8147
  768SOL    HW2 3071   0.054   1.399   2.982  1.7229 -1.6557 -2.3311
  768SOL     MW 3072   0.009   1.474   2.998  0.2805 -0.6767 -0.6191
  769SOL     OW 3073   2.328   0.679   2.373 -0.0559  0.3392  0.4087
  769SOL    HW1 3074   2.326   0.593   2.412  2.8750 -0.7237 -0.3181
  769SOL    HW2 3075   2.386   0.657   2.299  0.2679  0.6288 -2.0289
  769SOL     MW 3076   2.335   0.665   2.368  0.3735  0.2371 -0.0088
  770SOL     OW 3077   0.054   1.601   2.608  0.4223  0.4033  0.2721
  770SOL    HW1 3078  -0.034   1.634   2.625  1.0641 -1.8556 -0.7873
  770SOL    HW2 3079   0.055   1.542   2.681  1.0750  0.5839 -1.5305
  770SOL     MW 3080   0.043   1.598   2.620  0.5931  0.1291 -0.1055
  771SOL     OW 3081   3.031   0.607   1.947 -0.8092 -0.1241 -0.2623
  771SOL    HW1 3082   3.004   0.601   1.849  1.7343 -1.7665 -2.2196
  771SOL    HW2 3083   3.111   0.559   1.956 -3.5341  1.8933 -1.4472
  771SOL     MW 3084   3.038   0.600   1.935 -0.8331 -0.0747 -0.6769
  772SOL     OW 3085   0.024   3.082   2.336 -0.4327 -0.7927 -0.1624
  772SOL    HW1 3086  -0.052   3.051   2.384 -1.5798  0.0820  2.7597
  772SOL    HW2 3087   0.081   3.006   2.315  0.2293  2.1724 -2.4256
  772SOL     MW 3088   0.022   3.068   2.340 -0.4967 -0.2861 -0.0754
  773SOL     OW 3089   2.493   2.842   2.807  0.0038 -0.8008  0.0614
  773SOL    HW1 3090   2.493   2.760   2.759  0.6248 -1.3828  0.0803
  773SOL    HW2 3091   2.450   2.813   2.892  1.0824 -4.8031  2.2969
  773SOL     MW 3092   2.487   2.828   2.812  0.2280 -1.4056  0.3589
  774SOL     OW 3093   2.335   1.152   1.759 -0.6073  0.3832  0.2480
  774SOL    HW1 3094   2.305   1.229   1.708  0.4860  3.6594  2.3263
  774SOL    HW2 3095   2.286   1.069   1.724  0.7505 -0.1461 -0.2037
  774SOL     MW 3096   2.325   1.151   1.748 -0.2839  0.7456  0.4626
  775SOL     OW 3097   2.284   2.940   2.320 -0.5761  0.4771  0.0663
  775SOL    HW1 3098   2.311   3.031   2.297 -2.5002  0.5785  1.4721
  775SOL    HW2 3099   2.365   2.890   2.307 -0.5179  2.7405 -1.8634
  775SOL     MW 3100   2.298   2.945   2.316 -0.8223  0.7891 -0.0028
  776SOL     OW 3101   0.128   1.523   0.130  0.3415  0.2831  0.0068
  776SOL    HW1 3102   0.210   1.473   0.119  1.4145  1.8935 -1.7051
  776SOL    HW2 3103   0.074   1.454   0.178 -0.3311 -0.5573  0.7533
  776SOL     MW 3104   0.131   1.507   0.135  0.3944  0.3847 -0.1206
  777SOL     OW 3105   2.978   1.104   1.747  0.3264 -0.2822 -0.1275
  777SOL    HW1 3106   2.933   1.149   1.673  0.0510  2.4919 -3.1045
  777SOL    HW2 3107   2.899   1.062   1.787  0.5851  1.5750  1.1241
  777SOL     MW 3108   2.961   1.104   1.742  0.3242  0.3288 -0.3552
  778SOL     OW 3109   2.864   0.451   2.764 -0.4028 -0.4052  0.2698
  778SOL    HW1 3110   2.796   0.476   2.830 -1.1789 -2.7006 -0.1017
  778SOL    HW2 3111   2.846   0.497   2.682  0.7679  2.8777  1.3380
  778SOL     MW 3112   2.853   0.461   2.762 -0.3507 -0.2749  0.3617
  779SOL     OW 3113   2.270   0.462   2.112  0.2016  1.1254 -0.0525
  779SOL    HW1 3114   2.243   0.506   2.195 -0.7894 -0.1413 -1.2593
  779SOL    HW2 3115   2.227   0.377   2.129 -0.8121 -0.5470  0.5681
  779SOL     MW 3116   2.261   0.457   2.125 -0.0629  0.7376 -0.1299
  780SOL     OW 3117   0.155   0.238   2.697 -0.2451  0.0375 -0.3046
  780SOL    HW1 3118   0.066   0.227   2.712  2.5550  3.3403 -2.2389
  780SOL    HW2 3119   0.162   0.324   2.667 -0.3783 -2.3290 -0.6829
  780SOL     MW 3120   0.145   0.248   2.695  0.1068  0.1610 -0.6098
  781SOL     OW 3121   3.052   1.325   2.493 -0.2562 -0.0681 -0.1389
  781SOL    HW1 3122   3.035   1.414   2.459 -1.9915 -1.4201  1.0509
  781SOL    HW2 3123   3.089   1.271   2.418  2.0538 -0.5319 -0.4029
  781SOL     MW 3124   3.054   1.329   2.479 -0.1804 -0.3077 -0.0167
  782SOL     OW 3125   0.648   1.494   0.097 -0.6464  0.3296 -0.4781
  782SOL    HW1 3126   0.568   1.521   0.055  1.4988 -3.1540  0.4061
  782SOL    HW2 3127   0.668   1.522   0.184  0.0053  0.6333 -0.1730
  782SOL     MW 3128   0.640   1.502   0.103 -0.2774 -0.0900 -0.3212
  783SOL     OW 3129   2.700   0.577   2.401 -0.8475  0.6724 -0.1801
  783SOL    HW1 3130   2.638   0.594   2.329 -3.5791  0.9749  0.5977
  783SOL    HW2 3131   2.637   0.538   2.470 -2.0130  2.2275  0.0366
  783SOL     MW 3132   2.684   0.574   2.401 -1.3617  0.9175 -0.0489
  784SOL     OW 3133   0.190   0.857   2.872  0.0181  0.0889  0.4608
  784SOL    HW1 3134   0.097   0.883   2.869  2.0563 -0.7001  1.7275
  784SOL    HW2 3135   0.220   0.892   2.789 -0.2430 -3.4261 -2.9134
  784SOL     MW 3136   0.181   0.865   2.861  0.2526 -0.4789  0.1827
  785SOL     OW 3137   0.459   0.422   2.181  0.6516  0.0259 -0.0750
  785SOL    HW1 3138   0.472   0.436   2.085 -1.0525  2.3497  1.3338
  785SOL    HW2 3139   0.361   0.423   2.189  0.3813  1.3966  2.2223
  785SOL     MW 3140   0.448   0.424   2.169  0.3911  0.5133  0.4140
  786SOL     OW 3141   1.900   0.425   3.059  0.1933 -0.2499 -0.9997
  786SOL    HW1 3142   1.817   0.476   3.075 -1.9930  0.7182 -0.6029
  786SOL    HW2 3143   1.908   0.425   2.962  0.4684  2.0394 -1.1121
  786SOL     MW 3144   1.890   0.432   3.048 -0.0589  0.1799 -0.9622
  787SOL     OW 3145   2.463   0.146   2.919 -0.0436 -0.5889  0.0152
  787SOL    HW1 3146   2.532   0.088   2.899  2.5784 -1.3291 -0.3075
  787SOL    HW2 3147   2.500   0.211   2.979  0.5392  0.7376  0.3327
  787SOL     MW 3148   2.477   0.147   2.924  0.3792 -0.5115  0.0145
  788SOL     OW 3149   2.833   3.018   2.414 -0.2224  0.6175 -0.0673
  788SOL    HW1 3150   2.845   3.004   2.506  0.2461  1.1078 -0.2250
  788SOL    HW2 3151   2.855   2.935   2.371 -1.3855 -0.0268 -2.0130
  788SOL     MW 3152   2.837   3.005   2.420 -0.3141  0.5972 -0.3448
  789SOL     OW 3153   0.088   0.200   3.063 -0.0779  0.2936 -0.1721
  789SOL    HW1 3154  -0.000   0.159   3.067 -0.2045 -2.4196 -1.1724
  789SOL    HW2 3155   0.091   0.270   3.002 -3.0336 -0.4687 -2.0294
  789SOL     MW 3156   0.077   0.204   3.056 -0.4846 -0.1650 -0.5491
  790SOL     OW 3157   0.008   1.054   2.399 -0.2871  0.2221 -0.3095
  790SOL    HW1 3158  -0.008   1.031   2.493 -1.7575  1.2392  2.2733
  790SOL    HW2 3159  -0.076   1.026   2.348 -1.0141 -0.6742 -2.6333
  790SOL     MW 3160  -0.005   1.047   2.404 -0.5770  0.2380 -0.2753
  791SOL     OW 3161   2.532   0.483   2.597  0.3237 -0.2162 -0.0866
  791SOL    HW1 3162   2.481   0.526   2.665 -0.9655  3.8272 -1.5209
  791SOL    HW2 3163   2.552   0.398   2.632 -0.6731 -2.9644 -1.3357
  791SOL     MW 3164   2.528   0.478   2.611  0.0221 -0.0453 -0.4406
  792SOL     OW 3165   2.350   0.242   2.435 -0.3643  0.1098 -0.0731
  792SOL    HW1 3166   2.292   0.315   2.436  1.0048  1.0264 -0.3767
  792SOL    HW2 3167   2.332   0.210   2.524 -1.9963  0.3331 -0.0353
  792SOL     MW 3168   2.340   0.247   2.447 -0.3990  0.2602 -0.1082
  793SOL     OW 3169   1.825   1.091   2.011  0.6098  0.0196 -0.1504
  793SOL    HW1 3170   1.789   1.077   1.929  0.5115 -1.0270  0.5801
  793SOL    HW2 3171   1.921   1.077   2.002  3.0122 -1.3822 -1.9863
  793SOL     MW 3172   1.833   1.087   1.999  0.9138 -0.3034 -0.2963
  794SOL     OW 3173   1.363   2.330   0.134 -0.5984  0.1604  0.1554
  794SOL    HW1 3174   1.403   2.392   0.080  1.4615  4.9403  3.1355
  794SOL    HW2 3175   1.437   2.323   0.197  0.5957  0.6774  0.4734
  794SOL     MW 3176   1.378   2.338   0.135 -0.1691  0.8593  0.5906
  795SOL     OW 3177   2.313   1.044   2.534  0.3485 -0.2193 -0.0381
  795SOL    HW1 3178   2.263   1.111   2.579  0.3144 -0.5044 -2.6884
  795SOL    HW2 3179   2.379   1.101   2.490  0.8024  2.2112 -1.2862
  795SOL     MW 3180   2.315   1.061   2.534  0.4039  0.0638 -0.5524
  796SOL     OW 3181   0.241   0.620   2.679  0.5199  0.4104  0.5874
  796SOL    HW1 3182   0.199   0.687   2.734 -1.0115 -0.9753 -0.2898
  796SOL    HW2 3183   0.172   0.597   2.617  1.2575 -2.4865  1.3265
  796SOL     MW 3184   0.226   0.626   2.678  0.4152 -0.1547  0.5692
  797SOL     OW 3185   2.599   0.163   2.580 -0.3399 -0.1299  0.2146
  797SOL    HW1 3186   2.540   0.184   2.507 -2.0739  0.8038 -5.0800
  797SOL    HW2 3187   2.681   0.164   2.530 -2.0737 -0.8135 -2.3195
  797SOL     MW 3188   2.602   0.166   2.564 -0.7974 -0.0969 -0.8183
  798SOL     OW 3189   2.381   0.059   2.204 -0.4018  0.8489  0.0074
  798SOL    HW1 3190   2.390   0.137   2.261  0.4905 -0.3344 -2.1803
  798SOL    HW2 3191   2.460   0.066   2.152  0.0565 -1.9860 -1.1244
  798SOL     MW 3192   2.393   0.070   2.205 -0.2236  0.3187 -0.4306
  799SOL     OW 3193   2.564   2.987   0.136  0.0953 -0.0016  0.4024
  799SOL    HW1 3194   2.488   2.970   0.074 -0.3053 -0.0449 -1.5081
  799SOL    HW2 3195   2.544   2.961   0.228 -0.6779  1.8248  2.4546
  799SOL     MW 3196   2.551   2.981   0.140 -0.0596  0.2337  0.4211
  800SOL     OW 3197   1.945   3.079   1.766 -0.0931  0.3940 -0.7332
  800SOL    HW1 3198   1.875   3.016   1.751  0.1993  0.9289  2.0549
  800SOL    HW2 3199   2.010   3.030   1.822 -0.8057  3.2748 -0.9581
  800SOL     MW 3200   1.944   3.064   1.771 -0.1485  0.8446 -0.3950
  801SOL     OW 3201   2.810   1.227   2.603 -0.6571 -0.2232 -0.5921
  801SOL    HW1 3202   2.783   1.134   2.595 -1.5062  1.6828 -0.6918
  801SOL    HW2 3203   2.897   1.243   2.562  1.3853  1.9185  1.1457
  801SOL     MW 3204   2.818   1.217   2.596 -0.4996  0.3109 -0.3760
  802SOL     OW 3205   2.595   1.473   2.778  0.1645 -0.0267  0.2927
  802SOL    HW1 3206   2.569   1.389   2.750 -0.4160  2.9182  0.2149
  802SOL    HW2 3207   2.685   1.478   2.816 -2.3117 -0.3732 -0.4008
  802SOL     MW 3208   2.603   1.462   2.780 -0.2388  0.3161  0.1909
  803SOL     OW 3209   2.279   1.375   2.041  0.0616 -0.0827  0.4728
  803SOL    HW1 3210   2.259   1.371   2.134 -0.2567  0.4072 -0.0288
  803SOL    HW2 3211   2.252   1.292   2.006  2.3263  0.4921 -0.2727
  803SOL     MW 3212   2.272   1.364   2.048  0.3184  0.0578  0.3083
  804SOL     OW 3213   2.297   0.055   0.048 -0.0605 -0.1497  0.2124
  804SOL    HW1 3214   2.237   0.130   0.051  0.4385 -0.7496 -0.4874
  804SOL    HW2 3215   2.361   0.083  -0.021  1.4250 -1.1184  2.2422
  804SOL     MW 3216   2.297   0.069   0.039  0.2013 -0.3567  0.3879
  805SOL     OW 3217   2.740   0.919   2.636 -0.2885  0.8898 -0.0534
  805SOL    HW1 3218   2.663   0.874   2.600  3.8249 -0.8152  0.2882
  805SOL    HW2 3219   2.810   0.854   2.629  2.1239  1.2985  0.1509
  805SOL     MW 3220   2.739   0.905   2.630  0.5725  0.7188  0.0186
  806SOL     OW 3221   2.555   0.683   2.182 -0.4643 -0.1159  0.2948
  806SOL    HW1 3222   2.588   0.659   2.094 -1.2069 -0.9855  0.7607
  806SOL    HW2 3223   2.578   0.774   2.206 -4.1090  1.1707 -0.4753
  806SOL     MW 3224   2.563   0.692   2.174 -1.0432 -0.0609  0.2547
  807SOL     OW 3225   0.090   1.065   2.050 -0.1449 -0.4332 -0.2407
  807SOL    HW1 3226   0.160   1.008   2.072  0.6619  3.1066 -0.6401
  807SOL    HW2 3227   0.016   1.020   2.079  2.5083  3.3990  0.8872
  807SOL     MW 3228   0.090   1.052   2.057  0.3116  0.5395 -0.1446
  808SOL     OW 3229   2.659   3.079   2.804 -0.3462 -0.0754 -0.7203
  808SOL    HW1 3230   2.604   3.001   2.797 -2.5353  2.1733  5.7191
  808SOL    HW2 3231   2.636   3.147   2.736 -3.1102 -0.7792  0.3890
  808SOL     MW 3232   2.649   3.078   2.794 -0.9997  0.1284  0.2757
  809SOL     OW 3233   2.672   1.341   2.403 -0.8171 -0.6008  0.5248
  809SOL    HW1 3234   2.729   1.308   2.479 -0.5752  0.3391  1.7169
  809SOL    HW2 3235   2.708   1.307   2.314 -3.0678  0.5441  0.0529
  809SOL     MW 3236   2.684   1.333   2.401 -1.0821 -0.3258  0.6198
  810SOL     OW 3237   2.244   1.329   2.298  0.3567 -0.4096  0.0647
  810SOL    HW1 3238   2.320   1.271   2.283 -1.5114  1.0932 -1.2731
  810SOL    HW2 3239   2.190   1.278   2.354 -0.6208  0.7058 -0.5523
  810SOL     MW 3240   2.247   1.314   2.303 -0.0188 -0.0642 -0.1932
  811SOL     OW 3241   1.564   0.148   2.313 -0.4974 -0.2456  0.1428
  811SOL    HW1 3242   1.657   0.137   2.337  0.4582 -0.5544 -2.0687
  811SOL    HW2 3243   1.559   0.132   2.222 -1.4449 -0.9340 -0.1758
  811SOL     MW 3244   1.576   0.145   2.304 -0.4963 -0.3772 -0.1910
  812SOL     OW 3245   1.482   2.818   2.030  0.3579 -0.1666 -0.4656
  812SOL    HW1 3246   1.567   2.865   2.021 -0.1649  0.3398 -0.1680
  812SOL    HW2 3247   1.464   2.816   2.126 -1.0687 -0.8352  0.1596
  812SOL     MW 3248   1.491   2.824   2.042  0.1007 -0.1880 -0.3438
  813SOL     OW 3249   2.004   0.608   2.242 -0.5273  0.2591 -0.1169
  813SOL    HW1 3250   1.924   0.562   2.229 -2.4182 -2.9824 -0.4181
  813SOL    HW2 3251   1.973   0.694   2.272  0.7476 -1.2286 -0.9472
  813SOL     MW 3252   1.989   0.614   2.244 -0.6086 -0.3649 -0.2662
  814SOL     OW 3253   2.717   1.215   1.649  0.6328  0.2047 -0.2300
  814SOL    HW1 3254   2.677   1.195   1.734  1.6857  3.3879 -2.2546
  814SOL    HW2 3255   2.681   1.152   1.586 -0.9153 -1.3949  0.5984
  814SOL     MW 3256   2.707   1.204   1.652  0.5675  0.4136 -0.3878
  815SOL     OW 3257   2.558   1.772   2.396  0.6389  0.5996 -0.4049
  815SOL    HW1 3258   2.522   1.697   2.356 -0.1489 -1.1754 -1.8534
  815SOL    HW2 3259   2.644   1.740   2.417  0.9841 -0.0495  1.7750
  815SOL     MW 3260   2.565   1.758   2.394  0.5805  0.2798 -0.3084
  816SOL     OW 3261   0.749   0.700   2.756 -0.3010  0.0492 -1.0323
  816SOL    HW1 3262   0.746   0.610   2.766  0.7389  2.3454  0.4904
  816SOL    HW2 3263   0.653   0.728   2.729  1.9546 -2.8835  1.1249
  816SOL     MW 3264   0.736   0.692   2.754  0.1338 -0.0348 -0.5468
  817SOL     OW 3265   2.990   1.238   1.466 -0.1765 -0.1750  0.0881
  817SOL    HW1 3266   3.079   1.217   1.476 -0.6385 -1.4978  0.5295
  817SOL    HW2 3267   2.992   1.330   1.425  1.4210  0.9567  1.1070
  817SOL     MW 3268   3.002   1.247   1.462 -0.0267 -0.2002  0.2807
  818SOL     OW 3269   1.934   1.036   2.631  0.0657  0.2330  0.2046
  818SOL    HW1 3270   1.921   1.007   2.534  3.3927 -1.8196 -3.0994
  818SOL    HW2 3271   2.016   0.996   2.668 -0.4171  1.4891 -0.9963
  818SOL     MW 3272   1.943   1.027   2.623  0.4410  0.1279 -0.3898
  819SOL     OW 3273   1.979   0.305   2.499  0.3650 -0.6235  0.2401
  819SOL    HW1 3274   1.899   0.364   2.504 -0.6869  0.0825  2.3153
  819SOL    HW2 3275   2.019   0.315   2.588 -1.6752 -0.5770  1.8546
  819SOL     MW 3276   1.974   0.314   2.511 -0.0430 -0.5242  0.7269
  820SOL     OW 3277   2.451   1.688   2.657 -0.0319  0.6685  0.7438
  820SOL    HW1 3278   2.493   1.612   2.702  0.9870  1.0466  0.6189
  820SOL    HW2 3279   2.481   1.682   2.565  0.3153 -0.8162  1.5883
  820SOL     MW 3280   2.460   1.678   2.651  0.1483  0.5225  0.8388
  821SOL     OW 3281   2.553   1.357   1.986 -0.6011  0.0870 -0.1771
  821SOL    HW1 3282   2.572   1.422   1.915  0.9363 -3.2157  1.9535
  821SOL    HW2 3283   2.456   1.364   1.989 -2.4527 -1.1922  0.1254
  821SOL     MW 3284   2.543   1.366   1.977 -0.6426 -0.5175  0.1439
  822SOL     OW 3285   2.871   2.708   1.466 -0.6584 -0.8305 -0.1940
  822SOL    HW1 3286   2.906   2.665   1.546  1.4667 -0.8820  2.2351
  822SOL    HW2 3287   2.926   2.786   1.447 -1.2317 -2.2097 -1.1340
  822SOL     MW 3288   2.883   2.713   1.474 -0.4536 -1.0192  0.0025
  823SOL     OW 3289   2.386   0.515   1.833  0.7424 -0.6678 -0.1866
  823SOL    HW1 3290   2.433   0.454   1.767  0.5688 -2.8184 -1.7645
  823SOL    HW2 3291   2.411   0.499   1.926  0.1105  0.9413  2.7512
  823SOL     MW 3292   2.395   0.505   1.836  0.6361 -0.7393 -0.0072
  824SOL     OW 3293   2.259   1.450   2.654 -0.5602 -0.0249 -0.3587
  824SOL    HW1 3294   2.341   1.490   2.627 -0.1125 -1.1605 -1.2240
  824SOL    HW2 3295   2.195   1.519   2.649  1.8078 -0.5829 -1.9329
  824SOL     MW 3296   2.262   1.464   2.650 -0.1887 -0.2483 -0.6805
  825SOL     OW 3297   1.898   2.558   0.257  0.1402  0.3127 -0.0563
  825SOL    HW1 3298   1.853   2.489   0.317 -2.7019 -1.3958 -1.3119
  825SOL    HW2 3299   1.959   2.510   0.203  1.1344  2.8391  1.5766
  825SOL     MW 3300   1.900   2.543   0.258 -0.1036  0.4206 -0.0065
  826SOL     OW 3301   1.794   2.377   0.459  0.5777 -0.1926  0.1440
  826SOL    HW1 3302   1.757   2.305   0.513 -0.9541  0.6006  2.0093
  826SOL    HW2 3303   1.766   2.455   0.501  0.3211 -0.7444  2.6614
  826SOL     MW 3304   1.785   2.378   0.471  0.3417 -0.1607  0.7222
  827SOL     OW 3305   1.882   2.184   0.798 -0.0502 -0.1990 -0.1461
  827SOL    HW1 3306   1.839   2.181   0.713  2.5846  1.1261 -0.8496
  827SOL    HW2 3307   1.826   2.140   0.859 -0.5472  1.4346  2.5468
  827SOL     MW 3308   1.869   2.178   0.795  0.2318  0.1914  0.1164
  828SOL     OW 3309   0.027   2.615   0.576 -0.2010  0.0296  0.0109
  828SOL    HW1 3310   0.120   2.587   0.567 -0.6715  2.4352 -1.2684
  828SOL    HW2 3311  -0.016   2.647   0.498 -0.7515  0.0625  1.1997
  828SOL     MW 3312   0.034   2.615   0.565 -0.3357  0.3513 -0.0010
  829SOL     OW 3313   2.999   2.927   1.207 -0.2326 -0.0420  0.0916
  829SOL    HW1 3314   2.950   2.953   1.131  0.0534  1.2461  0.9380
  829SOL    HW2 3315   3.042   2.844   1.178  2.1340  1.5031  2.0060
  829SOL     MW 3316   2.998   2.920   1.193  0.1174  0.3318  0.4558
  830SOL     OW 3317   2.583   2.822   2.027 -0.1846  0.4037 -0.2686
  830SOL    HW1 3318   2.495   2.803   1.984  1.8432  3.7517  1.7172
  830SOL    HW2 3319   2.644   2.833   1.953  0.6341 -1.7548  0.9946
  830SOL     MW 3320   2.579   2.821   2.012  0.1910  0.5606  0.1601
  831SOL     OW 3321   2.339   2.460   1.162 -0.0421  0.2506 -0.0728
  831SOL    HW1 3322   2.304   2.417   1.243  0.3870  0.9110 -0.8668
  831SOL    HW2 3323   2.431   2.430   1.165 -0.3641  0.4161 -0.4582
  831SOL     MW 3324   2.347   2.450   1.173 -0.0280  0.3596 -0.2284
  832SOL     OW 3325   2.358   2.189   1.866 -0.0637  0.1764  0.0644
  832SOL    HW1 3326   2.398   2.272   1.894  0.1546  0.5259  2.6665
  832SOL    HW2 3327   2.435   2.128   1.856  1.1846  0.2445 -0.7018
  832SOL     MW 3328   2.373   2.192   1.868  0.1298  0.2315  0.3066
  833SOL     OW 3329   1.733   2.457   0.871 -0.0739  0.1734  0.3824
  833SOL    HW1 3330   1.653   2.407   0.888 -0.7684  0.4941 -0.1341
  833SOL    HW2 3331   1.719   2.535   0.921  0.6490 -4.4174 -1.9169
  833SOL     MW 3332   1.720   2.461   0.880 -0.0702 -0.3900  0.0109
  834SOL     OW 3333   2.054   2.440   0.584 -0.5660  0.0570 -0.2913
  834SOL    HW1 3334   1.966   2.429   0.560  1.0711  0.5915 -0.5179
  834SOL    HW2 3335   2.112   2.387   0.530  1.1894 -0.2643  0.3866
  834SOL     MW 3336   2.050   2.432   0.574 -0.1184  0.0852 -0.2318
  835SOL     OW 3337   1.768   2.592   0.620  0.4035  1.1247 -0.2963
  835SOL    HW1 3338   1.740   2.551   0.704 -1.3318 -1.1764  1.7410
  835SOL    HW2 3339   1.843   2.658   0.630  2.2712 -0.3561  1.0256
  835SOL     MW 3340   1.774   2.595   0.632  0.4210  0.6257  0.1469
  836SOL     OW 3341   1.912   2.180   1.587  0.4168  0.2787  0.3407
  836SOL    HW1 3342   1.984   2.241   1.609  1.3800  1.6222  1.4655
  836SOL    HW2 3343   1.829   2.232   1.593  0.9626  1.4729 -1.0882
  836SOL     MW 3344   1.910   2.195   1.591  0.6159  0.6135  0.3006
  837SOL     OW 3345   2.141   0.237   0.680  0.4041 -0.1744 -0.0981
  837SOL    HW1 3346   2.050   0.244   0.645 -0.6226  0.5426  2.3613
  837SOL    HW2 3347   2.180   0.165   0.626  2.1195 -0.8905  0.7798
  837SOL     MW 3348   2.134   0.228   0.668  0.4950 -0.1743  0.3422
  838SOL     OW 3349   2.926   2.037   0.936  0.3281  0.2108 -0.0608
  838SOL    HW1 3350   2.849   1.993   0.975 -0.4140 -0.3577 -2.2218
  838SOL    HW2 3351   2.993   1.975   0.911  0.8320 -1.9388  0.5458
  838SOL     MW 3352   2.924   2.023   0.938  0.2967 -0.1478 -0.2659
  839SOL     OW 3353   1.512   2.313   1.044 -0.2757 -0.6111 -0.2854
  839SOL    HW1 3354   1.531   2.390   1.101 -2.2367 -0.4735 -0.9947
  839SOL    HW2 3355   1.530   2.239   1.105 -0.9514  2.4375 -1.7626
  839SOL     MW 3356   1.517   2.313   1.060 -0.6236 -0.1907 -0.5739
  840SOL     OW 3357   2.357   2.162   2.474 -0.0089  0.3396  0.2066
  840SOL    HW1 3358   2.298   2.220   2.427 -2.1948 -3.4233 -0.9556
  840SOL    HW2 3359   2.371   2.189   2.561  0.1396 -0.2167 -2.5462
  840SOL     MW 3360   2.351   2.173   2.479 -0.2777 -0.2303 -0.3100
  841SOL     OW 3361   2.124   2.454   0.130  0.9714 -0.4591  0.2440
  841SOL    HW1 3362   2.146   2.511   0.057  1.6936  0.5565  0.3155
  841SOL    HW2 3363   2.100   2.370   0.086 -0.0358 -0.7620 -4.2348
  841SOL     MW 3364   2.124   2.450   0.115  0.9338 -0.3650 -0.3375
  842SOL     OW 3365   2.651   2.089   1.530 -0.8586  0.0619 -0.1503
  842SOL    HW1 3366   2.594   2.045   1.594  0.1424  0.7760  2.1670
  842SOL    HW2 3367   2.602   2.096   1.443  1.2408 -2.1443 -0.5379
  842SOL     MW 3368   2.637   2.084   1.527 -0.4495 -0.1350  0.1043
  843SOL     OW 3369   2.695   2.796   1.763  0.6571  0.4305 -0.4070
  843SOL    HW1 3370   2.781   2.749   1.732  2.2697  2.4480 -0.8017
  843SOL    HW2 3371   2.628   2.739   1.718  2.2535  0.2807  1.6978
  843SOL     MW 3372   2.697   2.782   1.753  1.0805  0.6769 -0.1814
  844SOL     OW 3373   2.608   2.365   1.165 -0.2102 -0.3023 -0.1144
  844SOL    HW1 3374   2.652   2.387   1.080 -1.7496 -3.7376 -0.7310
  844SOL    HW2 3375   2.672   2.404   1.230 -0.1977 -0.5195  1.2067
  844SOL     MW 3376   2.622   2.373   1.162 -0.4116 -0.7842 -0.0215
  845SOL     OW 3377   2.830   2.498   0.302  0.1222  0.1030 -0.0481
  845SOL    HW1 3378   2.794   2.412   0.301  0.4514  0.7340  2.7992
  845SOL    HW2 3379   2.823   2.521   0.396  1.1441  0.8770 -3.3148
  845SOL     MW 3380   2.824   2.490   0.315  0.3005  0.2883 -0.1034
  846SOL     OW 3381   1.550   2.845   0.814 -0.6724 -0.0790  0.2382
  846SOL    HW1 3382   1.618   2.873   0.874 -1.8849  0.0958  1.1041
  846SOL    HW2 3383   1.469   2.876   0.854 -2.0486  1.1216  1.2007
  846SOL     MW 3384   1.548   2.853   0.827 -1.0139  0.1025  0.4794
  847SOL     OW 3385   2.614   1.901   0.196  0.3801 -0.0157  0.1867
  847SOL    HW1 3386   2.701   1.872   0.203  0.1783 -0.4224  2.4367
  847SOL    HW2 3387   2.593   1.874   0.111  0.5484  1.3194 -0.9391
  847SOL     MW 3388   2.623   1.894   0.185  0.3757  0.1068  0.3350
  848SOL     OW 3389   2.496   2.137   1.297 -0.5515  0.3630  0.1088
  848SOL    HW1 3390   2.565   2.190   1.245  3.7116  1.8880  1.4155
  848SOL    HW2 3391   2.459   2.077   1.235  0.1739  0.7483  1.6210
  848SOL     MW 3392   2.500   2.136   1.282  0.1067  0.6150  0.4807
  849SOL     OW 3393   1.988   2.746   0.805 -0.3804  0.4675 -0.0764
  849SOL    HW1 3394   2.002   2.667   0.856  1.5823  2.1895  0.5559
  849SOL    HW2 3395   2.058   2.741   0.742  2.2089 -2.9840 -0.4600
  849SOL     MW 3396   1.999   2.735   0.803  0.2202  0.2393 -0.0436
  850SOL     OW 3397   2.188   1.972   1.682  0.0081  0.2114  0.2286
  850SOL    HW1 3398   2.103   1.927   1.664 -2.1793 -0.1129 -1.1562
  850SOL    HW2 3399   2.171   2.065   1.710 -0.2018 -0.0197 -0.9654
  850SOL     MW 3400   2.175   1.978   1.683 -0.3082  0.1381 -0.1117
  851SOL     OW 3401   2.216   2.367   0.359  0.1266  0.0199  0.2458
  851SOL    HW1 3402   2.179   2.412   0.290 -1.0144  0.8115  0.3432
  851SOL    HW2 3403   2.308   2.393   0.373  0.8906  2.8994 -2.3262
  851SOL     MW 3404   2.223   2.376   0.352  0.0769  0.5043 -0.0807
  852SOL     OW 3405   2.274   2.145   0.163 -0.1767  0.1945 -0.4312
  852SOL    HW1 3406   2.250   2.216   0.221  0.6901  0.2345 -1.1053
  852SOL    HW2 3407   2.368   2.160   0.141  0.0070  0.9716  1.2259
  852SOL     MW 3408   2.283   2.156   0.167 -0.0381  0.3023 -0.3015
  853SOL     OW 3409   2.452   2.447   1.976  0.4051 -0.0447  0.0352
  853SOL    HW1 3410   2.466   2.496   1.896 -0.4352  0.1089  1.6284
  853SOL    HW2 3411   2.543   2.446   2.018 -1.0259  0.0180 -1.0440
  853SOL     MW 3412   2.465   2.453   1.971  0.1054 -0.0162  0.1030
  854SOL     OW 3413   2.889   2.236   0.742  0.0206  0.2715  0.0918
  854SOL    HW1 3414   2.799   2.228   0.712  1.0373  1.9142  0.0747
  854SOL    HW2 3415   2.908   2.159   0.801 -0.9716 -0.2032  0.3255
  854SOL     MW 3416   2.880   2.225   0.746  0.0239  0.4256  0.1204
  855SOL     OW 3417   2.692   2.252   0.310 -0.2655 -0.9329  0.1449
  855SOL    HW1 3418   2.642   2.262   0.386 -0.3451 -0.2939  1.6716
  855SOL    HW2 3419   2.769   2.198   0.334  0.9213  1.6555  0.5499
  855SOL     MW 3420   2.696   2.246   0.323 -0.1194 -0.5071  0.3997
  856SOL     OW 3421   2.166   1.888   0.213  0.2943  0.4732  0.8739
  856SOL    HW1 3422   2.072   1.896   0.234 -0.2808  0.3559 -0.0865
  856SOL    HW2 3423   2.204   1.976   0.223  1.8373  1.9443  1.4776
  856SOL     MW 3424   2.159   1.900   0.217  0.4220  0.6518  0.8269
  857SOL     OW 3425   2.538   1.909   0.470  0.2725  0.2199 -0.0189
  857SOL    HW1 3426   2.553   1.904   0.378 -5.4643  2.4323  2.2483
  857SOL    HW2 3427   2.443   1.883   0.472 -2.2708 -2.4296  1.3612
  857SOL     MW 3428   2.528   1.905   0.458 -0.8200  0.1622  0.4623
  858SOL     OW 3429   2.915   2.626   1.723 -0.4758  0.0715 -0.4907
  858SOL    HW1 3430   2.988   2.670   1.772  0.1185 -0.5742 -1.2812
  858SOL    HW2 3431   2.887   2.554   1.776  1.9443  2.9720 -1.3692
  858SOL     MW 3432   2.920   2.622   1.736 -0.0781  0.3690 -0.7109
  859SOL     OW 3433   2.084   2.480   0.847  0.2703  0.6754 -0.7005
  859SOL    HW1 3434   2.065   2.459   0.756 -0.1407 -0.1283 -2.6461
  859SOL    HW2 3435   2.119   2.397   0.885  1.1580 -0.6593  0.0704
  859SOL     MW 3436   2.086   2.467   0.840  0.3332  0.3932 -0.8555
  860SOL     OW 3437   2.655   2.617   0.138  0.1435 -0.7833  0.1973
  860SOL    HW1 3438   2.710   2.572   0.208 -0.5575 -0.8490 -1.6476
  860SOL    HW2 3439   2.701   2.697   0.124 -2.6038 -2.0510 -0.3803
  860SOL     MW 3440   2.668   2.622   0.145 -0.3114 -0.9593 -0.1223
  861SOL     OW 3441   1.592   2.098   1.194  0.2996  0.5630  0.2121
  861SOL    HW1 3442   1.659   2.113   1.260  1.0206  4.4845  1.1230
  861SOL    HW2 3443   1.523   2.035   1.229  0.4348 -1.5058  1.5260
  861SOL     MW 3444   1.592   2.092   1.207  0.4126  0.8075  0.5056
  862SOL     OW 3445   2.396   1.848   1.531  0.5790  0.4879 -0.1619
  862SOL    HW1 3446   2.335   1.898   1.582 -2.5839 -2.5490 -1.6573
  862SOL    HW2 3447   2.344   1.859   1.448 -0.0630  0.5132  1.9520
  862SOL     MW 3448   2.381   1.856   1.527  0.0770  0.0906 -0.0803
  863SOL     OW 3449   3.054   1.790   1.199 -0.1088 -0.1179  0.4357
  863SOL    HW1 3450   3.134   1.808   1.150  0.7227 -0.2984 -0.8431
  863SOL    HW2 3451   3.037   1.876   1.223  1.4409 -2.1905  1.1134
  863SOL     MW 3452   3.063   1.804   1.196  0.2054 -0.4152  0.3564
  864SOL     OW 3453   0.027   1.829   0.844  0.4935  0.2391 -0.4256
  864SOL    HW1 3454  -0.027   1.755   0.871 -0.5857  0.2369 -1.6400
  864SOL    HW2 3455   0.003   1.838   0.746  0.4305 -0.4093 -2.1297
  864SOL     MW 3456   0.017   1.821   0.834  0.3428  0.1533 -0.8107
  865SOL     OW 3457   2.539   2.177   0.058  0.0318 -0.2344  0.4221
  865SOL    HW1 3458   2.544   2.109   0.128  0.2492  3.0498 -1.2998
  865SOL    HW2 3459   2.519   2.130  -0.022 -1.7587  0.9360 -1.7210
  865SOL     MW 3460   2.537   2.162   0.057 -0.1758  0.3533 -0.0878
  866SOL     OW 3461   2.659   2.355   1.608 -0.6591 -0.1264  0.5584
  866SOL    HW1 3462   2.655   2.259   1.590  2.4027 -0.3614 -0.1869
  866SOL    HW2 3463   2.694   2.379   1.523 -1.8273 -4.1620  0.1734
  866SOL     MW 3464   2.663   2.345   1.594 -0.4093 -0.6899  0.4092
  867SOL     OW 3465   0.037   2.747   1.829 -0.6564  0.2839 -0.1099
  867SOL    HW1 3466   0.086   2.766   1.906 -0.0799 -0.5620 -3.2139
  867SOL    HW2 3467   0.046   2.817   1.769 -1.0092  0.3650 -0.6629
  867SOL     MW 3468   0.045   2.759   1.831 -0.6269  0.1830 -0.5924
  868SOL     OW 3469   2.801   2.582   0.559  0.1999  0.5746  0.1728
  868SOL    HW1 3470   2.729   2.516   0.559 -0.7444  0.7344  0.1682
  868SOL    HW2 3471   2.760   2.669   0.541 -0.1792  0.6212 -0.5882
  868SOL     MW 3472   2.786   2.585   0.557  0.0253  0.6018  0.0717
  869SOL     OW 3473   1.942   2.337   1.052 -0.0434  0.0020 -0.2857
  869SOL    HW1 3474   1.981   2.415   1.009  1.3107 -1.9225 -0.7169
  869SOL    HW2 3475   1.916   2.282   0.971 -0.5591  1.9190  1.1694
  869SOL     MW 3476   1.944   2.340   1.036  0.0672  0.0010 -0.1506
  870SOL     OW 3477   2.224   0.021   0.519 -0.3884 -0.0607  0.0003
  870SOL    HW1 3478   2.277   0.057   0.452 -2.4895 -2.5948  0.7224
  870SOL    HW2 3479   2.255  -0.065   0.546  0.3606  1.3189  0.4788
  870SOL     MW 3480   2.235   0.014   0.514 -0.5668 -0.2130  0.1587
  871SOL     OW 3481   2.476   1.979   0.913 -0.0598 -0.4504  0.4505
  871SOL    HW1 3482   2.423   1.968   0.836  2.2580  0.3559 -0.7876
  871SOL    HW2 3483   2.443   2.065   0.939  1.3768  1.1197  0.9806
  871SOL     MW 3484   2.465   1.989   0.907  0.4355 -0.1368  0.3571
  872SOL     OW 3485   2.006   2.510   1.378  0.1136  0.1284  0.7244
  872SOL    HW1 3486   1.964   2.524   1.458  1.2368  0.5785 -3.3987
  872SOL    HW2 3487   1.946   2.448   1.340  1.8547 -0.6192 -0.2110
  872SOL     MW 3488   1.992   2.504   1.384  0.4915  0.0891  0.0570
  873SOL     OW 3489   2.829   2.065   1.939  0.1216 -0.5300  0.0891
  873SOL    HW1 3490   2.869   2.120   2.001 -3.4781  0.7654  0.6197
  873SOL    HW2 3491   2.897   2.038   1.872  1.0215  0.5423 -0.1329
  873SOL     MW 3492   2.843   2.069   1.938 -0.2346 -0.2176  0.1298
  874SOL     OW 3493   2.427   1.515   2.384 -0.0829 -0.5304  0.2023
  874SOL    HW1 3494   2.350   1.459   2.354 -2.6848 -0.7136 -0.4717
  874SOL    HW2 3495   2.506   1.458   2.390  2.6371 -0.4935  0.0426
  874SOL     MW 3496   2.427   1.500   2.381 -0.0673 -0.5497  0.0923
  875SOL     OW 3497   2.323   2.283   0.950  0.1200 -0.0804  0.4713
  875SOL    HW1 3498   2.386   2.336   0.900 -0.4058 -0.7325  0.0493
  875SOL    HW2 3499   2.326   2.326   1.034 -1.1752  1.5634  1.7173
  875SOL     MW 3500   2.332   2.296   0.955 -0.1203  0.0505  0.5800
  876SOL     OW 3501   3.038   2.322   1.298  0.6248  0.0162 -0.8297
  876SOL    HW1 3502   3.104   2.315   1.223 -2.1479 -0.7441 -0.0747
  876SOL    HW2 3503   3.066   2.381   1.371 -0.6199 -0.9174 -0.5588
  876SOL     MW 3504   3.051   2.329   1.297  0.0948 -0.2073 -0.6944
  877SOL     OW 3505   3.013   2.726   0.348  0.5952 -0.5300  0.5373
  877SOL    HW1 3506   3.037   2.805   0.302 -1.6052 -0.0179  0.3706
  877SOL    HW2 3507   3.036   2.656   0.288 -2.4388  0.8344 -0.8607
  877SOL     MW 3508   3.019   2.727   0.334 -0.0954 -0.2824  0.3308
  878SOL     OW 3509   2.298   1.828   1.254 -0.0456 -0.1207 -0.9095
  878SOL    HW1 3510   2.252   1.746   1.285  0.9409  1.8750  0.6475
  878SOL    HW2 3511   2.383   1.797   1.221 -2.1302 -0.9151 -1.0864
  878SOL     MW 3512   2.303   1.813   1.254 -0.1905  0.0378 -0.7274
  879SOL     OW 3513   2.745   2.430   0.897 -0.5193  0.0809  0.5142
  879SOL    HW1 3514   2.797   2.503   0.938 -1.6493 -2.1566 -1.3205
  879SOL    HW2 3515   2.811   2.369   0.872  1.2284 -0.1957 -0.6964
  879SOL     MW 3516   2.761   2.432   0.899 -0.4378 -0.2508  0.1124
  880SOL     OW 3517   2.616   2.132   0.674 -0.1649  1.3524  0.3568
  880SOL    HW1 3518   2.603   2.108   0.767  1.4559  0.7477 -1.0874
  880SOL    HW2 3519   2.566   2.068   0.619  0.0735 -0.8272 -1.6290
  880SOL     MW 3520   2.608   2.120   0.679  0.0804  0.9850 -0.0957
  881SOL     OW 3521   2.942   2.688   0.747  0.4152  0.0529 -0.1120
  881SOL    HW1 3522   2.910   2.631   0.678  0.1236 -0.9413 -0.1056
  881SOL    HW2 3523   3.035   2.682   0.717  0.9910  0.3267 -1.8277
  881SOL     MW 3524   2.950   2.679   0.734  0.4527 -0.0422 -0.3375
  882SOL     OW 3525   2.310   2.836   1.937 -0.1059  0.4374  0.8808
  882SOL    HW1 3526   2.299   2.833   1.841  0.2296  0.2656  0.2454
  882SOL    HW2 3527   2.261   2.762   1.974 -0.6418  0.4849 -0.7430
  882SOL     MW 3528   2.302   2.826   1.929 -0.1324  0.4210  0.5827
  883SOL     OW 3529   2.271   2.276   1.389  0.1542  0.5173  0.4907
  883SOL    HW1 3530   2.353   2.226   1.357  1.1419 -1.8368 -0.4277
  883SOL    HW2 3531   2.193   2.232   1.346 -1.9671 -2.3478  2.3393
  883SOL     MW 3532   2.271   2.264   1.379  0.0046 -0.1714  0.6134
  884SOL     OW 3533   1.873   1.881   1.131  0.3177  0.0655 -0.0379
  884SOL    HW1 3534   1.811   1.907   1.063 -2.4830 -1.8257 -0.3552
  884SOL    HW2 3535   1.953   1.901   1.088 -1.2940 -0.0164  0.6746
  884SOL     MW 3536   1.876   1.887   1.117 -0.2645 -0.1948  0.0143
  885SOL     OW 3537   2.804   2.411   1.851  0.2620  0.1110  0.2563
  885SOL    HW1 3538   2.892   2.371   1.851  1.2150 -4.2065 -0.6956
  885SOL    HW2 3539   2.744   2.374   1.786 -0.6456 -1.7956 -0.7376
  885SOL     MW 3540   2.807   2.401   1.843  0.2680 -0.7102 -0.0004
  886SOL     OW 3541   2.787   2.454   1.340 -0.4129  0.2270 -0.2771
  886SOL    HW1 3542   2.862   2.395   1.324 -0.9702 -0.5763  0.7346
  886SOL    HW2 3543   2.830   2.537   1.352 -0.4096 -2.0500  0.7425
  886SOL     MW 3544   2.803   2.457   1.340 -0.4860 -0.1794 -0.0091
  887SOL     OW 3545   2.298   2.615   1.492 -0.1110  0.0498 -0.1483
  887SOL    HW1 3546   2.342   2.636   1.406 -0.3910  2.6994  0.8778
  887SOL    HW2 3547   2.218   2.566   1.473 -0.7923  2.2570  0.6503
  887SOL     MW 3548   2.293   2.612   1.478 -0.2378  0.6906  0.0925
  888SOL     OW 3549   1.820   2.096   1.344  0.3092  0.2557  0.1425
  888SOL    HW1 3550   1.899   2.066   1.295  1.7567  0.5121  1.9875
  888SOL    HW2 3551   1.860   2.112   1.430  1.9672  0.1448  0.7980
  888SOL     MW 3552   1.835   2.094   1.349  0.7189  0.2749  0.4724
  889SOL     OW 3553   2.360   2.009   2.088 -0.1185 -0.1868 -0.3295
  889SOL    HW1 3554   2.424   2.035   2.154  1.5598 -0.7831 -2.0434
  889SOL    HW2 3555   2.332   2.093   2.046 -2.5056  0.0514 -2.5312
  889SOL     MW 3556   2.365   2.023   2.091 -0.2120 -0.2341 -0.8461
  890SOL     OW 3557   0.094   2.283   0.117 -0.4662 -0.0091  0.6896
  890SOL    HW1 3558   0.061   2.372   0.125  1.8421  0.4290 -0.0409
  890SOL    HW2 3559   0.084   2.246   0.207  1.5289 -0.3539 -0.7899
  890SOL     MW 3560   0.088   2.290   0.130  0.1016  0.0032  0.3980
  891SOL     OW 3561   3.039   2.054   1.278 -0.2471 -0.3389 -0.4454
  891SOL    HW1 3562   3.113   2.031   1.334  1.2410  1.1917  2.8947
  891SOL    HW2 3563   3.049   2.146   1.270  0.8842 -0.7551 -2.2508
  891SOL     MW 3564   3.050   2.063   1.284  0.0985 -0.1919 -0.2429
  892SOL     OW 3565   2.355   2.419   2.967 -0.3955  0.2034 -0.4429
  892SOL    HW1 3566   2.390   2.378   3.044 -0.0293  0.4202  1.2516
  892SOL    HW2 3567   2.428   2.443   2.906  0.3442 -0.4542 -2.7335
  892SOL     MW 3568   2.369   2.417   2.969 -0.2496  0.1453 -0.5216
  893SOL     OW 3569   1.587   2.508   1.232 -0.0931 -0.1401  0.3359
  893SOL    HW1 3570   1.499   2.518   1.289 -1.9876 -1.7234  2.5974
  893SOL    HW2 3571   1.665   2.461   1.274 -0.2163 -0.9891 -0.5914
  893SOL     MW 3572   1.586   2.503   1.245 -0.3593 -0.4610  0.5119
  894SOL     OW 3573   2.836   1.919   0.483  0.0037  0.1512 -0.6800
  894SOL    HW1 3574   2.749   1.905   0.524  3.7974 -0.7911 -0.0344
  894SOL    HW2 3575   2.831   1.869   0.393 -2.0522 -0.9936  0.6613
  894SOL     MW 3576   2.824   1.910   0.476  0.2330 -0.1242 -0.4179
  895SOL     OW 3577   2.093   2.159   1.223  0.3263  0.0552  1.1862
  895SOL    HW1 3578   2.057   2.229   1.169 -1.1520  0.5183  0.0653
  895SOL    HW2 3579   2.106   2.080   1.167  1.1424  0.7197  0.7840
  895SOL     MW 3580   2.090   2.158   1.209  0.2389  0.2039  0.9853
  896SOL     OW 3581   2.185   2.821   1.098 -0.4061  0.0655  0.5657
  896SOL    HW1 3582   2.256   2.807   1.160 -0.4288 -0.1105 -1.8162
  896SOL    HW2 3583   2.107   2.785   1.147 -1.4296 -3.2415  1.6202
  896SOL     MW 3584   2.184   2.814   1.112 -0.5441 -0.3941  0.3906
  897SOL     OW 3585   2.983   2.973   0.195  0.2728 -0.2165 -0.0385
  897SOL    HW1 3586   3.043   2.950   0.122  0.5677  1.9776 -0.9905
  897SOL    HW2 3587   2.913   2.918   0.177  0.0757  0.4258 -0.9831
  897SOL     MW 3588   2.982   2.962   0.183  0.2857  0.1577 -0.2888
  898SOL     OW 3589   2.093   0.205   1.459 -0.0467 -0.1637 -0.2954
  898SOL    HW1 3590   2.030   0.138   1.425  0.3760  0.5677 -0.7439
  898SOL    HW2 3591   2.133   0.241   1.379  0.7091  2.6720  0.7541
  898SOL     MW 3592   2.090   0.201   1.444  0.1088  0.3069 -0.2161
  899SOL     OW 3593   2.878   2.946   0.696 -0.1822 -0.2536 -0.2751
  899SOL    HW1 3594   2.895   2.859   0.733  1.3450  0.9781  1.6718
  899SOL    HW2 3595   2.786   2.969   0.724 -0.7455 -1.2952  0.0396
  899SOL     MW 3596   2.868   2.938   0.704 -0.0550 -0.2285  0.0233
  900SOL     OW 3597   0.131   2.353   1.105  0.0368 -0.0534 -0.0955
  900SOL    HW1 3598   0.086   2.433   1.081 -1.3368 -1.7885 -0.1534
  900SOL    HW2 3599   0.133   2.297   1.026  0.5570 -1.9245  0.6071
  900SOL     MW 3600   0.126   2.356   1.091 -0.0758 -0.5292 -0.0105
  901SOL     OW 3601   1.769   2.877   1.712  0.7367  1.0038  0.0005
  901SOL    HW1 3602   1.839   2.817   1.678 -1.9932 -0.0826 -1.5947
  901SOL    HW2 3603   1.700   2.891   1.644 -1.7779  1.5710 -1.5554
  901SOL     MW 3604   1.769   2.871   1.699  0.0447  0.9353 -0.4152
  902SOL     OW 3605   2.578   2.015   1.849  0.1716  0.5891  0.4784
  902SOL    HW1 3606   2.557   1.932   1.894 -2.4487 -1.0382 -1.7488
  902SOL    HW2 3607   2.664   2.054   1.873 -1.4120 -1.0837 -1.8066
  902SOL     MW 3608   2.587   2.010   1.858 -0.3830  0.1537 -0.1169
  903SOL     OW 3609   1.599   2.783   0.543 -0.5603 -0.5041 -0.0383
  903SOL    HW1 3610   1.627   2.695   0.559 -0.5561  0.3584 -1.5085
  903SOL    HW2 3611   1.583   2.808   0.640 -1.5855  2.2376 -1.0216
  903SOL     MW 3612   1.601   2.775   0.558 -0.6950 -0.0285 -0.3620
  904SOL     OW 3613   2.484   2.572   1.716 -0.1792 -0.3459  0.7242
  904SOL    HW1 3614   2.417   2.576   1.650  0.2399 -0.3494 -0.9293
  904SOL    HW2 3615   2.539   2.504   1.676 -0.5056  2.9739  0.0890
  904SOL     MW 3616   2.482   2.564   1.702 -0.1670  0.0916  0.4222
  905SOL     OW 3617   2.318   2.570   2.188 -0.5620 -0.1295  0.0189
  905SOL    HW1 3618   2.374   2.527   2.124 -1.7128 -0.9710 -0.5181
  905SOL    HW2 3619   2.285   2.492   2.248  0.0416 -3.2905 -1.2671
  905SOL     MW 3620   2.321   2.554   2.188 -0.6342 -0.6576 -0.2216
  906SOL     OW 3621   2.483   2.464   0.757 -1.0253  0.2001  0.0005
  906SOL    HW1 3622   2.563   2.420   0.791  0.0225 -0.7753 -1.9919
  906SOL    HW2 3623   2.478   2.555   0.793 -0.1617  0.0831 -0.1596
  906SOL     MW 3624   2.493   2.470   0.767 -0.7731  0.0560 -0.2835
  907SOL     OW 3625   2.635   2.922   1.248  0.0040  0.5157  0.2176
  907SOL    HW1 3626   2.699   2.894   1.310  0.3643  1.0189  0.5908
  907SOL    HW2 3627   2.689   2.939   1.170  0.3007  2.0261 -1.9468
  907SOL     MW 3628   2.650   2.920   1.246  0.0907  0.7814 -0.0187
  908SOL     OW 3629   2.719   2.387   0.019  0.5542 -0.2182 -0.3448
  908SOL    HW1 3630   2.657   2.310   0.031 -2.8794 -2.2804  2.0491
  908SOL    HW2 3631   2.686   2.465   0.061 -1.6261  1.1940  1.9072
  908SOL     MW 3632   2.707   2.387   0.026 -0.1865 -0.3040  0.2681
  909SOL     OW 3633   1.600   0.185   1.041 -0.2533 -0.7419  0.3210
  909SOL    HW1 3634   1.678   0.216   1.002 -0.6804 -0.5481  0.9607
  909SOL    HW2 3635   1.588   0.225   1.128 -1.4391 -1.1181  2.1256
  909SOL     MW 3636   1.609   0.195   1.047 -0.4661 -0.7659  0.6435
  910SOL     OW 3637   2.305   1.779   0.420  0.3355  0.2928 -0.0681
  910SOL    HW1 3638   2.245   1.703   0.443  0.2978 -1.3601 -1.2095
  910SOL    HW2 3639   2.265   1.807   0.341  0.4671 -0.8294  1.5781
  910SOL     MW 3640   2.292   1.773   0.413  0.3479 -0.0733 -0.0015
  911SOL     OW 3641   2.168   2.301   1.664  0.5440 -0.0942 -0.0523
  911SOL    HW1 3642   2.242   2.268   1.722  1.8271 -3.1777  1.9532
  911SOL    HW2 3643   2.204   2.310   1.573  0.0628 -1.3671 -0.9886
  911SOL     MW 3644   2.183   2.298   1.660  0.6498 -0.6690  0.0888
  912SOL     OW 3645   2.900   1.945   1.511 -0.2051  0.8099 -0.0173
  912SOL    HW1 3646   2.952   1.994   1.449 -0.1659 -1.1925  0.1634
  912SOL    HW2 3647   2.817   1.987   1.524 -2.1225 -0.7369  1.8760
  912SOL     MW 3648   2.896   1.957   1.504 -0.4529  0.3416  0.2564
  913SOL     OW 3649   2.536   2.943   0.419 -0.3601  0.2879 -0.2289
  913SOL    HW1 3650   2.620   2.905   0.452 -0.9810 -0.6278  3.0324
  913SOL    HW2 3651   2.464   2.875   0.414  0.0121 -1.3373 -0.1947
  913SOL     MW 3652   2.537   2.929   0.423 -0.3929 -0.0474  0.2059
  914SOL     OW 3653   2.778   1.656   0.027 -0.3081  0.2793  0.1527
  914SOL    HW1 3654   2.794   1.718  -0.049  0.1586 -0.6473  0.8766
  914SOL    HW2 3655   2.688   1.629   0.030  2.0602 -1.1387  5.6898
  914SOL     MW 3656   2.768   1.660   0.017  0.0659 -0.0300  0.9788
  915SOL     OW 3657   1.839   0.181   0.238 -0.2786  0.2217  0.3925
  915SOL    HW1 3658   1.894   0.113   0.276  1.0341 -0.9733 -0.9912
  915SOL    HW2 3659   1.746   0.162   0.265 -2.7140  1.5360 -0.1255
  915SOL     MW 3660   1.834   0.170   0.247 -0.4267  0.2374  0.1416
  916SOL     OW 3661   1.804   2.084   1.978 -0.3075  0.0411 -0.1952
  916SOL    HW1 3662   1.800   2.181   1.962 -3.2770 -1.4924 -1.9179
  916SOL    HW2 3663   1.824   2.050   1.892 -1.5253 -0.6863 -1.5230
  916SOL     MW 3664   1.806   2.092   1.964 -0.8600 -0.2572 -0.5977
  917SOL     OW 3665   2.338   2.341   2.692  0.7573 -0.3709  0.4214
  917SOL    HW1 3666   2.336   2.308   2.781  0.5108 -2.9558 -0.2143
  917SOL    HW2 3667   2.291   2.421   2.685  2.3910  0.4908  1.2901
  917SOL     MW 3668   2.332   2.347   2.703  0.9403 -0.5983  0.4522
  918SOL     OW 3669   2.067   1.663   2.670 -0.5872  0.1445  0.2033
  918SOL    HW1 3670   1.982   1.688   2.630  0.8421 -0.0239 -2.3183
  918SOL    HW2 3671   2.124   1.728   2.625 -2.2618 -1.7742  0.6381
  918SOL     MW 3672   2.063   1.675   2.659 -0.6195 -0.1308 -0.0720
  919SOL     OW 3673   3.101   2.375   2.264 -0.0472 -0.3193  0.4153
  919SOL    HW1 3674   3.015   2.328   2.232  2.2609  0.7548 -0.2038
  919SOL    HW2 3675   3.162   2.362   2.195 -1.3042 -0.6850 -0.2654
  919SOL     MW 3676   3.097   2.367   2.251  0.0915 -0.2258  0.2438
  920SOL     OW 3677   2.760   2.836   0.028  0.0133  0.3314 -0.0856
  920SOL    HW1 3678   2.698   2.906   0.058 -0.0813  0.2813 -3.6078
  920SOL    HW2 3679   2.724   2.781  -0.044  0.7567  1.1502  0.5213
  920SOL     MW 3680   2.747   2.838   0.023  0.0989  0.4328 -0.4702
  921SOL     OW 3681   2.497   2.623   2.661 -0.3224  0.3178 -0.6384
  921SOL    HW1 3682   2.565   2.641   2.597 -0.6052 -1.3305  0.8756
  921SOL    HW2 3683   2.527   2.555   2.716  1.5936 -0.8750  3.0522
  921SOL     MW 3684   2.510   2.617   2.660 -0.1069 -0.0571  0.0483
  922SOL     OW 3685   2.041   2.805   0.273 -0.1664 -0.6411  0.6313
  922SOL    HW1 3686   2.024   2.826   0.176  0.9309  2.0401  1.3205
  922SOL    HW2 3687   2.015   2.711   0.285 -0.4839  2.1350 -1.1549
  922SOL     MW 3688   2.035   2.795   0.262 -0.0635  0.0790  0.4865
  923SOL     OW 3689   2.216   2.823   1.660  0.1909 -0.3799  0.3104
  923SOL    HW1 3690   2.266   2.791   1.584  1.5236  0.6500  1.8535
  923SOL    HW2 3691   2.194   2.916   1.636  1.4298 -1.0932  0.6179
  923SOL     MW 3692   2.220   2.831   1.647  0.5302 -0.3382  0.5546
  924SOL     OW 3693   1.172   2.779   2.526  0.2348 -0.2688  0.8442
  924SOL    HW1 3694   1.201   2.852   2.468 -0.3685 -1.4101 -1.5924
  924SOL    HW2 3695   1.260   2.740   2.547  0.7179  0.2315 -0.5060
  924SOL     MW 3696   1.187   2.783   2.521  0.2190 -0.3534  0.3445
  925SOL     OW 3697   2.943   0.197   2.650 -0.3060  0.2355 -0.9849
  925SOL    HW1 3698   2.990   0.236   2.578 -1.4405  1.2897  2.8152
  925SOL    HW2 3699   2.896   0.272   2.699  2.3943 -0.7940  1.0353
  925SOL     MW 3700   2.943   0.212   2.647 -0.0994  0.2388 -0.2170
  926SOL     OW 3701   2.695   2.399   2.095  0.6228  0.0675 -0.3999
  926SOL    HW1 3702   2.749   2.465   2.141 -1.3135 -0.7950  1.3619
  926SOL    HW2 3703   2.725   2.390   2.002  1.2540 -1.3900  0.3769
  926SOL     MW 3704   2.706   2.407   2.089  0.4506 -0.2386 -0.0650
  927SOL     OW 3705   2.361   0.140   0.307  0.0175 -0.1789 -0.1162
  927SOL    HW1 3706   2.449   0.169   0.316  0.9663  0.7509  0.2999
  927SOL    HW2 3707   2.360   0.106   0.213  0.7964 -1.3294 -1.6107
  927SOL     MW 3708   2.372   0.139   0.296  0.2454 -0.2080 -0.2585
  928SOL     OW 3709   1.995   2.498   1.780 -0.2847  0.1903  0.4713
  928SOL    HW1 3710   2.060   2.436   1.738 -2.7131 -1.2900  0.1291
  928SOL    HW2 3711   2.053   2.529   1.853  3.3472 -2.4502  0.0991
  928SOL     MW 3712   2.011   2.494   1.784 -0.1259 -0.3534  0.3770
  929SOL     OW 3713   2.758   2.368   2.469 -0.4231  0.6229  0.0498
  929SOL    HW1 3714   2.798   2.317   2.399  1.8508 -1.4446 -0.6679
  929SOL    HW2 3715   2.759   2.312   2.545  2.6688 -1.5980 -1.1100
  929SOL     MW 3716   2.764   2.354   2.470  0.2849  0.0571 -0.1979
  930SOL     OW 3717   2.029   2.907   2.676 -0.0141  0.1025  0.3749
  930SOL    HW1 3718   2.030   2.825   2.726  0.1628 -0.5116 -0.7670
  930SOL    HW2 3719   2.120   2.944   2.673 -1.2497 -1.4669  1.6258
  930SOL     MW 3720   2.041   2.901   2.682 -0.1538 -0.1856  0.3892
  931SOL     OW 3721   2.944   2.804   2.234  0.2818 -0.2310  0.2909
  931SOL    HW1 3722   3.029   2.785   2.266 -0.3758 -3.2049 -0.0327
  931SOL    HW2 3723   2.950   2.817   2.138  0.7270 -0.2834 -1.1714
  931SOL     MW 3724   2.956   2.803   2.226  0.2537 -0.6303  0.0553
  932SOL     OW 3725   2.820   1.931   2.561 -0.4503  0.1066  0.0482
  932SOL    HW1 3726   2.912   1.927   2.588 -1.6826 -1.2350  2.4810
  932SOL    HW2 3727   2.814   1.938   2.466  1.0238  1.2095 -3.0586
  932SOL     MW 3728   2.832   1.931   2.552 -0.4184  0.0751 -0.0408
  933SOL     OW 3729   2.031   2.811   2.215  0.2785  0.0434  0.2966
  933SOL    HW1 3730   2.101   2.877   2.229  1.4271 -1.4603 -2.2065
  933SOL    HW2 3731   1.949   2.861   2.205 -1.0524 -1.3786 -3.3939
  933SOL     MW 3732   2.030   2.827   2.215  0.2544 -0.3426 -0.5205
  934SOL     OW 3733   2.040   2.725   2.489  0.0490  0.5725 -0.2326
  934SOL    HW1 3734   2.031   2.800   2.548 -0.0210  2.0774 -0.3070
  934SOL    HW2 3735   2.039   2.769   2.400  0.7931  3.0248  2.7625
  934SOL     MW 3736   2.039   2.741   2.485  0.1379  1.0946  0.1527
  935SOL     OW 3737   2.606   1.550   1.815  0.2771 -0.4969  0.1424
  935SOL    HW1 3738   2.687   1.524   1.774 -1.5415 -1.1033  2.5398
  935SOL    HW2 3739   2.551   1.575   1.748 -1.7174  0.0648  4.3576
  935SOL     MW 3740   2.610   1.550   1.801 -0.2260 -0.5028  1.0149
  936SOL     OW 3741   2.951   2.246   3.060 -0.1091  0.0870  0.2018
  936SOL    HW1 3742   3.030   2.290   3.101  1.3438 -2.4090  1.7029
  936SOL    HW2 3743   2.877   2.298   3.089 -0.8259 -2.8081  0.7505
  936SOL     MW 3744   2.951   2.259   3.070 -0.0120 -0.6243  0.4723
  937SOL     OW 3745   1.982   2.187   2.617  0.6419 -0.2148  0.0347
  937SOL    HW1 3746   2.056   2.148   2.662  0.7582 -1.0885  0.3582
  937SOL    HW2 3747   1.996   2.161   2.523 -0.5674 -1.2523 -0.7737
  937SOL     MW 3748   1.994   2.178   2.611  0.4977 -0.4670 -0.0292
  938SOL     OW 3749   2.300   1.814   1.901  0.3719 -0.5842  0.3559
  938SOL    HW1 3750   2.260   1.866   1.830 -0.1871  1.0859  0.0225
  938SOL    HW2 3751   2.309   1.876   1.970 -1.2232 -1.2517 -4.0407
  938SOL     MW 3752   2.296   1.829   1.901  0.0877 -0.4519 -0.2682
  939SOL     OW 3753   2.808   1.947   2.299  0.0383  0.5489 -0.0419
  939SOL    HW1 3754   2.842   1.899   2.224  2.4263  0.3608 -0.6912
  939SOL    HW2 3755   2.712   1.967   2.291 -0.9241 -0.0448  0.2090
  939SOL     MW 3756   2.800   1.943   2.288  0.2264  0.4458 -0.0945
  940SOL     OW 3757   2.313   0.128   2.702  0.7150  0.1120 -0.2526
  940SOL    HW1 3758   2.316   0.034   2.706  1.7019 -0.0671  0.6544
  940SOL    HW2 3759   2.356   0.145   2.785 -1.6738 -4.1769 -0.7524
  940SOL     MW 3760   2.319   0.118   2.713  0.5300 -0.4775 -0.1989
  941SOL     OW 3761   0.153   2.331   2.049  0.7461 -0.4484 -0.7731
  941SOL    HW1 3762   0.222   2.271   2.045 -1.6758  2.1579  1.4593
  941SOL    HW2 3763   0.078   2.293   1.997  2.4525 -1.5881  3.4093
  941SOL     MW 3764   0.152   2.318   2.041  0.6517 -0.2549  0.0732
  942SOL     OW 3765   2.871   2.213   2.179  0.0450 -0.5425  0.7225
  942SOL    HW1 3766   2.792   2.273   2.149 -2.0533 -1.2712 -2.7264
  942SOL    HW2 3767   2.837   2.131   2.211 -0.8051  1.1264 -2.2021
  942SOL     MW 3768   2.856   2.210   2.179 -0.3440 -0.4184 -0.1184
  943SOL     OW 3769   0.318   2.033   2.333  0.7749  0.2493  0.0484
  943SOL    HW1 3770   0.239   2.074   2.379 -0.2209  1.4164  0.5345
  943SOL    HW2 3771   0.387   2.028   2.402  2.8236  1.0960 -0.5129
  943SOL     MW 3772   0.317   2.038   2.348  0.9138  0.5150  0.0385
  944SOL     OW 3773   2.124   2.628   2.004  0.3470 -0.3485  0.1524
  944SOL    HW1 3774   2.178   2.582   2.073 -0.8569  0.0088  0.8872
  944SOL    HW2 3775   2.074   2.683   2.063  0.6517 -2.3927  3.0684
  944SOL     MW 3776   2.125   2.629   2.021  0.2284 -0.5711  0.6341
  945SOL     OW 3777   2.770   2.676   2.878  0.4133 -0.2638 -0.2410
  945SOL    HW1 3778   2.737   2.589   2.866  1.1512  1.7595 -1.3089
  945SOL    HW2 3779   2.806   2.696   2.795  0.2963  1.0397  0.8360
  945SOL     MW 3780   2.770   2.667   2.865  0.4952  0.1752 -0.2398
  946SOL     OW 3781   2.507   2.757   2.295 -0.4048 -0.0049 -0.4128
  946SOL    HW1 3782   2.553   2.786   2.214 -1.3643  2.6933  0.8710
  946SOL    HW2 3783   2.440   2.697   2.269  0.8682 -3.2720 -2.8930
  946SOL     MW 3784   2.504   2.753   2.281 -0.3634 -0.0800 -0.5707
  947SOL     OW 3785   2.033   3.076   0.294 -0.4226 -0.6070 -1.3069
  947SOL    HW1 3786   2.050   2.996   0.242  1.7278  0.6833  1.2815
  947SOL    HW2 3787   2.098   3.068   0.369  3.1940  0.9702  3.7579
  947SOL     MW 3788   2.044   3.065   0.297  0.3383 -0.2287 -0.2972
  948SOL     OW 3789   1.812   3.066   2.633 -0.0709 -0.4320  0.4686
  948SOL    HW1 3790   1.890   3.009   2.648  1.1550 -0.2117 -1.9328
  948SOL    HW2 3791   1.828   3.105   2.549  3.2098  1.6342  1.1165
  948SOL     MW 3792   1.824   3.064   2.624  0.5237 -0.1303  0.2372
  949SOL     OW 3793   2.561   2.031   2.298  0.5592  0.3498  0.2548
  949SOL    HW1 3794   2.545   1.937   2.326  1.1921 -1.7532 -1.9088
  949SOL    HW2 3795   2.515   2.093   2.359  1.3114  0.3365 -0.2757
  949SOL     MW 3796   2.553   2.027   2.310  0.7420  0.0706 -0.1007
  950SOL     OW 3797   2.197   2.623   3.031  0.1869 -0.1776 -0.3574
  950SOL    HW1 3798   2.242   2.552   2.980 -1.8300 -1.8843 -2.3662
  950SOL    HW2 3799   2.133   2.647   2.962  1.7737 -1.8583  0.3224
  950SOL     MW 3800   2.194   2.617   3.015  0.1301 -0.6246 -0.5327
  951SOL     OW 3801   2.955   2.064   2.816  0.2475 -0.0166  0.2120
  951SOL    HW1 3802   2.980   2.145   2.861  3.8255 -0.3584  1.0984
  951SOL    HW2 3803   3.023   2.048   2.743 -0.1664  0.8253  2.4223
  951SOL     MW 3804   2.967   2.073   2.813  0.6650  0.0494  0.6206
  952SOL     OW 3805   3.030   1.675   2.048  0.0914  0.5616 -0.4518
  952SOL    HW1 3806   2.951   1.733   2.049 -0.5396  1.5685 -0.4446
  952SOL    HW2 3807   3.097   1.730   2.080 -0.6547 -1.0500  0.4704
  952SOL     MW 3808   3.029   1.690   2.053 -0.0903  0.4818 -0.3292
  953SOL     OW 3809   1.971   1.825   2.883  0.8111  0.0276  0.5263
  953SOL    HW1 3810   1.904   1.771   2.916  3.8078 -1.5288 -0.7913
  953SOL    HW2 3811   2.026   1.780   2.824  0.3591 -0.8965  3.5812
  953SOL     MW 3812   1.969   1.812   2.880  1.1469 -0.2996  0.7555
  954SOL     OW 3813   2.441   2.105   2.900  0.1415  0.2014 -0.1209
  954SOL    HW1 3814   2.352   2.098   2.854 -3.1083  3.5405  0.0585
  954SOL    HW2 3815   2.503   2.059   2.835  2.4670  1.3477  2.0579
  954SOL     MW 3816   2.438   2.098   2.885  0.0195  0.7932  0.1902
  955SOL     OW 3817   1.603   1.612   2.581  0.0332 -0.3234 -0.3229
  955SOL    HW1 3818   1.565   1.634   2.490 -0.8290  1.2263 -3.1774
  955SOL    HW2 3819   1.694   1.653   2.567  0.9896 -2.5112 -0.6219
  955SOL     MW 3820   1.610   1.620   2.567  0.0456 -0.4076 -0.7389
  956SOL     OW 3821   2.617   2.456   2.860  0.0873  0.7495 -0.4993
  956SOL    HW1 3822   2.642   2.419   2.946  1.0544 -2.7091 -0.0208
  956SOL    HW2 3823   2.643   2.387   2.792 -2.5952  0.1141 -3.0025
  956SOL     MW 3824   2.624   2.442   2.862 -0.1390  0.2094 -0.7665
  957SOL     OW 3825   2.293   2.792   0.397 -0.3068  0.0645 -0.1810
  957SOL    HW1 3826   2.212   2.772   0.338  0.0235 -1.5306  0.5255
  957SOL    HW2 3827   2.262   2.760   0.488  2.2478  0.1295  0.7788
  957SOL     MW 3828   2.278   2.785   0.401  0.0738 -0.1374  0.0389
  958SOL     OW 3829   2.007   2.676   2.818 -0.0548 -0.1390 -0.1813
  958SOL    HW1 3830   1.978   2.604   2.756  3.1398  0.6031 -0.3344
  958SOL    HW2 3831   1.924   2.698   2.860  2.8603  0.5172 -5.0671
  958SOL     MW 3832   1.992   2.669   2.815  0.7513  0.0455 -0.8462
  959SOL     OW 3833   2.425   2.566   0.319 -0.0567 -0.2816 -0.2091
  959SOL    HW1 3834   2.486   2.587   0.248  0.3150  1.8012 -0.0492
  959SOL    HW2 3835   2.373   2.651   0.333 -2.5849  1.7762 -3.4939
  959SOL     MW 3836   2.426   2.580   0.311 -0.3413  0.2647 -0.6214
  960SOL     OW 3837   1.927   2.385   2.306 -0.2333 -0.3855  0.1930
  960SOL    HW1 3838   1.929   2.292   2.298  0.9442 -1.8198 -0.8687
  960SOL    HW2 3839   1.851   2.412   2.361 -1.5205  1.6785 -0.8489
  960SOL     MW 3840   1.917   2.377   2.312 -0.2477 -0.3024 -0.0846
  961SOL     OW 3841   2.212   2.370   2.352 -0.2435 -0.8211 -0.2409
  961SOL    HW1 3842   2.117   2.369   2.354 -0.0953 -0.6726  5.3850
  961SOL    HW2 3843   2.230   2.435   2.426 -3.8890 -0.1708 -1.4114
  961SOL     MW 3844   2.202   2.379   2.362 -0.7049 -0.7157  0.3469
  962SOL     OW 3845   2.204   2.078   2.789  0.2662  0.2644 -0.6421
  962SOL    HW1 3846   2.171   2.048   2.872 -1.2717  3.2238  0.4344
  962SOL    HW2 3847   2.206   1.996   2.746 -0.4189 -1.8142  1.7849
  962SOL     MW 3848   2.200   2.063   2.794 -0.0271  0.3806 -0.1799
  963SOL     OW 3849   1.773   2.587   2.099  0.0614 -0.0824 -0.7168
  963SOL    HW1 3850   1.843   2.542   2.135  1.0178 -0.4427 -0.7516
  963SOL    HW2 3851   1.762   2.547   2.019  2.9003  2.0025  0.1314
  963SOL     MW 3852   1.781   2.576   2.093  0.5621  0.1451 -0.6095
  964SOL     OW 3853   1.830   1.986   2.703  0.1238  0.0238  0.2544
  964SOL    HW1 3854   1.900   2.057   2.686  3.1770  3.7835 -0.0107
  964SOL    HW2 3855   1.876   1.922   2.767  3.2695 -0.4412 -1.5707
  964SOL     MW 3856   1.845   1.987   2.709  0.9417  0.4585 -0.0214
  965SOL     OW 3857   2.200   2.676   0.626 -0.0041 -0.1409 -0.1410
  965SOL    HW1 3858   2.155   2.594   0.611  1.4762  1.5687 -3.7483
  965SOL    HW2 3859   2.236   2.665   0.714  1.7182 -3.3625 -0.1275
  965SOL     MW 3860   2.199   2.664   0.636  0.4185 -0.3404 -0.6152
  966SOL     OW 3861   2.681   2.655   2.467 -0.4088 -0.1054  0.1530
  966SOL    HW1 3862   2.624   2.704   2.401 -1.5982  0.5945  0.6044
  966SOL    HW2 3863   2.680   2.561   2.446  0.6471  0.3611  0.6944
  966SOL     MW 3864   2.673   2.649   2.455 -0.4264  0.0485  0.2840
  967SOL     OW 3865   2.887   2.990   2.923  0.5842 -0.0186 -0.0811
  967SOL    HW1 3866   2.861   2.912   2.966  1.0084 -1.3382  0.5587
  967SOL    HW2 3867   2.804   3.034   2.886 -1.0670 -0.1302 -0.2522
  967SOL     MW 3868   2.873   2.986   2.924  0.4223 -0.2075 -0.0193
  968SOL     OW 3869   2.999   2.573   2.984 -0.2052  0.4757  0.0364
  968SOL    HW1 3870   2.915   2.619   2.960 -2.6357  3.7737 -0.1637
  968SOL    HW2 3871   3.020   2.497   2.935 -1.6648 -0.0477  1.8364
  968SOL     MW 3872   2.990   2.569   2.975 -0.7185  0.8418  0.2475
  969SOL     OW 3873   1.531   2.110   1.725 -0.2347 -0.3436  0.1552
  969SOL    HW1 3874   1.605   2.052   1.709 -2.2033  1.1754 -2.6793
  969SOL    HW2 3875   1.516   2.112   1.826 -0.3993 -2.0534  3.0096
  969SOL     MW 3876   1.539   2.103   1.736 -0.5162 -0.3688  0.1578
  970SOL     OW 3877   1.639   1.716   1.870 -0.0869  0.3356  0.2153
  970SOL    HW1 3878   1.698   1.693   1.942 -2.7152 -1.6572  2.2774
  970SOL    HW2 3879   1.547   1.686   1.886 -1.1775  1.2470 -1.8540
  970SOL     MW 3880   1.635   1.709   1.882 -0.5776  0.1929  0.2143
  971SOL     OW 3881   1.833   0.128   2.360 -0.7012 -0.0465 -0.1223
  971SOL    HW1 3882   1.865   0.100   2.280  1.3215 -0.4333  0.4307
  971SOL    HW2 3883   1.909   0.180   2.404  5.3303 -0.1596 -1.8546
  971SOL     MW 3884   1.847   0.131   2.355  0.3615 -0.1125 -0.2779
  972SOL     OW 3885   0.277   2.775   2.516 -0.3634  0.1382 -0.5466
  972SOL    HW1 3886   0.325   2.692   2.545  0.0984  1.2406  1.3549
  972SOL    HW2 3887   0.347   2.843   2.513  0.4100 -1.0052  0.4310
  972SOL     MW 3888   0.293   2.773   2.519 -0.2004  0.1328 -0.1667
  973SOL     OW 3889   2.594   3.103   2.055  0.4061 -0.4995 -0.0978
  973SOL    HW1 3890   2.582   3.011   2.047  2.2043  0.5716 -0.3990
  973SOL    HW2 3891   2.599   3.132   1.964  2.0531 -1.0389  1.0975
  973SOL     MW 3892   2.593   3.095   2.042  0.8607 -0.4294  0.0201
  974SOL     OW 3893   2.120   0.345   2.747  0.0342 -0.8411  0.4487
  974SOL    HW1 3894   2.206   0.302   2.751  0.1658  0.8412  0.1873
  974SOL    HW2 3895   2.064   0.280   2.782  0.0029 -0.4522 -1.4475
  974SOL     MW 3896   2.124   0.331   2.752  0.0475 -0.5678  0.1640
  975SOL     OW 3897   2.250   2.565   2.559  0.0019 -0.1074  0.3821
  975SOL    HW1 3898   2.323   2.611   2.594 -1.9154  1.4038  1.5587
  975SOL    HW2 3899   2.198   2.632   2.515 -0.5967 -1.0251  0.5617
  975SOL     MW 3900   2.253   2.580   2.558 -0.3301 -0.0291  0.5610
  976SOL     OW 3901   0.218   0.303   1.694 -0.1336  0.9151 -0.0027
  976SOL    HW1 3902   0.263   0.232   1.750  3.6988 -1.6912  0.9231
  976SOL    HW2 3903   0.143   0.249   1.659  0.3598  2.6964 -1.0203
  976SOL     MW 3904   0.214   0.287   1.697  0.4371  0.8062 -0.0148
  977SOL     OW 3905   1.704   2.747   2.488 -0.0478  0.0350  0.1306
  977SOL    HW1 3906   1.722   2.651   2.509  1.0006  0.4318  2.0648
  977SOL    HW2 3907   1.778   2.780   2.438  1.9380 -0.4442  3.3000
  977SOL     MW 3908   1.716   2.738   2.484  0.3525  0.0241  0.8039
   3.10000   3.10000   3.10000
