977 TIP4P/2005f water molecules t=   1.26000 step= 1260
 3908
    1SOL     OW    1   0.399   0.812   0.023 -0.8002  0.4370  0.4875
    1SOL    HW1    2   0.390   0.831  -0.069 -1.7761  1.3328  0.1839
    1SOL    HW2    3   0.319   0.761   0.044 -2.3714 -1.4016  2.5408
    1SOL     MW    4   0.387   0.808   0.014 -1.1363  0.3126  0.7184
    2SOL     OW    5   0.351   3.041   1.189 -0.2567  0.2204 -0.0032
    2SOL    HW1    6   0.401   3.102   1.137 -0.2758 -1.7962 -1.3997
    2SOL    HW2    7   0.262   3.077   1.203  0.8426 -0.7324 -0.0588
    2SOL     MW    8   0.346   3.054   1.184 -0.1142 -0.1714 -0.1948
    3SOL     OW    9   2.583   0.330   0.971  0.1395 -0.2156 -0.1501
    3SOL    HW1   10   2.627   0.376   0.905  2.7352 -0.8969 -1.0405
    3SOL    HW2   11   2.589   0.400   1.052  2.0679 -0.8733 -1.2541
    3SOL     MW   12   2.590   0.346   0.973  0.7364 -0.3923 -0.4132
    4SOL     OW   13   3.059   1.739   0.555  0.2857  0.1184  0.2722
    4SOL    HW1   14   3.024   1.811   0.505  0.5551  0.2453  2.3668
    4SOL    HW2   15   3.118   1.702   0.488  0.0554 -0.8085 -1.2906
    4SOL     MW   16   3.062   1.743   0.540  0.2908  0.0129  0.3424
    5SOL     OW   17   1.660   1.515   0.556 -0.3745 -0.3471  0.6629
    5SOL    HW1   18   1.698   1.453   0.623  3.4684  3.6260 -0.2056
    5SOL    HW2   19   1.561   1.505   0.556 -2.2387 -0.0927  0.5272
    5SOL     MW   20   1.652   1.505   0.565 -0.1134  0.2107  0.5304
    6SOL     OW   21   0.834   1.379   0.569  0.3515 -0.1452 -0.0565
    6SOL    HW1   22   0.740   1.393   0.571  1.9554  0.9064 -2.3282
    6SOL    HW2   23   0.865   1.303   0.619 -2.3801 -0.8625 -0.5472
    6SOL     MW   24   0.826   1.371   0.576  0.2027 -0.1011 -0.4210
    7SOL     OW   25   2.060   1.055   0.007 -0.2321  0.5942  0.0686
    7SOL    HW1   26   2.120   1.125  -0.021 -1.5354  0.7553  2.3606
    7SOL    HW2   27   2.069   1.059   0.101 -1.7659 -0.7130  1.8098
    7SOL     MW   28   2.069   1.065   0.015 -0.6064  0.4430  0.6007
    8SOL     OW   29   0.872   1.516   1.197 -0.4433  0.6004  0.1053
    8SOL    HW1   30   0.962   1.531   1.228 -1.2891  1.1698 -2.5761
    8SOL    HW2   31   0.852   1.424   1.213 -1.0072  2.9116 -0.8259
    8SOL     MW   32   0.881   1.506   1.203 -0.6293  0.9804 -0.3713
    9SOL     OW   33   1.011   0.512   1.382  0.1698  0.4433 -0.9825
    9SOL    HW1   34   0.970   0.441   1.327  2.1010  0.0629  0.6033
    9SOL    HW2   35   1.084   0.468   1.423  0.3426 -1.0121  1.0812
    9SOL     MW   36   1.015   0.497   1.380  0.4474  0.2011 -0.5010
   10SOL     OW   37   0.247   0.811   0.521  0.1808 -0.3118  0.2281
   10SOL    HW1   38   0.337   0.826   0.484 -1.0014  1.0277 -1.0507
   10SOL    HW2   39   0.232   0.865   0.596  1.0725 -1.1063 -0.8587
   10SOL     MW   40   0.257   0.820   0.526  0.1425 -0.2399 -0.0840
   11SOL     OW   41   0.766   1.107   1.611 -0.3830  0.1819 -0.4146
   11SOL    HW1   42   0.837   1.104   1.680 -0.4966  0.6344  1.9874
   11SOL    HW2   43   0.737   1.020   1.578 -4.1639 -1.1936 -0.4485
   11SOL     MW   44   0.772   1.095   1.616 -0.8968  0.0601 -0.1021
   12SOL     OW   45   3.077   1.087   0.869 -0.1124  0.1907  0.0847
   12SOL    HW1   46   3.131   1.154   0.914  0.9178  2.6413 -2.0659
   12SOL    HW2   47   3.065   1.130   0.782 -0.5197 -1.4463  1.8370
   12SOL     MW   48   3.082   1.102   0.863 -0.0302  0.2981  0.0322
   13SOL     OW   49   1.849   1.412   1.333  0.3399  0.4936  0.1274
   13SOL    HW1   50   1.886   1.363   1.256  0.3087 -1.7490 -2.5175
   13SOL    HW2   51   1.857   1.504   1.310  1.6462 -0.2376 -1.1494
   13SOL     MW   52   1.855   1.417   1.320  0.5081  0.1012 -0.3900
   14SOL     OW   53   0.555   0.317   1.868 -0.3733 -0.0523  0.4073
   14SOL    HW1   54   0.496   0.248   1.893  1.9092  1.6919 -0.7308
   14SOL    HW2   55   0.582   0.299   1.779  1.2865 -1.5846  0.5055
   14SOL     MW   56   0.551   0.305   1.860  0.1468 -0.0243  0.2701
   15SOL     OW   57   1.975   0.333   1.050  0.3643  0.2441  0.3550
   15SOL    HW1   58   1.954   0.405   1.116 -1.3103  0.7941 -1.2287
   15SOL    HW2   59   2.005   0.374   0.970  0.2393  0.0395 -0.2316
   15SOL     MW   60   1.976   0.348   1.048  0.1269  0.2897  0.0686
   16SOL     OW   61   0.221   1.832   0.313 -0.0712  0.3154  0.2891
   16SOL    HW1   62   0.313   1.819   0.289 -0.9260  0.3524 -1.6776
   16SOL    HW2   63   0.212   1.930   0.312  2.0658  0.3784 -0.2410
   16SOL     MW   64   0.232   1.843   0.310  0.0979  0.3286 -0.0403
   17SOL     OW   65   1.019   0.923   1.433  0.2274 -0.4508 -0.7577
   17SOL    HW1   66   1.049   0.907   1.525 -0.7501  0.0310  1.3036
   17SOL    HW2   67   0.926   0.895   1.433  0.7100 -0.9950  0.0843
   17SOL     MW   68   1.011   0.917   1.445  0.1621 -0.4591 -0.3746
   18SOL     OW   69   0.083   1.598   0.362 -0.0750 -0.3933 -0.0272
   18SOL    HW1   70   0.125   1.678   0.322 -0.3235 -0.2594 -1.4404
   18SOL    HW2   71   0.039   1.562   0.286  1.4686  3.4445  0.2989
   18SOL     MW   72   0.083   1.604   0.346  0.0959  0.1308 -0.1707
   19SOL     OW   73   0.090   1.318   0.985  0.0170  0.4974 -0.5203
   19SOL    HW1   74   0.143   1.361   0.917 -3.0869  0.1469 -1.4078
   19SOL    HW2   75   0.001   1.356   0.998 -0.5197  0.4095  2.3477
   19SOL     MW   76   0.085   1.328   0.978 -0.4634  0.4396 -0.2590
   20SOL     OW   77   0.432   2.170   1.174 -0.2833  0.0991  0.3413
   20SOL    HW1   78   0.381   2.112   1.119 -1.1285  2.0474 -1.1515
   20SOL    HW2   79   0.381   2.181   1.260  0.3038 -0.6057  0.9691
   20SOL     MW   80   0.419   2.164   1.178 -0.3173  0.2632  0.2272
   21SOL     OW   81   0.501   0.853   0.411  0.6597 -0.6262  0.0292
   21SOL    HW1   82   0.552   0.810   0.482  1.1800  1.0954  1.3001
   21SOL    HW2   83   0.557   0.863   0.328  0.8902  1.7074 -0.3354
   21SOL     MW   84   0.515   0.849   0.409  0.7588 -0.0912  0.1487
   22SOL     OW   85   1.533   0.708   0.996  0.3089  0.2768 -0.8043
   22SOL    HW1   86   1.493   0.663   0.924  0.7199  2.9890  0.7623
   22SOL    HW2   87   1.470   0.773   1.025 -3.5188 -3.0235  2.8810
   22SOL     MW   88   1.520   0.711   0.991 -0.1419  0.1992 -0.1114
   23SOL     OW   89   3.077   0.660   0.700  0.5377 -0.2736 -0.0940
   23SOL    HW1   90   3.138   0.604   0.748  1.5977  0.0486  2.0382
   23SOL    HW2   91   3.119   0.744   0.697 -0.7482 -0.1104 -0.6865
   23SOL     MW   92   3.090   0.664   0.706  0.5079 -0.2096  0.1092
   24SOL     OW   93   2.042   2.219   0.041  0.6702  0.1949  0.3513
   24SOL    HW1   94   2.008   2.205   0.133 -0.7959  0.5445  1.5258
   24SOL    HW2   95   2.061   2.128   0.013 -2.9396  0.9456  0.3058
   24SOL     MW   96   2.040   2.205   0.049  0.0005  0.3401  0.5003
   25SOL     OW   97   0.206   1.389   0.516  0.4124 -0.7279 -0.2810
   25SOL    HW1   98   0.148   1.464   0.496 -1.1868  0.6935 -1.1496
   25SOL    HW2   99   0.283   1.400   0.458  2.3865 -1.0606 -3.1900
   25SOL     MW  100   0.208   1.401   0.506  0.4618 -0.5843 -0.7795
   26SOL     OW  101   2.052   1.065   0.281 -0.3732 -0.5446 -0.0498
   26SOL    HW1  102   2.010   1.141   0.325  1.5774 -0.9832 -0.1302
   26SOL    HW2  103   2.149   1.098   0.271 -0.7396  1.6985 -0.5255
   26SOL     MW  104   2.059   1.079   0.285 -0.1642 -0.3065 -0.1232
   27SOL     OW  105   1.968   1.463   0.205 -0.1974 -0.1653  0.1542
   27SOL    HW1  106   1.890   1.519   0.215 -1.4781 -0.2636 -0.2220
   27SOL    HW2  107   2.001   1.452   0.295 -1.3712  2.8169  1.2784
   27SOL     MW  108   1.962   1.469   0.218 -0.5213  0.2152  0.2529
   28SOL     OW  109   0.442   1.011   1.976  0.1325  0.0345  0.3602
   28SOL    HW1  110   0.496   1.032   2.047 -1.6604 -2.2636 -1.1583
   28SOL    HW2  111   0.371   0.950   2.012  0.0897 -2.5624  0.2250
   28SOL     MW  112   0.440   1.005   1.990 -0.1097 -0.6114  0.1420
   29SOL     OW  113   0.243   1.428   0.781  0.4988 -0.1205 -0.7267
   29SOL    HW1  114   0.241   1.525   0.791  0.4114 -0.7297 -0.4072
   29SOL    HW2  115   0.222   1.409   0.691 -0.2711  1.3114  2.5641
   29SOL     MW  116   0.240   1.438   0.771  0.3857 -0.0120 -0.2504
   30SOL     OW  117   0.824   1.247   1.240  0.6555  0.2075  0.2853
   30SOL    HW1  118   0.733   1.234   1.272 -1.4370  0.7217  1.3228
   30SOL    HW2  119   0.881   1.223   1.320  1.8523  0.2516  0.9576
   30SOL     MW  120   0.820   1.242   1.255  0.5373  0.2812  0.5109
   31SOL     OW  121   0.405   0.264   0.185  0.1125 -0.3013  0.5482
   31SOL    HW1  122   0.445   0.197   0.246  1.4616 -0.1500 -0.4690
   31SOL    HW2  123   0.419   0.223   0.097  2.0389  1.8069  0.6306
   31SOL     MW  124   0.412   0.250   0.182  0.5447 -0.0032  0.4249
   32SOL     OW  125   2.746   0.976   1.168 -0.7642 -0.2050 -0.1960
   32SOL    HW1  126   2.675   0.906   1.153  0.0560  1.1008 -1.0821
   32SOL    HW2  127   2.822   0.941   1.115 -0.5828  0.4268 -1.6845
   32SOL     MW  128   2.747   0.962   1.159 -0.6320  0.0507 -0.5093
   33SOL     OW  129   1.644   1.307   0.358 -0.4513  0.5569  0.4290
   33SOL    HW1  130   1.714   1.248   0.381 -0.3577 -0.7661 -1.1776
   33SOL    HW2  131   1.661   1.383   0.416 -0.2405  0.0713 -0.9471
   33SOL     MW  132   1.655   1.309   0.369 -0.4112  0.3183  0.0355
   34SOL     OW  133   1.241   1.906   1.109  0.0596 -0.1962 -0.4720
   34SOL    HW1  134   1.157   1.925   1.146  0.3951 -0.7500 -1.2641
   34SOL    HW2  135   1.302   1.948   1.167  0.5543 -1.5644 -1.4864
   34SOL     MW  136   1.238   1.914   1.122  0.1691 -0.4498 -0.7104
   35SOL     OW  137   0.353   0.111   1.842  0.4135 -0.0258 -0.4216
   35SOL    HW1  138   0.361   0.059   1.924 -1.9070 -0.0555 -1.1440
   35SOL    HW2  139   0.377   0.047   1.776 -0.3765 -0.4420 -2.3374
   35SOL     MW  140   0.357   0.096   1.844  0.0031 -0.0846 -0.7697
   36SOL     OW  141   1.981   1.920   0.572 -0.2509 -0.3028  0.3582
   36SOL    HW1  142   1.950   1.904   0.481  1.5095  1.7509 -1.6599
   36SOL    HW2  143   1.961   1.835   0.610 -1.1314 -0.1604  0.0323
   36SOL     MW  144   1.974   1.907   0.565 -0.1348 -0.0130  0.0489
   37SOL     OW  145   1.789   2.012   0.960 -0.1276 -0.2940  0.1566
   37SOL    HW1  146   1.742   1.952   0.906 -0.3760 -2.2924 -0.7881
   37SOL    HW2  147   1.729   2.065   1.006  0.0245 -3.3771  1.7138
   37SOL     MW  148   1.775   2.011   0.959 -0.1403 -0.9644  0.2374
   38SOL     OW  149   2.825   0.959   0.129  0.3470 -0.0623  0.1890
   38SOL    HW1  150   2.838   0.916   0.215  0.4009  0.1223 -0.6395
   38SOL    HW2  151   2.907   0.931   0.087 -2.0198 -2.0518  1.8183
   38SOL     MW  152   2.838   0.950   0.135  0.0419 -0.3004  0.2946
   39SOL     OW  153   1.450   0.576   0.765  0.2413 -0.4921 -0.1858
   39SOL    HW1  154   1.400   0.507   0.805  0.3684 -0.9449 -0.2697
   39SOL    HW2  155   1.385   0.643   0.739 -0.7985  0.8111 -0.7155
   39SOL     MW  156   1.435   0.576   0.767  0.1209 -0.3799 -0.2668
   40SOL     OW  157   1.180   1.893   0.253  0.6162 -0.3952 -0.7476
   40SOL    HW1  158   1.228   1.823   0.298  0.7016  2.6100  1.6308
   40SOL    HW2  159   1.169   1.963   0.316 -2.7270 -1.0031 -0.7546
   40SOL     MW  160   1.185   1.893   0.267  0.1864 -0.0789 -0.4347
   41SOL     OW  161   0.562   0.475   1.581  0.1784 -0.1326 -0.1234
   41SOL    HW1  162   0.650   0.508   1.576  1.2151 -2.3231  1.2662
   41SOL    HW2  163   0.510   0.559   1.596  2.5538 -1.9836 -1.1305
   41SOL     MW  164   0.567   0.490   1.582  0.6286 -0.6659 -0.0729
   42SOL     OW  165   1.310   3.004   1.998  0.6212 -0.1332 -0.0761
   42SOL    HW1  166   1.214   3.003   2.021 -0.4817 -0.8655  0.8577
   42SOL    HW2  167   1.337   2.912   2.025  2.4555 -0.8909 -1.1174
   42SOL     MW  168   1.301   2.992   2.005  0.7177 -0.3298 -0.0903
   43SOL     OW  169   1.485   0.155   1.637  0.0586  0.3562 -0.6029
   43SOL    HW1  170   1.553   0.114   1.589  1.7413 -0.1793  0.3930
   43SOL    HW2  171   1.406   0.098   1.641 -1.9534 -1.8260 -1.3679
   43SOL     MW  172   1.484   0.142   1.631  0.0151 -0.0024 -0.5725
   44SOL     OW  173   1.214   0.768   1.023  0.9515 -0.7519  0.4385
   44SOL    HW1  174   1.190   0.862   1.004 -2.6190 -1.0709  0.0261
   44SOL    HW2  175   1.205   0.752   1.121 -0.4889 -1.3162 -0.7287
   44SOL     MW  176   1.210   0.778   1.033  0.2904 -0.8684  0.2301
   45SOL     OW  177   1.220   0.756   0.704  0.2941 -0.0195  0.6722
   45SOL    HW1  178   1.180   0.758   0.789 -0.4755  1.2662  0.3906
   45SOL    HW2  179   1.153   0.705   0.661  0.9462  0.8150  0.9755
   45SOL     MW  180   1.206   0.750   0.710  0.2786  0.2603  0.6750
   46SOL     OW  181   0.552   1.099   0.578  0.2262 -0.6065  0.2700
   46SOL    HW1  182   0.516   1.046   0.509  1.5442 -1.2974 -2.6541
   46SOL    HW2  183   0.642   1.083   0.554  1.4854  0.7948  0.9166
   46SOL     MW  184   0.559   1.090   0.566  0.5662 -0.5128 -0.0305
   47SOL     OW  185   0.217   1.947   1.975  0.0108 -0.6133  0.3318
   47SOL    HW1  186   0.292   1.897   2.011  2.2514 -0.6889 -0.4367
   47SOL    HW2  187   0.150   1.921   2.040 -0.0091  0.7029 -1.4728
   47SOL     MW  188   0.218   1.937   1.988  0.3038 -0.4496 -0.0077
   48SOL     OW  189   1.077   0.518   1.041 -0.1341  0.0364 -0.2685
   48SOL    HW1  190   0.988   0.501   1.066  1.0324  1.6553 -2.1300
   48SOL    HW2  191   1.077   0.612   1.009 -0.6329  2.0397  1.6286
   48SOL     MW  192   1.065   0.528   1.040 -0.0460  0.5143 -0.2638
   49SOL     OW  193   1.744   0.641   1.517 -0.1963  0.4481 -0.2908
   49SOL    HW1  194   1.718   0.607   1.604 -1.1679 -0.8286 -0.0019
   49SOL    HW2  195   1.829   0.598   1.507 -1.8402 -0.9042 -1.4909
   49SOL     MW  196   1.752   0.631   1.527 -0.5414  0.1013 -0.4110
   50SOL     OW  197   1.254   1.132   0.545 -0.6650  0.5462  0.6313
   50SOL    HW1  198   1.218   1.171   0.623 -2.6797 -1.0838 -0.7570
   50SOL    HW2  199   1.343   1.102   0.571  0.8250 -0.9094  0.7740
   50SOL     MW  200   1.261   1.133   0.558 -0.7342  0.1391  0.4670
   51SOL     OW  201   0.333   2.929   0.914  0.1571  0.0837  0.0006
   51SOL    HW1  202   0.422   2.889   0.903 -0.5070 -0.9709  1.3839
   51SOL    HW2  203   0.318   2.966   1.000 -0.3823 -0.6270 -0.6167
   51SOL     MW  204   0.343   2.929   0.924 -0.0017 -0.1492  0.1017
   52SOL     OW  205   0.802   1.788   0.451 -0.2630  0.3392  0.2789
   52SOL    HW1  206   0.754   1.874   0.440 -1.3188  0.2317  0.9333
   52SOL    HW2  207   0.804   1.745   0.364 -2.1221 -2.4535  1.7805
   52SOL     MW  208   0.796   1.793   0.438 -0.6476 -0.0435  0.5634
   53SOL     OW  209   0.441   2.144   0.461  0.3915  0.1214  0.0521
   53SOL    HW1  210   0.364   2.127   0.409 -1.3273 -2.7382  0.7224
   53SOL    HW2  211   0.433   2.232   0.507 -1.4551 -0.7068  3.2354
   53SOL     MW  212   0.430   2.154   0.461 -0.0789 -0.3652  0.5605
   54SOL     OW  213   2.051   0.928   0.779  0.6978 -0.0306 -0.0322
   54SOL    HW1  214   2.089   0.945   0.689 -0.2231  1.3486 -0.8563
   54SOL    HW2  215   2.055   0.834   0.795  0.6283  1.0776 -1.5362
   54SOL     MW  216   2.057   0.917   0.769  0.5671  0.2976 -0.3393
   55SOL     OW  217   0.529   1.578   1.654 -0.4752  0.2262 -0.5480
   55SOL    HW1  218   0.464   1.635   1.609 -2.1179  2.3464  1.0659
   55SOL    HW2  219   0.601   1.569   1.591  2.9840 -2.9295  0.7877
   55SOL     MW  220   0.530   1.584   1.640 -0.2355  0.0896 -0.1589
   56SOL     OW  221   0.630   0.848   0.176 -0.0220  0.0570 -0.1836
   56SOL    HW1  222   0.648   0.936   0.137  0.4778  0.2209  2.4045
   56SOL    HW2  223   0.555   0.819   0.130  1.6634  3.0662 -1.4422
   56SOL     MW  224   0.623   0.856   0.165  0.2663  0.4757 -0.0082
   57SOL     OW  225   1.199   1.248   1.156  0.5465 -0.3278  0.4363
   57SOL    HW1  226   1.293   1.246   1.155  0.8958  0.4262 -0.9792
   57SOL    HW2  227   1.170   1.223   1.249 -0.1814 -1.2407  3.0572
   57SOL     MW  228   1.208   1.245   1.168  0.4965 -0.3488  0.5953
   58SOL     OW  229   0.525   1.223   1.294 -0.1001 -0.6298 -0.3247
   58SOL    HW1  230   0.485   1.308   1.271  1.6974  1.1962 -0.8092
   58SOL    HW2  231   0.534   1.220   1.393 -2.6569  1.1320  0.0391
   58SOL     MW  232   0.521   1.234   1.304 -0.2003 -0.1564 -0.3406
   59SOL     OW  233   1.511   1.709   0.332  0.2117 -0.3538 -1.0269
   59SOL    HW1  234   1.569   1.751   0.399 -2.0225 -3.1126  0.4582
   59SOL    HW2  235   1.424   1.699   0.376  0.6551 -0.3208  0.9129
   59SOL     MW  236   1.507   1.713   0.347 -0.0245 -0.7134 -0.5751
   60SOL     OW  237   0.005   0.216   1.677 -0.8281 -0.0165  0.0079
   60SOL    HW1  238  -0.091   0.237   1.704  1.8637 -1.8443 -1.3035
   60SOL    HW2  239   0.026   0.140   1.735 -2.3918 -0.7445  0.1474
   60SOL     MW  240  -0.005   0.208   1.688 -0.6793 -0.3537 -0.1468
   61SOL     OW  241   2.003   1.364   3.063 -0.2526 -0.1022  0.3953
   61SOL    HW1  242   2.006   1.374   3.158  0.6580 -0.7791 -2.5622
   61SOL    HW2  243   2.086   1.342   3.025  0.1605  0.6566 -3.5920
   61SOL     MW  244   2.014   1.362   3.071 -0.0779 -0.0914 -0.5210
   62SOL     OW  245   0.557   1.689   0.508 -0.5271  0.0233  0.2551
   62SOL    HW1  246   0.656   1.707   0.508  3.8789 -2.3905 -0.0565
   62SOL    HW2  247   0.556   1.590   0.516  0.7986  3.0556 -1.8691
   62SOL     MW  248   0.570   1.678   0.509  0.2291  0.1049 -0.0663
   63SOL     OW  249   1.726   0.621   0.718  0.1550 -0.3728  0.1297
   63SOL    HW1  250   1.739   0.706   0.675 -0.7003  0.4171  1.3127
   63SOL    HW2  251   1.630   0.620   0.729  0.6137 -0.4146 -2.6236
   63SOL     MW  252   1.715   0.632   0.714  0.1026 -0.2741 -0.0775
   64SOL     OW  253   0.280   1.697   0.821  0.7147 -0.2212 -0.5273
   64SOL    HW1  254   0.345   1.748   0.777  1.1093 -0.1113 -1.6724
   64SOL    HW2  255   0.192   1.738   0.821  1.0167 -1.6187 -2.4880
   64SOL     MW  256   0.277   1.709   0.815  0.8066 -0.3911 -0.9371
   65SOL     OW  257   1.579   2.305   0.440 -0.1492 -0.5474 -0.6414
   65SOL    HW1  258   1.669   2.288   0.468 -0.2808  3.3774  1.5907
   65SOL    HW2  259   1.538   2.349   0.517  0.4801 -1.6357  0.5106
   65SOL     MW  260   1.585   2.309   0.454 -0.0836 -0.1732 -0.1949
   66SOL     OW  261   0.325   0.542   0.469  0.0609 -0.1077 -0.5063
   66SOL    HW1  262   0.364   0.555   0.386 -0.9284  2.2670  0.5868
   66SOL    HW2  263   0.302   0.634   0.495  1.5651  0.1160 -2.7248
   66SOL     MW  264   0.327   0.556   0.462  0.1288  0.2352 -0.6548
   67SOL     OW  265   1.459   0.122   1.994 -0.0453 -0.1428  0.1834
   67SOL    HW1  266   1.494   0.140   1.904  0.0513  0.1902 -1.3751
   67SOL    HW2  267   1.403   0.042   1.992  1.6739 -0.0398 -1.7754
   67SOL     MW  268   1.456   0.114   1.982  0.1943 -0.0852 -0.2806
   68SOL     OW  269   0.727   0.072   2.962  0.9012 -0.7435 -0.2927
   68SOL    HW1  270   0.721   0.104   2.873  1.2764  0.7305 -0.2706
   68SOL    HW2  271   0.811   0.074   2.997 -1.0143  1.3524 -2.8590
   68SOL     MW  272   0.738   0.077   2.955  0.6980 -0.2725 -0.6284
   69SOL     OW  273   0.958   0.190   1.991 -0.5321 -0.1265 -0.3829
   69SOL    HW1  274   1.053   0.185   2.011  0.1951  0.1281 -2.3282
   69SOL    HW2  275   0.921   0.104   2.000 -0.7999  2.2505 -0.2049
   69SOL     MW  276   0.966   0.178   1.994 -0.4715  0.2207 -0.6161
   70SOL     OW  277   0.551   1.734   1.129 -0.3526 -0.3603 -0.1811
   70SOL    HW1  278   0.603   1.708   1.208 -0.4744 -0.1896 -1.7745
   70SOL    HW2  279   0.615   1.778   1.071  2.2142 -1.9781  1.1606
   70SOL     MW  280   0.566   1.737   1.132 -0.0300 -0.5512 -0.2143
   71SOL     OW  281   1.583   0.509   1.189 -0.7679  0.4086  0.0316
   71SOL    HW1  282   1.552   0.549   1.267 -0.3653  1.4797 -0.9270
   71SOL    HW2  283   1.562   0.577   1.125 -0.3731 -2.1788 -0.5302
   71SOL     MW  284   1.576   0.524   1.191 -0.6627  0.2085 -0.1690
   72SOL     OW  285   0.814   1.842   1.024  0.2328  0.1914 -0.1481
   72SOL    HW1  286   0.780   1.882   0.944 -3.2319  1.7443  0.6465
   72SOL    HW2  287   0.829   1.748   1.004  1.8839  1.0326 -0.3156
   72SOL     MW  288   0.812   1.835   1.011 -0.0065  0.5073 -0.0654
   73SOL     OW  289   1.192   0.724   1.294 -0.0274 -0.0950  0.2886
   73SOL    HW1  290   1.158   0.645   1.331  0.3169  1.9446 -0.1391
   73SOL    HW2  291   1.143   0.802   1.325 -0.3456  0.1344  3.3183
   73SOL     MW  292   1.181   0.724   1.303 -0.0240  0.2043  0.6319
   74SOL     OW  293   2.796   0.260   1.132  0.8227  0.7363 -0.2406
   74SOL    HW1  294   2.878   0.310   1.122 -1.0502  0.2030 -0.7042
   74SOL    HW2  295   2.740   0.271   1.055 -0.3013 -1.9184  1.8003
   74SOL     MW  296   2.800   0.268   1.121  0.4273  0.3157 -0.0325
   75SOL     OW  297   1.582   1.396   0.113  0.6254 -0.5096  0.0162
   75SOL    HW1  298   1.642   1.339   0.060  0.5055 -0.5508 -0.1471
   75SOL    HW2  299   1.607   1.381   0.206 -0.0827  1.9289 -1.2059
   75SOL     MW  300   1.593   1.386   0.118  0.5162 -0.1933 -0.1666
   76SOL     OW  301   2.975   0.573   0.451 -0.5518  0.0359 -0.4391
   76SOL    HW1  302   3.016   0.620   0.526  0.1564  1.2531 -0.9211
   76SOL    HW2  303   3.049   0.516   0.419  1.2058  1.2591  0.3528
   76SOL     MW  304   2.990   0.572   0.456 -0.2265  0.3579 -0.3982
   77SOL     OW  305   0.808   0.547   0.475  0.4019 -0.3841 -0.1904
   77SOL    HW1  306   0.798   0.552   0.377  2.0658 -1.6464 -0.9009
   77SOL    HW2  307   0.829   0.451   0.487  0.9045  0.1909 -0.9449
   77SOL     MW  308   0.810   0.535   0.464  0.6878 -0.4748 -0.3837
   78SOL     OW  309   0.744   0.844   1.180 -0.0228  0.0399 -0.1596
   78SOL    HW1  310   0.795   0.908   1.125 -2.4014 -3.4481 -1.7659
   78SOL    HW2  311   0.652   0.857   1.151 -1.6796 -0.5805 -0.2231
   78SOL     MW  312   0.739   0.854   1.169 -0.5553 -0.5022 -0.3799
   79SOL     OW  313   1.912   1.652   0.635 -0.1575 -0.2520 -0.1755
   79SOL    HW1  314   1.821   1.627   0.609 -1.0406  0.4056  0.5829
   79SOL    HW2  315   1.912   1.631   0.729  0.5602 -1.5293  1.4073
   79SOL     MW  316   1.900   1.646   0.644 -0.1793 -0.3337  0.1334
   80SOL     OW  317   0.065   0.930   0.362  0.0913 -0.2594  0.2622
   80SOL    HW1  318  -0.005   0.873   0.338 -0.0681  2.0966 -1.4548
   80SOL    HW2  319   0.135   0.872   0.398 -1.5526 -0.8349  0.4861
   80SOL     MW  320   0.065   0.915   0.363 -0.1466 -0.0245  0.0652
   81SOL     OW  321   1.868   1.899   0.310  0.4620  0.3535 -0.1892
   81SOL    HW1  322   1.852   1.801   0.280 -0.2755  1.1650 -0.2583
   81SOL    HW2  323   1.802   1.941   0.262  2.2104 -1.8772  0.9925
   81SOL     MW  324   1.857   1.891   0.300  0.5954  0.1662 -0.0424
   82SOL     OW  325   0.835   1.005   0.513 -0.4316  0.4603 -0.5831
   82SOL    HW1  326   0.840   1.038   0.425 -0.1590  1.7291  1.3098
   82SOL    HW2  327   0.790   0.920   0.524 -0.3082 -2.3848 -0.2897
   82SOL     MW  328   0.830   0.999   0.503 -0.3793  0.2524 -0.2946
   83SOL     OW  329   0.049   0.741   1.482 -0.3069 -0.0535  0.2249
   83SOL    HW1  330   0.061   0.812   1.417  1.3560 -0.1151  1.6832
   83SOL    HW2  331   0.133   0.709   1.511 -0.6314  1.8876 -2.0641
   83SOL     MW  332   0.062   0.746   1.477 -0.1303  0.1945  0.1153
   84SOL     OW  333   0.051   0.178   0.919 -0.5023  0.0850 -0.4032
   84SOL    HW1  334   0.069   0.251   0.982 -1.1085 -0.1370 -0.7800
   84SOL    HW2  335   0.056   0.099   0.971  2.6159  0.8749 -2.9065
   84SOL     MW  336   0.054   0.177   0.934 -0.1709  0.1599 -0.7832
   85SOL     OW  337   0.442   0.452   0.731  0.0205  0.3432 -0.4469
   85SOL    HW1  338   0.420   0.479   0.646 -0.7594 -1.3474  1.5275
   85SOL    HW2  339   0.415   0.362   0.739  1.8903 -2.4453 -0.0001
   85SOL     MW  340   0.436   0.444   0.721  0.1643 -0.2478 -0.1274
   86SOL     OW  341   1.192   0.254   1.127  0.8020 -0.1651  0.0614
   86SOL    HW1  342   1.143   0.339   1.114 -1.1550 -0.0012  1.8244
   86SOL    HW2  343   1.274   0.289   1.165  2.4812 -0.3341 -2.2572
   86SOL     MW  344   1.196   0.270   1.131  0.7653 -0.1658 -0.0119
   87SOL     OW  345   1.156   1.509   1.225 -0.2640 -0.7207 -0.5385
   87SOL    HW1  346   1.194   1.559   1.150  2.2416  1.4987  0.0770
   87SOL    HW2  347   1.154   1.420   1.188  1.2733  3.0005 -0.3638
   87SOL     MW  348   1.161   1.504   1.210  0.2694  0.0631 -0.4342
   88SOL     OW  349   1.182   1.031   0.968  0.1388  0.5327 -0.0840
   88SOL    HW1  350   1.272   1.032   0.945 -0.4286 -0.3747 -1.5167
   88SOL    HW2  351   1.167   1.096   1.040 -1.4015 -2.1286  0.4115
   88SOL     MW  352   1.192   1.040   0.974 -0.1393  0.0619 -0.2077
   89SOL     OW  353   1.762   0.754   0.343 -0.8417 -0.0178  0.3721
   89SOL    HW1  354   1.719   0.668   0.352 -2.0074  0.3470  0.1781
   89SOL    HW2  355   1.856   0.739   0.317  0.7566 -1.8704 -0.3400
   89SOL     MW  356   1.769   0.741   0.341 -0.7846 -0.2141  0.2525
   90SOL     OW  357   0.834   1.157   2.820  0.1247  0.9490  0.2312
   90SOL    HW1  358   0.857   1.064   2.830 -1.2417  1.8345 -0.6263
   90SOL    HW2  359   0.822   1.188   2.914 -0.1121 -1.7000  1.4372
   90SOL     MW  360   0.835   1.148   2.834 -0.0868  0.7163  0.2771
   91SOL     OW  361   2.158   0.696   0.506  0.0978  0.2023  0.5120
   91SOL    HW1  362   2.236   0.731   0.465 -1.3286 -0.9194  1.8766
   91SOL    HW2  363   2.158   0.597   0.470  1.4583  0.2748 -0.8756
   91SOL     MW  364   2.169   0.688   0.496  0.0891  0.0639  0.5090
   92SOL     OW  365   1.754   0.890   0.565 -0.2262 -0.3589 -0.1840
   92SOL    HW1  366   1.671   0.929   0.589  0.6267 -1.0777 -1.4659
   92SOL    HW2  367   1.742   0.846   0.476  1.5613 -0.5536 -0.2564
   92SOL     MW  368   1.741   0.890   0.556  0.1222 -0.4794 -0.3627
   93SOL     OW  369   1.077   0.182   0.428  1.3741  0.1757  0.0781
   93SOL    HW1  370   0.992   0.216   0.462  0.2779  1.3122 -1.3220
   93SOL    HW2  371   1.077   0.222   0.340  2.5977 -1.1863 -0.8275
   93SOL     MW  372   1.066   0.192   0.421  1.3909  0.1459 -0.2261
   94SOL     OW  373   1.838   1.366   1.640  0.5140  0.1667 -0.6247
   94SOL    HW1  374   1.848   1.372   1.543 -0.4425 -1.0719  2.5435
   94SOL    HW2  375   1.814   1.271   1.651 -0.3387  0.0664 -0.7008
   94SOL     MW  376   1.836   1.354   1.628  0.2753 -0.0100 -0.2168
   95SOL     OW  377   0.739   1.583   0.962 -0.9424  0.2025 -0.6646
   95SOL    HW1  378   0.774   1.561   1.048 -0.0968  1.0528 -1.9985
   95SOL    HW2  379   0.650   1.551   0.949  0.3978 -3.5262 -0.6161
   95SOL     MW  380   0.732   1.576   0.972 -0.6540 -0.1773 -0.8342
   96SOL     OW  381   1.324   1.890   1.718  0.3178  0.3615  0.0549
   96SOL    HW1  382   1.235   1.903   1.747  2.8570 -0.1309 -0.6682
   96SOL    HW2  383   1.312   1.799   1.675  0.1194  2.2277  1.6383
   96SOL     MW  384   1.311   1.879   1.716  0.6266  0.5427  0.1684
   97SOL     OW  385   1.140   1.451   0.882 -0.1049  0.2824 -0.1143
   97SOL    HW1  386   1.156   1.527   0.939  1.0831  0.0667  0.1109
   97SOL    HW2  387   1.072   1.492   0.825  1.1770 -3.1780  1.5980
   97SOL     MW  388   1.133   1.466   0.882  0.2210 -0.2026  0.1414
   98SOL     OW  389   1.473   1.277   1.114 -0.4661  0.1444  0.7769
   98SOL    HW1  390   1.519   1.330   1.181 -1.2038  1.6190  0.3038
   98SOL    HW2  391   1.470   1.337   1.036 -0.6863 -2.5222  1.7424
   98SOL     MW  392   1.479   1.292   1.113 -0.5925 -0.0129  0.8419
   99SOL     OW  393   1.434   0.273   1.284  0.4164 -0.1425 -0.7093
   99SOL    HW1  394   1.482   0.343   1.242  1.5228  0.5163 -0.3142
   99SOL    HW2  395   1.457   0.288   1.373 -1.4220  0.8422 -3.1717
   99SOL     MW  396   1.443   0.285   1.290  0.3198  0.0743 -0.9821
  100SOL     OW  397   1.051   1.183   1.379  0.1214 -0.3505  0.1903
  100SOL    HW1  398   1.086   1.203   1.466  0.0870 -1.9416  1.3099
  100SOL    HW2  399   1.034   1.087   1.394 -1.4280 -0.9045  0.4048
  100SOL     MW  400   1.054   1.173   1.392 -0.0875 -0.6335  0.3663
  101SOL     OW  401   0.468   1.208   0.330 -0.0541  0.5167  0.3200
  101SOL    HW1  402   0.395   1.152   0.331  0.1726  0.6052  0.5441
  101SOL    HW2  403   0.532   1.153   0.279  0.4843  0.6251 -1.6844
  101SOL     MW  404   0.467   1.193   0.324  0.0469  0.5427  0.0851
  102SOL     OW  405   2.895   0.632   0.981 -0.2051 -0.3081  0.4344
  102SOL    HW1  406   2.924   0.722   0.990 -1.1421 -3.1411 -0.3323
  102SOL    HW2  407   2.884   0.594   1.072 -1.5689 -3.1404  0.0544
  102SOL     MW  408   2.898   0.639   0.994 -0.5087 -1.0556  0.2831
  103SOL     OW  409   1.756   0.260   1.877  0.8510  0.5962  0.0211
  103SOL    HW1  410   1.757   0.166   1.847 -0.3540  1.2259  1.3763
  103SOL    HW2  411   1.741   0.256   1.974  3.1840  1.7636 -2.0827
  103SOL     MW  412   1.754   0.247   1.886  0.9998  0.8333 -0.0777
  104SOL     OW  413   0.139   1.516   1.565 -0.6155 -0.2606  0.0700
  104SOL    HW1  414   0.190   1.451   1.601 -1.8437 -0.3897 -0.1402
  104SOL    HW2  415   0.049   1.487   1.589 -0.6244 -0.6322  0.6001
  104SOL     MW  416   0.134   1.504   1.573 -0.7787 -0.3266  0.1122
  105SOL     OW  417   0.031   1.191   0.415 -0.4477  0.6277  0.0478
  105SOL    HW1  418   0.053   1.091   0.424 -0.3243 -3.7828  1.3931
  105SOL    HW2  419   0.109   1.243   0.453  0.9503  0.4864 -2.2782
  105SOL     MW  420   0.045   1.185   0.421 -0.2470  0.0271 -0.0816
  106SOL     OW  421   0.843   0.402   1.010 -0.0904  0.1398 -0.0974
  106SOL    HW1  422   0.770   0.463   0.989  2.3081  1.7261 -2.9357
  106SOL    HW2  423   0.910   0.400   0.937  0.7115 -0.4011 -0.4223
  106SOL     MW  424   0.842   0.410   0.998  0.3319  0.2777 -0.5148
  107SOL     OW  425   0.804   2.139   2.917  0.2583 -0.1373 -0.0616
  107SOL    HW1  426   0.727   2.120   2.864 -0.1265  1.7517  2.7126
  107SOL    HW2  427   0.791   2.124   3.013 -0.6671 -0.9898 -0.7764
  107SOL     MW  428   0.792   2.134   2.922  0.0854 -0.0006  0.2101
  108SOL     OW  429   1.322   1.638   1.637  0.0278 -0.5656 -0.1458
  108SOL    HW1  430   1.248   1.596   1.573 -1.4335 -0.1947 -1.1183
  108SOL    HW2  431   1.412   1.620   1.601  2.9461  2.5212  0.0827
  108SOL     MW  432   1.324   1.630   1.624  0.2201 -0.1094 -0.2440
  109SOL     OW  433   2.020   0.759   0.268 -0.1953  0.4044 -0.2374
  109SOL    HW1  434   2.026   0.855   0.258  0.6113 -0.5552  1.0758
  109SOL    HW2  435   2.064   0.741   0.352  2.0815  1.4435 -1.8479
  109SOL     MW  436   2.027   0.769   0.278  0.2115  0.4149 -0.2767
  110SOL     OW  437   0.407   1.923   0.635  0.1440 -0.3293  0.0815
  110SOL    HW1  438   0.475   1.858   0.599  2.9821  2.0292  1.5288
  110SOL    HW2  439   0.427   2.000   0.583 -0.5838 -2.1850  0.4836
  110SOL     MW  440   0.418   1.925   0.623  0.4225 -0.2629  0.3255
  111SOL     OW  441   0.759   0.874   1.454  0.1845  0.0981 -0.4487
  111SOL    HW1  442   0.737   0.878   1.361 -1.0936  0.2832  1.1092
  111SOL    HW2  443   0.746   0.782   1.467  2.3235 -0.6627 -0.1560
  111SOL     MW  444   0.754   0.862   1.443  0.2981  0.0221 -0.2045
  112SOL     OW  445   1.322   1.082   1.624  0.5492 -0.1198 -0.4588
  112SOL    HW1  446   1.262   1.154   1.638  2.4528 -0.3518  1.1168
  112SOL    HW2  447   1.269   1.003   1.649  1.0801 -1.0504 -0.4437
  112SOL     MW  448   1.307   1.081   1.629  0.8704 -0.2732 -0.2489
  113SOL     OW  449   1.242   3.049   1.725 -0.1583 -0.1548 -0.6095
  113SOL    HW1  450   1.250   3.014   1.813 -1.7650  0.6918  1.2444
  113SOL    HW2  451   1.269   2.974   1.667  0.0693 -1.1187 -0.1345
  113SOL     MW  452   1.246   3.035   1.729 -0.3402 -0.1702 -0.3023
  114SOL     OW  453   0.243   2.875   1.872  0.6099 -0.1235  0.4820
  114SOL    HW1  454   0.294   2.925   1.928 -0.9211  1.6039 -0.2621
  114SOL    HW2  455   0.178   2.941   1.841 -2.9159  2.5792 -0.6234
  114SOL     MW  456   0.241   2.890   1.876 -0.0573  0.4610  0.2380
  115SOL     OW  457   0.471   0.856   1.125 -0.5753 -0.6440  0.6770
  115SOL    HW1  458   0.492   0.775   1.160  0.9906  1.0654 -1.2272
  115SOL    HW2  459   0.438   0.897   1.206 -1.0702 -0.6794  0.2569
  115SOL     MW  460   0.470   0.851   1.140 -0.4340 -0.4231  0.3704
  116SOL     OW  461   0.782   1.056   1.011  0.1132 -1.0671  0.0195
  116SOL    HW1  462   0.807   1.087   0.923 -1.3956 -0.7234 -0.2518
  116SOL    HW2  463   0.817   1.118   1.080  1.1915  2.5762  0.3996
  116SOL     MW  464   0.790   1.068   1.009  0.0564 -0.5411  0.0338
  117SOL     OW  465   1.135   1.209   0.774 -0.2855 -0.1436  0.4946
  117SOL    HW1  466   1.149   1.142   0.841 -0.7265  0.5544 -1.8945
  117SOL    HW2  467   1.151   1.287   0.821  0.3498  0.8122 -0.3160
  117SOL     MW  468   1.139   1.211   0.789 -0.2599  0.0746  0.0724
  118SOL     OW  469   3.049   2.965   1.649  0.6680 -0.5188  0.1388
  118SOL    HW1  470   3.087   3.023   1.714 -0.4357  1.3320 -3.1208
  118SOL    HW2  471   2.954   2.955   1.676  1.8217 -0.5413  2.0852
  118SOL     MW  472   3.041   2.971   1.662  0.6746 -0.2775 -0.0344
  119SOL     OW  473   0.444   1.467   1.226 -0.1998 -0.1068  0.4586
  119SOL    HW1  474   0.465   1.530   1.153 -0.1477  1.0251 -0.1749
  119SOL    HW2  475   0.347   1.461   1.227 -0.2175  2.9434  1.4499
  119SOL     MW  476   0.434   1.474   1.217 -0.1952  0.4450  0.5058
  120SOL     OW  477   0.264   0.715   0.996 -0.0668  0.4496  1.3620
  120SOL    HW1  478   0.249   0.686   1.084  2.8244  1.7472  0.5824
  120SOL    HW2  479   0.339   0.776   1.013 -0.0487  0.2872 -0.8784
  120SOL     MW  480   0.272   0.719   1.010  0.3170  0.5994  0.9635
  121SOL     OW  481   1.777   1.122   1.680 -0.6337 -0.3630 -0.1971
  121SOL    HW1  482   1.695   1.095   1.733 -2.3931  2.5924  1.8806
  121SOL    HW2  483   1.805   1.052   1.626 -2.3335 -0.7825  2.4503
  121SOL     MW  484   1.770   1.109   1.680 -1.0901 -0.0284  0.4263
  122SOL     OW  485   0.180   0.526   0.823 -0.0087  0.3816 -0.5726
  122SOL    HW1  486   0.256   0.490   0.783 -1.1679 -0.3011 -0.6914
  122SOL    HW2  487   0.218   0.591   0.886  1.0961 -3.5472 -0.8914
  122SOL     MW  488   0.195   0.530   0.826 -0.0159 -0.2268 -0.6303
  123SOL     OW  489   1.852   1.155   0.465 -0.0419 -0.1657 -0.2809
  123SOL    HW1  490   1.828   1.066   0.504 -0.2463  0.1069 -0.1073
  123SOL    HW2  491   1.850   1.208   0.541  0.7675 -1.6029 -0.8641
  123SOL     MW  492   1.848   1.151   0.480  0.0379 -0.3194 -0.3350
  124SOL     OW  493   0.613   0.553   0.932 -0.4806 -0.2941 -0.0931
  124SOL    HW1  494   0.568   0.532   0.851 -2.5397 -0.1374 -0.2306
  124SOL    HW2  495   0.626   0.652   0.922 -0.0313 -0.0488  3.1611
  124SOL     MW  496   0.609   0.563   0.920 -0.6930 -0.2410  0.3181
  125SOL     OW  497   0.712   1.780   1.743  0.1953  0.2807  0.0939
  125SOL    HW1  498   0.639   1.718   1.722 -0.3149  0.1669  2.2498
  125SOL    HW2  499   0.679   1.865   1.744  2.5079  1.6552 -0.9075
  125SOL     MW  500   0.698   1.783   1.740  0.4331  0.4470  0.2463
  126SOL     OW  501   2.135   1.582   1.990  0.6870 -0.4597 -0.0387
  126SOL    HW1  502   2.173   1.670   1.966  1.4458 -0.9974  2.1996
  126SOL    HW2  503   2.211   1.525   1.992  1.5580 -2.5914 -1.5953
  126SOL     MW  504   2.150   1.586   1.987  0.9020 -0.8119  0.0512
  127SOL     OW  505   0.568   0.801   1.816 -0.3117 -0.0908  0.0291
  127SOL    HW1  506   0.653   0.788   1.863 -0.0640  1.1711 -0.5574
  127SOL    HW2  507   0.539   0.886   1.857  1.4526  1.0166  2.0856
  127SOL     MW  508   0.575   0.811   1.828 -0.0462  0.2218  0.2230
  128SOL     OW  509   1.735   0.711   2.913 -0.3720 -0.0564  0.5409
  128SOL    HW1  510   1.761   0.684   2.825 -1.7167  1.4255  0.6184
  128SOL    HW2  511   1.716   0.806   2.907  0.1804  0.0643 -0.7378
  128SOL     MW  512   1.736   0.720   2.901 -0.4765  0.1550  0.3824
  129SOL     OW  513   1.642   0.917   0.133  0.2180  0.1917  0.0965
  129SOL    HW1  514   1.578   0.853   0.103  0.5970  2.0929  1.0727
  129SOL    HW2  515   1.689   0.889   0.209  0.2207 -1.6691  0.7845
  129SOL     MW  516   1.640   0.905   0.139  0.2683  0.1970  0.3161
  130SOL     OW  517   0.805   1.374   0.277  0.2546  0.1322 -0.0440
  130SOL    HW1  518   0.833   1.345   0.364  1.9764 -0.8712  0.4180
  130SOL    HW2  519   0.826   1.466   0.278 -0.3534 -1.7528 -1.5919
  130SOL     MW  520   0.811   1.382   0.289  0.4015 -0.2489 -0.1873
  131SOL     OW  521   3.037   0.847   3.103 -0.4026  0.1619 -0.5150
  131SOL    HW1  522   3.019   0.876   3.011 -0.1418 -0.6460 -2.9575
  131SOL    HW2  523   3.129   0.821   3.111  2.4505 -2.4539  2.7687
  131SOL     MW  524   3.047   0.848   3.092  0.0082 -0.2898 -0.4040
  132SOL     OW  525   2.704   0.137   1.351  0.0716 -0.0403 -0.1892
  132SOL    HW1  526   2.745   0.186   1.282 -0.0806  0.1234  0.2912
  132SOL    HW2  527   2.622   0.114   1.305  0.7785  0.4874  0.8213
  132SOL     MW  528   2.698   0.140   1.336  0.1448  0.0509  0.0075
  133SOL     OW  529   1.050   0.160   1.703 -0.4809 -0.2605  0.2103
  133SOL    HW1  530   1.115   0.085   1.713 -1.8234 -2.6234 -1.2741
  133SOL    HW2  531   1.012   0.164   1.790  1.4724 -0.8368  0.7821
  133SOL     MW  532   1.054   0.150   1.716 -0.4003 -0.6483  0.0899
  134SOL     OW  533   1.412   2.516   1.396 -0.1703  0.1014  0.5448
  134SOL    HW1  534   1.328   2.564   1.391  0.7722 -1.4076 -0.3792
  134SOL    HW2  535   1.440   2.555   1.477  0.2184  2.1613  2.2055
  134SOL     MW  536   1.405   2.527   1.406  0.0054  0.1741  0.6420
  135SOL     OW  537   3.007   0.962   2.861  0.2813 -0.1281 -0.1270
  135SOL    HW1  538   3.090   1.023   2.875  2.6698 -0.8808 -0.5412
  135SOL    HW2  539   2.935   1.021   2.876  0.1728 -1.7440 -0.9350
  135SOL     MW  540   3.008   0.978   2.865  0.5821 -0.4406 -0.2882
  136SOL     OW  541   0.215   2.036   0.785 -0.3306  0.6767  0.3115
  136SOL    HW1  542   0.132   1.983   0.786  2.7439 -2.3306  1.3227
  136SOL    HW2  543   0.271   1.988   0.718 -0.2438 -1.8680 -1.6541
  136SOL     MW  544   0.211   2.023   0.777  0.0865 -0.0559  0.1855
  137SOL     OW  545   0.692   2.028   0.499  0.1211  0.5883  0.1723
  137SOL    HW1  546   0.690   2.026   0.596 -3.1589  0.0775  1.7414
  137SOL    HW2  547   0.620   2.084   0.465  0.3280 -0.9993 -1.3377
  137SOL     MW  548   0.682   2.035   0.507 -0.2844  0.3114  0.1801
  138SOL     OW  549   0.491   0.584   1.186 -0.1014 -0.3557  0.3971
  138SOL    HW1  550   0.398   0.554   1.172 -0.9719 -0.6314 -1.0407
  138SOL    HW2  551   0.527   0.565   1.100 -1.5423 -1.3594 -0.5310
  138SOL     MW  552   0.484   0.577   1.173 -0.4064 -0.5245  0.0850
  139SOL     OW  553   2.867   0.551   1.234  0.0304 -0.5237 -0.1848
  139SOL    HW1  554   2.907   0.481   1.288  1.2315  2.0775 -1.3084
  139SOL    HW2  555   2.870   0.624   1.300  0.0771  0.2425 -0.5750
  139SOL     MW  556   2.873   0.552   1.250  0.1951 -0.0794 -0.3845
  140SOL     OW  557   0.968   0.510   2.021  0.0427  0.0610 -0.4009
  140SOL    HW1  558   0.953   0.423   1.992 -0.0266  1.6630  0.3526
  140SOL    HW2  559   1.000   0.494   2.113  2.0042 -1.3207  2.1580
  140SOL     MW  560   0.970   0.497   2.029  0.2923  0.0900  0.0361
  141SOL     OW  561   1.006   0.643   1.699 -0.2141 -0.0879 -0.1490
  141SOL    HW1  562   1.059   0.564   1.680  0.6463 -1.3222  0.4283
  141SOL    HW2  563   1.066   0.713   1.690 -2.3914  0.1620  0.6181
  141SOL     MW  564   1.021   0.642   1.695 -0.3878 -0.2178  0.0284
  142SOL     OW  565   0.868   1.125   0.754 -0.1402  0.3125 -0.5089
  142SOL    HW1  566   0.868   1.083   0.660  0.1383  0.4239 -0.5475
  142SOL    HW2  567   0.956   1.167   0.763  0.2295  3.8307 -1.0123
  142SOL     MW  568   0.879   1.125   0.743 -0.0547  0.7914 -0.5804
  143SOL     OW  569   1.803   0.715   1.089 -0.1637 -0.4756  0.6597
  143SOL    HW1  570   1.855   0.679   1.014  1.0741  2.6552 -1.7524
  143SOL    HW2  571   1.711   0.715   1.069 -1.0810  0.0591  2.9479
  143SOL     MW  572   1.798   0.710   1.077 -0.1214  0.0081  0.6433
  144SOL     OW  573   0.273   1.320   1.698  0.0528  0.7383  0.3895
  144SOL    HW1  574   0.346   1.279   1.647  1.5216  0.2711  2.3608
  144SOL    HW2  575   0.309   1.327   1.792  2.3264  0.7723  0.6061
  144SOL     MW  576   0.287   1.315   1.704  0.5466  0.6811  0.6781
  145SOL     OW  577   0.240   0.511   1.181  0.1845  0.0759  0.2542
  145SOL    HW1  578   0.262   0.425   1.214 -2.8400  0.1556  0.4008
  145SOL    HW2  579   0.163   0.491   1.142  1.2230 -0.8724  2.2409
  145SOL     MW  580   0.233   0.497   1.180 -0.0776 -0.0387  0.5356
  146SOL     OW  581   0.846   1.992   1.407 -0.1573 -0.1107  0.1194
  146SOL    HW1  582   0.905   1.998   1.332  2.5933 -1.3844 -0.9965
  146SOL    HW2  583   0.762   1.972   1.368  1.4984 -1.0198 -0.3039
  146SOL     MW  584   0.843   1.990   1.392  0.4241 -0.3987 -0.0837
  147SOL     OW  585   0.371   0.498   2.985  0.5016  0.5512 -0.3905
  147SOL    HW1  586   0.312   0.460   3.047  1.0111 -2.0795  0.6616
  147SOL    HW2  587   0.312   0.543   2.919 -0.5732  0.9647  0.9876
  147SOL     MW  588   0.355   0.499   2.985  0.4270  0.2587 -0.0698
  148SOL     OW  589   0.084   0.962   1.308 -0.4092 -0.1793 -0.0532
  148SOL    HW1  590   0.164   0.995   1.278 -0.2852  4.2381 -2.7368
  148SOL    HW2  591   0.023   1.036   1.330  2.5681  0.0289  0.2843
  148SOL     MW  592   0.086   0.976   1.307 -0.0000  0.4310 -0.3628
  149SOL     OW  593   1.476   1.102   1.395  0.3028  0.8223  0.7370
  149SOL    HW1  594   1.439   1.088   1.484  0.9813 -2.1945  1.8957
  149SOL    HW2  595   1.492   1.194   1.387  0.6757 -0.5110 -0.9330
  149SOL     MW  596   1.473   1.112   1.406  0.4415  0.2484  0.6695
  150SOL     OW  597   1.724   1.379   0.777 -0.3588  0.4925  0.3137
  150SOL    HW1  598   1.783   1.306   0.789 -2.3727  0.3120 -2.8139
  150SOL    HW2  599   1.761   1.457   0.811 -0.2149 -0.0149  0.1976
  150SOL     MW  600   1.736   1.380   0.783 -0.6055  0.4017 -0.1143
  151SOL     OW  601   1.661   1.828   0.794  0.0094  0.4053  0.0831
  151SOL    HW1  602   1.663   1.839   0.695  0.2495  0.4239 -0.9748
  151SOL    HW2  603   1.588   1.774   0.809 -0.0220  2.4185 -1.2839
  151SOL     MW  604   1.652   1.822   0.783  0.0369  0.6734 -0.2368
  152SOL     OW  605   0.791   1.443   1.638 -0.2745 -0.3241  0.6239
  152SOL    HW1  606   0.792   1.454   1.733  2.8709  1.3737  0.6213
  152SOL    HW2  607   0.803   1.350   1.618 -2.3726  1.9807  0.2631
  152SOL     MW  608   0.793   1.432   1.648 -0.1363  0.2040  0.5759
  153SOL     OW  609   2.590   1.219   0.795 -0.0895  0.0097 -0.3743
  153SOL    HW1  610   2.659   1.169   0.749 -1.9139 -1.8478 -2.8971
  153SOL    HW2  611   2.528   1.148   0.799  0.2243  0.2619 -1.2610
  153SOL     MW  612   2.591   1.203   0.790 -0.2888 -0.2021 -0.8242
  154SOL     OW  613   0.152   1.751   1.715 -0.0379 -0.1139  0.1542
  154SOL    HW1  614   0.139   1.670   1.670 -2.9583 -0.8472 -1.6657
  154SOL    HW2  615   0.230   1.742   1.770 -1.0214  0.8955 -0.3077
  154SOL     MW  616   0.161   1.739   1.716 -0.5530 -0.0775 -0.1468
  155SOL     OW  617   1.160   0.693   0.274  0.1178  0.6316  0.2612
  155SOL    HW1  618   1.146   0.636   0.347  1.2904 -0.8911  1.4561
  155SOL    HW2  619   1.152   0.784   0.311  0.4385  1.0318 -0.1822
  155SOL     MW  620   1.157   0.698   0.289  0.3148  0.4835  0.3604
  156SOL     OW  621   1.556   2.999   1.062  0.3362 -0.0259 -0.5121
  156SOL    HW1  622   1.644   3.010   1.091 -0.2345 -2.1958  1.3963
  156SOL    HW2  623   1.536   2.926   1.116 -1.6399  0.6159 -0.0314
  156SOL     MW  624   1.565   2.991   1.073  0.0001 -0.2275 -0.1969
  157SOL     OW  625   1.405   1.163   0.102 -0.3272 -0.5754  0.1560
  157SOL    HW1  626   1.446   1.089   0.138 -1.5142 -5.6085 -0.5909
  157SOL    HW2  627   1.460   1.246   0.121 -0.2571  0.9423  1.9037
  157SOL     MW  628   1.418   1.164   0.109 -0.4745 -1.0392  0.2881
  158SOL     OW  629   0.392   1.625   2.269 -0.4513  0.4031  0.4404
  158SOL    HW1  630   0.401   1.685   2.195 -2.4656  1.1707  0.7489
  158SOL    HW2  631   0.348   1.679   2.332  2.0316 -0.4435  0.2713
  158SOL     MW  632   0.388   1.640   2.267 -0.3895  0.3927  0.4588
  159SOL     OW  633   1.265   1.711   0.477 -1.0004 -0.0200  0.2304
  159SOL    HW1  634   1.228   1.644   0.421  0.4177  0.4581 -1.3676
  159SOL    HW2  635   1.189   1.742   0.528  1.2602 -0.2982 -0.0730
  159SOL     MW  636   1.250   1.707   0.476 -0.5150  0.0064 -0.0205
  160SOL     OW  637   0.505   1.172   1.568 -0.0529  1.2347 -0.2902
  160SOL    HW1  638   0.479   1.077   1.570 -1.9502  0.9871 -0.4086
  160SOL    HW2  639   0.597   1.168   1.592  0.6462 -1.0792  0.3600
  160SOL     MW  640   0.514   1.159   1.571 -0.2110  0.8967 -0.2200
  161SOL     OW  641   0.473   2.235   2.526 -0.0721  0.0081 -0.1697
  161SOL    HW1  642   0.375   2.259   2.524 -0.7492 -2.0129 -1.1920
  161SOL    HW2  643   0.479   2.160   2.467  1.0019 -3.2714  0.6025
  161SOL     MW  644   0.461   2.228   2.518 -0.0197 -0.6913 -0.2027
  162SOL     OW  645   1.080   1.779   1.853 -0.2730 -0.5643 -0.2433
  162SOL    HW1  646   1.072   1.869   1.886 -1.3432  2.3513  0.8838
  162SOL    HW2  647   0.999   1.753   1.896 -2.1137 -0.1934 -1.0844
  162SOL     MW  648   1.068   1.787   1.863 -0.6571 -0.1307 -0.2056
  163SOL     OW  649   2.070   3.039   0.893 -1.0651  0.9317  0.1786
  163SOL    HW1  650   2.062   3.103   0.827  1.6192 -0.7739  2.7629
  163SOL    HW2  651   2.068   2.952   0.847  1.1045 -2.0530 -0.2051
  163SOL     MW  652   2.069   3.036   0.878 -0.4247  0.3129  0.4689
  164SOL     OW  653   0.303   0.213   0.811 -0.0814 -0.5800 -0.0424
  164SOL    HW1  654   0.207   0.196   0.841 -0.4536  1.4459  0.4653
  164SOL    HW2  655   0.322   0.139   0.756  0.3841  1.2469  1.6538
  164SOL     MW  656   0.293   0.201   0.807 -0.0691 -0.0717  0.2484
  165SOL     OW  657   1.288   1.303   0.338 -0.5766  0.4320 -0.2136
  165SOL    HW1  658   1.257   1.242   0.414 -3.2328 -1.9832 -0.6695
  165SOL    HW2  659   1.336   1.241   0.281 -1.7371 -0.5944  0.4740
  165SOL     MW  660   1.290   1.287   0.340 -1.0802 -0.0221 -0.1831
  166SOL     OW  661   0.538   1.194   1.002 -0.2173 -0.6308  0.5612
  166SOL    HW1  662   0.543   1.205   1.094 -1.2874  0.6786 -1.3996
  166SOL    HW2  663   0.627   1.168   0.975  3.0359 -0.8534  3.4066
  166SOL     MW  664   0.550   1.192   1.011  0.0707 -0.4874  0.6779
  167SOL     OW  665   0.817   1.102   0.252  0.0378  0.1802 -0.0797
  167SOL    HW1  666   0.798   1.200   0.254 -0.1326 -2.1095 -0.0529
  167SOL    HW2  667   0.900   1.086   0.199 -0.3021  0.8606 -2.8756
  167SOL     MW  668   0.825   1.113   0.245 -0.0295 -0.0321 -0.4451
  168SOL     OW  669   1.727   1.648   3.026 -0.2513  0.1452  0.1057
  168SOL    HW1  670   1.670   1.722   3.027  4.5958 -2.8071  0.6296
  168SOL    HW2  671   1.686   1.565   2.993  0.6216 -1.8823  1.1232
  168SOL     MW  672   1.714   1.647   3.022  0.5034 -0.5118  0.3091
  169SOL     OW  673   0.360   0.994   1.334 -0.3338 -0.0761 -0.4837
  169SOL    HW1  674   0.386   0.942   1.411 -0.9337 -1.0340 -1.1330
  169SOL    HW2  675   0.421   1.067   1.325  0.4032 -1.9892 -2.0838
  169SOL     MW  676   0.371   0.997   1.343 -0.3157 -0.4549 -0.7805
  170SOL     OW  677   1.101   1.550   1.503  0.2081  0.1339  0.1246
  170SOL    HW1  678   1.020   1.600   1.507 -0.8222  1.9256  1.0545
  170SOL    HW2  679   1.135   1.561   1.411  2.1617 -2.0405 -2.4551
  170SOL     MW  680   1.095   1.558   1.492  0.3299  0.0834 -0.0931
  171SOL     OW  681   0.561   1.392   0.586 -0.2500  0.4850 -0.8883
  171SOL    HW1  682   0.535   1.394   0.680 -0.3751  3.4426  0.4596
  171SOL    HW2  683   0.537   1.312   0.539  0.9281  1.2230  0.3685
  171SOL     MW  684   0.555   1.382   0.593 -0.1110  0.9726 -0.5446
  172SOL     OW  685   0.866   0.306   1.265 -0.2867 -0.0561 -0.0818
  172SOL    HW1  686   0.813   0.354   1.206 -1.7267 -0.9458  1.2547
  172SOL    HW2  687   0.813   0.259   1.337  0.7877 -1.9927 -1.7068
  172SOL     MW  688   0.852   0.306   1.267 -0.3350 -0.4290 -0.1199
  173SOL     OW  689   0.478   1.772   0.252  0.4950  0.7495 -0.8973
  173SOL    HW1  690   0.480   1.682   0.212  3.1868 -1.5804  1.4213
  173SOL    HW2  691   0.515   1.752   0.343  0.3396  1.0821  0.7524
  173SOL     MW  692   0.483   1.758   0.259  0.8297  0.4860 -0.3737
  174SOL     OW  693   1.844   0.900   1.490  0.4751 -0.4374  0.1470
  174SOL    HW1  694   1.804   0.814   1.504 -0.4249 -0.3361  0.0939
  174SOL    HW2  695   1.831   0.911   1.397 -2.4858  0.5708  0.2097
  174SOL     MW  696   1.837   0.890   1.480 -0.0343 -0.2910  0.1483
  175SOL     OW  697   0.474   1.504   0.226  0.0286 -0.6365  0.8161
  175SOL    HW1  698   0.408   1.463   0.168  1.1666 -1.1101  2.1615
  175SOL    HW2  699   0.513   1.422   0.265 -0.3684  2.8651  1.3801
  175SOL     MW  700   0.471   1.488   0.224  0.1264 -0.2370  1.0680
  176SOL     OW  701   0.189   1.470   1.200 -0.4737  0.1323  0.1701
  176SOL    HW1  702   0.158   1.419   1.129 -1.0719 -2.2496 -4.0676
  176SOL    HW2  703   0.123   1.476   1.269  1.1638  0.4371  1.7749
  176SOL     MW  704   0.176   1.464   1.200 -0.3366 -0.1418 -0.1773
  177SOL     OW  705   0.575   0.348   1.330 -0.3124  0.4748  0.6475
  177SOL    HW1  706   0.557   0.428   1.275  2.2496 -1.3812  2.8981
  177SOL    HW2  707   0.566   0.376   1.425 -1.0078 -1.2214  2.0585
  177SOL     MW  708   0.572   0.363   1.336 -0.0661  0.0061  1.1306
  178SOL     OW  709   3.062   0.530   2.976  0.2561 -0.5063  0.3775
  178SOL    HW1  710   3.014   0.543   3.059  1.6140  2.4561 -2.5512
  178SOL    HW2  711   2.998   0.487   2.912  1.4088 -3.2577 -2.0420
  178SOL     MW  712   3.047   0.526   2.978  0.5874 -0.4785 -0.3282
  179SOL     OW  713   1.575   1.417   1.338 -0.5790  0.4437  0.4982
  179SOL    HW1  714   1.592   1.428   1.428 -1.3212 -2.1446 -2.8855
  179SOL    HW2  715   1.665   1.421   1.307  0.0869  0.7047  3.6594
  179SOL     MW  716   1.589   1.419   1.346 -0.5891  0.1366  0.4688
  180SOL     OW  717   2.982   0.216   0.457  0.2710 -0.2463  0.4739
  180SOL    HW1  718   2.949   0.277   0.385 -0.4229  0.9525  2.4916
  180SOL    HW2  719   3.069   0.263   0.470 -2.0396  2.1221 -0.4527
  180SOL     MW  720   2.989   0.230   0.449 -0.1254  0.2244  0.6179
  181SOL     OW  721   1.119   1.343   3.060 -0.0775  0.1767 -0.0388
  181SOL    HW1  722   1.181   1.408   3.091  0.0742  1.0004  1.5904
  181SOL    HW2  723   1.165   1.293   2.997 -1.0701 -1.3195  0.8460
  181SOL     MW  724   1.133   1.345   3.056 -0.1885  0.0880  0.2929
  182SOL     OW  725   0.442   0.903   1.575 -0.5080  0.5120  0.2844
  182SOL    HW1  726   0.351   0.900   1.611 -1.8730 -0.3328 -4.1320
  182SOL    HW2  727   0.486   0.874   1.657 -2.3553  1.4545 -0.1006
  182SOL     MW  728   0.436   0.899   1.590 -0.9319  0.5249 -0.3491
  183SOL     OW  729   1.596   1.728   1.226 -0.0132  0.1718  0.3498
  183SOL    HW1  730   1.687   1.698   1.235  1.6156  1.6246  0.4821
  183SOL    HW2  731   1.539   1.661   1.257 -1.8413  2.5707  0.1616
  183SOL     MW  732   1.601   1.715   1.231 -0.0395  0.6800  0.3424
  184SOL     OW  733   0.814   0.730   1.932 -0.0903  0.0262 -0.7502
  184SOL    HW1  734   0.873   0.714   1.855 -1.4433  1.4759 -0.2760
  184SOL    HW2  735   0.817   0.645   1.971  1.1804  1.4033 -0.6161
  184SOL     MW  736   0.822   0.717   1.927 -0.1012  0.3992 -0.6699
  185SOL     OW  737   1.119   0.978   1.923 -0.3144 -0.2520  0.0588
  185SOL    HW1  738   1.107   0.892   1.970  1.2434 -2.4125 -0.5762
  185SOL    HW2  739   1.171   1.031   1.979  0.9834 -2.0674 -1.7600
  185SOL     MW  740   1.124   0.973   1.937  0.0624 -0.7766 -0.2649
  186SOL     OW  741   0.362   1.665   1.451  0.4106  0.6696  0.4280
  186SOL    HW1  742   0.398   1.610   1.382  0.8805 -0.4208  0.4267
  186SOL    HW2  743   0.276   1.616   1.469  1.6449 -0.0180 -1.9757
  186SOL     MW  744   0.355   1.652   1.444  0.6354  0.4350  0.1107
  187SOL     OW  745   1.506   0.735   1.350  0.3547 -0.4533 -0.0231
  187SOL    HW1  746   1.566   0.692   1.411 -2.1432 -2.0181  0.8803
  187SOL    HW2  747   1.414   0.747   1.378  0.3766 -0.1363 -0.1225
  187SOL     MW  748   1.502   0.731   1.362  0.0280 -0.6179  0.0830
  188SOL     OW  749   1.898   1.166   0.842  0.1688 -0.1445 -0.5153
  188SOL    HW1  750   1.900   1.173   0.935  0.1897  1.5227  0.6416
  188SOL    HW2  751   1.942   1.083   0.825  3.5998 -0.0173  0.6290
  188SOL     MW  752   1.904   1.156   0.852  0.6242  0.0923 -0.2117
  189SOL     OW  753   0.693   0.809   0.848  0.0971 -0.4083 -0.5839
  189SOL    HW1  754   0.613   0.876   0.845  0.8358  4.8736  3.1708
  189SOL    HW2  755   0.757   0.836   0.914  0.6421 -0.6237  1.6568
  189SOL     MW  756   0.691   0.821   0.856  0.2665  0.2602  0.2071
  190SOL     OW  757   1.872   0.236   2.186 -0.5273  0.5496  0.3310
  190SOL    HW1  758   1.887   0.260   2.277  0.8222 -0.8491  1.5934
  190SOL    HW2  759   1.928   0.297   2.142 -3.2336 -1.5733 -0.0691
  190SOL     MW  760   1.882   0.247   2.192 -0.7063  0.0849  0.4448
  191SOL     OW  761   1.557   0.944   1.185 -0.4043 -0.4408 -0.1137
  191SOL    HW1  762   1.522   0.998   1.254  1.3144  1.0248 -2.8740
  191SOL    HW2  763   1.551   0.859   1.226 -2.5747  1.2214 -1.7949
  191SOL     MW  764   1.552   0.940   1.199 -0.4639 -0.0281 -0.6997
  192SOL     OW  765   0.570   2.119   2.771 -0.2144  0.0376  0.2929
  192SOL    HW1  766   0.546   2.169   2.692 -0.0726  0.2572 -0.3964
  192SOL    HW2  767   0.515   2.039   2.765 -0.1579 -2.2289 -0.4140
  192SOL     MW  768   0.560   2.115   2.760 -0.1882 -0.2324  0.1087
  193SOL     OW  769   0.912   1.586   0.758 -0.5204  0.6609  0.2554
  193SOL    HW1  770   0.845   1.579   0.824  1.1005 -0.8421 -2.0270
  193SOL    HW2  771   0.871   1.517   0.695 -1.2343 -0.8199 -0.2090
  193SOL     MW  772   0.898   1.576   0.758 -0.4007  0.2672 -0.1070
  194SOL     OW  773   0.493   1.447   0.899 -0.4694  0.0981 -0.2744
  194SOL    HW1  774   0.499   1.372   0.958  1.5504 -0.1888  1.8626
  194SOL    HW2  775   0.412   1.424   0.852  1.3149  0.9340 -1.8801
  194SOL     MW  776   0.483   1.434   0.901  0.0325  0.1706 -0.2043
  195SOL     OW  777   1.296   1.154   2.946 -0.1727 -0.4922 -0.3959
  195SOL    HW1  778   1.348   1.150   3.029 -0.6812  0.9592  1.1760
  195SOL    HW2  779   1.234   1.089   2.972  1.6422  1.6925 -1.9955
  195SOL     MW  780   1.295   1.145   2.960 -0.0003 -0.0125 -0.3995
  196SOL     OW  781   2.207   0.995   0.530 -0.3533  0.4008 -0.5662
  196SOL    HW1  782   2.155   0.980   0.456  1.9574  0.8761  2.1827
  196SOL    HW2  783   2.215   1.090   0.536 -0.3735 -0.5829  1.6744
  196SOL     MW  784   2.201   1.006   0.521 -0.0511  0.3337  0.0921
  197SOL     OW  785   0.647   1.355   2.158 -1.0842 -0.1356  0.5839
  197SOL    HW1  786   0.688   1.260   2.134  0.2000 -1.2578 -2.5753
  197SOL    HW2  787   0.643   1.398   2.072 -0.4661  0.4776 -0.1904
  197SOL     MW  788   0.652   1.348   2.143 -0.8332 -0.2028  0.0649
  198SOL     OW  789   2.925   1.399   1.027  0.3258 -0.0526 -0.6817
  198SOL    HW1  790   2.907   1.459   0.955 -0.0134  1.1712 -1.7637
  198SOL    HW2  791   2.853   1.338   1.026  1.4264  0.5902 -1.2988
  198SOL     MW  792   2.913   1.399   1.017  0.4263  0.1937 -0.9059
  199SOL     OW  793   0.617   1.385   1.868  1.0087 -0.6011  0.2961
  199SOL    HW1  794   0.535   1.340   1.899  0.6586  0.3755  2.0472
  199SOL    HW2  795   0.592   1.456   1.803  3.3908  0.9782 -1.6575
  199SOL     MW  796   0.603   1.389   1.864  1.2768 -0.2639  0.2694
  200SOL     OW  797   1.865   2.920   1.376  0.5596  0.3258 -0.1904
  200SOL    HW1  798   1.919   2.962   1.304  1.0393  0.7527  0.7965
  200SOL    HW2  799   1.786   2.980   1.380 -3.7139 -0.5289  1.7004
  200SOL     MW  800   1.862   2.934   1.367  0.0590  0.2694  0.1893
  201SOL     OW  801   0.978   0.366   0.777 -0.2533 -0.6954 -0.9559
  201SOL    HW1  802   0.958   0.276   0.751  1.1801  1.9144 -0.2472
  201SOL    HW2  803   1.070   0.370   0.802  2.9299 -0.3082 -0.4365
  201SOL     MW  804   0.987   0.355   0.776  0.3558 -0.3000 -0.7939
  202SOL     OW  805   1.491   1.631   0.914 -0.4371  1.3606  0.5641
  202SOL    HW1  806   1.474   1.540   0.899  0.0458  1.5059 -0.9438
  202SOL    HW2  807   1.546   1.634   0.991 -1.2849  1.1402  0.6529
  202SOL     MW  808   1.496   1.620   0.922 -0.4853  1.3507  0.3769
  203SOL     OW  809   3.026   0.455   1.440  0.2212 -0.5950  0.5648
  203SOL    HW1  810   3.084   0.382   1.417 -1.0214 -0.1860  2.3361
  203SOL    HW2  811   3.083   0.530   1.432  0.2509  0.4258  1.2586
  203SOL     MW  812   3.041   0.455   1.436  0.0612 -0.4063  0.8900
  204SOL     OW  813   1.029   1.791   0.604  0.0695  0.5972  0.2924
  204SOL    HW1  814   0.994   1.741   0.680  0.6392 -1.7361  1.2841
  204SOL    HW2  815   0.949   1.799   0.547 -0.3735  0.0391  0.1085
  204SOL     MW  816   1.014   1.785   0.607  0.0862  0.2157  0.3990
  205SOL     OW  817   1.413   3.093   1.297  0.1282  0.1382  0.3358
  205SOL    HW1  818   1.428   3.081   1.203  0.0511 -0.2265 -1.1650
  205SOL    HW2  819   1.365   3.176   1.307 -1.6553 -0.7055 -0.3924
  205SOL     MW  820   1.409   3.102   1.286 -0.1173 -0.0212  0.0417
  206SOL     OW  821   0.501   3.100   1.419  0.3174  0.3423 -0.2295
  206SOL    HW1  822   0.441   3.098   1.344  1.1948 -2.0293  0.7718
  206SOL    HW2  823   0.541   3.014   1.425 -0.0775 -0.2826  0.5917
  206SOL     MW  824   0.498   3.089   1.410  0.3811 -0.0531  0.0110
  207SOL     OW  825   0.911   1.619   0.230 -0.4865  0.4042 -0.0529
  207SOL    HW1  826   0.927   1.702   0.187  2.0162  3.8463  1.5769
  207SOL    HW2  827   1.002   1.588   0.249 -0.2597 -1.0786 -1.6578
  207SOL     MW  828   0.925   1.626   0.227 -0.1264  0.6627 -0.0496
  208SOL     OW  829   0.714   1.688   1.348 -0.5056  0.5143  0.6087
  208SOL    HW1  830   0.769   1.703   1.429 -3.0336  1.3540  2.8144
  208SOL    HW2  831   0.774   1.632   1.303 -2.4880  2.4090  3.5902
  208SOL     MW  832   0.729   1.683   1.353 -1.1007  0.8751  1.2931
  209SOL     OW  833   1.554   0.525   2.833 -0.1194  0.8427 -0.8413
  209SOL    HW1  834   1.628   0.572   2.873 -1.7770  2.0123 -1.5088
  209SOL    HW2  835   1.600   0.445   2.799 -0.6041  0.1286 -1.4714
  209SOL     MW  836   1.570   0.520   2.834 -0.4020  0.9028 -1.0125
  210SOL     OW  837   1.464   1.365   0.853  0.1944  0.7764  0.8548
  210SOL    HW1  838   1.561   1.361   0.822 -0.6609 -3.1022  2.7344
  210SOL    HW2  839   1.408   1.362   0.772 -1.4119  0.9587 -0.3070
  210SOL     MW  840   1.469   1.364   0.838 -0.1304  0.2887  0.9495
  211SOL     OW  841   1.721   0.271   1.009 -0.3504  0.1386  0.4159
  211SOL    HW1  842   1.698   0.288   0.917  0.4174  1.8619 -0.7124
  211SOL    HW2  843   1.815   0.285   1.021  0.1962  1.4724 -0.9219
  211SOL     MW  844   1.730   0.275   0.998 -0.1770  0.5419  0.0905
  212SOL     OW  845   0.287   1.056   0.179  0.6029 -0.2173 -0.2642
  212SOL    HW1  846   0.225   1.017   0.236  2.5319  0.2072  0.4706
  212SOL    HW2  847   0.327   0.984   0.130  2.6027  1.6157 -2.9557
  212SOL     MW  848   0.284   1.041   0.180  1.1212  0.0805 -0.5224
  213SOL     OW  849   0.497   1.740   2.993 -0.3927  0.0199 -0.2940
  213SOL    HW1  850   0.515   1.810   3.058  0.5965  1.3568  0.3042
  213SOL    HW2  851   0.530   1.777   2.911 -0.1020 -3.0145  0.7381
  213SOL     MW  852   0.504   1.754   2.990 -0.2239 -0.2041 -0.0789
  214SOL     OW  853   0.641   0.366   2.168 -0.2628 -0.2565 -0.0390
  214SOL    HW1  854   0.570   0.435   2.175  0.6711 -0.9498 -2.5687
  214SOL    HW2  855   0.690   0.367   2.089 -1.3506  1.5685 -2.2269
  214SOL     MW  856   0.638   0.375   2.158 -0.2831 -0.1072 -0.6615
  215SOL     OW  857   0.494   0.679   2.635 -0.1404 -0.5155 -0.1546
  215SOL    HW1  858   0.468   0.694   2.546 -3.0740 -2.1094  2.1586
  215SOL    HW2  859   0.412   0.665   2.680 -0.4361 -0.6879 -2.6020
  215SOL     MW  860   0.480   0.679   2.629 -0.5665 -0.7485 -0.1723
  216SOL     OW  861   2.992   3.010   2.747  0.1089  0.8530  0.0045
  216SOL    HW1  862   2.924   3.020   2.808 -0.6824  1.2412 -0.7185
  216SOL    HW2  863   3.006   3.091   2.705  0.5443 -1.8794  0.0035
  216SOL     MW  864   2.985   3.022   2.749  0.0619  0.5437 -0.0910
  217SOL     OW  865   1.048   1.124   0.115 -0.4802  0.2333 -0.7492
  217SOL    HW1  866   1.066   1.044   0.069 -0.6637  0.2609  1.3676
  217SOL    HW2  867   1.100   1.199   0.081  2.2209  1.5839 -0.1281
  217SOL     MW  868   1.057   1.123   0.104 -0.1480  0.4151 -0.3880
  218SOL     OW  869   0.899   1.339   2.650 -0.5509 -0.0378  0.7409
  218SOL    HW1  870   0.893   1.273   2.724 -0.2126 -0.4693  1.1558
  218SOL    HW2  871   0.977   1.393   2.664 -0.4075 -0.0557 -1.1056
  218SOL     MW  872   0.908   1.337   2.662 -0.4873 -0.0971  0.5520
  219SOL     OW  873   1.129   0.346   2.603 -0.1228 -0.1065  0.1109
  219SOL    HW1  874   1.209   0.408   2.615  1.6155  0.6548  0.3268
  219SOL    HW2  875   1.064   0.405   2.576  0.4693 -1.0586  2.4843
  219SOL     MW  876   1.131   0.362   2.601  0.1847 -0.1317  0.4525
  220SOL     OW  877   1.682   0.462   2.215 -0.6325  0.2295  0.0765
  220SOL    HW1  878   1.604   0.475   2.163  0.5751  0.4022  1.0609
  220SOL    HW2  879   1.725   0.383   2.184 -0.4613  0.4754 -0.3802
  220SOL     MW  880   1.677   0.453   2.204 -0.4506  0.2848  0.1461
  221SOL     OW  881   0.343   1.324   2.915 -0.3248  0.1588  0.1333
  221SOL    HW1  882   0.416   1.270   2.890  0.6615  1.2140  1.8883
  221SOL    HW2  883   0.359   1.410   2.873  1.2749  1.5000 -1.7577
  221SOL     MW  884   0.354   1.328   2.906  0.0164  0.4750  0.1153
  222SOL     OW  885   0.463   0.959   2.631  0.0912 -0.3460 -0.5000
  222SOL    HW1  886   0.407   0.950   2.554  0.2967 -0.4764 -0.1377
  222SOL    HW2  887   0.482   0.866   2.644  1.3179  2.5315  3.7103
  222SOL     MW  888   0.458   0.945   2.623  0.2802  0.0164  0.1033
  223SOL     OW  889   0.092   2.011   2.524  0.0235 -0.4748  0.0050
  223SOL    HW1  890   0.078   1.973   2.611 -3.1640  0.6536 -1.2023
  223SOL    HW2  891   0.097   2.109   2.535 -1.2796 -1.8600 -1.5009
  223SOL     MW  892   0.091   2.019   2.537 -0.5690 -0.5087 -0.3530
  224SOL     OW  893   1.552   0.732   2.520 -0.0465  0.4593 -0.1270
  224SOL    HW1  894   1.529   0.741   2.611 -0.4381  0.0312  1.0195
  224SOL    HW2  895   1.509   0.806   2.473 -2.4039  0.2935  1.3013
  224SOL     MW  896   1.543   0.743   2.526 -0.4092  0.3809  0.2127
  225SOL     OW  897   2.919   1.476   2.294 -0.3037 -0.2110 -0.5546
  225SOL    HW1  898   2.943   1.561   2.264 -0.0487 -0.7933 -1.9730
  225SOL    HW2  899   2.837   1.490   2.349 -0.6591  0.4472  2.3090
  225SOL     MW  900   2.911   1.489   2.298 -0.3170 -0.2010 -0.3640
  226SOL     OW  901   0.414   1.517   2.750 -0.1968 -0.2087 -0.5427
  226SOL    HW1  902   0.514   1.521   2.740  1.0448 -3.5698  1.1557
  226SOL    HW2  903   0.387   1.610   2.750 -0.7482 -1.6480  0.0132
  226SOL     MW  904   0.424   1.530   2.749 -0.1058 -0.8421 -0.2453
  227SOL     OW  905   0.542   1.131   2.837  0.1636 -0.2993 -0.1087
  227SOL    HW1  906   0.607   1.184   2.791 -0.4248 -1.0798 -0.9390
  227SOL    HW2  907   0.527   1.071   2.768  0.3185  2.4077 -1.2986
  227SOL     MW  908   0.549   1.130   2.822  0.1064 -0.0451 -0.3752
  228SOL     OW  909   0.743   1.130   2.064  0.4577  0.1015  0.5632
  228SOL    HW1  910   0.764   1.163   1.977 -1.1214 -0.7007  0.9031
  228SOL    HW2  911   0.826   1.094   2.102  1.6583 -2.6054 -1.1865
  228SOL     MW  912   0.757   1.130   2.058  0.4078 -0.3615  0.3772
  229SOL     OW  913   0.142   0.666   0.056  0.3064  0.0592 -0.3675
  229SOL    HW1  914   0.100   0.627  -0.021  0.8802 -0.5333 -1.0499
  229SOL    HW2  915   0.149   0.589   0.111  1.0926  0.9243 -2.3683
  229SOL     MW  916   0.137   0.650   0.053  0.4858  0.0951 -0.7215
  230SOL     OW  917   1.773   1.334   2.016  1.1404  0.1633 -0.1136
  230SOL    HW1  918   1.714   1.305   2.082  1.2791  0.6100 -1.6315
  230SOL    HW2  919   1.800   1.248   1.984  0.1018  0.0470 -2.0382
  230SOL     MW  920   1.769   1.319   2.020  1.0217  0.2069 -0.5678
  231SOL     OW  921   2.757   1.261   2.177 -0.2965  0.2791  0.1697
  231SOL    HW1  922   2.832   1.312   2.194  1.0151 -1.9827  1.8740
  231SOL    HW2  923   2.690   1.311   2.129 -1.7762 -2.3648  1.2156
  231SOL     MW  924   2.758   1.274   2.173 -0.3187 -0.3681  0.5326
  232SOL     OW  925   2.248   0.851   2.029  0.1048 -0.4701 -0.6516
  232SOL    HW1  926   2.166   0.862   1.984  0.3500  0.1349 -1.1104
  232SOL    HW2  927   2.212   0.881   2.116 -1.9623 -0.4133  2.2125
  232SOL     MW  928   2.233   0.857   2.035 -0.1356 -0.3828 -0.3343
  233SOL     OW  929   2.061   0.407   2.054  0.1393 -0.2746 -0.3194
  233SOL    HW1  930   2.081   0.311   2.045  1.0443 -3.3089  3.0591
  233SOL    HW2  931   2.144   0.453   2.080 -0.9596  1.6353  3.8553
  233SOL     MW  932   2.074   0.401   2.056  0.1137 -0.4229  0.6771
  234SOL     OW  933   0.192   1.042   2.532 -0.1230  0.3500  0.4761
  234SOL    HW1  934   0.103   1.050   2.490  0.3636  1.2081  1.3378
  234SOL    HW2  935   0.218   1.131   2.562  0.2951  1.0336 -0.7868
  234SOL     MW  936   0.184   1.055   2.530 -0.0036  0.5534  0.4232
  235SOL     OW  937   1.129   3.041   2.797 -0.3948 -0.1437  0.0223
  235SOL    HW1  938   1.143   3.019   2.887 -0.6684  2.9015  0.3263
  235SOL    HW2  939   1.109   3.137   2.809 -1.5196 -1.6642 -0.2030
  235SOL     MW  940   1.128   3.050   2.811 -0.5793  0.0575  0.0326
  236SOL     OW  941   2.923   0.586   0.088  0.6013  0.3026  0.3888
  236SOL    HW1  942   2.841   0.635   0.061 -1.1375  0.0248  0.9818
  236SOL    HW2  943   2.987   0.654   0.099  3.6045 -0.3206 -1.4195
  236SOL     MW  944   2.921   0.601   0.086  0.7681  0.1837  0.2284
  237SOL     OW  945   2.000   1.137   2.228 -0.5270  0.2476 -0.4461
  237SOL    HW1  946   1.932   1.146   2.165 -2.2116 -2.4891 -0.8794
  237SOL    HW2  947   2.041   1.048   2.223 -0.0614  3.1147  2.4876
  237SOL     MW  948   1.997   1.127   2.219 -0.6878  0.2648 -0.1162
  238SOL     OW  949   1.081   1.769   2.949 -0.2534 -0.2579 -0.2493
  238SOL    HW1  950   1.030   1.689   2.960 -2.5043  1.1068 -2.2700
  238SOL    HW2  951   1.170   1.746   2.927 -1.2924 -0.1533 -1.0207
  238SOL     MW  952   1.086   1.755   2.948 -0.6875 -0.0640 -0.6177
  239SOL     OW  953   1.246   1.430   2.375 -0.5188 -0.6413  0.0133
  239SOL    HW1  954   1.211   1.482   2.450 -1.3009 -0.1459  1.2633
  239SOL    HW2  955   1.236   1.339   2.404 -0.2038 -2.1350  3.8076
  239SOL     MW  956   1.240   1.425   2.388 -0.5804 -0.7730  0.6788
  240SOL     OW  957   0.625   0.918   2.308  0.2440  0.3468 -0.2225
  240SOL    HW1  958   0.673   0.942   2.390  2.3111 -0.7361  3.3641
  240SOL    HW2  959   0.695   0.897   2.245 -2.2469 -2.7687 -1.0411
  240SOL     MW  960   0.640   0.919   2.310  0.1881 -0.2072  0.1427
  241SOL     OW  961   0.684   0.412   0.017 -0.2275 -0.1299 -0.2388
  241SOL    HW1  962   0.687   0.494   0.077  1.2732 -0.6911  3.8342
  241SOL    HW2  963   0.595   0.400  -0.002 -0.9833 -0.6374 -2.3401
  241SOL     MW  964   0.673   0.421   0.023 -0.1292 -0.2709  0.0213
  242SOL     OW  965   1.488   1.718   2.299 -0.1566 -0.2550  0.1644
  242SOL    HW1  966   1.431   1.775   2.350  0.8692  0.9891  0.4717
  242SOL    HW2  967   1.437   1.668   2.231  0.6112 -0.9700 -2.8892
  242SOL     MW  968   1.474   1.719   2.296  0.0801 -0.1852 -0.1979
  243SOL     OW  969   0.978   0.175   2.433 -0.6291  0.1092 -0.4947
  243SOL    HW1  970   1.035   0.118   2.382  1.2854  1.2745 -0.1842
  243SOL    HW2  971   1.045   0.233   2.479  0.3274 -2.0672 -0.6891
  243SOL     MW  972   0.995   0.175   2.433 -0.2503 -0.0242 -0.4794
  244SOL     OW  973   0.160   0.819   2.339 -0.3851 -0.1574  0.0905
  244SOL    HW1  974   0.149   0.883   2.412 -1.0909 -0.4951 -0.4342
  244SOL    HW2  975   0.255   0.806   2.331  0.4425  0.5574 -0.5002
  244SOL     MW  976   0.171   0.826   2.348 -0.3690 -0.1076 -0.0567
  245SOL     OW  977   1.231   0.190   2.308 -0.2311  0.3326  0.1042
  245SOL    HW1  978   1.287   0.125   2.276  0.2657  1.0497 -1.5584
  245SOL    HW2  979   1.276   0.239   2.376  0.0526  0.3160  2.6710
  245SOL     MW  980   1.244   0.188   2.313 -0.1281  0.4250  0.2235
  246SOL     OW  981   1.205   1.154   2.111 -0.5800  0.0175 -0.0161
  246SOL    HW1  982   1.129   1.149   2.175  0.9715  1.4828  0.3578
  246SOL    HW2  983   1.274   1.109   2.161  0.1600 -1.9452  2.1824
  246SOL     MW  984   1.204   1.148   2.126 -0.2777 -0.0481  0.3233
  247SOL     OW  985   0.763   0.605   0.210 -0.3225  0.6446  0.3052
  247SOL    HW1  986   0.727   0.689   0.191 -2.2639 -0.0635  0.8028
  247SOL    HW2  987   0.854   0.603   0.169  0.0317  0.5015 -3.2727
  247SOL     MW  988   0.771   0.616   0.202 -0.5319  0.5323 -0.1012
  248SOL     OW  989   0.321   1.291   2.575 -0.1781  0.1902  0.2498
  248SOL    HW1  990   0.360   1.291   2.484 -0.4844  0.4893  0.9630
  248SOL    HW2  991   0.359   1.371   2.615  1.3530 -2.3298 -1.2651
  248SOL     MW  992   0.331   1.301   2.568 -0.0165 -0.1028  0.1440
  249SOL     OW  993   0.067   1.859   2.750 -0.7573  0.4123  0.3101
  249SOL    HW1  994   0.060   1.782   2.697 -0.6619  0.5986  0.2159
  249SOL    HW2  995   0.099   1.823   2.832 -1.8989  3.5114  2.3977
  249SOL     MW  996   0.070   1.844   2.754 -0.8953  0.8458  0.5731
  250SOL     OW  997   2.138   0.904   2.257 -0.3113 -0.8681  0.2057
  250SOL    HW1  998   2.129   0.816   2.299 -1.6509 -0.9671  0.5683
  250SOL    HW2  999   2.217   0.934   2.305  0.1352  1.3255 -0.8067
  250SOL     MW 1000   2.147   0.896   2.269 -0.4291 -0.5917  0.1199
  251SOL     OW 1001   0.156   0.894   1.952  0.1766 -0.3462 -0.2981
  251SOL    HW1 1002   0.174   0.802   1.973  2.3318 -2.7964 -0.3199
  251SOL    HW2 1003   0.167   0.907   1.861  1.0007 -0.8970  3.0623
  251SOL     MW 1004   0.160   0.883   1.943  0.5697 -0.7421  0.1424
  252SOL     OW 1005   1.710   0.973   2.938 -0.6369 -0.0167 -0.5640
  252SOL    HW1 1006   1.714   1.020   3.019 -0.6066 -0.7472 -1.8682
  252SOL    HW2 1007   1.792   0.987   2.891  0.8538  0.9517 -0.5782
  252SOL     MW 1008   1.721   0.981   2.942 -0.4362  0.0147 -0.7379
  253SOL     OW 1009   1.126   1.731   2.495 -0.0840  0.0349 -0.6222
  253SOL    HW1 1010   1.136   1.739   2.392  1.3012  1.5408 -0.4522
  253SOL    HW2 1011   1.039   1.776   2.523 -0.8630 -0.9252 -0.6089
  253SOL     MW 1012   1.115   1.738   2.485 -0.0040  0.1069 -0.5980
  254SOL     OW 1013   0.975   1.103   2.238 -0.9688  0.4780  0.3629
  254SOL    HW1 1014   0.941   1.014   2.260 -5.8793  1.9849 -0.9435
  254SOL    HW2 1015   0.938   1.166   2.304  2.0261 -1.4246 -0.2353
  254SOL     MW 1016   0.966   1.100   2.250 -1.2216  0.4258  0.1116
  255SOL     OW 1017   0.836   2.510   2.146  0.2543 -0.3529  0.5794
  255SOL    HW1 1018   0.744   2.468   2.137 -2.7958  1.3798  1.5515
  255SOL    HW2 1019   0.912   2.452   2.137  1.3653  1.8365 -0.3877
  255SOL     MW 1020   0.834   2.497   2.144 -0.0016  0.1646  0.5800
  256SOL     OW 1021   1.271   2.730   2.966 -0.4877 -0.1505  0.0493
  256SOL    HW1 1022   1.231   2.692   2.892  0.4642  0.6046  0.5920
  256SOL    HW2 1023   1.361   2.750   2.935  2.0034  1.6579 -0.2687
  256SOL     MW 1024   1.278   2.727   2.952 -0.0334  0.1877  0.0789
  257SOL     OW 1025   0.131   1.949   0.015 -1.2056 -0.2206 -0.3912
  257SOL    HW1 1026   0.173   1.928   0.102  1.8213 -2.1389  1.8870
  257SOL    HW2 1027   0.161   1.881  -0.043 -2.1376 -0.8161 -1.6813
  257SOL     MW 1028   0.140   1.937   0.019 -0.9292 -0.5523 -0.2608
  258SOL     OW 1029   0.808   0.999   2.515 -0.3928  0.2373 -0.4376
  258SOL    HW1 1030   0.804   1.094   2.482  1.1916 -0.3101 -0.2278
  258SOL    HW2 1031   0.734   0.999   2.568 -0.5537 -0.1170  0.3307
  258SOL     MW 1032   0.797   1.012   2.518 -0.2050  0.1183 -0.3085
  259SOL     OW 1033   0.890   0.405   2.286 -0.4850  0.0582 -0.1796
  259SOL    HW1 1034   0.804   0.403   2.238  0.4197  0.5860 -1.7347
  259SOL    HW2 1035   0.903   0.308   2.305  0.6734 -0.2324 -1.9350
  259SOL     MW 1036   0.880   0.392   2.282 -0.2128  0.0895 -0.6164
  260SOL     OW 1037   0.618   0.141   1.612  0.3685 -0.3387 -0.0176
  260SOL    HW1 1038   0.573   0.099   1.542  1.2275  0.0015  0.6255
  260SOL    HW2 1039   0.710   0.160   1.587  1.7843 -0.0861 -1.9258
  260SOL     MW 1040   0.624   0.138   1.600  0.6686 -0.2605 -0.1845
  261SOL     OW 1041   1.154   0.716   2.032 -0.7453 -0.2750  0.0215
  261SOL    HW1 1042   1.162   0.713   2.134 -0.9559 -0.5080  1.2312
  261SOL    HW2 1043   1.120   0.630   2.015  1.3594  0.2184  0.9901
  261SOL     MW 1044   1.150   0.705   2.043 -0.4954 -0.2406  0.3089
  262SOL     OW 1045   1.067   0.326   0.181  0.1416  0.0993  0.4642
  262SOL    HW1 1046   1.161   0.311   0.169 -1.5381  1.2949 -0.4924
  262SOL    HW2 1047   1.029   0.248   0.140  0.1502  2.1080  0.0178
  262SOL     MW 1048   1.074   0.314   0.174 -0.0789  0.5220  0.2791
  263SOL     OW 1049   0.457   0.041   2.474 -0.3970 -0.0501  0.3173
  263SOL    HW1 1050   0.370   0.080   2.476  0.1984 -0.4811 -1.0604
  263SOL    HW2 1051   0.498   0.066   2.390 -0.8561 -1.4018 -1.2803
  263SOL     MW 1052   0.451   0.049   2.463 -0.3790 -0.2853 -0.0753
  264SOL     OW 1053   1.542   1.333   1.866  0.2819  0.0125  0.5009
  264SOL    HW1 1054   1.521   1.239   1.871 -0.4586 -0.3831  0.8691
  264SOL    HW2 1055   1.617   1.345   1.921  0.9727 -3.0454  2.1675
  264SOL     MW 1056   1.549   1.322   1.874  0.2753 -0.4431  0.7694
  265SOL     OW 1057   0.786   2.782   2.238 -0.4021 -0.7466  0.0010
  265SOL    HW1 1058   0.826   2.701   2.202 -1.4780  0.1618 -2.6801
  265SOL    HW2 1059   0.770   2.769   2.331 -0.8830  1.5196  1.4942
  265SOL     MW 1060   0.789   2.769   2.245 -0.6075 -0.3278 -0.1557
  266SOL     OW 1061   0.860   0.813   2.208  0.5008  0.7879  0.0601
  266SOL    HW1 1062   0.849   0.799   2.110 -0.2635 -1.9190 -0.5453
  266SOL    HW2 1063   0.924   0.747   2.233  2.4935  0.1957 -1.2229
  266SOL     MW 1064   0.867   0.802   2.198  0.6629  0.3527 -0.1890
  267SOL     OW 1065   1.343   1.778   2.651 -0.4207 -0.4337 -0.2483
  267SOL    HW1 1066   1.427   1.739   2.625  0.0236 -0.2043  2.2836
  267SOL    HW2 1067   1.268   1.765   2.593  2.6627  0.8779  1.3634
  267SOL     MW 1068   1.344   1.771   2.640  0.0448 -0.2304  0.2984
  268SOL     OW 1069   0.183   0.902   1.664  0.0796  0.6574  0.4750
  268SOL    HW1 1070   0.141   0.993   1.660 -1.6539 -1.0004  3.2308
  268SOL    HW2 1071   0.138   0.847   1.595 -1.7740  0.0893  2.5094
  268SOL     MW 1072   0.171   0.907   1.654 -0.3937  0.3637  1.1070
  269SOL     OW 1073   1.337   1.989   2.318 -0.2176 -0.2477  0.0870
  269SOL    HW1 1074   1.393   2.059   2.340 -1.6592  0.1124 -1.6860
  269SOL    HW2 1075   1.256   2.014   2.359 -3.0488  0.9392  2.0033
  269SOL     MW 1076   1.333   2.001   2.326 -0.7814 -0.0436  0.1059
  270SOL     OW 1077   1.153   0.404   1.587  0.3737  0.2052  0.0767
  270SOL    HW1 1078   1.138   0.314   1.612 -1.3781  2.8396  1.0479
  270SOL    HW2 1079   1.247   0.419   1.563  0.9061  0.2700 -0.5012
  270SOL     MW 1080   1.164   0.394   1.587  0.2128  0.5613  0.1286
  271SOL     OW 1081   0.765   0.040   2.519  0.7979  1.0246 -0.5120
  271SOL    HW1 1082   0.808  -0.036   2.557 -1.0229  1.6642 -3.2251
  271SOL    HW2 1083   0.847   0.089   2.478  3.6714 -0.3592 -1.7749
  271SOL     MW 1084   0.781   0.037   2.518  0.9368  0.9264 -1.0366
  272SOL     OW 1085   1.497   2.810   2.833 -0.3690  0.1736  0.4762
  272SOL    HW1 1086   1.443   2.829   2.753  1.8920 -0.2706 -1.1993
  272SOL    HW2 1087   1.528   2.897   2.840 -1.4590  0.9179 -0.4248
  272SOL     MW 1088   1.494   2.824   2.824 -0.2145  0.2132  0.1362
  273SOL     OW 1089   1.477   0.911   2.800 -0.2570 -0.1395  0.4527
  273SOL    HW1 1090   1.548   0.939   2.856 -0.2119  1.0552 -1.5956
  273SOL    HW2 1091   1.427   0.980   2.756 -0.1384 -0.3925 -1.4009
  273SOL     MW 1092   1.480   0.924   2.801 -0.2354 -0.0153 -0.0621
  274SOL     OW 1093   1.411   0.746   0.124 -0.4010  0.2195  0.0152
  274SOL    HW1 1094   1.440   0.678   0.187  0.3039  1.3742  0.7679
  274SOL    HW2 1095   1.330   0.772   0.162  0.5049  0.4064  2.9211
  274SOL     MW 1096   1.405   0.740   0.138 -0.1885  0.3965  0.4979
  275SOL     OW 1097   1.694   0.533   1.768  0.2690 -0.3629 -0.1691
  275SOL    HW1 1098   1.757   0.581   1.824 -1.4207  1.5070  0.8769
  275SOL    HW2 1099   1.701   0.440   1.793  1.4490 -1.4086  1.4377
  275SOL     MW 1100   1.703   0.527   1.778  0.2017 -0.2542  0.1809
  276SOL     OW 1101   0.382   1.293   1.953  1.1094  0.5310 -0.3126
  276SOL    HW1 1102   0.412   1.202   1.947  1.1639 -0.3073 -1.4875
  276SOL    HW2 1103   0.324   1.314   2.025  0.3636  1.9909 -2.7327
  276SOL     MW 1104   0.378   1.284   1.962  1.0182  0.6130 -0.7869
  277SOL     OW 1105   1.957   1.152   2.487 -0.2875  0.2549 -0.1944
  277SOL    HW1 1106   2.005   1.236   2.503  3.1432  0.4076 -2.5007
  277SOL    HW2 1107   1.976   1.138   2.392  0.0468 -0.6890  1.0668
  277SOL     MW 1108   1.966   1.161   2.477  0.2093  0.1505 -0.3323
  278SOL     OW 1109   1.366   0.664   1.664 -0.1840  0.2969 -0.1386
  278SOL    HW1 1110   1.353   0.613   1.746  0.5888 -1.3976  2.1023
  278SOL    HW2 1111   1.442   0.713   1.682 -1.9746 -0.0430  0.6974
  278SOL     MW 1112   1.374   0.664   1.677 -0.3183  0.0285  0.2674
  279SOL     OW 1113   0.549   0.122   2.213 -0.5265  0.0274 -0.1784
  279SOL    HW1 1114   0.627   0.065   2.221 -1.3322 -1.1792 -2.6111
  279SOL    HW2 1115   0.600   0.206   2.205  0.4218  0.2902 -3.0703
  279SOL     MW 1116   0.566   0.126   2.213 -0.5077 -0.0972 -0.8810
  280SOL     OW 1117   1.422   0.982   2.155 -0.2465  0.4743  0.1783
  280SOL    HW1 1118   1.495   0.922   2.126 -1.9917 -1.0833  2.9058
  280SOL    HW2 1119   1.437   0.968   2.249  2.1621 -1.5183 -1.6215
  280SOL     MW 1120   1.433   0.972   2.163 -0.1590  0.0059  0.3007
  281SOL     OW 1121   1.364   1.254   2.705 -0.0561 -1.0483 -0.0791
  281SOL    HW1 1122   1.460   1.281   2.709  1.5813 -1.0842 -2.1536
  281SOL    HW2 1123   1.337   1.219   2.793 -1.0902 -2.3340 -2.2241
  281SOL     MW 1124   1.373   1.253   2.717  0.0235 -1.2227 -0.6358
  282SOL     OW 1125   1.125   1.253   1.635  0.2640 -0.4343 -0.0091
  282SOL    HW1 1126   1.096   1.342   1.626 -2.0445 -1.1347  0.1525
  282SOL    HW2 1127   1.073   1.205   1.702  0.6047  1.2209  0.1416
  282SOL     MW 1128   1.114   1.259   1.643  0.0043 -0.3083  0.0321
  283SOL     OW 1129   0.826   1.272   3.063 -0.0373  0.6086  0.4229
  283SOL    HW1 1130   0.924   1.299   3.057  3.1196  1.0587  2.8162
  283SOL    HW2 1131   0.776   1.355   3.078  2.0490  2.7744  1.0443
  283SOL     MW 1132   0.833   1.287   3.064  0.6545  0.9538  0.8207
  284SOL     OW 1133   0.429   0.753   2.374 -0.0495  0.5347  0.3143
  284SOL    HW1 1134   0.503   0.815   2.343 -0.2462 -0.9703  0.7807
  284SOL    HW2 1135   0.414   0.688   2.299  0.9827 -0.5822  1.0171
  284SOL     MW 1136   0.437   0.752   2.360  0.0607  0.1888  0.4686
  285SOL     OW 1137   0.901   0.878   2.818 -0.3455  0.2051 -0.3953
  285SOL    HW1 1138   0.970   0.865   2.753 -2.3472 -0.2165  0.7473
  285SOL    HW2 1139   0.847   0.799   2.806  1.3521  1.8817 -0.4360
  285SOL     MW 1140   0.903   0.866   2.808 -0.3856  0.3707 -0.2499
  286SOL     OW 1141   1.128   1.475   2.617 -0.3803 -0.7299 -0.5937
  286SOL    HW1 1142   1.208   1.464   2.665 -0.9607  0.1191  2.7361
  286SOL    HW2 1143   1.120   1.569   2.596 -1.1873 -2.7171 -0.8252
  286SOL     MW 1144   1.137   1.486   2.620 -0.5634 -0.8801 -0.1849
  287SOL     OW 1145   1.180   0.988   0.334  0.6612 -0.1566  0.1098
  287SOL    HW1 1146   1.197   1.047   0.411  1.4387  0.3390  0.8360
  287SOL    HW2 1147   1.137   1.052   0.267 -1.4688 -0.7656  2.2455
  287SOL     MW 1148   1.177   1.004   0.335  0.4827 -0.1715  0.4874
  288SOL     OW 1149   1.493   0.577   2.052  0.0468  0.4394 -0.3147
  288SOL    HW1 1150   1.454   0.601   2.134 -1.5934 -0.3306  0.4230
  288SOL    HW2 1151   1.538   0.660   2.042 -0.7706 -1.6478  1.2521
  288SOL     MW 1152   1.494   0.591   2.061 -0.2775  0.0624 -0.0107
  289SOL     OW 1153   1.084   0.976   2.559 -0.3453  0.1861 -0.3583
  289SOL    HW1 1154   1.101   0.878   2.563 -2.4385 -1.5179 -0.9290
  289SOL    HW2 1155   0.991   0.984   2.553  1.7238  1.9422 -0.6611
  289SOL     MW 1156   1.074   0.964   2.558 -0.3485  0.1930 -0.4736
  290SOL     OW 1157   0.793   0.601   1.540 -0.3412 -0.3144 -0.2791
  290SOL    HW1 1158   0.852   0.561   1.475  1.7285  1.0678 -0.6999
  290SOL    HW2 1159   0.851   0.628   1.615  0.0238  3.9060 -0.7923
  290SOL     MW 1160   0.809   0.599   1.542 -0.0200  0.4248 -0.4023
  291SOL     OW 1161   0.165   0.404   0.133 -0.3727  0.3763  0.5424
  291SOL    HW1 1162   0.247   0.357   0.154  0.7723 -0.2088 -0.7920
  291SOL    HW2 1163   0.135   0.342   0.066  2.2399 -1.2872  2.6025
  291SOL     MW 1164   0.172   0.390   0.127  0.1231  0.0796  0.6381
  292SOL     OW 1165   0.999   0.587   0.093  0.7535 -0.0493 -0.2489
  292SOL    HW1 1166   1.061   0.625   0.157  1.3342  5.9659 -1.0179
  292SOL    HW2 1167   1.007   0.493   0.107 -1.5800  2.1062  2.5439
  292SOL     MW 1168   1.009   0.580   0.103  0.5222  1.0287  0.0181
  293SOL     OW 1169   0.153   0.148   2.459 -0.6996  0.4812  0.5398
  293SOL    HW1 1170   0.102   0.096   2.395 -2.8398  1.6226 -1.8436
  293SOL    HW2 1171   0.088   0.163   2.528  0.9329  0.1681  0.3626
  293SOL     MW 1172   0.137   0.143   2.459 -0.7666  0.5905  0.2020
  294SOL     OW 1173   1.410   0.572   2.336 -0.0431 -0.8310 -0.3525
  294SOL    HW1 1174   1.467   0.635   2.386 -2.5815  1.8071  2.2197
  294SOL    HW2 1175   1.401   0.493   2.387 -2.4003 -0.3628  0.3368
  294SOL     MW 1176   1.416   0.570   2.350 -0.6890 -0.4212  0.0778
  295SOL     OW 1177   0.947   0.530   2.530  0.8250 -0.1822  0.0139
  295SOL    HW1 1178   0.920   0.496   2.443 -2.6751 -0.4708  0.7466
  295SOL    HW2 1179   0.860   0.544   2.579 -0.0373  1.6965  2.7955
  295SOL     MW 1180   0.932   0.527   2.525  0.2494  0.0276  0.4776
  296SOL     OW 1181   1.227   0.274   2.039 -0.2401 -0.1329  0.6614
  296SOL    HW1 1182   1.302   0.217   2.020 -1.6351 -1.5229  0.1305
  296SOL    HW2 1183   1.225   0.276   2.134 -0.3040  0.9882 -2.3468
  296SOL     MW 1184   1.236   0.267   2.049 -0.4326 -0.1684  0.1945
  297SOL     OW 1185   1.445   0.405   1.547 -0.1275 -0.2697  0.3587
  297SOL    HW1 1186   1.433   0.478   1.609  2.4992  3.4158  1.5409
  297SOL    HW2 1187   1.440   0.330   1.606 -1.6616 -0.5183  0.5880
  297SOL     MW 1188   1.443   0.404   1.563  0.0166  0.1837  0.5449
  298SOL     OW 1189   1.638   0.848   2.017 -0.3226  0.2019  0.4129
  298SOL    HW1 1190   1.678   0.929   1.987  0.9126  0.2483 -1.6107
  298SOL    HW2 1191   1.701   0.806   2.076  2.6477 -3.3012  0.7175
  298SOL     MW 1192   1.652   0.853   2.021  0.2323 -0.2542  0.1861
  299SOL     OW 1193   0.610   1.112   0.034  0.5954 -0.2055 -0.3990
  299SOL    HW1 1194   0.586   1.094  -0.054 -1.7051  0.1512  2.7019
  299SOL    HW2 1195   0.698   1.145   0.023  0.0083  3.1977  2.0272
  299SOL     MW 1196   0.619   1.114   0.021  0.2144  0.2906  0.3303
  300SOL     OW 1197   1.239   1.184   2.480 -0.5644 -0.5587  0.1663
  300SOL    HW1 1198   1.188   1.104   2.489 -0.8994  0.8202 -1.8724
  300SOL    HW2 1199   1.279   1.210   2.563 -0.4900  3.2247 -1.2241
  300SOL     MW 1200   1.238   1.177   2.492 -0.5988  0.1224 -0.2861
  301SOL     OW 1201   1.458   0.976   0.660 -0.4940 -0.4718  0.1346
  301SOL    HW1 1202   1.462   0.994   0.752  1.1162  1.5922 -0.4985
  301SOL    HW2 1203   1.374   0.932   0.660  1.4471  2.1309 -0.7503
  301SOL     MW 1204   1.448   0.973   0.672 -0.0254  0.1439 -0.0657
  302SOL     OW 1205   0.180   1.571   1.997  0.6518 -0.5737  0.6994
  302SOL    HW1 1206   0.192   1.512   2.073  2.8735 -2.5104 -1.5962
  302SOL    HW2 1207   0.091   1.612   2.001  0.9702 -1.1388 -1.0536
  302SOL     MW 1208   0.170   1.568   2.007  0.9869 -0.9038  0.1652
  303SOL     OW 1209   0.389   1.790   2.695 -0.4632  0.4880  0.3234
  303SOL    HW1 1210   0.362   1.792   2.601  2.4695  1.2598 -1.5211
  303SOL    HW2 1211   0.311   1.810   2.743  2.3118 -1.7966  2.8427
  303SOL     MW 1212   0.375   1.793   2.689  0.2899  0.2884  0.4124
  304SOL     OW 1213   0.499   2.049   2.344 -0.3986 -0.2328  0.0570
  304SOL    HW1 1214   0.564   2.121   2.309 -0.2980  3.1548 -1.0090
  304SOL    HW2 1215   0.544   1.970   2.369 -1.4909 -0.2013 -2.1164
  304SOL     MW 1216   0.514   2.048   2.342 -0.5295  0.2183 -0.3704
  305SOL     OW 1217   1.085   0.575   0.527 -0.2969  0.4906  0.4485
  305SOL    HW1 1218   0.995   0.545   0.528  1.6944  0.3859  2.9411
  305SOL    HW2 1219   1.138   0.497   0.546  0.1396  0.9442  0.3868
  305SOL     MW 1220   1.080   0.561   0.530  0.0234  0.5366  0.7692
  306SOL     OW 1221   1.189   1.559   0.276  0.3876  0.0949 -0.3723
  306SOL    HW1 1222   1.205   1.463   0.303 -2.0257  0.7511 -1.7418
  306SOL    HW2 1223   1.236   1.573   0.195  0.8607  1.3823 -0.7929
  306SOL     MW 1224   1.198   1.549   0.269  0.1316  0.3513 -0.6084
  307SOL     OW 1225   1.345   0.468   1.857 -0.1448 -0.4892  0.4322
  307SOL    HW1 1226   1.270   0.428   1.907 -1.7173 -2.7351 -0.3188
  307SOL    HW2 1227   1.398   0.494   1.932  1.4377 -0.9539  1.6875
  307SOL     MW 1228   1.342   0.466   1.873 -0.1435 -0.8468  0.4988
  308SOL     OW 1229   2.198   0.517   2.712  0.1299 -0.0073 -0.4357
  308SOL    HW1 1230   2.294   0.493   2.711  1.4894  0.2976 -0.3374
  308SOL    HW2 1231   2.209   0.615   2.718  0.6203  0.4565 -0.3293
  308SOL     MW 1232   2.212   0.527   2.712  0.3740  0.0942 -0.4087
  309SOL     OW 1233   0.468   0.512   0.240 -0.0406  0.5430 -0.3864
  309SOL    HW1 1234   0.558   0.510   0.277 -0.9078 -0.1993  2.7092
  309SOL    HW2 1235   0.440   0.418   0.232  0.2876  0.4161 -2.4154
  309SOL     MW 1236   0.476   0.499   0.244 -0.1117  0.4283 -0.2457
  310SOL     OW 1237   0.428   0.579   1.906  0.2200 -0.1456 -0.6836
  310SOL    HW1 1238   0.470   0.514   1.851 -0.2499  1.6238  2.9030
  310SOL    HW2 1239   0.467   0.665   1.884  3.3772  0.5411 -0.9050
  310SOL     MW 1240   0.439   0.581   1.896  0.5746  0.1785 -0.2396
  311SOL     OW 1241   1.891   0.627   1.925 -0.2471  0.4515  0.5693
  311SOL    HW1 1242   1.857   0.651   2.011 -0.1272  3.1653 -2.9068
  311SOL    HW2 1243   1.965   0.564   1.940  0.1724 -0.1659 -0.3159
  311SOL     MW 1244   1.896   0.622   1.939 -0.1759  0.7281 -0.0061
  312SOL     OW 1245   1.825   2.475   0.197  0.0325  0.1241  0.7445
  312SOL    HW1 1246   1.901   2.509   0.244 -0.9055 -1.1233  2.1166
  312SOL    HW2 1247   1.751   2.524   0.234  2.8329  0.0055  2.5419
  312SOL     MW 1248   1.825   2.486   0.208  0.2782 -0.0562  1.1627
  313SOL     OW 1249   0.129   1.123   2.965 -0.3981 -0.7822  0.3295
  313SOL    HW1 1250   0.088   1.118   3.059  1.0242 -0.7094  1.1286
  313SOL    HW2 1251   0.188   1.198   2.959  2.9330 -2.0979  0.7896
  313SOL     MW 1252   0.131   1.133   2.977  0.2291 -0.9462  0.4956
  314SOL     OW 1253   2.168   3.009   2.948 -0.4753 -0.0034  0.1705
  314SOL    HW1 1254   2.087   3.061   2.936 -0.3625 -2.4501  3.4596
  314SOL    HW2 1255   2.198   3.051   3.033 -0.4926  1.5279 -0.4170
  314SOL     MW 1256   2.161   3.021   2.958 -0.4627 -0.1242  0.5269
  315SOL     OW 1257   1.523   1.839   3.005  0.1104 -0.3562  0.0502
  315SOL    HW1 1258   1.516   1.899   3.081  1.7460  1.0586  2.4731
  315SOL    HW2 1259   1.556   1.903   2.936 -1.1249 -0.0277  1.5923
  315SOL     MW 1260   1.526   1.855   3.006  0.1632 -0.1262  0.5733
  316SOL     OW 1261   1.301   0.532   2.722 -0.8042  0.5444 -0.0628
  316SOL    HW1 1262   1.387   0.544   2.754  1.0716  2.2456 -0.4787
  316SOL    HW2 1263   1.254   0.562   2.803 -0.3078 -2.2330 -0.0067
  316SOL     MW 1264   1.306   0.537   2.737 -0.4912  0.4024 -0.1103
  317SOL     OW 1265   0.669   1.505   2.641  0.5857  0.4225 -0.0446
  317SOL    HW1 1266   0.727   1.424   2.665  1.3674 -0.9422  0.3677
  317SOL    HW2 1267   0.686   1.537   2.550 -1.4430  1.4938  1.2081
  317SOL     MW 1268   0.679   1.498   2.632  0.4211  0.3838  0.1751
  318SOL     OW 1269   1.362   0.333   2.969 -0.0738 -0.3574 -0.1927
  318SOL    HW1 1270   1.266   0.361   2.955 -0.6964 -3.2605  0.5122
  318SOL    HW2 1271   1.420   0.406   2.942  2.5514 -0.0688 -0.3937
  318SOL     MW 1272   1.357   0.346   2.963  0.1904 -0.7024 -0.1262
  319SOL     OW 1273   0.862   0.399   2.909  0.0596 -0.9101  0.3225
  319SOL    HW1 1274   0.808   0.331   2.862 -2.7898  2.3073  2.5336
  319SOL    HW2 1275   0.811   0.414   2.987  1.4089  0.1837  1.6314
  319SOL     MW 1276   0.848   0.392   2.913 -0.1383 -0.3412  0.7869
  320SOL     OW 1277   1.074   1.353   1.984 -0.4372 -0.0171 -0.1385
  320SOL    HW1 1278   1.127   1.295   2.047 -0.5167  0.6173  1.5255
  320SOL    HW2 1279   1.135   1.403   1.929  0.6337  1.3317  0.2607
  320SOL     MW 1280   1.089   1.352   1.985 -0.3064  0.2446  0.1337
  321SOL     OW 1281   1.129   0.927   3.026  0.2247 -0.6612 -0.1135
  321SOL    HW1 1282   1.037   0.915   2.996 -0.3038  0.8937  2.0874
  321SOL    HW2 1283   1.191   0.874   2.973  1.2944 -1.8017 -1.0805
  321SOL     MW 1284   1.125   0.918   3.015  0.2961 -0.6065  0.0493
  322SOL     OW 1285   1.170   0.870   1.676 -0.0461 -0.1190 -0.0255
  322SOL    HW1 1286   1.246   0.801   1.663  1.3628 -0.6571 -0.2017
  322SOL    HW2 1287   1.163   0.901   1.771 -2.4327  0.7964 -0.0669
  322SOL     MW 1288   1.179   0.865   1.687 -0.1751 -0.0692 -0.0543
  323SOL     OW 1289   1.239   1.544   1.885 -0.1474  0.8822  0.0921
  323SOL    HW1 1290   1.296   1.542   1.804  0.9107 -1.0954 -0.0564
  323SOL    HW2 1291   1.185   1.628   1.870 -2.0451 -2.6378 -0.8806
  323SOL     MW 1292   1.239   1.555   1.872 -0.2582  0.1568 -0.0558
  324SOL     OW 1293   1.491   1.015   2.418  0.2049  0.7873 -0.2366
  324SOL    HW1 1294   1.408   1.054   2.439 -2.9395  0.9329 -0.0372
  324SOL    HW2 1295   1.560   1.072   2.449  2.0794 -1.2016 -0.1182
  324SOL     MW 1296   1.489   1.027   2.425  0.0374  0.5441 -0.1947
  325SOL     OW 1297   1.112   0.513   2.927 -0.1379  0.1190  0.5159
  325SOL    HW1 1298   1.115   0.559   3.009  1.5866  0.2008 -1.9615
  325SOL    HW2 1299   1.022   0.493   2.918 -0.5478 -0.9822  0.7118
  325SOL     MW 1300   1.100   0.516   2.937  0.0355 -0.0155  0.2148
  326SOL     OW 1301   0.419   1.373   2.321 -0.6048  0.3629 -0.7158
  326SOL    HW1 1302   0.488   1.359   2.252 -0.6168 -0.1743 -3.1634
  326SOL    HW2 1303   0.417   1.468   2.325  2.6608 -3.4681 -1.5368
  326SOL     MW 1304   0.428   1.384   2.313 -0.1755 -0.2135 -1.1471
  327SOL     OW 1305   1.922   0.774   2.437  0.1733  0.4301 -0.1616
  327SOL    HW1 1306   1.867   0.741   2.512  1.9238 -0.0797 -0.0057
  327SOL    HW2 1307   1.945   0.861   2.475  1.0285 -1.8747  0.0603
  327SOL     MW 1308   1.918   0.781   2.452  0.5171  0.0587 -0.1118
  328SOL     OW 1309   0.189   1.330   2.154  0.3719 -0.3378  0.0864
  328SOL    HW1 1310   0.133   1.253   2.137  1.6972 -1.2377  0.4506
  328SOL    HW2 1311   0.227   1.322   2.239 -0.1789 -0.4915  0.6741
  328SOL     MW 1312   0.187   1.319   2.163  0.4741 -0.4768  0.2120
  329SOL     OW 1313   0.047   0.212   1.408 -1.1656 -0.1804 -0.0891
  329SOL    HW1 1314   0.030   0.183   1.506 -0.2704 -1.5767  0.9070
  329SOL    HW2 1315   0.139   0.222   1.392 -1.1587 -3.6398  2.3783
  329SOL     MW 1316   0.057   0.209   1.419 -1.0465 -0.8211  0.3679
  330SOL     OW 1317   0.377   3.046   2.050  0.0572 -0.4028 -0.5565
  330SOL    HW1 1318   0.436   3.068   2.120 -0.9536  0.2154 -1.0891
  330SOL    HW2 1319   0.310   2.995   2.103  2.3655 -0.4622  1.9607
  330SOL     MW 1320   0.376   3.042   2.066  0.2284 -0.3290 -0.2946
  331SOL     OW 1321   0.826   1.246   2.413  0.1414 -0.4688  0.2690
  331SOL    HW1 1322   0.769   1.306   2.367  0.0034 -1.2278  2.0488
  331SOL    HW2 1323   0.855   1.291   2.496 -1.1692 -0.6941  2.9344
  331SOL     MW 1324   0.823   1.260   2.418 -0.0497 -0.5987  0.8555
  332SOL     OW 1325   1.354   1.665   2.907  0.3115 -0.5782 -0.1285
  332SOL    HW1 1326   1.335   1.691   2.816 -0.1162 -1.6199  0.5478
  332SOL    HW2 1327   1.421   1.729   2.940 -1.0499 -0.8912 -0.9271
  332SOL     MW 1328   1.360   1.677   2.899  0.0754 -0.7570 -0.1447
  333SOL     OW 1329   1.737   1.377   2.933  0.0060  0.4780 -0.2208
  333SOL    HW1 1330   1.818   1.398   2.986  2.5101  0.1105  2.2902
  333SOL    HW2 1331   1.726   1.282   2.946  0.8867 -2.5586 -1.4172
  333SOL     MW 1332   1.746   1.367   2.942  0.4526  0.0288 -0.0473
  334SOL     OW 1333   1.263   3.094   2.554  0.1836 -1.0196 -0.0153
  334SOL    HW1 1334   1.208   3.073   2.628 -2.3512  1.0668 -0.2105
  334SOL    HW2 1335   1.330   3.156   2.589 -0.7457 -1.0916 -3.0934
  334SOL     MW 1336   1.265   3.099   2.569 -0.2734 -0.7538 -0.4472
  335SOL     OW 1337   1.320   0.738   2.952 -0.0424  0.3796 -0.0864
  335SOL    HW1 1338   1.349   0.739   3.044 -2.5620 -0.3495  0.4844
  335SOL    HW2 1339   1.382   0.796   2.894 -1.9818 -0.9385 -0.7864
  335SOL     MW 1340   1.332   0.746   2.956 -0.6307  0.1095 -0.1035
  336SOL     OW 1341   0.941   1.174   1.839  0.4418  0.1775  0.3161
  336SOL    HW1 1342   0.988   1.252   1.887  2.7887 -2.0563 -1.4654
  336SOL    HW2 1343   0.997   1.098   1.862  1.9845  1.0228 -0.6966
  336SOL     MW 1344   0.955   1.175   1.848  0.9550 -0.0057 -0.0526
  337SOL     OW 1345   0.664   1.824   2.765 -0.4428  0.1252 -0.3040
  337SOL    HW1 1346   0.609   1.803   2.692  0.1372  2.3655 -1.5643
  337SOL    HW2 1347   0.745   1.775   2.750 -0.5868 -2.2845 -1.2231
  337SOL     MW 1348   0.668   1.815   2.754 -0.3853  0.1028 -0.5915
  338SOL     OW 1349   1.141   0.719   2.580  0.4191  0.2275 -0.2383
  338SOL    HW1 1350   1.073   0.648   2.580 -0.8582  1.2972 -2.3315
  338SOL    HW2 1351   1.219   0.684   2.620 -1.7843 -0.5207 -2.1834
  338SOL     MW 1352   1.143   0.705   2.585 -0.0401  0.2699 -0.7711
  339SOL     OW 1353   1.503   1.062   1.834  0.1194 -0.1329 -0.4585
  339SOL    HW1 1354   1.429   1.074   1.774  0.0494  0.7073 -0.7278
  339SOL    HW2 1355   1.471   1.016   1.912  2.6772  1.7022  1.8288
  339SOL     MW 1356   1.489   1.057   1.836  0.4477  0.2201 -0.1922
  340SOL     OW 1357   1.331   1.520   0.032  0.1045  0.2561  0.0404
  340SOL    HW1 1358   1.340   1.573  -0.044  0.5789 -2.2478 -1.9549
  340SOL    HW2 1359   1.424   1.498   0.048 -2.3234 -0.8419 -2.0786
  340SOL     MW 1360   1.345   1.524   0.024 -0.1532 -0.2191 -0.5025
  341SOL     OW 1361   0.075   1.350   2.742  1.0783  0.5239 -0.1196
  341SOL    HW1 1362   0.142   1.281   2.761  1.8940  0.1655  2.4885
  341SOL    HW2 1363   0.032   1.328   2.654 -0.1470  0.4263 -0.7243
  341SOL     MW 1364   0.078   1.338   2.733  1.0242  0.4637  0.1447
  342SOL     OW 1365   1.336   0.354   0.141  0.5381  0.0254  0.2853
  342SOL    HW1 1366   1.389   0.417   0.182  1.8406  1.7588 -0.0498
  342SOL    HW2 1367   1.358   0.366   0.048  2.4356  1.6301 -0.6960
  342SOL     MW 1368   1.346   0.363   0.135  0.9603  0.4658  0.1117
  343SOL     OW 1369   0.272   0.303   2.164  0.3608  0.1568  0.8109
  343SOL    HW1 1370   0.340   0.236   2.186 -2.3278 -0.3358  2.6432
  343SOL    HW2 1371   0.212   0.267   2.098  1.7588 -3.9375  0.8141
  343SOL     MW 1372   0.273   0.289   2.158  0.1905 -0.4484  1.0531
  344SOL     OW 1373   1.669   2.063   0.179 -0.6855 -0.0902  0.4796
  344SOL    HW1 1374   1.698   2.147   0.145 -2.2986 -0.3058  0.6918
  344SOL    HW2 1375   1.569   2.056   0.159 -0.9687  0.0221 -5.4852
  344SOL     MW 1376   1.659   2.073   0.172 -0.9357 -0.1038 -0.2794
  345SOL     OW 1377   0.713   1.566   2.376 -0.1022 -0.3666  0.5575
  345SOL    HW1 1378   0.634   1.535   2.324 -1.4703 -1.3123  3.7279
  345SOL    HW2 1379   0.783   1.544   2.310  0.7597 -0.7375  0.1180
  345SOL     MW 1380   0.712   1.559   2.360 -0.1690 -0.5403  0.9178
  346SOL     OW 1381   1.752   1.155   0.046 -0.1427  0.2506  0.0957
  346SOL    HW1 1382   1.842   1.115   0.044  1.1370  0.0715 -0.6170
  346SOL    HW2 1383   1.687   1.090   0.083 -0.0499 -1.9897 -2.0670
  346SOL     MW 1384   1.755   1.141   0.050  0.0384 -0.0686 -0.2837
  347SOL     OW 1385   1.157   0.664   2.313 -0.4387  0.9686  0.0561
  347SOL    HW1 1386   1.242   0.627   2.327 -2.0886 -0.7298  0.9820
  347SOL    HW2 1387   1.130   0.703   2.389  0.1477 -1.1969 -0.8411
  347SOL     MW 1388   1.165   0.664   2.325 -0.5790  0.4588  0.0599
  348SOL     OW 1389   1.294   2.622   1.877 -0.1376 -0.3104  0.0273
  348SOL    HW1 1390   1.326   2.548   1.935  1.3512  0.5232  0.7888
  348SOL    HW2 1391   1.326   2.699   1.932  2.6978  0.9069  0.2922
  348SOL     MW 1392   1.303   2.622   1.892  0.4330 -0.0398  0.1627
  349SOL     OW 1393   1.432   0.217   2.694 -0.5058  0.0372 -0.0703
  349SOL    HW1 1394   1.394   0.267   2.764 -0.8220  1.1015 -0.3957
  349SOL    HW2 1395   1.484   0.149   2.736 -0.0605 -2.7043  0.8143
  349SOL     MW 1396   1.434   0.214   2.709 -0.4888 -0.1841  0.0035
  350SOL     OW 1397   1.826   0.636   2.661 -0.1242 -0.7052  0.5392
  350SOL    HW1 1398   1.768   0.571   2.616 -2.1822 -0.2176  0.0430
  350SOL    HW2 1399   1.895   0.588   2.713 -1.3654  2.7984 -2.4797
  350SOL     MW 1400   1.827   0.621   2.662 -0.5595 -0.1786  0.0754
  351SOL     OW 1401   0.080   1.150   1.610 -0.4247  0.0503  0.0997
  351SOL    HW1 1402   0.010   1.120   1.668 -0.2188  2.2043 -2.0976
  351SOL    HW2 1403   0.142   1.223   1.642  1.3216  1.8745 -0.3088
  351SOL     MW 1404   0.079   1.156   1.622 -0.1671  0.5752 -0.2441
  352SOL     OW 1405   0.874   1.653   2.740 -0.1798  0.7405  0.1730
  352SOL    HW1 1406   0.903   1.623   2.827 -0.6852 -2.2307  4.0466
  352SOL    HW2 1407   0.797   1.599   2.717  0.5167  1.8727 -1.1299
  352SOL     MW 1408   0.868   1.642   2.748 -0.1546  0.4979  0.5122
  353SOL     OW 1409   0.029   2.509   2.741  0.1847  0.2264  0.1713
  353SOL    HW1 1410   0.111   2.476   2.712  2.0148  1.4718 -0.2754
  353SOL    HW2 1411   0.030   2.604   2.724 -1.0758 -1.1527  0.3831
  353SOL     MW 1412   0.040   2.517   2.735  0.2598  0.2087  0.1403
  354SOL     OW 1413   0.288   2.470   0.797  0.1668 -0.5757  0.0695
  354SOL    HW1 1414   0.324   2.453   0.882  1.7957  1.2073  0.5670
  354SOL    HW2 1415   0.202   2.430   0.807  1.9466  2.6093 -1.7047
  354SOL     MW 1416   0.282   2.463   0.809  0.6166  0.0798 -0.0989
  355SOL     OW 1417   3.087   2.232   0.366  0.1807  0.1675 -0.1836
  355SOL    HW1 1418   2.994   2.208   0.367 -0.7584  2.3168  2.6006
  355SOL    HW2 1419   3.091   2.272   0.449 -1.9329  0.4734 -0.5693
  355SOL     MW 1420   3.075   2.234   0.377 -0.2221  0.4915  0.1328
  356SOL     OW 1421   0.844   2.795   0.980 -0.1167 -0.1524 -0.5578
  356SOL    HW1 1422   0.897   2.829   0.908  0.9577 -0.6014  1.6632
  356SOL    HW2 1423   0.753   2.828   0.963 -2.1001  2.8421 -0.1283
  356SOL     MW 1424   0.839   2.804   0.968 -0.2367  0.1835 -0.2081
  357SOL     OW 1425   1.786   2.878   0.390  0.1143 -0.6347  0.1649
  357SOL    HW1 1426   1.749   2.846   0.471  0.7157  2.4440  2.3102
  357SOL    HW2 1427   1.881   2.879   0.392 -0.2287 -0.1795  1.0318
  357SOL     MW 1428   1.793   2.874   0.401  0.1484 -0.1685  0.5623
  358SOL     OW 1429   0.465   0.141   1.025 -0.0441 -0.1255 -0.3437
  358SOL    HW1 1430   0.556   0.143   1.000 -1.4336 -0.4743  2.5091
  358SOL    HW2 1431   0.411   0.163   0.951 -0.2007  1.7840  1.8421
  358SOL     MW 1432   0.470   0.144   1.012 -0.2481  0.0804  0.3211
  359SOL     OW 1433   0.824   2.861   1.870 -0.4617  0.3941  0.4288
  359SOL    HW1 1434   0.814   2.768   1.886 -0.3995  0.5298  1.1166
  359SOL    HW2 1435   0.858   2.860   1.780  0.5713 -4.0827  0.4207
  359SOL     MW 1436   0.827   2.848   1.860 -0.3172 -0.1787  0.5185
  360SOL     OW 1437   0.573   2.804   0.903 -0.3332 -0.0168 -0.2805
  360SOL    HW1 1438   0.586   2.768   0.812  1.0742  0.6314 -0.5189
  360SOL    HW2 1439   0.557   2.717   0.948  0.7977  0.6828 -2.1138
  360SOL     MW 1440   0.573   2.787   0.897  0.0017  0.1610 -0.5539
  361SOL     OW 1441   0.211   2.624   1.336 -0.1158 -0.1992 -0.0700
  361SOL    HW1 1442   0.192   2.682   1.411 -1.5093  0.8674  0.1561
  361SOL    HW2 1443   0.305   2.635   1.307 -1.8554 -1.2744 -0.5317
  361SOL     MW 1444   0.221   2.633   1.342 -0.5292 -0.2003 -0.1011
  362SOL     OW 1445   1.446   2.406   0.665  0.0723 -0.5698  0.4780
  362SOL    HW1 1446   1.469   2.356   0.749 -2.3281 -0.1884 -0.3356
  362SOL    HW2 1447   1.501   2.491   0.670 -1.2130 -0.4280  1.0653
  362SOL     MW 1448   1.456   2.411   0.677 -0.4140 -0.5008  0.4482
  363SOL     OW 1449   0.313   3.098   0.635 -0.1181 -0.3269 -0.5179
  363SOL    HW1 1450   0.301   3.037   0.703 -0.2841  2.9695 -1.6130
  363SOL    HW2 1451   0.227   3.106   0.588  0.6939  0.0459 -2.4658
  363SOL     MW 1452   0.300   3.091   0.638 -0.0328  0.1572 -0.9194
  364SOL     OW 1453   0.737   0.218   0.231 -0.6018  0.0670 -0.1623
  364SOL    HW1 1454   0.662   0.158   0.258 -2.6758  0.9625 -1.8007
  364SOL    HW2 1455   0.714   0.264   0.148 -1.6020 -0.9272 -0.8049
  364SOL     MW 1456   0.724   0.216   0.223 -1.0074  0.0540 -0.4633
  365SOL     OW 1457   0.978   1.982   1.182 -0.2462 -0.7139 -0.5236
  365SOL    HW1 1458   0.968   2.073   1.150  0.1678  2.8208  0.6918
  365SOL    HW2 1459   0.922   1.928   1.120  2.2137 -0.4935 -1.2663
  365SOL     MW 1460   0.969   1.987   1.169  0.1329 -0.2184 -0.4612
  366SOL     OW 1461   2.913   2.657   0.984  1.1823 -0.0945 -0.3302
  366SOL    HW1 1462   2.994   2.673   1.029 -1.7517  1.1185 -0.1431
  366SOL    HW2 1463   2.938   2.666   0.891 -1.1147  1.5170  0.3036
  366SOL     MW 1464   2.927   2.660   0.978  0.4922  0.2782 -0.2219
  367SOL     OW 1465   1.248   2.931   0.860  0.2593 -0.3377 -0.4772
  367SOL    HW1 1466   1.279   3.009   0.809 -0.1570  1.3965 -0.4649
  367SOL    HW2 1467   1.231   2.861   0.795 -3.1869 -1.8839 -1.2075
  367SOL     MW 1468   1.250   2.932   0.845 -0.2503 -0.3129 -0.5719
  368SOL     OW 1469   1.657   0.358   0.742  0.4908  0.1273 -0.2363
  368SOL    HW1 1470   1.739   0.347   0.692 -0.5249 -1.4012  0.3290
  368SOL    HW2 1471   1.640   0.451   0.742 -1.6197 -0.8443  1.9403
  368SOL     MW 1472   1.666   0.369   0.736  0.0783 -0.2025  0.1255
  369SOL     OW 1473   0.132   2.417   1.793 -0.0513  0.3200 -0.4751
  369SOL    HW1 1474   0.232   2.410   1.805  1.7888 -0.0154  0.4052
  369SOL    HW2 1475   0.104   2.514   1.801 -0.0485 -0.4194  2.2269
  369SOL     MW 1476   0.141   2.429   1.795  0.1919  0.1782 -0.0025
  370SOL     OW 1477   0.750   0.159   0.926  0.3467  0.1442 -0.7850
  370SOL    HW1 1478   0.775   0.238   0.968 -1.5504 -0.3034  1.3730
  370SOL    HW2 1479   0.799   0.093   0.976  0.1896  4.0158 -1.8346
  370SOL     MW 1480   0.760   0.161   0.938  0.0757  0.5960 -0.6387
  371SOL     OW 1481   1.326   2.864   1.523 -0.6322 -0.5082 -0.4249
  371SOL    HW1 1482   1.260   2.792   1.522 -0.2809  1.1523  2.2734
  371SOL    HW2 1483   1.318   2.905   1.440 -1.8420  2.0563  0.7126
  371SOL     MW 1484   1.316   2.860   1.512 -0.7455  0.0492  0.0812
  372SOL     OW 1485   0.800   2.275   0.483 -0.3494  0.1471 -0.5809
  372SOL    HW1 1486   0.778   2.181   0.474  1.4458 -0.1618  2.5188
  372SOL    HW2 1487   0.816   2.326   0.398  1.7945  1.7710 -1.4235
  372SOL     MW 1488   0.799   2.270   0.470  0.1704  0.3206 -0.2831
  373SOL     OW 1489   2.819   3.015   1.455  0.1812  0.6521 -0.3506
  373SOL    HW1 1490   2.914   3.005   1.428  1.8816  0.2532  1.4288
  373SOL    HW2 1491   2.796   3.104   1.414  0.3931  0.9690  3.5430
  373SOL     MW 1492   2.829   3.025   1.446  0.4335  0.6413  0.3979
  374SOL     OW 1493   1.497   0.534   0.290 -0.2632  0.4062  0.5945
  374SOL    HW1 1494   1.577   0.480   0.296  0.1346  0.2915  1.0540
  374SOL    HW2 1495   1.476   0.536   0.384  0.9134  0.3290 -0.4475
  374SOL     MW 1496   1.505   0.527   0.303 -0.0554  0.3809  0.5176
  375SOL     OW 1497   0.979   2.094   2.239  0.1580  0.1763  0.2183
  375SOL    HW1 1498   1.010   2.046   2.317 -0.0488 -0.3058  0.6892
  375SOL    HW2 1499   0.983   2.016   2.179  1.6691 -0.6066 -1.5854
  375SOL     MW 1500   0.983   2.078   2.242  0.3301  0.0094  0.0425
  376SOL     OW 1501   0.772   2.552   0.049 -0.7566 -0.5162 -0.1507
  376SOL    HW1 1502   0.774   2.481   0.117  0.3309  1.2700  0.0724
  376SOL    HW2 1503   0.738   2.526  -0.033 -0.8488  0.1884 -2.2590
  376SOL     MW 1504   0.768   2.539   0.047 -0.6253 -0.1875 -0.3995
  377SOL     OW 1505   1.259   2.020   0.840 -0.1138  0.4829  0.0180
  377SOL    HW1 1506   1.172   2.013   0.792  2.1052  0.4625  0.5684
  377SOL    HW2 1507   1.247   1.980   0.929 -1.9571  1.0695  1.5600
  377SOL     MW 1508   1.246   2.013   0.846 -0.0642  0.5576  0.2941
  378SOL     OW 1509   0.899   2.844   1.584  0.4982 -0.0571  0.3585
  378SOL    HW1 1510   0.896   2.748   1.577  1.0698 -0.7625  0.2534
  378SOL    HW2 1511   0.913   2.880   1.494 -2.1353  0.3357 -2.3692
  378SOL     MW 1512   0.900   2.836   1.571  0.2261 -0.0983 -0.0152
  379SOL     OW 1513   1.107   1.694   2.230 -0.0322  0.0680 -0.4945
  379SOL    HW1 1514   1.031   1.643   2.200  0.6878 -1.0089 -2.8790
  379SOL    HW2 1515   1.186   1.665   2.182 -1.2998  0.2755 -0.0486
  379SOL     MW 1516   1.107   1.683   2.220 -0.1044 -0.0467 -0.7503
  380SOL     OW 1517   0.871   0.115   1.506  0.3312  0.2488 -0.3704
  380SOL    HW1 1518   0.881   0.029   1.453 -1.2888 -1.0345 -0.7847
  380SOL    HW2 1519   0.948   0.121   1.568  2.9108  0.5573  1.1634
  380SOL     MW 1520   0.883   0.104   1.507  0.4578  0.1202 -0.2227
  381SOL     OW 1521   0.751   2.040   0.837 -0.5039  0.5051  0.4605
  381SOL    HW1 1522   0.841   2.041   0.801  1.1984 -1.6065  0.9884
  381SOL    HW2 1523   0.758   2.097   0.914 -0.2416  1.2584 -4.1268
  381SOL     MW 1524   0.763   2.048   0.842 -0.2447  0.3259 -0.0751
  382SOL     OW 1525   0.711   0.099   0.642 -0.2757  0.3830  0.0511
  382SOL    HW1 1526   0.693   0.097   0.736  0.5867  0.8641 -0.5397
  382SOL    HW2 1527   0.695   0.002   0.618 -0.1255  2.5557  0.0414
  382SOL     MW 1528   0.706   0.086   0.651 -0.1421  0.7332 -0.0281
  383SOL     OW 1529   0.556   0.032   0.284  0.6029  0.1227 -0.0857
  383SOL    HW1 1530   0.594  -0.032   0.220  0.3885 -1.1867 -0.8427
  383SOL    HW2 1531   0.518  -0.026   0.358 -0.8863  0.6534  0.5121
  383SOL     MW 1532   0.556   0.016   0.286  0.3781  0.0200 -0.1067
  384SOL     OW 1533   0.717   2.934   0.578  0.2559  0.4245 -0.3018
  384SOL    HW1 1534   0.802   2.908   0.623  0.9219 -0.6767  1.1208
  384SOL    HW2 1535   0.660   2.853   0.599 -1.9257 -0.7632 -0.8022
  384SOL     MW 1536   0.721   2.920   0.587  0.0559  0.1225 -0.1801
  385SOL     OW 1537   1.407   2.071   1.505 -0.0758 -0.2579  0.4520
  385SOL    HW1 1538   1.491   2.110   1.533  2.1123 -1.2013 -0.3069
  385SOL    HW2 1539   1.367   2.024   1.584 -1.7782 -1.1725  1.1015
  385SOL     MW 1540   1.413   2.070   1.519 -0.0117 -0.5031  0.4376
  386SOL     OW 1541   1.242   0.389   0.867  0.2475  0.2546 -0.4446
  386SOL    HW1 1542   1.186   0.450   0.922 -1.9057 -2.8095 -0.6459
  386SOL    HW2 1543   1.247   0.303   0.914 -0.2039  0.7350 -0.7934
  386SOL     MW 1544   1.235   0.386   0.881 -0.0962 -0.0863 -0.5172
  387SOL     OW 1545   0.820   2.223   1.543 -0.0934  0.1665 -0.1160
  387SOL    HW1 1546   0.893   2.285   1.511 -0.7159 -1.2763  0.1755
  387SOL    HW2 1547   0.830   2.149   1.482 -1.9393  1.7386 -2.7530
  387SOL     MW 1548   0.831   2.221   1.531 -0.4191  0.1835 -0.4254
  388SOL     OW 1549   1.491   2.803   1.255 -0.4801  0.2065  0.8930
  388SOL    HW1 1550   1.404   2.817   1.226  3.6774  0.4527 -4.5223
  388SOL    HW2 1551   1.506   2.715   1.218 -0.8549  1.2159 -0.2980
  388SOL     MW 1552   1.482   2.794   1.247  0.0190  0.3722  0.0213
  389SOL     OW 1553   0.453   0.149   3.030  0.5524  0.4906 -0.3814
  389SOL    HW1 1554   0.539   0.110   3.038 -0.5989 -0.2238  2.1521
  389SOL    HW2 1555   0.453   0.198   2.955 -2.2278  1.6804  1.4820
  389SOL     MW 1556   0.464   0.150   3.021  0.0337  0.5533  0.1987
  390SOL     OW 1557   1.345   0.048   0.741 -0.0040 -0.3615  0.3781
  390SOL    HW1 1558   1.381   0.060   0.657  1.2422  0.2496  2.8831
  390SOL    HW2 1559   1.402   0.090   0.809  0.5256  0.0857 -1.7860
  390SOL     MW 1560   1.357   0.055   0.739  0.2303 -0.2219  0.4231
  391SOL     OW 1561   0.368   2.207   1.441  0.2024 -0.3460  0.4047
  391SOL    HW1 1562   0.329   2.120   1.438  1.3086  0.9830  0.2283
  391SOL    HW2 1563   0.300   2.268   1.477 -2.3618  0.2392 -0.0390
  391SOL     MW 1564   0.354   2.203   1.446  0.0100 -0.0935  0.3229
  392SOL     OW 1565   2.048   2.215   0.334  0.4618  0.2860 -1.3898
  392SOL    HW1 1566   2.110   2.206   0.404  0.3133 -1.5176 -1.4986
  392SOL    HW2 1567   1.982   2.278   0.369 -2.2451 -0.2624  1.6580
  392SOL     MW 1568   2.047   2.222   0.348  0.0850 -0.0244 -1.0020
  393SOL     OW 1569   0.288   2.918   2.774  0.0053 -0.1073 -0.3877
  393SOL    HW1 1570   0.374   2.900   2.737 -1.4014  3.0058  2.4188
  393SOL    HW2 1571   0.281   3.015   2.779  0.5770 -0.7579  1.5152
  393SOL     MW 1572   0.299   2.929   2.770 -0.1048  0.2176  0.2337
  394SOL     OW 1573   0.898   1.746   1.527  0.4268 -0.2614 -0.4349
  394SOL    HW1 1574   0.840   1.775   1.606  1.3334 -1.0734  2.2015
  394SOL    HW2 1575   0.924   1.832   1.488  0.3723  0.2304  1.3291
  394SOL     MW 1576   0.894   1.761   1.533  0.5392 -0.3037  0.1457
  395SOL     OW 1577   0.953   2.926   2.601 -0.0181  0.5274 -0.7764
  395SOL    HW1 1578   1.008   2.966   2.665 -1.4734  0.2077 -0.4206
  395SOL    HW2 1579   1.000   2.847   2.579  0.9937  1.3455 -2.2787
  395SOL     MW 1580   0.966   2.921   2.607 -0.0766  0.5932 -0.9276
  396SOL     OW 1581   0.685   1.857   2.388 -0.2723 -0.1331  0.4526
  396SOL    HW1 1582   0.756   1.877   2.457  0.0137  3.0226 -0.3127
  396SOL    HW2 1583   0.678   1.766   2.383  1.6749  1.5797  1.9556
  396SOL     MW 1584   0.694   1.848   2.397  0.0223  0.5092  0.5499
  397SOL     OW 1585   1.044   2.372   1.417  0.0010 -0.1213  0.3026
  397SOL    HW1 1586   1.053   2.392   1.322 -1.4192  0.7812 -1.6690
  397SOL    HW2 1587   1.125   2.338   1.447  0.4199  1.1763  0.9955
  397SOL     MW 1588   1.056   2.370   1.408 -0.1311  0.1690  0.1339
  398SOL     OW 1589   0.599   2.708   0.658  0.3189 -0.1171 -0.1407
  398SOL    HW1 1590   0.520   2.668   0.628  3.2795 -0.0762  1.2540
  398SOL    HW2 1591   0.666   2.643   0.652 -1.7724 -0.2533 -1.8744
  398SOL     MW 1592   0.598   2.694   0.653  0.4336 -0.1296 -0.1854
  399SOL     OW 1593   0.224   2.102   0.285 -0.4154  0.5545 -0.0150
  399SOL    HW1 1594   0.134   2.121   0.313  0.6357  0.4639  0.5761
  399SOL    HW2 1595   0.239   2.131   0.200  1.0235 -0.4249  0.6945
  399SOL     MW 1596   0.214   2.108   0.277 -0.0869  0.4133  0.1566
  400SOL     OW 1597   0.551   1.947   0.065  0.1971  0.2925 -0.0787
  400SOL    HW1 1598   0.480   2.008   0.050  0.2240  2.3016 -0.8706
  400SOL    HW2 1599   0.514   1.890   0.130 -0.2723  1.5516  1.7810
  400SOL     MW 1600   0.537   1.947   0.071  0.1387  0.7237  0.0622
  401SOL     OW 1601   0.797   2.057   0.077  0.0191  0.3903  0.2519
  401SOL    HW1 1602   0.856   1.980   0.086  1.3455  3.3215  0.1758
  401SOL    HW2 1603   0.709   2.016   0.081 -1.2738  0.9452 -0.4304
  401SOL     MW 1604   0.793   2.042   0.078  0.0235  0.8503  0.1519
  402SOL     OW 1605   0.571   2.971   1.753 -0.6671  0.3778 -0.0426
  402SOL    HW1 1606   0.630   2.936   1.820  2.4150  1.5696  2.4072
  402SOL    HW2 1607   0.613   3.052   1.725 -1.2994 -1.4055 -1.3672
  402SOL     MW 1608   0.584   2.977   1.758 -0.3439  0.2998  0.1058
  403SOL     OW 1609   0.083   0.422   0.395  0.6669 -0.1763 -0.2433
  403SOL    HW1 1610   0.165   0.463   0.421 -0.1625 -2.0207  0.4357
  403SOL    HW2 1611   0.094   0.390   0.302  2.7797  0.0558 -1.4094
  403SOL     MW 1612   0.095   0.423   0.386  0.8362 -0.3890 -0.3076
  404SOL     OW 1613   0.950   2.922   0.720 -0.1693  0.6310  0.1789
  404SOL    HW1 1614   1.027   2.859   0.729  0.5389 -0.6064 -2.7862
  404SOL    HW2 1615   0.979   3.013   0.746 -0.0834  1.3197 -0.3242
  404SOL     MW 1616   0.964   2.926   0.725 -0.0645  0.5586 -0.2787
  405SOL     OW 1617   0.552   2.405   1.528 -0.4739  0.0124 -0.1944
  405SOL    HW1 1618   0.562   2.459   1.448  0.4041 -4.3313 -2.4551
  405SOL    HW2 1619   0.500   2.332   1.496 -2.9275 -1.6469  1.2333
  405SOL     MW 1620   0.547   2.403   1.513 -0.6818 -0.7796 -0.3043
  406SOL     OW 1621   0.334   2.409   1.089  0.6120 -0.1250 -0.0090
  406SOL    HW1 1622   0.247   2.408   1.132  0.0882  0.1793  2.6303
  406SOL    HW2 1623   0.374   2.324   1.111  0.2056 -1.0538 -1.7845
  406SOL     MW 1624   0.328   2.398   1.098  0.4893 -0.2074  0.1050
  407SOL     OW 1625   0.039   2.709   1.151  0.2355 -0.3376  0.1638
  407SOL    HW1 1626   0.084   2.679   1.237  2.6346 -0.5213  1.8297
  407SOL    HW2 1627   0.102   2.689   1.080  1.2456 -0.0664  1.3830
  407SOL     MW 1628   0.053   2.703   1.153  0.6853 -0.3260  0.5444
  408SOL     OW 1629   2.137   2.132   0.592  0.1319 -0.4119  0.4460
  408SOL    HW1 1630   2.058   2.181   0.611 -1.8063 -0.0319 -0.8900
  408SOL    HW2 1631   2.094   2.050   0.558 -1.6678 -0.4218 -0.5978
  408SOL     MW 1632   2.121   2.128   0.590 -0.3613 -0.3631  0.1320
  409SOL     OW 1633   1.459   0.148   0.955 -0.6411 -0.1496  0.1229
  409SOL    HW1 1634   1.520   0.213   0.988 -0.1463  2.3995 -0.5108
  409SOL    HW2 1635   1.484   0.062   0.996  0.4166 -1.3424 -3.1988
  409SOL     MW 1636   1.470   0.145   0.965 -0.4362  0.0294 -0.3990
  410SOL     OW 1637   1.103   2.425   1.148  0.1181 -0.1425  0.0837
  410SOL    HW1 1638   1.028   2.459   1.099  0.6241 -2.8174  2.9540
  410SOL    HW2 1639   1.148   2.379   1.080 -0.3602  1.7270 -0.5116
  410SOL     MW 1640   1.099   2.423   1.132  0.1217 -0.2488  0.3839
  411SOL     OW 1641   1.920   0.033   2.885 -0.0315 -0.5545  0.1215
  411SOL    HW1 1642   1.890  -0.024   2.813 -1.9771 -0.9747  0.6982
  411SOL    HW2 1643   1.853   0.017   2.950 -1.6463 -1.7078 -0.8635
  411SOL     MW 1644   1.908   0.023   2.884 -0.5013 -0.7621  0.0676
  412SOL     OW 1645   1.063   2.227   0.563  0.2986  0.1725  0.6377
  412SOL    HW1 1646   1.097   2.302   0.614 -0.0972 -0.7861 -1.0429
  412SOL    HW2 1647   0.982   2.254   0.521  5.8561  0.4848  0.2536
  412SOL     MW 1648   1.057   2.240   0.564  0.9796  0.0872  0.3653
  413SOL     OW 1649   0.540   2.729   3.084  0.1092 -0.1822  1.2046
  413SOL    HW1 1650   0.618   2.698   3.125 -2.1746  1.6685 -0.8280
  413SOL    HW2 1651   0.578   2.779   3.018 -1.1715 -2.6415  1.4631
  413SOL     MW 1652   0.555   2.732   3.081 -0.3611 -0.2625  0.9705
  414SOL     OW 1653   1.987   3.005   1.149  0.1725  0.2632  0.3054
  414SOL    HW1 1654   1.934   3.088   1.176  0.2507  2.9354  1.6355
  414SOL    HW2 1655   2.004   3.021   1.054  0.8846  1.8851  0.5396
  414SOL     MW 1656   1.982   3.018   1.140  0.2768  0.8298  0.5118
  415SOL     OW 1657   1.800   2.740   1.099 -0.4232  0.8584 -0.0132
  415SOL    HW1 1658   1.775   2.697   1.179  0.6691  1.0268  0.4753
  415SOL    HW2 1659   1.870   2.798   1.132 -0.5395  1.6319 -1.1003
  415SOL     MW 1660   1.806   2.742   1.114 -0.2944  0.9827 -0.0922
  416SOL     OW 1661   0.548   1.990   1.335  0.2279 -0.2805 -0.0163
  416SOL    HW1 1662   0.501   2.049   1.271 -1.6905 -0.9039 -1.0703
  416SOL    HW2 1663   0.539   1.894   1.306  0.6293 -2.6718  2.9548
  416SOL     MW 1664   0.541   1.985   1.323  0.0277 -0.6783  0.2367
  417SOL     OW 1665   0.997   2.998   2.055  0.2107  0.1204 -0.0930
  417SOL    HW1 1666   0.951   3.047   2.121  1.0530 -1.6367 -2.9648
  417SOL    HW2 1667   0.943   2.933   2.011 -1.3446 -1.5898  1.8239
  417SOL     MW 1668   0.984   2.996   2.058  0.1166 -0.3371 -0.2190
  418SOL     OW 1669   0.677   2.917   0.149  0.5905 -0.1026  0.5470
  418SOL    HW1 1670   0.756   2.886   0.100 -0.3417 -0.5795 -2.1084
  418SOL    HW2 1671   0.601   2.877   0.104 -0.1038  0.6809  0.9669
  418SOL     MW 1672   0.677   2.908   0.137  0.3759 -0.0621  0.2521
  419SOL     OW 1673   0.496   2.632   1.312  0.5284  0.1546 -0.2143
  419SOL    HW1 1674   0.541   2.706   1.357 -0.6212  2.5900  2.1441
  419SOL    HW2 1675   0.538   2.624   1.225  0.5761 -3.9282 -0.5515
  419SOL     MW 1676   0.507   2.641   1.307  0.3830 -0.0628  0.0524
  420SOL     OW 1677   0.807   2.214   1.049 -0.5426 -0.0048  0.3492
  420SOL    HW1 1678   0.777   2.258   1.127 -0.6184  0.3353 -0.1815
  420SOL    HW2 1679   0.843   2.284   0.997  1.0252  1.8840 -0.5539
  420SOL     MW 1680   0.808   2.229   1.052 -0.3458  0.2893  0.1600
  421SOL     OW 1681   2.988   0.199   3.054 -0.1497 -0.2050  0.3828
  421SOL    HW1 1682   2.897   0.169   3.032  1.7083  0.4012  0.5108
  421SOL    HW2 1683   3.034   0.118   3.077  1.0554  2.3871  1.2374
  421SOL     MW 1684   2.982   0.185   3.054  0.2545  0.2170  0.5125
  422SOL     OW 1685   0.876   2.481   0.954 -0.3797 -0.5076  0.2449
  422SOL    HW1 1686   0.846   2.574   0.977  0.2494 -0.4913  1.7851
  422SOL    HW2 1687   0.866   2.480   0.860 -0.6137 -0.0760  0.9761
  422SOL     MW 1688   0.870   2.493   0.945 -0.3276 -0.4485  0.5446
  423SOL     OW 1689   1.459   0.072   0.486  0.6269 -0.2583  0.0157
  423SOL    HW1 1690   1.439   0.053   0.396  0.3180 -0.7823  0.7190
  423SOL    HW2 1691   1.459   0.163   0.487  1.1145 -3.5107 -0.9013
  423SOL     MW 1692   1.457   0.082   0.474  0.6505 -0.7566 -0.0125
  424SOL     OW 1693   0.665   2.289   1.269 -0.1923 -0.7235  0.4018
  424SOL    HW1 1694   0.585   2.257   1.231  0.6113  4.7262  2.1834
  424SOL    HW2 1695   0.665   2.278   1.364  0.9590 -0.5931  0.3691
  424SOL     MW 1696   0.655   2.283   1.277  0.0656  0.0128  0.6326
  425SOL     OW 1697   1.710   2.767   2.063 -0.2880 -0.2132  0.6715
  425SOL    HW1 1698   1.739   2.789   1.969  1.2447 -0.4920  1.4453
  425SOL    HW2 1699   1.738   2.671   2.073  2.5409 -0.7160 -0.5263
  425SOL     MW 1700   1.717   2.757   2.052  0.2874 -0.3163  0.6156
  426SOL     OW 1701   0.851   1.678   1.961  0.2628  0.8134 -0.2873
  426SOL    HW1 1702   0.797   1.702   1.888  1.9856  1.0588  3.0026
  426SOL    HW2 1703   0.832   1.738   2.036  0.6111 -2.3610  0.7694
  426SOL     MW 1704   0.841   1.689   1.961  0.5361  0.4270  0.2862
  427SOL     OW 1705   0.375   1.689   1.859 -0.3015  0.8785 -0.1356
  427SOL    HW1 1706   0.406   1.624   1.799 -1.5550  2.8243  0.8434
  427SOL    HW2 1707   0.311   1.641   1.918  0.0958 -0.9742  2.6589
  427SOL     MW 1708   0.371   1.674   1.859 -0.4145  0.8908  0.3623
  428SOL     OW 1709   0.547   2.563   1.009 -0.1735  0.2825  0.0951
  428SOL    HW1 1710   0.605   2.490   1.013 -0.8728 -1.9370  0.6932
  428SOL    HW2 1711   0.462   2.521   1.048 -0.9811  0.2595  0.5891
  428SOL     MW 1712   0.544   2.548   1.015 -0.3724 -0.0134  0.2392
  429SOL     OW 1713   1.246   2.817   1.138 -0.0493  0.2061  0.1515
  429SOL    HW1 1714   1.163   2.798   1.183 -2.0729 -1.8790 -0.6704
  429SOL    HW2 1715   1.225   2.887   1.076 -3.4122 -0.9309  0.2015
  429SOL     MW 1716   1.233   2.824   1.136 -0.7600 -0.2190  0.0497
  430SOL     OW 1717   1.156   2.735   0.708  0.1948 -0.1913 -0.3234
  430SOL    HW1 1718   1.165   2.647   0.747  0.3061 -0.6598  1.9851
  430SOL    HW2 1719   1.124   2.729   0.615 -3.2959 -0.1761 -3.1447
  430SOL     MW 1720   1.153   2.722   0.701 -0.2511 -0.2511 -0.3910
  431SOL     OW 1721   0.316   1.973   1.035 -0.1991  0.3124  0.4960
  431SOL    HW1 1722   0.349   1.884   1.012 -1.7839 -2.4880  1.4348
  431SOL    HW2 1723   0.279   2.002   0.948  1.3346 -1.7899  1.8486
  431SOL     MW 1724   0.316   1.965   1.020 -0.2059 -0.3344  0.7984
  432SOL     OW 1725   0.083   0.054   1.189  0.2320 -0.3461 -0.0592
  432SOL    HW1 1726   0.072   0.096   1.274  2.1015  2.6217 -2.4675
  432SOL    HW2 1727   0.018  -0.015   1.193 -0.2732  1.9974 -0.4594
  432SOL     MW 1728   0.073   0.051   1.201  0.4120  0.3546 -0.4298
  433SOL     OW 1729   0.614   2.823   1.484  0.0663  0.5932 -0.5277
  433SOL    HW1 1730   0.586   2.850   1.568  0.0916  1.3634 -1.0939
  433SOL    HW2 1731   0.712   2.821   1.488 -1.6949 -2.7528  1.6247
  433SOL     MW 1732   0.623   2.827   1.496 -0.1627  0.2534 -0.3184
  434SOL     OW 1733   1.568   2.756   1.534 -0.2824  0.0420  0.2938
  434SOL    HW1 1734   1.487   2.799   1.500 -0.4121 -0.1546 -0.1219
  434SOL    HW2 1735   1.604   2.712   1.457  0.0878  0.4107  0.6336
  434SOL     MW 1736   1.562   2.756   1.519 -0.2507  0.0647  0.2838
  435SOL     OW 1737   2.812   1.806   0.195 -0.2837  0.1726 -0.2935
  435SOL    HW1 1738   2.891   1.856   0.164  0.7195 -1.5635  0.0458
  435SOL    HW2 1739   2.771   1.784   0.107  0.4579  0.2724  3.2654
  435SOL     MW 1740   2.817   1.810   0.179 -0.0535 -0.0433  0.2208
  436SOL     OW 1741   1.384   2.664   0.416  0.0281 -0.1716  0.0372
  436SOL    HW1 1742   1.448   2.670   0.489 -1.2748 -1.2593  1.2713
  436SOL    HW2 1743   1.371   2.756   0.395  0.2294 -4.8877  0.4738
  436SOL     MW 1744   1.391   2.677   0.422 -0.1173 -0.9374  0.2577
  437SOL     OW 1745   0.901   3.000   1.332  0.1676 -0.5688 -0.1340
  437SOL    HW1 1746   0.988   3.044   1.322 -0.2783 -1.7823 -1.3578
  437SOL    HW2 1747   0.896   2.923   1.274 -0.9525  1.1602 -1.1069
  437SOL     MW 1748   0.912   2.996   1.323 -0.0390 -0.5008 -0.4238
  438SOL     OW 1749   0.806   2.588   1.912 -0.0356  0.1534  0.2577
  438SOL    HW1 1750   0.823   2.552   2.005 -0.1900 -2.0122 -0.4889
  438SOL    HW2 1751   0.782   2.508   1.868  0.1073  1.8733  2.3646
  438SOL     MW 1752   0.805   2.573   1.918 -0.0372  0.0946  0.4372
  439SOL     OW 1753   1.231   2.110   0.413 -0.4422 -0.0186 -0.1426
  439SOL    HW1 1754   1.171   2.157   0.475  0.1804  0.0556 -2.5025
  439SOL    HW2 1755   1.226   2.168   0.335 -1.0711  0.2567 -1.4080
  439SOL     MW 1756   1.222   2.124   0.411 -0.4430  0.0275 -0.6209
  440SOL     OW 1757   1.732   2.993   3.062 -0.3077 -0.1138 -0.1647
  440SOL    HW1 1758   1.670   2.941   3.119 -1.7530 -2.1244 -1.7051
  440SOL    HW2 1759   1.818   2.954   3.072  1.0540  0.8542 -0.0939
  440SOL     MW 1760   1.735   2.981   3.071 -0.3187 -0.2514 -0.3586
  441SOL     OW 1761   0.368   2.674   0.499  0.4785  0.7299  0.0099
  441SOL    HW1 1762   0.368   2.647   0.405 -0.8171 -0.9067 -1.6389
  441SOL    HW2 1763   0.369   2.767   0.506  1.6334 -0.4142  0.4112
  441SOL     MW 1764   0.368   2.682   0.488  0.4599  0.3630 -0.1547
  442SOL     OW 1765   3.057   2.361   0.591 -0.1962 -0.4865 -0.7199
  442SOL    HW1 1766   3.081   2.452   0.552 -1.0947 -0.5896 -1.0712
  442SOL    HW2 1767   2.969   2.351   0.624  0.3445 -1.6487 -0.8502
  442SOL     MW 1768   3.049   2.372   0.590 -0.2434 -0.6534 -0.7834
  443SOL     OW 1769   1.472   1.754   1.958  0.5346  0.5177  0.0423
  443SOL    HW1 1770   1.449   1.796   1.875 -2.9910 -3.0988 -0.7172
  443SOL    HW2 1771   1.420   1.673   1.977  3.5766 -2.9597  1.1458
  443SOL     MW 1772   1.462   1.749   1.949  0.4708 -0.4183  0.0877
  444SOL     OW 1773   0.879   2.567   1.577  0.2828  0.2875 -0.1379
  444SOL    HW1 1774   0.964   2.532   1.596  0.5162 -0.4575 -1.5139
  444SOL    HW2 1775   0.827   2.530   1.647  3.4171 -1.3881  1.1031
  444SOL     MW 1776   0.883   2.558   1.589  0.7271 -0.0319 -0.1557
  445SOL     OW 1777   1.113   0.066   1.325  0.2769  0.4614  0.3315
  445SOL    HW1 1778   1.050   0.125   1.370  1.7105 -0.0208  2.1781
  445SOL    HW2 1779   1.121   0.123   1.250 -1.6747 -0.0271 -2.0351
  445SOL     MW 1780   1.106   0.082   1.321  0.2085  0.3333  0.2629
  446SOL     OW 1781   2.768   2.871   1.088 -0.0280 -0.1605 -0.4947
  446SOL    HW1 1782   2.736   2.915   1.013  1.9877 -0.0659 -0.0355
  446SOL    HW2 1783   2.807   2.789   1.055  2.1300 -0.0144 -0.7170
  446SOL     MW 1784   2.769   2.866   1.074  0.5227 -0.1287 -0.4635
  447SOL     OW 1785   0.037   1.993   1.643  0.2892 -0.1957  0.0973
  447SOL    HW1 1786   0.062   1.911   1.691 -0.4988  0.5522  1.8976
  447SOL    HW2 1787  -0.050   1.967   1.601  0.4645 -0.3498 -1.4353
  447SOL     MW 1788   0.029   1.979   1.643  0.2083 -0.1174  0.1326
  448SOL     OW 1789   1.740   2.408   1.673  0.4611  0.2440  0.3484
  448SOL    HW1 1790   1.710   2.315   1.656  1.7816  0.0471 -1.1663
  448SOL    HW2 1791   1.661   2.452   1.693  2.4668  2.0344  0.2707
  448SOL     MW 1792   1.726   2.402   1.673  0.9000  0.4542  0.1383
  449SOL     OW 1793   0.859   2.887   0.353  0.8169 -0.3064 -0.1586
  449SOL    HW1 1794   0.793   2.893   0.279  1.4073 -1.9664 -3.6951
  449SOL    HW2 1795   0.797   2.916   0.421  2.2301  1.6839 -2.3504
  449SOL     MW 1796   0.842   2.892   0.352  1.0813 -0.2628 -0.9144
  450SOL     OW 1797   1.176   2.439   0.712 -0.4232  0.1200 -0.3566
  450SOL    HW1 1798   1.167   2.374   0.785  0.7504  0.4398  1.0798
  450SOL    HW2 1799   1.267   2.425   0.690  1.4794  1.5752 -0.4061
  450SOL     MW 1800   1.187   2.429   0.718 -0.0173  0.3542 -0.1736
  451SOL     OW 1801   0.560   2.009   1.650  0.2879 -0.6931  0.2782
  451SOL    HW1 1802   0.608   2.074   1.605  1.1994 -2.3354 -1.1306
  451SOL    HW2 1803   0.518   1.966   1.580  0.0684  1.8051  1.7991
  451SOL     MW 1804   0.561   2.012   1.635  0.3792 -0.5801  0.2930
  452SOL     OW 1805   0.274   2.667   0.052  0.1307 -0.0789  0.3172
  452SOL    HW1 1806   0.349   2.690   0.004 -1.1047 -0.4156 -1.2465
  452SOL    HW2 1807   0.206   2.730   0.026 -2.1119 -0.1219 -3.6523
  452SOL     MW 1808   0.275   2.678   0.042 -0.3282 -0.1290 -0.4128
  453SOL     OW 1809   0.339   2.993   1.609  0.0937  0.4177  0.5077
  453SOL    HW1 1810   0.402   2.971   1.677 -1.4259  1.2737 -0.8524
  453SOL    HW2 1811   0.381   3.050   1.536 -0.7379 -1.4130 -1.8537
  453SOL     MW 1812   0.353   2.998   1.608 -0.2165  0.2891  0.0167
  454SOL     OW 1813   0.980   2.786   1.208  0.1920  0.2432  0.2222
  454SOL    HW1 1814   0.945   2.702   1.237  1.3216  1.1965  1.0675
  454SOL    HW2 1815   0.936   2.814   1.124  0.7200 -3.5673 -4.3238
  454SOL     MW 1816   0.969   2.779   1.201  0.4107 -0.1338 -0.2661
  455SOL     OW 1817   1.602   2.859   0.166 -0.0781 -0.1750  0.7340
  455SOL    HW1 1818   1.663   2.854   0.243 -0.7480 -0.2670  1.6816
  455SOL    HW2 1819   1.574   2.769   0.171  0.2051 -0.9940 -0.3885
  455SOL     MW 1820   1.606   2.847   0.177 -0.1291 -0.2952  0.7110
  456SOL     OW 1821   2.732   0.326   1.529 -0.2282 -0.9447  0.2932
  456SOL    HW1 1822   2.716   0.259   1.459  2.4719 -2.6809 -2.7362
  456SOL    HW2 1823   2.796   0.379   1.490  1.0693  1.6201  0.1491
  456SOL     MW 1824   2.738   0.324   1.515  0.2992 -0.8353 -0.1255
  457SOL     OW 1825   0.901   1.590   3.038 -0.1330  0.2688  0.7230
  457SOL    HW1 1826   0.805   1.608   3.034  0.6251  1.3645  0.5032
  457SOL    HW2 1827   0.912   1.585   3.134  1.6914 -1.5639  2.3154
  457SOL     MW 1828   0.890   1.592   3.050  0.2078  0.1715  0.9041
  458SOL     OW 1829   1.377   1.464   0.574  0.3884 -0.4899  0.2303
  458SOL    HW1 1830   1.360   1.553   0.544  1.3811 -1.4377  1.8952
  458SOL    HW2 1831   1.348   1.406   0.502  0.5606  0.0384 -0.0006
  458SOL     MW 1832   1.371   1.468   0.560  0.5421 -0.5452  0.4195
  459SOL     OW 1833   1.490   0.026   0.226  0.5326 -0.1020  0.2509
  459SOL    HW1 1834   1.513  -0.065   0.205 -1.4836 -0.0440  0.3714
  459SOL    HW2 1835   1.429   0.054   0.159  0.8746  1.9074 -0.7427
  459SOL     MW 1836   1.485   0.018   0.214  0.3117  0.1707  0.1357
  460SOL     OW 1837   1.783   2.142   0.623  0.5495  0.3779  0.1245
  460SOL    HW1 1838   1.695   2.145   0.667  0.1057  0.9677  0.5358
  460SOL    HW2 1839   1.793   2.049   0.609 -1.9448  0.7353  1.6004
  460SOL     MW 1840   1.773   2.130   0.627  0.1619  0.5029  0.3735
  461SOL     OW 1841   0.407   2.392   0.555  0.5377 -0.0308  0.1847
  461SOL    HW1 1842   0.401   2.483   0.520  0.9637  1.4309 -4.3849
  461SOL    HW2 1843   0.378   2.409   0.649 -0.3073  2.3306  1.0675
  461SOL     MW 1844   0.402   2.406   0.563  0.4824  0.4736 -0.3018
  462SOL     OW 1845   0.324   0.252   1.272  0.1867  0.0014 -0.6585
  462SOL    HW1 1846   0.327   0.221   1.186 -1.8076  0.5153  0.3319
  462SOL    HW2 1847   0.416   0.288   1.290  0.6290  0.9033 -2.7604
  462SOL     MW 1848   0.336   0.253   1.263 -0.0181  0.1882 -0.8051
  463SOL     OW 1849   0.979   0.098   0.676 -0.2396  0.1713  0.1217
  463SOL    HW1 1850   1.029   0.101   0.593  0.7712  0.7842 -1.1425
  463SOL    HW2 1851   0.880   0.085   0.661  0.6981  1.1604  1.2423
  463SOL     MW 1852   0.973   0.096   0.663  0.0175  0.3827  0.1028
  464SOL     OW 1853   0.772   3.059   2.255 -0.1646 -0.7876 -0.3468
  464SOL    HW1 1854   0.770   2.965   2.244 -0.4042 -0.2342 -1.8708
  464SOL    HW2 1855   0.767   3.079   2.348  1.3464  0.3162 -1.8053
  464SOL     MW 1856   0.771   3.049   2.266  0.0031 -0.5690 -0.7403
  465SOL     OW 1857   0.846   0.278   0.475  0.2857 -0.1023  0.0023
  465SOL    HW1 1858   0.793   0.217   0.533  2.0578 -0.2555  0.4024
  465SOL    HW2 1859   0.809   0.254   0.385 -1.4671  0.6602 -0.0052
  465SOL     MW 1860   0.834   0.267   0.471  0.2882 -0.0219  0.0541
  466SOL     OW 1861   0.992   2.027   0.732 -0.2743 -0.3767  0.7955
  466SOL    HW1 1862   1.006   1.945   0.686 -0.6095 -0.8365  0.1023
  466SOL    HW2 1863   1.024   2.101   0.676  1.0315 -0.9455  1.8472
  466SOL     MW 1864   0.998   2.026   0.719 -0.1462 -0.5124  0.8428
  467SOL     OW 1865   1.233   2.289   0.950  0.1963 -0.0416  0.1562
  467SOL    HW1 1866   1.321   2.325   0.937  1.2794  0.1547  2.7264
  467SOL    HW2 1867   1.251   2.196   0.918  4.1527 -1.4348  2.2916
  467SOL     MW 1868   1.247   2.282   0.944  0.8612 -0.1995  0.7771
  468SOL     OW 1869   0.418   2.641   1.989  0.2976  0.0622 -0.7226
  468SOL    HW1 1870   0.424   2.571   1.925  0.5186 -1.4988  1.9271
  468SOL    HW2 1871   0.390   2.719   1.939  2.8041  3.3584 -1.4501
  468SOL     MW 1872   0.415   2.642   1.974  0.6574  0.2912 -0.4690
  469SOL     OW 1873   0.375   2.145   1.857  0.0703 -0.3615  0.2535
  469SOL    HW1 1874   0.303   2.082   1.883 -0.4399 -0.6485  1.5458
  469SOL    HW2 1875   0.439   2.091   1.821 -2.0878  1.1601  0.2009
  469SOL     MW 1876   0.374   2.130   1.856 -0.2818 -0.1986  0.4171
  470SOL     OW 1877   3.024   2.604   0.136  0.2546 -0.4070  0.2981
  470SOL    HW1 1878   2.942   2.587   0.191 -1.3005 -0.3582  1.0784
  470SOL    HW2 1879   2.992   2.599   0.045 -0.8294 -0.8272  1.1314
  470SOL     MW 1880   3.009   2.601   0.131 -0.0936 -0.4560  0.5110
  471SOL     OW 1881   1.179   2.655   1.435 -0.0143 -0.2055 -0.6478
  471SOL    HW1 1882   1.149   2.607   1.510 -0.8833 -0.0033 -0.6467
  471SOL    HW2 1883   1.094   2.671   1.394 -0.3563 -0.2632  3.2161
  471SOL     MW 1884   1.164   2.651   1.440 -0.1741 -0.1864 -0.1378
  472SOL     OW 1885   2.827   2.125   0.333 -0.2544 -0.4944  0.0866
  472SOL    HW1 1886   2.867   2.064   0.266 -0.1546  2.6285 -0.2865
  472SOL    HW2 1887   2.786   2.062   0.400  0.6097 -1.1492  1.9995
  472SOL     MW 1888   2.827   2.109   0.333 -0.1272 -0.1687  0.2898
  473SOL     OW 1889   0.813   2.531   1.287 -0.2854  0.2208  0.6460
  473SOL    HW1 1890   0.768   2.456   1.252  3.8123  0.3910 -1.7452
  473SOL    HW2 1891   0.806   2.518   1.383 -2.9402  0.6015  0.9498
  473SOL     MW 1892   0.806   2.519   1.295 -0.0950  0.2934  0.3706
  474SOL     OW 1893   0.852   2.085   1.809 -0.8438  0.2755  0.2445
  474SOL    HW1 1894   0.938   2.121   1.832  1.6404  1.5943 -0.5273
  474SOL    HW2 1895   0.856   2.079   1.713  3.6395  0.1778 -0.3350
  474SOL     MW 1896   0.864   2.089   1.799  0.0755  0.4366  0.0662
  475SOL     OW 1897   1.639   3.073   1.457 -0.5386  0.1073  0.3654
  475SOL    HW1 1898   1.567   3.087   1.396 -1.6674  0.7701 -1.2306
  475SOL    HW2 1899   1.627   2.978   1.471 -1.5711  0.6901  2.1964
  475SOL     MW 1900   1.628   3.062   1.451 -0.8238  0.2717  0.3964
  476SOL     OW 1901   1.423   2.618   1.028 -0.3454  0.3360 -0.0881
  476SOL    HW1 1902   1.355   2.668   1.073  0.4685  0.4511 -3.2249
  476SOL    HW2 1903   1.459   2.680   0.967 -0.8360  2.5329  1.0905
  476SOL     MW 1904   1.419   2.633   1.026 -0.3028  0.6410 -0.3465
  477SOL     OW 1905   0.801   2.485   0.665 -0.1881 -0.4783 -0.3589
  477SOL    HW1 1906   0.870   2.542   0.629  2.3466  0.9878  2.8011
  477SOL    HW2 1907   0.794   2.413   0.600 -2.7808  0.4778 -1.4128
  477SOL     MW 1908   0.809   2.483   0.651 -0.1958 -0.1587 -0.0810
  478SOL     OW 1909   0.171   2.672   0.924 -0.5411 -0.1731  0.0964
  478SOL    HW1 1910   0.229   2.744   0.920  0.6532  3.2224 -1.4103
  478SOL    HW2 1911   0.215   2.611   0.869  2.2177  1.1933  2.0807
  478SOL     MW 1912   0.184   2.674   0.916 -0.0195  0.4552  0.1595
  479SOL     OW 1913   1.472   1.973   1.241  0.4437 -0.2969  0.2228
  479SOL    HW1 1914   1.451   2.007   1.327 -0.5075 -0.2325  1.1651
  479SOL    HW2 1915   1.537   1.900   1.248  0.4631  1.0728 -1.5953
  479SOL     MW 1916   1.478   1.968   1.253  0.3208 -0.1077  0.1073
  480SOL     OW 1917   1.915   2.402   1.267  0.9803 -0.0233  0.1756
  480SOL    HW1 1918   1.900   2.306   1.268  0.6835 -0.9808  2.1144
  480SOL    HW2 1919   1.937   2.433   1.177  0.5321 -1.9067 -0.5131
  480SOL     MW 1920   1.916   2.393   1.255  0.8820 -0.3981  0.3405
  481SOL     OW 1921   1.026   0.004   1.013  0.2427 -0.2770  0.8773
  481SOL    HW1 1922   1.091  -0.036   0.953  0.9581  1.6205  0.3992
  481SOL    HW2 1923   1.062   0.081   1.052  1.1524 -0.7784  3.2292
  481SOL     MW 1924   1.039   0.009   1.010  0.4571 -0.0928  1.1245
  482SOL     OW 1925   1.082   3.039   0.277  0.2262 -1.1004  0.1297
  482SOL    HW1 1926   1.019   2.969   0.286 -2.5334 -0.9085 -1.3024
  482SOL    HW2 1927   1.065   3.092   0.356 -3.3121  2.1899 -0.4657
  482SOL     MW 1928   1.072   3.037   0.289 -0.6047 -0.6409 -0.1378
  483SOL     OW 1929   0.414   2.962   0.442  0.0787 -0.0138  0.5264
  483SOL    HW1 1930   0.340   2.984   0.380 -2.6998 -0.8552  1.7905
  483SOL    HW2 1931   0.387   3.015   0.522  0.6163  1.7533  1.1281
  483SOL     MW 1932   0.401   2.972   0.444 -0.2170  0.1084  0.7726
  484SOL     OW 1933   1.782   1.894   1.463  0.5692  0.1660  0.3517
  484SOL    HW1 1934   1.798   1.975   1.412  1.0643 -0.3600 -1.5739
  484SOL    HW2 1935   1.792   1.923   1.554  2.2613 -1.6490  0.7915
  484SOL     MW 1936   1.786   1.909   1.468  0.8578 -0.1428  0.1557
  485SOL     OW 1937   0.470   2.282   0.246 -0.2318 -0.0656  0.0470
  485SOL    HW1 1938   0.485   2.223   0.329  2.0115 -2.1819  1.3799
  485SOL    HW2 1939   0.416   2.354   0.278  1.6036  1.4879 -0.4497
  485SOL     MW 1940   0.465   2.284   0.261  0.3064 -0.1398  0.1573
  486SOL     OW 1941   0.188   2.410   1.504  0.9731  0.1775 -0.7520
  486SOL    HW1 1942   0.198   2.490   1.456 -1.9495 -0.2365 -3.4673
  486SOL    HW2 1943   0.175   2.428   1.602  0.2185 -0.9897 -0.5934
  486SOL     MW 1944   0.187   2.423   1.510  0.4879 -0.0311 -1.0894
  487SOL     OW 1945   1.222   1.660   1.017 -0.4450 -0.1137 -0.2873
  487SOL    HW1 1946   1.220   1.746   1.062 -0.1741  2.4942  0.9472
  487SOL    HW2 1947   1.319   1.666   0.986  1.0470  1.7593 -0.5623
  487SOL     MW 1948   1.234   1.672   1.019 -0.2124  0.4775 -0.1607
  488SOL     OW 1949   1.659   1.853   0.498 -0.3645  0.6798  0.7616
  488SOL    HW1 1950   1.728   1.862   0.429  2.3539  0.3064 -1.2008
  488SOL    HW2 1951   1.598   1.930   0.474 -0.4674 -0.7894  1.1230
  488SOL     MW 1952   1.660   1.865   0.486 -0.0194  0.4367  0.5504
  489SOL     OW 1953   0.686   0.770   0.585 -0.3007  0.6122 -0.6627
  489SOL    HW1 1954   0.726   0.681   0.571  2.5112  0.2212  1.6770
  489SOL    HW2 1955   0.693   0.772   0.680  1.4732  0.9950 -1.2979
  489SOL     MW 1956   0.692   0.759   0.596  0.3043  0.6111 -0.4378
  490SOL     OW 1957   1.484   2.060   0.460  0.1878  0.1577 -0.1799
  490SOL    HW1 1958   1.517   2.152   0.450  1.0347  1.8538  0.3102
  490SOL    HW2 1959   1.384   2.066   0.449  2.0111  3.1904 -0.5698
  490SOL     MW 1960   1.475   2.073   0.457  0.5401  0.7816 -0.1667
  491SOL     OW 1961   1.313   2.933   0.375  0.3701  0.4294 -0.8466
  491SOL    HW1 1962   1.364   2.998   0.426 -0.6332  1.9987 -0.0595
  491SOL    HW2 1963   1.236   2.983   0.339  1.5630  3.3586 -0.2278
  491SOL     MW 1964   1.309   2.948   0.377  0.3951  1.0229 -0.6611
  492SOL     OW 1965   1.506   2.077   0.742 -0.1667 -0.2926  0.6242
  492SOL    HW1 1966   1.494   2.061   0.643 -3.0665  1.5724 -0.1402
  492SOL    HW2 1967   1.426   2.047   0.780  0.3897  2.4782  0.2845
  492SOL     MW 1968   1.494   2.071   0.734 -0.4759  0.3191  0.4785
  493SOL     OW 1969   0.215   3.001   0.276 -0.1181  0.1860 -0.2324
  493SOL    HW1 1970   0.174   3.050   0.346  0.5319  1.2255 -0.3637
  493SOL    HW2 1971   0.232   3.063   0.205 -1.5539  2.0782  0.6828
  493SOL     MW 1972   0.212   3.015   0.276 -0.2217  0.5728 -0.1290
  494SOL     OW 1973   0.402   2.445   1.790 -0.1308 -0.3741 -0.4698
  494SOL    HW1 1974   0.448   2.362   1.818  1.0709 -0.7528 -0.8690
  494SOL    HW2 1975   0.445   2.453   1.700 -0.1185  0.5017  1.2761
  494SOL     MW 1976   0.413   2.435   1.781  0.0294 -0.3085 -0.2922
  495SOL     OW 1977   2.930   1.664   2.597  0.8766 -0.2367  0.5172
  495SOL    HW1 1978   2.929   1.756   2.556 -1.5462  2.3443  0.3947
  495SOL    HW2 1979   2.902   1.676   2.687 -1.0532 -0.9159 -3.0776
  495SOL     MW 1980   2.926   1.678   2.603  0.3024  0.0142  0.0267
  496SOL     OW 1981   2.921   2.306   2.679  0.3630  0.2987  0.2483
  496SOL    HW1 1982   2.949   2.244   2.742 -0.6336  1.0126  0.8842
  496SOL    HW2 1983   2.980   2.374   2.699  3.5394  1.6930 -3.0416
  496SOL     MW 1984   2.932   2.307   2.690  0.6506  0.5769 -0.1019
  497SOL     OW 1985   1.503   2.268   2.644  0.0404  0.4611  0.1503
  497SOL    HW1 1986   1.481   2.229   2.560  1.6858 -0.7809  1.1867
  497SOL    HW2 1987   1.495   2.197   2.706 -0.0970  0.4644 -0.9565
  497SOL     MW 1988   1.499   2.254   2.641  0.2394  0.2977  0.1410
  498SOL     OW 1989   1.532   2.745   2.362 -0.4535  0.1583 -0.3472
  498SOL    HW1 1990   1.557   2.654   2.343  2.2839 -2.0833 -0.8927
  498SOL    HW2 1991   1.599   2.765   2.430 -1.6376  1.1571  0.3537
  498SOL     MW 1992   1.544   2.735   2.369 -0.2485 -0.0057 -0.3267
  499SOL     OW 1993   0.927   0.087   0.082 -0.3341 -0.0531  0.2542
  499SOL    HW1 1994   0.853   0.126   0.137 -0.0483 -1.6702  0.5899
  499SOL    HW2 1995   0.986   0.019   0.120  2.1204  0.0192  0.7330
  499SOL     MW 1996   0.925   0.083   0.094  0.0274 -0.2569  0.3616
  500SOL     OW 1997   1.111   2.566   2.785 -0.3047 -0.5914  0.4759
  500SOL    HW1 1998   1.124   2.517   2.866  1.6933  2.2897  1.4802
  500SOL    HW2 1999   1.040   2.629   2.791  0.8606 -1.2188  2.5448
  500SOL     MW 2000   1.103   2.568   2.797  0.1127 -0.2940  0.8814
  501SOL     OW 2001   1.750   2.261   0.010 -0.1143  0.3123 -0.5824
  501SOL    HW1 2002   1.756   2.336   0.059 -2.8697 -1.8509 -0.6593
  501SOL    HW2 2003   1.840   2.255  -0.027  3.4854 -0.2040  0.6935
  501SOL     MW 2004   1.762   2.270   0.012 -0.0029 -0.0413 -0.4242
  502SOL     OW 2005   0.109   2.842   2.982  0.3774 -0.3706  0.4894
  502SOL    HW1 2006   0.047   2.766   2.975  1.7604  1.6284  2.5911
  502SOL    HW2 2007   0.171   2.843   2.910 -2.0035 -1.8605  0.5440
  502SOL     MW 2008   0.109   2.832   2.972  0.2457 -0.3034  0.7739
  503SOL     OW 2009   1.135   2.721   2.126  0.1487  0.1619  0.2249
  503SOL    HW1 2010   1.126   2.692   2.039 -2.4673 -0.7975  1.0394
  503SOL    HW2 2011   1.076   2.796   2.144  2.0944  2.6154 -0.8960
  503SOL     MW 2012   1.126   2.727   2.117  0.0602  0.3590  0.1845
  504SOL     OW 2013   0.044   2.707   2.115  0.7298 -0.2424 -0.2172
  504SOL    HW1 2014   0.067   2.616   2.124 -0.0031  0.1947  0.1188
  504SOL    HW2 2015  -0.025   2.702   2.054  1.6353 -1.3136  1.2109
  504SOL     MW 2016   0.038   2.694   2.108  0.7525 -0.3261  0.0156
  505SOL     OW 2017   1.764   2.692   2.843  0.0460  0.7503 -0.0718
  505SOL    HW1 2018   1.777   2.696   2.746  2.4689  0.8199 -0.5510
  505SOL    HW2 2019   1.681   2.747   2.852 -1.4946  3.3113  0.2374
  505SOL     MW 2020   1.755   2.700   2.831  0.1624  1.0974 -0.0943
  506SOL     OW 2021   1.587   3.078   2.847 -0.0976 -0.0257  0.2768
  506SOL    HW1 2022   1.644   3.053   2.922 -0.4233 -1.3522 -1.4187
  506SOL    HW2 2023   1.643   3.043   2.772 -0.7237  0.6188 -1.5759
  506SOL     MW 2024   1.602   3.070   2.847 -0.2231 -0.1157 -0.1914
  507SOL     OW 2025   0.903   2.756   2.843 -0.1404  0.3936  0.4946
  507SOL    HW1 2026   0.910   2.850   2.810  0.1831  3.5248  0.8968
  507SOL    HW2 2027   0.814   2.727   2.845  3.9651  1.3521  1.0317
  507SOL     MW 2028   0.892   2.764   2.839  0.4440  0.9332  0.6186
  508SOL     OW 2029   1.150   2.101   2.489  0.0037  0.2649  0.1786
  508SOL    HW1 2030   1.205   2.065   2.558  1.2179  0.3328  0.4881
  508SOL    HW2 2031   1.107   2.172   2.530  1.8368 -4.0028 -2.9138
  508SOL     MW 2032   1.151   2.106   2.503  0.4057 -0.2892 -0.1886
  509SOL     OW 2033   0.696   2.580   2.719  0.5504 -0.2694 -0.2402
  509SOL    HW1 2034   0.651   2.524   2.659 -1.1670 -0.6494  0.5288
  509SOL    HW2 2035   0.630   2.609   2.783  0.1010 -2.3795  3.1920
  509SOL     MW 2036   0.681   2.576   2.719  0.2645 -0.5980  0.3141
  510SOL     OW 2037   1.487   2.547   1.674 -0.4107 -0.5841 -0.1020
  510SOL    HW1 2038   1.515   2.633   1.645  3.0114  0.1118 -0.8883
  510SOL    HW2 2039   1.427   2.553   1.748 -1.6722 -0.8488  2.7044
  510SOL     MW 2040   1.483   2.559   1.680 -0.1256 -0.5272  0.1645
  511SOL     OW 2041   0.421   2.647   2.454 -0.0782  0.0201 -0.2618
  511SOL    HW1 2042   0.499   2.578   2.464  0.2519  0.8774 -0.7851
  511SOL    HW2 2043   0.443   2.694   2.368  0.0015  1.9977 -3.0996
  511SOL     MW 2044   0.434   2.644   2.444 -0.0242  0.3941 -0.7053
  512SOL     OW 2045   1.044   2.018   2.825  0.6859  0.6095  0.3139
  512SOL    HW1 2046   0.957   2.044   2.855  0.7345 -1.1883 -0.4664
  512SOL    HW2 2047   1.057   1.929   2.862 -0.1776 -0.7320 -2.5393
  512SOL     MW 2048   1.034   2.010   2.834  0.5784  0.1953 -0.1655
  513SOL     OW 2049   1.569   2.479   2.301 -1.1922 -0.3509  0.3305
  513SOL    HW1 2050   1.646   2.473   2.241  1.8084  1.2075  0.5488
  513SOL    HW2 2051   1.589   2.452   2.389  1.6760  0.4198 -0.0119
  513SOL     MW 2052   1.582   2.475   2.304 -0.4179 -0.0436  0.3141
  514SOL     OW 2053   0.292   2.450   2.642 -0.0162 -0.2349  0.0611
  514SOL    HW1 2054   0.330   2.517   2.587 -1.0699  0.3380  1.5976
  514SOL    HW2 2055   0.320   2.463   2.737  1.3403  0.4547  0.6124
  514SOL     MW 2056   0.300   2.461   2.647  0.0238 -0.0684  0.3366
  515SOL     OW 2057   1.130   2.048   1.976 -0.2297  0.5742 -0.6948
  515SOL    HW1 2058   1.146   2.129   1.932 -0.2629  0.4406 -1.0492
  515SOL    HW2 2059   1.206   2.035   2.035  0.0890  0.9171 -0.9143
  515SOL     MW 2060   1.142   2.057   1.978 -0.1920  0.6018 -0.7705
  516SOL     OW 2061   1.453   2.503   0.011 -0.0702 -0.4611 -0.9937
  516SOL    HW1 2062   1.515   2.477  -0.057  0.2177 -2.0782  0.6278
  516SOL    HW2 2063   1.370   2.525  -0.026  0.5459  2.3598 -1.3845
  516SOL     MW 2064   1.450   2.502  -0.003  0.0491 -0.3023 -0.8314
  517SOL     OW 2065   0.581   2.431   2.120 -0.2756 -0.0503  0.2868
  517SOL    HW1 2066   0.530   2.509   2.091  1.6836  1.4581 -0.1185
  517SOL    HW2 2067   0.508   2.361   2.125  1.6459  1.8122 -1.8260
  517SOL     MW 2068   0.565   2.432   2.117  0.2364  0.3945 -0.0455
  518SOL     OW 2069   1.788   0.217   3.066  0.1540  0.4096  0.3815
  518SOL    HW1 2070   1.765   0.282   3.008  1.5037 -0.5670 -0.7953
  518SOL    HW2 2071   1.751   0.242   3.153  0.6251  1.8459 -1.0811
  518SOL     MW 2072   1.780   0.229   3.070  0.3943  0.4703  0.0332
  519SOL     OW 2073   0.719   2.374   1.759 -0.2874  0.4745  0.0455
  519SOL    HW1 2074   0.777   2.301   1.767 -1.5358 -0.1509 -1.4619
  519SOL    HW2 2075   0.671   2.377   1.674 -2.2171  0.1439 -0.4317
  519SOL     MW 2076   0.720   2.365   1.749 -0.7067  0.3484 -0.2163
  520SOL     OW 2077   1.282   2.107   2.946 -0.2485  0.1774 -0.4159
  520SOL    HW1 2078   1.189   2.079   2.927  0.8705 -2.7538 -0.5251
  520SOL    HW2 2079   1.293   2.061   3.034 -1.5949  0.1956  0.2438
  520SOL     MW 2080   1.271   2.097   2.955 -0.2785 -0.2070 -0.3433
  521SOL     OW 2081   1.713   2.001   2.198  0.3590  0.1888  0.4742
  521SOL    HW1 2082   1.734   2.010   2.106  0.8958 -3.6868  2.6373
  521SOL    HW2 2083   1.749   1.912   2.217 -3.0951 -1.5377 -0.7450
  521SOL     MW 2084   1.720   1.990   2.189 -0.0259 -0.5503  0.5987
  522SOL     OW 2085   2.874   2.564   2.223 -0.0257  0.5637  0.4907
  522SOL    HW1 2086   2.946   2.511   2.258  3.3905  1.8222 -0.2686
  522SOL    HW2 2087   2.863   2.619   2.306 -1.8864 -0.2500  0.0688
  522SOL     MW 2088   2.882   2.564   2.239  0.1795  0.6224  0.3348
  523SOL     OW 2089   0.915   1.535   2.169 -0.2907 -0.6684 -0.6340
  523SOL    HW1 2090   0.882   1.570   2.084 -1.4473 -0.2600  0.9168
  523SOL    HW2 2091   0.960   1.455   2.149 -2.4383  0.5072  0.8898
  523SOL     MW 2092   0.917   1.529   2.155 -0.7267 -0.4594 -0.2283
  524SOL     OW 2093   0.677   2.403   2.949 -0.0199 -0.5512 -0.6768
  524SOL    HW1 2094   0.712   2.416   2.861 -3.5050  1.1878  1.2965
  524SOL    HW2 2095   0.696   2.311   2.966  1.7194  0.4414 -0.8337
  524SOL     MW 2096   0.684   2.392   2.939 -0.2502 -0.1908 -0.4371
  525SOL     OW 2097   0.342   2.296   2.063  0.4796 -0.3785 -0.0112
  525SOL    HW1 2098   0.318   2.243   2.137  1.8048  2.3640 -0.3680
  525SOL    HW2 2099   0.354   2.233   1.995 -0.0979  0.0429  3.0766
  525SOL     MW 2100   0.340   2.281   2.064  0.5783  0.0389  0.3491
  526SOL     OW 2101   0.662   2.106   2.009  0.3304 -0.0329  0.0048
  526SOL    HW1 2102   0.727   2.088   1.944 -1.0297  1.8374  0.3454
  526SOL    HW2 2103   0.700   2.174   2.058  2.2017 -0.9943 -0.2410
  526SOL     MW 2104   0.675   2.112   2.007  0.3979  0.0870  0.0173
  527SOL     OW 2105   1.435   2.032   2.067  0.0633 -0.1322 -0.2415
  527SOL    HW1 2106   1.428   2.019   2.160  2.1914  1.8781 -1.8732
  527SOL    HW2 2107   1.432   1.942   2.032  0.0383 -0.1301 -0.8904
  527SOL     MW 2108   1.433   2.019   2.075  0.3408  0.1333 -0.5424
  528SOL     OW 2109   0.642   2.904   2.899 -0.2364  0.8129 -0.1316
  528SOL    HW1 2110   0.640   2.995   2.928  1.1783 -0.3389 -0.2243
  528SOL    HW2 2111   0.619   2.908   2.807 -0.5472 -0.3434 -0.2518
  528SOL     MW 2112   0.639   2.917   2.890 -0.0908  0.5084 -0.1597
  529SOL     OW 2113   1.060   2.293   1.845 -0.2816  0.5090 -0.2877
  529SOL    HW1 2114   1.078   2.321   1.932 -2.1145  3.0255  0.6109
  529SOL    HW2 2115   1.087   2.383   1.811 -0.8880  1.3974  2.2634
  529SOL     MW 2116   1.066   2.308   1.852 -0.6034  0.9582  0.1674
  530SOL     OW 2117   1.189   2.405   3.018  0.2740  0.0526 -0.0442
  530SOL    HW1 2118   1.136   2.417   3.095  0.6862 -0.3542 -2.6417
  530SOL    HW2 2119   1.209   2.311   3.011 -0.5090 -0.3022 -1.9866
  530SOL     MW 2120   1.185   2.394   3.027  0.2250 -0.0479 -0.6432
  531SOL     OW 2121   0.903   1.871   2.574  0.1551 -0.0026 -0.0618
  531SOL    HW1 2122   0.947   1.947   2.610  1.5043  1.7029  2.9944
  531SOL    HW2 2123   0.892   1.809   2.651  0.9681 -2.1906 -0.7959
  531SOL     MW 2124   0.908   1.873   2.589  0.4404 -0.0663  0.2445
  532SOL     OW 2125   1.731   0.301   2.811  0.5529 -0.4210  0.4142
  532SOL    HW1 2126   1.761   0.210   2.794  1.4422  0.4939 -3.0864
  532SOL    HW2 2127   1.812   0.353   2.823  2.2825  0.0099 -3.4826
  532SOL     MW 2128   1.746   0.296   2.811  0.8984 -0.2434 -0.5618
  533SOL     OW 2129   1.882   2.626   3.067 -0.5655  0.3065 -0.1186
  533SOL    HW1 2130   1.865   2.544   3.124 -1.3222 -0.6674  1.8672
  533SOL    HW2 2131   1.817   2.636   2.998  3.2129 -0.3670 -0.1571
  533SOL     MW 2132   1.871   2.616   3.066 -0.1668  0.0891  0.1383
  534SOL     OW 2133   1.728   2.406   2.544 -0.0264 -0.2473  0.3220
  534SOL    HW1 2134   1.659   2.348   2.583 -1.6890  0.3563  0.8033
  534SOL    HW2 2135   1.806   2.405   2.606  1.2276 -1.8153 -0.4970
  534SOL     MW 2136   1.729   2.398   2.558 -0.0803 -0.3746  0.2774
  535SOL     OW 2137   1.914   2.398   1.865 -0.1735 -0.3565  0.4754
  535SOL    HW1 2138   1.856   2.402   1.782 -0.4304 -2.4276 -0.7873
  535SOL    HW2 2139   2.004   2.417   1.841 -1.1833  3.1869  0.6576
  535SOL     MW 2140   1.918   2.401   1.851 -0.3406 -0.1623  0.3328
  536SOL     OW 2141   0.439   1.842   2.092 -0.4326 -0.1400  0.3307
  536SOL    HW1 2142   0.466   1.782   2.017  0.2424 -1.5939 -0.5184
  536SOL    HW2 2143   0.513   1.904   2.103 -0.7369 -1.1963 -1.1282
  536SOL     MW 2144   0.452   1.842   2.084 -0.3837 -0.4712  0.0262
  537SOL     OW 2145   1.092   0.227   2.847  0.1699 -0.0329 -0.2973
  537SOL    HW1 2146   1.015   0.283   2.867  1.8395 -1.3328  1.3089
  537SOL    HW2 2147   1.118   0.280   2.776  0.0635  0.4506  0.8543
  537SOL     MW 2148   1.085   0.241   2.840  0.3762 -0.1406  0.0665
  538SOL     OW 2149   1.337   0.073   3.087  0.1517 -0.3898  0.0686
  538SOL    HW1 2150   1.331   0.166   3.068 -1.3898  1.1244 -1.8961
  538SOL    HW2 2151   1.385   0.040   3.008  2.3681  0.5060  0.0533
  538SOL     MW 2152   1.342   0.081   3.074  0.2407 -0.0718 -0.1926
  539SOL     OW 2153   0.701   2.785   2.489  0.6311 -0.3235  0.8726
  539SOL    HW1 2154   0.784   2.821   2.526  0.2876 -0.7549  0.8069
  539SOL    HW2 2155   0.681   2.705   2.539 -0.7893 -0.3840 -0.4912
  539SOL     MW 2156   0.709   2.779   2.500  0.3983 -0.3884  0.6840
  540SOL     OW 2157   0.404   2.498   2.896 -0.3508 -0.3867 -0.2128
  540SOL    HW1 2158   0.473   2.507   2.962 -0.0652  3.4134 -1.0097
  540SOL    HW2 2159   0.331   2.447   2.932  1.2283  1.4652  0.3232
  540SOL     MW 2160   0.403   2.493   2.909 -0.1048  0.3591 -0.2472
  541SOL     OW 2161   0.197   2.918   2.196 -0.1233  0.4505  0.2850
  541SOL    HW1 2162   0.161   2.842   2.160  1.9578 -0.3995 -0.7398
  541SOL    HW2 2163   0.224   2.890   2.281 -1.3832 -1.0288  2.5079
  541SOL     MW 2164   0.196   2.904   2.202 -0.0150  0.1432  0.4431
  542SOL     OW 2165   1.042   2.301   2.658  0.3781  0.0750  0.0030
  542SOL    HW1 2166   1.074   2.243   2.724 -0.4910  1.0760 -0.5139
  542SOL    HW2 2167   1.056   2.391   2.696 -0.1727  1.8280  0.3722
  542SOL     MW 2168   1.048   2.305   2.672  0.1908  0.4383 -0.0165
  543SOL     OW 2169   1.612   2.439   2.896  0.4914  0.0112  0.3502
  543SOL    HW1 2170   1.575   2.385   2.828 -0.8617 -1.1657 -0.1446
  543SOL    HW2 2171   1.647   2.512   2.847  2.1988  0.5726  3.5672
  543SOL     MW 2172   1.612   2.441   2.881  0.5381 -0.0700  0.7094
  544SOL     OW 2173   0.714   0.231   2.723 -0.2107  0.1331 -0.3619
  544SOL    HW1 2174   0.619   0.243   2.722 -1.3792  1.1126  0.3422
  544SOL    HW2 2175   0.721   0.164   2.653  1.4528 -0.9169 -1.6205
  544SOL     MW 2176   0.702   0.224   2.714 -0.1454  0.1238 -0.4351
  545SOL     OW 2177   1.550   2.172   2.359 -0.2180 -0.2802  0.1054
  545SOL    HW1 2178   1.556   2.254   2.307 -2.7440 -2.0704  0.0033
  545SOL    HW2 2179   1.596   2.109   2.294  0.5924  2.7874 -1.5410
  545SOL     MW 2180   1.557   2.174   2.344 -0.4444 -0.1117 -0.1253
  546SOL     OW 2181   2.981   1.999   0.123 -0.6598 -0.4971 -0.0235
  546SOL    HW1 2182   2.973   2.092   0.091 -2.6661  0.6242 -1.0379
  546SOL    HW2 2183   3.066   1.970   0.088 -0.8790  0.2172  0.1435
  546SOL     MW 2184   2.991   2.008   0.114 -0.9534 -0.2549 -0.1353
  547SOL     OW 2185   0.232   0.047   0.050 -0.8772  0.4186  0.1277
  547SOL    HW1 2186   0.290   0.044  -0.032  2.2020 -0.0611 -2.6527
  547SOL    HW2 2187   0.155  -0.006   0.019 -2.0084  0.3522  0.1427
  547SOL     MW 2188   0.230   0.040   0.035 -0.6202  0.3465 -0.2372
  548SOL     OW 2189   0.302   2.509   0.276  0.0885  0.6410  0.1824
  548SOL    HW1 2190   0.313   2.560   0.199  0.2336 -3.5566  2.0436
  548SOL    HW2 2191   0.210   2.492   0.258 -1.3345  1.8455  0.3896
  548SOL     MW 2192   0.292   2.513   0.263 -0.0801  0.2461  0.4553
  549SOL     OW 2193   0.798   1.873   2.123  0.0313  0.0055 -0.3314
  549SOL    HW1 2194   0.737   1.943   2.086 -1.8299  1.0240 -1.0171
  549SOL    HW2 2195   0.784   1.874   2.219  0.3364 -0.2870 -0.6183
  549SOL     MW 2196   0.788   1.882   2.131 -0.1740  0.1013 -0.4597
  550SOL     OW 2197   1.785   1.737   2.547 -0.2066  0.1427  0.0423
  550SOL    HW1 2198   1.792   1.752   2.450  3.5689 -3.1972  0.2137
  550SOL    HW2 2199   1.791   1.827   2.586 -1.6251 -0.5648 -0.6519
  550SOL     MW 2200   1.787   1.751   2.539  0.1044 -0.3913 -0.0267
  551SOL     OW 2201   0.894   2.279   0.210  0.6860  0.3253  0.6140
  551SOL    HW1 2202   0.985   2.267   0.184  0.3432 -0.8815 -0.4608
  551SOL    HW2 2203   0.858   2.201   0.161  3.2144 -0.9300  3.4475
  551SOL     MW 2204   0.901   2.267   0.200  0.9744  0.0005  0.8460
  552SOL     OW 2205   1.763   1.749   2.264  0.4120  1.1533 -0.3201
  552SOL    HW1 2206   1.665   1.741   2.266 -2.4077 -0.6390 -1.8953
  552SOL    HW2 2207   1.787   1.667   2.209 -3.4090  1.6656  0.8276
  552SOL     MW 2208   1.753   1.737   2.257 -0.4641  0.9844 -0.3765
  553SOL     OW 2209   1.282   2.326   1.561 -0.1842 -0.3952  0.5624
  553SOL    HW1 2210   1.287   2.235   1.545  0.5200  1.5359  0.8309
  553SOL    HW2 2211   1.341   2.360   1.492  0.3746 -1.2789  1.5904
  553SOL     MW 2212   1.290   2.318   1.550 -0.0175 -0.2570  0.7334
  554SOL     OW 2213   0.536   2.933   2.639  0.3802  0.2039  0.0562
  554SOL    HW1 2214   0.509   3.016   2.584 -1.0322  0.6557  1.4227
  554SOL    HW2 2215   0.573   2.878   2.569 -2.3833 -1.2410  1.9516
  554SOL     MW 2216   0.537   2.937   2.623 -0.1707  0.0729  0.4866
  555SOL     OW 2217   0.614   2.458   2.476 -0.2690 -0.5108  0.2697
  555SOL    HW1 2218   0.575   2.366   2.481 -0.5438 -2.4332  1.2036
  555SOL    HW2 2219   0.702   2.443   2.455 -2.3201  2.4858  4.0769
  555SOL     MW 2220   0.620   2.444   2.474 -0.5759 -0.3691  0.8953
  556SOL     OW 2221   0.964   1.855   0.081 -0.2974 -0.4213 -0.1234
  556SOL    HW1 2222   1.005   1.822   0.004 -0.3646 -0.8214 -0.8629
  556SOL    HW2 2223   1.039   1.877   0.137 -0.9123 -2.4533  3.9390
  556SOL     MW 2224   0.980   1.854   0.078 -0.3874 -0.7422  0.3150
  557SOL     OW 2225   0.971   2.653   0.493  0.1941  0.3872 -0.5882
  557SOL    HW1 2226   1.025   2.592   0.449  0.9370  2.2676  1.3228
  557SOL    HW2 2227   0.937   2.708   0.428  4.5575  0.0678  2.4044
  557SOL     MW 2228   0.974   2.652   0.478  0.8678  0.5931  0.0588
  558SOL     OW 2229   0.213   2.328   3.003 -0.1390 -0.1289  0.3236
  558SOL    HW1 2230   0.134   2.303   2.956  2.2305 -1.0520 -2.5247
  558SOL    HW2 2231   0.177   2.369   3.080  2.6661  0.4671  1.3509
  558SOL     MW 2232   0.198   2.330   3.007  0.5437 -0.1721  0.0834
  559SOL     OW 2233   1.071   2.342   2.124  0.2919 -0.5875  0.0351
  559SOL    HW1 2234   1.122   2.358   2.202  0.8133 -0.3289  1.8202
  559SOL    HW2 2235   1.049   2.251   2.141 -0.2938 -0.2864  0.2958
  559SOL     MW 2236   1.075   2.332   2.137  0.2834 -0.5137  0.3050
  560SOL     OW 2237   1.977   2.892   0.016  0.0557  0.0476 -0.2494
  560SOL    HW1 2238   2.048   2.923  -0.036 -2.8814  0.8082  1.2990
  560SOL    HW2 2239   1.971   2.796  -0.005 -0.6687 -2.2143  1.0865
  560SOL     MW 2240   1.985   2.883   0.006 -0.4274 -0.1505  0.1312
  561SOL     OW 2241   0.360   2.128   0.046 -0.5738 -0.4718  0.1186
  561SOL    HW1 2242   0.315   2.185  -0.016  0.5164 -1.2562 -2.7551
  561SOL    HW2 2243   0.415   2.191   0.100 -0.5535  2.0862 -0.3905
  561SOL     MW 2244   0.361   2.144   0.045 -0.4273 -0.2378 -0.3277
  562SOL     OW 2245   0.696   2.231   2.275  0.2000  0.4057  0.4755
  562SOL    HW1 2246   0.679   2.321   2.299 -0.2308  1.2889  1.4838
  562SOL    HW2 2247   0.793   2.224   2.265 -2.3077  1.9295 -0.3957
  562SOL     MW 2248   0.706   2.242   2.277 -0.1877  0.7232  0.4936
  563SOL     OW 2249   1.252   0.326   0.568 -0.0173  0.5200  0.5468
  563SOL    HW1 2250   1.194   0.261   0.527  0.8169 -0.2062  1.6346
  563SOL    HW2 2251   1.229   0.327   0.662 -1.5833  0.0159 -2.4653
  563SOL     MW 2252   1.241   0.317   0.575 -0.1139  0.3577  0.2929
  564SOL     OW 2253   1.167   2.563   2.350 -0.0770  0.9338  0.3508
  564SOL    HW1 2254   1.152   2.610   2.269 -1.1837  0.8814  2.6598
  564SOL    HW2 2255   1.167   2.625   2.420 -0.6529  1.7189  3.3328
  564SOL     MW 2256   1.165   2.577   2.349 -0.2990  1.0304  1.0489
  565SOL     OW 2257   2.801   2.769   2.650 -0.5780 -0.2990  0.1843
  565SOL    HW1 2258   2.811   2.858   2.619 -1.2944  0.7246  0.4633
  565SOL    HW2 2259   2.778   2.714   2.573 -2.0884 -1.6922 -1.6539
  565SOL     MW 2260   2.799   2.774   2.636 -0.8718 -0.3478 -0.0214
  566SOL     OW 2261   2.124   1.822   2.414  0.0881 -0.0446  0.3244
  566SOL    HW1 2262   2.133   1.749   2.352  0.8207  0.0355 -0.0629
  566SOL    HW2 2263   2.183   1.900   2.384 -0.4695  1.4338  1.7819
  566SOL     MW 2264   2.133   1.823   2.402  0.1112  0.1611  0.4656
  567SOL     OW 2265   1.131   2.956   3.049 -1.0567  0.8713  0.4904
  567SOL    HW1 2266   1.189   3.027   3.086  0.1311  0.2191  3.1324
  567SOL    HW2 2267   1.191   2.889   3.013 -0.9104 -3.6013  0.7264
  567SOL     MW 2268   1.146   2.956   3.049 -0.8807  0.1952  0.8701
  568SOL     OW 2269   1.625   2.074   2.873 -0.1062 -0.0422 -0.2499
  568SOL    HW1 2270   1.670   2.146   2.923  1.1151  0.3822 -1.4101
  568SOL    HW2 2271   1.688   2.034   2.819  0.6385 -0.2376  1.3360
  568SOL     MW 2272   1.639   2.078   2.872  0.1532 -0.0119 -0.1937
  569SOL     OW 2273   0.166   2.285   2.478  0.1109  0.2957  0.7713
  569SOL    HW1 2274   0.097   2.325   2.422 -0.8605 -0.0671  1.9308
  569SOL    HW2 2275   0.196   2.356   2.531 -1.1425  1.0046  0.6168
  569SOL     MW 2276   0.161   2.299   2.478 -0.1827  0.3414  0.9039
  570SOL     OW 2277   1.499   0.362   0.500 -0.1893 -0.0632  0.0488
  570SOL    HW1 2278   1.403   0.355   0.534 -1.7333 -0.6025 -2.7354
  570SOL    HW2 2279   1.556   0.346   0.578  0.3795 -0.3548  0.9726
  570SOL     MW 2280   1.494   0.359   0.515 -0.3180 -0.1728 -0.1966
  571SOL     OW 2281   1.391   2.419   2.023 -0.9960 -0.1949  0.5752
  571SOL    HW1 2282   1.416   2.437   2.113  1.0601 -0.6604 -0.2442
  571SOL    HW2 2283   1.459   2.360   1.981  0.9877 -2.2032 -1.8483
  571SOL     MW 2284   1.403   2.414   2.030 -0.4630 -0.5213  0.1473
  572SOL     OW 2285   1.058   2.592   0.112  0.5117  0.4680 -0.2024
  572SOL    HW1 2286   1.055   2.683   0.086 -0.5194 -0.1980 -1.1362
  572SOL    HW2 2287   0.964   2.571   0.106 -3.9217  0.7662  1.3306
  572SOL     MW 2288   1.045   2.601   0.108 -0.2093  0.4195 -0.1233
  573SOL     OW 2289   1.186   2.295   0.210  0.1081 -0.2429  0.2907
  573SOL    HW1 2290   1.278   2.294   0.174  0.7543  0.4884  0.1277
  573SOL    HW2 2291   1.182   2.371   0.269  0.7584  1.4699  1.0909
  573SOL     MW 2292   1.198   2.305   0.213  0.2792  0.0796  0.3748
  574SOL     OW 2293   1.170   2.531   0.352  0.3871  0.1658 -0.1577
  574SOL    HW1 2294   1.247   2.571   0.397  0.3809  0.9254 -2.8905
  574SOL    HW2 2295   1.145   2.590   0.282 -0.0672  2.8326 -0.3832
  574SOL     MW 2296   1.177   2.544   0.349  0.3263  0.6179 -0.5480
  575SOL     OW 2297   3.052   2.194   1.810 -0.8955  0.2565  0.2737
  575SOL    HW1 2298   3.089   2.125   1.754  0.4549  0.3398 -1.2633
  575SOL    HW2 2299   3.130   2.254   1.806 -0.3814 -2.6125  1.7333
  575SOL     MW 2300   3.067   2.193   1.802 -0.6495 -0.1110  0.2635
  576SOL     OW 2301   2.807   1.810   2.049 -0.1519  0.1592 -0.7610
  576SOL    HW1 2302   2.824   1.892   2.006  0.4964  0.7530 -0.4488
  576SOL    HW2 2303   2.708   1.793   2.033  0.1335 -1.0675  0.8723
  576SOL     MW 2304   2.797   1.819   2.041 -0.0287  0.0757 -0.5043
  577SOL     OW 2305   2.048   0.190   0.063  0.5824  0.0406  0.1845
  577SOL    HW1 2306   1.968   0.214   0.006 -1.4226  0.0675  1.0425
  577SOL    HW2 2307   2.016   0.155   0.152  0.9343 -2.2467  1.1701
  577SOL     MW 2308   2.033   0.188   0.067  0.3643 -0.2576  0.4277
  578SOL     OW 2309   1.938   2.037   2.351 -0.9157  0.2479 -0.1271
  578SOL    HW1 2310   1.867   2.032   2.283  2.2085  2.1300 -0.3036
  578SOL    HW2 2311   1.998   1.958   2.355  0.1596 -1.9465  1.6280
  578SOL     MW 2312   1.936   2.026   2.342 -0.3616  0.2067  0.0812
  579SOL     OW 2313   0.933   2.426   2.436  0.5812  0.4413 -0.1303
  579SOL    HW1 2314   0.971   2.386   2.510  1.8896  2.1362  0.9253
  579SOL    HW2 2315   1.002   2.481   2.401  1.3896 -2.0043  1.9017
  579SOL     MW 2316   0.947   2.428   2.441  0.8605  0.3423  0.2771
  580SOL     OW 2317   0.910   2.838   0.028 -0.2474 -0.4834  0.3039
  580SOL    HW1 2318   0.989   2.894   0.011 -0.0414  0.0964  0.3154
  580SOL    HW2 2319   0.907   2.778  -0.043  0.2428 -0.7471 -0.5143
  580SOL     MW 2320   0.920   2.838   0.016 -0.1555 -0.4417  0.1974
  581SOL     OW 2321   1.130   2.534   1.680  0.2069  0.1338  0.4083
  581SOL    HW1 2322   1.191   2.575   1.740 -2.8300 -0.3159 -1.5803
  581SOL    HW2 2323   1.170   2.444   1.653  2.0469 -3.0883 -2.5161
  581SOL     MW 2324   1.143   2.528   1.684  0.0490 -0.3506 -0.2399
  582SOL     OW 2325   0.040   2.786   2.658  0.3876 -0.4501  0.7860
  582SOL    HW1 2326  -0.009   2.856   2.703 -3.5972 -0.6828  1.3714
  582SOL    HW2 2327   0.130   2.824   2.650 -0.6935  2.6390  1.6055
  582SOL     MW 2328   0.046   2.801   2.663 -0.2808 -0.0733  0.9714
  583SOL     OW 2329   1.989   2.407   2.661  0.0179  0.0294  0.1649
  583SOL    HW1 2330   2.050   2.451   2.604 -1.1389  0.6169 -0.5086
  583SOL    HW2 2331   1.987   2.314   2.643  1.5489  1.3815  0.1779
  583SOL     MW 2332   1.997   2.400   2.651  0.0673  0.2853  0.0778
  584SOL     OW 2333   0.115   1.895   2.221  0.2102  0.7195 -0.9234
  584SOL    HW1 2334   0.172   1.831   2.271 -0.3059  1.8127  2.8452
  584SOL    HW2 2335   0.163   1.980   2.234 -0.6941  0.9057 -1.0347
  584SOL     MW 2336   0.129   1.898   2.230  0.0228  0.8883 -0.4408
  585SOL     OW 2337   1.570   2.563   0.228  0.4089 -0.8089 -0.1301
  585SOL    HW1 2338   1.515   2.554   0.146 -1.7969 -1.4862 -1.7087
  585SOL    HW2 2339   1.504   2.572   0.302 -2.0325 -0.3255 -0.1929
  585SOL     MW 2340   1.554   2.563   0.227 -0.2043 -0.8345 -0.3467
  586SOL     OW 2341   1.388   2.858   2.576  0.5529 -0.0618  0.2146
  586SOL    HW1 2342   1.434   2.834   2.496 -1.4514 -0.3163  0.2099
  586SOL    HW2 2343   1.334   2.941   2.552 -1.5733  2.1602 -0.3656
  586SOL     MW 2344   1.387   2.866   2.562  0.0079  0.1978  0.1374
  587SOL     OW 2345   1.362   1.531   2.157  0.4230 -0.4101  0.0078
  587SOL    HW1 2346   1.306   1.488   2.231 -1.5429 -0.1620 -1.0728
  587SOL    HW2 2347   1.356   1.468   2.085  1.2441 -1.2851 -1.0332
  587SOL     MW 2348   1.354   1.517   2.158  0.2719 -0.4928 -0.2721
  588SOL     OW 2349   1.347   2.053   2.678  0.2834  0.3215  0.5582
  588SOL    HW1 2350   1.353   1.955   2.689  0.6782  1.1396 -1.3749
  588SOL    HW2 2351   1.315   2.084   2.762  0.9377 -0.4846 -0.7494
  588SOL     MW 2352   1.343   2.045   2.691  0.4218  0.3231  0.1306
  589SOL     OW 2353   1.392   2.020   0.114  0.3833  0.1284 -0.5178
  589SOL    HW1 2354   1.391   2.110   0.134 -0.5885  0.1673 -1.9718
  589SOL    HW2 2355   1.320   1.986   0.168  0.2420 -0.4745 -2.8027
  589SOL     MW 2356   1.382   2.028   0.124  0.2364  0.0540 -1.0111
  590SOL     OW 2357   0.506   2.785   2.209  0.5256  0.0262 -0.0203
  590SOL    HW1 2358   0.488   2.717   2.141  3.3356  1.0159  0.9244
  590SOL    HW2 2359   0.602   2.782   2.215 -1.3672 -1.0356 -1.7673
  590SOL     MW 2360   0.516   2.776   2.200  0.6466  0.0167 -0.1262
  591SOL     OW 2361   2.239   0.680   0.023  0.2980  0.4969  0.1621
  591SOL    HW1 2362   2.164   0.741  -0.010  0.5371 -0.3638  2.8185
  591SOL    HW2 2363   2.302   0.667  -0.051 -0.4397 -2.1670  3.1612
  591SOL     MW 2364   2.237   0.686   0.009  0.2323  0.0319  0.9083
  592SOL     OW 2365   1.732   2.936   0.778 -0.0702 -0.0649  0.0125
  592SOL    HW1 2366   1.766   3.021   0.740  0.3396 -0.2198 -0.8234
  592SOL    HW2 2367   1.813   2.889   0.790  0.8942  0.6820 -1.1667
  592SOL     MW 2368   1.747   2.941   0.775  0.1111  0.0132 -0.2533
  593SOL     OW 2369   1.962   0.625   0.862 -0.4074  0.3636 -0.2171
  593SOL    HW1 2370   1.882   0.621   0.809  0.3233 -0.3520 -0.8076
  593SOL    HW2 2371   2.032   0.571   0.825 -0.2386  0.2951 -1.3884
  593SOL     MW 2372   1.961   0.618   0.850 -0.2887  0.2602 -0.4495
  594SOL     OW 2373   2.775   1.152   1.373  0.0086 -0.0171 -0.3652
  594SOL    HW1 2374   2.876   1.168   1.380  3.3034 -1.7312  0.2965
  594SOL    HW2 2375   2.769   1.083   1.306  0.5850 -0.6143  0.1875
  594SOL     MW 2376   2.788   1.145   1.365  0.5194 -0.3220 -0.2050
  595SOL     OW 2377   0.482   0.981   0.808  0.0562 -0.2439 -0.2588
  595SOL    HW1 2378   0.506   1.042   0.730  1.5773  2.4973  0.0856
  595SOL    HW2 2379   0.492   1.037   0.883  0.7019 -3.2386  2.8472
  595SOL     MW 2380   0.486   0.997   0.808  0.3421 -0.2774  0.1964
  596SOL     OW 2381   2.472   1.322   0.571 -0.7044  0.4031  0.0470
  596SOL    HW1 2382   2.519   1.393   0.526 -0.9417 -1.3456  0.0769
  596SOL    HW2 2383   2.530   1.290   0.645 -2.0622  1.3355 -1.5876
  596SOL     MW 2384   2.486   1.327   0.575 -0.9149  0.2954 -0.1647
  597SOL     OW 2385   2.183   0.685   1.630  0.2608 -0.3674  0.4301
  597SOL    HW1 2386   2.187   0.622   1.698 -0.5540 -0.1167 -0.0995
  597SOL    HW2 2387   2.110   0.652   1.576  0.8628  0.7789 -4.8346
  597SOL     MW 2388   2.174   0.672   1.632  0.2327 -0.1831 -0.3344
  598SOL     OW 2389   2.548   1.027   2.790 -0.2291 -0.1639  0.6687
  598SOL    HW1 2390   2.563   0.999   2.701  2.4234  1.5436 -0.3082
  598SOL    HW2 2391   2.634   1.047   2.826 -0.2078 -0.4290  4.2773
  598SOL     MW 2392   2.561   1.026   2.783  0.1237  0.0264  1.0159
  599SOL     OW 2393   2.982   0.406   2.087 -0.0866  0.2712 -0.3574
  599SOL    HW1 2394   3.039   0.427   2.164 -1.1942  0.5102  1.7914
  599SOL    HW2 2395   2.986   0.482   2.025 -0.4906 -2.6764 -2.5984
  599SOL     MW 2396   2.990   0.419   2.089 -0.2861 -0.0861 -0.3696
  600SOL     OW 2397   1.836   1.633   0.907 -0.0424  0.2907 -0.0671
  600SOL    HW1 2398   1.897   1.673   0.972 -0.5751  0.0930  2.0189
  600SOL    HW2 2399   1.778   1.705   0.870 -3.4169  0.7069  1.6304
  600SOL     MW 2400   1.836   1.648   0.911 -0.5579  0.3195  0.4321
  601SOL     OW 2401   2.528   0.779   0.824  0.4013  0.0511  0.2826
  601SOL    HW1 2402   2.534   0.787   0.921  0.3126 -0.5755 -1.2089
  601SOL    HW2 2403   2.452   0.732   0.799  1.2525  0.6595 -2.4651
  601SOL     MW 2404   2.519   0.774   0.833  0.5019  0.0487 -0.2767
  602SOL     OW 2405   2.276   1.961   0.749  0.2749 -0.4783 -0.4467
  602SOL    HW1 2406   2.273   1.868   0.716  0.2730 -1.7009  0.7263
  602SOL    HW2 2407   2.205   2.008   0.704  1.3095 -1.4308 -2.0249
  602SOL     MW 2408   2.266   1.955   0.739  0.4111 -0.7653 -0.5002
  603SOL     OW 2409   3.086   1.397   1.939 -0.5501  0.2287  0.5287
  603SOL    HW1 2410   3.166   1.448   1.960  0.2270  2.2778  1.8638
  603SOL    HW2 2411   3.115   1.303   1.954 -2.2752 -1.4517  2.4393
  603SOL     MW 2412   3.100   1.391   1.944 -0.6752  0.2773  0.9569
  604SOL     OW 2413   2.080   1.488   0.473 -0.0308 -1.1631  0.4341
  604SOL    HW1 2414   2.132   1.413   0.513  2.0227  0.1529  1.1965
  604SOL    HW2 2415   2.009   1.506   0.537  1.2903 -0.8827 -2.8126
  604SOL     MW 2416   2.077   1.480   0.486  0.4144 -0.9525  0.1063
  605SOL     OW 2417   2.522   1.496   0.895  0.4392 -0.3918  0.1789
  605SOL    HW1 2418   2.539   1.560   0.832 -1.7166 -1.2892  2.0229
  605SOL    HW2 2419   2.560   1.416   0.855  1.0474  1.0099  0.1804
  605SOL     MW 2420   2.529   1.494   0.882  0.2350 -0.3253  0.4224
  606SOL     OW 2421   2.543   1.744   2.036 -0.0748  0.5833 -0.1648
  606SOL    HW1 2422   2.454   1.770   2.022  1.0117 -0.1318 -0.1519
  606SOL    HW2 2423   2.569   1.684   1.966 -0.7212  1.7577  1.1585
  606SOL     MW 2424   2.535   1.739   2.025 -0.0167  0.6439  0.0115
  607SOL     OW 2425   2.395   1.038   3.022 -0.5124 -0.1022  0.1198
  607SOL    HW1 2426   2.460   1.032   2.953  0.1433 -3.1716  2.3948
  607SOL    HW2 2427   2.430   0.996   3.105  1.5278 -0.2514  0.1119
  607SOL     MW 2428   2.408   1.032   3.024 -0.1567 -0.5268  0.4189
  608SOL     OW 2429   1.848   0.288   0.560  0.1920  0.1077  0.0811
  608SOL    HW1 2430   1.874   0.348   0.485  2.3490 -2.7063 -0.3471
  608SOL    HW2 2431   1.803   0.209   0.520 -3.2769 -2.1223 -1.0134
  608SOL     MW 2432   1.846   0.285   0.545  0.0189 -0.5578 -0.1198
  609SOL     OW 2433   2.110   1.963   3.068  0.5407 -0.0403  0.2984
  609SOL    HW1 2434   2.048   1.896   3.047 -0.5799 -1.6621  0.6706
  609SOL    HW2 2435   2.121   1.943   3.166 -0.2474 -2.5827  1.3796
  609SOL     MW 2436   2.103   1.951   3.078  0.2889 -0.5898  0.4902
  610SOL     OW 2437   1.831   0.944   1.228  0.3739 -0.5788 -0.0577
  610SOL    HW1 2438   1.842   0.859   1.192 -1.1006  0.7550  1.2351
  610SOL    HW2 2439   1.738   0.961   1.207  0.8382 -2.2445  0.8850
  610SOL     MW 2440   1.820   0.935   1.220  0.2406 -0.6226  0.2373
  611SOL     OW 2441   2.516   1.649   0.677 -0.8900 -0.0276  0.1978
  611SOL    HW1 2442   2.566   1.719   0.641  1.2404  0.2674 -0.2562
  611SOL    HW2 2443   2.424   1.667   0.672  0.6496 -0.2633 -2.7871
  611SOL     MW 2444   2.511   1.660   0.672 -0.4058 -0.0198 -0.2559
  612SOL     OW 2445   2.829   2.895   0.373 -0.3158 -0.1434  0.2956
  612SOL    HW1 2446   2.863   2.921   0.458 -0.3243  1.2965  0.4502
  612SOL    HW2 2447   2.910   2.873   0.327  0.4642  0.4941 -2.9850
  612SOL     MW 2448   2.844   2.896   0.378 -0.2140  0.1307 -0.1169
  613SOL     OW 2449   1.444   1.056   0.927  0.1075 -0.2316  0.2735
  613SOL    HW1 2450   1.444   1.152   0.924 -0.7645  0.6726  0.5113
  613SOL    HW2 2451   1.489   1.038   1.012  1.7308  1.2567 -1.8458
  613SOL     MW 2452   1.450   1.066   0.938  0.2066  0.0841  0.0253
  614SOL     OW 2453   1.981   0.520   1.506  0.3952 -0.8607  0.2843
  614SOL    HW1 2454   1.950   0.437   1.554 -0.8661  1.1323 -2.0069
  614SOL    HW2 2455   1.961   0.494   1.414  0.5350 -2.2264 -0.8937
  614SOL     MW 2456   1.974   0.506   1.500  0.2472 -0.7779 -0.1734
  615SOL     OW 2457   2.323   0.753   0.286  0.3944 -0.7632  0.2496
  615SOL    HW1 2458   2.374   0.672   0.292  1.4030  0.3926 -0.0216
  615SOL    HW2 2459   2.283   0.745   0.193 -0.2561  0.4368 -2.4576
  615SOL     MW 2460   2.324   0.741   0.275  0.4417 -0.4524 -0.1434
  616SOL     OW 2461   2.518   0.445   1.673  0.0266  0.4338 -0.3471
  616SOL    HW1 2462   2.590   0.392   1.631 -1.5122 -1.8272  1.4065
  616SOL    HW2 2463   2.469   0.488   1.601  0.2420 -0.9997  0.0015
  616SOL     MW 2464   2.521   0.444   1.658 -0.1480 -0.0537 -0.0698
  617SOL     OW 2465   2.833   0.594   1.678  0.7193  0.2531  0.5689
  617SOL    HW1 2466   2.756   0.624   1.718  0.8217  0.7417 -1.5042
  617SOL    HW2 2467   2.846   0.502   1.693  0.7558  3.3312 -0.3315
  617SOL     MW 2468   2.825   0.586   1.685  0.7376  0.7237  0.1766
  618SOL     OW 2469   2.703   0.378   1.981  0.2443  0.3530  0.4734
  618SOL    HW1 2470   2.673   0.458   1.938  2.6864  2.0492  3.4660
  618SOL    HW2 2471   2.769   0.393   2.046 -0.4097 -1.5704  1.5549
  618SOL     MW 2472   2.708   0.391   1.984  0.4803  0.3230  1.0109
  619SOL     OW 2473   2.699   0.714   0.052 -0.3585 -0.0571 -0.0615
  619SOL    HW1 2474   2.705   0.808   0.055 -0.7432 -1.8077 -2.3605
  619SOL    HW2 2475   2.627   0.694   0.113 -1.2327 -0.9144  2.4399
  619SOL     MW 2476   2.690   0.724   0.060 -0.5246 -0.4012 -0.0348
  620SOL     OW 2477   2.249   1.064   0.912  0.3816  0.2753  0.2001
  620SOL    HW1 2478   2.323   1.052   0.857 -1.8403 -1.5769  0.0634
  620SOL    HW2 2479   2.191   1.011   0.855  0.4129  2.9944 -0.8108
  620SOL     MW 2480   2.251   1.056   0.897  0.0926  0.3897  0.0487
  621SOL     OW 2481   1.566   2.233   1.934 -0.4009  0.4677  0.1982
  621SOL    HW1 2482   1.505   2.158   1.949 -1.1668 -1.4269 -0.5144
  621SOL    HW2 2483   1.649   2.198   1.971  1.1243 -1.4331 -0.5174
  621SOL     MW 2484   1.569   2.219   1.941 -0.3007 -0.0331  0.0098
  622SOL     OW 2485   2.654   0.218   0.251  0.0556  0.4695 -0.0952
  622SOL    HW1 2486   2.745   0.258   0.252  2.2258  0.6182  2.5780
  622SOL    HW2 2487   2.665   0.132   0.291 -1.2876  0.8025  0.3150
  622SOL     MW 2488   2.668   0.212   0.256  0.1647  0.5331  0.3116
  623SOL     OW 2489   2.442   2.739   0.872 -0.3831 -0.0395  0.0165
  623SOL    HW1 2490   2.486   2.819   0.853 -2.5246 -2.7552 -0.5339
  623SOL    HW2 2491   2.397   2.771   0.952  0.1139 -1.5309 -1.3084
  623SOL     MW 2492   2.442   2.754   0.880 -0.6001 -0.5946 -0.2309
  624SOL     OW 2493   2.119   1.621   3.030  0.5159 -0.2261 -0.2358
  624SOL    HW1 2494   2.080   1.542   3.069 -2.5335 -1.6604  2.8188
  624SOL    HW2 2495   2.057   1.659   2.970  4.1748 -3.2683  0.3385
  624SOL     MW 2496   2.106   1.616   3.027  0.5963 -0.8167  0.2430
  625SOL     OW 2497   2.219   1.920   1.086 -0.3563  0.4602  0.2565
  625SOL    HW1 2498   2.293   1.900   1.143  0.6631 -0.1488 -0.0145
  625SOL    HW2 2499   2.249   1.953   1.002 -0.8697 -0.2451  1.0127
  625SOL     MW 2500   2.233   1.922   1.082 -0.2895  0.2868  0.3205
  626SOL     OW 2501   0.238   1.768   2.450  0.0219  0.3321 -0.0664
  626SOL    HW1 2502   0.188   1.693   2.486 -0.5009  0.9199  1.4682
  626SOL    HW2 2503   0.195   1.846   2.481  1.3546 -2.0588  0.5621
  626SOL     MW 2504   0.226   1.768   2.459  0.1288  0.0942  0.2190
  627SOL     OW 2505   2.533   0.755   2.557  0.0003  0.4246 -0.2469
  627SOL    HW1 2506   2.467   0.817   2.586 -1.2755  0.1572 -2.6744
  627SOL    HW2 2507   2.503   0.721   2.471  2.3722 -0.8275  1.5189
  627SOL     MW 2508   2.521   0.758   2.550  0.1449  0.2241 -0.3342
  628SOL     OW 2509   2.241   1.369   1.307 -0.4395 -0.4287  0.5440
  628SOL    HW1 2510   2.203   1.292   1.266 -1.4394 -0.8634  1.8177
  628SOL    HW2 2511   2.320   1.391   1.252  3.4408 -3.0552 -1.5603
  628SOL     MW 2512   2.247   1.362   1.295 -0.0595 -0.8326  0.4344
  629SOL     OW 2513   1.865   0.491   1.248  0.1553 -0.6057  0.2994
  629SOL    HW1 2514   1.861   0.574   1.195 -2.1763  1.8039 -0.4772
  629SOL    HW2 2515   1.768   0.480   1.246  0.7951 -1.9832 -1.2057
  629SOL     MW 2516   1.851   0.500   1.241 -0.0679 -0.4695 -0.0016
  630SOL     OW 2517   2.396   1.875   3.021  0.0786 -0.3224 -0.3519
  630SOL    HW1 2518   2.398   1.950   2.963  3.2646 -0.3756  2.3069
  630SOL    HW2 2519   2.305   1.865   3.032  0.5793 -0.6544  1.7755
  630SOL     MW 2520   2.384   1.884   3.015  0.5650 -0.3732  0.2796
  631SOL     OW 2521   2.007   1.685   1.558 -0.3767 -0.0597 -0.0522
  631SOL    HW1 2522   2.020   1.605   1.600 -1.3582 -2.0586  0.1787
  631SOL    HW2 2523   1.925   1.673   1.501 -1.0811  0.5443 -0.7478
  631SOL     MW 2524   1.998   1.673   1.556 -0.5992 -0.2438 -0.1135
  632SOL     OW 2525   0.254   1.951   1.443  0.3402 -0.3004  0.0818
  632SOL    HW1 2526   0.166   1.955   1.492  1.9577 -0.0821 -0.1657
  632SOL    HW2 2527   0.297   1.871   1.470  0.2897  3.9098  1.5761
  632SOL     MW 2528   0.248   1.941   1.453  0.5469  0.2839  0.2463
  633SOL     OW 2529   2.517   0.554   0.277  0.6271 -0.8306  0.3961
  633SOL    HW1 2530   2.572   0.552   0.358  2.0173 -0.1075  0.4058
  633SOL    HW2 2531   2.498   0.459   0.254 -2.6399 -0.2853 -1.1690
  633SOL     MW 2532   2.522   0.541   0.285  0.3795 -0.6633  0.1908
  634SOL     OW 2533   2.695   3.087   0.656  0.4588 -0.2256 -0.2217
  634SOL    HW1 2534   2.714   3.180   0.659  0.1505  1.7049 -1.3566
  634SOL    HW2 2535   2.652   3.073   0.574  0.1266 -0.1908  0.2941
  634SOL     MW 2536   2.692   3.097   0.646  0.3743  0.0337 -0.3034
  635SOL     OW 2537   2.581   0.154   1.823 -0.1852 -0.3417 -0.2403
  635SOL    HW1 2538   2.655   0.111   1.776  0.1712 -2.6036  0.2500
  635SOL    HW2 2539   2.623   0.236   1.861  2.3203  2.0828  0.3582
  635SOL     MW 2540   2.597   0.159   1.822  0.1924 -0.3202 -0.0966
  636SOL     OW 2541   2.786   1.583   0.862 -0.4537 -0.0289 -0.0763
  636SOL    HW1 2542   2.699   1.552   0.890 -0.0733  0.2671  0.1046
  636SOL    HW2 2543   2.796   1.667   0.913 -0.5840 -1.3478  1.2651
  636SOL     MW 2544   2.776   1.590   0.872 -0.4207 -0.1639  0.1246
  637SOL     OW 2545   2.893   1.509   0.603  0.2323  0.2557  0.2557
  637SOL    HW1 2546   2.919   1.584   0.550 -1.7318  1.4359 -0.3059
  637SOL    HW2 2547   2.867   1.542   0.690 -0.0108 -0.2151 -1.2677
  637SOL     MW 2548   2.893   1.524   0.607 -0.0589  0.3493 -0.0194
  638SOL     OW 2549   2.710   0.521   0.509  0.2699  0.2643  0.1868
  638SOL    HW1 2550   2.805   0.522   0.479  0.0886  0.7954 -0.1764
  638SOL    HW2 2551   2.723   0.515   0.602  3.3482 -0.2738  0.6491
  638SOL     MW 2552   2.725   0.520   0.518  0.6521  0.2634  0.1999
  639SOL     OW 2553   1.728   0.037   0.521 -0.2191 -0.1149 -0.5114
  639SOL    HW1 2554   1.635   0.054   0.527  3.1487  0.4545  1.4928
  639SOL    HW2 2555   1.740  -0.038   0.463  0.4425 -1.8449 -0.9639
  639SOL     MW 2556   1.718   0.029   0.514  0.3126 -0.2680 -0.3066
  640SOL     OW 2557   0.302   1.346   0.091  0.0242 -0.1174 -0.7427
  640SOL    HW1 2558   0.350   1.346   0.005  2.0578 -5.0511 -0.0443
  640SOL    HW2 2559   0.295   1.253   0.122  0.8468  0.3178  0.7833
  640SOL     MW 2560   0.308   1.333   0.084  0.4011 -0.7110 -0.4492
  641SOL     OW 2561   2.224   0.450   0.417 -0.3422 -0.3898 -0.1566
  641SOL    HW1 2562   2.243   0.413   0.326  0.5900 -1.4962 -2.4896
  641SOL    HW2 2563   2.288   0.413   0.482  1.7586  0.6247  0.4647
  641SOL     MW 2564   2.235   0.441   0.413  0.0580 -0.4019 -0.3824
  642SOL     OW 2565   0.075   0.004   0.481  0.2149 -0.3833  0.2298
  642SOL    HW1 2566   0.012   0.077   0.452  1.6985  1.8384 -3.1083
  642SOL    HW2 2567   0.026  -0.048   0.541 -2.1721  0.2206  1.8390
  642SOL     MW 2568   0.060   0.007   0.485  0.0957 -0.0105  0.0017
  643SOL     OW 2569   1.997   0.336   1.737 -0.0099 -0.0374  0.0873
  643SOL    HW1 2570   1.922   0.323   1.797  3.0737  0.7540 -0.2966
  643SOL    HW2 2571   2.020   0.254   1.691 -2.9922 -0.2194 -1.3709
  643SOL     MW 2572   1.990   0.324   1.739  0.0035  0.0430 -0.1558
  644SOL     OW 2573   2.675   1.852   1.010  0.5281 -0.0519 -0.4085
  644SOL    HW1 2574   2.629   1.786   1.067 -1.4079 -0.1896 -0.0298
  644SOL    HW2 2575   2.612   1.915   0.980 -0.8243 -2.2655  0.7694
  644SOL     MW 2576   2.660   1.852   1.014  0.0942 -0.3622 -0.2032
  645SOL     OW 2577   2.815   0.820   0.720 -0.2627  0.4045  0.5060
  645SOL    HW1 2578   2.877   0.749   0.746  2.2290 -1.2531 -0.0311
  645SOL    HW2 2579   2.729   0.779   0.728  2.5711 -1.8038  0.5238
  645SOL     MW 2580   2.812   0.805   0.725  0.4399 -0.1055  0.4375
  646SOL     OW 2581   0.086   2.284   0.870 -0.0433  0.2038  0.0632
  646SOL    HW1 2582   0.139   2.204   0.860  0.1885 -0.1585 -0.5061
  646SOL    HW2 2583   0.013   2.262   0.819  0.1010  1.4657  1.6098
  646SOL     MW 2584   0.083   2.270   0.862  0.0063  0.3225  0.1922
  647SOL     OW 2585   2.720   0.480   2.985 -0.0552 -0.0492  0.1069
  647SOL    HW1 2586   2.650   0.441   3.038  1.1434  1.6604  0.2050
  647SOL    HW2 2587   2.747   0.562   3.026  1.8071  0.1633 -2.7948
  647SOL     MW 2588   2.715   0.486   2.998  0.3486  0.2044 -0.2630
  648SOL     OW 2589   2.234   0.737   1.087  0.6912  0.2825  0.2004
  648SOL    HW1 2590   2.229   0.645   1.112 -2.2772 -1.4114  0.5589
  648SOL    HW2 2591   2.216   0.784   1.169  1.1434 -1.2214 -1.7179
  648SOL     MW 2592   2.231   0.731   1.102  0.3592 -0.1394 -0.0054
  649SOL     OW 2593   2.418   2.704   1.328  0.2726  0.4486 -0.7670
  649SOL    HW1 2594   2.502   2.752   1.321  0.2596 -2.1372 -0.1107
  649SOL    HW2 2595   2.435   2.609   1.305  0.2456  1.3910  2.0986
  649SOL     MW 2596   2.431   2.698   1.324  0.2673  0.2317 -0.3024
  650SOL     OW 2597   2.792   0.239   0.689 -0.4853 -0.3321 -0.6994
  650SOL    HW1 2598   2.815   0.256   0.778 -1.6836 -2.7519 -0.1373
  650SOL    HW2 2599   2.868   0.246   0.636  0.4003  0.5103  1.1099
  650SOL     MW 2600   2.805   0.242   0.694 -0.5265 -0.5402 -0.3865
  651SOL     OW 2601   0.016   0.439   1.042 -0.3511  0.1953  0.1467
  651SOL    HW1 2602   0.055   0.432   0.955 -1.3792  0.6687 -1.5423
  651SOL    HW2 2603  -0.054   0.503   1.035  0.3066 -0.9132  0.8854
  651SOL     MW 2604   0.012   0.446   1.029 -0.3999  0.1115  0.0213
  652SOL     OW 2605   2.391   1.484   3.022 -0.3454  0.2814 -0.3519
  652SOL    HW1 2606   2.453   1.519   2.953  0.0486  0.5626  1.2323
  652SOL    HW2 2607   2.321   1.540   3.037  1.3901  0.0319 -0.0952
  652SOL     MW 2608   2.390   1.496   3.015 -0.0644  0.2856 -0.1090
  653SOL     OW 2609   1.834   0.464   0.335  0.0240 -0.5032 -0.3160
  653SOL    HW1 2610   1.812   0.383   0.293  0.8104  1.3174 -0.3961
  653SOL    HW2 2611   1.893   0.515   0.279 -0.0620  3.1140  3.5423
  653SOL     MW 2612   1.839   0.460   0.322  0.1164  0.2142  0.1825
  654SOL     OW 2613   2.418   1.005   0.717  0.1244 -0.4276  0.7153
  654SOL    HW1 2614   2.356   0.990   0.644  1.7762  1.9710  1.1927
  654SOL    HW2 2615   2.451   0.916   0.753 -0.9231  2.9240 -1.1672
  654SOL     MW 2616   2.414   0.991   0.712  0.2041  0.3311  0.5299
  655SOL     OW 2617   2.894   0.850   0.373 -0.3714  0.2114 -0.2447
  655SOL    HW1 2618   2.850   0.869   0.454  2.7010  0.4010 -0.5863
  655SOL    HW2 2619   2.903   0.753   0.374 -2.9656  1.3756 -0.0047
  655SOL     MW 2620   2.889   0.840   0.384 -0.3083  0.3900 -0.2581
  656SOL     OW 2621   1.781   2.646   1.344  0.0528 -0.0050  0.5873
  656SOL    HW1 2622   1.836   2.722   1.358 -1.4883 -0.9666 -1.7899
  656SOL    HW2 2623   1.837   2.565   1.345  0.0473 -0.7849 -0.7710
  656SOL     MW 2624   1.796   2.646   1.346 -0.1513 -0.2347  0.0944
  657SOL     OW 2625   0.142   1.781   1.144  0.2241 -0.5738 -0.2069
  657SOL    HW1 2626   0.204   1.856   1.131  0.0264  2.2403 -2.7396
  657SOL    HW2 2627   0.190   1.700   1.153 -0.8900  1.6185 -1.6761
  657SOL     MW 2628   0.156   1.780   1.144  0.0510  0.0867 -0.7349
  658SOL     OW 2629   2.630   1.307   0.238  0.0743  0.3141  0.0205
  658SOL    HW1 2630   2.651   1.217   0.281 -0.9337 -1.5291 -0.0822
  658SOL    HW2 2631   2.656   1.377   0.300 -1.1861  0.1305  2.2059
  658SOL     MW 2632   2.636   1.304   0.252 -0.2250  0.0467  0.2953
  659SOL     OW 2633   2.206   1.543   0.973  0.0363  0.4843  0.4269
  659SOL    HW1 2634   2.292   1.526   0.933 -0.9904 -0.1162 -2.1221
  659SOL    HW2 2635   2.207   1.629   1.000 -2.4321  0.1319  0.6473
  659SOL     MW 2636   2.217   1.552   0.971 -0.4249  0.3586  0.1197
  660SOL     OW 2637   2.094   1.467   1.727  0.1296 -0.3802  0.1989
  660SOL    HW1 2638   2.097   1.519   1.806  1.3630  1.5914 -2.4347
  660SOL    HW2 2639   2.007   1.424   1.724 -0.8088 -1.6375 -0.7006
  660SOL     MW 2640   2.083   1.468   1.737  0.1685 -0.2860 -0.2672
  661SOL     OW 2641   2.493   0.950   0.198 -0.3521  0.5036 -0.2955
  661SOL    HW1 2642   2.532   0.985   0.279  4.7654  1.2768  0.4716
  661SOL    HW2 2643   2.424   0.894   0.234 -0.2747  2.2814 -2.9358
  661SOL     MW 2644   2.489   0.947   0.213  0.3333  0.8402 -0.5427
  662SOL     OW 2645   2.593   2.982   0.893  0.0324 -0.0732  0.1106
  662SOL    HW1 2646   2.522   3.041   0.926 -0.6087 -1.2010  1.3502
  662SOL    HW2 2647   2.630   3.016   0.809  1.7550 -1.8984 -0.4585
  662SOL     MW 2648   2.589   2.994   0.886  0.1751 -0.4628  0.1990
  663SOL     OW 2649   2.647   1.488   0.450  0.3066 -0.1055  0.0948
  663SOL    HW1 2650   2.596   1.570   0.444 -0.6395 -2.6554 -4.2231
  663SOL    HW2 2651   2.716   1.507   0.511  0.8277 -1.0334  2.1439
  663SOL     MW 2652   2.650   1.502   0.457  0.2505 -0.5644 -0.2046
  664SOL     OW 2653   2.592   1.543   1.606  0.2887 -0.6880 -0.0531
  664SOL    HW1 2654   2.572   1.634   1.569  2.8514  2.0919 -0.0432
  664SOL    HW2 2655   2.509   1.499   1.601  3.7688  0.5135 -3.9954
  664SOL     MW 2656   2.578   1.549   1.600  1.0860 -0.1627 -0.5719
  665SOL     OW 2657   2.778   0.778   2.094 -0.3141 -0.4996  0.5500
  665SOL    HW1 2658   2.770   0.836   2.015  3.7465 -1.4021 -1.3021
  665SOL    HW2 2659   2.844   0.719   2.061  1.5327  0.6484  2.3530
  665SOL     MW 2660   2.786   0.778   2.079  0.4653 -0.4672  0.5435
  666SOL     OW 2661   2.756   3.050   1.731 -0.3526 -0.1699  0.2341
  666SOL    HW1 2662   2.770   3.026   1.634  0.9609  1.3045 -0.1816
  666SOL    HW2 2663   2.707   2.978   1.774  0.6291 -0.4415  1.8086
  666SOL     MW 2664   2.752   3.038   1.724 -0.0497 -0.0112  0.3870
  667SOL     OW 2665   1.979   2.700   1.714 -0.1359  0.1635 -0.4482
  667SOL    HW1 2666   2.007   2.664   1.798  0.5344 -0.8336 -1.3210
  667SOL    HW2 2667   2.052   2.756   1.689  2.3814  0.2354 -0.6977
  667SOL     MW 2668   1.992   2.703   1.721  0.2847  0.0415 -0.5963
  668SOL     OW 2669   2.686   0.522   0.815  0.0627 -0.1238 -0.0040
  668SOL    HW1 2670   2.762   0.565   0.859  3.2224  1.3373 -1.9364
  668SOL    HW2 2671   2.608   0.585   0.823  0.0378  1.2439  3.2210
  668SOL     MW 2672   2.685   0.536   0.822  0.4763  0.2494  0.1665
  669SOL     OW 2673   0.117   0.896   0.751 -0.2740  0.7481  0.6239
  669SOL    HW1 2674   0.063   0.963   0.796 -0.8544 -0.7202 -0.0063
  669SOL    HW2 2675   0.171   0.881   0.826  1.7982 -0.2470 -1.0887
  669SOL     MW 2676   0.117   0.903   0.767 -0.0772  0.4231  0.3148
  670SOL     OW 2677   2.917   0.338   0.210 -0.1167 -0.3770  0.0173
  670SOL    HW1 2678   2.949   0.278   0.138 -0.9209  1.1089 -1.2285
  670SOL    HW2 2679   2.921   0.429   0.170 -0.7638 -0.7018  1.6716
  670SOL     MW 2680   2.922   0.342   0.195 -0.3082 -0.2238  0.0712
  671SOL     OW 2681   1.994   3.046   1.582 -0.1098 -0.3741 -0.1332
  671SOL    HW1 2682   1.930   2.999   1.526 -1.2452  0.7862 -1.2965
  671SOL    HW2 2683   1.938   3.076   1.658  0.1597 -2.6044  0.3232
  671SOL     MW 2684   1.978   3.044   1.585 -0.2240 -0.5153 -0.2265
  672SOL     OW 2685   1.860   1.684   1.296 -1.0001  0.1248 -0.0680
  672SOL    HW1 2686   1.829   1.756   1.350 -0.1409  0.1802 -1.0790
  672SOL    HW2 2687   1.892   1.713   1.209  2.8005  1.5832 -0.5615
  672SOL     MW 2688   1.860   1.698   1.292 -0.3853  0.3245 -0.2665
  673SOL     OW 2689   2.776   1.101   0.629 -0.5494 -0.2910  0.2807
  673SOL    HW1 2690   2.779   1.014   0.668  1.7835 -2.3959  1.1820
  673SOL    HW2 2691   2.859   1.144   0.648  0.4187 -0.1291  1.4392
  673SOL     MW 2692   2.787   1.095   0.637 -0.1139 -0.5474  0.5525
  674SOL     OW 2693   2.455   0.006   1.267  0.1934 -0.0477  0.4107
  674SOL    HW1 2694   2.411   0.035   1.189  4.5937 -0.7241  2.1524
  674SOL    HW2 2695   2.502  -0.077   1.252  1.1273  1.8801  1.2489
  674SOL     MW 2696   2.455  -0.001   1.255  0.8972  0.1174  0.7511
  675SOL     OW 2697   2.992   0.895   1.083 -0.3975  0.3021 -0.6568
  675SOL    HW1 2698   3.059   0.934   1.134 -1.5576 -0.5081 -1.2665
  675SOL    HW2 2699   2.992   0.947   1.001 -1.3085  3.8988 -2.4288
  675SOL     MW 2700   3.001   0.907   1.079 -0.6707  0.6697 -0.9710
  676SOL     OW 2701   2.978   1.448   1.697  0.2946 -0.3927  0.0542
  676SOL    HW1 2702   2.907   1.385   1.685 -4.0374  0.6227  0.3097
  676SOL    HW2 2703   2.998   1.443   1.790 -5.5676  0.5674 -2.9577
  676SOL     MW 2704   2.972   1.439   1.708 -1.0504 -0.1320 -0.3095
  677SOL     OW 2705   2.356   0.598   2.029 -0.0827  0.0746  0.7572
  677SOL    HW1 2706   2.334   0.547   1.955 -1.5623 -2.2241  0.3934
  677SOL    HW2 2707   2.288   0.668   2.033  2.8321  0.7429 -1.3765
  677SOL     MW 2708   2.344   0.601   2.020  0.1067 -0.1405  0.4277
  678SOL     OW 2709   2.481   1.690   0.354 -0.4523 -0.4378  0.0526
  678SOL    HW1 2710   2.394   1.718   0.381  1.5178  1.0904  1.5939
  678SOL    HW2 2711   2.465   1.623   0.293  0.9511 -0.8704 -0.1614
  678SOL     MW 2712   2.467   1.685   0.349 -0.0072 -0.2932  0.2278
  679SOL     OW 2713   2.187   0.461   1.328 -0.3893 -0.5178 -0.7723
  679SOL    HW1 2714   2.172   0.370   1.296 -1.0201 -0.5660  0.6605
  679SOL    HW2 2715   2.119   0.468   1.396  1.2336  0.2406 -1.0133
  679SOL     MW 2716   2.176   0.450   1.333 -0.2584 -0.4241 -0.6151
  680SOL     OW 2717   2.368   0.179   1.487 -0.7608 -0.1298  0.7563
  680SOL    HW1 2718   2.279   0.163   1.476  0.0886  2.1003 -0.7807
  680SOL    HW2 2719   2.399   0.119   1.413  1.7297 -1.7828 -1.0691
  680SOL     MW 2720   2.360   0.169   1.476 -0.3201 -0.0537  0.3127
  681SOL     OW 2721   0.282   0.616   1.578 -0.1519  0.2607 -0.0546
  681SOL    HW1 2722   0.287   0.564   1.665 -1.9389 -1.8749  1.3694
  681SOL    HW2 2723   0.306   0.550   1.515 -0.8477 -1.0367 -0.0990
  681SOL     MW 2724   0.286   0.601   1.581 -0.4795 -0.1923  0.1275
  682SOL     OW 2725   0.146   2.805   1.525 -0.3365  0.0981 -0.2562
  682SOL    HW1 2726   0.224   2.864   1.525  0.2726 -0.6795  0.6434
  682SOL    HW2 2727   0.072   2.860   1.555 -1.5392  3.5992 -1.6325
  682SOL     MW 2728   0.147   2.820   1.529 -0.4148  0.4575 -0.3191
  683SOL     OW 2729   2.061   0.820   2.963 -0.3332 -0.0729 -0.1176
  683SOL    HW1 2730   1.978   0.774   2.985  1.8093 -0.1982  1.4987
  683SOL    HW2 2731   2.058   0.911   3.011 -0.4034  3.0427 -0.3753
  683SOL     MW 2732   2.050   0.826   2.972 -0.0598  0.3217  0.0617
  684SOL     OW 2733   2.244   1.662   0.692  0.2007 -0.1930 -0.0127
  684SOL    HW1 2734   2.187   1.648   0.612  0.1038  2.5191  1.1352
  684SOL    HW2 2735   2.196   1.616   0.757 -2.2054  3.1894 -1.5715
  684SOL     MW 2736   2.230   1.654   0.690 -0.1296  0.6111 -0.0669
  685SOL     OW 2737   2.691   1.695   1.263 -0.0666 -0.4467 -0.8132
  685SOL    HW1 2738   2.733   1.701   1.346 -1.0181  2.5157 -0.9025
  685SOL    HW2 2739   2.696   1.596   1.254  0.3885  0.3935  1.6905
  685SOL     MW 2740   2.697   1.682   1.273 -0.1321  0.0550 -0.4946
  686SOL     OW 2741   2.869   0.720   1.435 -0.1889  0.0270  0.0742
  686SOL    HW1 2742   2.840   0.650   1.500 -1.9343 -3.5550 -1.8156
  686SOL    HW2 2743   2.961   0.725   1.460 -2.6934 -1.7762 -1.7947
  686SOL     MW 2744   2.877   0.712   1.447 -0.7497 -0.6835 -0.4217
  687SOL     OW 2745   2.148   0.212   1.210 -0.1994  0.0115  0.3105
  687SOL    HW1 2746   2.188   0.149   1.152  2.5236  1.7970 -1.0238
  687SOL    HW2 2747   2.085   0.261   1.147  1.8687  0.0270  1.0514
  687SOL     MW 2748   2.145   0.210   1.194  0.4327  0.2491  0.2322
  688SOL     OW 2749   2.397   0.592   1.469 -0.1903  0.7896  0.3137
  688SOL    HW1 2750   2.340   0.542   1.404 -2.4648 -0.3467  2.9545
  688SOL    HW2 2751   2.327   0.638   1.516  2.0220 -0.0589  0.2088
  688SOL     MW 2752   2.380   0.592   1.466 -0.1985  0.5278  0.6483
  689SOL     OW 2753   2.432   0.711   2.895 -0.2499  0.1774 -0.0400
  689SOL    HW1 2754   2.407   0.804   2.884 -1.6401 -0.4979  0.5847
  689SOL    HW2 2755   2.516   0.709   2.932  2.0183  0.6133 -1.6576
  689SOL     MW 2756   2.440   0.723   2.899 -0.1341  0.1458 -0.1710
  690SOL     OW 2757   2.007   0.866   1.886  0.7569  0.5680 -0.4999
  690SOL    HW1 2758   1.945   0.793   1.864 -0.8297  1.3976 -0.4659
  690SOL    HW2 2759   2.045   0.895   1.804  2.5657  1.3930 -0.9848
  690SOL     MW 2760   2.004   0.860   1.872  0.7862  0.7863 -0.5594
  691SOL     OW 2761   2.375   0.241   0.839 -0.0056  0.3548 -0.0301
  691SOL    HW1 2762   2.449   0.281   0.884 -1.1211 -1.3356 -0.6121
  691SOL    HW2 2763   2.306   0.308   0.832 -1.5421 -0.0809 -3.1059
  691SOL     MW 2764   2.375   0.255   0.844 -0.3555  0.0742 -0.5127
  692SOL     OW 2765   2.873   1.641   1.475  0.7683 -0.2308  0.7272
  692SOL    HW1 2766   2.863   1.591   1.561  0.0610  0.8143  3.1850
  692SOL    HW2 2767   2.905   1.727   1.496 -0.9000  1.1463 -0.0990
  692SOL     MW 2768   2.876   1.645   1.489  0.4549  0.0888  0.9424
  693SOL     OW 2769   2.272   0.405   0.079  0.4060 -0.1660 -0.4567
  693SOL    HW1 2770   2.197   0.344   0.079  0.6151  0.8598  0.7763
  693SOL    HW2 2771   2.233   0.488   0.056  1.4210 -2.3240 -1.2902
  693SOL     MW 2772   2.257   0.408   0.076  0.5675 -0.3154 -0.4040
  694SOL     OW 2773   1.911   1.191   1.117  0.7449 -0.4187 -1.3141
  694SOL    HW1 2774   2.001   1.149   1.124  2.3905  0.5545  0.0859
  694SOL    HW2 2775   1.854   1.126   1.165 -3.9104  0.4931 -2.0433
  694SOL     MW 2776   1.915   1.177   1.124  0.3478 -0.1700 -1.2256
  695SOL     OW 2777   3.027   1.450   1.317 -0.1156 -0.4733  0.3157
  695SOL    HW1 2778   2.979   1.436   1.233  0.1212  1.4677  0.3290
  695SOL    HW2 2779   2.971   1.519   1.368 -1.7278 -1.4989  0.8584
  695SOL     MW 2780   3.013   1.458   1.313 -0.2971 -0.3525  0.3890
  696SOL     OW 2781   2.088   1.362   0.792  0.1965  0.0991 -0.6805
  696SOL    HW1 2782   2.126   1.380   0.882  0.6323 -1.3205  0.1229
  696SOL    HW2 2783   2.032   1.282   0.808 -2.0352 -4.1912 -0.8336
  696SOL     MW 2784   2.085   1.354   0.806 -0.0405 -0.6543 -0.5947
  697SOL     OW 2785   2.877   1.011   2.219 -0.3508  0.0149 -0.2905
  697SOL    HW1 2786   2.830   1.079   2.179 -0.1529 -3.0569  0.1931
  697SOL    HW2 2787   2.847   0.925   2.186  1.5145 -0.6621  3.7268
  697SOL     MW 2788   2.867   1.009   2.210 -0.0786 -0.4797  0.3034
  698SOL     OW 2789   2.534   0.349   0.040 -0.4215  0.0206  0.1027
  698SOL    HW1 2790   2.438   0.381   0.047 -1.6125 -0.9034 -0.5773
  698SOL    HW2 2791   2.568   0.286   0.101 -0.9834 -1.8820  0.2369
  698SOL     MW 2792   2.526   0.345   0.049 -0.6528 -0.3523  0.0307
  699SOL     OW 2793   1.862   1.581   2.050  0.0018 -0.1117 -0.1325
  699SOL    HW1 2794   1.830   1.488   2.040 -0.1261  1.2808 -0.8559
  699SOL    HW2 2795   1.954   1.603   2.020  2.3707  0.0823  0.0053
  699SOL     MW 2796   1.870   1.572   2.045  0.2974  0.0976 -0.2098
  700SOL     OW 2797   2.741   0.917   1.553  0.1385 -0.4372  0.7411
  700SOL    HW1 2798   2.755   0.994   1.493 -2.5994  1.3016 -2.4465
  700SOL    HW2 2799   2.789   0.842   1.518 -1.5534 -1.6610  2.1347
  700SOL     MW 2800   2.749   0.917   1.541 -0.4459 -0.3693  0.5044
  701SOL     OW 2801   1.695   1.185   2.473  0.3295 -0.5068  0.3545
  701SOL    HW1 2802   1.790   1.168   2.471  2.0417 -0.6776  1.7790
  701SOL    HW2 2803   1.671   1.244   2.554  0.0677  1.0222 -1.9411
  701SOL     MW 2804   1.704   1.191   2.484  0.5208 -0.3276  0.2395
  702SOL     OW 2805   2.136   0.401   0.837  0.4501 -0.4947 -0.4565
  702SOL    HW1 2806   2.119   0.335   0.769 -0.9858 -1.1395 -0.6047
  702SOL    HW2 2807   2.206   0.467   0.806  0.3747  0.2600 -1.7253
  702SOL     MW 2808   2.143   0.401   0.824  0.2507 -0.4802 -0.6435
  703SOL     OW 2809   2.693   1.257   1.041 -0.3375  0.1173 -0.0023
  703SOL    HW1 2810   2.659   1.244   0.948 -3.1623  1.1288 -0.1093
  703SOL    HW2 2811   2.695   1.173   1.079  1.0572  2.4608 -0.5033
  703SOL     MW 2812   2.689   1.244   1.034 -0.5262  0.5599 -0.0825
  704SOL     OW 2813   3.102   1.202   0.131 -0.1178  0.2543  0.5523
  704SOL    HW1 2814   3.005   1.201   0.116  0.2938 -0.5580  1.3273
  704SOL    HW2 2815   3.106   1.201   0.225 -3.1007  3.7109  1.1363
  704SOL     MW 2816   3.089   1.201   0.141 -0.4570  0.6032  0.7316
  705SOL     OW 2817   2.189   1.635   1.267  0.2587  0.2246  0.3756
  705SOL    HW1 2818   2.124   1.651   1.338 -0.8614  0.9147 -0.0613
  705SOL    HW2 2819   2.195   1.537   1.263 -1.1503 -0.5747 -2.7889
  705SOL     MW 2820   2.182   1.624   1.276 -0.0750  0.2102 -0.0996
  706SOL     OW 2821   3.003   1.247   0.656 -0.8227  0.0296  0.0011
  706SOL    HW1 2822   3.047   1.221   0.569  1.5223  1.2580 -3.5173
  706SOL    HW2 2823   2.982   1.341   0.639 -0.9664  1.8467 -1.3818
  706SOL     MW 2824   3.006   1.256   0.642 -0.5322  0.4314 -0.6456
  707SOL     OW 2825   2.290   0.044   1.036  0.3292 -0.4115 -0.0672
  707SOL    HW1 2826   2.321   0.098   0.961 -2.2240  1.1832  2.2126
  707SOL    HW2 2827   2.206   0.011   0.998  1.5516 -0.3025  0.3625
  707SOL     MW 2828   2.283   0.047   1.021  0.1536 -0.1867  0.2903
  708SOL     OW 2829   2.396   1.454   0.199  0.4097  0.0201 -0.0440
  708SOL    HW1 2830   2.470   1.407   0.241 -1.8099 -1.9269  1.4879
  708SOL    HW2 2831   2.416   1.447   0.105 -2.2134 -0.0014 -1.9564
  708SOL     MW 2832   2.409   1.447   0.192 -0.2292 -0.2396 -0.0942
  709SOL     OW 2833   1.775   1.662   0.250  0.0364 -0.2748 -0.2888
  709SOL    HW1 2834   1.739   1.656   0.161 -0.4802 -0.1423 -0.5669
  709SOL    HW2 2835   1.690   1.652   0.296  0.5180  0.2832  1.4712
  709SOL     MW 2836   1.759   1.660   0.244  0.0318 -0.1837 -0.0933
  710SOL     OW 2837   2.162   1.088   1.183  0.0574 -0.4169  0.2999
  710SOL    HW1 2838   2.215   1.076   1.101 -1.4334  0.0539  0.8490
  710SOL    HW2 2839   2.175   1.013   1.237  1.5495  0.7117 -0.6920
  710SOL     MW 2840   2.171   1.076   1.180  0.0575 -0.2059  0.2415
  711SOL     OW 2841   2.314   0.116   1.750  0.0117 -0.3328 -0.4072
  711SOL    HW1 2842   2.408   0.125   1.778  0.9131 -0.1977  0.1458
  711SOL    HW2 2843   2.326   0.143   1.656  1.9670 -1.6375  1.3806
  711SOL     MW 2844   2.328   0.121   1.741  0.3886 -0.4871 -0.0984
  712SOL     OW 2845   1.892   0.639   0.010  0.2732 -0.0224 -0.3977
  712SOL    HW1 2846   1.812   0.655  -0.049  0.2183 -1.9115 -2.9330
  712SOL    HW2 2847   1.887   0.711   0.076 -2.5283  2.6265 -0.5965
  712SOL     MW 2848   1.880   0.651   0.011 -0.1037  0.0778 -0.7584
  713SOL     OW 2849   2.546   0.772   1.086  0.0159 -0.8155  0.1533
  713SOL    HW1 2850   2.567   0.685   1.119 -1.9597 -3.6213  0.9276
  713SOL    HW2 2851   2.460   0.780   1.129 -4.7885 -1.0524  0.8870
  713SOL     MW 2852   2.537   0.762   1.096 -0.8787 -1.2169  0.3523
  714SOL     OW 2853   2.163   0.166   1.990  0.2243  0.0369 -0.1258
  714SOL    HW1 2854   2.233   0.133   2.053 -0.6043 -1.5986  0.3020
  714SOL    HW2 2855   2.218   0.161   1.908 -2.1383 -0.3141  1.4431
  714SOL     MW 2856   2.179   0.161   1.987 -0.1968 -0.2252  0.1376
  715SOL     OW 2857   1.805   1.974   1.712  0.5642  0.7229 -0.0319
  715SOL    HW1 2858   1.902   2.000   1.717  0.9275  4.1269  1.3904
  715SOL    HW2 2859   1.793   1.890   1.761  0.9772  0.9291  0.5626
  715SOL     MW 2860   1.816   1.966   1.719  0.6666  1.1993  0.2342
  716SOL     OW 2861   2.307   0.577   0.717 -0.1835 -0.4448 -0.0514
  716SOL    HW1 2862   2.356   0.505   0.679 -1.2386 -0.6026 -2.5300
  716SOL    HW2 2863   2.258   0.617   0.642  0.4372 -0.9535 -1.0730
  716SOL     MW 2864   2.307   0.573   0.702 -0.2408 -0.5327 -0.5132
  717SOL     OW 2865   2.834   1.581   2.871  0.0419 -0.2067  0.5227
  717SOL    HW1 2866   2.930   1.557   2.885 -0.1957  1.5415 -2.1819
  717SOL    HW2 2867   2.806   1.645   2.939 -2.3568  2.1115 -1.9420
  717SOL     MW 2868   2.843   1.586   2.882 -0.3060  0.3298 -0.1593
  718SOL     OW 2869   2.695   1.403   1.374 -0.3994  0.3420  0.2496
  718SOL    HW1 2870   2.663   1.437   1.457 -3.8424  0.9546 -1.6171
  718SOL    HW2 2871   2.726   1.310   1.382 -1.0604 -1.2399  2.2078
  718SOL     MW 2872   2.695   1.395   1.386 -0.9409  0.2141  0.2617
  719SOL     OW 2873   2.187   1.267   0.569 -0.2260  0.4484 -0.7569
  719SOL    HW1 2874   2.278   1.296   0.574 -3.2582  0.3782 -0.7309
  719SOL    HW2 2875   2.158   1.295   0.658  0.9655 -1.5259 -1.4460
  719SOL     MW 2876   2.195   1.274   0.581 -0.4689  0.1787 -0.8444
  720SOL     OW 2877   2.856   1.218   0.042 -0.2277  0.2040 -0.2335
  720SOL    HW1 2878   2.835   1.126   0.068 -3.2839 -0.6833  2.2026
  720SOL    HW2 2879   2.801   1.275   0.091  0.7381 -0.0898  0.6339
  720SOL     MW 2880   2.846   1.213   0.052 -0.5035  0.0482  0.2024
  721SOL     OW 2881   2.494   0.889   1.399  0.2313  0.2602 -0.1084
  721SOL    HW1 2882   2.528   0.816   1.452 -0.2770 -2.5339 -0.1484
  721SOL    HW2 2883   2.550   0.959   1.422 -2.4255  0.5496  1.3408
  721SOL     MW 2884   2.506   0.888   1.409 -0.1863 -0.0703  0.0775
  722SOL     OW 2885   2.577   1.081   0.455  0.5082 -0.2317 -0.4998
  722SOL    HW1 2886   2.522   1.153   0.469 -0.0483  2.2664  2.9229
  722SOL    HW2 2887   2.658   1.099   0.509 -0.2191  0.3626  3.2354
  722SOL     MW 2888   2.580   1.093   0.464  0.3388  0.1763  0.4446
  723SOL     OW 2889   2.321   1.392   1.570 -0.1258 -0.0278 -0.0878
  723SOL    HW1 2890   2.266   1.381   1.489 -0.9363  0.3507 -1.6246
  723SOL    HW2 2891   2.252   1.430   1.631 -2.9565  0.5592 -0.7310
  723SOL     MW 2892   2.305   1.395   1.567 -0.6062  0.0996 -0.3754
  724SOL     OW 2893   2.465   0.367   0.572  0.0364 -0.3046 -0.4190
  724SOL    HW1 2894   2.489   0.288   0.618  1.2408  1.5033  1.3803
  724SOL    HW2 2895   2.543   0.411   0.544  0.7806  0.7176  0.2676
  724SOL     MW 2896   2.478   0.362   0.575  0.2935  0.0688 -0.0911
  725SOL     OW 2897   2.612   0.527   1.187  0.0523 -0.1649  0.1966
  725SOL    HW1 2898   2.706   0.536   1.208  0.0208  0.1976 -2.5015
  725SOL    HW2 2899   2.570   0.515   1.272 -1.2027  0.3374 -1.8658
  725SOL     MW 2900   2.619   0.527   1.201 -0.1175 -0.0508 -0.4315
  726SOL     OW 2901   2.582   2.492   0.551 -0.0547  0.3101  0.0860
  726SOL    HW1 2902   2.515   2.549   0.509  1.8373  2.4813  1.7341
  726SOL    HW2 2903   2.552   2.481   0.638 -1.6352  1.6154 -2.2629
  726SOL     MW 2904   2.570   2.498   0.557 -0.0136  0.7688 -0.0065
  727SOL     OW 2905   2.873   0.326   1.754  0.2520 -0.4381 -0.0543
  727SOL    HW1 2906   2.821   0.299   1.679  2.2668  4.5328  0.5176
  727SOL    HW2 2907   2.816   0.334   1.832  0.6898  2.1826  0.9627
  727SOL     MW 2908   2.859   0.323   1.755  0.5756  0.5635  0.1553
  728SOL     OW 2909   2.793   1.129   2.884  0.2427  0.0509 -0.6138
  728SOL    HW1 2910   2.787   1.205   2.824  1.0419  1.5743  1.2950
  728SOL    HW2 2911   2.809   1.168   2.968 -0.4255  0.7093 -0.9222
  728SOL     MW 2912   2.794   1.144   2.887  0.2600  0.3388 -0.4026
  729SOL     OW 2913   2.499   1.447   1.180  0.0778  0.1750 -0.2426
  729SOL    HW1 2914   2.571   1.408   1.237 -2.1458  1.1281  2.2347
  729SOL    HW2 2915   2.527   1.443   1.088  2.2394 -1.2840  0.4013
  729SOL     MW 2916   2.512   1.441   1.176  0.0696  0.1083  0.1692
  730SOL     OW 2917   2.298   1.168   0.219  0.3779 -0.3537  0.5860
  730SOL    HW1 2918   2.385   1.123   0.201  1.1002  4.1941  0.6358
  730SOL    HW2 2919   2.308   1.264   0.205 -0.7239 -1.3527  0.4016
  730SOL     MW 2920   2.311   1.175   0.215  0.3279  0.1145  0.5682
  731SOL     OW 2921   2.789   2.031   2.909  0.4434  0.4204  0.2130
  731SOL    HW1 2922   2.735   2.013   2.836  0.1481  2.0011  0.6252
  731SOL    HW2 2923   2.873   2.061   2.875 -2.2136  1.8537 -0.7446
  731SOL     MW 2924   2.793   2.032   2.895  0.0539  0.8181  0.1410
  732SOL     OW 2925   2.218   0.889   1.344 -0.4974  0.3100 -0.3396
  732SOL    HW1 2926   2.196   0.889   1.437  1.8227 -1.6452 -0.2780
  732SOL    HW2 2927   2.314   0.871   1.355 -2.1725 -0.0757  0.4280
  732SOL     MW 2928   2.228   0.887   1.358 -0.4123  0.0011 -0.2302
  733SOL     OW 2929   2.356   2.814   3.003  0.4111  0.1882  0.6840
  733SOL    HW1 2930   2.283   2.858   2.960  0.2485 -1.2036  1.5950
  733SOL    HW2 2931   2.354   2.716   2.994 -0.6378 -0.1509  2.0493
  733SOL     MW 2932   2.346   2.807   2.996  0.2513 -0.0402  0.9843
  734SOL     OW 2933   1.435   0.319   2.443 -0.0648 -0.1270  0.0172
  734SOL    HW1 2934   1.424   0.296   2.536  0.4886  2.0905  0.4932
  734SOL    HW2 2935   1.485   0.244   2.412  0.9745 -0.6000 -0.3734
  734SOL     MW 2936   1.440   0.306   2.451  0.1453  0.1032  0.0284
  735SOL     OW 2937   2.926   0.869   2.603 -0.0843 -0.2466  0.0846
  735SOL    HW1 2938   2.910   0.773   2.614  0.3328 -0.8778 -0.9040
  735SOL    HW2 2939   2.932   0.899   2.689  1.8663 -0.4644 -1.0215
  735SOL     MW 2940   2.924   0.860   2.616  0.2281 -0.3586 -0.1918
  736SOL     OW 2941   0.086   0.613   2.528  0.1875  0.6112  0.4642
  736SOL    HW1 2942   0.120   0.675   2.467  1.0692 -1.7559  0.1779
  736SOL    HW2 2943   0.083   0.532   2.470  1.3846  1.4679  0.0960
  736SOL     MW 2944   0.090   0.610   2.513  0.4617  0.4120  0.3778
  737SOL     OW 2945   2.915   0.606   2.594 -0.3599 -0.2465  0.4918
  737SOL    HW1 2946   2.838   0.581   2.536 -1.3111 -1.1500 -0.4157
  737SOL    HW2 2947   3.000   0.577   2.564 -0.7752 -0.7274 -0.3472
  737SOL     MW 2948   2.916   0.599   2.582 -0.5402 -0.4291  0.2614
  738SOL     OW 2949   0.168   0.625   1.968  0.6898  0.4144 -0.0066
  738SOL    HW1 2950   0.257   0.610   1.937  0.7257 -0.3751  2.1498
  738SOL    HW2 2951   0.120   0.551   1.934  3.0408 -1.5521  0.4291
  738SOL     MW 2952   0.173   0.613   1.960  1.0048  0.0508  0.3354
  739SOL     OW 2953   2.488   0.980   2.042  0.4270 -0.0821 -0.3201
  739SOL    HW1 2954   2.403   0.940   2.036  0.8059  1.3805 -1.0613
  739SOL    HW2 2955   2.502   1.020   1.953 -0.1702  3.7161 -0.0789
  739SOL     MW 2956   2.478   0.980   2.029  0.3982  0.6120 -0.3861
  740SOL     OW 2957   0.208   1.748   2.938  0.1292 -0.0046  0.2116
  740SOL    HW1 2958   0.165   1.663   2.951  1.4592  0.5631 -2.2058
  740SOL    HW2 2959   0.301   1.738   2.970  1.5760 -0.2468  0.6011
  740SOL     MW 2960   0.215   1.735   2.944  0.4956  0.0384 -0.0559
  741SOL     OW 2961   2.209   1.145   2.750  0.1881  0.6728 -0.9489
  741SOL    HW1 2962   2.118   1.160   2.731 -0.3891  0.4290 -0.2741
  741SOL    HW2 2963   2.213   1.165   2.843 -1.7584 -2.9672  0.7408
  741SOL     MW 2964   2.197   1.149   2.760 -0.1449  0.1603 -0.6370
  742SOL     OW 2965   1.586   1.233   2.202  0.2197  0.2876 -0.0724
  742SOL    HW1 2966   1.530   1.156   2.189  0.7014  0.5667  2.5074
  742SOL    HW2 2967   1.605   1.240   2.294 -0.6014 -0.2038  0.2038
  742SOL     MW 2968   1.581   1.224   2.213  0.1749  0.2596  0.3044
  743SOL     OW 2969   2.480   1.320   2.716 -0.6684  0.3592 -0.1341
  743SOL    HW1 2970   2.395   1.304   2.676  2.4014  0.3020  0.9386
  743SOL    HW2 2971   2.518   1.233   2.747  0.2469 -2.9355  2.5986
  743SOL     MW 2972   2.474   1.307   2.715 -0.1426 -0.0831  0.3680
  744SOL     OW 2973   2.769   0.933   1.849 -0.2116  0.4530  0.4765
  744SOL    HW1 2974   2.684   0.966   1.862 -1.0348 -2.3200 -0.5550
  744SOL    HW2 2975   2.775   0.918   1.754 -3.1441  2.3580 -0.3099
  744SOL     MW 2976   2.759   0.935   1.839 -0.7071  0.3385  0.2367
  745SOL     OW 2977   1.708   0.427   2.502  0.5618  0.2276  0.0192
  745SOL    HW1 2978   1.695   0.449   2.407  0.3175 -4.7201 -0.8618
  745SOL    HW2 2979   1.627   0.383   2.529  0.8105  1.0897  1.0283
  745SOL     MW 2980   1.695   0.424   2.493  0.5624 -0.3115  0.0361
  746SOL     OW 2981   1.605   1.489   1.635 -0.0948  0.4034  0.2239
  746SOL    HW1 2982   1.703   1.470   1.644  0.0946  0.3923 -1.1347
  746SOL    HW2 2983   1.578   1.428   1.704 -1.1453  0.8274 -0.1311
  746SOL     MW 2984   1.615   1.478   1.646 -0.2084  0.4579 -0.0022
  747SOL     OW 2985   2.569   1.143   1.825  0.0790 -0.2498  0.1432
  747SOL    HW1 2986   2.489   1.160   1.774  0.7887 -1.9590 -0.4217
  747SOL    HW2 2987   2.575   1.228   1.880 -1.7377 -0.0139  0.0747
  747SOL     MW 2988   2.559   1.156   1.826 -0.0670 -0.4442  0.0596
  748SOL     OW 2989   0.099   0.033   1.829 -0.2877  0.7767 -0.2027
  748SOL    HW1 2990   0.196   0.047   1.812  0.8019  1.0192  1.8508
  748SOL    HW2 2991   0.081   0.073   1.918 -0.2750 -0.9768  2.4304
  748SOL     MW 2992   0.110   0.040   1.838 -0.1423  0.5773  0.4157
  749SOL     OW 2993   2.511   0.503   2.697  0.3770  0.1899  0.0160
  749SOL    HW1 2994   2.499   0.577   2.638  0.7566 -0.4824  0.3172
  749SOL    HW2 2995   2.518   0.536   2.786 -0.5439  1.1530  1.7026
  749SOL     MW 2996   2.510   0.517   2.701  0.3056  0.2283  0.2783
  750SOL     OW 2997   2.015   3.054   1.999 -0.0752 -0.4473 -0.1063
  750SOL    HW1 2998   2.058   3.144   1.999 -1.4761 -1.4302  2.9074
  750SOL    HW2 2999   2.089   3.003   1.974  0.9676  2.0629  1.1076
  750SOL     MW 3000   2.030   3.059   1.996 -0.1225 -0.2458  0.4515
  751SOL     OW 3001   0.073   0.434   2.329  0.3822 -0.1351  0.2039
  751SOL    HW1 3002   0.012   0.365   2.364  2.8455  0.3982 -0.3776
  751SOL    HW2 3003   0.144   0.386   2.289 -0.1031 -0.4086 -2.6062
  751SOL     MW 3004   0.074   0.419   2.329  0.6432 -0.1008 -0.2436
  752SOL     OW 3005   2.145   0.801   2.686  0.0742 -0.5211  0.1121
  752SOL    HW1 3006   2.207   0.855   2.636  0.7861 -1.0545  1.3501
  752SOL    HW2 3007   2.149   0.837   2.775 -0.7077 -1.1427  0.2859
  752SOL     MW 3008   2.153   0.813   2.691  0.0650 -0.6735  0.2983
  753SOL     OW 3009   2.925   0.289   2.420 -0.3305 -0.5815  0.5207
  753SOL    HW1 3010   2.884   0.228   2.361 -0.3585 -4.1759 -0.4911
  753SOL    HW2 3011   2.886   0.368   2.384  2.5694  1.1337 -1.0412
  753SOL     MW 3012   2.915   0.292   2.408  0.0485 -0.8294  0.1812
  754SOL     OW 3013   2.242   2.969   2.613  0.5401 -0.6497 -0.4129
  754SOL    HW1 3014   2.257   2.953   2.518 -3.0115  0.9644  0.5866
  754SOL    HW2 3015   2.317   2.926   2.653  0.4751 -1.1232  3.1513
  754SOL     MW 3016   2.254   2.961   2.605  0.0629 -0.4992  0.1892
  755SOL     OW 3017   2.743   1.514   2.484 -0.4306 -0.3479 -0.2468
  755SOL    HW1 3018   2.702   1.454   2.550  0.1610 -0.7979 -1.6538
  755SOL    HW2 3019   2.812   1.560   2.535 -1.1763 -0.3111  1.6440
  755SOL     MW 3020   2.747   1.512   2.499 -0.4509 -0.4024 -0.1830
  756SOL     OW 3021   2.255   1.252   3.006 -0.0624 -1.1299  0.3816
  756SOL    HW1 3022   2.324   1.319   2.992 -0.7204 -0.1084 -3.0912
  756SOL    HW2 3023   2.309   1.167   3.022  0.4079 -1.7469  2.1767
  756SOL     MW 3024   2.271   1.250   3.006 -0.0872 -1.0765  0.1602
  757SOL     OW 3025   2.105   0.933   1.615 -0.1734 -0.1741 -0.1757
  757SOL    HW1 3026   2.141   0.843   1.629  1.0249  0.1002 -0.3023
  757SOL    HW2 3027   2.021   0.925   1.568 -0.5514  0.8256  0.6012
  757SOL     MW 3028   2.099   0.921   1.611 -0.0652 -0.0060 -0.0899
  758SOL     OW 3029   2.189   1.727   2.664 -0.0716 -0.8411  0.4582
  758SOL    HW1 3030   2.183   1.758   2.570 -0.1912 -1.0918 -3.4802
  758SOL    HW2 3031   2.284   1.712   2.667 -0.3937 -2.5417 -2.8356
  758SOL     MW 3032   2.201   1.729   2.652 -0.1299 -1.0986 -0.4960
  759SOL     OW 3033   1.625   1.353   2.677  0.1900  0.5434 -0.8647
  759SOL    HW1 3034   1.620   1.439   2.637  1.5120 -0.8824  0.3267
  759SOL    HW2 3035   1.679   1.359   2.756  0.2386 -0.5566 -2.2913
  759SOL     MW 3036   1.631   1.365   2.682  0.3708  0.2102 -0.8957
  760SOL     OW 3037   2.625   1.993   2.697  0.2456 -0.3060  0.0662
  760SOL    HW1 3038   2.592   1.903   2.679  1.6622 -0.6078  2.8886
  760SOL    HW2 3039   2.591   2.042   2.618 -0.2056  3.4831 -2.0967
  760SOL     MW 3040   2.616   1.988   2.684  0.3730  0.1541  0.1532
  761SOL     OW 3041   2.185   0.402   2.450  0.6159 -0.2338 -0.2827
  761SOL    HW1 3042   2.101   0.358   2.446 -0.4047 -0.0031  1.0729
  761SOL    HW2 3043   2.186   0.455   2.530  0.0261  1.0445  1.4095
  761SOL     MW 3044   2.174   0.403   2.460  0.4034 -0.0347  0.1194
  762SOL     OW 3045   0.043   0.150   2.064 -0.4514  0.3205  0.5511
  762SOL    HW1 3046   0.031   0.124   2.155  1.5176 -1.7782  1.3540
  762SOL    HW2 3047   0.007   0.236   2.062 -1.1743  0.4613  0.7842
  762SOL     MW 3048   0.036   0.158   2.076 -0.2870  0.0622  0.6878
  763SOL     OW 3049   2.400   1.062   2.292 -0.6316  0.0278  0.5208
  763SOL    HW1 3050   2.428   1.040   2.202 -0.0124 -1.2675 -1.0392
  763SOL    HW2 3051   2.466   1.129   2.325 -1.0238 -1.3649  0.8830
  763SOL     MW 3052   2.413   1.068   2.285 -0.6016 -0.3269  0.3628
  764SOL     OW 3053   0.436   0.317   2.794 -0.1846  0.0908 -0.0081
  764SOL    HW1 3054   0.349   0.276   2.767  1.8748 -2.1719 -0.0671
  764SOL    HW2 3055   0.418   0.388   2.858 -0.9961 -0.3543  0.9144
  764SOL     MW 3056   0.422   0.321   2.799 -0.0200 -0.2664  0.1059
  765SOL     OW 3057   2.755   0.093   2.317  0.0446  0.2915 -0.0305
  765SOL    HW1 3058   2.703   0.070   2.237  0.9599 -1.3114 -1.1478
  765SOL    HW2 3059   2.793   0.007   2.342 -1.1219  0.9525  0.1214
  765SOL     MW 3060   2.753   0.079   2.309  0.0115  0.1673 -0.1579
  766SOL     OW 3061   1.845   2.989   2.195 -0.8446 -0.0547 -0.7766
  766SOL    HW1 3062   1.903   3.023   2.124 -1.9695 -0.6314 -0.4509
  766SOL    HW2 3063   1.806   2.902   2.160 -1.5815 -0.5988 -0.6323
  766SOL     MW 3064   1.848   2.982   2.181 -1.0903 -0.2026 -0.7146
  767SOL     OW 3065   2.634   0.633   1.889  0.2763  0.4343 -0.0751
  767SOL    HW1 3066   2.680   0.690   1.948 -0.0082 -1.8371  0.0399
  767SOL    HW2 3067   2.551   0.620   1.936  0.8842 -0.6111 -0.0675
  767SOL     MW 3068   2.629   0.638   1.903  0.3190 -0.0033 -0.0590
  768SOL     OW 3069   0.031   1.533   2.932 -0.4735 -0.0216 -0.4417
  768SOL    HW1 3070   0.022   1.496   3.027 -0.9128 -0.8605  2.3040
  768SOL    HW2 3071   0.052   1.456   2.865 -3.3370 -0.6743 -0.2118
  768SOL     MW 3072   0.033   1.518   2.936 -0.9093 -0.2184 -0.0491
  769SOL     OW 3073   2.396   0.679   2.335  0.7472  0.0260  0.6134
  769SOL    HW1 3074   2.300   0.671   2.320 -1.9013  0.2913  0.1182
  769SOL    HW2 3075   2.426   0.608   2.272  0.0737 -2.2841 -0.5532
  769SOL     MW 3076   2.387   0.668   2.325  0.3089 -0.2438  0.3941
  770SOL     OW 3077   0.108   1.599   2.606 -0.3047 -0.7048  0.3172
  770SOL    HW1 3078   0.008   1.597   2.588 -0.3905 -1.1551 -0.5814
  770SOL    HW2 3079   0.126   1.534   2.678 -1.9754 -1.0445 -0.3515
  770SOL     MW 3080   0.097   1.590   2.613 -0.5364 -0.8090  0.1104
  771SOL     OW 3081   2.957   0.624   1.923  0.1301 -0.2381  0.1432
  771SOL    HW1 3082   2.918   0.613   1.833 -2.1139 -0.4808  0.8523
  771SOL    HW2 3083   3.028   0.685   1.922 -1.0574  1.3599 -0.2337
  771SOL     MW 3084   2.961   0.631   1.911 -0.3227 -0.0593  0.1870
  772SOL     OW 3085   0.002   3.095   2.298  0.1002  0.0997  0.3470
  772SOL    HW1 3086  -0.076   3.041   2.304  0.9397 -1.1331 -1.7321
  772SOL    HW2 3087   0.076   3.037   2.265  2.3895 -0.4714 -0.3701
  772SOL     MW 3088   0.001   3.080   2.294  0.5130 -0.1383 -0.0219
  773SOL     OW 3089   2.481   2.848   2.739 -0.0053  0.0786 -0.6332
  773SOL    HW1 3090   2.462   2.758   2.703 -2.3046 -0.2598 -0.5268
  773SOL    HW2 3091   2.450   2.846   2.830  0.3533  0.5861 -1.0201
  773SOL     MW 3092   2.474   2.836   2.746 -0.2614  0.1009 -0.6702
  774SOL     OW 3093   2.263   1.157   1.707  0.1565 -0.5606 -0.1017
  774SOL    HW1 3094   2.298   1.214   1.636 -0.3205 -2.9167 -1.9938
  774SOL    HW2 3095   2.216   1.084   1.660  0.2422 -4.3274 -1.5985
  774SOL     MW 3096   2.261   1.155   1.691  0.1049 -1.3685 -0.5489
  775SOL     OW 3097   2.297   2.906   2.316 -0.4594  0.1840  0.5418
  775SOL    HW1 3098   2.313   2.988   2.266  2.5958 -0.1874  0.1955
  775SOL    HW2 3099   2.370   2.844   2.294  2.5067  2.1593 -3.4190
  775SOL     MW 3100   2.309   2.909   2.307  0.3351  0.3957 -0.0265
  776SOL     OW 3101   0.056   1.459   0.111  0.5998  0.8622  0.1366
  776SOL    HW1 3102   0.151   1.441   0.101 -1.4617 -2.3551 -0.5441
  776SOL    HW2 3103   0.009   1.373   0.119  0.9700 -1.8392 -0.7141
  776SOL     MW 3104   0.062   1.445   0.111  0.3766  0.0813 -0.0654
  777SOL     OW 3105   2.980   1.073   1.759 -0.7539 -0.0971  0.2132
  777SOL    HW1 3106   2.913   1.138   1.748 -0.2144  0.2400  1.8067
  777SOL    HW2 3107   2.940   1.005   1.818  0.3812  1.0196 -0.2744
  777SOL     MW 3108   2.966   1.073   1.765 -0.5330  0.0947  0.3591
  778SOL     OW 3109   2.899   0.418   2.790  0.1796  0.1598  0.5499
  778SOL    HW1 3110   2.818   0.439   2.848 -0.3220  2.1243 -0.4745
  778SOL    HW2 3111   2.898   0.481   2.716 -1.3031 -0.6825  1.1835
  778SOL     MW 3112   2.888   0.429   2.788 -0.0822  0.3079  0.4984
  779SOL     OW 3113   2.114   0.637   2.310  0.4395  0.0929  0.4928
  779SOL    HW1 3114   2.029   0.671   2.364  1.2746  3.9057 -2.1532
  779SOL    HW2 3115   2.123   0.546   2.313  0.0112  1.2874 -4.5150
  779SOL     MW 3116   2.104   0.630   2.317  0.4932  0.7536 -0.5171
  780SOL     OW 3117   0.223   0.095   2.812  0.4454 -0.5389 -0.2027
  780SOL    HW1 3118   0.167   0.147   2.867  1.2995 -0.2666 -0.8162
  780SOL    HW2 3119   0.181   0.104   2.729 -2.6565 -0.3427  0.9789
  780SOL     MW 3120   0.210   0.103   2.808  0.1489 -0.4771 -0.1278
  781SOL     OW 3121   3.010   1.298   2.499 -0.2324 -0.0631 -0.3803
  781SOL    HW1 3122   2.996   1.348   2.422 -2.1206  1.2021  2.9188
  781SOL    HW2 3123   3.011   1.206   2.469  1.7472  2.5214 -0.9676
  781SOL     MW 3124   3.008   1.292   2.485 -0.2203  0.4448 -0.0225
  782SOL     OW 3125   0.632   1.535   3.094 -0.5995 -0.4089 -0.7759
  782SOL    HW1 3126   0.582   1.605   3.059 -2.2114 -1.1310 -2.2077
  782SOL    HW2 3127   0.592   1.514   3.181 -1.2346 -1.9548  2.8626
  782SOL     MW 3128   0.620   1.541   3.101 -0.8960 -0.7081 -0.4848
  783SOL     OW 3129   2.716   0.508   2.461  0.0213  0.2428  0.1762
  783SOL    HW1 3130   2.660   0.488   2.382 -1.3381 -0.8901  1.4236
  783SOL    HW2 3131   2.698   0.429   2.515  0.3707  0.4912 -0.1324
  783SOL     MW 3132   2.706   0.495   2.458 -0.1120  0.1261  0.3001
  784SOL     OW 3133   0.264   0.902   2.876  0.0577 -0.1548 -0.1297
  784SOL    HW1 3134   0.211   0.973   2.922 -0.7998 -1.1239 -2.3016
  784SOL    HW2 3135   0.311   0.953   2.813 -3.5316 -0.9230  4.3048
  784SOL     MW 3136   0.263   0.918   2.873 -0.5290 -0.3841  0.1689
  785SOL     OW 3137   0.448   0.556   2.177  0.1532  0.1749  0.1317
  785SOL    HW1 3138   0.439   0.565   2.082 -0.2581 -0.9104 -1.1084
  785SOL    HW2 3139   0.369   0.505   2.181  0.6176  1.0384 -4.3298
  785SOL     MW 3140   0.436   0.550   2.165  0.1602  0.1457 -0.6206
  786SOL     OW 3141   1.945   0.489   2.870 -0.0043 -0.5405 -1.0327
  786SOL    HW1 3142   1.942   0.533   2.950 -1.2959 -0.2327  0.3094
  786SOL    HW2 3143   2.030   0.455   2.851 -3.2701  3.0904  2.6660
  786SOL     MW 3144   1.956   0.490   2.878 -0.6056 -0.0208 -0.3676
  787SOL     OW 3145   2.430   0.134   2.970  0.1001  0.2189  0.1450
  787SOL    HW1 3146   2.482   0.086   2.905 -1.4618  0.2881  0.1918
  787SOL    HW2 3147   2.477   0.212   2.991 -3.2988 -0.6188  3.6837
  787SOL     MW 3148   2.443   0.138   2.964 -0.5544  0.1175  0.6181
  788SOL     OW 3149   2.854   2.941   2.386 -0.3327 -0.2670  0.0107
  788SOL    HW1 3150   2.790   2.883   2.342  0.6511  2.6449 -0.1352
  788SOL    HW2 3151   2.910   2.875   2.421  2.2694  0.0441  2.0019
  788SOL     MW 3152   2.853   2.925   2.385  0.1404  0.1582  0.2541
  789SOL     OW 3153   0.116   0.312   2.960 -0.2173 -0.1961 -0.2247
  789SOL    HW1 3154   0.027   0.269   2.961  0.0546 -0.9454 -1.7710
  789SOL    HW2 3155   0.089   0.406   2.971  0.8553  2.7823 -0.1558
  789SOL     MW 3156   0.100   0.319   2.961 -0.0399  0.0980 -0.4196
  790SOL     OW 3157   3.048   1.026   2.425  1.1450 -0.6161  0.0407
  790SOL    HW1 3158   3.022   0.961   2.490 -1.6246  0.6518  2.5437
  790SOL    HW2 3159   2.980   1.012   2.353 -0.4127 -0.2053  4.3766
  790SOL     MW 3160   3.036   1.015   2.424  0.5741 -0.3946  0.9430
  791SOL     OW 3161   2.677   0.308   2.653  0.5033  0.3271  0.1080
  791SOL    HW1 3162   2.607   0.376   2.684  1.4688 -0.0334 -1.3211
  791SOL    HW2 3163   2.756   0.326   2.704  0.9202  0.2816 -0.3338
  791SOL     MW 3164   2.679   0.320   2.664  0.6857  0.2736 -0.1389
  792SOL     OW 3165   2.386   0.226   2.360  0.4310 -0.2006  0.4915
  792SOL    HW1 3166   2.317   0.268   2.412  1.1161  0.7944  0.3386
  792SOL    HW2 3167   2.450   0.187   2.422  2.3715  0.1820  1.0662
  792SOL     MW 3168   2.385   0.226   2.375  0.7775 -0.0188  0.5471
  793SOL     OW 3169   1.855   1.092   1.954 -0.2546  0.2362  0.1980
  793SOL    HW1 3170   1.829   1.106   1.867  3.8738 -0.2864  0.8862
  793SOL    HW2 3171   1.907   1.012   1.941 -3.0281  1.7697  0.8728
  793SOL     MW 3172   1.858   1.083   1.941 -0.0758  0.3696  0.3778
  794SOL     OW 3173   1.435   2.290   0.156  0.3065 -0.3762  0.5599
  794SOL    HW1 3174   1.439   2.370   0.098  1.1304  2.9165  0.6368
  794SOL    HW2 3175   1.493   2.323   0.225  1.1694  0.7764 -0.5835
  794SOL     MW 3176   1.443   2.305   0.157  0.5291  0.2103  0.4192
  795SOL     OW 3177   2.350   0.967   2.560 -0.3762 -0.0240  0.1733
  795SOL    HW1 3178   2.318   1.049   2.588 -0.8371 -0.5968  1.0507
  795SOL    HW2 3179   2.361   0.985   2.462  3.9529  2.1358  1.3456
  795SOL     MW 3180   2.347   0.980   2.551  0.1342  0.1854  0.4437
  796SOL     OW 3181   0.226   0.646   2.801  0.1682  1.1139 -0.3684
  796SOL    HW1 3182   0.230   0.737   2.826 -0.5966  0.3726  3.5576
  796SOL    HW2 3183   0.162   0.647   2.732 -0.9936 -1.6944  0.4862
  796SOL     MW 3184   0.218   0.658   2.796 -0.0860  0.6456  0.2623
  797SOL     OW 3185   2.579   0.108   2.507 -0.2282  0.1995 -0.0468
  797SOL    HW1 3186   2.611   0.194   2.564 -1.4957 -0.5108  0.0373
  797SOL    HW2 3187   2.645   0.114   2.430  0.3084  0.4774  0.3434
  797SOL     MW 3188   2.592   0.120   2.504 -0.3246  0.1425  0.0158
  798SOL     OW 3189   2.358   0.038   2.161  0.1296 -0.6718 -0.1675
  798SOL    HW1 3190   2.354   0.114   2.230 -1.3924  1.3427 -1.7737
  798SOL    HW2 3191   2.447   0.030   2.135 -0.2184  2.0072 -1.6164
  798SOL     MW 3192   2.370   0.047   2.166 -0.1171 -0.0525 -0.5706
  799SOL     OW 3193   2.453   2.912   0.143 -0.1510  0.0068 -0.0826
  799SOL    HW1 3194   2.430   2.865   0.064  0.3904 -0.1841  1.4206
  799SOL    HW2 3195   2.378   2.974   0.143 -0.7932 -1.2503 -0.0798
  799SOL     MW 3196   2.440   2.914   0.132 -0.1643 -0.1843  0.1161
  800SOL     OW 3197   1.841   3.104   1.805  0.1028 -0.6080 -0.4080
  800SOL    HW1 3198   1.802   3.015   1.800  3.8729 -1.0006 -2.5070
  800SOL    HW2 3199   1.900   3.095   1.883 -1.0774 -1.2879 -0.4070
  800SOL     MW 3200   1.843   3.091   1.815  0.4445 -0.7495 -0.6848
  801SOL     OW 3201   2.779   1.278   2.660  0.1984  0.7126  0.2092
  801SOL    HW1 3202   2.749   1.190   2.625 -1.9525 -2.0753  1.0200
  801SOL    HW2 3203   2.848   1.299   2.600 -2.8789  0.6037  3.3867
  801SOL     MW 3204   2.784   1.269   2.647 -0.4914  0.3304  0.7354
  802SOL     OW 3205   2.572   1.574   2.827 -0.1050 -0.1273  0.2198
  802SOL    HW1 3206   2.540   1.482   2.800 -0.5496 -0.5449 -0.3576
  802SOL    HW2 3207   2.672   1.567   2.841  2.9784  1.0499  0.1532
  802SOL     MW 3208   2.581   1.561   2.825  0.2431 -0.0271  0.1348
  803SOL     OW 3209   2.308   1.337   1.966  0.4383  0.1640  0.3027
  803SOL    HW1 3210   2.264   1.313   2.047 -0.3128 -0.6717  2.6936
  803SOL    HW2 3211   2.256   1.322   1.889  1.4608  0.9841 -0.1683
  803SOL     MW 3212   2.295   1.332   1.967  0.4741  0.1619  0.5560
  804SOL     OW 3213   2.260   0.048   0.077 -0.0880  0.4064 -0.3966
  804SOL    HW1 3214   2.178   0.104   0.063 -0.2611 -1.1943  2.3457
  804SOL    HW2 3215   2.318   0.080   0.008 -0.2411  1.5767  1.1867
  804SOL     MW 3216   2.257   0.060   0.066 -0.1311  0.3496  0.1741
  805SOL     OW 3217   2.716   1.038   2.517 -0.0163 -0.3355 -0.0752
  805SOL    HW1 3218   2.699   1.009   2.428  0.2607 -1.9248 -0.4432
  805SOL    HW2 3219   2.781   0.973   2.538 -1.6715 -2.9437 -0.1556
  805SOL     MW 3220   2.723   1.025   2.508 -0.1981 -0.8893 -0.1344
  806SOL     OW 3221   2.585   0.403   2.249  0.5378  0.0977  0.2552
  806SOL    HW1 3222   2.495   0.363   2.272 -2.8075  1.7050  1.8024
  806SOL    HW2 3223   2.601   0.376   2.158 -1.2466  1.5535  0.1579
  806SOL     MW 3224   2.575   0.394   2.240 -0.1390  0.5018  0.4465
  807SOL     OW 3225   0.026   1.129   2.027 -0.7423 -0.1406 -0.1171
  807SOL    HW1 3226   0.085   1.048   1.996  1.3711  0.2656  0.4248
  807SOL    HW2 3227  -0.044   1.089   2.073 -2.8522 -1.6867  1.1157
  807SOL     MW 3228   0.025   1.113   2.029 -0.7418 -0.2910  0.1170
  808SOL     OW 3229   2.566   3.098   2.772  0.1739  0.1381  0.0850
  808SOL    HW1 3230   2.538   3.006   2.761  0.4732  1.0235  0.5268
  808SOL    HW2 3231   2.577   3.134   2.679  2.1501 -0.2684 -2.8212
  808SOL     MW 3232   2.564   3.091   2.758  0.4741  0.2013 -0.2401
  809SOL     OW 3233   2.562   1.258   2.399  0.2335  0.0635 -0.6097
  809SOL    HW1 3234   2.606   1.207   2.471  3.0450 -1.1320  0.9254
  809SOL    HW2 3235   2.625   1.264   2.323  2.4581  0.8598 -0.1065
  809SOL     MW 3236   2.576   1.252   2.398  0.8979  0.0108 -0.3408
  810SOL     OW 3237   2.240   1.307   2.213 -0.0466 -0.4162 -0.0027
  810SOL    HW1 3238   2.299   1.235   2.243 -2.1398  0.0851  1.4333
  810SOL    HW2 3239   2.147   1.275   2.222 -0.8434 -0.3147 -2.6739
  810SOL     MW 3240   2.236   1.293   2.218 -0.4279 -0.3366 -0.1656
  811SOL     OW 3241   1.553   0.084   2.275  0.2108 -0.3467  0.0886
  811SOL    HW1 3242   1.644   0.063   2.294 -3.6938 -0.2958 -2.7590
  811SOL    HW2 3243   1.557   0.107   2.184  1.3280 -1.7934  3.9115
  811SOL     MW 3244   1.566   0.084   2.266 -0.1570 -0.5309  0.2173
  812SOL     OW 3245   1.435   2.774   2.057  0.2152  0.3743 -0.6391
  812SOL    HW1 3246   1.532   2.779   2.049 -1.1186 -1.4171 -0.9755
  812SOL    HW2 3247   1.428   2.746   2.149  1.1062 -2.6933 -0.4465
  812SOL     MW 3248   1.447   2.771   2.068  0.1568 -0.2668 -0.6581
  813SOL     OW 3249   1.776   0.711   2.208 -0.0806 -0.2917 -0.3372
  813SOL    HW1 3250   1.743   0.621   2.223  0.6215  0.3152  2.1727
  813SOL    HW2 3251   1.827   0.739   2.287  1.5971 -0.5956 -1.8742
  813SOL     MW 3252   1.779   0.703   2.220  0.2334 -0.2517 -0.2088
  814SOL     OW 3253   2.788   1.224   1.655  0.1737 -0.1500 -0.1832
  814SOL    HW1 3254   2.724   1.176   1.709 -1.3975 -0.0927  0.5706
  814SOL    HW2 3255   2.769   1.202   1.564 -1.8284  3.1039 -1.5585
  814SOL     MW 3256   2.777   1.215   1.650 -0.2978  0.2869 -0.2652
  815SOL     OW 3257   2.515   1.643   2.409 -0.0437 -0.3332 -0.3229
  815SOL    HW1 3258   2.442   1.579   2.394  0.3720 -1.1289 -1.9503
  815SOL    HW2 3259   2.589   1.584   2.409  0.6685 -3.9211  1.2234
  815SOL     MW 3260   2.515   1.626   2.407  0.1051 -0.9116 -0.3336
  816SOL     OW 3261   0.754   0.620   2.766 -0.5422  0.0373  0.4274
  816SOL    HW1 3262   0.768   0.549   2.824  1.1128  0.5081  0.4089
  816SOL    HW2 3263   0.665   0.622   2.732  2.4834 -0.4388 -0.8690
  816SOL     MW 3264   0.744   0.611   2.769  0.0754  0.0366  0.2539
  817SOL     OW 3265   3.043   1.182   1.364  0.7689 -0.8946 -0.2732
  817SOL    HW1 3266   3.106   1.181   1.436  0.8223 -1.0571 -1.5469
  817SOL    HW2 3267   3.053   1.275   1.335 -0.8306 -0.9291  2.0683
  817SOL     MW 3268   3.053   1.194   1.369  0.5649 -0.9206 -0.1323
  818SOL     OW 3269   1.925   0.990   2.773 -0.0825 -0.0366  0.3067
  818SOL    HW1 3270   1.855   1.011   2.712 -1.9605 -0.1293  0.1698
  818SOL    HW2 3271   1.967   0.910   2.742 -2.8176  0.9132  0.4591
  818SOL     MW 3272   1.922   0.982   2.761 -0.6912  0.0765  0.3087
  819SOL     OW 3273   1.948   0.275   2.493 -0.4073 -0.7686 -0.2376
  819SOL    HW1 3274   1.866   0.317   2.511  2.0333 -1.8930 -0.2769
  819SOL    HW2 3275   1.989   0.261   2.580  0.2888 -0.4359  1.5929
  819SOL     MW 3276   1.943   0.278   2.507  0.0065 -0.8731 -0.0013
  820SOL     OW 3277   2.476   1.766   2.653  0.2726  0.0007 -0.4030
  820SOL    HW1 3278   2.516   1.691   2.707 -1.0889  0.5982  2.6492
  820SOL    HW2 3279   2.509   1.744   2.566 -0.8845  1.4235  2.3600
  820SOL     MW 3280   2.486   1.753   2.649 -0.0597  0.2673  0.3643
  821SOL     OW 3281   2.573   1.360   1.996 -0.3703  0.3970 -0.6307
  821SOL    HW1 3282   2.599   1.437   1.941  1.0971  0.8442  0.8982
  821SOL    HW2 3283   2.480   1.364   2.011  2.1625 -0.1111  1.8264
  821SOL     MW 3284   2.564   1.371   1.991  0.1575  0.3889 -0.1048
  822SOL     OW 3285   2.821   2.663   1.473  0.4776  0.5503  0.1847
  822SOL    HW1 3286   2.805   2.678   1.563 -2.3442 -1.1027 -0.4268
  822SOL    HW2 3287   2.773   2.729   1.422 -0.5950  3.1428 -0.7999
  822SOL     MW 3288   2.813   2.673   1.478 -0.0362  0.6742 -0.0258
  823SOL     OW 3289   2.244   0.465   1.787 -0.3322  0.2386 -1.0012
  823SOL    HW1 3290   2.322   0.422   1.752 -1.4377 -0.7833 -1.2676
  823SOL    HW2 3291   2.171   0.401   1.768 -0.3478 -2.2201 -0.8877
  823SOL     MW 3292   2.245   0.451   1.780 -0.4801 -0.2207 -1.0214
  824SOL     OW 3293   2.063   1.419   2.512  0.1453  0.2272 -0.3747
  824SOL    HW1 3294   2.153   1.443   2.508 -3.4933 -0.1619  4.7247
  824SOL    HW2 3295   2.016   1.491   2.544  0.4298 -2.8612  1.7640
  824SOL     MW 3296   2.069   1.432   2.516 -0.2973 -0.2316  0.5803
  825SOL     OW 3297   2.065   2.533   0.293 -0.3691 -0.0964  0.3889
  825SOL    HW1 3298   2.097   2.491   0.375 -4.5819  0.0760  3.0718
  825SOL    HW2 3299   2.119   2.505   0.213 -0.1134 -0.3550  3.1220
  825SOL     MW 3300   2.077   2.524   0.294 -0.8912 -0.1077  1.1035
  826SOL     OW 3301   1.925   2.356   0.522 -0.3465 -0.1698 -0.4596
  826SOL    HW1 3302   1.882   2.278   0.553 -2.5564  2.0662 -2.7061
  826SOL    HW2 3303   1.882   2.425   0.582  0.4081 -1.1748  0.9953
  826SOL     MW 3304   1.914   2.355   0.534 -0.5385 -0.0074 -0.5640
  827SOL     OW 3305   1.966   2.192   0.817  0.1707  0.2744  0.1024
  827SOL    HW1 3306   1.910   2.158   0.747 -1.1856  1.2334 -0.1557
  827SOL    HW2 3307   1.921   2.138   0.886 -1.3463  0.6757  0.8069
  827SOL     MW 3308   1.953   2.180   0.817 -0.2084  0.4538  0.1613
  828SOL     OW 3309   0.074   2.625   0.502 -0.5142 -0.4150  0.0114
  828SOL    HW1 3310   0.172   2.632   0.500  2.0328  0.5203 -0.1269
  828SOL    HW2 3311   0.037   2.670   0.425  1.5385 -0.7674 -0.9651
  828SOL     MW 3312   0.082   2.632   0.492  0.0927 -0.3381 -0.1357
  829SOL     OW 3313   3.001   2.955   1.220 -0.1834  0.0728 -0.2891
  829SOL    HW1 3314   2.921   2.945   1.167  0.3148 -1.0537  0.0611
  829SOL    HW2 3315   3.050   2.877   1.210  0.8516 -0.4405  1.0500
  829SOL     MW 3316   2.997   2.943   1.212  0.0189 -0.1435 -0.0662
  830SOL     OW 3317   2.530   2.873   2.031  0.4795 -0.2519 -0.1500
  830SOL    HW1 3318   2.444   2.900   1.988 -1.8178 -1.1989  1.3588
  830SOL    HW2 3319   2.587   2.849   1.959 -0.9861  0.6826  1.3622
  830SOL     MW 3320   2.526   2.873   2.016 -0.0170 -0.2536  0.2486
  831SOL     OW 3321   2.375   2.449   1.231 -0.0987 -0.2138  0.0052
  831SOL    HW1 3322   2.333   2.381   1.289  0.1018  2.5909  2.4420
  831SOL    HW2 3323   2.467   2.417   1.218  0.2795  0.2327  0.4566
  831SOL     MW 3324   2.382   2.436   1.237 -0.0224  0.2152  0.3863
  832SOL     OW 3325   2.397   2.159   1.837 -0.1574 -0.4993  0.2351
  832SOL    HW1 3326   2.382   2.252   1.849 -0.9920 -1.0010 -2.3883
  832SOL    HW2 3327   2.497   2.153   1.833  2.4190 -2.5709 -1.1628
  832SOL     MW 3328   2.408   2.171   1.838  0.0724 -0.8388 -0.2955
  833SOL     OW 3329   1.807   2.487   0.915  0.2511 -0.3301 -0.2164
  833SOL    HW1 3330   1.733   2.443   0.952 -3.4048  2.9683  0.5006
  833SOL    HW2 3331   1.779   2.568   0.968 -1.2968 -2.3817  2.5344
  833SOL     MW 3332   1.794   2.492   0.927 -0.4355 -0.1656  0.2411
  834SOL     OW 3333   2.241   2.436   0.516 -0.2867  0.6345  1.1491
  834SOL    HW1 3334   2.185   2.361   0.540  3.0311 -1.6508  0.3330
  834SOL    HW2 3335   2.300   2.414   0.439 -0.1881  0.3250 -2.9483
  834SOL     MW 3336   2.241   2.423   0.509  0.1640  0.2921  0.5008
  835SOL     OW 3337   1.880   2.598   0.674 -0.2223  0.1736  0.2193
  835SOL    HW1 3338   1.874   2.584   0.769  0.3865  0.2925 -2.1115
  835SOL    HW2 3339   1.955   2.656   0.674  2.0662  0.1250 -1.1650
  835SOL     MW 3340   1.889   2.603   0.686  0.1599  0.1828 -0.2709
  836SOL     OW 3341   2.001   2.170   1.642  0.2471  0.2090 -0.2909
  836SOL    HW1 3342   2.089   2.130   1.634  0.7698  1.0000 -0.4704
  836SOL    HW2 3343   2.004   2.217   1.727  1.3048 -1.7388  0.3134
  836SOL     MW 3344   2.013   2.171   1.652  0.4556  0.0564 -0.2349
  837SOL     OW 3345   2.060   0.174   0.697 -0.0758 -0.0909  0.3554
  837SOL    HW1 3346   1.970   0.208   0.664 -1.2854 -0.0715  0.0442
  837SOL    HW2 3347   2.085   0.098   0.642 -2.5364  0.0611  1.9573
  837SOL     MW 3348   2.051   0.168   0.685 -0.5601 -0.0683  0.5257
  838SOL     OW 3349   2.872   2.048   0.914 -0.2529  0.2614 -0.0559
  838SOL    HW1 3350   2.793   1.997   0.940 -1.0374 -0.2352 -0.4254
  838SOL    HW2 3351   2.936   2.006   0.968 -2.0684  2.1089  0.8925
  838SOL     MW 3352   2.870   2.036   0.925 -0.5959  0.4396  0.0205
  839SOL     OW 3353   1.499   2.347   0.916  0.1213  0.2450 -0.0141
  839SOL    HW1 3354   1.483   2.420   0.975 -0.2188  0.3539 -1.3049
  839SOL    HW2 3355   1.534   2.274   0.969  1.0769  2.7632  1.7220
  839SOL     MW 3356   1.501   2.347   0.931  0.2025  0.5917  0.0446
  840SOL     OW 3357   2.294   2.057   2.391 -0.1451  0.4553  0.1382
  840SOL    HW1 3358   2.235   2.109   2.351 -1.1586 -3.1472 -0.1205
  840SOL    HW2 3359   2.339   2.107   2.460 -2.8531  1.9405  2.7797
  840SOL     MW 3360   2.292   2.070   2.395 -0.6361  0.1760  0.4526
  841SOL     OW 3361   2.222   2.441   0.073  0.0227 -0.2618 -0.5655
  841SOL    HW1 3362   2.238   2.481  -0.018 -1.8576 -0.3844 -3.0677
  841SOL    HW2 3363   2.180   2.358   0.052  2.7385 -1.1940  0.5658
  841SOL     MW 3364   2.219   2.435   0.058  0.1329 -0.4010 -0.7464
  842SOL     OW 3365   2.663   1.990   1.532 -0.0390  0.5440 -1.2477
  842SOL    HW1 3366   2.610   1.919   1.551 -1.4382  2.5647 -1.3335
  842SOL    HW2 3367   2.631   2.025   1.444  0.6467 -1.4217 -0.1820
  842SOL     MW 3368   2.652   1.985   1.523 -0.1331  0.5513 -1.1184
  843SOL     OW 3369   2.633   2.811   1.792  0.1193 -0.0648 -0.1119
  843SOL    HW1 3370   2.713   2.767   1.763  1.7983  1.6999 -0.9606
  843SOL    HW2 3371   2.562   2.766   1.750  1.8840  0.4569  1.1707
  843SOL     MW 3372   2.634   2.799   1.783  0.5736  0.2369 -0.0547
  844SOL     OW 3373   2.642   2.357   1.190  0.0684 -0.0910  0.1483
  844SOL    HW1 3374   2.685   2.393   1.111 -2.0009  1.9927  1.0488
  844SOL    HW2 3375   2.700   2.395   1.261  2.9124  0.4374 -2.8291
  844SOL     MW 3376   2.656   2.367   1.189  0.1707  0.2536 -0.1257
  845SOL     OW 3377   2.832   2.547   0.353  0.0576  0.2089  0.3202
  845SOL    HW1 3378   2.776   2.466   0.352 -1.2847 -1.5975 -1.3354
  845SOL    HW2 3379   2.805   2.602   0.433 -0.4822 -0.0870  0.1914
  845SOL     MW 3380   2.821   2.544   0.364 -0.1907 -0.0685  0.0848
  846SOL     OW 3381   1.497   2.811   0.845 -0.0321 -0.8661 -0.2001
  846SOL    HW1 3382   1.572   2.870   0.855 -1.0712  1.6557  0.1087
  846SOL    HW2 3383   1.418   2.868   0.844  0.9709  2.0506  1.0329
  846SOL     MW 3384   1.496   2.826   0.846 -0.0369 -0.1485  0.0033
  847SOL     OW 3385   2.469   1.922   0.180 -0.1695  0.0511 -0.3749
  847SOL    HW1 3386   2.485   1.837   0.225  1.2054 -3.3238 -0.3128
  847SOL    HW2 3387   2.442   1.896   0.091 -0.8849 -1.4707 -1.1068
  847SOL     MW 3388   2.468   1.907   0.174 -0.0825 -0.5949 -0.4633
  848SOL     OW 3389   2.591   2.091   1.275 -0.3425 -0.2596 -0.0615
  848SOL    HW1 3390   2.614   2.175   1.247 -0.1830 -0.8076 -1.2440
  848SOL    HW2 3391   2.596   2.034   1.199  2.1944  0.6541 -1.4518
  848SOL     MW 3392   2.595   2.095   1.261  0.0133 -0.2114 -0.4009
  849SOL     OW 3393   2.055   2.780   0.773  0.6616 -0.7136  0.3120
  849SOL    HW1 3394   2.066   2.710   0.835  2.8815  0.0733 -2.3391
  849SOL    HW2 3395   2.129   2.754   0.713  1.3824 -0.7419  0.0850
  849SOL     MW 3396   2.066   2.768   0.773  1.0496 -0.6135 -0.0677
  850SOL     OW 3397   2.262   1.812   1.637  0.3395 -0.4170  0.1913
  850SOL    HW1 3398   2.177   1.789   1.603  2.0959  1.9540  1.1249
  850SOL    HW2 3399   2.259   1.913   1.635 -1.9026  1.5589 -2.1832
  850SOL     MW 3400   2.251   1.822   1.633  0.2754  0.1566  0.0012
  851SOL     OW 3401   2.378   2.385   0.294  0.6452 -0.1824  0.3559
  851SOL    HW1 3402   2.349   2.431   0.212  3.3436 -1.1547 -1.4059
  851SOL    HW2 3403   2.474   2.376   0.276  1.2793 -2.4530  0.8767
  851SOL     MW 3404   2.387   2.390   0.281  1.0849 -0.6103  0.1921
  852SOL     OW 3405   2.338   2.096   0.343 -0.2349 -0.0106  0.5323
  852SOL    HW1 3406   2.364   2.186   0.316  0.5130  2.3480  0.9578
  852SOL    HW2 3407   2.379   2.028   0.287 -0.9479  0.5969 -1.0964
  852SOL     MW 3408   2.347   2.099   0.332 -0.2303  0.3807  0.3736
  853SOL     OW 3409   2.454   2.427   1.909 -0.3720 -0.2113 -0.4067
  853SOL    HW1 3410   2.481   2.483   1.834 -0.5516  0.0982  0.7334
  853SOL    HW2 3411   2.529   2.414   1.971  0.0827 -2.2846  1.1475
  853SOL     MW 3412   2.468   2.432   1.907 -0.3357 -0.4440 -0.0512
  854SOL     OW 3413   2.849   2.279   0.758 -0.1536 -0.5055  0.3833
  854SOL    HW1 3414   2.751   2.275   0.733  0.0238 -0.6169 -4.1123
  854SOL    HW2 3415   2.855   2.189   0.798 -0.8938  1.6494 -0.4392
  854SOL     MW 3416   2.837   2.267   0.760 -0.2279 -0.2359 -0.3184
  855SOL     OW 3417   2.656   2.317   0.328  0.5619  0.2415 -0.4294
  855SOL    HW1 3418   2.619   2.325   0.421 -1.6315  3.5183  0.9861
  855SOL    HW2 3419   2.716   2.236   0.320 -0.8215 -0.3870  0.3771
  855SOL     MW 3420   2.659   2.308   0.339  0.0900  0.5909 -0.1362
  856SOL     OW 3421   2.120   1.915   0.220  0.3130  0.0309 -0.1401
  856SOL    HW1 3422   2.025   1.920   0.242 -0.7276 -0.0422  0.7090
  856SOL    HW2 3423   2.140   2.009   0.243 -1.8086  0.4488 -2.0501
  856SOL     MW 3424   2.110   1.928   0.226 -0.1042  0.0764 -0.2801
  857SOL     OW 3425   2.464   1.963   0.547  0.0939  0.0863 -0.0610
  857SOL    HW1 3426   2.418   2.026   0.479 -0.3602  0.5471  2.0382
  857SOL    HW2 3427   2.395   1.966   0.623  0.9382  2.1877  0.0036
  857SOL     MW 3428   2.449   1.972   0.548  0.1454  0.4243  0.2245
  858SOL     OW 3429   2.890   2.701   1.768 -0.3451 -0.1413  0.3402
  858SOL    HW1 3430   2.978   2.707   1.742 -2.2315 -0.6350 -1.6280
  858SOL    HW2 3431   2.875   2.604   1.775  0.3496 -1.2585 -0.9797
  858SOL     MW 3432   2.900   2.689   1.765 -0.5024 -0.3538 -0.0937
  859SOL     OW 3433   2.134   2.593   0.960 -0.4569  0.7738  0.7771
  859SOL    HW1 3434   2.117   2.498   0.974 -0.9126  1.6898 -0.0384
  859SOL    HW2 3435   2.159   2.633   1.042 -1.4032  1.6852 -0.6776
  859SOL     MW 3436   2.135   2.586   0.973 -0.6419  1.0149  0.4776
  860SOL     OW 3437   2.701   2.624   0.130 -0.2796 -0.2573 -0.1336
  860SOL    HW1 3438   2.728   2.594   0.221  3.0593 -0.9273  2.2629
  860SOL    HW2 3439   2.753   2.709   0.116  2.9417  3.5215  1.3723
  860SOL     MW 3440   2.712   2.631   0.140  0.5860  0.1528  0.3813
  861SOL     OW 3441   1.610   2.196   1.110  0.4546 -0.1795 -0.4941
  861SOL    HW1 3442   1.610   2.278   1.163 -0.8122  0.8046 -1.7841
  861SOL    HW2 3443   1.562   2.134   1.161 -0.2824  0.8891  0.1115
  861SOL     MW 3444   1.604   2.199   1.124  0.1902  0.0913 -0.5844
  862SOL     OW 3445   2.498   1.777   1.518  0.1179 -0.2951 -0.1771
  862SOL    HW1 3446   2.411   1.783   1.557 -0.2012 -0.6108  1.3744
  862SOL    HW2 3447   2.482   1.770   1.423  0.9370 -3.5682 -0.1750
  862SOL     MW 3448   2.485   1.777   1.511  0.1839 -0.7686  0.0279
  863SOL     OW 3449   2.983   1.769   1.053 -0.3969  0.3534  0.1569
  863SOL    HW1 3450   3.054   1.790   1.112 -1.3003 -0.6511 -1.1721
  863SOL    HW2 3451   2.908   1.796   1.105  1.2892 -1.1932  0.5209
  863SOL     MW 3452   2.983   1.775   1.068 -0.2936  0.0168  0.0296
  864SOL     OW 3453   0.033   1.838   0.811  0.7932  0.3134  0.2294
  864SOL    HW1 3454  -0.009   1.797   0.889  1.1072 -0.1039  0.7402
  864SOL    HW2 3455  -0.012   1.782   0.746 -1.7808  1.2615  1.3618
  864SOL     MW 3456   0.022   1.825   0.813  0.4950  0.3835  0.4462
  865SOL     OW 3457   2.509   2.183   0.064  0.5053 -0.7108 -0.5599
  865SOL    HW1 3458   2.528   2.092   0.094  4.1759 -0.8755  1.2828
  865SOL    HW2 3459   2.518   2.174  -0.029 -0.7086  2.7703 -0.0704
  865SOL     MW 3460   2.513   2.170   0.056  0.8294 -0.2732 -0.2522
  866SOL     OW 3461   2.661   2.355   1.619 -0.0678  0.4556 -0.2673
  866SOL    HW1 3462   2.620   2.269   1.633  1.2711 -0.7325 -0.1332
  866SOL    HW2 3463   2.734   2.345   1.553 -0.4760 -0.6403 -1.1378
  866SOL     MW 3464   2.665   2.342   1.612  0.0550  0.1543 -0.3644
  867SOL     OW 3465   0.090   2.671   1.790  0.3804 -0.4671  0.3283
  867SOL    HW1 3466   0.133   2.725   1.866  0.5110  2.2828 -1.3473
  867SOL    HW2 3467   0.121   2.712   1.710  1.3144 -0.5574  0.3679
  867SOL     MW 3468   0.100   2.684   1.790  0.5209 -0.1162  0.1124
  868SOL     OW 3469   2.751   2.720   0.568  0.1532 -0.0000 -0.0922
  868SOL    HW1 3470   2.674   2.663   0.594 -0.2349 -1.9044  1.1466
  868SOL    HW2 3471   2.725   2.772   0.490 -3.7330  3.2465  0.5093
  868SOL     MW 3472   2.737   2.719   0.561 -0.4107  0.1771  0.1506
  869SOL     OW 3473   2.077   2.326   1.033 -0.4493 -0.2272 -0.7533
  869SOL    HW1 3474   2.166   2.304   0.998  3.2270  1.0877  1.3755
  869SOL    HW2 3475   2.010   2.320   0.961  0.2707  0.6326 -1.6660
  869SOL     MW 3476   2.080   2.323   1.019  0.1307  0.0598 -0.5928
  870SOL     OW 3477   2.148   0.015   0.496 -0.2382  0.6434 -0.2188
  870SOL    HW1 3478   2.212   0.069   0.441  0.6030  1.9769 -1.4299
  870SOL    HW2 3479   2.179  -0.072   0.485 -1.0754  1.8711  1.9119
  870SOL     MW 3480   2.160   0.011   0.487 -0.2377  0.9813 -0.0975
  871SOL     OW 3481   2.453   2.088   0.932  0.1325  0.3776 -0.1933
  871SOL    HW1 3482   2.388   2.038   0.886  0.8718 -1.0381  1.8438
  871SOL    HW2 3483   2.410   2.175   0.954 -0.8485  0.0052  1.3937
  871SOL     MW 3484   2.439   2.093   0.929  0.1006  0.1417  0.2849
  872SOL     OW 3485   2.045   2.494   1.509  0.2516  0.2124 -0.2137
  872SOL    HW1 3486   1.970   2.522   1.566 -0.1606 -1.4778  0.5499
  872SOL    HW2 3487   2.005   2.419   1.460 -0.9236  2.4143 -1.7360
  872SOL     MW 3488   2.030   2.488   1.510  0.0422  0.2799 -0.3138
  873SOL     OW 3489   2.894   2.064   1.973  0.1810  0.6192 -0.3805
  873SOL    HW1 3490   2.898   2.110   2.061  0.4435  1.8773  0.2820
  873SOL    HW2 3491   2.933   2.118   1.900  2.0095  2.3838  1.4785
  873SOL     MW 3492   2.900   2.077   1.975  0.4569  1.0180 -0.0478
  874SOL     OW 3493   2.340   1.427   2.443  0.1953  0.4139 -0.5554
  874SOL    HW1 3494   2.296   1.406   2.363 -1.9242  0.7321  0.1015
  874SOL    HW2 3495   2.420   1.381   2.446 -1.9064  1.0502 -1.7563
  874SOL     MW 3496   2.345   1.418   2.433 -0.3617  0.5398 -0.6272
  875SOL     OW 3497   2.349   2.337   0.984  0.0472  0.1038 -0.1018
  875SOL    HW1 3498   2.402   2.390   0.927 -2.1115  1.5162  1.7909
  875SOL    HW2 3499   2.353   2.378   1.072  1.2736 -1.1595  2.0321
  875SOL     MW 3500   2.356   2.349   0.988 -0.0758  0.1234  0.4295
  876SOL     OW 3501   3.070   2.260   1.374 -0.3289  0.7524 -0.5421
  876SOL    HW1 3502   3.112   2.302   1.298 -2.7741 -1.5852 -2.4630
  876SOL    HW2 3503   3.119   2.307   1.445 -1.4379 -0.3927  1.3934
  876SOL     MW 3504   3.082   2.272   1.374 -0.7978  0.2929 -0.5402
  877SOL     OW 3505   3.087   2.848   0.310 -0.3500 -0.2945  0.3930
  877SOL    HW1 3506   3.174   2.890   0.301 -1.4730 -0.7790 -0.3251
  877SOL    HW2 3507   3.080   2.786   0.240 -0.4721  1.6215 -0.3354
  877SOL     MW 3508   3.098   2.845   0.299 -0.5142 -0.1057  0.2022
  878SOL     OW 3509   2.421   1.794   1.242  0.1421 -0.4267 -0.4428
  878SOL    HW1 3510   2.351   1.734   1.222  0.5259  1.6654  0.9510
  878SOL    HW2 3511   2.504   1.743   1.235  2.5419  0.5834  1.0751
  878SOL     MW 3512   2.422   1.779   1.239  0.5094 -0.0174 -0.0586
  879SOL     OW 3513   2.764   2.442   0.972  0.9907 -0.4554  0.0304
  879SOL    HW1 3514   2.813   2.522   0.987 -1.4007 -0.1198  0.6084
  879SOL    HW2 3515   2.804   2.401   0.891 -0.9240 -2.0722 -3.1604
  879SOL     MW 3516   2.776   2.447   0.963  0.4225 -0.6244 -0.3144
  880SOL     OW 3517   2.616   2.159   0.720 -0.1767  0.0651 -0.7768
  880SOL    HW1 3518   2.573   2.147   0.808  2.5711 -1.6570  2.2047
  880SOL    HW2 3519   2.566   2.109   0.663 -1.0093 -0.3196  1.8003
  880SOL     MW 3520   2.603   2.151   0.724  0.0760 -0.2129 -0.0434
  881SOL     OW 3521   2.988   2.724   0.706 -0.2687  0.1461 -0.3542
  881SOL    HW1 3522   2.907   2.712   0.661  3.3665  1.9373 -1.4115
  881SOL    HW2 3523   3.057   2.673   0.657  2.3781  0.7337 -1.5065
  881SOL     MW 3524   2.987   2.716   0.694  0.5601  0.4600 -0.6457
  882SOL     OW 3525   2.244   2.891   1.953  0.0638 -0.1230 -0.7050
  882SOL    HW1 3526   2.241   2.895   1.856  0.4872 -0.6627  2.4160
  882SOL    HW2 3527   2.219   2.797   1.971  0.8068 -2.9421 -1.7066
  882SOL     MW 3528   2.240   2.879   1.942  0.2177 -0.5661 -0.4254
  883SOL     OW 3529   2.338   2.205   1.363  0.5317 -0.0938 -0.5062
  883SOL    HW1 3530   2.406   2.143   1.337 -0.9516  2.2177 -0.9632
  883SOL    HW2 3531   2.259   2.169   1.337  0.1300  1.2884  0.3451
  883SOL     MW 3532   2.337   2.192   1.356  0.2830  0.3935 -0.4542
  884SOL     OW 3533   1.956   1.820   1.075  0.1204 -0.1254 -0.0573
  884SOL    HW1 3534   1.911   1.902   1.039  0.2329  2.3971 -3.0971
  884SOL    HW2 3535   2.052   1.843   1.093  0.2030  0.3043  0.5576
  884SOL     MW 3536   1.963   1.834   1.072  0.1461  0.2641 -0.3772
  885SOL     OW 3537   2.855   2.436   1.804 -0.4273 -0.0110 -0.3237
  885SOL    HW1 3538   2.935   2.388   1.787  0.0988 -0.6846 -1.4962
  885SOL    HW2 3539   2.797   2.394   1.745  0.6960  0.9054  1.5961
  885SOL     MW 3540   2.858   2.424   1.794 -0.2097  0.0210 -0.2251
  886SOL     OW 3541   2.827   2.398   1.392  0.1331 -0.0832 -0.3055
  886SOL    HW1 3542   2.910   2.351   1.381  4.3838 -1.2938 -1.3717
  886SOL    HW2 3543   2.846   2.488   1.412 -0.6420 -1.7702  2.9920
  886SOL     MW 3544   2.840   2.403   1.393  0.5917 -0.4655 -0.0111
  887SOL     OW 3545   2.274   2.655   1.547 -0.5914  0.2029 -0.2785
  887SOL    HW1 3546   2.324   2.652   1.464  0.3601  1.7623 -1.5239
  887SOL    HW2 3547   2.190   2.614   1.531 -1.5224  2.5556 -1.0261
  887SOL     MW 3548   2.269   2.649   1.534 -0.5887  0.7190 -0.5414
  888SOL     OW 3549   1.866   2.165   1.394  0.5029 -0.1551 -0.5331
  888SOL    HW1 3550   1.945   2.149   1.341  0.8366  1.4533  1.4761
  888SOL    HW2 3551   1.912   2.178   1.481  2.3982  0.5366 -0.8471
  888SOL     MW 3552   1.882   2.164   1.399  0.7970  0.1484 -0.3094
  889SOL     OW 3553   2.354   2.023   2.086 -0.0288  0.2476 -0.2444
  889SOL    HW1 3554   2.431   2.022   2.144  1.6737 -2.8484 -0.1378
  889SOL    HW2 3555   2.384   2.068   2.008  0.8330 -2.7559 -1.6054
  889SOL     MW 3556   2.368   2.029   2.083  0.3095 -0.5572 -0.4099
  890SOL     OW 3557   0.075   2.382   0.144 -0.3315 -0.3319 -0.2220
  890SOL    HW1 3558   0.028   2.462   0.146 -1.0447  0.0362  1.4716
  890SOL    HW2 3559   0.052   2.338   0.227  0.0783  0.6891 -1.7294
  890SOL     MW 3560   0.066   2.387   0.155 -0.3715 -0.1486 -0.1974
  891SOL     OW 3561   3.088   1.985   1.266 -0.6815 -0.0958 -0.4490
  891SOL    HW1 3562   3.167   1.933   1.277  1.1258 -1.0594 -0.0783
  891SOL    HW2 3563   3.117   2.068   1.303  3.0269 -2.2732  1.1866
  891SOL     MW 3564   3.102   1.989   1.273  0.0463 -0.5102 -0.1843
  892SOL     OW 3565   2.461   2.359   2.764  0.2743  0.6182  0.1797
  892SOL    HW1 3566   2.432   2.273   2.806 -0.7932  3.3122 -1.4060
  892SOL    HW2 3567   2.561   2.372   2.789  0.0805 -2.1268  0.9758
  892SOL     MW 3568   2.470   2.349   2.773  0.1079  0.6114  0.0755
  893SOL     OW 3569   1.595   2.453   1.209  0.5068  0.0997 -0.0553
  893SOL    HW1 3570   1.515   2.480   1.250  0.5987  0.4230  1.5901
  893SOL    HW2 3571   1.662   2.478   1.273  1.0573 -1.3281  0.2781
  893SOL     MW 3572   1.594   2.460   1.222  0.5916 -0.0460  0.2058
  894SOL     OW 3573   2.722   1.879   0.434 -0.2108  0.5852  0.1002
  894SOL    HW1 3574   2.629   1.871   0.435  2.4502 -1.3763  0.3633
  894SOL    HW2 3575   2.759   1.831   0.355 -0.0851 -2.4107  2.9595
  894SOL     MW 3576   2.714   1.872   0.424  0.1569 -0.0689  0.5121
  895SOL     OW 3577   2.101   2.143   1.254 -0.7802  0.5902  0.4584
  895SOL    HW1 3578   2.077   2.218   1.195  2.0152  0.4816 -0.8719
  895SOL    HW2 3579   2.119   2.069   1.193  0.5753 -1.1965 -0.2780
  895SOL     MW 3580   2.100   2.143   1.238 -0.2325  0.3402  0.1857
  896SOL     OW 3581   2.326   2.807   1.093  0.2575 -0.2209  0.2535
  896SOL    HW1 3582   2.340   2.790   1.184 -4.7496  0.9006 -1.3929
  896SOL    HW2 3583   2.265   2.876   1.092 -2.8355  1.5577 -0.5746
  896SOL     MW 3584   2.320   2.814   1.105 -0.8112  0.1618 -0.0730
  897SOL     OW 3585   3.055   3.043   3.050 -0.1061  0.1072 -0.1585
  897SOL    HW1 3586   3.094   2.966   3.006  1.2178  2.3148  1.3919
  897SOL    HW2 3587   2.990   3.045   2.988  2.5402 -0.1734  0.4525
  897SOL     MW 3588   3.052   3.033   3.036  0.4178  0.3614  0.1266
  898SOL     OW 3589   2.079   0.184   1.483 -0.3961 -0.1778  0.1637
  898SOL    HW1 3590   2.054   0.094   1.506  0.3713  0.7880 -0.9762
  898SOL    HW2 3591   2.076   0.188   1.388 -0.7642  0.0640  2.2111
  898SOL     MW 3592   2.075   0.172   1.473 -0.3434 -0.0185  0.2834
  899SOL     OW 3593   2.962   2.975   0.622  0.9561  0.1006  0.0688
  899SOL    HW1 3594   2.978   2.880   0.653  0.2953  1.4530 -1.4387
  899SOL    HW2 3595   2.889   3.015   0.669 -0.2117  0.9594 -1.8091
  899SOL     MW 3596   2.954   2.968   0.632  0.7148  0.3924 -0.3779
  900SOL     OW 3597   0.043   2.397   1.141 -0.8266 -0.0382  0.2994
  900SOL    HW1 3598   0.039   2.492   1.159 -0.2544 -1.7190  0.4258
  900SOL    HW2 3599   0.042   2.377   1.046 -0.5200 -0.8035 -0.8899
  900SOL     MW 3600   0.042   2.407   1.131 -0.7107 -0.3609  0.1592
  901SOL     OW 3601   1.746   2.840   1.782  0.2355 -0.1352  0.3073
  901SOL    HW1 3602   1.834   2.789   1.772  3.1717 -2.0946 -1.9488
  901SOL    HW2 3603   1.705   2.813   1.701 -0.4248  0.6242  0.9744
  901SOL     MW 3604   1.752   2.830   1.770  0.5358 -0.2935  0.0977
  902SOL     OW 3605   2.648   2.074   1.810 -0.3427 -0.1908 -0.3820
  902SOL    HW1 3606   2.669   2.013   1.747 -1.2764  2.2406  0.6601
  902SOL    HW2 3607   2.724   2.091   1.865  1.3808  0.5505 -1.1335
  902SOL     MW 3608   2.661   2.068   1.809 -0.2385  0.2278 -0.3437
  903SOL     OW 3609   1.600   2.655   0.648 -0.9306  0.2097 -0.0650
  903SOL    HW1 3610   1.689   2.624   0.674 -3.0638 -0.9942 -0.7636
  903SOL    HW2 3611   1.561   2.726   0.709 -1.8256  1.4372 -0.8742
  903SOL     MW 3612   1.607   2.660   0.659 -1.3302  0.2128 -0.2639
  904SOL     OW 3613   2.534   2.589   1.661 -0.0655 -0.7574 -0.1320
  904SOL    HW1 3614   2.456   2.616   1.618 -0.3722  0.0460  1.3686
  904SOL    HW2 3615   2.564   2.496   1.636 -0.9008 -1.1380  0.7059
  904SOL     MW 3616   2.528   2.581   1.652 -0.2162 -0.7016  0.1765
  905SOL     OW 3617   2.284   2.505   2.123  0.9025 -0.2055 -0.3713
  905SOL    HW1 3618   2.314   2.464   2.047  0.8691 -0.0269  2.3370
  905SOL    HW2 3619   2.244   2.431   2.174  0.0715 -1.1929  0.1383
  905SOL     MW 3620   2.283   2.490   2.120  0.7885 -0.3122  0.0533
  906SOL     OW 3621   2.509   2.492   0.825  0.0356  0.2978 -0.9081
  906SOL    HW1 3622   2.596   2.479   0.868  0.1639  2.7862  0.7096
  906SOL    HW2 3623   2.485   2.581   0.849 -0.3794 -3.0063 -1.0733
  906SOL     MW 3624   2.517   2.502   0.834 -0.0022  0.1901 -0.7164
  907SOL     OW 3625   2.644   2.842   1.325 -0.5371 -0.0504 -0.8107
  907SOL    HW1 3626   2.689   2.913   1.373 -0.7646 -0.0255 -1.8682
  907SOL    HW2 3627   2.690   2.847   1.237 -2.1285  0.0207  1.0535
  907SOL     MW 3628   2.656   2.852   1.320 -0.7771 -0.0378 -0.7042
  908SOL     OW 3629   2.711   2.355   0.020  0.1852  0.5849 -0.0438
  908SOL    HW1 3630   2.651   2.295   0.061  2.2318 -2.7381 -0.4995
  908SOL    HW2 3631   2.693   2.444   0.063 -1.9729  1.8472 -0.3206
  908SOL     MW 3632   2.701   2.359   0.031  0.1705  0.3130 -0.1405
  909SOL     OW 3633   1.754   0.054   1.190  1.3550 -0.1028 -0.2473
  909SOL    HW1 3634   1.724   0.122   1.126  0.1600  2.0459 -0.3887
  909SOL    HW2 3635   1.712   0.065   1.275  1.3742 -0.2758 -2.8105
  909SOL     MW 3636   1.744   0.064   1.193  1.1999  0.1579 -0.6042
  910SOL     OW 3637   2.222   1.751   0.401 -0.3679 -0.6972 -0.0611
  910SOL    HW1 3638   2.175   1.670   0.377  1.5596  0.2636  0.8664
  910SOL    HW2 3639   2.209   1.812   0.327 -0.2811 -0.6845 -0.1418
  910SOL     MW 3640   2.214   1.748   0.388 -0.1021 -0.5687  0.0506
  911SOL     OW 3641   2.258   2.084   1.609 -0.4142 -0.5390 -0.9895
  911SOL    HW1 3642   2.300   2.113   1.690 -0.6230  1.1200  1.0253
  911SOL    HW2 3643   2.294   2.134   1.537 -1.3807  0.4596  0.1659
  911SOL     MW 3644   2.268   2.095   1.610 -0.5692 -0.1884 -0.5713
  912SOL     OW 3645   2.940   1.919   1.487 -0.0585 -0.2880 -0.2792
  912SOL    HW1 3646   2.994   1.942   1.414 -3.2815 -1.5596  4.1689
  912SOL    HW2 3647   2.859   1.957   1.451 -0.2556 -1.1187 -3.1988
  912SOL     MW 3648   2.936   1.927   1.472 -0.5098 -0.5653 -0.0775
  913SOL     OW 3649   2.619   3.051   0.351 -0.5161  0.2163 -0.0941
  913SOL    HW1 3650   2.701   2.990   0.360  3.0706  0.0698 -0.9371
  913SOL    HW2 3651   2.567   3.003   0.294  1.0488 -0.6890  3.6962
  913SOL     MW 3652   2.623   3.037   0.345  0.1636  0.0775  0.2948
  914SOL     OW 3653   2.710   1.778   3.016 -0.2521  0.5553 -0.4052
  914SOL    HW1 3654   2.732   1.866   2.992 -0.3918  1.1885  2.1076
  914SOL    HW2 3655   2.616   1.780   3.018 -2.1952  1.8998  1.7610
  914SOL     MW 3656   2.700   1.790   3.013 -0.5269  0.8163  0.2121
  915SOL     OW 3657   1.707   0.216   0.243  0.4325 -0.4242 -0.4030
  915SOL    HW1 3658   1.772   0.150   0.287  0.4574 -1.2826 -0.4179
  915SOL    HW2 3659   1.631   0.158   0.237 -0.6554  0.3815  1.5277
  915SOL     MW 3660   1.706   0.200   0.248  0.2923 -0.4312 -0.1502
  916SOL     OW 3661   1.835   2.130   1.971 -0.1267 -0.0019  0.3383
  916SOL    HW1 3662   1.858   2.222   1.950 -1.0873  1.6063  1.8067
  916SOL    HW2 3663   1.832   2.076   1.893 -0.2236 -0.0641 -0.2241
  916SOL     MW 3664   1.837   2.135   1.958 -0.2662  0.2021  0.4579
  917SOL     OW 3665   2.482   2.186   2.544  0.0114 -0.4500  0.6310
  917SOL    HW1 3666   2.456   2.251   2.611 -0.8537 -1.5938 -1.4724
  917SOL    HW2 3667   2.562   2.222   2.508 -1.8719  0.7539  0.7270
  917SOL     MW 3668   2.489   2.199   2.548 -0.3513 -0.4421  0.3662
  918SOL     OW 3669   1.956   1.590   2.686  0.1723  0.1682 -0.0201
  918SOL    HW1 3670   1.890   1.622   2.618 -0.0845 -3.5793 -0.7077
  918SOL    HW2 3671   2.043   1.639   2.665  0.5312 -0.9578  0.3847
  918SOL     MW 3672   1.958   1.601   2.674  0.1857 -0.4748 -0.0574
  919SOL     OW 3673   3.074   2.355   2.298  0.1383  0.3941  0.9208
  919SOL    HW1 3674   3.003   2.306   2.261  0.1886 -0.6860 -0.9335
  919SOL    HW2 3675   3.122   2.391   2.218  0.9368  1.0371 -3.8163
  919SOL     MW 3676   3.071   2.353   2.282  0.2503  0.3365  0.0511
  920SOL     OW 3677   2.709   2.868   3.090  0.2914  0.3412 -0.3815
  920SOL    HW1 3678   2.636   2.883   3.154  0.0415  1.7410  1.1933
  920SOL    HW2 3679   2.686   2.787   3.040 -1.4923  0.2600 -0.3577
  920SOL     MW 3680   2.696   2.859   3.092  0.0231  0.5152 -0.1706
  921SOL     OW 3681   2.422   2.625   2.605  0.3230 -0.2206 -0.2806
  921SOL    HW1 3682   2.503   2.627   2.557 -1.3484 -1.8508  0.1590
  921SOL    HW2 3683   2.432   2.549   2.665 -0.3342  1.3321 -2.7700
  921SOL     MW 3684   2.434   2.615   2.607  0.0158 -0.2308 -0.5510
  922SOL     OW 3685   2.032   2.824   0.278 -0.1618 -0.0192  0.0365
  922SOL    HW1 3686   2.017   2.841   0.182 -0.1802  1.1345 -0.4207
  922SOL    HW2 3687   2.051   2.726   0.284 -2.1354 -1.5923  0.4279
  922SOL     MW 3688   2.033   2.813   0.266 -0.4246 -0.0745  0.0278
  923SOL     OW 3689   2.194   2.892   1.691 -0.0046  0.0662  0.0184
  923SOL    HW1 3690   2.246   2.860   1.617  1.8713  2.2375 -0.9476
  923SOL    HW2 3691   2.128   2.949   1.647  1.6617  1.4209  0.7055
  923SOL     MW 3692   2.192   2.896   1.676  0.4627  0.5314 -0.0184
  924SOL     OW 3693   1.143   2.733   2.567  0.0767  0.0961  0.2135
  924SOL    HW1 3694   1.236   2.772   2.583  3.5813  0.9635  1.9641
  924SOL    HW2 3695   1.127   2.655   2.626 -3.0796 -0.4292  0.4061
  924SOL     MW 3696   1.153   2.728   2.577  0.1227  0.1413  0.4699
  925SOL     OW 3697   3.048   0.193   2.646 -0.3405  0.1252  0.4575
  925SOL    HW1 3698   3.003   0.202   2.561  1.3335  0.1826 -1.0783
  925SOL    HW2 3699   2.999   0.247   2.704 -0.5492  0.5480  1.0438
  925SOL     MW 3700   3.036   0.201   2.643 -0.1472  0.1886  0.3322
  926SOL     OW 3701   2.703   2.424   2.042 -0.0844 -0.4993 -0.6460
  926SOL    HW1 3702   2.751   2.480   2.101  0.5728 -1.2799  2.8998
  926SOL    HW2 3703   2.752   2.427   1.954  0.3514 -0.9164 -0.3861
  926SOL     MW 3704   2.716   2.432   2.038  0.0598 -0.6573 -0.1438
  927SOL     OW 3705   2.332   0.144   0.341  0.4087  0.6447  0.0744
  927SOL    HW1 3706   2.423   0.160   0.345  2.0959 -1.5698 -0.5244
  927SOL    HW2 3707   2.321   0.104   0.256 -0.5631 -0.0167  0.2348
  927SOL     MW 3708   2.343   0.141   0.330  0.5031  0.2653  0.0166
  928SOL     OW 3709   2.180   2.394   1.754 -0.3887  0.7094 -0.2712
  928SOL    HW1 3710   2.140   2.377   1.665 -0.3690  0.8655  1.4950
  928SOL    HW2 3711   2.236   2.470   1.750  0.0329 -0.5988 -0.5239
  928SOL     MW 3712   2.182   2.402   1.742 -0.3305  0.5574 -0.0715
  929SOL     OW 3713   2.733   2.300   2.448  0.1363  0.3102  0.1961
  929SOL    HW1 3714   2.782   2.265   2.369  1.7121 -0.0916 -2.2185
  929SOL    HW2 3715   2.793   2.298   2.523 -3.7833 -0.1546  2.6560
  929SOL     MW 3716   2.747   2.295   2.448 -0.1730  0.1959  0.2020
  930SOL     OW 3717   2.017   2.845   2.714 -0.2731 -0.1816 -0.8616
  930SOL    HW1 3718   2.050   2.765   2.766  1.9446 -0.6119 -0.0398
  930SOL    HW2 3719   2.089   2.909   2.712 -0.5831 -0.3997 -1.4473
  930SOL     MW 3720   2.031   2.843   2.721 -0.0214 -0.2671 -0.8304
  931SOL     OW 3721   3.028   2.711   2.416 -0.1357 -0.2743  0.5049
  931SOL    HW1 3722   3.071   2.730   2.499  0.8472 -2.2518  0.0470
  931SOL    HW2 3723   3.069   2.766   2.340 -0.6578  2.9315 -0.2947
  931SOL     MW 3724   3.039   2.721   2.417 -0.0749 -0.1123  0.3390
  932SOL     OW 3725   2.947   1.913   2.486  0.1669 -0.4609 -0.0261
  932SOL    HW1 3726   3.033   1.955   2.473  0.6833  0.0924  1.2052
  932SOL    HW2 3727   2.891   1.938   2.415  1.1728  1.3431  0.9737
  932SOL     MW 3728   2.951   1.922   2.475  0.3678 -0.1499  0.2683
  933SOL     OW 3729   2.055   2.801   2.208 -0.0281 -0.3953  0.0530
  933SOL    HW1 3730   2.141   2.831   2.222 -1.2906  1.4429  0.2183
  933SOL    HW2 3731   2.003   2.878   2.200  2.5486 -2.9353  0.2206
  933SOL     MW 3732   2.059   2.815   2.209  0.1453 -0.4879  0.0969
  934SOL     OW 3733   2.010   2.708   2.463 -0.2306 -0.4701 -0.3757
  934SOL    HW1 3734   2.030   2.784   2.527 -2.5034  0.6899 -1.3781
  934SOL    HW2 3735   2.016   2.745   2.375  2.3298  1.5323  1.4582
  934SOL     MW 3736   2.014   2.723   2.460 -0.1927 -0.0528 -0.2660
  935SOL     OW 3737   2.683   1.565   1.861 -0.2964 -0.0574  0.6943
  935SOL    HW1 3738   2.774   1.578   1.842 -0.6337 -0.2618 -5.5328
  935SOL    HW2 3739   2.643   1.558   1.772  0.3316  0.0885 -2.3548
  935SOL     MW 3740   2.689   1.566   1.847 -0.2581 -0.0651 -0.5296
  936SOL     OW 3741   2.990   2.241   0.002  0.2345  0.8991 -0.1329
  936SOL    HW1 3742   3.060   2.299   0.044  3.2068 -0.3341  0.0651
  936SOL    HW2 3743   2.902   2.279   0.019  1.6906  1.0323  1.4655
  936SOL     MW 3744   2.988   2.254   0.010  0.8187  0.7540  0.1041
  937SOL     OW 3745   1.968   2.142   2.649 -0.1242  0.0621  0.4643
  937SOL    HW1 3746   2.039   2.103   2.696  0.7350  0.6014 -1.3035
  937SOL    HW2 3747   1.972   2.117   2.559  0.6795 -1.2234 -2.7550
  937SOL     MW 3748   1.978   2.134   2.644  0.0952 -0.0364 -0.1937
  938SOL     OW 3749   2.283   1.806   1.929 -0.0581 -0.3788 -0.5253
  938SOL    HW1 3750   2.295   1.804   1.836 -0.2696 -0.6881  1.0892
  938SOL    HW2 3751   2.289   1.894   1.965 -1.6331 -0.9963 -0.9845
  938SOL     MW 3752   2.285   1.818   1.922 -0.2938 -0.5011 -0.3729
  939SOL     OW 3753   2.766   1.978   2.275  0.0018 -0.2627 -0.3552
  939SOL    HW1 3754   2.798   1.907   2.222  0.4766 -0.8084  1.6455
  939SOL    HW2 3755   2.675   1.960   2.307 -3.0835 -0.3182  2.8886
  939SOL     MW 3756   2.758   1.967   2.272 -0.3426 -0.3420  0.3368
  940SOL     OW 3757   2.304   0.156   2.681  0.3344 -0.1837  0.2152
  940SOL    HW1 3758   2.300   0.068   2.655  0.8595  1.8896 -1.0849
  940SOL    HW2 3759   2.351   0.170   2.763  1.2513  0.2889  2.6529
  940SOL     MW 3760   2.310   0.146   2.688  0.5246  0.1522  0.3653
  941SOL     OW 3761   0.110   2.445   2.083  0.4568 -0.0792  0.4606
  941SOL    HW1 3762   0.191   2.400   2.077 -3.0844  1.2587  0.1394
  941SOL    HW2 3763   0.086   2.445   1.989  0.4695  0.4254  1.0624
  941SOL     MW 3764   0.118   2.439   2.070 -0.0088  0.1639  0.4976
  942SOL     OW 3765   2.845   2.220   2.218 -0.4968  0.2989 -0.0985
  942SOL    HW1 3766   2.791   2.274   2.164 -0.4190 -1.6268 -1.7610
  942SOL    HW2 3767   2.803   2.129   2.240 -0.5585 -0.1722 -1.8759
  942SOL     MW 3768   2.832   2.215   2.214 -0.4947 -0.0173 -0.5523
  943SOL     OW 3769   0.253   2.121   2.269 -0.2636  0.1910 -0.7737
  943SOL    HW1 3770   0.225   2.162   2.357 -0.6892  1.3215  1.8146
  943SOL    HW2 3771   0.332   2.063   2.291 -1.4315 -1.5673 -2.1012
  943SOL     MW 3772   0.260   2.119   2.284 -0.4739  0.1082 -0.6074
  944SOL     OW 3773   2.079   2.638   1.982 -0.2209  0.0316  0.0572
  944SOL    HW1 3774   2.106   2.556   2.017  0.9902 -0.7613  0.8353
  944SOL    HW2 3775   2.040   2.683   2.054  1.8678 -3.5172  0.5929
  944SOL     MW 3776   2.077   2.633   1.996  0.2144 -0.5412  0.2306
  945SOL     OW 3777   2.727   2.658   2.898  0.2137 -0.1997 -0.0456
  945SOL    HW1 3778   2.692   2.572   2.861  0.1514  0.5018 -1.5848
  945SOL    HW2 3779   2.741   2.714   2.820  1.2437  1.3417 -0.9477
  945SOL     MW 3780   2.725   2.654   2.883  0.3414  0.0962 -0.3677
  946SOL     OW 3781   2.466   2.695   2.249 -0.1513  0.0314  0.1922
  946SOL    HW1 3782   2.507   2.739   2.175 -2.3901  0.6047 -0.9086
  946SOL    HW2 3783   2.402   2.619   2.208 -2.0352 -0.8171  0.3003
  946SOL     MW 3784   2.463   2.691   2.233 -0.6952 -0.0049  0.0612
  947SOL     OW 3785   1.940   0.052   0.305  0.8202  0.1376 -0.2101
  947SOL    HW1 3786   1.925  -0.029   0.256 -2.0711 -3.2447 -0.4980
  947SOL    HW2 3787   2.017   0.035   0.366 -1.1397 -0.5478  1.6326
  947SOL     MW 3788   1.948   0.039   0.306  0.1801 -0.3991 -0.0050
  948SOL     OW 3789   1.789   3.019   2.681  0.3464 -0.4147  0.0553
  948SOL    HW1 3790   1.846   2.945   2.671  2.2995  1.6066  2.6107
  948SOL    HW2 3791   1.774   3.040   2.584 -1.5934 -0.9006 -1.3473
  948SOL     MW 3792   1.794   3.012   2.667  0.3482 -0.2121  0.2074
  949SOL     OW 3793   2.509   1.926   2.319  0.3623  0.1951  0.4885
  949SOL    HW1 3794   2.503   1.834   2.336 -0.1330  0.2896 -1.5511
  949SOL    HW2 3795   2.425   1.963   2.352  0.6657  2.1579  0.0055
  949SOL     MW 3796   2.497   1.919   2.326  0.3370  0.4665  0.1557
  950SOL     OW 3797   2.340   2.568   2.916  0.1252  0.3552 -0.2657
  950SOL    HW1 3798   2.377   2.492   2.871  0.6718  0.4662  0.0335
  950SOL    HW2 3799   2.253   2.579   2.886  0.6581 -2.4539 -0.4928
  950SOL     MW 3800   2.333   2.559   2.906  0.2676 -0.0008 -0.2562
  951SOL     OW 3801   3.059   2.125   2.866  0.1546  0.2291  0.3862
  951SOL    HW1 3802   3.043   2.153   2.955 -2.2514 -0.7599 -0.6462
  951SOL    HW2 3803   3.094   2.037   2.867 -0.6543  1.6407  0.6447
  951SOL     MW 3804   3.062   2.117   2.878 -0.2696  0.2849  0.2841
  952SOL     OW 3805   3.030   1.689   2.141  0.0571 -0.2080 -0.4012
  952SOL    HW1 3806   2.949   1.716   2.100  0.7584 -1.1939  0.6727
  952SOL    HW2 3807   3.071   1.771   2.165  4.2700 -3.2139 -1.2485
  952SOL     MW 3808   3.024   1.703   2.139  0.7055 -0.7347 -0.3713
  953SOL     OW 3809   1.929   1.756   2.883  0.5664 -0.6707  0.1189
  953SOL    HW1 3810   1.860   1.712   2.945 -1.5406  0.1857 -0.9319
  953SOL    HW2 3811   1.922   1.690   2.806 -2.6385  0.4743 -0.1357
  953SOL     MW 3812   1.919   1.741   2.881 -0.1344 -0.4066 -0.0534
  954SOL     OW 3813   2.402   2.106   2.850  0.6270  0.5813 -0.0223
  954SOL    HW1 3814   2.313   2.076   2.820  3.7368  2.1902  0.5160
  954SOL    HW2 3815   2.469   2.062   2.803  2.2498  1.8432  1.3787
  954SOL     MW 3816   2.399   2.096   2.840  1.2514  0.9600  0.2335
  955SOL     OW 3817   1.546   1.628   2.564  0.3848 -0.0461 -0.5333
  955SOL    HW1 3818   1.530   1.611   2.466  1.4554 -4.1041 -1.7666
  955SOL    HW2 3819   1.637   1.672   2.578  0.6109  2.2417  3.4987
  955SOL     MW 3820   1.556   1.632   2.553  0.5559 -0.2797 -0.1641
  956SOL     OW 3821   2.718   2.393   2.842 -0.3339 -0.1274  0.1564
  956SOL    HW1 3822   2.747   2.358   2.927 -1.2840  1.5715  0.4032
  956SOL    HW2 3823   2.791   2.350   2.786  0.7808 -0.9382 -2.1329
  956SOL     MW 3824   2.731   2.383   2.846 -0.3122 -0.0102 -0.1131
  957SOL     OW 3825   2.239   2.856   0.452  0.0183 -0.0332  0.1485
  957SOL    HW1 3826   2.179   2.837   0.387 -0.0449  0.3365  2.1202
  957SOL    HW2 3827   2.242   2.798   0.526 -2.9009 -0.3588 -1.0721
  957SOL     MW 3828   2.231   2.846   0.453 -0.3752 -0.0274  0.2476
  958SOL     OW 3829   2.073   2.595   2.840 -0.1603  0.4743  0.5105
  958SOL    HW1 3830   2.050   2.529   2.782 -2.6475  2.3284 -1.9250
  958SOL    HW2 3831   2.002   2.605   2.907  0.1331  1.7532  0.8024
  958SOL     MW 3832   2.060   2.587   2.841 -0.4497  0.8876  0.2277
  959SOL     OW 3833   2.466   2.728   0.392 -0.2010  0.4847  0.2506
  959SOL    HW1 3834   2.487   2.758   0.301  2.0792  3.6638 -1.7659
  959SOL    HW2 3835   2.386   2.782   0.406 -0.2846  0.8211 -1.9315
  959SOL     MW 3836   2.458   2.739   0.382  0.0888  0.9486 -0.3033
  960SOL     OW 3837   1.877   2.332   2.311  0.0732 -0.3323 -0.1425
  960SOL    HW1 3838   1.877   2.237   2.320 -1.7630 -0.6328  1.6162
  960SOL    HW2 3839   1.838   2.346   2.397  1.1457 -0.2516 -1.0888
  960SOL     MW 3840   1.872   2.321   2.324 -0.0276 -0.3613 -0.0353
  961SOL     OW 3841   2.169   2.325   2.314 -0.0772  0.1352 -0.2662
  961SOL    HW1 3842   2.074   2.320   2.318 -1.5493  1.2239 -1.6244
  961SOL    HW2 3843   2.187   2.411   2.363  0.8651 -1.5534 -1.1128
  961SOL     MW 3844   2.159   2.336   2.321 -0.1471  0.0560 -0.5571
  962SOL     OW 3845   2.173   1.991   2.769  0.3836  0.6602  0.0536
  962SOL    HW1 3846   2.138   1.968   2.858 -0.9323  1.0239  0.2864
  962SOL    HW2 3847   2.177   1.908   2.721 -0.7116 -1.7016 -1.4299
  962SOL     MW 3848   2.169   1.977   2.775  0.0655  0.3966 -0.1114
  963SOL     OW 3849   1.786   2.484   2.094  0.4815  0.1406 -0.4191
  963SOL    HW1 3850   1.851   2.430   2.144 -1.5942  1.0591  1.2181
  963SOL    HW2 3851   1.797   2.460   2.001  2.5817 -2.0762 -1.2112
  963SOL     MW 3852   1.796   2.474   2.088  0.4847 -0.0307 -0.3076
  964SOL     OW 3853   1.816   1.948   2.736  0.3462  0.3318 -0.6896
  964SOL    HW1 3854   1.860   2.027   2.699 -3.0400  1.2188  0.5765
  964SOL    HW2 3855   1.870   1.888   2.792  0.3603 -1.6474  0.4398
  964SOL     MW 3856   1.829   1.950   2.739 -0.0987  0.1877 -0.3736
  965SOL     OW 3857   2.273   2.684   0.652 -0.0341 -0.1463  0.3653
  965SOL    HW1 3858   2.290   2.594   0.618  1.9485 -0.3465 -0.1828
  965SOL    HW2 3859   2.334   2.685   0.725 -1.0422 -2.3380  1.7045
  965SOL     MW 3860   2.283   2.672   0.657  0.0945 -0.4619  0.4697
  966SOL     OW 3861   2.659   2.599   2.432 -0.1276 -0.1187 -0.6660
  966SOL    HW1 3862   2.598   2.640   2.360  1.5487  0.3419  1.9108
  966SOL    HW2 3863   2.656   2.503   2.410  0.1719 -0.4917 -1.4024
  966SOL     MW 3864   2.650   2.592   2.420  0.1331 -0.1072 -0.4232
  967SOL     OW 3865   2.786   3.094   2.952 -0.1901 -0.7238 -0.1800
  967SOL    HW1 3866   2.784   3.018   3.013  1.0429  0.8319 -0.3524
  967SOL    HW2 3867   2.716   3.083   2.894  2.4534  2.5238 -1.3809
  967SOL     MW 3868   2.777   3.083   2.952  0.3213 -0.0900 -0.3612
  968SOL     OW 3869   3.014   2.633   2.959  0.8692  0.1750  0.3866
  968SOL    HW1 3870   2.925   2.625   2.920  1.4344  0.7548 -1.0225
  968SOL    HW2 3871   3.066   2.578   2.890  2.4008 -0.4579 -0.9955
  968SOL     MW 3872   3.009   2.625   2.945  1.1459  0.1680  0.0183
  969SOL     OW 3873   1.609   2.162   1.662  0.1165 -0.5043  0.1049
  969SOL    HW1 3874   1.669   2.088   1.675 -1.0609  0.1548  0.1621
  969SOL    HW2 3875   1.587   2.193   1.753  0.6818  0.5274  2.6761
  969SOL     MW 3876   1.614   2.156   1.676  0.0357 -0.2812  0.4517
  970SOL     OW 3877   1.742   1.811   1.922  0.1382  0.2206 -0.1174
  970SOL    HW1 3878   1.771   1.728   1.950 -3.7419  3.3602 -2.1849
  970SOL    HW2 3879   1.651   1.801   1.936  3.1888  0.2646  0.5506
  970SOL     MW 3880   1.734   1.799   1.927  0.0287  0.6407 -0.3020
  971SOL     OW 3881   1.784   0.043   2.411  0.2448  0.3092 -0.3105
  971SOL    HW1 3882   1.823  -0.008   2.339  0.7397  0.3469 -0.6945
  971SOL    HW2 3883   1.854   0.108   2.434  1.2221 -0.2390 -0.2990
  971SOL     MW 3884   1.798   0.045   2.405  0.4391  0.2419 -0.3597
  972SOL     OW 3885   0.260   2.892   2.473 -0.1959  0.7467  0.1866
  972SOL    HW1 3886   0.310   2.809   2.482 -0.4044 -2.1943  0.5003
  972SOL    HW2 3887   0.326   2.957   2.480 -1.8598 -0.4654  2.5289
  972SOL     MW 3888   0.275   2.890   2.475 -0.4430  0.1987  0.5370
  973SOL     OW 3889   2.629   0.021   2.092  0.1224 -0.1272  0.1587
  973SOL    HW1 3890   2.595  -0.069   2.075  2.0509  1.1440  2.0270
  973SOL    HW2 3891   2.630   0.069   2.010  0.4739 -1.5408  1.5375
  973SOL     MW 3892   2.625   0.015   2.079  0.4232 -0.1460  0.5871
  974SOL     OW 3893   2.048   0.244   2.734 -0.2441 -0.7555  0.2369
  974SOL    HW1 3894   2.144   0.249   2.727 -0.6404 -0.9352  1.5604
  974SOL    HW2 3895   2.033   0.173   2.791  1.4897 -1.5603 -1.7306
  974SOL     MW 3896   2.059   0.235   2.741 -0.0676 -0.8854  0.1519
  975SOL     OW 3897   2.186   2.521   2.490  0.2102 -0.0471  0.1881
  975SOL    HW1 3898   2.254   2.576   2.522  0.8156  0.4386 -0.8284
  975SOL    HW2 3899   2.126   2.593   2.463  2.8853  1.2446 -1.7039
  975SOL     MW 3900   2.187   2.538   2.491  0.6430  0.1874 -0.1956
  976SOL     OW 3901   0.235   0.381   1.790 -0.2133  0.0133  0.1070
  976SOL    HW1 3902   0.297   0.313   1.820 -0.9363  1.9647 -1.9719
  976SOL    HW2 3903   0.165   0.326   1.751 -2.1991 -1.9286 -1.2686
  976SOL     MW 3904   0.234   0.365   1.789 -0.5707  0.0146 -0.3488
  977SOL     OW 3905   1.746   2.681   2.529  0.0306  0.2682 -0.4236
  977SOL    HW1 3906   1.735   2.590   2.544 -3.2996  0.3663  1.0917
  977SOL    HW2 3907   1.834   2.696   2.490  1.4161  0.6720 -0.2746
  977SOL     MW 3908   1.757   2.671   2.526 -0.2260  0.3344 -0.2040
   3.10000   3.10000   3.10000
