977 TIP4P/2005f water molecules t=   1.77000 step= 1770
 3908
    1SOL     OW    1   0.400   0.778   0.101 -0.7355 -0.7138 -0.2485
    1SOL    HW1    2   0.370   0.735   0.019 -0.2284  0.0405 -1.4064
    1SOL    HW2    3   0.389   0.720   0.174  1.2609  2.5985  0.2287
    1SOL     MW    4   0.394   0.765   0.100 -0.4052 -0.1773 -0.3383
    2SOL     OW    5   0.304   3.013   1.097 -0.3728 -0.4840  0.1084
    2SOL    HW1    6   0.353   3.096   1.086 -0.5675  0.6282 -1.1944
    2SOL    HW2    7   0.210   3.041   1.093 -0.2100 -1.2124  2.2448
    2SOL     MW    8   0.298   3.028   1.095 -0.3770 -0.4334  0.2184
    3SOL     OW    9   2.682   0.358   0.978  0.1223  0.1930 -0.5689
    3SOL    HW1   10   2.714   0.436   0.919 -1.4442 -1.7885 -0.1910
    3SOL    HW2   11   2.659   0.400   1.073 -0.9762  0.5899 -0.0281
    3SOL     MW   12   2.683   0.374   0.983 -0.2294 -0.0161 -0.4477
    4SOL     OW   13   2.928   1.691   0.531 -0.2586 -0.1387  0.5500
    4SOL    HW1   14   2.910   1.782   0.509 -0.1280 -1.5098  0.9484
    4SOL    HW2   15   2.992   1.655   0.471  0.4042 -0.4307  0.4048
    4SOL     MW   16   2.934   1.698   0.520 -0.1539 -0.3581  0.5834
    5SOL     OW   17   1.611   1.409   0.620  0.0619  0.0073 -0.4418
    5SOL    HW1   18   1.643   1.421   0.712 -0.5367  0.2245  1.3586
    5SOL    HW2   19   1.522   1.434   0.627  0.0201  1.8803  1.9467
    5SOL     MW   20   1.603   1.414   0.633 -0.0226  0.2831  0.1109
    6SOL     OW   21   0.799   1.429   0.609  0.0837 -0.0764  0.3402
    6SOL    HW1   22   0.705   1.451   0.627  1.6785  1.3937 -0.4733
    6SOL    HW2   23   0.813   1.340   0.654  0.8134 -1.1340 -0.1676
    6SOL     MW   24   0.788   1.420   0.618  0.3904 -0.0219  0.1659
    7SOL     OW   25   1.957   1.024   0.015 -0.1400 -0.5777 -0.1275
    7SOL    HW1   26   2.021   1.094  -0.017  0.8178  3.2683  0.8442
    7SOL    HW2   27   1.959   1.026   0.114  0.7463  1.7867  3.0239
    7SOL     MW   28   1.966   1.033   0.024  0.1033  0.2417  0.4165
    8SOL     OW   29   0.809   1.437   1.038  0.0915 -0.7711 -0.6083
    8SOL    HW1   30   0.880   1.490   1.067  2.7990 -0.4394 -1.8625
    8SOL    HW2   31   0.813   1.361   1.094  1.1850  2.8939 -0.2966
    8SOL     MW   32   0.819   1.434   1.050  0.5930 -0.2437 -0.7327
    9SOL     OW   33   0.924   0.520   1.313  0.0084  0.0476  0.2359
    9SOL    HW1   34   0.853   0.448   1.315 -0.1509 -0.8376 -2.1677
    9SOL    HW2   35   0.991   0.473   1.365  0.6247  0.3369  2.4119
    9SOL     MW   36   0.923   0.504   1.320  0.0687 -0.0310  0.2059
   10SOL     OW   37   0.300   0.822   0.483  0.5059 -0.1226  0.1244
   10SOL    HW1   38   0.394   0.853   0.470  0.3138 -0.5526 -0.6561
   10SOL    HW2   39   0.275   0.878   0.563 -0.9668  3.0051 -0.4085
   10SOL     MW   40   0.309   0.833   0.492  0.2862  0.2334 -0.0489
   11SOL     OW   41   0.772   1.127   1.466  0.1334 -0.2388 -0.6050
   11SOL    HW1   42   0.828   1.151   1.540 -1.7517 -1.0583  0.7821
   11SOL    HW2   43   0.805   1.036   1.426 -1.7921 -2.6047  1.3700
   11SOL     MW   44   0.783   1.118   1.471 -0.3694 -0.6590 -0.1614
   12SOL     OW   45   0.063   1.076   0.914  0.5108  0.1444  0.1915
   12SOL    HW1   46   0.093   1.149   0.966 -0.5716 -1.0702 -0.5720
   12SOL    HW2   47  -0.020   1.107   0.865 -2.7882 -0.4515 -1.2831
   12SOL     MW   48   0.056   1.090   0.914 -0.0673 -0.0945 -0.1038
   13SOL     OW   49   1.812   1.412   1.310  0.0255  0.2779  0.4033
   13SOL    HW1   50   1.862   1.337   1.273 -2.8298 -0.3495  0.1128
   13SOL    HW2   51   1.867   1.490   1.314 -1.0179  0.6973  1.3989
   13SOL     MW   52   1.826   1.413   1.306 -0.4889  0.2505  0.4964
   14SOL     OW   53   0.578   0.306   1.830  0.1434 -0.4918  0.5107
   14SOL    HW1   54   0.509   0.260   1.779  0.0956 -2.7164 -1.1750
   14SOL    HW2   55   0.656   0.306   1.778  2.2315 -0.7761  0.8189
   14SOL     MW   56   0.579   0.300   1.817  0.4126 -0.8228  0.3290
   15SOL     OW   57   2.023   0.437   0.975  0.6768  0.3367 -0.1348
   15SOL    HW1   58   2.077   0.507   1.014  1.8467 -0.7697 -3.1295
   15SOL    HW2   59   2.050   0.440   0.885  0.4026  0.7685  0.8834
   15SOL     MW   60   2.033   0.447   0.968  0.7950  0.2477 -0.3955
   16SOL     OW   61   0.261   1.826   0.274 -0.4548  0.5037 -0.1148
   16SOL    HW1   62   0.351   1.795   0.271 -3.2243  1.6907  0.4202
   16SOL    HW2   63   0.280   1.914   0.312  1.0191  1.0536 -1.2180
   16SOL     MW   64   0.276   1.834   0.279 -0.6258  0.7329 -0.1898
   17SOL     OW   65   1.115   0.866   1.418  0.0003  0.5320  0.3083
   17SOL    HW1   66   1.138   0.841   1.507 -0.8486  1.4359 -1.1918
   17SOL    HW2   67   1.015   0.873   1.410 -0.7063 -1.2921  0.3430
   17SOL     MW   68   1.105   0.864   1.429 -0.2049  0.4106  0.1150
   18SOL     OW   69   0.043   1.651   0.351  0.3057  0.1662  0.1381
   18SOL    HW1   70   0.108   1.721   0.364 -1.2798 -0.7828  0.9421
   18SOL    HW2   71   0.028   1.626   0.259 -0.8860  0.8938 -0.0119
   18SOL     MW   72   0.049   1.657   0.341 -0.0608  0.1370  0.2244
   19SOL     OW   73   0.107   1.348   0.980 -0.0529 -0.2133 -0.4436
   19SOL    HW1   74   0.129   1.381   0.894  0.2155  4.0699  0.5446
   19SOL    HW2   75   0.010   1.351   0.979 -1.4188  2.6544 -1.4557
   19SOL     MW   76   0.097   1.353   0.969 -0.1977  0.7302 -0.4467
   20SOL     OW   77   0.448   2.117   1.259  0.2968 -0.0959 -0.1488
   20SOL    HW1   78   0.401   2.044   1.217 -2.4719 -0.3091  3.3058
   20SOL    HW2   79   0.401   2.132   1.347 -1.5838  1.8712 -1.4734
   20SOL     MW   80   0.436   2.110   1.265 -0.3167  0.1355  0.1322
   21SOL     OW   81   0.556   0.904   0.427 -0.2202  0.2183  0.1387
   21SOL    HW1   82   0.637   0.900   0.490  1.7173  4.6373  4.4846
   21SOL    HW2   83   0.586   0.917   0.338  0.2919 -2.2737  1.4599
   21SOL     MW   84   0.571   0.905   0.423  0.1030  0.4725  0.8864
   22SOL     OW   85   1.547   0.715   1.023 -0.0946  0.2174 -0.0617
   22SOL    HW1   86   1.512   0.702   0.937 -1.1434 -0.9780  0.8315
   22SOL    HW2   87   1.495   0.780   1.060  0.9247 -0.3805 -1.0802
   22SOL     MW   88   1.536   0.722   1.017 -0.0985 -0.0192 -0.0782
   23SOL     OW   89   3.048   0.819   0.718  0.3295 -0.0182 -0.9213
   23SOL    HW1   90   3.105   0.765   0.773 -0.7305 -1.6244  0.1949
   23SOL    HW2   91   3.117   0.885   0.693 -0.1513  2.8502 -1.4951
   23SOL     MW   92   3.065   0.821   0.722  0.1262  0.1483 -0.8498
   24SOL     OW   93   2.084   2.131   0.075  0.2478 -0.4346 -0.2354
   24SOL    HW1   94   2.019   2.135   0.149 -1.8977 -1.6328 -0.7142
   24SOL    HW2   95   2.060   2.047   0.043  3.0629  0.1308  0.7194
   24SOL     MW   96   2.072   2.120   0.081  0.3361 -0.5181 -0.1726
   25SOL     OW   97   0.225   1.439   0.411  0.1326  0.2033 -0.3653
   25SOL    HW1   98   0.166   1.513   0.372  1.3209 -1.6397  2.0057
   25SOL    HW2   99   0.310   1.437   0.358  0.8787  0.2084 -0.2544
   25SOL     MW  100   0.228   1.449   0.399  0.3878 -0.0392 -0.0379
   26SOL     OW  101   1.992   1.051   0.284 -0.5912 -0.5633  0.7510
   26SOL    HW1  102   1.954   1.084   0.368 -1.0802 -1.8140  0.6582
   26SOL    HW2  103   2.074   1.103   0.268  0.2912 -1.7371 -0.6451
   26SOL     MW  104   1.998   1.062   0.293 -0.5393 -0.8832  0.5546
   27SOL     OW  105   1.859   1.366   0.133  0.4240  0.1554  0.5278
   27SOL    HW1  106   1.811   1.441   0.167  0.4819 -1.5604  1.9784
   27SOL    HW2  107   1.922   1.358   0.202  0.4930  0.2392 -0.0295
   27SOL     MW  108   1.861   1.375   0.146  0.4407 -0.0599  0.6457
   28SOL     OW  109   0.435   0.938   2.060  0.4300  0.1230 -0.1555
   28SOL    HW1  110   0.475   0.918   2.144  0.5403  1.2534  1.3695
   28SOL    HW2  111   0.347   0.905   2.078  0.2746  0.0555 -0.1460
   28SOL     MW  112   0.429   0.931   2.074  0.4241  0.2632  0.0469
   29SOL     OW  113   0.162   1.439   0.718 -0.2866  0.1662 -0.1509
   29SOL    HW1  114   0.194   1.532   0.709 -0.2239 -0.3756 -0.9727
   29SOL    HW2  115   0.119   1.416   0.634  2.1055  1.0333 -2.0959
   29SOL     MW  116   0.161   1.448   0.705  0.0373  0.2091 -0.5160
   30SOL     OW  117   0.741   1.273   1.245  0.0915 -0.3674  0.4462
   30SOL    HW1  118   0.649   1.301   1.235  1.3885 -1.0363 -1.5468
   30SOL    HW2  119   0.744   1.213   1.321  0.2178  1.2880 -1.1352
   30SOL     MW  120   0.729   1.269   1.254  0.2793 -0.2372 -0.0254
   31SOL     OW  121   0.510   0.234   0.221 -0.1265 -0.7034 -0.3319
   31SOL    HW1  122   0.547   0.159   0.274 -0.2971  2.1773 -1.0128
   31SOL    HW2  123   0.483   0.191   0.140  2.7544 -1.8399  1.4779
   31SOL     MW  124   0.511   0.218   0.218  0.2311 -0.4733 -0.1830
   32SOL     OW  125   2.717   0.972   1.068  0.3164  0.2618 -0.0007
   32SOL    HW1  126   2.660   0.904   1.116  0.4875  2.1971 -0.9427
   32SOL    HW2  127   2.814   0.949   1.082  1.7577 -0.7449  1.4750
   32SOL     MW  128   2.722   0.960   1.076  0.5291  0.3843  0.0697
   33SOL     OW  129   1.602   1.232   0.417  0.0692 -0.3897  0.5992
   33SOL    HW1  130   1.695   1.222   0.390  0.3780 -0.5658 -2.0040
   33SOL    HW2  131   1.599   1.292   0.490  0.5830  2.1189 -0.6037
   33SOL     MW  132   1.614   1.238   0.423  0.1778 -0.0820  0.0970
   34SOL     OW  133   1.139   1.968   1.150 -0.3281 -0.1465  0.3420
   34SOL    HW1  134   1.066   2.008   1.190  1.1637  3.4638 -0.9986
   34SOL    HW2  135   1.212   1.977   1.206 -3.6419  0.1191 -0.6803
   34SOL     MW  136   1.139   1.975   1.162 -0.5685  0.3649  0.0302
   35SOL     OW  137   0.335   0.138   1.697 -0.4731  0.1556 -0.8665
   35SOL    HW1  138   0.362   0.110   1.786 -0.0324  0.4799 -0.4137
   35SOL    HW2  139   0.290   0.063   1.651 -0.4409 -1.6265 -0.9112
   35SOL     MW  140   0.333   0.124   1.703 -0.4107 -0.0367 -0.8127
   36SOL     OW  141   1.925   1.999   0.604  0.1834  0.0263 -0.2966
   36SOL    HW1  142   1.886   1.979   0.523  1.8811  0.2942  1.3843
   36SOL    HW2  143   1.954   1.922   0.656 -0.1429 -0.2676  0.2087
   36SOL     MW  144   1.923   1.986   0.601  0.3644  0.0228 -0.0082
   37SOL     OW  145   1.779   2.077   0.974 -1.0346 -0.3128 -0.5883
   37SOL    HW1  146   1.722   2.029   0.909 -2.6075 -0.6048  0.4924
   37SOL    HW2  147   1.718   2.106   1.041  2.9419 -0.6185 -2.1785
   37SOL     MW  148   1.763   2.074   0.974 -0.7175 -0.3917 -0.6555
   38SOL     OW  149   2.798   0.961   0.024 -0.0413  0.0851  0.0730
   38SOL    HW1  150   2.821   0.970   0.117  2.6161  2.4903 -2.1891
   38SOL    HW2  151   2.886   0.957  -0.031  0.2589 -2.8013 -1.7238
   38SOL     MW  152   2.813   0.961   0.029  0.3489  0.0216 -0.4625
   39SOL     OW  153   1.514   0.666   0.738  0.1626  0.0946 -0.1662
   39SOL    HW1  154   1.492   0.571   0.732  0.3297  0.2436 -0.9961
   39SOL    HW2  155   1.431   0.714   0.731  2.6373 -0.6437  0.1065
   39SOL     MW  156   1.500   0.660   0.736  0.5112  0.0169 -0.2397
   40SOL     OW  157   1.268   1.873   0.252  0.7478 -0.5143  0.2413
   40SOL    HW1  158   1.320   1.806   0.304  2.3454  1.8693  1.1408
   40SOL    HW2  159   1.245   1.942   0.320 -2.2922 -0.5044 -0.2508
   40SOL     MW  160   1.272   1.873   0.268  0.5575 -0.1985  0.2950
   41SOL     OW  161   0.514   0.498   1.550 -0.0790 -1.1286  0.8898
   41SOL    HW1  162   0.597   0.549   1.546  2.9259  2.8970 -0.2597
   41SOL    HW2  163   0.440   0.549   1.521  2.5583 -0.8686 -2.3935
   41SOL     MW  164   0.515   0.511   1.546  0.6654 -0.5632  0.3049
   42SOL     OW  165   1.227   2.901   2.000  0.1776 -0.4106  0.2202
   42SOL    HW1  166   1.157   2.850   2.047  0.1803  0.4650 -1.6090
   42SOL    HW2  167   1.311   2.887   2.045  1.7899 -3.1758 -0.5854
   42SOL     MW  168   1.229   2.893   2.012  0.3907 -0.6599 -0.1274
   43SOL     OW  169   1.406   0.107   1.695 -0.3991  0.6467  0.1004
   43SOL    HW1  170   1.492   0.085   1.654  1.1417 -0.6887 -0.9830
   43SOL    HW2  171   1.348   0.027   1.695  1.1337 -0.9909 -0.4948
   43SOL     MW  172   1.410   0.094   1.690  0.0064  0.2544 -0.1210
   44SOL     OW  173   1.231   0.837   0.970 -0.0774  0.1983 -0.6332
   44SOL    HW1  174   1.192   0.923   0.958 -0.3664 -0.0747 -1.6492
   44SOL    HW2  175   1.172   0.807   1.040 -1.2692  1.6605 -2.4190
   44SOL     MW  176   1.218   0.844   0.978 -0.2727  0.3552 -1.0029
   45SOL     OW  177   1.302   0.812   0.720 -0.6072 -0.5889 -0.3359
   45SOL    HW1  178   1.271   0.816   0.812  1.7949  2.7820  1.2286
   45SOL    HW2  179   1.241   0.759   0.660 -0.1097 -1.9204 -1.0827
   45SOL     MW  180   1.290   0.805   0.724 -0.2246 -0.3198 -0.2280
   46SOL     OW  181   0.423   1.124   0.670 -0.1988 -0.2468  0.2713
   46SOL    HW1  182   0.481   1.145   0.595 -1.2280 -0.4702  0.9590
   46SOL    HW2  183   0.450   1.193   0.731 -0.8312  2.0604  0.2569
   46SOL     MW  184   0.434   1.136   0.668 -0.4180  0.0281  0.3601
   47SOL     OW  185   0.088   1.989   1.940 -0.0440 -0.5300  0.7630
   47SOL    HW1  186   0.104   1.909   1.888 -0.3304  1.3924  1.2779
   47SOL    HW2  187   0.105   1.959   2.026 -1.1388 -3.2601  1.7221
   47SOL     MW  188   0.092   1.974   1.944 -0.2263 -0.6365  0.9575
   48SOL     OW  189   1.227   0.499   1.004  0.5299 -0.0048  0.2647
   48SOL    HW1  190   1.184   0.431   0.950 -0.0464 -1.2712 -0.3008
   48SOL    HW2  191   1.175   0.575   1.029 -1.8748 -1.3692  1.0647
   48SOL     MW  192   1.214   0.500   1.001  0.1366 -0.3519  0.2956
   49SOL     OW  193   1.689   0.716   1.551  0.4078  0.5817 -0.2775
   49SOL    HW1  194   1.750   0.666   1.602 -0.2463  0.4051 -1.9427
   49SOL    HW2  195   1.716   0.692   1.464  0.0834  1.1341  0.2638
   49SOL     MW  196   1.700   0.706   1.546  0.2787  0.6313 -0.4258
   50SOL     OW  197   1.321   1.208   0.638  0.4435 -0.3919  0.1061
   50SOL    HW1  198   1.237   1.206   0.698 -0.7446  0.3773  1.3456
   50SOL    HW2  199   1.391   1.152   0.678 -2.5179  0.0447  0.6573
   50SOL     MW  200   1.319   1.201   0.651 -0.1040 -0.2328  0.3424
   51SOL     OW  201   0.353   2.884   0.857 -0.2223 -0.2814 -0.1485
   51SOL    HW1  202   0.436   2.836   0.852  0.5657 -1.5554  1.9637
   51SOL    HW2  203   0.346   2.903   0.953  4.1008 -1.0266 -0.3731
   51SOL     MW  204   0.363   2.880   0.869  0.4521 -0.5478  0.1005
   52SOL     OW  205   0.785   1.824   0.480 -0.3184 -0.0105 -0.0233
   52SOL    HW1  206   0.765   1.915   0.511  0.1608  0.4555  0.8535
   52SOL    HW2  207   0.813   1.828   0.391  1.6262 -0.0094  1.0400
   52SOL     MW  208   0.786   1.837   0.472  0.0014  0.0511  0.2326
   53SOL     OW  209   0.477   2.160   0.580  0.1513  0.7056  0.1389
   53SOL    HW1  210   0.429   2.121   0.500  1.1889 -0.4547 -2.1678
   53SOL    HW2  211   0.438   2.248   0.581 -2.6142  1.4003 -1.3462
   53SOL     MW  212   0.465   2.166   0.569 -0.0767  0.6442 -0.3614
   54SOL     OW  213   2.023   0.973   0.738 -0.0606  0.2216 -0.3367
   54SOL    HW1  214   2.092   0.988   0.672 -2.1797  1.8059 -2.6683
   54SOL    HW2  215   2.000   0.880   0.742  3.5148  0.2382  3.5682
   54SOL     MW  216   2.029   0.963   0.730  0.1315  0.4328 -0.1291
   55SOL     OW  217   0.424   1.534   1.719 -0.2137 -0.0944 -0.0200
   55SOL    HW1  218   0.372   1.564   1.641 -1.2814 -0.0944 -0.7800
   55SOL    HW2  219   0.511   1.524   1.681 -2.4898 -0.2904  1.7336
   55SOL     MW  220   0.429   1.537   1.704 -0.6549 -0.1203  0.1111
   56SOL     OW  221   0.631   0.903   0.140  0.6173 -0.0631  0.2670
   56SOL    HW1  222   0.653   0.992   0.113 -0.3656  2.5190  3.5169
   56SOL    HW2  223   0.538   0.872   0.116  0.1905  3.0660  0.5352
   56SOL     MW  224   0.621   0.910   0.133  0.4313  0.6904  0.7312
   57SOL     OW  225   1.105   1.289   1.146  0.4207  0.4632  0.3592
   57SOL    HW1  226   1.194   1.308   1.180 -0.2756  0.9482  0.1104
   57SOL    HW2  227   1.062   1.253   1.230 -0.1194 -2.0951  0.5385
   57SOL     MW  228   1.111   1.287   1.162  0.2576  0.1896  0.3501
   58SOL     OW  229   0.423   1.281   1.294 -0.2871 -0.1716  0.1290
   58SOL    HW1  230   0.408   1.377   1.306 -1.9680 -0.1389 -0.6463
   58SOL    HW2  231   0.447   1.249   1.380 -0.1043 -0.1863 -3.0293
   58SOL     MW  232   0.424   1.290   1.307 -0.4847 -0.1692 -0.3900
   59SOL     OW  233   1.420   1.690   0.371 -0.1814  0.1656 -0.3601
   59SOL    HW1  234   1.481   1.727   0.429  0.4469  0.4427  0.6465
   59SOL    HW2  235   1.341   1.659   0.428 -2.3554  0.7522  0.4472
   59SOL     MW  236   1.418   1.691   0.386 -0.3853  0.2796 -0.1208
   60SOL     OW  237   3.095   0.182   1.647 -0.0707 -0.3089  0.3153
   60SOL    HW1  238   3.016   0.225   1.676  0.3869 -1.3327 -1.6335
   60SOL    HW2  239   3.118   0.127   1.729 -1.5540  1.2167 -0.0298
   60SOL     MW  240   3.088   0.180   1.662 -0.2060 -0.2427  0.0126
   61SOL     OW  241   1.979   1.347   2.966  0.3675  0.3955  0.1240
   61SOL    HW1  242   1.949   1.352   3.060 -0.2540 -0.9618 -1.3434
   61SOL    HW2  243   2.060   1.287   2.973 -1.9986 -0.1946 -0.3621
   61SOL     MW  244   1.986   1.340   2.979 -0.0267  0.1386 -0.1337
   62SOL     OW  245   0.574   1.724   0.662  0.2468  0.5541 -0.6866
   62SOL    HW1  246   0.645   1.740   0.602  1.2572  0.1612  0.0874
   62SOL    HW2  247   0.534   1.642   0.633 -2.0877 -0.8855  0.4748
   62SOL     MW  248   0.578   1.715   0.650  0.0721  0.3123 -0.4313
   63SOL     OW  249   1.750   0.721   0.570  0.2192  0.0395 -0.8890
   63SOL    HW1  250   1.740   0.810   0.529  0.0148 -0.1997 -0.6938
   63SOL    HW2  251   1.667   0.717   0.626 -1.1661 -2.4260  0.8500
   63SOL     MW  252   1.738   0.732   0.572  0.0095 -0.3174 -0.6338
   64SOL     OW  253   0.267   1.699   0.676 -0.2967 -0.1265 -0.4749
   64SOL    HW1  254   0.318   1.742   0.740 -2.0825 -0.2921  0.3896
   64SOL    HW2  255   0.180   1.718   0.713 -3.3491  0.3013 -1.3534
   64SOL     MW  256   0.262   1.707   0.690 -0.9351 -0.0919 -0.4768
   65SOL     OW  257   1.481   2.294   0.396 -0.0587  0.0708  0.1257
   65SOL    HW1  258   1.573   2.316   0.406  0.4881 -1.7402 -0.2219
   65SOL    HW2  259   1.424   2.344   0.463 -1.9022 -0.0367 -0.4417
   65SOL     MW  260   1.486   2.304   0.406 -0.2298 -0.1823  0.0050
   66SOL     OW  261   0.393   0.560   0.534  0.0477 -0.7578 -0.0443
   66SOL    HW1  262   0.433   0.522   0.452  1.1140 -0.4963  0.5691
   66SOL    HW2  263   0.354   0.643   0.508  3.8990 -1.9730  2.3396
   66SOL     MW  264   0.393   0.566   0.520  0.6965 -0.8837  0.3512
   67SOL     OW  265   1.385   0.060   1.971 -0.9456 -0.0564  0.3972
   67SOL    HW1  266   1.418   0.069   1.880  1.9785 -0.8162 -0.6256
   67SOL    HW2  267   1.313  -0.007   1.976 -0.1688  0.1221  0.1290
   67SOL     MW  268   1.380   0.052   1.959 -0.4573 -0.1331  0.2268
   68SOL     OW  269   0.760   0.097   2.909 -0.0024  0.5240 -0.8995
   68SOL    HW1  270   0.756   0.165   2.845  0.7082  0.9801 -0.4229
   68SOL    HW2  271   0.855   0.102   2.945 -0.7620 -2.7021  1.7080
   68SOL     MW  272   0.772   0.106   2.905 -0.0088  0.1585 -0.4926
   69SOL     OW  273   1.088   0.291   1.971  0.2785 -0.5195  0.1788
   69SOL    HW1  274   1.168   0.306   2.029  0.6216 -1.2275  2.3072
   69SOL    HW2  275   1.057   0.209   2.009 -2.4485  0.5570  2.2863
   69SOL     MW  276   1.095   0.282   1.984 -0.0360 -0.4709  0.7377
   70SOL     OW  277   0.532   1.732   1.121  0.5744 -0.2116  0.3037
   70SOL    HW1  278   0.616   1.766   1.083  0.8646 -1.1031 -0.9163
   70SOL    HW2  279   0.505   1.687   1.040 -1.6813 -1.1723  2.0599
   70SOL     MW  280   0.540   1.730   1.106  0.3151 -0.4560  0.3744
   71SOL     OW  281   1.554   0.579   1.274  0.3762  0.2688 -0.4266
   71SOL    HW1  282   1.499   0.660   1.315  1.1684  1.5627 -1.3884
   71SOL    HW2  283   1.550   0.587   1.177  0.6272 -1.6484 -1.1803
   71SOL     MW  284   1.547   0.591   1.267  0.5139  0.1865 -0.6530
   72SOL     OW  285   0.785   1.819   1.016 -0.2138  0.1368  0.3079
   72SOL    HW1  286   0.781   1.898   0.960 -2.1424 -1.0294  1.6480
   72SOL    HW2  287   0.780   1.736   0.972  0.1243  1.2011  0.2380
   72SOL     MW  288   0.784   1.819   1.003 -0.4237  0.1233  0.4755
   73SOL     OW  289   1.099   0.700   1.185 -0.2927 -0.2165 -1.2516
   73SOL    HW1  290   1.048   0.623   1.210 -0.8551  2.3624  2.4646
   73SOL    HW2  291   1.082   0.763   1.261 -1.2874  0.5269  3.4933
   73SOL     MW  292   1.090   0.698   1.198 -0.4981  0.2218 -0.1352
   74SOL     OW  293   2.789   0.063   0.970  0.5343 -0.2187 -0.3064
   74SOL    HW1  294   2.867   0.092   0.928 -0.4727  1.7073  0.1111
   74SOL    HW2  295   2.744   0.144   0.963  0.5543 -0.6596  1.3808
   74SOL     MW  296   2.794   0.078   0.963  0.4041 -0.0228 -0.0287
   75SOL     OW  297   1.508   1.313   0.181 -0.3220 -0.1479 -0.1684
   75SOL    HW1  298   1.572   1.250   0.144  0.1930  0.1391 -0.1063
   75SOL    HW2  299   1.530   1.325   0.277 -0.2559 -0.6715  0.2951
   75SOL     MW  300   1.519   1.306   0.188 -0.2453 -0.1791 -0.0991
   76SOL     OW  301   3.048   0.696   0.451  0.6669  0.4844  0.2038
   76SOL    HW1  302   3.046   0.740   0.543  0.9574  0.5427 -0.0918
   76SOL    HW2  303   3.134   0.659   0.450 -1.6590 -1.5186 -1.0711
   76SOL     MW  304   3.059   0.697   0.463  0.3984  0.2278 -0.0034
   77SOL     OW  305   0.853   0.628   0.440  0.7146  0.0771  0.1387
   77SOL    HW1  306   0.815   0.659   0.355  1.0024  1.4603 -0.5733
   77SOL    HW2  307   0.846   0.528   0.438  0.6671 -0.8670  1.9682
   77SOL     MW  308   0.847   0.619   0.428  0.7463  0.1350  0.2861
   78SOL     OW  309   0.813   0.872   1.082  0.6527  0.1628 -0.0625
   78SOL    HW1  310   0.812   0.949   1.024  3.1071  2.5063 -1.3684
   78SOL    HW2  311   0.719   0.845   1.096  1.8144  0.6232 -0.8685
   78SOL     MW  312   0.800   0.879   1.076  1.1298  0.5327 -0.3411
   79SOL     OW  313   1.856   1.509   0.539  0.4145 -0.0284 -0.2079
   79SOL    HW1  314   1.763   1.486   0.563 -0.0366  0.5470  2.9226
   79SOL    HW2  315   1.904   1.476   0.612 -0.7143  3.1373 -1.0918
   79SOL     MW  316   1.850   1.501   0.552  0.2060  0.4652  0.0885
   80SOL     OW  317   0.200   0.980   0.286  0.7331  0.4450  0.0577
   80SOL    HW1  318   0.144   0.924   0.234  0.0997  0.0340 -2.3866
   80SOL    HW2  319   0.231   0.925   0.359 -1.0478  0.5721 -0.3995
   80SOL     MW  320   0.196   0.966   0.289  0.4145  0.4075 -0.3251
   81SOL     OW  321   1.841   1.872   0.370  0.0860 -0.6650  0.7543
   81SOL    HW1  322   1.826   1.787   0.340 -0.4671 -0.1716 -0.1732
   81SOL    HW2  323   1.808   1.925   0.297 -2.1518 -0.2410 -2.6512
   81SOL     MW  324   1.834   1.868   0.357 -0.2822 -0.5439  0.1826
   82SOL     OW  325   0.965   1.036   0.556  0.3947 -0.5925  0.2759
   82SOL    HW1  326   0.913   1.071   0.482 -1.1939  1.6776  1.8593
   82SOL    HW2  327   0.922   0.957   0.585 -2.4892  2.1123 -0.0420
   82SOL     MW  328   0.952   1.030   0.550 -0.1954  0.0639  0.4429
   83SOL     OW  329   0.009   0.739   1.572 -1.2439 -0.2086  0.0150
   83SOL    HW1  330  -0.004   0.821   1.509  0.2263  2.3426 -1.0308
   83SOL    HW2  331   0.086   0.692   1.535  2.3917  0.1637  1.9592
   83SOL     MW  332   0.017   0.744   1.559 -0.5702  0.1771  0.1335
   84SOL     OW  333   0.008   0.180   0.916 -0.3368 -0.1023 -0.0494
   84SOL    HW1  334   0.002   0.275   0.940 -1.5329  0.1502 -1.7229
   84SOL    HW2  335  -0.006   0.119   0.988 -0.1376  1.4114 -3.6505
   84SOL     MW  336   0.005   0.185   0.928 -0.4684  0.1307 -0.7453
   85SOL     OW  337   0.343   0.500   0.794  0.2302 -0.1808  0.6573
   85SOL    HW1  338   0.359   0.524   0.701 -0.7375 -1.0265  1.1036
   85SOL    HW2  339   0.323   0.407   0.789  2.3464  2.0936  0.6358
   85SOL     MW  340   0.342   0.491   0.781  0.3818  0.0077  0.7134
   86SOL     OW  341   1.290   0.285   1.183  0.7330  0.3162  0.5780
   86SOL    HW1  342   1.263   0.355   1.125  0.8003 -1.5594  1.5663
   86SOL    HW2  343   1.376   0.311   1.220  1.9221 -3.1941 -0.1393
   86SOL     MW  344   1.298   0.298   1.180  0.8988 -0.3944  0.6137
   87SOL     OW  345   1.030   1.561   1.171 -0.0594  0.8275  0.3517
   87SOL    HW1  346   1.077   1.624   1.116  1.5339 -1.0370 -2.4078
   87SOL    HW2  347   1.060   1.475   1.144 -1.3353 -0.7350 -1.3374
   87SOL     MW  348   1.040   1.558   1.161 -0.0175  0.3753 -0.2352
   88SOL     OW  349   1.152   1.093   0.974 -0.3320  0.2894 -0.5036
   88SOL    HW1  350   1.249   1.091   0.984 -0.9468 -2.2255  0.4520
   88SOL    HW2  351   1.126   1.161   1.042  0.7589  3.4043  0.2127
   88SOL     MW  352   1.161   1.102   0.984 -0.2692  0.3686 -0.2830
   89SOL     OW  353   1.782   0.688   0.228  0.5588  0.0605  0.4632
   89SOL    HW1  354   1.718   0.632   0.269  0.2845  1.6836  1.3498
   89SOL    HW2  355   1.843   0.721   0.292 -0.8749  2.4643  1.1274
   89SOL     MW  356   1.781   0.685   0.242  0.3335  0.5918  0.6678
   90SOL     OW  357   0.784   1.216   2.847 -0.1262  0.1630 -0.1570
   90SOL    HW1  358   0.851   1.149   2.855 -0.5473 -2.9587 -2.7210
   90SOL    HW2  359   0.804   1.276   2.918 -0.4548 -2.6369 -0.3072
   90SOL     MW  360   0.795   1.215   2.858 -0.2251 -0.6183 -0.5152
   91SOL     OW  361   2.246   0.622   0.509  0.5368 -0.2998  0.2680
   91SOL    HW1  362   2.318   0.664   0.452  0.3931  0.6916  0.8363
   91SOL    HW2  363   2.224   0.541   0.456 -1.3193  1.4068 -0.3180
   91SOL     MW  364   2.253   0.617   0.495  0.2730  0.0562  0.2657
   92SOL     OW  365   1.639   0.950   0.496  0.1241 -0.1072 -0.0731
   92SOL    HW1  366   1.588   0.977   0.570 -1.0505 -1.4652 -3.8116
   92SOL    HW2  367   1.567   0.943   0.431 -1.4680  0.3503 -0.6715
   92SOL     MW  368   1.623   0.952   0.497 -0.2409 -0.2260 -0.6453
   93SOL     OW  369   1.083   0.271   0.382  0.1163 -0.1619  0.4249
   93SOL    HW1  370   0.991   0.284   0.401  0.5396  0.9945  3.0184
   93SOL    HW2  371   1.100   0.298   0.289 -0.4017  3.3189  0.7336
   93SOL     MW  372   1.073   0.277   0.372  0.1038  0.4499  0.8078
   94SOL     OW  373   1.876   1.362   1.601  0.6407  0.1774 -0.5304
   94SOL    HW1  374   1.869   1.380   1.510  0.6536  4.4954  2.1592
   94SOL    HW2  375   1.847   1.264   1.611 -1.3080 -0.6850 -0.1367
   94SOL     MW  376   1.871   1.351   1.590  0.3853  0.6333 -0.1236
   95SOL     OW  377   0.584   1.549   0.919  0.0021  0.1127  0.0223
   95SOL    HW1  378   0.667   1.501   0.953 -1.2370 -0.9698  0.3370
   95SOL    HW2  379   0.529   1.483   0.880 -0.0106 -3.0559  1.0803
   95SOL     MW  380   0.588   1.534   0.918 -0.1631 -0.4482  0.2034
   96SOL     OW  381   1.333   1.845   1.682  0.4233 -0.7800  0.2814
   96SOL    HW1  382   1.244   1.839   1.724 -1.8814  1.0768  0.9578
   96SOL    HW2  383   1.342   1.751   1.656  1.2862 -0.5732 -2.3671
   96SOL     MW  384   1.322   1.832   1.684  0.2331 -0.5077  0.0212
   97SOL     OW  385   1.107   1.576   0.839  0.0588  0.4703  0.3128
   97SOL    HW1  386   1.137   1.643   0.906  0.7555  1.3189  0.3802
   97SOL    HW2  387   1.009   1.586   0.826 -1.7873 -1.5280 -0.9117
   97SOL     MW  388   1.098   1.586   0.846 -0.0929  0.3186  0.1601
   98SOL     OW  389   1.345   1.402   1.223  0.1788 -0.0661  0.4071
   98SOL    HW1  390   1.410   1.429   1.283 -0.6014 -0.9633 -0.2612
   98SOL    HW2  391   1.400   1.399   1.140  0.2474 -2.9852 -1.4569
   98SOL     MW  392   1.361   1.405   1.220  0.0849 -0.5696  0.0730
   99SOL     OW  393   1.517   0.308   1.327  0.4414  0.3887 -0.9616
   99SOL    HW1  394   1.545   0.400   1.318 -0.6131 -0.5039 -0.1489
   99SOL    HW2  395   1.474   0.301   1.419  1.2804  0.3938  2.2431
   99SOL     MW  396   1.515   0.319   1.338  0.4130  0.2716 -0.4315
  100SOL     OW  397   1.064   1.168   1.392  0.3827  0.0810  0.4315
  100SOL    HW1  398   1.021   1.195   1.473  0.1301  0.8626 -1.0214
  100SOL    HW2  399   1.087   1.076   1.402 -0.5714  2.2014  0.1286
  100SOL     MW  400   1.061   1.159   1.404  0.2235  0.4639  0.1999
  101SOL     OW  401   0.555   1.225   0.425  0.2072 -0.1451  0.2736
  101SOL    HW1  402   0.485   1.213   0.358 -2.4986  0.0032 -2.9268
  101SOL    HW2  403   0.643   1.213   0.389  1.9894 -1.7470 -0.5953
  101SOL     MW  404   0.557   1.222   0.411  0.0854 -0.3369 -0.2633
  102SOL     OW  405   2.942   0.601   1.100 -0.6946 -0.1584 -0.0158
  102SOL    HW1  406   2.956   0.693   1.098 -0.6248  0.4533  0.1898
  102SOL    HW2  407   2.902   0.573   1.180  0.1596  0.6704 -3.6384
  102SOL     MW  408   2.939   0.610   1.110 -0.5727  0.0317 -0.4666
  103SOL     OW  409   1.851   0.267   1.769 -0.1500  0.4772 -0.2786
  103SOL    HW1  410   1.845   0.177   1.742 -0.7733  1.6051 -0.3317
  103SOL    HW2  411   1.835   0.259   1.866  0.0787 -0.9495 -0.9835
  103SOL     MW  412   1.848   0.254   1.778 -0.2021  0.4378 -0.3786
  104SOL     OW  413   0.051   1.525   1.688  0.1968 -0.8066  0.1227
  104SOL    HW1  414   0.108   1.461   1.741 -2.5133  0.5939 -1.3216
  104SOL    HW2  415  -0.043   1.500   1.694  0.4144  1.9194  2.1985
  104SOL     MW  416   0.046   1.513   1.695 -0.1321 -0.2621  0.2060
  105SOL     OW  417   0.058   1.221   0.422  0.8962 -0.2397  0.3857
  105SOL    HW1  418   0.085   1.136   0.391 -0.7966  0.1416 -1.3652
  105SOL    HW2  419   0.137   1.271   0.399 -0.8719 -2.2910  0.1936
  105SOL     MW  420   0.072   1.216   0.415  0.4396 -0.4600  0.1294
  106SOL     OW  421   0.792   0.263   0.828  0.5519 -0.3454 -0.0673
  106SOL    HW1  422   0.738   0.342   0.848 -2.0520  0.0268  1.1475
  106SOL    HW2  423   0.854   0.257   0.904 -0.8016 -3.2069  0.0671
  106SOL     MW  424   0.793   0.273   0.841  0.0298 -0.6738  0.1107
  107SOL     OW  425   0.776   2.219   2.887 -0.1767  0.1565 -0.2743
  107SOL    HW1  426   0.682   2.214   2.914 -2.2075  1.4163  1.7009
  107SOL    HW2  427   0.820   2.165   2.955 -1.2213 -0.3343  0.0261
  107SOL     MW  428   0.769   2.211   2.900 -0.5825  0.2580  0.0259
  108SOL     OW  429   1.328   1.583   1.644 -0.0380  0.2510  0.6216
  108SOL    HW1  430   1.252   1.566   1.581 -2.0368  2.0592 -3.3549
  108SOL    HW2  431   1.391   1.523   1.611 -4.5307  0.4055  2.4732
  108SOL     MW  432   1.326   1.572   1.631 -0.8945  0.5100  0.3412
  109SOL     OW  433   2.035   0.768   0.343 -0.1230  0.4930 -0.5955
  109SOL    HW1  434   2.035   0.860   0.330  0.6204 -1.1960  2.7904
  109SOL    HW2  435   2.083   0.753   0.426 -0.5114 -1.1243  0.0888
  109SOL     MW  436   2.041   0.778   0.353 -0.0762  0.0568 -0.0584
  110SOL     OW  437   0.415   1.921   0.754 -0.2425 -0.1888  0.4876
  110SOL    HW1  438   0.481   1.854   0.724  0.1517 -2.9096  0.1218
  110SOL    HW2  439   0.452   2.004   0.722 -0.1435 -0.6131  4.7918
  110SOL     MW  440   0.429   1.923   0.746 -0.1774 -0.6037  1.0072
  111SOL     OW  441   0.851   0.887   1.353 -0.5120  0.4467  0.1543
  111SOL    HW1  442   0.844   0.869   1.261 -1.5301  0.4825  0.6135
  111SOL    HW2  443   0.777   0.839   1.383 -0.1820  0.6039  2.1738
  111SOL     MW  444   0.840   0.879   1.345 -0.6028  0.4722  0.4814
  112SOL     OW  445   1.391   1.131   1.609 -0.4853  0.5564  0.0781
  112SOL    HW1  446   1.308   1.177   1.619  0.3136  1.3116 -1.7080
  112SOL    HW2  447   1.364   1.039   1.624 -0.4655  2.0690  1.3661
  112SOL     MW  448   1.376   1.125   1.612 -0.3773  0.8556  0.0124
  113SOL     OW  449   1.223   2.994   1.718 -0.1261 -0.3053 -0.0237
  113SOL    HW1  450   1.202   2.926   1.782 -2.7469 -0.3900 -2.4446
  113SOL    HW2  451   1.204   2.952   1.634  0.2919  0.0960 -0.5144
  113SOL     MW  452   1.218   2.979   1.715 -0.4167 -0.2635 -0.4079
  114SOL     OW  453   0.375   2.884   1.773 -0.3027  0.5296 -0.0588
  114SOL    HW1  454   0.456   2.934   1.785  3.8186 -1.0281  1.2708
  114SOL    HW2  455   0.322   2.906   1.849  2.7805 -0.1265  0.7541
  114SOL     MW  456   0.379   2.893   1.784  0.6478  0.2375  0.2239
  115SOL     OW  457   0.548   0.837   1.179 -0.1139  0.2300 -0.0176
  115SOL    HW1  458   0.525   0.745   1.171 -0.0733  1.2047 -2.1705
  115SOL    HW2  459   0.464   0.876   1.209  2.7418 -2.5984  3.4606
  115SOL     MW  460   0.534   0.830   1.182  0.2682 -0.0146  0.1572
  116SOL     OW  461   0.685   1.124   0.975 -0.3451  0.0135  0.5452
  116SOL    HW1  462   0.755   1.161   0.912  1.4566 -1.3586 -0.2930
  116SOL    HW2  463   0.722   1.151   1.063 -2.0663 -2.1811  3.5162
  116SOL     MW  464   0.699   1.133   0.978 -0.3345 -0.4571  0.8266
  117SOL     OW  465   1.108   1.306   0.803 -0.3918 -0.2641 -0.1068
  117SOL    HW1  466   1.125   1.232   0.869 -0.0551 -1.8268  1.8209
  117SOL    HW2  467   1.139   1.399   0.828 -0.8497  1.7014  2.3664
  117SOL     MW  468   1.114   1.309   0.815 -0.4078 -0.2109  0.4739
  118SOL     OW  469   3.070   2.929   1.797 -0.3330  0.3114 -0.2132
  118SOL    HW1  470   3.121   3.004   1.830 -0.3451  0.8091  2.2432
  118SOL    HW2  471   2.986   2.974   1.801  1.4743  0.8452 -0.4044
  118SOL     MW  472   3.066   2.945   1.802 -0.0961  0.4475  0.0857
  119SOL     OW  473   0.362   1.543   1.281 -0.0370 -0.3348 -0.1519
  119SOL    HW1  474   0.415   1.600   1.222 -1.7147  2.2818  3.5418
  119SOL    HW2  475   0.271   1.539   1.245 -1.1481  0.8069  1.7616
  119SOL     MW  476   0.357   1.550   1.268 -0.4049  0.1611  0.5879
  120SOL     OW  477   0.277   0.854   0.984  0.4671  1.0554  0.0785
  120SOL    HW1  478   0.250   0.938   1.018  1.5464  1.4122 -0.2069
  120SOL    HW2  479   0.369   0.859   0.957  0.1431  0.7647 -0.4512
  120SOL     MW  480   0.286   0.866   0.985  0.5667  1.0641 -0.0291
  121SOL     OW  481   1.779   1.128   1.604 -0.7358 -0.1234 -0.5187
  121SOL    HW1  482   1.706   1.161   1.550  0.2582 -0.0401 -0.9903
  121SOL    HW2  483   1.809   1.052   1.559  1.0447 -0.9198  2.9572
  121SOL     MW  484   1.773   1.122   1.591 -0.3697 -0.2175 -0.1223
  122SOL     OW  485   0.139   0.653   0.883  0.9687 -0.1730  0.2740
  122SOL    HW1  486   0.208   0.601   0.839  1.4386 -0.7556  1.5189
  122SOL    HW2  487   0.179   0.738   0.919 -2.5135 -1.1174 -2.9209
  122SOL     MW  488   0.153   0.658   0.882  0.5713 -0.3745  0.0167
  123SOL     OW  489   1.875   1.105   0.535  0.2566  0.1127  0.0006
  123SOL    HW1  490   1.781   1.081   0.532  0.7369  1.1727 -1.6968
  123SOL    HW2  491   1.915   1.052   0.603 -0.7355  0.5612  0.1666
  123SOL     MW  492   1.868   1.094   0.544  0.1891  0.3117 -0.2015
  124SOL     OW  493   0.599   0.468   0.919 -0.4732 -0.0074 -0.9718
  124SOL    HW1  494   0.517   0.465   0.865 -0.6632  1.6149 -0.7543
  124SOL    HW2  495   0.638   0.551   0.886  2.5733 -2.6903 -2.3089
  124SOL     MW  496   0.593   0.478   0.908 -0.0963 -0.1474 -1.1195
  125SOL     OW  497   0.679   1.689   1.737  0.0485  0.0338 -0.3160
  125SOL    HW1  498   0.682   1.705   1.642  0.5139  3.2025  1.3438
  125SOL    HW2  499   0.646   1.764   1.777  1.7577 -2.0542  0.3509
  125SOL     MW  500   0.675   1.701   1.730  0.3354  0.1764 -0.0090
  126SOL     OW  501   2.113   1.539   1.913  0.2304 -0.2056 -0.0581
  126SOL    HW1  502   2.158   1.619   1.929 -2.5270  0.8731  0.8615
  126SOL    HW2  503   2.173   1.469   1.938  0.8036 -0.8707 -1.6251
  126SOL     MW  504   2.127   1.540   1.918 -0.0578 -0.1510 -0.1435
  127SOL     OW  505   0.496   0.777   1.822 -0.3264 -0.0715 -0.0164
  127SOL    HW1  506   0.582   0.765   1.788 -3.0985  2.3512  0.9136
  127SOL    HW2  507   0.500   0.837   1.898  0.1394  3.5613  2.4901
  127SOL     MW  508   0.508   0.783   1.828 -0.6307  0.7275  0.4370
  128SOL     OW  509   1.736   0.728   2.881  0.3616 -0.3689 -0.2672
  128SOL    HW1  510   1.785   0.709   2.804 -0.3197  1.3879 -0.7845
  128SOL    HW2  511   1.755   0.817   2.898  2.4762 -2.7385  1.0044
  128SOL     MW  512   1.745   0.737   2.873  0.5507 -0.4498 -0.1677
  129SOL     OW  513   1.564   0.875   0.175  0.0694  0.7081 -0.2262
  129SOL    HW1  514   1.487   0.820   0.162 -2.4814  1.7788 -0.2897
  129SOL    HW2  515   1.639   0.819   0.194  0.6196 -1.5569 -0.8166
  129SOL     MW  516   1.564   0.860   0.175 -0.1946  0.5505 -0.3125
  130SOL     OW  517   0.829   1.454   0.346  0.3539 -0.4743 -0.1258
  130SOL    HW1  518   0.832   1.466   0.439 -3.0550  1.1775 -2.0657
  130SOL    HW2  519   0.915   1.493   0.314 -0.2880 -0.8276 -2.1130
  130SOL     MW  520   0.841   1.461   0.354 -0.1806 -0.3030 -0.6439
  131SOL     OW  521   0.063   0.782   0.120 -0.3689 -0.5762 -0.1163
  131SOL    HW1  522   0.065   0.830   0.033  0.7691  0.1665 -2.2775
  131SOL    HW2  523   0.126   0.710   0.107  1.2405 -0.5902 -0.1501
  131SOL     MW  524   0.072   0.779   0.107 -0.0064 -0.4800 -0.4059
  132SOL     OW  525   2.718   0.084   1.250 -0.4051 -0.1054  0.2679
  132SOL    HW1  526   2.760   0.073   1.166 -1.4056  1.9062 -0.7564
  132SOL    HW2  527   2.620   0.061   1.241 -0.6622  1.8312  1.1682
  132SOL     MW  528   2.710   0.079   1.238 -0.5710  0.4155  0.2515
  133SOL     OW  529   1.041   0.105   1.719  0.3414 -0.2936  0.9242
  133SOL    HW1  530   1.110   0.038   1.723 -0.4025  0.8173 -1.6456
  133SOL    HW2  531   1.060   0.171   1.790  2.2141  1.1989  1.1136
  133SOL     MW  532   1.053   0.105   1.729  0.4903  0.0499  0.6101
  134SOL     OW  533   1.402   2.484   1.451  0.3261  0.1963  0.1504
  134SOL    HW1  534   1.352   2.524   1.377  0.1062  0.8442 -1.1294
  134SOL    HW2  535   1.396   2.538   1.523 -0.9150  0.9604 -1.1820
  134SOL     MW  536   1.395   2.496   1.450  0.1333  0.3826 -0.1943
  135SOL     OW  537   3.019   0.992   2.966 -0.1159  0.6080  0.0059
  135SOL    HW1  538   3.099   1.046   2.973 -0.8327 -1.3978 -0.1870
  135SOL    HW2  539   2.965   1.063   2.918  0.5891  1.8149 -0.6301
  135SOL     MW  540   3.023   1.009   2.960 -0.1174  0.5026 -0.1035
  136SOL     OW  541   0.159   1.987   0.879 -0.2153  0.0048 -0.3839
  136SOL    HW1  542   0.085   1.929   0.858 -3.8606  1.4186  1.8553
  136SOL    HW2  543   0.223   1.978   0.803  0.7850  1.2424 -1.2218
  136SOL     MW  544   0.157   1.979   0.866 -0.5643  0.3546 -0.1990
  137SOL     OW  545   0.746   2.078   0.594  0.0088  0.2297 -0.2891
  137SOL    HW1  546   0.777   2.099   0.685 -0.1775  2.7167  1.0923
  137SOL    HW2  547   0.651   2.087   0.598  1.1250  0.4175  0.5028
  137SOL     MW  548   0.737   2.082   0.607  0.1315  0.5826 -0.0023
  138SOL     OW  549   0.473   0.595   1.120  0.3658  0.0801 -0.8957
  138SOL    HW1  550   0.394   0.560   1.155  3.0434  0.3642 -1.8093
  138SOL    HW2  551   0.510   0.540   1.054 -0.6056  1.8875  1.3125
  138SOL     MW  552   0.467   0.583   1.116  0.5909  0.3561 -0.7249
  139SOL     OW  553   2.851   0.523   1.368  0.2432 -0.3288  0.0886
  139SOL    HW1  554   2.943   0.487   1.358  0.7086 -1.1806 -2.2278
  139SOL    HW2  555   2.853   0.589   1.439  0.6564 -0.1474 -0.3327
  139SOL     MW  556   2.863   0.527   1.376  0.3591 -0.4172 -0.2726
  140SOL     OW  557   0.890   0.461   1.968  0.0452  0.1773  0.8589
  140SOL    HW1  558   0.974   0.408   1.972  1.1104  2.8547  0.4886
  140SOL    HW2  559   0.856   0.479   2.061 -2.2398  0.8897  2.0346
  140SOL     MW  560   0.896   0.456   1.981 -0.1158  0.6246  0.9651
  141SOL     OW  561   1.095   0.629   1.677  0.5880  0.3628  0.3305
  141SOL    HW1  562   1.098   0.574   1.598 -0.0222 -0.6451  0.4167
  141SOL    HW2  563   1.182   0.603   1.716 -0.1275 -1.4927  1.8531
  141SOL     MW  564   1.107   0.618   1.671  0.4131 -0.0150  0.5427
  142SOL     OW  565   0.870   1.216   0.740 -0.3246 -0.3402  0.2930
  142SOL    HW1  566   0.906   1.147   0.675  1.5286 -0.0658  0.6381
  142SOL    HW2  567   0.960   1.253   0.765  2.5466  0.9888 -3.2027
  142SOL     MW  568   0.886   1.212   0.735  0.2987 -0.1287 -0.1227
  143SOL     OW  569   1.834   0.722   1.041  0.0880 -0.1861  0.7273
  143SOL    HW1  570   1.872   0.717   0.955  0.9100  3.8890 -1.8514
  143SOL    HW2  571   1.747   0.689   1.028  0.4156  0.1858  0.0668
  143SOL     MW  572   1.827   0.717   1.028  0.2396  0.4007  0.3000
  144SOL     OW  573   0.230   1.328   1.729 -0.0506  0.6811  0.5820
  144SOL    HW1  574   0.289   1.408   1.724  0.2640 -2.1996 -1.2123
  144SOL    HW2  575   0.265   1.269   1.795  0.9497 -0.9355 -1.8789
  144SOL     MW  576   0.242   1.330   1.737  0.1229  0.0877  0.0206
  145SOL     OW  577   0.241   0.491   1.192  0.1853 -0.0219 -0.1886
  145SOL    HW1  578   0.254   0.396   1.201  1.9241  1.7253  0.0630
  145SOL    HW2  579   0.189   0.491   1.113 -0.3950 -0.8373 -2.2947
  145SOL     MW  580   0.235   0.479   1.183  0.3382  0.1011 -0.4333
  146SOL     OW  581   0.782   1.969   1.522  0.4053  0.7500  0.3631
  146SOL    HW1  582   0.829   1.993   1.432  0.8856  1.7505 -1.1465
  146SOL    HW2  583   0.719   1.896   1.493 -0.5294 -1.0889  0.4917
  146SOL     MW  584   0.780   1.962   1.506  0.3453  0.6394  0.1809
  147SOL     OW  585   0.462   0.508   2.964 -0.4699  0.5383  0.8900
  147SOL    HW1  586   0.378   0.541   3.001 -0.5198 -4.0171  1.8275
  147SOL    HW2  587   0.473   0.559   2.884  0.2090  1.2421  0.5269
  147SOL     MW  588   0.452   0.519   2.958 -0.3869  0.0301  0.9658
  148SOL     OW  589   0.046   0.912   1.359 -0.2737 -0.2834 -0.7129
  148SOL    HW1  590   0.140   0.930   1.340  0.5958  0.2741 -1.0958
  148SOL    HW2  591   0.002   0.995   1.352 -0.3645  0.9273 -0.0974
  148SOL     MW  592   0.053   0.925   1.355 -0.1710 -0.0501 -0.6822
  149SOL     OW  593   1.569   1.184   1.411 -0.8075  0.1495  1.3798
  149SOL    HW1  594   1.506   1.163   1.487 -0.0165 -0.6044 -2.5021
  149SOL    HW2  595   1.577   1.280   1.407 -1.7011 -0.0363  0.9399
  149SOL     MW  596   1.562   1.194   1.420 -0.8210  0.0255  0.8096
  150SOL     OW  597   1.722   1.465   0.847 -0.3817 -0.0736  0.2801
  150SOL    HW1  598   1.778   1.389   0.864  3.4311 -0.1348 -0.6894
  150SOL    HW2  599   1.777   1.542   0.836  2.2060 -1.1234 -0.0754
  150SOL     MW  600   1.737   1.465   0.848  0.4628 -0.2202  0.1053
  151SOL     OW  601   1.615   1.888   0.827 -0.1475  0.1906 -0.1574
  151SOL    HW1  602   1.592   1.852   0.740 -1.2285 -0.1259  1.2451
  151SOL    HW2  603   1.548   1.845   0.883  0.8735 -1.8330 -0.0931
  151SOL     MW  604   1.603   1.877   0.823 -0.1554 -0.1182  0.0361
  152SOL     OW  605   0.651   1.418   1.571 -0.0462 -0.2023  0.5582
  152SOL    HW1  606   0.696   1.445   1.485  0.4092 -0.9232 -0.5699
  152SOL    HW2  607   0.622   1.333   1.549  1.5337  1.9350 -1.2982
  152SOL     MW  608   0.654   1.411   1.557  0.2223 -0.0154  0.1644
  153SOL     OW  609   2.586   1.235   0.719  0.2815  0.3267  0.2450
  153SOL    HW1  610   2.661   1.207   0.669  2.0473  0.6329 -0.3126
  153SOL    HW2  611   2.538   1.160   0.754 -0.3027 -4.4357 -0.5001
  153SOL     MW  612   2.589   1.222   0.717  0.4374 -0.2612  0.0731
  154SOL     OW  613   0.123   1.771   1.766  0.1289 -0.0990 -0.3181
  154SOL    HW1  614   0.098   1.669   1.767  1.1205 -0.3271  1.2569
  154SOL    HW2  615   0.219   1.783   1.745  0.4444  1.4839 -0.8408
  154SOL     MW  616   0.133   1.759   1.763  0.3013  0.0797 -0.1792
  155SOL     OW  617   1.217   0.695   0.294 -0.3909 -0.5358  0.1406
  155SOL    HW1  618   1.206   0.667   0.381  0.6423  0.5154 -4.5003
  155SOL    HW2  619   1.192   0.790   0.303  1.4155  2.7500  0.6385
  155SOL     MW  620   1.212   0.704   0.307 -0.0162  0.0364 -0.4060
  156SOL     OW  621   1.565   0.004   1.076 -0.1717 -0.1003  0.4524
  156SOL    HW1  622   1.604   0.057   1.141  2.3575  1.2254  0.2682
  156SOL    HW2  623   1.605  -0.086   1.085  0.9515  1.5204 -1.4434
  156SOL     MW  624   1.575  -0.001   1.086  0.3102  0.2885  0.1779
  157SOL     OW  625   1.312   1.136   0.188 -0.7690  0.3293 -0.4507
  157SOL    HW1  626   1.301   1.080   0.259 -0.0195  0.8412  1.0738
  157SOL    HW2  627   1.399   1.174   0.203  1.6283 -1.4849 -0.1122
  157SOL     MW  628   1.322   1.134   0.200 -0.3538  0.1575 -0.2049
  158SOL     OW  629   0.388   1.647   2.263  0.1341  0.0861  0.7354
  158SOL    HW1  630   0.396   1.741   2.239 -0.0760  1.6111  0.2401
  158SOL    HW2  631   0.338   1.615   2.186 -0.6104 -0.9724  1.6992
  158SOL     MW  632   0.382   1.655   2.250  0.0082  0.1477  0.7972
  159SOL     OW  633   1.201   1.695   0.526 -0.0100  0.7898 -0.3415
  159SOL    HW1  634   1.142   1.649   0.466  1.6430  0.6019 -0.5447
  159SOL    HW2  635   1.143   1.746   0.585  1.8026 -2.4160  1.4230
  159SOL     MW  636   1.185   1.695   0.526  0.4472  0.3421 -0.1355
  160SOL     OW  637   0.503   1.131   1.539 -0.4973  0.3199  0.0019
  160SOL    HW1  638   0.450   1.074   1.590  4.3663  0.2784  2.9929
  160SOL    HW2  639   0.589   1.089   1.525  0.3451 -2.4822  0.9013
  160SOL     MW  640   0.507   1.118   1.544  0.2556 -0.0553  0.5152
  161SOL     OW  641   0.471   2.280   2.685  0.1694  0.3692 -0.0366
  161SOL    HW1  642   0.389   2.322   2.668  3.1178 -0.9237  1.1361
  161SOL    HW2  643   0.474   2.202   2.627 -1.2345 -0.2503 -0.4047
  161SOL     MW  644   0.460   2.275   2.675  0.3732  0.1169  0.0696
  162SOL     OW  645   1.083   1.816   1.810 -0.2321 -0.3039  0.1582
  162SOL    HW1  646   1.093   1.894   1.874 -2.8451  0.2680  0.8415
  162SOL    HW2  647   1.003   1.769   1.841 -1.6753 -3.5283  1.2028
  162SOL     MW  648   1.074   1.820   1.823 -0.7673 -0.6538  0.3862
  163SOL     OW  649   2.131   3.071   0.808  0.0564 -0.6181 -0.3370
  163SOL    HW1  650   2.119   3.144   0.744 -2.8178  0.5733 -1.2399
  163SOL    HW2  651   2.065   3.011   0.789  0.9576  1.3512  0.0726
  163SOL     MW  652   2.121   3.073   0.797 -0.2039 -0.2011 -0.4021
  164SOL     OW  653   0.274   0.230   0.853 -0.9782  0.4068 -0.8767
  164SOL    HW1  654   0.178   0.207   0.875 -0.3480  1.1342  0.4703
  164SOL    HW2  655   0.304   0.159   0.796 -0.0632  1.5061 -0.6629
  164SOL     MW  656   0.265   0.217   0.849 -0.7743  0.6478 -0.6708
  165SOL     OW  657   1.173   1.303   0.392 -0.3311 -0.4022 -0.2109
  165SOL    HW1  658   1.190   1.254   0.480 -0.4713 -0.2630  0.4035
  165SOL    HW2  659   1.223   1.261   0.325  0.7803 -2.9368 -1.6586
  165SOL     MW  660   1.182   1.291   0.395 -0.2030 -0.7182 -0.3208
  166SOL     OW  661   0.398   1.153   1.035 -0.8474 -0.3858 -0.1568
  166SOL    HW1  662   0.394   1.188   1.123  2.8170 -1.1204  1.1733
  166SOL    HW2  663   0.489   1.115   1.022 -1.3809 -2.7249  1.6472
  166SOL     MW  664   0.409   1.153   1.045 -0.4343 -0.7914  0.2567
  167SOL     OW  665   0.841   1.166   0.368 -0.0883  0.3607  0.1100
  167SOL    HW1  666   0.851   1.265   0.375 -0.1295  2.0436 -2.8230
  167SOL    HW2  667   0.857   1.156   0.273 -0.5163 -0.8238  0.6873
  167SOL     MW  668   0.844   1.178   0.356 -0.1502  0.4265 -0.2008
  168SOL     OW  669   1.732   1.639   3.025  0.4057 -0.2991 -0.3900
  168SOL    HW1  670   1.664   1.708   3.014 -1.3400 -1.2404 -2.6057
  168SOL    HW2  671   1.700   1.560   2.978  1.5680 -0.6894 -0.0378
  168SOL     MW  672   1.719   1.638   3.017  0.3288 -0.4748 -0.6359
  169SOL     OW  673   0.309   0.963   1.329 -0.8603 -0.2892  0.0066
  169SOL    HW1  674   0.336   0.915   1.401  0.4053 -0.0197 -1.8603
  169SOL    HW2  675   0.321   1.058   1.348  0.7605 -0.0771  0.2317
  169SOL     MW  676   0.314   0.970   1.341 -0.4795 -0.2257 -0.2100
  170SOL     OW  677   1.117   1.520   1.458 -0.3991  0.4102 -0.5198
  170SOL    HW1  678   1.080   1.606   1.453 -0.2567 -0.5547  2.2640
  170SOL    HW2  679   1.150   1.498   1.371  1.5007  1.1112  0.7027
  170SOL     MW  680   1.116   1.529   1.446 -0.1297  0.3754  0.0088
  171SOL     OW  681   0.486   1.466   0.547 -0.7539  1.0199 -0.2895
  171SOL    HW1  682   0.389   1.469   0.566  1.6101 -2.0306 -2.3912
  171SOL    HW2  683   0.524   1.387   0.495  2.2617 -0.9908  1.0979
  171SOL     MW  684   0.478   1.456   0.542 -0.0441  0.3521 -0.3837
  172SOL     OW  685   0.750   0.300   1.303  0.0512  0.1186 -0.3187
  172SOL    HW1  686   0.724   0.256   1.222  1.8385 -0.4404 -3.7963
  172SOL    HW2  687   0.779   0.222   1.363 -1.4269 -2.3778  1.3004
  172SOL     MW  688   0.751   0.284   1.301  0.0920 -0.2846 -0.5639
  173SOL     OW  689   0.505   1.759   0.337 -0.3292  0.7213 -0.2941
  173SOL    HW1  690   0.528   1.672   0.336  0.3936 -0.1489  0.6026
  173SOL    HW2  691   0.493   1.784   0.429 -2.7937 -1.2828  0.3374
  173SOL     MW  692   0.507   1.751   0.349 -0.5590  0.3420 -0.0924
  174SOL     OW  693   1.904   0.924   1.485  0.4009 -0.7507  0.7379
  174SOL    HW1  694   1.871   0.847   1.527  1.5500 -2.2022  0.2431
  174SOL    HW2  695   1.879   0.910   1.394  1.0166  0.6846  2.5544
  174SOL     MW  696   1.897   0.912   1.478  0.6338 -0.7529  0.9123
  175SOL     OW  697   0.588   1.463   0.217  0.2949  0.0309  0.5580
  175SOL    HW1  698   0.579   1.387   0.159  2.5785 -0.4530 -0.2916
  175SOL    HW2  699   0.671   1.468   0.262  1.5798  1.3282  2.4862
  175SOL     MW  700   0.597   1.453   0.215  0.7658  0.1382  0.7003
  176SOL     OW  701   0.093   1.513   1.196  0.3520  0.1311  0.8709
  176SOL    HW1  702   0.116   1.466   1.112  0.1029 -1.4333  0.1254
  176SOL    HW2  703   0.025   1.452   1.233  1.6737  0.7785  3.0667
  176SOL     MW  704   0.087   1.499   1.190  0.4935  0.0101  1.0623
  177SOL     OW  705   0.509   0.272   1.425  0.2004 -0.3571  0.4170
  177SOL    HW1  706   0.596   0.280   1.384 -0.4162  0.2059 -0.9969
  177SOL    HW2  707   0.510   0.362   1.473 -3.7555 -0.0954  2.9101
  177SOL     MW  708   0.521   0.285   1.426 -0.4029 -0.2483  0.5594
  178SOL     OW  709   3.061   0.548   2.983 -0.0916  0.4342 -0.4847
  178SOL    HW1  710   2.969   0.568   3.018  2.0708 -1.3077 -1.3326
  178SOL    HW2  711   3.047   0.580   2.893  2.1186  2.5628 -3.0783
  178SOL     MW  712   3.047   0.555   2.975  0.4853  0.4852 -0.9387
  179SOL     OW  713   1.561   1.491   1.358  0.5101  0.1019 -0.2937
  179SOL    HW1  714   1.607   1.495   1.446  2.7225  0.9407 -1.2701
  179SOL    HW2  715   1.641   1.452   1.309 -2.7490 -2.0231 -1.6100
  179SOL     MW  716   1.578   1.486   1.363  0.3720 -0.0678 -0.5962
  180SOL     OW  717   0.020   0.245   0.415  0.0816  0.3373 -0.1697
  180SOL    HW1  718  -0.063   0.291   0.377 -1.4894  3.1999 -0.5966
  180SOL    HW2  719   0.061   0.318   0.454 -0.4177 -1.0650 -1.1064
  180SOL     MW  720   0.014   0.260   0.415 -0.1916  0.5300 -0.3496
  181SOL     OW  721   1.072   1.339   0.010 -0.3598  0.0954  0.0101
  181SOL    HW1  722   1.145   1.395   0.046 -1.8364  3.3109 -0.3632
  181SOL    HW2  723   1.115   1.262  -0.024 -3.0858 -1.5048  4.5436
  181SOL     MW  724   1.087   1.336   0.010 -0.9143  0.3085  0.5590
  182SOL     OW  725   0.365   0.885   1.592  0.0195 -0.7007  0.4681
  182SOL    HW1  726   0.275   0.879   1.629 -0.4482 -2.3106  3.4061
  182SOL    HW2  727   0.406   0.833   1.658 -2.2255 -1.0031 -0.4095
  182SOL     MW  728   0.359   0.877   1.605 -0.3384 -0.9530  0.7399
  183SOL     OW  729   1.580   1.746   1.278 -0.3379 -0.0228  0.3466
  183SOL    HW1  730   1.670   1.758   1.297 -1.2818 -2.1528 -2.3906
  183SOL    HW2  731   1.563   1.652   1.308  0.5153 -0.6774  1.4245
  183SOL     MW  732   1.589   1.735   1.284 -0.3498 -0.3902  0.1276
  184SOL     OW  733   0.817   0.627   1.752 -0.1715 -0.1521 -0.5592
  184SOL    HW1  734   0.916   0.638   1.746  0.4891  0.5385  1.3237
  184SOL    HW2  735   0.810   0.556   1.817  1.4899  0.8634  0.6405
  184SOL     MW  736   0.829   0.619   1.760  0.1349  0.0730 -0.1525
  185SOL     OW  737   1.120   0.965   1.870 -0.4316  0.2679  0.0924
  185SOL    HW1  738   1.075   0.886   1.912  0.2110 -1.5798  1.9106
  185SOL    HW2  739   1.159   1.012   1.945 -0.2163 -0.9958 -0.8842
  185SOL     MW  740   1.119   0.961   1.885 -0.3184 -0.1426  0.2034
  186SOL     OW  741   0.269   1.599   1.519  0.0419  0.0021  0.4372
  186SOL    HW1  742   0.290   1.565   1.428 -0.8481  3.0448 -1.0448
  186SOL    HW2  743   0.181   1.560   1.541  0.6915 -0.2744  0.2579
  186SOL     MW  744   0.260   1.589   1.510  0.0101  0.3671  0.2180
  187SOL     OW  745   1.414   0.794   1.337  0.1929 -0.0010 -0.2074
  187SOL    HW1  746   1.414   0.788   1.432  2.2146  0.1322  0.8536
  187SOL    HW2  747   1.321   0.798   1.315  0.0505  2.0183 -1.6772
  187SOL     MW  748   1.402   0.793   1.346  0.4409  0.2830 -0.2614
  188SOL     OW  749   1.856   1.230   0.933 -0.5585  0.1033  0.0203
  188SOL    HW1  750   1.889   1.219   1.024  0.8548  0.4515  0.8050
  188SOL    HW2  751   1.856   1.138   0.904 -0.6539  0.3064 -0.1242
  188SOL     MW  752   1.860   1.216   0.941 -0.3846  0.1761  0.1048
  189SOL     OW  753   0.707   0.723   0.868  0.2306  0.4017 -0.8017
  189SOL    HW1  754   0.636   0.779   0.844  1.5548  3.3094 -0.6682
  189SOL    HW2  755   0.755   0.766   0.934 -1.7019 -1.0095  0.5567
  189SOL     MW  756   0.704   0.736   0.873  0.1503  0.5992 -0.6048
  190SOL     OW  757   1.880   0.266   2.050 -0.2480 -0.2787  0.1501
  190SOL    HW1  758   1.892   0.251   2.139 -0.7370 -1.7622 -1.4793
  190SOL    HW2  759   1.960   0.319   2.038  1.0625  0.4583  0.7595
  190SOL     MW  760   1.892   0.271   2.060 -0.1396 -0.3772  0.0155
  191SOL     OW  761   1.561   0.987   1.229 -0.0312  0.6462 -0.1366
  191SOL    HW1  762   1.564   1.057   1.301 -0.9832  0.5870  0.3712
  191SOL    HW2  763   1.496   0.928   1.269  1.4208  1.1217  0.5016
  191SOL     MW  764   1.552   0.989   1.244  0.0348  0.7011  0.0146
  192SOL     OW  765   0.526   2.179   2.953  0.1779  0.4867  0.0740
  192SOL    HW1  766   0.518   2.213   2.863  1.0657  2.6706  1.0829
  192SOL    HW2  767   0.527   2.083   2.936  2.4738 -2.1221  0.0885
  192SOL     MW  768   0.525   2.171   2.939  0.5979  0.4307  0.2090
  193SOL     OW  769   0.826   1.612   0.794 -0.0059 -0.3272 -0.4481
  193SOL    HW1  770   0.729   1.619   0.811 -4.8887  1.8756  1.2341
  193SOL    HW2  771   0.816   1.539   0.735  0.8424  2.1972 -0.3449
  193SOL     MW  772   0.812   1.603   0.789 -0.5382  0.2965 -0.2125
  194SOL     OW  773   0.406   1.354   0.861 -0.4602  0.2834 -0.0698
  194SOL    HW1  774   0.401   1.283   0.923  0.4468 -2.1461  2.0815
  194SOL    HW2  775   0.317   1.364   0.826 -0.5794 -0.9805 -2.1159
  194SOL     MW  776   0.394   1.346   0.864 -0.3562 -0.2039 -0.0559
  195SOL     OW  777   1.200   1.117   3.017  0.2657  0.0258  0.0722
  195SOL    HW1  778   1.258   1.093   3.092  2.6321 -2.2790 -0.9075
  195SOL    HW2  779   1.124   1.058   3.024 -4.1494  1.2288 -1.5519
  195SOL     MW  780   1.198   1.106   3.028 -0.0046 -0.1196 -0.2714
  196SOL     OW  781   2.239   1.024   0.506  0.2455 -0.3286  0.0748
  196SOL    HW1  782   2.306   1.013   0.437 -1.8055  3.5872  1.4602
  196SOL    HW2  783   2.230   1.115   0.524  1.1832 -1.3142 -1.8305
  196SOL     MW  784   2.247   1.034   0.499  0.0986  0.0580  0.0062
  197SOL     OW  785   0.617   1.346   2.156 -0.1911 -0.2463  0.1928
  197SOL    HW1  786   0.620   1.283   2.086 -0.5065  2.3250 -1.1120
  197SOL    HW2  787   0.690   1.405   2.136  3.0558 -1.2770  0.7633
  197SOL     MW  788   0.627   1.345   2.144  0.1957 -0.0431  0.0959
  198SOL     OW  789   2.939   1.389   1.021 -0.2652  0.0402  0.0109
  198SOL    HW1  790   2.934   1.475   0.976 -1.0864 -0.8133  1.6811
  198SOL    HW2  791   2.860   1.331   0.994  1.8080  2.0211 -1.2095
  198SOL     MW  792   2.928   1.393   1.012 -0.1000  0.1889  0.0703
  199SOL     OW  793   0.668   1.253   1.827  0.1683 -0.1114 -0.0111
  199SOL    HW1  794   0.577   1.219   1.818 -1.7861 -1.8860 -1.6316
  199SOL    HW2  795   0.681   1.318   1.753  0.1431  1.2641 -1.9394
  199SOL     MW  796   0.658   1.257   1.816 -0.0929 -0.1640 -0.4793
  200SOL     OW  797   1.841   2.977   1.292 -0.3559  0.3208  0.0669
  200SOL    HW1  798   1.885   2.976   1.203 -0.3262 -1.4144 -2.5681
  200SOL    HW2  799   1.796   3.056   1.288  0.7294 -3.1945  1.2389
  200SOL     MW  800   1.841   2.987   1.280 -0.2088 -0.3719 -0.1262
  201SOL     OW  801   1.195   0.295   0.817 -0.1688  0.4167  0.1839
  201SOL    HW1  802   1.161   0.211   0.798  0.9143 -0.0625  0.5585
  201SOL    HW2  803   1.287   0.289   0.829 -1.6393 -2.3935  1.6293
  201SOL     MW  804   1.203   0.283   0.816 -0.2199 -0.0173  0.4240
  202SOL     OW  805   1.473   1.737   1.026 -0.3876  0.1979  0.0526
  202SOL    HW1  806   1.495   1.647   1.009  1.3362 -2.5852 -2.5877
  202SOL    HW2  807   1.505   1.747   1.118  1.5121 -1.2362  0.5843
  202SOL     MW  808   1.480   1.726   1.036  0.0904 -0.3585 -0.2256
  203SOL     OW  809   3.074   0.368   1.321  0.8488  0.4525  0.4776
  203SOL    HW1  810   3.094   0.270   1.309 -0.6517  0.5621 -2.9080
  203SOL    HW2  811   3.139   0.410   1.265 -0.1557  1.5788  0.9279
  203SOL     MW  812   3.086   0.360   1.312  0.5183  0.6156  0.0903
  204SOL     OW  813   1.003   1.830   0.657  0.6607  0.2608  0.0269
  204SOL    HW1  814   0.981   1.781   0.733 -0.7911  1.8264 -0.6616
  204SOL    HW2  815   0.928   1.829   0.598  0.3051 -0.1449 -1.3316
  204SOL     MW  816   0.990   1.824   0.660  0.4223  0.4138 -0.2432
  205SOL     OW  817   1.416   3.009   1.303  0.2738 -0.7920 -0.4560
  205SOL    HW1  818   1.443   3.051   1.223 -1.0301 -0.7132  0.2399
  205SOL    HW2  819   1.347   3.065   1.342  1.1227 -0.6979 -0.5939
  205SOL     MW  820   1.410   3.022   1.298  0.2137 -0.7692 -0.3824
  206SOL     OW  821   0.367   2.931   1.341  0.0527 -0.1012  0.6864
  206SOL    HW1  822   0.346   2.951   1.250 -1.5892 -2.8193 -0.1886
  206SOL    HW2  823   0.462   2.923   1.349 -0.3431  0.9204 -0.3203
  206SOL     MW  824   0.377   2.933   1.330 -0.2162 -0.3250  0.4381
  207SOL     OW  825   0.895   1.751   0.216  0.1534  0.0979 -0.1857
  207SOL    HW1  826   0.951   1.801   0.155 -0.8580  2.2513 -2.4659
  207SOL    HW2  827   0.953   1.688   0.262 -3.2955 -0.1674  0.6807
  207SOL     MW  828   0.910   1.749   0.214 -0.4351  0.3470 -0.3722
  208SOL     OW  829   0.783   1.549   1.325 -0.0916 -0.1123  0.1737
  208SOL    HW1  830   0.883   1.546   1.319  3.1299 -1.9252  0.7862
  208SOL    HW2  831   0.765   1.457   1.317  2.2989  0.5275  1.9312
  208SOL     MW  832   0.794   1.537   1.323  0.6489 -0.2671  0.4864
  209SOL     OW  833   1.627   0.476   2.827  0.1483 -0.1062 -0.1216
  209SOL    HW1  834   1.663   0.563   2.846  1.9917 -1.4837  0.8730
  209SOL    HW2  835   1.689   0.422   2.782 -0.1502  1.0300  0.2332
  209SOL     MW  836   1.640   0.480   2.824  0.3521 -0.1381  0.0564
  210SOL     OW  837   1.490   1.418   0.987  0.0561 -0.0266  0.4338
  210SOL    HW1  838   1.571   1.447   0.949  0.2444 -0.5368  0.9071
  210SOL    HW2  839   1.432   1.426   0.910  1.0572 -1.6224 -0.6161
  210SOL     MW  840   1.493   1.423   0.972  0.2130 -0.3045  0.3578
  211SOL     OW  841   1.749   0.466   0.904  0.0784  0.2284 -0.1047
  211SOL    HW1  842   1.741   0.463   0.804 -0.0045  2.8594  0.8554
  211SOL    HW2  843   1.842   0.482   0.939  0.9551  1.4821 -0.3849
  211SOL     MW  844   1.760   0.468   0.896  0.1831  0.7409 -0.0150
  212SOL     OW  845   0.360   1.192   0.199 -0.0127  0.5928 -0.4794
  212SOL    HW1  846   0.311   1.118   0.226  1.3736  3.3749  0.0504
  212SOL    HW2  847   0.431   1.142   0.156  0.8309 -1.7604  0.2249
  212SOL     MW  848   0.363   1.176   0.197  0.2816  0.6494 -0.3166
  213SOL     OW  849   0.385   1.832   3.020  0.5991 -0.4236  0.3549
  213SOL    HW1  850   0.448   1.874   3.085 -0.4300  1.6949 -0.0557
  213SOL    HW2  851   0.407   1.882   2.934  0.1392  0.5673 -2.3074
  213SOL     MW  852   0.396   1.844   3.017  0.4026 -0.0133 -0.0505
  214SOL     OW  853   0.590   0.338   2.092 -0.8690 -0.4501 -0.2157
  214SOL    HW1  854   0.501   0.379   2.082  1.0295 -2.3834  1.9592
  214SOL    HW2  855   0.625   0.321   2.003  4.6813  4.0138 -0.5131
  214SOL     MW  856   0.583   0.341   2.079  0.1138 -0.1162  0.0320
  215SOL     OW  857   0.523   0.514   2.519 -0.2454 -0.7578 -0.1428
  215SOL    HW1  858   0.450   0.548   2.465 -1.9583 -1.5697 -2.9086
  215SOL    HW2  859   0.471   0.447   2.557 -0.7768 -2.1078 -4.3079
  215SOL     MW  860   0.507   0.510   2.517 -0.5415 -1.0430 -1.0572
  216SOL     OW  861   2.904   3.091   2.789  0.5016 -0.3115  0.7613
  216SOL    HW1  862   2.814   3.069   2.811  0.5911  3.8959 -1.5776
  216SOL    HW2  863   2.913   3.162   2.731  2.0750 -3.1598  0.2022
  216SOL     MW  864   2.893   3.098   2.784  0.7210 -0.1322  0.3790
  217SOL     OW  865   0.961   1.089   0.137 -0.5708  0.3756  0.4862
  217SOL    HW1  866   0.988   1.024   0.072  0.2174  0.6813 -0.5016
  217SOL    HW2  867   1.014   1.159   0.117 -2.9528 -0.7158  2.1820
  217SOL     MW  868   0.972   1.089   0.125 -0.7811  0.2720  0.5796
  218SOL     OW  869   0.848   1.363   2.599  0.0080 -0.0721 -0.1048
  218SOL    HW1  870   0.817   1.312   2.672  2.8053  1.0417 -0.3382
  218SOL    HW2  871   0.928   1.405   2.628 -0.7382  0.3993  1.4412
  218SOL     MW  872   0.854   1.362   2.612  0.2786  0.1370  0.0684
  219SOL     OW  873   1.051   0.452   2.597 -0.4658  0.0836 -0.4779
  219SOL    HW1  874   1.127   0.511   2.628  1.2112  1.7065  2.7739
  219SOL    HW2  875   0.985   0.508   2.561  1.1060 -0.9984  0.5506
  219SOL     MW  876   1.052   0.467   2.597 -0.0372  0.1550  0.0869
  220SOL     OW  877   1.708   0.517   2.198 -0.2346  0.4774 -0.2482
  220SOL    HW1  878   1.627   0.561   2.165 -0.8652 -1.5812  1.3706
  220SOL    HW2  879   1.742   0.468   2.121 -0.8133  1.7321 -0.5389
  220SOL     MW  880   1.702   0.517   2.183 -0.3942  0.3713 -0.0730
  221SOL     OW  881   0.387   1.385   2.927 -0.1166  0.1533  0.4650
  221SOL    HW1  882   0.440   1.301   2.922 -1.6080 -2.1099 -1.0784
  221SOL    HW2  883   0.449   1.466   2.940  0.8091  2.2217 -0.9352
  221SOL     MW  884   0.402   1.385   2.928 -0.1912  0.1276  0.0766
  222SOL     OW  885   0.528   0.918   2.724 -0.1029 -0.3755  0.3145
  222SOL    HW1  886   0.434   0.912   2.724 -0.6537  0.6373  0.6356
  222SOL    HW2  887   0.557   0.828   2.692  1.7773 -2.3586  0.4601
  222SOL     MW  888   0.520   0.905   2.720  0.0725 -0.5035  0.3760
  223SOL     OW  889   3.089   2.038   2.536 -0.2963 -0.4704 -0.2858
  223SOL    HW1  890   3.090   2.019   2.633  0.8355  1.1354  0.6753
  223SOL    HW2  891   3.129   2.125   2.519  0.3902 -2.7701 -1.5922
  223SOL     MW  892   3.094   2.047   2.547 -0.0564 -0.5620 -0.3313
  224SOL     OW  893   1.466   0.684   2.437  0.0105 -0.5247 -0.4681
  224SOL    HW1  894   1.507   0.622   2.501 -0.6198 -3.7217  1.0939
  224SOL    HW2  895   1.461   0.767   2.491  2.2205 -2.8209  0.0536
  224SOL     MW  896   1.470   0.687   2.453  0.2189 -1.2495 -0.1932
  225SOL     OW  897   2.947   1.495   2.241 -0.4821  0.1007 -0.5299
  225SOL    HW1  898   2.974   1.581   2.202  2.5376  2.0125 -0.0603
  225SOL    HW2  899   2.865   1.499   2.295 -0.7384 -1.7493  1.7468
  225SOL     MW  900   2.940   1.507   2.243 -0.1175  0.1089 -0.1676
  226SOL     OW  901   0.439   1.562   2.690  0.1407  0.5930  0.3046
  226SOL    HW1  902   0.523   1.604   2.672  1.0830 -1.5392 -1.4072
  226SOL    HW2  903   0.378   1.639   2.687  0.0696  0.0521 -0.3600
  226SOL     MW  904   0.442   1.578   2.687  0.2556  0.2403 -0.0089
  227SOL     OW  905   0.501   1.146   2.910 -0.4855  0.2867 -0.8854
  227SOL    HW1  906   0.587   1.164   2.869 -1.1934 -1.0924  0.7880
  227SOL    HW2  907   0.469   1.066   2.874  1.6182  1.7053  1.8115
  227SOL     MW  908   0.508   1.138   2.900 -0.3013  0.2919 -0.3088
  228SOL     OW  909   0.746   1.116   2.036  0.3099  0.4592 -0.5068
  228SOL    HW1  910   0.732   1.151   1.949 -1.1062 -3.0528  1.4031
  228SOL    HW2  911   0.834   1.142   2.059  0.3905 -2.9936 -1.8486
  228SOL     MW  912   0.756   1.124   2.028  0.1337 -0.4598 -0.4318
  229SOL     OW  913   0.208   0.571   0.032  0.0174 -0.0989  0.6456
  229SOL    HW1  914   0.131   0.548  -0.027  0.6395  1.9276  2.5382
  229SOL    HW2  915   0.225   0.490   0.085  2.7652  1.0299 -0.8936
  229SOL     MW  916   0.200   0.557   0.031  0.4620  0.3174  0.6923
  230SOL     OW  917   1.720   1.374   2.064  0.2927 -0.2815  1.1695
  230SOL    HW1  918   1.668   1.336   2.135 -1.8746 -0.4033  0.7070
  230SOL    HW2  919   1.802   1.331   2.059  0.2372 -0.0915 -2.0999
  230SOL     MW  920   1.724   1.363   2.072 -0.0006 -0.2725  0.6771
  231SOL     OW  921   2.732   1.275   2.225 -0.1193  0.5238 -0.1765
  231SOL    HW1  922   2.816   1.326   2.225  0.1107 -0.0625 -2.8179
  231SOL    HW2  923   2.695   1.309   2.141  1.4479  2.6373 -3.4406
  231SOL     MW  924   2.738   1.286   2.214  0.1178  0.7253 -0.9557
  232SOL     OW  925   2.294   0.896   1.944  0.0880  0.1535  0.3505
  232SOL    HW1  926   2.209   0.895   1.904 -0.9897 -1.2266 -0.7460
  232SOL    HW2  927   2.274   0.851   2.025 -0.6190 -0.2247 -0.6292
  232SOL     MW  928   2.280   0.890   1.949 -0.1475 -0.0785  0.0766
  233SOL     OW  929   2.100   0.421   2.038  0.1494  0.4421 -0.0289
  233SOL    HW1  930   2.163   0.356   2.023  3.4336  1.3986 -1.2636
  233SOL    HW2  931   2.115   0.454   2.125 -1.1907 -0.1570 -2.0221
  233SOL     MW  932   2.110   0.417   2.047  0.4059  0.4892 -0.4548
  234SOL     OW  933   0.246   1.061   2.673  0.1227 -0.0874  0.0758
  234SOL    HW1  934   0.181   1.069   2.604  2.1464  3.5070  0.4337
  234SOL    HW2  935   0.289   1.147   2.680 -1.3861 -2.1398 -0.3885
  234SOL     MW  936   0.243   1.074   2.665  0.1907  0.1160  0.0618
  235SOL     OW  937   1.141  -0.002   2.843  0.1044  0.6815  0.3334
  235SOL    HW1  938   1.182   0.019   2.924 -3.5307  2.2768  1.0624
  235SOL    HW2  939   1.130   0.091   2.807  1.1959  2.4168 -1.3037
  235SOL     MW  940   1.145   0.013   2.849 -0.2312  1.1209  0.2136
  236SOL     OW  941   2.984   0.596   0.200 -0.0759  0.0966 -0.8230
  236SOL    HW1  942   3.017   0.627   0.288  1.7853 -2.3266 -0.1912
  236SOL    HW2  943   3.045   0.631   0.132  1.7941 -1.8946 -2.7976
  236SOL     MW  944   2.997   0.605   0.203  0.4164 -0.4858 -1.0001
  237SOL     OW  945   1.889   1.057   2.120 -0.0194  0.0634 -0.1777
  237SOL    HW1  946   1.818   1.073   2.174 -0.0387 -0.4882 -2.6391
  237SOL    HW2  947   1.856   1.058   2.028 -1.5458  1.3876 -2.7144
  237SOL     MW  948   1.876   1.059   2.115 -0.2233  0.1654 -0.8372
  238SOL     OW  949   1.073   1.718   2.929  0.1994  0.1458 -0.3914
  238SOL    HW1  950   1.036   1.633   2.909  0.4836 -1.1820 -2.9586
  238SOL    HW2  951   1.168   1.704   2.918 -0.2512 -2.5559  1.3486
  238SOL     MW  952   1.080   1.705   2.925  0.1775 -0.3859 -0.5005
  239SOL     OW  953   1.188   1.319   2.351  0.0455 -0.0501 -0.3609
  239SOL    HW1  954   1.098   1.331   2.318 -2.4398  0.1862  4.0373
  239SOL    HW2  955   1.176   1.256   2.422 -0.4342  1.8565 -0.4856
  239SOL     MW  956   1.175   1.312   2.356 -0.3457  0.2327  0.2029
  240SOL     OW  957   0.581   0.876   2.277  0.1566 -0.2725  0.1053
  240SOL    HW1  958   0.605   0.911   2.364  0.7597 -1.5031  2.9196
  240SOL    HW2  959   0.665   0.857   2.238  3.2046 -0.3690 -0.7087
  240SOL     MW  960   0.595   0.878   2.283  0.6383 -0.4476  0.3693
  241SOL     OW  961   0.704   0.440   3.099  0.1384  0.2026 -0.0436
  241SOL    HW1  962   0.744   0.517   3.139 -0.5881 -1.0830  1.5347
  241SOL    HW2  963   0.615   0.471   3.067  4.0396  1.6553  0.7726
  241SOL     MW  964   0.697   0.454   3.100  0.5573  0.2247  0.2724
  242SOL     OW  965   1.499   1.620   2.307 -0.1011 -0.3624 -0.0321
  242SOL    HW1  966   1.453   1.699   2.313 -1.0234 -2.0863 -0.2618
  242SOL    HW2  967   1.448   1.572   2.245 -2.1794 -2.7644  4.6872
  242SOL     MW  968   1.487   1.624   2.300 -0.4970 -0.9068  0.5603
  243SOL     OW  969   1.020   0.282   2.376 -0.2326 -1.0265  0.3169
  243SOL    HW1  970   1.101   0.227   2.384 -1.6835 -1.6164 -0.9786
  243SOL    HW2  971   1.032   0.344   2.453 -0.1247  0.9534  0.8134
  243SOL     MW  972   1.032   0.283   2.387 -0.4098 -0.8431  0.2115
  244SOL     OW  973   0.090   0.780   2.368 -0.0800  0.1674  0.0002
  244SOL    HW1  974   0.101   0.862   2.423 -0.0145  1.2342 -0.4500
  244SOL    HW2  975   0.175   0.768   2.335 -1.9107  3.3370  1.8772
  244SOL     MW  976   0.102   0.789   2.371 -0.3129  0.7264  0.1885
  245SOL     OW  977   1.239   0.157   2.434 -0.3069 -0.3819 -0.0083
  245SOL    HW1  978   1.292   0.123   2.357 -0.4809  1.9862  2.4039
  245SOL    HW2  979   1.266   0.093   2.502 -1.3767 -0.9643 -2.2670
  245SOL     MW  980   1.249   0.144   2.433 -0.4710 -0.1463  0.0119
  246SOL     OW  981   1.218   1.142   2.102 -0.6046  0.0798 -0.2405
  246SOL    HW1  982   1.132   1.127   2.151 -0.9463 -2.1998  2.6330
  246SOL    HW2  983   1.277   1.107   2.169  2.7502 -1.5278  0.1252
  246SOL     MW  984   1.215   1.136   2.117 -0.2071 -0.4331  0.1869
  247SOL     OW  985   0.763   0.675   0.189 -0.2564 -0.3532  0.1379
  247SOL    HW1  986   0.752   0.762   0.144  1.2758  0.3207 -1.3597
  247SOL    HW2  987   0.854   0.639   0.169  2.9007  0.5358 -0.3198
  247SOL     MW  988   0.774   0.682   0.181  0.3623 -0.1470 -0.1201
  248SOL     OW  989   0.298   1.324   2.596 -0.0220 -0.2858  0.4829
  248SOL    HW1  990   0.325   1.330   2.507 -1.2328 -2.2956  1.7959
  248SOL    HW2  991   0.353   1.392   2.635  1.4084 -1.7362 -0.7547
  248SOL     MW  992   0.309   1.334   2.590  0.0070 -0.7423  0.4928
  249SOL     OW  993   3.030   1.922   2.783  0.1227  0.0742 -0.0228
  249SOL    HW1  994   3.008   1.856   2.716 -2.6673 -1.1211  1.1076
  249SOL    HW2  995   3.066   1.866   2.851 -0.5339 -0.6724 -1.1013
  249SOL     MW  996   3.032   1.906   2.783 -0.3321 -0.1820 -0.0159
  250SOL     OW  997   2.243   0.761   2.168  0.0395 -0.5710  0.1530
  250SOL    HW1  998   2.196   0.682   2.211  0.4249 -0.7187 -0.5790
  250SOL    HW2  999   2.307   0.803   2.227  3.0989 -0.4665 -0.4386
  250SOL     MW 1000   2.245   0.756   2.182  0.4940 -0.5767 -0.0217
  251SOL     OW 1001   0.156   0.877   2.038  0.4230 -0.1780 -0.1239
  251SOL    HW1 1002   0.111   0.807   2.086 -2.9931 -1.2962  1.5121
  251SOL    HW2 1003   0.141   0.863   1.944 -1.9491  2.4470  2.1364
  251SOL     MW 1004   0.148   0.866   2.032 -0.3407  0.0208  0.3902
  252SOL     OW 1005   1.716   1.019   2.884 -0.1375  0.9389  0.4451
  252SOL    HW1 1006   1.733   1.046   2.973 -0.4360  1.7289  1.0665
  252SOL    HW2 1007   1.805   1.025   2.849 -2.8586 -2.2257 -1.0516
  252SOL     MW 1008   1.730   1.024   2.891 -0.5359  0.6256  0.3296
  253SOL     OW 1009   1.142   1.687   2.522 -0.2720 -0.1848  0.9085
  253SOL    HW1 1010   1.114   1.645   2.434  2.3405 -2.2212 -1.4411
  253SOL    HW2 1011   1.067   1.749   2.545  1.2582 -0.6830 -1.4608
  253SOL     MW 1012   1.128   1.689   2.513  0.2746 -0.5192  0.2859
  254SOL     OW 1013   0.972   1.110   2.239  0.3541 -0.7195  0.1891
  254SOL    HW1 1014   0.950   1.017   2.233 -2.3297 -1.1482  1.0862
  254SOL    HW2 1015   0.899   1.150   2.293 -0.7146  0.8245  2.5400
  254SOL     MW 1016   0.960   1.103   2.245 -0.1410 -0.5723  0.6177
  255SOL     OW 1017   0.852   2.529   2.145 -0.0405 -1.0997 -0.1096
  255SOL    HW1 1018   0.772   2.471   2.152 -1.2549  1.8734  0.7374
  255SOL    HW2 1019   0.933   2.479   2.161  2.5182  2.2224  1.1606
  255SOL     MW 1020   0.852   2.515   2.148  0.1368 -0.2691  0.1697
  256SOL     OW 1021   1.315   2.781   3.060  0.4780 -0.3838  0.4259
  256SOL    HW1 1022   1.354   2.695   3.067  0.5470  0.0437 -0.3320
  256SOL    HW2 1023   1.361   2.799   2.976  1.3804  0.2271  1.4318
  256SOL     MW 1024   1.326   2.772   3.049  0.6061 -0.2468  0.4586
  257SOL     OW 1025   0.037   1.919   0.079  0.6964  0.3596 -0.2708
  257SOL    HW1 1026   0.109   1.925   0.136 -2.4295 -1.3020  0.1369
  257SOL    HW2 1027   0.064   1.863   0.003 -1.5119  0.9171 -3.4691
  257SOL     MW 1028   0.050   1.912   0.076 -0.0074  0.2139 -0.6390
  258SOL     OW 1029   0.688   1.020   2.514  0.5851  0.1796 -0.2259
  258SOL    HW1 1030   0.718   1.100   2.463  0.6932  2.2703 -1.0900
  258SOL    HW2 1031   0.651   1.037   2.599 -0.9697 -1.2320  1.8459
  258SOL     MW 1032   0.687   1.033   2.518  0.3943  0.2692 -0.0665
  259SOL     OW 1033   0.813   0.461   2.238  0.2492 -0.4208 -0.9011
  259SOL    HW1 1034   0.739   0.396   2.229  0.7691  1.6165 -0.7614
  259SOL    HW2 1035   0.878   0.402   2.278 -0.2481 -1.8810 -0.1685
  259SOL     MW 1036   0.812   0.445   2.242  0.2522 -0.3447 -0.7860
  260SOL     OW 1037   0.642   0.101   1.604 -0.3464  0.1548  0.0609
  260SOL    HW1 1038   0.570   0.130   1.554  0.8392  3.8151  0.1420
  260SOL    HW2 1039   0.721   0.101   1.545 -1.8411 -1.1515 -0.8775
  260SOL     MW 1040   0.643   0.105   1.590 -0.3872  0.4654 -0.0522
  261SOL     OW 1041   1.022   0.735   2.021 -0.1179 -0.3965 -0.0827
  261SOL    HW1 1042   1.072   0.695   2.092 -0.2578  3.2893 -1.1801
  261SOL    HW2 1043   0.962   0.668   1.989 -1.9653 -0.0336 -1.3861
  261SOL     MW 1044   1.021   0.721   2.026 -0.3801  0.1377 -0.3995
  262SOL     OW 1045   1.128   0.329   0.132  0.0416 -0.9229  0.1436
  262SOL    HW1 1046   1.213   0.299   0.090 -0.4334 -2.2887  0.1367
  262SOL    HW2 1047   1.065   0.289   0.067 -0.3633  1.4671  0.0182
  262SOL     MW 1048   1.131   0.320   0.118 -0.0745 -0.7877  0.1261
  263SOL     OW 1049   0.424   3.093   2.487  0.1395 -0.5343 -0.9981
  263SOL    HW1 1050   0.353   3.143   2.532 -0.6706 -1.8208  0.8269
  263SOL    HW2 1051   0.459   3.145   2.414  3.4789  1.1862 -0.7004
  263SOL     MW 1052   0.419   3.107   2.483  0.4732 -0.4770 -0.7180
  264SOL     OW 1053   1.549   1.493   1.909  0.0522  0.5491 -0.0199
  264SOL    HW1 1054   1.487   1.418   1.911  0.7386 -0.5747  0.8435
  264SOL    HW2 1055   1.608   1.467   1.989  0.9274  2.0351  3.0568
  264SOL     MW 1056   1.549   1.479   1.920  0.2582  0.5969  0.5000
  265SOL     OW 1057   0.731   2.812   2.288  0.0369 -0.0422 -0.2593
  265SOL    HW1 1058   0.820   2.794   2.257 -0.0595 -0.0581  0.7838
  265SOL    HW2 1059   0.729   2.811   2.384 -2.8547 -0.4462 -1.1243
  265SOL     MW 1060   0.743   2.809   2.296 -0.3574 -0.0976 -0.2358
  266SOL     OW 1061   0.826   0.861   2.149 -0.5906 -0.2210  0.9334
  266SOL    HW1 1062   0.802   0.938   2.097 -0.6488  1.4190  0.1140
  266SOL    HW2 1063   0.897   0.815   2.090  1.3526 -1.2359 -2.3548
  266SOL     MW 1064   0.832   0.865   2.135 -0.3419 -0.1385  0.3915
  267SOL     OW 1065   1.396   1.717   2.654 -0.1166  0.4602  0.6137
  267SOL    HW1 1066   1.446   1.637   2.619  0.7337  0.7890 -0.8943
  267SOL    HW2 1067   1.325   1.724   2.591 -2.0865  2.0431 -1.1894
  267SOL     MW 1068   1.394   1.707   2.641 -0.2643  0.7124  0.1769
  268SOL     OW 1069   0.134   0.903   1.756  0.1181  0.4620 -0.2146
  268SOL    HW1 1070   0.051   0.949   1.754  1.7204  1.1350 -2.5027
  268SOL    HW2 1071   0.101   0.819   1.732  0.6441 -2.1143 -0.0081
  268SOL     MW 1072   0.119   0.898   1.753  0.3989  0.2109 -0.4893
  269SOL     OW 1073   1.369   1.881   2.345  0.4585 -0.3714  0.4725
  269SOL    HW1 1074   1.402   1.968   2.350 -2.0578  0.0004 -0.3813
  269SOL    HW2 1075   1.293   1.895   2.403  0.6226  2.0930  0.4775
  269SOL     MW 1076   1.363   1.894   2.353  0.1481  0.0028  0.3605
  270SOL     OW 1077   1.084   0.411   1.509 -0.2360  0.9277 -0.4171
  270SOL    HW1 1078   1.024   0.361   1.564  0.2363  1.0852  0.3952
  270SOL    HW2 1079   1.169   0.369   1.512 -3.4646  1.0673 -0.5237
  270SOL     MW 1080   1.087   0.399   1.516 -0.5997  0.9669 -0.3240
  271SOL     OW 1081   0.870   0.084   2.502 -0.9003 -0.1095 -0.0381
  271SOL    HW1 1082   0.913   0.034   2.570  1.1732  1.5779  1.1827
  271SOL    HW2 1083   0.924   0.139   2.447  0.5070 -0.6838  2.8913
  271SOL     MW 1084   0.882   0.085   2.504 -0.4411  0.0374  0.5095
  272SOL     OW 1085   1.470   2.768   2.793  0.2369  0.2919  0.1280
  272SOL    HW1 1086   1.438   2.774   2.706  1.4166 -0.2943  3.0319
  272SOL    HW2 1087   1.514   2.857   2.811  1.2441 -0.3987  0.1056
  272SOL     MW 1088   1.472   2.780   2.784  0.5254  0.1234  0.5082
  273SOL     OW 1089   1.478   0.815   2.824 -0.0275 -0.1226  0.3015
  273SOL    HW1 1090   1.570   0.780   2.835  1.7678  1.8648  0.1149
  273SOL    HW2 1091   1.489   0.907   2.825 -3.7147 -0.5676 -1.1566
  273SOL     MW 1092   1.491   0.823   2.825 -0.2771  0.0809  0.0845
  274SOL     OW 1093   1.405   0.637   0.123 -0.5087 -0.0386  0.0779
  274SOL    HW1 1094   1.469   0.588   0.175  0.6321  0.1304  0.3733
  274SOL    HW2 1095   1.327   0.657   0.181 -1.2710  0.4162 -0.3207
  274SOL     MW 1096   1.403   0.633   0.137 -0.4587  0.0437  0.0643
  275SOL     OW 1097   1.839   0.555   1.726 -0.0196 -0.2441 -0.6379
  275SOL    HW1 1098   1.887   0.587   1.808 -2.4858  2.0985  0.5151
  275SOL    HW2 1099   1.836   0.458   1.739  1.0323  1.4482  1.1791
  275SOL     MW 1100   1.845   0.547   1.738 -0.2062  0.2883 -0.2460
  276SOL     OW 1101   0.370   1.177   1.934 -0.1857 -0.5284 -0.0653
  276SOL    HW1 1102   0.390   1.091   1.977 -2.3650 -1.7679  1.2225
  276SOL    HW2 1103   0.332   1.225   2.011 -1.3030  2.6901  0.5480
  276SOL     MW 1104   0.367   1.172   1.950 -0.6207 -0.2673  0.1855
  277SOL     OW 1105   2.000   1.123   2.492 -0.7430 -0.0546  0.0047
  277SOL    HW1 1106   2.065   1.198   2.495  1.4420 -0.2658  0.0603
  277SOL    HW2 1107   1.920   1.167   2.479  0.1817  1.4537 -2.7450
  277SOL     MW 1108   1.998   1.139   2.491 -0.3327  0.1166 -0.3508
  278SOL     OW 1109   1.450   0.606   1.639  0.1507 -0.0726 -0.3191
  278SOL    HW1 1110   1.468   0.577   1.737  2.0744 -0.4735  0.2512
  278SOL    HW2 1111   1.537   0.626   1.601  1.7418 -1.8838 -2.2697
  278SOL     MW 1112   1.464   0.605   1.647  0.6144 -0.3644 -0.5012
  279SOL     OW 1113   0.516   0.128   2.246 -0.4926  0.1164 -0.1991
  279SOL    HW1 1114   0.594   0.065   2.264  1.4881  0.0938  1.4205
  279SOL    HW2 1115   0.559   0.205   2.208  2.1515  0.0177 -0.0860
  279SOL     MW 1116   0.532   0.130   2.243  0.1176  0.1004  0.0295
  280SOL     OW 1117   1.419   1.005   2.219  0.1149 -0.6398  0.1175
  280SOL    HW1 1118   1.499   0.981   2.168  0.5374 -1.1184 -0.7997
  280SOL    HW2 1119   1.410   0.955   2.300  1.8855  0.2406  1.6046
  280SOL     MW 1120   1.428   0.995   2.223  0.4043 -0.5868  0.1927
  281SOL     OW 1121   1.333   1.090   2.759  0.7324 -0.5185 -0.0315
  281SOL    HW1 1122   1.384   1.173   2.752 -1.8560 -0.0029 -1.1987
  281SOL    HW2 1123   1.306   1.086   2.853  0.1332  1.7337  0.5721
  281SOL     MW 1124   1.336   1.101   2.770  0.3119 -0.1533 -0.1059
  282SOL     OW 1125   1.158   1.287   1.636 -0.3929 -0.3730  0.2970
  282SOL    HW1 1126   1.121   1.347   1.573 -3.3439  1.1990 -2.3146
  282SOL    HW2 1127   1.082   1.254   1.680  2.0933 -0.2959 -0.9857
  282SOL     MW 1128   1.143   1.291   1.634 -0.4542 -0.1554 -0.2168
  283SOL     OW 1129   0.811   1.378   3.064  0.3865 -0.3866 -0.7061
  283SOL    HW1 1130   0.905   1.374   3.090  0.9070 -3.0485  1.6038
  283SOL    HW2 1131   0.804   1.467   3.022  0.7975  0.1702 -2.2110
  283SOL     MW 1132   0.822   1.389   3.062  0.5094 -0.6644 -0.5999
  284SOL     OW 1133   0.368   0.694   2.342 -0.0642  0.0997 -0.0648
  284SOL    HW1 1134   0.443   0.749   2.317  0.0635  0.2363  0.4174
  284SOL    HW2 1135   0.367   0.647   2.258  1.4177  2.1371 -0.1873
  284SOL     MW 1136   0.378   0.695   2.328  0.1482  0.3865 -0.0174
  285SOL     OW 1137   0.866   0.839   2.841 -0.3727  0.4565 -0.6410
  285SOL    HW1 1138   0.898   0.883   2.762  0.0295 -0.8255 -0.8813
  285SOL    HW2 1139   0.790   0.792   2.822 -0.1491  0.0947  0.1615
  285SOL     MW 1140   0.860   0.839   2.828 -0.2901  0.2396 -0.5668
  286SOL     OW 1141   1.080   1.489   2.696 -0.0991  0.2237  0.2236
  286SOL    HW1 1142   1.151   1.421   2.704 -0.8289 -2.6727 -0.6531
  286SOL    HW2 1143   1.127   1.570   2.661  0.0198 -0.3328 -0.0330
  286SOL     MW 1144   1.096   1.491   2.692 -0.1797 -0.2318  0.0741
  287SOL     OW 1145   1.133   0.947   0.337 -0.4710  0.0404 -0.1588
  287SOL    HW1 1146   1.077   0.937   0.421 -1.5606 -0.8234  0.3858
  287SOL    HW2 1147   1.089   1.015   0.287  0.1652 -1.5132  0.4934
  287SOL     MW 1148   1.120   0.954   0.341 -0.5308 -0.2786 -0.0009
  288SOL     OW 1149   1.496   0.674   2.126  0.2697  0.3620 -0.0601
  288SOL    HW1 1150   1.450   0.680   2.213 -2.6247  0.0867  3.3343
  288SOL    HW2 1151   1.535   0.762   2.098  1.7797  1.2055 -0.5909
  288SOL     MW 1152   1.495   0.687   2.134  0.0871  0.4370  0.3177
  289SOL     OW 1153   0.930   0.960   2.603 -0.1665  0.1094 -0.1674
  289SOL    HW1 1154   0.977   0.904   2.545 -0.1490  0.2786 -0.7702
  289SOL    HW2 1155   0.831   0.971   2.564  1.5382 -0.5125 -0.7565
  289SOL     MW 1156   0.923   0.954   2.590  0.0608  0.0497 -0.3247
  290SOL     OW 1157   0.740   0.658   1.500 -0.1892  0.4548 -0.5163
  290SOL    HW1 1158   0.800   0.619   1.438 -0.4308  0.7416 -1.6050
  290SOL    HW2 1159   0.778   0.657   1.586 -1.3283  2.0790 -2.0077
  290SOL     MW 1160   0.753   0.653   1.503 -0.3714  0.7069 -0.8567
  291SOL     OW 1161   0.236   0.336   0.193 -0.0101  0.5062  0.1883
  291SOL    HW1 1162   0.318   0.326   0.241 -1.4947  1.6799  0.8921
  291SOL    HW2 1163   0.224   0.239   0.179 -0.2936 -0.2504  0.2135
  291SOL     MW 1164   0.245   0.322   0.198 -0.2434  0.5612  0.2845
  292SOL     OW 1165   1.024   0.564   0.095  0.1083  0.1507 -0.2133
  292SOL    HW1 1166   1.073   0.611   0.162 -1.8939 -2.3121  0.4645
  292SOL    HW2 1167   1.055   0.475   0.106 -0.5194  0.7590  2.2311
  292SOL     MW 1168   1.034   0.558   0.105 -0.2387 -0.0940  0.1986
  293SOL     OW 1169   0.138   0.089   2.545  0.3185  0.3969 -0.5312
  293SOL    HW1 1170   0.121   0.039   2.467  1.7705 -1.6281  2.9802
  293SOL    HW2 1171   0.049   0.128   2.554  0.9687  1.3975 -1.7887
  293SOL     MW 1172   0.124   0.088   2.536  0.5959  0.2618 -0.2338
  294SOL     OW 1173   1.338   0.448   2.359  0.1523 -0.2052  0.1207
  294SOL    HW1 1174   1.391   0.530   2.382  2.6101  0.5218 -0.8286
  294SOL    HW2 1175   1.327   0.401   2.440 -2.2796  1.2970 -0.5150
  294SOL     MW 1176   1.344   0.453   2.372  0.1558  0.0889 -0.0884
  295SOL     OW 1177   0.846   0.609   2.454 -0.1123  0.4905  0.4141
  295SOL    HW1 1178   0.821   0.575   2.363  0.0920  2.5543 -0.2693
  295SOL    HW2 1179   0.770   0.646   2.497 -0.3192 -0.0731  0.7168
  295SOL     MW 1180   0.832   0.610   2.448 -0.1127  0.6885  0.3638
  296SOL     OW 1181   1.357   0.320   2.066  0.2315  0.6478 -0.3057
  296SOL    HW1 1182   1.366   0.228   2.041  0.3298  1.2586 -0.1203
  296SOL    HW2 1183   1.397   0.325   2.155 -1.0390 -2.0873  0.5144
  296SOL     MW 1184   1.363   0.308   2.074  0.0768  0.3675 -0.1731
  297SOL     OW 1185   1.365   0.349   1.541 -0.1389  0.4488 -0.2504
  297SOL    HW1 1186   1.408   0.435   1.562  3.5268  1.3713  0.5040
  297SOL    HW2 1187   1.369   0.298   1.621 -3.2868  0.3472  0.8022
  297SOL     MW 1188   1.371   0.354   1.554 -0.0706  0.5571 -0.0120
  298SOL     OW 1189   1.647   0.908   2.089  0.1940  1.0022  0.6248
  298SOL    HW1 1190   1.673   0.955   2.004 -0.7265  0.1298  3.9406
  298SOL    HW2 1191   1.728   0.859   2.113 -1.4596  0.6818 -0.9485
  298SOL     MW 1192   1.662   0.908   2.081 -0.1456  0.8448  0.8547
  299SOL     OW 1193   0.639   1.182   0.056 -0.0654 -0.0292  0.6559
  299SOL    HW1 1194   0.595   1.157  -0.033  0.0791 -0.8764 -3.1948
  299SOL    HW2 1195   0.697   1.256   0.027 -0.3653  0.8048 -1.7962
  299SOL     MW 1196   0.641   1.189   0.040 -0.0859 -0.0309 -0.1757
  300SOL     OW 1197   1.136   1.168   2.559  0.6698  0.2636  0.7662
  300SOL    HW1 1198   1.058   1.106   2.555  1.2674  0.5179  0.0645
  300SOL    HW2 1199   1.203   1.125   2.614  1.7577  2.0076 -0.8222
  300SOL     MW 1200   1.134   1.154   2.566  0.8922  0.5272  0.4640
  301SOL     OW 1201   1.513   0.993   0.753  0.0302 -0.3989 -0.6566
  301SOL    HW1 1202   1.490   1.029   0.840  0.4965 -1.9828  1.2720
  301SOL    HW2 1203   1.447   0.922   0.732 -0.4007 -2.0915 -0.7402
  301SOL     MW 1204   1.501   0.989   0.762  0.0348 -0.8312 -0.4132
  302SOL     OW 1205   0.209   1.604   2.043 -0.6167 -0.0014  0.0264
  302SOL    HW1 1206   0.192   1.511   2.044 -1.5357  3.0377 -0.1009
  302SOL    HW2 1207   0.120   1.641   2.045 -2.1655 -1.2394  1.1688
  302SOL     MW 1208   0.195   1.596   2.043 -0.9423  0.2363  0.1604
  303SOL     OW 1209   0.269   1.782   2.710  0.6924  0.4411 -0.4601
  303SOL    HW1 1210   0.238   1.809   2.627 -1.2023  0.0931  2.0124
  303SOL    HW2 1211   0.208   1.811   2.782 -1.5028  0.2682 -0.8771
  303SOL     MW 1212   0.257   1.790   2.708  0.1528  0.3724 -0.1889
  304SOL     OW 1213   0.524   2.068   2.462 -0.0670  0.4754  0.4618
  304SOL    HW1 1214   0.571   2.148   2.429  2.0840  0.3767 -4.6967
  304SOL    HW2 1215   0.599   2.010   2.473  0.1204  1.1434 -3.4048
  304SOL     MW 1216   0.540   2.071   2.459  0.2415  0.5505 -0.7289
  305SOL     OW 1217   1.159   0.640   0.556 -0.5079  0.2870  0.1343
  305SOL    HW1 1218   1.071   0.644   0.527  1.1844 -0.1005  2.5572
  305SOL    HW2 1219   1.173   0.552   0.581  2.1844  2.7494 -0.8557
  305SOL     MW 1220   1.149   0.629   0.556  0.0706  0.5608  0.3234
  306SOL     OW 1221   1.117   1.561   0.298  0.3530  0.1325 -0.1521
  306SOL    HW1 1222   1.124   1.477   0.340 -2.4825 -0.1188 -2.0389
  306SOL    HW2 1223   1.182   1.558   0.226  1.1021  1.7159 -1.1865
  306SOL     MW 1224   1.127   1.550   0.294  0.0777  0.3083 -0.5375
  307SOL     OW 1225   1.460   0.508   1.904  0.0039  0.1454 -0.7390
  307SOL    HW1 1226   1.399   0.437   1.927  0.0970 -0.3996 -1.1638
  307SOL    HW2 1227   1.457   0.570   1.978  1.4021  0.5066 -0.1895
  307SOL     MW 1228   1.451   0.507   1.916  0.2007  0.1211 -0.7225
  308SOL     OW 1229   2.253   0.573   2.759 -0.0641  0.4661  0.5043
  308SOL    HW1 1230   2.346   0.580   2.792 -0.4839 -0.6671  1.5270
  308SOL    HW2 1231   2.216   0.657   2.725  1.7698 -0.6442 -4.4545
  308SOL     MW 1232   2.261   0.585   2.759  0.1224  0.1701 -0.0150
  309SOL     OW 1233   0.500   0.543   0.269  0.1215 -0.1662  0.4931
  309SOL    HW1 1234   0.571   0.609   0.261 -1.9164  1.6342  0.3718
  309SOL    HW2 1235   0.526   0.451   0.246 -3.0959 -1.6516 -0.5439
  309SOL     MW 1236   0.513   0.540   0.265 -0.5719 -0.1247  0.3403
  310SOL     OW 1237   0.377   0.538   1.842 -0.7549 -0.1075 -0.5143
  310SOL    HW1 1238   0.456   0.494   1.809 -0.1808 -0.9695  0.1220
  310SOL    HW2 1239   0.415   0.629   1.850  1.7670  1.6651  0.4077
  310SOL     MW 1240   0.393   0.544   1.839 -0.3464  0.0127 -0.3087
  311SOL     OW 1241   1.996   0.652   1.936  0.6355  0.2506 -0.0290
  311SOL    HW1 1242   1.970   0.692   2.016  1.3851  1.7286 -0.3832
  311SOL    HW2 1243   2.047   0.569   1.962 -1.7063 -0.0379 -0.1815
  311SOL     MW 1244   1.999   0.646   1.950  0.4254  0.4075 -0.0959
  312SOL     OW 1245   1.719   2.478   0.153  0.2926  0.3629  0.1315
  312SOL    HW1 1246   1.750   2.459   0.243  1.6080 -0.4827  1.7395
  312SOL    HW2 1247   1.645   2.533   0.168 -1.0081  0.5026 -2.3512
  312SOL     MW 1248   1.713   2.483   0.167  0.2946  0.2698  0.0161
  313SOL     OW 1249   0.159   1.167   3.017 -0.0900  0.2981 -0.0424
  313SOL    HW1 1250   0.147   1.226   3.091  1.1396  0.0760 -1.0049
  313SOL    HW2 1251   0.162   1.238   2.944 -2.4491  0.5189 -1.1637
  313SOL     MW 1252   0.158   1.184   3.017 -0.2390  0.2979 -0.3174
  314SOL     OW 1253   2.178   2.892   0.008  0.1126 -0.2581 -0.2909
  314SOL    HW1 1254   2.110   2.904  -0.070 -0.2928  1.1102 -1.3118
  314SOL    HW2 1255   2.225   2.967   0.014  2.0172 -0.0505  0.1250
  314SOL     MW 1256   2.175   2.903  -0.001  0.3104 -0.0502 -0.3708
  315SOL     OW 1257   1.543   1.851   3.011  0.1957  0.1392  0.1213
  315SOL    HW1 1258   1.480   1.908   3.057 -3.5038  1.5730 -3.1898
  315SOL    HW2 1259   1.576   1.910   2.937 -0.9332  0.9750  0.0396
  315SOL     MW 1260   1.539   1.866   3.008 -0.4413  0.4386 -0.3264
  316SOL     OW 1261   1.211   0.693   2.688  0.1448  0.7917  0.3181
  316SOL    HW1 1262   1.303   0.724   2.699 -0.0018 -0.2404 -0.8190
  316SOL    HW2 1263   1.181   0.694   2.778 -0.9241  0.0737 -3.0447
  316SOL     MW 1264   1.219   0.697   2.701 -0.0156  0.5608 -0.2756
  317SOL     OW 1265   0.715   1.599   2.617  0.0705  1.1386 -0.7685
  317SOL    HW1 1266   0.769   1.521   2.639  0.0838 -1.9634  3.5393
  317SOL    HW2 1267   0.723   1.606   2.525 -0.2742  1.5215  2.4055
  317SOL     MW 1268   0.723   1.590   2.608  0.0268  0.7798  0.2186
  318SOL     OW 1269   1.365   0.396   2.884 -0.0483  0.4666  0.1041
  318SOL    HW1 1270   1.285   0.445   2.889 -2.1219 -1.1949 -0.3170
  318SOL    HW2 1271   1.432   0.459   2.868 -1.3293  1.5992  0.3192
  318SOL     MW 1272   1.363   0.411   2.882 -0.4909  0.3968  0.0770
  319SOL     OW 1273   0.797   0.511   2.844  0.4175  0.1179  0.4617
  319SOL    HW1 1274   0.788   0.422   2.800  0.7221 -2.6397  2.4513
  319SOL    HW2 1275   0.788   0.494   2.933  1.5225 -0.0475 -0.4035
  319SOL     MW 1276   0.794   0.497   2.850  0.6035 -0.2678  0.6100
  320SOL     OW 1277   1.019   1.335   1.981 -0.3453 -0.0691 -0.3695
  320SOL    HW1 1278   1.078   1.259   2.007  1.2778 -1.1706  0.4867
  320SOL    HW2 1279   1.079   1.402   1.943  0.9176 -0.2093  0.8453
  320SOL     MW 1280   1.035   1.334   1.979  0.0355 -0.2329 -0.0962
  321SOL     OW 1281   1.036   0.897   3.045  0.2127  0.1855 -0.0669
  321SOL    HW1 1282   0.975   0.865   2.974 -2.1662 -2.8505  1.6033
  321SOL    HW2 1283   1.123   0.855   3.042 -1.2255  0.9091  0.5136
  321SOL     MW 1284   1.039   0.887   3.035 -0.2909 -0.1196  0.2301
  322SOL     OW 1285   1.293   0.863   1.650  0.9664  0.0533 -0.1548
  322SOL    HW1 1286   1.352   0.797   1.688  0.7064 -2.2310  0.0462
  322SOL    HW2 1287   1.231   0.884   1.721  0.5833  0.7279 -1.6253
  322SOL     MW 1288   1.293   0.857   1.665  0.8816 -0.1591 -0.3223
  323SOL     OW 1289   1.193   1.524   1.892 -0.1346  0.0936 -0.2876
  323SOL    HW1 1290   1.238   1.514   1.809  0.3906  0.2901 -0.2492
  323SOL    HW2 1291   1.242   1.590   1.936  0.1650  0.0188 -1.3740
  323SOL     MW 1292   1.205   1.532   1.887 -0.0258  0.1097 -0.4259
  324SOL     OW 1293   1.442   0.937   2.518  0.4529 -0.3079 -0.2233
  324SOL    HW1 1294   1.398   0.964   2.594 -4.5564  0.6312  0.0213
  324SOL    HW2 1295   1.522   0.983   2.505 -1.4971 -1.0500  2.9188
  324SOL     MW 1296   1.447   0.946   2.526 -0.4653 -0.2819  0.2236
  325SOL     OW 1297   1.079   0.529   2.913  0.3866 -0.3021 -0.1299
  325SOL    HW1 1298   1.077   0.572   3.002 -0.1813  2.1160  1.0730
  325SOL    HW2 1299   0.988   0.544   2.877  1.6863  1.2967 -1.2620
  325SOL     MW 1300   1.067   0.537   2.920  0.4831  0.2279 -0.1205
  326SOL     OW 1301   0.408   1.391   2.328  0.2316 -0.3491  0.1550
  326SOL    HW1 1302   0.473   1.374   2.258  0.2657 -0.4530 -1.0492
  326SOL    HW2 1303   0.394   1.490   2.332 -0.8026  2.9029  2.3602
  326SOL     MW 1304   0.414   1.402   2.319  0.0997  0.0662  0.2871
  327SOL     OW 1305   1.978   0.769   2.441 -0.3678 -0.0133 -0.2209
  327SOL    HW1 1306   1.929   0.736   2.516  1.0200 -3.7894 -0.4438
  327SOL    HW2 1307   2.006   0.859   2.462 -0.2049  0.7633  3.3503
  327SOL     MW 1308   1.975   0.776   2.454 -0.1632 -0.4090  0.2209
  328SOL     OW 1309   0.230   1.338   2.122  0.5466  0.1027  0.2631
  328SOL    HW1 1310   0.152   1.277   2.109  1.0617  1.9550 -2.8996
  328SOL    HW2 1311   0.283   1.329   2.201  2.4600  0.8774  1.8186
  328SOL     MW 1312   0.227   1.329   2.131  0.8670  0.4493  0.0510
  329SOL     OW 1313   0.067   0.098   1.362  0.3495  0.1233 -0.0273
  329SOL    HW1 1314   0.049   0.114   1.463  0.3840  3.8308 -0.2286
  329SOL    HW2 1315   0.142   0.153   1.338  0.3420 -1.0576  0.8633
  329SOL     MW 1316   0.074   0.108   1.372  0.3530  0.4567  0.0637
  330SOL     OW 1317   0.369   0.049   1.998 -0.5812 -0.0675 -0.2083
  330SOL    HW1 1318   0.427   0.070   2.072  0.8547  1.2640 -1.4008
  330SOL    HW2 1319   0.334  -0.036   2.023  2.4627  0.5800  3.5786
  330SOL     MW 1320   0.372   0.041   2.011  0.0099  0.1936  0.1340
  331SOL     OW 1321   0.778   1.231   2.370  0.1480 -0.5101  0.1375
  331SOL    HW1 1322   0.706   1.253   2.307 -3.7875  1.7932 -1.3002
  331SOL    HW2 1323   0.801   1.296   2.433 -1.5299 -2.4364  0.6361
  331SOL     MW 1324   0.771   1.242   2.370 -0.5926 -0.4604  0.0136
  332SOL     OW 1325   1.341   1.650   2.916 -0.2525  0.1626 -0.1346
  332SOL    HW1 1326   1.358   1.662   2.817 -0.7596 -1.1894 -0.6705
  332SOL    HW2 1327   1.421   1.675   2.958  1.4050 -1.2621 -2.4671
  332SOL     MW 1328   1.354   1.655   2.908 -0.1007 -0.2038 -0.5131
  333SOL     OW 1329   1.698   1.376   2.935  0.0135  0.3119  0.2858
  333SOL    HW1 1330   1.783   1.396   2.896  0.1527 -2.3531 -2.9520
  333SOL    HW2 1331   1.710   1.305   3.001  0.8790  2.0869 -1.1997
  333SOL     MW 1332   1.710   1.369   2.938  0.1461  0.1945 -0.3374
  334SOL     OW 1333   1.346   3.081   2.610 -0.2194 -0.4342  0.6267
  334SOL    HW1 1334   1.261   3.085   2.656  2.0706 -2.5310  0.1924
  334SOL    HW2 1335   1.408   3.108   2.674  0.3093 -0.9880 -0.9880
  334SOL     MW 1336   1.343   3.085   2.624  0.1525 -0.7839  0.3564
  335SOL     OW 1337   1.282   0.741   2.999  0.2529  0.3484 -0.4156
  335SOL    HW1 1338   1.313   0.670   3.062 -2.8425  4.8240  0.5259
  335SOL    HW2 1339   1.347   0.765   2.937  1.1505  0.1778  3.1196
  335SOL     MW 1340   1.294   0.735   2.999 -0.0371  0.9164  0.1751
  336SOL     OW 1341   0.912   1.159   1.722  0.1301 -0.0495 -0.1367
  336SOL    HW1 1342   0.851   1.214   1.781 -0.9175  2.0716  0.6553
  336SOL    HW2 1343   0.961   1.098   1.778  0.4769 -4.2174  0.4027
  336SOL     MW 1344   0.911   1.159   1.737  0.0376 -0.3196  0.0390
  337SOL     OW 1345   0.479   1.950   2.789 -0.5075 -0.6541  0.1033
  337SOL    HW1 1346   0.431   1.917   2.713 -1.0986 -0.4581 -0.9401
  337SOL    HW2 1347   0.573   1.938   2.770 -1.8071  1.7840  0.6553
  337SOL     MW 1348   0.485   1.944   2.776 -0.7570 -0.3066  0.0385
  338SOL     OW 1349   1.072   0.756   2.451  0.7416 -0.3889 -0.1915
  338SOL    HW1 1350   0.989   0.698   2.450 -0.1491  0.9690 -0.1492
  338SOL    HW2 1351   1.111   0.733   2.535  1.8326 -1.7736  0.6494
  338SOL     MW 1352   1.066   0.745   2.462  0.7680 -0.3924 -0.0750
  339SOL     OW 1353   1.390   1.276   1.924 -0.7086  0.0018  0.1285
  339SOL    HW1 1354   1.356   1.266   1.836  0.0561  0.3948  1.0997
  339SOL    HW2 1355   1.355   1.207   1.984 -3.9573 -0.1299 -1.5515
  339SOL     MW 1356   1.381   1.265   1.921 -1.0363  0.0363  0.0349
  340SOL     OW 1357   1.304   1.504   0.079  0.0920  0.7407  0.2150
  340SOL    HW1 1358   1.312   1.548  -0.002  1.7894 -1.9307  1.6749
  340SOL    HW2 1359   1.388   1.455   0.094  2.8213 -0.3214  1.0080
  340SOL     MW 1360   1.316   1.503   0.070  0.6761  0.2481  0.5122
  341SOL     OW 1361   0.150   1.358   2.838  0.2720 -0.2695  0.4667
  341SOL    HW1 1362   0.239   1.371   2.877 -0.7921 -0.2698 -1.2970
  341SOL    HW2 1363   0.182   1.358   2.746  0.4140  0.2985  2.0498
  341SOL     MW 1364   0.166   1.360   2.831  0.1503 -0.1946  0.4429
  342SOL     OW 1365   1.401   0.326   0.049 -0.3424  0.1306 -0.4668
  342SOL    HW1 1366   1.389   0.411   0.088 -2.6538  2.6678 -0.6765
  342SOL    HW2 1367   1.424   0.342  -0.043  1.7179 -3.2199 -2.2014
  342SOL     MW 1368   1.402   0.339   0.042 -0.3755  0.0233 -0.7233
  343SOL     OW 1369   0.217   0.239   2.164 -0.2355  0.5072  0.1966
  343SOL    HW1 1370   0.229   0.166   2.102 -0.4073 -2.5816  0.4302
  343SOL    HW2 1371   0.126   0.258   2.161  0.9809  1.9198  0.9574
  343SOL     MW 1372   0.207   0.232   2.156 -0.0976  0.2861  0.3278
  344SOL     OW 1373   1.713   2.008   0.176 -0.3933  0.6078 -0.1839
  344SOL    HW1 1374   1.736   2.080   0.122  2.5802 -1.1384  2.3179
  344SOL    HW2 1375   1.658   1.951   0.121  2.9913  4.3966  2.2840
  344SOL     MW 1376   1.709   2.010   0.162  0.4456  0.8773  0.4718
  345SOL     OW 1377   0.657   1.621   2.334 -0.0120 -0.0222 -0.6302
  345SOL    HW1 1378   0.580   1.623   2.276 -2.1276 -0.8291  0.6143
  345SOL    HW2 1379   0.724   1.581   2.280 -4.2925 -2.6218 -0.0727
  345SOL     MW 1380   0.656   1.616   2.319 -0.8559 -0.4717 -0.3925
  346SOL     OW 1381   1.670   1.151   0.039  0.3192 -0.1853 -0.0386
  346SOL    HW1 1382   1.770   1.162   0.041  1.5557  4.9524 -1.9296
  346SOL    HW2 1383   1.643   1.073   0.089 -1.7449  0.7397 -0.3534
  346SOL     MW 1384   1.680   1.142   0.046  0.2100  0.6146 -0.3296
  347SOL     OW 1385   1.176   0.622   2.217 -0.0520  0.5818  0.2941
  347SOL    HW1 1386   1.217   0.538   2.250  0.2691 -0.9724  1.1947
  347SOL    HW2 1387   1.141   0.676   2.287  0.5685  1.0021 -0.6502
  347SOL     MW 1388   1.177   0.618   2.230  0.0722  0.4322  0.2883
  348SOL     OW 1389   1.316   2.563   1.937 -0.4198  0.4899  0.6915
  348SOL    HW1 1390   1.304   2.488   2.007 -0.3866  0.6770 -0.5485
  348SOL    HW2 1391   1.358   2.629   1.985 -0.3405  0.5619  2.1707
  348SOL     MW 1392   1.320   2.562   1.952 -0.4050  0.5241  0.7231
  349SOL     OW 1393   1.477   0.169   2.782 -0.0182  0.2174 -0.0033
  349SOL    HW1 1394   1.433   0.246   2.824 -0.0019  1.6457 -0.2522
  349SOL    HW2 1395   1.491   0.092   2.833 -0.2764 -0.5401 -3.9482
  349SOL     MW 1396   1.473   0.169   2.794 -0.0501  0.3059 -0.5566
  350SOL     OW 1397   1.854   0.628   2.659  0.6239 -0.1938  0.2303
  350SOL    HW1 1398   1.794   0.578   2.604 -1.3522  1.2640  3.4562
  350SOL    HW2 1399   1.899   0.565   2.726 -1.5607  0.5907 -0.6102
  350SOL     MW 1400   1.852   0.613   2.661  0.0749  0.1021  0.5450
  351SOL     OW 1401   0.075   1.185   1.553 -0.2358  0.2531 -0.7608
  351SOL    HW1 1402   0.078   1.096   1.586  0.9753  1.3779  2.4152
  351SOL    HW2 1403   0.131   1.230   1.618 -0.6352 -1.1647  1.7911
  351SOL     MW 1404   0.083   1.180   1.566 -0.1287  0.2144 -0.0051
  352SOL     OW 1405   0.735   1.847   2.781  0.0271 -0.2016  0.0941
  352SOL    HW1 1406   0.783   1.816   2.855  1.0901 -0.7745 -0.4374
  352SOL    HW2 1407   0.718   1.765   2.728  1.5665 -1.1162 -3.5667
  352SOL     MW 1408   0.739   1.832   2.783  0.3705 -0.3978 -0.4590
  353SOL     OW 1409   3.086   2.595   2.622 -0.1958 -0.0810 -0.1453
  353SOL    HW1 1410   3.171   2.555   2.630 -1.3542 -2.5453  0.0046
  353SOL    HW2 1411   3.096   2.669   2.561  1.0271 -1.6855 -0.9548
  353SOL     MW 1412   3.099   2.599   2.615 -0.1873 -0.6178 -0.2323
  354SOL     OW 1413   0.372   2.416   0.841  0.2039  0.0018  0.1244
  354SOL    HW1 1414   0.422   2.387   0.919 -0.9160 -1.0635  1.8467
  354SOL    HW2 1415   0.289   2.359   0.851  2.3134  1.8180 -0.7388
  354SOL     MW 1416   0.368   2.405   0.852  0.3344  0.1008  0.2378
  355SOL     OW 1417   0.095   2.225   0.399  0.5326 -0.1665 -0.3804
  355SOL    HW1 1418   0.005   2.183   0.395  2.4977  0.9103 -0.6392
  355SOL    HW2 1419   0.081   2.265   0.488  0.3094 -1.7991 -1.9387
  355SOL     MW 1420   0.081   2.225   0.410  0.7624 -0.2398 -0.6202
  356SOL     OW 1421   0.760   2.940   1.058  0.3189  0.0137  0.2201
  356SOL    HW1 1422   0.824   2.945   0.985 -0.1950 -0.4409  1.1108
  356SOL    HW2 1423   0.682   2.915   1.006 -1.1056 -2.8873 -0.1987
  356SOL     MW 1424   0.758   2.937   1.041  0.0632 -0.4290  0.2824
  357SOL     OW 1425   1.849   2.789   0.445 -0.1516  0.0554  0.1403
  357SOL    HW1 1426   1.830   2.783   0.538 -2.6497 -1.7873 -0.1442
  357SOL    HW2 1427   1.933   2.732   0.435 -1.0000 -0.8419  3.4784
  357SOL     MW 1428   1.858   2.780   0.456 -0.5931 -0.3061  0.5432
  358SOL     OW 1429   0.420   0.146   1.057 -0.1516 -0.0226  0.2870
  358SOL    HW1 1430   0.514   0.160   1.044  1.5530  1.4614  1.3387
  358SOL    HW2 1431   0.373   0.189   0.984  0.2193  0.9257  0.6602
  358SOL     MW 1432   0.426   0.154   1.046  0.1222  0.2983  0.4750
  359SOL     OW 1433   0.868   2.983   1.857 -0.6161  0.1877  0.3816
  359SOL    HW1 1434   0.880   2.883   1.862 -0.8453 -1.9955  2.3017
  359SOL    HW2 1435   0.911   3.019   1.783  0.3017  0.8849 -1.1539
  359SOL     MW 1436   0.876   2.975   1.848 -0.5252 -0.0084  0.4324
  360SOL     OW 1437   0.589   2.784   0.925 -0.1006 -0.6344  0.7893
  360SOL    HW1 1438   0.611   2.751   0.839 -0.4602  1.5279  0.6925
  360SOL    HW2 1439   0.595   2.710   0.991  0.2251 -2.1992 -1.3332
  360SOL     MW 1440   0.593   2.770   0.922 -0.1051 -0.5555  0.4965
  361SOL     OW 1441   0.197   2.681   1.390 -0.4172 -0.3046  0.4533
  361SOL    HW1 1442   0.124   2.730   1.430 -2.0858  1.8901  1.2825
  361SOL    HW2 1443   0.256   2.751   1.358 -3.9359 -0.3884  0.2644
  361SOL     MW 1444   0.195   2.697   1.391 -1.1016 -0.0261  0.5378
  362SOL     OW 1445   1.372   2.414   0.619 -0.2798  0.2281  0.0320
  362SOL    HW1 1446   1.433   2.366   0.679  1.5423 -2.8563 -1.2156
  362SOL    HW2 1447   1.430   2.478   0.578  1.2297  2.8714  1.3752
  362SOL     MW 1448   1.388   2.416   0.622  0.1598  0.1699  0.0446
  363SOL     OW 1449   0.305   0.018   0.699  0.3131 -0.1693 -0.1742
  363SOL    HW1 1450   0.322  -0.069   0.741  0.8856 -1.1285  1.0281
  363SOL    HW2 1451   0.220   0.014   0.658  0.0734  0.8624 -1.2021
  363SOL     MW 1452   0.296   0.006   0.699  0.3570 -0.1598 -0.1512
  364SOL     OW 1453   0.805   0.190   0.137 -0.1904 -0.0005  0.7350
  364SOL    HW1 1454   0.747   0.129   0.180  1.8007 -1.4511 -3.8734
  364SOL    HW2 1455   0.749   0.249   0.082 -0.0232  1.2224 -2.9746
  364SOL     MW 1456   0.790   0.190   0.135  0.0944 -0.0305 -0.3625
  365SOL     OW 1457   0.884   2.026   1.280  0.0363  0.0836  0.8277
  365SOL    HW1 1458   0.837   2.103   1.244 -0.5940  0.5600 -1.1905
  365SOL    HW2 1459   0.871   1.960   1.218  1.5206 -1.3343  2.7236
  365SOL     MW 1460   0.876   2.027   1.267  0.1490 -0.0406  0.8116
  366SOL     OW 1461   2.910   2.662   0.941 -0.3363 -0.0665  0.6709
  366SOL    HW1 1462   2.966   2.636   1.008 -2.7927  2.6116  2.6602
  366SOL    HW2 1463   2.970   2.689   0.864 -1.0391  0.2822 -1.3390
  366SOL     MW 1464   2.926   2.662   0.940 -0.7531  0.3329  0.6682
  367SOL     OW 1465   1.258   3.001   1.007  0.3791  0.0028  0.0630
  367SOL    HW1 1466   1.345   3.045   1.031  2.7630  1.4492 -0.6379
  367SOL    HW2 1467   1.256   2.997   0.910  3.5405 -0.1985  2.0019
  367SOL     MW 1468   1.269   3.006   0.998  1.1108  0.1671  0.2263
  368SOL     OW 1469   1.696   0.447   0.611 -0.3214 -0.2764 -0.4229
  368SOL    HW1 1470   1.754   0.377   0.583 -0.1690 -1.3467  1.7648
  368SOL    HW2 1471   1.726   0.529   0.567  0.2534 -1.6462 -1.0135
  368SOL     MW 1472   1.708   0.448   0.602 -0.2255 -0.5984 -0.2121
  369SOL     OW 1473   0.137   2.374   1.744  0.1808  0.5158  0.4001
  369SOL    HW1 1474   0.227   2.370   1.762  1.1023 -0.7901  0.3358
  369SOL    HW2 1475   0.122   2.469   1.741  1.2495  0.8104 -0.4308
  369SOL     MW 1476   0.147   2.386   1.746  0.4434  0.3824  0.2820
  370SOL     OW 1477   0.704   0.122   1.050  0.8403  0.2186  0.1872
  370SOL    HW1 1478   0.715   0.151   0.959 -3.7992 -0.4297  0.7879
  370SOL    HW2 1479   0.698   0.021   1.059 -0.7333 -0.5976  0.6221
  370SOL     MW 1480   0.704   0.113   1.039  0.0205  0.0254  0.3239
  371SOL     OW 1481   1.134   2.908   1.475 -0.4958 -0.1594  0.3309
  371SOL    HW1 1482   1.142   2.817   1.440 -0.3799  0.2985 -2.7410
  371SOL    HW2 1483   1.114   2.956   1.396 -0.7272  2.7747  1.1261
  371SOL     MW 1484   1.132   2.902   1.460 -0.5111  0.2881  0.0306
  372SOL     OW 1485   0.804   2.329   0.457 -0.2023 -0.4171  0.1697
  372SOL    HW1 1486   0.770   2.248   0.500 -3.1110  0.1406 -2.5137
  372SOL    HW2 1487   0.835   2.295   0.371  0.8785 -1.3976  1.2763
  372SOL     MW 1488   0.804   2.314   0.451 -0.4434 -0.4729 -0.0383
  373SOL     OW 1489   2.847   3.002   1.426 -0.5799 -0.1600 -0.1516
  373SOL    HW1 1490   2.912   2.961   1.366  1.2125 -0.8222  1.6245
  373SOL    HW2 1491   2.815   3.071   1.379 -1.5605 -1.5529  0.1479
  373SOL     MW 1492   2.851   3.006   1.412 -0.4728 -0.4312  0.1223
  374SOL     OW 1493   1.601   0.489   0.268 -0.2006 -0.1272 -0.1971
  374SOL    HW1 1494   1.674   0.434   0.246  2.2654  0.8814 -1.8976
  374SOL    HW2 1495   1.552   0.440   0.329  1.0573 -0.4149 -0.0802
  374SOL     MW 1496   1.605   0.476   0.273  0.2907 -0.0321 -0.4061
  375SOL     OW 1497   1.078   2.077   2.244  0.6150 -0.2304 -0.7137
  375SOL    HW1 1498   1.083   2.030   2.326  0.4179 -1.2628  0.3616
  375SOL    HW2 1499   1.031   2.017   2.190  1.3658 -0.6005 -0.0898
  375SOL     MW 1500   1.072   2.063   2.248  0.6881 -0.4154 -0.4895
  376SOL     OW 1501   0.812   2.531   0.121  0.2642  0.3160  0.5025
  376SOL    HW1 1502   0.748   2.472   0.166 -2.8056 -1.5670 -0.2095
  376SOL    HW2 1503   0.835   2.476   0.040 -1.6608 -0.3858 -1.9396
  376SOL     MW 1504   0.807   2.516   0.116 -0.3948 -0.0251  0.0863
  377SOL     OW 1505   1.363   2.077   0.917 -0.3508  0.6590  0.0288
  377SOL    HW1 1506   1.276   2.053   0.885 -1.9025  0.2193  1.1846
  377SOL    HW2 1507   1.373   2.016   0.986 -0.4998 -3.4344 -0.2783
  377SOL     MW 1508   1.353   2.066   0.921 -0.5752  0.0609  0.1408
  378SOL     OW 1509   0.886   2.863   1.572  0.0406  0.4515  1.0260
  378SOL    HW1 1510   0.886   2.766   1.565 -0.9190 -4.3256 -1.7995
  378SOL    HW2 1511   0.957   2.902   1.515  2.6408 -1.6431 -2.6027
  378SOL     MW 1512   0.895   2.855   1.563  0.2571 -0.4551  0.1744
  379SOL     OW 1513   1.074   1.571   2.287 -0.1823 -0.3692  0.3718
  379SOL    HW1 1514   0.986   1.536   2.262 -1.4164 -0.4938  0.2859
  379SOL    HW2 1515   1.143   1.535   2.234 -1.6254 -0.7557 -1.9120
  379SOL     MW 1516   1.072   1.562   2.277 -0.5355 -0.4366  0.0591
  380SOL     OW 1517   0.871   0.130   1.472  0.5543  0.1861  0.5009
  380SOL    HW1 1518   0.906   0.063   1.412 -0.5614  2.3725  0.0722
  380SOL    HW2 1519   0.918   0.116   1.558 -1.5568 -0.9147 -0.0670
  380SOL     MW 1520   0.882   0.120   1.476  0.1285  0.3293  0.3694
  381SOL     OW 1521   0.841   2.058   0.862 -0.0779 -0.1496  0.7133
  381SOL    HW1 1522   0.938   2.060   0.863  1.9430  0.1752  0.6013
  381SOL    HW2 1523   0.813   2.111   0.938  0.3689 -0.0272 -1.8538
  381SOL     MW 1524   0.850   2.066   0.872  0.2477 -0.0906  0.3598
  382SOL     OW 1525   0.851   0.146   0.576  0.1746 -0.7983  0.6032
  382SOL    HW1 1526   0.819   0.198   0.654  0.5842  1.5431  1.9078
  382SOL    HW2 1527   0.812   0.061   0.586  0.5285  1.6032 -0.7515
  382SOL     MW 1528   0.841   0.142   0.588  0.2753 -0.1725  0.5966
  383SOL     OW 1529   0.645   0.019   0.309 -0.3417  0.2253 -0.0584
  383SOL    HW1 1530   0.668  -0.057   0.252  1.2035  1.0795  1.6339
  383SOL    HW2 1531   0.596  -0.012   0.384  2.1009  1.8514 -1.3291
  383SOL     MW 1532   0.641   0.005   0.311  0.1844  0.5525 -0.0028
  384SOL     OW 1533   0.764   2.974   0.617  0.4529 -0.5139 -0.2043
  384SOL    HW1 1534   0.808   2.947   0.699 -2.5576  2.5481 -1.7150
  384SOL    HW2 1535   0.700   2.899   0.606 -0.6562  2.3037 -1.8570
  384SOL     MW 1536   0.762   2.960   0.626 -0.0906  0.2618 -0.6217
  385SOL     OW 1537   1.347   2.067   1.520  0.1217 -0.2043 -0.2590
  385SOL    HW1 1538   1.418   2.099   1.577 -0.3502  0.1708  2.5258
  385SOL    HW2 1539   1.322   1.986   1.567  3.2230 -0.2211  1.4562
  385SOL     MW 1540   1.353   2.061   1.534  0.4687 -0.1570  0.3347
  386SOL     OW 1541   1.471   0.437   0.874 -0.0780 -0.6600 -0.6893
  386SOL    HW1 1542   1.423   0.479   0.945  0.2945 -1.6905 -0.2331
  386SOL    HW2 1543   1.558   0.472   0.894 -2.1216  0.9273  0.5785
  386SOL     MW 1544   1.476   0.447   0.886 -0.2985 -0.5865 -0.4619
  387SOL     OW 1545   0.786   2.221   1.583 -0.2632  0.0627 -0.5247
  387SOL    HW1 1546   0.870   2.236   1.546  0.0577  0.8367 -1.0619
  387SOL    HW2 1547   0.777   2.122   1.573  2.0364  2.5046  0.6500
  387SOL     MW 1548   0.796   2.210   1.577  0.0825  0.4870 -0.4406
  388SOL     OW 1549   1.461   2.783   1.432 -0.3392  1.0982  0.8026
  388SOL    HW1 1550   1.426   2.860   1.385  0.1593 -1.6144  0.2393
  388SOL    HW2 1551   1.446   2.708   1.373  0.5177  2.7584  0.1718
  388SOL     MW 1552   1.454   2.783   1.418 -0.1604  0.9594  0.6451
  389SOL     OW 1553   0.477   0.139   3.058 -0.1415 -0.1283  0.4046
  389SOL    HW1 1554   0.540   0.069   3.053 -1.9047 -0.5467 -3.2087
  389SOL    HW2 1555   0.489   0.176   2.964 -1.4117  0.2374 -0.8878
  389SOL     MW 1556   0.487   0.135   3.045 -0.5417 -0.1352 -0.2427
  390SOL     OW 1557   1.365   0.025   0.734 -0.0541 -0.1588 -0.6551
  390SOL    HW1 1558   1.401   0.036   0.648  0.3357  0.4096  2.4020
  390SOL    HW2 1559   1.452   0.039   0.784  1.7529  0.9543 -1.3119
  390SOL     MW 1560   1.382   0.029   0.729  0.2357  0.0631 -0.3384
  391SOL     OW 1561   0.318   2.177   1.516 -0.1584 -0.5989  0.1628
  391SOL    HW1 1562   0.304   2.192   1.607  0.0441  0.5846  1.5676
  391SOL    HW2 1563   0.284   2.262   1.480 -0.1722 -0.1252  0.2378
  391SOL     MW 1564   0.312   2.190   1.523 -0.1335 -0.3803  0.3581
  392SOL     OW 1565   1.940   2.173   0.309 -0.2218 -0.6419  0.0713
  392SOL    HW1 1566   1.994   2.245   0.336 -1.0894 -0.7422  0.1962
  392SOL    HW2 1567   1.849   2.207   0.306 -0.3982 -0.7305  0.8985
  392SOL     MW 1568   1.935   2.187   0.312 -0.3596 -0.6668  0.1969
  393SOL     OW 1569   0.244   2.952   2.845 -0.0430  0.0612 -0.7450
  393SOL    HW1 1570   0.321   2.925   2.790  2.9754  0.9100 -0.0176
  393SOL    HW2 1571   0.246   3.046   2.855  0.9634  0.2798 -0.3622
  393SOL     MW 1572   0.254   2.961   2.839  0.4881  0.2021 -0.5985
  394SOL     OW 1573   1.026   1.792   1.537 -0.6183  0.0297  0.7141
  394SOL    HW1 1574   1.063   1.803   1.627 -0.2288 -0.2749 -0.8994
  394SOL    HW2 1575   0.952   1.857   1.531  0.0247  0.5956  0.1320
  394SOL     MW 1576   1.021   1.802   1.548 -0.4821  0.0642  0.4244
  395SOL     OW 1577   0.954   2.930   2.701  0.1803  0.1559  0.0037
  395SOL    HW1 1578   1.023   2.970   2.769  1.4114  0.4794 -0.0678
  395SOL    HW2 1579   1.004   2.857   2.656 -0.0792 -1.2385 -2.8623
  395SOL     MW 1580   0.970   2.925   2.704  0.3085  0.0146 -0.3839
  396SOL     OW 1581   0.748   1.906   2.364 -0.6545 -0.6299 -0.0893
  396SOL    HW1 1582   0.815   1.886   2.430  1.0417 -1.1180 -0.3145
  396SOL    HW2 1583   0.700   1.829   2.332 -2.4106  0.3128 -2.9116
  396SOL     MW 1584   0.751   1.893   2.368 -0.6624 -0.5699 -0.4914
  397SOL     OW 1585   1.004   2.302   1.383  0.2483 -0.4996 -0.5172
  397SOL    HW1 1586   1.043   2.313   1.298 -0.3135  0.5331 -0.3536
  397SOL    HW2 1587   1.067   2.315   1.450 -1.6417 -0.2503  2.3873
  397SOL     MW 1588   1.017   2.305   1.380 -0.0752 -0.3304 -0.1124
  398SOL     OW 1589   0.634   2.736   0.657  0.3322  0.1828 -0.3170
  398SOL    HW1 1590   0.571   2.698   0.598 -0.2834 -1.9750 -0.4860
  398SOL    HW2 1591   0.696   2.660   0.669 -0.5467 -1.4116 -1.5328
  398SOL     MW 1592   0.634   2.721   0.651  0.1350 -0.3123 -0.4997
  399SOL     OW 1593   0.344   2.079   0.366 -0.5677 -0.6259 -0.1315
  399SOL    HW1 1594   0.271   2.139   0.382 -2.2376 -1.1061 -1.8472
  399SOL    HW2 1595   0.401   2.119   0.293  0.7758  0.7270 -1.5721
  399SOL     MW 1596   0.342   2.092   0.359 -0.6108 -0.5107 -0.5480
  400SOL     OW 1597   0.588   1.934   0.082  0.1451 -0.0536  0.2516
  400SOL    HW1 1598   0.558   2.028   0.115 -1.4753  2.8452 -0.5651
  400SOL    HW2 1599   0.590   1.875   0.157 -1.5468 -1.1604  1.1249
  400SOL     MW 1600   0.585   1.939   0.096 -0.2919  0.1829  0.2591
  401SOL     OW 1601   0.862   2.048   0.007  0.5247 -0.8378 -0.1630
  401SOL    HW1 1602   0.940   2.000   0.041 -0.5293  0.2452  0.6368
  401SOL    HW2 1603   0.786   2.010   0.059 -0.6392  0.9955 -0.3734
  401SOL     MW 1604   0.862   2.037   0.018  0.2321 -0.4530 -0.0853
  402SOL     OW 1605   0.602   3.016   1.782  0.9969 -0.1600  0.8382
  402SOL    HW1 1606   0.684   2.991   1.823  2.8539 -1.9823 -0.9652
  402SOL    HW2 1607   0.615   3.094   1.731 -0.2641 -0.3794  4.3019
  402SOL     MW 1608   0.614   3.023   1.781  1.0756 -0.4294  1.0572
  403SOL     OW 1609   0.157   0.506   0.385 -0.2409 -0.5276 -0.0479
  403SOL    HW1 1610   0.237   0.507   0.441  0.4488 -1.0185  1.2329
  403SOL    HW2 1611   0.168   0.449   0.312  1.3795 -0.7594 -1.7255
  403SOL     MW 1612   0.169   0.499   0.383  0.0639 -0.6230 -0.1002
  404SOL     OW 1613   0.915   2.958   0.843  0.1538 -0.0030 -0.1863
  404SOL    HW1 1614   0.986   2.889   0.838  1.8854  1.1064 -0.9743
  404SOL    HW2 1615   0.969   3.031   0.815 -2.0161 -1.2151 -1.0424
  404SOL     MW 1616   0.932   2.959   0.838  0.0960 -0.0166 -0.4032
  405SOL     OW 1617   0.525   2.469   1.506  0.0853 -0.5262  0.3856
  405SOL    HW1 1618   0.509   2.528   1.431  0.1352  4.1859 -1.1496
  405SOL    HW2 1619   0.570   2.396   1.458 -0.3708  0.8837 -0.9243
  405SOL     MW 1620   0.529   2.467   1.490  0.0317  0.2815  0.0102
  406SOL     OW 1621   0.443   2.355   1.097  0.5832 -0.2088 -0.3423
  406SOL    HW1 1622   0.357   2.396   1.110  0.7510  1.7217 -2.6703
  406SOL    HW2 1623   0.453   2.286   1.159 -0.2187 -0.1620 -0.1995
  406SOL     MW 1624   0.433   2.351   1.107  0.4995  0.0521 -0.6306
  407SOL     OW 1625   0.040   2.640   1.124  0.1202  0.1346 -0.9947
  407SOL    HW1 1626   0.100   2.642   1.193 -2.1165  0.0727  0.3549
  407SOL    HW2 1627   0.097   2.643   1.044 -1.4231  0.3176 -1.2083
  407SOL     MW 1628   0.056   2.641   1.122 -0.3785  0.1505 -0.8448
  408SOL     OW 1629   2.136   2.140   0.719  0.2891  0.1617 -0.7302
  408SOL    HW1 1630   2.075   2.173   0.793 -1.4283 -0.3087  2.3329
  408SOL    HW2 1631   2.062   2.094   0.665  0.5118 -1.4706 -0.3269
  408SOL     MW 1632   2.118   2.138   0.722  0.0919 -0.1157 -0.2729
  409SOL     OW 1633   1.623   0.095   0.831 -0.2572 -0.3452  0.0797
  409SOL    HW1 1634   1.606   0.187   0.828 -1.6785 -1.9150  0.8954
  409SOL    HW2 1635   1.609   0.073   0.925 -0.4599  2.9568  0.2404
  409SOL     MW 1636   1.619   0.104   0.843 -0.4715 -0.1167  0.2085
  410SOL     OW 1637   1.099   2.417   1.151  0.2647  0.1985  0.1213
  410SOL    HW1 1638   1.032   2.455   1.094 -0.4787 -4.1203 -2.0009
  410SOL    HW2 1639   1.162   2.384   1.089  3.1763  0.2808  0.5628
  410SOL     MW 1640   1.098   2.417   1.136  0.5508 -0.3604 -0.1004
  411SOL     OW 1641   1.993   2.941   2.924 -0.2907 -0.0653  0.0917
  411SOL    HW1 1642   1.992   2.918   2.831 -3.1666 -2.7548 -0.3850
  411SOL    HW2 1643   1.974   3.034   2.924 -0.2290 -1.5443  0.4173
  411SOL     MW 1644   1.991   2.950   2.912 -0.6620 -0.6153  0.0718
  412SOL     OW 1645   1.059   2.266   0.634  0.0198  0.4601  0.5842
  412SOL    HW1 1646   1.099   2.332   0.698 -0.2879  3.4223 -1.1967
  412SOL    HW2 1647   1.000   2.317   0.576 -0.1429 -0.9425  2.2755
  412SOL     MW 1648   1.057   2.282   0.635 -0.0422  0.6659  0.5723
  413SOL     OW 1649   0.626   2.699   0.049  0.2803 -0.3327 -0.0418
  413SOL    HW1 1650   0.699   2.633   0.077  0.2103 -1.3305 -3.1791
  413SOL    HW2 1651   0.625   2.676  -0.045  1.5456  0.6853 -2.3235
  413SOL     MW 1652   0.636   2.687   0.040  0.4380 -0.3300 -0.7568
  414SOL     OW 1653   2.020   3.023   1.087  0.6849 -0.4088  0.1045
  414SOL    HW1 1654   2.027   3.108   1.129  0.7568 -0.2967  0.9560
  414SOL    HW2 1655   2.008   3.025   0.993 -1.0758 -0.9336  2.6526
  414SOL     MW 1656   2.019   3.034   1.080  0.4621 -0.4633  0.5530
  415SOL     OW 1657   1.621   2.849   1.120  0.2860 -0.0031  0.2480
  415SOL    HW1 1658   1.683   2.841   1.192  0.9478  1.6459 -1.1773
  415SOL    HW2 1659   1.668   2.802   1.054  0.2932  0.5323  1.6286
  415SOL     MW 1660   1.635   2.842   1.121  0.3742  0.2851  0.2421
  416SOL     OW 1661   0.632   1.743   1.453 -0.1253  0.4750 -0.7375
  416SOL    HW1 1662   0.551   1.769   1.413  3.3265  3.4536  1.1180
  416SOL    HW2 1663   0.673   1.678   1.394 -3.2209 -2.0519 -3.1368
  416SOL     MW 1664   0.626   1.738   1.440 -0.0783  0.5346 -0.8092
  417SOL     OW 1665   0.956   0.048   2.074 -0.1540  0.1220 -0.9486
  417SOL    HW1 1666   0.869   0.049   2.122  0.3333  1.1021 -0.5368
  417SOL    HW2 1667   0.935   0.007   1.992  1.0960  3.0513 -1.9270
  417SOL     MW 1668   0.942   0.043   2.069  0.0752  0.6378 -1.0233
  418SOL     OW 1669   0.751   2.900   0.177  1.0731 -0.2367  0.2697
  418SOL    HW1 1670   0.826   2.895   0.117  0.4058 -2.4211 -0.4140
  418SOL    HW2 1671   0.688   2.832   0.134  0.0091 -2.5759  1.5875
  418SOL     MW 1672   0.752   2.890   0.163  0.8447 -0.8336  0.3534
  419SOL     OW 1673   0.620   2.684   1.349  0.6219  0.6709 -0.3112
  419SOL    HW1 1674   0.627   2.752   1.418 -0.9578 -1.0274  0.2870
  419SOL    HW2 1675   0.685   2.618   1.366 -1.3062 -3.0506  0.9179
  419SOL     MW 1676   0.629   2.684   1.360  0.1591 -0.0442 -0.0701
  420SOL     OW 1677   0.784   2.246   1.095  0.0822  0.3521  0.9667
  420SOL    HW1 1678   0.738   2.275   1.178  1.8407 -0.6396  1.7079
  420SOL    HW2 1679   0.836   2.317   1.063 -1.5226 -2.2466  0.0165
  420SOL     MW 1680   0.785   2.260   1.102  0.1024 -0.1216  0.9391
  421SOL     OW 1681   2.889   0.177   0.077 -0.4574 -0.3898  0.5275
  421SOL    HW1 1682   2.828   0.138   0.015  1.1072  1.2699 -1.4157
  421SOL    HW2 1683   2.947   0.101   0.080  0.5150 -1.1866  0.8152
  421SOL     MW 1684   2.889   0.162   0.070 -0.1227 -0.2759  0.3091
  422SOL     OW 1685   0.885   2.489   0.963 -0.5193 -0.1824 -0.0391
  422SOL    HW1 1686   0.808   2.520   1.005 -0.3418 -0.7077  0.3219
  422SOL    HW2 1687   0.875   2.501   0.871  0.8596  0.2745  0.5714
  422SOL     MW 1688   0.874   2.495   0.956 -0.3140 -0.1914  0.0891
  423SOL     OW 1689   1.496   0.041   0.487  0.4842 -0.2424  0.2547
  423SOL    HW1 1690   1.552   0.015   0.409  1.2704 -0.9801 -1.9094
  423SOL    HW2 1691   1.518   0.131   0.497 -2.3090 -1.3573  2.2860
  423SOL     MW 1692   1.506   0.049   0.478  0.2194 -0.4869  0.2372
  424SOL     OW 1693   0.662   2.274   1.324  0.4064  0.2808 -0.3778
  424SOL    HW1 1694   0.591   2.214   1.304  1.9588 -1.4871  2.4175
  424SOL    HW2 1695   0.694   2.247   1.409 -0.1167 -0.3069 -0.3336
  424SOL     MW 1696   0.657   2.262   1.332  0.5422 -0.0300 -0.0031
  425SOL     OW 1697   1.695   2.806   2.043  0.3571  0.5344  0.4140
  425SOL    HW1 1698   1.710   2.810   1.945  0.8614 -3.0235 -0.6099
  425SOL    HW2 1699   1.745   2.729   2.067 -2.2058 -0.3342  0.5905
  425SOL     MW 1700   1.703   2.796   2.033  0.0855 -0.0496  0.3022
  426SOL     OW 1701   0.888   1.688   1.948  0.0314 -0.3729 -0.4199
  426SOL    HW1 1702   0.814   1.706   1.886 -1.5581  0.0220 -1.2681
  426SOL    HW2 1703   0.888   1.763   2.011  0.2267 -3.1033 -1.7717
  426SOL     MW 1704   0.878   1.700   1.948 -0.1526 -0.6810 -0.7102
  427SOL     OW 1705   0.384   1.748   1.890  0.0861  0.2784 -0.9182
  427SOL    HW1 1706   0.413   1.683   1.832 -1.6310  2.7316  1.8042
  427SOL    HW2 1707   0.318   1.702   1.943 -1.8959  1.7879 -0.7947
  427SOL     MW 1708   0.379   1.733   1.889 -0.4019  0.8013 -0.5427
  428SOL     OW 1709   0.621   2.564   1.092  1.1096  0.3094 -0.3652
  428SOL    HW1 1710   0.577   2.476   1.097  0.1438 -2.0580  0.5336
  428SOL    HW2 1711   0.623   2.605   1.176 -2.2368 -1.0622 -1.8979
  428SOL     MW 1712   0.616   2.558   1.104  0.5407 -0.1839 -0.4489
  429SOL     OW 1713   1.182   2.743   1.078  0.6801  0.3133 -0.0203
  429SOL    HW1 1714   1.094   2.731   1.112 -0.5105  1.3349  1.0200
  429SOL    HW2 1715   1.203   2.834   1.058 -0.4792  1.3180  0.6170
  429SOL     MW 1716   1.173   2.753   1.080  0.3701  0.5806  0.2010
  430SOL     OW 1717   1.161   2.803   0.815 -0.0503  0.7490  0.2740
  430SOL    HW1 1718   1.164   2.754   0.901 -0.1228  0.3472  1.2821
  430SOL    HW2 1719   1.147   2.754   0.738  1.0591 -0.4647  1.7029
  430SOL     MW 1720   1.160   2.790   0.816  0.0865  0.5358  0.5955
  431SOL     OW 1721   0.330   1.918   1.101  0.1039 -0.0271  0.0856
  431SOL    HW1 1722   0.414   1.879   1.096  2.5973 -1.2442 -1.0446
  431SOL    HW2 1723   0.293   1.926   1.014 -0.5514  1.2279  1.4866
  431SOL     MW 1724   0.336   1.914   1.089  0.3465 -0.0221  0.1213
  432SOL     OW 1725   0.043   3.074   1.114 -0.4618  0.0125 -0.0403
  432SOL    HW1 1726   0.040   3.116   1.202 -1.9741  4.2558  1.1059
  432SOL    HW2 1727  -0.015   3.003   1.135  1.4874  1.2673 -2.7571
  432SOL     MW 1728   0.035   3.070   1.128 -0.4042  0.7379 -0.2476
  433SOL     OW 1729   0.630   2.925   1.481 -0.1526 -0.4034  0.1531
  433SOL    HW1 1730   0.622   3.005   1.529 -0.9169  0.9647 -2.7178
  433SOL    HW2 1731   0.729   2.915   1.497  4.7179 -1.6493  1.6676
  433SOL     MW 1732   0.642   2.935   1.489  0.3891 -0.3873 -0.0258
  434SOL     OW 1733   1.512   2.832   1.710 -0.2620  0.5246  0.6227
  434SOL    HW1 1734   1.444   2.882   1.749 -1.4335 -0.8560  1.1939
  434SOL    HW2 1735   1.488   2.808   1.616 -0.8985 -0.7325  2.4616
  434SOL     MW 1736   1.500   2.835   1.703 -0.5006  0.1766  0.9407
  435SOL     OW 1737   2.707   1.751   0.218 -0.5299  0.8280  0.2402
  435SOL    HW1 1738   2.762   1.819   0.171 -0.9561  1.4423 -0.4127
  435SOL    HW2 1739   2.614   1.773   0.219 -4.7400 -0.4106 -0.2621
  435SOL     MW 1740   2.702   1.763   0.212 -1.1416  0.7456  0.0878
  436SOL     OW 1741   1.333   2.710   0.347  0.1632 -0.0024  0.6603
  436SOL    HW1 1742   1.406   2.704   0.406  0.7492 -2.0305  1.8836
  436SOL    HW2 1743   1.298   2.795   0.364  2.9777  2.1137  0.2095
  436SOL     MW 1744   1.338   2.720   0.357  0.6118  0.0092  0.7622
  437SOL     OW 1745   0.959   3.037   1.289 -0.7544 -0.3214  0.0071
  437SOL    HW1 1746   0.997   3.088   1.218 -0.2091 -1.7078  1.6665
  437SOL    HW2 1747   0.921   2.954   1.249 -2.2839  0.0772 -1.7097
  437SOL     MW 1748   0.959   3.033   1.274 -0.8842 -0.4517 -0.0005
  438SOL     OW 1749   0.893   2.711   1.966 -0.2098  0.0403  0.4187
  438SOL    HW1 1750   0.873   2.645   2.041  0.8753 -1.1274  3.1794
  438SOL    HW2 1751   0.885   2.657   1.881 -0.4457  0.9126 -2.2257
  438SOL     MW 1752   0.890   2.695   1.964 -0.0978  0.0013  0.4341
  439SOL     OW 1753   1.193   2.067   0.426  0.1330 -0.0602  0.1903
  439SOL    HW1 1754   1.170   2.124   0.500 -1.4670 -1.2857 -1.5375
  439SOL    HW2 1755   1.183   2.131   0.350  0.7888 -0.3922  0.3016
  439SOL     MW 1756   1.189   2.083   0.426  0.0085 -0.2657 -0.0230
  440SOL     OW 1757   1.757   2.852   3.000  0.3010 -1.2270 -0.4073
  440SOL    HW1 1758   1.774   2.871   3.091  1.8088 -3.5559  0.0604
  440SOL    HW2 1759   1.840   2.881   2.963  1.2596 -0.0466  0.1707
  440SOL     MW 1760   1.770   2.858   3.007  0.6264 -1.3785 -0.2694
  441SOL     OW 1761   0.505   2.677   0.422  0.3865  0.7751 -0.2040
  441SOL    HW1 1762   0.486   2.639   0.340  1.0311  0.9362  2.4989
  441SOL    HW2 1763   0.512   2.775   0.409 -1.1548  0.1565 -0.3767
  441SOL     MW 1764   0.504   2.685   0.409  0.2682  0.7147  0.1299
  442SOL     OW 1765   0.031   2.347   0.637 -0.0604  0.2777  0.4857
  442SOL    HW1 1766   0.040   2.447   0.637 -0.9317  1.3682  0.3832
  442SOL    HW2 1767  -0.058   2.330   0.663  2.0455  1.1693 -0.7866
  442SOL     MW 1768   0.020   2.358   0.640  0.1025  0.5392  0.3043
  443SOL     OW 1769   1.472   1.747   1.936 -0.1272 -0.3459 -0.1206
  443SOL    HW1 1770   1.440   1.784   1.858  2.2578 -0.3341 -1.0500
  443SOL    HW2 1771   1.493   1.654   1.916  0.1437  1.5366  2.2463
  443SOL     MW 1772   1.471   1.739   1.923  0.2232 -0.0960  0.0691
  444SOL     OW 1773   0.954   2.591   1.612 -0.2255  0.4102 -0.1404
  444SOL    HW1 1774   1.011   2.548   1.672 -3.2157 -0.3813  0.6851
  444SOL    HW2 1775   0.867   2.560   1.641 -0.5709  0.0408 -1.0159
  444SOL     MW 1776   0.950   2.581   1.624 -0.6656  0.2570 -0.1470
  445SOL     OW 1777   1.217   0.079   1.412 -0.3729 -0.0858 -0.0180
  445SOL    HW1 1778   1.213   0.126   1.493 -2.9822 -1.6009 -0.5756
  445SOL    HW2 1779   1.225   0.139   1.338 -1.8070 -1.1691  0.7639
  445SOL     MW 1780   1.218   0.093   1.413 -0.9064 -0.4286  0.0116
  446SOL     OW 1781   2.758   2.866   1.043 -1.0798 -0.3240 -0.4294
  446SOL    HW1 1782   2.713   2.934   0.992  0.8846  0.1828  3.9288
  446SOL    HW2 1783   2.809   2.809   0.986 -1.5802 -0.8946  1.2519
  446SOL     MW 1784   2.759   2.868   1.029 -0.8866 -0.3324  0.3675
  447SOL     OW 1785   0.019   1.933   1.560  0.2616  0.2154  0.2264
  447SOL    HW1 1786   0.043   1.859   1.618 -0.3594  0.8607 -1.5234
  447SOL    HW2 1787  -0.057   1.906   1.501  0.5750  0.2793  1.6335
  447SOL     MW 1788   0.012   1.919   1.560  0.2210  0.3089  0.1812
  448SOL     OW 1789   1.716   2.351   1.662 -0.1900 -0.4127 -0.1186
  448SOL    HW1 1790   1.667   2.276   1.684  1.0309 -0.6614  2.6157
  448SOL    HW2 1791   1.656   2.423   1.676  0.0554  1.7070  0.0051
  448SOL     MW 1792   1.702   2.351   1.667  0.0034 -0.1658  0.2585
  449SOL     OW 1793   0.918   2.934   0.395  0.1381 -0.7588  0.3009
  449SOL    HW1 1794   0.862   2.936   0.316  0.0672 -3.1161 -1.0695
  449SOL    HW2 1795   0.859   2.967   0.464 -1.1254  0.5179 -1.3692
  449SOL     MW 1796   0.903   2.938   0.394 -0.0380 -0.9014 -0.1002
  450SOL     OW 1797   1.133   2.471   0.763 -0.1864  0.1500 -1.1422
  450SOL    HW1 1798   1.180   2.437   0.850 -1.5980 -0.3235  2.1053
  450SOL    HW2 1799   1.202   2.477   0.693 -0.0334 -0.8963 -1.8296
  450SOL     MW 1800   1.148   2.467   0.765 -0.3524 -0.0506 -0.8044
  451SOL     OW 1801   0.549   1.983   1.692  0.4405  0.6882  0.2093
  451SOL    HW1 1802   0.634   2.002   1.650  0.1577 -0.8583  0.7067
  451SOL    HW2 1803   0.504   1.936   1.619 -1.3108 -1.5329 -0.5126
  451SOL     MW 1804   0.555   1.980   1.677  0.1721  0.1911  0.1797
  452SOL     OW 1805   0.366   2.647   0.003 -0.2547 -0.0406 -0.6129
  452SOL    HW1 1806   0.444   2.693  -0.016 -0.2283 -0.7210 -3.3125
  452SOL    HW2 1807   0.298   2.713  -0.019 -1.8246  1.1368  2.1296
  452SOL     MW 1808   0.367   2.662  -0.002 -0.4583  0.0250 -0.6072
  453SOL     OW 1809   0.242   3.015   1.557 -0.3531 -0.2493 -0.1249
  453SOL    HW1 1810   0.283   2.948   1.607 -1.3943 -0.5571  0.7143
  453SOL    HW2 1811   0.297   3.006   1.480 -1.8412 -0.4741 -1.8109
  453SOL     MW 1812   0.254   3.005   1.554 -0.6868 -0.3196 -0.2366
  454SOL     OW 1813   0.898   2.775   1.204 -0.2775 -0.0029 -0.2432
  454SOL    HW1 1814   0.833   2.725   1.245  0.5550  3.1871 -3.7789
  454SOL    HW2 1815   0.844   2.831   1.143  0.6756  0.6554 -1.5166
  454SOL     MW 1816   0.882   2.776   1.201 -0.0419  0.5048 -0.8777
  455SOL     OW 1817   1.796   2.865   0.187 -0.1923  0.1059 -0.3177
  455SOL    HW1 1818   1.835   2.847   0.272 -0.4732 -0.0757  0.5109
  455SOL    HW2 1819   1.711   2.811   0.192 -0.2449 -1.1892  2.9518
  455SOL     MW 1820   1.790   2.855   0.199 -0.2363 -0.0889  0.2230
  456SOL     OW 1821   2.760   0.272   1.458 -0.1715 -0.0759 -0.0987
  456SOL    HW1 1822   2.750   0.210   1.387  0.4922 -0.1126  1.2103
  456SOL    HW2 1823   2.811   0.349   1.421 -1.4425  0.9709 -0.8963
  456SOL     MW 1824   2.766   0.274   1.443 -0.2516  0.0573 -0.0312
  457SOL     OW 1825   0.792   1.650   3.033 -0.4182 -0.0855  0.3472
  457SOL    HW1 1826   0.699   1.637   3.022  0.3861 -1.2188  2.6756
  457SOL    HW2 1827   0.796   1.664   3.128 -2.0431 -1.1498 -0.7497
  457SOL     MW 1828   0.780   1.650   3.044 -0.5265 -0.3755  0.5097
  458SOL     OW 1829   1.343   1.475   0.696 -0.2895  0.0857 -0.2641
  458SOL    HW1 1830   1.263   1.517   0.695  2.0844 -1.6991  2.0938
  458SOL    HW2 1831   1.331   1.386   0.658  1.3868 -1.0293  0.4174
  458SOL     MW 1832   1.331   1.469   0.691  0.2449 -0.2969  0.1369
  459SOL     OW 1833   1.614   3.070   0.243 -0.9619 -0.6182  0.0271
  459SOL    HW1 1834   1.673   3.002   0.208 -0.1628  0.5531 -1.5257
  459SOL    HW2 1835   1.553   3.095   0.174  0.5646  2.3515  0.5894
  459SOL     MW 1836   1.614   3.064   0.230 -0.6551 -0.0719 -0.1035
  460SOL     OW 1837   1.791   2.225   0.621 -0.1921  0.1200 -0.2222
  460SOL    HW1 1838   1.715   2.203   0.673  0.7142  0.9315 -1.3465
  460SOL    HW2 1839   1.846   2.139   0.618  0.5235 -0.1648  1.8813
  460SOL     MW 1840   1.788   2.211   0.628  0.0219  0.1895 -0.0930
  461SOL     OW 1841   0.400   2.411   0.550  0.0699 -0.0346 -0.9298
  461SOL    HW1 1842   0.432   2.491   0.504  0.0809 -1.5566 -0.3958
  461SOL    HW2 1843   0.412   2.426   0.646 -2.2189 -1.0831 -2.1064
  461SOL     MW 1844   0.406   2.423   0.556 -0.2306 -0.3737 -1.0146
  462SOL     OW 1845   0.291   0.240   1.267 -0.4288 -0.0316  0.3115
  462SOL    HW1 1846   0.337   0.200   1.193  0.1232  1.4109  0.7159
  462SOL    HW2 1847   0.355   0.275   1.329 -0.8186  0.1538 -2.1031
  462SOL     MW 1848   0.305   0.239   1.265 -0.4074  0.1832  0.0463
  463SOL     OW 1849   1.090   0.053   0.755  0.8214 -0.0804 -0.5109
  463SOL    HW1 1850   1.178   0.021   0.725 -0.1136 -0.6395 -0.4817
  463SOL    HW2 1851   1.040   0.046   0.671 -2.5247  0.5799 -0.2753
  463SOL     MW 1852   1.095   0.048   0.740  0.2565 -0.0671 -0.4759
  464SOL     OW 1853   0.739   3.077   2.267 -0.2562 -0.3951  0.3529
  464SOL    HW1 1854   0.729   2.979   2.274  1.7967 -1.0092  1.5056
  464SOL    HW2 1855   0.798   3.096   2.345 -4.0536 -1.0169  2.0901
  464SOL     MW 1856   0.746   3.067   2.278 -0.4864 -0.5582  0.7342
  465SOL     OW 1857   0.820   0.337   0.396  0.4618 -0.1347 -0.8747
  465SOL    HW1 1858   0.798   0.272   0.462 -0.1010 -1.7568 -4.0520
  465SOL    HW2 1859   0.805   0.301   0.311  0.4539  1.0265  1.2573
  465SOL     MW 1860   0.815   0.324   0.394  0.3865 -0.1955 -1.0127
  466SOL     OW 1861   1.101   2.041   0.807  0.4463 -0.0210 -0.7038
  466SOL    HW1 1862   1.085   1.958   0.771  0.7289  2.2096  2.3134
  466SOL    HW2 1863   1.084   2.102   0.734  1.8167  2.8991  2.8614
  466SOL     MW 1864   1.097   2.038   0.792  0.6644  0.6586  0.1647
  467SOL     OW 1865   1.286   2.350   0.945 -0.3318 -0.1434  0.5601
  467SOL    HW1 1866   1.373   2.367   0.978 -1.1022  0.4870  1.8376
  467SOL    HW2 1867   1.295   2.262   0.910 -1.7875 -0.8519 -1.3390
  467SOL     MW 1868   1.299   2.341   0.945 -0.6255 -0.1537  0.4781
  468SOL     OW 1869   0.525   2.689   1.907  0.5011 -0.6597  0.2688
  468SOL    HW1 1870   0.475   2.601   1.908  1.4325 -3.8674  4.0924
  468SOL    HW2 1871   0.472   2.761   1.854  1.9003  2.1054  0.0479
  468SOL     MW 1872   0.511   2.687   1.900  0.8086 -0.7181  0.7441
  469SOL     OW 1873   0.329   2.115   1.821 -0.2397  0.5350 -0.3811
  469SOL    HW1 1874   0.258   2.072   1.872  1.6689  0.2602  0.1459
  469SOL    HW2 1875   0.400   2.052   1.805 -0.1509  2.1227  1.3525
  469SOL     MW 1876   0.329   2.101   1.826  0.0239  0.7082 -0.0828
  470SOL     OW 1877   3.054   2.581   0.090 -0.1895  0.0722 -0.2065
  470SOL    HW1 1878   2.968   2.588   0.134  0.6247  0.1458  0.2299
  470SOL    HW2 1879   3.037   2.594  -0.002 -2.3220  1.3060  0.2956
  470SOL     MW 1880   3.040   2.584   0.083 -0.3634  0.2447 -0.0827
  471SOL     OW 1881   1.170   2.627   1.363 -0.3338  0.2026 -0.2589
  471SOL    HW1 1882   1.098   2.597   1.419 -0.5757  2.0693  0.7243
  471SOL    HW2 1883   1.146   2.628   1.272  0.5654  1.3703  1.4079
  471SOL     MW 1884   1.158   2.623   1.359 -0.2471  0.6030  0.0908
  472SOL     OW 1885   2.948   2.121   0.337  1.0867  0.4248  0.0796
  472SOL    HW1 1886   2.929   2.065   0.260 -1.0585  0.5572  0.3113
  472SOL    HW2 1887   2.904   2.064   0.400 -0.5915 -2.2654  1.1754
  472SOL     MW 1888   2.940   2.106   0.335  0.5823  0.0873  0.2547
  473SOL     OW 1889   0.855   2.536   1.345  0.3194  0.4006 -0.9949
  473SOL    HW1 1890   0.860   2.440   1.342 -0.7955  0.7691 -0.0734
  473SOL    HW2 1891   0.863   2.560   1.439  1.5273 -1.3677 -0.9246
  473SOL     MW 1892   0.857   2.526   1.357  0.3317  0.2159 -0.8640
  474SOL     OW 1893   0.656   2.297   1.843  0.3614 -0.4269  0.5191
  474SOL    HW1 1894   0.720   2.284   1.910  0.4679 -0.5852 -0.6750
  474SOL    HW2 1895   0.686   2.263   1.762 -1.8531  3.3715  2.5364
  474SOL     MW 1896   0.668   2.291   1.841  0.0832  0.0534  0.6277
  475SOL     OW 1897   1.583   3.070   1.546  0.0945 -0.1791  0.0628
  475SOL    HW1 1898   1.515   3.044   1.488  0.2202 -1.6933  3.5991
  475SOL    HW2 1899   1.612   2.982   1.563  1.4126  0.4309 -2.5155
  475SOL     MW 1900   1.577   3.055   1.541  0.2850 -0.2984  0.1892
  476SOL     OW 1901   1.440   2.622   1.172 -0.6355  0.4677 -0.0167
  476SOL    HW1 1902   1.359   2.660   1.156  0.1983 -0.7109  0.7676
  476SOL    HW2 1903   1.497   2.696   1.146  1.4533  1.3056 -0.2289
  476SOL     MW 1904   1.437   2.637   1.166 -0.2499  0.4227  0.0588
  477SOL     OW 1905   0.833   2.543   0.683  0.2191  0.0437  0.7625
  477SOL    HW1 1906   0.926   2.551   0.684  0.7634 -0.8759  2.3052
  477SOL    HW2 1907   0.820   2.470   0.628  0.1166 -0.8949 -0.4126
  477SOL     MW 1908   0.843   2.534   0.676  0.2774 -0.2015  0.8110
  478SOL     OW 1909   0.233   2.628   0.924  0.3102  0.6741 -0.7556
  478SOL    HW1 1910   0.271   2.708   0.886  0.0000 -1.2174  1.7151
  478SOL    HW2 1911   0.292   2.555   0.898  1.1213  2.7220 -0.8870
  478SOL     MW 1912   0.246   2.629   0.916  0.3763  0.6947 -0.4469
  479SOL     OW 1913   1.407   1.989   1.269  0.0855 -0.5411  0.1892
  479SOL    HW1 1914   1.390   2.030   1.357  2.6089 -1.0385 -0.1331
  479SOL    HW2 1915   1.480   1.933   1.284 -0.5067 -0.3774 -1.5613
  479SOL     MW 1916   1.415   1.987   1.283  0.3403 -0.5851 -0.0843
  480SOL     OW 1917   2.011   2.430   1.354 -0.1000  0.3306  0.6814
  480SOL    HW1 1918   2.009   2.336   1.357 -0.2487 -0.2549 -0.9400
  480SOL    HW2 1919   2.013   2.447   1.253 -0.5412 -0.1668 -0.7402
  480SOL     MW 1920   2.011   2.420   1.341 -0.1779  0.1877  0.2799
  481SOL     OW 1921   1.047   0.113   1.067  0.1270  0.0313 -0.2831
  481SOL    HW1 1922   1.099   0.053   1.013  2.1677  0.5190  0.5024
  481SOL    HW2 1923   1.116   0.164   1.109 -0.1371  0.1853  1.3520
  481SOL     MW 1924   1.063   0.112   1.066  0.3614  0.1160  0.0362
  482SOL     OW 1925   1.066   0.033   0.272  0.1332 -0.2105 -0.5377
  482SOL    HW1 1926   1.007  -0.027   0.324  0.3624 -1.4213  1.7259
  482SOL    HW2 1927   1.071   0.124   0.309  1.3351  1.4874  1.3290
  482SOL     MW 1928   1.059   0.037   0.283  0.3220 -0.1462  0.0072
  483SOL     OW 1929   0.427   3.004   0.460  0.4384 -0.0869  0.2310
  483SOL    HW1 1930   0.355   2.986   0.400  0.1978 -1.9400 -0.9626
  483SOL    HW2 1931   0.388   3.053   0.534 -1.1190  3.2470  2.4609
  483SOL     MW 1932   0.412   3.008   0.462  0.2012  0.1085  0.3677
  484SOL     OW 1933   1.832   2.003   1.440 -0.0762  0.3429 -0.7973
  484SOL    HW1 1934   1.896   2.066   1.415 -2.2306 -0.2756 -3.6775
  484SOL    HW2 1935   1.812   2.024   1.534 -1.2888 -1.1964  0.5803
  484SOL     MW 1936   1.838   2.014   1.449 -0.5204  0.0582 -0.9956
  485SOL     OW 1937   0.597   2.403   0.266  0.3653  0.3434  0.3935
  485SOL    HW1 1938   0.629   2.385   0.358  3.1792  1.0324  3.1139
  485SOL    HW2 1939   0.505   2.439   0.271  1.3433  1.7553 -0.7206
  485SOL     MW 1940   0.589   2.405   0.279  0.8656  0.6206  0.6054
  486SOL     OW 1941   0.195   2.419   1.433 -0.3029  0.1871 -1.0007
  486SOL    HW1 1942   0.208   2.512   1.408  0.4801 -1.1609 -1.3681
  486SOL    HW2 1943   0.159   2.430   1.518  0.7364 -0.7704 -0.2849
  486SOL     MW 1944   0.192   2.432   1.441 -0.0625 -0.1171 -0.9547
  487SOL     OW 1945   1.204   1.754   1.021 -0.4710  0.0555 -0.2190
  487SOL    HW1 1946   1.169   1.837   1.065 -0.5201  2.4547  3.5937
  487SOL    HW2 1947   1.293   1.746   1.053  0.5787 -0.1357  0.1817
  487SOL     MW 1948   1.211   1.764   1.031 -0.3390  0.3468  0.3369
  488SOL     OW 1949   1.599   1.813   0.567  0.1197  0.4363  0.1503
  488SOL    HW1 1950   1.689   1.834   0.547 -0.1044 -2.7882  1.1052
  488SOL    HW2 1951   1.550   1.896   0.547 -1.1499  0.7483 -1.7613
  488SOL     MW 1952   1.604   1.827   0.562 -0.0774  0.0521  0.0240
  489SOL     OW 1953   0.787   0.832   0.624 -0.1751 -0.1756  0.2280
  489SOL    HW1 1954   0.805   0.760   0.561 -0.9693  0.4922 -0.2090
  489SOL    HW2 1955   0.784   0.794   0.714 -0.1900 -1.5835  0.0349
  489SOL     MW 1956   0.789   0.818   0.628 -0.2818 -0.2733  0.1449
  490SOL     OW 1957   1.449   2.058   0.531 -0.5160  0.3147  0.4378
  490SOL    HW1 1958   1.471   2.138   0.473 -1.4618  1.4913 -0.9464
  490SOL    HW2 1959   1.364   2.037   0.498  0.3608  0.4230  0.3751
  490SOL     MW 1960   1.441   2.066   0.519 -0.5251  0.4842  0.2469
  491SOL     OW 1961   1.245   2.985   0.415 -0.0725  0.5789 -0.1552
  491SOL    HW1 1962   1.332   3.022   0.428 -2.5461 -2.2772 -3.6968
  491SOL    HW2 1963   1.193   3.055   0.371 -2.6852  1.6237 -1.6038
  491SOL     MW 1964   1.250   2.999   0.411 -0.7436  0.3399 -0.8136
  492SOL     OW 1965   1.520   2.225   0.752  0.1741 -0.3995 -0.3795
  492SOL    HW1 1966   1.492   2.162   0.686 -3.4189 -0.5049 -1.1528
  492SOL    HW2 1967   1.490   2.182   0.830  0.7414 -2.2248  0.0320
  492SOL     MW 1968   1.513   2.211   0.754 -0.2251 -0.6542 -0.4273
  493SOL     OW 1969   0.205   2.968   0.289  0.4752 -0.9308 -0.1641
  493SOL    HW1 1970   0.159   3.014   0.363  3.7224  2.9487 -1.6485
  493SOL    HW2 1971   0.195   3.030   0.221 -2.3961  0.6994 -0.5935
  493SOL     MW 1972   0.198   2.982   0.290  0.5248 -0.2038 -0.4166
  494SOL     OW 1973   0.416   2.452   1.771  0.3049 -0.2893  0.0325
  494SOL    HW1 1974   0.475   2.383   1.791 -1.0887  0.1604 -1.0144
  494SOL    HW2 1975   0.437   2.476   1.682  1.2467  1.7410  3.8596
  494SOL     MW 1976   0.426   2.446   1.762  0.2453  0.0379  0.3993
  495SOL     OW 1977   2.841   1.746   2.572 -0.0047 -0.2636 -0.1186
  495SOL    HW1 1978   2.772   1.812   2.553 -2.0851  2.0535  0.7637
  495SOL    HW2 1979   2.794   1.699   2.646  1.3255 -0.3423 -0.1264
  495SOL     MW 1980   2.826   1.749   2.579 -0.1037  0.0317 -0.0032
  496SOL     OW 1981   2.924   2.367   2.669 -0.2662 -0.1136 -0.1771
  496SOL    HW1 1982   2.985   2.316   2.718 -0.5441  1.4985 -2.3015
  496SOL    HW2 1983   2.973   2.447   2.644  1.4411  0.2998  2.3715
  496SOL     MW 1984   2.939   2.371   2.672 -0.0776  0.1537 -0.1212
  497SOL     OW 1985   1.560   2.200   2.657 -0.3906  0.6510  0.3805
  497SOL    HW1 1986   1.480   2.147   2.632  1.4771 -2.0206  0.3307
  497SOL    HW2 1987   1.602   2.148   2.728 -0.1976 -0.5063  0.5299
  497SOL     MW 1988   1.555   2.186   2.663 -0.1187  0.1458  0.3936
  498SOL     OW 1989   1.490   2.682   2.378 -0.0196 -0.5505 -0.3791
  498SOL    HW1 1990   1.485   2.589   2.401 -1.1683 -0.6280 -1.1182
  498SOL    HW2 1991   1.579   2.704   2.361 -0.3343 -2.0890 -1.8302
  498SOL     MW 1992   1.501   2.672   2.379 -0.2127 -0.7637 -0.6681
  499SOL     OW 1993   0.998   0.162   3.053 -0.5524 -0.2495  0.7029
  499SOL    HW1 1994   0.930   0.166   3.128 -0.0004 -0.2344 -2.6334
  499SOL    HW2 1995   1.046   0.085   3.065  2.2789  0.9529  0.5277
  499SOL     MW 1996   0.995   0.152   3.065 -0.1060 -0.0888  0.2396
  500SOL     OW 1997   1.047   2.497   2.757  0.0539 -0.0598  0.4767
  500SOL    HW1 1998   1.127   2.506   2.812  0.0863  0.9102 -0.8216
  500SOL    HW2 1999   0.981   2.467   2.817 -1.7268  0.3912  0.0933
  500SOL     MW 2000   1.049   2.495   2.772 -0.1768  0.1277  0.2549
  501SOL     OW 2001   1.773   2.207   3.084 -0.3971  0.3449  0.0526
  501SOL    HW1 2002   1.744   2.286   3.130 -1.5352  1.3766 -2.1778
  501SOL    HW2 2003   1.859   2.225   3.050  0.7001 -2.0156 -0.1126
  501SOL     MW 2004   1.781   2.220   3.085 -0.4025  0.1696 -0.2634
  502SOL     OW 2005   0.144   2.817   3.057 -0.2750 -0.0884  0.0924
  502SOL    HW1 2006   0.086   2.772   2.999  1.2860  1.8091 -0.9767
  502SOL    HW2 2007   0.197   2.871   2.995 -1.7791  2.5229 -2.7863
  502SOL     MW 2008   0.143   2.818   3.041 -0.2675  0.5065 -0.4285
  503SOL     OW 2009   0.975   2.858   2.167  0.1613  0.5941 -0.3151
  503SOL    HW1 2010   0.939   2.819   2.088 -0.0467 -1.2917  2.4267
  503SOL    HW2 2011   0.973   2.951   2.151 -1.3704 -3.1840  4.8827
  503SOL     MW 2012   0.970   2.865   2.154 -0.0682 -0.1532  0.7325
  504SOL     OW 2013   0.046   2.744   2.156  0.1869  0.1508 -0.0182
  504SOL    HW1 2014   0.029   2.662   2.104  0.9413 -1.8253 -0.9701
  504SOL    HW2 2015   0.071   2.727   2.252  1.9776 -2.5599  0.3492
  504SOL     MW 2016   0.047   2.731   2.162  0.5227 -0.4676 -0.0953
  505SOL     OW 2017   1.719   2.729   2.668  0.1483  0.0806  0.4080
  505SOL    HW1 2018   1.694   2.770   2.587 -0.4127  0.2424 -0.5977
  505SOL    HW2 2019   1.647   2.738   2.732  0.8407  0.6342 -0.8997
  505SOL     MW 2020   1.706   2.736   2.666  0.1656  0.1750  0.1028
  506SOL     OW 2021   1.608   3.001   2.817 -0.0538 -0.7513  0.1244
  506SOL    HW1 2022   1.665   2.953   2.880 -0.3338 -0.1720  1.2214
  506SOL    HW2 2023   1.659   3.020   2.736  1.2215 -0.1041  1.0619
  506SOL     MW 2024   1.622   2.997   2.814  0.0775 -0.5895  0.3928
  507SOL     OW 2025   0.827   2.745   2.882 -0.4905  0.6933  0.2664
  507SOL    HW1 2026   0.857   2.804   2.815 -1.1913 -2.5941  2.7451
  507SOL    HW2 2027   0.748   2.795   2.911  0.4530 -1.3299 -1.3443
  507SOL     MW 2028   0.821   2.759   2.877 -0.4585 -0.0074  0.3809
  508SOL     OW 2029   1.127   2.027   2.534  0.1410 -0.1287 -0.0468
  508SOL    HW1 2030   1.203   2.009   2.589  0.3549 -1.5043 -3.5804
  508SOL    HW2 2031   1.095   2.112   2.563  1.2376 -0.8926 -0.6923
  508SOL     MW 2032   1.133   2.036   2.545  0.3139 -0.4110 -0.5982
  509SOL     OW 2033   0.591   2.545   2.919 -0.5629 -0.4192 -0.7694
  509SOL    HW1 2034   0.574   2.527   2.828 -2.0473 -0.5952 -3.9680
  509SOL    HW2 2035   0.525   2.491   2.963 -0.1530 -0.6183  0.6807
  509SOL     MW 2036   0.580   2.536   2.913 -0.7046 -0.4687 -1.0001
  510SOL     OW 2037   1.511   2.549   1.718 -0.0140 -0.8675 -0.1892
  510SOL    HW1 2038   1.524   2.642   1.734 -0.8704  0.2024  0.9685
  510SOL    HW2 2039   1.460   2.523   1.791  0.1178 -1.4487 -3.0529
  510SOL     MW 2040   1.506   2.558   1.730 -0.1096 -0.8031 -0.4143
  511SOL     OW 2041   0.381   2.610   2.442  0.5185 -0.4794  0.2920
  511SOL    HW1 2042   0.451   2.592   2.504 -2.5602  3.7420  0.2193
  511SOL    HW2 2043   0.406   2.618   2.347 -0.3000 -0.8296  2.3450
  511SOL     MW 2044   0.393   2.608   2.437  0.0043  0.0313  0.5533
  512SOL     OW 2045   1.022   1.986   2.836 -0.2685 -0.1630  0.2010
  512SOL    HW1 2046   0.929   2.006   2.832  0.4406  1.3193  1.2435
  512SOL    HW2 2047   1.037   1.894   2.857 -1.3772  0.3894  2.1379
  512SOL     MW 2048   1.012   1.977   2.838 -0.3212  0.1055  0.5941
  513SOL     OW 2049   1.450   2.407   2.397  0.3695  0.5185  0.0527
  513SOL    HW1 2050   1.531   2.382   2.448  0.4043  0.0968  3.6096
  513SOL    HW2 2051   1.398   2.326   2.402 -0.6640 -0.0859 -1.7035
  513SOL     MW 2052   1.454   2.393   2.404  0.2378  0.3832  0.2903
  514SOL     OW 2053   0.233   2.433   2.615 -0.1632 -0.0931  0.4139
  514SOL    HW1 2054   0.270   2.504   2.557 -3.8927  1.9769 -3.9951
  514SOL    HW2 2055   0.229   2.460   2.712  0.5378 -0.8912  0.4737
  514SOL     MW 2056   0.237   2.446   2.620 -0.5628  0.0748 -0.1599
  515SOL     OW 2057   1.112   2.029   1.951  0.7720  0.5077 -0.2805
  515SOL    HW1 2058   1.049   2.097   1.971  1.3660 -3.1866 -1.4242
  515SOL    HW2 2059   1.192   2.039   2.009 -0.8660  0.6592  1.3059
  515SOL     MW 2060   1.114   2.039   1.961  0.6343  0.0403 -0.2221
  516SOL     OW 2061   1.461   2.530   3.052  0.0097  0.2809 -0.6346
  516SOL    HW1 2062   1.504   2.514   2.969 -1.8370  0.2545  1.3929
  516SOL    HW2 2063   1.371   2.494   3.038 -2.9127 -2.2861 -2.5656
  516SOL     MW 2064   1.454   2.523   3.039 -0.6195 -0.0613 -0.6218
  517SOL     OW 2065   0.595   2.401   2.126  0.0044  0.0538 -0.1854
  517SOL    HW1 2066   0.578   2.497   2.148  1.8884 -3.9557 -0.3783
  517SOL    HW2 2067   0.514   2.358   2.099 -2.5029 -0.6914  0.9288
  517SOL     MW 2068   0.582   2.408   2.125 -0.0778 -0.5736 -0.0639
  518SOL     OW 2069   1.889   0.091   2.953  0.1633 -0.0582 -0.2519
  518SOL    HW1 2070   1.851   0.161   2.896 -3.4941  0.2299  1.4204
  518SOL    HW2 2071   1.836   0.102   3.034 -0.2992  0.0906  0.0548
  518SOL     MW 2072   1.877   0.102   2.956 -0.3803 -0.0005  0.0092
  519SOL     OW 2073   0.731   2.578   1.767 -0.2808  0.0887  0.6179
  519SOL    HW1 2074   0.705   2.487   1.795 -2.9244 -4.1327 -1.1636
  519SOL    HW2 2075   0.668   2.632   1.813 -2.5801  0.6540  0.9079
  519SOL     MW 2076   0.720   2.573   1.777 -0.9330 -0.3937  0.4211
  520SOL     OW 2077   1.224   2.130   2.914 -0.4400  0.7094 -0.0166
  520SOL    HW1 2078   1.139   2.088   2.890  0.3919 -0.1010  0.5391
  520SOL    HW2 2079   1.248   2.085   2.993  1.2156 -0.4274 -1.0847
  520SOL     MW 2080   1.216   2.118   2.921 -0.1118  0.4525 -0.0842
  521SOL     OW 2081   1.742   2.028   2.226  0.4947 -0.3609 -0.0637
  521SOL    HW1 2082   1.751   2.064   2.136 -2.0062  0.8486  0.1643
  521SOL    HW2 2083   1.735   1.934   2.231  0.4761 -0.1278 -0.1937
  521SOL     MW 2084   1.742   2.021   2.214  0.1623 -0.1706 -0.0508
  522SOL     OW 2085   2.820   2.567   2.190 -0.0900  0.5060  0.5428
  522SOL    HW1 2086   2.899   2.530   2.216 -0.6081  0.8187  1.2585
  522SOL    HW2 2087   2.788   2.619   2.260  1.8584  2.6615  0.6650
  522SOL     MW 2088   2.826   2.569   2.202  0.0987  0.8317  0.6533
  523SOL     OW 2089   0.837   1.490   2.128 -0.4415  0.4159  0.2834
  523SOL    HW1 2090   0.856   1.570   2.074 -0.1537  0.8524  2.3378
  523SOL    HW2 2091   0.882   1.419   2.076  0.5918  0.8700 -1.2309
  523SOL     MW 2092   0.845   1.492   2.114 -0.2672  0.5334  0.3547
  524SOL     OW 2093   0.868   2.464   2.969 -0.6633 -0.5684  0.0571
  524SOL    HW1 2094   0.818   2.547   2.942  2.3421  0.7206  0.4535
  524SOL    HW2 2095   0.819   2.387   2.941 -0.6270 -1.3306  0.0373
  524SOL     MW 2096   0.855   2.465   2.962 -0.2620 -0.4989  0.1068
  525SOL     OW 2097   0.362   2.286   2.055  0.3088  0.9115 -0.7940
  525SOL    HW1 2098   0.341   2.215   2.125  0.3663 -2.9744 -1.1949
  525SOL    HW2 2099   0.366   2.241   1.967  1.3492  2.0673 -0.7803
  525SOL     MW 2100   0.360   2.271   2.053  0.4537  0.5513 -0.8451
  526SOL     OW 2101   0.644   2.102   2.050 -0.0452  0.3680  0.3207
  526SOL    HW1 2102   0.623   2.147   1.971 -0.5221  0.1489  1.8751
  526SOL    HW2 2103   0.632   2.169   2.119  1.5215  2.8787 -0.4395
  526SOL     MW 2104   0.639   2.117   2.049  0.0985  0.6704  0.4255
  527SOL     OW 2105   1.392   1.977   2.079  0.4717  0.7198  0.8150
  527SOL    HW1 2106   1.350   1.921   2.146 -1.2348  1.7144  3.6666
  527SOL    HW2 2107   1.411   1.912   2.010  0.8050 -0.8986  2.8695
  527SOL     MW 2108   1.389   1.961   2.079  0.2905  0.6375  1.4623
  528SOL     OW 2109   0.650   2.937   2.951 -0.0852  0.5784  0.2725
  528SOL    HW1 2110   0.694   3.019   2.944  0.1907 -0.3965  0.9343
  528SOL    HW2 2111   0.571   2.937   2.896 -0.8044  0.2869  0.0827
  528SOL     MW 2112   0.645   2.947   2.943 -0.1437  0.4113  0.3348
  529SOL     OW 2113   0.954   2.264   1.944  0.4621  0.3957  0.1010
  529SOL    HW1 2114   0.992   2.308   2.022  2.0617 -1.3188  1.4345
  529SOL    HW2 2115   1.009   2.293   1.876 -0.8089 -3.2479  0.8444
  529SOL     MW 2116   0.966   2.274   1.945  0.5055 -0.3113  0.3750
  530SOL     OW 2117   1.235   2.411   2.979 -0.0594 -0.0854 -0.0389
  530SOL    HW1 2118   1.161   2.430   3.040  1.3209  0.0927 -1.8680
  530SOL    HW2 2119   1.230   2.318   2.954  1.3432  0.9382 -4.5669
  530SOL     MW 2120   1.224   2.401   2.983  0.3078  0.0731 -0.8777
  531SOL     OW 2121   0.933   1.854   2.567  0.0521  0.2080  0.4948
  531SOL    HW1 2122   0.987   1.930   2.564  1.8623 -0.5589  0.1378
  531SOL    HW2 2123   0.877   1.860   2.640  1.5191 -4.0087 -3.4386
  531SOL     MW 2124   0.932   1.865   2.576  0.4845 -0.4495 -0.0712
  532SOL     OW 2125   1.767   0.247   2.773 -0.4419 -1.1926  0.1034
  532SOL    HW1 2126   1.674   0.208   2.764 -1.6123  0.5925 -1.6449
  532SOL    HW2 2127   1.818   0.227   2.690 -1.1923  0.2824 -0.0515
  532SOL     MW 2128   1.761   0.239   2.761 -0.6953 -0.7625 -0.1477
  533SOL     OW 2129   1.908   2.599   0.002  0.5389 -0.9271  0.5350
  533SOL    HW1 2130   1.841   2.550   0.053  0.6211 -2.2894 -0.6140
  533SOL    HW2 2131   1.849   2.664  -0.046 -3.3401  2.3415  1.4874
  533SOL     MW 2132   1.891   2.601   0.002  0.0379 -0.6756  0.5091
  534SOL     OW 2133   1.717   2.376   2.474 -0.3491 -0.3330  0.0495
  534SOL    HW1 2134   1.678   2.304   2.524 -1.9602  0.7372 -1.6922
  534SOL    HW2 2135   1.792   2.411   2.530  1.1331  0.3565  1.5260
  534SOL     MW 2136   1.721   2.371   2.488 -0.3661 -0.1008  0.0145
  535SOL     OW 2137   1.895   2.414   1.864 -0.0251 -0.0322 -0.3112
  535SOL    HW1 2138   1.851   2.399   1.780  1.8314  0.7332 -0.8862
  535SOL    HW2 2139   1.983   2.379   1.843 -1.4255 -1.0524 -0.2090
  535SOL     MW 2140   1.901   2.408   1.850  0.0351 -0.0658 -0.3736
  536SOL     OW 2141   0.503   1.846   2.118 -0.6676 -0.0930  0.5166
  536SOL    HW1 2142   0.449   1.833   2.034 -1.2140  0.8245  2.4930
  536SOL    HW2 2143   0.546   1.928   2.111 -1.0612 -3.3840  3.1878
  536SOL     MW 2144   0.501   1.856   2.106 -0.7917 -0.4061  1.1298
  537SOL     OW 2145   1.081   0.253   2.780 -0.0310  0.5669 -0.0537
  537SOL    HW1 2146   1.060   0.295   2.859  0.2344  0.1708 -0.2042
  537SOL    HW2 2147   1.070   0.326   2.710  0.0215  0.5639 -1.0018
  537SOL     MW 2148   1.076   0.268   2.781  0.0110  0.5143 -0.1987
  538SOL     OW 2149   1.432   0.050   0.062  0.1248 -0.5912  0.5411
  538SOL    HW1 2150   1.408   0.141   0.082 -1.0672 -1.9705  0.4879
  538SOL    HW2 2151   1.343   0.017   0.051 -2.2465  1.2285 -2.4727
  538SOL     MW 2152   1.417   0.058   0.063 -0.3453 -0.5331  0.1365
  539SOL     OW 2153   0.683   2.785   2.584  0.3802 -0.2471  0.5185
  539SOL    HW1 2154   0.761   2.835   2.613  2.1141  0.2271  0.1750
  539SOL    HW2 2155   0.683   2.691   2.621 -3.5978 -0.6179 -0.0606
  539SOL     MW 2156   0.693   2.779   2.593  0.0841 -0.2334  0.3968
  540SOL     OW 2157   0.254   2.470   2.900  0.1936 -0.3342 -0.0923
  540SOL    HW1 2158   0.272   2.523   2.980  0.1650 -0.8879 -1.7535
  540SOL    HW2 2159   0.213   2.387   2.932  1.7164  0.6411 -0.4071
  540SOL     MW 2160   0.251   2.466   2.915  0.3907 -0.2786 -0.3530
  541SOL     OW 2161   0.249   2.948   2.138  0.2707  0.4528  0.2339
  541SOL    HW1 2162   0.175   2.891   2.126  1.8560  0.2121 -0.9435
  541SOL    HW2 2163   0.296   2.919   2.222  1.5515 -0.8053  1.5915
  541SOL     MW 2164   0.245   2.937   2.148  0.6489  0.2550  0.2577
  542SOL     OW 2165   0.984   2.266   2.593 -0.2657  0.2754 -0.3442
  542SOL    HW1 2166   0.925   2.227   2.654 -1.1307  0.5549 -1.3779
  542SOL    HW2 2167   1.023   2.347   2.640  1.4217  0.7388 -0.7262
  542SOL     MW 2168   0.981   2.272   2.607 -0.1572  0.3734 -0.5310
  543SOL     OW 2169   1.607   2.434   2.809 -0.5632 -0.3101  0.2132
  543SOL    HW1 2170   1.565   2.375   2.745 -1.0307  1.3190  3.1008
  543SOL    HW2 2171   1.590   2.517   2.766 -1.7372 -0.0635  0.2040
  543SOL     MW 2172   1.599   2.437   2.795 -0.7798 -0.0626  0.5930
  544SOL     OW 2173   0.706   0.280   2.705 -0.3818  0.4813  0.1633
  544SOL    HW1 2174   0.611   0.273   2.722  0.8161  1.4574  2.1836
  544SOL    HW2 2175   0.729   0.251   2.618  2.3163  0.7399  1.2959
  544SOL     MW 2176   0.697   0.275   2.695  0.1323  0.6442  0.5793
  545SOL     OW 2177   1.485   2.124   2.325 -0.0225 -0.1689 -0.0382
  545SOL    HW1 2178   1.431   2.156   2.253 -0.1511  0.1039  1.9005
  545SOL    HW2 2179   1.572   2.085   2.290 -0.0187  1.1135 -0.0922
  545SOL     MW 2180   1.489   2.123   2.311 -0.0390  0.0363  0.2105
  546SOL     OW 2181   2.879   1.948   0.113  0.1983 -0.2282  0.5697
  546SOL    HW1 2182   2.880   2.036   0.076 -3.9989  0.2902 -1.5763
  546SOL    HW2 2183   2.975   1.924   0.096 -0.9849 -1.8681 -0.2037
  546SOL     MW 2184   2.891   1.957   0.106 -0.5116 -0.3762  0.1845
  547SOL     OW 2185   0.221   0.066   0.090  0.0106  0.4632  0.4536
  547SOL    HW1 2186   0.293   0.085   0.031  2.5682  1.6593 -0.2159
  547SOL    HW2 2187   0.137   0.050   0.046 -0.0311  0.6187  0.8103
  547SOL     MW 2188   0.219   0.067   0.076  0.3426  0.6416  0.4123
  548SOL     OW 2189   0.315   2.495   0.230  0.0716  0.3981  0.8005
  548SOL    HW1 2190   0.337   2.534   0.143  2.2283  0.2104  1.1181
  548SOL    HW2 2191   0.243   2.441   0.220  0.9785  2.8195  0.7037
  548SOL     MW 2192   0.308   2.493   0.217  0.4758  0.6928  0.8296
  549SOL     OW 2193   0.856   1.929   2.109 -0.6960  0.4390 -0.3093
  549SOL    HW1 2194   0.799   1.993   2.074  2.6036 -0.2474  1.0731
  549SOL    HW2 2195   0.826   1.914   2.197  1.1839 -0.0777  2.3077
  549SOL     MW 2196   0.844   1.935   2.116 -0.0126  0.2803  0.2184
  550SOL     OW 2197   1.901   1.710   2.505 -0.6858 -0.4435 -0.3113
  550SOL    HW1 2198   1.846   1.709   2.426  1.3389 -0.1477  0.7908
  550SOL    HW2 2199   1.885   1.793   2.549  1.1992 -3.8756  0.2501
  550SOL     MW 2200   1.891   1.721   2.500 -0.1699 -0.8573 -0.0918
  551SOL     OW 2201   0.910   2.212   0.229  0.4594  0.0783 -0.5979
  551SOL    HW1 2202   1.000   2.239   0.225 -2.2095 -2.0238 -2.9391
  551SOL    HW2 2203   0.899   2.172   0.142  3.0983 -0.5084 -2.8849
  551SOL     MW 2204   0.920   2.210   0.217  0.4555 -0.2764 -1.2086
  552SOL     OW 2205   1.748   1.733   2.247  0.5223 -0.5675 -0.2863
  552SOL    HW1 2206   1.675   1.682   2.261  4.1267  1.8477 -2.9184
  552SOL    HW2 2207   1.798   1.696   2.169 -2.9310 -0.6503  0.4059
  552SOL     MW 2208   1.745   1.722   2.238  0.5423 -0.2597 -0.5422
  553SOL     OW 2209   1.223   2.321   1.545  0.6127 -0.0142  0.5273
  553SOL    HW1 2210   1.255   2.229   1.547  0.6242  0.3423 -0.4729
  553SOL    HW2 2211   1.292   2.376   1.508 -3.4249 -0.5923 -0.7110
  553SOL     MW 2212   1.237   2.316   1.540  0.0815 -0.0434  0.2320
  554SOL     OW 2213   0.485   2.935   2.705 -0.4014  0.5722 -0.5210
  554SOL    HW1 2214   0.465   2.989   2.632  2.3135  1.3153  1.3850
  554SOL    HW2 2215   0.556   2.877   2.674  2.0024  2.1291  1.7169
  554SOL     MW 2216   0.491   2.934   2.691  0.2739  0.8757  0.0257
  555SOL     OW 2217   0.609   2.519   2.626  1.0172  0.7069  0.2025
  555SOL    HW1 2218   0.579   2.431   2.660  0.9471 -0.2086  0.7063
  555SOL    HW2 2219   0.680   2.498   2.565 -0.2864  0.9442  2.9688
  555SOL     MW 2220   0.614   2.505   2.622  0.8359  0.6174  0.6340
  556SOL     OW 2221   1.064   1.873   0.060 -0.0736 -0.1008 -0.2273
  556SOL    HW1 2222   1.068   1.804  -0.006 -0.1849 -0.5238  0.9412
  556SOL    HW2 2223   1.141   1.874   0.112 -2.1985 -0.1135  3.4640
  556SOL     MW 2224   1.074   1.864   0.058 -0.3687 -0.1583  0.4139
  557SOL     OW 2225   1.046   2.729   0.551  0.1505 -0.2564  0.2345
  557SOL    HW1 2226   1.047   2.673   0.479  0.2822  3.1544  2.6705
  557SOL    HW2 2227   1.014   2.814   0.514  1.7294 -1.1802 -1.0833
  557SOL     MW 2228   1.042   2.733   0.536  0.3762  0.0717  0.3820
  558SOL     OW 2229   0.200   2.228   3.048  0.2828  0.3640 -0.3688
  558SOL    HW1 2230   0.140   2.168   3.000  1.6378 -2.4109 -0.7071
  558SOL    HW2 2231   0.143   2.276   3.111 -2.9573  0.6840  2.1063
  558SOL     MW 2232   0.184   2.226   3.050  0.0341  0.0401 -0.0869
  559SOL     OW 2233   1.067   2.357   2.181 -0.2136 -0.4395  1.0198
  559SOL    HW1 2234   1.155   2.388   2.169 -0.1171  0.0568  1.3436
  559SOL    HW2 2235   1.074   2.263   2.210 -0.7888  1.6055  2.9080
  559SOL     MW 2236   1.080   2.349   2.183 -0.2768 -0.1042  1.3116
  560SOL     OW 2237   2.134   2.670   0.166  0.7833  0.0021  0.0056
  560SOL    HW1 2238   2.134   2.751   0.109  1.4007  0.0449  1.6117
  560SOL    HW2 2239   2.065   2.614   0.133  0.3261  0.1347  0.7125
  560SOL     MW 2240   2.125   2.674   0.154  0.8044  0.0253  0.3108
  561SOL     OW 2241   0.498   2.169   0.171 -0.0994 -0.0678  0.8587
  561SOL    HW1 2242   0.455   2.212   0.097 -1.7510  3.1873  3.0446
  561SOL    HW2 2243   0.562   2.241   0.197 -1.5695  0.0244  0.9170
  561SOL     MW 2244   0.501   2.184   0.164 -0.5113  0.3738  1.1548
  562SOL     OW 2245   0.692   2.272   2.367 -0.5366  0.3370 -0.2271
  562SOL    HW1 2246   0.643   2.319   2.303 -1.3079  1.7975  3.3487
  562SOL    HW2 2247   0.771   2.312   2.404 -0.8492 -0.8076  0.4299
  562SOL     MW 2248   0.696   2.283   2.364 -0.6796  0.3787  0.3314
  563SOL     OW 2249   1.224   0.390   0.580 -0.1864 -0.0373 -0.0237
  563SOL    HW1 2250   1.177   0.348   0.511 -1.1997  2.7894  1.6664
  563SOL    HW2 2251   1.195   0.357   0.662  1.3461 -0.2077  3.0054
  563SOL     MW 2252   1.214   0.380   0.582 -0.1179  0.3132  0.5989
  564SOL     OW 2253   1.024   2.667   2.366 -0.2224  0.4674 -0.0158
  564SOL    HW1 2254   1.021   2.746   2.303  1.6809  0.4754  0.1249
  564SOL    HW2 2255   1.047   2.686   2.459 -0.2304 -1.8792 -1.2605
  564SOL     MW 2256   1.027   2.680   2.370  0.0276  0.1588 -0.1615
  565SOL     OW 2257   2.761   2.826   2.570 -0.1710 -0.6941  0.9319
  565SOL    HW1 2258   2.719   2.897   2.520  0.5857 -1.1310 -0.1610
  565SOL    HW2 2259   2.754   2.739   2.522 -0.1121  0.5534  2.0099
  565SOL     MW 2260   2.754   2.824   2.557 -0.0634 -0.5872  0.9300
  566SOL     OW 2261   2.196   1.960   2.351  0.2858  0.2934 -0.2362
  566SOL    HW1 2262   2.214   1.931   2.264 -3.2355  0.0708 -0.3909
  566SOL    HW2 2263   2.261   2.028   2.351 -0.1404 -2.3429  0.6148
  566SOL     MW 2264   2.207   1.965   2.339 -0.2350 -0.0838 -0.1444
  567SOL     OW 2265   1.186   3.043   0.037 -0.5625  1.0768 -0.3036
  567SOL    HW1 2266   1.137   3.051   0.118  0.5939 -0.3161 -0.4184
  567SOL    HW2 2267   1.229   2.955   0.049  1.3077  0.2989  0.7978
  567SOL     MW 2268   1.185   3.032   0.049 -0.1632  0.7904 -0.1735
  568SOL     OW 2269   1.652   2.040   2.841 -0.2582 -0.4047 -0.0077
  568SOL    HW1 2270   1.692   2.090   2.916 -1.0699 -0.8881 -1.2716
  568SOL    HW2 2271   1.729   1.984   2.809  1.1618 -2.1311 -0.2861
  568SOL     MW 2272   1.667   2.039   2.847 -0.1779 -0.6963 -0.2112
  569SOL     OW 2273   0.111   2.253   2.438  0.3805  0.0762  0.0478
  569SOL    HW1 2274   0.058   2.317   2.384  0.5205  1.4401  3.9299
  569SOL    HW2 2275   0.140   2.302   2.513 -2.7112 -3.3733  0.3021
  569SOL     MW 2276   0.108   2.268   2.441 -0.0089 -0.1990  0.5936
  570SOL     OW 2277   1.492   0.333   0.468  0.5570 -0.0452 -0.3814
  570SOL    HW1 2278   1.414   0.368   0.506 -3.0083 -2.1105 -0.0370
  570SOL    HW2 2279   1.562   0.359   0.526 -0.1679 -1.4570 -3.2268
  570SOL     MW 2280   1.491   0.341   0.481 -0.0090 -0.5040 -0.7114
  571SOL     OW 2281   1.339   2.384   2.141  0.3081  0.1493 -0.1273
  571SOL    HW1 2282   1.386   2.412   2.225 -0.5638  0.2374  0.4120
  571SOL    HW2 2283   1.399   2.317   2.100 -0.5837 -0.9805  0.2650
  571SOL     MW 2284   1.353   2.379   2.147  0.0754  0.0119 -0.0044
  572SOL     OW 2285   1.078   2.576   0.082  0.5409  0.4982  0.1778
  572SOL    HW1 2286   1.068   2.660   0.019  1.3455 -0.7557 -1.1540
  572SOL    HW2 2287   0.985   2.555   0.107  0.4682  0.2351  0.2819
  572SOL     MW 2288   1.064   2.584   0.077  0.6375  0.2980  0.0158
  573SOL     OW 2289   1.182   2.267   0.243  0.1724  0.2614  0.6731
  573SOL    HW1 2290   1.264   2.267   0.193 -0.9173 -0.3299 -1.0348
  573SOL    HW2 2291   1.183   2.358   0.281 -1.7186  1.3086  2.4515
  573SOL     MW 2292   1.193   2.279   0.241 -0.2208  0.3216  0.6824
  574SOL     OW 2293   1.156   2.510   0.343  0.0010  0.6061  0.4106
  574SOL    HW1 2294   1.232   2.567   0.367  3.0293  1.8838  2.3223
  574SOL    HW2 2295   1.129   2.557   0.260  1.9946 -1.4601  1.3444
  574SOL     MW 2296   1.163   2.524   0.335  0.6636  0.5021  0.7860
  575SOL     OW 2297   3.071   2.195   1.623  0.0219 -0.1439 -0.5756
  575SOL    HW1 2298   3.096   2.102   1.622 -0.6126 -0.9574  0.2452
  575SOL    HW2 2299   3.138   2.243   1.670  1.2644  1.6317 -3.5412
  575SOL     MW 2300   3.083   2.189   1.629  0.1021 -0.0170 -0.8586
  576SOL     OW 2301   2.869   1.875   1.959  0.1760  0.0748  0.0627
  576SOL    HW1 2302   2.897   1.954   1.915  2.1849 -0.1086  0.3052
  576SOL    HW2 2303   2.811   1.838   1.887 -0.5613 -0.5529 -3.7926
  576SOL     MW 2304   2.865   1.881   1.943  0.3438 -0.0323 -0.4140
  577SOL     OW 2305   2.109   0.149   0.008 -0.1771 -0.8503  0.6220
  577SOL    HW1 2306   2.033   0.137  -0.054 -1.0941  1.0259 -2.1655
  577SOL    HW2 2307   2.086   0.107   0.087  1.0790  1.6916 -0.7846
  577SOL     MW 2308   2.096   0.142   0.010 -0.1324 -0.2674  0.0686
  578SOL     OW 2309   1.983   2.143   2.372  0.1698 -0.1578 -0.6569
  578SOL    HW1 2310   1.910   2.117   2.314  1.0867  1.2933  0.0890
  578SOL    HW2 2311   2.051   2.070   2.375  0.7816  1.1521  0.9076
  578SOL     MW 2312   1.982   2.130   2.365  0.3715  0.2065 -0.3521
  579SOL     OW 2313   0.834   2.459   2.467 -0.3137  0.9129  0.1685
  579SOL    HW1 2314   0.884   2.395   2.511 -0.1243  2.3071  0.3481
  579SOL    HW2 2315   0.882   2.511   2.404  1.8883  0.8530  2.4813
  579SOL     MW 2316   0.847   2.458   2.464  0.0018  1.0890  0.4974
  580SOL     OW 2317   0.971   2.861   3.082  0.2924  0.1010  0.2309
  580SOL    HW1 2318   1.049   2.916   3.064 -1.7753  2.4065  0.7962
  580SOL    HW2 2319   0.936   2.809   3.005 -2.4761  0.0081  0.4616
  580SOL     MW 2320   0.976   2.861   3.069 -0.3457  0.3930  0.3359
  581SOL     OW 2321   1.123   2.438   1.777 -0.2144  0.0845  0.3233
  581SOL    HW1 2322   1.193   2.490   1.816  1.0426  1.8772 -0.7878
  581SOL    HW2 2323   1.165   2.395   1.705  1.4468 -0.1261  0.0437
  581SOL     MW 2324   1.138   2.439   1.772  0.1706  0.2932  0.1398
  582SOL     OW 2325   3.086   2.942   2.656 -0.4633  0.8467 -0.0239
  582SOL    HW1 2326   3.015   2.995   2.696  2.4467  1.2469 -1.8027
  582SOL    HW2 2327   3.164   2.961   2.707  0.0796 -2.3097  1.7922
  582SOL     MW 2328   3.087   2.951   2.668 -0.0077  0.4831 -0.0190
  583SOL     OW 2329   1.960   2.412   2.627 -0.2804  0.5921  0.4803
  583SOL    HW1 2330   2.052   2.422   2.603 -1.8370 -1.0263  1.8383
  583SOL    HW2 2331   1.950   2.318   2.646 -1.2433 -1.2181  1.0234
  583SOL     MW 2332   1.971   2.401   2.626 -0.6128  0.1397  0.7311
  584SOL     OW 2333   0.164   1.894   2.196  0.5636  0.4466 -0.0370
  584SOL    HW1 2334   0.193   1.853   2.275 -0.0227  2.1747 -1.3208
  584SOL    HW2 2335   0.216   1.978   2.195  3.7622 -1.4517  1.8593
  584SOL     MW 2336   0.174   1.900   2.206  0.9082  0.4242  0.0438
  585SOL     OW 2337   1.550   2.711   0.169 -0.0109 -0.0719 -0.0901
  585SOL    HW1 2338   1.531   2.673   0.086 -1.1912  0.0169 -0.2435
  585SOL    HW2 2339   1.469   2.705   0.223  2.0365 -0.2299  0.7197
  585SOL     MW 2340   1.537   2.705   0.165  0.1035 -0.0810 -0.0035
  586SOL     OW 2341   1.340   2.814   2.555 -0.0368 -0.0919 -0.2403
  586SOL    HW1 2342   1.404   2.784   2.487  0.5243  0.8741  0.1866
  586SOL    HW2 2343   1.350   2.908   2.548 -0.8862  2.9384 -1.3141
  586SOL     MW 2344   1.350   2.822   2.545 -0.0748  0.4353 -0.3257
  587SOL     OW 2345   1.340   1.443   2.172 -0.2955 -0.1642  0.1021
  587SOL    HW1 2346   1.298   1.390   2.238 -0.1978  0.7347 -0.9552
  587SOL    HW2 2347   1.322   1.394   2.090 -0.7894 -0.5868 -2.5107
  587SOL     MW 2348   1.332   1.430   2.170 -0.3477 -0.1014 -0.3822
  588SOL     OW 2349   1.352   2.012   2.704 -0.5482  0.0909 -0.0005
  588SOL    HW1 2350   1.365   1.920   2.728 -0.9867  1.3068  0.9256
  588SOL    HW2 2351   1.321   2.059   2.782  2.1338  2.4637  1.4008
  588SOL     MW 2352   1.350   2.006   2.718 -0.2522  0.5644  0.3066
  589SOL     OW 2353   1.381   2.028   0.054 -0.9616 -0.3209 -0.1103
  589SOL    HW1 2354   1.411   2.122   0.076  1.3949  0.6571  1.1463
  589SOL    HW2 2355   1.341   1.994   0.133 -2.7357 -1.1989 -1.0757
  589SOL     MW 2356   1.380   2.036   0.067 -0.8848 -0.3077 -0.0719
  590SOL     OW 2357   0.524   2.665   2.170 -0.4591 -0.0161 -0.0056
  590SOL    HW1 2358   0.522   2.693   2.078 -0.7338  1.5374 -1.9616
  590SOL    HW2 2359   0.596   2.708   2.218 -1.3593  0.2439  0.6685
  590SOL     MW 2360   0.533   2.675   2.165 -0.6141  0.2232 -0.1748
  591SOL     OW 2361   2.214   0.677   0.151 -0.1896 -0.3889  0.4159
  591SOL    HW1 2362   2.134   0.706   0.207 -3.5358  0.0083  2.3123
  591SOL    HW2 2363   2.203   0.743   0.087 -1.2637  1.4393  0.5253
  591SOL     MW 2364   2.202   0.690   0.150 -0.7728 -0.0953  0.6805
  592SOL     OW 2365   1.660   2.925   0.811 -0.1642 -0.3028 -0.3539
  592SOL    HW1 2366   1.666   3.017   0.804  1.4000 -1.4269 -2.0928
  592SOL    HW2 2367   1.750   2.889   0.796  0.2401 -1.6518 -1.4326
  592SOL     MW 2368   1.672   2.932   0.808  0.0955 -0.6291 -0.7256
  593SOL     OW 2369   1.928   0.718   0.760 -0.2146 -0.0563 -0.4084
  593SOL    HW1 2370   1.862   0.721   0.685 -1.4919 -2.1623 -2.9675
  593SOL    HW2 2371   1.976   0.637   0.733  0.4368  1.5042 -2.7062
  593SOL     MW 2372   1.926   0.708   0.746 -0.2972 -0.1283 -1.0492
  594SOL     OW 2373   2.798   1.002   1.413  0.0227 -0.8397 -0.5214
  594SOL    HW1 2374   2.878   1.046   1.391 -1.9701  0.7068 -1.3688
  594SOL    HW2 2375   2.731   1.035   1.354  1.8007  2.2240  1.9488
  594SOL     MW 2376   2.800   1.012   1.402 -0.0056 -0.2314 -0.3073
  595SOL     OW 2377   0.526   0.914   0.838  0.1869  0.0245  0.3131
  595SOL    HW1 2378   0.488   0.970   0.771  1.1624 -1.7300 -2.9145
  595SOL    HW2 2379   0.598   0.961   0.889  1.0386 -0.3913 -0.3560
  595SOL     MW 2380   0.531   0.928   0.836  0.4280 -0.2619 -0.2010
  596SOL     OW 2381   2.463   1.371   0.492 -0.2750  0.2294 -0.5064
  596SOL    HW1 2382   2.463   1.433   0.421  1.0626 -2.0960 -1.7979
  596SOL    HW2 2383   2.516   1.422   0.551 -0.5278 -0.1768 -0.5356
  596SOL     MW 2384   2.470   1.386   0.490 -0.1319 -0.1310 -0.6807
  597SOL     OW 2385   2.241   0.639   1.570 -0.5161  0.4800 -0.1625
  597SOL    HW1 2386   2.270   0.609   1.654 -1.5113  2.4980 -2.4278
  597SOL    HW2 2387   2.177   0.570   1.534  2.0995  0.1564  1.0970
  597SOL     MW 2388   2.236   0.626   1.576 -0.3023  0.7036 -0.2952
  598SOL     OW 2389   2.593   1.039   2.895  0.0266  0.1663 -0.0526
  598SOL    HW1 2390   2.616   0.952   2.925 -1.0647 -0.0550 -0.2519
  598SOL    HW2 2391   2.671   1.090   2.889  0.2534 -2.8168  0.1611
  598SOL     MW 2392   2.606   1.034   2.898 -0.0875 -0.2565 -0.0507
  599SOL     OW 2393   3.083   0.460   2.275 -0.4754  0.6045  0.2944
  599SOL    HW1 2394   3.172   0.481   2.318  3.7753  1.5315  0.1256
  599SOL    HW2 2395   3.077   0.527   2.207  1.1060  2.4724 -1.9640
  599SOL     MW 2396   3.094   0.472   2.272  0.2941  0.9732 -0.0258
  600SOL     OW 2397   1.831   1.714   0.830 -0.5449 -0.2925  0.2863
  600SOL    HW1 2398   1.865   1.751   0.912  0.1428 -0.1787 -1.8661
  600SOL    HW2 2399   1.750   1.765   0.817 -0.1026 -0.1066 -0.0159
  600SOL     MW 2400   1.825   1.725   0.839 -0.3959 -0.2529 -0.0375
  601SOL     OW 2401   2.553   0.760   0.841 -0.3331  0.2563  0.7704
  601SOL    HW1 2402   2.537   0.744   0.931  1.6394  2.5002 -1.0982
  601SOL    HW2 2403   2.518   0.687   0.791  2.0923 -1.4741 -1.1104
  601SOL     MW 2404   2.546   0.749   0.846  0.2472  0.3240  0.2757
  602SOL     OW 2405   2.257   1.899   0.763  0.2193  0.4350  0.0555
  602SOL    HW1 2406   2.203   1.834   0.713 -2.5044 -1.6490 -0.5001
  602SOL    HW2 2407   2.213   1.977   0.756  0.7398  0.9829  2.2617
  602SOL     MW 2408   2.244   1.900   0.755 -0.0714  0.2323  0.2733
  603SOL     OW 2409   2.984   1.369   1.962  0.4064 -0.2852  0.3941
  603SOL    HW1 2410   2.972   1.426   2.036 -1.1107 -0.4950 -2.5017
  603SOL    HW2 2411   3.023   1.298   2.003 -0.0248 -0.1626 -2.4150
  603SOL     MW 2412   2.987   1.367   1.977  0.1494 -0.2967 -0.3586
  604SOL     OW 2413   2.022   1.365   0.357 -0.3311  0.2141 -1.0282
  604SOL    HW1 2414   2.088   1.315   0.410 -0.7704  2.1169 -0.3249
  604SOL    HW2 2415   1.972   1.410   0.426 -0.1371 -1.2001  1.1979
  604SOL     MW 2416   2.024   1.364   0.373 -0.3635  0.2786 -0.6417
  605SOL     OW 2417   2.427   1.442   0.801  0.2447 -0.0217  0.3383
  605SOL    HW1 2418   2.457   1.520   0.759 -0.2459  0.7060  0.7169
  605SOL    HW2 2419   2.486   1.372   0.768  0.1896  0.4835 -1.0201
  605SOL     MW 2420   2.439   1.443   0.791  0.1727  0.1410  0.2090
  606SOL     OW 2421   2.697   1.751   1.809  0.3353  0.5002 -0.0895
  606SOL    HW1 2422   2.608   1.782   1.803 -0.0927 -0.9919  1.5284
  606SOL    HW2 2423   2.679   1.651   1.801  2.4030 -0.9182  0.8221
  606SOL     MW 2424   2.683   1.742   1.807  0.5516  0.1162  0.2442
  607SOL     OW 2425   2.384   0.965   3.074  0.0653  0.0194  0.2735
  607SOL    HW1 2426   2.459   0.993   3.019 -0.1432 -0.3631  0.2255
  607SOL    HW2 2427   2.426   0.971   3.162 -1.8033  1.0744 -1.3001
  607SOL     MW 2428   2.399   0.969   3.078 -0.2088  0.1081  0.0595
  608SOL     OW 2429   1.869   0.248   0.515  0.2497  0.1762 -0.2543
  608SOL    HW1 2430   1.852   0.274   0.425 -3.2158 -0.4065 -2.6725
  608SOL    HW2 2431   1.841   0.151   0.525  0.3551 -0.4286 -1.9831
  608SOL     MW 2432   1.863   0.238   0.505 -0.1937  0.0195 -0.8015
  609SOL     OW 2433   2.129   1.882   3.062  0.2055  0.2635 -0.3244
  609SOL    HW1 2434   2.057   1.826   3.022  0.9234 -0.8026  0.6743
  609SOL    HW2 2435   2.111   1.866   3.154  0.6639 -1.2639 -0.7583
  609SOL     MW 2436   2.117   1.873   3.069  0.3607 -0.0787 -0.2499
  610SOL     OW 2437   1.826   0.938   1.217 -0.5767  0.3782 -0.6187
  610SOL    HW1 2438   1.842   0.882   1.142 -1.7835 -0.2141  0.2713
  610SOL    HW2 2439   1.727   0.974   1.207 -1.4525  0.8096  1.5889
  610SOL     MW 2440   1.815   0.936   1.205 -0.8515  0.3570 -0.2100
  611SOL     OW 2441   2.462   1.656   0.608 -0.2130  0.1967 -0.6316
  611SOL    HW1 2442   2.491   1.635   0.521 -0.5746 -0.7800  1.6330
  611SOL    HW2 2443   2.462   1.750   0.609 -1.4166  1.4246  1.8357
  611SOL     MW 2444   2.466   1.666   0.596 -0.4195  0.2299 -0.0073
  612SOL     OW 2445   2.883   2.923   0.350 -0.8371 -0.3278  0.1554
  612SOL    HW1 2446   2.926   2.973   0.425  0.2100  0.5203  2.8075
  612SOL    HW2 2447   2.962   2.871   0.321  0.5946  0.5252  0.8239
  612SOL     MW 2448   2.899   2.923   0.356 -0.5100 -0.1033  0.5936
  613SOL     OW 2449   1.433   1.107   1.004 -0.4651 -0.2564 -0.1508
  613SOL    HW1 2450   1.446   1.201   1.024  0.2847 -0.2187  1.2172
  613SOL    HW2 2451   1.500   1.075   1.066  0.0870  1.9614  0.5755
  613SOL     MW 2452   1.444   1.115   1.015 -0.2934  0.0412  0.1255
  614SOL     OW 2453   2.032   0.470   1.396  0.1464  0.1265  0.4472
  614SOL    HW1 2454   2.011   0.427   1.484 -0.3337 -0.6709  2.1476
  614SOL    HW2 2455   1.963   0.526   1.367  1.1648  1.2212  1.0963
  614SOL     MW 2456   2.020   0.472   1.404  0.2174  0.1657  0.7572
  615SOL     OW 2457   2.421   0.725   0.337  0.0984 -0.3342  0.3466
  615SOL    HW1 2458   2.493   0.661   0.325  0.1513  0.6874 -2.1045
  615SOL    HW2 2459   2.355   0.704   0.271 -3.6786 -0.8648 -0.2737
  615SOL     MW 2460   2.422   0.714   0.327 -0.3929 -0.2695 -0.0587
  616SOL     OW 2461   2.584   0.414   1.618  0.4205 -0.0851  0.5108
  616SOL    HW1 2462   2.612   0.336   1.570 -0.4200 -1.3788 -0.5840
  616SOL    HW2 2463   2.563   0.465   1.542 -1.0971 -3.3156 -0.9127
  616SOL     MW 2464   2.585   0.410   1.602  0.1094 -0.6821  0.1786
  617SOL     OW 2465   2.833   0.547   1.860  0.0745  0.0258 -0.5071
  617SOL    HW1 2466   2.777   0.551   1.935  1.0701  0.9892 -2.7544
  617SOL    HW2 2467   2.837   0.459   1.826 -0.6948 -0.8822 -0.3548
  617SOL     MW 2468   2.826   0.535   1.865  0.1044  0.0331 -0.7836
  618SOL     OW 2469   2.807   0.255   2.005  0.4067  0.5672 -0.2983
  618SOL    HW1 2470   2.756   0.290   2.085  0.9814 -0.7723  2.0330
  618SOL    HW2 2471   2.891   0.216   2.038  0.4686 -1.3563  1.3779
  618SOL     MW 2472   2.812   0.254   2.020  0.4907  0.1367  0.2305
  619SOL     OW 2473   2.701   0.712   0.083  0.0255  0.2102 -0.1731
  619SOL    HW1 2474   2.727   0.801   0.071 -0.1171  1.3452  1.6323
  619SOL    HW2 2475   2.745   0.687   0.160  0.0280  1.4315 -1.9910
  619SOL     MW 2476   2.710   0.721   0.092  0.0070  0.5211 -0.1748
  620SOL     OW 2477   2.233   1.034   0.948  0.2001 -0.1278 -0.0255
  620SOL    HW1 2478   2.305   1.028   0.885 -1.4974 -1.1782 -1.7062
  620SOL    HW2 2479   2.162   1.009   0.886 -1.2881 -0.5760  0.6837
  620SOL     MW 2480   2.233   1.030   0.931 -0.2202 -0.3255 -0.1537
  621SOL     OW 2481   1.505   2.202   2.012 -0.1772 -0.7067 -0.0706
  621SOL    HW1 2482   1.479   2.112   2.045  3.1582  1.1805  0.9899
  621SOL    HW2 2483   1.602   2.199   2.007 -1.1910  2.3104 -1.4184
  621SOL     MW 2484   1.514   2.190   2.016  0.1291 -0.0596 -0.1085
  622SOL     OW 2485   2.643   0.293   0.218 -0.2958  0.0287  0.0125
  622SOL    HW1 2486   2.734   0.332   0.238 -0.9879  2.9248  1.8319
  622SOL    HW2 2487   2.656   0.199   0.222  3.0475  2.0403  0.3155
  622SOL     MW 2488   2.657   0.285   0.221  0.0540  0.6762  0.2925
  623SOL     OW 2489   2.369   2.768   0.822 -0.0053  0.1964  0.0413
  623SOL    HW1 2490   2.443   2.824   0.822 -0.3081  2.9108 -1.2102
  623SOL    HW2 2491   2.327   2.774   0.912  0.1991  0.1653 -0.1276
  623SOL     MW 2492   2.373   2.776   0.834 -0.0183  0.5505 -0.1461
  624SOL     OW 2493   2.121   1.558   3.057 -0.3797  0.5094 -0.4980
  624SOL    HW1 2494   2.067   1.492   3.020 -1.2423  1.4275 -0.3103
  624SOL    HW2 2495   2.072   1.642   3.039 -1.2659  0.0319 -0.0231
  624SOL     MW 2496   2.107   1.560   3.050 -0.6104  0.5676 -0.4106
  625SOL     OW 2497   2.173   1.855   1.009 -0.1063 -0.3707  0.0177
  625SOL    HW1 2498   2.211   1.783   1.059 -0.2602  1.9024 -1.5068
  625SOL    HW2 2499   2.224   1.851   0.928  0.9487  1.9411  0.7542
  625SOL     MW 2500   2.185   1.845   1.005  0.0126  0.2342 -0.0863
  626SOL     OW 2501   0.184   1.846   2.469 -1.1161  0.1764  0.0845
  626SOL    HW1 2502   0.129   1.774   2.485  3.7375 -1.7014 -0.2977
  626SOL    HW2 2503   0.122   1.920   2.481 -1.4166  1.3650 -0.5766
  626SOL     MW 2504   0.169   1.846   2.473 -0.5154  0.0855 -0.0531
  627SOL     OW 2505   2.616   0.811   2.573  0.6359  0.0504  0.1319
  627SOL    HW1 2506   2.524   0.850   2.583 -0.0577  1.8552  2.4161
  627SOL    HW2 2507   2.612   0.779   2.482 -1.1397  1.0386 -0.7691
  627SOL     MW 2508   2.603   0.812   2.562  0.3101  0.4189  0.3144
  628SOL     OW 2509   2.344   1.439   1.296  0.5605  0.7618 -0.2244
  628SOL    HW1 2510   2.345   1.355   1.255 -0.8666 -0.2105 -0.0667
  628SOL    HW2 2511   2.403   1.489   1.237 -1.7872  1.2291 -2.4049
  628SOL     MW 2512   2.352   1.435   1.283  0.0624  0.6951 -0.4913
  629SOL     OW 2513   1.813   0.626   1.324 -0.1379 -0.0252  0.1229
  629SOL    HW1 2514   1.852   0.663   1.246  0.2457 -0.4910 -1.0658
  629SOL    HW2 2515   1.723   0.609   1.294  0.3088  3.7077  0.4094
  629SOL     MW 2516   1.806   0.628   1.310 -0.0284  0.4059  0.0039
  630SOL     OW 2517   2.398   1.901   3.066 -0.6143  0.4075  0.1652
  630SOL    HW1 2518   2.406   1.990   3.026  1.3551  2.2034 -2.9072
  630SOL    HW2 2519   2.301   1.877   3.063 -0.1016 -2.4397 -0.2331
  630SOL     MW 2520   2.386   1.910   3.060 -0.2868  0.2688 -0.2927
  631SOL     OW 2521   2.091   1.839   1.498  0.1191  0.2921 -0.0944
  631SOL    HW1 2522   2.088   1.746   1.529  1.1140 -0.7432  1.7196
  631SOL    HW2 2523   2.005   1.859   1.464 -0.0198 -0.2692 -1.5651
  631SOL     MW 2524   2.079   1.830   1.497  0.2320  0.0814 -0.0491
  632SOL     OW 2525   0.335   1.869   1.501  0.7983 -0.1319 -0.7598
  632SOL    HW1 2526   0.248   1.905   1.511 -2.9702  0.0335  0.6839
  632SOL    HW2 2527   0.318   1.778   1.499 -2.0395 -0.0439 -1.0813
  632SOL     MW 2528   0.321   1.862   1.502 -0.0733 -0.0985 -0.6118
  633SOL     OW 2529   2.578   0.519   0.365  0.4583 -0.0864 -0.3317
  633SOL    HW1 2530   2.658   0.514   0.414 -0.6785 -0.0857 -2.2469
  633SOL    HW2 2531   2.569   0.445   0.310 -0.8786  2.0114 -0.6020
  633SOL     MW 2532   2.588   0.508   0.364  0.1319  0.1905 -0.6200
  634SOL     OW 2533   2.681   3.071   0.589  1.1517 -0.2835 -0.3194
  634SOL    HW1 2534   2.661   3.165   0.574  0.0774  0.2418  0.2715
  634SOL    HW2 2535   2.649   3.026   0.510 -1.5605 -0.6842  0.2321
  634SOL     MW 2536   2.674   3.078   0.576  0.6521 -0.2671 -0.1687
  635SOL     OW 2537   2.633   0.033   1.880 -0.0287 -0.8252  0.0004
  635SOL    HW1 2538   2.679  -0.009   1.802 -3.3231 -0.6299  1.5650
  635SOL    HW2 2539   2.687   0.111   1.897  3.7985 -0.3168  0.2291
  635SOL     MW 2540   2.646   0.037   1.872  0.0416 -0.7323  0.2370
  636SOL     OW 2541   2.710   1.697   0.754  0.2753 -0.3973  0.4936
  636SOL    HW1 2542   2.628   1.682   0.705 -1.0206  3.0251  0.7551
  636SOL    HW2 2543   2.681   1.769   0.809  2.2365  0.8451 -0.4561
  636SOL     MW 2544   2.695   1.705   0.755  0.3631  0.2182  0.4028
  637SOL     OW 2545   2.881   1.487   0.689  0.6082 -0.4658  0.2289
  637SOL    HW1 2546   2.905   1.564   0.631  0.3902  0.0603  0.4881
  637SOL    HW2 2547   2.815   1.527   0.747  3.6167 -0.2512  0.4879
  637SOL     MW 2548   2.875   1.503   0.689  0.9764 -0.3681  0.2973
  638SOL     OW 2549   2.834   0.538   0.533 -0.1094  0.1427  0.0102
  638SOL    HW1 2550   2.903   0.595   0.508  0.2340 -0.1131  1.3105
  638SOL    HW2 2551   2.844   0.544   0.626  2.3358  0.8861 -2.9310
  638SOL     MW 2552   2.844   0.546   0.542  0.2586  0.2070 -0.2063
  639SOL     OW 2553   1.797   3.076   0.548  0.5249  0.7297 -0.0128
  639SOL    HW1 2554   1.712   3.046   0.548  3.2836 -2.1049  0.6635
  639SOL    HW2 2555   1.857   3.019   0.505  0.9602 -1.8028  0.7769
  639SOL     MW 2556   1.794   3.065   0.542  0.9463  0.0216  0.1806
  640SOL     OW 2557   0.288   1.426   0.094  0.1463 -0.0890 -0.3819
  640SOL    HW1 2558   0.340   1.419   0.016  3.4618 -1.1496  5.2000
  640SOL    HW2 2559   0.296   1.338   0.135 -0.1992  0.2478  0.8301
  640SOL     MW 2560   0.296   1.414   0.089  0.5382 -0.1845  0.5145
  641SOL     OW 2561   2.253   0.334   0.412  0.7763  0.1883  0.1072
  641SOL    HW1 2562   2.269   0.259   0.351  1.9215  1.1671 -0.5502
  641SOL    HW2 2563   2.311   0.322   0.483  2.3270  0.0072 -0.5874
  641SOL     MW 2564   2.263   0.322   0.413  1.1319  0.2935 -0.0712
  642SOL     OW 2565   0.081   3.092   0.505  0.0168 -0.4822 -1.0286
  642SOL    HW1 2566   0.067   3.183   0.470  0.1402  2.2810  2.3905
  642SOL    HW2 2567  -0.005   3.064   0.542  2.1918 -3.1447  1.5412
  642SOL     MW 2568   0.068   3.101   0.505  0.3201 -0.4690 -0.2384
  643SOL     OW 2569   2.118   0.309   1.667  0.5285  0.3693  0.3130
  643SOL    HW1 2570   2.028   0.290   1.695  0.4091  1.0924  0.1942
  643SOL    HW2 2571   2.142   0.251   1.594  0.3711 -0.7816 -1.4879
  643SOL     MW 2572   2.109   0.299   1.661  0.4920  0.3129  0.0597
  644SOL     OW 2573   2.675   1.881   0.943  0.9615 -0.4462 -0.3066
  644SOL    HW1 2574   2.671   1.833   1.027  0.5403  0.6707 -0.7068
  644SOL    HW2 2575   2.595   1.933   0.960  0.0626  0.1194 -0.3231
  644SOL     MW 2576   2.664   1.881   0.957  0.7874 -0.2242 -0.3616
  645SOL     OW 2577   2.789   0.919   0.787  0.0174  0.7726  0.7719
  645SOL    HW1 2578   2.861   0.856   0.797 -0.2115  0.9629 -0.4955
  645SOL    HW2 2579   2.724   0.908   0.858  1.4534 -0.3522 -0.0478
  645SOL     MW 2580   2.790   0.910   0.798  0.1767  0.6493  0.4965
  646SOL     OW 2581   0.148   2.262   0.863 -0.9499  0.0330  0.1871
  646SOL    HW1 2582   0.158   2.159   0.855  2.1477  0.9774 -1.3029
  646SOL    HW2 2583   0.098   2.277   0.783  1.0828 -0.3946 -0.4317
  646SOL     MW 2584   0.143   2.251   0.852 -0.2730  0.1012 -0.0912
  647SOL     OW 2585   2.789   0.518   2.989  0.0316 -0.2557  0.2026
  647SOL    HW1 2586   2.725   0.449   2.994 -2.3630  0.1104  0.2705
  647SOL    HW2 2587   2.752   0.593   3.029  1.5362 -0.5146 -0.2698
  647SOL     MW 2588   2.775   0.518   2.995 -0.0858 -0.2415  0.1493
  648SOL     OW 2589   2.180   0.636   1.130 -1.0007 -0.2840  0.0896
  648SOL    HW1 2590   2.219   0.579   1.194 -2.3167  0.9145 -2.2464
  648SOL    HW2 2591   2.187   0.728   1.159 -0.2755  0.8190 -3.3211
  648SOL     MW 2592   2.186   0.641   1.142 -1.0786  0.0196 -0.6686
  649SOL     OW 2593   2.394   2.703   1.309  0.0117 -0.1627  0.3235
  649SOL    HW1 2594   2.476   2.743   1.288 -1.1921  0.4652  1.4257
  649SOL    HW2 2595   2.411   2.606   1.294  1.7426 -0.5421  1.9908
  649SOL     MW 2596   2.407   2.695   1.304  0.0812 -0.1299  0.6889
  650SOL     OW 2597   2.740   0.252   0.526 -0.1033 -0.1787 -0.9157
  650SOL    HW1 2598   2.755   0.343   0.544  0.2766 -1.6505  0.3715
  650SOL    HW2 2599   2.772   0.238   0.438  0.8450 -1.5961  0.0812
  650SOL     MW 2600   2.746   0.262   0.517  0.0719 -0.5599 -0.6143
  651SOL     OW 2601   0.040   0.439   1.001 -0.2755  0.0430 -0.3512
  651SOL    HW1 2602   0.071   0.520   0.951  1.1607 -0.1323  2.0736
  651SOL    HW2 2603  -0.053   0.462   1.023 -2.4687 -0.4945 -0.0395
  651SOL     MW 2604   0.032   0.453   0.997 -0.3754 -0.0511  0.0099
  652SOL     OW 2605   2.392   1.446   2.983 -0.6559 -0.0739 -0.3614
  652SOL    HW1 2606   2.457   1.482   2.919 -0.9571 -2.3189 -3.1375
  652SOL    HW2 2607   2.338   1.521   3.016  2.4227  2.8479  0.5709
  652SOL     MW 2608   2.394   1.461   2.979 -0.2895  0.0154 -0.6047
  653SOL     OW 2609   1.845   0.343   0.232  0.4265  0.0389 -0.3756
  653SOL    HW1 2610   1.850   0.258   0.186  0.9163  2.2190 -0.0024
  653SOL    HW2 2611   1.902   0.405   0.190 -1.7923 -0.1895 -1.1179
  653SOL     MW 2612   1.853   0.340   0.221  0.1984  0.2964 -0.4243
  654SOL     OW 2613   2.429   0.993   0.752 -0.2139  0.0613 -0.6204
  654SOL    HW1 2614   2.403   0.994   0.655 -1.1444 -0.2354 -0.8661
  654SOL    HW2 2615   2.457   0.900   0.783  0.3496 -1.7030  0.5146
  654SOL     MW 2616   2.429   0.981   0.743 -0.2623 -0.2106 -0.5031
  655SOL     OW 2617   2.880   0.924   0.283 -0.1646  0.2225 -0.3894
  655SOL    HW1 2618   2.858   0.951   0.373 -0.8369  1.0261 -0.0868
  655SOL    HW2 2619   2.937   0.849   0.296  0.4988  1.2515  0.1617
  655SOL     MW 2620   2.884   0.918   0.297 -0.1658  0.4643 -0.2768
  656SOL     OW 2621   1.796   2.646   1.419 -0.1451  0.0362  0.0495
  656SOL    HW1 2622   1.822   2.718   1.365  0.9960 -0.3079  0.3510
  656SOL    HW2 2623   1.835   2.569   1.381 -2.1395 -0.2453 -0.0346
  656SOL     MW 2624   1.804   2.645   1.407 -0.2576 -0.0463  0.0782
  657SOL     OW 2625   0.067   1.781   1.127  0.2880 -0.1614 -0.3270
  657SOL    HW1 2626   0.157   1.802   1.125 -1.9666  1.1513 -0.5076
  657SOL    HW2 2627   0.053   1.688   1.140 -0.6876 -0.5297 -2.3500
  657SOL     MW 2628   0.077   1.772   1.129 -0.1382 -0.0368 -0.6178
  658SOL     OW 2629   2.649   1.356   0.227 -0.3172 -0.6032 -0.2187
  658SOL    HW1 2630   2.636   1.272   0.276 -3.4335 -1.0507  2.1632
  658SOL    HW2 2631   2.668   1.426   0.286 -0.7634 -1.9446 -1.4653
  658SOL     MW 2632   2.649   1.354   0.241 -0.7872 -0.8392 -0.0689
  659SOL     OW 2633   2.123   1.429   1.030 -0.5084 -0.4231  0.0476
  659SOL    HW1 2634   2.168   1.354   1.065  1.6538 -2.2024  0.4284
  659SOL    HW2 2635   2.061   1.457   1.100 -0.9713 -0.9175  0.4555
  659SOL     MW 2636   2.121   1.423   1.044 -0.2842 -0.7231  0.1516
  660SOL     OW 2637   2.093   1.557   1.598 -0.2683  0.8165 -0.1453
  660SOL    HW1 2638   2.118   1.593   1.682  1.6415  0.8859 -0.8156
  660SOL    HW2 2639   2.028   1.481   1.611 -2.2914  0.4267 -2.5872
  660SOL     MW 2640   2.088   1.551   1.611 -0.2832  0.7742 -0.5559
  661SOL     OW 2641   2.410   0.988   0.247  0.2968 -0.0267 -0.0234
  661SOL    HW1 2642   2.480   1.031   0.299 -0.8507  1.1051 -0.9727
  661SOL    HW2 2643   2.433   0.900   0.265  0.2744 -0.7890 -1.4575
  661SOL     MW 2644   2.422   0.982   0.256  0.1424  0.0221 -0.3379
  662SOL     OW 2645   2.557   2.965   0.828 -0.3718 -0.0245 -0.4891
  662SOL    HW1 2646   2.521   3.033   0.884 -2.6066  1.1045 -1.4958
  662SOL    HW2 2647   2.584   3.007   0.746 -1.9403 -0.4224  3.1366
  662SOL     MW 2648   2.555   2.980   0.824 -0.8736  0.0719 -0.1436
  663SOL     OW 2649   2.712   1.551   0.404 -0.0408 -0.1062 -0.1077
  663SOL    HW1 2650   2.699   1.620   0.342  0.7448 -1.1558 -0.0110
  663SOL    HW2 2651   2.775   1.591   0.469  0.4360  2.5540  3.9177
  663SOL     MW 2652   2.719   1.566   0.405  0.1258  0.1063  0.4362
  664SOL     OW 2653   2.543   1.449   1.519 -0.2972 -0.4358 -0.3634
  664SOL    HW1 2654   2.533   1.546   1.510 -1.1983 -1.6136 -0.5371
  664SOL    HW2 2655   2.454   1.421   1.526 -0.8384  0.6652 -0.6731
  664SOL     MW 2656   2.530   1.458   1.519 -0.4875 -0.4459 -0.4272
  665SOL     OW 2657   2.859   0.801   2.111  0.2057 -0.5533  0.5721
  665SOL    HW1 2658   2.798   0.840   2.045  1.6846 -0.2882 -0.7958
  665SOL    HW2 2659   2.927   0.751   2.065 -0.0991 -0.5526  0.3933
  665SOL     MW 2660   2.860   0.799   2.096  0.3606 -0.5183  0.3680
  666SOL     OW 2661   2.802   3.002   1.696  0.7752 -0.1582  0.2042
  666SOL    HW1 2662   2.818   2.994   1.601  3.6921 -1.6954 -0.3061
  666SOL    HW2 2663   2.732   2.939   1.706  0.2433 -1.2221 -0.8965
  666SOL     MW 2664   2.795   2.993   1.685  1.0899 -0.5014 -0.0084
  667SOL     OW 2665   2.002   2.742   1.722  0.5594 -0.5971  0.0788
  667SOL    HW1 2666   2.029   2.697   1.800 -0.5809  3.6696 -0.1955
  667SOL    HW2 2667   2.075   2.807   1.704  1.7487 -2.6937 -0.1638
  667SOL     MW 2668   2.015   2.745   1.730  0.5659 -0.3108  0.0106
  668SOL     OW 2669   2.776   0.557   0.835  0.3178  0.0999 -0.0585
  668SOL    HW1 2670   2.822   0.599   0.901 -1.5462 -1.5833 -2.4656
  668SOL    HW2 2671   2.713   0.627   0.816  0.4590  0.4223 -1.1103
  668SOL     MW 2672   2.774   0.572   0.841  0.0905 -0.0796 -0.5148
  669SOL     OW 2673   0.183   0.988   0.687 -0.3839  0.2230  0.0770
  669SOL    HW1 2674   0.154   1.016   0.774 -0.6113 -0.9002  0.0894
  669SOL    HW2 2675   0.267   1.044   0.667 -1.7687  1.6916 -1.8464
  669SOL     MW 2676   0.190   0.999   0.696 -0.5966  0.2686 -0.1751
  670SOL     OW 2677   2.897   0.357   0.285  1.1163 -0.2928  0.3897
  670SOL    HW1 2678   2.902   0.301   0.207  0.0458 -1.0805 -0.0713
  670SOL    HW2 2679   2.925   0.448   0.261 -2.1047  3.2416 -0.2165
  670SOL     MW 2680   2.901   0.362   0.272  0.5501  0.0696  0.2489
  671SOL     OW 2681   2.032   3.047   1.488  0.4714  0.3215 -0.1542
  671SOL    HW1 2682   1.976   3.007   1.419  0.5911 -1.1175 -1.8450
  671SOL    HW2 2683   1.972   3.063   1.561  0.4712  1.6727  1.4528
  671SOL     MW 2684   2.017   3.044   1.488  0.4872  0.3099 -0.1653
  672SOL     OW 2685   1.837   1.767   1.297 -0.4337  0.3508  0.4991
  672SOL    HW1 2686   1.813   1.846   1.345  0.2860 -2.4955 -1.8799
  672SOL    HW2 2687   1.856   1.803   1.210 -0.7215  0.7787 -2.6792
  672SOL     MW 2688   1.837   1.782   1.292 -0.3767  0.0317 -0.2342
  673SOL     OW 2689   2.801   1.078   0.545  0.0126  0.4212 -0.6325
  673SOL    HW1 2690   2.774   1.009   0.599 -0.2901  1.5831 -3.2052
  673SOL    HW2 2691   2.881   1.110   0.582  1.8109  2.5713 -1.0177
  673SOL     MW 2692   2.808   1.073   0.557  0.2099  0.8582 -1.0228
  674SOL     OW 2693   2.475   3.093   1.211  0.0458 -0.4057 -0.1723
  674SOL    HW1 2694   2.427   3.123   1.129  2.5036 -0.5843 -1.4331
  674SOL    HW2 2695   2.413   3.052   1.270  0.5539 -0.0626 -2.6646
  674SOL     MW 2696   2.461   3.091   1.208  0.4371 -0.3840 -0.6675
  675SOL     OW 2697   3.007   0.891   1.090 -0.5609 -0.2494 -0.0338
  675SOL    HW1 2698   3.052   0.897   1.175  0.4862  0.6253 -1.5881
  675SOL    HW2 2699   3.078   0.907   1.023  0.7202 -2.7317  3.6153
  675SOL     MW 2700   3.023   0.894   1.093 -0.2537 -0.4615  0.2426
  676SOL     OW 2701   2.889   1.467   1.693  0.3495 -0.2921  0.1799
  676SOL    HW1 2702   2.864   1.384   1.644 -1.3546  2.1219 -0.1783
  676SOL    HW2 2703   2.909   1.430   1.781 -0.1336  3.0239 -2.1329
  676SOL     MW 2704   2.888   1.451   1.698  0.0610  0.4639 -0.1725
  677SOL     OW 2705   2.480   0.655   1.924  0.1355  0.4076 -0.3257
  677SOL    HW1 2706   2.432   0.598   1.858 -0.7141  0.3462  2.2382
  677SOL    HW2 2707   2.418   0.716   1.964  1.6975 -0.0491 -3.0275
  677SOL     MW 2708   2.465   0.656   1.920  0.2295  0.3392 -0.3439
  678SOL     OW 2709   2.390   1.582   0.321 -0.1862 -0.1594  0.2717
  678SOL    HW1 2710   2.306   1.607   0.368 -3.0488  0.8070 -1.4205
  678SOL    HW2 2711   2.352   1.526   0.248  0.8527  0.5915  0.0902
  678SOL     MW 2712   2.374   1.578   0.318 -0.4268  0.0671  0.0245
  679SOL     OW 2713   2.284   0.416   1.283  0.6538  0.1052  0.5347
  679SOL    HW1 2714   2.255   0.379   1.201 -0.9993 -0.7029  0.8758
  679SOL    HW2 2715   2.203   0.410   1.342 -0.4823 -0.6401 -2.7572
  679SOL     MW 2716   2.270   0.410   1.280  0.2858 -0.0997  0.1454
  680SOL     OW 2717   2.473   0.124   1.488 -0.3642  0.3190 -0.4110
  680SOL    HW1 2718   2.383   0.147   1.455  2.5690  1.8362 -1.2903
  680SOL    HW2 2719   2.526   0.076   1.418 -0.9882  1.6760  0.4943
  680SOL     MW 2720   2.468   0.121   1.474 -0.0595  0.6982 -0.4075
  681SOL     OW 2721   0.226   0.625   1.465  0.1092 -0.2829 -0.5991
  681SOL    HW1 2722   0.212   0.551   1.522 -1.2806  0.2456  2.1273
  681SOL    HW2 2723   0.210   0.592   1.375  0.9359  3.1984 -0.5431
  681SOL     MW 2724   0.222   0.611   1.460  0.0349  0.2462 -0.2320
  682SOL     OW 2725   0.010   2.864   1.540 -0.6665  0.1184 -0.5211
  682SOL    HW1 2726   0.077   2.928   1.522 -3.3847  1.1094  1.6165
  682SOL    HW2 2727  -0.032   2.874   1.626 -1.0925 -0.9734  2.0672
  682SOL     MW 2728   0.013   2.873   1.549 -1.0814  0.1051  0.1024
  683SOL     OW 2729   2.076   0.823   3.013  0.3938 -0.2151  0.0473
  683SOL    HW1 2730   2.028   0.749   3.052 -0.0626 -1.4085 -0.7181
  683SOL    HW2 2731   2.031   0.906   3.043 -3.3644 -1.3855  1.7917
  683SOL     MW 2732   2.064   0.824   3.022 -0.1622 -0.5270  0.1764
  684SOL     OW 2733   2.049   1.758   0.653  0.2083 -0.1721 -0.4045
  684SOL    HW1 2734   2.080   1.697   0.585 -1.8785 -0.9892  0.9371
  684SOL    HW2 2735   1.992   1.697   0.703  0.5549  0.8409 -1.1399
  684SOL     MW 2736   2.046   1.742   0.651 -0.0213 -0.1462 -0.3245
  685SOL     OW 2737   2.675   1.732   1.191 -0.2947  0.2220 -0.1876
  685SOL    HW1 2738   2.727   1.675   1.244  0.9668 -0.2469  0.2988
  685SOL    HW2 2739   2.621   1.669   1.151 -1.8666  2.6164  0.3591
  685SOL     MW 2740   2.675   1.716   1.193 -0.3357  0.4761 -0.0513
  686SOL     OW 2741   2.851   0.660   1.613 -0.6214 -0.2969 -0.1715
  686SOL    HW1 2742   2.841   0.617   1.695 -2.3740  1.0333  0.5722
  686SOL    HW2 2743   2.948   0.689   1.609  0.6273 -0.9978  1.1201
  686SOL     MW 2744   2.863   0.658   1.623 -0.6879 -0.2139  0.0971
  687SOL     OW 2745   2.102   0.167   1.131  0.2253 -0.1751 -0.4219
  687SOL    HW1 2746   2.132   0.118   1.052  0.3758  0.5169 -1.1211
  687SOL    HW2 2747   2.071   0.251   1.107 -2.2365 -2.4539 -1.9044
  687SOL     MW 2748   2.102   0.171   1.117 -0.0797 -0.3844 -0.7097
  688SOL     OW 2749   2.476   0.589   1.411 -0.0174 -0.5091  0.1780
  688SOL    HW1 2750   2.445   0.526   1.346 -0.7773 -0.0512 -1.5412
  688SOL    HW2 2751   2.393   0.604   1.459 -0.3611  0.1070  0.5630
  688SOL     MW 2752   2.461   0.582   1.409 -0.1630 -0.3674  0.0020
  689SOL     OW 2753   2.511   0.745   3.004 -0.1152  0.1135  0.2899
  689SOL    HW1 2754   2.448   0.809   3.039 -2.2831 -0.3819 -0.8145
  689SOL    HW2 2755   2.569   0.731   3.083  1.9856  0.2131 -0.1979
  689SOL     MW 2756   2.510   0.751   3.019 -0.1241  0.0613  0.0798
  690SOL     OW 2757   2.039   0.901   1.854  0.1109  0.5990  0.1957
  690SOL    HW1 2758   2.024   0.805   1.858  0.3459  1.2040 -2.1510
  690SOL    HW2 2759   2.086   0.910   1.772 -3.4997  1.5545  0.7991
  690SOL     MW 2760   2.044   0.890   1.844 -0.3344  0.8049 -0.0343
  691SOL     OW 2761   2.433   0.298   0.880  0.3191 -0.1417  0.3863
  691SOL    HW1 2762   2.517   0.306   0.927  0.0447 -0.6230 -1.0578
  691SOL    HW2 2763   2.398   0.389   0.883 -0.0963  0.1889 -0.8350
  691SOL     MW 2764   2.440   0.311   0.887  0.2281 -0.1616  0.0346
  692SOL     OW 2765   2.811   1.615   1.405 -0.8300  0.3422 -0.5476
  692SOL    HW1 2766   2.803   1.604   1.499  0.6400  0.8495  1.0527
  692SOL    HW2 2767   2.855   1.702   1.391 -0.9659 -1.4578  2.3589
  692SOL     MW 2768   2.815   1.625   1.416 -0.6540  0.1717  0.0471
  693SOL     OW 2769   2.313   0.419   0.005 -0.4567  0.8059  0.1441
  693SOL    HW1 2770   2.247   0.370  -0.040 -2.4232 -0.7249 -2.3791
  693SOL    HW2 2771   2.263   0.483   0.058  0.1310  0.6049 -2.5076
  693SOL     MW 2772   2.298   0.421   0.006 -0.6386  0.5774 -0.5387
  694SOL     OW 2773   1.922   1.184   1.199  0.1161 -0.4341  0.2888
  694SOL    HW1 2774   2.016   1.174   1.207 -0.4654  2.5726 -1.4665
  694SOL    HW2 2775   1.887   1.092   1.206  1.4395  2.1194 -1.4948
  694SOL     MW 2776   1.930   1.171   1.201  0.2139  0.2995 -0.1781
  695SOL     OW 2777   2.914   1.402   1.291 -0.3410  0.4424 -0.4761
  695SOL    HW1 2778   2.901   1.412   1.200  0.7465  2.5173  1.9756
  695SOL    HW2 2779   2.875   1.482   1.337  0.2246 -0.5379 -1.2915
  695SOL     MW 2780   2.907   1.414   1.285 -0.1229  0.5868 -0.2602
  696SOL     OW 2781   2.030   1.424   0.745  0.4073 -0.5375 -0.4692
  696SOL    HW1 2782   2.053   1.459   0.835  0.4866  2.1664 -0.2666
  696SOL    HW2 2783   1.977   1.346   0.764  0.2055 -0.3473 -1.9081
  696SOL     MW 2784   2.026   1.418   0.759  0.3912 -0.1556 -0.6323
  697SOL     OW 2785   2.920   1.058   2.215 -0.6027 -0.4273  0.2091
  697SOL    HW1 2786   2.839   1.114   2.209 -2.6850 -0.3473 -1.0663
  697SOL    HW2 2787   2.888   0.974   2.196 -0.9853 -1.1772 -0.9141
  697SOL     MW 2788   2.905   1.054   2.212 -0.9279 -0.5157 -0.1074
  698SOL     OW 2789   2.580   0.377   3.058 -0.7131  0.7098  0.1873
  698SOL    HW1 2790   2.489   0.398   3.079  0.5058 -0.5262  0.0972
  698SOL    HW2 2791   2.623   0.357   3.144 -0.6446  1.5809 -2.1681
  698SOL     MW 2792   2.573   0.377   3.072 -0.5432  0.6616 -0.1354
  699SOL     OW 2793   1.874   1.615   2.049 -0.6480 -0.0437 -0.3471
  699SOL    HW1 2794   1.819   1.537   2.060  0.6048 -2.1125  2.2825
  699SOL    HW2 2795   1.959   1.577   2.021 -0.0090  3.4656 -3.0020
  699SOL     MW 2796   1.878   1.600   2.047 -0.3984  0.1464 -0.3504
  700SOL     OW 2797   2.683   0.870   1.601  0.3643  0.1061  0.0970
  700SOL    HW1 2798   2.738   0.929   1.541  1.3952  2.0111  0.7275
  700SOL    HW2 2799   2.734   0.794   1.625 -0.1654 -0.0729  3.0559
  700SOL     MW 2800   2.697   0.867   1.596  0.4304  0.3339  0.5705
  701SOL     OW 2801   1.681   1.078   2.518 -0.2532 -0.4374  0.1649
  701SOL    HW1 2802   1.736   1.008   2.562  0.2038  0.9365  3.2019
  701SOL    HW2 2803   1.642   1.113   2.599 -1.4844 -1.7700  1.2742
  701SOL     MW 2804   1.683   1.073   2.534 -0.3554 -0.4319  0.7120
  702SOL     OW 2805   2.066   0.467   0.677 -0.4164 -0.2396 -0.1676
  702SOL    HW1 2806   2.096   0.382   0.641 -0.4050  3.2150 -0.4649
  702SOL    HW2 2807   2.138   0.523   0.648 -0.3803 -0.4430 -0.4735
  702SOL     MW 2808   2.079   0.463   0.668 -0.4101  0.1894 -0.2472
  703SOL     OW 2809   2.702   1.257   0.972 -0.3799 -0.3015  0.2737
  703SOL    HW1 2810   2.672   1.260   0.882  4.0761  0.5924 -0.1172
  703SOL    HW2 2811   2.691   1.171   1.013  0.0083 -0.9836  2.2838
  703SOL     MW 2812   2.696   1.246   0.966  0.2593 -0.2735  0.4873
  704SOL     OW 2813   3.073   1.256   0.139 -0.2667  0.0659  0.4607
  704SOL    HW1 2814   2.982   1.258   0.111 -1.9558  0.4105  0.1113
  704SOL    HW2 2815   3.081   1.264   0.233  1.7506  0.8786 -0.8052
  704SOL     MW 2816   3.062   1.257   0.148 -0.2234  0.2186  0.2476
  705SOL     OW 2817   2.040   1.563   1.300 -0.4207  0.9177  0.0644
  705SOL    HW1 2818   1.984   1.636   1.315  1.0823  1.1482 -0.4845
  705SOL    HW2 2819   2.073   1.545   1.390  0.4186 -1.2504  0.9063
  705SOL     MW 2820   2.037   1.570   1.314 -0.1116  0.6620  0.1030
  706SOL     OW 2821   2.999   1.219   0.705 -0.0692 -0.2861  0.0724
  706SOL    HW1 2822   3.061   1.225   0.634 -2.9370 -0.5896 -0.3832
  706SOL    HW2 2823   2.954   1.306   0.706  2.0574  1.5200  0.5022
  706SOL     MW 2824   3.001   1.232   0.696 -0.1670 -0.0879  0.0690
  707SOL     OW 2825   2.357   0.048   0.976 -0.3138  0.4616 -0.0232
  707SOL    HW1 2826   2.381   0.129   0.923 -0.3581  1.9800 -3.7696
  707SOL    HW2 2827   2.297   0.000   0.918  0.8246 -0.4690  2.0278
  707SOL     MW 2828   2.352   0.052   0.962 -0.1694  0.5391 -0.2469
  708SOL     OW 2829   2.390   1.380   0.141  0.5617  0.4731 -0.7448
  708SOL    HW1 2830   2.476   1.359   0.176  0.1434  1.1334 -1.3836
  708SOL    HW2 2831   2.408   1.407   0.047  0.5466  1.4305  1.0141
  708SOL     MW 2832   2.404   1.380   0.133  0.5045  0.6865 -0.5970
  709SOL     OW 2833   1.717   1.640   0.202 -0.5256 -0.3901  0.0706
  709SOL    HW1 2834   1.728   1.649   0.105  1.0671  1.0248 -0.4317
  709SOL    HW2 2835   1.630   1.615   0.219 -1.0197  1.3994  0.4208
  709SOL     MW 2836   1.707   1.638   0.191 -0.3807  0.0327  0.0505
  710SOL     OW 2837   2.182   1.169   1.178  0.5956  0.0513 -0.3329
  710SOL    HW1 2838   2.179   1.124   1.088  0.9289  0.4558 -0.5270
  710SOL    HW2 2839   2.223   1.104   1.242  1.2244 -4.0711 -0.3503
  710SOL     MW 2840   2.187   1.155   1.174  0.7225 -0.4393 -0.3608
  711SOL     OW 2841   2.390   0.113   1.786 -0.5812 -0.2735  0.2364
  711SOL    HW1 2842   2.475   0.094   1.830  0.2734 -0.4625 -2.1290
  711SOL    HW2 2843   2.407   0.109   1.691  1.8688 -3.0307  1.8386
  711SOL     MW 2844   2.404   0.110   1.779 -0.1452 -0.6622  0.1357
  712SOL     OW 2845   1.884   0.602   3.082 -0.4528  0.5299 -0.6860
  712SOL    HW1 2846   1.828   0.651   3.023  1.6325 -2.3923  1.2923
  712SOL    HW2 2847   1.844   0.621   3.169  0.6561 -1.4336  2.2678
  712SOL     MW 2848   1.871   0.611   3.086 -0.0314 -0.1147 -0.0353
  713SOL     OW 2849   2.540   0.682   1.110  0.6920 -0.1947  0.2958
  713SOL    HW1 2850   2.561   0.602   1.148 -1.3091  1.1867  1.6948
  713SOL    HW2 2851   2.499   0.728   1.182  1.0305  1.0348  1.0826
  713SOL     MW 2852   2.538   0.677   1.124  0.4726  0.1498  0.5842
  714SOL     OW 2853   2.227   0.197   2.008  0.2078  0.1442  0.2085
  714SOL    HW1 2854   2.268   0.163   2.085 -0.9204  2.1416  1.7733
  714SOL    HW2 2855   2.277   0.171   1.931  3.1419  2.6383  0.5163
  714SOL     MW 2856   2.239   0.189   2.008  0.4461  0.7368  0.4556
  715SOL     OW 2857   1.827   2.005   1.726  0.3663 -0.2197 -0.5906
  715SOL    HW1 2858   1.919   2.027   1.742 -3.4244  0.0215  1.3426
  715SOL    HW2 2859   1.805   1.935   1.793 -0.5840  0.9382  1.8931
  715SOL     MW 2860   1.836   1.998   1.737 -0.2593 -0.0351 -0.0078
  716SOL     OW 2861   2.440   0.563   0.691  0.3214  0.1707  0.6270
  716SOL    HW1 2862   2.476   0.482   0.646  0.7342 -2.3114  0.9326
  716SOL    HW2 2863   2.381   0.594   0.628  2.6766 -1.3895  1.1284
  716SOL     MW 2864   2.437   0.556   0.676  0.6866 -0.3626  0.7335
  717SOL     OW 2865   2.819   1.625   2.826 -0.7071  0.3837 -0.1035
  717SOL    HW1 2866   2.904   1.594   2.853  1.4457 -1.8328 -0.0873
  717SOL    HW2 2867   2.797   1.698   2.887 -2.6155  0.0090 -1.6888
  717SOL     MW 2868   2.827   1.631   2.837 -0.6749  0.0418 -0.3105
  718SOL     OW 2869   2.656   1.346   1.276 -0.0470  0.0849  0.5275
  718SOL    HW1 2870   2.613   1.374   1.361 -2.2305 -1.5331  2.6691
  718SOL    HW2 2871   2.752   1.341   1.297  1.5379  1.5630 -0.7816
  718SOL     MW 2872   2.663   1.349   1.290 -0.1260  0.0664  0.6373
  719SOL     OW 2873   2.201   1.284   0.561 -0.1879 -0.4008 -0.2987
  719SOL    HW1 2874   2.286   1.326   0.575 -0.9909 -0.1276  1.7624
  719SOL    HW2 2875   2.159   1.312   0.642  3.2224  1.0329  1.4020
  719SOL     MW 2876   2.207   1.293   0.573  0.1561 -0.1756  0.1976
  720SOL     OW 2877   2.804   1.282   0.020 -0.1162 -0.0007 -0.1378
  720SOL    HW1 2878   2.799   1.185   0.025  0.5054 -1.3499 -2.1229
  720SOL    HW2 2879   2.750   1.320   0.088 -1.2593  0.4533  0.3018
  720SOL     MW 2880   2.796   1.274   0.029 -0.1850 -0.1188 -0.3417
  721SOL     OW 2881   2.546   0.841   1.357  0.4597  0.7185 -0.4440
  721SOL    HW1 2882   2.540   0.743   1.367  0.0192 -1.6486 -1.0369
  721SOL    HW2 2883   2.561   0.867   1.452 -2.7222 -2.3427 -0.4480
  721SOL     MW 2884   2.547   0.831   1.371 -0.0182  0.0023 -0.5227
  722SOL     OW 2885   2.584   1.146   0.380  0.1419  0.7629  0.3061
  722SOL    HW1 2886   2.535   1.217   0.423  1.4656 -0.3133  1.3053
  722SOL    HW2 2887   2.658   1.120   0.437  1.3768 -3.4603 -0.4489
  722SOL     MW 2888   2.587   1.152   0.393  0.4795  0.0637  0.3383
  723SOL     OW 2889   2.273   1.350   1.551  0.7027 -0.3618  0.1342
  723SOL    HW1 2890   2.250   1.368   1.462 -0.5883 -1.7435  2.8068
  723SOL    HW2 2891   2.215   1.417   1.598 -2.7397 -0.7592  0.3283
  723SOL     MW 2892   2.262   1.361   1.545  0.0782 -0.5965  0.5125
  724SOL     OW 2893   2.478   0.297   0.612 -0.9072 -0.5365 -0.0885
  724SOL    HW1 2894   2.462   0.270   0.702  0.3436  1.0445 -0.1563
  724SOL    HW2 2895   2.563   0.268   0.585 -0.9523  0.5389 -0.7927
  724SOL     MW 2896   2.487   0.290   0.620 -0.7481 -0.1860 -0.1904
  725SOL     OW 2897   2.611   0.420   1.224  0.1539  0.3444 -0.2267
  725SOL    HW1 2898   2.666   0.476   1.281 -0.7312 -1.9769 -0.4482
  725SOL    HW2 2899   2.594   0.340   1.280 -0.9907 -1.0664 -0.6577
  725SOL     MW 2900   2.616   0.417   1.239 -0.1139 -0.1480 -0.3128
  726SOL     OW 2901   2.502   2.503   0.439  0.2278 -0.4125 -0.7173
  726SOL    HW1 2902   2.497   2.593   0.407  1.9901 -0.6960  1.2205
  726SOL    HW2 2903   2.474   2.516   0.534 -0.7772 -0.2108 -0.2034
  726SOL     MW 2904   2.498   2.516   0.448  0.3277 -0.4233 -0.3938
  727SOL     OW 2905   2.867   0.297   1.741  0.0141  0.1899  0.3285
  727SOL    HW1 2906   2.804   0.290   1.671 -0.2076  2.2225  1.4835
  727SOL    HW2 2907   2.834   0.259   1.816 -1.7934  2.3381  0.4028
  727SOL     MW 2908   2.855   0.291   1.742 -0.2536  0.7415  0.4907
  728SOL     OW 2909   2.839   1.170   2.859 -0.1849  0.1335  0.0675
  728SOL    HW1 2910   2.826   1.215   2.778 -0.0105 -1.9046  2.2620
  728SOL    HW2 2911   2.839   1.235   2.933 -1.1608 -0.5910  0.9310
  728SOL     MW 2912   2.837   1.185   2.858 -0.2907 -0.2310  0.4709
  729SOL     OW 2913   2.518   1.518   1.089  0.3601 -0.1250 -0.7199
  729SOL    HW1 2914   2.595   1.464   1.110  1.9933  1.2000 -2.1688
  729SOL    HW2 2915   2.479   1.475   1.015 -0.4567  1.3427 -1.4424
  729SOL     MW 2916   2.523   1.505   1.082  0.4678  0.2435 -1.0064
  730SOL     OW 2917   2.222   1.184   0.182 -0.3689 -0.0534 -0.1425
  730SOL    HW1 2918   2.289   1.123   0.197  0.8557  1.2098 -2.6162
  730SOL    HW2 2919   2.270   1.270   0.177 -3.2497  1.7266  0.2007
  730SOL     MW 2920   2.238   1.187   0.183 -0.5874  0.3481 -0.4236
  731SOL     OW 2921   2.755   2.043   2.882 -0.1580 -0.6497  0.3632
  731SOL    HW1 2922   2.690   2.027   2.818  2.6733  0.0540 -0.7955
  731SOL    HW2 2923   2.845   2.036   2.850 -1.2903 -1.8760 -1.8852
  731SOL     MW 2924   2.759   2.040   2.869  0.0662 -0.7186 -0.0863
  732SOL     OW 2925   2.295   0.967   1.370  0.8007 -0.3588 -0.1288
  732SOL    HW1 2926   2.270   0.928   1.457  1.6949  1.0481 -0.9577
  732SOL    HW2 2927   2.387   0.952   1.355  2.4922  0.5812 -1.7636
  732SOL     MW 2928   2.304   0.960   1.380  1.1419 -0.0491 -0.4538
  733SOL     OW 2929   2.394   2.739   2.997  0.0833 -0.7063 -0.3462
  733SOL    HW1 2930   2.334   2.785   3.053  1.1364 -2.3001 -0.9459
  733SOL    HW2 2931   2.360   2.646   2.991 -0.0405 -0.2080  2.0528
  733SOL     MW 2932   2.381   2.733   3.003  0.2059 -0.8509 -0.1088
  734SOL     OW 2933   1.517   0.275   2.520 -0.8255 -0.1554 -0.7760
  734SOL    HW1 2934   1.491   0.245   2.607  3.1762 -0.7549  0.4535
  734SOL    HW2 2935   1.456   0.244   2.454 -3.7453 -0.3919  0.4863
  734SOL     MW 2936   1.505   0.267   2.523 -0.6827 -0.2657 -0.4472
  735SOL     OW 2937   2.996   0.893   2.674  0.4281 -0.2215 -0.6595
  735SOL    HW1 2938   2.991   0.794   2.670  1.2197 -2.4666  0.3732
  735SOL    HW2 2939   3.006   0.911   2.767 -0.7653 -0.5113 -0.6042
  735SOL     MW 2940   2.996   0.882   2.686  0.3751 -0.5560 -0.5159
  736SOL     OW 2941   0.132   0.567   2.561 -0.1626 -0.3853 -0.3420
  736SOL    HW1 2942   0.147   0.634   2.486 -0.3908 -0.8215 -0.1784
  736SOL    HW2 2943   0.180   0.493   2.536  0.9991  1.6202 -0.3151
  736SOL     MW 2944   0.140   0.566   2.548 -0.0394 -0.1783 -0.3168
  737SOL     OW 2945   2.968   0.625   2.668  0.0345 -0.5514 -0.0978
  737SOL    HW1 2946   2.892   0.621   2.604 -1.5859 -1.9285  0.6792
  737SOL    HW2 2947   3.046   0.616   2.622 -2.0583 -0.5181 -0.7801
  737SOL     MW 2948   2.969   0.623   2.654 -0.4554 -0.7287 -0.0853
  738SOL     OW 2949   0.120   0.454   1.868  0.2049 -0.6131 -0.4102
  738SOL    HW1 2950   0.210   0.483   1.850  0.1572 -0.6665 -0.0259
  738SOL    HW2 2951   0.088   0.420   1.787  1.2093 -0.5383  1.3515
  738SOL     MW 2952   0.128   0.453   1.855  0.3311 -0.6103 -0.1271
  739SOL     OW 2953   2.477   0.984   2.118  0.7494 -0.3272 -0.6050
  739SOL    HW1 2954   2.424   0.974   2.043  1.5281  0.9769  4.3375
  739SOL    HW2 2955   2.521   1.066   2.103 -0.0776  0.2827 -1.3926
  739SOL     MW 2956   2.476   0.993   2.106  0.7430 -0.0747 -0.0568
  740SOL     OW 2957   0.115   1.793   2.945 -0.1767 -0.5608  0.9539
  740SOL    HW1 2958   0.095   1.697   2.933 -1.1636 -2.1283  1.2028
  740SOL    HW2 2959   0.204   1.796   2.978 -2.3071 -2.6869  2.9225
  740SOL     MW 2960   0.124   1.781   2.948 -0.5880 -1.0481  1.2465
  741SOL     OW 2961   2.196   1.142   2.710  0.6377  0.1316  0.1291
  741SOL    HW1 2962   2.161   1.216   2.667  3.1576 -2.6471  1.6229
  741SOL    HW2 2963   2.186   1.158   2.810 -0.4753  0.1222 -1.4461
  741SOL     MW 2964   2.190   1.154   2.718  0.8233 -0.2363  0.1184
  742SOL     OW 2965   1.604   1.232   2.266 -1.0383 -0.0073  0.1852
  742SOL    HW1 2966   1.541   1.163   2.257  1.4731 -1.1122  1.3426
  742SOL    HW2 2967   1.629   1.237   2.356  2.1403  1.5436 -1.1235
  742SOL     MW 2968   1.599   1.224   2.277 -0.2876  0.0516  0.1652
  743SOL     OW 2969   2.495   1.236   2.727 -0.0196 -0.1024  0.0662
  743SOL    HW1 2970   2.401   1.219   2.745 -2.4822 -2.6574  2.7546
  743SOL    HW2 2971   2.535   1.148   2.742 -0.0262 -0.6397 -0.8604
  743SOL     MW 2972   2.488   1.222   2.731 -0.3454 -0.5104  0.2987
  744SOL     OW 2973   2.666   0.868   1.898 -0.1361  0.5426  0.2545
  744SOL    HW1 2974   2.644   0.959   1.873 -0.8737 -1.1191 -2.6136
  744SOL    HW2 2975   2.600   0.812   1.859 -1.1654 -3.1280  3.0314
  744SOL     MW 2976   2.655   0.873   1.890 -0.3692 -0.1609  0.2425
  745SOL     OW 2977   1.670   0.494   2.493  0.1353  0.1858  0.3894
  745SOL    HW1 2978   1.682   0.507   2.395 -1.2037  1.9343  0.3900
  745SOL    HW2 2979   1.619   0.413   2.496 -0.0230  0.5367  0.9643
  745SOL     MW 2980   1.665   0.485   2.481 -0.0623  0.4628  0.4653
  746SOL     OW 2981   1.632   1.444   1.651 -0.4331  0.4179 -0.3310
  746SOL    HW1 2982   1.730   1.433   1.646  0.5663 -0.2836 -0.9854
  746SOL    HW2 2983   1.600   1.445   1.744 -2.3656  1.8280 -3.0022
  746SOL     MW 2984   1.640   1.443   1.663 -0.5562  0.5114 -0.7698
  747SOL     OW 2985   2.617   1.116   1.820 -0.4131 -0.4906  0.0406
  747SOL    HW1 2986   2.521   1.109   1.793 -1.0301  0.2546 -0.5152
  747SOL    HW2 2987   2.621   1.204   1.866  2.0209 -0.3268  1.3983
  747SOL     MW 2988   2.605   1.126   1.822 -0.1734 -0.3707  0.1464
  748SOL     OW 2989   0.056   0.101   1.907  0.1654  0.7030  0.1622
  748SOL    HW1 2990   0.128   0.168   1.882  1.6400  0.7152  0.2905
  748SOL    HW2 2991   0.016   0.140   1.986  1.2428  0.0201 -1.5195
  748SOL     MW 2992   0.060   0.115   1.914  0.5021  0.6145 -0.0427
  749SOL     OW 2993   2.540   0.599   2.763  0.3107 -0.6211  0.4756
  749SOL    HW1 2994   2.578   0.670   2.710  0.0440 -1.4987  1.3998
  749SOL    HW2 2995   2.535   0.643   2.852 -0.2573 -2.5838  0.6891
  749SOL     MW 2996   2.545   0.615   2.768  0.2006 -0.9958  0.6257
  750SOL     OW 2997   2.019   3.077   1.989 -0.2254 -0.0413 -0.0485
  750SOL    HW1 2998   2.073   3.150   2.016 -0.8820 -0.2249 -0.1877
  750SOL    HW2 2999   2.090   3.007   1.984 -0.0790  2.0476 -0.9347
  750SOL     MW 3000   2.036   3.077   1.992 -0.2927  0.2101 -0.1838
  751SOL     OW 3001   0.267   0.311   2.432  0.7925  0.4492 -0.2142
  751SOL    HW1 3002   0.224   0.232   2.460  2.9859  1.7949 -2.9276
  751SOL    HW2 3003   0.296   0.299   2.340  3.5065  0.1838 -0.2353
  751SOL     MW 3004   0.265   0.299   2.423  1.4400  0.5917 -0.5750
  752SOL     OW 3005   2.138   0.806   2.720  0.2451  0.4181  0.0078
  752SOL    HW1 3006   2.224   0.840   2.689 -0.0509  0.0384  0.4552
  752SOL    HW2 3007   2.133   0.805   2.817  1.2804 -3.2090  0.1745
  752SOL     MW 3008   2.149   0.810   2.728  0.3427 -0.1106  0.0888
  753SOL     OW 3009   2.816   0.191   2.406 -0.7970 -0.2129  0.4640
  753SOL    HW1 3010   2.809   0.099   2.371 -0.7485 -1.3793 -1.2248
  753SOL    HW2 3011   2.765   0.247   2.347 -0.8067  0.8875  1.7972
  753SOL     MW 3012   2.809   0.187   2.393 -0.7919 -0.2216  0.4171
  754SOL     OW 3013   2.229   2.947   2.590  0.4159 -0.2373  0.2467
  754SOL    HW1 3014   2.252   2.959   2.497 -1.9354 -3.4334 -1.2339
  754SOL    HW2 3015   2.313   2.934   2.632  0.5091  1.1613  0.7539
  754SOL     MW 3016   2.243   2.947   2.583  0.1179 -0.4744  0.1183
  755SOL     OW 3017   2.734   1.530   2.404  0.3797 -0.1270 -0.5731
  755SOL    HW1 3018   2.739   1.468   2.479  2.3007 -1.0983 -0.7065
  755SOL    HW2 3019   2.755   1.621   2.441 -0.2102  2.1820 -2.2455
  755SOL     MW 3020   2.737   1.534   2.418  0.5553  0.0495 -0.8114
  756SOL     OW 3021   2.211   1.198   2.969  0.6089 -0.5486  0.3779
  756SOL    HW1 3022   2.277   1.266   2.980 -0.5882 -0.9165  0.2096
  756SOL    HW2 3023   2.251   1.118   3.001 -0.2734  0.7339 -2.1062
  756SOL     MW 3024   2.225   1.197   2.974  0.3346 -0.4279  0.0280
  757SOL     OW 3025   2.169   0.894   1.597 -0.0372 -0.1814  0.0196
  757SOL    HW1 3026   2.191   0.800   1.593 -0.3236  1.0426 -0.7203
  757SOL    HW2 3027   2.085   0.922   1.548 -1.8770  2.1576 -0.4239
  757SOL     MW 3028   2.161   0.885   1.590 -0.3178  0.2887 -0.1365
  758SOL     OW 3029   2.201   1.856   2.621  0.2593 -0.7199 -0.1306
  758SOL    HW1 3030   2.157   1.864   2.541 -0.2069 -1.5974  1.9351
  758SOL    HW2 3031   2.292   1.843   2.596  0.7798  2.3978  0.3777
  758SOL     MW 3032   2.207   1.855   2.607  0.2665 -0.4243  0.2090
  759SOL     OW 3033   1.534   1.282   2.700 -0.0118  0.4773  0.2365
  759SOL    HW1 3034   1.532   1.361   2.643  1.8789 -1.5278  2.2865
  759SOL    HW2 3035   1.576   1.311   2.785  0.1903 -1.5777  0.9206
  759SOL     MW 3036   1.539   1.296   2.704  0.2643 -0.0584  0.5972
  760SOL     OW 3037   2.521   1.984   2.735  0.9109  0.2904  0.2268
  760SOL    HW1 3038   2.520   1.899   2.688  0.4543 -0.3114 -2.4866
  760SOL    HW2 3039   2.532   2.044   2.663 -0.3172 -3.4362 -1.7065
  760SOL     MW 3040   2.522   1.980   2.719  0.6886 -0.2807 -0.3863
  761SOL     OW 3041   2.165   0.411   2.554  0.2828 -0.0977  0.1865
  761SOL    HW1 3042   2.084   0.374   2.596  2.0864  2.7602  2.7384
  761SOL    HW2 3043   2.219   0.457   2.625 -0.6644  2.2406  0.2887
  761SOL     MW 3044   2.161   0.412   2.569  0.3958  0.5879  0.5367
  762SOL     OW 3045   3.053   0.197   2.143  0.5083  0.0746 -0.1964
  762SOL    HW1 3046   3.088   0.133   2.206 -1.0532  1.2545 -1.5339
  762SOL    HW2 3047   3.038   0.286   2.189  1.4777  1.0151 -1.3838
  762SOL     MW 3048   3.055   0.200   2.158  0.4302  0.3543 -0.5295
  763SOL     OW 3049   2.331   1.024   2.337 -0.2535 -0.2675  0.5234
  763SOL    HW1 3050   2.389   1.002   2.263 -3.3809  1.5905 -2.0465
  763SOL    HW2 3051   2.388   1.105   2.358  1.4959  3.0798 -1.5796
  763SOL     MW 3052   2.346   1.032   2.330 -0.4354  0.4193 -0.0932
  764SOL     OW 3053   0.445   0.273   2.819 -0.5333  0.3349  0.0585
  764SOL    HW1 3054   0.358   0.235   2.802  0.1853 -0.4690 -1.0468
  764SOL    HW2 3055   0.430   0.351   2.871 -0.9261 -0.5147  1.4869
  764SOL     MW 3056   0.431   0.278   2.824 -0.4903  0.1168  0.1011
  765SOL     OW 3057   2.734   3.019   2.362 -0.4937 -0.2069  0.0267
  765SOL    HW1 3058   2.696   3.023   2.275 -1.0602 -2.5920  1.3526
  765SOL    HW2 3059   2.822   2.980   2.353  0.3900 -1.1746  1.8177
  765SOL     MW 3060   2.740   3.014   2.349 -0.4518 -0.6493  0.4379
  766SOL     OW 3061   1.872   2.944   2.179 -0.0063 -0.4124 -0.1717
  766SOL    HW1 3062   1.920   2.984   2.105  0.0936 -1.0953 -0.3725
  766SOL    HW2 3063   1.804   2.901   2.124 -0.5364  2.2160  1.1365
  766SOL     MW 3064   1.869   2.944   2.162 -0.0631 -0.1557 -0.0256
  767SOL     OW 3065   2.677   0.588   2.095 -1.0044  0.7780  0.1967
  767SOL    HW1 3066   2.738   0.663   2.102  1.3809 -1.4015 -1.6022
  767SOL    HW2 3067   2.615   0.597   2.021  2.7855  3.6821 -3.0216
  767SOL     MW 3068   2.677   0.599   2.086 -0.1897  0.8736 -0.4652
  768SOL     OW 3069   3.073   1.551   2.902 -0.2588  0.2029 -0.3495
  768SOL    HW1 3070   3.076   1.539   3.005  1.1922  1.0686  4.3020
  768SOL    HW2 3071   3.139   1.476   2.870 -1.9646 -0.3147 -0.1146
  768SOL     MW 3072   3.082   1.540   2.911 -0.2924  0.2488  0.2952
  769SOL     OW 3073   2.476   0.687   2.364  0.2390 -0.4120 -0.3864
  769SOL    HW1 3074   2.403   0.635   2.347  1.1211  0.2688 -1.2478
  769SOL    HW2 3075   2.528   0.680   2.284 -1.9520 -0.0845 -1.5275
  769SOL     MW 3076   2.474   0.679   2.351  0.0663 -0.2789 -0.6506
  770SOL     OW 3077   3.106   1.636   2.557  0.1517  0.2380 -0.5279
  770SOL    HW1 3078   3.036   1.708   2.567 -1.9757  2.0376  0.6064
  770SOL    HW2 3079   3.050   1.575   2.517  1.1975 -0.8552 -1.3822
  770SOL     MW 3080   3.089   1.637   2.553  0.0090  0.3312 -0.4909
  771SOL     OW 3081   3.050   0.603   2.017 -0.4470  0.2283 -0.8998
  771SOL    HW1 3082   2.969   0.566   1.973 -1.2718 -1.3893 -1.8303
  771SOL    HW2 3083   3.128   0.563   1.968  1.9905  1.2245 -2.7353
  771SOL     MW 3084   3.049   0.593   2.005 -0.2342  0.1463 -1.2647
  772SOL     OW 3085   0.061   3.100   2.304  0.2696 -0.9581  0.1357
  772SOL    HW1 3086  -0.021   3.054   2.287 -1.4757  3.2555 -1.6172
  772SOL    HW2 3087   0.125   3.057   2.249 -1.9830  1.0043 -0.7058
  772SOL     MW 3088   0.058   3.088   2.295 -0.2579 -0.1433 -0.2066
  773SOL     OW 3089   2.436   2.845   2.747  0.4691 -0.4868 -0.2167
  773SOL    HW1 3090   2.452   2.767   2.694 -0.5892 -1.9302 -0.3926
  773SOL    HW2 3091   2.402   2.803   2.827 -1.0009 -0.9863  1.8903
  773SOL     MW 3092   2.434   2.829   2.750  0.1355 -0.7431  0.0381
  774SOL     OW 3093   2.366   1.150   1.736  0.0966 -0.2246  0.0353
  774SOL    HW1 3094   2.323   1.204   1.669 -0.3385  0.6820 -0.3156
  774SOL    HW2 3095   2.338   1.055   1.729 -0.7928 -1.3017  0.6696
  774SOL     MW 3096   2.356   1.145   1.726 -0.0782 -0.2471  0.0727
  775SOL     OW 3097   2.323   2.924   2.328 -0.2533  0.8646  0.3354
  775SOL    HW1 3098   2.322   3.011   2.276 -0.9395  1.2770 -1.6224
  775SOL    HW2 3099   2.399   2.878   2.308 -1.2635 -0.7518 -2.1565
  775SOL     MW 3100   2.333   2.930   2.318 -0.4771  0.7058 -0.2517
  776SOL     OW 3101   0.037   1.532   0.100 -0.0093  0.3779 -0.0564
  776SOL    HW1 3102   0.126   1.504   0.092 -1.3069 -1.8758 -0.8937
  776SOL    HW2 3103  -0.007   1.453   0.116  1.8393  2.2401 -0.7259
  776SOL     MW 3104   0.043   1.518   0.101  0.0634  0.3263 -0.2552
  777SOL     OW 3105   2.966   0.998   1.749 -0.3917 -0.4682  0.2382
  777SOL    HW1 3106   2.920   1.086   1.735  0.3456 -1.1022 -1.5043
  777SOL    HW2 3107   2.901   0.939   1.789 -0.0870 -1.8557 -2.0634
  777SOL     MW 3108   2.952   1.002   1.752 -0.2542 -0.7349 -0.2954
  778SOL     OW 3109   2.888   0.399   2.771  0.0125 -0.6506  0.0489
  778SOL    HW1 3110   2.853   0.423   2.861  1.4066 -0.7069  0.1163
  778SOL    HW2 3111   2.921   0.484   2.734 -0.1263 -2.8751 -0.6480
  778SOL     MW 3112   2.888   0.414   2.778  0.1781 -0.9515 -0.0341
  779SOL     OW 3113   2.111   0.553   2.313 -0.2539 -0.4146  0.2481
  779SOL    HW1 3114   2.067   0.628   2.340  2.2490 -2.2672 -2.3160
  779SOL    HW2 3115   2.125   0.511   2.392  0.0169  2.8361 -1.2575
  779SOL     MW 3116   2.107   0.558   2.327  0.1121 -0.2301 -0.2889
  780SOL     OW 3117   0.186   0.121   2.838 -0.6064 -0.0276  0.0734
  780SOL    HW1 3118   0.138   0.168   2.908 -0.3712 -0.7698  1.8625
  780SOL    HW2 3119   0.140   0.119   2.752 -0.3672 -1.2814  1.2156
  780SOL     MW 3120   0.174   0.127   2.836 -0.5438 -0.2910  0.4601
  781SOL     OW 3121   3.057   1.364   2.471 -0.3908  0.6447 -0.6023
  781SOL    HW1 3122   3.059   1.389   2.380 -0.4987  0.5572 -1.4102
  781SOL    HW2 3123   3.097   1.279   2.486  0.2234 -2.8529 -1.7120
  781SOL     MW 3124   3.063   1.356   2.461 -0.3240  0.1717 -0.8553
  782SOL     OW 3125   0.527   1.579   3.048  0.6157 -0.7660  0.0465
  782SOL    HW1 3126   0.469   1.654   3.030 -0.3664  0.5082 -0.3407
  782SOL    HW2 3127   0.510   1.580   3.146  1.2117 -1.2245 -1.1116
  782SOL     MW 3128   0.517   1.589   3.059  0.5648 -0.6583 -0.1574
  783SOL     OW 3129   2.787   0.565   2.455  0.3120  0.2877 -0.4724
  783SOL    HW1 3130   2.858   0.515   2.423 -0.8486 -0.1816  1.4763
  783SOL    HW2 3131   2.727   0.503   2.495  1.5375 -0.0192 -2.9464
  783SOL     MW 3132   2.788   0.550   2.456  0.3206  0.1853 -0.5417
  784SOL     OW 3133   0.223   0.923   2.904 -0.4208 -0.0729 -0.5821
  784SOL    HW1 3134   0.203   0.998   2.972 -0.3501  1.9660 -1.2108
  784SOL    HW2 3135   0.199   0.979   2.833  1.6756 -0.8032  1.7277
  784SOL     MW 3136   0.217   0.940   2.904 -0.1349  0.0998 -0.3603
  785SOL     OW 3137   0.349   0.476   2.113 -0.1697  0.2620  0.2092
  785SOL    HW1 3138   0.359   0.504   2.019 -2.0260 -3.0565  0.3378
  785SOL    HW2 3139   0.299   0.396   2.118  0.9638  2.4128 -0.7002
  785SOL     MW 3140   0.344   0.470   2.102 -0.2651  0.1079  0.1062
  786SOL     OW 3141   1.998   0.505   2.833  0.7271  0.0569 -0.4185
  786SOL    HW1 3142   1.964   0.541   2.919  4.2969  2.0741  0.4316
  786SOL    HW2 3143   2.089   0.525   2.828  0.3492  2.6169 -2.9485
  786SOL     MW 3144   2.006   0.512   2.844  1.1482  0.6608 -0.6401
  787SOL     OW 3145   2.443   0.193   2.917  0.1294 -0.1465  0.5611
  787SOL    HW1 3146   2.479   0.122   2.867 -0.0807 -0.3403 -0.3761
  787SOL    HW2 3147   2.509   0.246   2.956 -1.1824 -0.3979 -1.4012
  787SOL     MW 3148   2.456   0.190   2.915 -0.0714 -0.2053  0.1785
  788SOL     OW 3149   2.966   2.919   2.277  0.2058 -0.1458 -0.1788
  788SOL    HW1 3150   2.967   2.858   2.207  0.0179  1.4935  1.4340
  788SOL    HW2 3151   3.011   2.877   2.352 -0.0776 -0.5496 -0.4273
  788SOL     MW 3152   2.972   2.905   2.278  0.1436  0.0172  0.0012
  789SOL     OW 3153   0.018   0.250   3.022  0.3025  0.5326 -0.2360
  789SOL    HW1 3154  -0.065   0.282   3.038  0.5364 -1.9489 -0.5234
  789SOL    HW2 3155   0.070   0.273   3.102  1.4176 -1.1120 -0.5190
  789SOL     MW 3156   0.014   0.257   3.034  0.4805 -0.0118 -0.3112
  790SOL     OW 3157   0.019   1.060   2.499  0.2698 -0.1178  0.6448
  790SOL    HW1 3158  -0.026   1.011   2.564 -1.0507  0.0595 -0.6382
  790SOL    HW2 3159  -0.040   1.058   2.427 -1.0197  1.0968  2.1802
  790SOL     MW 3160   0.006   1.053   2.498 -0.0746  0.0659  0.6781
  791SOL     OW 3161   2.654   0.389   2.633  0.1621 -0.0247  0.2128
  791SOL    HW1 3162   2.590   0.441   2.677  1.1462 -1.5163 -0.9155
  791SOL    HW2 3163   2.732   0.383   2.688 -0.5629  0.0945 -1.4104
  791SOL     MW 3164   2.656   0.395   2.646  0.1963 -0.2058 -0.1502
  792SOL     OW 3165   2.420   0.230   2.384  0.7382 -0.1939 -0.2827
  792SOL    HW1 3166   2.376   0.303   2.414  0.7245 -0.1691 -1.9170
  792SOL    HW2 3167   2.477   0.204   2.457  1.8986  4.0419 -1.8775
  792SOL     MW 3168   2.422   0.236   2.398  0.8895  0.3682 -0.7087
  793SOL     OW 3169   1.743   1.033   1.861 -0.0201  0.1165  0.7400
  793SOL    HW1 3170   1.700   1.099   1.802 -0.8346  0.5970 -2.9730
  793SOL    HW2 3171   1.829   1.034   1.824  0.1021 -0.3161 -1.2316
  793SOL     MW 3172   1.749   1.042   1.848 -0.1114  0.1228 -0.0101
  794SOL     OW 3173   1.421   2.295   0.121  0.5113  0.3743 -0.0229
  794SOL    HW1 3174   1.437   2.367   0.057  1.7224 -1.1262 -2.9243
  794SOL    HW2 3175   1.462   2.322   0.201  0.0058  2.4287 -0.9624
  794SOL     MW 3176   1.428   2.308   0.123  0.6044  0.4474 -0.5297
  795SOL     OW 3177   2.358   0.928   2.592  0.0504  0.0413  0.2713
  795SOL    HW1 3178   2.313   0.999   2.631 -0.3917 -0.9784 -0.1505
  795SOL    HW2 3179   2.337   0.944   2.500  1.9173 -0.5415 -1.2757
  795SOL     MW 3180   2.349   0.939   2.585  0.2383 -0.1701  0.0115
  796SOL     OW 3181   0.320   0.688   2.777 -0.0538  0.2615  0.2524
  796SOL    HW1 3182   0.268   0.763   2.807  1.9973  0.8267 -0.1801
  796SOL    HW2 3183   0.265   0.650   2.710 -0.1943 -0.6637 -0.7128
  796SOL     MW 3184   0.306   0.693   2.772  0.1983  0.2140  0.0680
  797SOL     OW 3185   2.587   0.138   2.560  0.0522  0.2330  0.0866
  797SOL    HW1 3186   2.597   0.227   2.606 -0.5342  2.3195  3.1423
  797SOL    HW2 3187   2.667   0.130   2.510 -0.4953 -0.3466 -0.6030
  797SOL     MW 3188   2.599   0.148   2.560 -0.0974  0.4319  0.3988
  798SOL     OW 3189   2.377   0.040   2.190 -0.3989  0.1491  0.2161
  798SOL    HW1 3190   2.402   0.106   2.258 -0.8978  0.3219  0.7282
  798SOL    HW2 3191   2.463   0.004   2.162 -0.7394  0.4803  0.7281
  798SOL     MW 3192   2.391   0.044   2.195 -0.5097  0.2156  0.3513
  799SOL     OW 3193   2.502   2.945   0.203  0.6626  0.2183  0.1095
  799SOL    HW1 3194   2.561   2.896   0.144  1.5740  2.4504  1.6502
  799SOL    HW2 3195   2.445   2.998   0.146 -1.7337  2.2730  1.2585
  799SOL     MW 3196   2.502   2.946   0.188  0.4667  0.7839  0.4644
  800SOL     OW 3197   1.919   3.091   1.725  0.3084 -0.0713 -0.7685
  800SOL    HW1 3198   1.844   3.036   1.752  1.5408 -1.6511 -1.2665
  800SOL    HW2 3199   1.978   3.083   1.805  1.2445 -1.7849 -1.2395
  800SOL     MW 3200   1.917   3.083   1.739  0.5945 -0.5058 -0.8964
  801SOL     OW 3201   2.820   1.288   2.598  0.1741  0.0941  0.6756
  801SOL    HW1 3202   2.795   1.196   2.566 -1.4796  0.4483 -2.5347
  801SOL    HW2 3203   2.906   1.309   2.563  1.2321  0.5323  2.9090
  801SOL     MW 3204   2.828   1.279   2.589  0.0955  0.1987  0.5467
  802SOL     OW 3205   2.560   1.499   2.778  0.4703  0.2480  0.0512
  802SOL    HW1 3206   2.543   1.405   2.769 -0.6420 -0.2020  0.0804
  802SOL    HW2 3207   2.651   1.508   2.792 -1.2201  0.8347 -1.4211
  802SOL     MW 3208   2.570   1.488   2.779  0.1005  0.2660 -0.1392
  803SOL     OW 3209   2.288   1.320   1.964 -0.2367  0.6003 -0.3709
  803SOL    HW1 3210   2.236   1.256   2.009  0.7982 -0.9417 -0.8395
  803SOL    HW2 3211   2.315   1.272   1.887  0.5475  1.3439  2.3069
  803SOL     MW 3212   2.285   1.305   1.960  0.0033  0.4949 -0.0794
  804SOL     OW 3213   2.350   0.040   0.042  0.0359 -0.3728 -0.1468
  804SOL    HW1 3214   2.267   0.094   0.029  0.6228 -0.3273  0.9756
  804SOL    HW2 3215   2.400   0.089  -0.026 -0.0112 -1.1486 -0.1517
  804SOL     MW 3216   2.345   0.054   0.031  0.1071 -0.4691  0.0006
  805SOL     OW 3217   2.773   1.016   2.531  0.5956  0.1939  0.0264
  805SOL    HW1 3218   2.706   0.947   2.547  0.5272  0.4932  1.4494
  805SOL    HW2 3219   2.850   0.974   2.576 -1.9537 -2.5142  0.7418
  805SOL     MW 3220   2.774   1.001   2.539  0.2502 -0.1239  0.3085
  806SOL     OW 3221   2.677   0.336   2.224 -0.6870 -0.5379 -0.0437
  806SOL    HW1 3222   2.590   0.316   2.252  0.9512  0.8772  1.2774
  806SOL    HW2 3223   2.664   0.424   2.197  1.9358 -2.6209 -2.3729
  806SOL     MW 3224   2.663   0.345   2.224 -0.1248 -0.6260 -0.1767
  807SOL     OW 3225   0.026   1.157   2.071  0.4904  0.0189  0.1642
  807SOL    HW1 3226   0.065   1.083   2.024 -3.6173 -0.0256 -0.8042
  807SOL    HW2 3227  -0.037   1.110   2.128 -0.3917  1.7642  2.1102
  807SOL     MW 3228   0.023   1.141   2.072 -0.1680  0.2433  0.2932
  808SOL     OW 3229   2.580   3.086   2.795  0.3237 -0.0450 -0.6130
  808SOL    HW1 3230   2.554   2.996   2.763 -2.4149  0.6247  0.6748
  808SOL    HW2 3231   2.586   3.141   2.716 -0.1042 -0.4400  2.1751
  808SOL     MW 3232   2.578   3.081   2.781 -0.0941 -0.0088 -0.0752
  809SOL     OW 3233   2.495   1.240   2.409  0.1134  0.3737  0.2139
  809SOL    HW1 3234   2.515   1.216   2.494 -0.3600 -4.1709 -1.8853
  809SOL    HW2 3235   2.575   1.240   2.357  0.8927 -2.0230 -1.6302
  809SOL     MW 3236   2.508   1.237   2.413  0.1538 -0.5421 -0.3064
  810SOL     OW 3237   2.154   1.183   2.168 -0.5176 -0.1095  0.2953
  810SOL    HW1 3238   2.203   1.123   2.226  0.4759 -3.4670 -2.3409
  810SOL    HW2 3239   2.083   1.121   2.142  0.2704 -0.2174 -1.1974
  810SOL     MW 3240   2.151   1.167   2.172 -0.2826 -0.5668 -0.2494
  811SOL     OW 3241   1.506   0.090   2.246  0.6314 -0.2229 -0.2715
  811SOL    HW1 3242   1.591   0.083   2.302  1.5397 -2.1191  1.4337
  811SOL    HW2 3243   1.523   0.098   2.152  1.1324 -1.7774  2.4819
  811SOL     MW 3244   1.520   0.090   2.241  0.8173 -0.6782  0.3168
  812SOL     OW 3245   1.438   2.766   2.118  0.7656 -0.1710  0.2214
  812SOL    HW1 3246   1.522   2.796   2.075 -1.1684 -2.9129 -1.2832
  812SOL    HW2 3247   1.459   2.754   2.211  0.3181  1.9781 -0.4146
  812SOL     MW 3248   1.452   2.768   2.125  0.4514 -0.2492 -0.0610
  813SOL     OW 3249   1.852   0.745   2.167  0.0870 -0.8271  0.3260
  813SOL    HW1 3250   1.814   0.656   2.166  1.1547 -2.3449 -1.6064
  813SOL    HW2 3251   1.873   0.762   2.261 -0.5980  0.1436 -0.0453
  813SOL     MW 3252   1.850   0.735   2.179  0.1375 -0.8993  0.0220
  814SOL     OW 3253   2.800   1.205   1.629  0.3938  0.3273  0.5553
  814SOL    HW1 3254   2.724   1.155   1.672  0.1607 -3.2488 -0.2314
  814SOL    HW2 3255   2.821   1.160   1.548  0.5811  1.5530 -0.7234
  814SOL     MW 3256   2.793   1.193   1.624  0.3877  0.0172  0.2828
  815SOL     OW 3257   2.476   1.627   2.344  0.3288 -0.4798  0.0796
  815SOL    HW1 3258   2.397   1.569   2.322 -1.6166  0.2511  2.4180
  815SOL    HW2 3259   2.548   1.571   2.344  0.5183  1.4197 -2.1204
  815SOL     MW 3260   2.475   1.612   2.341  0.0971 -0.1327  0.0979
  816SOL     OW 3261   0.655   0.671   2.668  0.2473  0.4823 -0.0055
  816SOL    HW1 3262   0.706   0.612   2.723 -1.1443  0.3545 -2.1938
  816SOL    HW2 3263   0.589   0.610   2.617  0.0309 -1.3881  0.0658
  816SOL     MW 3264   0.653   0.655   2.668  0.0351  0.2187 -0.2848
  817SOL     OW 3265   3.029   1.152   1.341  1.1713  0.0185 -0.3057
  817SOL    HW1 3266   3.074   1.174   1.423  0.1052 -2.9291 -0.3495
  817SOL    HW2 3267   2.996   1.242   1.309 -3.7255  1.2490 -0.1711
  817SOL     MW 3268   3.030   1.167   1.348  0.3846 -0.2081 -0.2937
  818SOL     OW 3269   1.910   0.964   2.687 -0.0611 -0.0932  0.0970
  818SOL    HW1 3270   1.947   1.035   2.631  3.4346  0.0008 -1.6174
  818SOL    HW2 3271   1.979   0.898   2.687 -0.7255 -1.1948 -0.3111
  818SOL     MW 3272   1.924   0.964   2.679  0.3124 -0.2261 -0.1831
  819SOL     OW 3273   1.895   0.256   2.333  0.9678  0.1319 -0.0842
  819SOL    HW1 3274   1.852   0.344   2.338  0.7014 -1.6988  1.0867
  819SOL    HW2 3275   1.932   0.242   2.418  0.2306 -2.5975 -1.1898
  819SOL     MW 3276   1.894   0.265   2.345  0.8354 -0.4697 -0.0756
  820SOL     OW 3277   2.485   1.747   2.601 -0.4425 -0.1201 -0.4282
  820SOL    HW1 3278   2.495   1.679   2.671  4.0503 -2.4020  1.3446
  820SOL    HW2 3279   2.452   1.688   2.533 -0.8983  0.6652  0.5866
  820SOL     MW 3280   2.482   1.731   2.602  0.0901 -0.3176 -0.0604
  821SOL     OW 3281   2.576   1.324   1.999 -0.2660 -0.3604  0.4081
  821SOL    HW1 3282   2.596   1.390   1.927 -0.5647  1.8063  1.8333
  821SOL    HW2 3283   2.485   1.324   2.002  0.0504 -0.3068  1.4104
  821SOL     MW 3284   2.567   1.332   1.990 -0.2637 -0.0675  0.7284
  822SOL     OW 3285   2.924   2.646   1.438 -0.1743 -0.6367  0.5568
  822SOL    HW1 3286   2.839   2.666   1.405 -0.3111  0.9292  1.0150
  822SOL    HW2 3287   2.963   2.733   1.458  1.4322  1.0661  1.7529
  822SOL     MW 3288   2.918   2.660   1.436  0.0196 -0.2054  0.7750
  823SOL     OW 3289   2.351   0.468   1.776  0.4691  0.2165  0.8152
  823SOL    HW1 3290   2.423   0.418   1.732 -1.0818 -0.3289 -2.4958
  823SOL    HW2 3291   2.268   0.413   1.771  1.1502 -0.7789  0.4425
  823SOL     MW 3292   2.350   0.454   1.769  0.3544  0.0132  0.3292
  824SOL     OW 3293   2.113   1.369   2.593 -0.2272 -0.1335 -0.1126
  824SOL    HW1 3294   2.163   1.417   2.523  1.4947  0.3301 -0.0906
  824SOL    HW2 3295   2.096   1.440   2.661  1.8244 -0.2416 -0.1262
  824SOL     MW 3296   2.117   1.385   2.592  0.2707 -0.0866 -0.1115
  825SOL     OW 3297   2.131   2.384   0.350 -0.1989 -0.5924 -0.1692
  825SOL    HW1 3298   2.197   2.418   0.282  0.3826 -0.1195  1.3382
  825SOL    HW2 3299   2.180   2.359   0.427  1.8401  1.4532  0.4748
  825SOL     MW 3300   2.147   2.385   0.351  0.1468 -0.2601  0.1147
  826SOL     OW 3301   1.742   2.395   0.422  0.0396  0.3674 -0.0963
  826SOL    HW1 3302   1.752   2.319   0.484  1.2933 -0.3680  2.8387
  826SOL    HW2 3303   1.805   2.460   0.460  2.8540 -0.0501  0.5257
  826SOL     MW 3304   1.752   2.394   0.435  0.5764  0.2153  0.3730
  827SOL     OW 3305   1.930   2.273   0.862 -0.1447  0.0434 -0.0511
  827SOL    HW1 3306   1.888   2.277   0.773 -0.4423  0.4868  0.7952
  827SOL    HW2 3307   1.866   2.212   0.897  0.6921 -4.6448 -0.7974
  827SOL     MW 3308   1.916   2.266   0.855 -0.0736 -0.5167 -0.0379
  828SOL     OW 3309   0.093   2.610   0.549  0.5408  0.2879 -0.1778
  828SOL    HW1 3310   0.177   2.648   0.579 -1.2546 -0.0915  1.7729
  828SOL    HW2 3311   0.073   2.638   0.458  0.2398  1.4602  1.6425
  828SOL     MW 3312   0.101   2.619   0.541  0.2642  0.3925  0.3197
  829SOL     OW 3313   2.995   2.863   1.198  0.2645 -0.5386 -0.0658
  829SOL    HW1 3314   2.912   2.873   1.144  2.6003 -0.9108  1.7858
  829SOL    HW2 3315   3.033   2.778   1.179 -0.7437  0.6807  1.5864
  829SOL     MW 3316   2.989   2.853   1.188  0.4397 -0.4268  0.3965
  830SOL     OW 3317   2.516   2.788   1.997 -0.0124  0.0277 -0.2915
  830SOL    HW1 3318   2.426   2.830   1.980 -3.3656  2.3433 -0.6630
  830SOL    HW2 3319   2.561   2.782   1.914 -0.2182  1.9699  1.3099
  830SOL     MW 3320   2.510   2.793   1.984 -0.4820  0.5895 -0.1293
  831SOL     OW 3321   2.464   2.422   1.239  0.0305 -0.1691  0.0571
  831SOL    HW1 3322   2.463   2.346   1.299  1.1313  1.1842 -0.8192
  831SOL    HW2 3323   2.540   2.408   1.181  1.7503  2.5598 -0.3013
  831SOL     MW 3324   2.474   2.410   1.239  0.4027  0.3695 -0.1058
  832SOL     OW 3325   2.435   2.115   1.910 -0.0206 -0.5477  0.1001
  832SOL    HW1 3326   2.451   2.211   1.901  0.9275  2.7082 -1.1125
  832SOL    HW2 3327   2.505   2.075   1.865  0.0767  0.5264 -0.7898
  832SOL     MW 3328   2.446   2.122   1.903  0.1174  0.0236 -0.1773
  833SOL     OW 3329   1.623   2.503   0.814 -0.5041 -0.4352 -0.3036
  833SOL    HW1 3330   1.581   2.447   0.883  3.4331 -2.1474 -2.6899
  833SOL    HW2 3331   1.566   2.585   0.793 -0.1769  0.2943  0.5033
  833SOL     MW 3332   1.610   2.506   0.820  0.0585 -0.5649 -0.5120
  834SOL     OW 3333   2.226   2.391   0.651 -1.0414  0.5878 -0.1997
  834SOL    HW1 3334   2.202   2.297   0.679  0.5841 -1.2923 -3.0097
  834SOL    HW2 3335   2.314   2.411   0.692  0.7593  2.6997  2.2700
  834SOL     MW 3336   2.235   2.381   0.660 -0.5893  0.6184 -0.2446
  835SOL     OW 3337   1.860   2.566   0.655  1.3625  1.2298  0.6749
  835SOL    HW1 3338   1.788   2.534   0.705  0.5934 -3.2412  2.2230
  835SOL    HW2 3339   1.937   2.556   0.709 -1.3937 -2.2786  1.6574
  835SOL     MW 3340   1.861   2.561   0.669  0.8974  0.1770  1.0088
  836SOL     OW 3341   2.088   2.063   1.749 -0.1933 -0.2306  0.5112
  836SOL    HW1 3342   2.171   2.019   1.732  1.3065 -1.2883  0.5355
  836SOL    HW2 3343   2.113   2.145   1.794  0.0825 -0.5189 -0.3092
  836SOL     MW 3344   2.102   2.068   1.753  0.0410 -0.4082  0.4062
  837SOL     OW 3345   2.125   0.176   0.642  0.1048  0.1290  0.2759
  837SOL    HW1 3346   2.051   0.199   0.590  2.7108 -2.1595  4.0710
  837SOL    HW2 3347   2.175   0.128   0.577  0.7052  3.4105  1.0332
  837SOL     MW 3348   2.122   0.172   0.627  0.5279  0.2600  0.8765
  838SOL     OW 3349   2.929   2.055   0.907  0.1860 -0.5850  0.4853
  838SOL    HW1 3350   2.868   1.979   0.899  0.2809  1.2676 -0.2928
  838SOL    HW2 3351   2.955   2.042   0.996 -1.6461  1.0939  0.0863
  838SOL     MW 3352   2.924   2.043   0.918 -0.0432 -0.1190  0.3300
  839SOL     OW 3353   1.531   2.390   1.083 -0.0066 -0.3948  0.2595
  839SOL    HW1 3354   1.482   2.452   1.137  0.9699 -0.4586  0.1655
  839SOL    HW2 3355   1.514   2.298   1.118 -0.2920  3.4694 -2.5674
  839SOL     MW 3356   1.522   2.386   1.095  0.0846  0.1066 -0.1259
  840SOL     OW 3357   2.418   2.111   2.322 -0.6694  0.0826 -0.1142
  840SOL    HW1 3358   2.369   2.189   2.290 -0.2504 -0.7204  0.1178
  840SOL    HW2 3359   2.466   2.136   2.407  1.0519  0.2469 -0.0387
  840SOL     MW 3360   2.418   2.125   2.329 -0.3870 -0.0017 -0.0736
  841SOL     OW 3361   2.309   2.299   0.119 -0.5273  0.1257  0.1111
  841SOL    HW1 3362   2.326   2.363   0.044  0.3701 -3.1068 -2.9392
  841SOL    HW2 3363   2.232   2.251   0.086 -1.1959 -1.1552  1.6624
  841SOL     MW 3364   2.301   2.301   0.104 -0.4971 -0.4698 -0.0867
  842SOL     OW 3365   2.663   1.932   1.484  0.5445  0.2619  0.1835
  842SOL    HW1 3366   2.619   1.851   1.455 -0.6615  1.2036 -0.2935
  842SOL    HW2 3367   2.647   1.989   1.411  1.5512 -0.9146  1.4397
  842SOL     MW 3368   2.655   1.929   1.471  0.5182  0.2309  0.2863
  843SOL     OW 3369   2.647   2.777   1.764 -0.0316 -0.1456  0.0263
  843SOL    HW1 3370   2.736   2.758   1.779 -2.6629 -3.3780 -0.3570
  843SOL    HW2 3371   2.614   2.702   1.708  0.9316  0.5945 -1.4909
  843SOL     MW 3372   2.654   2.765   1.759 -0.2517 -0.4745 -0.2244
  844SOL     OW 3373   2.681   2.333   1.084 -0.2310  0.1462  0.0510
  844SOL    HW1 3374   2.670   2.391   1.008 -1.6845 -0.2997 -0.8725
  844SOL    HW2 3375   2.756   2.369   1.134 -1.3232 -0.2388  1.8718
  844SOL     MW 3376   2.689   2.346   1.081 -0.5669  0.0366  0.1694
  845SOL     OW 3377   2.840   2.613   0.276 -0.1866  0.1093 -0.0521
  845SOL    HW1 3378   2.830   2.534   0.337 -1.8788  1.4646 -2.0643
  845SOL    HW2 3379   2.872   2.694   0.324 -0.7555  1.4816 -0.2407
  845SOL     MW 3380   2.843   2.613   0.290 -0.4849  0.4692 -0.3424
  846SOL     OW 3381   1.458   2.739   0.775 -0.2894 -0.4371 -0.3059
  846SOL    HW1 3382   1.502   2.820   0.800 -0.1863 -1.3543  0.8177
  846SOL    HW2 3383   1.364   2.754   0.781 -1.9200 -0.4447  0.0403
  846SOL     MW 3384   1.451   2.752   0.779 -0.4909 -0.5591 -0.1120
  847SOL     OW 3385   2.450   1.824   0.221  0.0134 -0.6163  0.2608
  847SOL    HW1 3386   2.425   1.730   0.239 -2.1764 -3.3729  1.0835
  847SOL    HW2 3387   2.446   1.834   0.117 -1.9091  1.7636 -1.3818
  847SOL     MW 3388   2.446   1.813   0.210 -0.5291 -0.6660  0.1526
  848SOL     OW 3389   2.690   2.051   1.198  0.9637  0.3705 -0.2228
  848SOL    HW1 3390   2.728   2.133   1.173 -0.0506  1.3279  0.6384
  848SOL    HW2 3391   2.732   1.990   1.135 -1.8132 -4.2780 -0.4207
  848SOL     MW 3392   2.701   2.053   1.186  0.4635 -0.1165 -0.1353
  849SOL     OW 3393   1.941   2.842   0.829 -0.1370  0.4044 -0.1402
  849SOL    HW1 3394   1.916   2.757   0.867  0.0684 -2.2692 -1.1073
  849SOL    HW2 3395   2.007   2.823   0.760 -0.5930 -1.5893  1.4285
  849SOL     MW 3396   1.946   2.828   0.825 -0.1700 -0.2114 -0.0608
  850SOL     OW 3397   2.329   1.936   1.614 -0.1370  0.3037 -0.2128
  850SOL    HW1 3398   2.241   1.934   1.570  0.0654 -1.5979  1.7848
  850SOL    HW2 3399   2.361   2.028   1.608  1.1142  3.9703  0.1328
  850SOL     MW 3400   2.321   1.948   1.608  0.0548  0.5366  0.0963
  851SOL     OW 3401   2.538   2.200   0.400  0.4452 -0.0959  0.7205
  851SOL    HW1 3402   2.546   2.154   0.312  1.3734 -1.5691 -0.1935
  851SOL    HW2 3403   2.478   2.267   0.376  1.4502  1.3132 -0.0821
  851SOL     MW 3404   2.531   2.203   0.385  0.7003 -0.1044  0.4940
  852SOL     OW 3405   2.288   1.998   0.351  0.9021  0.1517  0.2956
  852SOL    HW1 3406   2.311   2.086   0.318 -1.3504 -0.2861 -1.7623
  852SOL    HW2 3407   2.362   1.946   0.309  1.6438  3.1383 -0.5994
  852SOL     MW 3408   2.301   2.002   0.341  0.7028  0.4880 -0.0940
  853SOL     OW 3409   2.529   2.385   1.905 -0.0795  0.7096 -0.1688
  853SOL    HW1 3410   2.520   2.435   1.823 -0.2312 -0.0698 -2.2461
  853SOL    HW2 3411   2.625   2.371   1.916 -2.5247 -2.1429  0.7584
  853SOL     MW 3412   2.540   2.390   1.896 -0.4221  0.2304 -0.3205
  854SOL     OW 3413   2.866   2.255   0.731 -0.7144  0.0825 -0.3023
  854SOL    HW1 3414   2.776   2.240   0.701 -2.0996  0.3522  3.2785
  854SOL    HW2 3415   2.884   2.198   0.811  3.0492 -0.7207  0.0994
  854SOL     MW 3416   2.857   2.245   0.737 -0.4006  0.0121  0.2231
  855SOL     OW 3417   2.795   2.382   0.429  0.1517 -0.0797  0.0013
  855SOL    HW1 3418   2.705   2.357   0.413  0.4587 -1.5450 -0.2421
  855SOL    HW2 3419   2.844   2.304   0.419  0.7913  0.4769  0.5778
  855SOL     MW 3420   2.790   2.368   0.426  0.2766 -0.1996  0.0453
  856SOL     OW 3421   2.090   1.863   0.241  0.3785 -0.4510 -0.0505
  856SOL    HW1 3422   2.006   1.875   0.284  0.1690 -1.2635 -0.5091
  856SOL    HW2 3423   2.153   1.922   0.283  1.4566  1.5291 -2.8481
  856SOL     MW 3424   2.087   1.872   0.252  0.4931 -0.2969 -0.4801
  857SOL     OW 3425   2.459   1.916   0.582 -0.0972 -0.4620 -0.3079
  857SOL    HW1 3426   2.409   1.951   0.510 -0.3423 -0.9079  2.4860
  857SOL    HW2 3427   2.387   1.919   0.652 -1.7228 -1.0054  1.0908
  857SOL     MW 3428   2.443   1.921   0.582 -0.3440 -0.5926  0.2453
  858SOL     OW 3429   2.914   2.688   1.809  0.6396 -0.3109  0.2563
  858SOL    HW1 3430   2.979   2.757   1.813  1.8352 -1.6953  1.0464
  858SOL    HW2 3431   2.945   2.617   1.758 -0.0992 -0.4466  2.4647
  858SOL     MW 3432   2.926   2.688   1.803  0.6999 -0.5115  0.6519
  859SOL     OW 3433   1.773   2.658   0.971 -0.4837 -0.3969  0.2081
  859SOL    HW1 3434   1.713   2.613   0.912 -3.1486 -0.4187 -0.1683
  859SOL    HW2 3435   1.820   2.593   1.025  1.6006 -3.5606  1.9556
  859SOL     MW 3436   1.772   2.643   0.970 -0.5603 -0.8172  0.3890
  860SOL     OW 3437   2.632   2.584   0.124  0.2179  0.0392 -0.7223
  860SOL    HW1 3438   2.701   2.601   0.194 -1.1572 -0.0672 -0.8731
  860SOL    HW2 3439   2.628   2.672   0.074  0.4384  0.6505 -2.3406
  860SOL     MW 3440   2.641   2.598   0.127  0.0656  0.1058 -0.9557
  861SOL     OW 3441   1.612   2.151   1.180 -0.2011  0.3504 -0.2543
  861SOL    HW1 3442   1.627   2.219   1.248  2.0591  1.4743  1.5342
  861SOL    HW2 3443   1.543   2.088   1.211 -1.4922  0.4750 -0.5752
  861SOL     MW 3444   1.605   2.152   1.193 -0.0732  0.5151 -0.0606
  862SOL     OW 3445   2.410   1.714   1.430  0.1225 -0.1547  0.0376
  862SOL    HW1 3446   2.369   1.790   1.464 -0.7977  1.3715  1.1691
  862SOL    HW2 3447   2.367   1.697   1.346 -2.6654 -2.0146  1.0218
  862SOL     MW 3448   2.399   1.721   1.423 -0.3667 -0.1988  0.3168
  863SOL     OW 3449   2.923   1.714   0.970 -0.8658 -0.3223 -0.2004
  863SOL    HW1 3450   2.915   1.751   1.056 -1.0181  0.2224  0.0519
  863SOL    HW2 3451   2.833   1.693   0.943 -0.5527 -0.0465 -2.1779
  863SOL     MW 3452   2.910   1.716   0.978 -0.8446 -0.2140 -0.4280
  864SOL     OW 3453   0.017   1.755   0.766 -0.1063 -0.1653  0.4326
  864SOL    HW1 3454  -0.026   1.750   0.853 -2.8975 -0.5982 -1.4219
  864SOL    HW2 3455  -0.064   1.755   0.711 -1.8603  1.5866 -0.4296
  864SOL     MW 3456   0.000   1.755   0.770 -0.7060  0.0087  0.0741
  865SOL     OW 3457   2.549   2.142   0.132 -0.3327  0.1729  0.1659
  865SOL    HW1 3458   2.561   2.064   0.081 -2.2022 -1.3072 -0.0689
  865SOL    HW2 3459   2.461   2.173   0.093  1.1412 -1.9784  0.0417
  865SOL     MW 3460   2.539   2.136   0.120 -0.3849 -0.3063  0.1185
  866SOL     OW 3461   2.728   2.350   1.521  0.4138  0.2033 -0.3785
  866SOL    HW1 3462   2.742   2.257   1.551  0.8171 -2.0277  1.0055
  866SOL    HW2 3463   2.763   2.356   1.434  0.5312  2.0695  1.2373
  866SOL     MW 3464   2.735   2.339   1.514  0.4825  0.1552  0.0173
  867SOL     OW 3465   0.110   2.664   1.735  0.4385 -0.0690 -0.1211
  867SOL    HW1 3466   0.199   2.691   1.743 -0.0102  0.2860 -1.3609
  867SOL    HW2 3467   0.061   2.734   1.688  0.4294  0.0091  2.4015
  867SOL     MW 3468   0.115   2.677   1.730  0.3781 -0.0119  0.0482
  868SOL     OW 3469   2.742   2.685   0.592  0.3041 -0.5113  0.4236
  868SOL    HW1 3470   2.724   2.593   0.590  0.5985  3.1384  0.1443
  868SOL    HW2 3471   2.656   2.727   0.569 -0.9546  1.8584  1.9372
  868SOL     MW 3472   2.728   2.678   0.589  0.1769  0.2829  0.5865
  869SOL     OW 3473   1.955   2.469   1.064 -0.9343  0.2334  0.3455
  869SOL    HW1 3474   2.005   2.514   0.995 -1.5208 -0.1773 -0.3317
  869SOL    HW2 3475   1.934   2.396   1.008 -0.9448 -1.8154  0.6637
  869SOL     MW 3476   1.958   2.466   1.047 -1.0130 -0.0911  0.2982
  870SOL     OW 3477   2.208   3.077   0.455 -0.9215  0.1495 -0.1089
  870SOL    HW1 3478   2.284   3.096   0.401  0.0536 -0.9803 -1.8655
  870SOL    HW2 3479   2.227   2.990   0.493  2.1812 -1.5538 -0.2445
  870SOL     MW 3480   2.220   3.068   0.453 -0.3835 -0.2243 -0.3585
  871SOL     OW 3481   2.475   2.092   0.918  0.1691 -0.4343  0.2911
  871SOL    HW1 3482   2.389   2.083   0.882 -0.5877 -1.4429 -1.2190
  871SOL    HW2 3483   2.472   2.187   0.924 -2.4322  0.5934 -1.4289
  871SOL     MW 3484   2.464   2.103   0.914 -0.2740 -0.4318 -0.1351
  872SOL     OW 3485   2.116   2.514   1.638 -0.4490 -0.8307  0.0074
  872SOL    HW1 3486   2.045   2.568   1.674  1.0538  0.6721  1.4147
  872SOL    HW2 3487   2.068   2.479   1.558 -0.8335 -0.0406  0.2614
  872SOL     MW 3488   2.100   2.516   1.632 -0.3015 -0.5282  0.2266
  873SOL     OW 3489   2.860   2.164   1.829 -0.3800 -0.2771  0.4811
  873SOL    HW1 3490   2.848   2.245   1.874  2.3407 -1.6506  0.6564
  873SOL    HW2 3491   2.943   2.170   1.780 -1.8942  1.4490 -0.7662
  873SOL     MW 3492   2.869   2.175   1.829 -0.2208 -0.2306  0.3397
  874SOL     OW 3493   2.271   1.420   2.333  0.4161  0.2346  0.2396
  874SOL    HW1 3494   2.222   1.365   2.272  0.9033  2.0600 -0.2695
  874SOL    HW2 3495   2.349   1.371   2.363  4.7251 -1.2041  1.3357
  874SOL     MW 3496   2.275   1.406   2.329  1.0489  0.2856  0.3170
  875SOL     OW 3497   2.384   2.352   0.964 -0.0270 -0.3120  0.5387
  875SOL    HW1 3498   2.436   2.414   0.914 -1.1316  0.6930  0.0534
  875SOL    HW2 3499   2.412   2.372   1.058 -1.1485  0.1674  1.4256
  875SOL     MW 3500   2.395   2.363   0.970 -0.3207 -0.1161  0.5917
  876SOL     OW 3501   3.085   2.224   1.325  0.3571 -0.2907 -0.0346
  876SOL    HW1 3502   3.143   2.271   1.265  1.5399 -1.5802  1.1691
  876SOL    HW2 3503   3.098   2.254   1.418  0.7843 -1.5971  1.9081
  876SOL     MW 3504   3.094   2.234   1.329  0.5695 -0.6332  0.3805
  877SOL     OW 3505   0.018   2.758   0.304  0.0920  0.8448 -0.7088
  877SOL    HW1 3506   0.089   2.819   0.308  2.8556  0.3287  2.2956
  877SOL    HW2 3507   0.030   2.701   0.222  1.0021 -1.7256 -0.2543
  877SOL     MW 3508   0.029   2.758   0.294  0.5767  0.4375 -0.2524
  878SOL     OW 3509   2.264   1.658   1.160  0.0446 -0.0067  0.1877
  878SOL    HW1 3510   2.182   1.617   1.218 -0.9917 -1.0355 -0.8234
  878SOL    HW2 3511   2.284   1.591   1.089  1.4239 -0.7944 -1.3837
  878SOL     MW 3512   2.256   1.644   1.158  0.0899 -0.2464 -0.1530
  879SOL     OW 3513   2.735   2.477   0.852 -0.0657 -0.4919 -0.1810
  879SOL    HW1 3514   2.809   2.536   0.873 -2.4049  0.4356  1.3714
  879SOL    HW2 3515   2.782   2.402   0.805  1.0567  1.4434  1.8591
  879SOL     MW 3516   2.751   2.475   0.849 -0.2262 -0.1142  0.2930
  880SOL     OW 3517   2.613   2.215   0.686  0.2838 -0.0823  0.1369
  880SOL    HW1 3518   2.574   2.149   0.735  1.0128  1.1575 -1.6256
  880SOL    HW2 3519   2.604   2.198   0.584  2.4350 -1.1199 -0.8015
  880SOL     MW 3520   2.607   2.204   0.679  0.6639 -0.0556 -0.2195
  881SOL     OW 3521   2.987   2.759   0.702  0.2104 -0.2881 -0.8049
  881SOL    HW1 3522   2.899   2.731   0.660  0.8628 -0.9248 -0.0474
  881SOL    HW2 3523   3.058   2.740   0.643 -2.0021  1.6123  1.0059
  881SOL     MW 3524   2.985   2.753   0.689  0.0046 -0.1214 -0.4660
  882SOL     OW 3525   2.229   2.899   1.937 -0.1321 -0.1777  0.0056
  882SOL    HW1 3526   2.224   2.916   1.841  0.2684 -2.0567 -0.2874
  882SOL    HW2 3527   2.192   2.816   1.957  1.5557  0.3631  1.3084
  882SOL     MW 3528   2.223   2.890   1.927  0.1434 -0.3543  0.1389
  883SOL     OW 3529   2.460   2.145   1.298 -0.3296  0.0287  0.1906
  883SOL    HW1 3530   2.544   2.119   1.262  0.6953 -0.8523 -1.6786
  883SOL    HW2 3531   2.390   2.133   1.229 -0.5053  0.8719 -1.4974
  883SOL     MW 3532   2.462   2.140   1.284 -0.2176  0.0237 -0.2788
  884SOL     OW 3533   1.912   1.861   1.047 -0.3148  0.5297  0.4143
  884SOL    HW1 3534   1.863   1.946   1.025 -0.0782 -1.6242 -3.6017
  884SOL    HW2 3535   2.006   1.869   1.021 -0.6920 -3.0648 -0.5607
  884SOL     MW 3536   1.918   1.873   1.041 -0.3334 -0.2287 -0.2442
  885SOL     OW 3537   2.941   2.433   1.683  0.2692  0.4517  0.2976
  885SOL    HW1 3538   2.990   2.354   1.663 -0.5015 -0.9030 -1.3078
  885SOL    HW2 3539   2.867   2.428   1.619 -1.6344  0.0834 -2.1093
  885SOL     MW 3540   2.937   2.422   1.672 -0.0836  0.2244 -0.2318
  886SOL     OW 3541   2.866   2.423   1.262 -0.5259 -0.3016 -0.1451
  886SOL    HW1 3542   2.927   2.359   1.287 -2.8221 -2.3099  2.9616
  886SOL    HW2 3543   2.902   2.502   1.312 -0.6160  1.4296  0.9754
  886SOL     MW 3544   2.879   2.425   1.272 -0.8408 -0.3382  0.4126
  887SOL     OW 3545   2.319   2.681   1.567  0.2061 -0.3229  0.2424
  887SOL    HW1 3546   2.316   2.708   1.472 -2.6291 -0.5973 -1.2574
  887SOL    HW2 3547   2.247   2.619   1.582 -0.9852 -2.0394 -0.8622
  887SOL     MW 3548   2.309   2.676   1.556 -0.3252 -0.5856 -0.1012
  888SOL     OW 3549   2.052   2.176   1.420  0.1114 -0.0622  0.1666
  888SOL    HW1 3550   2.115   2.137   1.360  2.4869  0.6397  2.6023
  888SOL    HW2 3551   2.067   2.137   1.509 -0.0123  1.0359 -0.0638
  888SOL     MW 3552   2.063   2.166   1.424  0.4085  0.1753  0.4576
  889SOL     OW 3553   2.281   1.901   2.095 -0.4915  0.4112  0.6319
  889SOL    HW1 3554   2.365   1.868   2.141  0.6519  1.2099  1.3704
  889SOL    HW2 3555   2.320   1.962   2.032 -2.2879 -1.0097 -0.3276
  889SOL     MW 3556   2.298   1.905   2.093 -0.5777  0.3291  0.6027
  890SOL     OW 3557   0.066   2.338   0.154  0.4681 -0.7130  0.0111
  890SOL    HW1 3558   0.035   2.434   0.144  1.1540 -0.0447 -0.3100
  890SOL    HW2 3559   0.068   2.310   0.246  3.4640  2.3133 -3.1743
  890SOL     MW 3560   0.062   2.347   0.165  0.9539 -0.2256 -0.4515
  891SOL     OW 3561   3.001   1.978   1.161 -0.2088  0.1060 -0.1787
  891SOL    HW1 3562   3.075   1.918   1.146 -3.1591 -5.5204  0.9143
  891SOL    HW2 3563   3.030   2.055   1.218  0.1411 -0.9993  2.2241
  891SOL     MW 3564   3.015   1.980   1.166 -0.5519 -0.7822  0.2825
  892SOL     OW 3565   2.474   2.361   2.778 -0.6083 -0.6211 -0.5115
  892SOL    HW1 3566   2.445   2.280   2.826  2.8408  2.6183  0.4571
  892SOL    HW2 3567   2.569   2.381   2.805  0.0999  0.6618 -1.9467
  892SOL     MW 3568   2.483   2.353   2.788 -0.0598 -0.0244 -0.5731
  893SOL     OW 3569   1.630   2.339   1.407 -0.3810 -0.0431  0.2832
  893SOL    HW1 3570   1.553   2.400   1.429  3.0508  1.0589  1.3780
  893SOL    HW2 3571   1.686   2.346   1.484  0.1560 -0.2495 -0.2282
  893SOL     MW 3572   1.627   2.348   1.420  0.1426  0.0751  0.3602
  894SOL     OW 3573   2.755   1.955   0.472  0.0139  0.7953  0.0107
  894SOL    HW1 3574   2.686   1.974   0.528 -1.2414  0.1486 -1.1213
  894SOL    HW2 3575   2.719   1.895   0.404 -0.8579 -0.2613 -0.4316
  894SOL     MW 3576   2.741   1.950   0.471 -0.2667  0.5706 -0.1970
  895SOL     OW 3577   2.237   2.128   1.141 -0.4042  0.5860  0.7032
  895SOL    HW1 3578   2.268   2.186   1.078 -1.1961 -0.0541  1.0755
  895SOL    HW2 3579   2.230   2.043   1.102  1.2087 -1.2342 -0.5272
  895SOL     MW 3580   2.240   2.124   1.127 -0.2958  0.2614  0.5900
  896SOL     OW 3581   2.227   2.819   1.070  0.1567  0.3992  0.0475
  896SOL    HW1 3582   2.252   2.796   1.158 -1.9508  1.7057 -0.2366
  896SOL    HW2 3583   2.162   2.889   1.074  0.2608 -0.3969 -0.0951
  896SOL     MW 3584   2.222   2.825   1.082 -0.1077  0.4666 -0.0088
  897SOL     OW 3585   3.101   3.042   3.093 -0.2974  0.5507 -0.5334
  897SOL    HW1 3586   3.139   2.952   3.086  2.1305 -2.4562  0.0585
  897SOL    HW2 3587   3.040   3.055   3.022  1.7591 -0.2572  0.7685
  897SOL     MW 3588   3.098   3.032   3.083  0.2943  0.0474 -0.2835
  898SOL     OW 3589   2.204   0.160   1.456  0.3193  0.0919 -0.1404
  898SOL    HW1 3590   2.143   0.091   1.483  0.3823 -0.5615  0.4347
  898SOL    HW2 3591   2.190   0.173   1.366 -0.7271 -1.0086 -1.1005
  898SOL     MW 3592   2.194   0.153   1.448  0.1896 -0.1395 -0.1912
  899SOL     OW 3593   2.957   3.033   0.632  0.0159 -0.3417  0.2753
  899SOL    HW1 3594   2.962   2.945   0.667 -0.3361 -1.1982 -1.3321
  899SOL    HW2 3595   2.864   3.049   0.633  1.6717  4.0418 -1.0873
  899SOL     MW 3596   2.945   3.023   0.637  0.1879  0.1236 -0.1166
  900SOL     OW 3597   0.167   2.392   1.125  0.1175 -0.3216  0.8357
  900SOL    HW1 3598   0.101   2.460   1.142 -1.2814 -1.2868  0.9424
  900SOL    HW2 3599   0.133   2.342   1.049  0.5343  0.1302 -1.2750
  900SOL     MW 3600   0.154   2.395   1.117 -0.0121 -0.3893  0.5713
  901SOL     OW 3601   1.771   2.862   1.790 -0.3280 -0.1736  0.5452
  901SOL    HW1 3602   1.849   2.801   1.751 -1.0903  2.9338 -2.5947
  901SOL    HW2 3603   1.697   2.838   1.733 -1.1027 -1.3175 -0.3711
  901SOL     MW 3604   1.772   2.851   1.777 -0.5308  0.0854  0.0100
  902SOL     OW 3605   2.619   2.107   1.699 -0.3978 -0.0443  0.4829
  902SOL    HW1 3606   2.629   2.044   1.627  0.1566  1.6263  0.0465
  902SOL    HW2 3607   2.704   2.109   1.743  0.5750 -1.4081  0.2394
  902SOL     MW 3608   2.632   2.099   1.695 -0.1963 -0.0038  0.3932
  903SOL     OW 3609   1.510   2.652   0.534  0.0919  0.0268 -0.1474
  903SOL    HW1 3610   1.604   2.654   0.523  0.3236  0.5414 -1.6149
  903SOL    HW2 3611   1.475   2.703   0.607 -0.4444  1.1534 -0.3170
  903SOL     MW 3612   1.518   2.659   0.542  0.0517  0.2433 -0.3634
  904SOL     OW 3613   2.529   2.539   1.668  0.5175 -0.0062 -0.1623
  904SOL    HW1 3614   2.450   2.588   1.637 -1.1420 -1.2028 -0.3151
  904SOL    HW2 3615   2.552   2.474   1.596  0.3391 -1.1451 -1.6406
  904SOL     MW 3616   2.522   2.537   1.655  0.2750 -0.3143 -0.3775
  905SOL     OW 3617   2.328   2.479   2.098  0.0271  0.0223  0.3455
  905SOL    HW1 3618   2.398   2.429   2.045 -0.1571 -1.6534 -1.8470
  905SOL    HW2 3619   2.301   2.409   2.166 -0.8392  2.3646 -0.3975
  905SOL     MW 3620   2.334   2.463   2.100 -0.1115  0.1102 -0.0418
  906SOL     OW 3621   2.466   2.530   0.723 -0.1056 -0.2102  0.7105
  906SOL    HW1 3622   2.553   2.507   0.745 -1.0636  0.6657 -0.5138
  906SOL    HW2 3623   2.445   2.614   0.762  1.2717  1.0369 -3.0316
  906SOL     MW 3624   2.474   2.538   0.731 -0.0502  0.0699  0.0552
  907SOL     OW 3625   2.667   2.782   1.307  0.4056 -0.6628  0.2913
  907SOL    HW1 3626   2.703   2.852   1.356 -0.6845  0.0921 -3.5079
  907SOL    HW2 3627   2.683   2.803   1.216  0.6835  2.7114 -0.6499
  907SOL     MW 3628   2.674   2.794   1.301  0.2984 -0.1180 -0.3342
  908SOL     OW 3629   2.678   2.355   3.078 -0.3606 -0.4874  0.0303
  908SOL    HW1 3630   2.641   2.286   3.131  1.6998  1.2271 -1.5656
  908SOL    HW2 3631   2.634   2.428   3.132 -1.2043  0.6616  1.3304
  908SOL     MW 3632   2.667   2.355   3.092 -0.2000 -0.1096 -0.0087
  909SOL     OW 3633   1.716   0.112   1.310  0.2086  0.1571 -0.0052
  909SOL    HW1 3634   1.662   0.195   1.301 -0.6171 -1.2597  0.4876
  909SOL    HW2 3635   1.693   0.069   1.394  1.6989  1.6894 -2.1394
  909SOL     MW 3636   1.706   0.117   1.320  0.2963  0.1723 -0.2217
  910SOL     OW 3637   2.135   1.620   0.412  0.0824 -0.4271  0.5895
  910SOL    HW1 3638   2.088   1.547   0.366 -0.5783  2.4037  1.0942
  910SOL    HW2 3639   2.128   1.701   0.357  1.2068 -0.5015 -0.9884
  910SOL     MW 3640   2.128   1.621   0.399  0.1436 -0.0634  0.4479
  911SOL     OW 3641   2.405   2.189   1.560  0.3399  0.3996 -0.2683
  911SOL    HW1 3642   2.491   2.181   1.607  2.8837 -0.4511  3.2256
  911SOL    HW2 3643   2.420   2.152   1.473  0.3775  1.2065  1.2887
  911SOL     MW 3644   2.418   2.183   1.555  0.6805  0.3938  0.3981
  912SOL     OW 3645   2.910   1.861   1.401 -0.0402 -0.2568  0.4603
  912SOL    HW1 3646   2.933   1.920   1.328 -3.5997  3.7725  1.0983
  912SOL    HW2 3647   2.832   1.904   1.426 -0.8101 -1.5757  0.0655
  912SOL     MW 3648   2.903   1.875   1.395 -0.6114  0.1008  0.4924
  913SOL     OW 3649   2.708   0.014   0.273 -0.3322 -0.1746  0.3451
  913SOL    HW1 3650   2.786  -0.039   0.296 -0.9636 -3.6378  1.0797
  913SOL    HW2 3651   2.646  -0.045   0.236  2.3064  0.6073  1.5223
  913SOL     MW 3652   2.710  -0.001   0.271 -0.0673 -0.5284  0.5974
  914SOL     OW 3653   2.662   1.798   2.989 -0.7184 -0.0696  1.0142
  914SOL    HW1 3654   2.704   1.884   2.985  0.4222  0.3663 -0.5540
  914SOL    HW2 3655   2.572   1.813   2.998  0.6475  0.7031 -2.5563
  914SOL     MW 3656   2.656   1.811   2.990 -0.3877  0.0898  0.3362
  915SOL     OW 3657   1.819   0.109   0.109  0.3660  0.0188  0.7608
  915SOL    HW1 3658   1.889   0.065   0.164  0.8528 -0.9788  0.7560
  915SOL    HW2 3659   1.739   0.072   0.151  2.9485  2.1973 -0.5020
  915SOL     MW 3660   1.818   0.098   0.122  0.7710  0.1746  0.5936
  916SOL     OW 3661   1.789   2.152   1.984  0.1965  0.2352 -0.0482
  916SOL    HW1 3662   1.818   2.230   1.944 -1.0541 -1.4381  1.0848
  916SOL    HW2 3663   1.815   2.086   1.917  2.4713  0.6481  1.3126
  916SOL     MW 3664   1.796   2.154   1.970  0.3316  0.0689  0.2808
  917SOL     OW 3665   2.538   2.183   2.548 -0.2277  0.3449 -0.5153
  917SOL    HW1 3666   2.522   2.255   2.603 -0.6082  0.3095 -3.1930
  917SOL    HW2 3667   2.630   2.183   2.529  2.7503 -0.8028  1.5274
  917SOL     MW 3668   2.548   2.193   2.552  0.1150  0.1888 -0.5991
  918SOL     OW 3669   2.043   1.604   2.719  0.1508 -0.2469 -0.3929
  918SOL    HW1 3670   2.002   1.633   2.640 -0.5493 -1.1529  2.0279
  918SOL    HW2 3671   2.118   1.665   2.725  1.0430  2.7186 -0.3662
  918SOL     MW 3672   2.047   1.616   2.710  0.1761  0.0248 -0.0700
  919SOL     OW 3673   3.044   2.408   2.298 -0.3015 -0.3009 -0.4304
  919SOL    HW1 3674   2.975   2.339   2.310  1.5271 -1.2283 -1.6348
  919SOL    HW2 3675   3.079   2.405   2.211 -0.4963 -0.9983 -1.0288
  919SOL     MW 3676   3.040   2.398   2.288 -0.0859 -0.5153 -0.6683
  920SOL     OW 3677   2.647   2.829   3.100  0.1853 -0.0220 -0.4708
  920SOL    HW1 3678   2.564   2.830   3.053 -1.0445 -0.7989  0.8413
  920SOL    HW2 3679   2.703   2.796   3.032  0.5897  2.9773  2.5511
  920SOL     MW 3680   2.643   2.825   3.085  0.0764  0.2712  0.1010
  921SOL     OW 3681   2.437   2.599   2.607  0.1852  0.2462 -0.3595
  921SOL    HW1 3682   2.487   2.593   2.526  2.2273  0.1886  0.4544
  921SOL    HW2 3683   2.482   2.529   2.653 -0.7891 -0.9539 -1.6131
  921SOL     MW 3684   2.449   2.589   2.603  0.3261  0.0803 -0.4175
  922SOL     OW 3685   2.082   2.660   0.428  0.2777 -0.3924  0.2134
  922SOL    HW1 3686   2.110   2.678   0.333 -0.4985 -2.6673 -0.8489
  922SOL    HW2 3687   2.076   2.568   0.428  1.2247  3.4500 -0.8052
  922SOL     MW 3688   2.085   2.650   0.416  0.3003 -0.1856 -0.0611
  923SOL     OW 3689   2.200   2.919   1.661 -0.0861  0.0163  0.0546
  923SOL    HW1 3690   2.254   2.845   1.627 -0.7608  0.4402 -0.2116
  923SOL    HW2 3691   2.153   2.969   1.592  1.7361 -0.0665 -1.0937
  923SOL     MW 3692   2.201   2.916   1.648  0.0653  0.0613 -0.1321
  924SOL     OW 3693   1.084   2.735   2.604  0.0742 -0.2545 -0.0861
  924SOL    HW1 3694   1.178   2.750   2.598 -1.7022  0.1337 -0.4398
  924SOL    HW2 3695   1.079   2.655   2.655 -0.3941 -2.6814 -2.0108
  924SOL     MW 3696   1.096   2.726   2.610 -0.2220 -0.5235 -0.3867
  925SOL     OW 3697   2.980   0.189   2.609 -0.3010 -0.3201 -0.0763
  925SOL    HW1 3698   2.921   0.210   2.539  1.3719 -2.1370 -1.1610
  925SOL    HW2 3699   2.963   0.270   2.666 -2.7491  0.0928  2.1538
  925SOL     MW 3700   2.970   0.203   2.607 -0.4033 -0.5053  0.0748
  926SOL     OW 3701   2.808   2.402   1.953  0.1613  0.2929 -0.5559
  926SOL    HW1 3702   2.803   2.465   2.034  1.3331  0.9183 -0.7126
  926SOL    HW2 3703   2.845   2.454   1.882  1.6569 -2.1583  0.4727
  926SOL     MW 3704   2.812   2.418   1.955  0.5132  0.0520 -0.4409
  927SOL     OW 3705   2.399   0.101   0.312 -0.2966 -0.3266  0.3119
  927SOL    HW1 3706   2.489   0.106   0.336 -2.3380  0.3651  1.3059
  927SOL    HW2 3707   2.390   0.083   0.211  0.8128  1.0216 -0.6034
  927SOL     MW 3708   2.410   0.099   0.302 -0.4195 -0.0575  0.3223
  928SOL     OW 3709   2.149   2.330   1.829  0.0374 -0.2445  0.0353
  928SOL    HW1 3710   2.147   2.369   1.738  1.6794  0.4492 -0.1336
  928SOL    HW2 3711   2.237   2.350   1.850 -1.7992 -0.4982  3.0553
  928SOL     MW 3712   2.160   2.338   1.820  0.0117 -0.1864  0.4115
  929SOL     OW 3713   2.753   2.358   2.436 -0.6346  0.5695  0.3583
  929SOL    HW1 3714   2.760   2.303   2.354  0.0865 -1.3168  1.3493
  929SOL    HW2 3715   2.821   2.324   2.501  1.3170 -3.9718  1.5644
  929SOL     MW 3716   2.763   2.346   2.434 -0.2820 -0.2785  0.6482
  930SOL     OW 3717   2.012   2.828   2.668  0.3922  0.5232  0.0069
  930SOL    HW1 3718   2.049   2.747   2.707 -0.5722 -1.4334 -1.6773
  930SOL    HW2 3719   2.083   2.891   2.651 -1.9456  1.7132 -0.6761
  930SOL     MW 3720   2.026   2.826   2.671 -0.0435  0.4221 -0.3054
  931SOL     OW 3721   0.050   2.787   2.440 -0.2056 -0.2314  0.5447
  931SOL    HW1 3722   0.023   2.844   2.509  0.4343 -0.5584 -2.9549
  931SOL    HW2 3723   0.142   2.816   2.425 -2.6921  0.3566 -1.0942
  931SOL     MW 3724   0.058   2.798   2.447 -0.4492 -0.1970 -0.1333
  932SOL     OW 3725   2.776   2.013   2.484 -0.0880  0.6842 -0.6536
  932SOL    HW1 3726   2.870   2.015   2.477 -0.6942  0.5430  2.2317
  932SOL    HW2 3727   2.739   1.999   2.398  0.9731  1.0492 -2.5035
  932SOL     MW 3728   2.783   2.011   2.471 -0.0280  0.7137 -0.5170
  933SOL     OW 3729   2.102   2.802   2.219 -0.0293  0.0794  0.1259
  933SOL    HW1 3730   2.171   2.849   2.258  0.8055 -0.4345 -1.1898
  933SOL    HW2 3731   2.031   2.855   2.211  1.6217 -0.8835  2.1639
  933SOL     MW 3732   2.102   2.815   2.223  0.2987 -0.1155  0.2212
  934SOL     OW 3733   2.017   2.669   2.444 -0.1893  0.0263  0.4825
  934SOL    HW1 3734   2.013   2.732   2.510  1.2869  0.4064 -0.9974
  934SOL    HW2 3735   2.050   2.715   2.359  2.2500 -2.2070 -0.5573
  934SOL     MW 3736   2.021   2.683   2.442  0.3273 -0.2182  0.1500
  935SOL     OW 3737   2.633   1.470   1.777 -0.1753  0.1811 -0.1395
  935SOL    HW1 3738   2.726   1.448   1.751  0.6368 -2.9587  0.0161
  935SOL    HW2 3739   2.591   1.471   1.688 -0.5540  0.7007  1.3849
  935SOL     MW 3740   2.640   1.467   1.762 -0.1181 -0.1646  0.0821
  936SOL     OW 3741   2.922   2.224   0.044 -0.0481 -0.2339  0.3727
  936SOL    HW1 3742   2.990   2.249   0.101  0.5978 -0.8114 -1.2819
  936SOL    HW2 3743   2.863   2.297   0.038 -0.8500 -0.1778 -5.7853
  936SOL     MW 3744   2.923   2.237   0.051 -0.0686 -0.3027 -0.6581
  937SOL     OW 3745   1.942   2.103   2.639 -0.5291  0.0774 -0.5682
  937SOL    HW1 3746   2.028   2.080   2.681 -0.2219  1.3793 -1.0946
  937SOL    HW2 3747   1.954   2.119   2.545 -0.7680  0.0670  1.3772
  937SOL     MW 3748   1.955   2.102   2.633 -0.5201  0.2478 -0.3810
  938SOL     OW 3749   2.267   1.773   1.847 -0.4735  0.2783 -0.3796
  938SOL    HW1 3750   2.287   1.826   1.770 -1.4036 -0.1775  1.7769
  938SOL    HW2 3751   2.251   1.818   1.934  0.5477  3.4317 -0.0275
  938SOL     MW 3752   2.268   1.786   1.848 -0.4615  0.6342 -0.0486
  939SOL     OW 3753   2.770   1.962   2.196  0.6680 -0.2595 -0.6167
  939SOL    HW1 3754   2.809   1.924   2.114  1.1182 -1.6036 -0.8158
  939SOL    HW2 3755   2.675   1.933   2.199  0.1926 -0.7440 -1.9483
  939SOL     MW 3756   2.762   1.953   2.185  0.6647 -0.5008 -0.8186
  940SOL     OW 3757   2.161   0.111   2.773  0.2727 -0.5090  0.0699
  940SOL    HW1 3758   2.228   0.041   2.759 -0.4737  0.3366  2.2659
  940SOL    HW2 3759   2.200   0.192   2.805 -0.2522  0.8336  0.3498
  940SOL     MW 3760   2.175   0.112   2.775  0.1050 -0.2203  0.3966
  941SOL     OW 3761   0.110   2.455   2.066 -0.2283 -0.1866  0.8435
  941SOL    HW1 3762   0.200   2.416   2.076  0.3815 -1.4013  3.8202
  941SOL    HW2 3763   0.063   2.425   1.990 -1.6526  0.4603 -1.1083
  941SOL     MW 3764   0.116   2.446   2.057 -0.3358 -0.2615  0.9787
  942SOL     OW 3765   2.833   2.224   2.206  0.1698  0.8125 -0.2859
  942SOL    HW1 3766   2.811   2.267   2.123  0.5837  1.2866 -2.1936
  942SOL    HW2 3767   2.809   2.131   2.218 -0.1259 -1.0330 -0.1862
  942SOL     MW 3768   2.827   2.218   2.197  0.1854  0.6316 -0.5244
  943SOL     OW 3769   0.319   2.128   2.286 -0.0733 -0.1465 -0.4293
  943SOL    HW1 3770   0.267   2.154   2.362  1.5523 -1.5770 -3.2052
  943SOL    HW2 3771   0.398   2.089   2.322 -2.1839 -2.2708  1.2964
  943SOL     MW 3772   0.323   2.126   2.301 -0.1373 -0.6155 -0.5678
  944SOL     OW 3773   2.145   2.646   1.966  0.4733  0.5778 -0.1899
  944SOL    HW1 3774   2.220   2.603   2.012 -0.9937 -1.0676 -0.5874
  944SOL    HW2 3775   2.072   2.640   2.022 -2.1279 -0.7464 -1.1612
  944SOL     MW 3776   2.145   2.639   1.980 -0.0635  0.1860 -0.3705
  945SOL     OW 3777   2.764   2.729   2.851 -0.4175 -0.2729  0.4219
  945SOL    HW1 3778   2.737   2.634   2.843 -2.8973 -1.3158 -0.5951
  945SOL    HW2 3779   2.745   2.760   2.766  0.5354 -1.9871  2.0883
  945SOL     MW 3780   2.758   2.721   2.839 -0.6189 -0.6367  0.5076
  946SOL     OW 3781   2.477   2.682   2.243 -0.0547  0.0705  0.4212
  946SOL    HW1 3782   2.514   2.706   2.163 -0.0524  2.3700  0.3416
  946SOL    HW2 3783   2.413   2.618   2.218 -1.2355 -0.4655  0.1011
  946SOL     MW 3784   2.473   2.677   2.229 -0.2102  0.3032  0.3684
  947SOL     OW 3785   2.053   3.101   0.238  0.1572 -0.1031 -0.2792
  947SOL    HW1 3786   2.059   3.011   0.220 -0.5614 -0.6150  1.2589
  947SOL    HW2 3787   2.121   3.126   0.307 -2.9940  1.3701 -1.0101
  947SOL     MW 3788   2.062   3.092   0.245 -0.3534  0.0237 -0.1727
  948SOL     OW 3789   1.807   3.033   2.604  0.3969  0.3488 -0.0443
  948SOL    HW1 3790   1.862   2.955   2.601 -2.5370  0.6481 -0.1956
  948SOL    HW2 3791   1.777   3.060   2.513 -0.0036  2.0359  0.1689
  948SOL     MW 3792   1.810   3.027   2.592 -0.0430  0.6109 -0.0362
  949SOL     OW 3793   2.522   1.868   2.197 -0.0368 -0.1211  0.2917
  949SOL    HW1 3794   2.527   1.791   2.254  0.6554  1.9819  3.1301
  949SOL    HW2 3795   2.490   1.941   2.252  2.1941 -0.2389  0.7693
  949SOL     MW 3796   2.518   1.868   2.212  0.3488  0.1408  0.7292
  950SOL     OW 3797   2.319   2.457   2.997 -0.1185 -0.7588  0.1934
  950SOL    HW1 3798   2.358   2.429   2.912 -1.9175  0.3156 -0.9392
  950SOL    HW2 3799   2.231   2.474   2.964  2.1399 -2.7552 -2.8994
  950SOL     MW 3800   2.313   2.455   2.981 -0.0579 -0.8804 -0.3641
  951SOL     OW 3801   3.043   2.223   2.876 -0.0245  0.5060  0.0142
  951SOL    HW1 3802   2.998   2.223   2.964 -0.4270 -1.4381 -0.3514
  951SOL    HW2 3803   3.056   2.133   2.860  2.4916  0.1270 -0.2799
  951SOL     MW 3804   3.039   2.211   2.886  0.2543  0.1995 -0.0729
  952SOL     OW 3805   3.046   1.738   2.132  0.6507  0.1052 -0.5743
  952SOL    HW1 3806   2.972   1.782   2.081 -0.5259  3.2505  0.2246
  952SOL    HW2 3807   3.099   1.807   2.170 -1.5920 -1.5281  1.2392
  952SOL     MW 3808   3.043   1.753   2.130  0.1995  0.3047 -0.2296
  953SOL     OW 3809   1.945   1.738   2.934 -0.6191  0.6938  0.7889
  953SOL    HW1 3810   1.866   1.684   2.966 -3.0712  0.9863  1.6880
  953SOL    HW2 3811   1.982   1.680   2.859 -1.8246 -0.5259  0.6308
  953SOL     MW 3812   1.940   1.724   2.928 -1.1017  0.5715  0.8867
  954SOL     OW 3813   2.369   2.138   2.896 -0.1047 -0.2982  0.3162
  954SOL    HW1 3814   2.282   2.130   2.853 -0.6274  2.0845  0.7666
  954SOL    HW2 3815   2.422   2.082   2.841  0.1720  1.1582  1.4202
  954SOL     MW 3816   2.364   2.130   2.883 -0.1372  0.2084  0.5213
  955SOL     OW 3817   1.573   1.518   2.545 -0.3090  0.1839 -0.2807
  955SOL    HW1 3818   1.556   1.519   2.446 -0.0094 -3.6945  1.2831
  955SOL    HW2 3819   1.671   1.529   2.546 -0.0973  0.0400  1.1950
  955SOL     MW 3820   1.584   1.519   2.532 -0.2415 -0.3468  0.1203
  956SOL     OW 3821   2.730   2.456   2.824  0.1824 -0.7237 -0.4904
  956SOL    HW1 3822   2.739   2.405   2.901 -0.0714  3.8441 -2.1357
  956SOL    HW2 3823   2.796   2.427   2.757 -0.7951 -0.1475 -1.2450
  956SOL     MW 3824   2.740   2.445   2.825  0.0199 -0.0450 -0.8070
  957SOL     OW 3825   2.246   2.823   0.549 -0.0903  0.1349 -0.8014
  957SOL    HW1 3826   2.195   2.754   0.511  3.2052  2.5428 -3.0992
  957SOL    HW2 3827   2.288   2.787   0.635  0.9058  0.7209 -1.0417
  957SOL     MW 3828   2.245   2.809   0.556  0.4759  0.5299 -1.1363
  958SOL     OW 3829   2.084   2.550   2.869 -0.0792 -0.3183 -1.0554
  958SOL    HW1 3830   2.032   2.488   2.813 -0.3878 -0.5282  1.7925
  958SOL    HW2 3831   2.019   2.571   2.936  0.0257 -0.0045 -0.0508
  958SOL     MW 3832   2.069   2.545   2.871 -0.1061 -0.3046 -0.5471
  959SOL     OW 3833   2.506   2.796   0.449 -0.3796 -0.1966 -0.1868
  959SOL    HW1 3834   2.505   2.822   0.357  1.4588  0.1551 -1.1135
  959SOL    HW2 3835   2.419   2.818   0.482  0.8794 -1.2653 -0.9667
  959SOL     MW 3836   2.494   2.802   0.441  0.0291 -0.2912 -0.4120
  960SOL     OW 3837   1.923   2.402   2.274  0.0162 -0.2290  0.4137
  960SOL    HW1 3838   1.924   2.317   2.322 -0.3142  1.1507  1.4401
  960SOL    HW2 3839   1.841   2.437   2.315 -0.7868  1.6482 -1.6860
  960SOL     MW 3840   1.912   2.395   2.286 -0.1333  0.2007  0.2721
  961SOL     OW 3841   2.230   2.339   2.303  0.1356  0.2630 -0.6209
  961SOL    HW1 3842   2.134   2.331   2.294  0.7655  0.6459  0.8277
  961SOL    HW2 3843   2.224   2.388   2.386 -0.9393 -0.9244  0.2156
  961SOL     MW 3844   2.216   2.344   2.313  0.0769  0.1568 -0.3194
  962SOL     OW 3845   2.122   2.029   2.806 -0.2288  0.4451 -0.0117
  962SOL    HW1 3846   2.108   1.990   2.892 -0.6605 -1.2466 -2.1775
  962SOL    HW2 3847   2.151   1.948   2.743 -0.5220 -2.5776  2.5531
  962SOL     MW 3848   2.124   2.013   2.809 -0.3245 -0.1769  0.0409
  963SOL     OW 3849   1.861   2.586   2.084 -0.4744 -0.7590  0.0430
  963SOL    HW1 3850   1.890   2.530   2.156  0.1379  1.8109 -0.2107
  963SOL    HW2 3851   1.880   2.524   2.009 -0.7461 -2.7707  0.4773
  963SOL     MW 3852   1.867   2.571   2.084 -0.4294 -0.6854  0.0668
  964SOL     OW 3853   1.832   1.876   2.729 -0.1991 -0.2663 -0.5684
  964SOL    HW1 3854   1.867   1.955   2.680 -0.7639 -1.0991 -0.6317
  964SOL    HW2 3855   1.878   1.845   2.807  1.3282 -0.4756  1.8525
  964SOL     MW 3856   1.843   1.882   2.733 -0.0721 -0.4038 -0.2573
  965SOL     OW 3857   2.088   2.589   0.802  0.2491 -0.2918 -0.2536
  965SOL    HW1 3858   2.119   2.515   0.744 -2.1659  0.7986 -2.3140
  965SOL    HW2 3859   2.169   2.628   0.821  0.0479 -2.8229 -0.7477
  965SOL     MW 3860   2.103   2.584   0.797 -0.0961 -0.4819 -0.5907
  966SOL     OW 3861   2.659   2.611   2.421 -0.4759  0.0396  0.0971
  966SOL    HW1 3862   2.591   2.630   2.353  2.9150 -0.8877 -0.8681
  966SOL    HW2 3863   2.683   2.517   2.416  0.1633 -1.2087  2.3908
  966SOL     MW 3864   2.653   2.601   2.412  0.0558 -0.2475  0.2724
  967SOL     OW 3865   2.712   0.010   3.043 -0.3722  0.5236  0.9278
  967SOL    HW1 3866   2.720  -0.079   3.061  1.5898  3.4266 -0.2122
  967SOL    HW2 3867   2.650   0.005   2.967  0.3254  3.2733 -2.5571
  967SOL     MW 3868   2.705  -0.002   3.036 -0.0213  1.2694  0.3176
  968SOL     OW 3869   3.049   2.691   2.890 -0.7933 -0.3217 -0.3062
  968SOL    HW1 3870   2.950   2.690   2.896 -0.0097  2.1141  0.8448
  968SOL    HW2 3871   3.057   2.675   2.796 -1.4452 -1.8707  1.6010
  968SOL     MW 3872   3.037   2.689   2.878 -0.7759 -0.2047  0.0973
  969SOL     OW 3873   1.559   2.138   1.696 -0.0264 -0.6623  0.2201
  969SOL    HW1 3874   1.614   2.058   1.698  0.4151 -2.1125  0.6968
  969SOL    HW2 3875   1.529   2.151   1.790  2.5834 -1.3101 -0.9642
  969SOL     MW 3876   1.563   2.129   1.709  0.3762 -0.9391  0.1267
  970SOL     OW 3877   1.757   1.801   1.898  0.0540 -0.0897 -0.0955
  970SOL    HW1 3878   1.816   1.739   1.944  1.4811 -0.8472 -2.4745
  970SOL    HW2 3879   1.667   1.776   1.915  0.1812 -2.0900 -1.8140
  970SOL     MW 3880   1.753   1.790   1.906  0.2591 -0.4536 -0.6362
  971SOL     OW 3881   1.744   0.015   2.363 -0.3336 -0.1992  0.1560
  971SOL    HW1 3882   1.770  -0.063   2.304 -1.0316 -1.8281  2.0870
  971SOL    HW2 3883   1.814   0.084   2.351  3.9011 -0.9508 -0.7415
  971SOL     MW 3884   1.757   0.014   2.354  0.1330 -0.5133  0.2924
  972SOL     OW 3885   0.308   2.865   2.386  0.3110  0.0825 -0.1028
  972SOL    HW1 3886   0.350   2.783   2.422  0.3121  0.5643 -0.6201
  972SOL    HW2 3887   0.365   2.936   2.415  1.2099  2.1746 -0.8915
  972SOL     MW 3888   0.321   2.863   2.395  0.4297  0.4221 -0.2752
  973SOL     OW 3889   2.604   3.003   2.132  0.9246  0.1319 -0.1638
  973SOL    HW1 3890   2.600   2.914   2.087  2.7917  3.4289 -0.2612
  973SOL    HW2 3891   2.631   3.041   2.054 -2.1911  0.7096 -0.5189
  973SOL     MW 3892   2.607   2.996   2.115  0.7599  0.6431 -0.2235
  974SOL     OW 3893   1.968   0.147   2.582  0.4348  0.0343 -0.3836
  974SOL    HW1 3894   2.041   0.136   2.645 -0.2855  1.1132 -1.9913
  974SOL    HW2 3895   1.908   0.073   2.596  1.2394 -0.3362 -0.1342
  974SOL     MW 3896   1.970   0.136   2.592  0.4459  0.1278 -0.5628
  975SOL     OW 3897   2.207   2.498   2.522 -0.2694  0.2002 -0.3397
  975SOL    HW1 3898   2.279   2.550   2.567 -0.8976 -0.7772 -1.6095
  975SOL    HW2 3899   2.143   2.556   2.481  0.0747 -3.2414  3.0956
  975SOL     MW 3900   2.208   2.512   2.523 -0.3069 -0.3828 -0.0540
  976SOL     OW 3901   0.183   0.369   1.585 -0.2002 -0.2427  0.1268
  976SOL    HW1 3902   0.258   0.314   1.585  0.8971  1.6539 -1.8079
  976SOL    HW2 3903   0.121   0.298   1.585  1.2360 -0.9942 -1.4804
  976SOL     MW 3904   0.185   0.353   1.585  0.1341 -0.0916 -0.3405
  977SOL     OW 3905   1.743   2.755   2.385  0.1429  0.0421 -0.2197
  977SOL    HW1 3906   1.788   2.696   2.442  0.8088  2.8227 -0.3715
  977SOL    HW2 3907   1.819   2.776   2.337  2.4755 -2.5676  2.5514
  977SOL     MW 3908   1.759   2.750   2.386  0.5385  0.0646  0.1258
   3.10000   3.10000   3.10000
