977 TIP4P/2005f water molecules t=   0.09000 step= 90
 3908
    1SOL     OW    1   0.190   0.771   0.008  0.1792 -0.1527  0.9255
    1SOL    HW1    2   0.186   0.795  -0.088 -1.2835 -2.4408 -0.3403
    1SOL    HW2    3   0.201   0.673   0.002  1.7857 -0.7370 -0.3896
    1SOL     MW    4   0.191   0.761  -0.006  0.1982 -0.5317  0.5849
    2SOL     OW    5   0.335   3.045   1.115 -0.2291  0.0853  0.8024
    2SOL    HW1    6   0.391   3.120   1.090  1.3003 -1.7379 -2.5000
    2SOL    HW2    7   0.246   3.083   1.138 -1.4642 -0.6794  0.4431
    2SOL     MW    8   0.331   3.060   1.115 -0.1903 -0.2562  0.3193
    3SOL     OW    9   2.755   0.379   0.870 -0.0414  0.0060 -0.2716
    3SOL    HW1   10   2.745   0.471   0.838  0.5405  1.0139  0.9453
    3SOL    HW2   11   2.745   0.387   0.972 -1.0688  2.6538 -0.3961
    3SOL     MW   12   2.752   0.392   0.879 -0.1002  0.4883 -0.1275
    4SOL     OW   13   3.094   1.689   0.705  0.3185  0.6630 -0.8043
    4SOL    HW1   14   3.034   1.742   0.647 -1.2320 -2.4261  0.5235
    4SOL    HW2   15   3.158   1.646   0.646 -0.5924  1.4800 -1.9049
    4SOL     MW   16   3.094   1.690   0.690 -0.0063  0.3632 -0.7743
    5SOL     OW   17   1.668   1.442   0.522 -0.1737  0.0045 -0.6043
    5SOL    HW1   18   1.750   1.421   0.572  1.6112  1.0160 -0.5530
    5SOL    HW2   19   1.599   1.397   0.562  0.2047 -0.3767 -1.2755
    5SOL     MW   20   1.670   1.433   0.534  0.1118  0.0877 -0.6861
    6SOL     OW   21   0.843   1.338   0.572  0.0935  0.0771  0.0865
    6SOL    HW1   22   0.762   1.320   0.612  1.3810 -0.6267 -1.6830
    6SOL    HW2   23   0.900   1.262   0.604  1.3073 -0.3339  0.9368
    6SOL     MW   24   0.840   1.326   0.581  0.4235 -0.0700 -0.0348
    7SOL     OW   25   1.969   1.054   3.046 -0.4619 -0.3842  0.5151
    7SOL    HW1   26   2.025   1.117   3.006 -1.5347  0.1077  1.8500
    7SOL    HW2   27   1.983   1.091   3.130 -1.1490  1.6499  0.4753
    7SOL     MW   28   1.978   1.067   3.052 -0.6941 -0.0509  0.6860
    8SOL     OW   29   1.019   1.314   1.065 -0.1805 -0.1904  0.2561
    8SOL    HW1   30   1.111   1.293   1.087  3.7478 -0.8911 -0.4880
    8SOL    HW2   31   0.974   1.230   1.063 -3.1018 -0.9832 -0.5146
    8SOL     MW   32   1.025   1.300   1.068 -0.0476 -0.3875  0.0562
    9SOL     OW   33   0.995   0.495   1.439  0.1202  0.4407 -0.4852
    9SOL    HW1   34   0.958   0.407   1.428 -0.5415  2.1629 -0.2185
    9SOL    HW2   35   1.059   0.487   1.507 -1.5679 -1.4069 -0.1880
    9SOL     MW   36   0.999   0.482   1.447 -0.1898  0.4242 -0.4108
   10SOL     OW   37   0.307   0.861   0.425  0.1451  0.3432  0.3133
   10SOL    HW1   38   0.408   0.872   0.405  0.1550 -0.7460 -0.3039
   10SOL    HW2   39   0.287   0.914   0.504 -1.0595 -1.1639 -0.2111
   10SOL     MW   40   0.318   0.869   0.433 -0.0126  0.0007  0.1627
   11SOL     OW   41   0.925   1.087   1.559 -0.0463  0.1253 -0.5908
   11SOL    HW1   42   0.930   1.108   1.654  0.7626  0.5973 -0.3406
   11SOL    HW2   43   0.844   1.025   1.546 -1.6189  1.0392  1.5115
   11SOL     MW   44   0.915   1.081   1.570 -0.1471  0.3082 -0.2804
   12SOL     OW   45   3.053   1.054   0.870  0.2745  0.5926 -0.1246
   12SOL    HW1   46   3.089   1.117   0.933  1.6754  1.8529 -0.2681
   12SOL    HW2   47   3.035   1.112   0.788  2.5780  0.9778 -5.4727
   12SOL     MW   48   3.056   1.070   0.867  0.7633  0.8097 -0.8492
   13SOL     OW   49   1.920   1.399   1.442 -0.2878  0.5784  0.1764
   13SOL    HW1   50   1.940   1.346   1.365  1.6217  0.2612 -0.9996
   13SOL    HW2   51   1.917   1.488   1.412 -0.6296 -1.0736 -1.1761
   13SOL     MW   52   1.922   1.404   1.428 -0.0810  0.3186 -0.1572
   14SOL     OW   53   0.606   0.388   1.763 -0.2742  0.1324 -0.1488
   14SOL    HW1   54   0.595   0.295   1.737 -0.9362 -1.2790 -2.0674
   14SOL    HW2   55   0.680   0.392   1.827 -1.3687 -0.4306 -0.1265
   14SOL     MW   56   0.615   0.376   1.768 -0.5060 -0.1281 -0.3990
   15SOL     OW   57   2.010   0.563   0.930  0.1827 -0.2163 -0.5701
   15SOL    HW1   58   2.040   0.530   1.016 -0.5258  0.9593  0.7246
   15SOL    HW2   59   2.085   0.566   0.872 -0.5357 -0.6170 -0.8741
   15SOL     MW   60   2.024   0.559   0.934 -0.0056 -0.1140 -0.4394
   16SOL     OW   61   0.144   1.770   0.264  0.2720  0.4547 -0.2479
   16SOL    HW1   62   0.232   1.731   0.266  2.0119 -1.2067 -0.3871
   16SOL    HW2   63   0.152   1.851   0.308  1.6203 -1.7450  0.4665
   16SOL     MW   64   0.157   1.775   0.270  0.6795 -0.0547 -0.1720
   17SOL     OW   65   1.166   0.776   1.462 -0.0122 -0.1383  0.0747
   17SOL    HW1   66   1.184   0.805   1.555  0.8178  0.9729  1.0463
   17SOL    HW2   67   1.076   0.799   1.436 -1.1638 -0.5437  1.4574
   17SOL     MW   68   1.157   0.783   1.471 -0.0546 -0.0452  0.3853
   18SOL     OW   69   3.096   1.559   0.378 -0.0028  0.2017 -0.3095
   18SOL    HW1   70   3.139   1.628   0.323  0.2220  0.5482 -0.9771
   18SOL    HW2   71   3.098   1.479   0.331 -1.0661  0.0685  3.3345
   18SOL     MW   72   3.102   1.558   0.365 -0.1134  0.2298  0.0832
   19SOL     OW   73   0.061   1.239   1.027  0.2429 -0.1715 -0.0424
   19SOL    HW1   74   0.136   1.291   0.989  2.1456 -2.5372  0.7854
   19SOL    HW2   75  -0.015   1.301   1.039  1.1019 -1.8882 -0.7140
   19SOL     MW   76   0.061   1.254   1.024  0.6073 -0.7101 -0.0218
   20SOL     OW   77   0.489   2.189   1.296  0.1473  0.5918  0.4732
   20SOL    HW1   78   0.451   2.123   1.234  0.2956  1.6848  0.1844
   20SOL    HW2   79   0.420   2.228   1.354  0.3974  0.7702  0.7444
   20SOL     MW   80   0.475   2.185   1.296  0.1999  0.7595  0.4709
   21SOL     OW   81   0.565   0.893   0.364 -0.1488  0.4600 -0.2574
   21SOL    HW1   82   0.623   0.825   0.395  0.2902 -2.1438  0.6502
   21SOL    HW2   83   0.540   0.869   0.269 -2.1742  0.1162 -1.8051
   21SOL     MW   84   0.569   0.881   0.356 -0.3581  0.0711 -0.3419
   22SOL     OW   85   1.596   0.619   1.160 -0.3625 -0.3472 -0.1048
   22SOL    HW1   86   1.649   0.583   1.085 -1.2428 -0.8869  1.1544
   22SOL    HW2   87   1.520   0.669   1.117 -1.0044  0.0081  0.0049
   22SOL     MW   88   1.593   0.621   1.145 -0.5633 -0.3715  0.0758
   23SOL     OW   89   3.071   0.709   0.687 -0.3190  0.4414  0.7254
   23SOL    HW1   90   3.116   0.632   0.714 -1.4696 -0.4482 -0.9523
   23SOL    HW2   91   3.133   0.783   0.706 -2.8469 -3.1372  3.3644
   23SOL     MW   92   3.085   0.709   0.693 -0.8044 -0.1481  0.8522
   24SOL     OW   93   2.083   2.231   3.088  0.2729  0.2975  0.6201
   24SOL    HW1   94   2.049   2.210   3.174  1.1231 -1.3046  0.0410
   24SOL    HW2   95   2.112   2.142   3.054  2.1489 -0.8072 -0.5744
   24SOL     MW   96   2.082   2.216   3.095  0.6326 -0.0597  0.3861
   25SOL     OW   97   0.178   1.471   0.581  0.1833 -0.1880  0.2660
   25SOL    HW1   98   0.110   1.489   0.518  0.8834 -2.9147  0.8791
   25SOL    HW2   99   0.250   1.500   0.533 -0.5227 -2.6867  2.0791
   25SOL     MW  100   0.178   1.477   0.566  0.1825 -0.8774  0.5861
   26SOL     OW  101   1.996   1.023   0.400  0.6850 -0.1056  0.4609
   26SOL    HW1  102   1.899   1.037   0.412  1.8200  0.4593 -0.4262
   26SOL    HW2  103   2.019   1.064   0.311  0.0401 -0.1717 -1.8127
   26SOL     MW  104   1.986   1.030   0.390  0.7497 -0.0398  0.0439
   27SOL     OW  105   2.005   1.440   0.230 -0.3012  0.7214 -0.0755
   27SOL    HW1  106   1.928   1.387   0.247 -0.5086  0.3791  1.2433
   27SOL    HW2  107   2.029   1.474   0.320 -0.9771  1.7105  0.5680
   27SOL     MW  108   1.998   1.438   0.244 -0.4178  0.8067  0.1834
   28SOL     OW  109   0.319   0.963   1.924  0.8455 -0.0923  0.0677
   28SOL    HW1  110   0.251   0.909   1.962 -2.8041 -1.5048  0.8582
   28SOL    HW2  111   0.363   0.912   1.856  0.3286 -0.0353  1.1876
   28SOL     MW  112   0.316   0.949   1.920  0.2958 -0.2711  0.3197
   29SOL     OW  113   0.246   1.426   0.907 -0.8245 -0.3321 -0.1413
   29SOL    HW1  114   0.243   1.526   0.921  1.0669 -1.2145  0.5920
   29SOL    HW2  115   0.235   1.414   0.815 -0.2750  3.2538  2.1221
   29SOL     MW  116   0.244   1.438   0.896 -0.5024  0.0246  0.2541
   30SOL     OW  117   0.908   1.015   1.144  0.2281 -0.3767  0.3836
   30SOL    HW1  118   0.822   1.033   1.183 -1.0556  0.8503 -3.7723
   30SOL    HW2  119   0.978   1.041   1.205  0.9610  1.7854 -2.3561
   30SOL     MW  120   0.906   1.021   1.158  0.1554  0.0705 -0.5262
   31SOL     OW  121   0.497   0.247   0.172 -0.2264 -0.0595  1.1162
   31SOL    HW1  122   0.507   0.190   0.249 -0.1986  0.3440 -0.4379
   31SOL    HW2  123   0.477   0.195   0.088 -0.0877 -1.8595  0.5891
   31SOL     MW  124   0.496   0.232   0.171 -0.2044 -0.2438  0.8416
   32SOL     OW  125   2.692   1.031   1.142 -0.6933  0.0447 -0.8703
   32SOL    HW1  126   2.654   0.945   1.162  2.4521  1.2179  0.4561
   32SOL    HW2  127   2.780   1.000   1.111  1.6115 -0.8457  0.8830
   32SOL     MW  128   2.698   1.016   1.141  0.0258  0.0820 -0.4639
   33SOL     OW  129   1.790   1.281   0.334 -0.0835  0.1724  0.3601
   33SOL    HW1  130   1.772   1.197   0.383  1.0352 -0.9898  3.1066
   33SOL    HW2  131   1.745   1.348   0.387  1.7101 -1.0455 -1.7252
   33SOL     MW  132   1.781   1.279   0.348  0.3008 -0.1416  0.4474
   34SOL     OW  133   1.277   1.849   1.112  0.0002  0.0305  0.5242
   34SOL    HW1  134   1.191   1.873   1.141 -2.0061 -2.0286  0.2385
   34SOL    HW2  135   1.338   1.892   1.170  0.6779  0.5280 -0.5287
   34SOL     MW  136   1.274   1.858   1.123 -0.1751 -0.1756  0.3476
   35SOL     OW  137   0.361   0.071   1.877  0.0810 -0.3035 -0.0663
   35SOL    HW1  138   0.381   0.013   1.957  0.6083 -1.6942  1.4609
   35SOL    HW2  139   0.390   0.011   1.806 -1.5224 -0.8672  2.4024
   35SOL     MW  140   0.368   0.055   1.878 -0.0610 -0.5614  0.4609
   36SOL     OW  141   1.835   1.910   0.484  0.5379 -0.5083  0.4942
   36SOL    HW1  142   1.864   1.911   0.387 -2.2626  2.4071  0.6589
   36SOL    HW2  143   1.843   1.826   0.529  2.8326  2.1677  0.4327
   36SOL     MW  144   1.840   1.899   0.477  0.4712  0.2294  0.5078
   37SOL     OW  145   1.820   1.987   0.950 -0.2928  0.1267  0.2973
   37SOL    HW1  146   1.770   1.920   0.916  1.4428 -0.3849 -2.1409
   37SOL    HW2  147   1.764   2.042   1.016 -1.0271  0.5754 -0.2449
   37SOL     MW  148   1.806   1.986   0.954 -0.1607  0.1184 -0.0960
   38SOL     OW  149   2.828   0.920   0.241  0.3214 -0.0715 -0.6137
   38SOL    HW1  150   2.881   0.935   0.314  0.4609 -1.9223 -2.3765
   38SOL    HW2  151   2.883   0.861   0.185  0.4743  0.9271 -0.7997
   38SOL     MW  152   2.842   0.914   0.243  0.3600 -0.1839 -0.8709
   39SOL     OW  153   1.455   0.664   0.791 -0.0681  0.4427  0.2796
   39SOL    HW1  154   1.431   0.576   0.816  2.0446 -1.7187  1.0452
   39SOL    HW2  155   1.398   0.724   0.836  2.0107  1.1683  2.8872
   39SOL     MW  156   1.444   0.660   0.800  0.4849  0.2533  0.7246
   40SOL     OW  157   1.295   1.900   0.237 -0.0110 -0.2328  0.1705
   40SOL    HW1  158   1.287   1.822   0.295  0.4375  0.9496 -1.1636
   40SOL    HW2  159   1.316   1.974   0.292  0.6154 -0.1783 -0.2039
   40SOL     MW  160   1.297   1.900   0.252  0.1308 -0.0696 -0.0550
   41SOL     OW  161   0.604   0.543   1.550  0.3356 -0.5729 -0.3036
   41SOL    HW1  162   0.677   0.610   1.574  1.6445  0.3816  1.2089
   41SOL    HW2  163   0.603   0.479   1.618  0.6345  0.4230 -3.1116
   41SOL     MW  164   0.614   0.543   1.562  0.5478 -0.3156 -0.4745
   42SOL     OW  165   1.400   3.056   1.979 -0.0131  0.0929 -0.6002
   42SOL    HW1  166   1.319   3.067   2.018  0.9022  2.8792 -1.5400
   42SOL    HW2  167   1.439   2.974   2.015 -1.5393  2.2865  1.1372
   42SOL     MW  168   1.395   3.047   1.989 -0.0937  0.7499 -0.4949
   43SOL     OW  169   1.575   0.160   1.577  0.3695  0.1777 -0.2088
   43SOL    HW1  170   1.618   0.113   1.510  0.1775  1.7160 -0.8120
   43SOL    HW2  171   1.513   0.098   1.625 -1.6737 -1.4052  1.3657
   43SOL     MW  172   1.573   0.146   1.575  0.0746  0.1718 -0.0806
   44SOL     OW  173   1.327   0.734   1.083 -0.1579 -0.1246 -0.2477
   44SOL    HW1  174   1.339   0.829   1.072 -1.1287  0.3243 -0.5697
   44SOL    HW2  175   1.326   0.721   1.178 -3.0258  1.0332  0.2851
   44SOL     MW  176   1.328   0.745   1.094 -0.6644  0.0874 -0.2199
   45SOL     OW  177   1.016   0.817   0.795  0.2712 -0.7090 -0.2609
   45SOL    HW1  178   1.013   0.751   0.867  0.1825  0.9035  0.7613
   45SOL    HW2  179   0.946   0.792   0.736  3.5443  1.7852  2.8261
   45SOL     MW  180   1.006   0.805   0.797  0.6913 -0.1672  0.2813
   46SOL     OW  181   0.620   1.132   0.603 -0.4520  0.0834  0.0533
   46SOL    HW1  182   0.619   1.143   0.504 -1.5537  0.0600  1.1696
   46SOL    HW2  183   0.701   1.090   0.620 -1.1618  1.3756  0.7829
   46SOL     MW  184   0.630   1.128   0.592 -0.6910  0.2508  0.2968
   47SOL     OW  185   0.094   1.850   1.813  0.3995  0.7744  0.4511
   47SOL    HW1  186   0.178   1.815   1.784  0.6988  0.6035  0.0813
   47SOL    HW2  187   0.089   1.859   1.908 -0.1309 -0.9870 -1.1967
   47SOL     MW  188   0.104   1.847   1.822  0.3690  0.5195  0.1849
   48SOL     OW  189   1.046   0.629   1.037  0.1191  0.2288  0.5266
   48SOL    HW1  190   0.979   0.665   1.100  1.6467  2.5567  0.1417
   48SOL    HW2  191   1.140   0.650   1.071 -0.4871 -1.2134  0.5506
   48SOL     MW  192   1.050   0.636   1.049  0.2407  0.3457  0.4790
   49SOL     OW  193   1.865   0.750   1.589 -0.1040  0.1531 -0.0372
   49SOL    HW1  194   1.792   0.729   1.649 -4.0150 -1.2994 -1.3203
   49SOL    HW2  195   1.914   0.671   1.588 -2.4696  0.9235  0.0123
   49SOL     MW  196   1.862   0.737   1.597 -0.9321  0.0631 -0.1999
   50SOL     OW  197   1.273   1.015   0.586  0.1841 -0.1923  0.0945
   50SOL    HW1  198   1.247   1.068   0.658  0.4067 -2.0607 -3.2777
   50SOL    HW2  199   1.290   0.924   0.610 -0.2785 -2.7340  3.0792
   50SOL     MW  200   1.272   1.010   0.599  0.1524 -0.7741  0.0434
   51SOL     OW  201   0.293   2.889   0.886  0.2652 -0.4989  0.5748
   51SOL    HW1  202   0.374   2.835   0.898 -1.5372  0.4589  0.7320
   51SOL    HW2  203   0.299   2.945   0.967  0.5127  1.6066  0.0995
   51SOL     MW  204   0.304   2.889   0.899  0.0600 -0.0948  0.5328
   52SOL     OW  205   0.826   1.896   0.456 -0.2062  0.3112 -0.5087
   52SOL    HW1  206   0.769   1.954   0.505  1.1817  1.7528 -2.6544
   52SOL    HW2  207   0.762   1.859   0.394 -1.6184 -1.1876 -0.4730
   52SOL     MW  208   0.810   1.899   0.454 -0.2094  0.3037 -0.7871
   53SOL     OW  209   0.376   2.027   0.611 -0.7279 -0.2047 -0.6344
   53SOL    HW1  210   0.341   2.017   0.524  2.0622 -1.0790  0.5436
   53SOL    HW2  211   0.386   2.130   0.628 -3.1291 -1.8664 -0.4708
   53SOL     MW  212   0.373   2.040   0.602 -0.6766 -0.5393 -0.4574
   54SOL     OW  213   2.179   0.855   0.837  0.3302  0.2293 -0.4369
   54SOL    HW1  214   2.187   0.826   0.745  1.8047 -1.9635 -0.9303
   54SOL    HW2  215   2.086   0.851   0.858 -0.4504  0.7332 -1.4458
   54SOL     MW  216   2.168   0.851   0.828  0.4218  0.0065 -0.6351
   55SOL     OW  217   0.520   1.438   1.544 -0.3715 -0.3121  0.2402
   55SOL    HW1  218   0.499   1.464   1.453 -0.9405 -0.4127  0.2231
   55SOL    HW2  219   0.611   1.395   1.542  1.3601 -1.1006 -0.3904
   55SOL     MW  220   0.529   1.435   1.532 -0.2181 -0.4294  0.1547
   56SOL     OW  221   0.475   0.812   0.118 -0.1221  0.1948 -0.0017
   56SOL    HW1  222   0.493   0.843   0.033 -1.0097  0.4605 -0.4459
   56SOL    HW2  223   0.380   0.801   0.119 -0.0372 -1.0615 -0.9428
   56SOL     MW  224   0.465   0.815   0.107 -0.2280  0.0641 -0.1845
   57SOL     OW  225   1.260   1.218   1.160 -0.2216 -0.1526 -0.1105
   57SOL    HW1  226   1.348   1.234   1.194 -0.6158  0.3391 -1.6463
   57SOL    HW2  227   1.219   1.150   1.220  0.8654  0.6643 -0.7411
   57SOL     MW  228   1.266   1.211   1.173 -0.1302  0.0200 -0.3963
   58SOL     OW  229   0.666   1.074   1.272  0.4426  0.0258 -0.3903
   58SOL    HW1  230   0.600   1.148   1.251  1.6693  1.2818  0.9928
   58SOL    HW2  231   0.647   1.037   1.360  1.2999  0.3899  0.1377
   58SOL     MW  232   0.655   1.079   1.281  0.7176  0.2396 -0.1381
   59SOL     OW  233   1.570   1.586   0.298  0.0630 -0.1268 -0.6257
   59SOL    HW1  234   1.616   1.534   0.358 -3.8511 -1.4229  2.0683
   59SOL    HW2  235   1.517   1.644   0.347 -1.1079 -1.0186 -1.5628
   59SOL     MW  236   1.569   1.587   0.312 -0.6079 -0.4155 -0.3939
   60SOL     OW  237   0.030   0.154   1.716 -0.5359  0.3908 -0.0509
   60SOL    HW1  238  -0.060   0.184   1.703 -1.6187 -1.1502 -0.1107
   60SOL    HW2  239   0.026   0.057   1.718  0.6131 -1.8400  1.0694
   60SOL     MW  240   0.017   0.145   1.715 -0.5272 -0.1069  0.0890
   61SOL     OW  241   2.011   1.476   3.067 -0.0097 -0.1615  0.2668
   61SOL    HW1  242   2.018   1.469   3.164  2.2675  4.5633 -2.2526
   61SOL    HW2  243   2.027   1.392   3.030 -0.8119 -3.1479  1.2073
   61SOL     MW  244   2.014   1.464   3.075  0.1849  0.0679  0.0584
   62SOL     OW  245   0.589   1.624   0.572  0.2153  0.2561  0.4527
   62SOL    HW1  246   0.660   1.592   0.509  0.4946  1.2093  0.3369
   62SOL    HW2  247   0.567   1.534   0.611 -1.7575 -0.2465  1.8920
   62SOL     MW  248   0.596   1.608   0.569 -0.0082  0.3156  0.6274
   63SOL     OW  249   1.720   0.775   0.738 -0.0486 -0.1945 -0.1181
   63SOL    HW1  250   1.693   0.771   0.647  0.5665 -3.1215 -0.2932
   63SOL    HW2  251   1.636   0.755   0.773  1.5932  0.7403 -0.4825
   63SOL     MW  252   1.705   0.772   0.730  0.2492 -0.4573 -0.1893
   64SOL     OW  253   0.285   1.691   0.954  0.5176  0.3129  0.1670
   64SOL    HW1  254   0.340   1.739   0.885  0.2605 -0.5616 -3.6055
   64SOL    HW2  255   0.208   1.750   0.972  2.2442  4.1782  2.3026
   64SOL     MW  256   0.282   1.705   0.947  0.7115  0.7075 -0.0490
   65SOL     OW  257   1.538   2.220   0.330 -0.4403 -0.2390 -0.2430
   65SOL    HW1  258   1.624   2.191   0.292  3.0362 -2.4806  0.5999
   65SOL    HW2  259   1.559   2.292   0.383 -2.7302 -3.9496 -1.0106
   65SOL     MW  260   1.552   2.225   0.332 -0.2837 -1.0243 -0.2331
   66SOL     OW  261   0.282   0.603   0.541  0.0594 -0.1550 -0.7860
   66SOL    HW1  262   0.352   0.576   0.486 -2.4882 -2.6469  1.0582
   66SOL    HW2  263   0.287   0.698   0.523  0.3557 -1.6179  2.1540
   66SOL     MW  264   0.292   0.612   0.531 -0.2377 -0.6768 -0.1548
   67SOL     OW  265   1.551   0.215   2.006  0.5996 -0.0250 -0.2323
   67SOL    HW1  266   1.566   0.273   1.932 -0.9828  2.6854 -0.9747
   67SOL    HW2  267   1.548   0.126   1.977 -1.4001 -0.4225 -0.1732
   67SOL     MW  268   1.553   0.211   1.992  0.1270  0.2802 -0.3225
   68SOL     OW  269   0.730   0.055   2.961 -0.3030  0.4696 -0.4636
   68SOL    HW1  270   0.703   0.062   2.864 -2.5479  2.9838 -1.1066
   68SOL    HW2  271   0.709   0.143   2.991 -0.9408  1.3343  1.2761
   68SOL     MW  272   0.724   0.068   2.952 -0.6833  0.9154 -0.3189
   69SOL     OW  273   1.023   0.156   1.952 -0.3028 -0.2802 -0.0180
   69SOL    HW1  274   1.095   0.195   2.006 -1.8973 -2.8099  0.3112
   69SOL    HW2  275   1.044   0.061   1.965 -0.1406 -0.4110  2.0266
   69SOL     MW  276   1.035   0.149   1.961 -0.4918 -0.6312  0.2952
   70SOL     OW  277   0.593   1.809   1.159 -0.0503 -0.4801  0.1776
   70SOL    HW1  278   0.587   1.715   1.182 -0.9191  0.5032  1.7993
   70SOL    HW2  279   0.685   1.816   1.111 -1.1018 -1.2511 -1.7895
   70SOL     MW  280   0.604   1.797   1.156 -0.3036 -0.4521  0.1320
   71SOL     OW  281   1.802   0.680   1.318 -0.3407  0.7560  0.0729
   71SOL    HW1  282   1.796   0.700   1.413 -1.9234 -1.5413  1.7138
   71SOL    HW2  283   1.717   0.656   1.286  0.3300  1.5158 -1.8986
   71SOL     MW  284   1.790   0.680   1.327 -0.4610  0.5532  0.0293
   72SOL     OW  285   0.827   1.825   1.034  0.4158  0.1431  0.6425
   72SOL    HW1  286   0.814   1.878   0.956 -1.0214  0.4762 -0.6872
   72SOL    HW2  287   0.834   1.735   1.001 -0.7527  2.7020  0.4617
   72SOL     MW  288   0.826   1.820   1.020  0.0720  0.5246  0.4432
   73SOL     OW  289   1.335   0.632   1.324 -0.1163  0.8493  0.1609
   73SOL    HW1  290   1.309   0.540   1.312  0.6011  1.0130 -0.0781
   73SOL    HW2  291   1.260   0.676   1.370  0.3692 -0.9707  1.7177
   73SOL     MW  292   1.322   0.626   1.328  0.0424  0.6308  0.3348
   74SOL     OW  293   2.791   0.102   1.021 -0.0864  0.2644 -0.1703
   74SOL    HW1  294   2.719   0.072   0.961 -1.9748 -0.8123 -0.7735
   74SOL    HW2  295   2.844   0.154   0.966 -0.8027  0.4867 -1.0281
   74SOL     MW  296   2.788   0.105   1.006 -0.4301  0.1517 -0.3631
   75SOL     OW  297   1.659   1.274   0.100 -0.0138 -0.4890 -0.0099
   75SOL    HW1  298   1.703   1.277   0.193  0.3543  0.9034 -0.0949
   75SOL    HW2  299   1.655   1.175   0.074 -0.9379 -0.3547  0.5358
   75SOL     MW  300   1.664   1.261   0.109 -0.0872 -0.2876  0.0509
   76SOL     OW  301   2.933   0.630   0.464  0.2222  0.0036 -0.0534
   76SOL    HW1  302   2.977   0.671   0.546 -1.1703 -0.3309  0.9216
   76SOL    HW2  303   3.009   0.619   0.401  0.6057  1.5219  0.2203
   76SOL     MW  304   2.949   0.634   0.466  0.0891  0.1598  0.1113
   77SOL     OW  305   0.920   0.469   0.525 -0.4918 -0.6046  0.2554
   77SOL    HW1  306   0.873   0.552   0.511  1.1029 -0.9413 -0.1122
   77SOL    HW2  307   0.854   0.398   0.528  0.1634 -1.6871 -0.6183
   77SOL     MW  308   0.905   0.471   0.524 -0.1949 -0.7918  0.0916
   78SOL     OW  309   0.883   0.744   1.210 -0.6063  0.0438  0.2635
   78SOL    HW1  310   0.794   0.744   1.233 -1.3820  2.7299 -2.0544
   78SOL    HW2  311   0.898   0.835   1.179  0.5802 -0.3248  0.3979
   78SOL     MW  312   0.873   0.756   1.209 -0.5521  0.3496 -0.0246
   79SOL     OW  313   1.846   1.657   0.601 -0.5309  0.2420  0.4137
   79SOL    HW1  314   1.775   1.604   0.564  1.4849  0.7471 -2.1950
   79SOL    HW2  315   1.830   1.640   0.697 -3.7352  1.4864  1.2754
   79SOL     MW  316   1.835   1.647   0.608 -0.6877  0.4729  0.1832
   80SOL     OW  317   0.155   1.059   0.269 -0.1399 -0.5009 -0.4195
   80SOL    HW1  318   0.086   1.012   0.315 -3.0906  0.1416 -0.1105
   80SOL    HW2  319   0.231   1.022   0.312  0.4561 -2.0227  2.0005
   80SOL     MW  320   0.156   1.048   0.281 -0.4506 -0.6169 -0.0594
   81SOL     OW  321   1.916   1.909   0.217  0.3329 -0.0541  0.2493
   81SOL    HW1  322   1.879   1.831   0.173 -0.5184  1.3072 -0.0915
   81SOL    HW2  323   1.856   1.979   0.190 -0.2365  3.2316 -1.2427
   81SOL     MW  324   1.903   1.908   0.208  0.1455  0.5590  0.0075
   82SOL     OW  325   0.865   0.889   0.549 -0.1224  1.0992  0.1790
   82SOL    HW1  326   0.950   0.910   0.504  1.3625 -0.0131  0.1697
   82SOL    HW2  327   0.816   0.818   0.499  0.4101 -0.7548 -0.0182
   82SOL     MW  328   0.870   0.882   0.536  0.1438  0.7079  0.1518
   83SOL     OW  329   0.075   0.598   1.373  0.4381  1.1639  0.6111
   83SOL    HW1  330   0.088   0.670   1.315  0.5242 -0.4139  2.1842
   83SOL    HW2  331   0.152   0.550   1.402  0.0760 -3.4891 -1.8407
   83SOL     MW  332   0.087   0.601   1.369  0.4017  0.3418  0.4952
   84SOL     OW  333   0.042   0.289   1.068 -0.0818  0.5617 -0.0234
   84SOL    HW1  334  -0.009   0.286   0.984 -1.1934  0.1294  1.5178
   84SOL    HW2  335   0.063   0.198   1.096 -1.5437 -0.8915  0.7436
   84SOL     MW  336   0.038   0.277   1.061 -0.4214  0.3129  0.2812
   85SOL     OW  337   0.464   0.402   0.721 -0.1845  0.4737 -0.2107
   85SOL    HW1  338   0.412   0.467   0.672 -1.1763 -3.5899  1.2040
   85SOL    HW2  339   0.401   0.339   0.760 -2.2158 -0.2090  2.8180
   85SOL     MW  340   0.449   0.402   0.720 -0.5833 -0.1525  0.3756
   86SOL     OW  341   1.141   0.430   1.203  0.1360 -0.5521 -0.0445
   86SOL    HW1  342   1.092   0.471   1.125 -0.1312 -0.5419 -1.9877
   86SOL    HW2  343   1.074   0.436   1.274  0.0102 -2.4969  0.1870
   86SOL     MW  344   1.126   0.436   1.202  0.0841 -0.8073 -0.2704
   87SOL     OW  345   1.265   1.413   1.363  0.1993 -0.5315  0.0078
   87SOL    HW1  346   1.295   1.462   1.285 -1.8569  2.1581  1.9089
   87SOL    HW2  347   1.246   1.327   1.329  2.3956  0.7409  0.1439
   87SOL     MW  348   1.267   1.408   1.348  0.2178 -0.0087  0.2766
   88SOL     OW  349   1.363   1.024   1.014  0.3476 -0.0558  0.1297
   88SOL    HW1  350   1.449   1.024   1.047  0.6719  1.8251  2.1568
   88SOL    HW2  351   1.316   1.091   1.058  2.4468 -0.6913 -2.5680
   88SOL     MW  352   1.368   1.033   1.024  0.6673  0.1085  0.0412
   89SOL     OW  353   1.822   0.559   0.293 -0.2170  0.1399 -0.3171
   89SOL    HW1  354   1.873   0.495   0.344 -0.1628  1.3903  0.8663
   89SOL    HW2  355   1.874   0.590   0.215 -0.1512  0.6224 -0.5465
   89SOL     MW  356   1.835   0.555   0.290 -0.2011  0.3685 -0.1913
   90SOL     OW  357   0.761   1.238   2.835 -0.3556 -0.1364 -0.1490
   90SOL    HW1  358   0.810   1.182   2.895 -0.6263  0.4051 -0.1710
   90SOL    HW2  359   0.764   1.327   2.880 -2.2149  3.1016  1.3163
   90SOL     MW  360   0.768   1.243   2.849 -0.6366  0.3623  0.0415
   91SOL     OW  361   1.962   0.752   0.471 -0.2151 -0.6941 -0.3298
   91SOL    HW1  362   1.965   0.848   0.441  1.7132 -0.7957  1.7220
   91SOL    HW2  363   1.926   0.703   0.391  0.6105  0.1692 -1.0630
   91SOL     MW  364   1.958   0.758   0.457  0.1483 -0.5936 -0.1558
   92SOL     OW  365   1.660   0.750   0.465  0.1501 -0.2233  0.0478
   92SOL    HW1  366   1.567   0.740   0.489 -0.6684  0.8531  1.3484
   92SOL    HW2  367   1.695   0.661   0.440  1.5026 -2.6162  0.8983
   92SOL     MW  368   1.652   0.737   0.465  0.2206 -0.3970  0.3316
   93SOL     OW  369   1.000   0.208   0.394  0.4198 -0.5784 -0.2070
   93SOL    HW1  370   0.990   0.296   0.432  0.7891 -0.0804  1.9078
   93SOL    HW2  371   0.945   0.216   0.318  0.3191  0.4761  0.8054
   93SOL     MW  372   0.991   0.220   0.389  0.4552 -0.3736  0.2056
   94SOL     OW  373   1.967   1.283   1.697  0.2073 -0.3575 -0.1156
   94SOL    HW1  374   1.941   1.317   1.614  0.5610 -0.3033  0.0987
   94SOL    HW2  375   1.925   1.203   1.723 -2.2157 -0.3629  3.4892
   94SOL     MW  376   1.958   1.277   1.690 -0.0657 -0.3511  0.3883
   95SOL     OW  377   0.915   1.572   1.011  0.0515 -0.3855 -0.1812
   95SOL    HW1  378   0.931   1.481   1.022 -0.4501  1.4094  0.0876
   95SOL    HW2  379   0.975   1.610   1.079 -0.5907  1.3435  2.8726
   95SOL     MW  380   0.925   1.565   1.021 -0.0995  0.0794  0.2572
   96SOL     OW  381   1.251   1.785   1.699 -1.1371 -0.2168 -0.1487
   96SOL    HW1  382   1.152   1.775   1.716 -1.8734 -0.9620 -2.1725
   96SOL    HW2  383   1.284   1.714   1.640  1.8678  2.0498  0.0464
   96SOL     MW  384   1.243   1.774   1.693 -0.8378 -0.0161 -0.3900
   97SOL     OW  385   1.230   1.447   0.857  1.0044 -0.1299 -0.3734
   97SOL    HW1  386   1.243   1.478   0.944  0.9246 -1.2486 -0.1876
   97SOL    HW2  387   1.150   1.497   0.821 -0.3001  1.9992 -1.0579
   97SOL     MW  388   1.221   1.457   0.863  0.8218  0.0034 -0.4392
   98SOL     OW  389   1.537   1.284   1.159 -0.0407 -0.0868 -0.2268
   98SOL    HW1  390   1.554   1.375   1.191 -1.3685  0.3440 -1.8752
   98SOL    HW2  391   1.578   1.284   1.072  0.1722 -0.7977 -0.4770
   98SOL     MW  392   1.545   1.296   1.152 -0.1878 -0.1237 -0.4773
   99SOL     OW  393   1.459   0.384   1.210  0.8307 -0.4366  0.4780
   99SOL    HW1  394   1.493   0.468   1.173  0.1017  3.3872  0.3228
   99SOL    HW2  395   1.472   0.387   1.306 -0.9779 -0.2518 -1.1929
   99SOL     MW  396   1.465   0.396   1.218  0.4959  0.0923  0.2371
  100SOL     OW  397   1.115   1.062   1.338  0.6093  0.2368 -0.4558
  100SOL    HW1  398   1.042   1.062   1.408  1.9547  0.4865  0.0655
  100SOL    HW2  399   1.193   1.059   1.393  2.1320  0.0480  0.9777
  100SOL     MW  400   1.116   1.061   1.354  0.9877  0.2449 -0.1979
  101SOL     OW  401   0.650   1.166   0.328 -0.1486  0.1418 -0.2547
  101SOL    HW1  402   0.636   1.066   0.316 -2.5645  0.8107  1.6207
  101SOL    HW2  403   0.671   1.188   0.237 -1.4530 -0.3956  0.2279
  101SOL     MW  404   0.651   1.156   0.314 -0.6395  0.1592  0.0564
  102SOL     OW  405   2.924   0.626   0.913  0.3424 -0.5817 -0.2908
  102SOL    HW1  406   3.010   0.659   0.876  0.2418 -2.2739 -0.6262
  102SOL    HW2  407   2.941   0.578   0.992  0.4396 -0.0611 -1.3563
  102SOL     MW  408   2.938   0.624   0.919  0.3420 -0.7363 -0.4756
  103SOL     OW  409   1.654   0.347   1.768 -1.3010  0.0587  0.3619
  103SOL    HW1  410   1.630   0.266   1.726  1.6141 -0.3885 -0.9309
  103SOL    HW2  411   1.748   0.332   1.807  1.2737 -1.4504 -0.6250
  103SOL     MW  412   1.664   0.334   1.767 -0.5767 -0.1994  0.0611
  104SOL     OW  413   0.095   1.830   1.503 -0.0422  0.2403  0.1639
  104SOL    HW1  414   0.165   1.775   1.479 -2.3417  0.5981  2.1977
  104SOL    HW2  415   0.082   1.800   1.598  0.5717 -0.9223  2.7294
  104SOL     MW  416   0.102   1.818   1.512 -0.2646  0.1341  0.7708
  105SOL     OW  417   0.146   1.171   0.546  0.2884 -0.5012  0.1525
  105SOL    HW1  418   0.199   1.140   0.474  3.1457 -0.1839 -0.1942
  105SOL    HW2  419   0.169   1.263   0.541 -1.8302 -2.2372 -1.8350
  105SOL     MW  420   0.156   1.179   0.536  0.3858 -0.6884 -0.1555
  106SOL     OW  421   0.847   0.334   0.933  0.4187  0.5038  0.6057
  106SOL    HW1  422   0.788   0.415   0.914 -1.7538  0.4737 -1.1507
  106SOL    HW2  423   0.911   0.332   0.869 -2.8555  1.5812  1.1882
  106SOL     MW  424   0.848   0.345   0.922 -0.2999  0.6420  0.4508
  107SOL     OW  425   0.787   2.205   3.071 -0.2361  0.1389 -0.0502
  107SOL    HW1  426   0.735   2.147   3.018  1.2533  3.9973 -0.6277
  107SOL    HW2  427   0.860   2.149   3.099  0.0553 -1.6302 -1.4258
  107SOL     MW  428   0.789   2.190   3.067 -0.0011  0.4145 -0.3079
  108SOL     OW  429   1.399   1.593   1.557  0.4872  0.2771 -0.4627
  108SOL    HW1  430   1.354   1.518   1.521 -2.9632 -2.2978 -1.3176
  108SOL    HW2  431   1.450   1.561   1.628  0.9795 -0.3397 -0.9585
  108SOL     MW  432   1.400   1.579   1.561  0.0969 -0.1440 -0.6409
  109SOL     OW  433   1.962   0.766   0.172 -0.2156 -0.4681 -0.3878
  109SOL    HW1  434   1.939   0.760   0.078 -2.3558  3.9523  1.8238
  109SOL    HW2  435   2.055   0.789   0.176 -0.7273  2.0183  0.2452
  109SOL     MW  436   1.971   0.768   0.160 -0.5655  0.4432 -0.0125
  110SOL     OW  437   0.437   1.777   0.743 -0.2457 -0.4204  0.1158
  110SOL    HW1  438   0.489   1.729   0.672 -1.1220 -0.5492 -0.0699
  110SOL    HW2  439   0.390   1.846   0.695 -3.0926 -0.0098 -0.3530
  110SOL     MW  440   0.437   1.780   0.728 -0.7370 -0.3832  0.0295
  111SOL     OW  441   0.687   0.926   1.495 -0.1618  0.3443  0.3152
  111SOL    HW1  442   0.742   0.840   1.493 -1.8567 -2.4445  1.0814
  111SOL    HW2  443   0.623   0.911   1.563  1.0385  0.6953  1.7023
  111SOL     MW  444   0.686   0.913   1.504 -0.2271  0.0227  0.5993
  112SOL     OW  445   1.297   1.144   1.599  0.0268 -0.0847  0.0441
  112SOL    HW1  446   1.236   1.218   1.637 -1.8945 -1.5455  2.0888
  112SOL    HW2  447   1.269   1.065   1.644  0.1909  0.5831 -1.9366
  112SOL     MW  448   1.285   1.143   1.610 -0.2051 -0.1893  0.0525
  113SOL     OW  449   1.366   0.050   1.708 -0.1153  0.1086  0.3223
  113SOL    HW1  450   1.363   0.008   1.793  0.7972  1.3164  1.2898
  113SOL    HW2  451   1.334  -0.016   1.654 -1.3686 -1.1285 -1.0176
  113SOL     MW  452   1.361   0.036   1.712 -0.1603  0.1048  0.2732
  114SOL     OW  453   0.452   2.819   1.839  0.2505 -0.0026  0.1496
  114SOL    HW1  454   0.470   2.876   1.916  0.1675 -0.1531  2.6082
  114SOL    HW2  455   0.456   2.869   1.755 -1.9225  0.1730 -1.7724
  114SOL     MW  456   0.455   2.833   1.838 -0.0472  0.0007  0.2204
  115SOL     OW  457   0.376   0.850   1.056  0.1526  0.1002 -0.0184
  115SOL    HW1  458   0.436   0.775   1.068  0.4455 -0.8306  0.7289
  115SOL    HW2  459   0.372   0.890   1.146  1.7182  0.1755 -1.5320
  115SOL     MW  460   0.384   0.845   1.069  0.3978 -0.0127 -0.1195
  116SOL     OW  461   0.766   0.958   0.911 -0.3307  0.5051 -0.1159
  116SOL    HW1  462   0.821   0.972   0.833 -0.3216 -3.0778  0.7459
  116SOL    HW2  463   0.822   0.982   0.991  2.0440 -2.2163  1.4669
  116SOL     MW  464   0.781   0.963   0.911 -0.0162 -0.3267  0.2066
  117SOL     OW  465   1.212   1.185   0.801 -0.3614 -0.3126  0.5165
  117SOL    HW1  466   1.261   1.119   0.857  1.6439 -1.4465  0.1691
  117SOL    HW2  467   1.225   1.276   0.827  0.0113  0.8960 -1.8492
  117SOL     MW  468   1.220   1.188   0.812 -0.0476 -0.3027  0.1586
  118SOL     OW  469   3.101   2.967   1.735 -0.5179  0.0556 -0.4325
  118SOL    HW1  470   3.120   2.973   1.827  0.9449 -0.6373  0.3952
  118SOL    HW2  471   3.008   2.957   1.723  1.7314 -2.7795  2.0377
  118SOL     MW  472   3.091   2.967   1.745 -0.0282 -0.4099  0.0026
  119SOL     OW  473   0.485   1.300   1.239  0.5966  0.4554 -0.0302
  119SOL    HW1  474   0.484   1.338   1.149 -0.3357  0.8910  0.3660
  119SOL    HW2  475   0.386   1.279   1.258 -1.1587  0.1016 -0.3814
  119SOL     MW  476   0.472   1.302   1.230  0.2420  0.4662 -0.0243
  120SOL     OW  477   0.176   0.596   0.956  0.0651 -0.0956 -0.0361
  120SOL    HW1  478   0.186   0.553   1.037  0.4051  2.6161 -1.4774
  120SOL    HW2  479   0.215   0.679   0.968 -2.3301 -0.3622  0.0735
  120SOL     MW  480   0.183   0.601   0.968 -0.2061  0.2270 -0.2118
  121SOL     OW  481   1.807   1.046   1.764  0.0730  0.3229 -0.3858
  121SOL    HW1  482   1.738   1.045   1.690 -0.5284 -2.8058 -2.5028
  121SOL    HW2  483   1.815   0.953   1.798 -0.4880  0.4106 -1.2808
  121SOL     MW  484   1.799   1.034   1.758 -0.0803 -0.0783 -0.7832
  122SOL     OW  485   0.100   0.478   0.717 -0.4304 -0.0361 -0.0115
  122SOL    HW1  486   0.149   0.488   0.632 -0.8854  0.4464  0.8538
  122SOL    HW2  487   0.153   0.522   0.789 -0.3929 -1.0945  0.0675
  122SOL     MW  488   0.113   0.485   0.715 -0.4855 -0.1121  0.1131
  123SOL     OW  489   1.728   1.034   0.477  0.0451 -0.0852  0.3176
  123SOL    HW1  490   1.693   0.948   0.478  0.1025  0.3763  0.2169
  123SOL    HW2  491   1.772   1.028   0.563  0.9057 -1.6245 -2.3296
  123SOL     MW  492   1.730   1.022   0.489  0.1662 -0.2274 -0.0450
  124SOL     OW  493   0.649   0.535   0.868  0.5594 -0.0158 -0.4067
  124SOL    HW1  494   0.600   0.469   0.822  1.5979 -1.1163  0.2430
  124SOL    HW2  495   0.639   0.618   0.820 -1.5539 -1.1556  0.2847
  124SOL     MW  496   0.641   0.537   0.856  0.4176 -0.3114 -0.2298
  125SOL     OW  497   0.622   1.649   1.679  0.0361  0.5503 -0.3646
  125SOL    HW1  498   0.567   1.594   1.631  0.5132  1.0745 -1.5222
  125SOL    HW2  499   0.592   1.743   1.680 -0.9260  0.8883  0.6751
  125SOL     MW  500   0.610   1.654   1.672 -0.0279  0.6641 -0.3801
  126SOL     OW  501   2.128   1.617   2.026 -0.0058  0.0606 -0.8875
  126SOL    HW1  502   2.171   1.699   2.030 -1.2316 -0.0294 -0.3605
  126SOL    HW2  503   2.195   1.547   2.011 -0.5186 -2.1839  1.1824
  126SOL     MW  504   2.143   1.618   2.025 -0.2352 -0.2474 -0.5449
  127SOL     OW  505   0.616   0.693   1.874 -0.4271  0.6377  0.3038
  127SOL    HW1  506   0.672   0.615   1.902 -1.8637 -2.4526  0.5617
  127SOL    HW2  507   0.651   0.771   1.924  1.0519  1.3465  0.5699
  127SOL     MW  508   0.628   0.693   1.885 -0.4215  0.3235  0.3729
  128SOL     OW  509   1.712   0.738   2.835 -0.1452  0.4611  0.8831
  128SOL    HW1  510   1.754   0.691   2.759 -3.7065  0.0973  1.9513
  128SOL    HW2  511   1.699   0.834   2.812 -0.9605  0.3822 -0.3612
  128SOL     MW  512   1.716   0.744   2.822 -0.7226  0.4027  0.8598
  129SOL     OW  513   1.576   0.865   0.208 -0.9370  0.7050  0.3260
  129SOL    HW1  514   1.485   0.863   0.214 -2.2738 -0.5666 -1.7216
  129SOL    HW2  515   1.601   0.785   0.255 -0.7600 -0.7803 -2.1977
  129SOL     MW  516   1.567   0.854   0.215 -1.0900  0.3413 -0.2772
  130SOL     OW  517   0.762   1.530   0.337  0.6891 -0.1106 -0.1966
  130SOL    HW1  518   0.788   1.449   0.381 -1.2608  2.5671 -1.0273
  130SOL    HW2  519   0.847   1.580   0.328 -0.7424 -0.0927  1.5197
  130SOL     MW  520   0.777   1.526   0.341  0.2429  0.2451 -0.0798
  131SOL     OW  521   3.026   0.801   0.081  0.3903  0.0810  0.0049
  131SOL    HW1  522   3.022   0.880   0.014 -0.5485  0.4819 -1.7237
  131SOL    HW2  523   3.118   0.777   0.075  0.1275  0.9762  0.0234
  131SOL     MW  524   3.038   0.809   0.072  0.2318  0.2520 -0.2207
  132SOL     OW  525   2.690   0.099   1.282  0.0215 -0.2939  0.0654
  132SOL    HW1  526   2.713   0.100   1.186  1.1357 -1.4960  0.6321
  132SOL    HW2  527   2.592   0.099   1.284  0.7465  0.6536 -1.7020
  132SOL     MW  528   2.680   0.099   1.269  0.2642 -0.3275 -0.0930
  133SOL     OW  529   1.101   0.224   1.700  0.6621 -0.2833  0.0547
  133SOL    HW1  530   1.182   0.181   1.690  2.0122  2.5279 -1.1409
  133SOL    HW2  531   1.069   0.205   1.787 -0.9137  1.2640  0.1028
  133SOL     MW  532   1.108   0.215   1.710  0.6323  0.2917 -0.0967
  134SOL     OW  533   1.385   2.504   1.449 -0.4683  0.0036 -0.9609
  134SOL    HW1  534   1.326   2.569   1.426  1.0642 -1.5279 -1.1301
  134SOL    HW2  535   1.448   2.551   1.508  1.2771  0.1922 -2.6855
  134SOL     MW  536   1.386   2.518   1.454 -0.0358 -0.1735 -1.2108
  135SOL     OW  537   3.018   1.019   2.974  0.1654 -0.0633 -0.6954
  135SOL    HW1  538   3.097   1.065   2.951  2.7284 -1.7298  2.0469
  135SOL    HW2  539   2.941   1.076   2.978  3.2220 -0.2956  2.9787
  135SOL     MW  540   3.018   1.032   2.971  0.9069 -0.3139  0.1512
  136SOL     OW  541   0.239   2.077   0.874  0.0961 -0.1741 -0.7883
  136SOL    HW1  542   0.181   2.004   0.904 -1.5390  2.1983  0.9282
  136SOL    HW2  543   0.264   2.052   0.787 -0.6233 -0.4286  3.8130
  136SOL     MW  544   0.234   2.064   0.867 -0.2146  0.1053  0.0453
  137SOL     OW  545   0.667   2.081   0.605  0.1265 -0.1957 -0.0272
  137SOL    HW1  546   0.728   2.068   0.677  2.6750  0.8850 -1.9505
  137SOL    HW2  547   0.577   2.039   0.617 -0.6379  0.2723  1.5145
  137SOL     MW  548   0.663   2.074   0.616  0.3619  0.0086 -0.0776
  138SOL     OW  549   0.500   0.606   1.098  0.9302 -0.0166 -0.6944
  138SOL    HW1  550   0.421   0.555   1.090  1.2020  3.8286 -1.5579
  138SOL    HW2  551   0.552   0.584   1.019 -1.3564  2.7326 -0.7322
  138SOL     MW  552   0.497   0.597   1.086  0.6644  0.8534 -0.8133
  139SOL     OW  553   2.707   0.553   1.401  0.1628  0.0009  0.2492
  139SOL    HW1  554   2.744   0.460   1.415 -1.0601 -0.8323  4.5096
  139SOL    HW2  555   2.782   0.611   1.418  2.8514  1.0715 -0.2107
  139SOL     MW  556   2.722   0.548   1.405  0.3561  0.0323  0.7506
  140SOL     OW  557   0.876   0.301   2.185 -0.3816  0.5851  0.0363
  140SOL    HW1  558   0.896   0.229   2.115 -0.7656 -4.2584 -1.8153
  140SOL    HW2  559   0.918   0.273   2.260 -0.8917 -0.5929  0.3362
  140SOL     MW  560   0.884   0.288   2.185 -0.4996 -0.2094 -0.1684
  141SOL     OW  561   1.035   0.674   1.768 -0.5237 -0.0503  0.1311
  141SOL    HW1  562   1.082   0.603   1.722  0.1978 -0.2497 -1.6664
  141SOL    HW2  563   1.074   0.762   1.759 -0.8706 -0.3384  1.9591
  141SOL     MW  564   1.046   0.676   1.761 -0.4742 -0.1146  0.1351
  142SOL     OW  565   0.962   1.130   0.695  0.4077 -0.7094 -0.6405
  142SOL    HW1  566   0.966   1.038   0.662 -1.3203  1.3210  1.5900
  142SOL    HW2  567   1.041   1.160   0.744 -0.2281  0.0775  1.7654
  142SOL     MW  568   0.973   1.122   0.697  0.0958 -0.3377 -0.0288
  143SOL     OW  569   1.904   0.885   1.188 -0.0473  0.3509 -0.2892
  143SOL    HW1  570   1.883   0.862   1.094 -0.7176  0.5859 -0.8074
  143SOL    HW2  571   1.893   0.801   1.237  1.6602 -0.8913  1.4593
  143SOL     MW  572   1.900   0.871   1.182  0.0896  0.2180 -0.1268
  144SOL     OW  573   0.165   1.241   1.526  0.3037 -0.4355 -0.1774
  144SOL    HW1  574   0.257   1.209   1.527  1.6343  0.2200 -1.8049
  144SOL    HW2  575   0.134   1.220   1.616 -0.0520 -1.7140  0.8309
  144SOL     MW  576   0.173   1.234   1.538  0.4323 -0.5177 -0.2591
  145SOL     OW  577   0.279   0.413   1.157 -0.5037  0.1700  0.1781
  145SOL    HW1  578   0.338   0.358   1.209 -0.8275 -1.6593  1.2392
  145SOL    HW2  579   0.201   0.362   1.142  0.5026  1.5736 -2.1351
  145SOL     MW  580   0.277   0.399   1.162 -0.4136  0.1138  0.0129
  146SOL     OW  581   0.866   1.936   1.375 -0.2216 -0.0732  0.5825
  146SOL    HW1  582   0.908   1.974   1.295  2.2556 -0.1137 -2.7240
  146SOL    HW2  583   0.775   1.963   1.364 -0.8731  1.8009 -1.5199
  146SOL     MW  584   0.859   1.944   1.363  0.0193  0.1687 -0.1312
  147SOL     OW  585   0.440   0.437   2.854 -1.1946 -0.0408  0.0800
  147SOL    HW1  586   0.378   0.431   2.926 -0.8474  0.3884  2.6793
  147SOL    HW2  587   0.394   0.472   2.779 -0.2241  0.9904 -2.5742
  147SOL     MW  588   0.426   0.441   2.854 -1.0207  0.1519  0.0728
  148SOL     OW  589   0.063   0.883   1.290 -0.6208  0.0078 -0.2099
  148SOL    HW1  590   0.151   0.887   1.250  0.0784 -4.0736  2.6222
  148SOL    HW2  591   0.073   0.925   1.376 -2.4158  0.2484 -1.2880
  148SOL     MW  592   0.076   0.889   1.296 -0.7654 -0.4990  0.0215
  149SOL     OW  593   1.434   1.100   1.368 -0.1580 -0.2217 -0.2569
  149SOL    HW1  594   1.383   1.123   1.452  1.9771  0.7226 -0.5603
  149SOL    HW2  595   1.493   1.174   1.350  0.0321 -0.7551 -1.4771
  149SOL     MW  596   1.435   1.113   1.377  0.1488 -0.1675 -0.4580
  150SOL     OW  597   1.860   1.357   0.712  0.0734  0.3185  0.3011
  150SOL    HW1  598   1.890   1.267   0.700  0.4443 -1.2153 -2.6686
  150SOL    HW2  599   1.921   1.387   0.779 -1.8167 -0.0469  0.9536
  150SOL     MW  600   1.872   1.349   0.719 -0.1271  0.0679 -0.0046
  151SOL     OW  601   1.615   1.797   0.821  0.4400 -0.1893 -0.3602
  151SOL    HW1  602   1.567   1.818   0.738 -0.3229  0.3564  2.2528
  151SOL    HW2  603   1.562   1.745   0.879 -0.4284 -0.0301 -0.3372
  151SOL     MW  604   1.601   1.793   0.817  0.2248 -0.0963 -0.0124
  152SOL     OW  605   0.766   1.329   1.475  0.2118 -0.0311  0.5457
  152SOL    HW1  606   0.757   1.245   1.435  2.6262  0.1652  1.3646
  152SOL    HW2  607   0.863   1.338   1.502  1.0118  1.2234  0.5371
  152SOL     MW  608   0.778   1.319   1.473  0.6359  0.1603  0.6526
  153SOL     OW  609   2.636   1.227   0.719  0.3279 -0.2134 -0.1154
  153SOL    HW1  610   2.700   1.230   0.642  3.5335 -1.9481 -2.3605
  153SOL    HW2  611   2.613   1.141   0.739  3.1360  1.1820 -0.6516
  153SOL     MW  612   2.642   1.216   0.711  1.1214 -0.2582 -0.4824
  154SOL     OW  613   0.306   1.741   1.722 -0.2516  0.0034 -0.3060
  154SOL    HW1  614   0.350   1.733   1.636  3.1894 -1.0214 -2.4546
  154SOL    HW2  615   0.349   1.667   1.775  0.0841 -0.8375  0.4375
  154SOL     MW  616   0.318   1.730   1.718  0.2467 -0.2428 -0.4914
  155SOL     OW  617   1.091   0.720   0.257  0.0975 -0.4266 -0.1314
  155SOL    HW1  618   1.129   0.660   0.318 -0.0710  0.7909  0.6545
  155SOL    HW2  619   1.103   0.805   0.305  1.2075  0.2399 -1.0434
  155SOL     MW  620   1.098   0.723   0.271  0.2218 -0.1781 -0.1480
  156SOL     OW  621   1.596   3.029   0.989 -0.1571 -0.3297 -0.1569
  156SOL    HW1  622   1.675   3.079   0.957 -1.5106  1.8314 -1.1842
  156SOL    HW2  623   1.621   2.979   1.067  0.0598 -0.6002 -2.1283
  156SOL     MW  624   1.610   3.029   0.995 -0.3071 -0.0803 -0.5526
  157SOL     OW  625   1.396   1.203   0.085  0.6582 -0.2453 -0.1578
  157SOL    HW1  626   1.361   1.178   0.174 -0.9386 -2.2945 -0.8307
  157SOL    HW2  627   1.484   1.243   0.095  0.6244 -1.5046 -2.5343
  157SOL     MW  628   1.403   1.205   0.098  0.4431 -0.6818 -0.5601
  158SOL     OW  629   0.390   1.626   2.255  0.1407  0.8841  0.6630
  158SOL    HW1  630   0.328   1.685   2.212 -0.8182 -1.6451 -0.5483
  158SOL    HW2  631   0.325   1.592   2.321 -1.8183  2.4071  0.3098
  158SOL     MW  632   0.373   1.629   2.258 -0.2443  0.7513  0.4566
  159SOL     OW  633   1.249   1.681   0.402  0.0904 -0.8263 -0.0661
  159SOL    HW1  634   1.245   1.598   0.351 -0.9154  1.7621  0.5651
  159SOL    HW2  635   1.171   1.690   0.462 -1.5677 -1.6289  1.9979
  159SOL     MW  636   1.238   1.671   0.403 -0.2611 -0.5907  0.2895
  160SOL     OW  637   0.421   1.067   1.566  0.1169 -0.2070  0.4736
  160SOL    HW1  638   0.412   0.987   1.621  2.1232  0.7783  2.3879
  160SOL    HW2  639   0.431   1.137   1.633 -1.2536 -1.5962  0.6785
  160SOL     MW  640   0.421   1.065   1.582  0.2008 -0.2603  0.7532
  161SOL     OW  641   0.554   2.143   2.652  0.9208  0.2825  0.0111
  161SOL    HW1  642   0.483   2.157   2.722  1.0351 -2.0584  0.5629
  161SOL    HW2  643   0.511   2.098   2.583 -0.7627 -0.3821 -1.5792
  161SOL     MW  644   0.539   2.139   2.652  0.7138 -0.1141 -0.1259
  162SOL     OW  645   1.025   1.722   1.837  0.1646 -0.6474  0.0286
  162SOL    HW1  646   1.007   1.810   1.849 -0.0195  1.2499 -1.7277
  162SOL    HW2  647   0.938   1.692   1.831 -0.4077  1.1804  1.9847
  162SOL     MW  648   1.011   1.729   1.837  0.0648 -0.1559  0.0550
  163SOL     OW  649   2.156   0.157   0.997  0.1818 -0.3891  0.4201
  163SOL    HW1  650   2.151   0.191   0.903  0.6332  0.9446 -1.0673
  163SOL    HW2  651   2.109   0.080   0.995 -1.6825  0.5182 -0.3572
  163SOL     MW  652   2.149   0.152   0.984 -0.0046 -0.0934  0.1213
  164SOL     OW  653   0.303   0.216   0.845 -0.1526 -0.5996  0.2362
  164SOL    HW1  654   0.205   0.224   0.866 -2.6857 -2.8152 -1.1240
  164SOL    HW2  655   0.315   0.139   0.790  3.2414  1.1527 -2.7978
  164SOL     MW  656   0.291   0.207   0.841 -0.0390 -0.6608 -0.3436
  165SOL     OW  657   1.392   1.193   0.383 -0.1837 -0.0046  0.1560
  165SOL    HW1  658   1.361   1.138   0.451  0.3113  0.6064 -1.2136
  165SOL    HW2  659   1.486   1.168   0.370 -1.2686 -1.3021  0.0462
  165SOL     MW  660   1.400   1.182   0.391 -0.2615 -0.0952 -0.0392
  166SOL     OW  661   0.536   1.101   0.977 -0.0873  0.5201  0.2561
  166SOL    HW1  662   0.485   1.047   1.037  1.3227 -0.6870  0.6692
  166SOL    HW2  663   0.610   1.046   0.941  2.5315  0.3691 -2.1554
  166SOL     MW  664   0.539   1.087   0.980  0.4443  0.3409 -0.0076
  167SOL     OW  665   0.959   1.166   0.356  0.0227  0.2888  0.1573
  167SOL    HW1  666   0.868   1.200   0.386 -4.1928  0.7058 -1.5115
  167SOL    HW2  667   0.941   1.127   0.265  0.6106  0.8460 -2.1443
  167SOL     MW  668   0.945   1.165   0.348 -0.4560  0.4173 -0.3666
  168SOL     OW  669   1.688   1.750   2.917  0.0758  0.2993 -0.3021
  168SOL    HW1  670   1.657   1.834   2.958 -0.5685 -0.7768 -1.6579
  168SOL    HW2  671   1.709   1.682   2.983  4.6365  1.4051  2.5452
  168SOL     MW  672   1.687   1.752   2.931  0.5925  0.3032 -0.1053
  169SOL     OW  673   0.329   0.982   1.283  0.1056 -0.5707  0.0378
  169SOL    HW1  674   0.379   0.987   1.363  0.0867  1.4857  2.6038
  169SOL    HW2  675   0.268   1.060   1.282 -1.4069  0.8149  2.4888
  169SOL     MW  676   0.328   0.993   1.294 -0.0964 -0.1166  0.6997
  170SOL     OW  677   1.021   1.444   1.526 -0.1870 -0.0571 -0.5377
  170SOL    HW1  678   0.969   1.524   1.520  0.0257 -1.6459 -2.3036
  170SOL    HW2  679   1.072   1.450   1.450 -0.3660 -1.7251 -0.9888
  170SOL     MW  680   1.021   1.456   1.515 -0.1825 -0.4868 -0.8302
  171SOL     OW  681   0.563   1.387   0.682  0.0875  0.1444 -0.0357
  171SOL    HW1  682   0.561   1.387   0.778  2.9569  1.8129 -1.5850
  171SOL    HW2  683   0.558   1.289   0.658 -1.7531 -1.2047 -2.0236
  171SOL     MW  684   0.562   1.374   0.692  0.2233  0.1865 -0.5024
  172SOL     OW  685   0.840   0.303   1.198  0.3689  0.4063 -0.3881
  172SOL    HW1  686   0.836   0.330   1.109 -1.0394  1.8389 -0.0403
  172SOL    HW2  687   0.771   0.354   1.242  0.0344 -1.2558  0.6454
  172SOL     MW  688   0.830   0.313   1.193  0.1389  0.3760 -0.2059
  173SOL     OW  689   0.409   1.644   0.354  0.0573  0.4384 -0.1885
  173SOL    HW1  690   0.417   1.553   0.339  0.1150  0.6840 -2.0064
  173SOL    HW2  691   0.459   1.650   0.435  0.4790  1.0865  0.5116
  173SOL     MW  692   0.417   1.633   0.362  0.1205  0.5563 -0.3360
  174SOL     OW  693   2.024   0.950   1.506 -0.0579  0.3638  0.8893
  174SOL    HW1  694   1.964   0.887   1.555 -1.6155  0.7195  0.9290
  174SOL    HW2  695   1.972   1.016   1.468  0.0881  0.1381 -0.4988
  174SOL     MW  696   2.009   0.951   1.507 -0.2442  0.3809  0.7114
  175SOL     OW  697   0.366   1.361   0.384  0.0130 -0.2647 -0.2757
  175SOL    HW1  698   0.345   1.342   0.292 -0.9020  2.6754  0.8324
  175SOL    HW2  699   0.457   1.330   0.399  1.1521 -0.9047  1.0506
  175SOL     MW  700   0.375   1.354   0.374  0.0425  0.0388  0.0455
  176SOL     OW  701   0.218   1.234   1.252 -0.2622 -0.3066 -0.1044
  176SOL    HW1  702   0.159   1.246   1.179 -0.7991  0.0821  2.3927
  176SOL    HW2  703   0.176   1.267   1.330 -2.6137  2.9043  1.6514
  176SOL     MW  704   0.205   1.240   1.253 -0.6433  0.1684  0.4567
  177SOL     OW  705   0.628   0.430   1.308 -0.7314  0.4625  0.8130
  177SOL    HW1  706   0.591   0.494   1.247  0.5108 -0.8674  2.8581
  177SOL    HW2  707   0.631   0.484   1.389  2.8368  1.1746  0.5953
  177SOL     MW  708   0.624   0.446   1.310 -0.0967  0.3810  1.0541
  178SOL     OW  709   3.098   0.421   3.029  0.4844 -0.6344 -0.2451
  178SOL    HW1  710   3.054   0.478   3.100  1.8010 -1.8339 -0.3696
  178SOL    HW2  711   3.056   0.446   2.951 -0.2376 -0.6534  0.6167
  178SOL     MW  712   3.087   0.432   3.028  0.5628 -0.7952 -0.1478
  179SOL     OW  713   1.635   1.323   1.478  0.3071 -0.2524 -0.4273
  179SOL    HW1  714   1.620   1.351   1.574  1.2412  3.3584 -0.0105
  179SOL    HW2  715   1.727   1.348   1.465 -2.5986  1.4411 -3.3131
  179SOL     MW  716   1.645   1.330   1.489  0.0470  0.4475 -0.7531
  180SOL     OW  717   2.989   0.299   0.487  0.2114 -0.0198 -0.3023
  180SOL    HW1  718   2.954   0.317   0.397 -0.9482 -1.4079  2.2528
  180SOL    HW2  719   3.000   0.388   0.521 -0.3132  2.0644  1.8160
  180SOL     MW  720   2.986   0.313   0.480 -0.0108  0.0721  0.3143
  181SOL     OW  721   1.142   1.366   3.038  0.2275  0.2019 -0.0523
  181SOL    HW1  722   1.217   1.416   3.062  1.8593  0.3225 -1.1205
  181SOL    HW2  723   1.172   1.329   2.958 -1.0941  1.6542  0.0304
  181SOL     MW  724   1.156   1.368   3.031  0.2685  0.4094 -0.1823
  182SOL     OW  725   0.462   0.835   1.703 -0.1516 -1.1958 -0.5292
  182SOL    HW1  726   0.392   0.780   1.671  2.0824  0.7109 -3.5645
  182SOL    HW2  727   0.519   0.783   1.755  1.5479 -0.3247  0.5681
  182SOL     MW  728   0.460   0.821   1.706  0.3674 -0.8293 -0.7849
  183SOL     OW  729   1.579   1.520   1.285  0.3837  0.5710  0.2190
  183SOL    HW1  730   1.503   1.561   1.327 -4.1009 -2.2808  0.1370
  183SOL    HW2  731   1.607   1.467   1.366  0.0928 -2.3317 -0.3453
  183SOL     MW  732   1.573   1.518   1.301 -0.2464 -0.1882  0.1337
  184SOL     OW  733   0.799   0.487   1.959 -0.3230  0.4063  0.4314
  184SOL    HW1  734   0.885   0.527   1.939  1.3178  2.4858 -1.9647
  184SOL    HW2  735   0.798   0.476   2.052 -3.5845  0.0627  3.3124
  184SOL     MW  736   0.811   0.491   1.969 -0.5368  0.6353  0.4954
  185SOL     OW  737   1.128   0.913   1.962  0.2919 -0.1493 -0.0716
  185SOL    HW1  738   1.098   0.837   2.010  0.9443  0.8278  0.1289
  185SOL    HW2  739   1.185   0.957   2.032 -0.8118  0.2973  0.0009
  185SOL     MW  740   1.131   0.908   1.978  0.2324  0.0385 -0.0356
  186SOL     OW  741   0.359   1.768   1.452 -0.1466 -0.4632  0.1305
  186SOL    HW1  742   0.437   1.814   1.435  0.7191 -0.6716  1.8215
  186SOL    HW2  743   0.330   1.718   1.377 -3.5057 -0.8772 -0.2918
  186SOL     MW  744   0.365   1.767   1.440 -0.4756 -0.5453  0.2979
  187SOL     OW  745   1.519   0.714   1.500  0.1296 -0.5953  0.0783
  187SOL    HW1  746   1.480   0.727   1.589  0.6827 -0.8147  0.2753
  187SOL    HW2  747   1.452   0.689   1.439  1.2753 -1.7675  1.0227
  187SOL     MW  748   1.505   0.712   1.504  0.3538 -0.7789  0.2289
  188SOL     OW  749   1.918   1.081   0.699 -0.0477 -0.0330  0.1016
  188SOL    HW1  750   1.923   1.042   0.782 -0.7597  0.4849 -0.6884
  188SOL    HW2  751   1.993   1.049   0.653  0.4870  1.9161 -1.7976
  188SOL     MW  752   1.928   1.072   0.704 -0.0711  0.2925 -0.2532
  189SOL     OW  753   0.632   0.774   0.760 -0.4175 -0.4024  0.2592
  189SOL    HW1  754   0.561   0.836   0.763 -0.3867  1.9991  2.9591
  189SOL    HW2  755   0.690   0.834   0.813  4.4151 -0.4264 -0.2142
  189SOL     MW  756   0.630   0.790   0.767  0.2242 -0.0887  0.5530
  190SOL     OW  757   1.878   0.358   1.962 -0.4931  0.4496  0.3403
  190SOL    HW1  758   1.933   0.294   2.009  1.7934 -0.5026  1.6800
  190SOL    HW2  759   1.938   0.429   1.928 -1.3694  0.4916  1.4463
  190SOL     MW  760   1.894   0.359   1.964 -0.3070  0.3295  0.6630
  191SOL     OW  761   1.622   0.975   1.507  0.1057 -0.4607  0.3115
  191SOL    HW1  762   1.542   1.017   1.470  1.9748 -1.6977  3.5297
  191SOL    HW2  763   1.608   0.880   1.495  1.3964  1.1620 -0.2468
  191SOL     MW  764   1.610   0.968   1.500  0.5226 -0.4098  0.6624
  192SOL     OW  765   0.681   2.038   2.875  0.0347 -0.1693  0.4558
  192SOL    HW1  766   0.648   2.065   2.786 -0.8320 -1.3118 -0.8499
  192SOL    HW2  767   0.674   1.941   2.870 -0.3714 -1.6368 -0.8512
  192SOL     MW  768   0.676   2.029   2.863 -0.1332 -0.5137  0.1111
  193SOL     OW  769   0.988   1.537   0.734 -0.3920 -0.0036 -0.6386
  193SOL    HW1  770   0.951   1.559   0.814 -0.8018 -1.2757 -1.8867
  193SOL    HW2  771   0.942   1.461   0.694  1.9364  1.3896 -0.7665
  193SOL     MW  772   0.977   1.530   0.739 -0.1389  0.0124 -0.8201
  194SOL     OW  773   0.503   1.355   0.962  0.1323  0.2559  0.3178
  194SOL    HW1  774   0.522   1.263   0.963  1.4931 -0.9478 -0.6022
  194SOL    HW2  775   0.413   1.371   0.933 -1.1600 -1.1251  2.0930
  194SOL     MW  776   0.493   1.345   0.958  0.1413 -0.0851  0.4307
  195SOL     OW  777   1.311   1.142   2.918  0.3399 -0.1113  0.6421
  195SOL    HW1  778   1.358   1.164   3.001  3.0069  0.1366 -1.3793
  195SOL    HW2  779   1.228   1.103   2.954  0.7544 -2.0572  2.0297
  195SOL     MW  780   1.306   1.140   2.934  0.7464 -0.3353  0.5585
  196SOL     OW  781   2.210   1.064   0.599  0.2123 -0.8702  0.2149
  196SOL    HW1  782   2.152   1.058   0.518  0.8783 -2.5672  0.4745
  196SOL    HW2  783   2.211   1.158   0.625  1.3477 -0.2021 -2.5575
  196SOL     MW  784   2.203   1.075   0.592  0.4500 -1.0059 -0.1166
  197SOL     OW  785   0.538   1.187   1.958  0.2470  0.6072  0.2518
  197SOL    HW1  786   0.535   1.095   1.952 -0.1025  3.9509  3.4268
  197SOL    HW2  787   0.530   1.214   1.870 -0.7949 -0.1860 -0.6442
  197SOL     MW  788   0.536   1.179   1.945  0.0634  0.9437  0.5525
  198SOL     OW  789   2.912   1.399   1.082  0.3160 -0.7161 -0.3577
  198SOL    HW1  790   2.908   1.485   1.033  3.7266  1.2144 -0.0478
  198SOL    HW2  791   2.838   1.348   1.054 -1.0045 -2.6743 -0.7433
  198SOL     MW  792   2.902   1.404   1.072  0.5918 -0.7197 -0.3677
  199SOL     OW  793   0.423   1.286   1.738  0.1278  0.1298 -0.0482
  199SOL    HW1  794   0.325   1.293   1.761 -1.3011 -1.0669  1.3939
  199SOL    HW2  795   0.447   1.345   1.656  0.7328 -2.1303 -1.0322
  199SOL     MW  796   0.413   1.295   1.730  0.0191 -0.3263  0.0123
  200SOL     OW  797   1.943   3.008   1.273 -0.0301  0.4699  0.6793
  200SOL    HW1  798   1.945   3.025   1.179  3.0702  1.4243  0.0094
  200SOL    HW2  799   1.871   3.055   1.314 -0.5253 -0.5469  2.0041
  200SOL     MW  800   1.934   3.017   1.266  0.3136  0.4617  0.7657
  201SOL     OW  801   1.055   0.302   0.759  0.2485  0.2261  0.0466
  201SOL    HW1  802   1.070   0.212   0.736  3.2407 -2.4141  0.9337
  201SOL    HW2  803   1.064   0.356   0.677  1.6962  0.2809 -0.0768
  201SOL     MW  804   1.058   0.297   0.745  0.8343 -0.1150  0.1474
  202SOL     OW  805   1.573   1.587   1.017  0.9047 -0.4583 -0.0673
  202SOL    HW1  806   1.612   1.510   0.972  0.4353  0.9915 -0.4778
  202SOL    HW2  807   1.581   1.580   1.112 -2.1390 -1.6630 -0.6503
  202SOL     MW  808   1.579   1.576   1.023  0.4412 -0.4260 -0.1984
  203SOL     OW  809   2.995   0.475   1.212  0.0145  0.4177  0.0142
  203SOL    HW1  810   3.061   0.423   1.153 -1.4063 -2.8129  0.9598
  203SOL    HW2  811   3.055   0.517   1.276  6.4556  0.7454  0.6517
  203SOL     MW  812   3.011   0.473   1.213  0.6769  0.0347  0.2230
  204SOL     OW  813   1.051   1.775   0.576  0.1712 -0.2849  0.4283
  204SOL    HW1  814   1.008   1.706   0.633 -0.4969  0.4164  0.7625
  204SOL    HW2  815   0.976   1.818   0.530  1.1453 -0.6475  0.7402
  204SOL     MW  816   1.035   1.771   0.578  0.2116 -0.2402  0.5136
  205SOL     OW  817   1.440   0.062   1.220 -0.7328 -0.4859 -0.0070
  205SOL    HW1  818   1.422   0.047   1.129 -1.0461 -1.9894  1.1782
  205SOL    HW2  819   1.428   0.158   1.226 -1.2384  0.5986  2.8209
  205SOL     MW  820   1.436   0.073   1.209 -0.8409 -0.5412  0.5225
  206SOL     OW  821   0.490   3.097   1.365  0.2667  0.7454 -0.3416
  206SOL    HW1  822   0.451   3.054   1.290  0.3419 -0.9501  1.6780
  206SOL    HW2  823   0.565   3.036   1.395  0.5185 -0.1045 -0.5680
  206SOL     MW  824   0.495   3.083   1.359  0.3098  0.4096 -0.1050
  207SOL     OW  825   0.999   1.602   0.235 -0.4603  0.4496 -0.3011
  207SOL    HW1  826   1.021   1.692   0.212  0.6700 -3.6013  1.5358
  207SOL    HW2  827   1.080   1.550   0.250  2.2447  0.3287 -0.2692
  207SOL     MW  828   1.013   1.607   0.234  0.0457 -0.1008 -0.0545
  208SOL     OW  829   0.607   1.574   1.296  0.0340 -0.3698 -0.7135
  208SOL    HW1  830   0.687   1.587   1.347  2.4081  0.7475 -0.8458
  208SOL    HW2  831   0.598   1.485   1.278  1.8381  1.0805  2.3748
  208SOL     MW  832   0.616   1.564   1.300  0.5853 -0.0311 -0.3235
  209SOL     OW  833   1.510   0.551   2.798  0.0368 -0.3652  0.0282
  209SOL    HW1  834   1.562   0.624   2.831 -0.3888 -1.5331  0.1214
  209SOL    HW2  835   1.572   0.481   2.785 -0.2218  2.1181  0.1515
  209SOL     MW  836   1.525   0.551   2.800 -0.0535 -0.1916  0.0567
  210SOL     OW  837   1.631   1.331   0.891  0.2978 -0.5074  0.8538
  210SOL    HW1  838   1.702   1.321   0.829 -1.6988  1.4221  0.0575
  210SOL    HW2  839   1.557   1.303   0.838 -1.2769 -0.0063  1.2281
  210SOL     MW  840   1.630   1.326   0.875 -0.1734 -0.1867  0.7981
  211SOL     OW  841   1.718   0.493   0.946 -0.5126  0.0975 -0.5847
  211SOL    HW1  842   1.686   0.513   0.854  1.7224 -0.8595  2.0947
  211SOL    HW2  843   1.815   0.498   0.936 -0.1554 -0.1040  0.7577
  211SOL     MW  844   1.726   0.496   0.933 -0.1706 -0.0553 -0.0541
  212SOL     OW  845   0.319   1.123   0.038 -0.3968 -0.8047 -0.7358
  212SOL    HW1  846   0.259   1.068   0.097  1.6745  0.6555  1.2278
  212SOL    HW2  847   0.390   1.064   0.002  1.5523  1.3763  1.9692
  212SOL     MW  848   0.321   1.108   0.041  0.1337 -0.3242 -0.1198
  213SOL     OW  849   0.512   1.704   3.075 -0.1171 -0.2074  0.2337
  213SOL    HW1  850   0.546   1.750   3.161 -1.6401  1.5176 -0.4486
  213SOL    HW2  851   0.579   1.726   3.005  0.9520  0.5308 -0.4806
  213SOL     MW  852   0.525   1.713   3.077 -0.1770  0.1176  0.0494
  214SOL     OW  853   0.610   0.231   2.278 -0.2612 -0.1355  0.0339
  214SOL    HW1  854   0.556   0.294   2.222 -0.1785  1.0396 -1.1682
  214SOL    HW2  855   0.701   0.257   2.251  1.7289  0.7804 -1.4681
  214SOL     MW  856   0.615   0.243   2.267  0.0123  0.1404 -0.3229
  215SOL     OW  857   0.502   0.684   2.613  0.3599 -0.6301 -0.5679
  215SOL    HW1  858   0.507   0.667   2.520  0.4148 -0.9708  0.5123
  215SOL    HW2  859   0.406   0.664   2.628  1.5723  0.3194  0.0315
  215SOL     MW  860   0.490   0.679   2.603  0.5271 -0.5498 -0.3463
  216SOL     OW  861   3.072   0.001   2.831  0.3882  0.2309 -0.2681
  216SOL    HW1  862   2.997   0.004   2.891 -0.2809  1.2210 -4.8086
  216SOL    HW2  863   3.085   0.093   2.821 -1.7738 -3.4889  0.4850
  216SOL     MW  864   3.064   0.014   2.838  0.0147 -0.1293 -0.7678
  217SOL     OW  865   0.976   1.157   0.071 -0.3647 -0.2418 -0.2272
  217SOL    HW1  866   1.013   1.111  -0.005  0.8633 -1.0420 -1.7098
  217SOL    HW2  867   1.018   1.246   0.076  2.7952  2.7755  2.1069
  217SOL     MW  868   0.986   1.163   0.061  0.2142  0.0507 -0.1148
  218SOL     OW  869   0.925   1.319   2.478 -0.1689  0.0636 -0.4711
  218SOL    HW1  870   0.937   1.239   2.534  0.8366  0.3293  0.2490
  218SOL    HW2  871   1.010   1.369   2.499  2.0776  1.6052  0.9616
  218SOL     MW  872   0.938   1.315   2.488  0.2602  0.3021 -0.1870
  219SOL     OW  873   1.032   0.380   2.569  0.0930  0.4407  0.1886
  219SOL    HW1  874   1.088   0.457   2.591 -2.8443  3.1349 -2.5093
  219SOL    HW2  875   0.952   0.391   2.614  2.6363  1.2199  0.0775
  219SOL     MW  876   1.029   0.392   2.578  0.0411  0.8990 -0.1820
  220SOL     OW  877   1.749   0.555   2.174 -0.2444 -0.0790  0.0981
  220SOL    HW1  878   1.669   0.597   2.189  0.3863 -2.2828 -3.5668
  220SOL    HW2  879   1.757   0.528   2.082 -0.4837  1.8767 -2.2407
  220SOL     MW  880   1.739   0.557   2.164 -0.1928 -0.1118 -0.6941
  221SOL     OW  881   0.387   1.432   2.928 -0.0883  0.9887  0.5185
  221SOL    HW1  882   0.383   1.339   2.915  2.8080 -0.8298 -0.0025
  221SOL    HW2  883   0.414   1.466   2.841  0.0311 -2.3442 -2.4744
  221SOL     MW  884   0.390   1.424   2.915  0.3096  0.3090  0.0549
  222SOL     OW  885   0.411   0.934   2.672  0.0862  0.3360 -0.2491
  222SOL    HW1  886   0.338   0.951   2.605  0.1264  1.6393  1.1382
  222SOL    HW2  887   0.451   0.848   2.652  1.4521  3.4764  1.2384
  222SOL     MW  888   0.406   0.924   2.660  0.2717  0.9223  0.1302
  223SOL     OW  889   3.044   2.012   2.673  0.4295  0.1946 -0.2641
  223SOL    HW1  890   3.127   1.972   2.663  1.9585 -0.0928  0.9759
  223SOL    HW2  891   3.049   2.087   2.613  0.8995 -1.2732 -0.0828
  223SOL     MW  892   3.056   2.016   2.664  0.6932 -0.0370 -0.0766
  224SOL     OW  893   1.544   0.788   2.585  0.1276 -0.3046  0.4196
  224SOL    HW1  894   1.517   0.790   2.681 -2.3662  0.4043  2.0106
  224SOL    HW2  895   1.543   0.877   2.558 -0.5413 -1.3365  0.5319
  224SOL     MW  896   1.540   0.800   2.594 -0.2897 -0.3472  0.6443
  225SOL     OW  897   2.981   1.490   2.278  0.0634 -1.0952  0.3309
  225SOL    HW1  898   3.014   1.531   2.197  0.4431 -0.8142 -0.6167
  225SOL    HW2  899   2.918   1.542   2.323  3.2483 -0.1052  0.9629
  225SOL     MW  900   2.977   1.502   2.273  0.5337 -0.9275  0.2893
  226SOL     OW  901   0.431   1.527   2.674  0.3703 -0.3844  0.1312
  226SOL    HW1  902   0.510   1.518   2.630  0.3530  0.2320 -1.0056
  226SOL    HW2  903   0.411   1.618   2.659 -2.3899  0.0174 -2.6213
  226SOL     MW  904   0.439   1.538   2.666  0.0039 -0.2501 -0.3819
  227SOL     OW  905   0.446   1.164   2.818 -0.7123 -0.3632  0.0776
  227SOL    HW1  906   0.487   1.235   2.769 -2.2648  0.2415  0.7231
  227SOL    HW2  907   0.448   1.095   2.750  1.4173  0.2224  5.4753
  227SOL     MW  908   0.452   1.164   2.802 -0.6361 -0.2062  0.8749
  228SOL     OW  909   0.673   0.924   1.985 -0.0026 -0.3182 -0.0766
  228SOL    HW1  910   0.762   0.965   1.999  1.9812  0.5305 -1.5395
  228SOL    HW2  911   0.635   0.895   2.074 -0.5852  2.3371  2.4525
  228SOL     MW  912   0.680   0.926   1.999  0.1823  0.1441  0.0640
  229SOL     OW  913   0.273   0.479   3.061  0.3011  0.0656 -0.3743
  229SOL    HW1  914   0.181   0.437   3.038 -2.8998 -1.8757 -0.1196
  229SOL    HW2  915   0.273   0.460   3.159 -0.3026  0.6601  0.8172
  229SOL     MW  916   0.261   0.471   3.071 -0.2009 -0.1121 -0.1835
  230SOL     OW  917   1.706   1.381   2.105  0.5649 -0.0990  0.2534
  230SOL    HW1  918   1.674   1.388   2.192  2.5150 -1.4699  2.5002
  230SOL    HW2  919   1.751   1.295   2.096  0.7400  1.9890 -0.9298
  230SOL     MW  920   1.707   1.371   2.115  0.8453 -0.0044  0.3938
  231SOL     OW  921   2.824   1.265   2.204  0.0289 -1.0839  0.9423
  231SOL    HW1  922   2.886   1.335   2.217 -3.7886 -4.0233 -2.5798
  231SOL    HW2  923   2.768   1.318   2.146  1.5424 -1.2903 -2.0007
  231SOL     MW  924   2.825   1.281   2.198 -0.2751 -1.4990  0.0893
  232SOL     OW  925   2.298   1.026   2.104  0.2935 -0.2181 -0.1712
  232SOL    HW1  926   2.239   1.047   2.041 -0.1291 -0.2499  0.0615
  232SOL    HW2  927   2.248   0.958   2.154  0.8829  2.0040  0.3015
  232SOL     MW  928   2.283   1.019   2.103  0.3155  0.0709 -0.0781
  233SOL     OW  929   2.022   0.592   1.888 -0.0266 -0.4461  0.0033
  233SOL    HW1  930   2.079   0.578   1.812  1.5366  2.8265  2.4067
  233SOL    HW2  931   2.085   0.598   1.962  0.3926 -1.2153  1.0932
  233SOL     MW  932   2.038   0.591   1.888  0.2349 -0.1158  0.4642
  234SOL     OW  933   0.216   0.978   2.480  0.0993  0.4325 -0.5165
  234SOL    HW1  934   0.116   0.975   2.478 -1.0816 -0.2870  1.4778
  234SOL    HW2  935   0.256   1.074   2.467  1.7326  0.3256  0.3531
  234SOL     MW  936   0.208   0.991   2.478  0.1590  0.3235 -0.1386
  235SOL     OW  937   0.992   3.044   2.796  0.4985 -0.1266  0.2612
  235SOL    HW1  938   1.014   2.983   2.866  0.4625 -0.6105 -0.5619
  235SOL    HW2  939   0.983   3.135   2.835 -2.2070 -0.8560  1.5635
  235SOL     MW  940   0.994   3.048   2.810  0.1368 -0.2867  0.3244
  236SOL     OW  941   2.936   0.550   0.106 -0.5696 -0.4006  0.0851
  236SOL    HW1  942   2.850   0.565   0.058  1.4293  1.3988 -3.4211
  236SOL    HW2  943   2.975   0.630   0.107  0.3808 -1.9623 -2.1139
  236SOL     MW  944   2.930   0.563   0.100 -0.1805 -0.3693 -0.6676
  237SOL     OW  945   1.758   0.892   2.176  0.2077 -0.5468 -0.4776
  237SOL    HW1  946   1.778   0.982   2.143 -0.7932 -1.1998  2.6846
  237SOL    HW2  947   1.793   0.886   2.265 -0.2509  1.8847  1.3191
  237SOL     MW  948   1.765   0.903   2.183  0.0151 -0.3122  0.1767
  238SOL     OW  949   1.045   1.766   2.962  0.6882  0.1954 -0.0243
  238SOL    HW1  950   1.001   1.679   2.961 -1.4653  0.2841  0.8900
  238SOL    HW2  951   1.137   1.751   2.954  1.7517 -0.7662 -0.6621
  238SOL     MW  952   1.052   1.753   2.961  0.5444  0.0803  0.0122
  239SOL     OW  953   1.263   1.425   2.339 -0.3473 -0.4581 -0.4042
  239SOL    HW1  954   1.236   1.454   2.426 -0.5456  1.0658  2.2744
  239SOL    HW2  955   1.354   1.448   2.339 -1.6201 -0.5938 -4.7061
  239SOL     MW  956   1.271   1.432   2.351 -0.5414 -0.2749 -0.6184
  240SOL     OW  957   0.604   0.825   2.234  0.4108 -0.6111  0.3358
  240SOL    HW1  958   0.579   0.901   2.287  0.4206 -1.5303  1.5524
  240SOL    HW2  959   0.704   0.818   2.236  1.5918  1.6144 -2.6443
  240SOL     MW  960   0.614   0.834   2.241  0.5679 -0.4388  0.1031
  241SOL     OW  961   0.665   0.338   3.021  0.6797  0.3334 -0.0008
  241SOL    HW1  962   0.674   0.404   3.091  0.6707 -1.5321 -0.3366
  241SOL    HW2  963   0.609   0.373   2.950 -1.9112 -0.6991 -0.7931
  241SOL     MW  964   0.659   0.351   3.021  0.3367 -0.0489 -0.1496
  242SOL     OW  965   1.423   1.686   2.307 -0.0225 -0.0402  0.8548
  242SOL    HW1  966   1.413   1.775   2.331  2.1649 -2.2744  0.4127
  242SOL    HW2  967   1.355   1.676   2.239 -0.4277 -0.0527 -0.6264
  242SOL     MW  968   1.413   1.696   2.301  0.2127 -0.3367  0.6010
  243SOL     OW  969   1.066   0.207   2.364  0.2416 -0.3517 -0.7146
  243SOL    HW1  970   1.154   0.176   2.347  1.5727  1.1006 -1.0658
  243SOL    HW2  971   1.074   0.278   2.428 -3.1910  1.9284 -2.0483
  243SOL     MW  972   1.079   0.212   2.370 -0.0357  0.1407 -0.9369
  244SOL     OW  973   0.232   0.760   2.324 -0.0498  0.0343 -0.1737
  244SOL    HW1  974   0.248   0.848   2.358  0.7519  0.9120  2.6178
  244SOL    HW2  975   0.315   0.711   2.320 -3.4564  0.3373 -0.1973
  244SOL     MW  976   0.245   0.765   2.328 -0.3935  0.1901  0.1915
  245SOL     OW  977   1.332   0.146   2.313 -0.1790  0.3120 -0.3718
  245SOL    HW1  978   1.315   0.061   2.274  1.2653 -1.1866  0.4435
  245SOL    HW2  979   1.426   0.145   2.337 -0.1656  1.0195  2.4628
  245SOL     MW  980   1.342   0.134   2.311  0.0133  0.2076  0.1098
  246SOL     OW  981   1.170   1.137   2.169 -0.0211 -0.2573 -0.1894
  246SOL    HW1  982   1.104   1.112   2.232  2.8588  0.1288 -2.8352
  246SOL    HW2  983   1.256   1.156   2.217 -0.3468 -0.4215  0.1759
  246SOL     MW  984   1.173   1.137   2.184  0.3159 -0.2280 -0.4903
  247SOL     OW  985   0.640   0.569   0.118  0.3635 -0.5771 -0.1982
  247SOL    HW1  986   0.612   0.655   0.091  0.3981  1.5543  2.1476
  247SOL    HW2  987   0.731   0.580   0.149  1.0750 -2.4683 -0.4591
  247SOL     MW  988   0.648   0.582   0.118  0.4619 -0.5454  0.0769
  248SOL     OW  989   0.340   1.202   2.422  0.1899 -0.3118 -0.1514
  248SOL    HW1  990   0.330   1.270   2.358  0.0693  1.0536  0.8323
  248SOL    HW2  991   0.343   1.238   2.508  1.6968  0.7242 -0.7826
  248SOL     MW  992   0.339   1.215   2.425  0.3728  0.0050 -0.1049
  249SOL     OW  993   0.147   1.828   2.717  0.3696 -0.3909  0.3705
  249SOL    HW1  994   0.100   1.747   2.695 -0.1403 -1.1271 -1.3809
  249SOL    HW2  995   0.170   1.799   2.806  1.3374  0.2110  0.6366
  249SOL     MW  996   0.144   1.813   2.726  0.4300 -0.4086  0.1745
  250SOL     OW  997   2.166   0.890   2.310 -0.6260  0.5555  0.0241
  250SOL    HW1  998   2.203   0.807   2.334 -2.0612  0.3582  2.9929
  250SOL    HW2  999   2.218   0.946   2.371 -1.2619  2.0233  1.4282
  250SOL     MW 1000   2.178   0.886   2.321 -0.8993  0.7232  0.6011
  251SOL     OW 1001   0.089   0.822   2.064  0.4812 -0.0846 -0.5061
  251SOL    HW1 1002   0.148   0.818   2.138 -3.3898 -0.1383  0.0491
  251SOL    HW2 1003   0.053   0.737   2.055  4.0229 -0.7162 -1.9597
  251SOL     MW 1004   0.092   0.810   2.073  0.4377 -0.1750 -0.6246
  252SOL     OW 1005   1.696   1.001   2.785  0.0210  0.2209 -0.2154
  252SOL    HW1 1006   1.670   1.046   2.866 -0.8550  1.5599 -0.5483
  252SOL    HW2 1007   1.780   1.032   2.756  1.8080 -1.5220  4.8121
  252SOL     MW 1008   1.704   1.011   2.792  0.1412  0.1676  0.4040
  253SOL     OW 1009   1.142   1.755   2.572  0.3153  0.2271  0.4501
  253SOL    HW1 1010   1.153   1.778   2.480  0.8913 -1.2667 -0.2731
  253SOL    HW2 1011   1.048   1.792   2.590 -2.1304  0.5725 -1.9651
  253SOL     MW 1012   1.131   1.763   2.562  0.0686  0.0756  0.0360
  254SOL     OW 1013   0.954   1.066   2.323  0.1172  0.1525 -0.7829
  254SOL    HW1 1014   0.929   0.972   2.328 -0.8534  0.1953 -1.5592
  254SOL    HW2 1015   0.887   1.126   2.287  2.2364  0.1191  3.2347
  254SOL     MW 1016   0.942   1.061   2.319  0.2687  0.1537 -0.3552
  255SOL     OW 1017   0.725   2.326   2.287  0.3001  0.9304 -0.6372
  255SOL    HW1 1018   0.638   2.309   2.303  1.3520  0.6501 -0.4709
  255SOL    HW2 1019   0.759   2.343   2.376  0.8337  0.4515 -0.2217
  255SOL     MW 1020   0.718   2.326   2.301  0.5093  0.8302 -0.5604
  256SOL     OW 1021   1.200   2.865   2.969  0.0676 -0.0761 -0.4682
  256SOL    HW1 1022   1.227   2.772   2.963 -1.2856 -0.3831 -2.1576
  256SOL    HW2 1023   1.257   2.920   2.912 -1.3850  1.6847  1.9138
  256SOL     MW 1024   1.211   2.860   2.961 -0.3026  0.1157 -0.3768
  257SOL     OW 1025   0.128   1.855   0.012 -0.2794  0.2440 -0.2524
  257SOL    HW1 1026   0.138   1.817   0.100  1.1324 -0.0646  1.8345
  257SOL    HW2 1027   0.165   1.798  -0.053 -0.6504  0.8343 -1.3152
  257SOL     MW 1028   0.134   1.842   0.015 -0.1421  0.2812 -0.1172
  258SOL     OW 1029   0.567   1.039   2.402  0.6558  0.1445  0.3572
  258SOL    HW1 1030   0.617   1.101   2.350  0.6266  1.7681 -0.2101
  258SOL    HW2 1031   0.477   1.081   2.404  1.6333 -1.4895  1.5741
  258SOL     MW 1032   0.562   1.053   2.395  0.7809  0.1431  0.4429
  259SOL     OW 1033   0.605   0.362   2.528 -0.2137  0.1721 -0.7993
  259SOL    HW1 1034   0.554   0.428   2.489  2.9342 -2.6840  1.1819
  259SOL    HW2 1035   0.614   0.297   2.453 -0.8674 -1.6698 -1.9073
  259SOL     MW 1036   0.600   0.362   2.513  0.1154 -0.4477 -0.6841
  260SOL     OW 1037   0.589   0.153   1.587  0.0675 -0.1531 -0.4246
  260SOL    HW1 1038   0.540   0.168   1.510 -0.6970 -0.5138  0.4970
  260SOL    HW2 1039   0.676   0.154   1.549 -0.4405  1.7652  3.0642
  260SOL     MW 1040   0.594   0.155   1.572 -0.1004  0.0524  0.1573
  261SOL     OW 1041   1.049   0.680   2.078  0.3808  0.3928 -0.0617
  261SOL    HW1 1042   1.105   0.660   2.155  3.6360 -0.5455 -0.4863
  261SOL    HW2 1043   1.099   0.652   2.003  0.2117  2.6009  0.7522
  261SOL     MW 1044   1.063   0.674   2.078  0.7880  0.5603 -0.0103
  262SOL     OW 1045   1.142   0.399   0.136 -0.0392 -0.2569 -0.2698
  262SOL    HW1 1046   1.175   0.313   0.162 -1.2347  0.4604  0.1457
  262SOL    HW2 1047   1.191   0.414   0.056 -1.2325 -0.2264  1.4917
  262SOL     MW 1048   1.153   0.389   0.129 -0.3543 -0.1582  0.0175
  263SOL     OW 1049   0.423   2.997   2.478  0.6999 -0.3007  0.4327
  263SOL    HW1 1050   0.370   3.077   2.479 -2.6965 -1.5197  4.9232
  263SOL    HW2 1051   0.493   3.011   2.420 -2.0879  0.4996  0.9407
  263SOL     MW 1052   0.425   3.009   2.470 -0.1160 -0.3559  1.0922
  264SOL     OW 1053   1.478   1.328   1.976  0.3725 -0.0203 -0.2142
  264SOL    HW1 1054   1.433   1.280   2.047 -0.1092 -2.6534 -0.5475
  264SOL    HW2 1055   1.564   1.363   2.007  0.2145  0.6324 -1.4352
  264SOL     MW 1056   1.483   1.326   1.990  0.2881 -0.2816 -0.4192
  265SOL     OW 1057   0.748   2.744   2.206 -0.1082 -0.4826  0.0116
  265SOL    HW1 1058   0.788   2.664   2.183 -1.1794  2.0203  0.6341
  265SOL    HW2 1059   0.706   2.725   2.291 -2.2556 -1.9544  0.5633
  265SOL     MW 1060   0.748   2.731   2.214 -0.5329 -0.3465  0.1665
  266SOL     OW 1061   0.881   0.802   2.281 -0.0902  0.1458 -0.1208
  266SOL    HW1 1062   0.933   0.765   2.216  0.9398  0.3078 -0.7902
  266SOL    HW2 1063   0.876   0.743   2.356 -0.3509  2.3504  2.1679
  266SOL     MW 1064   0.887   0.789   2.282  0.0113  0.4580  0.0928
  267SOL     OW 1065   1.386   1.816   2.678 -0.1497 -0.0350 -0.5294
  267SOL    HW1 1066   1.446   1.739   2.650  1.9672  0.8334 -0.0487
  267SOL    HW2 1067   1.306   1.799   2.639  1.9943  1.9059  0.7466
  267SOL     MW 1068   1.383   1.804   2.669  0.4125  0.3357 -0.2976
  268SOL     OW 1069   0.199   0.764   1.660  0.4120 -0.3136 -0.0404
  268SOL    HW1 1070   0.141   0.835   1.614 -2.5891 -0.3090 -2.4102
  268SOL    HW2 1071   0.186   0.685   1.608  2.3983  2.7939  0.6833
  268SOL     MW 1072   0.190   0.763   1.647  0.2781  0.0970 -0.2576
  269SOL     OW 1073   1.393   1.949   2.444  0.6706  0.1379 -0.1854
  269SOL    HW1 1074   1.386   1.909   2.531  0.8721 -0.6487 -2.2755
  269SOL    HW2 1075   1.314   2.001   2.449  0.2204 -1.9465  1.9388
  269SOL     MW 1076   1.381   1.950   2.456  0.6378 -0.2409 -0.1809
  270SOL     OW 1077   1.194   0.480   1.640 -0.2976 -0.2674 -0.2880
  270SOL    HW1 1078   1.176   0.392   1.671 -1.0157 -1.5972 -0.8220
  270SOL    HW2 1079   1.285   0.479   1.593 -0.0700 -0.2575 -1.2034
  270SOL     MW 1080   1.203   0.469   1.638 -0.3623 -0.4415 -0.4792
  271SOL     OW 1081   0.902   0.011   2.465 -0.5045 -0.0527 -0.1116
  271SOL    HW1 1082   0.971  -0.046   2.504 -0.1498  0.7970  1.2809
  271SOL    HW2 1083   0.957   0.079   2.420  1.5074 -3.3846 -0.3876
  271SOL     MW 1084   0.919   0.012   2.464 -0.1923 -0.3802  0.0357
  272SOL     OW 1085   1.363   3.003   2.775  0.0723 -0.2964 -0.1616
  272SOL    HW1 1086   1.294   3.021   2.709  3.0349  1.9007  1.7516
  272SOL    HW2 1087   1.357   3.079   2.849 -0.4747  2.2602  0.9555
  272SOL     MW 1088   1.353   3.015   2.776  0.3910  0.3308  0.2382
  273SOL     OW 1089   1.432   0.932   2.796 -0.4276  0.2041  0.4234
  273SOL    HW1 1090   1.514   0.977   2.773  1.8582 -2.5553  1.5775
  273SOL    HW2 1091   1.376   1.005   2.829  0.0777 -1.8143  1.2352
  273SOL     MW 1092   1.435   0.947   2.798 -0.0594 -0.4263  0.6828
  274SOL     OW 1093   1.356   0.717   0.125 -0.5101 -0.3033  0.1893
  274SOL    HW1 1094   1.399   0.644   0.167 -0.6408 -0.7203  2.2293
  274SOL    HW2 1095   1.266   0.726   0.158  2.2100  1.0839 -2.4013
  274SOL     MW 1096   1.350   0.708   0.135 -0.1684 -0.1753  0.1166
  275SOL     OW 1097   1.677   0.650   1.755  0.0489  0.6618 -0.4144
  275SOL    HW1 1098   1.712   0.701   1.836 -2.0626 -0.6958  1.2839
  275SOL    HW2 1099   1.657   0.556   1.786  0.1725 -1.5927 -0.4661
  275SOL     MW 1100   1.679   0.644   1.770 -0.2134  0.1852 -0.1972
  276SOL     OW 1101   0.187   1.178   1.822  0.4240  0.2474 -0.1330
  276SOL    HW1 1102   0.241   1.098   1.849  0.8956 -1.5942 -1.2051
  276SOL    HW2 1103   0.112   1.163   1.874  3.3031 -1.5960  0.1936
  276SOL     MW 1104   0.184   1.166   1.832  0.8661 -0.2388 -0.2314
  277SOL     OW 1105   1.902   1.377   2.733 -0.0895  0.1683  0.0925
  277SOL    HW1 1106   1.967   1.431   2.689  2.8820  1.2998  0.0012
  277SOL    HW2 1107   1.943   1.292   2.724  3.3598 -2.0899  0.6652
  277SOL     MW 1108   1.916   1.373   2.726  0.7576  0.0196  0.1560
  278SOL     OW 1109   1.430   0.736   1.757  0.1893  0.2974 -0.2134
  278SOL    HW1 1110   1.377   0.668   1.809  2.6868 -3.2538  0.9897
  278SOL    HW2 1111   1.520   0.698   1.753  0.0670 -0.0137  2.3453
  278SOL     MW 1112   1.435   0.722   1.763  0.5027 -0.2122  0.2830
  279SOL     OW 1113   0.575   3.048   2.263  0.0181  0.9547 -0.0916
  279SOL    HW1 1114   0.661   3.059   2.219  1.6917  0.2032  1.8335
  279SOL    HW2 1115   0.552   3.138   2.289 -0.7227 -0.3248 -1.4608
  279SOL     MW 1116   0.583   3.062   2.261  0.1412  0.6867 -0.0182
  280SOL     OW 1117   1.423   1.163   2.244  0.0087 -0.3325 -0.2585
  280SOL    HW1 1118   1.453   1.080   2.202 -0.4896  2.2395  1.6716
  280SOL    HW2 1119   1.430   1.139   2.338  0.0869  0.9785 -0.8702
  280SOL     MW 1120   1.428   1.149   2.251 -0.0467  0.1798 -0.0845
  281SOL     OW 1121   1.328   1.380   2.779  0.0661  0.7658  0.6975
  281SOL    HW1 1122   1.414   1.424   2.792  1.7413  1.1857 -0.5944
  281SOL    HW2 1123   1.327   1.285   2.808 -1.9954 -0.0117  1.0627
  281SOL     MW 1124   1.339   1.373   2.785  0.0151  0.7186  0.5752
  282SOL     OW 1125   1.141   1.318   1.740 -0.6499 -0.6951  0.1686
  282SOL    HW1 1126   1.113   1.349   1.651  1.6633 -0.8175  0.8585
  282SOL    HW2 1127   1.073   1.259   1.777  0.4000  1.0080  2.3637
  282SOL     MW 1128   1.128   1.314   1.733 -0.2062 -0.4865  0.5492
  283SOL     OW 1129   0.702   1.192   0.070 -0.3827 -0.1640 -1.0751
  283SOL    HW1 1130   0.800   1.180   0.082  0.5841 -0.4766  0.3582
  283SOL    HW2 1131   0.677   1.280   0.050  1.2183  0.8392 -0.8823
  283SOL     MW 1132   0.712   1.202   0.069 -0.0439 -0.0729 -0.8605
  284SOL     OW 1133   0.457   0.605   2.360  0.3082  0.1382 -0.3755
  284SOL    HW1 1134   0.518   0.671   2.315  1.5517 -2.2254 -1.2149
  284SOL    HW2 1135   0.454   0.539   2.288 -0.2099 -2.3507  2.1002
  284SOL     MW 1136   0.464   0.605   2.345  0.4039 -0.5021 -0.1596
  285SOL     OW 1137   0.864   0.904   2.776  0.4856 -0.6032 -0.3151
  285SOL    HW1 1138   0.833   0.951   2.697  1.2076  3.9564  0.6645
  285SOL    HW2 1139   0.794   0.835   2.792  2.0444  2.1647  1.2206
  285SOL     MW 1140   0.851   0.901   2.768  0.7866  0.3636  0.0168
  286SOL     OW 1141   1.146   1.461   2.588  0.2241 -0.1394  0.2018
  286SOL    HW1 1142   1.209   1.422   2.653  2.0294  1.4769  3.6464
  286SOL    HW2 1143   1.134   1.558   2.600  0.5756 -1.3582 -0.0752
  286SOL     MW 1144   1.152   1.469   2.598  0.5086 -0.0869  0.6198
  287SOL     OW 1145   1.106   0.945   0.393  0.1944 -0.2043  0.6353
  287SOL    HW1 1146   1.165   0.968   0.467 -1.6304  0.8255 -0.3870
  287SOL    HW2 1147   1.055   1.027   0.372 -1.2370 -0.0884  0.0058
  287SOL     MW 1148   1.107   0.959   0.400 -0.2352 -0.0531  0.4173
  288SOL     OW 1149   1.478   0.684   2.159  0.5118  0.9746  0.2175
  288SOL    HW1 1150   1.453   0.656   2.253 -0.8055  1.4574  2.7036
  288SOL    HW2 1151   1.460   0.778   2.147 -1.1906  0.1661  1.7338
  288SOL     MW 1152   1.473   0.693   2.170  0.1134  0.9316  0.7456
  289SOL     OW 1153   0.792   1.009   2.535  0.1369  0.9370  0.8819
  289SOL    HW1 1154   0.841   1.036   2.459  2.6187  0.6787 -0.1792
  289SOL    HW2 1155   0.707   1.032   2.492 -2.8889  2.1689 -1.6228
  289SOL     MW 1156   0.787   1.016   2.519  0.0651  1.0655  0.4114
  290SOL     OW 1157   0.841   0.708   1.555  0.0269 -0.2391 -0.2832
  290SOL    HW1 1158   0.874   0.641   1.491 -1.4174 -0.5978 -2.0792
  290SOL    HW2 1159   0.885   0.695   1.641  0.5461  1.2962  1.2495
  290SOL     MW 1160   0.851   0.697   1.558 -0.0952 -0.0839 -0.3179
  291SOL     OW 1161   0.255   0.376   0.206 -0.1878  0.0165 -0.4090
  291SOL    HW1 1162   0.345   0.344   0.208 -2.1884  1.1548  0.2272
  291SOL    HW2 1163   0.211   0.302   0.163  1.0235 -0.1704 -0.1667
  291SOL     MW 1164   0.261   0.362   0.201 -0.2920  0.1420 -0.2931
  292SOL     OW 1165   0.928   0.557   0.100  0.3794  0.6613  0.1171
  292SOL    HW1 1166   0.983   0.624   0.138  0.7971 -1.3202  1.0910
  292SOL    HW2 1167   0.986   0.481   0.102 -0.9705 -0.2145 -0.7620
  292SOL     MW 1168   0.943   0.556   0.105  0.2564  0.2843  0.1296
  293SOL     OW 1169   0.246   0.096   2.457  0.2856 -0.2147  0.7768
  293SOL    HW1 1170   0.162   0.069   2.417 -0.1241 -0.7976  1.4906
  293SOL    HW2 1171   0.223   0.162   2.526 -1.7909  1.8529  0.8289
  293SOL     MW 1172   0.232   0.101   2.461 -0.0424 -0.0188  0.8779
  294SOL     OW 1173   1.435   0.608   2.413 -0.1050  0.5565  0.2511
  294SOL    HW1 1174   1.496   0.668   2.459 -0.7756  3.2366 -2.4796
  294SOL    HW2 1175   1.454   0.525   2.458 -2.9860  1.3127  0.2003
  294SOL     MW 1176   1.445   0.605   2.425 -0.5736  1.0099 -0.1159
  295SOL     OW 1177   0.781   0.584   2.484 -0.2824  0.3931  0.2247
  295SOL    HW1 1178   0.720   0.508   2.476 -2.4840 -0.7256  4.5014
  295SOL    HW2 1179   0.784   0.600   2.577 -3.2077 -0.5604  5.0468
  295SOL     MW 1180   0.773   0.576   2.495 -0.9589  0.1197  1.4252
  296SOL     OW 1181   1.254   0.278   2.060  0.2970  0.1741  0.4854
  296SOL    HW1 1182   1.346   0.259   2.056  0.4760 -0.9012 -1.4292
  296SOL    HW2 1183   1.238   0.298   2.156 -3.6996  0.2210  2.3440
  296SOL     MW 1184   1.264   0.278   2.072 -0.2067  0.0384  0.4780
  297SOL     OW 1185   1.446   0.437   1.528  0.4595 -0.1307 -0.2872
  297SOL    HW1 1186   1.502   0.511   1.515  0.3148 -0.3405  0.6671
  297SOL    HW2 1187   1.501   0.385   1.578 -2.3952 -0.9031 -0.8198
  297SOL     MW 1188   1.460   0.440   1.533  0.0638 -0.2603 -0.2315
  298SOL     OW 1189   1.499   0.956   2.096 -0.4773 -0.4716 -0.4597
  298SOL    HW1 1190   1.497   0.961   2.002  0.6688 -0.6577  0.6407
  298SOL    HW2 1191   1.591   0.933   2.118  0.0449  0.3798 -0.3156
  298SOL     MW 1192   1.511   0.954   2.087 -0.2572 -0.3838 -0.2955
  299SOL     OW 1193   0.528   0.996   3.013 -1.0757  0.2012  0.1046
  299SOL    HW1 1194   0.606   1.054   3.045  1.1797  1.2262 -3.4587
  299SOL    HW2 1195   0.503   1.052   2.943 -0.3317 -2.1176  2.0118
  299SOL     MW 1196   0.535   1.011   3.008 -0.6799  0.0305 -0.1139
  300SOL     OW 1197   1.177   1.053   2.553 -0.0302  0.7295 -0.1393
  300SOL    HW1 1198   1.137   1.109   2.496  1.4653  1.7559  1.9536
  300SOL    HW2 1199   1.111   0.987   2.565 -0.1045  0.1702 -2.7842
  300SOL     MW 1200   1.163   1.052   2.547  0.1573  0.7911 -0.2121
  301SOL     OW 1201   1.392   0.730   0.541  0.1491  0.1792 -0.0124
  301SOL    HW1 1202   1.426   0.697   0.627  2.8764  1.6221  1.3135
  301SOL    HW2 1203   1.314   0.674   0.532  1.8192  1.7800  0.3906
  301SOL     MW 1204   1.386   0.718   0.551  0.7293  0.5808  0.2157
  302SOL     OW 1205   0.142   1.503   1.963 -0.1225  0.2637 -0.3982
  302SOL    HW1 1206   0.140   1.455   2.047 -1.3724  0.8434 -0.8153
  302SOL    HW2 1207   0.081   1.578   1.973  2.2756  1.0814 -1.2794
  302SOL     MW 1208   0.134   1.506   1.975  0.0290  0.4480 -0.5695
  303SOL     OW 1209   0.424   1.821   2.661 -0.4631  0.0809 -0.2673
  303SOL    HW1 1210   0.452   1.876   2.587 -2.6257  1.0682  0.2424
  303SOL    HW2 1211   0.331   1.823   2.686 -0.6626 -1.1282 -1.5014
  303SOL     MW 1212   0.415   1.829   2.655 -0.7748  0.0517 -0.3629
  304SOL     OW 1213   0.525   1.970   2.421  0.2220  0.4430  0.3185
  304SOL    HW1 1214   0.513   2.041   2.362  2.0572 -0.1885  0.2445
  304SOL    HW2 1215   0.606   1.930   2.392 -0.1824  1.9102 -2.9634
  304SOL     MW 1216   0.534   1.974   2.409  0.4108  0.5533 -0.1243
  305SOL     OW 1217   1.185   0.551   0.449  0.2188  0.6960 -0.2195
  305SOL    HW1 1218   1.094   0.540   0.464 -2.6759 -0.1056 -0.0333
  305SOL    HW2 1219   1.230   0.465   0.458 -2.6439  1.1454 -1.8745
  305SOL     MW 1220   1.179   0.538   0.452 -0.5408  0.6496 -0.4133
  306SOL     OW 1221   1.216   1.426   0.276  0.0290 -0.3343  0.2047
  306SOL    HW1 1222   1.251   1.343   0.317  0.4431  1.6599  2.5407
  306SOL    HW2 1223   1.267   1.435   0.189 -0.8117 -0.9156 -0.9216
  306SOL     MW 1224   1.227   1.416   0.270 -0.0273 -0.1479  0.3643
  307SOL     OW 1225   1.316   0.553   1.962 -0.0097  0.5538  0.3704
  307SOL    HW1 1226   1.290   0.461   1.981 -1.8718  0.3033 -2.8161
  307SOL    HW2 1227   1.378   0.578   2.029  0.9090  0.8705  2.5033
  307SOL     MW 1228   1.321   0.544   1.973 -0.1342  0.5625  0.2314
  308SOL     OW 1229   2.136   0.559   2.759  0.1417 -0.1786 -0.3316
  308SOL    HW1 1230   2.097   0.461   2.750 -1.9474  0.0251 -0.1335
  308SOL    HW2 1231   2.228   0.541   2.736 -1.5825 -0.3649 -1.3664
  308SOL     MW 1232   2.143   0.544   2.755 -0.3615 -0.1763 -0.4420
  309SOL     OW 1233   0.515   0.508   0.372 -0.5904  0.0703 -0.0077
  309SOL    HW1 1234   0.565   0.428   0.396 -1.1035  0.7041  0.9945
  309SOL    HW2 1235   0.525   0.520   0.279 -0.6297  0.8063  2.3376
  309SOL     MW 1236   0.523   0.499   0.363 -0.6632  0.2510  0.4340
  310SOL     OW 1237   0.409   0.517   1.904  0.2790 -0.0637  0.1613
  310SOL    HW1 1238   0.469   0.459   1.848  1.2886 -2.8686 -0.4015
  310SOL    HW2 1239   0.442   0.608   1.901 -1.0423  2.8017  1.8480
  310SOL     MW 1240   0.422   0.521   1.896  0.2379 -0.0557  0.3096
  311SOL     OW 1241   1.827   0.769   1.950  0.5104 -0.2435  0.4325
  311SOL    HW1 1242   1.802   0.781   2.043 -0.5497 -0.6929 -1.0602
  311SOL    HW2 1243   1.894   0.705   1.939 -3.4836  2.2568  0.5994
  311SOL     MW 1244   1.833   0.762   1.961 -0.1565  0.0271  0.2576
  312SOL     OW 1245   1.741   2.634   3.083 -0.5097 -0.3060 -0.3134
  312SOL    HW1 1246   1.814   2.664   3.139  0.8482  0.0339 -0.9965
  312SOL    HW2 1247   1.669   2.618   3.136 -0.2329 -2.5217 -2.0065
  312SOL     MW 1248   1.741   2.636   3.097 -0.2940 -0.5535 -0.6269
  313SOL     OW 1249   0.139   1.191   2.917 -0.0286  0.4181  0.4276
  313SOL    HW1 1250   0.202   1.142   2.968 -1.5688  2.1191  0.2941
  313SOL    HW2 1251   0.180   1.179   2.828 -0.5716 -0.5706  0.6459
  313SOL     MW 1252   0.152   1.183   2.912 -0.3034  0.5121  0.4388
  314SOL     OW 1253   2.145   3.046   2.988  0.1255  0.0406 -0.1149
  314SOL    HW1 1254   2.072   3.085   2.935  1.6515  1.0988  0.7642
  314SOL    HW2 1255   2.177   3.118   3.049  1.5652  1.6329  4.1281
  314SOL     MW 1256   2.140   3.061   2.989  0.5168  0.3903  0.5609
  315SOL     OW 1257   1.568   1.992   3.014  0.1015  0.0986 -0.0762
  315SOL    HW1 1258   1.475   2.020   3.039  0.8162 -0.4630  1.5172
  315SOL    HW2 1259   1.572   2.031   2.928 -1.4332 -2.1778  2.2927
  315SOL     MW 1260   1.556   2.001   3.006 -0.0067 -0.2758  0.4466
  316SOL     OW 1261   1.214   0.627   2.699  0.2232  0.3563 -0.3287
  316SOL    HW1 1262   1.306   0.611   2.683 -0.8045 -0.6435 -1.1917
  316SOL    HW2 1263   1.201   0.652   2.794 -0.9594  0.4560  1.4012
  316SOL     MW 1264   1.224   0.628   2.710 -0.0684  0.2375 -0.2143
  317SOL     OW 1265   0.675   1.351   2.592 -0.3098  0.2021 -0.1757
  317SOL    HW1 1266   0.715   1.288   2.645 -0.7763  1.0362 -1.0062
  317SOL    HW2 1267   0.725   1.358   2.506 -0.3016 -0.4152 -0.6656
  317SOL     MW 1268   0.687   1.343   2.587 -0.3703  0.2307 -0.3499
  318SOL     OW 1269   1.288   0.431   2.945 -0.4364 -0.5639 -0.3202
  318SOL    HW1 1270   1.203   0.465   2.920 -1.8664 -0.4452  0.2568
  318SOL    HW2 1271   1.361   0.485   2.902  0.3088 -0.5114  1.4136
  318SOL     MW 1272   1.286   0.443   2.936 -0.5268 -0.5413 -0.0153
  319SOL     OW 1273   0.764   0.416   2.741 -0.1128 -0.2091 -0.2722
  319SOL    HW1 1274   0.704   0.402   2.669 -2.6755 -0.6350  1.5567
  319SOL    HW2 1275   0.758   0.333   2.790 -1.5303 -0.5647 -0.3376
  319SOL     MW 1276   0.755   0.403   2.738 -0.6380 -0.3122 -0.0396
  320SOL     OW 1277   0.998   1.313   2.029  0.1877  0.0127 -0.3842
  320SOL    HW1 1278   1.059   1.264   2.082  1.7493  0.5531 -1.7389
  320SOL    HW2 1279   1.052   1.376   1.982 -0.3051 -1.6530 -2.1532
  320SOL     MW 1280   1.013   1.315   2.030  0.3287 -0.1358 -0.7963
  321SOL     OW 1281   1.089   0.990   2.976  0.4274 -0.1849 -0.1713
  321SOL    HW1 1282   1.009   0.953   2.923  1.3898  2.8198  0.7432
  321SOL    HW2 1283   1.147   0.908   2.973  1.5739 -2.8341 -0.2431
  321SOL     MW 1284   1.086   0.974   2.969  0.7056 -0.1380 -0.0601
  322SOL     OW 1285   1.229   0.905   1.706  0.3211 -0.6080  0.0997
  322SOL    HW1 1286   1.317   0.862   1.722  0.7393 -0.8120  0.0979
  322SOL    HW2 1287   1.202   0.910   1.796 -1.3524 -1.7187  0.3487
  322SOL     MW 1288   1.237   0.900   1.720  0.1555 -0.7815  0.1323
  323SOL     OW 1289   1.189   1.517   1.919  0.2364  0.2446 -0.2065
  323SOL    HW1 1290   1.184   1.464   1.834  1.8025 -1.7334  2.4500
  323SOL    HW2 1291   1.136   1.590   1.890 -2.1303 -1.9515 -0.2944
  323SOL     MW 1292   1.181   1.520   1.904  0.1308 -0.3061  0.1324
  324SOL     OW 1293   1.487   1.077   2.527  0.0116  0.8644 -1.0306
  324SOL    HW1 1294   1.407   1.082   2.569  2.6862 -3.0840 -0.9466
  324SOL    HW2 1295   1.561   1.125   2.565  1.1966 -2.0397 -2.3041
  324SOL     MW 1296   1.486   1.084   2.538  0.5208 -0.0397 -1.1875
  325SOL     OW 1297   0.988   0.442   2.914 -0.0509  0.2702 -0.0625
  325SOL    HW1 1298   0.951   0.492   2.997  2.0574 -1.1328  0.8794
  325SOL    HW2 1299   0.913   0.453   2.851 -0.1210 -0.6217 -0.0434
  325SOL     MW 1300   0.974   0.450   2.917  0.2180 -0.0326  0.0643
  326SOL     OW 1301   0.399   1.334   2.171 -0.4878 -0.0322 -0.0916
  326SOL    HW1 1302   0.461   1.294   2.109 -1.7170 -0.6124  1.5028
  326SOL    HW2 1303   0.409   1.431   2.171 -3.5318  1.5758  1.7151
  326SOL     MW 1304   0.409   1.342   2.163 -1.0516  0.1034  0.3571
  327SOL     OW 1305   1.901   0.858   2.416  0.3430 -0.1133 -0.3082
  327SOL    HW1 1306   1.892   0.794   2.486  0.3296 -0.0300 -0.8765
  327SOL    HW2 1307   1.994   0.875   2.406 -2.3546 -0.9181  0.9401
  327SOL     MW 1308   1.912   0.852   2.424 -0.0147 -0.2085 -0.2185
  328SOL     OW 1309   0.136   1.251   2.180  0.5590  0.2962  0.5250
  328SOL    HW1 1310   0.093   1.183   2.130 -0.4554  3.8824 -0.2419
  328SOL    HW2 1311   0.222   1.251   2.142 -2.5643 -0.5160 -0.2118
  328SOL     MW 1312   0.142   1.242   2.169  0.0131  0.6622  0.3266
  329SOL     OW 1313   0.117   0.163   1.414  0.2571  0.2151 -0.0641
  329SOL    HW1 1314   0.086   0.189   1.503 -0.3856  2.4177 -1.9052
  329SOL    HW2 1315   0.210   0.177   1.413 -0.4596 -1.4700 -0.6863
  329SOL     MW 1316   0.125   0.168   1.426  0.0778  0.2834 -0.3891
  330SOL     OW 1317   0.416   2.963   2.073 -0.1635 -0.4499  0.2774
  330SOL    HW1 1318   0.476   2.970   2.152 -0.6334  0.9425 -0.3212
  330SOL    HW2 1319   0.335   2.929   2.103  0.3642  1.9427  0.8033
  330SOL     MW 1320   0.413   2.960   2.087 -0.1559  0.0495  0.2678
  331SOL     OW 1321   0.733   1.177   2.221 -0.3544 -0.4126  0.4011
  331SOL    HW1 1322   0.699   1.148   2.135  2.2210  3.7691 -0.1997
  331SOL    HW2 1323   0.769   1.266   2.208  1.4934 -0.9543 -1.1796
  331SOL     MW 1324   0.733   1.184   2.208  0.2292  0.0676  0.1133
  332SOL     OW 1325   1.353   1.757   2.950  0.1500 -0.2535 -0.4301
  332SOL    HW1 1326   1.342   1.763   2.851 -1.5981 -1.4529 -2.4051
  332SOL    HW2 1327   1.446   1.767   2.970 -0.4518  1.2305  1.1858
  332SOL     MW 1328   1.364   1.759   2.939 -0.1601 -0.2159 -0.4775
  333SOL     OW 1329   1.737   1.502   3.035 -0.1447  0.8333 -0.4104
  333SOL    HW1 1330   1.826   1.462   3.025  0.0199 -1.2393  2.6780
  333SOL    HW2 1331   1.695   1.433   3.088 -0.2173 -0.4484 -0.0799
  333SOL     MW 1332   1.743   1.487   3.041 -0.1326  0.3908  0.0407
  334SOL     OW 1333   1.171   0.001   2.593 -0.4575 -0.6307 -0.2094
  334SOL    HW1 1334   1.096  -0.006   2.659 -1.6186  0.1303  0.8483
  334SOL    HW2 1335   1.215   0.084   2.614 -1.0448 -0.6150 -0.7649
  334SOL     MW 1336   1.167   0.011   2.604 -0.6882 -0.5282 -0.1431
  335SOL     OW 1337   1.258   0.777   2.938 -0.0256 -0.3741  0.2178
  335SOL    HW1 1338   1.292   0.746   3.021  0.1758 -0.3608 -2.0663
  335SOL    HW2 1339   1.332   0.826   2.892  2.1326  2.5234  1.1436
  335SOL     MW 1340   1.272   0.780   2.943  0.2857  0.0099  0.0386
  336SOL     OW 1341   0.947   1.111   1.855 -0.0476 -0.9350  0.0624
  336SOL    HW1 1342   0.954   1.177   1.927 -2.6330  1.9031  1.2960
  336SOL    HW2 1343   0.997   1.039   1.885 -1.2415 -1.6696 -1.3700
  336SOL     MW 1344   0.954   1.110   1.869 -0.5462 -0.6575  0.0362
  337SOL     OW 1345   0.651   1.764   2.838 -0.3879  0.1251 -0.2437
  337SOL    HW1 1346   0.573   1.800   2.793 -1.4909  0.9626  0.1760
  337SOL    HW2 1347   0.678   1.697   2.785  1.5735  1.8575 -2.3703
  337SOL     MW 1348   0.644   1.760   2.825 -0.2746  0.4642 -0.4689
  338SOL     OW 1349   1.039   0.809   2.586 -0.2542 -0.4646 -0.6323
  338SOL    HW1 1350   0.975   0.841   2.658  0.5968 -0.9673  1.1824
  338SOL    HW2 1351   1.114   0.772   2.627  0.6209  2.4487  1.8717
  338SOL     MW 1352   1.040   0.809   2.601 -0.0265 -0.1466 -0.0625
  339SOL     OW 1353   1.406   1.099   1.863  0.3035  0.2687 -0.5138
  339SOL    HW1 1354   1.366   1.131   1.784 -2.1470 -0.2159 -0.4103
  339SOL    HW2 1355   1.432   1.172   1.914 -0.0805  0.4283  1.6396
  339SOL     MW 1356   1.404   1.113   1.859 -0.0705  0.2258 -0.2160
  340SOL     OW 1357   1.377   1.524   0.078 -0.2687  0.4545  0.4772
  340SOL    HW1 1358   1.373   1.595   0.017 -0.1776  2.4088 -0.6868
  340SOL    HW2 1359   1.441   1.546   0.144 -1.4482  1.0985 -0.3066
  340SOL     MW 1360   1.385   1.536   0.079 -0.4123  0.7973  0.2202
  341SOL     OW 1361   0.223   1.268   2.641 -0.7178 -0.4650 -0.1367
  341SOL    HW1 1362   0.234   1.362   2.641  0.0697  1.5848  1.3173
  341SOL    HW2 1363   0.158   1.247   2.577 -0.4282 -1.5456  0.9933
  341SOL     MW 1364   0.216   1.277   2.633 -0.5757 -0.3371  0.2042
  342SOL     OW 1365   1.403   0.259   0.077 -0.2982  0.3031  0.1230
  342SOL    HW1 1366   1.409   0.319   0.148  3.1283 -0.2079 -1.0450
  342SOL    HW2 1367   1.405   0.306  -0.005  1.3937 -1.8425 -1.1367
  342SOL     MW 1368   1.404   0.273   0.075  0.3771 -0.0474 -0.1973
  343SOL     OW 1369   0.235   0.310   2.256 -0.4645  0.1992  0.1614
  343SOL    HW1 1370   0.264   0.240   2.308 -1.5977  1.8690  0.2305
  343SOL    HW2 1371   0.159   0.274   2.207 -1.8988 -0.4618  1.2804
  343SOL     MW 1372   0.229   0.296   2.257 -0.8033  0.3323  0.3182
  344SOL     OW 1373   1.690   2.181   0.085 -0.2886  0.1483  0.6491
  344SOL    HW1 1374   1.713   2.242   0.013 -1.0737 -2.9685  1.1139
  344SOL    HW2 1375   1.647   2.109   0.033 -0.7278  0.1649 -2.5768
  344SOL     MW 1376   1.687   2.180   0.069 -0.4502 -0.2607  0.2848
  345SOL     OW 1377   0.655   1.568   2.362  0.6098  0.3566  0.3451
  345SOL    HW1 1378   0.578   1.600   2.308  0.0788  1.9561  1.1376
  345SOL    HW2 1379   0.720   1.530   2.294 -1.5090  0.6731 -2.6980
  345SOL     MW 1380   0.654   1.567   2.346  0.2602  0.6094  0.0481
  346SOL     OW 1381   1.677   1.021   0.004  0.1541  0.2682  0.3107
  346SOL    HW1 1382   1.773   1.037  -0.001 -0.8416  2.8637  1.4105
  346SOL    HW2 1383   1.657   0.972   0.082  1.4573  0.3054 -0.7239
  346SOL     MW 1384   1.687   1.017   0.013  0.1947  0.6155  0.3193
  347SOL     OW 1385   1.169   0.660   2.346  0.5021 -0.0686  0.0293
  347SOL    HW1 1386   1.258   0.653   2.388  2.2391 -2.3352  1.3446
  347SOL    HW2 1387   1.109   0.688   2.423  0.3699 -0.1113  0.8140
  347SOL     MW 1388   1.173   0.663   2.361  0.7139 -0.3733  0.3063
  348SOL     OW 1389   1.305   2.669   1.885 -0.2349  0.2128 -0.0532
  348SOL    HW1 1390   1.336   2.588   1.915  0.9124  1.7069  0.8722
  348SOL    HW2 1391   1.351   2.726   1.945  2.1936 -0.0926 -0.6917
  348SOL     MW 1392   1.316   2.666   1.897  0.2369  0.3696 -0.0153
  349SOL     OW 1393   1.321   0.228   2.684  0.2723 -0.5527  0.1100
  349SOL    HW1 1394   1.299   0.293   2.751  0.1824 -1.0350 -0.3324
  349SOL    HW2 1395   1.404   0.188   2.713  1.2553 -0.6180  1.1894
  349SOL     MW 1396   1.329   0.232   2.697  0.3902 -0.6250  0.1941
  350SOL     OW 1397   1.906   0.683   2.638 -0.3978 -0.8547  0.5034
  350SOL    HW1 1398   1.891   0.605   2.583  2.5729  1.2882 -3.0047
  350SOL    HW2 1399   1.993   0.674   2.684  1.5500 -1.3158 -0.9464
  350SOL     MW 1400   1.915   0.672   2.637  0.2511 -0.6328 -0.1508
  351SOL     OW 1401   0.071   0.986   1.556 -0.3786 -0.0235  0.5952
  351SOL    HW1 1402  -0.006   1.010   1.612 -1.5389 -0.6911 -2.0238
  351SOL    HW2 1403   0.131   1.062   1.557 -0.2598 -2.6807 -0.6873
  351SOL     MW 1404   0.069   1.000   1.563 -0.5160 -0.4622  0.0804
  352SOL     OW 1405   0.825   1.584   2.722 -0.0859 -0.5155  0.0701
  352SOL    HW1 1406   0.859   1.559   2.808 -1.6246  0.9673 -1.5860
  352SOL    HW2 1407   0.780   1.510   2.682 -0.9318 -2.0639  0.0053
  352SOL     MW 1408   0.824   1.571   2.728 -0.4005 -0.5242 -0.1570
  353SOL     OW 1409   3.070   2.439   2.788  0.7876 -0.2779 -0.4803
  353SOL    HW1 1410   3.152   2.451   2.752 -0.5852  0.0743  2.7750
  353SOL    HW2 1411   3.025   2.522   2.766  2.5628 -1.4423  0.9791
  353SOL     MW 1412   3.074   2.451   2.781  0.8407 -0.3851  0.1418
  354SOL     OW 1413   0.334   2.473   0.887  0.3839 -0.1149  0.1174
  354SOL    HW1 1414   0.386   2.427   0.961  2.6323 -0.3179  0.2873
  354SOL    HW2 1415   0.249   2.425   0.892 -0.0103  0.3289  2.5228
  354SOL     MW 1416   0.330   2.461   0.897  0.6286 -0.0831  0.4572
  355SOL     OW 1417   0.072   2.266   0.378  0.4599  0.3301  0.2600
  355SOL    HW1 1418  -0.002   2.207   0.385 -1.1759 -0.4798  1.5740
  355SOL    HW2 1419   0.049   2.322   0.452 -1.6166 -0.8786  1.4436
  355SOL     MW 1420   0.059   2.266   0.388 -0.0299  0.0638  0.5896
  356SOL     OW 1421   0.720   2.930   0.976 -0.2203  0.0860 -0.2850
  356SOL    HW1 1422   0.805   2.908   0.938 -2.5033 -0.6453  1.0605
  356SOL    HW2 1423   0.649   2.865   0.951 -2.3697  0.0623  1.2969
  356SOL     MW 1424   0.722   2.918   0.968 -0.8051 -0.0136  0.1012
  357SOL     OW 1425   1.775   2.996   0.375  0.3144 -0.1846 -0.2835
  357SOL    HW1 1426   1.731   2.928   0.428  0.5310 -2.4825  0.4127
  357SOL    HW2 1427   1.870   2.966   0.359  2.5630  0.0748 -0.0544
  357SOL     MW 1428   1.782   2.983   0.380  0.6397 -0.4535 -0.1614
  358SOL     OW 1429   0.513   0.138   1.027  0.2919  0.2326  0.3167
  358SOL    HW1 1430   0.588   0.120   0.966  1.1877 -2.5109 -2.3634
  358SOL    HW2 1431   0.447   0.172   0.966  0.8527 -0.0453 -0.0796
  358SOL     MW 1432   0.514   0.140   1.011  0.4841 -0.1660 -0.0892
  359SOL     OW 1433   0.910   2.720   1.918  0.2706 -0.6024 -0.3650
  359SOL    HW1 1434   0.881   2.637   1.968  1.2300  2.6939  1.3069
  359SOL    HW2 1435   0.967   2.688   1.848 -1.0736  1.4248 -0.9060
  359SOL     MW 1436   0.914   2.705   1.915  0.2198  0.1000 -0.2158
  360SOL     OW 1437   0.507   2.730   0.929 -0.0840 -0.4653 -0.4139
  360SOL    HW1 1438   0.498   2.680   0.850 -0.9193  2.5955  0.4681
  360SOL    HW2 1439   0.534   2.676   1.005  1.4109  0.0827 -3.0560
  360SOL     MW 1440   0.509   2.717   0.929  0.0030  0.0109 -0.6461
  361SOL     OW 1441   0.177   2.743   1.377  0.0248  0.2647  0.2495
  361SOL    HW1 1442   0.175   2.825   1.409  1.7377  0.8849 -0.3732
  361SOL    HW2 1443   0.269   2.719   1.378 -0.6520 -1.9617 -1.1817
  361SOL     MW 1444   0.189   2.750   1.381  0.1615  0.0528 -0.0215
  362SOL     OW 1445   1.457   2.408   0.629  0.6894 -0.0854 -0.0630
  362SOL    HW1 1446   1.458   2.324   0.673  0.3716  0.8164  0.5773
  362SOL    HW2 1447   1.468   2.470   0.698  1.8610 -2.6200  0.4863
  362SOL     MW 1448   1.458   2.405   0.644  0.8020 -0.3008  0.0940
  363SOL     OW 1449   0.289   3.082   0.694  0.0597 -0.1523 -0.6113
  363SOL    HW1 1450   0.266   3.012   0.756 -2.4099 -3.3982  1.5298
  363SOL    HW2 1451   0.220   3.102   0.634 -0.5815 -1.2397  1.3896
  363SOL     MW 1452   0.277   3.076   0.694 -0.3508 -0.7240 -0.0648
  364SOL     OW 1453   0.754   0.147   0.243 -0.6053 -0.0104  0.2726
  364SOL    HW1 1454   0.705   0.064   0.255  1.0970 -0.5339 -2.1843
  364SOL    HW2 1455   0.686   0.206   0.210  0.0528  2.8268 -0.3238
  364SOL     MW 1456   0.739   0.144   0.240 -0.2939  0.2949 -0.1302
  365SOL     OW 1457   1.037   2.000   1.135 -0.0513 -0.6017 -0.1300
  365SOL    HW1 1458   1.034   2.084   1.091 -0.5455  2.0344 -0.8730
  365SOL    HW2 1459   0.971   1.937   1.106 -2.6078  1.2573 -2.3167
  365SOL     MW 1460   1.028   2.003   1.125 -0.4538 -0.0086 -0.5166
  366SOL     OW 1461   2.864   2.623   0.986  0.4664  0.3352  0.2948
  366SOL    HW1 1462   2.920   2.658   1.049 -1.2180 -0.9422 -0.7024
  366SOL    HW2 1463   2.888   2.668   0.901 -1.0889  1.2973 -1.2350
  366SOL     MW 1464   2.875   2.634   0.983  0.0389  0.2936 -0.0386
  367SOL     OW 1465   1.251   2.947   0.842  0.5479  0.3475  0.4331
  367SOL    HW1 1466   1.187   3.006   0.887 -0.8458 -0.6892  1.2336
  367SOL    HW2 1467   1.194   2.894   0.791  3.3778  1.1596  3.0635
  367SOL     MW 1468   1.235   2.948   0.841  0.7374  0.3178  0.8858
  368SOL     OW 1469   1.709   0.464   0.657 -0.5684 -0.4535 -0.1834
  368SOL    HW1 1470   1.732   0.374   0.679  0.0816 -0.5146  1.5560
  368SOL    HW2 1471   1.789   0.505   0.612  1.3978  1.5412 -1.6121
  368SOL     MW 1472   1.722   0.457   0.654 -0.2232 -0.1983 -0.1424
  369SOL     OW 1473   0.145   2.452   1.745  0.7632  0.2920  0.2082
  369SOL    HW1 1474   0.229   2.422   1.784  2.0686  0.4508 -0.3569
  369SOL    HW2 1475   0.133   2.539   1.792  1.0082 -1.9964 -0.5901
  369SOL     MW 1476   0.154   2.459   1.757  0.9678  0.0110  0.0283
  370SOL     OW 1477   0.724   0.088   0.859 -0.5296  0.1495  0.1767
  370SOL    HW1 1478   0.766   0.163   0.902 -0.3059 -0.1575  0.7281
  370SOL    HW2 1479   0.738   0.007   0.917 -1.3229  1.0558 -1.4316
  370SOL     MW 1480   0.732   0.087   0.873 -0.6048  0.2286  0.0373
  371SOL     OW 1481   1.387   2.987   1.457 -0.0243  0.2746  0.3520
  371SOL    HW1 1482   1.326   2.910   1.448 -3.8565 -2.5779  2.0256
  371SOL    HW2 1483   1.368   3.042   1.381  1.0857  2.7737  2.7145
  371SOL     MW 1484   1.377   2.984   1.445 -0.3834  0.2279  0.8845
  372SOL     OW 1485   0.775   2.299   0.469  0.0013  0.2837  0.0511
  372SOL    HW1 1486   0.710   2.235   0.481 -0.3758 -0.3031  0.8427
  372SOL    HW2 1487   0.798   2.287   0.378  2.8873  0.3997  1.5067
  372SOL     MW 1488   0.769   2.289   0.459  0.3323  0.2216  0.3476
  373SOL     OW 1489   2.810   2.985   1.395 -0.8480  0.5808 -0.7009
  373SOL    HW1 1490   2.885   2.981   1.329  0.8498  1.9183 -3.0491
  373SOL    HW2 1491   2.762   3.065   1.373 -1.1515 -0.8421 -0.2283
  373SOL     MW 1492   2.814   2.995   1.384 -0.6641  0.5696 -0.9483
  374SOL     OW 1493   1.498   0.488   0.228 -1.0246  0.9110  0.2069
  374SOL    HW1 1494   1.581   0.490   0.178  3.7265 -0.2889  0.8594
  374SOL    HW2 1495   1.527   0.464   0.319 -0.8353 -2.6568  2.5821
  374SOL     MW 1496   1.513   0.485   0.234 -0.3728  0.2820  0.6064
  375SOL     OW 1497   1.118   2.116   2.250  0.2806  0.2561  0.0488
  375SOL    HW1 1498   1.141   2.132   2.341 -0.8544  1.0442  0.3783
  375SOL    HW2 1499   1.093   2.025   2.259 -0.5939 -1.8400  1.0736
  375SOL     MW 1500   1.118   2.106   2.263  0.0155  0.0835  0.2275
  376SOL     OW 1501   0.661   2.554   0.147  0.4009  0.6072  0.5493
  376SOL    HW1 1502   0.712   2.483   0.182  0.0094 -0.8622  0.9071
  376SOL    HW2 1503   0.591   2.506   0.098 -1.6769  1.2744 -0.3884
  376SOL     MW 1504   0.659   2.538   0.145  0.0751  0.5014  0.4728
  377SOL     OW 1505   1.300   2.070   0.897  0.2012  0.8254 -0.0034
  377SOL    HW1 1506   1.224   2.044   0.840  0.8053  1.4892  0.8662
  377SOL    HW2 1507   1.312   2.003   0.957  3.2660  0.9944 -1.2558
  377SOL     MW 1508   1.291   2.058   0.897  0.6853  0.9353 -0.0539
  378SOL     OW 1509   0.995   2.850   1.496  0.2858 -0.5948  0.1901
  378SOL    HW1 1510   0.950   2.767   1.517 -2.2018  0.7587 -1.1515
  378SOL    HW2 1511   0.963   2.876   1.407 -0.3349  0.1226 -0.8038
  378SOL     MW 1512   0.985   2.843   1.487 -0.1243 -0.3215 -0.1181
  379SOL     OW 1513   1.050   1.827   2.266 -0.4898 -0.0715  0.2428
  379SOL    HW1 1514   0.956   1.841   2.270  0.6399 -1.7125  1.4540
  379SOL    HW2 1515   1.072   1.733   2.246  0.1032  1.5871 -0.4536
  379SOL     MW 1516   1.041   1.816   2.264 -0.2625 -0.0692  0.3108
  380SOL     OW 1517   0.922   0.230   1.479 -0.1407  0.2468  0.6500
  380SOL    HW1 1518   0.935   0.178   1.406 -1.3047  0.4857 -0.0367
  380SOL    HW2 1519   0.979   0.192   1.545  0.3888 -0.1974  1.7558
  380SOL     MW 1520   0.932   0.218   1.478 -0.2244  0.2197  0.7053
  381SOL     OW 1521   0.839   2.000   0.809 -0.1790 -0.0278 -0.3040
  381SOL    HW1 1522   0.931   1.980   0.776 -2.3517  0.9714 -0.6596
  381SOL    HW2 1523   0.848   2.087   0.858  0.5106  2.1230 -0.1063
  381SOL     MW 1524   0.853   2.009   0.811 -0.3747  0.3878 -0.3249
  382SOL     OW 1525   0.655   0.035   0.612  0.3444 -0.2820 -0.3707
  382SOL    HW1 1526   0.690   0.044   0.696  1.4664 -3.1180 -0.1818
  382SOL    HW2 1527   0.627  -0.057   0.606 -2.6648  0.3044 -1.8916
  382SOL     MW 1528   0.656   0.024   0.622  0.0954 -0.5788 -0.5464
  383SOL     OW 1529   0.519   0.043   0.359 -0.0078 -0.1011 -0.8589
  383SOL    HW1 1530   0.551   0.070   0.447 -0.1656  1.9184  0.0046
  383SOL    HW2 1531   0.467  -0.041   0.381  2.0301  1.9998  1.4888
  383SOL     MW 1532   0.516   0.035   0.374  0.2403  0.4425 -0.4352
  384SOL     OW 1533   0.629   2.839   0.560 -0.1823  0.2130  0.4654
  384SOL    HW1 1534   0.617   2.762   0.619  0.2378 -0.3923  0.6347
  384SOL    HW2 1535   0.542   2.856   0.511 -0.1271  1.3017  0.8981
  384SOL     MW 1536   0.616   2.831   0.561 -0.1196  0.2768  0.5448
  385SOL     OW 1537   1.340   2.045   1.553 -0.0772 -0.4396 -0.4269
  385SOL    HW1 1538   1.414   2.073   1.612 -2.5851 -0.4007  0.2137
  385SOL    HW2 1539   1.286   1.992   1.617  0.0438  3.4455 -0.1667
  385SOL     MW 1540   1.343   2.042   1.569 -0.3922  0.0781 -0.3080
  386SOL     OW 1541   1.269   0.425   0.944  0.2378  0.4295 -0.0382
  386SOL    HW1 1542   1.191   0.399   0.892  2.2508 -0.0968  2.1988
  386SOL    HW2 1543   1.246   0.462   1.028  0.3118  0.9121 -0.3141
  386SOL     MW 1544   1.256   0.426   0.948  0.5131  0.4238  0.2206
  387SOL     OW 1545   0.854   2.222   1.456 -0.0700 -0.2429 -0.5403
  387SOL    HW1 1546   0.919   2.276   1.402  1.1845 -1.1274 -2.1747
  387SOL    HW2 1547   0.871   2.132   1.439 -0.2836 -0.8046  2.6094
  387SOL     MW 1548   0.865   2.217   1.447  0.0674 -0.4337 -0.3404
  388SOL     OW 1549   1.571   2.852   1.229  0.1317  0.4289 -0.0648
  388SOL    HW1 1550   1.484   2.836   1.182 -1.3101 -0.2073  0.3363
  388SOL    HW2 1551   1.631   2.792   1.173 -0.1593  0.3824 -0.9011
  388SOL     MW 1552   1.567   2.842   1.216 -0.0969  0.3389 -0.1222
  389SOL     OW 1553   0.460   0.065   3.068 -0.7021  0.4098  0.5044
  389SOL    HW1 1554   0.553   0.075   3.035  0.4969 -0.0963 -0.9173
  389SOL    HW2 1555   0.455  -0.011   3.119 -1.0911  0.0088 -1.0517
  389SOL     MW 1556   0.471   0.056   3.070 -0.5952  0.2901  0.1115
  390SOL     OW 1557   1.359   0.109   0.650  0.0197 -0.1985  0.0301
  390SOL    HW1 1558   1.445   0.073   0.636  1.0398  0.0559 -0.4810
  390SOL    HW2 1559   1.368   0.124   0.744 -2.3949 -1.6984  0.6009
  390SOL     MW 1560   1.372   0.106   0.660 -0.1643 -0.3629  0.0379
  391SOL     OW 1561   0.290   2.288   1.451 -0.1918  0.0831 -0.5435
  391SOL    HW1 1562   0.245   2.211   1.483 -0.8874  3.3201 -0.2133
  391SOL    HW2 1563   0.224   2.362   1.443  2.0009 -3.9077  0.2407
  391SOL     MW 1564   0.276   2.288   1.454  0.0057 -0.0164 -0.3964
  392SOL     OW 1565   2.032   2.174   0.265 -0.6455 -0.1562  0.5799
  392SOL    HW1 1566   1.973   2.237   0.303 -2.5529 -3.3605 -2.1594
  392SOL    HW2 1567   2.090   2.151   0.333  0.3835 -0.5847 -0.0135
  392SOL     MW 1568   2.032   2.179   0.279 -0.7614 -0.6355  0.1402
  393SOL     OW 1569   0.199   3.005   2.935  0.7395  0.0953 -0.0255
  393SOL    HW1 1570   0.266   3.054   2.895 -1.7969  0.6504  1.4793
  393SOL    HW2 1571   0.121   3.024   2.886  2.5121  0.5418  2.3752
  393SOL     MW 1572   0.198   3.014   2.923  0.6387  0.2275  0.4898
  394SOL     OW 1573   0.826   1.676   1.483 -0.2406  0.1701 -0.4474
  394SOL    HW1 1574   0.759   1.684   1.561 -4.2025  0.9243 -0.2549
  394SOL    HW2 1575   0.844   1.758   1.446 -1.7418 -2.8884  2.0310
  394SOL     MW 1576   0.820   1.688   1.489 -0.9614 -0.1340 -0.0950
  395SOL     OW 1577   0.915   2.841   2.623 -0.3057  0.2751 -0.3355
  395SOL    HW1 1578   0.965   2.908   2.677  1.6146 -0.1197  2.3917
  395SOL    HW2 1579   0.981   2.798   2.554  3.8705 -0.5699  0.8998
  395SOL     MW 1580   0.930   2.844   2.621  0.4986  0.1115  0.1873
  396SOL     OW 1581   0.749   1.826   2.382 -0.5251  0.2714 -0.0758
  396SOL    HW1 1582   0.815   1.831   2.456  2.5354  0.2655  1.3251
  396SOL    HW2 1583   0.720   1.735   2.378  0.0429  1.3794 -0.3361
  396SOL     MW 1584   0.754   1.815   2.391 -0.0464  0.4168  0.0747
  397SOL     OW 1585   1.042   2.346   1.274  0.1631 -0.0985  0.1006
  397SOL    HW1 1586   1.078   2.377   1.194 -1.3716  1.6468  0.2416
  397SOL    HW2 1587   1.118   2.329   1.336  0.7687 -0.9120  2.0694
  397SOL     MW 1588   1.057   2.348   1.271  0.0405  0.0244  0.3790
  398SOL     OW 1589   0.575   2.608   0.688 -0.1793 -0.0943 -0.2078
  398SOL    HW1 1590   0.501   2.571   0.649  1.5168  0.9821  1.2137
  398SOL    HW2 1591   0.657   2.565   0.645  2.2225  1.4604 -1.7860
  398SOL     MW 1592   0.576   2.597   0.677  0.3614  0.2529 -0.2285
  399SOL     OW 1593   0.240   2.027   0.350  0.1193  0.2410  0.2975
  399SOL    HW1 1594   0.199   2.109   0.360  1.2183  0.2883 -2.6414
  399SOL    HW2 1595   0.319   2.042   0.290  3.7206  3.0080 -3.0188
  399SOL     MW 1596   0.245   2.040   0.344  0.7395  0.6123 -0.5278
  400SOL     OW 1597   0.571   1.819   0.205  0.4026  0.0798 -0.2622
  400SOL    HW1 1598   0.549   1.913   0.188  0.8919 -0.5337  0.6952
  400SOL    HW2 1599   0.502   1.792   0.265  0.2747  2.7302 -0.4358
  400SOL     MW 1600   0.559   1.828   0.210  0.4503  0.3485 -0.1588
  401SOL     OW 1601   1.009   2.110   0.097  0.3879  0.0230 -0.4068
  401SOL    HW1 1602   1.038   2.019   0.098 -3.3238  0.2761 -2.2203
  401SOL    HW2 1603   1.029   2.138   0.183 -2.3564 -2.2784 -0.9092
  401SOL     MW 1604   1.016   2.102   0.109 -0.4639 -0.2473 -0.7123
  402SOL     OW 1605   0.678   2.683   1.734 -0.3630  0.7940 -0.2629
  402SOL    HW1 1606   0.601   2.715   1.777  2.3046 -0.7688  0.5332
  402SOL    HW2 1607   0.747   2.727   1.781 -2.1567 -1.8208 -1.3134
  402SOL     MW 1608   0.677   2.693   1.746 -0.2477  0.2428 -0.2965
  403SOL     OW 1609   0.076   0.569   0.342  0.1734  0.1473  0.4740
  403SOL    HW1 1610   0.136   0.601   0.409  0.3858  2.8379 -1.1774
  403SOL    HW2 1611   0.132   0.506   0.291 -3.2008  0.1635  2.1540
  403SOL     MW 1612   0.091   0.565   0.344 -0.2438  0.5044  0.4778
  404SOL     OW 1613   0.975   2.907   0.879  0.3508  0.1737 -0.0543
  404SOL    HW1 1614   0.981   2.827   0.832 -2.2391  1.4000  1.9521
  404SOL    HW2 1615   0.975   2.973   0.810  0.2398  0.6758  1.3617
  404SOL     MW 1616   0.976   2.905   0.864 -0.0056  0.4017  0.3972
  405SOL     OW 1617   0.445   2.461   1.585  0.1473 -0.0531 -0.2409
  405SOL    HW1 1618   0.464   2.531   1.518 -0.3540 -1.9726  2.1978
  405SOL    HW2 1619   0.416   2.386   1.541 -1.0720 -0.1858  1.0962
  405SOL     MW 1620   0.444   2.460   1.570 -0.0797 -0.3239  0.2573
  406SOL     OW 1621   0.408   2.411   1.154  0.0303  0.0049  0.3034
  406SOL    HW1 1622   0.314   2.406   1.168  1.7697 -0.9810  0.9009
  406SOL    HW2 1623   0.439   2.334   1.193 -0.1740  3.2304 -0.0059
  406SOL     MW 1624   0.400   2.400   1.161  0.2328  0.3004  0.3414
  407SOL     OW 1625   3.067   2.733   1.168  0.1147 -0.4067  0.1692
  407SOL    HW1 1626   3.119   2.744   1.252  1.8170 -1.0115  0.0776
  407SOL    HW2 1627   3.128   2.724   1.097 -0.0121 -1.2984  0.9258
  407SOL     MW 1628   3.082   2.734   1.170  0.3226 -0.6042  0.2570
  408SOL     OW 1629   2.093   2.046   0.526 -0.1544  0.7032  0.8849
  408SOL    HW1 1630   2.064   2.085   0.609 -3.6799  0.7394  0.6705
  408SOL    HW2 1631   2.013   1.990   0.508 -3.5635  1.1822  1.0041
  408SOL     MW 1632   2.078   2.044   0.534 -1.0693  0.7712  0.8724
  409SOL     OW 1633   1.425   0.166   0.922  0.0963 -0.0405 -0.8558
  409SOL    HW1 1634   1.457   0.246   0.962  0.9440  1.8685 -1.7275
  409SOL    HW2 1635   1.493   0.103   0.956 -1.3625 -0.6212  2.7153
  409SOL     MW 1636   1.438   0.168   0.931  0.0157  0.1347 -0.4997
  410SOL     OW 1637   1.072   2.516   1.045 -0.1665 -0.0753 -0.2356
  410SOL    HW1 1638   0.982   2.501   1.011  1.7100 -2.5812  1.5523
  410SOL    HW2 1639   1.122   2.450   0.995  0.9227 -2.4133 -0.7788
  410SOL     MW 1640   1.067   2.505   1.034  0.2248 -0.7144 -0.0713
  411SOL     OW 1641   1.940   0.087   2.874 -0.0645  0.0569 -0.1760
  411SOL    HW1 1642   1.899   0.062   2.790  2.1639 -0.4662 -0.7323
  411SOL    HW2 1643   1.877   0.120   2.938  3.6728  1.2517 -0.1098
  411SOL     MW 1644   1.926   0.088   2.871  0.7226  0.1455 -0.2406
  412SOL     OW 1645   1.015   2.231   0.581  0.5517  0.0523 -0.1784
  412SOL    HW1 1646   1.079   2.309   0.584 -1.5681 -1.2940 -1.7761
  412SOL    HW2 1647   0.923   2.264   0.557 -0.3791 -2.3671 -2.3108
  412SOL     MW 1648   1.011   2.246   0.578  0.1492 -0.4446 -0.6706
  413SOL     OW 1649   0.539   2.786   0.081  0.6607 -0.2000  1.0660
  413SOL    HW1 1650   0.592   2.701   0.101 -0.9978 -4.2276 -0.1125
  413SOL    HW2 1651   0.562   2.826  -0.008  2.3897 -0.2261  2.0535
  413SOL     MW 1652   0.549   2.780   0.072  0.6700 -0.7349  1.0408
  414SOL     OW 1653   2.007   3.015   1.007 -0.3463  0.1447 -0.1286
  414SOL    HW1 1654   1.961   2.987   0.930  2.1750  0.3657  1.3435
  414SOL    HW2 1655   2.080   2.954   1.027 -1.9715 -0.4069  2.5109
  414SOL     MW 1656   2.011   3.003   1.000 -0.2280  0.1011  0.4139
  415SOL     OW 1657   1.729   2.666   1.111 -0.0621  0.0374 -0.0489
  415SOL    HW1 1658   1.673   2.608   1.173  0.4957 -1.0664  2.5343
  415SOL    HW2 1659   1.821   2.675   1.153  0.1627  2.4695 -1.4276
  415SOL     MW 1660   1.734   2.659   1.125  0.0412  0.2126  0.1100
  416SOL     OW 1661   0.567   1.937   1.393  0.1916  0.0092 -0.3556
  416SOL    HW1 1662   0.544   2.027   1.361 -1.4655 -1.3650  1.0445
  416SOL    HW2 1663   0.568   1.881   1.312 -1.0841  1.9953 -1.0587
  416SOL     MW 1664   0.564   1.942   1.378 -0.1954  0.0900 -0.2636
  417SOL     OW 1665   1.060   2.986   2.022  0.5693  0.2616 -0.5380
  417SOL    HW1 1666   0.993   2.990   2.096 -0.2993  1.2840 -2.5976
  417SOL    HW2 1667   1.030   2.915   1.965  0.1672  0.2232 -1.5495
  417SOL     MW 1668   1.047   2.977   2.024  0.4016  0.3914 -0.9432
  418SOL     OW 1669   0.717   2.964   0.174 -0.1136 -0.5193  0.3476
  418SOL    HW1 1670   0.753   2.960   0.082  0.7921 -0.7007 -0.7700
  418SOL    HW2 1671   0.636   2.914   0.159  0.3227 -0.4830 -3.6663
  418SOL     MW 1672   0.711   2.957   0.160  0.0635 -0.5385 -0.3295
  419SOL     OW 1673   0.463   2.684   1.407 -0.1342 -0.3569 -0.0129
  419SOL    HW1 1674   0.529   2.748   1.415  0.3129 -0.2867 -0.9527
  419SOL    HW2 1675   0.468   2.663   1.315  1.8664  0.2850  1.3673
  419SOL     MW 1676   0.473   2.690   1.396  0.1888 -0.2630  0.0452
  420SOL     OW 1677   0.917   2.218   0.967 -0.2985  0.2923  0.9069
  420SOL    HW1 1678   0.844   2.199   1.031  1.9581 -2.8969  3.1940
  420SOL    HW2 1679   0.898   2.303   0.925  2.0938  0.3833 -1.8614
  420SOL     MW 1680   0.905   2.227   0.970  0.3149 -0.1165  0.8434
  421SOL     OW 1681   2.939   0.098   0.093 -0.0134  0.1216 -0.4239
  421SOL    HW1 1682   2.878   0.069   0.031 -0.3437 -1.6399 -1.3069
  421SOL    HW2 1683   2.944   0.019   0.143  1.4197  2.3017 -1.2959
  421SOL     MW 1684   2.932   0.083   0.091  0.1321  0.1768 -0.6554
  422SOL     OW 1685   0.831   2.506   0.904  0.2915  0.0922 -0.3165
  422SOL    HW1 1686   0.748   2.542   0.932  1.3716  0.5825 -0.1690
  422SOL    HW2 1687   0.850   2.537   0.807  0.1868 -1.0759 -1.8423
  422SOL     MW 1688   0.823   2.514   0.895  0.4202  0.0028 -0.4984
  423SOL     OW 1689   1.622   0.091   0.527 -0.0295  0.0529  0.2325
  423SOL    HW1 1690   1.635   0.053   0.442 -0.9168 -0.1033 -0.5952
  423SOL    HW2 1691   1.621   0.184   0.505  0.0836 -0.8856  1.5603
  423SOL     MW 1692   1.624   0.099   0.513 -0.1317 -0.0915  0.2985
  424SOL     OW 1693   0.740   2.176   1.186  0.1338  0.1068  0.4612
  424SOL    HW1 1694   0.643   2.189   1.210  0.7065  0.2583 -0.0368
  424SOL    HW2 1695   0.778   2.201   1.270 -1.1282  0.6007 -2.5724
  424SOL     MW 1696   0.732   2.181   1.200  0.0429  0.1920 -0.0048
  425SOL     OW 1697   1.752   2.797   2.062 -0.4089  0.1088 -0.1038
  425SOL    HW1 1698   1.754   2.794   1.966 -0.8408 -1.9337  0.4195
  425SOL    HW2 1699   1.745   2.704   2.095 -0.4774 -0.1807  1.8174
  425SOL     MW 1700   1.751   2.784   2.053 -0.4749 -0.1989  0.2187
  426SOL     OW 1701   0.766   1.647   1.918  0.2072 -0.0470 -0.1289
  426SOL    HW1 1702   0.693   1.646   1.848 -0.7262 -1.5490  0.6110
  426SOL    HW2 1703   0.742   1.725   1.976 -2.8582 -1.8749  2.3245
  426SOL     MW 1704   0.753   1.657   1.917 -0.3204 -0.4864  0.2924
  427SOL     OW 1705   0.394   1.551   1.874  0.2983 -0.1236 -1.3259
  427SOL    HW1 1706   0.411   1.467   1.836  0.4008  2.9787  1.8719
  427SOL    HW2 1707   0.303   1.550   1.904  0.0024 -1.9788  1.2045
  427SOL     MW 1708   0.384   1.540   1.873  0.2728  0.0410 -0.5701
  428SOL     OW 1709   0.594   2.592   1.170  0.1509  0.0126  0.2449
  428SOL    HW1 1710   0.677   2.572   1.222 -0.1369  2.4241  0.5270
  428SOL    HW2 1711   0.536   2.512   1.180  1.6270 -0.1420  0.6781
  428SOL     MW 1712   0.598   2.579   1.178  0.3077  0.3104  0.3392
  429SOL     OW 1713   1.385   2.807   1.052 -0.3391 -0.8687 -0.0155
  429SOL    HW1 1714   1.304   2.758   1.090 -1.2822 -0.6988  0.3578
  429SOL    HW2 1715   1.346   2.854   0.981  0.3483 -1.9758 -1.4564
  429SOL     MW 1716   1.369   2.807   1.048 -0.3728 -0.9923 -0.1563
  430SOL     OW 1717   1.126   2.719   0.694  0.2459 -0.0800 -0.2239
  430SOL    HW1 1718   1.191   2.653   0.701  2.1830  1.1184  0.0067
  430SOL    HW2 1719   1.092   2.699   0.611  0.3375  0.9476 -0.9057
  430SOL     MW 1720   1.130   2.708   0.684  0.5136  0.2137 -0.2834
  431SOL     OW 1721   0.394   2.033   1.115  0.1848 -0.2530  0.7940
  431SOL    HW1 1722   0.453   1.954   1.109 -1.7535  0.6052  2.2803
  431SOL    HW2 1723   0.361   2.030   1.025  1.5731 -3.1438  3.4541
  431SOL     MW 1724   0.398   2.022   1.102  0.1123 -0.5212  1.3411
  432SOL     OW 1725   0.090   0.041   1.172  0.7228 -0.7594 -0.8146
  432SOL    HW1 1726   0.091   0.087   1.265  1.8005  0.9587  1.8827
  432SOL    HW2 1727   0.008  -0.017   1.174 -0.1207 -0.0255 -0.8226
  432SOL     MW 1728   0.079   0.039   1.184  0.7537 -0.4359 -0.4598
  433SOL     OW 1729   0.668   2.902   1.450 -0.1551 -0.6776  0.0981
  433SOL    HW1 1730   0.734   2.908   1.517  3.0829  1.8395 -0.0986
  433SOL    HW2 1731   0.729   2.906   1.374 -0.5081  1.0547  1.7783
  433SOL     MW 1732   0.685   2.903   1.449  0.2255 -0.1170  0.2939
  434SOL     OW 1733   1.618   2.862   1.520  0.0399 -0.4139  0.2159
  434SOL    HW1 1734   1.541   2.918   1.501 -1.1408 -1.1569  0.1209
  434SOL    HW2 1735   1.651   2.830   1.435 -4.2269  0.3739  0.6887
  434SOL     MW 1736   1.612   2.865   1.506 -0.6788 -0.4080  0.2658
  435SOL     OW 1737   2.832   1.798   0.271  0.1588 -0.0682 -0.7471
  435SOL    HW1 1738   2.886   1.857   0.216  2.5086 -0.3165 -0.9856
  435SOL    HW2 1739   2.811   1.726   0.216  2.1936  1.0984  0.5236
  435SOL     MW 1740   2.836   1.796   0.257  0.7373  0.0530 -0.6109
  436SOL     OW 1741   1.475   2.804   0.318 -0.1925  0.1263  0.0925
  436SOL    HW1 1742   1.536   2.763   0.385 -0.8647 -0.6548 -0.4024
  436SOL    HW2 1743   1.412   2.864   0.365  0.5488  1.0091  0.7930
  436SOL     MW 1744   1.474   2.807   0.333 -0.1834  0.1397  0.1196
  437SOL     OW 1745   0.851   2.922   1.235 -0.2568  0.6313  0.3291
  437SOL    HW1 1746   0.900   3.009   1.243 -0.9283  1.6067 -1.4604
  437SOL    HW2 1747   0.788   2.923   1.162 -1.7614  1.8818 -1.8711
  437SOL     MW 1748   0.849   2.934   1.226 -0.5440  0.9250 -0.1973
  438SOL     OW 1749   0.813   2.503   2.078 -0.3957  0.1542 -0.0859
  438SOL    HW1 1750   0.819   2.448   2.154 -0.4937  1.4970 -2.7467
  438SOL    HW2 1751   0.746   2.458   2.027  0.8758  0.6907  0.0330
  438SOL     MW 1752   0.805   2.490   2.081 -0.2408  0.4021 -0.4213
  439SOL     OW 1753   1.133   2.188   0.335  0.2846  0.1151 -0.3585
  439SOL    HW1 1754   1.076   2.192   0.418  1.0890 -0.0455 -0.9915
  439SOL    HW2 1755   1.131   2.281   0.307 -0.8639  1.2027 -1.9164
  439SOL     MW 1756   1.126   2.201   0.342  0.2392  0.2374 -0.6476
  440SOL     OW 1757   1.620   3.043   2.988 -0.2594 -0.4853  0.4534
  440SOL    HW1 1758   1.622   3.010   3.077  0.9749  0.0198 -1.8366
  440SOL    HW2 1759   1.683   2.984   2.947 -2.1401 -1.2350 -0.1822
  440SOL     MW 1760   1.629   3.031   2.994 -0.3447 -0.5176  0.0674
  441SOL     OW 1761   0.350   2.640   0.512 -0.4719 -0.3364  0.2756
  441SOL    HW1 1762   0.342   2.598   0.425 -0.6517 -0.6174  2.9549
  441SOL    HW2 1763   0.356   2.733   0.489  1.1790  1.8768  2.7949
  441SOL     MW 1764   0.349   2.647   0.498 -0.2778 -0.0815  0.9615
  442SOL     OW 1765   0.006   2.366   0.612  0.0108 -0.2456  0.1187
  442SOL    HW1 1766   0.008   2.464   0.588  1.0760  2.2711 -0.5176
  442SOL    HW2 1767  -0.089   2.348   0.620 -0.4534  0.7329 -0.5659
  442SOL     MW 1768  -0.006   2.377   0.610  0.0901  0.2156 -0.0556
  443SOL     OW 1769   1.423   1.701   1.922 -0.1336  0.9881 -0.0892
  443SOL    HW1 1770   1.371   1.732   1.850  1.9127 -4.2306  1.8770
  443SOL    HW2 1771   1.370   1.622   1.947 -0.7651 -3.0384 -1.6749
  443SOL     MW 1772   1.409   1.695   1.916  0.0530 -0.2317 -0.0390
  444SOL     OW 1773   0.880   2.604   1.565 -0.7970 -0.1875  0.3669
  444SOL    HW1 1774   0.953   2.588   1.624  2.6462  0.6140 -0.1731
  444SOL    HW2 1775   0.803   2.625   1.617  3.7364  0.2353 -0.9925
  444SOL     MW 1776   0.879   2.605   1.580  0.2554 -0.0260  0.1163
  445SOL     OW 1777   0.956   0.056   1.250  0.4640  0.0147  0.4707
  445SOL    HW1 1778   0.893   0.133   1.239 -2.1427  1.3490  0.8791
  445SOL    HW2 1779   1.033   0.079   1.196  1.9599  0.7359 -2.1004
  445SOL     MW 1780   0.958   0.069   1.241  0.3175  0.2859  0.1853
  446SOL     OW 1781   2.721   2.851   1.055 -0.1250  0.1251 -0.4308
  446SOL    HW1 1782   2.685   2.893   0.974 -1.6349  0.7900  2.0525
  446SOL    HW2 1783   2.755   2.761   1.031  1.5890  1.7753 -1.0603
  446SOL     MW 1784   2.721   2.845   1.041 -0.0981  0.4305 -0.1862
  447SOL     OW 1785   3.024   2.033   1.678  0.1564  0.6542  0.2029
  447SOL    HW1 1786   3.067   1.966   1.737  0.0246 -0.9980 -0.9960
  447SOL    HW2 1787   2.959   1.987   1.620 -0.5752 -0.3066 -0.6649
  447SOL     MW 1788   3.021   2.018   1.678  0.0425  0.3095 -0.0698
  448SOL     OW 1789   1.683   2.390   1.683 -0.0367  0.1956 -0.0570
  448SOL    HW1 1790   1.618   2.321   1.671  2.2887 -0.2424 -0.6801
  448SOL    HW2 1791   1.639   2.477   1.667 -2.0349  0.2379  0.6607
  448SOL     MW 1792   1.668   2.392   1.679  0.0065  0.1434 -0.0445
  449SOL     OW 1793   0.848   2.887   0.389 -0.3699  0.2547  0.0049
  449SOL    HW1 1794   0.794   2.887   0.306 -0.3076  2.3288  0.8410
  449SOL    HW2 1795   0.777   2.881   0.450  1.4200  0.1129  0.2128
  449SOL     MW 1796   0.831   2.887   0.386 -0.1255  0.5097  0.1426
  450SOL     OW 1797   1.192   2.436   0.633 -0.1289  0.0992 -0.2590
  450SOL    HW1 1798   1.190   2.395   0.717 -0.2088 -3.2734 -0.1735
  450SOL    HW2 1799   1.285   2.417   0.613  0.1338 -1.6777 -0.3260
  450SOL     MW 1800   1.204   2.428   0.641 -0.1048 -0.5802 -0.2565
  451SOL     OW 1801   0.631   1.938   1.646  0.1742  0.7819  0.2355
  451SOL    HW1 1802   0.708   1.990   1.658  0.7878 -1.9862 -0.6262
  451SOL    HW2 1803   0.608   1.942   1.549 -4.3462  1.0429  0.4583
  451SOL     MW 1804   0.638   1.945   1.635 -0.3413  0.4512  0.1512
  452SOL     OW 1805   0.314   2.651   0.017 -0.4720  0.4429 -0.5307
  452SOL    HW1 1806   0.405   2.686   0.032  0.7861 -0.0031  0.8117
  452SOL    HW2 1807   0.305   2.650  -0.076  1.3006  1.8301 -1.1139
  452SOL     MW 1808   0.325   2.656   0.007 -0.0721  0.5671 -0.4305
  453SOL     OW 1809   0.413   3.003   1.658  0.4964 -0.3777 -0.6279
  453SOL    HW1 1810   0.478   3.068   1.619 -2.4800  0.1707 -0.5629
  453SOL    HW2 1811   0.343   3.005   1.592  0.8703 -0.7700 -0.4538
  453SOL     MW 1812   0.412   3.012   1.644  0.1530 -0.3571 -0.5964
  454SOL     OW 1813   1.143   2.754   1.162 -0.2928 -0.0458  0.4226
  454SOL    HW1 1814   1.103   2.680   1.112  0.4844 -0.7947 -0.2309
  454SOL    HW2 1815   1.080   2.823   1.156 -3.0758 -1.3629 -1.1301
  454SOL     MW 1816   1.130   2.754   1.154 -0.5574 -0.3184  0.1315
  455SOL     OW 1817   1.628   2.943   0.136  0.5883  0.0757  0.0675
  455SOL    HW1 1818   1.710   2.963   0.182 -1.1888  0.5838  2.0416
  455SOL    HW2 1819   1.577   2.884   0.188 -1.4381  1.4870 -0.6121
  455SOL     MW 1820   1.632   2.938   0.149  0.0865  0.3290  0.2383
  456SOL     OW 1821   2.856   0.309   1.388  0.5375 -0.1477  0.1613
  456SOL    HW1 1822   2.813   0.235   1.349  0.2621  0.4825 -2.8554
  456SOL    HW2 1823   2.915   0.349   1.318  0.2312 -1.0134  0.4405
  456SOL     MW 1824   2.858   0.305   1.374  0.4608 -0.1787 -0.1998
  457SOL     OW 1825   0.936   1.525   2.964  0.5262  0.1833  0.3546
  457SOL    HW1 1826   0.875   1.517   3.042 -0.2621  2.4818  1.5781
  457SOL    HW2 1827   1.005   1.464   2.978 -0.2710  1.1208 -0.8320
  457SOL     MW 1828   0.937   1.516   2.976  0.3170  0.6103  0.3595
  458SOL     OW 1829   1.437   1.341   0.645  0.2113  0.7372 -0.3677
  458SOL    HW1 1830   1.365   1.387   0.697  1.8190  0.2993 -0.8582
  458SOL    HW2 1831   1.394   1.297   0.570  1.7162  0.9447 -2.2488
  458SOL     MW 1832   1.422   1.342   0.642  0.6220  0.7068 -0.6806
  459SOL     OW 1833   1.617   0.105   0.204  0.2244 -0.3049  0.0834
  459SOL    HW1 1834   1.588   0.014   0.211  0.9249  2.3896 -0.7825
  459SOL    HW2 1835   1.535   0.152   0.180 -0.5473  1.3127  2.7059
  459SOL     MW 1836   1.602   0.099   0.202  0.2150  0.2640  0.3151
  460SOL     OW 1837   1.746   2.164   0.624 -0.6105  0.3748 -0.2982
  460SOL    HW1 1838   1.659   2.146   0.652  2.4878 -2.3060 -3.8086
  460SOL    HW2 1839   1.756   2.075   0.583 -0.3365  0.0365  1.9809
  460SOL     MW 1840   1.736   2.150   0.622 -0.1656 -0.0235 -0.4606
  461SOL     OW 1841   0.365   2.318   0.648  0.3611  0.1873  0.3621
  461SOL    HW1 1842   0.282   2.362   0.631 -3.0238  1.2173 -0.0153
  461SOL    HW2 1843   0.383   2.360   0.733  1.3629 -0.8181  1.5427
  461SOL     MW 1844   0.357   2.329   0.657  0.0466  0.1905  0.4681
  462SOL     OW 1845   0.406   0.247   1.363 -0.0896 -0.0494 -0.1188
  462SOL    HW1 1846   0.434   0.154   1.358 -0.8315  1.6898  1.0234
  462SOL    HW2 1847   0.490   0.305   1.346 -0.6971  1.5571 -0.9937
  462SOL     MW 1848   0.421   0.242   1.360 -0.2677  0.3920 -0.0835
  463SOL     OW 1849   0.956   3.084   0.672 -0.6238  0.3062 -0.0999
  463SOL    HW1 1850   1.015   3.055   0.597 -2.1274 -1.8424  0.4961
  463SOL    HW2 1851   0.864   3.079   0.645  0.9126  0.0869  0.8861
  463SOL     MW 1852   0.952   3.079   0.658 -0.6195 -0.0062  0.1088
  464SOL     OW 1853   0.872   2.987   2.214  0.0087  0.0520 -0.8287
  464SOL    HW1 1854   0.828   2.901   2.204 -0.2761 -3.3772 -2.5289
  464SOL    HW2 1855   0.883   3.015   2.304  0.5313  0.1286 -2.1492
  464SOL     MW 1856   0.868   2.979   2.225  0.0401 -0.3903 -1.2272
  465SOL     OW 1857   0.698   0.288   0.482 -0.1930 -0.5235  0.0131
  465SOL    HW1 1858   0.697   0.217   0.551 -0.9653 -1.1912  0.4295
  465SOL    HW2 1859   0.743   0.239   0.410  0.1795 -2.1870  1.8590
  465SOL     MW 1860   0.704   0.272   0.482 -0.2457 -0.8311  0.3116
  466SOL     OW 1861   1.098   2.003   0.740  0.2036 -0.2720 -0.5629
  466SOL    HW1 1862   1.104   1.931   0.678  0.1784  0.3427  2.4407
  466SOL    HW2 1863   1.083   2.085   0.694  2.1344 -0.4540  0.5107
  466SOL     MW 1864   1.097   2.005   0.726  0.4550 -0.2149 -0.0249
  467SOL     OW 1865   1.255   2.359   0.911  0.4248  0.2532  0.2162
  467SOL    HW1 1866   1.347   2.376   0.892 -1.0389  2.9521  1.5685
  467SOL    HW2 1867   1.260   2.272   0.950 -3.6326 -1.3759  3.7896
  467SOL     MW 1868   1.268   2.349   0.914 -0.3037  0.3944  0.8661
  468SOL     OW 1869   0.328   2.615   2.007 -0.0468  0.3712 -0.6605
  468SOL    HW1 1870   0.329   2.526   1.970 -2.3516 -0.1075  2.0820
  468SOL    HW2 1871   0.384   2.672   1.951  1.4977  1.7181  1.5383
  468SOL     MW 1872   0.336   2.611   1.995 -0.1471  0.4858 -0.0085
  469SOL     OW 1873   0.419   2.074   1.759  0.5029 -0.3796  0.2559
  469SOL    HW1 1874   0.346   2.051   1.700 -1.7228  1.7234  1.9557
  469SOL    HW2 1875   0.505   2.029   1.736  0.7112  0.2346 -0.8634
  469SOL     MW 1876   0.421   2.065   1.748  0.2367 -0.0211  0.3325
  470SOL     OW 1877   3.090   2.607   0.208 -0.5182  0.3568 -0.0257
  470SOL    HW1 1878   3.009   2.565   0.232 -1.0566  0.8440 -0.5038
  470SOL    HW2 1879   3.091   2.625   0.117 -0.3574  2.1860  1.1945
  470SOL     MW 1880   3.079   2.604   0.199 -0.5680  0.6624  0.0722
  471SOL     OW 1881   1.228   2.743   1.438  0.1426 -0.0204  0.1040
  471SOL    HW1 1882   1.144   2.771   1.476 -0.1412 -1.3837  1.3836
  471SOL    HW2 1883   1.214   2.737   1.347 -2.8080 -1.9240 -0.5733
  471SOL     MW 1884   1.215   2.746   1.431 -0.2842 -0.4514  0.1835
  472SOL     OW 1885   2.952   2.097   0.405 -0.0233  0.2867 -0.2023
  472SOL    HW1 1886   2.961   2.057   0.320  1.4296  2.2989  2.6280
  472SOL    HW2 1887   2.947   2.013   0.451 -1.1000  0.0257  0.9454
  472SOL     MW 1888   2.952   2.081   0.400  0.0263  0.5177  0.3226
  473SOL     OW 1889   0.803   2.516   1.307 -0.8460  0.2427  0.3143
  473SOL    HW1 1890   0.883   2.468   1.279 -0.2226 -1.0258  0.0792
  473SOL    HW2 1891   0.826   2.539   1.399  1.7378  2.7682  0.4717
  473SOL     MW 1892   0.817   2.513   1.316 -0.4228  0.4086  0.3041
  474SOL     OW 1893   0.838   2.118   1.726 -0.5071  0.5765 -0.0432
  474SOL    HW1 1894   0.917   2.097   1.762  0.2650  0.2249 -0.8024
  474SOL    HW2 1895   0.860   2.168   1.647  0.3148 -0.0699  0.8280
  474SOL     MW 1896   0.852   2.122   1.720 -0.2968  0.4448 -0.0285
  475SOL     OW 1897   1.679   0.004   1.349 -0.1586 -0.3553  0.8581
  475SOL    HW1 1898   1.610   0.023   1.280 -0.8711 -1.1738  0.5833
  475SOL    HW2 1899   1.651  -0.082   1.378  1.4734 -1.6264  1.1251
  475SOL     MW 1900   1.666  -0.005   1.343 -0.0372 -0.6310  0.8571
  476SOL     OW 1901   1.462   2.612   0.824  0.1303 -0.1859 -0.5604
  476SOL    HW1 1902   1.420   2.662   0.901 -3.2042 -0.1874  0.0168
  476SOL    HW2 1903   1.499   2.690   0.776  0.1609  0.2291 -1.4457
  476SOL     MW 1904   1.462   2.629   0.828 -0.3056 -0.1313 -0.6011
  477SOL     OW 1905   0.822   2.520   0.608  0.0226 -0.8077 -0.3225
  477SOL    HW1 1906   0.886   2.562   0.559 -0.8969  0.6454  1.3981
  477SOL    HW2 1907   0.798   2.439   0.555 -2.6106 -1.3989  2.3210
  477SOL     MW 1908   0.827   2.515   0.595 -0.4461 -0.6939  0.2533
  478SOL     OW 1909   0.164   2.674   0.987  0.5618 -0.6206  0.3776
  478SOL    HW1 1910   0.208   2.746   0.949  1.6356 -0.8371  0.8333
  478SOL    HW2 1911   0.222   2.604   0.962 -1.9615 -1.4844  0.0895
  478SOL     MW 1912   0.177   2.674   0.979  0.3706 -0.7632  0.3997
  479SOL     OW 1913   1.463   1.930   1.313 -0.4148 -0.4158  0.1686
  479SOL    HW1 1914   1.412   1.964   1.387  1.5476  0.3337 -0.9346
  479SOL    HW2 1915   1.541   1.890   1.358 -1.0961  1.6669 -0.5985
  479SOL     MW 1916   1.467   1.929   1.329 -0.2458 -0.0421 -0.0782
  480SOL     OW 1917   1.843   2.427   1.356 -0.5028  0.0038 -0.1535
  480SOL    HW1 1918   1.847   2.344   1.408  0.8447  0.4691 -3.0439
  480SOL    HW2 1919   1.875   2.407   1.271 -3.0176 -1.1130  0.3964
  480SOL     MW 1920   1.848   2.413   1.352 -0.6568 -0.0821 -0.4623
  481SOL     OW 1921   1.159   0.155   1.084 -0.3803 -0.1408  0.0686
  481SOL    HW1 1922   1.215   0.153   1.008 -0.2529 -0.5192 -1.4604
  481SOL    HW2 1923   1.168   0.247   1.118 -0.3025 -0.6202  1.3379
  481SOL     MW 1924   1.167   0.167   1.078 -0.3532 -0.2539  0.0344
  482SOL     OW 1925   1.061   3.045   0.437  0.3677  0.2953 -0.0911
  482SOL    HW1 1926   0.997   2.978   0.413 -0.8989  1.8175 -0.0585
  482SOL    HW2 1927   1.023   3.127   0.404  1.6030 -0.7600 -0.5724
  482SOL     MW 1928   1.048   3.047   0.430  0.3635  0.3569 -0.1503
  483SOL     OW 1929   0.385   2.920   0.487 -0.5652 -0.1160  0.3176
  483SOL    HW1 1930   0.301   2.947   0.442  3.0841 -1.8324  0.8112
  483SOL    HW2 1931   0.376   2.946   0.577  1.0735 -1.8639  0.0636
  483SOL     MW 1932   0.373   2.927   0.493  0.1325 -0.5731  0.3492
  484SOL     OW 1933   1.685   1.826   1.449 -0.4030  0.3313  0.1347
  484SOL    HW1 1934   1.727   1.908   1.416 -0.7822  1.9699  0.7596
  484SOL    HW2 1935   1.678   1.847   1.542  0.2770  0.0662 -1.1004
  484SOL     MW 1936   1.689   1.840   1.457 -0.3633  0.5125  0.0542
  485SOL     OW 1937   0.440   2.314   0.320  0.8893 -0.2604 -0.1518
  485SOL    HW1 1938   0.416   2.309   0.411  1.5029 -3.6135 -0.4129
  485SOL    HW2 1939   0.383   2.383   0.292  3.2950 -1.3428 -1.6512
  485SOL     MW 1940   0.429   2.323   0.328  1.2877 -0.8456 -0.3841
  486SOL     OW 1941   0.104   2.482   1.474 -0.0020  0.7223 -0.1844
  486SOL    HW1 1942   0.100   2.569   1.436 -2.4464  1.1566  1.7569
  486SOL    HW2 1943   0.139   2.491   1.565  0.8992  1.0575  3.2074
  486SOL     MW 1944   0.108   2.494   1.481 -0.2056  0.8238  0.5192
  487SOL     OW 1945   1.309   1.556   1.118  0.4111  0.3236  0.1591
  487SOL    HW1 1946   1.297   1.651   1.123 -1.1803  0.6033  1.4623
  487SOL    HW2 1947   1.402   1.547   1.083  1.5589  0.7619 -0.9132
  487SOL     MW 1948   1.319   1.568   1.114  0.3526  0.4183  0.1896
  488SOL     OW 1949   1.425   1.790   0.586 -0.1099  0.3218 -0.0883
  488SOL    HW1 1950   1.410   1.873   0.539 -2.2594 -0.2508 -1.2442
  488SOL    HW2 1951   1.361   1.734   0.548 -0.3420  0.9234 -2.0759
  488SOL     MW 1952   1.415   1.794   0.575 -0.4241  0.3256 -0.5030
  489SOL     OW 1953   0.703   0.667   0.480 -0.1619  0.1941  0.4651
  489SOL    HW1 1954   0.640   0.598   0.448 -0.3249 -1.3089  2.6823
  489SOL    HW2 1955   0.667   0.692   0.566  2.3152 -1.0658  0.5221
  489SOL     MW 1956   0.690   0.661   0.487  0.1434 -0.1705  0.7652
  490SOL     OW 1957   1.358   2.085   0.451 -0.6259  0.1673  1.1381
  490SOL    HW1 1958   1.437   2.111   0.402 -0.1340 -0.0107  0.6757
  490SOL    HW2 1959   1.285   2.126   0.398 -0.1450 -1.4054  1.5133
  490SOL     MW 1960   1.358   2.094   0.437 -0.4975 -0.0637  1.1266
  491SOL     OW 1961   1.327   3.000   0.409 -0.2381 -0.2075 -0.0362
  491SOL    HW1 1962   1.369   3.062   0.464  1.9136 -1.6805 -1.6042
  491SOL    HW2 1963   1.227   2.997   0.406 -2.1281  1.6663 -1.1495
  491SOL     MW 1964   1.319   3.008   0.416 -0.2036 -0.1546 -0.3899
  492SOL     OW 1965   1.474   2.151   0.702  0.5053 -0.2533  0.0879
  492SOL    HW1 1966   1.428   2.127   0.623  1.7048 -0.1413 -0.2451
  492SOL    HW2 1967   1.422   2.115   0.767  0.3891  0.4775 -2.2961
  492SOL     MW 1968   1.461   2.143   0.700  0.6482 -0.1421 -0.2706
  493SOL     OW 1969   0.206   3.037   0.328 -0.2027  0.5574  0.1781
  493SOL    HW1 1970   0.132   3.079   0.358 -0.4330 -0.0824 -2.4055
  493SOL    HW2 1971   0.180   2.999   0.247  0.0410  1.1174 -0.0910
  493SOL     MW 1972   0.193   3.038   0.321 -0.2009  0.5468 -0.1983
  494SOL     OW 1973   0.386   2.345   1.822 -0.3191 -0.3652 -0.2694
  494SOL    HW1 1974   0.399   2.246   1.814  1.7567 -0.9631  1.2790
  494SOL    HW2 1975   0.408   2.379   1.737 -3.2086 -0.3108 -2.4926
  494SOL     MW 1976   0.390   2.336   1.810 -0.4265 -0.4369 -0.3584
  495SOL     OW 1977   2.800   1.626   2.664 -0.6427 -0.5604 -0.1902
  495SOL    HW1 1978   2.812   1.696   2.729 -0.1990 -0.4888 -0.7751
  495SOL    HW2 1979   2.776   1.552   2.717  3.4326 -0.4334 -0.1473
  495SOL     MW 1980   2.798   1.625   2.680 -0.0465 -0.5342 -0.2617
  496SOL     OW 1981   2.824   2.290   2.748  0.2046 -0.2611 -0.4441
  496SOL    HW1 1982   2.831   2.209   2.794 -0.7578  0.2949 -3.0222
  496SOL    HW2 1983   2.906   2.340   2.747 -1.1940  0.8269 -0.3962
  496SOL     MW 1984   2.836   2.286   2.754 -0.1069 -0.0442 -0.7779
  497SOL     OW 1985   1.477   2.414   2.564  0.4440 -0.6047 -0.4978
  497SOL    HW1 1986   1.482   2.340   2.496 -0.6174 -0.2453 -1.4331
  497SOL    HW2 1987   1.464   2.361   2.642 -2.3950  0.2127  0.2464
  497SOL     MW 1988   1.476   2.397   2.566 -0.0706 -0.4494 -0.5230
  498SOL     OW 1989   1.477   2.739   2.315 -0.2796  0.2256 -0.1926
  498SOL    HW1 1990   1.451   2.649   2.308  0.7154 -0.3975 -0.5433
  498SOL    HW2 1991   1.556   2.747   2.370 -3.2651  0.8699  5.0405
  498SOL     MW 1992   1.484   2.728   2.321 -0.5423  0.2284  0.4515
  499SOL     OW 1993   0.967   0.069   0.111  0.1778  0.1282  0.0120
  499SOL    HW1 1994   0.884   0.102   0.143  1.9908  0.2208 -2.4521
  499SOL    HW2 1995   0.940  -0.008   0.060  1.4877 -1.0641  0.3371
  499SOL     MW 1996   0.953   0.063   0.109  0.5898 -0.0169 -0.2703
  500SOL     OW 1997   1.035   2.536   2.729 -0.1036 -0.0016 -0.2860
  500SOL    HW1 1998   1.093   2.521   2.807  0.3079 -0.5053 -1.5982
  500SOL    HW2 1999   0.997   2.622   2.749 -0.7477 -0.7994 -0.2046
  500SOL     MW 2000   1.038   2.545   2.742 -0.1343 -0.1733 -0.4484
  501SOL     OW 2001   1.807   2.297   2.933  0.2124 -0.1054 -0.4489
  501SOL    HW1 2002   1.786   2.382   2.895  0.4646 -0.7099  0.5258
  501SOL    HW2 2003   1.896   2.300   2.970 -0.4179 -1.7005  0.4780
  501SOL     MW 2004   1.816   2.309   2.933  0.1625 -0.3956 -0.1980
  502SOL     OW 2005   0.320   2.748   2.861 -0.2943  0.2479  0.5016
  502SOL    HW1 2006   0.369   2.779   2.782  1.7707  0.1986  2.9378
  502SOL    HW2 2007   0.272   2.829   2.883 -1.2202  0.0782 -2.5488
  502SOL     MW 2008   0.320   2.763   2.853 -0.1440  0.2190  0.4206
  503SOL     OW 2009   1.108   2.483   2.072  0.3327  0.5733  0.1527
  503SOL    HW1 2010   1.164   2.564   2.061  1.4506  1.6388  1.0796
  503SOL    HW2 2011   1.032   2.478   2.015 -2.8344  0.7388  0.5807
  503SOL     MW 2012   1.106   2.493   2.063  0.0623  0.7357  0.3315
  504SOL     OW 2013   0.060   2.636   2.198 -0.1531  0.2982  0.3916
  504SOL    HW1 2014   0.109   2.560   2.167 -1.5835  0.4854 -2.0110
  504SOL    HW2 2015  -0.003   2.598   2.268 -0.5223  0.3077  2.2691
  504SOL     MW 2016   0.058   2.621   2.203 -0.3905  0.3241  0.3223
  505SOL     OW 2017   1.581   2.833   2.742 -0.2927 -0.5015 -0.0498
  505SOL    HW1 2018   1.625   2.849   2.654 -0.9773 -0.8881 -0.1748
  505SOL    HW2 2019   1.499   2.887   2.751 -1.2432 -2.5493 -1.2954
  505SOL     MW 2020   1.576   2.842   2.731 -0.5084 -0.8227 -0.2306
  506SOL     OW 2021   1.576   0.142   2.756  0.7325  0.0396 -0.5133
  506SOL    HW1 2022   1.571   0.092   2.836  0.9478 -2.1036  1.1895
  506SOL    HW2 2023   1.622   0.083   2.699 -1.7601  1.4716  0.8172
  506SOL     MW 2024   1.582   0.128   2.759  0.4320 -0.0542 -0.1131
  507SOL     OW 2025   0.810   2.682   2.836  0.3617 -0.1324  0.2366
  507SOL    HW1 2026   0.809   2.734   2.755  0.4212 -2.7830 -0.4151
  507SOL    HW2 2027   0.729   2.635   2.837  2.3448 -2.9087 -0.1015
  507SOL     MW 2028   0.799   2.683   2.826  0.6312 -0.8484  0.1060
  508SOL     OW 2029   1.205   2.150   2.538 -0.0247 -0.2432 -0.5619
  508SOL    HW1 2030   1.267   2.180   2.603  3.2191  1.2469 -0.4354
  508SOL    HW2 2031   1.123   2.158   2.580  1.9930 -0.7054  0.3114
  508SOL     MW 2032   1.203   2.155   2.552  0.6695 -0.1076 -0.4300
  509SOL     OW 2033   0.566   2.552   2.862  0.2558 -0.3130 -0.2557
  509SOL    HW1 2034   0.568   2.496   2.776  0.8615 -1.3679  0.6317
  509SOL    HW2 2035   0.503   2.625   2.849  2.8684 -0.9073 -0.5261
  509SOL     MW 2036   0.558   2.554   2.849  0.6805 -0.5306 -0.1743
  510SOL     OW 2037   1.523   2.637   1.645  0.3657 -0.0335 -0.1207
  510SOL    HW1 2038   1.558   2.714   1.603 -0.4040 -1.1486 -1.3483
  510SOL    HW2 2039   1.464   2.677   1.708  0.3500 -0.2265 -0.8033
  510SOL     MW 2040   1.520   2.652   1.648  0.2620 -0.2061 -0.3727
  511SOL     OW 2041   0.405   2.568   2.515  0.0373 -0.6489  0.0320
  511SOL    HW1 2042   0.468   2.502   2.555  2.8895 -1.5948  2.0547
  511SOL    HW2 2043   0.430   2.574   2.420  0.3939 -0.8900 -0.9308
  511SOL     MW 2044   0.416   2.560   2.508  0.4607 -0.8055  0.1718
  512SOL     OW 2045   0.941   1.971   2.814  0.5592 -0.7009  0.1975
  512SOL    HW1 2046   0.864   2.015   2.849 -0.8170  2.1208 -0.7336
  512SOL    HW2 2047   0.964   1.891   2.867  1.2144 -1.1523  0.4003
  512SOL     MW 2048   0.934   1.967   2.826  0.4641 -0.3882  0.1014
  513SOL     OW 2049   1.505   2.412   2.253  0.3122  0.4483  0.7077
  513SOL    HW1 2050   1.587   2.450   2.211  1.5344 -1.3570  0.6113
  513SOL    HW2 2051   1.534   2.332   2.295  1.7024  0.4562 -0.1146
  513SOL     MW 2052   1.520   2.407   2.253  0.6569  0.2111  0.5865
  514SOL     OW 2053   0.221   2.380   2.681  0.0128 -0.1946  0.3828
  514SOL    HW1 2054   0.288   2.421   2.625  0.2266  3.0811  2.5888
  514SOL    HW2 2055   0.265   2.344   2.760 -0.2952  1.4037 -0.2167
  514SOL     MW 2056   0.236   2.381   2.684  0.0003  0.4485  0.5948
  515SOL     OW 2057   1.070   2.010   1.894  0.0138 -0.2007 -0.0646
  515SOL    HW1 2058   1.092   2.102   1.860  1.2284  1.5061 -3.0576
  515SOL    HW2 2059   1.146   1.976   1.933 -1.4604 -0.5862 -1.3160
  515SOL     MW 2060   1.083   2.017   1.894 -0.0205 -0.0264 -0.6246
  516SOL     OW 2061   1.347   2.625   2.910 -0.4663 -0.0152 -0.3432
  516SOL    HW1 2062   1.353   2.638   2.816  0.4469 -1.6845 -0.7367
  516SOL    HW2 2063   1.286   2.556   2.920  2.6282  1.8180  1.6902
  516SOL     MW 2064   1.340   2.618   2.899  0.0624  0.0064 -0.1268
  517SOL     OW 2065   0.448   2.268   2.327  0.4641  0.1849  0.0865
  517SOL    HW1 2066   0.438   2.366   2.336 -0.6288 -0.5356 -1.2493
  517SOL    HW2 2067   0.416   2.255   2.235  1.0693 -0.1244 -0.9949
  517SOL     MW 2068   0.443   2.279   2.316  0.3998  0.0490 -0.2325
  518SOL     OW 2069   1.730   0.199   3.041 -0.6221 -0.0769  0.3765
  518SOL    HW1 2070   1.746   0.209   3.134  0.3635  0.3629  0.7890
  518SOL    HW2 2071   1.708   0.112   3.050  2.0140  0.5379  1.7360
  518SOL     MW 2072   1.729   0.189   3.055 -0.1442  0.0622  0.6103
  519SOL     OW 2073   0.597   2.354   1.976  0.2676  0.1583  0.0290
  519SOL    HW1 2074   0.631   2.267   1.978  0.4822  1.1739  4.5167
  519SOL    HW2 2075   0.517   2.355   1.917  0.3725  2.5088  0.9464
  519SOL     MW 2076   0.591   2.343   1.969  0.3097  0.6024  0.7422
  520SOL     OW 2077   1.160   2.127   2.892  0.5215 -0.0720 -0.0990
  520SOL    HW1 2078   1.085   2.075   2.856  0.5239 -0.1565  3.0035
  520SOL    HW2 2079   1.210   2.083   2.960  2.3195 -0.0222 -3.2789
  520SOL     MW 2080   1.157   2.114   2.897  0.7591 -0.0766 -0.1092
  521SOL     OW 2081   1.686   2.066   2.211  0.2216 -0.4622  0.0623
  521SOL    HW1 2082   1.759   2.081   2.146 -1.7171 -3.3863 -0.6324
  521SOL    HW2 2083   1.697   1.963   2.228  4.0781 -0.6310  0.9014
  521SOL     MW 2084   1.697   2.055   2.204  0.4746 -0.8703  0.0814
  522SOL     OW 2085   2.842   2.563   2.161 -0.4500 -0.0257 -0.0565
  522SOL    HW1 2086   2.908   2.511   2.201  0.2935  1.8301 -1.6598
  522SOL    HW2 2087   2.879   2.635   2.122  1.8422 -0.9117  2.0677
  522SOL     MW 2088   2.856   2.566   2.161 -0.0495  0.1023  0.0122
  523SOL     OW 2089   0.821   1.479   2.145  0.0919 -0.6448  0.4251
  523SOL    HW1 2090   0.787   1.533   2.071  0.9616  1.4012 -1.2089
  523SOL    HW2 2091   0.885   1.426   2.099 -0.4939  0.7732  2.2933
  523SOL     MW 2092   0.825   1.479   2.129  0.1293 -0.1877  0.4560
  524SOL     OW 2093   0.570   2.371   3.047  0.1331 -0.7135 -0.1573
  524SOL    HW1 2094   0.598   2.435   2.975 -1.0011  0.4496  2.5977
  524SOL    HW2 2095   0.647   2.317   3.066 -3.1337  3.4910 -1.8514
  524SOL     MW 2096   0.584   2.372   3.040 -0.4476 -0.0053 -0.0173
  525SOL     OW 2097   0.305   2.171   2.099 -0.2535 -0.1549 -0.3264
  525SOL    HW1 2098   0.267   2.116   2.175  0.8398  2.1380 -0.0618
  525SOL    HW2 2099   0.346   2.102   2.044  2.5057  0.8236  1.0003
  525SOL     MW 2100   0.305   2.155   2.102  0.2548  0.2767 -0.1164
  526SOL     OW 2101   0.671   2.079   1.958  0.7497 -0.4557  0.3378
  526SOL    HW1 2102   0.698   2.098   1.873  1.6955 -1.1929 -3.0154
  526SOL    HW2 2103   0.745   2.085   2.012 -0.8227  0.3877  0.7970
  526SOL     MW 2104   0.684   2.082   1.954  0.6670 -0.4417 -0.0440
  527SOL     OW 2105   1.279   1.923   2.071  0.1191 -0.0591  0.0635
  527SOL    HW1 2106   1.209   1.893   2.122  2.0655 -0.5996 -1.3341
  527SOL    HW2 2107   1.331   1.856   2.036  0.7929  0.0007  0.0076
  527SOL     MW 2108   1.277   1.910   2.073  0.4648 -0.1226 -0.1283
  528SOL     OW 2109   0.615   2.925   2.950 -0.4657 -0.1992  0.1553
  528SOL    HW1 2110   0.649   3.013   2.957 -2.7546 -0.2666  1.0857
  528SOL    HW2 2111   0.602   2.898   2.863 -1.3541 -0.2117  2.0968
  528SOL     MW 2112   0.618   2.933   2.939 -0.8849 -0.2097  0.5342
  529SOL     OW 2113   1.107   2.300   1.794 -0.0897 -0.2618  0.2983
  529SOL    HW1 2114   1.174   2.290   1.863  0.7179  0.5598  0.1873
  529SOL    HW2 2115   1.165   2.297   1.717  1.8564  1.4907  1.4021
  529SOL     MW 2116   1.123   2.298   1.793  0.2736  0.0779  0.4293
  530SOL     OW 2117   1.139   2.415   2.943  0.5305  0.3712  0.0063
  530SOL    HW1 2118   1.083   2.433   3.015  0.4158 -1.0295 -0.2940
  530SOL    HW2 2119   1.141   2.317   2.936  3.1756 -0.2065  0.8863
  530SOL     MW 2120   1.132   2.405   2.952  0.8644  0.1102  0.0828
  531SOL     OW 2121   0.888   1.821   2.600 -0.2071 -0.1352  0.1061
  531SOL    HW1 2122   0.897   1.894   2.670  0.9481  1.8133  2.7195
  531SOL    HW2 2123   0.867   1.734   2.643  1.9726 -1.9146  1.3988
  531SOL     MW 2124   0.887   1.819   2.615  0.2329 -0.1129  0.6215
  532SOL     OW 2125   1.730   0.364   2.801  0.5975  0.2188  0.3777
  532SOL    HW1 2126   1.679   0.285   2.775 -1.7979 -0.3233 -1.8140
  532SOL    HW2 2127   1.745   0.347   2.893 -0.0525 -2.5036  2.1110
  532SOL     MW 2128   1.725   0.352   2.810  0.1957 -0.2119  0.3172
  533SOL     OW 2129   1.789   2.846   2.905 -0.2800 -0.2039 -0.1205
  533SOL    HW1 2130   1.753   2.774   2.966 -0.7357 -1.1821 -0.9057
  533SOL    HW2 2131   1.727   2.844   2.829  1.5621  1.0425  0.2015
  533SOL     MW 2132   1.776   2.836   2.903 -0.0971 -0.1685 -0.1816
  534SOL     OW 2133   1.776   2.538   2.516 -0.1562 -0.1203  0.0996
  534SOL    HW1 2134   1.685   2.500   2.518  2.8118  0.0019  1.5210
  534SOL    HW2 2135   1.827   2.525   2.593 -2.4878 -0.4858 -3.2857
  534SOL     MW 2136   1.771   2.532   2.527 -0.0723 -0.1524 -0.1595
  535SOL     OW 2137   1.809   2.388   1.925 -0.1739  0.0772  0.0040
  535SOL    HW1 2138   1.761   2.400   1.844  2.3800  3.0530  0.4822
  535SOL    HW2 2139   1.904   2.409   1.913  2.2141 -2.3693  1.3565
  535SOL     MW 2140   1.815   2.392   1.913  0.4781  0.1471  0.2455
  536SOL     OW 2141   0.395   1.921   1.976  0.2482 -0.5798 -0.2766
  536SOL    HW1 2142   0.401   1.955   1.882  0.2236 -0.3699 -0.8581
  536SOL    HW2 2143   0.480   1.877   1.990 -0.7935 -0.6380  2.0229
  536SOL     MW 2144   0.407   1.920   1.965  0.1075 -0.5598 -0.0499
  537SOL     OW 2145   1.011   0.169   2.959  0.0596  0.6716  0.0099
  537SOL    HW1 2146   0.982   0.152   3.047 -1.2763  0.6597 -1.5599
  537SOL    HW2 2147   1.015   0.264   2.955  0.2521 -2.4217 -0.8592
  537SOL     MW 2148   1.008   0.179   2.970 -0.0913  0.2619 -0.3119
  538SOL     OW 2149   1.300   0.073   2.961 -0.6931 -0.1174  0.2830
  538SOL    HW1 2150   1.215   0.114   2.952 -1.4844  1.8800 -1.5318
  538SOL    HW2 2151   1.337   0.110   3.033 -2.8310 -1.9876  0.1150
  538SOL     MW 2152   1.294   0.084   2.969 -1.0796 -0.1006  0.0214
  539SOL     OW 2153   0.671   2.749   2.473 -0.2251  0.1749  0.3963
  539SOL    HW1 2154   0.750   2.797   2.504 -0.7037  0.2767 -1.6045
  539SOL    HW2 2155   0.691   2.656   2.495  0.1087 -0.0082  1.8673
  539SOL     MW 2156   0.684   2.743   2.480 -0.2442  0.1642  0.3264
  540SOL     OW 2157   0.382   2.245   2.871  0.2484 -0.3991  0.5495
  540SOL    HW1 2158   0.438   2.297   2.934 -0.3606  0.9678  2.0221
  540SOL    HW2 2159   0.327   2.195   2.928  0.2452  0.5187 -0.2513
  540SOL     MW 2160   0.382   2.245   2.887  0.1676 -0.0976  0.6381
  541SOL     OW 2161   0.170   2.888   2.250  0.4788  0.4699 -0.3591
  541SOL    HW1 2162   0.125   2.814   2.207 -0.9180  0.0544  1.3311
  541SOL    HW2 2163   0.214   2.847   2.324 -0.7661 -1.5574  2.1196
  541SOL     MW 2164   0.170   2.873   2.254  0.1303  0.1476  0.1909
  542SOL     OW 2165   0.844   2.344   2.769  0.1600  0.4911 -0.4998
  542SOL    HW1 2166   0.829   2.313   2.854 -1.1090 -4.2482  0.1532
  542SOL    HW2 2167   0.926   2.392   2.768 -1.3304 -1.3095  0.4012
  542SOL     MW 2168   0.853   2.346   2.780 -0.2041 -0.3717 -0.2948
  543SOL     OW 2169   1.358   2.681   2.632  0.1235  0.4216  0.8513
  543SOL    HW1 2170   1.384   2.595   2.605  0.4005  0.5421  0.5548
  543SOL    HW2 2171   1.437   2.731   2.630 -1.9421  0.7871  1.6656
  543SOL     MW 2172   1.372   2.677   2.628 -0.1125  0.4857  0.9196
  544SOL     OW 2173   0.687   0.109   2.712  0.7926  0.3846 -0.1625
  544SOL    HW1 2174   0.591   0.101   2.702 -1.9734 -0.9000  0.3769
  544SOL    HW2 2175   0.722   0.067   2.639 -1.5670 -0.3304  2.5023
  544SOL     MW 2176   0.679   0.102   2.701  0.1163  0.1208  0.2603
  545SOL     OW 2177   1.538   2.181   2.400 -0.1517  0.0913  0.2351
  545SOL    HW1 2178   1.471   2.113   2.419 -1.9645 -0.9963  2.2833
  545SOL    HW2 2179   1.581   2.141   2.329  0.1818  1.3183 -1.2060
  545SOL     MW 2180   1.535   2.167   2.393 -0.3468  0.1097  0.3152
  546SOL     OW 2181   2.995   1.987   0.147  0.1847  0.0447 -0.0097
  546SOL    HW1 2182   2.935   2.044   0.089 -3.1638 -0.8479 -1.5618
  546SOL    HW2 2183   3.058   1.947   0.089 -0.1125 -2.1564 -1.7341
  546SOL     MW 2184   2.996   1.989   0.131 -0.2963 -0.3635 -0.4420
  547SOL     OW 2185   0.163   2.881   0.087  0.1599  0.2058  0.4209
  547SOL    HW1 2186   0.177   2.927   0.004 -0.3321 -1.0196  0.0645
  547SOL    HW2 2187   0.223   2.803   0.089  3.0032 -0.1557 -0.6201
  547SOL     MW 2188   0.173   2.877   0.076  0.4701 -0.0035  0.2365
  548SOL     OW 2189   0.273   2.556   0.262 -0.3433 -0.1023  0.5384
  548SOL    HW1 2190   0.298   2.590   0.176  1.7877  1.8784 -1.1817
  548SOL    HW2 2191   0.179   2.567   0.261  1.1971 -1.9992 -0.0475
  548SOL     MW 2192   0.264   2.562   0.250  0.1411 -0.0913  0.2342
  549SOL     OW 2193   0.708   1.836   2.090  0.4038  0.0250 -0.8527
  549SOL    HW1 2194   0.721   1.924   2.064 -2.7231 -2.5897  2.0703
  549SOL    HW2 2195   0.685   1.848   2.179  2.2513  1.5571 -2.0317
  549SOL     MW 2196   0.707   1.849   2.098  0.2350 -0.1178 -0.6226
  550SOL     OW 2197   1.775   1.798   2.488  0.2900 -0.6609  0.1550
  550SOL    HW1 2198   1.745   1.819   2.396 -0.7173  4.1908 -1.5171
  550SOL    HW2 2199   1.780   1.889   2.531  1.0401  0.9949  1.5649
  550SOL     MW 2200   1.772   1.813   2.482  0.2561  0.1977  0.1204
  551SOL     OW 2201   0.864   2.355   0.206 -0.4723 -0.1687  0.2055
  551SOL    HW1 2202   0.944   2.404   0.196  0.6770 -1.3102  0.1083
  551SOL    HW2 2203   0.867   2.291   0.137  1.8332  0.0291 -2.3855
  551SOL     MW 2204   0.875   2.353   0.196 -0.0165 -0.2932 -0.1492
  552SOL     OW 2205   1.678   1.806   2.223  0.0410 -0.6487  0.5039
  552SOL    HW1 2206   1.593   1.757   2.216 -2.0365 -1.0813  3.0894
  552SOL    HW2 2207   1.725   1.783   2.143  0.0999 -1.2733 -1.8322
  552SOL     MW 2208   1.673   1.796   2.212 -0.2253 -0.7882  0.5368
  553SOL     OW 2209   1.235   2.308   1.532 -0.6542  0.0229  0.0607
  553SOL    HW1 2210   1.285   2.226   1.529 -2.2891 -0.1920 -1.8814
  553SOL    HW2 2211   1.298   2.382   1.518 -2.1477 -0.1193  0.2081
  553SOL     MW 2212   1.250   2.307   1.530 -1.0670 -0.0242 -0.1761
  554SOL     OW 2213   0.557   2.862   2.692  0.0891 -0.5068 -0.2684
  554SOL    HW1 2214   0.505   2.924   2.637  0.8305 -0.3429  0.3623
  554SOL    HW2 2215   0.584   2.796   2.623  1.3701 -0.9675 -0.9079
  554SOL     MW 2216   0.554   2.861   2.675  0.3560 -0.5460 -0.2696
  555SOL     OW 2217   0.589   2.426   2.636 -0.6821 -0.3826 -0.8762
  555SOL    HW1 2218   0.586   2.329   2.651  0.5268  1.5732  2.0466
  555SOL    HW2 2219   0.677   2.462   2.609  0.0259 -1.2553  1.8204
  555SOL     MW 2220   0.601   2.418   2.634 -0.4292 -0.2397 -0.1348
  556SOL     OW 2221   1.051   1.841   0.127  0.2515 -0.0930  0.2491
  556SOL    HW1 2222   1.051   1.806   0.038 -1.6501 -2.7407  0.4368
  556SOL    HW2 2223   1.140   1.867   0.153 -1.0973  0.1953 -0.8948
  556SOL     MW 2224   1.063   1.840   0.119 -0.1773 -0.4043  0.1230
  557SOL     OW 2225   1.010   2.636   0.430  0.8454  0.2868 -0.3393
  557SOL    HW1 2226   1.077   2.623   0.368 -0.5604  1.5552  1.1922
  557SOL    HW2 2227   0.970   2.722   0.408 -2.5037  0.9339 -0.3235
  557SOL     MW 2228   1.013   2.646   0.419  0.2180  0.5396 -0.1352
  558SOL     OW 2229   0.262   2.116   3.066  0.0787 -0.5405 -0.4845
  558SOL    HW1 2230   0.217   2.032   3.069  0.3465 -0.2644  1.1705
  558SOL    HW2 2231   0.198   2.181   3.096 -3.4811  0.5370  1.0122
  558SOL     MW 2232   0.247   2.113   3.070 -0.3556 -0.3619 -0.0686
  559SOL     OW 2233   1.246   2.234   2.030  0.4835 -0.1112  0.1016
  559SOL    HW1 2234   1.206   2.323   2.050 -3.7221  0.1355 -2.4417
  559SOL    HW2 2235   1.209   2.175   2.093  0.4792 -0.8287 -0.8626
  559SOL     MW 2236   1.236   2.238   2.041 -0.0720 -0.1733 -0.3612
  560SOL     OW 2237   1.932   2.958   0.036  0.1081  0.5072 -0.2873
  560SOL    HW1 2238   2.006   2.975  -0.015  1.5452 -0.8061 -1.1684
  560SOL    HW2 2239   1.866   2.944  -0.035 -1.1023  1.3903  0.5603
  560SOL     MW 2240   1.933   2.958   0.020  0.1380  0.4504 -0.2918
  561SOL     OW 2241   0.448   2.068   0.181  0.8739  0.1002  0.1120
  561SOL    HW1 2242   0.415   2.079   0.095 -3.0854  2.5850 -2.3510
  561SOL    HW2 2243   0.461   2.160   0.212  0.8180 -2.2642 -1.2098
  561SOL     MW 2244   0.445   2.081   0.174  0.3441  0.1161 -0.3874
  562SOL     OW 2245   0.846   2.118   2.146 -0.3382  0.2458  0.7557
  562SOL    HW1 2246   0.795   2.169   2.209 -0.6512  0.8370  1.2426
  562SOL    HW2 2247   0.944   2.137   2.158  2.4401  1.2369 -2.8548
  562SOL     MW 2248   0.852   2.127   2.156 -0.0129  0.4545  0.3436
  563SOL     OW 2249   1.280   0.295   0.481  0.3579 -0.5435  0.2680
  563SOL    HW1 2250   1.210   0.246   0.427 -0.9355  1.5435  1.8100
  563SOL    HW2 2251   1.293   0.241   0.561 -2.0799 -1.0296 -2.2037
  563SOL     MW 2252   1.273   0.281   0.484 -0.1344 -0.3323  0.1453
  564SOL     OW 2253   1.015   2.550   2.326  0.0920  0.2396 -0.8662
  564SOL    HW1 2254   1.055   2.509   2.246 -2.1764 -1.7284 -1.3888
  564SOL    HW2 2255   1.077   2.612   2.363 -2.9291  0.1895  1.7994
  564SOL     MW 2256   1.028   2.552   2.320 -0.6059 -0.0266 -0.5835
  565SOL     OW 2257   2.924   2.678   2.698  0.2382  0.7038  0.5291
  565SOL    HW1 2258   2.981   2.745   2.668 -1.4933  0.7281 -0.7671
  565SOL    HW2 2259   2.880   2.658   2.614 -1.1170 -0.1788 -1.4517
  565SOL     MW 2260   2.926   2.684   2.683 -0.1690  0.5906  0.0968
  566SOL     OW 2261   2.156   2.071   2.352  0.1895 -0.8131  0.5592
  566SOL    HW1 2262   2.174   2.057   2.259 -1.0407 -2.1177  1.2426
  566SOL    HW2 2263   2.242   2.095   2.386  0.6688 -0.2330 -0.9953
  566SOL     MW 2264   2.170   2.072   2.344  0.0904 -0.9087  0.4442
  567SOL     OW 2265   1.140   2.879   0.129  0.5031 -0.0398 -0.4399
  567SOL    HW1 2266   1.139   2.972   0.157 -0.2255  1.2243  0.4016
  567SOL    HW2 2267   1.158   2.876   0.034  0.4561 -1.1457 -3.0434
  567SOL     MW 2268   1.142   2.891   0.120  0.4008 -0.0190 -0.6724
  568SOL     OW 2269   1.639   2.141   2.790  0.2083 -0.0615  0.2974
  568SOL    HW1 2270   1.703   2.195   2.839 -0.4885 -2.8821  0.4554
  568SOL    HW2 2271   1.695   2.107   2.718  1.3493 -1.8791  1.0635
  568SOL     MW 2272   1.655   2.144   2.787  0.2669 -0.6735  0.4193
  569SOL     OW 2273   0.027   2.234   2.502  0.0030 -0.1699 -0.1659
  569SOL    HW1 2274  -0.022   2.286   2.444  0.4715  1.7962 -1.0857
  569SOL    HW2 2275   0.064   2.290   2.564 -1.1794  0.0081 -0.1029
  569SOL     MW 2276   0.025   2.248   2.503 -0.0912  0.1130 -0.2790
  570SOL     OW 2277   1.559   0.355   0.456 -0.0242  0.4170 -0.0919
  570SOL    HW1 2278   1.467   0.335   0.479 -0.7753  1.8038  0.0485
  570SOL    HW2 2279   1.599   0.392   0.535  1.4861  0.6069  1.4839
  570SOL     MW 2280   1.552   0.357   0.469  0.0759  0.6250  0.1345
  571SOL     OW 2281   1.442   2.445   1.977  0.1979  0.2275  0.7455
  571SOL    HW1 2282   1.464   2.429   2.067 -2.6560 -0.6451 -2.4229
  571SOL    HW2 2283   1.428   2.352   1.959 -0.8082 -0.1980  1.1272
  571SOL     MW 2284   1.443   2.431   1.987 -0.3114  0.0562  0.3778
  572SOL     OW 2285   0.910   2.530   3.050 -0.1927 -0.1874  0.1932
  572SOL    HW1 2286   0.862   2.562   2.968  1.8469 -3.1705 -1.3787
  572SOL    HW2 2287   0.841   2.526   3.115 -0.0481  0.6316  0.0045
  572SOL     MW 2288   0.894   2.534   3.048  0.0955 -0.4730 -0.0391
  573SOL     OW 2289   1.147   2.416   0.204 -0.1572 -0.3855 -0.2449
  573SOL    HW1 2290   1.214   2.354   0.173 -1.5874  1.7038  1.3215
  573SOL    HW2 2291   1.196   2.497   0.221  0.3963 -0.1079 -0.6298
  573SOL     MW 2292   1.163   2.419   0.202 -0.2729 -0.0732 -0.0890
  574SOL     OW 2293   1.254   2.659   0.271  0.4865  0.3782 -0.3082
  574SOL    HW1 2294   1.336   2.681   0.312  0.7858  1.7230 -0.9789
  574SOL    HW2 2295   1.236   2.743   0.233 -2.0526 -0.5216 -1.3351
  574SOL     MW 2296   1.262   2.673   0.271  0.1910  0.4369 -0.5322
  575SOL     OW 2297   3.060   2.262   1.817 -1.0150 -0.0658 -0.3022
  575SOL    HW1 2298   3.055   2.197   1.746 -2.5321 -2.9185 -0.6379
  575SOL    HW2 2299   3.128   2.331   1.795 -0.9113  0.5956 -0.1765
  575SOL     MW 2300   3.068   2.263   1.805 -1.2015 -0.3549 -0.3299
  576SOL     OW 2301   2.798   1.834   2.064  1.2341 -0.7464  0.1844
  576SOL    HW1 2302   2.820   1.895   1.992 -1.7802 -1.8971  0.8893
  576SOL    HW2 2303   2.719   1.795   2.025  0.0495  2.3479  0.5319
  576SOL     MW 2304   2.790   1.837   2.049  0.6801 -0.4899  0.3232
  577SOL     OW 2305   2.060   0.334   0.079  0.5081 -0.2146 -0.3059
  577SOL    HW1 2306   2.010   0.402   0.042 -0.0572 -0.0622  2.0625
  577SOL    HW2 2307   1.990   0.278   0.125 -1.5044 -2.1964 -0.1751
  577SOL     MW 2308   2.044   0.336   0.080  0.1680 -0.4560  0.0238
  578SOL     OW 2309   1.922   2.202   2.350 -0.2163 -0.1477 -0.1359
  578SOL    HW1 2310   1.839   2.154   2.321 -2.2693  0.4807 -2.3192
  578SOL    HW2 2311   2.006   2.150   2.335  1.3998 -1.9818 -1.0433
  578SOL     MW 2312   1.922   2.189   2.344 -0.2739 -0.3068 -0.5437
  579SOL     OW 2313   0.812   2.491   2.499 -0.2277 -0.3603 -0.0054
  579SOL    HW1 2314   0.866   2.469   2.574 -0.0184 -0.0688  3.4612
  579SOL    HW2 2315   0.882   2.511   2.432  2.1509  1.6343 -0.0030
  579SOL     MW 2316   0.828   2.491   2.500  0.1138 -0.0587  0.4523
  580SOL     OW 2317   0.863   2.860   3.060 -0.1281 -0.2275  0.2210
  580SOL    HW1 2318   0.916   2.791   3.090 -2.1324  1.0102 -0.3149
  580SOL    HW2 2319   0.827   2.822   2.979 -0.0730  2.4045  1.4341
  580SOL     MW 2320   0.865   2.846   3.054 -0.3853  0.2830  0.3103
  581SOL     OW 2321   1.068   2.581   1.767  0.3481  1.0688 -0.0232
  581SOL    HW1 2322   1.153   2.614   1.804  0.6432  0.3489 -1.2981
  581SOL    HW2 2323   1.053   2.494   1.818  0.2930 -0.3625  3.9321
  581SOL     MW 2324   1.077   2.574   1.779  0.3797  0.7850  0.3305
  582SOL     OW 2325   3.094   2.879   2.634 -0.2001 -0.3388 -0.3080
  582SOL    HW1 2326   3.095   2.952   2.696 -0.8602  0.4148 -0.8997
  582SOL    HW2 2327   3.187   2.866   2.601 -0.7056 -0.4976  3.6850
  582SOL     MW 2328   3.107   2.887   2.638 -0.3539 -0.2603  0.1407
  583SOL     OW 2329   1.939   2.521   2.718  0.0607  0.3688 -0.0928
  583SOL    HW1 2330   2.008   2.565   2.655  0.3896 -0.0600 -2.1036
  583SOL    HW2 2331   1.955   2.427   2.715 -0.1544  0.8331  0.0179
  583SOL     MW 2332   1.950   2.515   2.709  0.0757  0.3735 -0.3435
  584SOL     OW 2333   0.161   1.832   2.109  0.1412  0.3329 -0.2064
  584SOL    HW1 2334   0.248   1.857   2.073  0.0305 -1.5521 -0.2276
  584SOL    HW2 2335   0.137   1.897   2.177  0.1202 -0.2428  1.4564
  584SOL     MW 2336   0.169   1.844   2.113  0.1238  0.0082  0.0102
  585SOL     OW 2337   1.434   2.558   0.042 -0.5391  0.4208 -0.3996
  585SOL    HW1 2338   1.410   2.597  -0.042 -0.6295 -2.9324  1.0981
  585SOL    HW2 2339   1.364   2.575   0.103  4.6188 -0.6736 -1.2619
  585SOL     MW 2340   1.422   2.565   0.039  0.1295 -0.1661 -0.3157
  586SOL     OW 2341   1.272   2.971   2.335  0.2971 -0.1498  0.3986
  586SOL    HW1 2342   1.336   2.914   2.369  1.2157  1.6735  2.0867
  586SOL    HW2 2343   1.246   3.021   2.412 -0.0056 -1.7595  0.1095
  586SOL     MW 2344   1.277   2.970   2.350  0.3784 -0.1216  0.5831
  587SOL     OW 2345   1.207   1.620   2.161 -0.2519 -0.1369 -0.0080
  587SOL    HW1 2346   1.206   1.547   2.225  2.0986  2.2253  0.3717
  587SOL    HW2 2347   1.186   1.573   2.074 -0.0709 -0.1644 -1.7523
  587SOL     MW 2348   1.204   1.604   2.158  0.0821  0.1711 -0.1881
  588SOL     OW 2349   1.376   2.221   2.756 -0.2583  0.4529  0.2023
  588SOL    HW1 2350   1.464   2.196   2.781 -1.9533 -0.5629 -2.2218
  588SOL    HW2 2351   1.301   2.159   2.800 -1.3945 -1.7139 -1.3836
  588SOL     MW 2352   1.378   2.210   2.765 -0.6319  0.0330 -0.3268
  589SOL     OW 2353   1.322   2.065  -0.002 -0.0144  0.0968 -0.1146
  589SOL    HW1 2354   1.338   2.150   0.041  1.6640  0.0218  1.2369
  589SOL    HW2 2355   1.300   2.016   0.072  0.7042  1.3450 -0.0921
  589SOL     MW 2356   1.322   2.070   0.014  0.3018  0.2516  0.0667
  590SOL     OW 2357   0.471   2.547   2.251  0.5279 -0.1854  0.2890
  590SOL    HW1 2358   0.398   2.570   2.191  0.5368 -0.6679  0.0131
  590SOL    HW2 2359   0.540   2.544   2.187  1.2163  1.5050  0.2808
  590SOL     MW 2360   0.470   2.549   2.235  0.6199 -0.0260  0.2515
  591SOL     OW 2361   2.211   0.687   3.012 -0.2242  0.4012  0.5072
  591SOL    HW1 2362   2.116   0.722   2.998  0.2718  2.5051 -0.5082
  591SOL    HW2 2363   2.240   0.654   2.926  0.0523 -3.6287  1.4815
  591SOL     MW 2364   2.202   0.687   2.999 -0.1223  0.1471  0.5018
  592SOL     OW 2365   1.820   2.894   0.818 -0.6850  0.2874  0.4429
  592SOL    HW1 2366   1.837   2.960   0.744 -4.1771  0.9110 -1.3466
  592SOL    HW2 2367   1.856   2.810   0.791  1.8859 -0.8949  0.1940
  592SOL     MW 2368   1.827   2.892   0.805 -0.8065  0.2137  0.1739
  593SOL     OW 2369   1.922   0.842   0.917 -0.2656 -0.1603  0.7083
  593SOL    HW1 2370   1.849   0.840   0.854  3.4738  0.1025 -4.1645
  593SOL    HW2 2371   1.939   0.747   0.936  2.0238 -1.4265 -1.3747
  593SOL     MW 2372   1.914   0.829   0.911  0.5299 -0.2927 -0.2095
  594SOL     OW 2373   2.770   1.122   1.397 -0.2496  0.4731  0.2061
  594SOL    HW1 2374   2.861   1.146   1.379  1.7259  1.3521  1.8010
  594SOL    HW2 2375   2.729   1.105   1.312  0.0118 -0.4284 -0.6149
  594SOL     MW 2376   2.777   1.123   1.383  0.0455  0.4701  0.3082
  595SOL     OW 2377   0.419   0.993   0.744  0.1672 -0.2817  0.7144
  595SOL    HW1 2378   0.487   1.036   0.674  2.9029  2.7345 -2.3637
  595SOL    HW2 2379   0.436   1.034   0.832 -1.4100 -0.6796 -0.0796
  595SOL     MW 2380   0.430   1.004   0.746  0.3200  0.0638  0.2035
  596SOL     OW 2381   2.412   1.332   0.614 -0.1005 -0.2055 -0.1835
  596SOL    HW1 2382   2.446   1.420   0.594 -1.4136  1.1826 -2.4807
  596SOL    HW2 2383   2.486   1.292   0.666 -1.1359 -1.3500  0.5608
  596SOL     MW 2384   2.426   1.339   0.618 -0.4104 -0.1733 -0.3884
  597SOL     OW 2385   2.275   0.686   1.726 -0.6862  0.2230  0.3820
  597SOL    HW1 2386   2.304   0.611   1.769  2.0545 -1.8335 -1.2481
  597SOL    HW2 2387   2.301   0.661   1.638 -1.8363  0.9712  0.7321
  597SOL     MW 2388   2.282   0.673   1.720 -0.4764  0.0504  0.2131
  598SOL     OW 2389   2.627   1.002   2.827  0.1494 -0.3269  0.8190
  598SOL    HW1 2390   2.672   0.947   2.759  0.3587  1.0225  1.6483
  598SOL    HW2 2391   2.685   1.055   2.880  0.0973  3.3471 -0.6004
  598SOL     MW 2392   2.640   1.002   2.825  0.1702  0.3359  0.7412
  599SOL     OW 2393   2.905   0.363   2.070 -0.2029 -0.5227 -0.3906
  599SOL    HW1 2394   2.845   0.361   2.144  1.2226  0.6472  0.3914
  599SOL    HW2 2395   2.948   0.448   2.072 -0.5416 -0.9118 -2.6064
  599SOL     MW 2396   2.903   0.374   2.080 -0.0595 -0.4197 -0.5798
  600SOL     OW 2397   1.852   1.630   0.868  0.1992  0.4759  0.5303
  600SOL    HW1 2398   1.875   1.635   0.957 -1.1354  0.3007 -2.3407
  600SOL    HW2 2399   1.760   1.661   0.866 -2.6179 -0.2256 -0.3266
  600SOL     MW 2400   1.843   1.635   0.880 -0.3486  0.3602  0.0385
  601SOL     OW 2401   2.459   0.741   0.894  0.1898  0.3781  0.2044
  601SOL    HW1 2402   2.492   0.772   0.980  0.5492  2.4462 -2.4217
  601SOL    HW2 2403   2.383   0.791   0.882  0.4834 -3.9670  0.3601
  601SOL     MW 2404   2.453   0.752   0.904  0.2760  0.0777 -0.1215
  602SOL     OW 2405   2.265   1.930   0.708  0.0806 -0.0813 -0.6497
  602SOL    HW1 2406   2.211   1.852   0.722 -0.3499  1.4652  0.9059
  602SOL    HW2 2407   2.218   1.970   0.629 -1.4204  1.9118  0.6159
  602SOL     MW 2408   2.251   1.925   0.699 -0.1742  0.3857 -0.2775
  603SOL     OW 2409   3.000   1.344   1.843 -0.3128  0.1127  0.1572
  603SOL    HW1 2410   3.090   1.372   1.862  0.3812  1.2487 -0.9118
  603SOL    HW2 2411   3.012   1.263   1.798  1.2571  1.5042 -1.7475
  603SOL     MW 2412   3.013   1.337   1.839 -0.0141  0.4462 -0.2352
  604SOL     OW 2413   2.052   1.498   0.501 -0.2891 -0.1992 -0.0803
  604SOL    HW1 2414   2.074   1.435   0.568 -1.2682 -1.0214 -1.4200
  604SOL    HW2 2415   1.991   1.550   0.541  1.0481 -0.7330  1.3469
  604SOL     MW 2416   2.047   1.496   0.515 -0.2419 -0.3781 -0.0687
  605SOL     OW 2417   2.658   1.540   0.797 -0.2529  0.0475 -0.3520
  605SOL    HW1 2418   2.594   1.608   0.766 -0.2135 -0.7809  0.4803
  605SOL    HW2 2419   2.597   1.516   0.870 -0.6851 -0.3352  0.5313
  605SOL     MW 2420   2.641   1.546   0.802 -0.3047 -0.1123 -0.1257
  606SOL     OW 2421   2.531   1.817   1.895  0.2222 -0.0909  0.0125
  606SOL    HW1 2422   2.448   1.795   1.941  0.2174 -3.2430 -0.3086
  606SOL    HW2 2423   2.549   1.727   1.863 -2.5300 -0.9899 -0.1926
  606SOL     MW 2424   2.523   1.802   1.897 -0.1416 -0.6254 -0.0570
  607SOL     OW 2425   2.370   1.031   2.973 -0.4749 -0.1294 -0.2627
  607SOL    HW1 2426   2.463   1.027   2.979 -3.1354 -0.8882  1.4724
  607SOL    HW2 2427   2.346   1.039   3.063 -2.3241 -3.2361 -0.5655
  607SOL     MW 2428   2.379   1.031   2.985 -1.0699 -0.6394 -0.0737
  608SOL     OW 2429   1.918   0.242   0.653 -0.1373 -0.0946 -0.1877
  608SOL    HW1 2430   1.923   0.277   0.564 -2.2177 -3.1983 -2.8100
  608SOL    HW2 2431   1.885   0.149   0.644 -0.2824 -0.3349 -2.9781
  608SOL     MW 2432   1.914   0.235   0.640 -0.4309 -0.5358 -0.9018
  609SOL     OW 2433   2.125   1.946   3.007 -0.2741 -0.4175  0.0940
  609SOL    HW1 2434   2.062   1.902   2.952  0.1824 -1.3423  1.1631
  609SOL    HW2 2435   2.120   1.907   3.093  1.2477 -2.2098  0.1135
  609SOL     MW 2436   2.116   1.935   3.011 -0.0131 -0.7760  0.2376
  610SOL     OW 2437   1.848   1.092   1.361 -0.1599 -0.1278 -0.6408
  610SOL    HW1 2438   1.850   1.016   1.302  0.0589  0.3782  1.8533
  610SOL    HW2 2439   1.768   1.074   1.420 -1.8602  1.3335 -1.0025
  610SOL     MW 2440   1.837   1.080   1.361 -0.3554  0.1318 -0.3594
  611SOL     OW 2441   2.510   1.776   0.722 -0.1633 -0.7948 -0.2274
  611SOL    HW1 2442   2.437   1.843   0.702  0.1077  1.5892 -0.8317
  611SOL    HW2 2443   2.497   1.739   0.637 -0.4273  0.2867  1.4669
  611SOL     MW 2444   2.499   1.780   0.708 -0.1624 -0.3375 -0.0836
  612SOL     OW 2445   2.780   2.775   0.412  0.3042 -0.1003  0.8698
  612SOL    HW1 2446   2.804   2.858   0.462  0.9721 -1.4196  0.6475
  612SOL    HW2 2447   2.859   2.756   0.362  0.7561 -0.2985  1.1525
  612SOL     MW 2448   2.794   2.783   0.412  0.4520 -0.3005  0.8777
  613SOL     OW 2449   1.629   1.008   1.101 -0.5847  0.4443 -0.0729
  613SOL    HW1 2450   1.613   1.081   1.155  0.1138 -1.1649  1.0188
  613SOL    HW2 2451   1.676   0.944   1.153 -0.1653 -1.4944 -0.7506
  613SOL     MW 2452   1.633   1.009   1.115 -0.4372 -0.0238 -0.0183
  614SOL     OW 2453   1.994   0.522   1.531 -0.8313  0.1582  0.4452
  614SOL    HW1 2454   2.018   0.435   1.573  0.6213  1.9915  2.0638
  614SOL    HW2 2455   2.043   0.519   1.447  0.7369  3.6446 -0.4737
  614SOL     MW 2456   2.004   0.510   1.525 -0.4327  0.8601  0.5375
  615SOL     OW 2457   2.234   0.796   0.172  0.1548  0.3597 -0.4769
  615SOL    HW1 2458   2.308   0.747   0.219  2.4862  0.7348 -0.4571
  615SOL    HW2 2459   2.233   0.764   0.081 -2.0564 -0.9342  1.6084
  615SOL     MW 2460   2.244   0.785   0.167  0.1707  0.2384 -0.1991
  616SOL     OW 2461   2.630   0.357   1.636 -0.1482  0.1708  0.0169
  616SOL    HW1 2462   2.580   0.299   1.578 -1.0876 -0.3935 -0.1197
  616SOL    HW2 2463   2.602   0.445   1.606  0.0778 -0.1031 -0.7793
  616SOL     MW 2464   2.620   0.361   1.625 -0.2423  0.0602 -0.1061
  617SOL     OW 2465   2.924   0.568   1.762  0.3877 -0.1706  0.4709
  617SOL    HW1 2466   2.825   0.572   1.759 -1.7091 -1.2320 -0.1683
  617SOL    HW2 2467   2.938   0.474   1.748 -2.4948  0.7553 -0.5374
  617SOL     MW 2468   2.913   0.556   1.760 -0.2693 -0.1885  0.2535
  618SOL     OW 2469   2.675   0.364   1.933  0.1049 -0.1600  0.1812
  618SOL    HW1 2470   2.664   0.459   1.907 -0.3816  0.6131  1.5523
  618SOL    HW2 2471   2.763   0.351   1.966 -0.4967  1.9213 -0.5605
  618SOL     MW 2472   2.685   0.375   1.934 -0.0387  0.2166  0.2642
  619SOL     OW 2473   2.582   0.832   0.148  0.3640  1.1581 -0.2786
  619SOL    HW1 2474   2.664   0.868   0.183 -0.3540 -0.2134 -0.8840
  619SOL    HW2 2475   2.545   0.783   0.222  1.1551 -0.9675  0.5714
  619SOL     MW 2476   2.588   0.830   0.162  0.3737  0.6967 -0.2463
  620SOL     OW 2477   2.295   1.143   0.932  0.0599 -0.2488 -0.2450
  620SOL    HW1 2478   2.379   1.095   0.923 -0.1463  0.6714  0.1326
  620SOL    HW2 2479   2.226   1.082   0.896 -0.2644 -0.4259 -1.1541
  620SOL     MW 2480   2.297   1.128   0.926 -0.0101 -0.1507 -0.3151
  621SOL     OW 2481   1.524   2.146   1.994  0.0717 -0.2557  0.2832
  621SOL    HW1 2482   1.435   2.140   2.024  0.8893  0.7056  4.3735
  621SOL    HW2 2483   1.570   2.119   2.074  0.9703 -1.8349 -2.4648
  621SOL     MW 2484   1.518   2.142   2.009  0.2981 -0.3372  0.4603
  622SOL     OW 2485   2.627   0.224   0.110 -0.2122 -0.3374  0.5964
  622SOL    HW1 2486   2.711   0.259   0.151  2.3524  0.1405 -2.0747
  622SOL    HW2 2487   2.652   0.142   0.075  0.4403  0.5712  2.3319
  622SOL     MW 2488   2.642   0.218   0.111  0.2123 -0.1544  0.4729
  623SOL     OW 2489   2.405   2.766   0.818 -0.6790 -0.0455 -0.2709
  623SOL    HW1 2490   2.459   2.848   0.806  0.6562  0.3963  0.4006
  623SOL    HW2 2491   2.346   2.776   0.891  0.9743  0.3847 -1.5365
  623SOL     MW 2492   2.404   2.778   0.826 -0.2847  0.0695 -0.3493
  624SOL     OW 2493   2.200   1.628   2.911 -0.1614  0.1033  0.6165
  624SOL    HW1 2494   2.134   1.581   2.965  1.0568 -1.3198 -0.1280
  624SOL    HW2 2495   2.197   1.712   2.951 -0.0584 -0.6612  0.2787
  624SOL     MW 2496   2.191   1.633   2.923  0.0129 -0.1853  0.4737
  625SOL     OW 2497   2.196   1.934   1.087 -0.4777 -0.4892 -0.2672
  625SOL    HW1 2498   2.264   1.900   1.142 -1.6627 -1.8791 -0.3285
  625SOL    HW2 2499   2.228   1.921   0.994  1.4812  2.4497 -0.7045
  625SOL     MW 2500   2.209   1.928   1.082 -0.3756 -0.2848 -0.3330
  626SOL     OW 2501   0.118   1.585   2.408  0.4376 -0.2406 -0.3768
  626SOL    HW1 2502   0.050   1.569   2.346  0.5266  3.4574 -0.3428
  626SOL    HW2 2503   0.080   1.557   2.493  0.5314  1.1808 -2.4293
  626SOL     MW 2504   0.104   1.579   2.411  0.4617  0.4349 -0.6431
  627SOL     OW 2505   2.455   0.837   2.586  0.1479  0.0757 -0.0029
  627SOL    HW1 2506   2.398   0.919   2.576  0.6488  1.8064 -0.2054
  627SOL    HW2 2507   2.433   0.778   2.512  0.4730  0.8036  0.0271
  627SOL     MW 2508   2.445   0.840   2.575  0.2569  0.4001 -0.0256
  628SOL     OW 2509   2.334   1.367   1.363  0.4235 -0.3109  0.3248
  628SOL    HW1 2510   2.304   1.296   1.298 -1.5175 -0.6698  2.3658
  628SOL    HW2 2511   2.417   1.397   1.328 -1.8691 -0.2447  0.0311
  628SOL     MW 2512   2.341   1.361   1.350 -0.1350 -0.3496  0.5554
  629SOL     OW 2513   2.049   0.559   1.214 -0.1216  0.4052 -0.1464
  629SOL    HW1 2514   2.100   0.633   1.183  0.2080 -2.5375 -0.3645
  629SOL    HW2 2515   1.968   0.591   1.252 -0.8576  1.0193 -1.2324
  629SOL     MW 2516   2.045   0.573   1.215 -0.1752  0.0979 -0.3185
  630SOL     OW 2517   2.482   1.818   3.089 -0.1824 -0.2583 -0.2014
  630SOL    HW1 2518   2.426   1.861   3.024 -0.0529 -1.1287 -1.6897
  630SOL    HW2 2519   2.456   1.721   3.084 -1.7571 -2.1663  1.8693
  630SOL     MW 2520   2.471   1.811   3.080 -0.3731 -0.6249 -0.1246
  631SOL     OW 2521   1.976   1.753   1.619 -0.0703  0.0896 -0.4854
  631SOL    HW1 2522   1.967   1.674   1.683 -0.5101 -1.3383  1.9256
  631SOL    HW2 2523   1.961   1.726   1.533  0.4602  1.7941 -1.0499
  631SOL     MW 2524   1.973   1.739   1.616 -0.0584  0.1261 -0.2418
  632SOL     OW 2525   0.177   2.073   1.590  0.6942 -0.0157 -0.4542
  632SOL    HW1 2526   0.078   2.075   1.605  2.1452  3.1009 -0.5109
  632SOL    HW2 2527   0.186   1.977   1.575 -2.4359  1.9977 -0.8315
  632SOL     MW 2528   0.165   2.061   1.590  0.4726  0.6612 -0.5114
  633SOL     OW 2529   2.418   0.698   0.352 -0.0259  0.7121 -0.0219
  633SOL    HW1 2530   2.499   0.707   0.406  0.7105  0.4825  0.8613
  633SOL    HW2 2531   2.396   0.598   0.373 -0.8317 -0.9871  1.2799
  633SOL     MW 2532   2.426   0.686   0.362 -0.0351  0.4576  0.2664
  634SOL     OW 2533   2.639   3.089   0.605  0.3594 -0.5238 -0.4458
  634SOL    HW1 2534   2.670   3.179   0.593  0.0148 -0.1722  1.7023
  634SOL    HW2 2535   2.621   3.052   0.518  1.7406  0.5146  0.9113
  634SOL     MW 2536   2.641   3.096   0.592  0.4962 -0.3404  0.0166
  635SOL     OW 2537   2.624   0.109   1.837 -0.5481  0.1792  0.1341
  635SOL    HW1 2538   2.699   0.064   1.794  1.0206  2.8256 -0.0711
  635SOL    HW2 2539   2.642   0.203   1.858  0.8807  2.3312  0.1550
  635SOL     MW 2540   2.636   0.115   1.834 -0.1526  0.8123  0.1098
  636SOL     OW 2541   2.916   1.667   1.032  0.0703 -0.3082  0.3087
  636SOL    HW1 2542   2.850   1.717   0.981  0.3091 -1.2653  1.2029
  636SOL    HW2 2543   2.949   1.729   1.098 -1.0071 -0.3554 -0.9403
  636SOL     MW 2544   2.912   1.682   1.034 -0.0403 -0.4407  0.2619
  637SOL     OW 2545   2.918   1.488   0.704  0.2453  0.0869 -0.2377
  637SOL    HW1 2546   2.980   1.560   0.706 -1.0378 -1.0044  2.3894
  637SOL    HW2 2547   2.837   1.512   0.749 -0.5007 -0.6614  0.2431
  637SOL     MW 2548   2.915   1.501   0.710 -0.0225 -0.1558  0.1724
  638SOL     OW 2549   2.676   0.676   0.490 -0.1251 -0.2892  0.5209
  638SOL    HW1 2550   2.766   0.649   0.465  0.9505  1.3442 -1.5875
  638SOL    HW2 2551   2.662   0.632   0.574  0.6028  0.0231  1.0905
  638SOL     MW 2552   2.686   0.666   0.498  0.1129 -0.0324  0.3178
  639SOL     OW 2553   1.891   3.080   0.638 -0.6571 -0.2273  0.1201
  639SOL    HW1 2554   1.824   3.069   0.570 -0.8411  0.1574 -2.4922
  639SOL    HW2 2555   1.968   3.100   0.590  0.2196 -1.7435 -3.1978
  639SOL     MW 2556   1.892   3.081   0.623 -0.5657 -0.3766 -0.6623
  640SOL     OW 2557   0.390   1.369   0.113  0.0972 -0.0643 -0.2841
  640SOL    HW1 2558   0.391   1.420   0.029 -0.9340 -1.1898 -1.1736
  640SOL    HW2 2559   0.389   1.278   0.075 -0.2736 -1.4088  0.5158
  640SOL     MW 2560   0.390   1.364   0.097 -0.0878 -0.3902 -0.2960
  641SOL     OW 2561   2.316   0.456   0.376  0.0254 -0.6319 -0.1328
  641SOL    HW1 2562   2.342   0.442   0.283  2.8178  1.6177 -1.1941
  641SOL    HW2 2563   2.384   0.409   0.435 -0.2238 -2.4198  2.1805
  641SOL     MW 2564   2.328   0.448   0.371  0.3609 -0.5710  0.0324
  642SOL     OW 2565   3.085   0.024   0.483 -0.0886 -0.4804  0.1446
  642SOL    HW1 2566   3.056   0.116   0.483  2.5616 -0.1636  0.3602
  642SOL    HW2 2567   3.016  -0.028   0.518 -0.1402  0.6984 -0.7775
  642SOL     MW 2568   3.072   0.030   0.487  0.2542 -0.2831  0.0514
  643SOL     OW 2569   2.066   0.283   1.633 -0.6469  0.1780 -0.5452
  643SOL    HW1 2570   2.144   0.252   1.675 -0.0680  0.2554 -0.8210
  643SOL    HW2 2571   2.059   0.249   1.547 -1.4954  2.3397  0.1912
  643SOL     MW 2572   2.076   0.275   1.627 -0.6824  0.4734 -0.4844
  644SOL     OW 2573   2.722   1.844   0.913 -0.2991  0.3457  0.1157
  644SOL    HW1 2574   2.670   1.833   0.996 -2.8122  1.9620  1.7491
  644SOL    HW2 2575   2.656   1.830   0.848  0.2261 -0.9832  0.4055
  644SOL     MW 2576   2.706   1.841   0.916 -0.5614  0.3836  0.3694
  645SOL     OW 2577   2.755   0.918   0.623 -0.2477  0.1941  0.2059
  645SOL    HW1 2578   2.797   0.884   0.698 -0.0843 -0.1123  0.2490
  645SOL    HW2 2579   2.718   0.837   0.583  0.7145  0.0079  2.0503
  645SOL     MW 2580   2.755   0.903   0.628 -0.0992  0.1291  0.4549
  646SOL     OW 2581   0.102   2.324   0.886  0.7107 -0.3699 -0.2897
  646SOL    HW1 2582   0.130   2.230   0.899  2.4092 -2.3814  1.7704
  646SOL    HW2 2583   0.061   2.306   0.796 -0.6878  1.3717  0.6838
  646SOL     MW 2584   0.100   2.309   0.876  0.7503 -0.4055  0.1106
  647SOL     OW 2585   2.751   0.587   3.009  0.1411 -0.7164  0.0185
  647SOL    HW1 2586   2.689   0.522   2.990 -4.5646 -0.2162 -0.2123
  647SOL    HW2 2587   2.701   0.670   2.985  2.1777  3.1661 -2.4371
  647SOL     MW 2588   2.736   0.589   3.003 -0.2111 -0.1381 -0.3360
  648SOL     OW 2589   2.226   0.734   1.103 -0.2707  0.0997  0.0185
  648SOL    HW1 2590   2.208   0.766   1.019  1.2363 -2.3907 -0.4344
  648SOL    HW2 2591   2.226   0.816   1.157  1.8186 -0.4152  1.1730
  648SOL     MW 2592   2.224   0.749   1.099  0.2038 -0.2969  0.1111
  649SOL     OW 2593   2.360   2.683   1.197 -0.1912 -0.0433 -0.1585
  649SOL    HW1 2594   2.433   2.740   1.219  1.4939 -0.9938  1.0764
  649SOL    HW2 2595   2.389   2.591   1.202  1.9332 -0.3069  0.1587
  649SOL     MW 2596   2.374   2.678   1.200  0.3115 -0.2035  0.0463
  650SOL     OW 2597   2.743   0.234   0.638  0.8478  0.6399 -0.1648
  650SOL    HW1 2598   2.759   0.277   0.725 -0.1988  0.5888 -1.4817
  650SOL    HW2 2599   2.821   0.253   0.589 -0.4637 -0.7216  0.7789
  650SOL     MW 2600   2.755   0.242   0.643  0.5366  0.4535 -0.2140
  651SOL     OW 2601   3.042   0.294   0.830 -0.5557  0.3140  0.1306
  651SOL    HW1 2602   3.108   0.353   0.788  1.3893  0.8375  0.5475
  651SOL    HW2 2603   2.962   0.350   0.828 -0.7351 -1.6266 -0.1570
  651SOL     MW 2604   3.040   0.309   0.824 -0.3228  0.1270  0.1476
  652SOL     OW 2605   2.398   1.433   2.988 -0.0569 -0.4369  0.1017
  652SOL    HW1 2606   2.464   1.420   2.921  1.4832  0.0648  1.7387
  652SOL    HW2 2607   2.342   1.507   2.961 -1.0310  0.7052  0.2215
  652SOL     MW 2608   2.399   1.441   2.976  0.0178 -0.2200  0.3335
  653SOL     OW 2609   1.974   0.372   0.420 -0.2071  0.0040 -0.3562
  653SOL    HW1 2610   1.951   0.328   0.335  0.5064 -1.0335 -0.1641
  653SOL    HW2 2611   2.068   0.377   0.415  1.2850 -0.5463  3.5772
  653SOL     MW 2612   1.984   0.367   0.408  0.0839 -0.2055  0.1881
  654SOL     OW 2613   2.460   0.981   0.731  0.0347  0.4680 -0.6021
  654SOL    HW1 2614   2.376   0.998   0.689  0.2463 -2.0379 -0.4614
  654SOL    HW2 2615   2.468   0.886   0.749  0.1784  0.7661 -1.1929
  654SOL     MW 2616   2.450   0.970   0.728  0.0816  0.1767 -0.6615
  655SOL     OW 2617   3.078   0.922   0.442 -0.0226 -0.4526 -0.1822
  655SOL    HW1 2618   3.115   0.952   0.523  0.5178  0.4359  0.4396
  655SOL    HW2 2619   3.048   0.833   0.457  3.0387  0.6423  2.0472
  655SOL     MW 2620   3.079   0.914   0.455  0.4526 -0.1909  0.1940
  656SOL     OW 2621   1.975   2.726   1.223  0.1770  0.1141 -0.0089
  656SOL    HW1 2622   1.965   2.820   1.232 -0.1362 -0.3217 -4.9218
  656SOL    HW2 2623   2.010   2.698   1.306 -1.5405 -1.7898  0.3478
  656SOL     MW 2624   1.978   2.734   1.235 -0.0909 -0.1946 -0.6100
  657SOL     OW 2625   0.200   1.611   1.273 -0.5302 -0.7947 -0.2465
  657SOL    HW1 2626   0.107   1.592   1.294  0.6512 -1.6295 -0.0034
  657SOL    HW2 2627   0.214   1.608   1.179  0.6801  0.3340 -2.3222
  657SOL     MW 2628   0.190   1.608   1.263 -0.2147 -0.7559 -0.4883
  658SOL     OW 2629   2.680   1.361   0.258  0.4899 -0.0684 -0.7276
  658SOL    HW1 2630   2.617   1.300   0.297 -1.5562  2.4220  0.2448
  658SOL    HW2 2631   2.735   1.404   0.331  1.1220 -3.0012 -0.7396
  658SOL     MW 2632   2.679   1.359   0.273  0.3034 -0.1268 -0.6009
  659SOL     OW 2633   2.207   1.570   1.001 -0.2653  0.2428 -0.3203
  659SOL    HW1 2634   2.290   1.525   0.990  0.7694 -1.5066  1.0863
  659SOL    HW2 2635   2.200   1.609   1.091 -1.5894  2.8315  3.0663
  659SOL     MW 2636   2.217   1.569   1.011 -0.3035  0.3536  0.3121
  660SOL     OW 2637   2.026   1.552   1.782  0.0162 -0.6500  0.3560
  660SOL    HW1 2638   2.074   1.573   1.863  1.1976  0.1195  1.5951
  660SOL    HW2 2639   1.990   1.472   1.771  1.1259  3.7893 -0.0196
  660SOL     MW 2640   2.027   1.545   1.791  0.3185  0.0372  0.4699
  661SOL     OW 2641   2.327   1.064   0.130  0.4250 -0.3302 -0.4702
  661SOL    HW1 2642   2.382   1.109   0.194  3.0349  0.4130  0.4477
  661SOL    HW2 2643   2.325   0.973   0.158  0.5085  0.7246  2.3665
  661SOL     MW 2644   2.334   1.058   0.142  0.7804 -0.0929  0.0252
  662SOL     OW 2645   2.562   2.984   0.858 -0.4417  0.0771  0.2454
  662SOL    HW1 2646   2.527   3.036   0.929 -2.6033 -0.2366  1.2382
  662SOL    HW2 2647   2.570   3.045   0.783 -2.9174 -0.7310 -0.3892
  662SOL     MW 2648   2.558   2.999   0.857 -1.0536 -0.0709  0.2927
  663SOL     OW 2649   2.810   1.529   0.419 -0.0467  0.4192  0.4306
  663SOL    HW1 2650   2.889   1.566   0.392  1.7283  0.2508 -0.5235
  663SOL    HW2 2651   2.823   1.515   0.510  0.2796  1.4905  1.9206
  663SOL     MW 2652   2.822   1.532   0.427  0.2306  0.5383  0.5013
  664SOL     OW 2653   2.458   1.586   1.637 -0.4655  0.2580 -0.2950
  664SOL    HW1 2654   2.437   1.682   1.618  2.9637  2.3076  0.6153
  664SOL    HW2 2655   2.377   1.540   1.630  1.6193  0.7380 -0.5492
  664SOL     MW 2656   2.445   1.593   1.634  0.2620  0.5918 -0.2084
  665SOL     OW 2657   2.863   0.821   2.027 -0.0887 -0.1765  0.1295
  665SOL    HW1 2658   2.836   0.859   1.941 -1.8595  0.2701  0.9539
  665SOL    HW2 2659   2.946   0.772   2.015 -1.0174  0.7286 -3.2429
  665SOL     MW 2660   2.871   0.820   2.014 -0.4449  0.0018 -0.2067
  666SOL     OW 2661   2.799   3.027   1.686  0.3329 -0.5656  0.2887
  666SOL    HW1 2662   2.806   3.038   1.588  0.3115  3.0818 -1.3554
  666SOL    HW2 2663   2.737   2.951   1.693  0.5985 -1.9515 -0.5298
  666SOL     MW 2664   2.792   3.019   1.674  0.3651 -0.2672 -0.0362
  667SOL     OW 2665   1.929   2.669   1.726 -0.4833  0.0932 -1.1651
  667SOL    HW1 2666   1.966   2.587   1.760 -1.2123  1.9014 -2.0194
  667SOL    HW2 2667   2.005   2.729   1.713 -0.9539 -1.2909 -0.2090
  667SOL     MW 2668   1.944   2.666   1.729 -0.6416  0.1491 -1.1517
  668SOL     OW 2669   2.693   0.625   0.772  0.3927  0.7614  0.4641
  668SOL    HW1 2670   2.768   0.637   0.828 -2.6614 -2.6593  1.6146
  668SOL    HW2 2671   2.614   0.649   0.819  2.0738 -1.8601 -0.8708
  668SOL     MW 2672   2.693   0.630   0.786  0.2116 -0.0358  0.4398
  669SOL     OW 2673   0.151   0.915   0.729 -0.1420  1.0806 -0.1187
  669SOL    HW1 2674   0.079   0.958   0.784  0.4390  4.2368  2.0430
  669SOL    HW2 2675   0.227   0.962   0.751 -1.1689 -0.6025 -1.6789
  669SOL     MW 2676   0.151   0.927   0.739 -0.2009  1.2750 -0.0393
  670SOL     OW 2677   2.879   0.315   0.245 -0.2464 -0.3987  0.3275
  670SOL    HW1 2678   2.918   0.227   0.230 -1.7291  0.0156 -1.3763
  670SOL    HW2 2679   2.933   0.369   0.189 -2.2368 -0.6335  0.6743
  670SOL     MW 2680   2.891   0.311   0.235 -0.7047 -0.3750  0.1484
  671SOL     OW 2681   2.163   3.079   1.592 -0.8725  0.2502  0.0210
  671SOL    HW1 2682   2.122   3.159   1.548 -0.2204  1.0627  3.2634
  671SOL    HW2 2683   2.102   3.047   1.659  4.5142 -2.7856 -2.3939
  671SOL     MW 2684   2.150   3.085   1.595 -0.0757 -0.0431  0.1301
  672SOL     OW 2685   1.912   1.681   1.354 -0.0721  0.3970  0.0842
  672SOL    HW1 2686   1.823   1.696   1.387 -0.3670  1.2049 -0.6837
  672SOL    HW2 2687   1.917   1.735   1.273  0.3310  1.9203 -2.5385
  672SOL     MW 2688   1.901   1.690   1.347 -0.0578  0.7046 -0.3632
  673SOL     OW 2689   2.782   1.156   0.478 -0.0976 -0.3551  0.3331
  673SOL    HW1 2690   2.766   1.075   0.530 -2.0000 -3.0853  0.0444
  673SOL    HW2 2691   2.855   1.203   0.517  1.9050  1.3670 -2.0074
  673SOL     MW 2692   2.789   1.151   0.490 -0.0844 -0.4881 -0.0138
  674SOL     OW 2693   2.410   0.057   1.290 -0.3664 -0.3481  0.0164
  674SOL    HW1 2694   2.413   0.071   1.194 -0.6095 -2.9962  0.0377
  674SOL    HW2 2695   2.414  -0.039   1.297 -1.9780 -2.2245  0.9756
  674SOL     MW 2696   2.411   0.046   1.278 -0.6111 -0.9451  0.1458
  675SOL     OW 2697   2.947   0.967   1.095  0.3340  0.6677  0.1645
  675SOL    HW1 2698   3.024   0.949   1.148 -0.7778  3.5814  0.5354
  675SOL    HW2 2699   2.971   0.990   1.005  0.3047  0.0174 -4.3224
  675SOL     MW 2700   2.960   0.967   1.090  0.1835  0.9664 -0.3786
  676SOL     OW 2701   2.864   1.531   1.670 -0.4846  0.1936 -0.2155
  676SOL    HW1 2702   2.804   1.459   1.654  1.4816 -0.6234 -0.0860
  676SOL    HW2 2703   2.923   1.495   1.732 -1.5474 -2.9218  0.3036
  676SOL     MW 2704   2.864   1.517   1.676 -0.3654 -0.3252 -0.1299
  677SOL     OW 2705   2.478   0.838   1.829  0.0293  0.0909 -0.0766
  677SOL    HW1 2706   2.408   0.779   1.799  1.9255  2.5262 -1.4938
  677SOL    HW2 2707   2.452   0.933   1.826 -4.1793  1.5555  1.7293
  677SOL     MW 2708   2.465   0.843   1.824 -0.2758  0.6055 -0.0253
  678SOL     OW 2709   2.522   1.569   0.533 -0.1317  0.0165  0.0141
  678SOL    HW1 2710   2.453   1.602   0.474  2.2737  1.4118  0.2653
  678SOL    HW2 2711   2.603   1.567   0.478 -1.3806  3.5355 -2.7046
  678SOL     MW 2712   2.524   1.573   0.518  0.0209  0.6649 -0.3114
  679SOL     OW 2713   2.382   0.536   1.211  0.6671 -0.2349 -0.6720
  679SOL    HW1 2714   2.337   0.449   1.216 -0.7973 -0.8696 -1.7492
  679SOL    HW2 2715   2.320   0.592   1.165  2.0269  0.6368 -0.2974
  679SOL     MW 2716   2.368   0.532   1.206  0.6533 -0.2036 -0.7647
  680SOL     OW 2717   2.427   0.225   1.511  0.3275  0.3269 -0.5173
  680SOL    HW1 2718   2.396   0.192   1.594 -0.5430  3.7601 -1.9956
  680SOL    HW2 2719   2.400   0.161   1.440  0.6763  1.9041  1.2519
  680SOL     MW 2720   2.419   0.212   1.513  0.2586  0.9880 -0.4790
  681SOL     OW 2721   0.295   0.503   1.530 -0.7762 -0.2576  0.3099
  681SOL    HW1 2722   0.276   0.427   1.595 -0.7120 -0.3038  1.4745
  681SOL    HW2 2723   0.388   0.512   1.529 -0.1888  0.1701  0.2670
  681SOL     MW 2724   0.305   0.494   1.538 -0.6902 -0.2073  0.4579
  682SOL     OW 2725   0.175   2.987   1.502 -1.0190  0.1258 -0.5674
  682SOL    HW1 2726   0.124   3.048   1.437 -3.4945  1.8740 -0.2000
  682SOL    HW2 2727   0.121   2.966   1.579 -0.4085 -0.3538 -1.7005
  682SOL     MW 2728   0.161   2.992   1.504 -1.2651  0.2932 -0.6684
  683SOL     OW 2729   1.939   0.785   2.996  0.1873  0.1455  0.0109
  683SOL    HW1 2730   1.863   0.786   2.928  1.6643 -1.6212 -1.5351
  683SOL    HW2 2731   1.957   0.883   3.002  0.8683  2.0411 -3.1877
  683SOL     MW 2732   1.931   0.798   2.988  0.4721  0.1625 -0.6151
  684SOL     OW 2733   2.109   1.727   0.815 -0.0410 -0.1416 -0.1757
  684SOL    HW1 2734   2.018   1.696   0.828  1.0075 -0.2624  0.4608
  684SOL    HW2 2735   2.151   1.664   0.875 -0.5934 -0.4068  1.5375
  684SOL     MW 2736   2.102   1.715   0.824  0.0245 -0.1925  0.1343
  685SOL     OW 2737   2.646   1.740   1.184 -0.3812 -0.4038  0.1067
  685SOL    HW1 2738   2.722   1.747   1.244  1.2207  0.9701  1.1308
  685SOL    HW2 2739   2.616   1.651   1.210 -0.1274 -0.7880  0.7808
  685SOL     MW 2740   2.652   1.729   1.195 -0.1364 -0.2733  0.3307
  686SOL     OW 2741   2.941   0.697   1.511  1.1052  0.3242 -0.1774
  686SOL    HW1 2742   2.930   0.654   1.600  1.0533  2.0648 -0.5667
  686SOL    HW2 2743   3.031   0.695   1.481 -0.3656 -1.0991 -0.8290
  686SOL     MW 2744   2.951   0.691   1.519  0.9043  0.3660 -0.3147
  687SOL     OW 2745   2.195   0.329   1.229 -0.5049  0.0571  0.4538
  687SOL    HW1 2746   2.184   0.275   1.150 -1.0522 -1.9275 -0.5055
  687SOL    HW2 2747   2.133   0.402   1.222  1.3807 -0.5154 -1.8970
  687SOL     MW 2748   2.186   0.331   1.218 -0.3283 -0.2803  0.0171
  688SOL     OW 2749   2.359   0.522   1.491  0.0528 -0.0383  0.1562
  688SOL    HW1 2750   2.355   0.425   1.481 -0.0374  0.8124 -1.0860
  688SOL    HW2 2751   2.373   0.540   1.397  0.0353 -0.3653  1.6617
  688SOL     MW 2752   2.360   0.511   1.478  0.0386  0.0308  0.1909
  689SOL     OW 2753   2.570   0.789   2.967 -0.0948  0.1085 -0.2992
  689SOL    HW1 2754   2.597   0.872   2.916  0.0909  0.6115  3.9550
  689SOL    HW2 2755   2.577   0.803   3.060 -0.5910 -2.4088 -1.2341
  689SOL     MW 2756   2.575   0.802   2.972 -0.1358 -0.1572  0.1388
  690SOL     OW 2757   2.060   1.024   1.945 -0.0687  0.0209  0.0058
  690SOL    HW1 2758   2.040   0.933   1.947 -0.3278  1.6525  0.4987
  690SOL    HW2 2759   2.084   1.043   1.857  0.8160  0.4323  2.2361
  690SOL     MW 2760   2.060   1.015   1.934  0.0139  0.2904  0.3651
  691SOL     OW 2761   2.455   0.372   0.861 -0.5394 -0.4453  0.0281
  691SOL    HW1 2762   2.534   0.421   0.874  0.9584  1.4134 -2.1674
  691SOL    HW2 2763   2.387   0.429   0.827  1.8587  0.0370 -1.4848
  691SOL     MW 2764   2.457   0.386   0.858 -0.0254 -0.1364 -0.4612
  692SOL     OW 2765   2.828   1.659   1.408 -0.0290  0.3114 -0.7772
  692SOL    HW1 2766   2.820   1.633   1.497  4.0410 -2.0873  2.9638
  692SOL    HW2 2767   2.846   1.751   1.415  0.5120 -3.6479 -0.0458
  692SOL     MW 2768   2.830   1.668   1.420  0.5793 -0.5275 -0.1871
  693SOL     OW 2769   2.319   0.465   0.091  0.2044 -0.6693 -0.3061
  693SOL    HW1 2770   2.235   0.428   0.098  2.9976  0.1177  0.0948
  693SOL    HW2 2771   2.286   0.549   0.056  0.0194  1.3629  1.6152
  693SOL     MW 2772   2.303   0.472   0.087  0.5485 -0.2974  0.0003
  694SOL     OW 2773   1.968   1.262   1.206 -0.0438  0.0676  0.0802
  694SOL    HW1 2774   2.059   1.237   1.219 -0.1102 -0.3554  1.9822
  694SOL    HW2 2775   1.912   1.206   1.264 -0.5203  1.1001  1.8511
  694SOL     MW 2776   1.973   1.251   1.216 -0.1154  0.1480  0.5648
  695SOL     OW 2777   3.045   1.514   1.348 -0.0133  1.0589  0.4563
  695SOL    HW1 2778   3.000   1.502   1.265 -0.7294 -0.5085 -1.1433
  695SOL    HW2 2779   2.986   1.578   1.391 -3.1926 -1.1800  2.9234
  695SOL     MW 2780   3.031   1.521   1.343 -0.5273  0.5567  0.5708
  696SOL     OW 2781   2.018   1.361   0.945 -0.0732 -0.0573 -0.1650
  696SOL    HW1 2782   2.077   1.433   0.975 -1.0678  0.5946  2.8000
  696SOL    HW2 2783   1.999   1.310   1.024 -0.2730  3.1165  0.8025
  696SOL     MW 2784   2.023   1.364   0.960 -0.2308  0.4474  0.3538
  697SOL     OW 2785   2.869   1.002   2.261 -0.0454 -0.4790 -0.2023
  697SOL    HW1 2786   2.840   1.090   2.253  0.4129  0.5878  0.3111
  697SOL    HW2 2787   2.827   0.951   2.191 -1.1519 -2.3754 -1.7536
  697SOL     MW 2788   2.860   1.007   2.251 -0.1309 -0.5885 -0.3392
  698SOL     OW 2789   2.529   0.407   3.030  0.2973  0.3975  0.7660
  698SOL    HW1 2790   2.456   0.410   3.091  1.7344 -2.8863  0.2756
  698SOL    HW2 2791   2.575   0.336   3.071  2.0867  0.0000  1.2867
  698SOL     MW 2792   2.526   0.398   3.044  0.7230 -0.0882  0.7700
  699SOL     OW 2793   1.831   1.631   2.038  0.0070 -0.5437  0.2017
  699SOL    HW1 2794   1.809   1.541   2.065  1.8704  0.4317  0.6163
  699SOL    HW2 2795   1.927   1.628   2.041  0.6344  1.5633  1.6831
  699SOL     MW 2796   1.841   1.619   2.042  0.3357 -0.1370  0.4519
  700SOL     OW 2797   2.703   0.879   1.547  0.1632  0.1373  0.3582
  700SOL    HW1 2798   2.729   0.964   1.504  4.1642  1.3815  1.0633
  700SOL    HW2 2799   2.777   0.829   1.520 -1.4188 -0.1689 -0.0754
  700SOL     MW 2800   2.716   0.884   1.538  0.4824  0.2611  0.3940
  701SOL     OW 2801   1.675   1.298   2.585  0.1549 -0.2953  0.8122
  701SOL    HW1 2802   1.766   1.325   2.604 -1.2144  1.5848  0.4698
  701SOL    HW2 2803   1.629   1.319   2.670 -0.8327 -0.6300  2.1635
  701SOL     MW 2804   1.681   1.304   2.599 -0.1561 -0.0914  0.9453
  702SOL     OW 2805   2.225   0.503   0.764 -0.3553 -0.5012 -0.5977
  702SOL    HW1 2806   2.194   0.417   0.754  0.6579  1.8455 -2.7697
  702SOL    HW2 2807   2.214   0.543   0.680  0.7609  0.8474 -1.8383
  702SOL     MW 2808   2.220   0.497   0.752 -0.0743 -0.0136 -1.0480
  703SOL     OW 2809   2.693   1.284   1.000 -0.1806 -0.3088  0.2556
  703SOL    HW1 2810   2.672   1.291   0.903  0.5445  3.6035 -1.3922
  703SOL    HW2 2811   2.683   1.194   1.032  1.0095 -0.1515  0.6145
  703SOL     MW 2812   2.689   1.273   0.991  0.0721  0.2282  0.0855
  704SOL     OW 2813   0.007   1.304   0.222  0.2989  0.1689  0.5582
  704SOL    HW1 2814  -0.081   1.278   0.197  0.1461  1.1692  0.6155
  704SOL    HW2 2815   0.050   1.228   0.255 -0.1287 -3.8788  0.8291
  704SOL     MW 2816   0.001   1.291   0.223  0.2224 -0.2331  0.6015
  705SOL     OW 2817   2.235   1.626   1.321 -0.0142 -0.2039  0.3149
  705SOL    HW1 2818   2.148   1.628   1.356 -1.0011 -0.2763  0.1998
  705SOL    HW2 2819   2.258   1.541   1.344  0.5368  3.0711  0.2478
  705SOL     MW 2820   2.227   1.615   1.329 -0.0717  0.2187  0.2908
  706SOL     OW 2821   2.983   1.238   0.634  0.2865 -0.1652 -0.0242
  706SOL    HW1 2822   3.074   1.244   0.611 -1.9111  3.2764 -0.7197
  706SOL    HW2 2823   2.971   1.331   0.674  0.2145  2.5370  3.6786
  706SOL     MW 2824   2.993   1.251   0.636 -0.0129  0.6454  0.3726
  707SOL     OW 2825   2.457   0.108   1.010  0.1790  0.2809  0.5180
  707SOL    HW1 2826   2.491   0.190   0.974  3.5999  0.5872 -1.0923
  707SOL    HW2 2827   2.366   0.117   0.985  2.2083  0.1442 -2.1675
  707SOL     MW 2828   2.449   0.120   1.002  0.8981  0.3033 -0.0488
  708SOL     OW 2829   2.540   1.535   0.112  0.7761 -0.1493 -0.7386
  708SOL    HW1 2830   2.586   1.464   0.165  2.1268  0.7069  0.9469
  708SOL    HW2 2831   2.471   1.485   0.069 -3.9690 -1.8428 -0.8963
  708SOL     MW 2832   2.537   1.519   0.113  0.3282 -0.2597 -0.5370
  709SOL     OW 2833   1.772   1.684   0.135 -0.1020 -0.0064  0.0709
  709SOL    HW1 2834   1.779   1.625   0.062  4.4270 -0.3335 -1.6667
  709SOL    HW2 2835   1.702   1.649   0.194 -1.5074  1.7126 -0.9854
  709SOL     MW 2836   1.764   1.672   0.133  0.3101  0.1773 -0.2977
  710SOL     OW 2837   2.226   1.181   1.203  0.5379  0.6582  0.1564
  710SOL    HW1 2838   2.261   1.190   1.117  0.0810 -2.3320  2.1249
  710SOL    HW2 2839   2.235   1.087   1.233 -4.1522 -3.4190  0.6600
  710SOL     MW 2840   2.232   1.170   1.196 -0.1412 -0.2743  0.4826
  711SOL     OW 2841   2.318   0.135   1.754  0.5599  0.2550 -0.1224
  711SOL    HW1 2842   2.407   0.117   1.778 -1.7024 -0.4634 -0.1352
  711SOL    HW2 2843   2.275   0.061   1.726 -0.7996  2.0321  2.6443
  711SOL     MW 2844   2.324   0.123   1.754  0.0820  0.3947  0.2410
  712SOL     OW 2845   1.602   0.646   3.078 -0.2352  0.0600 -0.4001
  712SOL    HW1 2846   1.643   0.708   3.018  1.2385 -1.9137 -2.4126
  712SOL    HW2 2847   1.531   0.694   3.117 -1.7571 -1.4241  1.3256
  712SOL     MW 2848   1.598   0.661   3.076 -0.2415 -0.3962 -0.4380
  713SOL     OW 2849   2.584   0.774   1.150  0.2655 -0.0714  0.4225
  713SOL    HW1 2850   2.657   0.705   1.140  2.8572 -0.7008  0.2689
  713SOL    HW2 2851   2.534   0.739   1.226 -1.4200  2.4388 -2.2082
  713SOL     MW 2852   2.587   0.760   1.159  0.3851  0.1768  0.0551
  714SOL     OW 2853   2.247   0.147   2.021 -0.0241 -0.3176 -0.3807
  714SOL    HW1 2854   2.314   0.121   2.085  0.8346  3.3883  0.2123
  714SOL    HW2 2855   2.281   0.139   1.926 -0.3864  2.1353 -0.5929
  714SOL     MW 2856   2.260   0.142   2.017  0.0414  0.4950 -0.3304
  715SOL     OW 2857   1.751   1.933   1.714  0.2104  0.4743  0.2658
  715SOL    HW1 2858   1.837   1.893   1.682  1.9758  0.3654 -0.3621
  715SOL    HW2 2859   1.721   1.862   1.772 -0.6112  1.2960  4.5640
  715SOL     MW 2860   1.758   1.918   1.718  0.3349  0.5683  0.7501
  716SOL     OW 2861   2.201   0.720   0.578  1.0083 -0.4272  0.7345
  716SOL    HW1 2862   2.265   0.706   0.512 -0.4159 -0.5799  1.3703
  716SOL    HW2 2863   2.113   0.744   0.534 -0.1416  1.7889  2.0830
  716SOL     MW 2864   2.198   0.721   0.563  0.6686 -0.1550  0.9963
  717SOL     OW 2865   2.895   1.427   2.973 -0.4620 -0.0709 -0.7650
  717SOL    HW1 2866   2.977   1.455   2.939 -0.1954  0.2313  2.5080
  717SOL    HW2 2867   2.867   1.497   3.037  1.0487  1.2605  2.1755
  717SOL     MW 2868   2.902   1.440   2.977 -0.2275  0.1446  0.0548
  718SOL     OW 2869   2.565   1.492   1.280 -0.0067 -0.2443  0.5802
  718SOL    HW1 2870   2.568   1.507   1.377 -0.9684  1.6406 -2.3000
  718SOL    HW2 2871   2.643   1.433   1.262  0.5280 -0.2110 -0.0631
  718SOL     MW 2872   2.576   1.486   1.291 -0.0630  0.0088  0.1153
  719SOL     OW 2873   2.150   1.332   0.683 -0.0917  0.1362 -0.0975
  719SOL    HW1 2874   2.236   1.369   0.662 -2.1941  4.1762  1.6836
  719SOL    HW2 2875   2.157   1.302   0.772 -3.1194 -2.0309 -0.1559
  719SOL     MW 2876   2.162   1.333   0.692 -0.7686  0.3833  0.1298
  720SOL     OW 2877   2.860   1.172   0.157 -0.4275  0.0091 -0.2691
  720SOL    HW1 2878   2.840   1.076   0.164 -1.1822  3.0351 -4.4102
  720SOL    HW2 2879   2.799   1.220   0.212 -0.5285  1.6070  0.9946
  720SOL     MW 2880   2.849   1.166   0.165 -0.5404  0.6191 -0.6487
  721SOL     OW 2881   2.463   0.782   1.413  0.2378 -0.0117 -0.3511
  721SOL    HW1 2882   2.430   0.695   1.436  0.7550 -0.0928 -2.6325
  721SOL    HW2 2883   2.552   0.802   1.450 -0.3648 -4.1188 -2.4001
  721SOL     MW 2884   2.471   0.773   1.421  0.2265 -0.5643 -0.9224
  722SOL     OW 2885   2.497   1.163   0.350  0.1612  0.0823 -0.0768
  722SOL    HW1 2886   2.452   1.191   0.431  0.0230  1.9541  1.7433
  722SOL    HW2 2887   2.580   1.137   0.389  3.3750  1.9519  0.2105
  722SOL     MW 2888   2.502   1.163   0.366  0.5670  0.5759  0.2013
  723SOL     OW 2889   2.248   1.383   1.639  0.0137  0.2109 -0.2839
  723SOL    HW1 2890   2.263   1.354   1.548  0.7620 -2.6962 -0.3219
  723SOL    HW2 2891   2.160   1.358   1.666 -1.4588  3.0285 -1.7153
  723SOL     MW 2892   2.239   1.376   1.631 -0.0819  0.1991 -0.4778
  724SOL     OW 2893   2.499   0.359   0.583 -0.1618  0.3051 -0.5304
  724SOL    HW1 2894   2.458   0.365   0.667  1.0601 -2.3216 -1.7225
  724SOL    HW2 2895   2.586   0.335   0.607 -2.0751 -1.1769  0.8093
  724SOL     MW 2896   2.505   0.357   0.597 -0.2531 -0.2370 -0.5109
  725SOL     OW 2897   2.646   0.498   1.132  0.2601  0.4411 -0.0963
  725SOL    HW1 2898   2.665   0.514   1.230 -1.1955  2.6933  1.1815
  725SOL    HW2 2899   2.552   0.494   1.138 -0.3367 -0.7841  0.1377
  725SOL     MW 2900   2.636   0.500   1.145 -0.0107  0.5766  0.1032
  726SOL     OW 2901   2.568   2.399   0.549 -0.2157  0.1523  0.8716
  726SOL    HW1 2902   2.533   2.468   0.493  4.8371 -2.4600 -2.3555
  726SOL    HW2 2903   2.548   2.421   0.637 -0.4486  2.0683 -0.5383
  726SOL     MW 2904   2.560   2.411   0.553  0.4202  0.0604  0.2598
  727SOL     OW 2905   2.890   0.288   1.660  0.0031 -0.2235 -0.0168
  727SOL    HW1 2906   2.881   0.306   1.562 -2.2962  3.5889 -1.5874
  727SOL    HW2 2907   2.793   0.287   1.676  2.0682 -1.2302  1.9926
  727SOL     MW 2908   2.876   0.290   1.649 -0.0278  0.1466  0.0411
  728SOL     OW 2909   2.778   1.158   3.001  0.4855 -0.4044  0.2878
  728SOL    HW1 2910   2.775   1.246   2.976  0.0982 -2.0123  0.2134
  728SOL    HW2 2911   2.794   1.168   3.091  0.4121  0.0547 -1.4558
  728SOL     MW 2912   2.780   1.171   3.009  0.4248 -0.5560  0.0480
  729SOL     OW 2913   2.467   1.456   0.992 -0.0234  0.0467  0.2118
  729SOL    HW1 2914   2.478   1.495   1.077  0.6279 -0.2172  3.3986
  729SOL    HW2 2915   2.518   1.378   0.991  0.0035  2.1918  0.1988
  729SOL     MW 2916   2.476   1.451   1.003  0.0661  0.2949  0.6306
  730SOL     OW 2917   2.072   1.180   0.174 -0.3023  0.4793  0.2417
  730SOL    HW1 2918   2.159   1.137   0.165  1.0150  1.8684 -0.6563
  730SOL    HW2 2919   2.086   1.274   0.190  1.6530  0.2074  1.0435
  730SOL     MW 2920   2.085   1.187   0.175  0.1295  0.6267  0.2290
  731SOL     OW 2921   2.791   1.800   2.874  0.2640  0.0458  0.2964
  731SOL    HW1 2922   2.701   1.822   2.853  0.2022  1.8537 -1.8645
  731SOL    HW2 2923   2.840   1.883   2.885  1.5131  1.3424 -1.3569
  731SOL     MW 2924   2.786   1.814   2.873  0.4207  0.4554 -0.2069
  732SOL     OW 2925   2.227   0.934   1.288 -0.3110  0.2251 -0.1791
  732SOL    HW1 2926   2.167   0.923   1.360  0.0013 -0.3744 -1.1153
  732SOL    HW2 2927   2.302   0.867   1.316  3.6275  1.0465  0.0384
  732SOL     MW 2928   2.229   0.924   1.301  0.2499  0.2544 -0.2739
  733SOL     OW 2929   2.379   2.847   3.031  0.0654 -0.2922 -0.5999
  733SOL    HW1 2930   2.298   2.899   3.022 -2.3864  0.3509 -0.4151
  733SOL    HW2 2931   2.350   2.755   3.022 -2.0711  0.0014 -2.9412
  733SOL     MW 2932   2.364   2.841   3.029 -0.5400 -0.1686 -0.8844
  734SOL     OW 2933   1.512   0.384   2.532  0.1668  0.1766  0.1745
  734SOL    HW1 2934   1.424   0.365   2.574 -3.1428 -0.8000 -0.5147
  734SOL    HW2 2935   1.513   0.329   2.451  0.0719  1.6937  2.3551
  734SOL     MW 2936   1.500   0.374   2.527 -0.2824  0.2479  0.3713
  735SOL     OW 2937   2.985   0.886   2.750 -0.5949 -0.1635 -0.0625
  735SOL    HW1 2938   2.902   0.838   2.735 -1.3232 -0.2037 -1.6048
  735SOL    HW2 2939   2.991   0.919   2.839  2.7885 -0.6594 -1.4747
  735SOL     MW 2940   2.975   0.884   2.760 -0.2445 -0.2343 -0.4523
  736SOL     OW 2941   0.039   0.644   2.482  0.0829  0.1375 -0.5625
  736SOL    HW1 2942   0.103   0.693   2.427  1.1393  0.1094  0.8607
  736SOL    HW2 2943   0.021   0.558   2.440 -1.6965 -0.3156  0.5987
  736SOL     MW 2944   0.045   0.639   2.469 -0.0125  0.0740 -0.2215
  737SOL     OW 2945   2.876   0.622   2.555  0.3237  0.1819 -0.1228
  737SOL    HW1 2946   2.826   0.585   2.480  0.1681  0.3464  1.8849
  737SOL    HW2 2947   2.960   0.662   2.524  1.3186 -1.2570 -0.3432
  737SOL     MW 2948   2.880   0.622   2.541  0.4344  0.0138  0.1130
  738SOL     OW 2949   0.162   0.395   1.903  0.5218  0.4089  0.0893
  738SOL    HW1 2950   0.230   0.453   1.898 -1.4026  1.2771 -1.8828
  738SOL    HW2 2951   0.182   0.325   1.841 -1.8861 -0.1581  0.4570
  738SOL     MW 2952   0.173   0.393   1.894 -0.0498  0.4487 -0.1224
  739SOL     OW 2953   2.559   1.026   2.198 -0.0030  0.0784  0.5118
  739SOL    HW1 2954   2.478   1.003   2.157 -1.1208  1.7555 -0.2054
  739SOL    HW2 2955   2.598   1.074   2.124  1.4570 -0.5027 -0.7311
  739SOL     MW 2956   2.554   1.030   2.183  0.0421  0.2230  0.2532
  740SOL     OW 2957   0.281   1.704   2.930 -0.5458 -0.0415  0.4498
  740SOL    HW1 2958   0.270   1.610   2.930 -0.4183  0.5429 -2.0960
  740SOL    HW2 2959   0.364   1.717   2.982  0.1424 -0.1346 -0.5286
  740SOL     MW 2960   0.290   1.693   2.937 -0.4382  0.0233 -0.0152
  741SOL     OW 2961   2.217   1.267   2.651  0.1152  0.3312  0.7344
  741SOL    HW1 2962   2.225   1.353   2.614 -1.3512 -0.9204  0.4151
  741SOL    HW2 2963   2.230   1.264   2.747  2.2090  0.4639  2.9516
  741SOL     MW 2964   2.220   1.278   2.659  0.1980  0.1836  0.9848
  742SOL     OW 2965   1.570   1.368   2.342  0.3957 -0.1545 -0.5479
  742SOL    HW1 2966   1.506   1.309   2.305  1.2555  3.0789  0.1085
  742SOL    HW2 2967   1.608   1.335   2.429  1.2263 -0.1003 -0.0559
  742SOL     MW 2968   1.567   1.356   2.348  0.6187  0.2793 -0.3964
  743SOL     OW 2969   2.494   1.214   2.695 -0.3960 -0.3088  0.1770
  743SOL    HW1 2970   2.401   1.214   2.669  1.0908 -0.8685  0.9534
  743SOL    HW2 2971   2.510   1.142   2.749 -1.3896  2.7656  0.8725
  743SOL     MW 2972   2.484   1.204   2.699 -0.3310  0.0230  0.3712
  744SOL     OW 2973   2.776   0.968   1.804 -0.1605 -0.1056  0.1387
  744SOL    HW1 2974   2.704   1.026   1.844 -2.5331  1.3323 -3.2994
  744SOL    HW2 2975   2.745   0.921   1.721  0.4751  0.9146 -0.5332
  744SOL     MW 2976   2.762   0.970   1.798 -0.3896  0.2187 -0.4036
  745SOL     OW 2977   1.785   0.482   2.465 -1.0531 -0.0771 -0.2645
  745SOL    HW1 2978   1.738   0.479   2.374  1.0680  1.4741  0.6671
  745SOL    HW2 2979   1.728   0.452   2.537 -0.9781  2.4777  1.8633
  745SOL     MW 2980   1.772   0.477   2.463 -0.7633  0.4647  0.1391
  746SOL     OW 2981   1.590   1.436   1.727 -0.3202 -0.1613  0.0852
  746SOL    HW1 2982   1.644   1.502   1.768  2.1310  2.1849 -1.4942
  746SOL    HW2 2983   1.556   1.380   1.790  1.1254 -0.0246 -1.1517
  746SOL     MW 2984   1.592   1.437   1.741  0.1939  0.1663 -0.2864
  747SOL     OW 2985   2.611   1.141   1.927  0.4178 -0.5997 -0.4155
  747SOL    HW1 2986   2.526   1.143   1.876  0.0454 -3.7368 -2.4457
  747SOL    HW2 2987   2.616   1.233   1.970  2.3196  0.4773 -2.3934
  747SOL     MW 2988   2.600   1.154   1.926  0.6196 -0.8715 -0.9443
  748SOL     OW 2989   0.127   3.016   1.966 -0.1249  0.8110  0.3126
  748SOL    HW1 2990   0.192   3.075   1.930  1.0582  4.0069  2.5963
  748SOL    HW2 2991   0.078   3.082   2.008  1.6698  2.2938 -2.8051
  748SOL     MW 2992   0.129   3.032   1.966  0.2680  1.4283  0.2026
  749SOL     OW 2993   2.408   0.637   2.795  0.2649  0.3827 -0.3863
  749SOL    HW1 2994   2.400   0.711   2.737  2.4713 -3.9173  1.3358
  749SOL    HW2 2995   2.470   0.676   2.864 -0.1138  0.0031 -2.3686
  749SOL     MW 2996   2.415   0.652   2.797  0.5061 -0.2347 -0.4206
  750SOL     OW 2997   2.079   3.056   2.004  0.7488 -0.4993 -0.0363
  750SOL    HW1 2998   2.141   3.133   2.028  0.2341 -0.8145  0.5335
  750SOL    HW2 2999   2.146   2.991   1.980 -0.6978  1.1124 -1.1518
  750SOL     MW 3000   2.096   3.057   2.004  0.4901 -0.3282 -0.1083
  751SOL     OW 3001   0.023   0.371   2.442 -0.0262 -0.1344 -0.2316
  751SOL    HW1 3002  -0.056   0.331   2.398 -2.6686  0.0889  0.5676
  751SOL    HW2 3003   0.099   0.356   2.384  0.8222 -1.1729  4.8162
  751SOL     MW 3004   0.023   0.363   2.428 -0.2629 -0.2419  0.5399
  752SOL     OW 3005   2.155   0.962   2.790 -0.2090 -0.0383  0.4320
  752SOL    HW1 3006   2.247   0.967   2.811  1.3956 -0.9569 -0.3873
  752SOL    HW2 3007   2.121   0.885   2.832 -0.8775  0.4511  2.3342
  752SOL     MW 3008   2.163   0.953   2.798 -0.0855 -0.0949  0.5749
  753SOL     OW 3009   2.856   0.296   2.333 -0.0123  0.5373 -0.2370
  753SOL    HW1 3010   2.824   0.201   2.331  0.8344 -1.1556 -0.1865
  753SOL    HW2 3011   2.789   0.357   2.352  1.2620 -1.5605 -1.6481
  753SOL     MW 3012   2.843   0.292   2.335  0.2676  0.0372 -0.4165
  754SOL     OW 3013   2.245   3.012   2.615  0.5110  0.0125 -0.4147
  754SOL    HW1 3014   2.290   2.970   2.540  1.8037  2.9633 -0.1877
  754SOL    HW2 3015   2.306   2.982   2.686 -0.8282  0.8924  0.4116
  754SOL     MW 3016   2.259   3.002   2.615  0.5048  0.5179 -0.2757
  755SOL     OW 3017   2.766   1.607   2.384 -0.3954  0.0920  0.1795
  755SOL    HW1 3018   2.729   1.519   2.411 -3.6330 -0.5148 -0.4373
  755SOL    HW2 3019   2.794   1.644   2.468 -0.7124 -1.1107 -2.1235
  755SOL     MW 3020   2.765   1.600   2.398 -0.8644 -0.1467 -0.2057
  756SOL     OW 3021   2.203   1.244   2.969 -0.4716 -0.0738 -0.1764
  756SOL    HW1 3022   2.269   1.311   2.982 -0.9441 -1.1786  1.9186
  756SOL    HW2 3023   2.259   1.163   2.967  0.5119  0.7718  0.5963
  756SOL     MW 3024   2.219   1.242   2.970 -0.4042 -0.1080  0.2019
  757SOL     OW 3025   2.185   0.964   1.715 -0.3935 -0.2578  0.4517
  757SOL    HW1 3026   2.208   0.871   1.720  1.1829 -0.2414  2.5474
  757SOL    HW2 3027   2.129   0.981   1.635  0.7040  0.0877  0.1869
  757SOL     MW 3028   2.180   0.954   1.705 -0.0407 -0.2101  0.6932
  758SOL     OW 3029   2.180   1.841   2.522  0.3529 -0.1595  0.5471
  758SOL    HW1 3030   2.141   1.919   2.474  0.0455  0.1089  1.4408
  758SOL    HW2 3031   2.267   1.821   2.487  1.6562 -2.2976  0.6495
  758SOL     MW 3032   2.186   1.849   2.511  0.4843 -0.4062  0.6785
  759SOL     OW 3033   1.588   1.462   2.812 -0.0845 -0.1610 -0.0481
  759SOL    HW1 3034   1.590   1.533   2.736 -0.1996  2.5257 -0.6890
  759SOL    HW2 3035   1.650   1.486   2.882  0.1911  1.6231  0.7718
  759SOL     MW 3036   1.596   1.474   2.811 -0.0633  0.4288 -0.0244
  760SOL     OW 3037   2.577   1.928   2.719 -0.1680  0.3988 -0.0090
  760SOL    HW1 3038   2.531   1.857   2.681 -1.2637 -0.1979  1.7747
  760SOL    HW2 3039   2.651   1.939   2.661 -1.0793 -3.0912  0.9817
  760SOL     MW 3040   2.581   1.920   2.706 -0.4328 -0.1404  0.3570
  761SOL     OW 3041   2.313   0.435   2.388 -0.3892  0.2114  0.9440
  761SOL    HW1 3042   2.238   0.387   2.426  0.0366 -0.0214 -1.5020
  761SOL    HW2 3043   2.368   0.475   2.458 -0.7298  0.4636 -1.6354
  761SOL     MW 3044   2.310   0.434   2.402 -0.3780  0.2140  0.2809
  762SOL     OW 3045   0.018   0.187   2.133  0.2721  0.1973 -0.3984
  762SOL    HW1 3046  -0.002   0.126   2.207  0.6641 -0.4849 -0.8716
  762SOL    HW2 3047  -0.062   0.233   2.110 -0.4863 -0.9828 -0.2453
  762SOL     MW 3048   0.004   0.185   2.139  0.2238 -0.0484 -0.4406
  763SOL     OW 3049   2.450   1.211   2.393  0.3382  0.5888 -0.2955
  763SOL    HW1 3050   2.498   1.156   2.328  1.7052 -0.7373  0.4320
  763SOL    HW2 3051   2.507   1.241   2.458 -3.7828  0.7130 -0.7899
  763SOL     MW 3052   2.464   1.208   2.393 -0.0252  0.4303 -0.2648
  764SOL     OW 3053   0.391   0.036   2.789 -0.4493 -0.0292  0.3576
  764SOL    HW1 3054   0.330   0.102   2.772  1.7695 -1.7744 -0.2217
  764SOL    HW2 3055   0.424   0.053   2.880 -0.0920  2.2578  0.5846
  764SOL     MW 3056   0.388   0.047   2.799 -0.1094  0.0423  0.3111
  765SOL     OW 3057   2.773   0.018   2.339  0.0041 -0.7211 -0.3347
  765SOL    HW1 3058   2.739   0.022   2.253  2.1738  0.0576  1.2114
  765SOL    HW2 3059   2.786  -0.075   2.355 -2.0190  0.1913  0.3632
  765SOL     MW 3060   2.770   0.006   2.330  0.0235 -0.4980 -0.0387
  766SOL     OW 3061   1.924   2.986   2.200 -0.0541  0.1755 -0.9030
  766SOL    HW1 3062   1.980   3.007   2.125  4.2081  0.3949 -0.5470
  766SOL    HW2 3063   1.851   2.937   2.151 -0.6446 -3.2170  1.9888
  766SOL     MW 3064   1.922   2.983   2.184  0.4304 -0.2432 -0.4745
  767SOL     OW 3065   2.649   0.628   1.891 -0.0335  0.0983 -0.2073
  767SOL    HW1 3066   2.679   0.641   1.978  2.0824  0.0480 -0.9603
  767SOL    HW2 3067   2.595   0.704   1.868  2.2535  1.1941  0.7785
  767SOL     MW 3068   2.646   0.640   1.900  0.5474  0.2362 -0.1766
  768SOL     OW 3069   0.073   1.465   2.892 -0.0279  0.3557 -0.1966
  768SOL    HW1 3070   0.077   1.496   2.982  3.2187 -2.2296  3.7512
  768SOL    HW2 3071   0.080   1.369   2.896 -1.9991  1.8516 -1.1965
  768SOL     MW 3072   0.074   1.456   2.905  0.1404  0.2120  0.1923
  769SOL     OW 3073   2.393   0.700   2.343 -0.0300 -0.0506 -0.2618
  769SOL    HW1 3074   2.354   0.609   2.324 -0.5727  1.6208 -0.4588
  769SOL    HW2 3075   2.455   0.716   2.267  1.4256 -0.5294 -3.6465
  769SOL     MW 3076   2.396   0.690   2.330  0.0905  0.1068 -0.7343
  770SOL     OW 3077   3.090   1.590   2.669  0.1831 -0.7611  0.6948
  770SOL    HW1 3078   2.997   1.592   2.673  1.0598 -0.2302 -0.9054
  770SOL    HW2 3079   3.110   1.538   2.748  0.0461 -1.0400 -0.0545
  770SOL     MW 3080   3.080   1.584   2.680  0.2807 -0.7279  0.3848
  771SOL     OW 3081   3.070   0.571   1.988  0.1758  0.6569 -0.1551
  771SOL    HW1 3082   3.025   0.556   1.904  0.8654 -1.4683  1.5050
  771SOL    HW2 3083   3.148   0.517   1.962 -1.4103  3.4238  0.7991
  771SOL     MW 3084   3.074   0.562   1.974  0.0575  0.7416  0.1898
  772SOL     OW 3085   3.088   0.010   2.344 -0.2445  0.3601  0.0599
  772SOL    HW1 3086   3.000  -0.016   2.357  0.0625 -1.7322  1.0412
  772SOL    HW2 3087   3.121  -0.073   2.299  1.8525  1.3732 -0.3371
  772SOL     MW 3088   3.081  -0.004   2.340  0.0727  0.2177  0.1370
  773SOL     OW 3089   2.477   2.914   2.760 -0.0849  0.2394 -0.1952
  773SOL    HW1 3090   2.505   2.833   2.714  0.0994  0.6754 -3.2215
  773SOL    HW2 3091   2.469   2.894   2.856 -1.0044 -2.1857  0.3490
  773SOL     MW 3092   2.480   2.900   2.766 -0.1819 -0.0230 -0.5227
  774SOL     OW 3093   2.381   1.167   1.760 -0.2227 -0.4418 -0.6497
  774SOL    HW1 3094   2.386   1.243   1.704 -1.7265  1.8951 -1.6022
  774SOL    HW2 3095   2.305   1.112   1.736  2.0253 -0.1326  2.2504
  774SOL     MW 3096   2.371   1.170   1.749 -0.1245 -0.0927 -0.3927
  775SOL     OW 3097   2.327   2.888   2.385 -0.2368  0.1016 -0.2291
  775SOL    HW1 3098   2.355   2.971   2.339  1.5270 -0.2944 -1.2317
  775SOL    HW2 3099   2.387   2.818   2.370  0.1090 -1.6535  2.5580
  775SOL     MW 3100   2.339   2.890   2.377  0.0415 -0.1822  0.0063
  776SOL     OW 3101   0.138   1.507   0.074  0.0452 -0.0147  0.6553
  776SOL    HW1 3102   0.221   1.462   0.088  0.4911  1.1959  0.4978
  776SOL    HW2 3103   0.072   1.437   0.098  0.7661 -1.7915 -1.4117
  776SOL     MW 3104   0.140   1.492   0.079  0.1992 -0.0894  0.3618
  777SOL     OW 3105   2.969   1.118   1.699 -0.6717 -0.5648  0.8167
  777SOL    HW1 3106   2.941   1.166   1.624 -3.3836  3.3166 -1.8193
  777SOL    HW2 3107   2.895   1.095   1.752 -0.0923  0.5086  1.0793
  777SOL     MW 3108   2.955   1.122   1.696 -0.9531  0.0889  0.5036
  778SOL     OW 3109   2.931   0.500   2.835 -0.3474  0.1100 -0.2112
  778SOL    HW1 3110   2.875   0.535   2.909 -2.3212 -0.5645 -0.1465
  778SOL    HW2 3111   2.910   0.557   2.761  0.9785  1.7401 -0.4819
  778SOL     MW 3112   2.921   0.512   2.835 -0.4329  0.2360 -0.2384
  779SOL     OW 3113   2.222   0.537   2.105 -0.0956 -0.6911  0.2639
  779SOL    HW1 3114   2.148   0.567   2.166  0.4251  1.1422  0.4282
  779SOL    HW2 3115   2.263   0.471   2.152  2.5261  0.3964 -1.2913
  779SOL     MW 3116   2.218   0.533   2.120  0.3190 -0.3058  0.0804
  780SOL     OW 3117   0.218   0.258   2.716  0.0825  0.1369 -0.2708
  780SOL    HW1 3118   0.121   0.260   2.724 -3.7013 -2.1794 -0.0817
  780SOL    HW2 3119   0.242   0.349   2.733 -1.0146  3.4788  0.7201
  780SOL     MW 3120   0.208   0.270   2.720 -0.5615  0.2722 -0.1151
  781SOL     OW 3121   0.009   1.208   2.417  0.1829  0.1795 -0.1419
  781SOL    HW1 3122   0.055   1.224   2.329  2.0477  0.4752 -0.3332
  781SOL    HW2 3123  -0.008   1.118   2.427 -0.2711  1.7405 -1.6058
  781SOL     MW 3124   0.013   1.199   2.406  0.3690  0.4245 -0.3603
  782SOL     OW 3125   0.734   1.493   0.048 -0.1226  0.0329 -0.1627
  782SOL    HW1 3126   0.647   1.540   0.045 -3.1951  1.7285  0.3898
  782SOL    HW2 3127   0.767   1.498   0.140  1.3267  1.4762 -0.8161
  782SOL     MW 3128   0.727   1.500   0.060 -0.3368  0.4470 -0.1760
  783SOL     OW 3129   2.702   0.522   2.359 -0.4475 -0.4910  0.1807
  783SOL    HW1 3130   2.692   0.597   2.304  1.2475 -1.0702  2.0254
  783SOL    HW2 3131   2.639   0.527   2.429  0.3604 -1.3264 -1.1659
  783SOL     MW 3132   2.692   0.533   2.361 -0.1173 -0.6777  0.2464
  784SOL     OW 3133   0.145   0.802   2.824  0.6075 -0.1477 -0.5625
  784SOL    HW1 3134   0.061   0.832   2.798  0.8003  0.1086  0.9451
  784SOL    HW2 3135   0.214   0.832   2.764  1.0588  0.5702 -0.6949
  784SOL     MW 3136   0.143   0.810   2.813  0.6925 -0.0192 -0.3810
  785SOL     OW 3137   0.447   0.437   2.164 -0.4860 -0.0940 -0.0023
  785SOL    HW1 3138   0.452   0.459   2.068 -0.5597 -0.2034  1.5467
  785SOL    HW2 3139   0.361   0.389   2.171 -1.3721  0.8435  1.4736
  785SOL     MW 3140   0.436   0.433   2.152 -0.6126  0.0153  0.3968
  786SOL     OW 3141   1.875   0.509   3.037 -0.0557 -0.5959  0.0925
  786SOL    HW1 3142   1.915   0.583   2.983  1.7618  0.9195  3.5660
  786SOL    HW2 3143   1.777   0.523   3.047 -2.0928  0.8846 -1.9597
  786SOL     MW 3144   1.867   0.520   3.031 -0.0846 -0.2006  0.2800
  787SOL     OW 3145   2.388   0.197   2.913 -0.1761 -0.1697  0.0687
  787SOL    HW1 3146   2.469   0.143   2.890  2.6669 -1.9545  1.6151
  787SOL    HW2 3147   2.426   0.281   2.942  1.1365  1.6518 -1.1501
  787SOL     MW 3148   2.404   0.201   2.914  0.3722 -0.1649  0.1120
  788SOL     OW 3149   2.919   2.890   2.387 -0.1868  0.3997 -0.0699
  788SOL    HW1 3150   2.991   2.871   2.449  0.8379 -0.2801  1.4861
  788SOL    HW2 3151   2.949   2.864   2.298 -1.4918  0.7411  1.0944
  788SOL     MW 3152   2.933   2.884   2.383 -0.2238  0.3550  0.2891
  789SOL     OW 3153   0.107   0.199   0.063  0.3116  0.4418 -0.4934
  789SOL    HW1 3154   0.025   0.146   0.078 -2.7525  1.0125 -1.9257
  789SOL    HW2 3155   0.063   0.265   0.012 -0.1010 -0.9580  0.5903
  789SOL     MW 3156   0.090   0.201   0.058 -0.1471  0.3324 -0.5394
  790SOL     OW 3157   3.040   0.950   2.474 -0.3356  0.3695 -0.0359
  790SOL    HW1 3158   3.010   0.921   2.557  2.4063  1.1236 -3.7674
  790SOL    HW2 3159   2.963   0.929   2.416 -0.8478  0.1682  0.4051
  790SOL     MW 3160   3.026   0.944   2.477 -0.0414  0.4424 -0.4701
  791SOL     OW 3161   2.520   0.504   2.581  0.6095 -0.3662  0.1293
  791SOL    HW1 3162   2.490   0.553   2.662  0.6171  3.0467 -2.1949
  791SOL    HW2 3163   2.541   0.416   2.610  0.3386  1.1467 -0.7089
  791SOL     MW 3164   2.519   0.499   2.595  0.5747  0.2837 -0.2879
  792SOL     OW 3165   2.486   0.223   2.447 -0.1220 -0.1248  0.1534
  792SOL    HW1 3166   2.445   0.288   2.385 -1.8895 -0.7275 -0.4522
  792SOL    HW2 3167   2.413   0.219   2.508 -0.8563 -1.3856  1.2441
  792SOL     MW 3168   2.471   0.231   2.447 -0.4521 -0.3706  0.2174
  793SOL     OW 3169   1.834   1.133   2.050 -0.7704 -0.4615 -0.2885
  793SOL    HW1 3170   1.791   1.122   1.969  0.9413  1.1158  1.6533
  793SOL    HW2 3171   1.924   1.109   2.023 -1.6628 -0.1824  0.5455
  793SOL     MW 3172   1.840   1.129   2.036 -0.6623 -0.2166  0.0777
  794SOL     OW 3173   1.368   2.302   0.114 -0.2577  0.4198 -0.2404
  794SOL    HW1 3174   1.396   2.391   0.082  0.0757 -2.2680  1.2189
  794SOL    HW2 3175   1.437   2.277   0.170  0.9190  3.5663  1.4870
  794SOL     MW 3176   1.380   2.311   0.117 -0.0584  0.4803  0.1800
  795SOL     OW 3177   2.280   1.032   2.513 -0.0939  0.2646  0.4066
  795SOL    HW1 3178   2.228   1.105   2.547  0.7914  0.5467 -0.1181
  795SOL    HW2 3179   2.338   1.080   2.448  1.2233  2.0324 -4.4931
  795SOL     MW 3180   2.281   1.048   2.509  0.1967  0.5351 -0.3091
  796SOL     OW 3181   0.251   0.595   2.679 -0.0643  0.4152  0.0897
  796SOL    HW1 3182   0.218   0.641   2.754  1.1629  1.5406  0.9237
  796SOL    HW2 3183   0.175   0.593   2.620 -2.2784 -2.4249  1.3612
  796SOL     MW 3184   0.236   0.600   2.681 -0.1945  0.1889  0.3675
  797SOL     OW 3185   2.759   0.215   2.658 -0.3908  0.0667 -0.3358
  797SOL    HW1 3186   2.732   0.200   2.567  1.2011  0.0920  1.7534
  797SOL    HW2 3187   2.849   0.238   2.642 -1.4882 -2.2367 -1.1667
  797SOL     MW 3188   2.767   0.216   2.644 -0.3256 -0.2339 -0.1697
  798SOL     OW 3189   2.410   0.006   2.275  0.0381 -0.4319  0.4707
  798SOL    HW1 3190   2.438   0.082   2.337 -1.7937  0.8409 -1.2251
  798SOL    HW2 3191   2.490  -0.019   2.230 -0.6991 -1.8450  0.8036
  798SOL     MW 3192   2.424   0.013   2.277 -0.3008 -0.4504  0.2909
  799SOL     OW 3193   2.577   3.025   0.078 -0.2289  0.7413  0.1669
  799SOL    HW1 3194   2.509   2.976   0.033 -0.5255 -0.7687 -0.6080
  799SOL    HW2 3195   2.557   3.014   0.178 -0.0482  3.8769  1.9658
  799SOL     MW 3196   2.565   3.017   0.085 -0.2442  0.9558  0.3020
  800SOL     OW 3197   1.949   2.995   1.737  0.0677 -0.0916 -0.2650
  800SOL    HW1 3198   1.861   2.960   1.760 -0.4459 -0.5382  0.2016
  800SOL    HW2 3199   1.970   3.031   1.821  3.5459  1.2327 -0.5033
  800SOL     MW 3200   1.940   2.995   1.751  0.4589  0.0242 -0.2349
  801SOL     OW 3201   2.893   1.258   2.590  0.1224 -0.4935  0.4525
  801SOL    HW1 3202   2.872   1.168   2.603  1.4532 -1.9337  0.2699
  801SOL    HW2 3203   2.969   1.264   2.530 -0.6413  0.0089 -1.1349
  801SOL     MW 3204   2.900   1.247   2.584  0.1972 -0.6173  0.2189
  802SOL     OW 3205   2.636   1.413   2.820  0.1035 -0.1440 -0.3903
  802SOL    HW1 3206   2.629   1.323   2.770 -2.3967  0.9594  0.7452
  802SOL    HW2 3207   2.710   1.421   2.882  3.0856  2.5587  0.9298
  802SOL     MW 3208   2.645   1.402   2.821  0.1671  0.3582 -0.0663
  803SOL     OW 3209   2.339   1.413   1.992 -0.4102  0.3912  0.2219
  803SOL    HW1 3210   2.316   1.382   2.076 -0.2854 -0.5952 -2.0649
  803SOL    HW2 3211   2.336   1.337   1.933 -0.3158  1.0839 -0.8415
  803SOL     MW 3212   2.336   1.399   1.995 -0.3813  0.3525 -0.2202
  804SOL     OW 3213   2.248   0.123   0.046  0.3497  0.1082 -0.3596
  804SOL    HW1 3214   2.201   0.201   0.062  0.7928 -1.2794  2.3418
  804SOL    HW2 3215   2.302   0.135  -0.031 -0.8619 -0.6526  1.2847
  804SOL     MW 3216   2.249   0.135   0.038  0.2483 -0.1753  0.2138
  805SOL     OW 3217   2.714   0.811   2.653 -0.3714 -0.0178 -0.6116
  805SOL    HW1 3218   2.621   0.825   2.626 -1.3736  1.8658  1.4461
  805SOL    HW2 3219   2.747   0.727   2.637  0.4227  0.3180  0.8409
  805SOL     MW 3220   2.706   0.802   2.647 -0.3989  0.2750 -0.1485
  806SOL     OW 3221   2.662   0.743   2.192  0.6194 -0.5168  0.1000
  806SOL    HW1 3222   2.741   0.753   2.139  0.3265 -0.6719 -1.6743
  806SOL    HW2 3223   2.638   0.832   2.220  2.8390  0.0874 -1.9702
  806SOL     MW 3224   2.669   0.756   2.189  0.8736 -0.4575 -0.4073
  807SOL     OW 3225   3.065   1.071   2.020  0.7224  0.4667  0.6308
  807SOL    HW1 3226   3.104   0.985   2.043  3.0038  1.1920  0.6602
  807SOL    HW2 3227   2.983   1.087   2.076 -4.1526  1.0835 -1.0267
  807SOL     MW 3228   3.059   1.062   2.030  0.3802  0.6438  0.4160
  808SOL     OW 3229   2.613   0.066   2.823  0.4288 -0.4245  0.1596
  808SOL    HW1 3230   2.587  -0.003   2.760 -1.7806  2.1202 -2.0296
  808SOL    HW2 3231   2.663   0.125   2.777 -1.2725 -1.4918  0.0072
  808SOL     MW 3232   2.616   0.064   2.809 -0.0871 -0.2295 -0.1493
  809SOL     OW 3233   2.689   1.359   2.437 -0.1896 -0.0139 -0.3994
  809SOL    HW1 3234   2.748   1.316   2.506 -3.4084 -0.9723  0.3570
  809SOL    HW2 3235   2.730   1.318   2.362 -0.4155 -0.2341  0.8492
  809SOL     MW 3236   2.702   1.348   2.436 -0.6441 -0.1694 -0.1348
  810SOL     OW 3237   2.241   1.299   2.219  0.1630  0.0154  0.6012
  810SOL    HW1 3238   2.305   1.277   2.285 -1.8098 -1.7731  1.1440
  810SOL    HW2 3239   2.190   1.220   2.207 -0.7578 -0.5023  2.9565
  810SOL     MW 3240   2.242   1.285   2.226 -0.2188 -0.2889  0.9836
  811SOL     OW 3241   1.627   0.202   2.265  0.0779 -0.6498 -0.0845
  811SOL    HW1 3242   1.718   0.161   2.287  3.5172  1.9049  1.3385
  811SOL    HW2 3243   1.623   0.213   2.164 -0.7803 -0.2441 -2.1597
  811SOL     MW 3244   1.638   0.198   2.255  0.4185 -0.2592 -0.1705
  812SOL     OW 3245   1.476   2.799   2.053  0.6050 -0.0036 -0.2879
  812SOL    HW1 3246   1.569   2.788   2.040 -0.2995 -1.3394  1.5949
  812SOL    HW2 3247   1.469   2.807   2.151 -0.3283  1.4489  0.3693
  812SOL     MW 3248   1.487   2.798   2.064  0.3625  0.0118  0.0472
  813SOL     OW 3249   1.996   0.632   2.251  0.8601  0.2549 -0.0434
  813SOL    HW1 3250   1.914   0.581   2.217  0.3133 -4.1441 -1.5047
  813SOL    HW2 3251   1.951   0.713   2.283 -0.8255 -3.6807  1.7357
  813SOL     MW 3252   1.979   0.636   2.251  0.5655 -0.8447 -0.0015
  814SOL     OW 3253   2.705   1.291   1.643 -0.0803 -0.0379 -0.3061
  814SOL    HW1 3254   2.690   1.260   1.728  0.2211  1.4095  0.1132
  814SOL    HW2 3255   2.728   1.216   1.588 -1.4978 -2.7844  2.8447
  814SOL     MW 3256   2.706   1.277   1.647 -0.2276 -0.2093  0.1650
  815SOL     OW 3257   2.541   1.765   2.376  0.0894 -0.2518  0.5711
  815SOL    HW1 3258   2.495   1.681   2.338 -1.6481 -2.5398  0.0810
  815SOL    HW2 3259   2.635   1.740   2.364  0.7030  0.4223 -0.5574
  815SOL     MW 3260   2.547   1.750   2.369 -0.0589 -0.4647  0.3575
  816SOL     OW 3261   0.707   0.689   2.783  0.5524 -0.0365  0.4798
  816SOL    HW1 3262   0.709   0.594   2.797 -2.2628  3.8097  0.4724
  816SOL    HW2 3263   0.623   0.697   2.738  3.8880 -1.1219  3.4333
  816SOL     MW 3264   0.696   0.677   2.779  0.6211  0.3278  0.8685
  817SOL     OW 3265   2.998   1.270   1.444 -0.5127 -0.2679  0.0629
  817SOL    HW1 3266   3.092   1.252   1.467  1.7297 -0.4252 -2.6274
  817SOL    HW2 3267   2.999   1.362   1.425  2.9297 -0.1909 -2.5529
  817SOL     MW 3268   3.011   1.280   1.445  0.2373 -0.2785 -0.6372
  818SOL     OW 3269   1.932   1.051   2.639  0.4060 -0.2865  0.1873
  818SOL    HW1 3270   1.933   0.971   2.578  1.5458 -0.5121 -2.3802
  818SOL    HW2 3271   2.013   1.028   2.687 -0.3624  0.5939 -2.1140
  818SOL     MW 3272   1.943   1.038   2.637  0.4550 -0.2001 -0.4551
  819SOL     OW 3273   2.044   0.329   2.425 -0.8376  0.4282  0.5159
  819SOL    HW1 3274   1.989   0.406   2.409 -0.6735  0.3263  0.4090
  819SOL    HW2 3275   2.042   0.323   2.517 -1.3372  1.5224  0.1180
  819SOL     MW 3276   2.037   0.338   2.435 -0.8818  0.5591  0.4493
  820SOL     OW 3277   2.483   1.675   2.630  0.0779  0.4334  1.1526
  820SOL    HW1 3278   2.559   1.624   2.656  0.2403 -0.5558  1.0407
  820SOL    HW2 3279   2.513   1.716   2.550  0.1871 -1.0977  0.4670
  820SOL     MW 3280   2.497   1.674   2.623  0.1137  0.1009  1.0474
  821SOL     OW 3281   2.622   1.383   2.039 -0.0868  0.0060 -0.8095
  821SOL    HW1 3282   2.658   1.438   1.970 -0.2185 -0.0121 -0.8089
  821SOL    HW2 3283   2.523   1.408   2.037 -2.3005 -1.1655  0.1288
  821SOL     MW 3284   2.614   1.394   2.029 -0.3962 -0.1510 -0.6856
  822SOL     OW 3285   2.951   2.715   1.512 -0.3317 -0.4206  0.0959
  822SOL    HW1 3286   2.959   2.699   1.610  0.0234  0.4199 -2.6408
  822SOL    HW2 3287   2.915   2.800   1.499  0.3006  0.4264 -0.7261
  822SOL     MW 3288   2.947   2.724   1.523 -0.2014 -0.1980 -0.3736
  823SOL     OW 3289   2.380   0.463   1.876 -0.1904  0.0222 -0.3944
  823SOL    HW1 3290   2.464   0.420   1.907  1.1758 -2.1286  0.7402
  823SOL    HW2 3291   2.336   0.485   1.956  0.9563 -1.2588  1.3442
  823SOL     MW 3292   2.385   0.460   1.890  0.1411 -0.4306 -0.0153
  824SOL     OW 3293   2.262   1.529   2.515  0.3167 -0.5615  0.6049
  824SOL    HW1 3294   2.328   1.584   2.556 -0.4607 -0.2589 -0.4414
  824SOL    HW2 3295   2.191   1.588   2.495  2.0062 -1.6500  2.3246
  824SOL     MW 3296   2.261   1.544   2.518  0.4371 -0.6652  0.6938
  825SOL     OW 3297   1.903   2.628   0.230  0.1573 -0.0626 -0.1874
  825SOL    HW1 3298   1.848   2.562   0.255  2.1531  2.1462 -1.0827
  825SOL    HW2 3299   1.977   2.583   0.194 -3.6693 -3.4773  2.4515
  825SOL     MW 3300   1.906   2.614   0.228 -0.0843 -0.2217  0.0426
  826SOL     OW 3301   1.849   2.332   0.409 -0.5254 -0.7319  1.0807
  826SOL    HW1 3302   1.820   2.269   0.475 -0.0540  0.6845  1.0180
  826SOL    HW2 3303   1.875   2.410   0.449  2.2062  0.1031  0.7046
  826SOL     MW 3304   1.848   2.334   0.423 -0.1028 -0.4348  1.0228
  827SOL     OW 3305   1.975   2.185   0.752  0.0147 -0.0729 -0.9728
  827SOL    HW1 3306   1.889   2.176   0.703 -3.1787  0.0849  1.0637
  827SOL    HW2 3307   1.966   2.112   0.822  1.1013  1.6025  1.3311
  827SOL     MW 3308   1.963   2.174   0.755 -0.2632  0.1690 -0.4002
  828SOL     OW 3309   0.045   2.636   0.613 -0.2939 -0.6362 -0.2756
  828SOL    HW1 3310   0.138   2.642   0.602 -0.8990  0.6112  0.5758
  828SOL    HW2 3311   0.019   2.706   0.548 -0.0139  0.1881  0.7276
  828SOL     MW 3312   0.054   2.646   0.603 -0.3368 -0.3629 -0.0309
  829SOL     OW 3313   2.969   2.982   1.186  0.3341 -0.2136 -0.1320
  829SOL    HW1 3314   2.897   2.980   1.129  2.9267  2.3980  0.6212
  829SOL    HW2 3315   3.010   2.897   1.164  3.3626 -2.8920 -0.4152
  829SOL     MW 3316   2.965   2.970   1.176  1.0757 -0.2224 -0.0700
  830SOL     OW 3317   2.536   2.836   2.000 -0.0611  0.1810  0.3376
  830SOL    HW1 3318   2.458   2.811   1.951 -0.1348 -1.0484  1.0723
  830SOL    HW2 3319   2.600   2.799   1.935  0.7772 -0.8439 -0.7293
  830SOL     MW 3320   2.534   2.828   1.985  0.0398 -0.1165  0.2938
  831SOL     OW 3321   2.422   2.410   1.223 -0.4634 -0.0900  0.2897
  831SOL    HW1 3322   2.376   2.368   1.290  2.0306 -1.5499  1.2008
  831SOL    HW2 3323   2.508   2.368   1.226 -1.2403  1.7111  1.2306
  831SOL     MW 3324   2.427   2.399   1.232 -0.2368 -0.0450  0.5341
  832SOL     OW 3325   2.296   2.185   1.835 -0.1456 -0.3104 -0.6064
  832SOL    HW1 3326   2.341   2.278   1.843  2.4358 -1.2869  1.0836
  832SOL    HW2 3327   2.373   2.125   1.829  1.7696  0.3942 -1.6442
  832SOL     MW 3328   2.312   2.190   1.836  0.4477 -0.3463 -0.5204
  833SOL     OW 3329   1.721   2.514   0.887 -0.1657 -0.1239  0.6250
  833SOL    HW1 3330   1.632   2.488   0.888  0.4166  3.4858 -2.4198
  833SOL    HW2 3331   1.719   2.570   0.965  1.3031 -2.6727 -2.5543
  833SOL     MW 3332   1.709   2.518   0.897  0.1050  0.0161 -0.1962
  834SOL     OW 3333   2.129   2.444   0.553 -0.6313  0.0247  0.3387
  834SOL    HW1 3334   2.127   2.367   0.611  0.7808  0.7481 -0.0820
  834SOL    HW2 3335   2.191   2.418   0.483 -0.6815 -2.0117 -1.6762
  834SOL     MW 3336   2.137   2.430   0.552 -0.4516 -0.1485  0.0174
  835SOL     OW 3337   1.829   2.577   0.631 -0.3023  0.0828 -0.4933
  835SOL    HW1 3338   1.787   2.538   0.701  0.3419  2.3881 -2.1140
  835SOL    HW2 3339   1.919   2.597   0.668 -1.6173  2.3315  0.5694
  835SOL     MW 3340   1.836   2.574   0.645 -0.3908  0.6837 -0.5669
  836SOL     OW 3341   1.899   2.239   1.552 -0.3027  0.4170  0.5099
  836SOL    HW1 3342   1.990   2.223   1.575  1.3320 -1.7503  0.7393
  836SOL    HW2 3343   1.862   2.306   1.611  0.9069 -0.2468 -0.3190
  836SOL     MW 3344   1.907   2.246   1.563  0.0726  0.0434  0.4308
  837SOL     OW 3345   2.165   0.237   0.732  0.2466 -0.1621 -0.2162
  837SOL    HW1 3346   2.069   0.226   0.712 -2.1350 -0.1863 -1.2730
  837SOL    HW2 3347   2.205   0.192   0.653  0.6351 -2.1332  0.8480
  837SOL     MW 3348   2.158   0.230   0.719 -0.0164 -0.4254 -0.2153
  838SOL     OW 3349   2.940   2.076   0.943 -0.0777 -0.1706  0.1964
  838SOL    HW1 3350   2.886   1.996   0.940 -0.1327  2.6681  0.0268
  838SOL    HW2 3351   3.031   2.054   0.921  0.1454  1.1139  1.4693
  838SOL     MW 3352   2.945   2.063   0.939 -0.0555  0.3734  0.3420
  839SOL     OW 3353   1.517   2.353   1.050  0.1346  0.6603 -0.0757
  839SOL    HW1 3354   1.519   2.386   1.138 -0.3442  0.1807 -0.5961
  839SOL    HW2 3355   1.543   2.259   1.066 -0.7975 -0.1993 -0.8790
  839SOL     MW 3356   1.521   2.345   1.064 -0.0515  0.4836 -0.2503
  840SOL     OW 3357   2.391   2.246   2.423 -0.2880  0.4411 -0.6750
  840SOL    HW1 3358   2.358   2.315   2.374  1.6341 -2.4208 -1.1971
  840SOL    HW2 3359   2.360   2.262   2.513 -0.6257 -0.5481  2.5993
  840SOL     MW 3360   2.383   2.257   2.428 -0.0790 -0.0670 -0.3119
  841SOL     OW 3361   2.086   2.495   0.097 -0.7223 -0.3072 -0.4792
  841SOL    HW1 3362   2.150   2.546   0.044 -1.2262  0.2147  0.7502
  841SOL    HW2 3363   2.081   2.402   0.067  0.5498  0.2225 -0.8642
  841SOL     MW 3364   2.094   2.489   0.086 -0.6209 -0.1685 -0.3678
  842SOL     OW 3365   2.665   2.093   1.552 -0.2105 -0.4826 -0.5024
  842SOL    HW1 3366   2.647   2.078   1.647 -0.2791 -0.4049 -1.3139
  842SOL    HW2 3367   2.590   2.067   1.503  1.4922  1.2456  0.7136
  842SOL     MW 3368   2.653   2.088   1.558  0.0051 -0.2444 -0.4490
  843SOL     OW 3369   2.664   2.761   1.767  0.1590 -0.0361  0.3212
  843SOL    HW1 3370   2.751   2.731   1.782 -0.8279 -0.4360 -1.4493
  843SOL    HW2 3371   2.628   2.696   1.697  1.7903  3.3124 -1.5393
  843SOL     MW 3372   2.670   2.748   1.760  0.2440  0.3530 -0.1579
  844SOL     OW 3373   2.711   2.326   1.236  0.1985  0.0959 -0.3059
  844SOL    HW1 3374   2.684   2.329   1.145  0.9214 -0.4814 -1.3436
  844SOL    HW2 3375   2.749   2.421   1.243 -1.4144  4.1864  1.5663
  844SOL     MW 3376   2.712   2.339   1.225  0.0810  0.5594 -0.1958
  845SOL     OW 3377   2.864   2.471   0.347 -0.2624 -0.0332  0.1241
  845SOL    HW1 3378   2.816   2.384   0.353  0.2033 -0.4005  1.2945
  845SOL    HW2 3379   2.872   2.493   0.438 -0.6214 -0.2559 -0.8537
  845SOL     MW 3380   2.859   2.462   0.360 -0.2483 -0.1111  0.1495
  846SOL     OW 3381   1.520   2.878   0.755  0.4791  0.1696 -0.2552
  846SOL    HW1 3382   1.562   2.935   0.823 -0.8572  1.2215  2.5320
  846SOL    HW2 3383   1.426   2.897   0.757  1.7485 -2.6641 -0.5445
  846SOL     MW 3384   1.513   2.888   0.764  0.4703 -0.0655  0.0744
  847SOL     OW 3385   2.627   1.992   0.178 -0.2700  0.4531  0.6997
  847SOL    HW1 3386   2.677   1.942   0.243  2.3769 -0.6729  0.1759
  847SOL    HW2 3387   2.599   1.925   0.122  2.3039  0.3101 -1.6328
  847SOL     MW 3388   2.630   1.977   0.179  0.4188  0.2857  0.3229
  848SOL     OW 3389   2.520   2.090   1.285  0.2474  0.5735  0.3233
  848SOL    HW1 3390   2.608   2.130   1.276  0.9422  2.2532 -0.4412
  848SOL    HW2 3391   2.521   1.996   1.250  2.5543  0.8805 -0.0001
  848SOL     MW 3392   2.532   2.083   1.279  0.6434  0.8356  0.1798
  849SOL     OW 3393   2.033   2.675   0.773 -0.6004 -0.0977  0.2315
  849SOL    HW1 3394   2.047   2.585   0.799  0.5804  4.1010 -0.5847
  849SOL    HW2 3395   2.107   2.706   0.716 -0.1605 -0.9611  0.9652
  849SOL     MW 3396   2.044   2.667   0.769 -0.3865  0.3424  0.2206
  850SOL     OW 3397   2.213   1.908   1.717 -0.4538  0.4125 -0.0475
  850SOL    HW1 3398   2.144   1.850   1.682  0.3920 -1.1349  1.1027
  850SOL    HW2 3399   2.192   1.996   1.689  1.6553  1.5033 -0.2358
  850SOL     MW 3400   2.201   1.912   1.709 -0.0639  0.3522  0.0794
  851SOL     OW 3401   2.283   2.386   0.317 -0.3632 -0.0620  0.2209
  851SOL    HW1 3402   2.215   2.397   0.253  1.3048 -0.4449 -1.0991
  851SOL    HW2 3403   2.357   2.452   0.303 -2.3018  0.7850  0.3751
  851SOL     MW 3404   2.284   2.396   0.307 -0.3989 -0.0008  0.0671
  852SOL     OW 3405   2.351   2.103   0.287  0.3177 -0.1065 -0.0116
  852SOL    HW1 3406   2.331   2.199   0.304  1.0922 -0.2877 -0.3112
  852SOL    HW2 3407   2.417   2.105   0.218  1.0891 -1.2410  0.6434
  852SOL     MW 3408   2.357   2.116   0.280  0.5217 -0.2801  0.0353
  853SOL     OW 3409   2.431   2.431   1.874  0.0323 -0.2282  0.6475
  853SOL    HW1 3410   2.468   2.469   1.792  2.8494 -1.5481  0.2019
  853SOL    HW2 3411   2.510   2.412   1.924 -0.8913  2.4414 -1.0701
  853SOL     MW 3412   2.447   2.433   1.870  0.2821 -0.0501  0.3621
  854SOL     OW 3413   2.823   2.245   0.744  0.5138 -0.2598 -0.3456
  854SOL    HW1 3414   2.778   2.187   0.682  0.2210 -0.2773 -1.0835
  854SOL    HW2 3415   2.834   2.189   0.823  0.4295 -0.5782 -0.0933
  854SOL     MW 3416   2.819   2.230   0.746  0.4641 -0.3041 -0.4097
  855SOL     OW 3417   2.718   2.246   0.365 -0.1478  0.2483 -0.2536
  855SOL    HW1 3418   2.672   2.271   0.447  0.8788 -1.3904 -3.0499
  855SOL    HW2 3419   2.783   2.175   0.383  0.5835 -0.3608 -0.0018
  855SOL     MW 3420   2.720   2.240   0.378  0.0842 -0.0482 -0.5893
  856SOL     OW 3421   2.193   1.876   0.193  0.5212  0.3970 -0.3878
  856SOL    HW1 3422   2.095   1.880   0.207  0.7124 -1.1662 -1.8325
  856SOL    HW2 3423   2.228   1.962   0.215  0.9098  1.2987 -0.9168
  856SOL     MW 3424   2.184   1.888   0.198  0.5977  0.3097 -0.6482
  857SOL     OW 3425   2.463   1.896   0.440  0.0377 -0.2099 -0.0408
  857SOL    HW1 3426   2.419   1.977   0.405 -0.2165  3.2912 -0.1074
  857SOL    HW2 3427   2.402   1.827   0.416  0.4319  1.5911 -0.0122
  857SOL     MW 3428   2.449   1.898   0.432  0.0562  0.4896 -0.0458
  858SOL     OW 3429   2.934   2.683   1.787  0.0033 -0.2817 -0.6101
  858SOL    HW1 3430   3.026   2.703   1.822 -1.0462  2.2661  0.1382
  858SOL    HW2 3431   2.917   2.591   1.795 -2.1246  0.2368  2.6459
  858SOL     MW 3432   2.944   2.674   1.793 -0.4159  0.1229 -0.0818
  859SOL     OW 3433   2.065   2.414   0.886  0.6211 -0.1506  0.1525
  859SOL    HW1 3434   2.026   2.350   0.827 -1.4983 -0.4416  1.2273
  859SOL    HW2 3435   2.156   2.391   0.894 -2.0187  0.9697  1.7874
  859SOL     MW 3436   2.072   2.403   0.880 -0.0068 -0.0412  0.5100
  860SOL     OW 3437   2.671   2.574   0.167 -0.1069  0.4171  0.2603
  860SOL    HW1 3438   2.729   2.533   0.227  1.1454 -0.0515 -1.8313
  860SOL    HW2 3439   2.716   2.657   0.135  0.7425  0.2127  1.0912
  860SOL     MW 3440   2.685   2.580   0.171  0.1704  0.3283  0.0939
  861SOL     OW 3441   1.635   2.092   1.182 -0.0874 -0.5847  0.1491
  861SOL    HW1 3442   1.709   2.078   1.246 -0.0485 -0.3325  1.2479
  861SOL    HW2 3443   1.562   2.030   1.208 -1.5114  0.1537 -2.6515
  861SOL     MW 3444   1.635   2.082   1.194 -0.2701 -0.4540 -0.0754
  862SOL     OW 3445   2.447   1.855   1.561  0.0998 -0.1754  0.6901
  862SOL    HW1 3446   2.362   1.873   1.611  0.0222  0.4480 -1.4494
  862SOL    HW2 3447   2.417   1.828   1.473 -0.9960 -0.9334 -0.4262
  862SOL     MW 3448   2.432   1.854   1.556 -0.0550 -0.1931  0.2605
  863SOL     OW 3449   3.007   1.817   1.244 -0.1661 -0.4088  0.0030
  863SOL    HW1 3450   3.045   1.794   1.328  0.9029 -1.3937 -0.4305
  863SOL    HW2 3451   3.004   1.910   1.242  2.1283 -2.3029  0.5867
  863SOL     MW 3452   3.012   1.827   1.255  0.2776 -0.7887  0.0228
  864SOL     OW 3453   0.055   1.871   0.922  0.5996  0.4668 -0.1305
  864SOL    HW1 3454  -0.020   1.847   0.975 -1.0895 -1.9638 -0.1074
  864SOL    HW2 3455   0.046   1.824   0.842  2.8024 -1.7373  1.5936
  864SOL     MW 3456   0.044   1.861   0.919  0.6673 -0.1447  0.1001
  865SOL     OW 3457   2.472   2.174   0.043 -0.3516  0.3420  0.0700
  865SOL    HW1 3458   2.531   2.116   0.091  2.4385 -0.3600  0.2292
  865SOL    HW2 3459   2.464   2.125  -0.036  0.7830  1.8694  2.3317
  865SOL     MW 3460   2.478   2.160   0.039  0.1662  0.4509  0.3894
  866SOL     OW 3461   2.721   2.357   1.541  0.5800 -0.2072  0.7027
  866SOL    HW1 3462   2.685   2.267   1.540 -1.5530  1.1293  1.3112
  866SOL    HW2 3463   2.746   2.376   1.452 -0.6977 -1.6133  2.6237
  866SOL     MW 3464   2.720   2.348   1.529  0.1300 -0.2164  1.0364
  867SOL     OW 3465   0.102   2.703   1.854  0.1175  0.4513 -0.1204
  867SOL    HW1 3466   0.159   2.703   1.928 -2.6600 -0.3648  1.6564
  867SOL    HW2 3467   0.099   2.785   1.809 -0.7286 -1.8264  0.1749
  867SOL     MW 3468   0.109   2.714   1.858 -0.3606  0.0431  0.1530
  868SOL     OW 3469   2.766   2.568   0.599  0.2062 -0.1157 -0.7947
  868SOL    HW1 3470   2.703   2.499   0.597  2.4640 -2.1725  0.4401
  868SOL    HW2 3471   2.738   2.629   0.534 -1.0187  0.0576  2.2940
  868SOL     MW 3472   2.754   2.567   0.590  0.3425 -0.3642 -0.2242
  869SOL     OW 3473   1.898   2.314   1.099 -0.0024  0.2536  0.2660
  869SOL    HW1 3474   1.944   2.361   1.031 -0.6375  2.2196  2.9628
  869SOL    HW2 3475   1.812   2.304   1.050 -0.0890 -1.1683 -2.7207
  869SOL     MW 3476   1.893   2.319   1.084 -0.0976  0.3254  0.2278
  870SOL     OW 3477   2.324   0.119   0.535 -0.0560  0.0749  0.3215
  870SOL    HW1 3478   2.353   0.133   0.444  1.9465 -0.5548 -0.5686
  870SOL    HW2 3479   2.400   0.073   0.561 -0.5971 -0.9047 -1.6049
  870SOL     MW 3480   2.338   0.115   0.526  0.1368 -0.1374 -0.0501
  871SOL     OW 3481   2.455   2.160   0.789  0.4070 -0.1342  0.2571
  871SOL    HW1 3482   2.387   2.092   0.772 -2.3626 -2.6065 -1.1093
  871SOL    HW2 3483   2.408   2.229   0.832 -0.8272 -2.2575  0.8226
  871SOL     MW 3484   2.440   2.160   0.792 -0.1212 -0.7405  0.1514
  872SOL     OW 3485   2.035   2.591   1.457  0.1061  0.2510 -0.1466
  872SOL    HW1 3486   2.018   2.643   1.537 -1.4630  3.2581 -1.9480
  872SOL    HW2 3487   1.952   2.541   1.449 -1.1640 -0.2688  0.9190
  872SOL     MW 3488   2.022   2.591   1.466 -0.2685  0.5791 -0.2437
  873SOL     OW 3489   2.831   2.034   1.895  0.0500  0.4398  0.1170
  873SOL    HW1 3490   2.889   2.099   1.946  0.1056 -0.7674 -0.4406
  873SOL    HW2 3491   2.880   2.014   1.814  0.5219  3.3159  0.2748
  873SOL     MW 3492   2.845   2.040   1.891  0.1196  0.6600  0.0642
  874SOL     OW 3493   2.441   1.542   2.270  0.2141 -0.3627 -0.0230
  874SOL    HW1 3494   2.359   1.532   2.313  1.8053 -2.5987 -0.9500
  874SOL    HW2 3495   2.499   1.474   2.292 -0.5408  0.9271  1.1613
  874SOL     MW 3496   2.438   1.532   2.278  0.3244 -0.4875  0.0109
  875SOL     OW 3497   2.339   2.390   0.948  0.0264  0.2219 -0.5392
  875SOL    HW1 3498   2.416   2.433   0.896  1.7994 -1.0880 -1.6311
  875SOL    HW2 3499   2.368   2.401   1.039 -0.1089  0.0398  0.9129
  875SOL     MW 3500   2.353   2.397   0.953  0.2425  0.0251 -0.4917
  876SOL     OW 3501   3.052   2.316   1.320  0.1284 -0.2960 -0.0273
  876SOL    HW1 3502   3.111   2.339   1.243  1.0444  2.7349 -2.1625
  876SOL    HW2 3503   3.100   2.360   1.394  1.6016 -1.0074  0.3269
  876SOL     MW 3504   3.066   2.325   1.319  0.4436  0.0100 -0.2623
  877SOL     OW 3505   3.086   2.788   0.413 -0.0528 -0.5089 -1.0327
  877SOL    HW1 3506   3.068   2.873   0.375 -3.5951 -0.0087 -1.0907
  877SOL    HW2 3507   3.116   2.736   0.336  3.3004  0.9594 -0.6764
  877SOL     MW 3508   3.087   2.793   0.398 -0.0777 -0.2492 -0.9934
  878SOL     OW 3509   2.409   1.827   1.249 -0.0227 -0.2902  0.4269
  878SOL    HW1 3510   2.342   1.757   1.280 -4.9867  0.6884  0.6981
  878SOL    HW2 3511   2.480   1.774   1.217 -0.3560  0.9886  0.6259
  878SOL     MW 3512   2.410   1.811   1.249 -0.7216  0.0076  0.4889
  879SOL     OW 3513   2.693   2.404   0.961  0.0016 -0.2861  0.0324
  879SOL    HW1 3514   2.751   2.481   0.976 -0.8474 -1.3700 -0.9331
  879SOL    HW2 3515   2.752   2.344   0.919 -1.0663 -0.0630 -0.1989
  879SOL     MW 3516   2.708   2.406   0.958 -0.2513 -0.3997 -0.1255
  880SOL     OW 3517   2.696   2.013   0.620 -0.7613 -0.2459  0.5398
  880SOL    HW1 3518   2.643   2.034   0.697  1.8451  0.1526  0.4162
  880SOL    HW2 3519   2.628   1.991   0.551 -2.3515 -3.7828  1.5634
  880SOL     MW 3520   2.680   2.013   0.621 -0.6272 -0.6600  0.6585
  881SOL     OW 3521   2.926   2.743   0.748  0.2478 -0.4646 -0.3821
  881SOL    HW1 3522   2.857   2.678   0.710 -2.0347 -2.1130 -0.0229
  881SOL    HW2 3523   3.011   2.703   0.716 -2.1558 -1.7801 -2.1301
  881SOL     MW 3524   2.928   2.729   0.739 -0.3705 -0.8557 -0.5653
  882SOL     OW 3525   2.279   2.833   1.878  0.1159 -0.3007 -0.4718
  882SOL    HW1 3526   2.250   2.830   1.788  0.1496 -1.5379 -0.6404
  882SOL    HW2 3527   2.236   2.766   1.928 -0.1083  0.3499  1.9563
  882SOL     MW 3528   2.270   2.824   1.873  0.0908 -0.3781 -0.1737
  883SOL     OW 3529   2.267   2.206   1.373  0.3185  0.1334  0.0331
  883SOL    HW1 3530   2.348   2.168   1.333 -0.3513  0.1423  0.3475
  883SOL    HW2 3531   2.199   2.196   1.308 -1.4120  2.0590 -1.2255
  883SOL     MW 3532   2.269   2.200   1.359  0.0018  0.3886 -0.0915
  884SOL     OW 3533   1.971   1.786   1.096 -0.4514  0.7472 -0.2800
  884SOL    HW1 3534   1.916   1.855   1.057 -1.0595 -3.9071 -0.1221
  884SOL    HW2 3535   2.056   1.827   1.078 -0.2713  0.5917 -1.0607
  884SOL     MW 3536   1.975   1.800   1.088 -0.5079  0.1126 -0.3621
  885SOL     OW 3537   2.848   2.409   1.785  0.2157 -0.8560  0.6286
  885SOL    HW1 3538   2.926   2.359   1.802 -1.2398  2.2739  0.5255
  885SOL    HW2 3539   2.812   2.385   1.701  1.6560  1.1515  1.8461
  885SOL     MW 3540   2.853   2.399   1.776  0.2137 -0.1782  0.7756
  886SOL     OW 3541   2.849   2.543   1.339 -0.0038  0.7309  0.1844
  886SOL    HW1 3542   2.921   2.488   1.308 -0.3411 -0.4470  1.5326
  886SOL    HW2 3543   2.885   2.607   1.399  1.4137 -1.2836 -0.5466
  886SOL     MW 3544   2.863   2.544   1.343  0.1387  0.3097  0.2658
  887SOL     OW 3545   2.312   2.621   1.454 -0.6247 -0.0107 -0.1950
  887SOL    HW1 3546   2.331   2.649   1.365 -2.1615 -0.1852  1.0783
  887SOL    HW2 3547   2.219   2.591   1.456 -1.1334  1.2275 -1.6313
  887SOL     MW 3548   2.302   2.620   1.442 -0.8945  0.1297 -0.2165
  888SOL     OW 3549   1.834   2.041   1.367  0.0821  0.1397 -1.0211
  888SOL    HW1 3550   1.900   2.065   1.302 -1.9746 -0.7817 -0.0308
  888SOL    HW2 3551   1.855   2.100   1.444  0.9998 -0.3292  1.2885
  888SOL     MW 3552   1.846   2.052   1.369 -0.0682 -0.0437 -0.5857
  889SOL     OW 3553   2.274   2.083   2.100  0.4362 -0.0038 -0.0362
  889SOL    HW1 3554   2.362   2.083   2.142  0.3730  1.2919 -0.0104
  889SOL    HW2 3555   2.290   2.132   2.019 -0.4817 -2.5536 -1.4581
  889SOL     MW 3556   2.288   2.089   2.095  0.3067 -0.1692 -0.2204
  890SOL     OW 3557   0.102   2.308   0.077 -0.2627  0.3174 -0.1959
  890SOL    HW1 3558   0.085   2.388   0.024  1.9858  0.6118 -1.2862
  890SOL    HW2 3559   0.078   2.328   0.166  0.9697  0.4740 -0.0181
  890SOL     MW 3560   0.096   2.321   0.082  0.1966  0.3769 -0.3163
  891SOL     OW 3561   3.048   2.045   1.352 -0.6337  0.2680  0.0567
  891SOL    HW1 3562   3.135   2.015   1.386  0.8337 -0.6877 -2.6870
  891SOL    HW2 3563   3.039   2.146   1.342 -0.5301 -1.1501  0.0780
  891SOL     MW 3564   3.058   2.054   1.355 -0.4264 -0.0452 -0.3025
  892SOL     OW 3565   2.342   2.362   2.928  0.1358  0.2508  0.3347
  892SOL    HW1 3566   2.353   2.323   3.012 -1.5615 -0.5316  0.2881
  892SOL    HW2 3567   2.421   2.343   2.880  0.3145  0.1367  1.6057
  892SOL     MW 3568   2.354   2.354   2.933 -0.0646  0.1325  0.4962
  893SOL     OW 3569   1.594   2.502   1.268  0.8430  0.1614 -0.9999
  893SOL    HW1 3570   1.524   2.500   1.333 -1.0575  2.0066  2.7603
  893SOL    HW2 3571   1.679   2.474   1.310  2.5494 -1.2152  1.3413
  893SOL     MW 3572   1.596   2.498   1.282  0.8174  0.2232 -0.1949
  894SOL     OW 3573   2.896   1.834   0.549  0.2991  0.1743 -0.4254
  894SOL    HW1 3574   2.819   1.873   0.599 -4.9376  1.8900  2.0386
  894SOL    HW2 3575   2.867   1.802   0.461  2.4922  3.4266  1.5852
  894SOL     MW 3576   2.882   1.835   0.544 -0.1024  0.8298  0.1650
  895SOL     OW 3577   2.068   2.130   1.223 -0.6814 -0.2490  0.0106
  895SOL    HW1 3578   2.031   2.199   1.167  0.3036 -1.5663  0.4922
  895SOL    HW2 3579   2.097   2.062   1.161 -0.3279  0.5799 -1.0409
  895SOL     MW 3580   2.067   2.130   1.207 -0.5048 -0.3134 -0.0646
  896SOL     OW 3581   2.199   2.802   1.011  0.0747  0.0508  0.3062
  896SOL    HW1 3582   2.223   2.747   1.086 -0.2123  0.0236 -0.3338
  896SOL    HW2 3583   2.141   2.751   0.965  1.7934 -1.9380  1.6440
  896SOL     MW 3584   2.194   2.788   1.015  0.2636 -0.2152  0.3983
  897SOL     OW 3585   2.991   2.945   0.192  0.0489  0.5731 -0.0124
  897SOL    HW1 3586   3.072   2.918   0.151 -1.7634  0.0386 -0.6625
  897SOL    HW2 3587   2.916   2.896   0.144  0.1444 -1.9274 -1.8476
  897SOL     MW 3588   2.992   2.935   0.181 -0.1776  0.1727 -0.3403
  898SOL     OW 3589   2.090   0.141   1.399  0.1911  0.1048  0.2164
  898SOL    HW1 3590   2.047   0.068   1.356  0.7175 -0.1164  0.1392
  898SOL    HW2 3591   2.135   0.197   1.333 -0.3403  2.1866 -1.5493
  898SOL     MW 3592   2.090   0.138   1.385  0.1905  0.3503 -0.0268
  899SOL     OW 3593   2.864   2.952   0.584  0.2063 -0.3448 -0.0083
  899SOL    HW1 3594   2.869   2.879   0.648  0.2453  1.8392  1.0513
  899SOL    HW2 3595   2.785   3.004   0.604 -0.0189 -0.8052  0.9730
  899SOL     MW 3596   2.854   2.949   0.595  0.1817 -0.1174  0.2610
  900SOL     OW 3597   0.121   2.426   1.138 -0.0651 -0.9621  0.3190
  900SOL    HW1 3598   0.093   2.516   1.137  0.2836 -0.9666 -0.4552
  900SOL    HW2 3599   0.101   2.400   1.046  0.2422  0.3575  0.7530
  900SOL     MW 3600   0.114   2.435   1.125  0.0214 -0.7886  0.2741
  901SOL     OW 3601   1.733   2.828   1.783  0.2537 -0.1263  0.3357
  901SOL    HW1 3602   1.817   2.775   1.763  0.2755 -0.4699 -0.2013
  901SOL    HW2 3603   1.682   2.843   1.700 -2.4203 -0.0411 -2.0347
  901SOL     MW 3604   1.738   2.823   1.769 -0.0962 -0.1604 -0.0479
  902SOL     OW 3605   2.576   2.092   1.817  0.0882 -0.1206  0.0004
  902SOL    HW1 3606   2.548   2.002   1.855  1.2053 -0.4965  2.6794
  902SOL    HW2 3607   2.666   2.113   1.847  0.0317 -0.2612 -0.2824
  902SOL     MW 3608   2.584   2.083   1.826  0.2281 -0.1887  0.3165
  903SOL     OW 3609   1.670   2.786   0.521 -0.3642 -0.3569  0.2401
  903SOL    HW1 3610   1.720   2.710   0.550  0.2822  5.2615 -0.8430
  903SOL    HW2 3611   1.637   2.822   0.602 -0.3352 -0.2602  0.3382
  903SOL     MW 3612   1.672   2.781   0.535 -0.2751  0.3971  0.1102
  904SOL     OW 3613   2.516   2.542   1.634 -0.2779 -0.4018 -0.0970
  904SOL    HW1 3614   2.439   2.571   1.586 -1.0090  3.3197 -0.1717
  904SOL    HW2 3615   2.565   2.472   1.587  0.8675 -2.0474  1.0209
  904SOL     MW 3616   2.513   2.536   1.622 -0.2232 -0.1279  0.0406
  905SOL     OW 3617   2.392   2.560   2.117 -0.5146  0.3705  0.1688
  905SOL    HW1 3618   2.406   2.518   2.033 -0.2052  0.8845  0.4419
  905SOL    HW2 3619   2.340   2.491   2.164  0.7797 -0.5807  1.6663
  905SOL     MW 3620   2.387   2.546   2.112 -0.3030  0.3128  0.4024
  906SOL     OW 3621   2.522   2.513   0.783  0.2008 -0.2143  0.1595
  906SOL    HW1 3622   2.598   2.486   0.837  0.5307 -0.4743 -2.7128
  906SOL    HW2 3623   2.511   2.610   0.784 -1.1111  2.6174  1.7112
  906SOL     MW 3624   2.531   2.522   0.790  0.0712  0.1250 -0.0148
  907SOL     OW 3625   2.559   2.885   1.265  0.1074 -0.4178  0.3232
  907SOL    HW1 3626   2.635   2.900   1.321  2.2937 -1.1652 -0.0624
  907SOL    HW2 3627   2.605   2.878   1.184 -0.5525  1.0688  1.4639
  907SOL     MW 3628   2.575   2.886   1.262  0.3088 -0.3203  0.4228
  908SOL     OW 3629   2.670   2.355   0.003  0.3549 -0.0917  0.3039
  908SOL    HW1 3630   2.593   2.299   0.029 -1.7048 -3.9540 -0.1625
  908SOL    HW2 3631   2.673   2.434   0.066  0.0788  2.6703  3.6229
  908SOL     MW 3632   2.660   2.358   0.015  0.0467 -0.2369  0.6803
  909SOL     OW 3633   1.734   0.180   1.035 -0.4618  0.5615  0.0442
  909SOL    HW1 3634   1.734   0.271   1.001 -1.5933  1.8071 -1.6547
  909SOL    HW2 3635   1.758   0.190   1.125  0.7598  0.8582 -0.0459
  909SOL     MW 3636   1.737   0.194   1.042 -0.4499  0.7650 -0.1918
  910SOL     OW 3637   2.286   1.690   0.414 -0.0951  0.4188 -0.1182
  910SOL    HW1 3638   2.220   1.631   0.454 -0.3081 -2.2774  1.5848
  910SOL    HW2 3639   2.245   1.723   0.333 -2.0316  0.7269  0.2332
  910SOL     MW 3640   2.272   1.686   0.408 -0.3787  0.1037  0.1529
  911SOL     OW 3641   2.150   2.166   1.612  0.2907  0.7392 -0.4954
  911SOL    HW1 3642   2.205   2.179   1.690 -1.6505  0.0395  1.1492
  911SOL    HW2 3643   2.207   2.177   1.538 -0.3967  0.9424 -1.0307
  911SOL     MW 3644   2.164   2.169   1.612 -0.0561  0.6737 -0.3490
  912SOL     OW 3645   2.862   1.916   1.501  0.5025 -0.0967 -0.6057
  912SOL    HW1 3646   2.921   1.971   1.446  0.2390 -0.6536 -1.2717
  912SOL    HW2 3647   2.788   1.976   1.533  0.0331 -1.5736  0.8431
  912SOL     MW 3648   2.860   1.931   1.498  0.4058 -0.3650 -0.5024
  913SOL     OW 3649   2.549   2.940   0.347 -0.1951 -0.1992  0.4335
  913SOL    HW1 3650   2.608   2.866   0.362 -2.2636  0.9648  1.3342
  913SOL    HW2 3651   2.459   2.907   0.360  0.7452 -0.1466  0.5940
  913SOL     MW 3652   2.545   2.926   0.351 -0.3439 -0.0387  0.5735
  914SOL     OW 3653   2.793   1.633   0.029 -0.3641 -0.2580  0.2394
  914SOL    HW1 3654   2.781   1.697  -0.039  0.2952 -2.2742  2.0397
  914SOL    HW2 3655   2.702   1.613   0.060 -4.3939 -0.6233 -0.1316
  914SOL     MW 3656   2.779   1.639   0.024 -0.8088 -0.5722  0.4280
  915SOL     OW 3657   1.886   0.174   0.216 -0.9393 -0.2672 -0.1642
  915SOL    HW1 3658   1.932   0.112   0.271  0.2118  1.6013 -0.7197
  915SOL    HW2 3659   1.793   0.145   0.225 -0.4869 -0.7778 -0.4575
  915SOL     MW 3660   1.880   0.162   0.224 -0.7277 -0.0881 -0.2762
  916SOL     OW 3661   1.848   2.103   1.961 -0.4310  0.5431 -0.5063
  916SOL    HW1 3662   1.821   2.197   1.963  0.2566  3.8604  0.4643
  916SOL    HW2 3663   1.808   2.073   1.879 -0.1450 -0.6399 -0.4213
  916SOL     MW 3664   1.839   2.111   1.950 -0.3026  0.8247 -0.3670
  917SOL     OW 3665   2.231   2.337   2.666  0.6090 -0.2124  0.3856
  917SOL    HW1 3666   2.230   2.332   2.766 -0.1850  1.4333  1.9745
  917SOL    HW2 3667   2.261   2.426   2.636 -1.7735  1.1784  0.7255
  917SOL     MW 3668   2.235   2.348   2.675  0.1899  0.1882  0.6401
  918SOL     OW 3669   1.980   1.659   2.603  0.4005 -0.2532  0.3173
  918SOL    HW1 3670   1.903   1.685   2.546  0.2041  0.6474 -2.4992
  918SOL    HW2 3671   2.050   1.718   2.583 -1.0471 -1.3246  0.9101
  918SOL     MW 3672   1.979   1.670   2.593  0.1836 -0.2758  0.0239
  919SOL     OW 3673   3.014   2.375   2.277  0.2404  0.2386 -0.3096
  919SOL    HW1 3674   2.946   2.311   2.249  4.3170  1.9736 -0.3017
  919SOL    HW2 3675   3.085   2.377   2.206  0.0688  2.3832  2.4589
  919SOL     MW 3676   3.014   2.367   2.264  0.7556  0.7504  0.0567
  920SOL     OW 3677   2.768   2.818   0.051 -0.0232  0.2987 -0.6244
  920SOL    HW1 3678   2.693   2.878   0.063 -1.8488 -1.6048 -1.7535
  920SOL    HW2 3679   2.761   2.769  -0.033  0.7931 -0.4020 -0.8700
  920SOL     MW 3680   2.757   2.819   0.041 -0.1563 -0.0449 -0.8058
  921SOL     OW 3681   2.560   2.667   2.686 -0.5046  0.5201  0.1141
  921SOL    HW1 3682   2.603   2.627   2.612  0.8328 -1.1978  1.5810
  921SOL    HW2 3683   2.570   2.611   2.757  0.8232 -0.9617 -3.5169
  921SOL     MW 3684   2.567   2.655   2.685 -0.1530  0.0979 -0.1714
  922SOL     OW 3685   2.026   2.860   0.296 -0.9310  0.1704  0.2680
  922SOL    HW1 3686   2.038   2.895   0.212 -0.6682 -1.5068  1.6775
  922SOL    HW2 3687   1.968   2.788   0.279  0.7714 -4.1277  0.5035
  922SOL     MW 3688   2.020   2.855   0.283 -0.6717 -0.6180  0.4851
  923SOL     OW 3689   2.171   2.798   1.609  0.0770  0.6328 -0.8328
  923SOL    HW1 3690   2.207   2.741   1.540  0.0791  1.0615  1.5114
  923SOL    HW2 3691   2.185   2.888   1.578 -1.1124  2.2093  0.9965
  923SOL     MW 3692   2.178   2.802   1.596 -0.0797  0.8974 -0.2821
  924SOL     OW 3693   1.149   2.744   2.464  0.6483 -0.0926 -0.1923
  924SOL    HW1 3694   1.170   2.820   2.408  0.5916 -0.4000  0.9461
  924SOL    HW2 3695   1.225   2.728   2.519  0.4456 -1.1387 -0.9578
  924SOL     MW 3696   1.162   2.752   2.464  0.6141 -0.2712 -0.1431
  925SOL     OW 3697   3.046   0.271   2.675 -0.4189  0.0123  0.4169
  925SOL    HW1 3698   3.083   0.312   2.600 -1.0426 -0.8211  1.0009
  925SOL    HW2 3699   3.005   0.350   2.709 -1.1936  0.6133 -0.9108
  925SOL     MW 3700   3.045   0.287   2.669 -0.6034 -0.0183  0.3188
  926SOL     OW 3701   2.682   2.397   2.006 -0.1553  0.1855  0.5181
  926SOL    HW1 3702   2.742   2.456   2.055  2.0706  1.8467  1.1448
  926SOL    HW2 3703   2.735   2.395   1.922 -2.7949  0.1188  0.5393
  926SOL     MW 3704   2.697   2.404   2.001 -0.2099  0.3959  0.6036
  927SOL     OW 3705   2.386   0.160   0.277  0.2075 -0.2607 -0.0193
  927SOL    HW1 3706   2.472   0.182   0.240  0.7843  0.0690  1.2098
  927SOL    HW2 3707   2.337   0.147   0.188  0.4055  2.8312  3.1662
  927SOL     MW 3708   2.391   0.161   0.260  0.3097  0.1907  0.5632
  928SOL     OW 3709   2.067   2.446   1.848 -0.7398 -0.3101 -0.4345
  928SOL    HW1 3710   2.111   2.366   1.848 -1.7364  1.8686 -0.8082
  928SOL    HW2 3711   2.108   2.499   1.920 -2.2428  3.1812  1.2413
  928SOL     MW 3712   2.078   2.442   1.857 -1.0696  0.4380 -0.2627
  929SOL     OW 3713   2.720   2.313   2.487  0.4117  0.0060 -0.0232
  929SOL    HW1 3714   2.631   2.281   2.502 -0.0525  0.5323 -1.8473
  929SOL    HW2 3715   2.751   2.313   2.575 -1.2112 -1.0450 -2.4609
  929SOL     MW 3716   2.713   2.309   2.501  0.1363 -0.0633 -0.5855
  930SOL     OW 3717   2.017   2.886   2.699 -0.5302 -0.6055 -0.1539
  930SOL    HW1 3718   2.038   2.858   2.790  0.7789  1.3059 -1.1673
  930SOL    HW2 3719   2.091   2.947   2.664  1.7144  0.0389 -0.5503
  930SOL     MW 3720   2.030   2.890   2.706 -0.0613 -0.2683 -0.3399
  931SOL     OW 3721   2.954   2.818   2.123 -0.5443  0.3418  0.8746
  931SOL    HW1 3722   3.022   2.753   2.110  2.0775  0.0941  0.0900
  931SOL    HW2 3723   2.915   2.835   2.041  0.0686  0.7594  1.9078
  931SOL     MW 3724   2.958   2.812   2.111 -0.1175  0.3642  0.9074
  932SOL     OW 3725   2.813   1.927   2.549 -0.0426 -0.3440  0.2371
  932SOL    HW1 3726   2.892   1.926   2.603  0.9090 -1.7762 -0.1527
  932SOL    HW2 3727   2.825   1.988   2.473 -0.8312 -0.9655 -2.5274
  932SOL     MW 3728   2.825   1.935   2.546 -0.0211 -0.6150 -0.1791
  933SOL     OW 3729   2.106   2.797   2.269 -0.0474  0.4478 -0.0728
  933SOL    HW1 3730   2.190   2.838   2.297 -1.4761  0.8861 -1.7755
  933SOL    HW2 3731   2.051   2.872   2.253 -0.9955 -0.4085  2.1059
  933SOL     MW 3732   2.109   2.812   2.271 -0.3610  0.3927 -0.0100
  934SOL     OW 3733   2.079   2.688   2.525 -0.1242 -1.1554 -0.3706
  934SOL    HW1 3734   2.067   2.767   2.582 -1.0861 -1.6358 -0.9757
  934SOL    HW2 3735   2.096   2.722   2.432  0.5686  2.5849 -2.1274
  934SOL     MW 3736   2.080   2.703   2.520 -0.1597 -0.7253 -0.6822
  935SOL     OW 3737   2.658   1.581   1.823 -0.2503  0.3838 -0.2041
  935SOL    HW1 3738   2.735   1.566   1.764  2.4469 -0.8365 -0.1769
  935SOL    HW2 3739   2.585   1.578   1.751 -2.4817  1.1717 -1.4264
  935SOL     MW 3740   2.658   1.579   1.806 -0.1888  0.3268 -0.3618
  936SOL     OW 3741   2.882   2.196   0.012  0.4873  0.0976  0.0042
  936SOL    HW1 3742   2.959   2.250   0.021 -0.2023 -0.6312 -4.6907
  936SOL    HW2 3743   2.806   2.246   0.042  0.9872  1.3981 -1.6022
  936SOL     MW 3744   2.882   2.210   0.017  0.4623  0.1730 -0.8272
  937SOL     OW 3745   1.975   2.258   2.626 -0.1021 -0.2024 -0.1017
  937SOL    HW1 3746   2.068   2.250   2.644  1.5769  0.0080  2.8482
  937SOL    HW2 3747   1.961   2.235   2.531  0.5286  0.9938 -0.1617
  937SOL     MW 3748   1.986   2.254   2.615  0.2026 -0.0168  0.2796
  938SOL     OW 3749   2.269   1.836   1.981 -0.2915  0.0373 -0.1762
  938SOL    HW1 3750   2.249   1.861   1.893  2.1326  1.2236  2.6483
  938SOL    HW2 3751   2.262   1.927   2.022 -4.0765 -0.0669 -0.3770
  938SOL     MW 3752   2.266   1.851   1.975 -0.4711  0.1801  0.1700
  939SOL     OW 3753   2.769   2.044   2.264  0.6386  0.1130 -0.5078
  939SOL    HW1 3754   2.785   1.969   2.209  0.0168  1.4940  1.0509
  939SOL    HW2 3755   2.671   2.045   2.268 -2.7756 -1.1645 -0.4013
  939SOL     MW 3756   2.758   2.034   2.257  0.1061  0.1266 -0.2881
  940SOL     OW 3757   2.306   0.169   2.656 -0.5328 -0.2776 -0.0024
  940SOL    HW1 3758   2.282   0.079   2.633  0.8307  3.3799  1.1505
  940SOL    HW2 3759   2.328   0.170   2.753  0.7048  0.9419  1.1944
  940SOL     MW 3760   2.306   0.157   2.666 -0.1896  0.3659  0.3076
  941SOL     OW 3761   0.080   2.347   2.074 -0.2414 -0.3250 -0.6868
  941SOL    HW1 3762   0.152   2.294   2.088 -4.1760  3.4402  0.2967
  941SOL    HW2 3763   0.041   2.317   1.990  1.8300  1.1136 -1.1689
  941SOL     MW 3764   0.084   2.336   2.065 -0.4873  0.3616 -0.6207
  942SOL     OW 3765   2.882   2.218   2.090  0.0361 -0.3839 -0.2198
  942SOL    HW1 3766   2.812   2.268   2.059 -0.9741 -0.2941  1.0940
  942SOL    HW2 3767   2.844   2.157   2.156  0.8585 -0.9886 -0.3339
  942SOL     MW 3768   2.868   2.216   2.095  0.0113 -0.4518 -0.0615
  943SOL     OW 3769   0.205   2.023   2.330  0.2477 -0.1409 -0.1778
  943SOL    HW1 3770   0.158   2.083   2.383  1.3609 -0.4673  1.2971
  943SOL    HW2 3771   0.261   1.976   2.393  0.4679 -1.5381  0.1193
  943SOL     MW 3772   0.206   2.025   2.345  0.4236 -0.3684  0.0560
  944SOL     OW 3773   2.151   2.652   2.028 -0.0088  0.3399  0.3774
  944SOL    HW1 3774   2.232   2.607   2.062 -1.8833 -0.1542  1.2154
  944SOL    HW2 3775   2.116   2.694   2.107  0.9169 -1.7089  0.1660
  944SOL     MW 3776   2.157   2.652   2.043 -0.1340  0.0044  0.4601
  945SOL     OW 3777   2.779   2.632   2.940 -0.3553  0.0159 -0.8009
  945SOL    HW1 3778   2.728   2.549   2.929 -0.7751  0.5771  2.9776
  945SOL    HW2 3779   2.815   2.649   2.854 -0.0984 -2.1495  2.3138
  945SOL     MW 3780   2.777   2.623   2.928 -0.3768 -0.1957  0.1086
  946SOL     OW 3781   2.550   2.705   2.286 -0.3984 -0.4239 -0.0100
  946SOL    HW1 3782   2.580   2.780   2.230  0.0907  1.0617 -1.3771
  946SOL    HW2 3783   2.506   2.643   2.221  0.7370 -0.3616  2.9360
  946SOL     MW 3784   2.548   2.707   2.270 -0.1841 -0.2197  0.1983
  947SOL     OW 3785   2.071   0.022   0.424  0.0512  0.6358 -0.1650
  947SOL    HW1 3786   2.084  -0.067   0.391 -1.3344  1.6270  0.3175
  947SOL    HW2 3787   2.153   0.061   0.441 -4.7237  0.2143 -0.4183
  947SOL     MW 3788   2.083   0.016   0.422 -0.7616  0.7110 -0.1347
  948SOL     OW 3789   1.825   3.091   2.645 -0.3288  0.4247  0.2980
  948SOL    HW1 3790   1.882   3.019   2.662  1.7349  0.9806  2.7823
  948SOL    HW2 3791   1.839   3.135   2.563  0.9873 -0.4630 -0.5225
  948SOL     MW 3792   1.835   3.087   2.637  0.1171  0.3809  0.5175
  949SOL     OW 3793   2.490   2.034   2.271  0.3505  0.8166  0.2697
  949SOL    HW1 3794   2.506   1.949   2.302 -0.4720  0.5258 -0.4058
  949SOL    HW2 3795   2.493   2.102   2.339  1.3008  1.4279 -0.5383
  949SOL     MW 3796   2.492   2.032   2.284  0.3674  0.8589  0.0740
  950SOL     OW 3797   2.264   2.597   3.022 -0.6345 -0.0709  0.3173
  950SOL    HW1 3798   2.303   2.515   2.989  0.4495 -0.1413  2.4191
  950SOL    HW2 3799   2.189   2.637   2.967 -0.4964  0.3441  1.2467
  950SOL     MW 3800   2.259   2.592   3.011 -0.4733 -0.0255  0.7172
  951SOL     OW 3801   2.880   2.064   2.877 -0.6334 -0.1246  0.5419
  951SOL    HW1 3802   2.876   2.109   2.958 -0.2656 -1.1646 -1.7443
  951SOL    HW2 3803   2.968   2.065   2.834  0.7325 -0.5449  0.1151
  951SOL     MW 3804   2.891   2.070   2.882 -0.4046 -0.3173  0.1840
  952SOL     OW 3805   3.047   1.673   2.064 -0.2153 -0.2797 -0.5384
  952SOL    HW1 3806   2.959   1.712   2.062 -0.2035  0.9039  0.2762
  952SOL    HW2 3807   3.104   1.749   2.090 -1.5307  0.2085  1.2492
  952SOL     MW 3808   3.043   1.688   2.067 -0.3873 -0.0591 -0.1950
  953SOL     OW 3809   1.928   1.839   2.809 -0.1632  0.1670  0.5968
  953SOL    HW1 3810   1.841   1.812   2.835 -0.3826  1.4825  0.5845
  953SOL    HW2 3811   1.947   1.780   2.741  1.2360  2.2813  0.8261
  953SOL     MW 3812   1.919   1.828   2.804 -0.0075  0.6195  0.6254
  954SOL     OW 3813   2.417   2.033   2.902 -0.0182 -0.5315 -0.2565
  954SOL    HW1 3814   2.331   2.044   2.856  1.1308 -0.1392  2.0337
  954SOL    HW2 3815   2.480   1.997   2.833 -0.1308 -0.4610 -0.3139
  954SOL     MW 3816   2.414   2.030   2.887  0.1185 -0.4704  0.0381
  955SOL     OW 3817   1.579   1.613   2.570  0.1175  0.3283  0.4170
  955SOL    HW1 3818   1.572   1.549   2.500 -2.3377  0.8720  1.3485
  955SOL    HW2 3819   1.653   1.673   2.554 -0.4784 -2.7076  0.7332
  955SOL     MW 3820   1.588   1.613   2.558 -0.2850 -0.0005  0.5816
  956SOL     OW 3821   2.608   2.400   2.847 -0.5542 -0.4602 -0.4985
  956SOL    HW1 3822   2.630   2.377   2.945 -0.2220  0.5210  3.4562
  956SOL    HW2 3823   2.682   2.353   2.799  0.3539 -1.9602  0.8351
  956SOL     MW 3824   2.621   2.390   2.854 -0.3906 -0.5287  0.1993
  957SOL     OW 3825   2.311   2.828   0.377 -0.3549  0.3957  0.2410
  957SOL    HW1 3826   2.216   2.829   0.343 -3.2798  0.6886  2.1597
  957SOL    HW2 3827   2.308   2.782   0.464  2.7031  1.6495  0.0305
  957SOL     MW 3828   2.298   2.822   0.384 -0.3373  0.5998  0.4664
  958SOL     OW 3829   2.035   2.696   2.918  0.4202 -0.4072 -0.2121
  958SOL    HW1 3830   2.021   2.625   2.856  1.9123  1.1393 -1.5965
  958SOL    HW2 3831   1.948   2.736   2.927 -1.9967 -2.3161 -0.9263
  958SOL     MW 3832   2.022   2.692   2.911  0.2982 -0.4550 -0.4890
  959SOL     OW 3833   2.467   2.580   0.354 -0.4738 -0.1160  0.2583
  959SOL    HW1 3834   2.531   2.579   0.281 -0.8230  2.9401 -0.5638
  959SOL    HW2 3835   2.422   2.668   0.352 -0.6575  1.7503  0.2857
  959SOL     MW 3836   2.470   2.591   0.344 -0.5441  0.5334  0.1534
  960SOL     OW 3837   1.966   2.462   2.302 -0.2330  0.2357 -0.7352
  960SOL    HW1 3838   1.961   2.371   2.332 -3.0038  1.8843 -2.1540
  960SOL    HW2 3839   1.931   2.519   2.371  2.6339 -1.1560  0.0166
  960SOL     MW 3840   1.961   2.458   2.315 -0.2203  0.2696 -0.8232
  961SOL     OW 3841   2.246   2.461   2.324  0.2643  0.0106 -0.0567
  961SOL    HW1 3842   2.152   2.474   2.312 -1.8710 -1.6453 -0.9872
  961SOL    HW2 3843   2.265   2.526   2.394  1.3307  0.6000 -0.3006
  961SOL     MW 3844   2.236   2.471   2.332  0.1233 -0.1301 -0.2116
  962SOL     OW 3845   2.193   2.029   2.752  0.8260  0.8404  0.2810
  962SOL    HW1 3846   2.167   2.000   2.839 -0.8776 -0.8724  1.1077
  962SOL    HW2 3847   2.202   1.952   2.700 -3.2225  1.0091  1.9907
  962SOL     MW 3848   2.191   2.015   2.757  0.0671  0.6367  0.6157
  963SOL     OW 3849   1.730   2.514   2.168 -0.3774 -0.0882  0.1858
  963SOL    HW1 3850   1.811   2.476   2.209  3.8331 -3.4568 -0.1791
  963SOL    HW2 3851   1.737   2.473   2.077  0.3799 -0.2395 -3.1702
  963SOL     MW 3852   1.742   2.503   2.161  0.2780 -0.5526 -0.3051
  964SOL     OW 3853   1.838   2.024   2.636 -0.5593 -0.4900 -0.6885
  964SOL    HW1 3854   1.908   2.091   2.639 -0.5004 -1.7374 -0.8142
  964SOL    HW2 3855   1.865   1.951   2.693  0.8062  3.6917 -2.8421
  964SOL     MW 3856   1.851   2.023   2.644 -0.3713 -0.1029 -0.9893
  965SOL     OW 3857   2.250   2.704   0.606  0.3501 -0.1569  0.3113
  965SOL    HW1 3858   2.223   2.611   0.599 -2.5623 -1.2878 -0.0936
  965SOL    HW2 3859   2.324   2.701   0.666 -3.1528 -0.3759  1.6347
  965SOL     MW 3860   2.256   2.691   0.613 -0.4963 -0.3350  0.4325
  966SOL     OW 3861   2.728   2.590   2.481 -0.2711  0.2267  0.9889
  966SOL    HW1 3862   2.666   2.630   2.417  2.0717  0.4280 -0.6941
  966SOL    HW2 3863   2.738   2.500   2.463  0.7935 -0.3507  3.1495
  966SOL     MW 3864   2.721   2.584   2.470  0.1785  0.1771  1.0519
  967SOL     OW 3865   2.816   3.069   2.973 -0.0580 -0.1906 -0.7408
  967SOL    HW1 3866   2.757   3.003   3.005  1.9733 -1.0757  1.4866
  967SOL    HW2 3867   2.761   3.124   2.918 -0.3536 -2.7239 -1.7228
  967SOL     MW 3868   2.801   3.067   2.970  0.1710 -0.6416 -0.5765
  968SOL     OW 3869   3.027   2.483   3.044  0.0273  0.2920 -0.2956
  968SOL    HW1 3870   2.946   2.521   3.031  3.8976  2.2453  0.1139
  968SOL    HW2 3871   3.061   2.466   2.951  1.5449 -0.1192  1.0886
  968SOL     MW 3872   3.021   2.486   3.030  0.7382  0.4955 -0.0590
  969SOL     OW 3873   1.534   2.131   1.708 -0.0049 -0.0695  0.1915
  969SOL    HW1 3874   1.613   2.074   1.708  2.3205 -2.3260 -1.5208
  969SOL    HW2 3875   1.504   2.140   1.796 -2.3529  1.3435 -0.5253
  969SOL     MW 3876   1.541   2.125   1.719 -0.0079 -0.1808 -0.1290
  970SOL     OW 3877   1.675   1.676   1.821  0.5972  0.2896  0.1033
  970SOL    HW1 3878   1.730   1.657   1.897  2.1459  0.0189 -0.4393
  970SOL    HW2 3879   1.587   1.688   1.859  0.5562 -1.8280 -2.2542
  970SOL     MW 3880   1.671   1.675   1.836  0.7961 -0.0255 -0.2793
  971SOL     OW 3881   1.887   0.083   2.365 -0.2103 -0.1292  0.1736
  971SOL    HW1 3882   1.905   0.014   2.290 -1.0288 -0.2214 -3.4979
  971SOL    HW2 3883   1.943   0.156   2.356  0.0180 -1.7307 -2.1510
  971SOL     MW 3884   1.897   0.083   2.354 -0.2882 -0.3527 -0.6175
  972SOL     OW 3885   0.232   2.790   2.543 -0.2076 -0.6114  0.1160
  972SOL    HW1 3886   0.302   2.716   2.540 -1.3200 -0.5371 -4.0357
  972SOL    HW2 3887   0.296   2.860   2.531  0.1079  0.3130  3.3490
  972SOL     MW 3888   0.250   2.790   2.541 -0.3127 -0.4796 -0.0052
  973SOL     OW 3889   2.636   3.063   2.092 -0.6610  0.4986 -0.5073
  973SOL    HW1 3890   2.589   2.981   2.073  0.2340  0.1449 -4.4391
  973SOL    HW2 3891   2.645   3.115   2.007  1.0792 -0.4005 -2.4429
  973SOL     MW 3892   2.631   3.059   2.078 -0.3133  0.3333 -1.2815
  974SOL     OW 3893   2.020   0.314   2.692  0.6937  0.0371  0.2925
  974SOL    HW1 3894   2.061   0.234   2.728  0.4116  0.1437 -0.2829
  974SOL    HW2 3895   1.931   0.313   2.719  2.7948 -1.2108  0.5114
  974SOL     MW 3896   2.014   0.303   2.701  0.9337 -0.1135  0.2455
  975SOL     OW 3897   2.316   2.584   2.570 -0.3423  0.5071  0.0875
  975SOL    HW1 3898   2.364   2.638   2.636 -0.8223 -0.3259  0.7591
  975SOL    HW2 3899   2.232   2.633   2.560  0.8591  0.7782 -1.8993
  975SOL     MW 3900   2.312   2.597   2.577 -0.2471  0.4329 -0.0860
  976SOL     OW 3901   0.282   0.255   1.690 -0.1300  0.3264 -0.1172
  976SOL    HW1 3902   0.328   0.204   1.757  1.4470 -3.2555 -0.8966
  976SOL    HW2 3903   0.193   0.218   1.702 -0.4631 -1.1599  0.5855
  976SOL     MW 3904   0.277   0.243   1.700  0.0341 -0.3423 -0.1273
  977SOL     OW 3905   1.712   2.800   2.475 -0.4540 -0.4624  0.4495
  977SOL    HW1 3906   1.730   2.709   2.474 -0.4534  1.4098  0.9284
  977SOL    HW2 3907   1.786   2.851   2.449  0.7981 -2.2020 -0.1127
  977SOL     MW 3908   1.724   2.795   2.472 -0.2887 -0.4449  0.4385
   3.10000   3.10000   3.10000
