977 TIP4P/2005f water molecules t=   1.01000 step= 1010
 3908
    1SOL     OW    1   0.374   0.799   0.016  0.6361  0.3318  0.7965
    1SOL    HW1    2   0.362   0.814  -0.076 -1.5672 -1.3494 -1.2242
    1SOL    HW2    3   0.310   0.730   0.022 -1.2926  1.6159  1.0364
    1SOL     MW    4   0.364   0.792   0.004  0.0909  0.2794  0.5615
    2SOL     OW    5   0.325   3.028   1.161  0.1384  0.3901  0.1007
    2SOL    HW1    6   0.377   3.109   1.133 -0.2346  4.3038 -1.2876
    2SOL    HW2    7   0.239   3.071   1.167  0.4676 -0.8739  1.3778
    2SOL     MW    8   0.321   3.045   1.158  0.1327  0.7397  0.0860
    3SOL     OW    9   2.639   0.443   0.988 -0.3487  0.0764  0.4501
    3SOL    HW1   10   2.679   0.512   0.929  2.4291  2.9454 -0.1108
    3SOL    HW2   11   2.616   0.497   1.074 -0.7823 -0.5640 -0.4347
    3SOL     MW   12   2.641   0.459   0.992 -0.0394  0.3705  0.2593
    4SOL     OW   13   2.922   1.676   0.575  0.1203 -0.1123  0.0324
    4SOL    HW1   14   2.862   1.740   0.534  0.8325 -1.4896 -2.8176
    4SOL    HW2   15   2.987   1.637   0.513 -1.1477 -2.3987 -2.3663
    4SOL     MW   16   2.923   1.679   0.562  0.0470 -0.5957 -0.6601
    5SOL     OW   17   1.788   1.499   0.507  0.1572 -0.0874  0.2579
    5SOL    HW1   18   1.816   1.440   0.574  2.6766  2.6103 -1.0150
    5SOL    HW2   19   1.692   1.511   0.518 -3.6495 -1.9549  0.6347
    5SOL     MW   20   1.779   1.493   0.517 -0.0126  0.0221  0.1397
    6SOL     OW   21   0.810   1.401   0.597  0.0473 -0.8803 -0.0879
    6SOL    HW1   22   0.715   1.397   0.606 -1.3541 -0.4976 -1.4928
    6SOL    HW2   23   0.845   1.323   0.635  1.2117  1.6642  0.6754
    6SOL     MW   24   0.802   1.390   0.603  0.0160 -0.4941 -0.1725
    7SOL     OW   25   2.065   1.057   3.097  0.1889 -0.5159  0.3470
    7SOL    HW1   26   2.085   1.102   3.011  1.7519 -2.2477 -0.4834
    7SOL    HW2   27   2.126   1.102   3.156 -0.7284 -0.0753 -0.7735
    7SOL     MW   28   2.076   1.069   3.093  0.2741 -0.6863  0.0896
    8SOL     OW   29   0.930   1.423   1.109 -0.0627  0.2387  0.9308
    8SOL    HW1   30   1.013   1.378   1.104 -1.7263  0.4137 -0.0021
    8SOL    HW2   31   0.872   1.364   1.160 -0.3852  1.7503  0.1114
    8SOL     MW   32   0.934   1.410   1.115 -0.3247  0.4612  0.6996
    9SOL     OW   33   1.005   0.524   1.398  0.3119  0.1977 -0.4815
    9SOL    HW1   34   0.949   0.452   1.354 -0.1777 -2.8130 -0.2594
    9SOL    HW2   35   1.053   0.479   1.470 -1.2739  0.2648  0.4057
    9SOL     MW   36   1.004   0.508   1.402  0.0381 -0.1907 -0.3351
   10SOL     OW   37   0.218   0.770   0.455 -0.3351 -0.4499 -0.3193
   10SOL    HW1   38   0.309   0.801   0.429 -0.6629  1.8260 -1.3384
   10SOL    HW2   39   0.212   0.825   0.538  2.7057  1.1625  0.1549
   10SOL     MW   40   0.229   0.781   0.463  0.0228  0.0631 -0.3912
   11SOL     OW   41   0.804   1.132   1.689 -0.5441 -0.1537 -1.1837
   11SOL    HW1   42   0.855   1.114   1.767  3.2870  1.9432 -0.5965
   11SOL    HW2   43   0.833   1.072   1.627  3.5882 -0.3659  0.8526
   11SOL     MW   44   0.814   1.122   1.691  0.5066  0.0950 -0.8376
   12SOL     OW   45   0.034   1.076   0.867 -0.1334  0.0757 -0.4112
   12SOL    HW1   46   0.082   1.145   0.914  3.6412  0.7595  3.3226
   12SOL    HW2   47   0.013   1.118   0.785 -1.2219 -0.7834 -1.5327
   12SOL     MW   48   0.037   1.091   0.863  0.2210  0.0525 -0.0666
   13SOL     OW   49   1.868   1.422   1.359 -0.2978  0.4361 -0.5952
   13SOL    HW1   50   1.908   1.379   1.280 -0.5185  1.1661  0.0074
   13SOL    HW2   51   1.849   1.512   1.336 -1.3353  0.3911  1.2773
   13SOL     MW   52   1.871   1.429   1.346 -0.4638  0.5265 -0.2686
   14SOL     OW   53   0.601   0.384   1.869 -0.6872 -0.3989  0.0658
   14SOL    HW1   54   0.537   0.306   1.862 -1.2925 -0.3727  0.1418
   14SOL    HW2   55   0.688   0.355   1.869  1.4088  0.5376 -1.5630
   14SOL     MW   56   0.604   0.370   1.868 -0.4905 -0.2719 -0.1391
   15SOL     OW   57   1.937   0.346   1.041 -0.0245 -0.3022  0.9321
   15SOL    HW1   58   1.926   0.412   1.109 -0.4677  3.5811 -0.9598
   15SOL    HW2   59   2.008   0.381   0.985 -0.3174  0.3493  1.1556
   15SOL     MW   60   1.945   0.360   1.043 -0.1216  0.2961  0.7119
   16SOL     OW   61   0.197   1.799   0.322  0.0634  0.2724  0.2631
   16SOL    HW1   62   0.285   1.759   0.338  0.0226 -1.5530 -0.4803
   16SOL    HW2   63   0.202   1.890   0.342 -0.2596 -2.1724 -0.7832
   16SOL     MW   64   0.209   1.806   0.327  0.0154 -0.2910  0.0270
   17SOL     OW   65   1.111   0.897   1.424 -0.3579 -0.2876 -0.0156
   17SOL    HW1   66   1.169   0.904   1.504 -1.5653  1.9467 -0.2284
   17SOL    HW2   67   1.021   0.890   1.452  1.7026 -2.4738  0.5235
   17SOL     MW   68   1.107   0.897   1.438 -0.2454 -0.2813  0.0275
   18SOL     OW   69   0.058   1.586   0.417 -0.0868 -0.1407  0.2462
   18SOL    HW1   70   0.094   1.672   0.395 -2.9053 -2.1158  3.5077
   18SOL    HW2   71   0.055   1.542   0.331  1.9208 -1.5634 -0.9621
   18SOL     MW   72   0.062   1.591   0.403 -0.1938 -0.5890  0.5171
   19SOL     OW   73   0.128   1.302   1.022  0.4293 -0.2184 -0.2087
   19SOL    HW1   74   0.149   1.334   0.937 -0.4442 -0.6051 -0.5214
   19SOL    HW2   75   0.033   1.299   1.025 -1.4446  0.9839 -0.9169
   19SOL     MW   76   0.118   1.306   1.011  0.0668 -0.1108 -0.3434
   20SOL     OW   77   0.464   2.161   1.182 -0.5694 -0.0857 -0.2801
   20SOL    HW1   78   0.423   2.086   1.131 -2.3584 -2.1513 -0.4040
   20SOL    HW2   79   0.406   2.178   1.260  1.6717 -1.8979 -0.0842
   20SOL     MW   80   0.451   2.153   1.185 -0.5097 -0.5974 -0.2706
   21SOL     OW   81   0.456   0.851   0.391 -0.0838  0.4929 -0.0491
   21SOL    HW1   82   0.507   0.818   0.465 -2.9617 -3.2190  1.1380
   21SOL    HW2   83   0.509   0.834   0.315 -0.2773  0.4574  0.5913
   21SOL     MW   84   0.470   0.844   0.390 -0.4890 -0.0015  0.1920
   22SOL     OW   85   1.580   0.654   1.018  0.2323 -0.5516  0.0496
   22SOL    HW1   86   1.536   0.647   0.932  0.9551 -1.1520  2.7748
   22SOL    HW2   87   1.540   0.725   1.062  0.1623 -0.2535 -0.9635
   22SOL     MW   88   1.569   0.663   1.013  0.3184 -0.5914  0.2755
   23SOL     OW   89   3.070   0.737   0.656 -0.0278 -0.4317  0.0310
   23SOL    HW1   90   3.105   0.663   0.715 -0.8418 -2.7025  1.4365
   23SOL    HW2   91   3.127   0.810   0.670 -0.7654  0.8529 -2.6612
   23SOL     MW   92   3.082   0.737   0.666 -0.2325 -0.5618 -0.1388
   24SOL     OW   93   2.018   2.235   0.049  0.7322 -0.2210 -0.2915
   24SOL    HW1   94   2.000   2.197   0.139  0.6825 -2.1070 -0.8153
   24SOL    HW2   95   2.045   2.153   0.008  1.3101 -0.6129 -0.5026
   24SOL     MW   96   2.019   2.219   0.055  0.8019 -0.5215 -0.3885
   25SOL     OW   97   0.234   1.410   0.545 -0.6462  0.0841  0.6512
   25SOL    HW1   98   0.159   1.462   0.531 -0.0443  0.4703 -2.0253
   25SOL    HW2   99   0.315   1.459   0.518  0.7931  1.7777 -0.8954
   25SOL     MW  100   0.234   1.423   0.540 -0.3769  0.3585  0.0940
   26SOL     OW  101   2.097   0.995   0.360  0.1560  0.3097  0.0294
   26SOL    HW1  102   2.035   1.054   0.393  3.0584 -2.0580 -0.3916
   26SOL    HW2  103   2.137   1.030   0.282  1.9056  0.2132  1.2432
   26SOL     MW  104   2.094   1.008   0.354  0.7698 -0.0155  0.1340
   27SOL     OW  105   2.024   1.431   0.247 -0.3444  0.2689 -0.1665
   27SOL    HW1  106   1.950   1.464   0.295 -0.3032 -1.2800 -0.0786
   27SOL    HW2  107   2.091   1.423   0.313 -0.5335 -1.5598  0.3505
   27SOL     MW  108   2.023   1.434   0.262 -0.3639 -0.1768 -0.0867
   28SOL     OW  109   0.454   0.976   1.952 -0.3792  0.3496 -0.4909
   28SOL    HW1  110   0.516   0.957   2.017 -0.6924 -0.1956  3.2624
   28SOL    HW2  111   0.393   0.899   1.947  1.4078 -1.1641  1.8338
   28SOL     MW  112   0.454   0.963   1.960 -0.1847  0.0779  0.3110
   29SOL     OW  113   0.241   1.423   0.822 -0.7065  0.0246  0.4791
   29SOL    HW1  114   0.233   1.520   0.835 -2.8127 -0.0565 -1.5425
   29SOL    HW2  115   0.246   1.408   0.729  0.2985 -2.0542 -0.6448
   29SOL     MW  116   0.241   1.433   0.812 -0.8518 -0.2604  0.0640
   30SOL     OW  117   0.808   1.194   1.236 -0.1809 -0.3208  0.2376
   30SOL    HW1  118   0.732   1.195   1.295 -1.7657 -1.4573  0.2598
   30SOL    HW2  119   0.891   1.166   1.289  1.6239  0.4540  2.5616
   30SOL     MW  120   0.809   1.190   1.251 -0.1519 -0.3685  0.5472
   31SOL     OW  121   0.397   0.209   0.183  0.7633  0.6721 -0.2424
   31SOL    HW1  122   0.413   0.150   0.257 -0.0453 -0.5460 -3.2301
   31SOL    HW2  123   0.428   0.156   0.114 -0.4291  0.9656 -1.6019
   31SOL     MW  124   0.403   0.194   0.183  0.4993  0.5501 -0.8160
   32SOL     OW  125   2.824   0.954   1.168  0.0121 -0.1729  0.2922
   32SOL    HW1  126   2.739   0.910   1.143  0.0519  0.5751  0.7362
   32SOL    HW2  127   2.903   0.914   1.132  1.4426 -0.1958  1.8851
   32SOL     MW  128   2.823   0.943   1.160  0.2061 -0.0772  0.5610
   33SOL     OW  129   1.737   1.307   0.329 -0.2739  0.1838 -0.1588
   33SOL    HW1  130   1.788   1.239   0.378 -0.2310 -1.1252  0.7361
   33SOL    HW2  131   1.761   1.386   0.376  0.9607 -1.3159 -0.8522
   33SOL     MW  132   1.747   1.308   0.342 -0.1054 -0.1868 -0.1322
   34SOL     OW  133   1.228   1.880   1.123  0.0567  0.3420 -0.0238
   34SOL    HW1  134   1.153   1.940   1.121 -0.6747  1.1636  2.8502
   34SOL    HW2  135   1.296   1.908   1.187  2.4574  1.1159 -0.1008
   34SOL     MW  136   1.227   1.892   1.131  0.2769  0.5525  0.3452
   35SOL     OW  137   0.432   0.188   1.827  0.0482 -0.7310 -0.0269
   35SOL    HW1  138   0.391   0.107   1.858  2.2473 -3.5676 -0.9805
   35SOL    HW2  139   0.454   0.176   1.739  1.8479  1.6067  1.5166
   35SOL     MW  140   0.429   0.176   1.820  0.5758 -0.7968  0.0509
   36SOL     OW  141   1.957   1.969   0.585  0.4113  0.0963 -0.2447
   36SOL    HW1  142   1.933   1.973   0.493 -1.6670 -2.7044 -0.0698
   36SOL    HW2  143   1.960   1.868   0.603 -1.0525 -0.3104 -0.6790
   36SOL     MW  144   1.955   1.956   0.575 -0.0561 -0.3269 -0.2789
   37SOL     OW  145   1.771   1.968   0.979  0.6375  0.0844 -0.2254
   37SOL    HW1  146   1.719   1.915   0.912 -0.6344  1.4795 -0.3446
   37SOL    HW2  147   1.708   2.027   1.014  3.6667  0.3890  0.0738
   37SOL     MW  148   1.756   1.969   0.975  0.8693  0.3086 -0.2016
   38SOL     OW  149   2.815   0.912   0.150  0.0904  0.4947  0.0585
   38SOL    HW1  150   2.845   0.888   0.240  2.9190 -2.0506  0.5348
   38SOL    HW2  151   2.890   0.886   0.100 -1.0242  0.9265  0.5880
   38SOL     MW  152   2.829   0.905   0.155  0.3165  0.2158  0.1912
   39SOL     OW  153   1.420   0.650   0.801  0.0319  0.1384  0.1061
   39SOL    HW1  154   1.378   0.571   0.838  0.1506 -1.7463  0.0161
   39SOL    HW2  155   1.346   0.699   0.751 -0.5871 -0.6563 -1.9452
   39SOL     MW  156   1.404   0.646   0.799 -0.0341 -0.2151 -0.1764
   40SOL     OW  157   1.173   1.912   0.313  0.7991  0.0377 -0.0587
   40SOL    HW1  158   1.237   1.852   0.353 -2.1706  1.7448  3.6778
   40SOL    HW2  159   1.155   1.974   0.383  0.8096 -0.4752  0.1543
   40SOL     MW  160   1.179   1.912   0.328  0.4086  0.1953  0.4624
   41SOL     OW  161   0.591   0.563   1.654  0.5540 -0.1038 -0.8057
   41SOL    HW1  162   0.678   0.606   1.638  1.8188 -2.4426 -0.1165
   41SOL    HW2  163   0.596   0.510   1.734 -0.6611 -2.0856 -0.2671
   41SOL     MW  164   0.603   0.562   1.663  0.5606 -0.6739 -0.6437
   42SOL     OW  165   1.249   3.006   1.986 -0.3883 -0.3042  0.6798
   42SOL    HW1  166   1.163   3.015   2.026 -0.2476  1.1475 -0.1998
   42SOL    HW2  167   1.301   2.953   2.042 -0.2279  1.3232  1.4147
   42SOL     MW  168   1.245   3.000   1.999 -0.3486  0.1020  0.6607
   43SOL     OW  169   1.516   0.146   1.720 -0.0918 -0.6862  0.4208
   43SOL    HW1  170   1.553   0.089   1.656  0.7632  0.4604 -1.4823
   43SOL    HW2  171   1.422   0.114   1.722 -1.0645  2.0836  1.1061
   43SOL     MW  172   1.508   0.134   1.712 -0.1073 -0.1695  0.2601
   44SOL     OW  173   1.058   0.791   1.028  0.5617  0.1435  0.4635
   44SOL    HW1  174   1.092   0.874   0.998  0.3443  0.0979  1.0358
   44SOL    HW2  175   1.088   0.777   1.118  1.2959  2.2712 -0.4307
   44SOL     MW  176   1.067   0.800   1.036  0.6299  0.4182  0.4210
   45SOL     OW  177   1.223   0.762   0.662  0.0300 -0.2356  0.2827
   45SOL    HW1  178   1.132   0.784   0.686 -0.1034  1.7599 -2.9041
   45SOL    HW2  179   1.209   0.719   0.573 -1.7550 -0.4647 -3.3587
   45SOL     MW  180   1.209   0.759   0.653 -0.2231 -0.0025 -0.6182
   46SOL     OW  181   0.568   1.195   0.610  0.0552 -0.3607  0.2685
   46SOL    HW1  182   0.550   1.189   0.514 -1.6449  1.3039 -0.6540
   46SOL    HW2  183   0.628   1.127   0.621 -0.3944  0.1249  0.3083
   46SOL     MW  184   0.574   1.185   0.598 -0.2284 -0.0770  0.1520
   47SOL     OW  185   0.197   2.017   1.993  0.1835  0.7375  0.3847
   47SOL    HW1  186   0.287   2.002   2.011 -0.3519  0.0635 -1.7115
   47SOL    HW2  187   0.145   2.009   2.076 -0.5164  1.4587  0.4538
   47SOL     MW  188   0.202   2.014   2.006  0.0205  0.7437  0.1173
   48SOL     OW  189   1.079   0.501   1.012 -0.0206 -0.7531  0.3807
   48SOL    HW1  190   0.989   0.481   0.989  0.8467 -0.0622  1.9034
   48SOL    HW2  191   1.085   0.589   1.026 -0.4222 -2.9095 -1.1001
   48SOL     MW  192   1.068   0.510   1.011  0.0409 -0.9465  0.3862
   49SOL     OW  193   1.788   0.713   1.528 -0.2372 -0.4850 -0.3835
   49SOL    HW1  194   1.762   0.656   1.597  0.9563 -1.2742 -1.8470
   49SOL    HW2  195   1.861   0.671   1.477 -1.9343  1.8803 -2.0827
   49SOL     MW  196   1.794   0.700   1.530 -0.3036 -0.2770 -0.8008
   50SOL     OW  197   1.305   1.055   0.506  0.5915  0.5102  0.0208
   50SOL    HW1  198   1.266   1.085   0.590 -1.0725  1.9601  1.3771
   50SOL    HW2  199   1.375   0.993   0.535  0.2667 -0.2455  1.6872
   50SOL     MW  200   1.309   1.051   0.521  0.3291  0.6018  0.4196
   51SOL     OW  201   0.328   2.923   0.919 -0.1668 -0.0454 -0.3424
   51SOL    HW1  202   0.415   2.884   0.920  0.2892  1.4750  3.0177
   51SOL    HW2  203   0.326   2.962   1.007  3.0342  0.3643  1.3058
   51SOL     MW  204   0.339   2.923   0.931  0.3157  0.2092  0.3184
   52SOL     OW  205   0.784   1.736   0.430 -0.2399 -0.2533 -0.3402
   52SOL    HW1  206   0.766   1.829   0.438  0.3031  0.5702 -3.5961
   52SOL    HW2  207   0.739   1.715   0.347 -2.1276 -3.9031  0.8271
   52SOL     MW  208   0.775   1.746   0.420 -0.4173 -0.6262 -0.6158
   53SOL     OW  209   0.448   2.108   0.543 -0.2340 -0.7537 -0.2685
   53SOL    HW1  210   0.410   2.106   0.456 -1.3856 -4.4277 -0.1174
   53SOL    HW2  211   0.436   2.197   0.576 -1.3109  0.1464  2.7818
   53SOL     MW  212   0.441   2.120   0.536 -0.5280 -1.1196  0.1539
   54SOL     OW  213   2.009   0.939   0.792 -0.0932 -0.1911 -0.2438
   54SOL    HW1  214   2.051   0.948   0.708 -2.3017 -0.3074 -1.9301
   54SOL    HW2  215   1.988   0.845   0.801 -0.1316 -0.1619  0.4652
   54SOL     MW  216   2.011   0.927   0.782 -0.3896 -0.2026 -0.3727
   55SOL     OW  217   0.529   1.548   1.613  0.0289 -0.1711 -0.0141
   55SOL    HW1  218   0.464   1.592   1.559  1.3290 -1.5996 -0.9296
   55SOL    HW2  219   0.600   1.516   1.557 -0.3281  0.9766  1.6462
   55SOL     MW  220   0.530   1.549   1.598  0.1533 -0.2081  0.0842
   56SOL     OW  221   0.612   0.817   0.180  0.0134  0.2854  0.3664
   56SOL    HW1  222   0.646   0.905   0.155  0.0259 -0.1456  1.7065
   56SOL    HW2  223   0.554   0.794   0.108 -0.2172  0.2825  1.8339
   56SOL     MW  224   0.609   0.826   0.167 -0.0154  0.2282  0.7369
   57SOL     OW  225   1.147   1.284   1.168  0.3241 -0.2344  0.4602
   57SOL    HW1  226   1.241   1.271   1.131  0.0400 -0.6399 -0.8212
   57SOL    HW2  227   1.151   1.233   1.246 -5.2984 -1.7956  0.8126
   57SOL     MW  228   1.160   1.276   1.173 -0.4552 -0.4939  0.3376
   58SOL     OW  229   0.579   1.182   1.359 -0.2229  0.9281 -0.1888
   58SOL    HW1  230   0.526   1.255   1.346 -0.4438 -1.4090 -2.0407
   58SOL    HW2  231   0.594   1.171   1.451 -0.3924 -2.3104 -1.4256
   58SOL     MW  232   0.574   1.190   1.369 -0.2744  0.1924 -0.5963
   59SOL     OW  233   1.557   1.715   0.360 -0.2628 -0.4069  0.0772
   59SOL    HW1  234   1.581   1.787   0.423 -1.0741 -0.1277  0.4029
   59SOL    HW2  235   1.467   1.704   0.372 -0.9282  0.6941 -1.4884
   59SOL     MW  236   1.548   1.723   0.370 -0.4577 -0.2248 -0.0864
   60SOL     OW  237   0.039   0.211   1.605 -0.7876  0.2315  0.3484
   60SOL    HW1  238  -0.035   0.252   1.652 -3.9381  2.0463  3.6510
   60SOL    HW2  239   0.063   0.140   1.667  1.0861 -1.6168  0.4138
   60SOL     MW  240   0.032   0.207   1.619 -0.9560  0.2271  0.7928
   61SOL     OW  241   2.005   1.479   3.078  0.5435 -0.3342 -0.1641
   61SOL    HW1  242   1.989   1.474   3.175 -3.4118 -1.4876 -0.8407
   61SOL    HW2  243   2.084   1.424   3.065  1.7346  0.9731 -2.7633
   61SOL     MW  244   2.013   1.471   3.089  0.1788 -0.3139 -0.5963
   62SOL     OW  245   0.574   1.706   0.618  0.3926 -0.4007 -0.3330
   62SOL    HW1  246   0.645   1.713   0.551  1.3639  0.7951  1.0534
   62SOL    HW2  247   0.563   1.616   0.612 -2.4061 -0.3506  0.6791
   62SOL     MW  248   0.582   1.695   0.608  0.1515 -0.2363 -0.0166
   63SOL     OW  249   1.693   0.680   0.706  0.0446  0.2106  0.1440
   63SOL    HW1  250   1.712   0.734   0.628  0.5849  0.2618  2.2610
   63SOL    HW2  251   1.604   0.708   0.730 -0.4898  0.5366 -0.7499
   63SOL     MW  252   1.684   0.691   0.699  0.0454  0.2604  0.3053
   64SOL     OW  253   0.211   1.703   0.833  0.4943  0.6322 -0.1119
   64SOL    HW1  254   0.266   1.747   0.771 -0.2189 -2.0854  1.9302
   64SOL    HW2  255   0.134   1.754   0.831  0.0252 -0.9411 -0.4427
   64SOL     MW  256   0.208   1.716   0.824  0.3383  0.0661  0.1139
   65SOL     OW  257   1.588   2.304   0.368 -0.1169 -0.0753 -0.1995
   65SOL    HW1  258   1.665   2.256   0.398 -1.4862  1.0839  0.3949
   65SOL    HW2  259   1.539   2.331   0.448 -0.3447  1.4296  0.1248
   65SOL     MW  260   1.592   2.301   0.383 -0.3276  0.2762 -0.0783
   66SOL     OW  261   0.297   0.519   0.542  0.0486  0.1365 -0.1075
   66SOL    HW1  262   0.369   0.492   0.475 -1.6771 -1.7190 -2.5445
   66SOL    HW2  263   0.276   0.610   0.516  2.3135 -2.5691  1.3676
   66SOL     MW  264   0.304   0.527   0.530  0.1198 -0.4653 -0.2344
   67SOL     OW  265   1.514   0.079   2.045 -0.4327 -0.0928 -0.5008
   67SOL    HW1  266   1.580   0.100   1.978 -0.5834  1.1516  0.5271
   67SOL    HW2  267   1.449   0.032   2.001 -0.3129 -0.7141  1.4551
   67SOL     MW  268   1.514   0.076   2.031 -0.4368 -0.0106 -0.1071
   68SOL     OW  269   0.705   0.027   2.923 -0.1507 -0.3384  0.4266
   68SOL    HW1  270   0.715   0.082   2.841  0.2624  1.0605  3.1579
   68SOL    HW2  271   0.788   0.052   2.968  0.3656  4.3865 -0.0655
   68SOL     MW  272   0.717   0.038   2.918 -0.0281  0.4696  0.7220
   69SOL     OW  273   1.060   0.218   1.970 -0.0872 -0.2170 -0.3567
   69SOL    HW1  274   1.153   0.242   1.973 -0.8557 -0.7768 -2.6196
   69SOL    HW2  275   1.048   0.156   2.038 -0.7580  2.8648  2.5522
   69SOL     MW  276   1.071   0.213   1.980 -0.2771  0.1157 -0.2715
   70SOL     OW  277   0.571   1.732   1.130  0.1972  0.0305  0.4486
   70SOL    HW1  278   0.620   1.718   1.212  0.2668 -3.4512 -1.2819
   70SOL    HW2  279   0.625   1.789   1.081  0.8536 -1.4529 -0.1794
   70SOL     MW  280   0.584   1.737   1.134  0.2930 -0.6246  0.1374
   71SOL     OW  281   1.587   0.483   1.254  0.4340 -0.2575 -0.2083
   71SOL    HW1  282   1.571   0.553   1.316  0.2071 -0.0080  0.9754
   71SOL    HW2  283   1.568   0.523   1.167 -2.5643 -0.1699  0.2517
   71SOL     MW  284   1.583   0.498   1.251  0.0084 -0.2130  0.0086
   72SOL     OW  285   0.762   1.872   0.985  0.5641  0.4790  0.1455
   72SOL    HW1  286   0.770   1.936   0.911  1.0919  0.2289  1.9485
   72SOL    HW2  287   0.789   1.783   0.955  1.6092 -2.3811  2.8222
   72SOL     MW  288   0.767   1.869   0.971  0.7716  0.0686  0.7365
   73SOL     OW  289   1.184   0.692   1.257 -0.8069  0.1485  0.2448
   73SOL    HW1  290   1.126   0.622   1.287 -0.8353 -1.1309 -0.0087
   73SOL    HW2  291   1.152   0.772   1.308  1.5580  1.4888  1.3804
   73SOL     MW  292   1.172   0.693   1.268 -0.4986  0.1565  0.3612
   74SOL     OW  293   2.713   0.171   0.996  0.0973  0.5577  0.5185
   74SOL    HW1  294   2.792   0.163   0.949 -0.0382  1.4947  0.0627
   74SOL    HW2  295   2.698   0.266   0.987  1.3387  1.2625  1.3213
   74SOL     MW  296   2.722   0.182   0.988  0.2432  0.7743  0.5642
   75SOL     OW  297   1.600   1.438   0.138 -0.6418  0.0887  0.5260
   75SOL    HW1  298   1.647   1.520   0.145 -0.6811 -0.5498 -1.8469
   75SOL    HW2  299   1.657   1.384   0.200 -0.2643 -0.5501 -2.2686
   75SOL     MW  300   1.614   1.441   0.147 -0.5972 -0.0798 -0.1558
   76SOL     OW  301   2.944   0.558   0.466 -0.1667  0.0895 -0.2965
   76SOL    HW1  302   2.999   0.604   0.535 -0.5393  1.4346 -1.0060
   76SOL    HW2  303   3.007   0.511   0.410 -1.9001  0.4306  0.9481
   76SOL     MW  304   2.960   0.558   0.468 -0.4446  0.3120 -0.2259
   77SOL     OW  305   0.828   0.545   0.460  0.0628  0.1041  0.2788
   77SOL    HW1  306   0.802   0.567   0.368 -0.4015  0.0597  0.9015
   77SOL    HW2  307   0.787   0.460   0.473 -0.9090 -1.5480  0.3457
   77SOL     MW  308   0.819   0.537   0.449 -0.1267 -0.1197  0.3698
   78SOL     OW  309   0.751   0.906   1.274  0.5599  0.3709 -0.4927
   78SOL    HW1  310   0.784   0.969   1.218 -0.1362 -1.1678 -0.7641
   78SOL    HW2  311   0.664   0.883   1.241 -2.5082  0.5447  2.2999
   78SOL     MW  312   0.744   0.911   1.263  0.0633  0.1909 -0.1601
   79SOL     OW  313   1.959   1.699   0.577 -0.0295 -0.3603  0.0271
   79SOL    HW1  314   1.884   1.658   0.529 -0.7437 -1.3169 -2.0554
   79SOL    HW2  315   1.944   1.667   0.670  1.6319 -1.0156  1.7148
   79SOL     MW  316   1.947   1.689   0.582  0.0955 -0.5729 -0.0250
   80SOL     OW  317   0.080   0.977   0.326 -0.0514  0.0957 -0.0330
   80SOL    HW1  318   0.002   0.936   0.297  2.6403  2.9480 -0.9614
   80SOL    HW2  319   0.131   0.910   0.372 -0.1096 -2.0954  0.0253
   80SOL     MW  320   0.077   0.963   0.329  0.2960  0.1830 -0.1478
   81SOL     OW  321   1.909   1.890   0.321  0.0532  0.0493  0.8273
   81SOL    HW1  322   1.871   1.803   0.325  1.2460 -0.0602  5.5533
   81SOL    HW2  323   1.854   1.947   0.270  1.3452 -1.3947 -0.1612
   81SOL     MW  324   1.897   1.886   0.315  0.3811 -0.1556  1.3205
   82SOL     OW  325   0.769   1.025   0.555  0.3157 -0.3773 -0.1668
   82SOL    HW1  326   0.789   1.029   0.453 -0.6421 -0.0290 -0.5260
   82SOL    HW2  327   0.752   0.932   0.572  0.3386 -0.9579 -1.3811
   82SOL     MW  328   0.769   1.013   0.544  0.1923 -0.4080 -0.3744
   83SOL     OW  329   0.074   0.640   1.449  0.3168  0.3316 -0.3154
   83SOL    HW1  330   0.100   0.701   1.378 -1.2039  1.7567  1.1893
   83SOL    HW2  331   0.156   0.585   1.452  1.5735  0.9868  0.5417
   83SOL     MW  332   0.088   0.640   1.440  0.2820  0.6061 -0.0038
   84SOL     OW  333   0.144   0.230   1.020  0.2422 -0.4692 -0.2801
   84SOL    HW1  334   0.075   0.294   0.997  2.3944  0.5730  0.8650
   84SOL    HW2  335   0.100   0.183   1.094  2.7139  1.9920  2.9389
   84SOL     MW  336   0.129   0.232   1.026  0.8522 -0.0069  0.2957
   85SOL     OW  337   0.477   0.424   0.782 -0.0020  0.1171  0.2233
   85SOL    HW1  338   0.440   0.457   0.699  0.8234 -0.3621  2.7729
   85SOL    HW2  339   0.423   0.349   0.813 -0.0208  0.7333 -0.5418
   85SOL     MW  340   0.465   0.418   0.775  0.1044  0.1352  0.4587
   86SOL     OW  341   1.180   0.251   1.131  0.0232  0.2207 -0.2492
   86SOL    HW1  342   1.135   0.323   1.095  1.9976 -1.2876  0.8961
   86SOL    HW2  343   1.208   0.270   1.220 -0.1847 -2.3063  0.0703
   86SOL     MW  344   1.178   0.263   1.138  0.2563 -0.3117 -0.0559
   87SOL     OW  345   1.274   1.492   1.302 -0.2261  0.7621 -0.0287
   87SOL    HW1  346   1.306   1.530   1.219  0.2209  1.1217  0.6777
   87SOL    HW2  347   1.222   1.415   1.273 -0.1767 -2.9456  0.5050
   87SOL     MW  348   1.271   1.487   1.287 -0.1606  0.3204  0.1349
   88SOL     OW  349   1.194   1.067   0.963  0.2727 -0.0316 -0.0388
   88SOL    HW1  350   1.288   1.067   0.983 -1.5736  4.6603  0.6656
   88SOL    HW2  351   1.160   1.124   1.027 -0.5357 -0.2878 -0.8515
   88SOL     MW  352   1.202   1.074   0.974 -0.0776  0.5537 -0.0531
   89SOL     OW  353   1.710   0.732   0.372 -0.1079  0.0229  0.1408
   89SOL    HW1  354   1.713   0.637   0.369 -3.6970  0.8582  0.1485
   89SOL    HW2  355   1.794   0.757   0.326  0.1556  0.6128 -2.2573
   89SOL     MW  356   1.722   0.723   0.365 -0.5467  0.2110 -0.1746
   90SOL     OW  357   0.788   1.090   2.733  0.6404 -0.5814  0.4752
   90SOL    HW1  358   0.847   1.011   2.738  0.2077 -3.7448  1.8488
   90SOL    HW2  359   0.799   1.152   2.808  0.5958  4.8214  1.8772
   90SOL     MW  360   0.798   1.088   2.744  0.5774 -0.2859  0.8414
   91SOL     OW  361   2.190   0.671   0.420 -0.3244  0.2388 -0.0789
   91SOL    HW1  362   2.257   0.685   0.355  0.7836 -0.7132 -1.3974
   91SOL    HW2  363   2.178   0.575   0.412 -1.7909 -1.0730  1.2165
   91SOL     MW  364   2.197   0.660   0.410 -0.3717 -0.0599 -0.0819
   92SOL     OW  365   1.754   0.925   0.548 -0.2551 -0.1297 -0.0371
   92SOL    HW1  366   1.666   0.948   0.588  2.4278  2.8841 -0.6636
   92SOL    HW2  367   1.736   0.870   0.471 -1.8220  1.8451  0.5245
   92SOL     MW  368   1.740   0.921   0.543 -0.1079  0.5285 -0.0457
   93SOL     OW  369   0.962   0.249   0.409 -0.3101  0.4094  0.3914
   93SOL    HW1  370   0.877   0.279   0.440 -0.3844 -0.5327 -0.3945
   93SOL    HW2  371   0.966   0.263   0.313  0.5754 -1.2316 -0.8630
   93SOL     MW  372   0.951   0.255   0.400 -0.2030  0.0686  0.1222
   94SOL     OW  373   1.832   1.388   1.616  0.1643 -0.1657  1.0739
   94SOL    HW1  374   1.851   1.405   1.526 -0.2434  1.8772  1.3024
   94SOL    HW2  375   1.824   1.293   1.638 -1.7606 -1.7207  0.3095
   94SOL     MW  376   1.833   1.378   1.607 -0.1435 -0.1013  1.0032
   95SOL     OW  377   0.801   1.565   0.921  0.4234  0.3516 -0.1434
   95SOL    HW1  378   0.848   1.519   0.989 -1.3831 -2.3499 -0.1869
   95SOL    HW2  379   0.708   1.546   0.934  1.4570 -2.6364  2.0685
   95SOL     MW  380   0.795   1.556   0.932  0.3214 -0.3991  0.1427
   96SOL     OW  381   1.230   1.878   1.658 -0.6193 -0.1788  0.5525
   96SOL    HW1  382   1.149   1.870   1.699  2.6480 -1.1280  0.0759
   96SOL    HW2  383   1.251   1.787   1.630 -3.2942  4.5498  1.0440
   96SOL     MW  384   1.222   1.865   1.660 -0.5411  0.3198  0.5545
   97SOL     OW  385   1.249   1.461   0.779 -0.1429 -0.2222  0.7290
   97SOL    HW1  386   1.250   1.499   0.867  2.3602 -1.2421  0.5742
   97SOL    HW2  387   1.156   1.478   0.746 -0.5663 -1.8901 -0.3684
   97SOL     MW  388   1.237   1.468   0.786  0.1315 -0.5768  0.5638
   98SOL     OW  389   1.423   1.265   1.044  0.2126  0.2607 -0.3902
   98SOL    HW1  390   1.496   1.278   1.100  1.3066  2.1599  0.5562
   98SOL    HW2  391   1.442   1.307   0.962  1.9324 -0.6866  1.1551
   98SOL     MW  392   1.435   1.272   1.041  0.5839  0.3863 -0.0615
   99SOL     OW  393   1.333   0.343   1.347  0.1251 -0.1226 -0.6854
   99SOL    HW1  394   1.390   0.403   1.299  1.9228  2.6239  0.7517
   99SOL    HW2  395   1.385   0.343   1.428 -1.4648  1.9191  1.0194
   99SOL     MW  396   1.348   0.351   1.351  0.1525  0.5092 -0.2709
  100SOL     OW  397   1.008   1.168   1.432  0.1968  0.2539 -0.7701
  100SOL    HW1  398   1.029   1.204   1.514 -0.6395 -0.8070 -1.0109
  100SOL    HW2  399   1.023   1.075   1.455  1.1559  0.3769  1.4795
  100SOL     MW  400   1.012   1.161   1.446  0.2130  0.1301 -0.5051
  101SOL     OW  401   0.482   1.118   0.344  0.1691  0.3131 -0.4549
  101SOL    HW1  402   0.463   1.023   0.345 -1.5309 -1.0871 -0.7628
  101SOL    HW2  403   0.507   1.124   0.255  0.7845 -2.3827  1.2035
  101SOL     MW  404   0.483   1.106   0.333  0.0260 -0.2273 -0.2767
  102SOL     OW  405   2.904   0.673   1.041 -0.3892  0.4062 -0.6747
  102SOL    HW1  406   2.965   0.747   1.031 -0.5394  1.8183  2.8622
  102SOL    HW2  407   2.871   0.667   1.132 -0.2402  0.3063  1.8212
  102SOL     MW  408   2.908   0.682   1.052 -0.3894  0.5794  0.1212
  103SOL     OW  409   1.700   0.283   1.851 -0.9816 -0.4116  0.1756
  103SOL    HW1  410   1.624   0.245   1.803  1.2985  2.1523  1.6085
  103SOL    HW2  411   1.763   0.207   1.865 -1.5237  1.3371 -0.1054
  103SOL     MW  412   1.699   0.268   1.846 -0.7523  0.1574  0.3276
  104SOL     OW  413   0.145   1.574   1.527 -0.2600 -0.4769  0.7415
  104SOL    HW1  414   0.151   1.498   1.595  1.9327 -2.7922  1.0186
  104SOL    HW2  415   0.062   1.560   1.485  3.8602  0.0871  1.2678
  104SOL     MW  416   0.135   1.562   1.531  0.5729 -0.7080  0.8475
  105SOL     OW  417   0.076   1.232   0.431  0.2503  0.0650  0.2887
  105SOL    HW1  418   0.097   1.140   0.408 -0.8400  2.7664 -0.8672
  105SOL    HW2  419   0.159   1.266   0.457 -1.1054 -1.2772 -1.8800
  105SOL     MW  420   0.090   1.225   0.432 -0.0724  0.2443 -0.1499
  106SOL     OW  421   0.843   0.338   0.974 -0.3247 -0.1533 -0.0335
  106SOL    HW1  422   0.777   0.402   0.944 -0.9714  0.2626 -0.8957
  106SOL    HW2  423   0.891   0.309   0.895  0.0644  0.5264 -0.3634
  106SOL     MW  424   0.840   0.342   0.960 -0.3587 -0.0087 -0.1908
  107SOL     OW  425   0.815   2.180   2.949 -0.1606  0.2122 -0.1063
  107SOL    HW1  426   0.733   2.170   2.901 -0.6224 -2.9526  2.5559
  107SOL    HW2  427   0.805   2.131   3.035  1.0822  2.7163  0.8758
  107SOL     MW  428   0.803   2.172   2.954 -0.0576  0.1250  0.3746
  108SOL     OW  429   1.342   1.596   1.643  0.2040 -0.2494  0.0028
  108SOL    HW1  430   1.317   1.536   1.578  1.3360 -2.6802 -1.2636
  108SOL    HW2  431   1.434   1.585   1.631 -1.9519 -0.1424 -1.0723
  108SOL     MW  432   1.351   1.587   1.633  0.0689 -0.5560 -0.3061
  109SOL     OW  433   1.951   0.768   0.212  0.1579 -0.4202  0.0200
  109SOL    HW1  434   1.977   0.798   0.124  0.0511  2.7669 -0.7446
  109SOL    HW2  435   2.018   0.775   0.283 -0.7054 -3.4085  0.5426
  109SOL     MW  436   1.963   0.773   0.209  0.0299 -0.3940 -0.0120
  110SOL     OW  437   0.340   1.878   0.653 -0.0144  0.4730 -0.6924
  110SOL    HW1  438   0.410   1.819   0.621  0.3999 -1.3424  0.8312
  110SOL    HW2  439   0.352   1.962   0.607 -1.2307  0.7911 -1.3914
  110SOL     MW  440   0.350   1.881   0.643 -0.1203  0.2754 -0.5836
  111SOL     OW  441   0.861   0.914   1.524 -0.1735 -0.2333  0.1852
  111SOL    HW1  442   0.814   0.923   1.436 -1.8060  2.1283 -1.7344
  111SOL    HW2  443   0.847   0.829   1.563  0.1190 -0.8167 -3.2961
  111SOL     MW  444   0.853   0.904   1.518 -0.3503  0.0013 -0.5274
  112SOL     OW  445   1.312   1.138   1.609 -0.2069 -0.1717 -0.4531
  112SOL    HW1  446   1.238   1.200   1.634  0.1849 -0.0178  0.8564
  112SOL    HW2  447   1.276   1.047   1.625 -1.0620 -0.6935 -0.9314
  112SOL     MW  448   1.298   1.134   1.615 -0.2680 -0.2203 -0.3435
  113SOL     OW  449   1.289   3.099   1.726  0.1391  0.6712 -0.1395
  113SOL    HW1  450   1.268   3.079   1.817 -0.1202  0.1417  0.5036
  113SOL    HW2  451   1.297   3.014   1.677 -1.9331 -2.8469  1.9714
  113SOL     MW  452   1.287   3.085   1.732 -0.1685  0.1372  0.2239
  114SOL     OW  453   0.305   2.875   1.953  0.0570 -0.4085 -0.6493
  114SOL    HW1  454   0.328   2.960   2.002 -0.7018  2.8077 -0.3862
  114SOL    HW2  455   0.320   2.890   1.859 -1.4454 -0.7661  0.0330
  114SOL     MW  456   0.310   2.888   1.947 -0.2413 -0.0313 -0.5246
  115SOL     OW  457   0.503   0.838   1.105  0.1290  0.2310  0.3415
  115SOL    HW1  458   0.512   0.741   1.126  0.8351  0.3404 -1.1145
  115SOL    HW2  459   0.476   0.882   1.190 -1.0000  1.0427  0.2889
  115SOL     MW  460   0.500   0.831   1.119  0.0732  0.3526  0.1425
  116SOL     OW  461   0.775   1.098   0.958  0.0556  0.0264  0.5387
  116SOL    HW1  462   0.813   1.155   0.881 -3.2338  2.3496 -0.5283
  116SOL    HW2  463   0.824   1.126   1.030 -1.6409 -0.7046  1.1189
  116SOL     MW  464   0.786   1.109   0.957 -0.6022  0.2365  0.4745
  117SOL     OW  465   1.214   1.190   0.718  0.2482  0.4936 -0.1979
  117SOL    HW1  466   1.210   1.150   0.809  1.1526  2.5224  0.1348
  117SOL    HW2  467   1.230   1.282   0.733 -0.8831  2.6872 -0.9446
  117SOL     MW  468   1.216   1.197   0.732  0.2183  1.0507 -0.2525
  118SOL     OW  469   3.037   2.972   1.713  0.2602  0.1453  0.0809
  118SOL    HW1  470   3.102   3.037   1.746  2.3536 -2.1260 -3.5601
  118SOL    HW2  471   2.947   3.017   1.717 -3.4172 -0.8927  0.3311
  118SOL     MW  472   3.034   2.986   1.718  0.0512 -0.2913 -0.3665
  119SOL     OW  473   0.465   1.490   1.284  0.4721 -0.2318 -0.3907
  119SOL    HW1  474   0.525   1.544   1.236  0.4782  0.7742  1.5320
  119SOL    HW2  475   0.378   1.485   1.245  1.4623 -0.3698 -3.1991
  119SOL     MW  476   0.461   1.497   1.272  0.6035 -0.1172 -0.5076
  120SOL     OW  477   0.267   0.691   1.001 -0.0259  0.1898 -0.8411
  120SOL    HW1  478   0.238   0.629   1.072 -0.2105  0.0740  0.6354
  120SOL    HW2  479   0.309   0.762   1.046  1.6347  0.3504 -0.3239
  120SOL     MW  480   0.269   0.692   1.016  0.1688  0.1957 -0.5781
  121SOL     OW  481   1.723   1.142   1.744  0.5171 -0.7999  0.0595
  121SOL    HW1  482   1.632   1.120   1.778 -0.7011 -2.5512  0.6520
  121SOL    HW2  483   1.740   1.077   1.677 -1.4548  2.1587  0.1740
  121SOL     MW  484   1.713   1.130   1.739  0.0962 -0.6406  0.1528
  122SOL     OW  485   0.126   0.559   0.788  0.5889  0.1164  0.4659
  122SOL    HW1  486   0.186   0.534   0.717  1.4343  1.1258  0.6727
  122SOL    HW2  487   0.182   0.592   0.863 -1.3169  0.3416  1.2083
  122SOL     MW  488   0.141   0.560   0.789  0.4490  0.2793  0.5911
  123SOL     OW  489   1.874   1.157   0.510  0.1319  0.1790  0.0409
  123SOL    HW1  490   1.816   1.079   0.513  0.2664 -0.9451 -0.4765
  123SOL    HW2  491   1.905   1.168   0.602 -0.7786  0.6658  1.0820
  123SOL     MW  492   1.870   1.148   0.522  0.0295  0.0949  0.1100
  124SOL     OW  493   0.676   0.548   0.916  0.1340 -0.1729  0.2752
  124SOL    HW1  494   0.595   0.504   0.877 -1.0964 -2.4232 -0.7111
  124SOL    HW2  495   0.673   0.644   0.903 -1.2532  1.7999 -1.5594
  124SOL     MW  496   0.665   0.555   0.909 -0.2114 -0.2095 -0.0970
  125SOL     OW  497   0.633   1.796   1.736  0.3618 -0.1064  0.8300
  125SOL    HW1  498   0.578   1.727   1.696  0.1422  2.3789 -0.5330
  125SOL    HW2  499   0.582   1.884   1.731 -1.0291  0.3760  2.0142
  125SOL     MW  500   0.619   1.798   1.730  0.1493  0.2851  0.8064
  126SOL     OW  501   2.064   1.573   1.949  0.0111 -0.0085  0.0869
  126SOL    HW1  502   2.110   1.656   1.957 -1.8475  0.6579 -0.2481
  126SOL    HW2  503   2.131   1.504   1.961  1.6400  1.3312  1.4181
  126SOL     MW  504   2.079   1.574   1.952 -0.0192  0.2562  0.2184
  127SOL     OW  505   0.648   0.799   1.831 -0.1423 -0.1569 -0.6379
  127SOL    HW1  506   0.722   0.752   1.868 -2.8104  0.5271  1.8186
  127SOL    HW2  507   0.649   0.888   1.871 -2.7981 -0.7225  0.1576
  127SOL     MW  508   0.658   0.805   1.841 -0.8447 -0.1413 -0.2088
  128SOL     OW  509   1.791   0.748   2.931  0.4665  0.2037 -0.0606
  128SOL    HW1  510   1.808   0.720   2.839  1.4765  0.7286 -0.2976
  128SOL    HW2  511   1.759   0.839   2.914  0.6586 -1.8202 -1.1908
  128SOL     MW  512   1.789   0.756   2.916  0.6251  0.0060 -0.2410
  129SOL     OW  513   1.573   0.927   0.217 -0.1249 -0.6071  0.2844
  129SOL    HW1  514   1.508   0.867   0.178 -1.3784  1.5763 -0.7102
  129SOL    HW2  515   1.619   0.861   0.274 -0.3811  0.2388  1.8411
  129SOL     MW  516   1.571   0.910   0.219 -0.3241 -0.2074  0.3586
  130SOL     OW  517   0.753   1.375   0.321 -0.3940 -0.0735 -0.6095
  130SOL    HW1  518   0.779   1.376   0.419 -0.8310  0.8006 -0.0882
  130SOL    HW2  519   0.805   1.438   0.281  0.3037 -0.8573  3.1186
  130SOL     MW  520   0.763   1.384   0.329 -0.3596 -0.0616 -0.0488
  131SOL     OW  521   3.065   0.811   0.019 -0.3432  0.2004  0.1875
  131SOL    HW1  522   3.080   0.865  -0.053  0.0254 -0.9504  1.0474
  131SOL    HW2  523   3.144   0.758   0.028 -0.4764  3.9457  0.9560
  131SOL     MW  524   3.077   0.811   0.011 -0.3121  0.5427  0.4023
  132SOL     OW  525   2.693   0.136   1.263  0.0365  0.1490  0.6110
  132SOL    HW1  526   2.723   0.132   1.162  2.2197 -0.0134 -0.8633
  132SOL    HW2  527   2.619   0.080   1.268  0.7766 -1.2479 -0.2017
  132SOL     MW  528   2.687   0.129   1.250  0.4222 -0.0567  0.3092
  133SOL     OW  529   1.053   0.143   1.691  0.1472 -0.3482  0.2005
  133SOL    HW1  530   1.121   0.077   1.670 -0.8782 -0.9565 -1.2860
  133SOL    HW2  531   1.067   0.159   1.782  1.7115  0.8494 -2.4048
  133SOL     MW  532   1.064   0.136   1.700  0.2183 -0.2704 -0.3394
  134SOL     OW  533   1.391   2.538   1.432  0.6444 -0.1063 -0.3741
  134SOL    HW1  534   1.321   2.603   1.428 -0.0464  3.0440  2.6469
  134SOL    HW2  535   1.433   2.537   1.519 -0.2978  0.2412  0.0283
  134SOL     MW  536   1.387   2.547   1.443  0.4289  0.3552  0.0776
  135SOL     OW  537   3.004   0.974   2.864 -0.0548 -0.2669  0.5934
  135SOL    HW1  538   3.091   1.006   2.877 -1.5506  4.0022  0.6284
  135SOL    HW2  539   2.944   1.050   2.873  0.0815  0.6744  1.1878
  135SOL     MW  540   3.008   0.988   2.867 -0.2342  0.4206  0.6765
  136SOL     OW  541   0.167   2.008   0.813 -0.1400 -0.3128 -0.2962
  136SOL    HW1  542   0.091   1.954   0.789  1.3769 -3.2170  0.1076
  136SOL    HW2  543   0.240   1.974   0.756  1.4015 -1.9561 -1.4037
  136SOL     MW  544   0.166   1.997   0.802  0.2635 -0.9128 -0.3890
  137SOL     OW  545   0.722   2.039   0.526  0.3706  0.2533  0.4554
  137SOL    HW1  546   0.747   2.032   0.623  4.8375 -4.8677  0.7102
  137SOL    HW2  547   0.629   2.068   0.537 -1.4134 -0.6838 -1.4279
  137SOL     MW  548   0.713   2.042   0.540  0.7246 -0.5460  0.2406
  138SOL     OW  549   0.517   0.580   1.150 -0.2171 -0.2517  0.6891
  138SOL    HW1  550   0.432   0.570   1.102 -1.3900 -0.1729  0.8731
  138SOL    HW2  551   0.587   0.567   1.083 -0.3682  0.2595  1.6437
  138SOL     MW  552   0.515   0.577   1.135 -0.3918 -0.1739  0.8393
  139SOL     OW  553   2.771   0.632   1.308  0.0889 -0.0340 -0.8493
  139SOL    HW1  554   2.755   0.549   1.357 -1.2694  1.2789 -0.6445
  139SOL    HW2  555   2.815   0.692   1.370  0.1694  2.5799  1.1142
  139SOL     MW  556   2.774   0.629   1.323 -0.0797  0.4841 -0.5632
  140SOL     OW  557   0.892   0.407   2.072  0.9305  0.2815 -0.3135
  140SOL    HW1  558   0.957   0.345   2.033  0.6192  1.6853  3.2114
  140SOL    HW2  559   0.885   0.383   2.163 -0.3311 -2.0235 -1.2450
  140SOL     MW  560   0.899   0.396   2.079  0.7230  0.1626  0.0287
  141SOL     OW  561   1.057   0.671   1.751 -0.1840  0.1182  0.2491
  141SOL    HW1  562   1.071   0.584   1.712 -2.6711  0.9856 -0.3157
  141SOL    HW2  563   1.123   0.727   1.717 -2.2493  1.4924  1.2738
  141SOL     MW  564   1.068   0.667   1.741 -0.7846  0.4140  0.3098
  142SOL     OW  565   0.920   1.186   0.715  0.3993 -0.3220  0.0570
  142SOL    HW1  566   0.876   1.124   0.654 -1.1187  1.5520 -0.0845
  142SOL    HW2  567   1.005   1.178   0.680 -2.7481  1.0650 -0.9645
  142SOL     MW  568   0.925   1.177   0.702 -0.2162  0.1083 -0.0964
  143SOL     OW  569   1.829   0.770   1.087  0.4056 -0.8314 -0.3886
  143SOL    HW1  570   1.918   0.765   1.043  1.7023 -1.3518 -1.7839
  143SOL    HW2  571   1.770   0.712   1.035  1.1030 -0.2589 -3.6466
  143SOL     MW  572   1.833   0.761   1.074  0.6687 -0.8245 -1.0025
  144SOL     OW  573   0.264   1.203   1.629  0.1914  0.3103  0.5856
  144SOL    HW1  574   0.349   1.187   1.588 -1.7846  0.0641 -0.6392
  144SOL    HW2  575   0.275   1.200   1.723 -0.7418 -0.2437  0.6581
  144SOL     MW  576   0.277   1.201   1.636 -0.1925  0.2047  0.4336
  145SOL     OW  577   0.225   0.489   1.155 -0.4300  0.0848 -0.3993
  145SOL    HW1  578   0.271   0.444   1.223  1.6870 -1.6964  1.3104
  145SOL    HW2  579   0.145   0.449   1.121  2.8829  2.3587  1.1369
  145SOL     MW  580   0.220   0.478   1.160  0.2864  0.1499  0.0290
  146SOL     OW  581   0.859   1.955   1.356 -0.3699  0.2170  0.3214
  146SOL    HW1  582   0.883   1.966   1.262 -3.5222  0.1882  1.4226
  146SOL    HW2  583   0.768   1.923   1.352 -0.6734 -0.1925 -0.9591
  146SOL     MW  584   0.850   1.952   1.343 -0.8258  0.1592  0.2978
  147SOL     OW  585   0.448   0.463   2.962  0.0312 -0.0879  0.6645
  147SOL    HW1  586   0.394   0.455   3.039  0.6952  0.3055  0.3201
  147SOL    HW2  587   0.397   0.510   2.893  0.3434 -0.4434  0.2634
  147SOL     MW  588   0.434   0.468   2.963  0.1600 -0.0829  0.5661
  148SOL     OW  589   0.152   0.865   1.286 -0.1653  0.6249  0.1610
  148SOL    HW1  590   0.245   0.912   1.299  0.6872  0.4304 -1.8911
  148SOL    HW2  591   0.102   0.903   1.363 -0.5841 -0.4985  1.5155
  148SOL     MW  592   0.158   0.876   1.298 -0.1081  0.4510  0.0690
  149SOL     OW  593   1.338   1.184   1.343  0.5712  0.3399  0.6125
  149SOL    HW1  594   1.332   1.179   1.440  2.8467  0.0418  0.3507
  149SOL    HW2  595   1.411   1.244   1.322  1.1384 -0.5176  0.4599
  149SOL     MW  596   1.347   1.191   1.353  0.9463  0.1874  0.5578
  150SOL     OW  597   1.812   1.322   0.751 -0.6656  0.3810  0.1769
  150SOL    HW1  598   1.837   1.260   0.818 -2.2957  1.4948 -0.6923
  150SOL    HW2  599   1.828   1.405   0.795  0.7611 -1.5016  1.7244
  150SOL     MW  600   1.818   1.325   0.766 -0.6924  0.2795  0.2664
  151SOL     OW  601   1.644   1.769   0.803  0.2240 -0.1868 -0.6118
  151SOL    HW1  602   1.640   1.810   0.716 -2.2135  0.7131  1.6412
  151SOL    HW2  603   1.575   1.698   0.829 -1.4027 -1.1666 -0.3206
  151SOL     MW  604   1.634   1.765   0.795 -0.3123 -0.1973 -0.2761
  152SOL     OW  605   0.766   1.377   1.504  0.0413  0.3106  0.1785
  152SOL    HW1  606   0.754   1.320   1.581  0.3002 -0.7953 -0.1842
  152SOL    HW2  607   0.849   1.341   1.466  1.2592  0.0098  0.3830
  152SOL     MW  608   0.776   1.365   1.509  0.2361  0.1250  0.1576
  153SOL     OW  609   2.610   1.209   0.796  0.0182  0.0389  0.3733
  153SOL    HW1  610   2.667   1.186   0.713  0.1078  0.8005 -0.8593
  153SOL    HW2  611   2.557   1.129   0.795 -0.6303 -2.7688 -2.0552
  153SOL     MW  612   2.610   1.195   0.785 -0.0555 -0.2311 -0.1097
  154SOL     OW  613   0.227   1.797   1.702 -0.0898 -0.0920  0.2890
  154SOL    HW1  614   0.159   1.740   1.671 -3.2087 -1.7545  2.8562
  154SOL    HW2  615   0.262   1.752   1.779  2.5284 -2.4073 -1.7139
  154SOL     MW  616   0.223   1.783   1.708 -0.1559 -0.6168  0.3635
  155SOL     OW  617   1.217   0.696   0.202 -0.4475  0.0963 -0.0315
  155SOL    HW1  618   1.197   0.639   0.283  3.4933  0.0208  3.6331
  155SOL    HW2  619   1.208   0.787   0.236 -1.6479  0.8982  2.2699
  155SOL     MW  620   1.214   0.701   0.218 -0.0859  0.1921  0.7556
  156SOL     OW  621   1.485   3.053   1.118  0.1396 -0.6528 -0.3178
  156SOL    HW1  622   1.556   3.120   1.127 -1.5031  2.5498  1.3805
  156SOL    HW2  623   1.515   2.981   1.171 -3.0882 -2.4780  0.2411
  156SOL     MW  624   1.498   3.052   1.126 -0.5030 -0.4711 -0.0200
  157SOL     OW  625   1.453   1.179   0.126  0.0873  0.7887 -0.1418
  157SOL    HW1  626   1.501   1.104   0.173  2.7796 -3.2557  0.9102
  157SOL    HW2  627   1.515   1.257   0.135 -1.0860 -0.0563  2.4111
  157SOL     MW  628   1.468   1.179   0.133  0.2877  0.1436  0.3338
  158SOL     OW  629   0.544   1.651   2.217 -0.4185  0.1229  0.2786
  158SOL    HW1  630   0.535   1.723   2.152 -1.1972 -1.5121  0.2265
  158SOL    HW2  631   0.468   1.664   2.269  1.2392 -3.3863 -2.4888
  158SOL     MW  632   0.533   1.663   2.215 -0.3025 -0.5558 -0.0934
  159SOL     OW  633   1.281   1.661   0.436 -0.3478 -0.5051 -0.0844
  159SOL    HW1  634   1.242   1.588   0.385 -1.5374 -0.5934  1.2040
  159SOL    HW2  635   1.208   1.681   0.501  0.2069 -0.9935  0.7555
  159SOL     MW  636   1.266   1.654   0.438 -0.4316 -0.5812  0.1964
  160SOL     OW  637   0.543   1.149   1.631 -0.1112 -0.0940  0.4949
  160SOL    HW1  638   0.510   1.057   1.629  0.1419  1.1643  1.0039
  160SOL    HW2  639   0.631   1.141   1.678  1.8509 -1.9424 -1.0595
  160SOL     MW  640   0.550   1.136   1.637  0.1811 -0.1719  0.3570
  161SOL     OW  641   0.514   2.269   2.561  0.3183  1.1040  0.2496
  161SOL    HW1  642   0.422   2.258   2.591  0.1111 -1.5450  0.7454
  161SOL    HW2  643   0.521   2.207   2.490  0.6146  0.3935  0.0846
  161SOL     MW  644   0.503   2.259   2.555  0.3301  0.6607  0.2933
  162SOL     OW  645   1.068   1.789   1.894  0.4618  0.4455  0.2476
  162SOL    HW1  646   1.108   1.858   1.948  3.9470 -0.0342  0.1800
  162SOL    HW2  647   0.972   1.802   1.902 -0.1845 -0.1011 -0.1593
  162SOL     MW  648   1.060   1.800   1.902  0.8364  0.3101  0.1850
  163SOL     OW  649   2.107   0.017   0.915 -0.7790 -0.3959 -0.0885
  163SOL    HW1  650   2.103   0.074   0.831 -0.2562 -3.2759 -3.2436
  163SOL    HW2  651   2.098  -0.066   0.874 -0.1973 -0.2087  0.4747
  163SOL     MW  652   2.105   0.013   0.898 -0.6333 -0.7512 -0.4305
  164SOL     OW  653   0.328   0.211   0.837 -0.4329  0.2413 -0.4669
  164SOL    HW1  654   0.264   0.204   0.913 -2.6855 -1.3061  0.5100
  164SOL    HW2  655   0.323   0.132   0.788  1.1797 -0.4932 -1.3718
  164SOL     MW  656   0.319   0.200   0.840 -0.5174 -0.0598 -0.4574
  165SOL     OW  657   1.359   1.271   0.351  0.1453  0.0646 -0.1494
  165SOL    HW1  658   1.320   1.204   0.406  0.9303 -0.3951  1.9065
  165SOL    HW2  659   1.384   1.240   0.259  1.8020  0.0428 -1.9271
  165SOL     MW  660   1.357   1.258   0.346  0.4674  0.0011 -0.1127
  166SOL     OW  661   0.530   1.197   1.006  0.3254  0.1883  0.0944
  166SOL    HW1  662   0.524   1.189   1.100 -2.8284  2.4203 -2.8239
  166SOL    HW2  663   0.622   1.171   0.977  2.1904  0.2263 -0.9916
  166SOL     MW  664   0.541   1.192   1.015  0.1554  0.4878 -0.4339
  167SOL     OW  665   0.788   1.042   0.296 -0.5306  0.6641  0.1975
  167SOL    HW1  666   0.736   1.130   0.307 -1.2014  3.8837  1.1916
  167SOL    HW2  667   0.874   1.075   0.261  3.2791  0.0656  0.3508
  167SOL     MW  668   0.793   1.058   0.293 -0.1164  1.0100  0.3489
  168SOL     OW  669   1.683   1.659   3.057 -0.0070  0.0249 -0.0429
  168SOL    HW1  670   1.620   1.674   2.991 -1.8638  0.6863  2.6149
  168SOL    HW2  671   1.722   1.577   3.041 -1.2278  3.3356  1.5079
  168SOL     MW  672   1.680   1.650   3.046 -0.4131  0.5490  0.5124
  169SOL     OW  673   0.400   0.958   1.353  0.2758  0.4672  0.0441
  169SOL    HW1  674   0.405   0.909   1.435 -1.4525  0.1404 -3.4723
  169SOL    HW2  675   0.460   1.031   1.354  0.1047  0.0802  0.5122
  169SOL     MW  676   0.408   0.961   1.364  0.0252  0.3731 -0.3581
  170SOL     OW  677   1.034   1.526   1.528  0.3889  0.6381  0.1145
  170SOL    HW1  678   0.969   1.596   1.555 -0.2189  0.4040  0.4878
  170SOL    HW2  679   1.050   1.549   1.437 -0.7814 -1.1167  1.9525
  170SOL     MW  680   1.027   1.538   1.520  0.1543  0.3757  0.4063
  171SOL     OW  681   0.499   1.447   0.642 -0.0104  0.2300  0.4187
  171SOL    HW1  682   0.498   1.445   0.743  0.7320 -2.2441  1.6174
  171SOL    HW2  683   0.515   1.353   0.617 -0.6883 -2.2505  0.1694
  171SOL     MW  684   0.501   1.435   0.652 -0.0019 -0.4237  0.5440
  172SOL     OW  685   0.884   0.351   1.254  0.5716  0.0046  0.0120
  172SOL    HW1  686   0.863   0.367   1.161 -1.2900 -1.6344 -0.4081
  172SOL    HW2  687   0.799   0.381   1.285  2.6010 -0.0838  2.9563
  172SOL     MW  688   0.870   0.357   1.246  0.5937 -0.2233  0.3450
  173SOL     OW  689   0.435   1.690   0.377  0.1395 -0.0844 -0.0013
  173SOL    HW1  690   0.463   1.602   0.345  0.6172 -0.0984  0.3543
  173SOL    HW2  691   0.473   1.697   0.467 -0.7565  0.0645 -0.7523
  173SOL     MW  692   0.443   1.680   0.385  0.0843 -0.0666 -0.0535
  174SOL     OW  693   1.829   0.977   1.558  0.4013  0.1409  0.4718
  174SOL    HW1  694   1.806   0.881   1.555  0.5550 -1.7943 -0.1192
  174SOL    HW2  695   1.795   1.014   1.474 -0.0209 -1.5348  2.0804
  174SOL     MW  696   1.821   0.970   1.547  0.3659 -0.3355  0.6061
  175SOL     OW  697   0.504   1.472   0.241  0.1684 -0.5809 -0.3940
  175SOL    HW1  698   0.437   1.412   0.215 -2.7538 -1.6024 -0.5088
  175SOL    HW2  699   0.577   1.422   0.279 -2.4162 -2.4139 -1.6707
  175SOL     MW  700   0.505   1.458   0.243 -0.5581 -0.9575 -0.5776
  176SOL     OW  701   0.192   1.501   1.194  0.5639  0.3631 -0.2950
  176SOL    HW1  702   0.171   1.428   1.137 -0.8169  1.3259 -1.9749
  176SOL    HW2  703   0.106   1.521   1.243  2.3107  0.3151 -3.3686
  176SOL     MW  704   0.178   1.494   1.193  0.6122  0.4838 -0.9221
  177SOL     OW  705   0.657   0.470   1.408  0.0684  0.7596  0.3228
  177SOL    HW1  706   0.587   0.520   1.363  0.6312 -1.7991  0.4756
  177SOL    HW2  707   0.654   0.499   1.496  0.3345 -0.6391 -1.8190
  177SOL     MW  708   0.647   0.481   1.414  0.1778  0.2375  0.0604
  178SOL     OW  709   3.044   0.549   2.943 -0.1293  0.8670  0.2546
  178SOL    HW1  710   2.983   0.588   3.000  1.6722  1.2997  0.5629
  178SOL    HW2  711   2.988   0.529   2.864  0.7174  0.7582  1.0569
  178SOL     MW  712   3.028   0.551   2.940  0.2201  0.9097  0.4011
  179SOL     OW  713   1.591   1.325   1.314 -0.1348  0.1183 -0.2749
  179SOL    HW1  714   1.563   1.336   1.407  2.6059 -0.5008  0.0917
  179SOL    HW2  715   1.683   1.345   1.308 -2.7714 -0.0385 -1.5477
  179SOL     MW  716   1.599   1.329   1.325 -0.1211  0.0159 -0.3945
  180SOL     OW  717   3.023   0.189   0.416 -0.0080 -0.0457 -0.1169
  180SOL    HW1  718   2.960   0.176   0.343 -2.4907 -1.2077  2.6308
  180SOL    HW2  719   3.068   0.273   0.398  0.6786 -0.2832 -0.7119
  180SOL     MW  720   3.020   0.199   0.404 -0.2450 -0.2304  0.1671
  181SOL     OW  721   1.112   1.313   3.096  0.0347  0.2452 -0.0151
  181SOL    HW1  722   1.154   1.402   3.113  0.7706  3.0413  0.3449
  181SOL    HW2  723   1.171   1.269   3.039  0.3166  0.0408  2.8219
  181SOL     MW  724   1.125   1.319   3.091  0.1690  0.5871  0.4067
  182SOL     OW  725   0.462   0.855   1.596  0.5007 -0.4532 -0.6041
  182SOL    HW1  726   0.380   0.829   1.650  1.7398  0.3160  1.4383
  182SOL    HW2  727   0.531   0.815   1.652 -1.7436  0.2483 -0.4605
  182SOL     MW  728   0.460   0.847   1.611  0.3680 -0.2592 -0.3157
  183SOL     OW  729   1.592   1.545   1.139  0.2205  0.5221  0.1941
  183SOL    HW1  730   1.619   1.624   1.180 -1.4989 -0.4950  0.6017
  183SOL    HW2  731   1.557   1.489   1.207  2.1603  0.2788 -1.3939
  183SOL     MW  732   1.591   1.548   1.154  0.2496  0.3558  0.0384
  184SOL     OW  733   0.843   0.660   1.954 -0.4317 -0.1916  0.2467
  184SOL    HW1  734   0.935   0.657   1.916 -0.2673  0.2421 -3.2809
  184SOL    HW2  735   0.835   0.574   1.996  0.5363  0.4075  0.1442
  184SOL     MW  736   0.854   0.648   1.955 -0.2823 -0.0553 -0.2322
  185SOL     OW  737   1.199   0.979   1.940 -0.4170 -0.5585 -0.1232
  185SOL    HW1  738   1.186   0.893   1.980  0.5041  1.6084  0.2410
  185SOL    HW2  739   1.226   1.040   2.005  0.6189 -1.7604 -0.8246
  185SOL     MW  740   1.201   0.976   1.954 -0.1588 -0.4312 -0.1677
  186SOL     OW  741   0.368   1.710   1.440 -0.2841 -0.3601 -0.2617
  186SOL    HW1  742   0.397   1.647   1.374  0.2422  0.0773 -2.7001
  186SOL    HW2  743   0.278   1.686   1.476  0.4237  0.2952  2.2387
  186SOL     MW  744   0.360   1.699   1.436 -0.1213 -0.2159 -0.2535
  187SOL     OW  745   1.448   0.688   1.366 -0.1708  0.1733 -0.3215
  187SOL    HW1  746   1.468   0.669   1.456  0.5320 -1.4919 -1.4377
  187SOL    HW2  747   1.358   0.667   1.347  1.8593  0.6934 -0.9368
  187SOL     MW  748   1.439   0.683   1.375  0.1898  0.0222 -0.5499
  188SOL     OW  749   1.894   1.160   0.934 -0.0549 -0.0192  0.2198
  188SOL    HW1  750   1.912   1.175   1.033  2.7233 -2.3057 -0.4654
  188SOL    HW2  751   1.933   1.074   0.902 -1.2774 -1.2534  1.3295
  188SOL     MW  752   1.901   1.150   0.943  0.1504 -0.4837  0.2758
  189SOL     OW  753   0.658   0.822   0.820  0.0952  0.3638  0.5204
  189SOL    HW1  754   0.573   0.868   0.843 -2.0518  0.8047 -0.6472
  189SOL    HW2  755   0.726   0.871   0.860 -0.5381  0.0311 -0.9169
  189SOL     MW  756   0.656   0.834   0.828 -0.2716  0.3781  0.1767
  190SOL     OW  757   1.908   0.215   2.160  0.3022 -0.0117  0.1732
  190SOL    HW1  758   1.886   0.222   2.255 -0.2531 -0.7553  0.6829
  190SOL    HW2  759   1.967   0.289   2.138  2.3753  1.7986  2.9622
  190SOL     MW  760   1.913   0.225   2.170  0.5025  0.1290  0.6084
  191SOL     OW  761   1.474   0.948   1.233 -0.4833  0.2669 -0.0381
  191SOL    HW1  762   1.432   1.014   1.291  1.4133 -0.2693 -1.2939
  191SOL    HW2  763   1.448   0.865   1.267  1.7095  0.5081  0.0986
  191SOL     MW  764   1.465   0.946   1.245  0.0563  0.2280 -0.1858
  192SOL     OW  765   0.611   2.132   2.774 -0.2253  0.0378 -0.5623
  192SOL    HW1  766   0.579   2.159   2.689 -2.2198  0.6902 -2.8436
  192SOL    HW2  767   0.595   2.035   2.785  1.5169 -0.5212  1.1861
  192SOL     MW  768   0.605   2.123   2.764 -0.2586  0.0501 -0.6326
  193SOL     OW  769   0.988   1.559   0.738 -0.3069  0.0101  0.3369
  193SOL    HW1  770   0.942   1.585   0.819  2.9769 -0.6294 -2.0733
  193SOL    HW2  771   0.916   1.512   0.687 -0.4509 -1.0611 -2.6734
  193SOL     MW  772   0.972   1.557   0.742  0.1073 -0.2156 -0.3783
  194SOL     OW  773   0.520   1.453   0.921  0.0474  0.2872 -0.4679
  194SOL    HW1  774   0.539   1.357   0.929  1.2646 -0.3583 -1.6057
  194SOL    HW2  775   0.426   1.448   0.924  0.8517 -0.1432  1.1669
  194SOL     MW  776   0.510   1.440   0.922  0.3141  0.1453 -0.4023
  195SOL     OW  777   1.308   1.152   2.982  0.3582  0.4412 -0.1914
  195SOL    HW1  778   1.364   1.167   3.057 -1.6151  2.1174  1.6747
  195SOL    HW2  779   1.251   1.081   3.003  1.7873  1.0929  2.5038
  195SOL     MW  780   1.308   1.144   2.995  0.2864  0.7484  0.4104
  196SOL     OW  781   2.210   1.036   0.610 -0.1604  0.5245  0.4681
  196SOL    HW1  782   2.184   0.988   0.530  1.8185  2.9233  1.7266
  196SOL    HW2  783   2.194   1.134   0.594 -1.1757  1.9045  1.6067
  196SOL     MW  784   2.204   1.043   0.598 -0.0332  1.0231  0.7844
  197SOL     OW  785   0.638   1.249   2.103 -0.0655  1.0148  0.4187
  197SOL    HW1  786   0.678   1.161   2.093  0.5509 -2.4431  1.9517
  197SOL    HW2  787   0.610   1.290   2.018 -0.8884  2.7379 -0.9083
  197SOL     MW  788   0.640   1.242   2.090 -0.0927  0.7859  0.4459
  198SOL     OW  789   2.937   1.384   1.090 -0.2826  0.1401  0.1119
  198SOL    HW1  790   2.894   1.463   1.054  0.2305 -0.0433 -3.6196
  198SOL    HW2  791   2.865   1.323   1.092 -0.2900  3.9888  1.5108
  198SOL     MW  792   2.922   1.386   1.086 -0.2159  0.6237 -0.1959
  199SOL     OW  793   0.524   1.409   1.886 -0.5407  0.3223 -0.3222
  199SOL    HW1  794   0.475   1.330   1.874 -2.9453 -0.7250  1.9029
  199SOL    HW2  795   0.481   1.462   1.822  0.9497 -2.8629 -0.0713
  199SOL     MW  796   0.512   1.406   1.876 -0.6613 -0.2362  0.0045
  200SOL     OW  797   1.882   2.981   1.326  0.4738 -0.5291  0.4699
  200SOL    HW1  798   1.911   2.967   1.238 -0.9691  0.4945  0.2932
  200SOL    HW2  799   1.801   3.021   1.310  2.8069 -1.3892 -3.4918
  200SOL     MW  800   1.876   2.984   1.312  0.5912 -0.5075 -0.0761
  201SOL     OW  801   1.048   0.223   0.829  0.2099  0.6053 -0.3057
  201SOL    HW1  802   1.037   0.171   0.748 -1.9703  0.8375 -0.6432
  201SOL    HW2  803   1.141   0.263   0.820  1.1637 -0.2325  0.5247
  201SOL     MW  804   1.059   0.222   0.818  0.0481  0.5254 -0.2407
  202SOL     OW  805   1.507   1.559   0.870 -0.1623 -0.5807 -0.4355
  202SOL    HW1  806   1.467   1.492   0.816 -0.6823  0.1699  1.6762
  202SOL    HW2  807   1.555   1.523   0.945 -1.7963  0.8214  3.4393
  202SOL     MW  808   1.508   1.545   0.873 -0.4465 -0.2967  0.3543
  203SOL     OW  809   3.042   0.417   1.303 -0.2994 -0.4252  0.1049
  203SOL    HW1  810   3.120   0.352   1.323  3.9162  0.1580  1.6218
  203SOL    HW2  811   3.075   0.488   1.358  0.1041  0.3055  0.4897
  203SOL     MW  812   3.057   0.418   1.313  0.3101 -0.2518  0.3558
  204SOL     OW  813   1.044   1.746   0.556 -0.0866  0.0682  0.3620
  204SOL    HW1  814   1.017   1.677   0.619  0.2410 -3.8719  0.6994
  204SOL    HW2  815   0.961   1.757   0.506  0.6857 -1.2187 -3.2819
  204SOL     MW  816   1.030   1.738   0.558  0.0585 -0.6215 -0.0743
  205SOL     OW  817   1.395   0.038   1.368  0.2684 -0.5722  0.2405
  205SOL    HW1  818   1.402   0.007   1.278  0.4946 -1.4603 -0.5833
  205SOL    HW2  819   1.327   0.102   1.379  0.2016 -1.5625  2.0119
  205SOL     MW  820   1.387   0.042   1.358  0.2894 -0.8200  0.3655
  206SOL     OW  821   0.416   3.003   1.430  0.1414 -0.2413  0.4943
  206SOL    HW1  822   0.351   2.989   1.352 -1.1717  0.7296  0.9595
  206SOL    HW2  823   0.468   2.921   1.439  2.3134  1.6783 -1.0666
  206SOL     MW  824   0.414   2.990   1.421  0.2547  0.1401  0.3497
  207SOL     OW  825   0.908   1.565   0.194 -0.0763 -0.2649  0.6146
  207SOL    HW1  826   0.918   1.660   0.172  0.5412 -0.7174 -1.6055
  207SOL    HW2  827   0.967   1.554   0.273  0.7263 -1.0435  0.2506
  207SOL     MW  828   0.917   1.576   0.202  0.1111 -0.4274  0.2736
  208SOL     OW  829   0.702   1.649   1.361  0.5548 -0.6386 -0.2261
  208SOL    HW1  830   0.761   1.670   1.434  1.2269 -2.1241  0.0873
  208SOL    HW2  831   0.715   1.562   1.333 -0.8717  0.3547  0.9196
  208SOL     MW  832   0.711   1.640   1.367  0.4552 -0.7035 -0.0336
  209SOL     OW  833   1.541   0.496   2.994  0.1747 -0.0928 -0.1516
  209SOL    HW1  834   1.554   0.578   3.043 -1.3123  3.3568 -1.6251
  209SOL    HW2  835   1.619   0.468   2.945  0.8068 -2.8881 -1.9267
  209SOL     MW  836   1.553   0.503   2.994  0.0619 -0.0064 -0.5802
  210SOL     OW  837   1.531   1.278   0.776 -0.2987  0.2302 -0.1744
  210SOL    HW1  838   1.621   1.295   0.752 -2.4000  1.3479 -0.7652
  210SOL    HW2  839   1.480   1.304   0.695  1.0974  2.4107 -1.5762
  210SOL     MW  840   1.536   1.284   0.762 -0.3917  0.6653 -0.4373
  211SOL     OW  841   1.694   0.297   0.919  0.3508 -0.6210 -0.0693
  211SOL    HW1  842   1.662   0.343   0.838  1.8900 -0.4376 -1.1176
  211SOL    HW2  843   1.769   0.339   0.962  0.0679  0.3212  1.7708
  211SOL     MW  844   1.700   0.309   0.914  0.5166 -0.4725  0.0351
  212SOL     OW  845   0.290   1.028   0.146  0.5179 -0.5058  0.1690
  212SOL    HW1  846   0.229   1.011   0.214  0.0877  0.6631  0.4028
  212SOL    HW2  847   0.308   0.944   0.103 -1.7161 -0.7807  2.3058
  212SOL     MW  848   0.285   1.015   0.149  0.1664 -0.3879  0.4818
  213SOL     OW  849   0.541   1.688   3.061  0.4118 -0.1758  0.3567
  213SOL    HW1  850   0.535   1.733   3.140  0.2049 -1.7314 -0.8719
  213SOL    HW2  851   0.570   1.760   3.003 -1.8673  1.1354 -0.3903
  213SOL     MW  852   0.544   1.704   3.064  0.0838 -0.2080  0.0960
  214SOL     OW  853   0.632   0.308   2.173  0.0706  0.1965 -0.5261
  214SOL    HW1  854   0.563   0.372   2.189  2.8507 -0.5272 -1.3395
  214SOL    HW2  855   0.681   0.361   2.112  1.1341  3.1702  1.2367
  214SOL     MW  856   0.629   0.323   2.167  0.5777  0.4934 -0.4008
  215SOL     OW  857   0.504   0.719   2.653  0.0289 -0.0339 -0.1502
  215SOL    HW1  858   0.499   0.682   2.559  1.3319  1.1175 -2.6640
  215SOL    HW2  859   0.451   0.670   2.716 -0.5102  3.9766  3.3092
  215SOL     MW  860   0.497   0.707   2.649  0.1297  0.6472 -0.0254
  216SOL     OW  861   2.911   3.021   2.652 -0.3150 -0.8587 -0.0591
  216SOL    HW1  862   2.852   3.011   2.725  1.1883 -0.2427 -0.2560
  216SOL    HW2  863   2.938   3.114   2.664  2.6273  0.0074 -7.9365
  216SOL     MW  864   2.906   3.032   2.663  0.2716 -0.6631 -1.1244
  217SOL     OW  865   1.005   1.083   0.120  0.4981 -0.1430  0.5611
  217SOL    HW1  866   1.058   1.031   0.065 -1.8645 -2.4700 -0.8321
  217SOL    HW2  867   1.035   1.173   0.099  2.2745  0.7081  1.1229
  217SOL     MW  868   1.016   1.088   0.110  0.4208 -0.3377  0.4514
  218SOL     OW  869   0.959   1.306   2.559 -0.4023 -0.1216  0.1709
  218SOL    HW1  870   0.972   1.252   2.640 -0.0051  2.3284  0.7460
  218SOL    HW2  871   1.021   1.380   2.572  1.4145 -0.0430 -3.1466
  218SOL     MW  872   0.969   1.308   2.571 -0.1101  0.2120 -0.1909
  219SOL     OW  873   1.136   0.416   2.643  0.1102 -0.5019  0.3263
  219SOL    HW1  874   1.199   0.476   2.680 -1.3303 -1.8654 -0.0100
  219SOL    HW2  875   1.063   0.464   2.598 -0.6398 -1.8056 -1.9258
  219SOL     MW  876   1.134   0.430   2.642 -0.1788 -0.8538 -0.0152
  220SOL     OW  877   1.775   0.487   2.220  0.2868 -0.3897 -0.2115
  220SOL    HW1  878   1.685   0.483   2.185 -3.3367 -2.1687 -1.4361
  220SOL    HW2  879   1.822   0.427   2.160 -0.3108 -0.8812  1.6035
  220SOL     MW  880   1.770   0.479   2.208 -0.2701 -0.6892 -0.1336
  221SOL     OW  881   0.390   1.311   2.971 -0.0007 -0.1631 -0.2199
  221SOL    HW1  882   0.459   1.260   2.922 -2.0010  0.5326 -1.8512
  221SOL    HW2  883   0.437   1.393   2.991 -2.5785  1.2873  0.8170
  221SOL     MW  884   0.405   1.315   2.967 -0.6048  0.1201 -0.2983
  222SOL     OW  885   0.345   0.953   2.681 -0.2144  0.3872  0.2786
  222SOL    HW1  886   0.319   1.000   2.601 -0.2075  2.2954 -0.4068
  222SOL    HW2  887   0.387   0.872   2.654 -0.2959  0.5168 -1.4358
  222SOL     MW  888   0.347   0.949   2.667 -0.2242  0.6561 -0.0380
  223SOL     OW  889   0.020   2.020   2.514  0.1928  0.0976  0.2269
  223SOL    HW1  890   0.069   1.982   2.587 -0.6514 -1.0088 -0.4113
  223SOL    HW2  891   0.074   2.096   2.493  3.1347 -1.5993 -2.9659
  223SOL     MW  892   0.034   2.025   2.521  0.4696 -0.2722 -0.2785
  224SOL     OW  893   1.502   0.743   2.593  0.2930 -0.7502  0.2161
  224SOL    HW1  894   1.517   0.781   2.684 -0.1743 -0.7193  2.2023
  224SOL    HW2  895   1.484   0.818   2.536 -3.0576  0.4387 -2.1661
  224SOL     MW  896   1.502   0.758   2.598 -0.2107 -0.5893  0.1639
  225SOL     OW  897   2.904   1.431   2.273 -0.5002 -0.5090  0.3706
  225SOL    HW1  898   2.956   1.492   2.226 -1.9242 -3.4132  0.8002
  225SOL    HW2  899   2.851   1.485   2.335  1.6662  0.9755  0.1574
  225SOL     MW  900   2.904   1.446   2.275 -0.4022 -0.6963  0.3992
  226SOL     OW  901   0.456   1.495   2.712  0.1552  0.1731  0.3271
  226SOL    HW1  902   0.539   1.480   2.668 -0.0794  1.1098  0.6191
  226SOL    HW2  903   0.440   1.587   2.680 -1.4371  2.9299  1.2181
  226SOL     MW  904   0.465   1.505   2.702 -0.0858  0.6604  0.4832
  227SOL     OW  905   0.534   1.128   2.837  0.6043 -0.0062 -0.0241
  227SOL    HW1  906   0.625   1.103   2.812 -0.3412 -1.7068  0.5486
  227SOL    HW2  907   0.472   1.097   2.768  1.1285  0.6433 -0.1811
  227SOL     MW  908   0.538   1.120   2.825  0.5487 -0.1449  0.0307
  228SOL     OW  909   0.745   0.961   2.029  0.3107  0.5227 -0.3964
  228SOL    HW1  910   0.832   0.983   1.999  0.7554 -2.7894  0.4838
  228SOL    HW2  911   0.754   0.931   2.118  0.6570  0.8997  1.2723
  228SOL     MW  912   0.758   0.960   2.037  0.4151  0.1354 -0.0601
  229SOL     OW  913   0.176   0.619   3.090  0.1074  0.0010 -0.3506
  229SOL    HW1  914   0.108   0.600   3.024  0.5195  2.1461 -0.1313
  229SOL    HW2  915   0.194   0.542   3.144 -0.1761  1.3218 -0.3472
  229SOL     MW  916   0.170   0.607   3.088  0.1244  0.4583 -0.3212
  230SOL     OW  917   1.678   1.330   2.045 -0.3356 -0.7480 -0.4644
  230SOL    HW1  918   1.616   1.299   2.114  0.5344 -1.6019  0.0618
  230SOL    HW2  919   1.744   1.260   2.039  0.0644 -1.2343  0.7950
  230SOL     MW  920   1.679   1.317   2.053 -0.1680 -0.9248 -0.2288
  231SOL     OW  921   2.709   1.255   2.221  0.3071  0.0352  0.2959
  231SOL    HW1  922   2.785   1.328   2.245 -1.8282 -1.3814  1.3197
  231SOL    HW2  923   2.665   1.271   2.131 -1.3955  1.1176  0.4614
  231SOL     MW  924   2.713   1.266   2.213 -0.1993 -0.0089  0.4528
  232SOL     OW  925   2.237   0.837   2.014 -0.6899  0.6912  0.1863
  232SOL    HW1  926   2.172   0.877   1.954 -1.6628 -0.2256 -0.1086
  232SOL    HW2  927   2.221   0.883   2.100 -2.1997  2.8926  2.4325
  232SOL     MW  928   2.226   0.848   2.017 -1.0175  0.8607  0.4437
  233SOL     OW  929   2.058   0.437   2.057  0.4243 -0.5048  0.0985
  233SOL    HW1  930   2.124   0.385   2.006 -1.6512  0.5592 -1.8155
  233SOL    HW2  931   2.095   0.493   2.127  0.2566 -1.7911  1.2456
  233SOL     MW  932   2.072   0.437   2.060  0.1284 -0.5342 -0.0027
  234SOL     OW  933   0.233   1.064   2.428 -0.9845 -0.1407  0.7181
  234SOL    HW1  934   0.149   1.061   2.468  0.4018 -0.0420 -0.7097
  234SOL    HW2  935   0.254   1.156   2.428  0.2956 -1.1748  1.1174
  234SOL     MW  936   0.225   1.076   2.434 -0.6327 -0.2641  0.5824
  235SOL     OW  937   1.118   3.068   2.720 -0.1559 -0.1807 -0.1321
  235SOL    HW1  938   1.162   3.019   2.789 -0.2064  1.8739 -0.3282
  235SOL    HW2  939   1.068   3.130   2.772 -0.2666 -0.1191  0.0934
  235SOL     MW  940   1.117   3.070   2.736 -0.1772  0.0985 -0.1282
  236SOL     OW  941   2.941   0.542   0.137 -0.2158 -0.2846  0.6003
  236SOL    HW1  942   2.856   0.556   0.104  0.5507  0.1080  0.4182
  236SOL    HW2  943   2.979   0.630   0.124 -1.2473 -1.6518 -0.7154
  236SOL     MW  944   2.935   0.556   0.131 -0.2508 -0.4132  0.4027
  237SOL     OW  945   1.997   1.114   2.180 -0.1636  0.0583 -0.5451
  237SOL    HW1  946   1.960   1.068   2.103 -1.1199 -0.4093  0.5347
  237SOL    HW2  947   2.046   1.043   2.227  0.8284 -2.4432 -0.1145
  237SOL     MW  948   1.999   1.099   2.176 -0.1589 -0.3335 -0.3458
  238SOL     OW  949   1.079   1.836   2.992  0.2357 -0.4218 -1.0753
  238SOL    HW1  950   1.042   1.758   2.951  1.6542 -0.0112  0.4802
  238SOL    HW2  951   1.171   1.813   2.991 -2.4734 -1.4957 -1.9501
  238SOL     MW  952   1.086   1.823   2.987  0.0654 -0.5093 -0.9855
  239SOL     OW  953   1.283   1.380   2.391  0.3598  0.0659  0.0433
  239SOL    HW1  954   1.206   1.418   2.438 -0.2468  2.0697 -0.5410
  239SOL    HW2  955   1.304   1.299   2.431  2.3475  0.1881 -2.2002
  239SOL     MW  956   1.276   1.374   2.403  0.5420  0.3464 -0.3298
  240SOL     OW  957   0.697   0.845   2.303 -0.8694  0.5050  0.8413
  240SOL    HW1  958   0.740   0.907   2.357 -0.7283  2.3239 -0.5149
  240SOL    HW2  959   0.769   0.802   2.255 -2.3289  0.9211 -0.0042
  240SOL     MW  960   0.712   0.847   2.304 -1.0434  0.7999  0.5508
  241SOL     OW  961   0.674   0.398   0.034  0.1561  0.3816 -0.1423
  241SOL    HW1  962   0.682   0.456   0.109  1.4898  0.8284 -1.8505
  241SOL    HW2  963   0.611   0.439  -0.029 -0.1271 -0.6265  2.5258
  241SOL     MW  964   0.667   0.411   0.035  0.2947  0.3075 -0.0156
  242SOL     OW  965   1.512   1.710   2.337 -0.2841  0.3507 -0.1736
  242SOL    HW1  966   1.492   1.803   2.360  1.3667  0.8137 -0.3137
  242SOL    HW2  967   1.444   1.669   2.281 -0.8662 -1.5407 -1.0383
  242SOL     MW  968   1.501   1.717   2.332 -0.1431  0.1623 -0.3062
  243SOL     OW  969   1.043   0.203   2.507 -0.1458 -0.6908 -0.3149
  243SOL    HW1  970   1.113   0.175   2.445 -0.4762 -1.7251  0.7576
  243SOL    HW2  971   1.075   0.268   2.566 -1.4667  0.2603  0.0402
  243SOL     MW  972   1.057   0.208   2.506 -0.3637 -0.7018 -0.1266
  244SOL     OW  973   0.257   0.771   2.425 -0.3620 -0.2512 -0.3920
  244SOL    HW1  974   0.243   0.864   2.402 -2.4168  0.2489 -0.5180
  244SOL    HW2  975   0.348   0.755   2.398 -0.1930 -0.4146  0.2898
  244SOL     MW  976   0.267   0.782   2.419 -0.6108 -0.2067 -0.3187
  245SOL     OW  977   1.265   0.201   2.311  0.1884 -0.1906  0.1275
  245SOL    HW1  978   1.329   0.138   2.344  1.4306 -1.8824  0.1076
  245SOL    HW2  979   1.285   0.280   2.360  1.5841  1.6209  1.3815
  245SOL     MW  980   1.276   0.203   2.322  0.5364 -0.1748  0.2903
  246SOL     OW  981   1.245   1.188   2.115  0.2583 -0.6231 -0.7393
  246SOL    HW1  982   1.202   1.139   2.194 -0.8401  0.6502  1.3195
  246SOL    HW2  983   1.331   1.219   2.143  4.7074 -0.1343 -2.1517
  246SOL     MW  984   1.251   1.185   2.129  0.7004 -0.3906 -0.6540
  247SOL     OW  985   0.752   0.579   0.210 -0.8888  0.2742 -0.0951
  247SOL    HW1  986   0.732   0.670   0.217 -0.9249 -1.3347  2.6995
  247SOL    HW2  987   0.837   0.571   0.159  0.8097 -0.6424  0.9900
  247SOL     MW  988   0.760   0.590   0.204 -0.6694 -0.0590  0.4168
  248SOL     OW  989   0.319   1.352   2.524 -0.2038 -0.5590  0.4993
  248SOL    HW1  990   0.384   1.354   2.451 -1.1633  0.4377  0.4891
  248SOL    HW2  991   0.367   1.378   2.608 -1.1663 -0.7717  1.4905
  248SOL     MW  992   0.334   1.356   2.526 -0.4574 -0.4555  0.6287
  249SOL     OW  993   0.179   1.897   2.738 -0.1263 -0.4851  0.0919
  249SOL    HW1  994   0.144   1.813   2.705  2.4180  0.5568  2.7369
  249SOL    HW2  995   0.202   1.877   2.830 -1.1269 -0.9049 -2.6187
  249SOL     MW  996   0.178   1.883   2.746  0.0774 -0.4030  0.0832
  250SOL     OW  997   2.191   0.927   2.266  0.4485  0.4496 -0.3679
  250SOL    HW1  998   2.213   0.830   2.278  0.4958  3.3456  1.4548
  250SOL    HW2  999   2.273   0.964   2.305 -1.6076  2.6729  3.4072
  250SOL     MW 1000   2.204   0.919   2.273  0.1835  1.1251  0.3706
  251SOL     OW 1001   0.145   0.885   1.977  0.3770  1.0496 -0.0740
  251SOL    HW1 1002   0.125   0.818   2.043 -3.3609 -1.6529  1.6022
  251SOL    HW2 1003   0.155   0.840   1.899 -1.2757  1.9212 -0.5050
  251SOL     MW 1004   0.144   0.871   1.975 -0.3343  0.8081  0.0903
  252SOL     OW 1005   1.729   0.988   2.849  0.2412  0.1007 -0.0965
  252SOL    HW1 1006   1.751   1.036   2.927 -0.2973  0.6477  0.1228
  252SOL    HW2 1007   1.804   1.008   2.790  1.7949  0.5574  0.8744
  252SOL     MW 1008   1.742   0.997   2.851  0.3751  0.2331  0.0605
  253SOL     OW 1009   1.181   1.772   2.553 -0.2709  0.4934 -0.5453
  253SOL    HW1 1010   1.171   1.760   2.454  0.6470 -0.4279  1.0965
  253SOL    HW2 1011   1.123   1.842   2.579  1.0088 -1.0627  0.0534
  253SOL     MW 1012   1.172   1.779   2.543  0.0190  0.1665 -0.2497
  254SOL     OW 1013   1.068   1.020   2.240 -0.2632 -0.1966 -0.0597
  254SOL    HW1 1014   1.031   0.935   2.263  1.3162 -0.3712  3.6048
  254SOL    HW2 1015   1.000   1.089   2.266 -1.9583  2.2235  2.7446
  254SOL     MW 1016   1.054   1.018   2.247 -0.2784  0.0997  0.7938
  255SOL     OW 1017   0.780   2.574   2.142  0.1055 -0.1586 -0.6606
  255SOL    HW1 1018   0.695   2.537   2.168 -0.0975 -1.0868 -2.7652
  255SOL    HW2 1019   0.849   2.512   2.164  0.1560  0.7316 -3.2953
  255SOL     MW 1020   0.778   2.561   2.149  0.0854 -0.1636 -1.2859
  256SOL     OW 1021   1.356   2.681   2.959  0.1963 -0.0296 -0.1412
  256SOL    HW1 1022   1.347   2.606   2.905  0.2436  0.5543  3.8296
  256SOL    HW2 1023   1.430   2.726   2.919 -0.4846  1.1148  2.0938
  256SOL     MW 1024   1.364   2.677   2.947  0.1127  0.1984  0.6776
  257SOL     OW 1025   0.157   1.883   0.068  0.7086  0.1553 -0.5494
  257SOL    HW1 1026   0.184   1.853   0.158  0.8613  1.6224 -0.3981
  257SOL    HW2 1027   0.212   1.832   0.011  0.0381 -1.3419  0.8605
  257SOL     MW 1028   0.168   1.872   0.072  0.6403  0.1513 -0.3434
  258SOL     OW 1029   0.796   1.041   2.460  0.8311 -0.2853  0.5722
  258SOL    HW1 1030   0.803   1.120   2.396  0.5263 -0.5346 -0.5148
  258SOL    HW2 1031   0.778   1.090   2.540 -2.7377  1.7933 -0.9790
  258SOL     MW 1032   0.794   1.058   2.462  0.3200 -0.0439  0.2241
  259SOL     OW 1033   0.841   0.390   2.364 -0.3284  0.2284 -0.4586
  259SOL    HW1 1034   0.745   0.394   2.348  1.0687 -1.3690 -1.5319
  259SOL    HW2 1035   0.868   0.314   2.418  4.9867  0.2682 -1.1998
  259SOL     MW 1036   0.832   0.380   2.369  0.5572  0.0229 -0.6980
  260SOL     OW 1037   0.511   0.136   1.567 -0.3232 -0.1729  0.3748
  260SOL    HW1 1038   0.483   0.089   1.489  0.9678 -0.9625  0.2958
  260SOL    HW2 1039   0.612   0.136   1.564  2.3539 -0.3739  0.3622
  260SOL     MW 1040   0.521   0.130   1.557  0.2003 -0.3036  0.3627
  261SOL     OW 1041   1.139   0.732   2.021 -0.1093 -0.4218  0.5141
  261SOL    HW1 1042   1.145   0.746   2.113 -0.5453  0.9973  0.8563
  261SOL    HW2 1043   1.205   0.666   1.991  1.4016 -1.4017 -3.1625
  261SOL     MW 1044   1.148   0.725   2.029  0.0325 -0.3638  0.0741
  262SOL     OW 1045   1.027   0.306   0.147  0.1065  0.0791  0.0148
  262SOL    HW1 1046   1.120   0.281   0.133  1.1137 -0.3746  3.0055
  262SOL    HW2 1047   0.982   0.222   0.118  1.1504 -0.4678 -0.7088
  262SOL     MW 1048   1.033   0.292   0.141  0.3771 -0.0529  0.3140
  263SOL     OW 1049   0.400   0.020   2.454  0.0793 -0.0877 -0.5610
  263SOL    HW1 1050   0.316   0.067   2.433 -1.4093  0.1183  0.6726
  263SOL    HW2 1051   0.468   0.047   2.392 -0.6938  1.4313 -1.7495
  263SOL     MW 1052   0.398   0.029   2.443 -0.2191  0.1399 -0.5550
  264SOL     OW 1053   1.462   1.364   1.841 -0.2761  0.0621 -0.0075
  264SOL    HW1 1054   1.386   1.318   1.875  0.0457 -0.5053 -1.6069
  264SOL    HW2 1055   1.543   1.331   1.888  2.0002 -0.4702 -0.3194
  264SOL     MW 1056   1.463   1.353   1.852  0.0667 -0.0830 -0.2597
  265SOL     OW 1057   0.737   2.809   2.275  0.6328  0.6773 -0.2799
  265SOL    HW1 1058   0.759   2.730   2.225 -0.9984 -1.0769  1.6602
  265SOL    HW2 1059   0.745   2.785   2.366  0.7511 -2.7071  0.7237
  265SOL     MW 1060   0.741   2.795   2.280  0.4332 -0.0007  0.1085
  266SOL     OW 1061   0.951   0.761   2.207 -0.3649  0.0803 -0.2379
  266SOL    HW1 1062   0.933   0.748   2.115 -1.5298  1.0088  2.7261
  266SOL    HW2 1063   0.995   0.683   2.236  1.7503 -0.2399 -2.3650
  266SOL     MW 1064   0.954   0.749   2.198 -0.2395  0.1606 -0.1275
  267SOL     OW 1065   1.430   1.784   2.736 -0.2436  0.3812 -0.4750
  267SOL    HW1 1066   1.481   1.716   2.692  1.1150  0.2860  1.8847
  267SOL    HW2 1067   1.383   1.818   2.662 -1.6033 -1.5823 -3.8582
  267SOL     MW 1068   1.430   1.779   2.720 -0.2437  0.1095 -0.6100
  268SOL     OW 1069   0.193   0.829   1.662 -0.0812 -0.2008 -0.0459
  268SOL    HW1 1070   0.156   0.895   1.604 -0.6730  0.1698  0.7985
  268SOL    HW2 1071   0.166   0.757   1.610 -0.8699 -0.0460  1.2678
  268SOL     MW 1072   0.185   0.829   1.647 -0.2633 -0.1315  0.2389
  269SOL     OW 1073   1.419   1.969   2.379 -0.0999  0.6956  0.3338
  269SOL    HW1 1074   1.463   2.054   2.384 -0.5501 -0.1727  1.4836
  269SOL    HW2 1075   1.339   1.986   2.425 -3.4480 -2.6710  2.1688
  269SOL     MW 1076   1.414   1.983   2.385 -0.6010  0.1369  0.7276
  270SOL     OW 1077   1.121   0.429   1.632  0.2552  0.1968 -0.5537
  270SOL    HW1 1078   1.071   0.350   1.641  0.6651 -2.0083 -1.1773
  270SOL    HW2 1079   1.210   0.399   1.628  0.6645 -0.1929  0.6160
  270SOL     MW 1080   1.126   0.415   1.633  0.3633 -0.1455 -0.4816
  271SOL     OW 1081   0.849   0.007   2.562  0.1906  0.0556  0.5047
  271SOL    HW1 1082   0.881  -0.062   2.619  1.1602 -2.5314 -0.2248
  271SOL    HW2 1083   0.915   0.073   2.556  0.1015 -0.8264 -1.1155
  271SOL     MW 1084   0.862   0.007   2.569  0.3068 -0.4021  0.1947
  272SOL     OW 1085   1.468   2.858   2.782  0.3453 -0.2479 -0.9369
  272SOL    HW1 1086   1.428   2.846   2.695  1.4774 -2.8545 -3.6105
  272SOL    HW2 1087   1.508   2.944   2.782 -0.8560  3.4945 -0.6621
  272SOL     MW 1088   1.468   2.868   2.770  0.3362 -0.0981 -1.2534
  273SOL     OW 1089   1.466   0.969   2.805  0.5756 -0.1801 -0.1649
  273SOL    HW1 1090   1.558   0.992   2.813 -2.3406 -1.5947 -2.6197
  273SOL    HW2 1091   1.421   1.027   2.864  0.2859  1.1312 -1.3517
  273SOL     MW 1092   1.472   0.979   2.814  0.1526 -0.1937 -0.6454
  274SOL     OW 1093   1.460   0.702   0.100  0.3424 -0.6437 -0.1579
  274SOL    HW1 1094   1.496   0.635   0.159  0.5706  1.7982  2.1327
  274SOL    HW2 1095   1.365   0.704   0.142  0.0573  1.9387 -0.4631
  274SOL     MW 1096   1.452   0.693   0.113  0.3349  0.0192  0.1041
  275SOL     OW 1097   1.704   0.574   1.757 -0.2894  0.0022  0.6579
  275SOL    HW1 1098   1.782   0.597   1.809  1.3298  1.8711 -1.6816
  275SOL    HW2 1099   1.708   0.477   1.761 -0.1064 -1.8317  1.1675
  275SOL     MW 1100   1.715   0.564   1.765 -0.0516  0.0068  0.4165
  276SOL     OW 1101   0.323   1.221   1.905 -0.2885  0.4524 -0.4105
  276SOL    HW1 1102   0.366   1.137   1.935 -0.2045 -0.5842  2.6019
  276SOL    HW2 1103   0.237   1.222   1.940  0.5037 -1.3539  2.1866
  276SOL     MW 1104   0.318   1.210   1.914 -0.1729  0.0773  0.3296
  277SOL     OW 1105   1.916   1.235   2.409  0.1337 -0.4246  0.5951
  277SOL    HW1 1106   1.978   1.307   2.431 -0.0354 -2.2086  1.2098
  277SOL    HW2 1107   1.928   1.224   2.312  0.3474 -2.3235  0.3944
  277SOL     MW 1108   1.926   1.243   2.399  0.1396 -0.9105  0.6497
  278SOL     OW 1109   1.429   0.609   1.710 -0.6111  0.6761 -0.3312
  278SOL    HW1 1110   1.364   0.580   1.780 -1.0692  0.7391 -1.7600
  278SOL    HW2 1111   1.516   0.614   1.745 -0.6910  1.0465  1.7041
  278SOL     MW 1112   1.432   0.606   1.724 -0.6820  0.7333 -0.2512
  279SOL     OW 1113   0.600   0.054   2.260 -0.4266  0.9058 -0.2715
  279SOL    HW1 1114   0.684   0.009   2.275  0.2194 -0.7455  1.3900
  279SOL    HW2 1115   0.619   0.145   2.250 -2.0681 -0.1966  0.2692
  279SOL     MW 1116   0.614   0.060   2.261 -0.5580  0.5425  0.0191
  280SOL     OW 1117   1.506   0.984   2.143  0.0616  0.0283 -0.6005
  280SOL    HW1 1118   1.540   0.920   2.084  1.2799  1.4284 -1.1574
  280SOL    HW2 1119   1.490   0.940   2.232  2.3202  2.2954 -0.3228
  280SOL     MW 1120   1.509   0.970   2.147  0.5204  0.5122 -0.6373
  281SOL     OW 1121   1.317   1.351   2.785  0.4941 -0.1560 -0.1051
  281SOL    HW1 1122   1.408   1.349   2.756 -1.3865 -1.7550  4.1055
  281SOL    HW2 1123   1.314   1.294   2.858 -1.0192  0.9414 -0.4427
  281SOL     MW 1124   1.329   1.344   2.791  0.0463 -0.2222  0.4059
  282SOL     OW 1125   1.113   1.286   1.681 -0.2754  0.4571  0.0104
  282SOL    HW1 1126   1.109   1.369   1.629 -0.6265 -0.5834 -2.8432
  282SOL    HW2 1127   1.096   1.324   1.768 -1.5752 -2.2747 -0.5547
  282SOL     MW 1128   1.110   1.302   1.686 -0.4932 -0.0406 -0.4407
  283SOL     OW 1129   0.819   1.214   2.988 -0.3581  0.3411 -0.2400
  283SOL    HW1 1130   0.859   1.156   3.058 -1.0956 -1.8232 -0.0902
  283SOL    HW2 1131   0.788   1.299   3.025  0.1743  2.6343 -0.4378
  283SOL     MW 1132   0.820   1.217   3.002 -0.3852  0.3581 -0.2464
  284SOL     OW 1133   0.501   0.667   2.384 -0.1488  0.3365 -0.3452
  284SOL    HW1 1134   0.577   0.724   2.348  0.6227 -1.8661  1.9224
  284SOL    HW2 1135   0.490   0.600   2.319  1.4086 -0.9117 -1.0224
  284SOL     MW 1136   0.509   0.665   2.371  0.1585 -0.1188 -0.1354
  285SOL     OW 1137   0.962   0.885   2.816  0.4539 -1.0239  0.0061
  285SOL    HW1 1138   1.002   0.899   2.730 -2.4077 -0.7154 -1.3175
  285SOL    HW2 1139   0.892   0.818   2.795  2.3632 -1.1635  0.6553
  285SOL     MW 1140   0.958   0.878   2.802  0.3283 -1.0016 -0.0829
  286SOL     OW 1141   1.145   1.503   2.575 -0.4442  0.1342  0.4868
  286SOL    HW1 1142   1.203   1.463   2.635 -3.5773  1.2975  2.9372
  286SOL    HW2 1143   1.165   1.598   2.578 -2.0090 -3.3316  2.4403
  286SOL     MW 1144   1.155   1.510   2.583 -1.0640 -0.1696  1.0679
  287SOL     OW 1145   1.135   0.928   0.333 -0.2483 -0.4309 -0.0522
  287SOL    HW1 1146   1.171   0.979   0.403  1.5408  0.8383 -3.6141
  287SOL    HW2 1147   1.077   0.981   0.277 -0.0647  0.6466  0.9093
  287SOL     MW 1148   1.132   0.941   0.335  0.0120 -0.1213 -0.3953
  288SOL     OW 1149   1.533   0.582   2.107  0.2662 -0.4804 -0.2338
  288SOL    HW1 1150   1.543   0.614   2.197 -2.3282 -0.6274  2.5964
  288SOL    HW2 1151   1.572   0.650   2.055 -1.2034 -0.5529  0.3975
  288SOL     MW 1152   1.539   0.595   2.112 -0.2700 -0.5094  0.2229
  289SOL     OW 1153   1.058   1.027   2.582 -0.1106 -0.6129  0.0223
  289SOL    HW1 1154   1.078   0.942   2.548 -4.1712 -0.5770  2.5356
  289SOL    HW2 1155   0.976   1.051   2.536 -1.5110 -0.5299 -1.4262
  289SOL     MW 1156   1.050   1.019   2.571 -0.8311 -0.5972  0.1628
  290SOL     OW 1157   0.840   0.632   1.593  0.1043 -0.0982  0.2310
  290SOL    HW1 1158   0.880   0.588   1.519  1.1088  0.1640  0.8571
  290SOL    HW2 1159   0.916   0.638   1.655 -0.0725  0.9291 -1.0749
  290SOL     MW 1160   0.855   0.627   1.591  0.2135  0.0719  0.1413
  291SOL     OW 1161   0.217   0.373   0.095 -0.2036 -0.2853 -0.2689
  291SOL    HW1 1162   0.289   0.307   0.113 -3.3191 -2.8700  2.2158
  291SOL    HW2 1163   0.182   0.348   0.007  0.7572 -0.6969 -1.6553
  291SOL     MW 1164   0.222   0.361   0.085 -0.4879 -0.6806 -0.1240
  292SOL     OW 1165   1.003   0.580   0.094  0.0734 -0.5704 -0.6127
  292SOL    HW1 1166   1.077   0.619   0.129 -1.4844 -0.9542 -1.6248
  292SOL    HW2 1167   1.016   0.489   0.125  1.4777  0.5602 -0.2430
  292SOL     MW 1168   1.014   0.573   0.103  0.0531 -0.4718 -0.6975
  293SOL     OW 1169   0.151   0.145   2.403  0.0402  0.4192 -0.4230
  293SOL    HW1 1170   0.091   0.082   2.360  1.2659  0.3636 -0.7545
  293SOL    HW2 1171   0.091   0.183   2.468  0.8197 -2.3785  0.5909
  293SOL     MW 1172   0.135   0.142   2.406  0.3048  0.0428 -0.3329
  294SOL     OW 1173   1.469   0.618   2.361 -0.3426 -1.0003 -0.3136
  294SOL    HW1 1174   1.488   0.656   2.451  0.4536 -0.7824  2.8182
  294SOL    HW2 1175   1.457   0.532   2.392  1.3419 -0.1610  3.3198
  294SOL     MW 1176   1.469   0.612   2.377 -0.0153 -0.8608  0.5790
  295SOL     OW 1177   0.947   0.565   2.532 -0.3615 -0.1861  0.3646
  295SOL    HW1 1178   0.904   0.500   2.481 -1.0976 -1.5640  1.3709
  295SOL    HW2 1179   0.881   0.600   2.582  1.6657  0.8826 -1.5502
  295SOL     MW 1180   0.933   0.561   2.532 -0.1912 -0.2269  0.2447
  296SOL     OW 1181   1.321   0.262   2.038 -0.2819  0.3062 -0.2556
  296SOL    HW1 1182   1.409   0.220   2.034  0.9096  0.4154  0.9459
  296SOL    HW2 1183   1.294   0.246   2.135 -0.1891  3.1564 -0.2250
  296SOL     MW 1184   1.329   0.255   2.050 -0.1124  0.6967 -0.0930
  297SOL     OW 1185   1.383   0.371   1.610 -0.4682  0.4730 -0.6553
  297SOL    HW1 1186   1.420   0.445   1.659  1.6544  0.1007  1.4647
  297SOL    HW2 1187   1.431   0.294   1.630  0.2876  2.8480 -0.8677
  297SOL     MW 1188   1.394   0.371   1.619 -0.0885  0.7372 -0.4036
  298SOL     OW 1189   1.636   0.811   1.982 -0.2225  0.6228 -0.1020
  298SOL    HW1 1190   1.676   0.888   1.946 -0.9068  1.5099 -1.1305
  298SOL    HW2 1191   1.706   0.800   2.051 -1.4503 -1.2763  1.4186
  298SOL     MW 1192   1.650   0.820   1.986 -0.4748  0.4893 -0.0370
  299SOL     OW 1193   0.576   1.068   0.068  0.1744 -0.3302  0.4895
  299SOL    HW1 1194   0.597   1.095  -0.023 -0.5080  1.1483 -2.8139
  299SOL    HW2 1195   0.500   1.017   0.048 -0.2729  1.9670 -0.8121
  299SOL     MW 1196   0.569   1.065   0.053  0.0253  0.1680 -0.1181
  300SOL     OW 1197   1.299   1.146   2.527  0.4487  0.3704 -0.0954
  300SOL    HW1 1198   1.216   1.099   2.519 -0.1159  0.3130  1.0870
  300SOL    HW2 1199   1.291   1.188   2.610 -2.6195  2.2824 -0.0813
  300SOL     MW 1200   1.287   1.145   2.537 -0.0306  0.6151  0.0625
  301SOL     OW 1201   1.470   0.909   0.647  0.5809 -0.0679  0.2184
  301SOL    HW1 1202   1.476   0.941   0.741 -0.5713 -5.1656 -0.2051
  301SOL    HW2 1203   1.396   0.853   0.647  0.6115  0.6810  0.0673
  301SOL     MW 1204   1.461   0.906   0.659  0.4329 -0.6417  0.1426
  302SOL     OW 1205   0.122   1.533   2.005  0.1286  0.1225  0.2606
  302SOL    HW1 1206   0.151   1.466   2.074 -1.0367 -1.2611  3.6277
  302SOL    HW2 1207   0.037   1.566   2.048  0.5605  0.2121 -0.4730
  302SOL     MW 1208   0.115   1.529   2.020  0.0319 -0.0483  0.6080
  303SOL     OW 1209   0.419   1.762   2.587  0.7036  0.5517  0.3851
  303SOL    HW1 1210   0.361   1.730   2.516  0.3067  3.2141 -0.0037
  303SOL    HW2 1211   0.353   1.820   2.635  1.0509 -0.0017 -0.6726
  303SOL     MW 1212   0.402   1.765   2.584  0.6971  0.8300  0.1943
  304SOL     OW 1213   0.561   2.078   2.379 -0.4501 -0.1530 -0.0411
  304SOL    HW1 1214   0.625   2.102   2.309 -1.9271 -0.0659  0.6072
  304SOL    HW2 1215   0.599   1.992   2.409 -1.3699 -1.1609  0.9497
  304SOL     MW 1216   0.575   2.070   2.374 -0.7663 -0.2745  0.1752
  305SOL     OW 1217   1.094   0.562   0.465  0.0172 -0.4510  0.3618
  305SOL    HW1 1218   0.995   0.560   0.462 -0.5759 -0.3066 -1.0312
  305SOL    HW2 1219   1.134   0.481   0.501  0.4504  0.7928  0.5010
  305SOL     MW 1220   1.086   0.551   0.470 -0.0039 -0.2678  0.1964
  306SOL     OW 1221   1.169   1.452   0.283  0.3670  0.3903  0.2368
  306SOL    HW1 1222   1.217   1.369   0.307 -3.1496 -0.1244  3.0505
  306SOL    HW2 1223   1.221   1.492   0.211 -1.7346 -0.5992  0.9923
  306SOL     MW 1224   1.182   1.447   0.277 -0.3742  0.1918  0.7077
  307SOL     OW 1225   1.309   0.536   1.946  0.2355  0.1792 -0.3243
  307SOL    HW1 1226   1.295   0.441   1.970 -0.8565 -2.3005 -1.2548
  307SOL    HW2 1227   1.386   0.550   2.007 -1.6876  2.5305  3.6667
  307SOL     MW 1228   1.318   0.526   1.957 -0.1623  0.1623  0.0795
  308SOL     OW 1229   2.155   0.527   2.723  0.1297 -0.5122  0.2483
  308SOL    HW1 1230   2.246   0.521   2.745  2.9661  1.0050  0.6211
  308SOL    HW2 1231   2.147   0.623   2.708 -1.0011 -2.5542 -0.4702
  308SOL     MW 1232   2.166   0.539   2.724  0.3547 -0.5814  0.2027
  309SOL     OW 1233   0.467   0.450   0.350  0.2303  0.4880 -0.2122
  309SOL    HW1 1234   0.548   0.416   0.392  2.0078  1.0665  1.3845
  309SOL    HW2 1235   0.416   0.376   0.321  1.1102 -1.2884  2.6472
  309SOL     MW 1236   0.471   0.436   0.352  0.5809  0.3299  0.3758
  310SOL     OW 1237   0.442   0.656   1.952 -0.2934 -0.0961  0.4887
  310SOL    HW1 1238   0.471   0.573   1.926 -0.5220  3.5418 -0.9739
  310SOL    HW2 1239   0.509   0.717   1.915  0.8080  2.7001 -1.0690
  310SOL     MW 1240   0.455   0.653   1.943 -0.1782  0.7528  0.0902
  311SOL     OW 1241   1.920   0.642   1.915 -0.4199 -0.0518  0.4149
  311SOL    HW1 1242   1.887   0.689   1.997  2.4730  1.1241  0.9629
  311SOL    HW2 1243   1.986   0.579   1.941  0.3751  3.2956 -1.1936
  311SOL     MW 1244   1.925   0.640   1.930  0.0667  0.5450  0.2750
  312SOL     OW 1245   1.811   2.510   0.119  0.6730  0.1359 -0.0782
  312SOL    HW1 1246   1.880   2.503   0.186  0.7628 -0.6637  1.4193
  312SOL    HW2 1247   1.736   2.550   0.167  1.5943 -1.3712 -1.0644
  312SOL     MW 1248   1.810   2.514   0.134  0.8064 -0.1684 -0.0108
  313SOL     OW 1249   0.136   1.069   2.964  0.5090 -0.5036 -0.0221
  313SOL    HW1 1250   0.080   1.118   3.025 -0.2437  0.6854 -1.7661
  313SOL    HW2 1251   0.206   1.134   2.953  0.3034  1.8768 -0.9088
  313SOL     MW 1252   0.138   1.084   2.971  0.3825 -0.0327 -0.3692
  314SOL     OW 1253   2.188   2.962   2.962 -0.0338  0.1356  0.3346
  314SOL    HW1 1254   2.116   3.003   2.919  2.0402  2.3174  3.0385
  314SOL    HW2 1255   2.211   3.036   3.020  1.7669 -0.7686 -1.4250
  314SOL     MW 1256   2.182   2.977   2.964  0.4774  0.3042  0.4592
  315SOL     OW 1257   1.517   1.934   0.018  0.6045 -0.4168 -0.4016
  315SOL    HW1 1258   1.444   1.976   0.069  1.2933 -1.1654  0.0606
  315SOL    HW2 1259   1.527   2.007  -0.050 -2.7578 -0.4808  0.2625
  315SOL     MW 1260   1.509   1.949   0.016  0.2518 -0.5240 -0.2530
  316SOL     OW 1261   1.293   0.649   2.721  0.7993 -0.5478 -0.2054
  316SOL    HW1 1262   1.363   0.682   2.670  0.6596  1.6287 -0.4142
  316SOL    HW2 1263   1.302   0.680   2.810  0.0427  1.7032 -0.2067
  316SOL     MW 1264   1.303   0.657   2.726  0.6811  0.0364 -0.2331
  317SOL     OW 1265   0.697   1.409   2.549 -0.5836 -0.1351 -0.2479
  317SOL    HW1 1266   0.782   1.362   2.569 -0.1736  0.6825  0.2225
  317SOL    HW2 1267   0.719   1.474   2.466  0.0993  2.4247 -0.7147
  317SOL     MW 1268   0.711   1.411   2.541 -0.4394  0.3105 -0.2474
  318SOL     OW 1269   1.316   0.351   2.925 -0.4116 -0.0561  0.1773
  318SOL    HW1 1270   1.231   0.407   2.910 -2.1309 -0.0055  2.2789
  318SOL    HW2 1271   1.382   0.420   2.932 -1.0256  0.1652  0.9679
  318SOL     MW 1272   1.314   0.368   2.924 -0.7195 -0.0202  0.5589
  319SOL     OW 1273   0.790   0.443   2.878 -0.1769  0.2513 -0.3904
  319SOL    HW1 1274   0.771   0.367   2.824 -0.8052 -1.9570  1.5543
  319SOL    HW2 1275   0.768   0.409   2.965 -1.7246 -0.6635 -0.6180
  319SOL     MW 1276   0.784   0.429   2.883 -0.4640 -0.1607 -0.1638
  320SOL     OW 1277   1.057   1.351   2.023  0.1062  0.1738  0.4972
  320SOL    HW1 1278   1.122   1.289   2.063 -0.2161  0.0191  1.1428
  320SOL    HW2 1279   1.106   1.429   1.986  1.4822  1.4914  0.7430
  320SOL     MW 1280   1.072   1.353   2.024  0.2452  0.3272  0.6148
  321SOL     OW 1281   1.160   0.908   3.033 -0.1768  0.0542 -0.2006
  321SOL    HW1 1282   1.082   0.876   2.991 -1.5301  0.0053 -0.7444
  321SOL    HW2 1283   1.219   0.836   3.011 -2.6305  0.2798  1.2844
  321SOL     MW 1284   1.157   0.894   3.025 -0.6791  0.0775 -0.0764
  322SOL     OW 1285   1.246   0.871   1.690 -0.4489  0.1420  0.0137
  322SOL    HW1 1286   1.311   0.805   1.700 -0.7154  0.2760  0.3308
  322SOL    HW2 1287   1.223   0.896   1.783 -1.3175 -2.0174 -0.8100
  322SOL     MW 1288   1.251   0.865   1.703 -0.5986 -0.1252 -0.0531
  323SOL     OW 1289   1.210   1.536   1.916 -0.7158 -0.3972 -0.3998
  323SOL    HW1 1290   1.261   1.526   1.832  2.4114 -1.3454  0.4079
  323SOL    HW2 1291   1.158   1.609   1.890  0.6752  1.5861 -0.9804
  323SOL     MW 1292   1.210   1.544   1.901 -0.1197 -0.2606 -0.3698
  324SOL     OW 1293   1.475   0.948   2.419 -0.2348 -0.0604  0.1382
  324SOL    HW1 1294   1.405   1.005   2.452  5.7284 -0.1249 -0.8035
  324SOL    HW2 1295   1.549   1.011   2.434  0.5690 -2.2524  2.0014
  324SOL     MW 1296   1.476   0.963   2.425  0.6580 -0.3582  0.2597
  325SOL     OW 1297   1.071   0.484   2.943  0.6363  0.3926 -0.8302
  325SOL    HW1 1298   1.058   0.550   3.012  0.2028 -0.2683  1.4766
  325SOL    HW2 1299   0.974   0.474   2.923  2.8578  1.1904 -1.4572
  325SOL     MW 1300   1.056   0.491   2.950  0.8722  0.4107 -0.6085
  326SOL     OW 1301   0.462   1.374   2.307 -0.0964 -0.5056  0.6963
  326SOL    HW1 1302   0.520   1.313   2.263 -0.9166  0.3642 -3.0903
  326SOL    HW2 1303   0.487   1.459   2.273 -0.4809  1.6707 -0.1044
  326SOL     MW 1304   0.473   1.377   2.297 -0.2553 -0.1037  0.0910
  327SOL     OW 1305   1.933   0.798   2.443 -0.2130 -0.1680 -0.0671
  327SOL    HW1 1306   1.875   0.766   2.515 -1.3910 -0.7198  0.7119
  327SOL    HW2 1307   2.024   0.804   2.484  1.7127 -3.0649  0.7960
  327SOL     MW 1308   1.937   0.795   2.458 -0.1143 -0.6230  0.1496
  328SOL     OW 1309   0.193   1.378   2.232  0.1747  0.9196 -0.9215
  328SOL    HW1 1310   0.181   1.295   2.192  0.1570  0.5011 -0.8306
  328SOL    HW2 1311   0.289   1.377   2.256 -0.5156  1.8751 -1.7216
  328SOL     MW 1312   0.204   1.367   2.230  0.0813  0.9904 -1.0150
  329SOL     OW 1313   0.150   0.241   1.355  0.0261  0.5551  1.0021
  329SOL    HW1 1314   0.120   0.233   1.448 -1.5147 -0.7120 -2.3398
  329SOL    HW2 1315   0.245   0.250   1.350  0.3678  0.7309 -1.4096
  329SOL     MW 1316   0.159   0.241   1.366 -0.1321  0.4111  0.2430
  330SOL     OW 1317   0.373   0.019   2.087 -0.1279  0.3683  0.5131
  330SOL    HW1 1318   0.456   0.021   2.143  0.3039  0.2822  2.7845
  330SOL    HW2 1319   0.309  -0.034   2.142  0.7778 -2.8268 -1.3709
  330SOL     MW 1320   0.376   0.012   2.102  0.0485 -0.0646  0.5642
  331SOL     OW 1321   0.894   1.229   2.261  0.1500  0.6176 -0.4140
  331SOL    HW1 1322   0.846   1.294   2.205  0.3014  0.0058  0.6608
  331SOL    HW2 1323   0.932   1.282   2.331 -0.9121 -1.6000 -0.7682
  331SOL     MW 1324   0.893   1.244   2.262  0.0298  0.2443 -0.3189
  332SOL     OW 1325   1.342   1.785   2.983  0.3805  0.4955 -0.1696
  332SOL    HW1 1326   1.377   1.783   2.891  0.5214  1.0279  0.6369
  332SOL    HW2 1327   1.390   1.854   3.026 -1.0325 -3.1310 -0.3745
  332SOL     MW 1328   1.353   1.794   2.976  0.2126  0.0872 -0.0903
  333SOL     OW 1329   1.787   1.393   2.979 -0.4479  0.0941 -0.0795
  333SOL    HW1 1330   1.870   1.427   3.014 -2.6027 -1.5276 -2.7323
  333SOL    HW2 1331   1.749   1.335   3.044  0.2943  0.7598 -1.3989
  333SOL     MW 1332   1.793   1.390   2.992 -0.6343 -0.0320 -0.6036
  334SOL     OW 1333   1.364   0.013   2.617 -0.3374  0.2299 -0.2628
  334SOL    HW1 1334   1.273   0.016   2.648 -1.4109 -0.2505 -0.7455
  334SOL    HW2 1335   1.403   0.095   2.652 -2.9876  0.9660  1.3915
  334SOL     MW 1336   1.357   0.024   2.625 -0.8287  0.2636 -0.1082
  335SOL     OW 1337   1.367   0.750   2.952 -0.0860 -0.1426  0.4703
  335SOL    HW1 1338   1.410   0.725   3.036  2.2292  0.3289  0.0368
  335SOL    HW2 1339   1.430   0.807   2.915 -1.0801  0.1228  1.3682
  335SOL     MW 1340   1.381   0.754   2.958  0.0883 -0.0454  0.5315
  336SOL     OW 1341   0.960   1.120   1.924 -0.0748  0.2917 -0.7112
  336SOL    HW1 1342   0.995   1.201   1.971 -3.2492  1.4802 -0.7739
  336SOL    HW2 1343   1.041   1.073   1.920 -1.3725  0.1465  3.3924
  336SOL     MW 1344   0.975   1.125   1.930 -0.6649  0.4294 -0.1780
  337SOL     OW 1345   0.590   1.824   2.784  0.4836 -0.4062  0.0790
  337SOL    HW1 1346   0.541   1.802   2.707 -1.4071  1.7914 -1.7718
  337SOL    HW2 1347   0.671   1.777   2.779 -1.3604 -0.0646 -2.4415
  337SOL     MW 1348   0.594   1.815   2.773 -0.0091 -0.0712 -0.4978
  338SOL     OW 1349   1.124   0.766   2.531  0.2279  0.3398  0.1097
  338SOL    HW1 1350   1.068   0.686   2.535  0.9179 -1.5494  0.7076
  338SOL    HW2 1351   1.185   0.731   2.599  0.2836 -1.0268  0.8502
  338SOL     MW 1352   1.125   0.751   2.541  0.3263 -0.0898  0.2863
  339SOL     OW 1353   1.473   1.027   1.833  0.1436  0.0972  0.0161
  339SOL    HW1 1354   1.423   1.075   1.773  0.6419  0.5111 -0.7593
  339SOL    HW2 1355   1.399   0.992   1.884 -1.8917  1.7700  0.4376
  339SOL     MW 1356   1.457   1.029   1.832 -0.0592  0.3725 -0.0306
  340SOL     OW 1357   1.300   1.545   0.064  0.0583 -0.2474 -0.2111
  340SOL    HW1 1358   1.311   1.607  -0.007  0.2762  2.7715 -0.6769
  340SOL    HW2 1359   1.387   1.520   0.084 -0.4313  0.3973 -0.1664
  340SOL     MW 1360   1.313   1.550   0.057  0.0225  0.2360 -0.2667
  341SOL     OW 1361   0.131   1.424   2.751 -0.4736  0.0961  0.1536
  341SOL    HW1 1362   0.229   1.420   2.754  1.7402 -0.0480  0.5203
  341SOL    HW2 1363   0.108   1.377   2.670 -3.0247  1.2373 -0.5885
  341SOL     MW 1364   0.141   1.418   2.741 -0.5181  0.2277  0.1041
  342SOL     OW 1365   1.295   0.321   0.107 -0.4166 -0.5495  0.5647
  342SOL    HW1 1366   1.369   0.362   0.154  3.5747 -1.2393  0.8369
  342SOL    HW2 1367   1.312   0.341   0.015  2.0999 -1.3186 -0.5012
  342SOL     MW 1368   1.307   0.329   0.101  0.4421 -0.7420  0.4600
  343SOL     OW 1369   0.249   0.263   2.159  0.1685 -0.7112  0.3285
  343SOL    HW1 1370   0.314   0.199   2.183  1.1452  2.4096 -3.2067
  343SOL    HW2 1371   0.200   0.216   2.093  0.6262  2.3719 -2.6949
  343SOL     MW 1372   0.251   0.249   2.154  0.3578  0.1073 -0.5368
  344SOL     OW 1373   1.735   2.035   0.165 -0.6262 -0.5983 -0.2065
  344SOL    HW1 1374   1.747   2.121   0.130 -0.4609 -2.4134  1.9710
  344SOL    HW2 1375   1.674   1.998   0.108  0.4464  2.2145 -1.7694
  344SOL     MW 1376   1.729   2.042   0.152 -0.4629 -0.4667 -0.1254
  345SOL     OW 1377   0.754   1.573   2.349 -0.5585 -0.1172  0.3142
  345SOL    HW1 1378   0.678   1.595   2.294  2.9750  0.1509 -2.0200
  345SOL    HW2 1379   0.823   1.572   2.286 -2.2585  0.0715  0.6594
  345SOL     MW 1380   0.753   1.576   2.334 -0.3166 -0.0569  0.0518
  346SOL     OW 1381   1.779   1.070   0.027 -0.1972  0.6428  0.6662
  346SOL    HW1 1382   1.874   1.077   0.051  1.5986 -3.5566 -2.5720
  346SOL    HW2 1383   1.727   1.030   0.097 -2.4934  0.0167 -0.1930
  346SOL     MW 1384   1.784   1.065   0.039 -0.2632  0.0061  0.1256
  347SOL     OW 1385   1.216   0.698   2.296 -0.4545 -0.3582 -0.2717
  347SOL    HW1 1386   1.301   0.655   2.309  0.2459 -2.1809  0.1811
  347SOL    HW2 1387   1.189   0.729   2.383 -0.2774  1.3179  0.4626
  347SOL     MW 1388   1.223   0.697   2.309 -0.3387 -0.3775 -0.1151
  348SOL     OW 1389   1.387   2.692   1.936 -0.2028  0.1166 -0.1301
  348SOL    HW1 1390   1.423   2.602   1.960 -1.4662 -0.8467 -1.8574
  348SOL    HW2 1391   1.419   2.753   2.001 -1.5311 -0.8951  4.5875
  348SOL     MW 1392   1.396   2.688   1.948 -0.5448 -0.1440  0.2645
  349SOL     OW 1393   1.455   0.254   2.703 -0.2307 -0.5055  0.1598
  349SOL    HW1 1394   1.408   0.286   2.778 -1.1933 -0.2024  0.9657
  349SOL    HW2 1395   1.544   0.301   2.713 -0.0042 -2.2364 -0.0579
  349SOL     MW 1396   1.460   0.265   2.714 -0.3278 -0.6939  0.2374
  350SOL     OW 1397   1.837   0.648   2.666  0.3920  0.4739  0.3293
  350SOL    HW1 1398   1.768   0.584   2.629 -1.2503  0.9594  0.0264
  350SOL    HW2 1399   1.926   0.604   2.662 -0.4671  1.3097 -1.3539
  350SOL     MW 1400   1.839   0.634   2.661  0.0620  0.6482  0.0673
  351SOL     OW 1401   0.086   1.036   1.524  0.3632  1.0895  0.2523
  351SOL    HW1 1402   0.021   1.045   1.594  0.8681 -1.6681  0.9156
  351SOL    HW2 1403   0.157   1.090   1.557  4.3243 -0.7873  2.6577
  351SOL     MW 1404   0.087   1.044   1.537  0.9524  0.4781  0.6572
  352SOL     OW 1405   0.822   1.649   2.687 -0.0641  0.0197  0.2239
  352SOL    HW1 1406   0.875   1.620   2.768  0.9716 -0.0644  0.8275
  352SOL    HW2 1407   0.793   1.569   2.649 -0.7856  0.3743  0.4446
  352SOL     MW 1408   0.826   1.635   2.693 -0.0227  0.0554  0.3326
  353SOL     OW 1409   3.051   2.520   2.640 -0.1091 -0.3480  0.0728
  353SOL    HW1 1410   3.144   2.537   2.634  1.3659  0.3504 -0.4431
  353SOL    HW2 1411   3.007   2.609   2.625  0.5250  1.8122 -3.4510
  353SOL     MW 1412   3.058   2.534   2.637  0.1692  0.0291 -0.4602
  354SOL     OW 1413   0.252   2.481   0.800 -0.5449 -0.2338  0.1044
  354SOL    HW1 1414   0.314   2.483   0.876  1.5825 -0.2744 -1.0487
  354SOL    HW2 1415   0.198   2.401   0.812 -3.4280 -0.3578  0.5806
  354SOL     MW 1416   0.253   2.471   0.812 -0.6446 -0.2556  0.0151
  355SOL     OW 1417   0.052   2.261   0.398 -0.2225 -0.4660  0.0572
  355SOL    HW1 1418  -0.030   2.210   0.397  0.5235  0.2922 -0.3036
  355SOL    HW2 1419   0.045   2.323   0.474  0.2869  1.9468 -1.9912
  355SOL     MW 1420   0.040   2.262   0.408 -0.0569 -0.0476 -0.2607
  356SOL     OW 1421   0.836   2.820   0.986  0.6584  0.0357  0.7998
  356SOL    HW1 1422   0.881   2.857   0.902  2.2985 -0.7289  0.3111
  356SOL    HW2 1423   0.742   2.808   0.966  2.5772  0.4099  2.1031
  356SOL     MW 1424   0.829   2.823   0.973  1.1280 -0.0158  0.9073
  357SOL     OW 1425   1.787   2.907   0.420 -0.0901 -0.1025 -0.0041
  357SOL    HW1 1426   1.724   2.845   0.459  0.2036 -0.4060 -0.6033
  357SOL    HW2 1427   1.850   2.845   0.384  0.5748 -0.5901 -1.4736
  357SOL     MW 1428   1.787   2.890   0.421  0.0364 -0.2068 -0.2771
  358SOL     OW 1429   0.457   0.174   1.076 -0.3086 -0.2839 -0.3051
  358SOL    HW1 1430   0.550   0.151   1.056  0.1264 -0.3770 -2.4421
  358SOL    HW2 1431   0.408   0.185   0.989  0.0475  0.8875 -1.1569
  358SOL     MW 1432   0.463   0.172   1.062 -0.2042 -0.1417 -0.6994
  359SOL     OW 1433   0.865   2.943   1.882 -0.7625 -0.1511 -0.4989
  359SOL    HW1 1434   0.855   2.850   1.909  1.2263  0.2979 -2.6567
  359SOL    HW2 1435   0.916   2.932   1.800 -1.8916 -2.9979  0.4616
  359SOL     MW 1436   0.870   2.929   1.875 -0.6491 -0.4674 -0.6569
  360SOL     OW 1437   0.562   2.764   0.927  0.1808  0.0865 -0.4301
  360SOL    HW1 1438   0.551   2.709   0.852  0.9802  0.0999 -1.0359
  360SOL    HW2 1439   0.566   2.699   1.000  0.1425 -1.0133  1.3116
  360SOL     MW 1440   0.561   2.748   0.927  0.2813 -0.0569 -0.2803
  361SOL     OW 1441   0.171   2.648   1.353  0.0625 -0.0792 -0.6978
  361SOL    HW1 1442   0.154   2.730   1.402  0.2909  0.7613 -0.7914
  361SOL    HW2 1443   0.266   2.640   1.355 -0.0069  1.5651 -1.5456
  361SOL     MW 1444   0.181   2.657   1.360  0.0835  0.2487 -0.8220
  362SOL     OW 1445   1.487   2.403   0.634 -0.3308 -0.3746  0.5232
  362SOL    HW1 1446   1.509   2.366   0.717  0.9152  1.2631 -0.5362
  362SOL    HW2 1447   1.555   2.470   0.619  3.4174 -1.9835 -0.2212
  362SOL     MW 1448   1.499   2.407   0.643  0.3281 -0.3708  0.2852
  363SOL     OW 1449   0.327   3.062   0.683 -0.4082  0.2432 -0.3726
  363SOL    HW1 1450   0.330   3.024   0.774 -0.6560  0.7185  0.5847
  363SOL    HW2 1451   0.236   3.074   0.650 -3.6750  0.1709 -1.7999
  363SOL     MW 1452   0.315   3.059   0.691 -0.8719  0.2964 -0.4346
  364SOL     OW 1453   0.704   0.174   0.224 -0.3614 -0.6039 -0.3897
  364SOL    HW1 1454   0.650   0.094   0.251  1.4796 -0.6759 -1.7013
  364SOL    HW2 1455   0.655   0.216   0.156 -0.7687 -1.2182 -0.4054
  364SOL     MW 1456   0.690   0.169   0.218 -0.1723 -0.6944 -0.5648
  365SOL     OW 1457   0.976   1.997   1.089  0.0651  0.1778  0.0605
  365SOL    HW1 1458   0.968   2.088   1.047 -1.1238  1.2163  0.8026
  365SOL    HW2 1459   0.903   1.948   1.050 -0.3299  0.7923 -0.4020
  365SOL     MW 1460   0.965   2.003   1.078 -0.1439  0.3959  0.0974
  366SOL     OW 1461   2.826   2.664   1.020  0.3537  0.2491  0.0057
  366SOL    HW1 1462   2.913   2.659   1.074  1.0289  0.7084 -0.9506
  366SOL    HW2 1463   2.859   2.668   0.929 -1.9122 -1.1665  1.2512
  366SOL     MW 1464   2.842   2.664   1.015  0.1438  0.1229  0.0439
  367SOL     OW 1465   1.252   2.956   0.854 -0.6793 -0.4661  0.4935
  367SOL    HW1 1466   1.240   3.036   0.807 -0.8337 -1.3173  0.1839
  367SOL    HW2 1467   1.208   2.882   0.803 -0.6352 -1.9465  2.4901
  367SOL     MW 1468   1.245   2.957   0.841 -0.6939 -0.7737  0.7161
  368SOL     OW 1469   1.630   0.405   0.686  0.5354 -0.1441  0.6231
  368SOL    HW1 1470   1.707   0.355   0.652  4.3037  0.4161  0.6230
  368SOL    HW2 1471   1.666   0.493   0.692 -1.2060 -2.1492  0.9677
  368SOL     MW 1472   1.645   0.410   0.682  0.8028 -0.3347  0.6686
  369SOL     OW 1473   0.139   2.507   1.703  0.4064 -0.5005  1.1081
  369SOL    HW1 1474   0.244   2.498   1.718  1.8142 -0.9799 -2.2889
  369SOL    HW2 1475   0.107   2.597   1.725 -3.6971 -0.7125 -0.8021
  369SOL     MW 1476   0.149   2.518   1.708  0.0507 -0.5917  0.4078
  370SOL     OW 1477   0.721   0.097   1.024  0.5315  0.4961  0.1881
  370SOL    HW1 1478   0.785   0.170   1.004  2.0560 -1.6205 -1.0694
  370SOL    HW2 1479   0.763   0.028   1.078 -2.4428 -0.0069  3.5716
  370SOL     MW 1480   0.735   0.097   1.028  0.3402  0.1505  0.4686
  371SOL     OW 1481   1.297   2.912   1.528 -0.0368  0.5823 -0.2323
  371SOL    HW1 1482   1.226   2.856   1.496 -0.3219 -0.3589 -1.8527
  371SOL    HW2 1483   1.306   2.991   1.470 -0.3442  0.8959  0.0600
  371SOL     MW 1484   1.289   2.915   1.516 -0.1150  0.4995 -0.4076
  372SOL     OW 1485   0.750   2.325   0.467 -0.2636 -0.3615  0.0753
  372SOL    HW1 1486   0.739   2.236   0.491 -0.0696  2.1278 -0.3256
  372SOL    HW2 1487   0.795   2.315   0.385 -0.5200 -0.6675  3.0668
  372SOL     MW 1488   0.755   2.312   0.460 -0.2718 -0.0734  0.4171
  373SOL     OW 1489   2.754   3.003   1.461  0.2024 -0.2646  0.1248
  373SOL    HW1 1490   2.833   2.979   1.417 -0.2106  0.7373 -1.6099
  373SOL    HW2 1491   2.735   3.088   1.427 -1.6165 -0.4049  2.2175
  373SOL     MW 1492   2.762   3.011   1.450 -0.0921 -0.1509  0.1720
  374SOL     OW 1493   1.519   0.465   0.245  0.5006  0.2007 -0.4959
  374SOL    HW1 1494   1.583   0.392   0.229  0.2942  1.7733 -1.3571
  374SOL    HW2 1495   1.489   0.457   0.336  1.5129 -2.0968  0.3920
  374SOL     MW 1496   1.524   0.454   0.255  0.6069  0.1050 -0.4924
  375SOL     OW 1497   0.961   2.112   2.290 -0.0585  0.7696 -0.0770
  375SOL    HW1 1498   1.022   2.094   2.358 -2.7430  0.2991 -1.0225
  375SOL    HW2 1499   0.945   2.019   2.251  1.5677 -3.2790 -0.0450
  375SOL     MW 1500   0.967   2.097   2.294 -0.1981  0.1733 -0.1975
  376SOL     OW 1501   0.707   2.581   0.071  1.2869  0.2452  0.2877
  376SOL    HW1 1502   0.647   2.551   0.154  2.9271 -2.5266 -1.4258
  376SOL    HW2 1503   0.681   2.514   0.004 -1.1858  1.1764  0.7603
  376SOL     MW 1504   0.696   2.568   0.073  1.1771  0.0024  0.1240
  377SOL     OW 1505   1.279   2.011   0.871 -0.0630 -0.2524  0.1196
  377SOL    HW1 1506   1.192   1.995   0.833  0.7276 -0.8683  1.0628
  377SOL    HW2 1507   1.276   1.956   0.946  0.8578  1.1927 -0.0568
  377SOL     MW 1508   1.267   2.001   0.876  0.1628 -0.1430  0.2207
  378SOL     OW 1509   0.929   2.804   1.575 -0.5216  0.1582 -0.5038
  378SOL    HW1 1510   0.900   2.715   1.589 -3.3370 -0.2709  0.5417
  378SOL    HW2 1511   0.890   2.841   1.492 -0.7497  1.3482 -0.2577
  378SOL     MW 1512   0.920   2.797   1.566 -0.9232  0.2586 -0.3334
  379SOL     OW 1513   1.164   1.769   2.288 -0.0674  0.1537  0.1683
  379SOL    HW1 1514   1.111   1.781   2.208 -1.9163  2.5478  0.5559
  379SOL    HW2 1515   1.221   1.695   2.262 -1.2475 -2.5409  2.0881
  379SOL     MW 1516   1.165   1.761   2.274 -0.4671  0.1140  0.4727
  380SOL     OW 1517   0.780   0.108   1.606  0.7026  0.1187  0.7524
  380SOL    HW1 1518   0.801   0.034   1.553 -1.1908  3.3260  0.1177
  380SOL    HW2 1519   0.866   0.135   1.637  0.3740  0.3906 -0.6253
  380SOL     MW 1520   0.795   0.102   1.603  0.4094  0.5778  0.4869
  381SOL     OW 1521   0.814   2.043   0.774 -0.0580  0.4129  0.1440
  381SOL    HW1 1522   0.901   2.021   0.744 -0.2848 -0.5380  2.5194
  381SOL    HW2 1523   0.816   2.115   0.844  0.2209  1.0046 -1.2812
  381SOL     MW 1524   0.826   2.050   0.779 -0.0511  0.3655  0.2693
  382SOL     OW 1525   0.668   0.086   0.726  0.1652 -0.3594  0.3607
  382SOL    HW1 1526   0.668   0.106   0.819 -0.9198 -1.1246 -3.8549
  382SOL    HW2 1527   0.620   0.001   0.707  1.2310 -3.1371 -0.1087
  382SOL     MW 1528   0.662   0.077   0.736  0.1627 -0.8269 -0.2575
  383SOL     OW 1529   0.541   3.066   0.293  0.0585  0.6964 -0.2382
  383SOL    HW1 1530   0.584   3.015   0.223 -1.6399  1.5281 -1.7785
  383SOL    HW2 1531   0.479   3.016   0.337 -0.5284  1.3714  1.7158
  383SOL     MW 1532   0.538   3.053   0.290 -0.2430  0.8952 -0.1836
  384SOL     OW 1533   0.658   2.914   0.629  0.9441  0.3735 -0.0756
  384SOL    HW1 1534   0.740   2.900   0.678  0.3249  0.3174  1.8333
  384SOL    HW2 1535   0.604   2.834   0.643 -0.3934  0.2309 -0.8776
  384SOL     MW 1536   0.662   2.902   0.637  0.6859  0.3473  0.0704
  385SOL     OW 1537   1.369   2.100   1.519  0.6067  0.0824 -0.1905
  385SOL    HW1 1538   1.456   2.122   1.563 -0.5695  0.2330  0.4754
  385SOL    HW2 1539   1.320   2.029   1.567  2.6272  2.2785  1.5441
  385SOL     MW 1540   1.374   2.094   1.531  0.7181  0.3920  0.1262
  386SOL     OW 1541   1.300   0.418   0.893 -0.3544  0.3121  0.6252
  386SOL    HW1 1542   1.219   0.455   0.935 -0.5205 -0.4776 -1.1820
  386SOL    HW2 1543   1.339   0.348   0.941  0.2326 -1.3750 -1.4698
  386SOL     MW 1544   1.294   0.413   0.905 -0.2989 -0.0147  0.1103
  387SOL     OW 1545   0.814   2.200   1.506 -0.2578  0.2836  0.4044
  387SOL    HW1 1546   0.879   2.256   1.463 -1.1377  0.7433  0.9198
  387SOL    HW2 1547   0.813   2.124   1.450 -1.3832  1.3387  0.0477
  387SOL     MW 1548   0.822   2.198   1.493 -0.5224  0.4835  0.4254
  388SOL     OW 1549   1.554   2.796   1.215 -0.1421 -0.2397 -0.3548
  388SOL    HW1 1550   1.481   2.751   1.179 -0.7842 -0.9162 -1.6084
  388SOL    HW2 1551   1.609   2.772   1.143 -2.4282  1.0270 -0.9452
  388SOL     MW 1552   1.551   2.787   1.201 -0.5285 -0.1618 -0.5981
  389SOL     OW 1553   0.453   0.095   3.001 -0.0400  0.0551  0.0145
  389SOL    HW1 1554   0.533   0.051   3.010 -2.6207  2.1981  1.0157
  389SOL    HW2 1555   0.444   0.119   2.911 -0.1722 -0.6004  2.5674
  389SOL     MW 1556   0.462   0.092   2.990 -0.3979  0.2514  0.4835
  390SOL     OW 1557   1.291   0.083   0.709  0.8380  0.3012 -0.0530
  390SOL    HW1 1558   1.327   0.074   0.620 -1.3217 -0.0025 -3.4044
  390SOL    HW2 1559   1.361   0.115   0.763 -2.9870  0.9351 -0.0032
  390SOL     MW 1560   1.305   0.086   0.704  0.0484  0.3447 -0.4886
  391SOL     OW 1561   0.317   2.202   1.414 -0.0246 -0.4028  0.0718
  391SOL    HW1 1562   0.264   2.122   1.429  1.2601  1.6348 -1.9915
  391SOL    HW2 1563   0.244   2.263   1.429  1.5804  1.0204  0.2294
  391SOL     MW 1564   0.300   2.200   1.418  0.3566  0.0538 -0.1796
  392SOL     OW 1565   2.065   2.205   0.317 -0.4125  0.1500 -0.3102
  392SOL    HW1 1566   2.156   2.179   0.306 -0.9075 -1.5145  2.8822
  392SOL    HW2 1567   2.076   2.259   0.390 -1.4584  2.2653 -0.1698
  392SOL     MW 1568   2.078   2.209   0.326 -0.6158  0.2095  0.1295
  393SOL     OW 1569   0.186   3.015   2.752  0.4049 -0.6917  0.6241
  393SOL    HW1 1570   0.278   3.003   2.787  3.3503 -0.2733 -0.8485
  393SOL    HW2 1571   0.161   3.103   2.777 -1.5052  0.1845 -0.8409
  393SOL     MW 1572   0.195   3.025   2.760  0.5415 -0.5209  0.2365
  394SOL     OW 1573   0.873   1.743   1.560 -0.1678 -0.5291  0.0952
  394SOL    HW1 1574   0.810   1.774   1.625  2.8448 -0.6550 -0.5879
  394SOL    HW2 1575   0.891   1.829   1.509  0.2758  1.0884  0.5419
  394SOL     MW 1576   0.867   1.759   1.562  0.2882 -0.3323  0.0640
  395SOL     OW 1577   1.006   2.822   2.628 -0.1315  0.5560  0.5400
  395SOL    HW1 1578   1.056   2.898   2.659 -2.8478  0.1911  1.3261
  395SOL    HW2 1579   1.065   2.789   2.562  1.4267  0.5043 -0.3400
  395SOL     MW 1580   1.021   2.828   2.623 -0.2843  0.5010  0.5276
  396SOL     OW 1581   0.739   1.862   2.398 -0.2638 -0.5216 -0.2631
  396SOL    HW1 1582   0.812   1.865   2.462 -0.0798 -1.8065  1.0295
  396SOL    HW2 1583   0.710   1.772   2.412  2.1900  2.1948 -0.9591
  396SOL     MW 1584   0.745   1.851   2.409  0.0842 -0.3328 -0.1844
  397SOL     OW 1585   1.000   2.307   1.281  0.0228 -0.1879  0.4514
  397SOL    HW1 1586   1.024   2.318   1.188  0.9650  2.8122  2.7860
  397SOL    HW2 1587   1.082   2.312   1.339  0.1900  2.7290  0.7178
  397SOL     MW 1588   1.014   2.309   1.276  0.1692  0.5928  0.7946
  398SOL     OW 1589   0.541   2.643   0.681  0.4185 -0.5355 -0.1377
  398SOL    HW1 1590   0.471   2.624   0.617 -1.8745 -0.3993 -2.7100
  398SOL    HW2 1591   0.620   2.586   0.663 -0.9480 -2.0727  3.2243
  398SOL     MW 1592   0.542   2.633   0.670 -0.0644 -0.7204 -0.0335
  399SOL     OW 1593   0.244   2.066   0.337 -0.4444  0.2678 -0.9215
  399SOL    HW1 1594   0.185   2.131   0.379 -0.7080 -0.1719  1.6282
  399SOL    HW2 1595   0.308   2.117   0.290  1.7941  3.2742 -0.4487
  399SOL     MW 1596   0.245   2.081   0.336 -0.1838  0.6065 -0.5227
  400SOL     OW 1597   0.498   1.932   0.134  0.0939  0.4392 -1.0460
  400SOL    HW1 1598   0.464   2.019   0.116 -0.4359  0.4394  0.2051
  400SOL    HW2 1599   0.418   1.891   0.165  0.7712 -0.1560  1.5054
  400SOL     MW 1600   0.483   1.938   0.136  0.1133  0.3607 -0.5443
  401SOL     OW 1601   0.758   2.025   0.095 -0.3802  0.3625 -0.5376
  401SOL    HW1 1602   0.825   1.948   0.092  1.2636 -0.1571 -0.1228
  401SOL    HW2 1603   0.669   1.993   0.108  0.4457 -0.3769  2.4186
  401SOL     MW 1604   0.755   2.011   0.097 -0.0544  0.1964 -0.0928
  402SOL     OW 1605   0.595   2.970   1.806 -0.1101 -0.5340 -0.0196
  402SOL    HW1 1606   0.681   2.957   1.843 -1.2274  1.6529  0.2639
  402SOL    HW2 1607   0.600   3.055   1.759  1.1347 -0.2061 -0.8833
  402SOL     MW 1608   0.607   2.980   1.805 -0.0933 -0.2022 -0.0962
  403SOL     OW 1609   0.064   0.437   0.340 -0.0360  0.3641  0.5542
  403SOL    HW1 1610   0.139   0.457   0.400  1.0781  0.9022  0.8041
  403SOL    HW2 1611   0.094   0.440   0.249 -2.4596  1.8005 -1.8280
  403SOL     MW 1612   0.078   0.440   0.336 -0.2087  0.6246  0.2728
  404SOL     OW 1613   0.917   2.929   0.750  0.5730  0.0507  0.1655
  404SOL    HW1 1614   0.970   2.850   0.725 -0.7227 -1.6672 -0.4732
  404SOL    HW2 1615   0.930   3.006   0.692 -0.8638  2.2224  0.2970
  404SOL     MW 1616   0.926   2.929   0.739  0.2125  0.1105  0.0986
  405SOL     OW 1617   0.516   2.405   1.503  0.2625  0.3402  0.4084
  405SOL    HW1 1618   0.499   2.488   1.459 -0.8032  1.5625  0.8269
  405SOL    HW2 1619   0.451   2.344   1.476 -0.8702 -2.8884  0.4383
  405SOL     MW 1620   0.505   2.408   1.493 -0.0275  0.0755  0.4675
  406SOL     OW 1621   0.411   2.406   1.036  0.2325  0.2856  0.6545
  406SOL    HW1 1622   0.330   2.430   1.075  0.1699  1.3234  0.6815
  406SOL    HW2 1623   0.443   2.335   1.088 -0.3876  2.0277  1.5272
  406SOL     MW 1624   0.405   2.399   1.048  0.1424  0.6523  0.7732
  407SOL     OW 1625   3.073   2.684   1.155  0.6303 -0.3160  0.3391
  407SOL    HW1 1626   3.136   2.652   1.227  1.6204 -0.1942 -0.6701
  407SOL    HW2 1627   3.129   2.689   1.077  4.3388  0.6917 -0.4672
  407SOL     MW 1628   3.088   2.680   1.154  1.2502 -0.1669  0.0996
  408SOL     OW 1629   2.130   2.119   0.716  0.4740  0.6357 -0.6919
  408SOL    HW1 1630   2.066   2.170   0.773  4.0645  3.1390 -0.9880
  408SOL    HW2 1631   2.080   2.046   0.674 -0.6219 -1.3575 -0.0237
  408SOL     MW 1632   2.115   2.116   0.718  0.8031  0.7030 -0.6428
  409SOL     OW 1633   1.480   0.145   0.892 -0.2555  0.1781 -0.0024
  409SOL    HW1 1634   1.551   0.206   0.906 -0.6529 -1.0946  1.1984
  409SOL    HW2 1635   1.490   0.069   0.951  0.1469 -0.5699  0.4209
  409SOL     MW 1636   1.490   0.143   0.901 -0.2548 -0.0885  0.2119
  410SOL     OW 1637   1.104   2.479   1.063  0.4057  0.3492  0.8650
  410SOL    HW1 1638   1.024   2.499   1.008 -2.4412 -2.5589  0.6674
  410SOL    HW2 1639   1.155   2.418   1.011  0.8497 -1.5865  1.1732
  410SOL     MW 1640   1.100   2.474   1.049  0.0887 -0.2899  0.8796
  411SOL     OW 1641   1.982   0.032   2.906 -0.1911  0.3221  0.0348
  411SOL    HW1 1642   1.933  -0.012   2.839 -0.5869  2.2701  1.9477
  411SOL    HW2 1643   1.921   0.094   2.948 -0.9365  1.5051 -0.4271
  411SOL     MW 1644   1.968   0.034   2.902 -0.3417  0.7352  0.2262
  412SOL     OW 1645   1.000   2.281   0.604  0.0098 -0.4083 -0.1706
  412SOL    HW1 1646   1.052   2.352   0.648  1.3413 -0.3797  0.4463
  412SOL    HW2 1647   0.929   2.308   0.554 -1.1214  2.8482 -2.4201
  412SOL     MW 1648   0.998   2.294   0.603  0.0362  0.0251 -0.3860
  413SOL     OW 1649   0.563   2.767   3.068  0.3617 -0.5883 -0.3050
  413SOL    HW1 1650   0.619   2.691   3.103  0.2593 -0.8022  0.4496
  413SOL    HW2 1651   0.613   2.798   2.995 -1.0440 -1.8453  5.3816
  413SOL     MW 1652   0.577   2.761   3.063  0.1627 -0.7824  0.5449
  414SOL     OW 1653   1.921   2.910   1.051 -0.0554  1.0211  0.2630
  414SOL    HW1 1654   1.854   2.927   0.981  1.2850 -0.7685  0.2402
  414SOL    HW2 1655   1.987   2.978   1.034  0.6688  2.0106  0.6310
  414SOL     MW 1656   1.921   2.921   1.040  0.2170  0.9156  0.3085
  415SOL     OW 1657   1.790   2.626   1.081  0.3782  0.1093 -0.1287
  415SOL    HW1 1658   1.780   2.608   1.178 -0.0171 -0.8694  2.2780
  415SOL    HW2 1659   1.857   2.694   1.071  0.8506 -0.0034 -1.4878
  415SOL     MW 1660   1.797   2.633   1.092  0.3884 -0.0347  0.0095
  416SOL     OW 1661   0.563   1.929   1.389  0.5912  0.6407 -0.3823
  416SOL    HW1 1662   0.522   2.005   1.347  2.4543  1.0619  0.0620
  416SOL    HW2 1663   0.490   1.862   1.403 -0.6648 -0.4060  0.5405
  416SOL     MW 1664   0.548   1.930   1.385  0.6713  0.5582 -0.2019
  417SOL     OW 1665   1.006   3.061   2.078  0.1264 -0.0977  0.3615
  417SOL    HW1 1666   0.945   3.066   2.153  3.2015 -0.3956 -1.7561
  417SOL    HW2 1667   0.952   3.022   2.004  0.9047 -3.7679 -4.0045
  417SOL     MW 1668   0.990   3.057   2.078  0.6348 -0.6212 -0.4940
  418SOL     OW 1669   0.729   2.900   0.120  0.0096  0.2219 -0.1330
  418SOL    HW1 1670   0.809   2.881   0.070 -0.7411 -0.0345 -0.1187
  418SOL    HW2 1671   0.661   2.861   0.058  0.7450  0.3662  1.8044
  418SOL     MW 1672   0.731   2.892   0.105  0.0076  0.2071  0.1245
  419SOL     OW 1673   0.455   2.635   1.395  0.5749 -0.1984  0.1185
  419SOL    HW1 1674   0.524   2.660   1.458 -2.5535  0.4168 -3.4614
  419SOL    HW2 1675   0.499   2.637   1.306  1.5583 -2.4864  1.9860
  419SOL     MW 1676   0.470   2.639   1.391  0.2919 -0.4191 -0.1074
  420SOL     OW 1677   0.865   2.263   0.971 -0.3820 -0.7496 -0.0275
  420SOL    HW1 1678   0.819   2.261   1.057  0.6513  0.3844  0.6002
  420SOL    HW2 1679   0.864   2.353   0.953  0.1409 -3.7255 -1.8577
  420SOL     MW 1680   0.858   2.274   0.980 -0.1767 -0.9926 -0.1861
  421SOL     OW 1681   2.929   0.122   3.093  0.4601  0.2247 -0.4116
  421SOL    HW1 1682   2.862   0.103   3.021 -2.3476  1.6510 -1.8388
  421SOL    HW2 1683   2.954   0.034   3.124 -1.4088  1.1559  0.5506
  421SOL     MW 1684   2.924   0.108   3.087 -0.1570  0.5357 -0.4729
  422SOL     OW 1685   0.892   2.535   0.881 -0.2597 -0.2233 -0.4068
  422SOL    HW1 1686   0.873   2.610   0.938 -1.1446 -0.5835  0.1145
  422SOL    HW2 1687   0.885   2.563   0.795  0.3828  3.9949  1.0521
  422SOL     MW 1688   0.889   2.549   0.877 -0.2917  0.2857 -0.1455
  423SOL     OW 1689   1.467   0.107   0.504 -1.0789  0.2858 -0.3235
  423SOL    HW1 1690   1.445   0.114   0.414  0.5589 -0.4221  0.0601
  423SOL    HW2 1691   1.489   0.202   0.520 -0.5045 -0.9010 -0.2262
  423SOL     MW 1692   1.467   0.120   0.494 -0.7870  0.0358 -0.2601
  424SOL     OW 1693   0.706   2.271   1.195 -0.0632  0.2574  0.2351
  424SOL    HW1 1694   0.620   2.234   1.194 -1.7954  0.5910 -0.4045
  424SOL    HW2 1695   0.748   2.225   1.263 -0.8294 -1.8932 -1.0929
  424SOL     MW 1696   0.700   2.260   1.204 -0.3928  0.0177 -0.0245
  425SOL     OW 1697   1.742   2.816   2.043  0.1844  0.0304  0.6010
  425SOL    HW1 1698   1.725   2.845   1.955  0.1024 -2.1818  0.9414
  425SOL    HW2 1699   1.773   2.725   2.053  0.1496 -1.9070  2.5626
  425SOL     MW 1700   1.744   2.808   2.033  0.1690 -0.5171  0.9047
  426SOL     OW 1701   0.794   1.691   1.944 -0.1275  0.1931  0.0316
  426SOL    HW1 1702   0.732   1.720   1.880 -0.1413  1.1161  2.5320
  426SOL    HW2 1703   0.810   1.758   2.011 -3.5021  1.7829 -1.0214
  426SOL     MW 1704   0.788   1.704   1.944 -0.5746  0.5247  0.2226
  427SOL     OW 1705   0.347   1.645   1.914 -0.1215 -0.2469 -0.3536
  427SOL    HW1 1706   0.410   1.575   1.926  0.0253  1.1012  0.8128
  427SOL    HW2 1707   0.262   1.607   1.949 -3.3214  1.4076 -1.2579
  427SOL     MW 1708   0.344   1.631   1.920 -0.5243  0.1492 -0.3190
  428SOL     OW 1709   0.575   2.590   1.146  0.2065 -0.1018 -0.4133
  428SOL    HW1 1710   0.652   2.549   1.179 -2.1085  1.4847 -4.5884
  428SOL    HW2 1711   0.518   2.533   1.088 -0.9886 -2.8667 -0.8443
  428SOL     MW 1712   0.578   2.577   1.143 -0.2566 -0.2573 -1.0211
  429SOL     OW 1713   1.277   2.794   1.066 -0.5224  0.2362 -0.3958
  429SOL    HW1 1714   1.193   2.755   1.096 -1.4509  0.8201  1.2628
  429SOL    HW2 1715   1.257   2.865   1.002  1.9935  0.7711  0.3687
  429SOL     MW 1716   1.263   2.798   1.061 -0.3130  0.3839 -0.0761
  430SOL     OW 1717   1.134   2.743   0.722  0.2469  0.7045  0.3080
  430SOL    HW1 1718   1.184   2.665   0.753 -0.3681  0.2573  0.2047
  430SOL    HW2 1719   1.080   2.701   0.648 -2.6385 -0.6273 -0.2664
  430SOL     MW 1720   1.133   2.727   0.716 -0.2149  0.4698  0.2186
  431SOL     OW 1721   0.364   1.924   1.048 -0.0723  0.3456  0.1708
  431SOL    HW1 1722   0.435   1.859   1.045 -1.2410 -1.6777 -0.2661
  431SOL    HW2 1723   0.321   1.911   0.967  0.6460  0.0025  1.0459
  431SOL     MW 1724   0.368   1.913   1.037 -0.1317  0.0334  0.2286
  432SOL     OW 1725   0.066   0.013   1.212  0.2804  0.4716  0.0477
  432SOL    HW1 1726   0.086   0.077   1.283 -0.7040 -1.1917 -1.7039
  432SOL    HW2 1727  -0.006  -0.037   1.251 -0.7435 -0.4147  0.8132
  432SOL     MW 1728   0.059   0.015   1.227  0.0155  0.1352 -0.0824
  433SOL     OW 1729   0.616   2.799   1.524 -0.4405 -0.6106 -0.3831
  433SOL    HW1 1730   0.651   2.848   1.604  0.2193  0.7523  2.2761
  433SOL    HW2 1731   0.679   2.829   1.458 -0.9292 -0.3077 -1.6938
  433SOL     MW 1732   0.629   2.809   1.526 -0.4179 -0.3908 -0.2052
  434SOL     OW 1733   1.599   2.846   1.524  0.2568  0.1727 -0.3492
  434SOL    HW1 1734   1.500   2.852   1.518 -1.1644  1.0491  1.7929
  434SOL    HW2 1735   1.622   2.843   1.431 -1.2083  1.4766 -0.0943
  434SOL     MW 1736   1.589   2.846   1.511 -0.1240  0.4603 -0.0329
  435SOL     OW 1737   2.842   1.795   0.219  0.0352 -0.1576 -0.5859
  435SOL    HW1 1738   2.916   1.855   0.181 -0.2984  0.3201  1.3781
  435SOL    HW2 1739   2.804   1.753   0.145 -0.2504 -0.9573 -0.2467
  435SOL     MW 1740   2.847   1.797   0.204 -0.0465 -0.2001 -0.2820
  436SOL     OW 1741   1.326   2.716   0.385 -0.1417 -0.6611 -0.0512
  436SOL    HW1 1742   1.384   2.702   0.459  0.2183  0.8067 -1.3532
  436SOL    HW2 1743   1.277   2.805   0.400  1.3281  2.1792  1.2245
  436SOL     MW 1744   1.327   2.726   0.397  0.0997 -0.0927 -0.0547
  437SOL     OW 1745   0.849   2.952   1.361  0.0673  0.1766 -0.4611
  437SOL    HW1 1746   0.906   3.029   1.369 -0.9932 -0.0019  0.0364
  437SOL    HW2 1747   0.873   2.922   1.272  0.8759  1.2972 -0.3657
  437SOL     MW 1748   0.860   2.958   1.350  0.0341  0.3009 -0.3829
  438SOL     OW 1749   0.847   2.663   1.882 -0.3843 -0.7740  0.0379
  438SOL    HW1 1750   0.833   2.648   1.972 -1.9581  0.0812  0.0843
  438SOL    HW2 1751   0.814   2.586   1.841 -1.9408 -0.4129 -2.2424
  438SOL     MW 1752   0.841   2.651   1.888 -0.7973 -0.6135 -0.2568
  439SOL     OW 1753   1.210   2.172   0.458  0.5839  0.4341 -0.4524
  439SOL    HW1 1754   1.158   2.209   0.533  0.5217  0.8323  1.6267
  439SOL    HW2 1755   1.178   2.235   0.391 -0.7145  0.2919  1.8194
  439SOL     MW 1756   1.199   2.185   0.459  0.4044  0.4679  0.1216
  440SOL     OW 1757   1.765   3.000   3.077  0.2646  0.1636 -0.1935
  440SOL    HW1 1758   1.703   2.978   3.147  1.4211 -0.7225 -1.3888
  440SOL    HW2 1759   1.853   2.971   3.109 -1.9583  1.2954 -1.5230
  440SOL     MW 1760   1.768   2.993   3.091  0.1239  0.1960 -0.5266
  441SOL     OW 1761   0.325   2.633   0.462 -0.6081 -0.5210 -0.5304
  441SOL    HW1 1762   0.279   2.614   0.385  0.0089  0.9326 -1.0867
  441SOL    HW2 1763   0.372   2.717   0.439 -0.5343  0.9329 -1.5923
  441SOL     MW 1764   0.325   2.642   0.449 -0.5169 -0.1374 -0.7439
  442SOL     OW 1765   3.049   2.427   0.589 -0.1562  0.5697  0.1949
  442SOL    HW1 1766   3.077   2.505   0.618  0.8631  0.2607 -1.3670
  442SOL    HW2 1767   2.970   2.404   0.641  0.0701 -2.0933  0.9411
  442SOL     MW 1768   3.042   2.434   0.600  0.0082  0.1776  0.0872
  443SOL     OW 1769   1.410   1.788   1.919  0.2363  0.6382 -0.3019
  443SOL    HW1 1770   1.373   1.818   1.835 -2.5300 -2.1412 -0.0325
  443SOL    HW2 1771   1.362   1.704   1.935  1.5240  0.2757  1.0312
  443SOL     MW 1772   1.399   1.781   1.910  0.0412  0.2236 -0.0905
  444SOL     OW 1773   0.892   2.518   1.581 -0.2697  0.3927 -0.3672
  444SOL    HW1 1774   0.982   2.505   1.620 -1.2210  1.0848 -1.2396
  444SOL    HW2 1775   0.830   2.479   1.648 -1.2185  0.5771  2.9939
  444SOL     MW 1776   0.896   2.511   1.595 -0.5204  0.5083 -0.0388
  445SOL     OW 1777   0.997   0.072   1.344  0.8156  0.2855  0.1430
  445SOL    HW1 1778   0.955   0.156   1.322  0.2549  1.0332  1.3191
  445SOL    HW2 1779   1.053   0.051   1.265  1.8371 -1.3487 -1.7945
  445SOL     MW 1780   0.999   0.080   1.331  0.8764  0.1685  0.0426
  446SOL     OW 1781   2.722   2.908   1.100  0.1650  0.6484  0.2166
  446SOL    HW1 1782   2.670   2.944   1.030 -1.3150 -0.9136  0.3445
  446SOL    HW2 1783   2.758   2.822   1.064  1.0449  0.0176 -0.2309
  446SOL     MW 1784   2.720   2.901   1.086  0.0859  0.3591  0.1744
  447SOL     OW 1785   0.083   2.031   1.640  0.1190  0.1744  0.1002
  447SOL    HW1 1786   0.120   1.950   1.677  0.4268 -1.8198 -0.1041
  447SOL    HW2 1787  -0.001   1.989   1.610 -1.0118 -1.2835 -4.4268
  447SOL     MW 1788   0.077   2.015   1.641  0.0104 -0.2811 -0.5241
  448SOL     OW 1789   1.729   2.402   1.608  0.4787  0.1121 -0.5637
  448SOL    HW1 1790   1.694   2.315   1.600 -1.2728 -1.6820 -0.5259
  448SOL    HW2 1791   1.648   2.456   1.632  0.1343 -1.2913  2.7927
  448SOL     MW 1792   1.714   2.398   1.611  0.2022 -0.3098 -0.1159
  449SOL     OW 1793   0.803   2.825   0.379  0.1712 -0.0160 -0.2987
  449SOL    HW1 1794   0.776   2.815   0.282  0.7543  1.6358 -0.0194
  449SOL    HW2 1795   0.734   2.871   0.434  1.2543  2.9717  2.7957
  449SOL     MW 1796   0.791   2.830   0.374  0.3910  0.5961  0.1464
  450SOL     OW 1797   1.205   2.464   0.686  0.3141  0.4675  0.4818
  450SOL    HW1 1798   1.252   2.460   0.766 -2.9906  0.6701 -3.7728
  450SOL    HW2 1799   1.268   2.452   0.617 -0.2415  1.0820 -1.2758
  450SOL     MW 1800   1.220   2.461   0.687 -0.1952  0.5753 -0.3115
  451SOL     OW 1801   0.582   2.076   1.630 -0.0016  0.9191  0.2168
  451SOL    HW1 1802   0.658   2.125   1.610  2.6109 -2.3294  0.6143
  451SOL    HW2 1803   0.570   2.028   1.551 -0.9259 -0.0237  3.2229
  451SOL     MW 1804   0.591   2.076   1.617  0.2211  0.3661  0.6659
  452SOL     OW 1805   0.301   2.713   0.008  0.3391 -0.3638 -0.2104
  452SOL    HW1 1806   0.393   2.728  -0.023  2.2359  0.1546  0.0049
  452SOL    HW2 1807   0.247   2.754  -0.057  0.7639 -0.6119  0.4043
  452SOL     MW 1808   0.306   2.720  -0.004  0.6454 -0.3281 -0.1009
  453SOL     OW 1809   0.358   2.914   1.680  0.2192  0.8873 -0.0603
  453SOL    HW1 1810   0.445   2.914   1.720 -0.4544 -0.5470 -1.2915
  453SOL    HW2 1811   0.365   2.962   1.593  0.7500  1.1208 -1.3246
  453SOL     MW 1812   0.371   2.920   1.674  0.2003  0.7289 -0.3896
  454SOL     OW 1813   1.016   2.774   1.194 -0.0448  0.2973 -0.2278
  454SOL    HW1 1814   0.971   2.692   1.211 -2.4138  1.2742 -0.1512
  454SOL    HW2 1815   0.971   2.810   1.120 -0.0230  2.8106  1.4741
  454SOL     MW 1816   1.004   2.768   1.186 -0.3545  0.7578  0.0069
  455SOL     OW 1817   1.601   2.932   0.203  0.0927  0.2371 -0.5820
  455SOL    HW1 1818   1.655   2.941   0.280  1.5054  1.9843 -1.1197
  455SOL    HW2 1819   1.558   2.835   0.202  1.3141 -2.4313 -1.6972
  455SOL     MW 1820   1.602   2.921   0.213  0.4403  0.1155 -0.8001
  456SOL     OW 1821   2.794   0.350   1.414 -1.1815  0.1490  0.5885
  456SOL    HW1 1822   2.763   0.280   1.359 -1.5571 -1.3608  2.8099
  456SOL    HW2 1823   2.888   0.361   1.386  1.5120  0.7678  1.4565
  456SOL     MW 1824   2.802   0.343   1.403 -0.8756  0.0314  0.9961
  457SOL     OW 1825   0.979   1.576   2.910  0.2637  0.4884  0.1624
  457SOL    HW1 1826   0.924   1.512   2.960  0.2035 -2.6801 -0.8601
  457SOL    HW2 1827   1.051   1.515   2.885 -2.3665 -1.8033 -1.6351
  457SOL     MW 1828   0.981   1.559   2.913 -0.0913 -0.2320 -0.2097
  458SOL     OW 1829   1.477   1.418   0.547 -0.2728  0.4423  0.4200
  458SOL    HW1 1830   1.422   1.497   0.550  0.0389  2.5170  1.1350
  458SOL    HW2 1831   1.432   1.364   0.482  0.8236  0.2761 -0.5256
  458SOL     MW 1832   1.464   1.421   0.539 -0.0870  0.6941  0.3896
  459SOL     OW 1833   1.456   0.087   0.206 -0.3851  0.6707 -0.1837
  459SOL    HW1 1834   1.471  -0.007   0.202 -0.0039  1.0286 -1.8341
  459SOL    HW2 1835   1.372   0.088   0.161  0.9129 -0.4852 -0.3232
  459SOL     MW 1836   1.447   0.075   0.200 -0.1636  0.5654 -0.4198
  460SOL     OW 1837   1.792   2.196   0.608  0.1352 -0.3051  0.1605
  460SOL    HW1 1838   1.710   2.192   0.656  0.4591  1.3436  1.0452
  460SOL    HW2 1839   1.843   2.120   0.634  1.1398  1.9509  2.8100
  460SOL     MW 1840   1.788   2.186   0.618  0.3105  0.2101  0.6268
  461SOL     OW 1841   0.383   2.362   0.576  0.0148  0.1008 -0.2604
  461SOL    HW1 1842   0.363   2.438   0.521  1.1717  0.9872  1.7764
  461SOL    HW2 1843   0.326   2.378   0.655 -1.8838 -2.5351  2.0736
  461SOL     MW 1844   0.373   2.374   0.579 -0.0830 -0.1300  0.3163
  462SOL     OW 1845   0.416   0.323   1.291 -0.2309 -0.2070  0.5757
  462SOL    HW1 1846   0.440   0.274   1.212  1.5951 -0.8646  2.4886
  462SOL    HW2 1847   0.492   0.324   1.343  1.5863  1.3081 -1.8776
  462SOL     MW 1848   0.429   0.317   1.288  0.2498 -0.0939  0.5044
  463SOL     OW 1849   0.934   0.070   0.616  0.8907  0.2179 -0.1345
  463SOL    HW1 1850   0.951   0.113   0.532  0.3528 -1.4576  0.6657
  463SOL    HW2 1851   0.844   0.087   0.642 -1.1227  0.3322  0.4051
  463SOL     MW 1852   0.925   0.078   0.608  0.5541  0.0119  0.0423
  464SOL     OW 1853   0.846   3.060   2.298 -0.0399 -0.2026  0.2725
  464SOL    HW1 1854   0.813   2.969   2.288  1.9656  1.4594 -3.0703
  464SOL    HW2 1855   0.867   3.078   2.389  0.5628  0.6696  2.6436
  464SOL     MW 1856   0.844   3.050   2.309  0.3042  0.1317  0.1443
  465SOL     OW 1857   0.694   0.303   0.469  0.3844  0.6678 -0.0201
  465SOL    HW1 1858   0.676   0.245   0.542  3.3122 -0.0250  1.0057
  465SOL    HW2 1859   0.693   0.255   0.384 -0.3635 -1.8439  2.1770
  465SOL     MW 1860   0.691   0.289   0.467  0.6720  0.2450  0.4052
  466SOL     OW 1861   1.061   1.973   0.702  0.1436  0.6312  0.1590
  466SOL    HW1 1862   1.067   1.891   0.652 -1.2047 -1.0919 -0.3401
  466SOL    HW2 1863   1.065   2.044   0.644 -2.2277 -0.4723  0.3221
  466SOL     MW 1864   1.062   1.971   0.688 -0.3472  0.2583  0.1147
  467SOL     OW 1865   1.261   2.303   0.929 -0.2919 -0.4397  0.1122
  467SOL    HW1 1866   1.356   2.314   0.951  1.8668 -0.4134 -1.2556
  467SOL    HW2 1867   1.259   2.209   0.913  2.2301  0.9684  1.0987
  467SOL     MW 1868   1.273   2.292   0.930  0.3257 -0.2504  0.0619
  468SOL     OW 1869   0.397   2.609   1.989 -0.2307 -0.1007 -0.0651
  468SOL    HW1 1870   0.412   2.559   1.906 -0.4335  1.4595 -0.1629
  468SOL    HW2 1871   0.368   2.693   1.955  1.2098 -1.5672  1.4617
  468SOL     MW 1872   0.395   2.614   1.974 -0.0674 -0.0884  0.1234
  469SOL     OW 1873   0.365   2.187   1.776  0.2624  0.6198  0.0361
  469SOL    HW1 1874   0.289   2.127   1.796 -1.4155 -1.5969 -0.0379
  469SOL    HW2 1875   0.437   2.132   1.734  0.0750 -0.3321 -0.2852
  469SOL     MW 1876   0.364   2.172   1.773  0.0163  0.2017 -0.0160
  470SOL     OW 1877   3.046   2.602   0.068 -0.1743 -0.5941  0.3204
  470SOL    HW1 1878   2.952   2.585   0.064 -1.4945 -0.5601 -0.0284
  470SOL    HW2 1879   3.056   2.622  -0.024  0.6563  0.7376  2.1821
  470SOL     MW 1880   3.035   2.603   0.056 -0.2389 -0.4139  0.5200
  471SOL     OW 1881   1.139   2.710   1.443 -0.6006 -0.0699 -0.0244
  471SOL    HW1 1882   1.071   2.740   1.504 -0.3523  0.9827 -1.7394
  471SOL    HW2 1883   1.111   2.746   1.363  1.2183 -3.0360 -0.2900
  471SOL     MW 1884   1.126   2.718   1.441 -0.3279 -0.3224 -0.2857
  472SOL     OW 1885   2.925   2.109   0.393 -1.2811  0.0695  0.4200
  472SOL    HW1 1886   2.934   2.056   0.310  3.4879 -2.5207 -0.6432
  472SOL    HW2 1887   2.899   2.040   0.452 -1.5457 -0.7487  0.2224
  472SOL     MW 1888   2.923   2.093   0.390 -0.6868 -0.3802  0.2536
  473SOL     OW 1889   0.869   2.540   1.312 -0.1380 -0.0971 -0.3809
  473SOL    HW1 1890   0.926   2.467   1.278  0.6853  0.1047 -0.3350
  473SOL    HW2 1891   0.868   2.532   1.407 -3.5282 -0.8430  0.2322
  473SOL     MW 1892   0.876   2.529   1.320 -0.4767 -0.1689 -0.2939
  474SOL     OW 1893   0.847   2.129   1.785  1.1018 -0.3819  0.3273
  474SOL    HW1 1894   0.925   2.160   1.826 -2.6329  1.2785 -1.6105
  474SOL    HW2 1895   0.868   2.142   1.694 -1.9659 -0.7215 -1.5154
  474SOL     MW 1896   0.860   2.135   1.778  0.2043 -0.2076 -0.1715
  475SOL     OW 1897   1.650   0.019   1.424 -0.0736 -0.1143  0.3184
  475SOL    HW1 1898   1.565   0.036   1.389  0.3820 -0.7064 -0.2401
  475SOL    HW2 1899   1.645  -0.065   1.467  0.2738 -2.4552 -1.1307
  475SOL     MW 1900   1.638   0.010   1.425  0.0323 -0.5013  0.0535
  476SOL     OW 1901   1.413   2.608   0.915 -0.6508 -0.0248  0.5893
  476SOL    HW1 1902   1.356   2.677   0.964  1.6963 -0.3940 -0.0751
  476SOL    HW2 1903   1.460   2.657   0.844  1.3865  1.7358  1.4866
  476SOL     MW 1904   1.412   2.624   0.912 -0.0723  0.1588  0.6200
  477SOL     OW 1905   0.772   2.527   0.628 -0.1035  0.1852  0.2646
  477SOL    HW1 1906   0.839   2.573   0.579 -1.5238 -1.5109 -0.8570
  477SOL    HW2 1907   0.750   2.445   0.579 -1.6562  0.7995 -0.4229
  477SOL     MW 1908   0.778   2.522   0.615 -0.4957  0.0424  0.0259
  478SOL     OW 1909   0.126   2.722   0.924  0.1879  0.3175  0.1780
  478SOL    HW1 1910   0.200   2.790   0.932  0.9292  0.1047  0.6142
  478SOL    HW2 1911   0.151   2.681   0.848 -0.5017 -1.9105  1.6860
  478SOL     MW 1912   0.139   2.726   0.915  0.1947 -0.0046  0.4345
  479SOL     OW 1913   1.428   1.969   1.290 -0.1084  0.3818 -0.5857
  479SOL    HW1 1914   1.391   2.021   1.363  1.2188 -1.5918 -0.0126
  479SOL    HW2 1915   1.505   1.919   1.335 -1.2837  1.4807  0.4732
  479SOL     MW 1916   1.433   1.969   1.305 -0.0883  0.2664 -0.3704
  480SOL     OW 1917   1.888   2.326   1.348 -0.1799  0.4805 -0.1756
  480SOL    HW1 1918   1.904   2.229   1.349  1.7256  0.9275 -0.2029
  480SOL    HW2 1919   1.910   2.352   1.262 -1.2055  2.6368  1.4630
  480SOL     MW 1920   1.893   2.317   1.337 -0.0638  0.8240  0.0370
  481SOL     OW 1921   1.042   3.090   1.098 -1.1371  0.5823 -0.7328
  481SOL    HW1 1922   1.113   3.043   1.052 -0.9978 -0.8080 -1.2554
  481SOL    HW2 1923   1.079   3.174   1.100 -0.8131  0.2635  1.7238
  481SOL     MW 1924   1.056   3.095   1.092 -1.0760  0.3568 -0.4777
  482SOL     OW 1925   0.969   3.025   0.326  0.4405 -0.6349 -0.2536
  482SOL    HW1 1926   0.900   2.956   0.332  0.8092  1.5905 -1.1610
  482SOL    HW2 1927   0.959   3.070   0.243  0.2399 -0.0264 -0.7538
  482SOL     MW 1928   0.959   3.022   0.316  0.4627 -0.2610 -0.4394
  483SOL     OW 1929   0.396   2.899   0.444  0.4178  0.2748 -0.4191
  483SOL    HW1 1930   0.300   2.901   0.416 -1.2833  0.9036 -1.3221
  483SOL    HW2 1931   0.392   2.947   0.529  1.0993  1.2910 -0.1838
  483SOL     MW 1932   0.383   2.906   0.452  0.2833  0.4919 -0.5072
  484SOL     OW 1933   1.661   1.871   1.390  0.6531  0.6518 -0.4612
  484SOL    HW1 1934   1.706   1.954   1.367  0.3398  0.7742  1.0666
  484SOL    HW2 1935   1.669   1.870   1.485  0.9148 -0.2411 -0.4296
  484SOL     MW 1936   1.668   1.882   1.399  0.6463  0.5502 -0.2555
  485SOL     OW 1937   0.555   2.453   0.248 -0.0970 -0.1669 -0.3925
  485SOL    HW1 1938   0.565   2.433   0.335  0.0363 -1.0404 -4.0310
  485SOL    HW2 1939   0.466   2.496   0.254  0.2068 -0.2796 -1.7652
  485SOL     MW 1940   0.545   2.456   0.260 -0.0393 -0.2970 -1.0537
  486SOL     OW 1941   0.123   2.401   1.463  0.0203 -0.5723  1.0570
  486SOL    HW1 1942   0.149   2.488   1.422 -0.0488 -0.2167 -0.1135
  486SOL    HW2 1943   0.111   2.426   1.555 -3.9220 -0.9938 -0.3374
  486SOL     MW 1944   0.125   2.415   1.469 -0.5089 -0.5810  0.7186
  487SOL     OW 1945   1.283   1.610   1.032  0.4139  0.4711 -0.7314
  487SOL    HW1 1946   1.258   1.698   1.059 -2.6819 -0.8564  2.1219
  487SOL    HW2 1947   1.362   1.623   0.980 -2.8203  1.0395  3.2313
  487SOL     MW 1948   1.290   1.623   1.029 -0.4213  0.3710  0.1679
  488SOL     OW 1949   1.686   1.862   0.555 -0.3373  0.0410  0.5345
  488SOL    HW1 1950   1.769   1.900   0.536  0.8477 -0.1806  3.2838
  488SOL    HW2 1951   1.625   1.937   0.553 -1.7756 -1.8930 -1.5189
  488SOL     MW 1952   1.689   1.877   0.552 -0.3707 -0.2434  0.6263
  489SOL     OW 1953   0.676   0.769   0.556 -0.0383  0.2013 -0.2757
  489SOL    HW1 1954   0.733   0.705   0.520  1.2727  0.2689  0.0313
  489SOL    HW2 1955   0.680   0.770   0.647 -0.3359 -0.6475 -0.4901
  489SOL     MW 1956   0.684   0.761   0.563  0.0954  0.0982 -0.2635
  490SOL     OW 1957   1.449   2.013   0.420  0.4607 -0.1131  0.1420
  490SOL    HW1 1958   1.512   2.041   0.361 -3.8121 -1.1183 -0.0673
  490SOL    HW2 1959   1.385   2.085   0.430 -1.4130  1.3624 -0.1363
  490SOL     MW 1960   1.449   2.026   0.414 -0.3503 -0.0510  0.0777
  491SOL     OW 1961   1.188   2.950   0.476  0.0554 -0.2334  0.1111
  491SOL    HW1 1962   1.201   2.985   0.560 -0.0927 -2.2377 -0.7332
  491SOL    HW2 1963   1.107   2.986   0.443  1.3641 -1.6189 -1.2077
  491SOL     MW 1964   1.179   2.959   0.482  0.2085 -0.6806 -0.1743
  492SOL     OW 1965   1.509   2.055   0.674 -0.3076  0.0435  0.3332
  492SOL    HW1 1966   1.455   2.030   0.600  0.7638 -2.4244 -2.4085
  492SOL    HW2 1967   1.467   2.020   0.748 -0.1623  0.8565 -0.8865
  492SOL     MW 1968   1.496   2.047   0.674 -0.1471 -0.1748 -0.1895
  493SOL     OW 1969   0.148   2.939   0.343  0.5956  0.2131  0.3133
  493SOL    HW1 1970   0.114   3.001   0.414  0.2589  1.4670 -0.7113
  493SOL    HW2 1971   0.183   3.000   0.280 -1.3807  1.3861 -1.2835
  493SOL     MW 1972   0.148   2.955   0.344  0.2904  0.5333 -0.0326
  494SOL     OW 1973   0.392   2.461   1.751  0.1611 -0.3187  0.9908
  494SOL    HW1 1974   0.372   2.365   1.757 -0.4679  0.5134 -1.9935
  494SOL    HW2 1975   0.447   2.459   1.672  1.8133  0.9653 -1.8172
  494SOL     MW 1976   0.396   2.448   1.741  0.2961 -0.0395  0.2265
  495SOL     OW 1977   2.914   1.710   2.628 -0.2059 -0.0686 -0.8814
  495SOL    HW1 1978   2.885   1.801   2.605 -1.0677  2.2366  2.3396
  495SOL    HW2 1979   2.896   1.695   2.721  1.7753 -1.7222 -1.7321
  495SOL     MW 1980   2.908   1.720   2.638 -0.0582  0.0174 -0.5686
  496SOL     OW 1981   2.870   2.297   2.666  0.3065  0.5741  0.1631
  496SOL    HW1 1982   2.885   2.209   2.689 -2.0398  2.7458  0.0228
  496SOL    HW2 1983   2.952   2.358   2.661  0.5781 -1.2077 -1.0024
  496SOL     MW 1984   2.883   2.293   2.668  0.0328  0.6255 -0.0092
  497SOL     OW 1985   1.598   2.276   2.632  0.1605 -0.0896  0.2591
  497SOL    HW1 1986   1.527   2.238   2.579  0.4983  0.5433  0.1356
  497SOL    HW2 1987   1.617   2.215   2.703 -0.7817 -0.2797 -0.5507
  497SOL     MW 1988   1.591   2.263   2.634  0.0808 -0.0312  0.1360
  498SOL     OW 1989   1.532   2.723   2.387  0.2632  0.2122  0.0700
  498SOL    HW1 1990   1.562   2.645   2.337 -1.6134 -3.7773 -1.9071
  498SOL    HW2 1991   1.582   2.723   2.473 -3.9387 -1.4414  0.9367
  498SOL     MW 1992   1.543   2.713   2.392 -0.5388 -0.5324 -0.0765
  499SOL     OW 1993   0.913   0.076   0.044  0.1957 -0.9343 -0.2076
  499SOL    HW1 1994   0.832   0.084   0.089  0.3065  3.3465 -0.3505
  499SOL    HW2 1995   0.916  -0.018   0.002 -0.6977 -0.0150  0.0729
  499SOL     MW 1996   0.903   0.064   0.045  0.0925 -0.2482 -0.1895
  500SOL     OW 1997   1.108   2.495   2.742 -0.0244  0.4423 -0.6935
  500SOL    HW1 1998   1.140   2.449   2.821 -0.3581  0.8132  1.3051
  500SOL    HW2 1999   1.061   2.563   2.793  1.0784  2.7893  1.7420
  500SOL     MW 2000   1.106   2.498   2.759  0.0770  0.8009 -0.1085
  501SOL     OW 2001   1.725   2.255  -0.003 -0.0993 -0.5809 -0.7521
  501SOL    HW1 2002   1.699   2.342   0.043  0.5779  0.4632 -1.5769
  501SOL    HW2 2003   1.820   2.268   0.002 -0.7903  2.4581  1.5238
  501SOL     MW 2004   1.734   2.268   0.004 -0.1011 -0.0422 -0.5606
  502SOL     OW 2005   0.058   2.810   2.959 -0.3249 -0.4494 -0.2763
  502SOL    HW1 2006  -0.002   2.752   2.905  0.4890  0.5471  1.9902
  502SOL    HW2 2007   0.080   2.886   2.897 -0.7796  0.1337  0.1253
  502SOL     MW 2008   0.053   2.812   2.944 -0.2775 -0.2409  0.0757
  503SOL     OW 2009   1.112   2.656   1.982 -0.3248  0.3260  0.6081
  503SOL    HW1 2010   1.184   2.718   1.951  0.2768 -0.3217  1.6615
  503SOL    HW2 2011   1.041   2.638   1.919  0.0307 -0.7177 -2.4335
  503SOL     MW 2012   1.112   2.662   1.969 -0.1985  0.1028  0.3458
  504SOL     OW 2013   0.034   2.689   2.073 -0.4184 -0.0038 -0.0725
  504SOL    HW1 2014   0.098   2.624   2.054 -3.6138  0.2322 -0.1627
  504SOL    HW2 2015  -0.043   2.636   2.057  1.9112  0.1941  0.0778
  504SOL     MW 2016   0.032   2.673   2.068 -0.5326  0.0534 -0.0646
  505SOL     OW 2017   1.651   2.639   2.794 -0.0455 -0.3112  0.0085
  505SOL    HW1 2018   1.708   2.638   2.720 -0.3991 -0.0387  1.5065
  505SOL    HW2 2019   1.612   2.725   2.788  0.2583 -0.7057  1.2541
  505SOL     MW 2020   1.653   2.650   2.784 -0.0521 -0.3273  0.3705
  506SOL     OW 2021   1.605   3.083   2.856  0.0432 -0.0641  0.0352
  506SOL    HW1 2022   1.646   3.045   2.934  1.4898 -3.3955 -2.7745
  506SOL    HW2 2023   1.679   3.114   2.801 -1.9724 -0.7946  1.4713
  506SOL     MW 2024   1.620   3.082   2.859 -0.0319 -0.6000 -0.1461
  507SOL     OW 2025   0.934   2.677   2.859 -0.0624 -0.7413  0.0395
  507SOL    HW1 2026   0.969   2.721   2.779  0.5299  0.2726  0.8983
  507SOL    HW2 2027   0.838   2.676   2.853 -1.2765 -0.0649 -3.0059
  507SOL     MW 2028   0.926   2.683   2.847 -0.1445 -0.5183 -0.2490
  508SOL     OW 2029   1.205   2.126   2.501 -0.2871 -0.2531 -0.0505
  508SOL    HW1 2030   1.256   2.105   2.585 -1.5521 -0.4492 -0.6159
  508SOL    HW2 2031   1.128   2.174   2.529 -2.2721  4.0433  0.5222
  508SOL     MW 2032   1.202   2.129   2.516 -0.7159  0.2879 -0.0495
  509SOL     OW 2033   0.607   2.606   2.773 -0.3497  0.1204 -0.3165
  509SOL    HW1 2034   0.634   2.556   2.699  0.6771  0.1382 -0.2002
  509SOL    HW2 2035   0.512   2.605   2.765  2.1733 -0.3908 -1.2505
  509SOL     MW 2036   0.598   2.599   2.762  0.1186  0.0553 -0.4244
  510SOL     OW 2037   1.501   2.604   1.677 -0.5080 -0.1648 -0.0942
  510SOL    HW1 2038   1.522   2.697   1.639  0.4086  1.9071  0.3130
  510SOL    HW2 2039   1.463   2.627   1.761 -0.4988 -2.7594  0.3442
  510SOL     MW 2040   1.498   2.619   1.683 -0.3858 -0.2337  0.0174
  511SOL     OW 2041   0.433   2.632   2.443  0.0024  0.2174 -0.4487
  511SOL    HW1 2042   0.523   2.579   2.458  2.8007 -2.8646 -0.0079
  511SOL    HW2 2043   0.456   2.683   2.362 -1.5212 -1.4286  0.0400
  511SOL     MW 2044   0.448   2.632   2.434  0.1706 -0.4064 -0.3261
  512SOL     OW 2045   0.954   2.021   2.794  0.4661 -0.2935 -0.0721
  512SOL    HW1 2046   0.896   2.078   2.855 -1.0971 -1.2142  1.7310
  512SOL    HW2 2047   0.973   1.946   2.848  1.4948  2.6196 -0.4636
  512SOL     MW 2048   0.949   2.019   2.809  0.3956 -0.0306  0.1141
  513SOL     OW 2049   1.629   2.489   2.267  0.2317  0.2427  0.3044
  513SOL    HW1 2050   1.695   2.502   2.202  1.2312 -1.1860  1.7983
  513SOL    HW2 2051   1.666   2.421   2.326  0.7690  0.1640  0.1429
  513SOL     MW 2052   1.642   2.481   2.266  0.4345  0.0439  0.4802
  514SOL     OW 2053   0.258   2.495   2.611 -0.5276 -0.4748  0.7418
  514SOL    HW1 2054   0.305   2.539   2.531  0.7303  3.2164  0.5773
  514SOL    HW2 2055   0.322   2.484   2.679 -0.0675 -0.8869 -3.4039
  514SOL     MW 2056   0.273   2.499   2.610 -0.3009 -0.0422  0.1731
  515SOL     OW 2057   1.154   2.014   2.007  0.4197 -0.1566  0.0093
  515SOL    HW1 2058   1.131   2.097   1.964 -1.9360  2.4778  1.3780
  515SOL    HW2 2059   1.242   2.035   2.047  0.6669  0.9521  1.6476
  515SOL     MW 2060   1.162   2.028   2.007  0.1415  0.3373  0.4061
  516SOL     OW 2061   1.462   2.484   0.008 -0.1172  0.4602  0.2595
  516SOL    HW1 2062   1.467   2.431  -0.076 -2.1435 -0.5970 -0.1545
  516SOL    HW2 2063   1.422   2.561  -0.032  0.8151 -0.1300 -0.2370
  516SOL     MW 2064   1.457   2.487  -0.009 -0.2615  0.2428  0.1394
  517SOL     OW 2065   0.552   2.452   2.214  0.4254 -0.3110 -0.6480
  517SOL    HW1 2066   0.475   2.499   2.253 -0.1114  3.1549 -3.4851
  517SOL    HW2 2067   0.506   2.392   2.140 -1.2741 -0.6772  2.1100
  517SOL     MW 2068   0.536   2.450   2.209  0.1304  0.0980 -0.6584
  518SOL     OW 2069   1.806   0.168   3.077  0.2672  0.7650  0.1631
  518SOL    HW1 2070   1.752   0.206   3.146 -0.4288 -1.1230 -1.3780
  518SOL    HW2 2071   1.775   0.073   3.078 -2.9011  1.3095 -1.5233
  518SOL     MW 2072   1.795   0.160   3.086 -0.2426  0.5878 -0.2628
  519SOL     OW 2073   0.729   2.413   1.759  0.1450  0.1091 -0.3798
  519SOL    HW1 2074   0.771   2.329   1.773 -0.0274 -1.2821  0.2561
  519SOL    HW2 2075   0.669   2.400   1.683 -2.0529  1.0043  2.0560
  519SOL     MW 2076   0.727   2.400   1.751 -0.1678  0.0437  0.0255
  520SOL     OW 2077   1.163   2.130   2.970 -0.6095  0.4416  0.0141
  520SOL    HW1 2078   1.109   2.052   2.955  2.3384 -1.9615  3.3433
  520SOL    HW2 2079   1.199   2.109   3.061  1.2198  1.2514  1.7057
  520SOL     MW 2080   1.161   2.117   2.980  0.0208  0.2314  0.6766
  521SOL     OW 2081   1.737   1.983   2.158 -0.5717  0.2863 -0.1005
  521SOL    HW1 2082   1.766   2.000   2.071 -0.1580  0.6765  0.1077
  521SOL    HW2 2083   1.766   1.893   2.164  1.9157 -0.1288 -0.9014
  521SOL     MW 2084   1.745   1.974   2.147 -0.1889  0.2830 -0.1787
  522SOL     OW 2085   2.907   2.524   2.261 -0.0010  0.0743  0.3236
  522SOL    HW1 2086   2.979   2.448   2.252 -1.2275 -0.9858  0.8351
  522SOL    HW2 2087   2.954   2.604   2.279 -0.9206 -1.3304 -2.6354
  522SOL     MW 2088   2.923   2.524   2.262 -0.2842 -0.2509  0.0007
  523SOL     OW 2089   0.944   1.573   2.139  0.1788  0.7954  0.0075
  523SOL    HW1 2090   0.900   1.591   2.058 -0.6780 -0.8131 -1.6311
  523SOL    HW2 2091   0.999   1.497   2.117 -1.6440  0.2364  2.8725
  523SOL     MW 2092   0.946   1.565   2.126 -0.1748  0.5094  0.1693
  524SOL     OW 2093   0.644   2.407   2.975  0.7404  0.1833 -0.5052
  524SOL    HW1 2094   0.666   2.470   2.904 -1.6113 -0.9696  1.4004
  524SOL    HW2 2095   0.693   2.333   2.942 -2.1205  2.1945  0.7181
  524SOL     MW 2096   0.653   2.406   2.961  0.0527  0.2965 -0.0924
  525SOL     OW 2097   0.434   2.288   2.044 -0.5980 -0.3048 -0.0786
  525SOL    HW1 2098   0.387   2.223   2.095  0.0972 -0.1697  3.5719
  525SOL    HW2 2099   0.431   2.264   1.944 -0.4978 -1.2116 -2.0905
  525SOL     MW 2100   0.428   2.277   2.037 -0.4931 -0.4066  0.1376
  526SOL     OW 2101   0.673   2.005   1.968  0.3103 -0.8654 -0.0907
  526SOL    HW1 2102   0.725   2.021   1.895  1.9490 -1.0458  1.7982
  526SOL    HW2 2103   0.696   2.073   2.033  0.6103 -0.6529 -0.1103
  526SOL     MW 2104   0.683   2.016   1.967  0.5661 -0.8612  0.1560
  527SOL     OW 2105   1.418   2.023   2.090  0.0988  0.0251 -0.6405
  527SOL    HW1 2106   1.395   2.015   2.185 -0.9237  0.9370 -0.7920
  527SOL    HW2 2107   1.438   1.936   2.052 -0.9304 -2.1235 -0.0848
  527SOL     MW 2108   1.418   2.010   2.098 -0.1719 -0.1381 -0.5872
  528SOL     OW 2109   0.718   2.877   2.859  0.1083 -0.1196 -0.2378
  528SOL    HW1 2110   0.708   2.968   2.889 -2.0214 -2.0512  0.5971
  528SOL    HW2 2111   0.662   2.880   2.781 -0.0311 -1.7181  0.4234
  528SOL     MW 2112   0.709   2.890   2.852 -0.1911 -0.5853 -0.0404
  529SOL     OW 2113   1.097   2.244   1.896  0.1979 -0.7166  0.6247
  529SOL    HW1 2114   1.063   2.287   1.974 -1.7654  0.4888  0.5816
  529SOL    HW2 2115   1.158   2.310   1.851 -1.4953 -2.4956 -1.5229
  529SOL     MW 2116   1.101   2.258   1.900 -0.2845 -0.7923  0.3357
  530SOL     OW 2117   1.145   2.413   3.022 -0.2814 -0.8540 -0.5508
  530SOL    HW1 2118   1.172   2.407   3.113  2.0751  0.9888 -0.0031
  530SOL    HW2 2119   1.133   2.321   2.997  1.5827  0.2812 -3.7640
  530SOL     MW 2120   1.147   2.400   3.031  0.2754 -0.4611 -0.9025
  531SOL     OW 2121   0.939   1.873   2.570 -0.5777 -0.0054  0.5460
  531SOL    HW1 2122   0.925   1.956   2.624  0.0907  2.4876  0.2746
  531SOL    HW2 2123   0.929   1.794   2.629  1.0522  1.3733  0.9777
  531SOL     MW 2124   0.936   1.874   2.585 -0.2745  0.5054  0.5672
  532SOL     OW 2125   1.731   0.344   2.834  1.1120  0.0689 -0.2606
  532SOL    HW1 2126   1.743   0.273   2.894 -0.3867 -2.5229 -2.2239
  532SOL    HW2 2127   1.821   0.368   2.822 -2.3629 -2.3879 -0.4491
  532SOL     MW 2128   1.744   0.338   2.840  0.4558 -0.5972 -0.5445
  533SOL     OW 2129   1.848   2.666   2.992  0.5194 -0.3831  0.3574
  533SOL    HW1 2130   1.838   2.601   3.064 -0.3494 -2.0766  3.6046
  533SOL    HW2 2131   1.769   2.648   2.940  3.1715  1.0939  1.1384
  533SOL     MW 2132   1.837   2.655   2.994  0.7547 -0.4117  0.8889
  534SOL     OW 2133   1.788   2.376   2.473 -0.3020  1.0790  0.2123
  534SOL    HW1 2134   1.722   2.321   2.526 -3.5778  0.7298 -0.9119
  534SOL    HW2 2135   1.846   2.399   2.543  0.6149 -2.5031 -0.3910
  534SOL     MW 2136   1.787   2.372   2.489 -0.6132  0.5603 -0.0156
  535SOL     OW 2137   1.863   2.369   1.836  0.2191  0.1656 -0.4995
  535SOL    HW1 2138   1.818   2.396   1.755 -0.6824 -1.4509  0.7392
  535SOL    HW2 2139   1.953   2.404   1.834  0.6206 -1.5345  0.9740
  535SOL     MW 2140   1.869   2.377   1.825  0.1531 -0.2720 -0.1416
  536SOL     OW 2141   0.437   1.878   2.038  0.3583 -0.2839  0.5709
  536SOL    HW1 2142   0.410   1.811   1.979 -1.3771  2.3943 -2.7527
  536SOL    HW2 2143   0.523   1.906   1.997  0.6634 -2.6306  0.3859
  536SOL     MW 2144   0.444   1.873   2.025  0.1696 -0.2402  0.1080
  537SOL     OW 2145   1.009   0.164   2.868  0.2676  0.5365 -0.6769
  537SOL    HW1 2146   0.997   0.185   2.961 -1.8974  0.7281  0.8739
  537SOL    HW2 2147   1.025   0.246   2.825 -1.2951 -1.9130  2.0980
  537SOL     MW 2148   1.010   0.178   2.874 -0.2242  0.2386 -0.1062
  538SOL     OW 2149   1.367   0.043   2.982 -0.3209 -0.5654  0.1831
  538SOL    HW1 2150   1.329   0.128   2.963  0.3484  0.5546 -0.0181
  538SOL    HW2 2151   1.450   0.041   2.933 -0.4909  0.5652  0.1338
  538SOL     MW 2152   1.373   0.054   2.973 -0.2550 -0.2685  0.1500
  539SOL     OW 2153   0.758   2.762   2.538 -0.2608  0.0576  0.0078
  539SOL    HW1 2154   0.855   2.784   2.560 -0.5839  1.2516  1.8185
  539SOL    HW2 2155   0.740   2.674   2.568  2.6288 -1.5565 -2.4507
  539SOL     MW 2156   0.768   2.753   2.545  0.0778  0.0022 -0.0777
  540SOL     OW 2157   0.399   2.407   2.826  0.5322  0.2376 -0.1915
  540SOL    HW1 2158   0.480   2.396   2.871 -1.8558  1.8350  0.6369
  540SOL    HW2 2159   0.335   2.400   2.896  1.7864  1.3044 -0.1042
  540SOL     MW 2160   0.401   2.405   2.841  0.3826  0.5891 -0.0707
  541SOL     OW 2161   0.189   2.948   2.214  0.4747  0.2919  0.0212
  541SOL    HW1 2162   0.207   2.874   2.155 -0.8992 -2.7901 -0.5184
  541SOL    HW2 2163   0.239   2.924   2.297  1.1231 -2.1905  2.3716
  541SOL     MW 2164   0.198   2.935   2.217  0.3790 -0.4423  0.2601
  542SOL     OW 2165   1.007   2.267   2.629 -0.0378  0.6932  0.1772
  542SOL    HW1 2166   1.004   2.197   2.691  0.4917  1.3017  4.1188
  542SOL    HW2 2167   1.048   2.345   2.671  1.6007 -0.9351  0.0126
  542SOL     MW 2168   1.012   2.268   2.643  0.2483  0.5586  0.6756
  543SOL     OW 2169   1.442   2.451   2.813  0.2616 -0.2774  0.1515
  543SOL    HW1 2170   1.455   2.390   2.736  0.6934 -1.1706  2.1288
  543SOL    HW2 2171   1.528   2.501   2.810  0.9481 -0.2648 -1.8812
  543SOL     MW 2172   1.455   2.449   2.802  0.4092 -0.3936  0.1442
  544SOL     OW 2173   0.737   0.199   2.716 -0.0194  0.1241  0.7834
  544SOL    HW1 2174   0.641   0.227   2.693 -3.7625  1.4334  0.5663
  544SOL    HW2 2175   0.768   0.133   2.654  0.0694  1.7271  0.5816
  544SOL     MW 2176   0.728   0.194   2.705 -0.5015  0.5083  0.7281
  545SOL     OW 2177   1.568   2.190   2.324  0.2537  0.1217 -0.3776
  545SOL    HW1 2178   1.507   2.215   2.255  0.5322  2.1450  1.9419
  545SOL    HW2 2179   1.636   2.142   2.277 -0.7065  1.3605  0.0583
  545SOL     MW 2180   1.569   2.187   2.309  0.1638  0.5521 -0.0141
  546SOL     OW 2181   3.012   1.989   0.125 -0.0582 -0.4579 -0.4284
  546SOL    HW1 2182   2.992   2.058   0.066 -0.4943 -0.2573  1.9275
  546SOL    HW2 2183   3.102   1.970   0.105  1.5559  0.2776  0.6385
  546SOL     MW 2184   3.021   1.996   0.114  0.0972 -0.3344  0.0232
  547SOL     OW 2185   0.299   3.026   0.117 -0.1002  0.8802 -0.2200
  547SOL    HW1 2186   0.329   3.072   0.033 -3.0739 -0.5174  0.4563
  547SOL    HW2 2187   0.270   2.933   0.093  0.2650  0.2858 -1.9118
  547SOL     MW 2188   0.299   3.020   0.103 -0.4443  0.6174 -0.3540
  548SOL     OW 2189   0.271   2.544   0.210 -0.0107 -0.3340 -0.0986
  548SOL    HW1 2190   0.267   2.609   0.137  0.7696 -1.7881  1.1454
  548SOL    HW2 2191   0.249   2.462   0.174  3.0698 -0.0026  1.7742
  548SOL     MW 2192   0.268   2.542   0.196  0.4987 -0.4821  0.3126
  549SOL     OW 2193   0.867   1.868   2.144 -0.0460 -0.1108 -0.7201
  549SOL    HW1 2194   0.814   1.933   2.099  0.9310 -1.3434 -0.1629
  549SOL    HW2 2195   0.836   1.856   2.238 -5.6295 -1.6582  0.2476
  549SOL     MW 2196   0.856   1.875   2.150 -0.6538 -0.4776 -0.5189
  550SOL     OW 2197   1.777   1.699   2.595 -0.3501  0.0509  0.5051
  550SOL    HW1 2198   1.788   1.692   2.495  0.1352  0.6227  1.1168
  550SOL    HW2 2199   1.751   1.785   2.625  0.6057 -1.0186 -0.4927
  550SOL     MW 2200   1.775   1.709   2.586 -0.1600 -0.0148  0.4542
  551SOL     OW 2201   0.882   2.258   0.230 -0.2757 -0.0262 -0.4077
  551SOL    HW1 2202   0.976   2.265   0.219 -0.2678 -0.7790  1.7899
  551SOL    HW2 2203   0.840   2.181   0.190  0.0306  0.7189 -0.1201
  551SOL     MW 2204   0.889   2.249   0.223 -0.2342 -0.0272 -0.0798
  552SOL     OW 2205   1.791   1.709   2.300  0.2764 -0.2421  0.9631
  552SOL    HW1 2206   1.691   1.702   2.325 -1.9628  0.2216 -0.1917
  552SOL    HW2 2207   1.782   1.647   2.216  1.0376 -5.8704 -3.1347
  552SOL     MW 2208   1.776   1.700   2.292  0.0814 -0.9235  0.2701
  553SOL     OW 2209   1.201   2.315   1.465  0.6237  0.0330  0.4503
  553SOL    HW1 2210   1.248   2.234   1.484 -3.2639  0.9681  0.2166
  553SOL    HW2 2211   1.265   2.381   1.438  1.5328 -1.7287  1.4137
  553SOL     MW 2212   1.216   2.313   1.464  0.2307 -0.0760  0.5466
  554SOL     OW 2213   0.538   2.908   2.640  0.0552  0.0737 -0.0343
  554SOL    HW1 2214   0.531   2.991   2.606 -0.9688 -2.8637 -0.2176
  554SOL    HW2 2215   0.600   2.863   2.582  0.0699 -1.0290  0.4210
  554SOL     MW 2216   0.545   2.913   2.628 -0.0780 -0.4594  0.0016
  555SOL     OW 2217   0.657   2.502   2.524  0.5637 -0.8642 -0.1132
  555SOL    HW1 2218   0.625   2.416   2.544  2.4609  2.4876  0.2166
  555SOL    HW2 2219   0.736   2.484   2.468  0.6501  1.9856  2.1607
  555SOL     MW 2220   0.663   2.488   2.520  0.8254 -0.0459  0.2303
  556SOL     OW 2221   0.954   1.838   0.138 -0.4117  0.9456  0.0636
  556SOL    HW1 2222   1.001   1.846   0.053  1.9724  2.3875  0.3931
  556SOL    HW2 2223   1.025   1.864   0.193 -2.0672  0.1700  0.1322
  556SOL     MW 2224   0.970   1.842   0.134 -0.3155  1.0335  0.1162
  557SOL     OW 2225   0.980   2.664   0.516 -0.1629 -0.1647 -0.7711
  557SOL    HW1 2226   1.033   2.617   0.456  0.0113  1.1526 -0.7283
  557SOL    HW2 2227   0.922   2.719   0.455 -0.3154  1.6866 -0.4298
  557SOL     MW 2228   0.979   2.665   0.500 -0.1601  0.2534 -0.7204
  558SOL     OW 2229   0.260   2.272   3.031 -0.3823  1.0287  0.0343
  558SOL    HW1 2230   0.210   2.216   2.973 -1.3572 -0.4558  0.4324
  558SOL    HW2 2231   0.188   2.294   3.092 -1.5909  0.8834  1.9561
  558SOL     MW 2232   0.244   2.267   3.031 -0.6704  0.8136  0.3404
  559SOL     OW 2233   1.002   2.350   2.134 -0.3552  0.1172  0.2143
  559SOL    HW1 2234   1.051   2.418   2.184  1.5506 -1.8166  0.9266
  559SOL    HW2 2235   0.986   2.280   2.199  2.5776  0.1511 -4.7411
  559SOL     MW 2236   1.006   2.349   2.149  0.2832 -0.1335 -0.3455
  560SOL     OW 2237   2.002   2.872   0.043  0.7480  0.3885 -0.2972
  560SOL    HW1 2238   2.065   2.910  -0.019 -2.7722  0.9082 -1.4894
  560SOL    HW2 2239   1.962   2.802  -0.006  1.1878 -1.4248 -0.8594
  560SOL     MW 2240   2.005   2.868   0.028  0.3416  0.2178 -0.5287
  561SOL     OW 2241   0.397   2.204   0.159 -0.1345 -0.2605 -0.5642
  561SOL    HW1 2242   0.346   2.232   0.076 -0.7433  2.3875 -2.4411
  561SOL    HW2 2243   0.473   2.266   0.157  2.8314  1.2878  0.4746
  561SOL     MW 2244   0.400   2.216   0.148  0.1765  0.2931 -0.6748
  562SOL     OW 2245   0.725   2.170   2.180 -0.6505 -0.1949 -0.4826
  562SOL    HW1 2246   0.696   2.264   2.176 -1.9169  0.4711 -2.0359
  562SOL    HW2 2247   0.801   2.163   2.239  1.8451  1.0539 -0.0537
  562SOL     MW 2248   0.731   2.182   2.187 -0.4883  0.0577 -0.6309
  563SOL     OW 2249   1.198   0.302   0.561  0.2590 -0.0189 -0.0176
  563SOL    HW1 2250   1.117   0.274   0.516  0.5480  1.3129  1.4322
  563SOL    HW2 2251   1.193   0.248   0.636 -0.0860  0.3865 -1.6828
  563SOL     MW 2252   1.187   0.291   0.565  0.2516  0.2103 -0.0460
  564SOL     OW 2253   1.058   2.572   2.259  0.2515 -0.7265  0.2835
  564SOL    HW1 2254   1.082   2.612   2.171  2.8833 -3.6895  2.6653
  564SOL    HW2 2255   1.113   2.615   2.331 -0.9537  1.5004  1.0901
  564SOL     MW 2256   1.069   2.583   2.257  0.4397 -0.8236  0.7042
  565SOL     OW 2257   2.859   2.739   2.662 -0.9271 -0.0307 -0.2936
  565SOL    HW1 2258   2.910   2.815   2.629  0.6864 -1.0146 -1.0712
  565SOL    HW2 2259   2.803   2.701   2.589 -2.8208 -0.2945 -0.5384
  565SOL     MW 2260   2.858   2.744   2.648 -0.9640 -0.1953 -0.4285
  566SOL     OW 2261   2.195   1.864   2.330  0.1094  0.0286 -0.8629
  566SOL    HW1 2262   2.246   1.843   2.252  1.6117 -1.2936  0.2453
  566SOL    HW2 2263   2.209   1.962   2.336  0.8494 -1.8846  2.3348
  566SOL     MW 2264   2.203   1.874   2.321  0.4052 -0.3982 -0.2948
  567SOL     OW 2265   1.205   2.899   2.943  0.4474  0.2392  0.9282
  567SOL    HW1 2266   1.279   2.954   2.949 -2.8944  1.9597 -2.7252
  567SOL    HW2 2267   1.226   2.805   2.947 -1.9965  0.3154  1.0347
  567SOL     MW 2268   1.217   2.894   2.945 -0.3159  0.4763  0.4602
  568SOL     OW 2269   1.608   2.138   2.877  0.0795 -0.7226 -0.3539
  568SOL    HW1 2270   1.665   2.201   2.923 -1.9307 -1.9007  0.1006
  568SOL    HW2 2271   1.661   2.072   2.829 -0.4468  0.1497  4.1458
  568SOL     MW 2272   1.623   2.138   2.876 -0.2551 -0.7629  0.2998
  569SOL     OW 2273   0.185   2.271   2.466 -0.5254  0.9897 -0.0365
  569SOL    HW1 2274   0.114   2.308   2.414 -4.3249  0.5540 -0.3661
  569SOL    HW2 2275   0.210   2.338   2.531  2.4616  0.1901 -0.3096
  569SOL     MW 2276   0.179   2.285   2.467 -0.6326  0.8267 -0.1160
  570SOL     OW 2277   1.455   0.374   0.497 -0.3275 -0.2608 -0.3413
  570SOL    HW1 2278   1.361   0.337   0.517 -1.5933 -3.1341  0.0284
  570SOL    HW2 2279   1.495   0.393   0.585 -1.6538 -1.1532  0.8186
  570SOL     MW 2280   1.448   0.371   0.511 -0.6695 -0.7576 -0.1395
  571SOL     OW 2281   1.511   2.453   2.006  0.0685  0.1877  0.0210
  571SOL    HW1 2282   1.522   2.428   2.098 -0.9262  0.7214  0.2641
  571SOL    HW2 2283   1.526   2.372   1.961 -0.7398 -0.7551 -1.9074
  571SOL     MW 2284   1.514   2.439   2.012 -0.1694  0.1337 -0.2013
  572SOL     OW 2285   0.994   2.648   0.083  0.3435 -0.5717  0.6732
  572SOL    HW1 2286   1.041   2.651   0.000 -0.0970 -0.0862  0.2854
  572SOL    HW2 2287   0.901   2.625   0.063 -1.5310 -4.4223  1.9164
  572SOL     MW 2288   0.988   2.645   0.069  0.0381 -1.0157  0.7861
  573SOL     OW 2289   1.147   2.323   0.222 -0.0576  0.1926  0.0087
  573SOL    HW1 2290   1.242   2.315   0.219  2.0365  2.5874  3.4270
  573SOL    HW2 2291   1.137   2.418   0.255 -0.1439 -1.5237  0.1963
  573SOL     MW 2292   1.158   2.334   0.226  0.2073  0.2821  0.4845
  574SOL     OW 2293   1.110   2.562   0.303 -0.2598 -1.1378  0.5170
  574SOL    HW1 2294   1.171   2.631   0.324  0.1137  2.2888  3.2582
  574SOL    HW2 2295   1.068   2.598   0.222  1.3518  2.1867 -0.9189
  574SOL     MW 2296   1.113   2.576   0.295  0.0021 -0.2470  0.6892
  575SOL     OW 2297   0.057   2.247   1.818 -0.2023 -0.4102 -0.0584
  575SOL    HW1 2298   0.075   2.189   1.742  0.2562 -0.1251 -0.8106
  575SOL    HW2 2299   0.060   2.332   1.767 -0.0589 -1.8792 -1.5086
  575SOL     MW 2300   0.060   2.251   1.801 -0.1229 -0.5664 -0.3490
  576SOL     OW 2301   2.800   1.817   2.111 -0.5012  0.8896 -0.0483
  576SOL    HW1 2302   2.841   1.867   2.044 -2.5909 -0.4405 -0.2279
  576SOL    HW2 2303   2.714   1.781   2.081  0.8582 -0.9220  0.2683
  576SOL     MW 2304   2.794   1.819   2.098 -0.5976  0.4750 -0.0302
  577SOL     OW 2305   2.069   0.207   0.104 -0.7286  0.4151  0.0226
  577SOL    HW1 2306   1.984   0.232   0.064 -4.1634 -0.6648 -1.1715
  577SOL    HW2 2307   2.042   0.166   0.187 -1.2575 -0.0738 -1.3203
  577SOL     MW 2308   2.055   0.205   0.109 -1.2516  0.2081 -0.3121
  578SOL     OW 2309   1.929   2.000   2.360  0.0991 -0.5191  0.2203
  578SOL    HW1 2310   1.852   1.995   2.308  1.0858 -0.0744 -2.3744
  578SOL    HW2 2311   1.977   1.924   2.322 -1.2028  1.2245 -3.5531
  578SOL     MW 2312   1.925   1.989   2.348  0.0575 -0.2304 -0.6199
  579SOL     OW 2313   0.881   2.403   2.407  0.4778 -0.7907  0.3448
  579SOL    HW1 2314   0.923   2.356   2.480 -0.1583  0.3244 -2.3660
  579SOL    HW2 2315   0.944   2.476   2.385 -0.3723 -0.1628 -0.6641
  579SOL     MW 2316   0.895   2.407   2.414  0.2817 -0.5608 -0.1460
  580SOL     OW 2317   0.947   2.934   3.052 -0.0088  0.0439 -0.3427
  580SOL    HW1 2318   1.041   2.933   3.034 -1.7472  3.7583 -1.0020
  580SOL    HW2 2319   0.914   2.880   2.976  0.0998  0.8126 -1.6261
  580SOL     MW 2320   0.955   2.927   3.040 -0.2238  0.6354 -0.5990
  581SOL     OW 2321   1.126   2.458   1.690 -0.0922 -0.4085  0.5894
  581SOL    HW1 2322   1.201   2.526   1.682  1.9570  0.4527 -5.7334
  581SOL    HW2 2323   1.141   2.399   1.612  0.9574 -2.4269 -1.1533
  581SOL     MW 2324   1.138   2.459   1.679  0.3167 -0.5612 -0.4747
  582SOL     OW 2325   0.008   2.839   2.565 -0.3260 -0.2703  0.4715
  582SOL    HW1 2326  -0.008   2.931   2.588  0.8077 -1.8732 -0.1550
  582SOL    HW2 2327   0.101   2.838   2.569 -1.6846 -0.3044 -2.8440
  582SOL     MW 2328   0.018   2.851   2.568 -0.3557 -0.4863 -0.0486
  583SOL     OW 2329   1.999   2.412   2.647 -0.2594  0.2595 -0.7793
  583SOL    HW1 2330   2.074   2.435   2.588  1.8820  1.4630 -0.4737
  583SOL    HW2 2331   1.991   2.313   2.634  0.8612  0.1749 -0.6361
  583SOL     MW 2332   2.008   2.402   2.638  0.1710  0.4071 -0.7201
  584SOL     OW 2333   0.210   1.853   2.223 -0.7672 -0.1603 -0.0548
  584SOL    HW1 2334   0.273   1.844   2.152 -0.9975 -0.2608  2.0388
  584SOL    HW2 2335   0.240   1.930   2.272  0.5160  0.6979 -0.1748
  584SOL     MW 2336   0.222   1.862   2.220 -0.6283 -0.0603  0.2056
  585SOL     OW 2337   1.519   2.665   0.208  0.0885  0.3898  0.6611
  585SOL    HW1 2338   1.495   2.598   0.146  0.8273 -3.1672  3.6675
  585SOL    HW2 2339   1.439   2.672   0.263 -2.4077 -0.5360  2.0925
  585SOL     MW 2340   1.505   2.657   0.207 -0.1434 -0.2016  1.2466
  586SOL     OW 2341   1.343   2.850   2.545 -0.2880  0.2688  0.6722
  586SOL    HW1 2342   1.417   2.839   2.476  0.0670 -0.6631 -1.5028
  586SOL    HW2 2343   1.332   2.941   2.559  2.1878 -1.3681 -0.2198
  586SOL     MW 2344   1.351   2.860   2.537  0.0855 -0.0702  0.2676
  587SOL     OW 2345   1.318   1.569   2.169  0.5109  0.0572 -0.0243
  587SOL    HW1 2346   1.323   1.481   2.211 -1.0849 -0.2297 -1.0907
  587SOL    HW2 2347   1.283   1.554   2.082 -2.1300  1.0898  0.0378
  587SOL     MW 2348   1.314   1.556   2.163 -0.0481  0.1556 -0.1568
  588SOL     OW 2349   1.338   2.068   2.739  0.3045 -0.5254 -0.4261
  588SOL    HW1 2350   1.424   2.061   2.787  1.7937 -0.1275  0.0599
  588SOL    HW2 2351   1.264   2.069   2.807 -0.1346 -2.3393  0.0663
  588SOL     MW 2352   1.339   2.067   2.754  0.4431 -0.7122 -0.2970
  589SOL     OW 2353   1.281   2.048   0.113  0.4436  0.3285 -0.1456
  589SOL    HW1 2354   1.313   2.136   0.145 -0.5192  0.4331  0.8505
  589SOL    HW2 2355   1.241   2.006   0.191 -1.7511  0.1172 -1.5758
  589SOL     MW 2356   1.280   2.054   0.128  0.0270  0.3144 -0.2029
  590SOL     OW 2357   0.451   2.789   2.204  0.0358 -0.0620 -0.1407
  590SOL    HW1 2358   0.442   2.727   2.135 -0.3924  1.9529  1.2198
  590SOL    HW2 2359   0.538   2.822   2.200 -2.0313 -1.0350  0.2789
  590SOL     MW 2360   0.461   2.785   2.194 -0.2935  0.0755  0.0942
  591SOL     OW 2361   2.255   0.647   0.013 -0.4436 -0.4405 -0.1665
  591SOL    HW1 2362   2.187   0.690  -0.035 -0.3824 -0.8677 -0.5389
  591SOL    HW2 2363   2.328   0.691  -0.034  2.9766  4.1085 -1.4280
  591SOL     MW 2364   2.256   0.658   0.000  0.0157  0.1033 -0.3821
  592SOL     OW 2365   1.790   2.957   0.821  0.2312  0.1039 -0.4205
  592SOL    HW1 2366   1.775   3.035   0.757 -0.8435 -0.3297 -1.5686
  592SOL    HW2 2367   1.838   2.886   0.780 -0.8623 -0.6313 -2.3822
  592SOL     MW 2368   1.794   2.958   0.807 -0.0549 -0.0503 -0.8308
  593SOL     OW 2369   1.962   0.677   0.820 -0.4081  0.1388 -0.3090
  593SOL    HW1 2370   1.868   0.655   0.801 -1.6600  1.3349  0.5024
  593SOL    HW2 2371   2.014   0.596   0.811 -0.1988  0.1347 -2.6236
  593SOL     MW 2372   1.957   0.663   0.816 -0.5457  0.2961 -0.5073
  594SOL     OW 2373   2.815   1.159   1.356 -0.7303 -0.1874  0.1142
  594SOL    HW1 2374   2.905   1.207   1.375 -1.2792  2.3466 -1.6803
  594SOL    HW2 2375   2.827   1.110   1.276  0.0040  4.5838  0.7390
  594SOL     MW 2376   2.829   1.159   1.348 -0.7058  0.7765 -0.0401
  595SOL     OW 2377   0.406   1.021   0.825  0.3207  0.1995 -0.2377
  595SOL    HW1 2378   0.425   1.099   0.777 -0.1518 -2.2217 -0.5498
  595SOL    HW2 2379   0.442   1.051   0.908 -1.5574  0.1078 -2.8680
  595SOL     MW 2380   0.413   1.035   0.830  0.0106 -0.1320 -0.6259
  596SOL     OW 2381   2.456   1.318   0.566 -0.1144  0.6530 -0.0644
  596SOL    HW1 2382   2.523   1.382   0.550 -0.8420 -1.4886 -0.1101
  596SOL    HW2 2383   2.483   1.287   0.655  0.6797  0.8591  1.2559
  596SOL     MW 2384   2.468   1.322   0.576 -0.1056  0.3976  0.1037
  597SOL     OW 2385   2.193   0.705   1.610 -0.4017  0.2519  0.2820
  597SOL    HW1 2386   2.207   0.637   1.676  1.1308 -0.4942  0.4146
  597SOL    HW2 2387   2.130   0.666   1.544 -0.0874 -2.2328  0.0750
  597SOL     MW 2388   2.186   0.691   1.610 -0.1580 -0.1744  0.2722
  598SOL     OW 2389   2.592   1.006   2.843 -0.1909  0.1354 -0.5265
  598SOL    HW1 2390   2.607   0.989   2.750  0.7145  2.5732 -0.5113
  598SOL    HW2 2391   2.664   1.074   2.864 -0.1945  0.8764 -0.2224
  598SOL     MW 2392   2.603   1.013   2.834 -0.0720  0.5548 -0.4844
  599SOL     OW 2393   2.950   0.414   2.091  0.1587 -0.2123  0.4057
  599SOL    HW1 2394   3.021   0.413   2.160  2.0666  0.8841 -2.1240
  599SOL    HW2 2395   2.966   0.489   2.033  1.7108  0.0499  0.2225
  599SOL     MW 2396   2.962   0.424   2.093  0.6152 -0.0331  0.0477
  600SOL     OW 2397   1.851   1.598   0.830 -0.0696 -0.0063 -0.1167
  600SOL    HW1 2398   1.881   1.618   0.919 -2.6189  0.9409  1.5117
  600SOL    HW2 2399   1.777   1.663   0.819 -3.2535 -1.0425  0.2177
  600SOL     MW 2400   1.845   1.609   0.840 -0.8261 -0.0180  0.1423
  601SOL     OW 2401   2.508   0.769   0.807 -0.0955  0.4037 -0.3290
  601SOL    HW1 2402   2.481   0.796   0.904 -0.1484  2.1210  1.2942
  601SOL    HW2 2403   2.437   0.712   0.778 -1.6169  0.0231 -1.4800
  601SOL     MW 2404   2.495   0.765   0.816 -0.3032  0.5801 -0.2667
  602SOL     OW 2405   2.323   1.918   0.800 -0.6138  0.2507 -0.0784
  602SOL    HW1 2406   2.281   1.833   0.774  1.6337  0.2712 -3.3337
  602SOL    HW2 2407   2.260   1.985   0.778 -2.1966 -1.3430  0.1518
  602SOL     MW 2408   2.309   1.915   0.794 -0.5261  0.0431 -0.4775
  603SOL     OW 2409   0.006   1.346   1.822  0.4225  0.1240  0.2479
  603SOL    HW1 2410   0.065   1.385   1.884 -0.4207 -2.0442  0.0924
  603SOL    HW2 2411   0.037   1.255   1.813  2.4770  1.3209  0.4757
  603SOL     MW 2412   0.018   1.339   1.829  0.5823 -0.0041  0.2574
  604SOL     OW 2413   2.153   1.534   0.469 -0.1061 -0.1863  0.3534
  604SOL    HW1 2414   2.165   1.450   0.519  1.3747  0.6035  2.2170
  604SOL    HW2 2415   2.082   1.585   0.522 -2.5302  0.4927  1.8360
  604SOL     MW 2416   2.145   1.529   0.483 -0.2306  0.0075  0.7949
  605SOL     OW 2417   2.591   1.469   0.856 -0.6653 -0.1911  0.6211
  605SOL    HW1 2418   2.610   1.525   0.776 -1.2090 -1.3479  0.7581
  605SOL    HW2 2419   2.606   1.374   0.845 -0.7629  1.3488  0.8950
  605SOL     MW 2420   2.595   1.464   0.844 -0.7499 -0.1405  0.6753
  606SOL     OW 2421   2.578   1.673   2.013 -0.2078 -1.0170  0.0878
  606SOL    HW1 2422   2.493   1.704   1.988 -0.4192 -0.1820  0.3721
  606SOL    HW2 2423   2.611   1.631   1.934 -0.0686 -0.5690 -1.9729
  606SOL     MW 2424   2.571   1.672   1.999 -0.2174 -0.8477 -0.1466
  607SOL     OW 2425   2.410   1.116   3.024  0.4877 -0.1772 -0.9444
  607SOL    HW1 2426   2.459   1.063   2.959  0.4709 -0.1487 -0.9503
  607SOL    HW2 2427   2.418   1.064   3.104  1.2657 -1.3631  1.7141
  607SOL     MW 2428   2.418   1.102   3.026  0.5881 -0.3299 -0.5944
  608SOL     OW 2429   1.865   0.275   0.603  0.3269 -0.0268 -0.3089
  608SOL    HW1 2430   1.871   0.337   0.531 -2.5674 -0.9176 -0.0750
  608SOL    HW2 2431   1.811   0.202   0.576 -0.9146  1.2011 -1.0302
  608SOL     MW 2432   1.859   0.273   0.590 -0.2188  0.0177 -0.3732
  609SOL     OW 2433   2.055   1.984   3.026  0.2437 -0.0491  0.0186
  609SOL    HW1 2434   1.981   1.928   2.999 -2.3681 -2.7848  1.3598
  609SOL    HW2 2435   2.088   1.922   3.096 -0.5477 -3.2319  0.4776
  609SOL     MW 2436   2.050   1.968   3.031 -0.2053 -0.8300  0.2561
  610SOL     OW 2437   1.771   0.998   1.288 -0.4359 -0.0983 -0.4569
  610SOL    HW1 2438   1.821   0.926   1.258 -0.4826  2.8916 -1.1649
  610SOL    HW2 2439   1.679   0.972   1.269 -2.3541  1.9289  1.6386
  610SOL     MW 2440   1.766   0.985   1.281 -0.6951  0.5637 -0.2738
  611SOL     OW 2441   2.535   1.706   0.688 -0.0203 -0.1849  0.1972
  611SOL    HW1 2442   2.535   1.793   0.726 -1.2656 -1.8157 -1.9206
  611SOL    HW2 2443   2.462   1.710   0.630  2.2530  1.5062 -1.3835
  611SOL     MW 2444   2.526   1.718   0.686  0.1153 -0.1770 -0.2908
  612SOL     OW 2445   2.832   2.849   0.400  0.4676  0.6010 -0.2037
  612SOL    HW1 2446   2.873   2.885   0.482  1.1416  1.6362 -1.3828
  612SOL    HW2 2447   2.914   2.823   0.346  0.5924  1.9855 -1.7780
  612SOL     MW 2448   2.849   2.851   0.404  0.5730  0.9203 -0.5670
  613SOL     OW 2449   1.468   1.016   0.895 -0.5529 -0.2183 -0.3762
  613SOL    HW1 2450   1.489   1.110   0.881  3.2162 -0.7404 -1.2278
  613SOL    HW2 2451   1.530   0.987   0.960  1.0235  0.8412  0.8784
  613SOL     MW 2452   1.479   1.024   0.902  0.1524 -0.1474 -0.3230
  614SOL     OW 2453   2.003   0.575   1.463 -0.8514  0.2702 -0.4214
  614SOL    HW1 2454   1.982   0.500   1.529 -0.8823  1.4590  5.5011
  614SOL    HW2 2455   1.966   0.556   1.375 -0.6629  0.4074  1.4418
  614SOL     MW 2456   1.995   0.563   1.460 -0.8306  0.4452  0.6058
  615SOL     OW 2457   2.385   0.748   0.227  0.1279  0.2605  0.3539
  615SOL    HW1 2458   2.449   0.676   0.230 -1.6584 -0.5066  0.7967
  615SOL    HW2 2459   2.325   0.708   0.157 -0.3205  0.3467 -5.1786
  615SOL     MW 2460   2.386   0.734   0.218 -0.1670  0.1707 -0.3176
  616SOL     OW 2461   2.531   0.416   1.653 -0.4870  0.0398  0.0564
  616SOL    HW1 2462   2.538   0.327   1.612  2.9499 -1.5961  0.4923
  616SOL    HW2 2463   2.556   0.470   1.582 -2.3365 -0.3929 -0.2245
  616SOL     MW 2464   2.535   0.411   1.638 -0.2776 -0.2331  0.0769
  617SOL     OW 2465   2.802   0.621   1.709 -0.1338 -0.6270 -0.3304
  617SOL    HW1 2466   2.739   0.628   1.778 -0.2733 -4.4560  1.1885
  617SOL    HW2 2467   2.829   0.530   1.721  0.1592 -0.3218 -0.5798
  617SOL     MW 2468   2.797   0.610   1.719 -0.1135 -1.0919 -0.1629
  618SOL     OW 2469   2.729   0.347   1.928 -0.5493  0.0025 -0.2840
  618SOL    HW1 2470   2.699   0.434   1.912  0.2948 -1.9455 -1.8777
  618SOL    HW2 2471   2.772   0.355   2.015 -1.8180  1.7906  0.5102
  618SOL     MW 2472   2.730   0.359   1.937 -0.6054 -0.0186 -0.3895
  619SOL     OW 2473   2.645   0.688   0.080 -0.1539 -0.2532 -0.3636
  619SOL    HW1 2474   2.692   0.772   0.092  0.0543  1.8261  0.6004
  619SOL    HW2 2475   2.639   0.638   0.161 -1.4591  2.6632  0.9622
  619SOL     MW 2476   2.651   0.692   0.092 -0.2986  0.4059 -0.0615
  620SOL     OW 2477   2.206   1.055   0.936 -0.0155  0.2898 -0.1512
  620SOL    HW1 2478   2.279   1.065   0.879 -0.4207 -3.6937  0.4928
  620SOL    HW2 2479   2.144   1.004   0.885 -0.6268 -1.4193  0.9870
  620SOL     MW 2480   2.207   1.050   0.922 -0.1496 -0.4613  0.0839
  621SOL     OW 2481   1.546   2.190   1.897 -0.0505  0.0814  0.5306
  621SOL    HW1 2482   1.482   2.136   1.945  0.5906  1.3572 -4.0936
  621SOL    HW2 2483   1.628   2.165   1.925 -0.6075  0.9868 -0.0244
  621SOL     MW 2484   1.548   2.180   1.907 -0.0394  0.3692 -0.1527
  622SOL     OW 2485   2.631   0.180   0.224  0.0946  0.2974 -0.1751
  622SOL    HW1 2486   2.717   0.222   0.233 -0.2836 -0.2092  0.9591
  622SOL    HW2 2487   2.644   0.094   0.266  0.3568  1.1148  0.1168
  622SOL     MW 2488   2.644   0.174   0.231  0.0793  0.3384  0.0130
  623SOL     OW 2489   2.399   2.784   0.827  0.2012  0.0499 -0.7292
  623SOL    HW1 2490   2.461   2.849   0.870  0.4095 -1.3196  0.6727
  623SOL    HW2 2491   2.315   2.796   0.870  0.2609 -0.9580  3.6995
  623SOL     MW 2492   2.396   2.794   0.839  0.2365 -0.2638  0.0401
  624SOL     OW 2493   2.152   1.690   2.991  0.2532 -0.2827  0.3741
  624SOL    HW1 2494   2.110   1.618   3.029 -0.1630 -0.4963  1.2905
  624SOL    HW2 2495   2.086   1.744   2.947 -3.4739  1.6055 -1.2369
  624SOL     MW 2496   2.138   1.688   2.991 -0.2935 -0.0618  0.2825
  625SOL     OW 2497   2.200   1.916   1.044  0.0580  0.1856 -0.2819
  625SOL    HW1 2498   2.259   1.866   1.097 -2.1096  1.4212 -1.1946
  625SOL    HW2 2499   2.247   1.921   0.959 -1.0357 -0.8912 -0.8202
  625SOL     MW 2500   2.214   1.910   1.040 -0.3723  0.2065 -0.4733
  626SOL     OW 2501   0.309   1.648   2.382  0.0919  0.8178  0.0274
  626SOL    HW1 2502   0.266   1.562   2.411 -3.7587  0.0179 -0.9746
  626SOL    HW2 2503   0.243   1.708   2.345 -0.7941  2.4407 -0.7652
  626SOL     MW 2504   0.294   1.645   2.381 -0.5331  0.9264 -0.2094
  627SOL     OW 2505   2.441   0.710   2.549  0.0179 -0.0598 -0.2902
  627SOL    HW1 2506   2.421   0.802   2.572 -2.1298 -1.8658 -2.3460
  627SOL    HW2 2507   2.429   0.711   2.455  1.8533  0.4924 -0.2971
  627SOL     MW 2508   2.436   0.722   2.540 -0.0233 -0.2252 -0.5623
  628SOL     OW 2509   2.350   1.424   1.330  0.2624 -0.7276 -0.6184
  628SOL    HW1 2510   2.310   1.364   1.265 -1.8860 -0.0373  2.0377
  628SOL    HW2 2511   2.409   1.471   1.278  0.1501 -1.5112 -0.4710
  628SOL     MW 2512   2.353   1.422   1.315 -0.0359 -0.7399 -0.2485
  629SOL     OW 2513   1.866   0.546   1.222  0.1651  0.3450 -0.3276
  629SOL    HW1 2514   1.855   0.637   1.191 -1.8768  1.7864  1.3813
  629SOL    HW2 2515   1.770   0.517   1.235 -1.0985 -1.9562  0.2596
  629SOL     MW 2516   1.852   0.554   1.219 -0.2710  0.2316 -0.0247
  630SOL     OW 2517   2.385   1.819   3.056 -0.5371  0.7965  0.3813
  630SOL    HW1 2518   2.390   1.862   2.975 -2.9051 -2.5965  1.1849
  630SOL    HW2 2519   2.294   1.779   3.064 -1.1428 -1.0958  2.2157
  630SOL     MW 2520   2.374   1.819   3.047 -0.9295  0.0991  0.7293
  631SOL     OW 2521   2.039   1.828   1.562  0.3180 -0.0504 -0.5882
  631SOL    HW1 2522   2.035   1.740   1.598 -0.0608 -0.8086 -5.8703
  631SOL    HW2 2523   2.002   1.816   1.477  1.8332 -1.7537  1.2529
  631SOL     MW 2524   2.034   1.815   1.555  0.4679 -0.3752 -1.0422
  632SOL     OW 2525   0.191   1.961   1.385  0.5658  1.0481  0.1430
  632SOL    HW1 2526   0.158   1.958   1.480 -1.5862  0.1981 -1.7473
  632SOL    HW2 2527   0.219   1.874   1.370 -0.0665 -0.6557  2.0967
  632SOL     MW 2528   0.190   1.949   1.396  0.1985  0.7111  0.1514
  633SOL     OW 2529   2.550   0.543   0.304  0.1941  1.0832 -0.0775
  633SOL    HW1 2530   2.600   0.524   0.386 -1.7470 -0.9000 -1.0038
  633SOL    HW2 2531   2.543   0.455   0.263  0.4339  0.7023  0.0213
  633SOL     MW 2532   2.556   0.529   0.310 -0.0304  0.7713 -0.1867
  634SOL     OW 2533   2.661   0.040   0.646  0.3856 -0.3013 -0.2109
  634SOL    HW1 2534   2.710   0.121   0.630  0.8371 -0.8299 -0.3588
  634SOL    HW2 2535   2.602   0.015   0.572  0.6575 -4.1663  1.4107
  634SOL     MW 2536   2.660   0.047   0.634  0.4811 -0.8810 -0.0165
  635SOL     OW 2537   2.600   0.126   1.837  0.0854  0.0964 -0.1739
  635SOL    HW1 2538   2.670   0.067   1.820 -0.8903  3.7937 -1.1985
  635SOL    HW2 2539   2.648   0.204   1.856  1.6795 -1.0343 -0.2874
  635SOL     MW 2540   2.615   0.129   1.837  0.1670  0.4350 -0.3240
  636SOL     OW 2541   2.823   1.600   0.977  0.3764  0.2330 -0.5615
  636SOL    HW1 2542   2.734   1.606   0.948  1.9416  1.0151 -2.9974
  636SOL    HW2 2543   2.846   1.673   1.030 -3.1944  0.2985 -3.8412
  636SOL     MW 2544   2.815   1.610   0.981  0.1118  0.3448 -1.3156
  637SOL     OW 2545   2.870   1.447   0.732  0.2383 -0.2834 -0.4036
  637SOL    HW1 2546   2.922   1.521   0.705 -1.1301 -0.3768 -0.8760
  637SOL    HW2 2547   2.865   1.453   0.827  0.1868 -1.9613 -2.6968
  637SOL     MW 2548   2.877   1.457   0.741  0.0510 -0.5171 -0.7685
  638SOL     OW 2549   2.685   0.515   0.577 -0.0853  0.2185 -0.4918
  638SOL    HW1 2550   2.754   0.532   0.512 -2.8807  0.6933 -0.1247
  638SOL    HW2 2551   2.709   0.570   0.650 -0.3151 -1.5459  0.5822
  638SOL     MW 2552   2.698   0.525   0.578 -0.4844  0.0484 -0.3016
  639SOL     OW 2553   1.720   0.030   0.584 -0.1153  0.0212  0.2889
  639SOL    HW1 2554   1.630   0.048   0.567  3.7500 -2.1344  0.8995
  639SOL    HW2 2555   1.750  -0.017   0.508  0.4698  3.2868 -2.5713
  639SOL     MW 2556   1.712   0.026   0.572  0.4719  0.1676 -0.0079
  640SOL     OW 2557   0.311   1.303   0.131 -0.2597  0.6439  0.6874
  640SOL    HW1 2558   0.343   1.302   0.037 -0.2108 -0.9708 -1.6805
  640SOL    HW2 2559   0.307   1.207   0.159 -0.9831 -2.2843 -1.3951
  640SOL     MW 2560   0.315   1.290   0.122 -0.3487  0.0445  0.1002
  641SOL     OW 2561   2.181   0.400   0.415  0.1741  0.0783  0.3955
  641SOL    HW1 2562   2.214   0.387   0.321 -0.9764  0.5044  1.7411
  641SOL    HW2 2563   2.251   0.369   0.477  2.5647  0.5596  0.2445
  641SOL     MW 2564   2.194   0.394   0.411  0.3377  0.1980  0.5531
  642SOL     OW 2565   0.055   3.086   0.557  0.2848 -0.2392 -0.1930
  642SOL    HW1 2566   0.025   3.177   0.519  1.7533  1.4862 -0.1352
  642SOL    HW2 2567  -0.029   3.059   0.594 -0.6595  3.1807 -1.7930
  642SOL     MW 2568   0.040   3.094   0.557  0.3540  0.4397 -0.3965
  643SOL     OW 2569   1.989   0.375   1.639 -0.2018  0.2072  0.4871
  643SOL    HW1 2570   1.908   0.347   1.678  3.0282  0.7096  0.0586
  643SOL    HW2 2571   2.019   0.295   1.588  3.8582 -0.7950  3.3250
  643SOL     MW 2572   1.982   0.361   1.637  0.7601  0.1413  0.8050
  644SOL     OW 2573   2.754   1.967   1.071 -0.5705 -0.6199  0.0270
  644SOL    HW1 2574   2.711   1.894   1.112  2.0109 -0.1634  3.4300
  644SOL    HW2 2575   2.675   2.018   1.041  0.1246 -0.0758  0.1180
  644SOL     MW 2576   2.738   1.964   1.073 -0.1382 -0.4879  0.4880
  645SOL     OW 2577   2.820   0.835   0.652 -0.6307  0.0915  0.3685
  645SOL    HW1 2578   2.912   0.820   0.655 -2.2916 -0.7622  1.9789
  645SOL    HW2 2579   2.785   0.765   0.715 -1.3055  1.6517 -0.3857
  645SOL     MW 2580   2.828   0.824   0.661 -0.9389  0.1847  0.4815
  646SOL     OW 2581   0.085   2.287   0.842 -0.2395 -0.0626  0.2103
  646SOL    HW1 2582   0.135   2.201   0.840 -1.9063 -2.1691 -1.7591
  646SOL    HW2 2583   0.019   2.285   0.774  0.6888 -1.3176 -2.3992
  646SOL     MW 2584   0.083   2.275   0.833 -0.3369 -0.5061 -0.3939
  647SOL     OW 2585   2.690   0.473   2.905  0.3591  0.2639  0.2930
  647SOL    HW1 2586   2.632   0.417   2.963 -1.6354 -4.1860 -3.1536
  647SOL    HW2 2587   2.632   0.537   2.863  3.5254  2.7761 -1.1047
  647SOL     MW 2588   2.675   0.474   2.907  0.5137  0.0082 -0.3462
  648SOL     OW 2589   2.127   0.734   1.180  0.5697 -0.0548  0.0578
  648SOL    HW1 2590   2.160   0.646   1.217  3.0091 -0.5144  0.3156
  648SOL    HW2 2591   2.145   0.801   1.242 -2.9507 -1.7253 -1.1301
  648SOL     MW 2592   2.134   0.731   1.193  0.4271 -0.3358 -0.0649
  649SOL     OW 2593   2.385   2.653   1.292  0.1029 -0.0534  0.6235
  649SOL    HW1 2594   2.472   2.693   1.305  0.6325  3.0885 -1.3001
  649SOL    HW2 2595   2.390   2.562   1.261  0.0696 -1.4389 -2.7679
  649SOL     MW 2596   2.397   2.646   1.289  0.1684  0.1783 -0.0777
  650SOL     OW 2597   2.852   0.243   0.642 -0.1137  0.3942  0.7406
  650SOL    HW1 2598   2.887   0.309   0.701 -0.6536 -0.1501  2.1686
  650SOL    HW2 2599   2.920   0.228   0.567  2.0054 -0.2027 -2.0641
  650SOL     MW 2600   2.866   0.250   0.640  0.0947  0.2436  0.5589
  651SOL     OW 2601   3.064   0.425   0.966 -0.0775 -0.1702  0.6688
  651SOL    HW1 2602   3.120   0.458   0.888 -1.3467  1.2107 -3.0637
  651SOL    HW2 2603   3.018   0.506   0.994 -1.5446  0.0594 -0.7063
  651SOL     MW 2604   3.065   0.440   0.959 -0.4385  0.0423 -0.0051
  652SOL     OW 2605   2.424   1.542   3.040 -0.0376 -0.0201  0.0292
  652SOL    HW1 2606   2.496   1.537   2.981 -0.4590 -4.0856  2.7687
  652SOL    HW2 2607   2.409   1.633   3.047 -1.7721 -2.9305 -2.0477
  652SOL     MW 2608   2.431   1.553   3.034 -0.3221 -0.9405  0.1166
  653SOL     OW 2609   1.821   0.456   0.388  0.5722  0.3761 -0.2435
  653SOL    HW1 2610   1.781   0.390   0.326 -0.0353 -0.2158  2.2313
  653SOL    HW2 2611   1.906   0.455   0.352  0.6625  3.1068  0.9299
  653SOL     MW 2612   1.827   0.447   0.375  0.5039  0.6583  0.2379
  654SOL     OW 2613   2.421   1.020   0.770 -0.2458 -0.7055 -0.3224
  654SOL    HW1 2614   2.344   1.033   0.709  0.3756 -1.1898 -1.2082
  654SOL    HW2 2615   2.455   0.927   0.755  1.2411  1.8822  2.5559
  654SOL     MW 2616   2.415   1.010   0.760  0.0324 -0.4280 -0.0595
  655SOL     OW 2617   2.948   0.815   0.371  0.0491 -0.4640  0.3515
  655SOL    HW1 2618   2.884   0.838   0.438 -0.5252 -1.1741  1.2892
  655SOL    HW2 2619   2.962   0.719   0.388  0.0654 -3.2768 -0.7932
  655SOL     MW 2620   2.942   0.805   0.382 -0.0245 -0.9288  0.3242
  656SOL     OW 2621   1.872   2.682   1.356 -0.6972 -1.1762  0.1283
  656SOL    HW1 2622   1.890   2.772   1.360 -0.3753  0.3526 -1.2290
  656SOL    HW2 2623   1.937   2.645   1.422  2.5084 -1.0730  1.7757
  656SOL     MW 2624   1.883   2.689   1.365 -0.2318 -0.9609  0.1666
  657SOL     OW 2625   0.125   1.765   1.183  0.5042 -0.4189  0.2054
  657SOL    HW1 2626   0.183   1.832   1.154  0.7912  0.5793 -1.4332
  657SOL    HW2 2627   0.187   1.685   1.174 -0.0968 -0.4179 -2.4812
  657SOL     MW 2628   0.141   1.763   1.178  0.4627 -0.2871 -0.3653
  658SOL     OW 2629   2.674   1.350   0.255 -0.1783 -0.2116 -0.1384
  658SOL    HW1 2630   2.651   1.277   0.316 -1.5107 -1.3707  2.5186
  658SOL    HW2 2631   2.694   1.413   0.327 -0.7135 -0.3241  2.0076
  658SOL     MW 2632   2.674   1.349   0.272 -0.4247 -0.3794  0.4953
  659SOL     OW 2633   2.266   1.533   1.009 -0.1135 -0.3945 -0.6975
  659SOL    HW1 2634   2.350   1.501   1.044 -1.6205  0.4211  0.2036
  659SOL    HW2 2635   2.211   1.541   1.086 -2.8558 -1.8381  1.7719
  659SOL     MW 2636   2.270   1.530   1.024 -0.6742 -0.4773 -0.2528
  660SOL     OW 2637   2.062   1.570   1.673  0.2544 -0.1643 -0.0110
  660SOL    HW1 2638   2.044   1.579   1.771 -3.1988 -0.9893  0.3200
  660SOL    HW2 2639   1.996   1.499   1.649  0.7639 -2.3040  1.0766
  660SOL     MW 2640   2.051   1.562   1.683 -0.1340 -0.5555  0.1762
  661SOL     OW 2641   2.458   1.005   0.188 -0.1039 -0.0153  0.4221
  661SOL    HW1 2642   2.475   1.039   0.278 -0.1494 -1.4245 -0.3841
  661SOL    HW2 2643   2.416   0.920   0.201  1.2786  0.7374 -0.8067
  661SOL     MW 2644   2.455   0.998   0.201  0.0725 -0.1020  0.1536
  662SOL     OW 2645   2.551   2.995   0.906  0.0204  0.8886 -0.1140
  662SOL    HW1 2646   2.498   3.069   0.937  0.3910 -1.0773  0.1175
  662SOL    HW2 2647   2.590   3.033   0.827 -0.9956  1.4739  1.1740
  662SOL     MW 2648   2.549   3.010   0.900 -0.0648  0.7064  0.0865
  663SOL     OW 2649   2.651   1.497   0.500  0.4007 -0.2886 -0.2408
  663SOL    HW1 2650   2.633   1.593   0.475  0.7013  0.5528  0.3773
  663SOL    HW2 2651   2.736   1.502   0.546  1.8295  2.6418  0.4120
  663SOL     MW 2652   2.660   1.510   0.503  0.6289  0.2091 -0.0731
  664SOL     OW 2653   2.547   1.533   1.558 -0.1542  0.2604 -0.1523
  664SOL    HW1 2654   2.529   1.627   1.550  1.2823  1.2047  1.4550
  664SOL    HW2 2655   2.461   1.489   1.575  0.5422 -1.8992  1.6017
  664SOL     MW 2656   2.534   1.540   1.559  0.1272  0.1000  0.2912
  665SOL     OW 2657   2.851   0.857   2.014 -0.2606 -0.3221  0.1328
  665SOL    HW1 2658   2.844   0.910   1.937  2.1962  0.5462  0.5049
  665SOL    HW2 2659   2.915   0.796   1.985 -0.7830  1.0005 -0.3594
  665SOL     MW 2660   2.859   0.856   2.000 -0.0054 -0.0330  0.1170
  666SOL     OW 2661   2.780   3.052   1.720 -0.6051  0.1362 -0.0601
  666SOL    HW1 2662   2.780   3.022   1.628  0.4857  2.3102 -1.1642
  666SOL    HW2 2663   2.747   2.976   1.767 -1.7684  0.2618  0.4936
  666SOL     MW 2664   2.775   3.038   1.714 -0.6146  0.4396 -0.1328
  667SOL     OW 2665   1.937   2.664   1.803 -0.1129 -0.1228  0.0875
  667SOL    HW1 2666   1.948   2.631   1.895 -0.4820  0.0476 -0.5568
  667SOL    HW2 2667   2.013   2.722   1.792 -0.3788  1.1549  2.7083
  667SOL     MW 2668   1.948   2.667   1.814 -0.1967  0.0683  0.3483
  668SOL     OW 2669   2.737   0.641   0.828  0.1430 -0.5033 -0.4538
  668SOL    HW1 2670   2.800   0.668   0.909 -1.7525 -0.8773  0.7643
  668SOL    HW2 2671   2.658   0.707   0.832  0.7778 -0.8356  1.1619
  668SOL     MW 2672   2.735   0.654   0.839 -0.0233 -0.5965 -0.0799
  669SOL     OW 2673   0.194   0.920   0.689 -0.7772 -0.3452  0.6482
  669SOL    HW1 2674   0.127   0.979   0.723 -2.2503  2.4151  3.0244
  669SOL    HW2 2675   0.265   0.930   0.748  0.2279  0.1687 -2.1071
  669SOL     MW 2676   0.194   0.929   0.702 -0.8389  0.0868  0.5982
  670SOL     OW 2677   2.877   0.291   0.192 -0.5299  1.3283 -0.1411
  670SOL    HW1 2678   2.913   0.247   0.119  1.0464 -0.1786  1.5602
  670SOL    HW2 2679   2.913   0.379   0.185 -1.8579  2.7346  1.3208
  670SOL     MW 2680   2.886   0.297   0.181 -0.4971  1.3150  0.2762
  671SOL     OW 2681   2.060   3.039   1.533 -0.0064  0.4230  0.2709
  671SOL    HW1 2682   2.019   3.016   1.447 -0.0796 -0.5677 -1.0938
  671SOL    HW2 2683   1.987   3.065   1.594 -0.5667  0.9668  1.9713
  671SOL     MW 2684   2.045   3.039   1.530 -0.0900  0.3640  0.3152
  672SOL     OW 2685   1.897   1.733   1.321 -0.3713 -0.0943  0.1564
  672SOL    HW1 2686   1.816   1.775   1.348 -0.4312  2.9565 -0.2442
  672SOL    HW2 2687   1.913   1.768   1.237  2.6882 -1.6770  0.1063
  672SOL     MW 2688   1.889   1.743   1.313  0.0245  0.0994  0.0969
  673SOL     OW 2689   2.780   1.113   0.605  0.5040 -0.1632  0.3760
  673SOL    HW1 2690   2.800   1.022   0.622 -1.5192  1.7165  1.0152
  673SOL    HW2 2691   2.860   1.161   0.615  0.5044 -1.4842 -2.3663
  673SOL     MW 2692   2.793   1.108   0.608  0.2371 -0.0895  0.0985
  674SOL     OW 2693   2.439   3.057   1.316 -0.1913 -0.3263 -0.1454
  674SOL    HW1 2694   2.409   3.063   1.228  0.6129  0.9490  0.8720
  674SOL    HW2 2695   2.406   2.975   1.350  1.4390 -0.4425  2.4718
  674SOL     MW 2696   2.431   3.047   1.309  0.1299 -0.1734  0.3342
  675SOL     OW 2697   3.068   0.888   1.068 -0.3361 -0.5555  0.1703
  675SOL    HW1 2698   3.138   0.893   1.127  0.2833 -2.4019 -1.0957
  675SOL    HW2 2699   3.073   0.958   1.002  1.3399 -0.7422  2.1177
  675SOL     MW 2700   3.078   0.898   1.067 -0.0333 -0.8237  0.2602
  676SOL     OW 2701   2.923   1.490   1.684  0.5589 -0.1892 -0.1144
  676SOL    HW1 2702   2.880   1.404   1.668  0.2778  2.4666 -0.1497
  676SOL    HW2 2703   2.980   1.456   1.750 -0.2144 -1.9904 -0.8157
  676SOL     MW 2704   2.925   1.474   1.690  0.4198 -0.0764 -0.2116
  677SOL     OW 2705   2.360   0.604   2.020 -0.2177  0.1191  0.1988
  677SOL    HW1 2706   2.319   0.540   1.961  1.4685  0.0924  1.8222
  677SOL    HW2 2707   2.312   0.683   2.008 -0.3958 -3.4066 -1.3387
  677SOL     MW 2708   2.349   0.606   2.010 -0.0187 -0.3496  0.2101
  678SOL     OW 2709   2.542   1.694   0.287 -0.3259  0.6669  0.6817
  678SOL    HW1 2710   2.473   1.718   0.354 -1.1941  2.5323 -3.3303
  678SOL    HW2 2711   2.496   1.625   0.237 -0.6300 -2.5149  0.4329
  678SOL     MW 2712   2.527   1.688   0.289 -0.4806  0.4932  0.1196
  679SOL     OW 2713   2.214   0.446   1.301  0.1017 -0.5034 -0.0939
  679SOL    HW1 2714   2.214   0.382   1.230  0.7499 -0.9728  0.6652
  679SOL    HW2 2715   2.143   0.417   1.359 -2.1253 -1.7729 -2.6541
  679SOL     MW 2716   2.205   0.433   1.299 -0.1066 -0.7328 -0.3315
  680SOL     OW 2717   2.362   0.170   1.476 -0.0275  0.0541 -0.2499
  680SOL    HW1 2718   2.280   0.177   1.439  1.1220  0.1110  2.8472
  680SOL    HW2 2719   2.414   0.091   1.432  1.5399 -0.6470 -2.8604
  680SOL     MW 2720   2.358   0.161   1.465  0.3310 -0.0309 -0.1857
  681SOL     OW 2721   0.283   0.499   1.521 -0.1952 -0.1679 -0.5421
  681SOL    HW1 2722   0.274   0.447   1.595 -1.0765  2.9074 -1.6943
  681SOL    HW2 2723   0.371   0.526   1.530  1.7542 -1.1440  0.7610
  681SOL     MW 2724   0.294   0.496   1.532 -0.0543  0.1091 -0.5222
  682SOL     OW 2725   0.119   2.880   1.494  0.5331  0.0062  0.2932
  682SOL    HW1 2726   0.182   2.875   1.568  2.8204 -3.5103 -2.2714
  682SOL    HW2 2727   0.039   2.918   1.526  0.2151  1.6879  0.4102
  682SOL     MW 2728   0.116   2.884   1.508  0.7930 -0.2359 -0.0298
  683SOL     OW 2729   2.070   0.799   2.980 -0.9062 -0.3065  0.1358
  683SOL    HW1 2730   1.978   0.768   2.965  0.0851 -0.3640 -1.6073
  683SOL    HW2 2731   2.069   0.884   3.024 -0.1196 -1.7520  0.7065
  683SOL     MW 2732   2.057   0.806   2.984 -0.6717 -0.5048 -0.0189
  684SOL     OW 2733   2.235   1.677   0.756  0.2235 -0.1695 -1.1300
  684SOL    HW1 2734   2.221   1.632   0.673  0.4086  1.5437  0.0215
  684SOL    HW2 2735   2.233   1.611   0.828 -1.2446 -1.4813 -0.6636
  684SOL     MW 2736   2.232   1.663   0.754  0.0542 -0.1165 -0.9165
  685SOL     OW 2737   2.615   1.721   1.226 -0.1834 -0.3336 -0.5204
  685SOL    HW1 2738   2.689   1.709   1.288 -0.4973 -0.0383 -0.0653
  685SOL    HW2 2739   2.602   1.638   1.183 -1.2884 -0.3939  0.4215
  685SOL     MW 2740   2.623   1.708   1.228 -0.3706 -0.3026 -0.3361
  686SOL     OW 2741   2.897   0.790   1.525  0.1150 -0.2723 -0.3966
  686SOL    HW1 2742   2.880   0.718   1.587 -0.8013  0.5427  0.8373
  686SOL    HW2 2743   2.981   0.827   1.543  0.8238 -3.4670  1.8383
  686SOL     MW 2744   2.906   0.785   1.536  0.0876 -0.5863  0.0611
  687SOL     OW 2745   2.150   0.190   1.160 -0.0737  0.2340 -0.0940
  687SOL    HW1 2746   2.236   0.165   1.115  1.0785 -0.9485 -2.2217
  687SOL    HW2 2747   2.071   0.162   1.111  1.2488  0.3194 -1.4018
  687SOL     MW 2748   2.151   0.183   1.147  0.2528  0.0893 -0.5473
  688SOL     OW 2749   2.403   0.584   1.448  0.9139  0.4005 -0.3417
  688SOL    HW1 2750   2.340   0.513   1.413 -0.4168 -1.4452 -2.1679
  688SOL    HW2 2751   2.356   0.626   1.523 -2.6763  1.4532  2.6513
  688SOL     MW 2752   2.389   0.580   1.453  0.2646  0.2958 -0.1877
  689SOL     OW 2753   2.456   0.761   2.982 -0.0830 -0.3231 -0.3474
  689SOL    HW1 2754   2.492   0.842   2.934 -0.0386  1.8514  0.5037
  689SOL    HW2 2755   2.528   0.736   3.051 -3.2355 -2.5115  2.8474
  689SOL     MW 2756   2.471   0.769   2.985 -0.4931 -0.3250  0.1864
  690SOL     OW 2757   2.032   0.880   1.847 -0.6699 -0.7323 -1.0706
  690SOL    HW1 2758   2.014   0.787   1.835  1.3431 -2.8886  0.1597
  690SOL    HW2 2759   2.066   0.903   1.760  0.0337 -2.2293  1.0776
  690SOL     MW 2760   2.034   0.871   1.834 -0.3115 -1.2143 -0.6248
  691SOL     OW 2761   2.394   0.328   0.904  0.0940  0.1282 -0.2535
  691SOL    HW1 2762   2.470   0.371   0.942  1.5094  0.9290  1.8151
  691SOL    HW2 2763   2.319   0.382   0.921  0.0471  0.5573 -0.4845
  691SOL     MW 2764   2.394   0.341   0.911  0.2746  0.2905 -0.0110
  692SOL     OW 2765   2.831   1.713   1.383  0.1162 -0.2869  0.4302
  692SOL    HW1 2766   2.827   1.666   1.464 -0.8854 -0.2533  1.7167
  692SOL    HW2 2767   2.849   1.805   1.414  0.5500  1.9829  0.8160
  692SOL     MW 2768   2.833   1.719   1.398  0.0413  0.0170  0.6509
  693SOL     OW 2769   2.257   0.403   0.144 -0.2943 -0.4245  0.0375
  693SOL    HW1 2770   2.181   0.357   0.118  2.4725  0.4179 -0.5401
  693SOL    HW2 2771   2.259   0.485   0.092 -0.3414  2.5599 -1.0366
  693SOL     MW 2772   2.247   0.408   0.133  0.0646  0.0804 -0.1805
  694SOL     OW 2773   1.935   1.203   1.198  0.4643 -0.2937 -0.2474
  694SOL    HW1 2774   2.034   1.199   1.200  2.1714  1.1887  0.3309
  694SOL    HW2 2775   1.887   1.126   1.234 -0.2855 -0.0656 -1.8548
  694SOL     MW 2776   1.942   1.192   1.203  0.5906 -0.0680 -0.3831
  695SOL     OW 2777   3.025   1.524   1.299 -0.2117  0.7194 -0.6460
  695SOL    HW1 2778   2.972   1.487   1.226 -0.0363 -0.1518 -0.5011
  695SOL    HW2 2779   2.970   1.595   1.326  0.0470 -1.1427 -3.1302
  695SOL     MW 2780   3.011   1.528   1.293 -0.1544  0.3587 -0.9546
  696SOL     OW 2781   2.124   1.327   0.832  0.2012  0.7919 -0.3370
  696SOL    HW1 2782   2.179   1.381   0.892 -2.5891 -1.6097 -0.8604
  696SOL    HW2 2783   2.077   1.253   0.878 -1.1412 -0.0432  0.2203
  696SOL     MW 2784   2.125   1.324   0.846 -0.3441  0.3649 -0.3325
  697SOL     OW 2785   2.907   1.041   2.215 -0.2609  0.5344  0.1930
  697SOL    HW1 2786   2.848   1.113   2.235  0.7353 -1.1782 -1.8603
  697SOL    HW2 2787   2.871   0.987   2.148  0.8086 -0.2310  1.5625
  697SOL     MW 2788   2.894   1.043   2.209  0.0117  0.2075  0.1028
  698SOL     OW 2789   2.557   0.336   0.005  0.1908  0.4621  0.0159
  698SOL    HW1 2790   2.465   0.354   0.010 -0.1967 -2.2645  2.5364
  698SOL    HW2 2791   2.572   0.277   0.079 -2.6915  1.1145 -1.3966
  698SOL     MW 2792   2.547   0.330   0.015 -0.2406  0.1884  0.1621
  699SOL     OW 2793   1.792   1.580   2.070  0.3648 -0.0727  0.2124
  699SOL    HW1 2794   1.748   1.495   2.044 -2.2208  0.5348  0.2913
  699SOL    HW2 2795   1.882   1.557   2.036  1.4818  0.4879  2.8363
  699SOL     MW 2796   1.798   1.565   2.062  0.1710  0.0814  0.5690
  700SOL     OW 2797   2.668   0.942   1.480 -0.5064 -0.5336 -0.3584
  700SOL    HW1 2798   2.684   1.034   1.451  1.1305  0.6995 -0.9168
  700SOL    HW2 2799   2.758   0.901   1.484  1.6184 -0.0381 -0.2816
  700SOL     MW 2800   2.682   0.949   1.477 -0.0101 -0.3055 -0.4219
  701SOL     OW 2801   1.647   1.191   2.455  0.3221  0.1033  0.8185
  701SOL    HW1 2802   1.742   1.195   2.435 -0.5941  0.5537  1.4206
  701SOL    HW2 2803   1.638   1.224   2.542  0.1581  1.8827 -2.2307
  701SOL     MW 2804   1.658   1.196   2.464  0.1795  0.3975  0.4957
  702SOL     OW 2805   2.128   0.421   0.845  0.3959 -0.2792  0.0752
  702SOL    HW1 2806   2.128   0.329   0.812 -0.4498  1.5764  2.1523
  702SOL    HW2 2807   2.201   0.474   0.808  2.1700 -3.0152 -3.0782
  702SOL     MW 2808   2.138   0.416   0.836  0.5184 -0.3953 -0.0668
  703SOL     OW 2809   2.729   1.217   1.053 -0.1644 -0.3465  0.8166
  703SOL    HW1 2810   2.688   1.221   0.959 -0.7603 -0.9065 -1.9083
  703SOL    HW2 2811   2.758   1.128   1.058  2.0510 -0.2504 -1.6885
  703SOL     MW 2812   2.728   1.205   1.041  0.0493 -0.4077  0.1265
  704SOL     OW 2813   3.022   1.178   0.081  0.3298 -0.0787 -0.7547
  704SOL    HW1 2814   2.923   1.192   0.063 -1.9354 -0.0125  2.1062
  704SOL    HW2 2815   3.029   1.138   0.167  1.3272 -1.6482  2.5901
  704SOL     MW 2816   3.010   1.175   0.090  0.1625 -0.2770  0.0641
  705SOL     OW 2817   2.193   1.626   1.257 -0.3673  0.0602 -0.7319
  705SOL    HW1 2818   2.102   1.629   1.301 -0.6129  0.8016  0.5693
  705SOL    HW2 2819   2.244   1.568   1.321  0.5279  0.3477 -1.1933
  705SOL     MW 2820   2.188   1.618   1.271 -0.2816  0.1960 -0.6211
  706SOL     OW 2821   3.018   1.228   0.656 -0.0143  0.8137 -0.1535
  706SOL    HW1 2822   3.071   1.244   0.571  1.0881 -1.8455 -2.4398
  706SOL    HW2 2823   2.988   1.309   0.693  1.5472 -0.9387 -0.6562
  706SOL     MW 2824   3.021   1.241   0.650  0.3371  0.2317 -0.5215
  707SOL     OW 2825   2.366   0.068   1.029 -0.4080  0.1067  0.7895
  707SOL    HW1 2826   2.396   0.139   0.975  0.4579 -1.2196 -3.6632
  707SOL    HW2 2827   2.286   0.029   0.984 -0.7340 -0.2655  0.5903
  707SOL     MW 2828   2.360   0.072   1.016 -0.3367 -0.1174  0.1758
  708SOL     OW 2829   2.419   1.439   0.197 -0.4391 -0.4456 -0.2183
  708SOL    HW1 2830   2.508   1.414   0.197  0.3592  0.9410 -2.4092
  708SOL    HW2 2831   2.410   1.447   0.102 -0.4431 -1.7326  0.2466
  708SOL     MW 2832   2.430   1.437   0.184 -0.3343 -0.4325 -0.4460
  709SOL     OW 2833   1.774   1.628   0.219  0.0568 -0.1524 -0.6914
  709SOL    HW1 2834   1.769   1.676   0.142  0.6159  0.1196  0.7623
  709SOL    HW2 2835   1.691   1.647   0.268 -0.8429  0.6850 -1.5532
  709SOL     MW 2836   1.762   1.637   0.216  0.0119 -0.0060 -0.6133
  710SOL     OW 2837   2.210   1.208   1.187 -0.2910 -0.6553 -0.8221
  710SOL    HW1 2838   2.237   1.144   1.119  1.0015 -0.6216  1.7491
  710SOL    HW2 2839   2.204   1.150   1.268 -0.8614 -0.9375  1.5149
  710SOL     MW 2840   2.213   1.192   1.189 -0.1957 -0.6881 -0.1745
  711SOL     OW 2841   2.334   0.141   1.754 -0.1729  0.2109 -0.7532
  711SOL    HW1 2842   2.422   0.121   1.791  0.1499  2.1741 -0.0786
  711SOL    HW2 2843   2.342   0.137   1.657  1.4629  1.2674  1.3640
  711SOL     MW 2844   2.347   0.137   1.746  0.0856  0.6093 -0.3849
  712SOL     OW 2845   1.910   0.503   0.126 -0.0794  0.0677  0.3208
  712SOL    HW1 2846   1.857   0.539   0.050  2.6383  0.0624 -0.3649
  712SOL    HW2 2847   1.917   0.586   0.176 -1.4956 -0.4926 -2.1140
  712SOL     MW 2848   1.904   0.519   0.123  0.0923 -0.0070 -0.0909
  713SOL     OW 2849   2.563   0.860   1.085  0.2844 -0.1279 -0.0198
  713SOL    HW1 2850   2.582   0.781   1.131 -1.2628  4.2065  1.4065
  713SOL    HW2 2851   2.475   0.876   1.126 -2.7393 -2.3593  1.1340
  713SOL     MW 2852   2.554   0.852   1.096 -0.3187  0.1496  0.3206
  714SOL     OW 2853   2.227   0.237   2.025 -0.3914  0.0386 -0.0344
  714SOL    HW1 2854   2.238   0.164   2.083 -1.6110 -0.7443  1.6542
  714SOL    HW2 2855   2.247   0.216   1.934  1.5588  1.8597 -1.2807
  714SOL     MW 2856   2.231   0.224   2.021 -0.2950  0.1756  0.0239
  715SOL     OW 2857   1.754   1.870   1.658 -0.1283 -0.1847  0.6319
  715SOL    HW1 2858   1.851   1.880   1.660  0.2130 -0.7932  0.7641
  715SOL    HW2 2859   1.731   1.828   1.740  0.7305 -1.2341 -1.9681
  715SOL     MW 2860   1.764   1.865   1.669  0.0300 -0.4034  0.3063
  716SOL     OW 2861   2.305   0.587   0.699  0.1018 -0.3877  0.8348
  716SOL    HW1 2862   2.368   0.522   0.658 -0.0485  0.9327 -0.3722
  716SOL    HW2 2863   2.258   0.627   0.623  0.4415 -0.2310  1.5530
  716SOL     MW 2864   2.307   0.583   0.683  0.1268 -0.1928  0.7703
  717SOL     OW 2865   2.864   1.588   2.891 -0.0561  0.7585 -0.5887
  717SOL    HW1 2866   2.950   1.560   2.927 -1.8467  1.0435 -0.0699
  717SOL    HW2 2867   2.829   1.662   2.941 -2.2999 -1.1108  0.0242
  717SOL     MW 2868   2.871   1.594   2.902 -0.5884  0.5495 -0.4394
  718SOL     OW 2869   2.682   1.400   1.324 -0.1419  0.2634  0.4015
  718SOL    HW1 2870   2.672   1.406   1.418  0.0487 -0.9915 -1.4546
  718SOL    HW2 2871   2.723   1.318   1.312 -0.0762  1.4004  1.3514
  718SOL     MW 2872   2.686   1.390   1.335 -0.1081  0.2479  0.2819
  719SOL     OW 2873   2.188   1.297   0.568  0.1741 -0.3702  0.6798
  719SOL    HW1 2874   2.282   1.309   0.569 -2.6117 -1.3668 -1.3441
  719SOL    HW2 2875   2.161   1.326   0.658  0.5514  1.5853 -1.7304
  719SOL     MW 2876   2.197   1.303   0.580 -0.1437 -0.2437  0.0948
  720SOL     OW 2877   2.752   1.210   0.027  0.1814 -0.2803 -0.2046
  720SOL    HW1 2878   2.707   1.139   0.067  2.9153 -0.1031  2.8379
  720SOL    HW2 2879   2.724   1.270   0.097 -1.4704  2.8174 -0.7492
  720SOL     MW 2880   2.743   1.208   0.041  0.3241  0.1518  0.1250
  721SOL     OW 2881   2.436   0.845   1.365  0.5276 -0.0474  0.1831
  721SOL    HW1 2882   2.417   0.751   1.388  0.2243 -1.6853  0.3851
  721SOL    HW2 2883   2.522   0.864   1.405 -0.4331 -0.3656 -1.7255
  721SOL     MW 2884   2.445   0.835   1.373  0.3608 -0.3055 -0.0421
  722SOL     OW 2885   2.587   1.144   0.421  0.2374 -0.6959 -0.1587
  722SOL    HW1 2886   2.531   1.197   0.481 -1.2026 -0.8775 -3.1884
  722SOL    HW2 2887   2.663   1.112   0.478 -0.7801  1.7537 -0.5492
  722SOL     MW 2888   2.590   1.146   0.437 -0.0869 -0.3966 -0.6099
  723SOL     OW 2889   2.298   1.373   1.585  0.9188 -0.0803 -0.0640
  723SOL    HW1 2890   2.317   1.355   1.494  2.4754  0.9745  1.6379
  723SOL    HW2 2891   2.223   1.440   1.581  0.2499 -0.5372 -1.3145
  723SOL     MW 2892   2.291   1.379   1.572  1.0359 -0.0014 -0.0045
  724SOL     OW 2893   2.452   0.385   0.618 -0.2671 -0.0847 -0.1493
  724SOL    HW1 2894   2.441   0.319   0.691 -1.0669 -1.7668 -1.2615
  724SOL    HW2 2895   2.545   0.413   0.622 -0.0150 -0.5751 -1.5822
  724SOL     MW 2896   2.463   0.380   0.628 -0.3394 -0.3713 -0.4851
  725SOL     OW 2897   2.541   0.572   1.188  0.2401 -0.2271  0.2116
  725SOL    HW1 2898   2.622   0.608   1.221 -0.2174  2.6686  0.8648
  725SOL    HW2 2899   2.481   0.564   1.258  0.2750 -3.5268 -1.1479
  725SOL     MW 2900   2.543   0.575   1.202  0.1843 -0.2804  0.1184
  726SOL     OW 2901   2.578   2.448   0.556 -0.8619 -0.1728  0.2938
  726SOL    HW1 2902   2.555   2.507   0.486 -1.9862 -0.9449  0.3157
  726SOL    HW2 2903   2.503   2.433   0.613  0.5806 -0.1384 -2.7735
  726SOL     MW 2904   2.565   2.454   0.555 -0.8199 -0.2702 -0.1080
  727SOL     OW 2905   2.900   0.384   1.688  0.4905  0.5321  0.4553
  727SOL    HW1 2906   2.862   0.378   1.596 -0.5759  0.1606  2.4513
  727SOL    HW2 2907   2.843   0.318   1.734  1.6331 -1.8598 -0.6133
  727SOL     MW 2908   2.887   0.374   1.682  0.5006  0.1675  0.5777
  728SOL     OW 2909   2.824   1.183   2.850 -0.4047  0.2108  0.3984
  728SOL    HW1 2910   2.855   1.255   2.794 -0.4825  1.6243 -1.6890
  728SOL    HW2 2911   2.814   1.216   2.938 -1.3785 -1.6679 -1.0973
  728SOL     MW 2912   2.827   1.197   2.855 -0.5434  0.1494 -0.0743
  729SOL     OW 2913   2.520   1.493   1.127 -0.2546  0.2570 -0.0342
  729SOL    HW1 2914   2.583   1.445   1.183 -0.3428 -1.7316  1.9877
  729SOL    HW2 2915   2.554   1.485   1.037 -1.1087 -1.3040 -3.3244
  729SOL     MW 2916   2.532   1.486   1.123 -0.3789 -0.2113 -0.2015
  730SOL     OW 2917   2.229   1.177   0.172  1.2698  0.0357 -0.2817
  730SOL    HW1 2918   2.311   1.132   0.159 -1.3144  1.6160 -1.1009
  730SOL    HW2 2919   2.265   1.260   0.210  0.8250 -1.2659  2.3889
  730SOL     MW 2920   2.244   1.182   0.175  0.8701  0.0724 -0.0374
  731SOL     OW 2921   2.758   1.900   2.849 -0.2580 -0.2228  0.0337
  731SOL    HW1 2922   2.691   1.932   2.787  0.8630 -2.2639 -0.3322
  731SOL    HW2 2923   2.834   1.959   2.820  1.3670  1.1820 -0.3160
  731SOL     MW 2924   2.759   1.912   2.837  0.1043 -0.3067 -0.0607
  732SOL     OW 2925   2.214   1.003   1.368  0.1007  0.1457 -0.0918
  732SOL    HW1 2926   2.168   0.997   1.451  0.5804 -0.6666 -1.0560
  732SOL    HW2 2927   2.299   0.966   1.380 -0.3788 -0.9384 -0.6193
  732SOL     MW 2928   2.219   0.997   1.381  0.1007 -0.1045 -0.2886
  733SOL     OW 2929   2.361   2.756   3.021  0.0061  0.0687 -0.0803
  733SOL    HW1 2930   2.276   2.799   2.991  1.0357  0.5676 -3.1650
  733SOL    HW2 2931   2.338   2.668   3.049 -0.6385 -0.6271  3.0798
  733SOL     MW 2932   2.346   2.750   3.021  0.0569  0.0427 -0.0704
  734SOL     OW 2933   1.448   0.365   2.450 -0.3986  0.5063 -0.3571
  734SOL    HW1 2934   1.427   0.341   2.538  1.2937  2.2528 -0.7949
  734SOL    HW2 2935   1.496   0.287   2.414  0.0480 -1.1322  1.3386
  734SOL     MW 2936   1.451   0.352   2.457 -0.1164  0.5205 -0.1911
  735SOL     OW 2937   2.925   0.881   2.623  0.0290  0.0250  0.1490
  735SOL    HW1 2938   2.924   0.781   2.613 -0.3156 -1.2099 -0.7263
  735SOL    HW2 2939   2.969   0.902   2.709  3.8266 -0.4851 -1.9965
  735SOL     MW 2940   2.931   0.870   2.633  0.4846 -0.2052 -0.2495
  736SOL     OW 2941   0.075   0.574   2.476 -0.0561  0.2650 -0.2856
  736SOL    HW1 2942   0.125   0.646   2.447 -0.4905 -0.8326  0.3151
  736SOL    HW2 2943   0.058   0.515   2.402  1.2893 -0.6026  0.5843
  736SOL     MW 2944   0.080   0.576   2.463  0.0641  0.0057 -0.0916
  737SOL     OW 2945   2.935   0.630   2.553 -0.1110  0.0326  0.3323
  737SOL    HW1 2946   2.870   0.599   2.488  2.9838 -1.7936  0.9555
  737SOL    HW2 2947   3.029   0.604   2.523 -1.7835  0.2185  3.0223
  737SOL     MW 2948   2.939   0.622   2.541  0.0767 -0.1838  0.7695
  738SOL     OW 2949   0.171   0.625   1.888 -0.8768 -0.1516  0.2500
  738SOL    HW1 2950   0.264   0.641   1.907  0.3790 -0.7828  2.3503
  738SOL    HW2 2951   0.168   0.547   1.831 -2.0609  1.6137 -0.7009
  738SOL     MW 2952   0.183   0.617   1.883 -0.8674 -0.0020  0.4016
  739SOL     OW 2953   2.447   1.021   2.054  0.3726 -0.3638 -0.2107
  739SOL    HW1 2954   2.409   0.945   2.011 -1.3737 -0.3449  2.0594
  739SOL    HW2 2955   2.504   1.054   1.985  1.3427  0.3632  1.1344
  739SOL     MW 2956   2.449   1.015   2.039  0.2702 -0.2654  0.2663
  740SOL     OW 2957   0.283   1.751   2.949 -0.1878 -0.2135 -0.5235
  740SOL    HW1 2958   0.217   1.683   2.952 -0.6509 -0.8087  0.6176
  740SOL    HW2 2959   0.374   1.717   2.964 -0.4591  0.3976 -2.4374
  740SOL     MW 2960   0.286   1.738   2.951 -0.2847 -0.2114 -0.6255
  741SOL     OW 2961   2.244   1.173   2.743 -0.3537 -0.4345 -0.0420
  741SOL    HW1 2962   2.191   1.242   2.694 -1.5163 -0.9276 -2.8601
  741SOL    HW2 2963   2.263   1.219   2.828 -0.8564  1.3125  1.7848
  741SOL     MW 2964   2.240   1.188   2.748 -0.5734 -0.2691 -0.1728
  742SOL     OW 2965   1.507   1.231   2.215 -0.2388 -0.3497 -0.2276
  742SOL    HW1 2966   1.540   1.145   2.185  0.7791  1.6550 -0.6492
  742SOL    HW2 2967   1.552   1.244   2.299 -2.7018  0.3497 -0.6687
  742SOL     MW 2968   1.518   1.221   2.222 -0.4295  0.0071 -0.3414
  743SOL     OW 2969   2.514   1.294   2.722 -0.8976  0.9076 -0.3408
  743SOL    HW1 2970   2.429   1.289   2.762  2.4120  0.4618 -0.4481
  743SOL    HW2 2971   2.537   1.202   2.716 -0.4465 -3.2378 -0.0996
  743SOL     MW 2972   2.506   1.281   2.727 -0.4014  0.3018 -0.3232
  744SOL     OW 2973   2.757   0.962   1.772  0.2351  0.2822  0.1097
  744SOL    HW1 2974   2.675   1.009   1.764  1.5236 -2.3262  0.2946
  744SOL    HW2 2975   2.753   0.890   1.712 -0.0411  1.7659  0.7819
  744SOL     MW 2976   2.746   0.959   1.763  0.3687  0.1338  0.2228
  745SOL     OW 2977   1.716   0.455   2.493 -0.7075 -0.0324 -0.4433
  745SOL    HW1 2978   1.748   0.509   2.426 -1.6414  0.6996  0.2382
  745SOL    HW2 2979   1.621   0.462   2.492 -2.1174 -3.1212 -1.3210
  745SOL     MW 2980   1.708   0.463   2.484 -1.0168 -0.3434 -0.4692
  746SOL     OW 2981   1.562   1.436   1.597  0.2074  0.1535 -0.7884
  746SOL    HW1 2982   1.658   1.420   1.602  2.6707 -0.6375  1.4622
  746SOL    HW2 2983   1.526   1.402   1.680  0.6008  0.4983  0.3775
  746SOL     MW 2984   1.570   1.430   1.609  0.5843  0.0946 -0.3376
  747SOL     OW 2985   2.547   1.160   1.795 -0.3015  0.9005 -0.0486
  747SOL    HW1 2986   2.452   1.157   1.777 -2.4479 -1.8706  1.5870
  747SOL    HW2 2987   2.576   1.241   1.841  1.2394 -1.0472  1.0716
  747SOL     MW 2988   2.538   1.170   1.799 -0.3814  0.2779  0.3150
  748SOL     OW 2989   0.144   0.045   1.797  0.0635 -0.4111  0.3384
  748SOL    HW1 2990   0.187  -0.037   1.823  2.0458 -1.3314  1.0001
  748SOL    HW2 2991   0.089   0.073   1.869 -0.1074 -1.3979 -2.4245
  748SOL     MW 2992   0.143   0.038   1.810  0.3025 -0.6627  0.0612
  749SOL     OW 2993   2.443   0.548   2.803 -0.3655 -0.2935 -0.3702
  749SOL    HW1 2994   2.430   0.585   2.713  2.1983  0.5161  1.1195
  749SOL    HW2 2995   2.457   0.630   2.867 -1.5878 -1.1043  0.0475
  749SOL     MW 2996   2.443   0.564   2.800 -0.1885 -0.2936 -0.1185
  750SOL     OW 2997   2.051   3.094   1.968  0.1381 -0.1943  0.3007
  750SOL    HW1 2998   2.086   3.163   2.021 -1.1750  1.7536  1.0013
  750SOL    HW2 2999   2.121   3.029   1.949 -0.1534  3.3976 -1.4273
  750SOL     MW 3000   2.065   3.094   1.973 -0.0736  0.5366  0.1651
  751SOL     OW 3001   0.040   0.397   2.287  0.0960 -0.0146  0.1532
  751SOL    HW1 3002  -0.018   0.322   2.313  0.1767  2.2244 -1.4390
  751SOL    HW2 3003   0.116   0.338   2.267 -0.3799 -1.6253 -0.0820
  751SOL     MW 3004   0.042   0.380   2.288  0.0439  0.0683 -0.0879
  752SOL     OW 3005   2.123   0.814   2.683  0.6490  0.2383 -0.8392
  752SOL    HW1 3006   2.200   0.866   2.656 -1.1216  1.4826 -0.9139
  752SOL    HW2 3007   2.130   0.808   2.776 -0.3460  2.6970 -1.7303
  752SOL     MW 3008   2.134   0.820   2.691  0.2841  0.7269 -0.9666
  753SOL     OW 3009   2.925   0.240   2.387  0.2033  0.1417  0.6264
  753SOL    HW1 3010   2.857   0.190   2.344  0.7572 -0.9389 -0.3780
  753SOL    HW2 3011   2.883   0.323   2.393  0.3146  0.8518 -0.0588
  753SOL     MW 3012   2.910   0.244   2.383  0.2910  0.0928  0.4035
  754SOL     OW 3013   2.258   2.993   2.644 -0.5892  0.1873 -0.3076
  754SOL    HW1 3014   2.265   2.973   2.549  0.8196 -0.9725 -1.2696
  754SOL    HW2 3015   2.304   2.924   2.694  0.5666 -1.0346  0.9088
  754SOL     MW 3016   2.265   2.981   2.638 -0.2508 -0.1269 -0.2740
  755SOL     OW 3017   2.729   1.594   2.479  0.3254 -0.2604  0.2084
  755SOL    HW1 3018   2.688   1.527   2.536  1.0614 -2.8686  1.9302
  755SOL    HW2 3019   2.795   1.631   2.546 -0.0081  0.4123  3.3084
  755SOL     MW 3020   2.732   1.590   2.496  0.3785 -0.5158  0.8446
  756SOL     OW 3021   2.259   1.344   2.946  0.2220 -0.0405 -0.1118
  756SOL    HW1 3022   2.289   1.438   2.957 -1.6141  2.0079  0.1269
  756SOL    HW2 3023   2.325   1.296   2.998  1.6018  1.7165  0.6763
  756SOL     MW 3024   2.272   1.350   2.955  0.1618  0.4616  0.0237
  757SOL     OW 3025   2.097   0.966   1.619  0.1399 -0.7477  1.0040
  757SOL    HW1 3026   2.126   0.874   1.613 -0.6109 -0.3101  0.7424
  757SOL    HW2 3027   1.998   0.964   1.602  1.9292 -0.7568  2.0703
  757SOL     MW 3028   2.088   0.954   1.616  0.2769 -0.6912  1.1102
  758SOL     OW 3029   2.190   1.790   2.611  0.1029 -0.4956 -0.0921
  758SOL    HW1 3030   2.188   1.798   2.514  2.0949 -1.4269  0.0566
  758SOL    HW2 3031   2.283   1.778   2.624 -1.9913 -1.5906  2.2915
  758SOL     MW 3032   2.202   1.790   2.600  0.0894 -0.7629  0.2420
  759SOL     OW 3033   1.594   1.352   2.725  0.5658  0.0861  0.0784
  759SOL    HW1 3034   1.596   1.433   2.670  0.9772 -1.4232 -1.0590
  759SOL    HW2 3035   1.644   1.371   2.799  1.7158  1.2018 -2.3259
  759SOL     MW 3036   1.601   1.365   2.728  0.7718  0.0342 -0.3889
  760SOL     OW 3037   2.546   1.975   2.696 -0.3159  0.3086 -0.6953
  760SOL    HW1 3038   2.523   1.888   2.661  1.6739  4.5305  2.8352
  760SOL    HW2 3039   2.579   2.038   2.625 -0.0465  2.2107 -0.4994
  760SOL     MW 3040   2.547   1.972   2.682 -0.0178  1.1166 -0.2036
  761SOL     OW 3041   2.114   0.424   2.469  0.7946  0.0299 -0.3195
  761SOL    HW1 3042   2.050   0.350   2.487  0.5125 -1.9716  2.2480
  761SOL    HW2 3043   2.119   0.469   2.553  0.2963  2.8611 -0.1823
  761SOL     MW 3044   2.106   0.420   2.483  0.6917  0.1394  0.0374
  762SOL     OW 3045   3.077   0.142   1.995  0.2956 -0.6214 -0.0669
  762SOL    HW1 3046   3.072   0.106   2.080 -0.8540  0.9080  1.0501
  762SOL    HW2 3047   3.056   0.236   1.998 -1.1966  0.5223  0.0075
  762SOL     MW 3048   3.073   0.150   2.007 -0.0529 -0.2687  0.0903
  763SOL     OW 3049   2.423   1.066   2.339  0.1127  0.3618 -0.1528
  763SOL    HW1 3050   2.455   1.050   2.244  1.9044  1.3274 -0.7780
  763SOL    HW2 3051   2.467   1.152   2.360 -0.5282  1.4529  0.9309
  763SOL     MW 3052   2.433   1.076   2.329  0.2646  0.6331 -0.0923
  764SOL     OW 3053   0.433   0.231   2.778  0.5696  0.2388  0.1534
  764SOL    HW1 3054   0.343   0.220   2.742  2.2046  0.8214 -3.0658
  764SOL    HW2 3055   0.423   0.303   2.839  1.0465 -0.3191 -1.3683
  764SOL     MW 3056   0.420   0.239   2.781  0.8482  0.2421 -0.4721
  765SOL     OW 3057   2.724   0.088   2.275  0.1974  0.4626 -0.1280
  765SOL    HW1 3058   2.659   0.057   2.205  0.4298  0.1480 -0.2325
  765SOL    HW2 3059   2.766   0.003   2.308 -0.9568 -0.9631  1.5317
  765SOL     MW 3060   2.721   0.073   2.270  0.0757  0.2330  0.0772
  766SOL     OW 3061   1.865   3.037   2.178 -0.2710 -0.2046  0.5056
  766SOL    HW1 3062   1.908   3.081   2.104 -1.5446 -0.2858  1.7819
  766SOL    HW2 3063   1.811   2.963   2.144  1.5806 -1.0316 -0.2383
  766SOL     MW 3064   1.864   3.033   2.164 -0.1947 -0.3244  0.5758
  767SOL     OW 3065   2.646   0.637   1.952  0.0672 -0.6151 -0.1591
  767SOL    HW1 3066   2.696   0.688   2.015  0.7456 -0.0924  0.8473
  767SOL    HW2 3067   2.554   0.649   1.978 -0.5777  1.4483  0.5209
  767SOL     MW 3068   2.641   0.645   1.964  0.0716 -0.2739  0.0634
  768SOL     OW 3069   0.025   1.560   2.981 -0.4583  0.2264  0.4175
  768SOL    HW1 3070   0.033   1.534   3.072  1.2218  0.5085 -0.8864
  768SOL    HW2 3071   0.060   1.495   2.916 -0.3423 -3.2002  0.4714
  768SOL     MW 3072   0.030   1.548   2.984 -0.2213 -0.1884  0.2526
  769SOL     OW 3073   2.351   0.698   2.279  0.0430  0.0557 -0.2800
  769SOL    HW1 3074   2.264   0.659   2.286 -1.1612 -1.1706  0.0211
  769SOL    HW2 3075   2.386   0.649   2.204  2.6092  0.7086  2.8880
  769SOL     MW 3076   2.344   0.686   2.270  0.2227 -0.0200  0.1777
  770SOL     OW 3077   0.094   1.658   2.624 -0.0064 -0.4165  0.5260
  770SOL    HW1 3078  -0.004   1.647   2.614 -0.8416 -3.0932 -1.7819
  770SOL    HW2 3079   0.117   1.570   2.660  1.8049 -3.4439  1.2588
  770SOL     MW 3080   0.084   1.645   2.627  0.1223 -1.1691  0.3182
  771SOL     OW 3081   3.005   0.636   1.945 -0.3415 -0.1746 -0.1706
  771SOL    HW1 3082   2.958   0.620   1.858 -1.6246  2.4569  0.9883
  771SOL    HW2 3083   3.097   0.635   1.920  0.4262  1.5078 -3.2230
  771SOL     MW 3084   3.011   0.634   1.930 -0.4095  0.3946 -0.4204
  772SOL     OW 3085   3.074   0.013   2.244 -0.2695 -0.2894 -0.1554
  772SOL    HW1 3086   2.997  -0.021   2.283  3.8167  0.8197  0.8588
  772SOL    HW2 3087   3.143  -0.051   2.249 -0.1542  1.9319 -2.1917
  772SOL     MW 3088   3.073  -0.000   2.250  0.2848  0.1500 -0.2902
  773SOL     OW 3089   2.424   2.816   2.746  0.3093  0.0276 -0.5683
  773SOL    HW1 3090   2.398   2.731   2.702 -0.5393  1.5176 -0.4451
  773SOL    HW2 3091   2.407   2.790   2.841 -2.3801 -0.4071  0.6224
  773SOL     MW 3092   2.418   2.801   2.753 -0.1575  0.1668 -0.3949
  774SOL     OW 3093   2.271   1.149   1.747 -0.1078 -0.3725 -0.6954
  774SOL    HW1 3094   2.276   1.240   1.718  2.4175  0.0022  1.9372
  774SOL    HW2 3095   2.207   1.104   1.700  0.4974 -1.1055  1.8478
  774SOL     MW 3096   2.263   1.155   1.737  0.3052 -0.4197 -0.0125
  775SOL     OW 3097   2.276   2.951   2.387  0.8919 -0.4353 -1.0271
  775SOL    HW1 3098   2.304   3.026   2.337  1.8988 -1.1151  3.2901
  775SOL    HW2 3099   2.319   2.876   2.357 -1.5375 -0.7028  0.4171
  775SOL     MW 3100   2.285   2.951   2.377  0.7042 -0.5603 -0.2669
  776SOL     OW 3101   0.065   1.424   0.162 -0.4876 -0.2204 -0.5806
  776SOL    HW1 3102   0.144   1.379   0.162 -2.8444  0.5467  0.0195
  776SOL    HW2 3103  -0.007   1.363   0.151 -1.6601 -2.0103  0.1169
  776SOL     MW 3104   0.066   1.410   0.160 -0.9532 -0.3554 -0.4094
  777SOL     OW 3105   3.006   1.103   1.708  0.2950 -0.1636  0.7331
  777SOL    HW1 3106   2.964   1.184   1.680 -2.1579  0.7465 -0.3104
  777SOL    HW2 3107   2.932   1.049   1.742 -1.5080 -2.1123 -0.7004
  777SOL     MW 3108   2.991   1.106   1.709 -0.2665 -0.3006  0.4063
  778SOL     OW 3109   2.916   0.440   2.746 -0.0417 -0.0095 -0.2865
  778SOL    HW1 3110   2.840   0.463   2.804  0.8330 -1.1117  1.3156
  778SOL    HW2 3111   2.912   0.496   2.669 -1.6108  1.5696 -2.4854
  778SOL     MW 3112   2.905   0.451   2.743 -0.1334  0.0534 -0.3653
  779SOL     OW 3113   2.100   0.603   2.275 -0.3073  0.3383  0.7339
  779SOL    HW1 3114   2.017   0.660   2.271  1.4722 -0.3180 -1.2976
  779SOL    HW2 3115   2.082   0.533   2.354 -1.7351 -0.6211 -0.8485
  779SOL     MW 3116   2.086   0.602   2.285 -0.2609  0.1251  0.2571
  780SOL     OW 3117   0.134   0.187   2.761  0.5206  0.2294  0.2779
  780SOL    HW1 3118   0.123   0.236   2.843  2.1449  0.6262 -1.1421
  780SOL    HW2 3119   0.053   0.184   2.714 -0.1596  0.0051  1.2503
  780SOL     MW 3120   0.122   0.193   2.766  0.6451  0.2521  0.2188
  781SOL     OW 3121   3.046   1.319   2.519 -0.2925  0.1647 -0.6000
  781SOL    HW1 3122   3.046   1.365   2.436  0.8431  2.1232 -0.5071
  781SOL    HW2 3123   3.060   1.224   2.500  2.0697 -2.6038 -0.5410
  781SOL     MW 3124   3.048   1.313   2.505  0.1690  0.0579 -0.5799
  782SOL     OW 3125   0.751   1.498   3.060 -0.3721  0.2722 -0.7023
  782SOL    HW1 3126   0.683   1.571   3.075 -1.1399 -0.4108  1.3439
  782SOL    HW2 3127   0.801   1.491   3.142  0.3161  0.3091  1.0769
  782SOL     MW 3128   0.749   1.507   3.073 -0.3826  0.1870 -0.1976
  783SOL     OW 3129   2.764   0.474   2.399  0.1111 -0.0226  0.4136
  783SOL    HW1 3130   2.693   0.476   2.335  1.0645 -1.2606 -0.6973
  783SOL    HW2 3131   2.720   0.438   2.477  2.3548  1.3352  1.0390
  783SOL     MW 3132   2.749   0.470   2.401  0.5330 -0.0068  0.3495
  784SOL     OW 3133   0.208   0.830   2.883 -0.0784  0.6953 -0.2645
  784SOL    HW1 3134   0.191   0.920   2.920  2.2053 -1.0181 -0.8981
  784SOL    HW2 3135   0.247   0.849   2.802  4.9166 -2.8639  0.9920
  784SOL     MW 3136   0.211   0.844   2.877  0.8819 -0.0004 -0.1823
  785SOL     OW 3137   0.413   0.487   2.202  0.3381 -0.0312  0.2954
  785SOL    HW1 3138   0.379   0.554   2.142 -1.9682  1.0363  0.5566
  785SOL    HW2 3139   0.357   0.405   2.194 -2.0237 -1.5908  0.7656
  785SOL     MW 3140   0.401   0.485   2.193 -0.2778 -0.0961  0.3919
  786SOL     OW 3141   1.990   0.416   2.937 -0.6126  0.5002  0.2425
  786SOL    HW1 3142   2.023   0.443   3.028 -2.0800 -0.0084 -0.7523
  786SOL    HW2 3143   2.063   0.444   2.877  1.5978  1.6759 -0.6673
  786SOL     MW 3144   2.004   0.423   2.941 -0.5146  0.5882 -0.0088
  787SOL     OW 3145   2.441   0.169   2.895  0.2204 -0.3683  0.3931
  787SOL    HW1 3146   2.471   0.081   2.849 -2.9995  1.1571  1.8890
  787SOL    HW2 3147   2.518   0.211   2.938 -0.5284  0.5060 -0.4269
  787SOL     MW 3148   2.455   0.163   2.895 -0.3032 -0.0517  0.4823
  788SOL     OW 3149   2.863   2.989   2.389  0.3398 -0.0996  0.6181
  788SOL    HW1 3150   2.867   2.993   2.482  0.9892 -0.7615  2.7433
  788SOL    HW2 3151   2.879   2.898   2.353  1.2441 -0.5936 -0.8790
  788SOL     MW 3152   2.866   2.977   2.396  0.5448 -0.2521  0.7010
  789SOL     OW 3153   0.048   0.285   3.003  0.4901  0.1792 -0.4558
  789SOL    HW1 3154  -0.008   0.228   3.050  3.4100 -0.4592 -0.9433
  789SOL    HW2 3155  -0.000   0.364   2.978 -0.3130  3.5266 -1.8443
  789SOL     MW 3156   0.035   0.288   3.006  0.7694  0.5366 -0.7033
  790SOL     OW 3157   3.067   1.052   2.461  0.1318 -0.2679 -0.1985
  790SOL    HW1 3158   3.048   0.974   2.526  1.4915 -0.5912 -0.2555
  790SOL    HW2 3159   3.027   1.027   2.371 -0.4157  0.1682 -1.6627
  790SOL     MW 3160   3.059   1.038   2.458  0.2389 -0.2531 -0.3992
  791SOL     OW 3161   2.633   0.387   2.621 -0.0189 -0.2598 -0.2245
  791SOL    HW1 3162   2.553   0.419   2.667 -1.0609 -1.4208  1.5757
  791SOL    HW2 3163   2.688   0.354   2.691 -2.3933  0.2164 -0.5175
  791SOL     MW 3164   2.629   0.387   2.636 -0.4697 -0.3501 -0.0257
  792SOL     OW 3165   2.339   0.298   2.389  0.2684 -0.1280  0.5548
  792SOL    HW1 3166   2.269   0.358   2.416  0.6769 -0.3448  2.7163
  792SOL    HW2 3167   2.353   0.244   2.472 -0.3860 -2.4261  1.9117
  792SOL     MW 3168   2.331   0.299   2.404  0.2360 -0.4598  1.0191
  793SOL     OW 3169   1.833   1.022   1.978  0.7864  0.2466  0.1624
  793SOL    HW1 3170   1.789   1.060   1.905 -3.6478  1.1836  1.6143
  793SOL    HW2 3171   1.898   0.958   1.938  3.5567 -1.2789 -3.0960
  793SOL     MW 3172   1.836   1.019   1.963  0.5669  0.1690 -0.0759
  794SOL     OW 3173   1.401   2.276   0.190 -0.3095 -0.1015 -0.1198
  794SOL    HW1 3174   1.430   2.339   0.120  0.4434 -0.4361  0.8881
  794SOL    HW2 3175   1.458   2.290   0.262 -2.5858  0.3104  0.5462
  794SOL     MW 3176   1.412   2.286   0.190 -0.5105 -0.0913  0.1011
  795SOL     OW 3177   2.350   0.967   2.618  0.0808  0.2005 -0.7095
  795SOL    HW1 3178   2.320   1.040   2.675 -1.3739 -2.6486 -0.9159
  795SOL    HW2 3179   2.374   1.013   2.533  0.8334 -0.0976 -1.0401
  795SOL     MW 3180   2.349   0.982   2.614 -0.0118 -0.2147 -0.7803
  796SOL     OW 3181   0.262   0.592   2.750 -0.4485  0.3486 -0.0779
  796SOL    HW1 3182   0.230   0.662   2.804 -0.9262 -1.0440 -0.8184
  796SOL    HW2 3183   0.210   0.599   2.674 -0.8158  1.4912  1.1696
  796SOL     MW 3184   0.251   0.602   2.747 -0.5600  0.3156 -0.0110
  797SOL     OW 3185   2.578   0.107   2.502 -0.2920 -0.4800 -0.1460
  797SOL    HW1 3186   2.609   0.202   2.530  2.0685  1.3778 -0.0567
  797SOL    HW2 3187   2.628   0.098   2.416 -3.3430  0.5466  2.0059
  797SOL     MW 3188   2.588   0.118   2.495 -0.3831 -0.0995  0.1497
  798SOL     OW 3189   2.301   0.076   2.230  0.1456 -0.3511 -0.3027
  798SOL    HW1 3190   2.319   0.159   2.284 -3.5161  0.3486 -1.1998
  798SOL    HW2 3191   2.384   0.041   2.186 -1.4753 -1.3549  0.2154
  798SOL     MW 3192   2.314   0.083   2.231 -0.5514 -0.3912 -0.3527
  799SOL     OW 3193   2.488   2.961   0.062 -0.3191 -0.4686  0.5812
  799SOL    HW1 3194   2.455   2.877   0.039 -3.4452  0.3812  1.6393
  799SOL    HW2 3195   2.414   3.023   0.052  0.6379  0.2497  0.1297
  799SOL     MW 3196   2.474   2.958   0.058 -0.6053 -0.2617  0.6613
  800SOL     OW 3197   1.887   0.029   1.747 -0.1244  0.2769  0.2339
  800SOL    HW1 3198   1.832  -0.049   1.758 -0.1283 -0.4188 -1.7671
  800SOL    HW2 3199   1.936   0.026   1.828  0.1702 -2.6024  1.0335
  800SOL     MW 3200   1.886   0.018   1.759 -0.0861 -0.1948  0.0754
  801SOL     OW 3201   2.764   1.280   2.569  0.4429  0.1792  0.0543
  801SOL    HW1 3202   2.742   1.183   2.565  1.3850 -3.1578 -0.0144
  801SOL    HW2 3203   2.856   1.295   2.548 -1.9180  0.8177  1.0139
  801SOL     MW 3204   2.773   1.269   2.566  0.2557 -0.1768  0.1718
  802SOL     OW 3205   2.606   1.548   2.770 -0.2741 -0.4733  0.2612
  802SOL    HW1 3206   2.582   1.454   2.747 -1.1205  1.1078 -1.3350
  802SOL    HW2 3207   2.681   1.546   2.831  1.3622 -2.9027  1.1632
  802SOL     MW 3208   2.613   1.536   2.775 -0.1699 -0.5852  0.1696
  803SOL     OW 3209   2.281   1.409   2.007  0.7133  0.1771 -0.1851
  803SOL    HW1 3210   2.265   1.387   2.098  1.0771 -1.3279 -2.8517
  803SOL    HW2 3211   2.309   1.329   1.968  1.3533  3.6420 -1.2081
  803SOL     MW 3212   2.283   1.395   2.014  0.8457  0.4357 -0.6719
  804SOL     OW 3213   2.284   0.067   0.005  0.1988 -0.0544  0.5152
  804SOL    HW1 3214   2.196   0.111   0.018 -1.5138 -1.7905 -0.2504
  804SOL    HW2 3215   2.332   0.113  -0.062  0.3030 -1.9688  0.7441
  804SOL     MW 3216   2.278   0.079  -0.002 -0.0134 -0.5360  0.4444
  805SOL     OW 3217   2.693   1.009   2.554 -0.4305 -0.2738 -0.1694
  805SOL    HW1 3218   2.634   0.953   2.507  0.0431 -1.0341 -0.8355
  805SOL    HW2 3219   2.773   0.951   2.566  0.1631  0.5841  0.4407
  805SOL     MW 3220   2.696   0.994   2.550 -0.2897 -0.2609 -0.1768
  806SOL     OW 3221   2.528   0.452   2.268  0.0491 -0.8850 -0.1172
  806SOL    HW1 3222   2.457   0.400   2.309 -0.4640  0.2542 -2.5096
  806SOL    HW2 3223   2.506   0.446   2.175 -2.2714  1.0501 -0.5440
  806SOL     MW 3224   2.516   0.444   2.261 -0.3247 -0.4794 -0.4892
  807SOL     OW 3225   0.088   1.139   2.078  0.2631  0.2387  0.1733
  807SOL    HW1 3226   0.079   1.048   2.054  0.6621 -1.2142  0.7977
  807SOL    HW2 3227   0.002   1.150   2.117  1.7545 -0.7937 -2.1230
  807SOL     MW 3228   0.075   1.129   2.080  0.5125 -0.0892 -0.0473
  808SOL     OW 3229   2.523   3.069   2.745 -0.0471  0.2363 -0.5795
  808SOL    HW1 3230   2.486   2.981   2.724  1.7010  1.2682 -1.7391
  808SOL    HW2 3231   2.544   3.108   2.659 -2.3343 -0.0712 -0.9460
  808SOL     MW 3232   2.521   3.062   2.731 -0.1182  0.3319 -0.7808
  809SOL     OW 3233   2.532   1.304   2.406  0.5959 -0.9296  0.3280
  809SOL    HW1 3234   2.585   1.309   2.487  0.0802  0.2443 -2.0209
  809SOL    HW2 3235   2.597   1.279   2.336 -1.1873 -0.7521 -3.7352
  809SOL     MW 3236   2.548   1.302   2.408  0.2926 -0.7513 -0.5180
  810SOL     OW 3237   2.240   1.265   2.245  0.2486 -0.3787  0.6467
  810SOL    HW1 3238   2.308   1.202   2.265  0.2511 -2.3568  0.3736
  810SOL    HW2 3239   2.163   1.215   2.207 -0.5786 -2.9209 -3.1057
  810SOL     MW 3240   2.239   1.250   2.243  0.1398 -0.9751  0.1156
  811SOL     OW 3241   1.563   0.153   2.294 -0.2234  0.1854 -0.1672
  811SOL    HW1 3242   1.625   0.081   2.333  1.1863 -2.5060  1.5953
  811SOL    HW2 3243   1.555   0.139   2.197 -0.7360 -0.0986 -2.4838
  811SOL     MW 3244   1.570   0.142   2.287 -0.1050 -0.2071 -0.2403
  812SOL     OW 3245   1.488   2.859   2.126 -0.4673  0.0607  0.0608
  812SOL    HW1 3246   1.580   2.833   2.097  1.3362 -2.3576 -1.3932
  812SOL    HW2 3247   1.479   2.823   2.217  0.6372 -1.5167  0.4711
  812SOL     MW 3248   1.499   2.851   2.134 -0.0836 -0.4665 -0.0769
  813SOL     OW 3249   1.823   0.743   2.169 -0.1285  0.2410  0.1570
  813SOL    HW1 3250   1.820   0.646   2.178  0.1668  0.3397  1.8538
  813SOL    HW2 3251   1.848   0.777   2.257 -0.3933  0.1539 -0.8185
  813SOL     MW 3252   1.826   0.735   2.182 -0.1244  0.2425  0.2521
  814SOL     OW 3253   2.763   1.265   1.617 -0.0388 -0.2588  0.3419
  814SOL    HW1 3254   2.683   1.229   1.655 -1.9286  3.5135 -4.3780
  814SOL    HW2 3255   2.772   1.217   1.539 -1.5435  0.6707  2.5068
  814SOL     MW 3256   2.753   1.254   1.612 -0.4866  0.3616  0.0048
  815SOL     OW 3257   2.471   1.676   2.382 -0.2938  0.1964  0.2783
  815SOL    HW1 3258   2.417   1.601   2.371  0.2428 -0.3529 -1.7048
  815SOL    HW2 3259   2.564   1.640   2.408  3.1314  1.5153  2.6227
  815SOL     MW 3260   2.476   1.662   2.384  0.2289  0.2980  0.3260
  816SOL     OW 3261   0.784   0.695   2.731  0.3410  0.0445  0.1505
  816SOL    HW1 3262   0.774   0.628   2.801 -3.3343  0.0390 -1.3804
  816SOL    HW2 3263   0.698   0.718   2.695 -0.3361 -2.1498 -3.7406
  816SOL     MW 3264   0.771   0.689   2.735 -0.2333 -0.2457 -0.5649
  817SOL     OW 3265   3.036   1.295   1.474  0.5065 -0.0699  0.0060
  817SOL    HW1 3266   3.113   1.239   1.473  0.0020  0.2348  0.1554
  817SOL    HW2 3267   3.049   1.378   1.427 -0.4106 -0.0048 -3.1108
  817SOL     MW 3268   3.048   1.299   1.467  0.3189 -0.0211 -0.3855
  818SOL     OW 3269   1.939   1.072   2.685 -0.1317  0.1863  0.2886
  818SOL    HW1 3270   1.942   1.133   2.612  1.8815  0.2069 -0.9472
  818SOL    HW2 3271   1.980   0.994   2.651  0.4219 -0.3196  2.5310
  818SOL     MW 3272   1.945   1.070   2.671  0.2070  0.1222  0.4214
  819SOL     OW 3273   1.871   0.229   2.452  0.1620  0.3863  0.0715
  819SOL    HW1 3274   1.794   0.288   2.472 -0.0628 -1.6130 -4.9867
  819SOL    HW2 3275   1.918   0.216   2.531 -1.0235  0.4908 -1.1249
  819SOL     MW 3276   1.867   0.235   2.465 -0.0241  0.1363 -0.7537
  820SOL     OW 3277   2.461   1.727   2.641 -0.0510 -0.1247  0.4002
  820SOL    HW1 3278   2.527   1.666   2.681  0.6599  4.7803  0.9492
  820SOL    HW2 3279   2.449   1.709   2.542  1.3906  1.2009  1.1139
  820SOL     MW 3280   2.468   1.717   2.633  0.2330  0.6974  0.5668
  821SOL     OW 3281   2.585   1.351   1.979 -0.1447 -0.1571  0.4557
  821SOL    HW1 3282   2.644   1.400   1.923 -4.8578  0.1186 -0.6054
  821SOL    HW2 3283   2.544   1.426   2.018  0.5086  1.1699  0.1186
  821SOL     MW 3284   2.588   1.368   1.977 -0.6803  0.0544  0.2712
  822SOL     OW 3285   2.792   2.584   1.491  0.4734 -0.4238 -0.4627
  822SOL    HW1 3286   2.812   2.616   1.583 -0.4256 -1.3548  1.8849
  822SOL    HW2 3287   2.770   2.656   1.440  0.3167 -1.1811  1.1316
  822SOL     MW 3288   2.792   2.598   1.497  0.3341 -0.6466  0.0574
  823SOL     OW 3289   2.251   0.456   1.754  0.2309 -0.6161 -0.2095
  823SOL    HW1 3290   2.324   0.409   1.716 -0.3485 -0.1493  0.4047
  823SOL    HW2 3291   2.165   0.414   1.730 -2.2238  1.2725 -0.6467
  823SOL     MW 3292   2.249   0.444   1.746 -0.1694 -0.3053 -0.1861
  824SOL     OW 3293   2.078   1.347   2.603  0.1947 -0.6869  0.5769
  824SOL    HW1 3294   2.148   1.412   2.589 -2.6400  3.3493 -1.7461
  824SOL    HW2 3295   2.020   1.384   2.663 -0.9145 -2.7822 -0.8915
  824SOL     MW 3296   2.080   1.361   2.609 -0.3256 -0.4308  0.0766
  825SOL     OW 3297   2.037   2.564   0.314  0.0836 -0.0679  0.0861
  825SOL    HW1 3298   2.012   2.499   0.380  1.5983  0.4183  1.9886
  825SOL    HW2 3299   2.083   2.512   0.249  0.1488 -0.0724  0.0164
  825SOL     MW 3300   2.040   2.548   0.314  0.2920 -0.0044  0.3279
  826SOL     OW 3301   1.919   2.434   0.507  0.2703 -0.5976  0.0553
  826SOL    HW1 3302   1.885   2.345   0.540 -1.4251 -2.4241 -0.3535
  826SOL    HW2 3303   1.880   2.493   0.568  0.1611 -0.8599  0.3237
  826SOL     MW 3304   1.909   2.430   0.519  0.0322 -0.8732  0.0368
  827SOL     OW 3305   1.959   2.219   0.900 -0.2664  0.0124 -0.3033
  827SOL    HW1 3306   1.893   2.290   0.904 -1.6360 -3.1660 -1.2807
  827SOL    HW2 3307   1.909   2.145   0.944  1.3357  0.8718 -1.4557
  827SOL     MW 3308   1.944   2.219   0.907 -0.2357 -0.2936 -0.5843
  828SOL     OW 3309   0.041   2.700   0.628  0.5348 -0.0469  0.1606
  828SOL    HW1 3310   0.136   2.700   0.628  0.0363  0.5750 -0.7428
  828SOL    HW2 3311   0.009   2.691   0.536 -1.8147  1.3175  1.7585
  828SOL     MW 3312   0.049   2.699   0.616  0.1590  0.2152  0.2522
  829SOL     OW 3313   2.962   2.921   1.268  0.1894 -0.3232  0.0580
  829SOL    HW1 3314   2.911   2.919   1.189 -0.0340  1.7007  1.1169
  829SOL    HW2 3315   3.009   2.840   1.254 -0.6016 -0.7942  1.0383
  829SOL     MW 3316   2.962   2.910   1.256  0.0556 -0.1183  0.3271
  830SOL     OW 3317   2.495   2.848   2.015 -0.1279 -0.3502  0.3677
  830SOL    HW1 3318   2.404   2.863   1.982  0.8890 -0.5005 -1.0900
  830SOL    HW2 3319   2.550   2.834   1.935 -3.5581  1.0330 -0.0149
  830SOL     MW 3320   2.490   2.848   2.000 -0.4463 -0.1875  0.1249
  831SOL     OW 3321   2.424   2.386   1.283 -0.0737  0.1067 -0.5504
  831SOL    HW1 3322   2.380   2.325   1.347 -0.2171 -1.5635 -0.1930
  831SOL    HW2 3323   2.519   2.362   1.281 -1.0510  2.6973  0.3686
  831SOL     MW 3324   2.430   2.375   1.291 -0.2216  0.2282 -0.3820
  832SOL     OW 3325   2.438   2.221   1.911  0.5947  0.1948  0.0233
  832SOL    HW1 3326   2.452   2.321   1.940  2.4983  1.5112 -2.1497
  832SOL    HW2 3327   2.526   2.178   1.913 -0.1136  0.5152 -1.0687
  832SOL     MW 3328   2.451   2.229   1.915  0.7524  0.4108 -0.4075
  833SOL     OW 3329   1.780   2.423   0.885 -0.1950 -0.0064 -0.0979
  833SOL    HW1 3330   1.690   2.391   0.897 -1.2863  0.7223  3.4728
  833SOL    HW2 3331   1.800   2.493   0.955 -0.8338  3.3031  3.4061
  833SOL     MW 3332   1.771   2.428   0.896 -0.4233  0.5264  0.8356
  834SOL     OW 3333   2.230   2.484   0.555 -0.3208 -0.1926  0.0352
  834SOL    HW1 3334   2.226   2.424   0.624 -0.4245 -0.0918 -1.0153
  834SOL    HW2 3335   2.265   2.447   0.473  2.0226 -0.9970 -2.7833
  834SOL     MW 3336   2.234   2.472   0.553 -0.0253 -0.2854 -0.4753
  835SOL     OW 3337   1.766   2.612   0.691 -0.0190 -0.3851  0.3864
  835SOL    HW1 3338   1.763   2.546   0.752  1.7834  1.2532  1.5559
  835SOL    HW2 3339   1.852   2.662   0.691  0.4404  0.6224 -0.5585
  835SOL     MW 3340   1.777   2.610   0.699  0.2794 -0.0360  0.4161
  836SOL     OW 3341   1.979   2.133   1.622 -0.3198 -0.5396  0.1404
  836SOL    HW1 3342   2.064   2.150   1.666  1.6200 -0.8861 -0.9299
  836SOL    HW2 3343   1.936   2.218   1.605  0.7232  0.0948  0.9787
  836SOL     MW 3344   1.985   2.147   1.626  0.0737 -0.5016  0.1098
  837SOL     OW 3345   2.102   0.190   0.709 -0.5454  0.3562 -0.3428
  837SOL    HW1 3346   2.012   0.213   0.675 -0.4919 -2.0073 -3.4972
  837SOL    HW2 3347   2.130   0.142   0.631 -3.0575  0.5644 -1.8047
  837SOL     MW 3348   2.094   0.187   0.694 -0.8698  0.0718 -0.9519
  838SOL     OW 3349   2.952   2.086   0.894 -0.1614 -0.8216  0.2685
  838SOL    HW1 3350   2.877   2.071   0.951  0.8808 -0.0992 -1.6502
  838SOL    HW2 3351   2.949   2.015   0.829 -1.6460 -2.2413 -0.4682
  838SOL     MW 3352   2.941   2.075   0.893 -0.2198 -0.9136 -0.0818
  839SOL     OW 3353   1.525   2.356   0.916 -0.2705 -0.1042  0.0624
  839SOL    HW1 3354   1.475   2.436   0.917 -1.9498 -2.4443 -1.1124
  839SOL    HW2 3355   1.542   2.325   1.008  0.7778 -0.7490  0.1291
  839SOL     MW 3356   1.521   2.362   0.928 -0.3538 -0.4980 -0.0838
  840SOL     OW 3357   2.315   2.104   2.416  0.4062 -0.2101  0.1776
  840SOL    HW1 3358   2.276   2.172   2.355  0.4401 -0.4865  0.2310
  840SOL    HW2 3359   2.392   2.141   2.454 -1.9585 -0.5202 -1.3268
  840SOL     MW 3360   2.320   2.118   2.413  0.0986 -0.2875 -0.0138
  841SOL     OW 3361   2.206   2.412   0.124  0.5312 -0.0901 -0.5259
  841SOL    HW1 3362   2.215   2.432   0.028 -0.9310  1.5692  0.6058
  841SOL    HW2 3363   2.152   2.335   0.125  0.2858 -1.7342 -0.2435
  841SOL     MW 3364   2.200   2.404   0.111  0.3059 -0.0881 -0.3393
  842SOL     OW 3365   2.662   2.002   1.578 -0.5575 -0.3037 -0.3754
  842SOL    HW1 3366   2.593   1.934   1.593 -0.1163  2.8955 -0.1728
  842SOL    HW2 3367   2.646   2.034   1.495  4.7568 -1.3787  1.8046
  842SOL     MW 3368   2.651   1.997   1.569  0.2018 -0.0234 -0.0610
  843SOL     OW 3369   2.664   2.833   1.806  0.3374  0.1377 -0.4024
  843SOL    HW1 3370   2.737   2.773   1.791 -0.1079  3.1744 -1.5930
  843SOL    HW2 3371   2.592   2.791   1.765  1.2581 -0.2095 -0.1777
  843SOL     MW 3372   2.664   2.819   1.799  0.4001  0.4925 -0.5299
  844SOL     OW 3373   2.666   2.292   1.213  0.5567  0.8062  0.0443
  844SOL    HW1 3374   2.699   2.343   1.138 -0.0688 -1.0886 -0.7545
  844SOL    HW2 3375   2.727   2.311   1.276 -1.4211 -0.2991 -1.9489
  844SOL     MW 3376   2.679   2.301   1.211  0.2132  0.4103 -0.3241
  845SOL     OW 3377   2.844   2.460   0.274 -0.5371 -0.1146 -0.2648
  845SOL    HW1 3378   2.787   2.380   0.289 -1.0893  1.1978  1.7951
  845SOL    HW2 3379   2.869   2.509   0.354  0.2053  1.2483 -2.0357
  845SOL     MW 3380   2.840   2.456   0.287 -0.5120  0.2384 -0.2267
  846SOL     OW 3381   1.510   2.850   0.807  0.1247  0.1848  0.5214
  846SOL    HW1 3382   1.583   2.891   0.856  0.3435  0.2699  0.1141
  846SOL    HW2 3383   1.433   2.901   0.829  0.8794 -1.9450  1.2297
  846SOL     MW 3384   1.510   2.862   0.817  0.2532 -0.0850  0.5611
  847SOL     OW 3385   2.511   1.937   0.175  0.4180  0.0742  0.0475
  847SOL    HW1 3386   2.542   1.857   0.227 -1.4084 -1.7506  1.4294
  847SOL    HW2 3387   2.452   1.894   0.118  1.3038  2.9455  3.6965
  847SOL     MW 3388   2.507   1.920   0.174  0.2939  0.2123  0.7113
  848SOL     OW 3389   2.522   2.072   1.343  0.3198  0.3920 -0.2456
  848SOL    HW1 3390   2.575   2.094   1.267  1.1944 -0.3558  3.5475
  848SOL    HW2 3391   2.482   1.991   1.316 -1.1326  1.1572 -0.5937
  848SOL     MW 3392   2.524   2.064   1.329  0.2436  0.3943  0.2089
  849SOL     OW 3393   1.990   2.740   0.757  0.5275  0.6279  0.0173
  849SOL    HW1 3394   2.029   2.693   0.830 -1.3315  2.2427  1.7426
  849SOL    HW2 3395   2.051   2.742   0.685 -1.0004  1.6053  1.0070
  849SOL     MW 3396   2.003   2.734   0.757  0.0806  0.9699  0.3755
  850SOL     OW 3397   2.283   1.923   1.724  0.6490  0.0716  0.3495
  850SOL    HW1 3398   2.204   1.901   1.663 -2.2948  0.7448  0.1574
  850SOL    HW2 3399   2.253   2.008   1.758  1.7573  0.1425 -0.0848
  850SOL     MW 3400   2.269   1.932   1.720  0.4068  0.1698  0.2669
  851SOL     OW 3401   2.356   2.374   0.345  0.6478  0.1833 -0.8220
  851SOL    HW1 3402   2.301   2.384   0.268 -0.0906 -0.4318  0.0410
  851SOL    HW2 3403   2.399   2.462   0.347 -1.4053 -0.9066  0.7107
  851SOL     MW 3404   2.354   2.387   0.335  0.2795 -0.0417 -0.5059
  852SOL     OW 3405   2.337   2.102   0.305  0.0892 -0.0877  0.7227
  852SOL    HW1 3406   2.356   2.195   0.319 -1.0215  0.0992 -1.5690
  852SOL    HW2 3407   2.410   2.055   0.256 -1.9432 -0.2340 -3.1196
  852SOL     MW 3408   2.349   2.108   0.300 -0.3255 -0.0824 -0.0866
  853SOL     OW 3409   2.472   2.490   1.978 -0.5139  0.5140  0.0023
  853SOL    HW1 3410   2.482   2.545   1.903 -0.6609  0.3822  1.4849
  853SOL    HW2 3411   2.555   2.460   2.020 -2.8509 -0.3639  0.1751
  853SOL     MW 3412   2.485   2.493   1.973 -0.8416  0.3808  0.2207
  854SOL     OW 3413   2.854   2.319   0.793  0.7368 -0.1937  0.2035
  854SOL    HW1 3414   2.774   2.274   0.767  0.6922 -2.8112  1.3940
  854SOL    HW2 3415   2.894   2.241   0.840 -0.0719  0.1337 -0.4984
  854SOL     MW 3416   2.849   2.303   0.796  0.6242 -0.4958  0.2680
  855SOL     OW 3417   2.667   2.262   0.367  0.1297  0.4668 -0.1871
  855SOL    HW1 3418   2.642   2.311   0.440  0.7466  0.3131 -1.1027
  855SOL    HW2 3419   2.725   2.196   0.396 -0.3565  1.3887  0.0400
  855SOL     MW 3420   2.671   2.260   0.381  0.1470  0.5681 -0.2779
  856SOL     OW 3421   2.132   1.888   0.167 -0.2127 -0.2852 -0.1114
  856SOL    HW1 3422   2.060   1.892   0.227  2.7151 -1.0908 -0.7717
  856SOL    HW2 3423   2.179   1.969   0.190  1.2203 -0.7007 -0.0842
  856SOL     MW 3424   2.129   1.899   0.178  0.3627 -0.4463 -0.1949
  857SOL     OW 3425   2.493   1.985   0.519  0.0344 -0.5759  0.2982
  857SOL    HW1 3426   2.469   2.045   0.447 -1.6014  3.3786 -3.9999
  857SOL    HW2 3427   2.426   1.919   0.532  0.1718  1.2689  0.4538
  857SOL     MW 3428   2.481   1.984   0.511 -0.1633  0.1893 -0.2484
  858SOL     OW 3429   2.881   2.636   1.759 -0.4728  0.2779  0.3699
  858SOL    HW1 3430   2.971   2.667   1.777  0.3669  3.3507  0.1584
  858SOL    HW2 3431   2.886   2.542   1.786  1.8875  0.7641 -1.1621
  858SOL     MW 3432   2.894   2.628   1.765 -0.0506  0.7475  0.1398
  859SOL     OW 3433   2.095   2.587   0.952  0.4776 -0.2341 -0.3493
  859SOL    HW1 3434   2.067   2.519   1.015 -1.8755 -0.8421 -0.0831
  859SOL    HW2 3435   2.158   2.546   0.889  2.3289 -1.1410 -0.0194
  859SOL     MW 3436   2.100   2.572   0.952  0.4114 -0.4340 -0.2706
  860SOL     OW 3437   2.676   2.589   0.118  0.2262  0.0682  0.2016
  860SOL    HW1 3438   2.743   2.541   0.174  0.0472  0.5384 -3.0606
  860SOL    HW2 3439   2.704   2.670   0.066 -1.7394 -0.2122 -1.3930
  860SOL     MW 3440   2.689   2.594   0.119 -0.0568  0.0932 -0.4392
  861SOL     OW 3441   1.600   2.134   1.126 -0.5895 -0.0484 -0.1553
  861SOL    HW1 3442   1.614   2.208   1.183 -2.8769 -0.8225  0.4438
  861SOL    HW2 3443   1.546   2.067   1.169 -0.4133 -1.3453 -1.8834
  861SOL     MW 3444   1.595   2.135   1.139 -0.8681 -0.3217 -0.3043
  862SOL     OW 3445   2.464   1.790   1.577  0.2601 -0.0126  0.0944
  862SOL    HW1 3446   2.403   1.820   1.643 -1.4038  1.9411 -3.0039
  862SOL    HW2 3447   2.430   1.818   1.492 -0.2043 -3.0785 -0.4264
  862SOL     MW 3448   2.451   1.798   1.574 -0.0207 -0.1593 -0.3831
  863SOL     OW 3449   3.020   1.813   1.020 -0.2995 -0.2667 -0.3296
  863SOL    HW1 3450   3.087   1.786   1.088 -0.4737  0.1446 -2.2049
  863SOL    HW2 3451   3.003   1.902   1.046  3.7277 -0.5505 -0.7960
  863SOL     MW 3452   3.026   1.821   1.032  0.2089 -0.2499 -0.6386
  864SOL     OW 3453   3.055   1.848   0.763 -0.0405  0.2431 -0.1044
  864SOL    HW1 3454   3.037   1.821   0.857  0.5558  0.2796  0.6071
  864SOL    HW2 3455   2.999   1.781   0.712 -3.1540 -1.7296 -1.5796
  864SOL     MW 3456   3.045   1.836   0.769 -0.3726 -0.0124 -0.2052
  865SOL     OW 3457   2.526   2.197   0.005 -0.9968  0.1135 -0.3143
  865SOL    HW1 3458   2.511   2.124   0.058 -1.2895  0.4314 -0.9679
  865SOL    HW2 3459   2.466   2.183  -0.065 -0.6351  1.6830  0.7708
  865SOL     MW 3460   2.516   2.186   0.002 -0.9877  0.3625 -0.2574
  866SOL     OW 3461   2.666   2.379   1.683 -0.3049  0.0974  0.3206
  866SOL    HW1 3462   2.616   2.309   1.722 -0.0611 -0.1261  0.6512
  866SOL    HW2 3463   2.718   2.338   1.611  0.7249 -3.0288 -0.2585
  866SOL     MW 3464   2.666   2.364   1.679 -0.1368 -0.3446  0.2878
  867SOL     OW 3465   0.031   2.747   1.815 -0.2009  0.0952 -0.3570
  867SOL    HW1 3466   0.042   2.767   1.914  1.2514 -1.7439 -2.1243
  867SOL    HW2 3467   0.004   2.830   1.770 -0.3615 -0.8725  0.8973
  867SOL     MW 3468   0.029   2.760   1.822 -0.0305 -0.2751 -0.4247
  868SOL     OW 3469   2.824   2.602   0.536  0.1881  0.0121  0.3598
  868SOL    HW1 3470   2.748   2.547   0.552 -0.3936 -0.1880  0.1617
  868SOL    HW2 3471   2.804   2.678   0.480 -0.5778  1.2093  1.5065
  868SOL     MW 3472   2.812   2.605   0.531  0.0103  0.1437  0.4850
  869SOL     OW 3473   2.063   2.330   1.111 -0.5139 -0.3453 -0.4238
  869SOL    HW1 3474   2.151   2.313   1.079 -1.1105 -0.0663  2.2174
  869SOL    HW2 3475   2.022   2.283   1.036  0.6375  2.1690 -2.3312
  869SOL     MW 3476   2.069   2.322   1.097 -0.4407  0.0233 -0.3270
  870SOL     OW 3477   2.152   0.041   0.461 -0.4202  0.5380 -0.1346
  870SOL    HW1 3478   2.224   0.092   0.419 -1.6589 -2.9393  0.1527
  870SOL    HW2 3479   2.168  -0.047   0.425 -0.1688  0.3885  0.8956
  870SOL     MW 3480   2.163   0.036   0.450 -0.5504  0.0595  0.0393
  871SOL     OW 3481   2.512   2.087   0.965  0.1203  0.0524  0.2270
  871SOL    HW1 3482   2.466   2.034   0.900 -3.5588 -2.6538  1.2281
  871SOL    HW2 3483   2.452   2.147   1.007  0.2552  0.0460  1.3372
  871SOL     MW 3484   2.498   2.088   0.962 -0.3473 -0.3055  0.5055
  872SOL     OW 3485   2.008   2.542   1.543  0.5087 -0.0262 -0.0587
  872SOL    HW1 3486   1.962   2.559   1.628 -0.0545  0.1131  1.1323
  872SOL    HW2 3487   1.952   2.485   1.490 -1.1001  2.2619  1.8161
  872SOL     MW 3488   1.994   2.537   1.548  0.2221  0.2941  0.3458
  873SOL     OW 3489   2.920   2.015   1.953  0.0519 -0.2432  0.4850
  873SOL    HW1 3490   2.913   2.084   2.024 -2.6970 -2.0193  3.5561
  873SOL    HW2 3491   3.016   2.010   1.925 -0.6659 -1.2690 -0.9608
  873SOL     MW 3492   2.932   2.023   1.959 -0.4055 -0.6129  0.6994
  874SOL     OW 3493   2.302   1.435   2.456  0.0410 -0.4243  0.2870
  874SOL    HW1 3494   2.236   1.392   2.392 -1.7857 -0.3642 -0.2283
  874SOL    HW2 3495   2.368   1.371   2.480  1.2743  1.7707  2.4382
  874SOL     MW 3496   2.302   1.421   2.451 -0.0373 -0.1268  0.5029
  875SOL     OW 3497   2.338   2.292   1.053  0.4956 -0.8004 -0.0976
  875SOL    HW1 3498   2.389   2.351   1.000 -0.3937  0.5326  1.2995
  875SOL    HW2 3499   2.368   2.323   1.140 -0.6785  0.3028  0.7294
  875SOL     MW 3500   2.349   2.304   1.058  0.2233 -0.4790  0.1958
  876SOL     OW 3501   3.041   2.272   1.287  0.0384 -0.1096  0.1060
  876SOL    HW1 3502   3.094   2.304   1.211 -0.0649  2.7316 -1.5085
  876SOL    HW2 3503   3.103   2.305   1.352 -0.1278  2.4528 -1.5769
  876SOL     MW 3504   3.056   2.280   1.286  0.0029  0.6034 -0.3290
  877SOL     OW 3505   3.076   2.731   0.334  0.9738  0.7148 -0.6096
  877SOL    HW1 3506   3.148   2.793   0.319  0.2721  0.1462 -1.4549
  877SOL    HW2 3507   3.066   2.684   0.253  0.7307 -0.0558  0.9451
  877SOL     MW 3508   3.084   2.733   0.322  0.8492  0.5381 -0.5160
  878SOL     OW 3509   2.368   1.821   1.303  0.1063 -0.1645  0.4132
  878SOL    HW1 3510   2.282   1.770   1.303 -3.1794  1.1972 -0.1857
  878SOL    HW2 3511   2.447   1.763   1.273  3.9162  0.2309 -0.5368
  878SOL     MW 3512   2.367   1.807   1.299  0.1755  0.0673  0.2088
  879SOL     OW 3513   2.695   2.435   0.971  0.7479  0.0115 -0.0934
  879SOL    HW1 3514   2.734   2.521   0.995 -0.2567 -0.7421  0.1193
  879SOL    HW2 3515   2.742   2.398   0.901 -0.4030  1.0954 -0.9179
  879SOL     MW 3516   2.706   2.442   0.965  0.4635  0.0551 -0.1742
  880SOL     OW 3517   2.626   2.173   0.711 -0.5289 -0.2327  0.3699
  880SOL    HW1 3518   2.566   2.157   0.778  1.5892  1.1882  1.7859
  880SOL    HW2 3519   2.609   2.098   0.655  1.9957 -1.9290 -0.1426
  880SOL     MW 3520   2.616   2.161   0.712  0.0837 -0.2691  0.4891
  881SOL     OW 3521   2.905   2.730   0.766 -0.2683  0.2347 -0.0924
  881SOL    HW1 3522   2.880   2.678   0.683  0.5425 -2.9265 -1.0123
  881SOL    HW2 3523   3.003   2.739   0.749  1.2889 -0.8596 -1.1850
  881SOL     MW 3524   2.914   2.724   0.753  0.0441 -0.3268 -0.3579
  882SOL     OW 3525   2.239   2.896   1.952 -0.5585  0.0791 -0.1783
  882SOL    HW1 3526   2.232   2.884   1.853  0.1342  1.0767  3.0997
  882SOL    HW2 3527   2.207   2.818   2.001  3.1148 -2.7325  1.9950
  882SOL     MW 3528   2.234   2.884   1.945  0.0175 -0.1602  0.5410
  883SOL     OW 3529   2.309   2.198   1.447  0.1088  0.3905  0.0253
  883SOL    HW1 3530   2.384   2.139   1.424 -0.8419  0.8281 -0.2544
  883SOL    HW2 3531   2.248   2.166   1.378  1.4003 -0.3728 -0.9442
  883SOL     MW 3532   2.311   2.186   1.435  0.1538  0.3475 -0.1395
  884SOL     OW 3533   1.953   1.765   1.052 -0.2263 -0.4434  0.0429
  884SOL    HW1 3534   1.887   1.827   1.030  0.7813 -2.7341  0.5096
  884SOL    HW2 3535   2.038   1.811   1.021  1.4165 -1.4539  0.5452
  884SOL     MW 3536   1.955   1.780   1.045  0.1234 -0.8790  0.1708
  885SOL     OW 3537   2.901   2.382   1.850 -0.1230 -0.5061 -0.0846
  885SOL    HW1 3538   2.960   2.312   1.833 -2.2096 -0.2004 -0.3755
  885SOL    HW2 3539   2.824   2.359   1.804  0.7972  3.1106  0.1406
  885SOL     MW 3540   2.899   2.370   1.842 -0.2769  0.0114 -0.0933
  886SOL     OW 3541   2.834   2.331   1.443  0.0394 -0.1974  0.1577
  886SOL    HW1 3542   2.912   2.305   1.387 -1.0998  1.8081  0.5242
  886SOL    HW2 3543   2.835   2.428   1.437 -2.1253 -0.2313  0.1341
  886SOL     MW 3544   2.844   2.340   1.435 -0.3965  0.0627  0.2029
  887SOL     OW 3545   2.275   2.620   1.544  0.3568  0.0419  0.6099
  887SOL    HW1 3546   2.310   2.638   1.455  0.4153 -3.6441 -1.7827
  887SOL    HW2 3547   2.186   2.581   1.532  0.8121  0.0259  0.6264
  887SOL     MW 3548   2.268   2.617   1.531  0.4246 -0.4466  0.2964
  888SOL     OW 3549   1.870   2.057   1.377 -0.7578 -0.1380  0.2392
  888SOL    HW1 3550   1.953   2.029   1.340 -1.5627 -0.6044  0.7914
  888SOL    HW2 3551   1.887   2.071   1.471  1.6086  1.7964  1.1390
  888SOL     MW 3552   1.883   2.055   1.384 -0.5517  0.0557  0.4308
  889SOL     OW 3553   2.300   2.045   2.066 -0.2132 -0.0901 -0.2498
  889SOL    HW1 3554   2.374   2.019   2.117 -1.2835  4.8011  1.3329
  889SOL    HW2 3555   2.335   2.109   2.004  1.1693  1.4906  0.9087
  889SOL     MW 3556   2.315   2.050   2.065 -0.1720  0.7638  0.1119
  890SOL     OW 3557   0.072   2.361   0.115  0.0207  0.5830  0.1862
  890SOL    HW1 3558   0.028   2.446   0.109  1.4496  1.9541 -0.1050
  890SOL    HW2 3559   0.046   2.339   0.206 -2.1322  1.6236 -0.7564
  890SOL     MW 3560   0.062   2.369   0.126 -0.0748  0.9012  0.0234
  891SOL     OW 3561   3.029   1.993   1.282 -0.0434  0.5342  0.5945
  891SOL    HW1 3562   3.121   1.960   1.286 -2.1230  0.3186 -3.8415
  891SOL    HW2 3563   3.028   2.093   1.273  2.0211 -1.4662 -2.7837
  891SOL     MW 3564   3.041   2.002   1.281 -0.0454  0.2418 -0.4365
  892SOL     OW 3565   2.433   2.325   2.740  0.1960 -0.0531  0.2194
  892SOL    HW1 3566   2.379   2.250   2.769 -0.8822  1.6633  0.0816
  892SOL    HW2 3567   2.512   2.322   2.805  0.6604  0.1755 -0.4891
  892SOL     MW 3568   2.436   2.315   2.753  0.1150  0.2035  0.1077
  893SOL     OW 3569   1.621   2.369   1.241  0.0194  0.4940 -0.3547
  893SOL    HW1 3570   1.570   2.434   1.292 -2.1853  1.6037  1.3705
  893SOL    HW2 3571   1.701   2.349   1.291 -0.1032 -1.4522 -2.0863
  893SOL     MW 3572   1.625   2.375   1.254 -0.2877  0.3837 -0.3556
  894SOL     OW 3573   2.776   1.888   0.463 -0.6120  0.8695 -0.5484
  894SOL    HW1 3574   2.680   1.879   0.492 -0.4390  1.2688 -1.0487
  894SOL    HW2 3575   2.775   1.864   0.364 -2.2814  0.8514 -1.8182
  894SOL     MW 3576   2.763   1.884   0.454 -0.8094  0.9198 -0.7819
  895SOL     OW 3577   2.122   2.089   1.241  0.4453 -0.8747 -0.8140
  895SOL    HW1 3578   2.098   2.172   1.188 -0.7871  1.0040 -1.2149
  895SOL    HW2 3579   2.150   2.019   1.178 -0.6121  3.0784 -2.0005
  895SOL     MW 3580   2.123   2.091   1.225  0.1432 -0.1053 -1.0234
  896SOL     OW 3581   2.236   2.783   1.073  0.9361  0.2689  0.2638
  896SOL    HW1 3582   2.279   2.738   1.144 -2.6532  2.2205  0.5454
  896SOL    HW2 3583   2.166   2.727   1.037 -5.1680 -1.3473  1.1126
  896SOL     MW 3584   2.232   2.769   1.077 -0.3428  0.3131  0.4129
  897SOL     OW 3585   2.991   2.938   0.066  0.5591  0.7703 -0.6847
  897SOL    HW1 3586   3.044   2.896   0.003  1.9154  0.2994 -2.9395
  897SOL    HW2 3587   2.904   2.901   0.061  0.7215  0.5936  2.5455
  897SOL     MW 3588   2.987   2.928   0.057  0.7594  0.6848 -0.5560
  898SOL     OW 3589   2.087   0.211   1.431  0.3010  0.3746  0.4191
  898SOL    HW1 3590   2.092   0.120   1.468 -0.1841 -0.6398 -0.0092
  898SOL    HW2 3591   2.096   0.200   1.333 -2.6003  0.2186 -1.1620
  898SOL     MW 3592   2.089   0.198   1.423 -0.1458  0.2202  0.1540
  899SOL     OW 3593   2.909   2.986   0.642 -0.3986  0.2285  0.0832
  899SOL    HW1 3594   2.906   2.902   0.692 -2.4521 -0.8634  0.3095
  899SOL    HW2 3595   2.818   3.022   0.654 -0.4339 -0.9331  2.8770
  899SOL     MW 3596   2.897   2.980   0.650 -0.6742 -0.0688  0.4817
  900SOL     OW 3597   0.107   2.396   1.109  0.0402 -0.2101  0.1232
  900SOL    HW1 3598   0.079   2.484   1.074  0.3352  1.9444  3.0597
  900SOL    HW2 3599   0.107   2.340   1.030  0.7214  1.3099 -0.2592
  900SOL     MW 3600   0.103   2.400   1.094  0.1690  0.2747  0.4602
  901SOL     OW 3601   1.748   2.848   1.770  0.1278 -0.9280  0.4124
  901SOL    HW1 3602   1.824   2.785   1.796 -1.3484 -1.6338 -0.6692
  901SOL    HW2 3603   1.718   2.810   1.687  2.5043  0.3458 -0.8114
  901SOL     MW 3604   1.754   2.835   1.762  0.2466 -0.8531  0.1083
  902SOL     OW 3605   2.690   2.113   1.833 -0.1143  0.5122  0.3146
  902SOL    HW1 3606   2.681   2.074   1.750  0.4822  2.0938  0.9237
  902SOL    HW2 3607   2.775   2.079   1.859  0.6053 -0.8881 -0.7645
  902SOL     MW 3608   2.700   2.104   1.826  0.0594  0.5361  0.2526
  903SOL     OW 3609   1.600   2.767   0.555  0.2838 -0.6956  0.1151
  903SOL    HW1 3610   1.663   2.697   0.591  1.7328 -0.9810  0.8800
  903SOL    HW2 3611   1.561   2.816   0.628  1.7418 -2.1479 -0.3089
  903SOL     MW 3612   1.603   2.764   0.570  0.6673 -0.9249  0.1601
  904SOL     OW 3613   2.482   2.641   1.717  0.5419  0.3878 -0.0637
  904SOL    HW1 3614   2.417   2.650   1.649  1.6124 -1.5745 -3.1331
  904SOL    HW2 3615   2.528   2.564   1.682  0.2346  2.6953  1.7498
  904SOL     MW 3616   2.480   2.632   1.704  0.6426  0.4333 -0.2294
  905SOL     OW 3617   2.302   2.557   2.172  0.0451 -0.5496 -0.2170
  905SOL    HW1 3618   2.360   2.521   2.101 -1.3711  1.4804 -1.2204
  905SOL    HW2 3619   2.272   2.481   2.225 -0.7586 -0.7486  0.4356
  905SOL     MW 3620   2.306   2.542   2.170 -0.2478 -0.3080 -0.2633
  906SOL     OW 3621   2.454   2.494   0.879  0.0388 -0.1541 -0.5866
  906SOL    HW1 3622   2.544   2.483   0.912 -3.5920 -0.3011  2.0064
  906SOL    HW2 3623   2.437   2.597   0.892  0.2164 -0.4084  0.8056
  906SOL     MW 3624   2.463   2.506   0.885 -0.4168 -0.2070 -0.0608
  907SOL     OW 3625   2.632   2.783   1.334 -0.3667 -0.0061  0.4145
  907SOL    HW1 3626   2.656   2.859   1.384  0.5845  0.8921 -0.7800
  907SOL    HW2 3627   2.676   2.806   1.249  0.4100 -2.0554 -1.3085
  907SOL     MW 3628   2.641   2.796   1.329 -0.1387 -0.1580  0.0296
  908SOL     OW 3629   2.746   2.359   3.096 -0.0824 -0.3070 -0.4272
  908SOL    HW1 3630   2.674   2.300   3.106  4.4167 -1.0856  1.8530
  908SOL    HW2 3631   2.730   2.431   3.155  2.5620 -1.4146  0.9709
  908SOL     MW 3632   2.734   2.361   3.105  0.8601 -0.5559  0.0581
  909SOL     OW 3633   1.705   0.115   1.148  0.3262 -0.1103  0.5616
  909SOL    HW1 3634   1.734   0.181   1.083  1.6706  0.5065 -1.2531
  909SOL    HW2 3635   1.714   0.145   1.237 -3.2962 -2.5092 -1.8099
  909SOL     MW 3636   1.710   0.127   1.151  0.0257 -0.3454  0.0093
  910SOL     OW 3637   2.337   1.759   0.466 -0.6263 -0.3544 -0.2674
  910SOL    HW1 3638   2.286   1.678   0.468 -1.8625 -0.5129  0.4746
  910SOL    HW2 3639   2.283   1.814   0.408 -1.3862 -0.0282  1.2528
  910SOL     MW 3640   2.323   1.756   0.459 -0.8896 -0.3323  0.0311
  911SOL     OW 3641   2.227   2.205   1.724 -0.0478 -0.8098 -0.2014
  911SOL    HW1 3642   2.296   2.214   1.789  0.5042  1.9092 -0.1647
  911SOL    HW2 3643   2.269   2.220   1.637 -1.1599  1.7667 -0.5263
  911SOL     MW 3644   2.242   2.208   1.721 -0.1217 -0.1111 -0.2394
  912SOL     OW 3645   2.940   1.929   1.542  0.2527 -0.0136  0.1709
  912SOL    HW1 3646   2.963   1.954   1.456  1.6643 -0.6748 -0.3868
  912SOL    HW2 3647   2.853   1.967   1.561 -0.4712 -0.1795  0.4947
  912SOL     MW 3648   2.932   1.937   1.533  0.3434 -0.1228  0.1401
  913SOL     OW 3649   2.628   3.041   0.365  0.2007 -0.2494  0.1834
  913SOL    HW1 3650   2.702   2.982   0.367 -0.3002  1.6335 -1.2083
  913SOL    HW2 3651   2.543   3.000   0.332 -2.2192  1.1360 -1.5685
  913SOL     MW 3652   2.626   3.028   0.361 -0.1847  0.1818 -0.2314
  914SOL     OW 3653   2.701   1.758   3.075  0.7604 -0.0515  0.7453
  914SOL    HW1 3654   2.713   1.824   3.001 -1.7189  0.6293 -0.9271
  914SOL    HW2 3655   2.615   1.774   3.096 -0.0049  0.7218 -0.3038
  914SOL     MW 3656   2.691   1.769   3.068  0.3323  0.1404  0.3862
  915SOL     OW 3657   1.672   0.238   0.239 -0.5406  0.0121  0.3082
  915SOL    HW1 3658   1.728   0.181   0.292  3.0543 -0.0276 -0.9441
  915SOL    HW2 3659   1.584   0.193   0.240  0.9738  0.5619 -1.2834
  915SOL     MW 3660   1.667   0.225   0.246  0.1335  0.0794 -0.0671
  916SOL     OW 3661   1.816   2.100   1.905  0.0976  0.2686 -0.5217
  916SOL    HW1 3662   1.861   2.185   1.896  0.3427 -1.6786 -2.2133
  916SOL    HW2 3663   1.849   2.053   1.831  0.5035 -1.5524  1.3232
  916SOL     MW 3664   1.826   2.105   1.894  0.1835 -0.2286 -0.5015
  917SOL     OW 3665   2.556   2.191   2.517 -0.3499 -0.0054 -0.3508
  917SOL    HW1 3666   2.528   2.227   2.598  2.1231 -1.4548  0.1223
  917SOL    HW2 3667   2.613   2.259   2.484  0.8278  0.3529 -0.3469
  917SOL     MW 3668   2.560   2.205   2.523  0.1318 -0.1493 -0.2879
  918SOL     OW 3669   2.000   1.600   2.706 -0.0257  0.3287 -0.2059
  918SOL    HW1 3670   1.933   1.646   2.654  0.6056  0.8278  2.1047
  918SOL    HW2 3671   2.075   1.657   2.687 -0.6999 -0.5499  0.9890
  918SOL     MW 3672   2.001   1.613   2.697 -0.0314  0.2786  0.2566
  919SOL     OW 3673   3.093   2.323   2.275 -0.0416  0.6384  0.4057
  919SOL    HW1 3674   3.046   2.242   2.250 -0.7306  1.0886 -0.3299
  919SOL    HW2 3675   3.135   2.349   2.193  0.6331  0.9902 -1.1987
  919SOL     MW 3676   3.092   2.316   2.261 -0.0435  0.7442  0.0970
  920SOL     OW 3677   2.741   2.863   3.089 -0.4472  0.0220  0.4727
  920SOL    HW1 3678   2.661   2.911   3.102 -0.8878  0.9476 -1.8773
  920SOL    HW2 3679   2.728   2.797   3.020 -0.0982 -1.1115  0.7755
  920SOL     MW 3680   2.729   2.861   3.081 -0.4593 -0.0055  0.2026
  921SOL     OW 3681   2.451   2.583   2.625 -0.1781  0.4084  0.0044
  921SOL    HW1 3682   2.544   2.606   2.598  3.2973 -0.9208 -1.8188
  921SOL    HW2 3683   2.458   2.499   2.683  3.4396 -2.4277 -1.1852
  921SOL     MW 3684   2.464   2.575   2.629  0.7578 -0.1411 -0.3931
  922SOL     OW 3685   2.045   2.864   0.305  0.3714  0.1427 -0.1298
  922SOL    HW1 3686   2.044   2.853   0.209 -2.3914  1.9883  0.4970
  922SOL    HW2 3687   2.074   2.781   0.340 -0.5965  2.6297 -0.8469
  922SOL     MW 3688   2.049   2.852   0.297 -0.1209  0.7144 -0.1417
  923SOL     OW 3689   2.158   2.823   1.696  0.0401 -0.0100  0.4370
  923SOL    HW1 3690   2.207   2.768   1.635 -2.2984  0.4585  0.5122
  923SOL    HW2 3691   2.130   2.900   1.649 -1.4195 -2.2714  0.2834
  923SOL     MW 3692   2.161   2.826   1.682 -0.4611 -0.2465  0.4267
  924SOL     OW 3693   1.178   2.618   2.498 -0.3876  0.1353  0.4793
  924SOL    HW1 3694   1.256   2.667   2.510 -1.2317  1.0740  2.5326
  924SOL    HW2 3695   1.152   2.595   2.585  1.0424 -0.0238 -0.9352
  924SOL     MW 3696   1.185   2.622   2.511 -0.3103  0.2382  0.5635
  925SOL     OW 3697   2.980   0.189   2.643  0.7284  0.1362 -0.0228
  925SOL    HW1 3698   2.957   0.193   2.543  1.3512  0.8233  0.5042
  925SOL    HW2 3699   2.950   0.265   2.686 -2.5375 -0.5132  0.3132
  925SOL     MW 3700   2.973   0.199   2.636  0.3797  0.1412  0.0911
  926SOL     OW 3701   2.731   2.386   2.087 -0.0462 -0.0143 -0.2410
  926SOL    HW1 3702   2.800   2.439   2.130  0.4067 -2.3584  0.4527
  926SOL    HW2 3703   2.756   2.404   1.998  0.9156  1.2225 -2.0605
  926SOL     MW 3704   2.743   2.395   2.081  0.1405 -0.1604 -0.3896
  927SOL     OW 3705   2.343   0.148   0.266 -0.4671 -0.1768 -0.2598
  927SOL    HW1 3706   2.445   0.160   0.271  1.1880  0.3699  0.4501
  927SOL    HW2 3707   2.325   0.135   0.174  1.0194 -1.0092 -1.0857
  927SOL     MW 3708   2.354   0.148   0.255 -0.0526 -0.2145 -0.2751
  928SOL     OW 3709   2.160   2.432   1.900  0.4424  0.1834 -0.9237
  928SOL    HW1 3710   2.239   2.481   1.918  0.1799 -5.4685  1.1392
  928SOL    HW2 3711   2.185   2.370   1.830 -1.2447  0.7389 -2.5808
  928SOL     MW 3712   2.174   2.430   1.893  0.1852 -0.4891 -0.8702
  929SOL     OW 3713   2.750   2.393   2.440  0.4065  0.4047 -0.3131
  929SOL    HW1 3714   2.817   2.424   2.384  3.2278 -2.9223  1.9822
  929SOL    HW2 3715   2.798   2.366   2.518 -0.1492 -0.6875 -0.5192
  929SOL     MW 3716   2.765   2.393   2.443  0.7054 -0.1783 -0.0375
  930SOL     OW 3717   2.017   2.859   2.685 -0.0866  0.6221  0.0433
  930SOL    HW1 3718   2.056   2.787   2.732  1.1849 -0.5761  0.5972
  930SOL    HW2 3719   2.091   2.927   2.678  1.4515  1.9682  1.5334
  930SOL     MW 3720   2.032   2.859   2.691  0.2841  0.6416  0.3130
  931SOL     OW 3721   3.019   2.761   2.340 -0.0138 -0.6532  0.4801
  931SOL    HW1 3722   3.056   2.792   2.425  3.1905 -1.2536  0.6874
  931SOL    HW2 3723   3.092   2.777   2.287 -0.0737  0.0862 -0.6796
  931SOL     MW 3724   3.034   2.767   2.344  0.4011 -0.6349  0.3544
  932SOL     OW 3725   2.857   1.953   2.573  0.2325 -0.3930 -0.4001
  932SOL    HW1 3726   2.949   1.987   2.557 -0.2016  0.8062  0.1935
  932SOL    HW2 3727   2.809   1.974   2.492  2.6587 -0.3749 -2.4223
  932SOL     MW 3728   2.863   1.960   2.561  0.4953 -0.2324 -0.5886
  933SOL     OW 3729   2.035   2.875   2.286  0.6215 -0.5198 -0.5953
  933SOL    HW1 3730   2.112   2.920   2.324 -0.2782  0.3237 -0.7535
  933SOL    HW2 3731   1.971   2.945   2.251 -3.7324 -1.9085 -0.4716
  933SOL     MW 3732   2.036   2.890   2.287 -0.0716 -0.5917 -0.5998
  934SOL     OW 3733   2.021   2.691   2.492  0.0961  0.5961  0.3834
  934SOL    HW1 3734   2.007   2.746   2.571 -0.7369  1.1026  0.7599
  934SOL    HW2 3735   2.015   2.756   2.418  1.5424 -2.4981 -0.6652
  934SOL     MW 3736   2.018   2.707   2.493  0.1770  0.2547  0.2947
  935SOL     OW 3737   2.681   1.533   1.782 -0.1489 -0.4091  0.0802
  935SOL    HW1 3738   2.773   1.534   1.742  1.2150  0.4599 -1.8697
  935SOL    HW2 3739   2.618   1.523   1.713  2.2529  1.8705 -2.5477
  935SOL     MW 3740   2.685   1.532   1.768  0.3480  0.0063 -0.5238
  936SOL     OW 3741   2.983   2.220   3.052 -0.1174  0.0038 -0.1654
  936SOL    HW1 3742   3.044   2.274   3.101  0.1158 -0.0760 -0.3659
  936SOL    HW2 3743   2.906   2.278   3.062 -2.6743  1.3120 -0.8039
  936SOL     MW 3744   2.981   2.234   3.060 -0.4240  0.1659 -0.2761
  937SOL     OW 3745   1.922   2.130   2.617 -0.0075  0.0440  0.1317
  937SOL    HW1 3746   2.006   2.105   2.656 -1.1540  0.9599 -0.4573
  937SOL    HW2 3747   1.930   2.095   2.531  1.4748 -0.2456  0.3814
  937SOL     MW 3748   1.934   2.122   2.611  0.0368  0.1267  0.0869
  938SOL     OW 3749   2.266   1.790   1.956  0.3877 -0.3632  0.1175
  938SOL    HW1 3750   2.270   1.823   1.864  0.1130  1.9612  0.6853
  938SOL    HW2 3751   2.263   1.872   2.001 -2.4044 -1.9607  1.0797
  938SOL     MW 3752   2.266   1.805   1.950 -0.0169 -0.2673  0.3194
  939SOL     OW 3753   2.724   1.975   2.332  0.5671  0.1733  0.4760
  939SOL    HW1 3754   2.756   1.912   2.264 -2.3071  0.8003  0.3936
  939SOL    HW2 3755   2.627   1.967   2.310 -2.8277 -1.6601 -1.4128
  939SOL     MW 3756   2.716   1.966   2.320 -0.2600  0.0142  0.2159
  940SOL     OW 3757   2.287   0.161   2.634 -0.2991  0.0410 -0.1621
  940SOL    HW1 3758   2.274   0.063   2.644  1.7405 -0.8174  1.2415
  940SOL    HW2 3759   2.350   0.164   2.700  1.2050 -0.0849 -0.4594
  940SOL     MW 3760   2.293   0.148   2.644  0.1685 -0.0888 -0.0161
  941SOL     OW 3761   0.132   2.427   2.053 -0.4236  0.4813  0.2676
  941SOL    HW1 3762   0.233   2.429   2.052  1.6725 -0.6748  0.9992
  941SOL    HW2 3763   0.119   2.360   1.985  0.6484  5.1645  1.1574
  941SOL     MW 3764   0.144   2.419   2.044 -0.0056  0.9467  0.4815
  942SOL     OW 3765   2.866   2.159   2.183 -0.6498 -0.2589 -0.1739
  942SOL    HW1 3766   2.793   2.217   2.161  1.2368  2.0658  0.3946
  942SOL    HW2 3767   2.828   2.099   2.242 -0.8839  2.6235  0.4010
  942SOL     MW 3768   2.851   2.159   2.188 -0.4318  0.4281 -0.0231
  943SOL     OW 3769   0.298   2.111   2.277  0.7339  0.1340 -0.1410
  943SOL    HW1 3770   0.259   2.166   2.346 -0.6427 -0.9742 -1.6514
  943SOL    HW2 3771   0.389   2.092   2.310  0.1758 -0.1651  0.3417
  943SOL     MW 3772   0.304   2.115   2.291  0.4787 -0.0516 -0.2766
  944SOL     OW 3773   2.082   2.696   2.093  0.3109  0.5226 -0.4016
  944SOL    HW1 3774   2.153   2.632   2.126  1.2967 -1.5861 -1.1029
  944SOL    HW2 3775   2.058   2.774   2.161  0.3112 -0.6838 -0.8308
  944SOL     MW 3776   2.088   2.698   2.106  0.4410  0.0852 -0.5507
  945SOL     OW 3777   2.644   2.702   2.885  0.4565 -0.2922 -0.1800
  945SOL    HW1 3778   2.666   2.613   2.868 -0.1895 -0.4483  0.4640
  945SOL    HW2 3779   2.599   2.729   2.808  0.5915 -1.3373  1.3705
  945SOL     MW 3780   2.641   2.694   2.872  0.3890 -0.4507  0.1096
  946SOL     OW 3781   2.486   2.748   2.293  0.4345 -0.6395  0.2266
  946SOL    HW1 3782   2.492   2.786   2.201 -0.3464 -3.3425  1.6412
  946SOL    HW2 3783   2.450   2.662   2.286 -3.0531 -1.8471  0.3987
  946SOL     MW 3784   2.482   2.741   2.280 -0.1287 -1.1555  0.4360
  947SOL     OW 3785   1.906   0.065   0.322  0.3812  0.0757  0.0151
  947SOL    HW1 3786   1.907  -0.037   0.313 -1.6039 -1.4280 -2.2755
  947SOL    HW2 3787   1.974   0.092   0.383 -2.0530  0.6464  1.0011
  947SOL     MW 3788   1.915   0.055   0.329 -0.2019 -0.0474 -0.1570
  948SOL     OW 3789   1.832   3.075   2.682 -0.2779 -0.2587  0.3076
  948SOL    HW1 3790   1.894   3.001   2.676  0.2199 -1.1327  0.4607
  948SOL    HW2 3791   1.797   3.083   2.591 -0.4176 -0.4111 -0.1738
  948SOL     MW 3792   1.836   3.066   2.669 -0.2306 -0.3941  0.2643
  949SOL     OW 3793   2.474   1.917   2.271  0.1394 -0.1618  0.3427
  949SOL    HW1 3794   2.477   1.820   2.290  0.0423  1.8570  0.1318
  949SOL    HW2 3795   2.400   1.954   2.323 -1.8380 -0.4364 -1.7206
  949SOL     MW 3796   2.464   1.909   2.280 -0.1343  0.0683  0.0427
  950SOL     OW 3797   2.269   2.452   2.956  0.1487 -0.2897  0.1589
  950SOL    HW1 3798   2.314   2.395   2.897 -2.4939 -2.5325  0.0961
  950SOL    HW2 3799   2.221   2.512   2.897 -0.7218  1.3040 -1.4144
  950SOL     MW 3800   2.269   2.452   2.940 -0.3148 -0.3753 -0.0569
  951SOL     OW 3801   3.007   2.087   2.806  0.4038 -0.4621 -0.3183
  951SOL    HW1 3802   2.991   2.124   2.894 -0.0295  2.0996  1.1146
  951SOL    HW2 3803   3.087   2.037   2.808 -1.5112 -1.3604 -0.7864
  951SOL     MW 3804   3.015   2.085   2.818  0.0940 -0.2426 -0.1910
  952SOL     OW 3805   3.017   1.647   2.142  0.9071 -0.1364 -0.1227
  952SOL    HW1 3806   2.934   1.699   2.129 -0.8397 -0.7691  1.6025
  952SOL    HW2 3807   3.079   1.711   2.181  0.8733 -0.7798 -0.7693
  952SOL     MW 3808   3.014   1.662   2.146  0.6722 -0.3047  0.0196
  953SOL     OW 3809   1.881   1.779   2.913 -0.7151 -0.0383 -0.5565
  953SOL    HW1 3810   1.810   1.750   2.971  2.0216 -0.8232 -2.5610
  953SOL    HW2 3811   1.912   1.699   2.860 -2.5405  0.2023 -0.6531
  953SOL     MW 3812   1.876   1.764   2.914 -0.5949 -0.1101 -0.8337
  954SOL     OW 3813   2.383   2.079   2.901 -0.5277 -0.1975 -0.1606
  954SOL    HW1 3814   2.300   2.074   2.862 -0.4932 -0.4061  2.5698
  954SOL    HW2 3815   2.452   2.039   2.842 -1.0372  0.5144 -0.5156
  954SOL     MW 3816   2.381   2.073   2.888 -0.5904 -0.1311  0.1528
  955SOL     OW 3817   1.548   1.582   2.579  0.7302 -0.0463 -0.0109
  955SOL    HW1 3818   1.521   1.624   2.493  0.3237  1.4655 -1.7333
  955SOL    HW2 3819   1.637   1.620   2.589 -1.3522 -1.2328  1.0913
  955SOL     MW 3820   1.556   1.592   2.569  0.4018 -0.0034 -0.0927
  956SOL     OW 3821   2.673   2.431   2.830 -0.0066  0.1402  0.1738
  956SOL    HW1 3822   2.683   2.392   2.915 -0.5433  2.5762 -0.3606
  956SOL    HW2 3823   2.735   2.377   2.777 -0.9189 -2.5275 -1.1760
  956SOL     MW 3824   2.683   2.419   2.834 -0.1978  0.1097 -0.0748
  957SOL     OW 3825   2.322   2.831   0.362 -0.5747 -0.1529 -0.0542
  957SOL    HW1 3826   2.242   2.859   0.319  1.8746  0.8703  0.2000
  957SOL    HW2 3827   2.302   2.802   0.457  3.3613 -0.1864  1.1827
  957SOL     MW 3828   2.309   2.831   0.369  0.2678 -0.0223  0.1426
  958SOL     OW 3829   2.092   2.623   2.824  0.7344  0.1022  0.2111
  958SOL    HW1 3830   2.041   2.560   2.769 -0.3531  0.8214  1.3599
  958SOL    HW2 3831   2.023   2.643   2.882  2.3182 -1.0002 -0.9052
  958SOL     MW 3832   2.076   2.617   2.825  0.7998  0.0516  0.2154
  959SOL     OW 3833   2.498   2.608   0.337  0.1713  0.1707  0.0137
  959SOL    HW1 3834   2.548   2.607   0.263  0.4531  1.0390 -0.2182
  959SOL    HW2 3835   2.447   2.693   0.329 -1.5444  1.7997 -0.1387
  959SOL     MW 3836   2.498   2.619   0.326 -0.0178  0.5002 -0.0370
  960SOL     OW 3837   1.915   2.269   2.240  0.3908  0.7651  0.0821
  960SOL    HW1 3838   1.891   2.176   2.257  0.2791 -0.6394  1.4290
  960SOL    HW2 3839   1.889   2.312   2.325 -1.6759  0.9860 -1.0451
  960SOL     MW 3840   1.908   2.262   2.253  0.1034  0.6089  0.1111
  961SOL     OW 3841   2.200   2.322   2.264 -0.3351  0.0611 -0.3159
  961SOL    HW1 3842   2.106   2.307   2.251  0.6971 -1.3314 -0.6742
  961SOL    HW2 3843   2.196   2.351   2.361  1.3782  0.7738  3.1619
  961SOL     MW 3844   2.187   2.324   2.275  0.0271 -0.0286  0.0957
  962SOL     OW 3845   2.142   2.024   2.742  0.4332  0.2795  0.0055
  962SOL    HW1 3846   2.093   2.002   2.813  2.3520  0.9291  1.1502
  962SOL    HW2 3847   2.163   1.943   2.687  0.8706 -0.7797 -2.0892
  962SOL     MW 3848   2.139   2.010   2.744  0.7441  0.2255 -0.1199
  963SOL     OW 3849   1.824   2.552   2.072 -0.7341 -0.1422  0.6164
  963SOL    HW1 3850   1.898   2.524   2.119 -0.9800  1.1294 -1.1742
  963SOL    HW2 3851   1.820   2.489   1.999 -0.6183  0.7851 -0.5070
  963SOL     MW 3852   1.833   2.540   2.069 -0.7513  0.1479  0.2320
  964SOL     OW 3853   1.761   1.964   2.741 -0.4067  0.4447  0.4167
  964SOL    HW1 3854   1.827   2.021   2.709 -0.3646 -0.1283  0.7466
  964SOL    HW2 3855   1.810   1.914   2.806  0.0647  2.3801 -0.5181
  964SOL     MW 3856   1.776   1.965   2.745 -0.3390  0.6245  0.3369
  965SOL     OW 3857   2.220   2.748   0.590  0.2548 -0.2181  0.3775
  965SOL    HW1 3858   2.213   2.652   0.578 -0.0216  1.4587  0.5483
  965SOL    HW2 3859   2.288   2.757   0.661  0.7274 -0.8057 -0.1888
  965SOL     MW 3860   2.228   2.737   0.598  0.2807 -0.0744  0.3253
  966SOL     OW 3861   2.681   2.669   2.466 -0.1772  0.0319  0.0890
  966SOL    HW1 3862   2.612   2.704   2.407 -2.2799 -1.6701  1.1558
  966SOL    HW2 3863   2.680   2.573   2.450  0.0965 -1.8635  4.4355
  966SOL     MW 3864   2.671   2.661   2.456 -0.4185 -0.4427  0.8032
  967SOL     OW 3865   2.760   3.041   2.881  0.0109 -0.1182  0.1519
  967SOL    HW1 3866   2.746   2.965   2.939 -0.3786  1.0807  1.3918
  967SOL    HW2 3867   2.678   3.037   2.826 -0.9058  1.0745 -2.4258
  967SOL     MW 3868   2.747   3.031   2.881 -0.1614  0.1973 -0.0246
  968SOL     OW 3869   2.975   2.615   2.895 -0.5435 -0.0652  0.3037
  968SOL    HW1 3870   2.908   2.665   2.852  3.4787 -0.1589  2.0150
  968SOL    HW2 3871   3.018   2.571   2.823 -1.2632  2.5057 -1.7870
  968SOL     MW 3872   2.972   2.616   2.880 -0.1078  0.2616  0.2537
  969SOL     OW 3873   1.620   2.142   1.640  0.2988  0.5398 -0.0000
  969SOL    HW1 3874   1.666   2.062   1.641 -3.5130  0.7021 -0.8274
  969SOL    HW2 3875   1.612   2.162   1.733  0.1135  1.0476 -1.5422
  969SOL     MW 3876   1.625   2.134   1.652 -0.2286  0.6282 -0.3127
  970SOL     OW 3877   1.684   1.803   1.930  0.1404  0.1805  0.7341
  970SOL    HW1 3878   1.702   1.720   1.977 -3.2998 -2.4431  2.6236
  970SOL    HW2 3879   1.586   1.800   1.943 -1.5627  0.8666  2.9816
  970SOL     MW 3880   1.673   1.792   1.938 -0.5382 -0.0751  1.2800
  971SOL     OW 3881   1.736   0.015   2.413 -0.0033  0.1758 -0.0034
  971SOL    HW1 3882   1.772  -0.008   2.331 -0.9446  1.5679 -1.3335
  971SOL    HW2 3883   1.776   0.105   2.425 -1.9318 -1.2422 -0.5679
  971SOL     MW 3884   1.746   0.024   2.404 -0.3819  0.1724 -0.2533
  972SOL     OW 3885   0.276   2.851   2.479  0.3210  0.8083 -0.5560
  972SOL    HW1 3886   0.334   2.774   2.487  0.7884  1.0584  0.7739
  972SOL    HW2 3887   0.319   2.928   2.520  1.9879 -0.3628 -0.0975
  972SOL     MW 3888   0.289   2.851   2.485  0.6026  0.6868 -0.3200
  973SOL     OW 3889   2.544   3.099   2.091  0.1906  0.1814  0.6356
  973SOL    HW1 3890   2.545   3.008   2.059 -2.5468  0.0906 -3.0510
  973SOL    HW2 3891   2.556   3.148   2.006 -1.2800  0.8910  1.4688
  973SOL     MW 3892   2.545   3.093   2.076 -0.3646  0.2631  0.2591
  974SOL     OW 3893   2.018   0.210   2.692 -0.2126  0.5541 -0.0695
  974SOL    HW1 3894   2.111   0.192   2.694 -1.6722  2.5010  1.1403
  974SOL    HW2 3895   1.987   0.153   2.759  1.8391 -1.9923 -1.2642
  974SOL     MW 3896   2.027   0.200   2.701 -0.1345  0.4750 -0.0675
  975SOL     OW 3897   2.206   2.489   2.492  0.1880 -0.2424  0.6482
  975SOL    HW1 3898   2.295   2.511   2.526 -0.8360  1.2799  2.1126
  975SOL    HW2 3899   2.164   2.577   2.478 -1.6928 -0.3283 -2.1846
  975SOL     MW 3900   2.212   2.504   2.494 -0.1953 -0.0529  0.4677
  976SOL     OW 3901   0.224   0.358   1.742  0.1534  0.2017  0.6919
  976SOL    HW1 3902   0.305   0.305   1.770  0.4041  0.1151  1.2602
  976SOL    HW2 3903   0.166   0.295   1.687 -0.0079 -2.9343 -1.7575
  976SOL     MW 3904   0.227   0.343   1.738  0.1652 -0.2235  0.4437
  977SOL     OW 3905   1.755   2.642   2.530 -0.1534  0.0886  0.5571
  977SOL    HW1 3906   1.725   2.558   2.487 -0.2725  1.1519 -1.8367
  977SOL    HW2 3907   1.846   2.654   2.519 -2.2279  0.0926  0.2429
  977SOL     MW 3908   1.763   2.633   2.523 -0.4428  0.2294  0.1998
   3.10000   3.10000   3.10000
