977 TIP4P/2005f water molecules t=   1.67000 step= 1670
 3908
    1SOL     OW    1   0.390   0.785   0.107 -0.1000 -0.3162  0.0147
    1SOL    HW1    2   0.385   0.709   0.046  1.3013 -0.7342 -0.8385
    1SOL    HW2    3   0.399   0.767   0.198 -1.7047 -1.6647  1.0617
    1SOL     MW    4   0.391   0.773   0.111 -0.1268 -0.5493  0.0403
    2SOL     OW    5   0.316   3.002   1.088  0.0052  0.1429  0.0259
    2SOL    HW1    6   0.367   3.086   1.077 -3.0084  1.3891  0.3553
    2SOL    HW2    7   0.224   3.029   1.105  0.1031 -0.2099  1.8435
    2SOL     MW    8   0.311   3.017   1.088 -0.3795  0.2608  0.3092
    3SOL     OW    9   2.654   0.352   0.980  0.6742 -0.4918 -0.0566
    3SOL    HW1   10   2.704   0.425   0.941 -1.6274 -3.8946  1.0036
    3SOL    HW2   11   2.665   0.374   1.077 -1.5272  2.1412 -1.5968
    3SOL     MW   12   2.662   0.365   0.988  0.0801 -0.5934 -0.1199
    4SOL     OW   13   2.984   1.702   0.530 -0.4420  0.2411 -0.5418
    4SOL    HW1   14   2.911   1.768   0.516 -2.1602  1.1359  1.1225
    4SOL    HW2   15   3.037   1.701   0.450 -1.6912  3.2367 -1.8720
    4SOL     MW   16   2.981   1.711   0.518 -0.8335  0.7544 -0.4977
    5SOL     OW   17   1.614   1.415   0.625 -0.2649 -0.0919 -0.8755
    5SOL    HW1   18   1.644   1.424   0.714  0.3273  2.9057  0.9775
    5SOL    HW2   19   1.530   1.455   0.629  1.5079 -1.6461  2.3003
    5SOL     MW   20   1.607   1.422   0.638  0.0471  0.0985 -0.2120
    6SOL     OW   21   0.790   1.446   0.618 -0.6975  0.3522  0.0875
    6SOL    HW1   22   0.694   1.440   0.634  1.5532 -0.3131  1.3910
    6SOL    HW2   23   0.814   1.361   0.653  0.3822  2.3724  1.7971
    6SOL     MW   24   0.780   1.434   0.624 -0.2581  0.5310  0.4850
    7SOL     OW   25   1.928   1.077   0.006  0.0118  0.2719 -0.7123
    7SOL    HW1   26   2.012   1.130  -0.001  0.9934  1.5204  1.5316
    7SOL    HW2   27   1.934   1.035   0.099  2.6942 -0.1091  0.7717
    7SOL     MW   28   1.940   1.078   0.018  0.4953  0.3863 -0.2204
    8SOL     OW   29   0.794   1.466   1.087  0.0308  0.0811 -0.2683
    8SOL    HW1   30   0.881   1.490   1.114 -0.0974 -2.8134 -1.0206
    8SOL    HW2   31   0.762   1.384   1.122  0.6689  0.2519 -1.1748
    8SOL     MW   32   0.802   1.459   1.096  0.0981 -0.2783 -0.4872
    9SOL     OW   33   0.941   0.483   1.341 -0.2180  1.1933 -0.5639
    9SOL    HW1   34   0.865   0.424   1.307 -3.0009  1.2446 -0.9341
    9SOL    HW2   35   0.984   0.419   1.397 -0.8851  1.1404 -3.1613
    9SOL     MW   36   0.937   0.466   1.344 -0.6732  1.1931 -0.9554
   10SOL     OW   37   0.295   0.862   0.475 -0.1592 -0.4457  0.0285
   10SOL    HW1   38   0.385   0.866   0.435  0.6125 -0.5712  1.1925
   10SOL    HW2   39   0.295   0.895   0.567 -0.8285 -0.1702  1.1253
   10SOL     MW   40   0.307   0.867   0.482 -0.1457 -0.4259  0.3268
   11SOL     OW   41   0.779   1.109   1.480  0.1440  0.3487  0.5684
   11SOL    HW1   42   0.831   1.133   1.560 -0.8043  2.6607  0.8754
   11SOL    HW2   43   0.800   1.021   1.447 -1.0076  0.3250 -3.7990
   11SOL     MW   44   0.788   1.101   1.486 -0.1331  0.6507  0.0326
   12SOL     OW   45   0.011   1.067   0.879  0.2973  0.2519  0.6195
   12SOL    HW1   46   0.064   1.136   0.922  4.0750 -2.4204 -0.6748
   12SOL    HW2   47  -0.035   1.111   0.811  3.1043 -0.4767  0.8212
   12SOL     MW   48   0.012   1.082   0.876  1.1661 -0.1968  0.4754
   13SOL     OW   49   1.804   1.416   1.315  0.0050 -0.1169  0.8197
   13SOL    HW1   50   1.832   1.335   1.279 -3.6554  1.8722  0.4045
   13SOL    HW2   51   1.883   1.467   1.321 -0.9627 -1.6561  1.5682
   13SOL     MW   52   1.818   1.412   1.311 -0.6057 -0.0575  0.8637
   14SOL     OW   53   0.544   0.338   1.754  0.2026 -0.0021  0.1053
   14SOL    HW1   54   0.477   0.274   1.777 -1.1708 -0.4527  1.4815
   14SOL    HW2   55   0.616   0.286   1.714  0.3933 -4.1035  0.6961
   14SOL     MW   56   0.544   0.323   1.752  0.0466 -0.6027  0.3648
   15SOL     OW   57   2.018   0.413   1.002 -0.3373 -0.0785 -0.1612
   15SOL    HW1   58   2.005   0.499   1.037  2.4855  0.7068 -0.7545
   15SOL    HW2   59   2.046   0.446   0.913 -0.8568 -0.6167 -0.5294
   15SOL     MW   60   2.020   0.429   0.995 -0.0334 -0.0459 -0.2880
   16SOL     OW   61   0.286   1.828   0.293 -0.7477 -0.2478 -0.0515
   16SOL    HW1   62   0.371   1.781   0.315 -0.0809  1.5953  0.6538
   16SOL    HW2   63   0.303   1.911   0.335 -0.7375 -0.6909 -0.8113
   16SOL     MW   64   0.300   1.833   0.302 -0.6584 -0.0631 -0.0587
   17SOL     OW   65   1.114   0.888   1.433 -0.0740  0.3981  0.0590
   17SOL    HW1   66   1.133   0.879   1.530 -0.4152  0.7980  0.5614
   17SOL    HW2   67   1.021   0.881   1.422  2.7990  1.1608 -0.0342
   17SOL     MW   68   1.104   0.886   1.444  0.2601  0.5515  0.1130
   18SOL     OW   69   0.069   1.654   0.321 -0.0795 -0.1216  0.0029
   18SOL    HW1   70   0.136   1.722   0.298  1.7613 -0.2229 -1.7467
   18SOL    HW2   71   0.044   1.599   0.246 -2.2636 -2.2586 -2.0746
   18SOL     MW   72   0.075   1.655   0.308 -0.1248 -0.4169 -0.5021
   19SOL     OW   73   0.094   1.323   0.981  0.3055  0.1333 -0.2995
   19SOL    HW1   74   0.137   1.360   0.907 -0.2986 -2.2672  0.6676
   19SOL    HW2   75   0.005   1.355   0.988 -0.7323 -3.3581  2.6575
   19SOL     MW   76   0.088   1.332   0.972  0.0889 -0.6441  0.2182
   20SOL     OW   77   0.435   2.119   1.262 -0.2217 -0.1924 -0.1276
   20SOL    HW1   78   0.381   2.049   1.215  0.4564 -0.6924  0.2925
   20SOL    HW2   79   0.398   2.139   1.354 -1.8719 -0.5303 -0.0522
   20SOL     MW   80   0.423   2.112   1.268 -0.3500 -0.3029 -0.0622
   21SOL     OW   81   0.558   0.869   0.406  0.0247  0.0376 -0.3074
   21SOL    HW1   82   0.616   0.818   0.462 -1.4218  4.1866 -1.9664
   21SOL    HW2   83   0.607   0.941   0.372 -0.9747  1.5046 -0.5984
   21SOL     MW   84   0.572   0.872   0.409 -0.2980  0.7785 -0.5647
   22SOL     OW   85   1.535   0.700   1.031  0.2386 -0.4386 -0.1304
   22SOL    HW1   86   1.506   0.683   0.943  1.4787  2.2145 -0.9106
   22SOL    HW2   87   1.466   0.754   1.068  0.1409  2.4398  0.5392
   22SOL     MW   88   1.522   0.705   1.025  0.3893  0.2912 -0.1450
   23SOL     OW   89   3.060   0.822   0.728 -0.4213  0.0954 -0.1264
   23SOL    HW1   90   3.107   0.740   0.757 -2.6065 -0.7730 -0.9598
   23SOL    HW2   91   3.125   0.894   0.731 -2.1926  0.8551 -1.1091
   23SOL     MW   92   3.075   0.821   0.732 -0.9433  0.0811 -0.3660
   24SOL     OW   93   2.071   2.204   0.055  0.2977 -0.2543  0.1421
   24SOL    HW1   94   2.029   2.215   0.142 -0.8384 -3.1514  0.4197
   24SOL    HW2   95   2.071   2.109   0.046 -0.9347 -0.4756  3.0719
   24SOL     MW   96   2.066   2.193   0.065 -0.0148 -0.6657  0.5653
   25SOL     OW   97   0.194   1.425   0.426  0.3602  0.7904 -0.3147
   25SOL    HW1   98   0.154   1.510   0.414  2.6286 -2.2436  0.5698
   25SOL    HW2   99   0.255   1.406   0.353 -0.8804  0.2774  1.6115
   25SOL     MW  100   0.197   1.434   0.415  0.4958  0.3224  0.0561
   26SOL     OW  101   1.976   1.041   0.290  0.4200  0.6804 -0.0921
   26SOL    HW1  102   1.917   1.082   0.356  0.6476 -1.7154  1.2399
   26SOL    HW2  103   2.037   1.112   0.259 -0.1754  2.3045  2.2913
   26SOL     MW  104   1.976   1.056   0.295  0.3714  0.5786  0.3981
   27SOL     OW  105   1.861   1.379   0.164 -0.0905 -0.2218 -0.6990
   27SOL    HW1  106   1.826   1.467   0.182 -1.6173 -0.9527 -1.2670
   27SOL    HW2  107   1.929   1.384   0.234  1.4952  1.0425 -1.7511
   27SOL     MW  108   1.865   1.392   0.175 -0.0827 -0.1514 -0.9127
   28SOL     OW  109   0.415   0.941   2.001 -0.1415  0.0438  0.3446
   28SOL    HW1  110   0.453   0.944   2.085  0.9344 -1.7334  1.0375
   28SOL    HW2  111   0.330   0.899   2.027 -2.0370 -3.3202  1.3910
   28SOL     MW  112   0.409   0.936   2.015 -0.2496 -0.6346  0.5741
   29SOL     OW  113   0.207   1.409   0.738 -0.1648  0.7307  0.2158
   29SOL    HW1  114   0.246   1.500   0.741 -2.0398 -0.9268  0.3245
   29SOL    HW2  115   0.179   1.390   0.648 -0.1444  1.7897  0.7587
   29SOL     MW  116   0.209   1.418   0.726 -0.4095  0.6517  0.3018
   30SOL     OW  117   0.721   1.232   1.211 -0.7714  0.8001 -0.0100
   30SOL    HW1  118   0.637   1.238   1.253  0.5259  1.8588  0.4826
   30SOL    HW2  119   0.775   1.211   1.293 -1.4975  0.4985  2.2490
   30SOL     MW  120   0.717   1.230   1.227 -0.6960  0.9000  0.3531
   31SOL     OW  121   0.513   0.283   0.209  0.2189 -0.1096  0.2915
   31SOL    HW1  122   0.521   0.204   0.266 -1.8695 -1.9179  0.4229
   31SOL    HW2  123   0.499   0.247   0.116 -1.8489  2.5209  2.2336
   31SOL     MW  124   0.512   0.268   0.204 -0.3294 -0.0012  0.5651
   32SOL     OW  125   2.717   0.950   1.083 -0.5098 -0.2662 -0.1369
   32SOL    HW1  126   2.665   0.883   1.117  4.1997  0.6451 -2.3669
   32SOL    HW2  127   2.805   0.924   1.082 -0.8715  1.8331 -2.2832
   32SOL     MW  128   2.721   0.938   1.087  0.0638  0.1310 -0.7143
   33SOL     OW  129   1.640   1.237   0.396 -0.2750 -0.1084  0.6061
   33SOL    HW1  130   1.734   1.215   0.392 -1.0723  1.1363 -0.4886
   33SOL    HW2  131   1.626   1.301   0.463 -1.3433 -1.9237  1.4642
   33SOL     MW  132   1.651   1.243   0.404 -0.5212 -0.1837  0.5749
   34SOL     OW  133   1.162   1.971   1.130 -0.1886  0.4496  0.2913
   34SOL    HW1  134   1.064   1.983   1.134  0.8284  2.8916  1.6485
   34SOL    HW2  135   1.190   1.989   1.221  1.2749 -0.6750 -3.0838
   34SOL     MW  136   1.153   1.975   1.143  0.1386  0.6234  0.0251
   35SOL     OW  137   0.339   0.149   1.790  0.7838 -0.0045 -0.4269
   35SOL    HW1  138   0.362   0.097   1.871  0.1899  0.7552  1.1218
   35SOL    HW2  139   0.333   0.092   1.716  1.2464  1.1255 -2.2411
   35SOL     MW  140   0.341   0.135   1.791  0.7665  0.2448 -0.4619
   36SOL     OW  141   1.924   1.988   0.601  0.0754 -0.3270 -0.1546
   36SOL    HW1  142   1.885   1.979   0.511 -1.0421  0.8461  0.2646
   36SOL    HW2  143   1.956   1.905   0.633 -1.4943 -0.1419  2.4391
   36SOL     MW  144   1.923   1.976   0.594 -0.2792 -0.1478  0.2429
   37SOL     OW  145   1.817   2.077   1.002 -0.0515  0.4082  0.2103
   37SOL    HW1  146   1.755   2.019   0.960  0.6038  0.1565  0.2931
   37SOL    HW2  147   1.779   2.088   1.088 -1.3973 -0.4063  0.3747
   37SOL     MW  148   1.804   2.071   1.008 -0.1426  0.2675  0.2429
   38SOL     OW  149   2.820   0.968   0.084 -0.7460  0.3044 -0.8843
   38SOL    HW1  150   2.845   0.947   0.176 -0.7563  0.3863 -1.7912
   38SOL    HW2  151   2.899   0.955   0.031  2.2303  0.3056 -0.9055
   38SOL     MW  152   2.834   0.963   0.089 -0.3546  0.3153 -1.0068
   39SOL     OW  153   1.496   0.662   0.774  0.3030  0.3711 -0.1836
   39SOL    HW1  154   1.456   0.575   0.777  1.9700 -1.9010  3.9842
   39SOL    HW2  155   1.431   0.726   0.751  1.7210 -0.9747  0.7897
   39SOL     MW  156   1.482   0.659   0.771  0.7100 -0.1063  0.4947
   40SOL     OW  157   1.269   1.882   0.244 -0.2272  0.6820 -0.3903
   40SOL    HW1  158   1.331   1.822   0.284 -0.7829 -1.3090  0.2244
   40SOL    HW2  159   1.248   1.941   0.320  1.2165 -0.0147  0.9605
   40SOL     MW  160   1.275   1.882   0.259 -0.1100  0.3274 -0.1310
   41SOL     OW  161   0.518   0.560   1.520 -0.5519 -0.5600 -0.2597
   41SOL    HW1  162   0.591   0.603   1.486 -2.4746  0.9813 -1.0719
   41SOL    HW2  163   0.435   0.617   1.508 -0.2295  1.4214 -0.1441
   41SOL     MW  164   0.516   0.573   1.514 -0.7631 -0.0952 -0.3516
   42SOL     OW  165   1.227   2.968   1.986 -0.9349 -0.5011  0.4055
   42SOL    HW1  166   1.142   2.990   2.018  1.2500 -2.9895 -1.2562
   42SOL    HW2  167   1.276   2.903   2.037  2.3224 -0.9943 -3.5899
   42SOL     MW  168   1.222   2.963   1.997 -0.2169 -0.8945 -0.3409
   43SOL     OW  169   1.439   0.094   1.710 -0.4347  0.2497 -0.7781
   43SOL    HW1  170   1.506   0.075   1.639 -1.4679 -3.0221 -0.6289
   43SOL    HW2  171   1.373   0.020   1.696 -1.1537 -0.0367 -2.0142
   43SOL     MW  172   1.439   0.081   1.699 -0.6659 -0.2198 -0.9215
   44SOL     OW  173   1.262   0.800   1.025 -0.4124  0.0215 -0.1800
   44SOL    HW1  174   1.243   0.891   1.044 -0.2118 -0.7739 -1.4635
   44SOL    HW2  175   1.233   0.750   1.103 -0.6398  1.3161  0.3129
   44SOL     MW  176   1.256   0.806   1.038 -0.4159  0.0873 -0.2843
   45SOL     OW  177   1.297   0.844   0.736  0.0170  0.1122 -0.1942
   45SOL    HW1  178   1.261   0.848   0.825  1.7644  1.5659 -1.3214
   45SOL    HW2  179   1.244   0.802   0.672  0.6010  0.8803 -1.3522
   45SOL     MW  180   1.285   0.839   0.740  0.3246  0.4053 -0.4957
   46SOL     OW  181   0.441   1.129   0.654  0.0182  0.2685 -0.0846
   46SOL    HW1  182   0.486   1.147   0.569  2.0890  1.4520 -0.4948
   46SOL    HW2  183   0.465   1.203   0.712 -3.9555  0.9634 -2.3538
   46SOL     MW  184   0.450   1.141   0.651 -0.2328  0.5163 -0.4381
   47SOL     OW  185   0.088   2.045   1.890  0.0335 -0.6083  0.1130
   47SOL    HW1  186   0.070   1.951   1.884  2.2911  0.8493  0.9069
   47SOL    HW2  187   0.053   2.078   1.975 -2.3990 -0.2048  2.8034
   47SOL     MW  188   0.081   2.037   1.901  0.0104 -0.3627  0.5727
   48SOL     OW  189   1.209   0.501   1.019  0.1539 -0.4411 -0.1531
   48SOL    HW1  190   1.174   0.457   0.943  0.6972  3.5897 -0.4537
   48SOL    HW2  191   1.209   0.595   1.005 -1.4552 -0.5919 -0.7195
   48SOL     MW  192   1.205   0.507   1.007  0.0132  0.0709 -0.2675
   49SOL     OW  193   1.684   0.683   1.565  0.1469  0.2187  0.1957
   49SOL    HW1  194   1.729   0.620   1.624 -0.5941  0.0987  2.3018
   49SOL    HW2  195   1.727   0.660   1.481 -0.0948 -1.1308 -0.0010
   49SOL     MW  196   1.695   0.671   1.562  0.0172  0.0248  0.4476
   50SOL     OW  197   1.314   1.229   0.623 -0.1933 -0.9965  0.1631
   50SOL    HW1  198   1.227   1.203   0.668  3.5662  0.6497 -1.4788
   50SOL    HW2  199   1.385   1.170   0.670  1.3428 -1.7616  0.5812
   50SOL     MW  200   1.312   1.217   0.635  0.5054 -0.8803  0.0016
   51SOL     OW  201   0.309   2.866   0.836  0.1241  0.1225  0.3355
   51SOL    HW1  202   0.395   2.830   0.861 -2.0973  2.4062  2.6675
   51SOL    HW2  203   0.290   2.926   0.903 -0.0866 -3.6982 -1.6166
   51SOL     MW  204   0.318   2.869   0.848 -0.1968 -0.0803  0.3856
   52SOL     OW  205   0.793   1.811   0.467 -0.1144 -0.0587  0.0845
   52SOL    HW1  206   0.769   1.905   0.478 -0.5988  1.3238  1.6918
   52SOL    HW2  207   0.836   1.798   0.381 -0.1611  0.9220 -0.2168
   52SOL     MW  208   0.795   1.822   0.457 -0.1845  0.2531  0.2568
   53SOL     OW  209   0.490   2.173   0.566  0.1066  0.3040  0.9066
   53SOL    HW1  210   0.411   2.139   0.521 -0.3018 -0.2845 -1.5143
   53SOL    HW2  211   0.463   2.261   0.589  0.3997 -2.3265  2.1645
   53SOL     MW  212   0.476   2.180   0.563  0.0914 -0.1207  0.7531
   54SOL     OW  213   2.043   0.984   0.735  0.2382 -0.1784  0.1669
   54SOL    HW1  214   2.106   0.988   0.664  1.3523  1.1363  2.6368
   54SOL    HW2  215   2.042   0.889   0.757  0.9501  0.7573 -0.5373
   54SOL     MW  216   2.051   0.972   0.728  0.4791  0.1185  0.3999
   55SOL     OW  217   0.444   1.515   1.690 -0.1599 -0.1409  0.5626
   55SOL    HW1  218   0.391   1.557   1.625 -1.7357 -1.7116  2.1304
   55SOL    HW2  219   0.530   1.506   1.641 -1.4777 -1.3634 -0.9317
   55SOL     MW  220   0.449   1.519   1.675 -0.5417 -0.5095  0.5723
   56SOL     OW  221   0.671   0.920   0.153 -0.2160  0.3156 -0.1410
   56SOL    HW1  222   0.660   1.013   0.133 -0.0055 -0.4400  2.2494
   56SOL    HW2  223   0.591   0.871   0.133 -0.8923  0.1626 -0.5517
   56SOL     MW  224   0.659   0.926   0.148 -0.2775  0.1957  0.1202
   57SOL     OW  225   1.103   1.273   1.150 -0.2506  0.2511  0.1930
   57SOL    HW1  226   1.194   1.298   1.169 -1.4297 -2.1597  0.5817
   57SOL    HW2  227   1.080   1.220   1.229  0.9740 -0.1316 -2.3042
   57SOL     MW  228   1.112   1.269   1.163 -0.2446 -0.1175 -0.0852
   58SOL     OW  229   0.442   1.281   1.290  0.7821 -0.5679  0.2691
   58SOL    HW1  230   0.427   1.373   1.270 -1.2551 -1.0234  0.5987
   58SOL    HW2  231   0.427   1.285   1.381  1.2484  0.0488 -2.3523
   58SOL     MW  232   0.438   1.293   1.300  0.5748 -0.5466 -0.0333
   59SOL     OW  233   1.430   1.681   0.386  0.3579 -0.1447 -0.0887
   59SOL    HW1  234   1.488   1.725   0.443 -1.2801  0.9702 -1.0104
   59SOL    HW2  235   1.350   1.656   0.429 -0.6887 -2.1484  3.6970
   59SOL     MW  236   1.427   1.683   0.399  0.0037 -0.2620  0.2891
   60SOL     OW  237   3.098   0.168   1.628  0.1131  0.2097 -0.8671
   60SOL    HW1  238   3.014   0.212   1.643  2.5234  0.8877  1.9337
   60SOL    HW2  239   3.120   0.148   1.716  2.8258  0.3371  2.1608
   60SOL     MW  240   3.089   0.171   1.641  0.7890  0.3160 -0.0981
   61SOL     OW  241   1.953   1.355   2.975 -0.0593 -0.6294  0.0892
   61SOL    HW1  242   1.930   1.348   3.066  0.7413 -1.6327 -0.8371
   61SOL    HW2  243   2.039   1.310   2.971  1.1822 -0.4893  0.0254
   61SOL     MW  244   1.961   1.348   2.986  0.2102 -0.7433 -0.0415
   62SOL     OW  245   0.583   1.726   0.659 -0.0324 -0.0283  0.3076
   62SOL    HW1  246   0.666   1.734   0.611  0.1570 -0.8721 -0.1369
   62SOL    HW2  247   0.575   1.635   0.688 -0.2213 -0.4095  1.0447
   62SOL     MW  248   0.593   1.715   0.656 -0.0323 -0.1899  0.3462
   63SOL     OW  249   1.753   0.720   0.627 -0.4751  0.1366 -0.1957
   63SOL    HW1  250   1.739   0.805   0.583  0.3263  0.2287 -2.7960
   63SOL    HW2  251   1.665   0.710   0.670  1.1911 -0.8249 -1.3740
   63SOL     MW  252   1.740   0.730   0.627 -0.1495  0.0219 -0.6942
   64SOL     OW  253   0.274   1.681   0.721  0.5313 -0.2885 -0.3040
   64SOL    HW1  254   0.326   1.762   0.718  2.6403  0.4171  0.1481
   64SOL    HW2  255   0.189   1.725   0.702 -3.2653 -0.1875 -3.2715
   64SOL     MW  256   0.270   1.697   0.718  0.3087 -0.1821 -0.6359
   65SOL     OW  257   1.481   2.297   0.390  0.5953 -0.4418  0.1088
   65SOL    HW1  258   1.575   2.305   0.389 -2.0013 -1.3452 -2.3974
   65SOL    HW2  259   1.435   2.343   0.465 -1.7884  0.6690 -0.8254
   65SOL     MW  260   1.488   2.304   0.400 -0.0618 -0.4145 -0.3451
   66SOL     OW  261   0.393   0.582   0.482  0.1930  0.2745  0.5119
   66SOL    HW1  262   0.455   0.589   0.408  3.3643 -1.1064 -0.6679
   66SOL    HW2  263   0.376   0.672   0.505 -0.6263 -0.6113  0.1159
   66SOL     MW  264   0.399   0.595   0.476  0.5033 -0.0246  0.3040
   67SOL     OW  265   1.441   0.040   1.988  0.0462  0.4726  0.2645
   67SOL    HW1  266   1.464   0.060   1.896 -2.0669  0.3515  0.5498
   67SOL    HW2  267   1.377  -0.032   1.990  0.5953 -2.7980  2.4578
   67SOL     MW  268   1.435   0.033   1.976 -0.1602  0.0251  0.5915
   68SOL     OW  269   0.754   0.063   2.950 -0.0548  0.6072  0.1301
   68SOL    HW1  270   0.741   0.091   2.857 -0.9982 -0.1633  0.6527
   68SOL    HW2  271   0.829   0.099   2.986 -2.1796 -1.6515  0.7764
   68SOL     MW  272   0.762   0.071   2.942 -0.4596  0.2076  0.2843
   69SOL     OW  273   1.065   0.223   1.924  0.6858  0.9428  0.5941
   69SOL    HW1  274   1.150   0.256   1.953  2.3147  3.2789 -0.5051
   69SOL    HW2  275   1.044   0.159   1.995  1.9485 -0.3883  0.1004
   69SOL     MW  276   1.073   0.219   1.937  1.0673  1.0754  0.3840
   70SOL     OW  277   0.501   1.744   1.087  0.0999 -0.2765  0.2943
   70SOL    HW1  278   0.575   1.797   1.110 -1.5438  0.1761  0.0443
   70SOL    HW2  279   0.545   1.682   1.027  2.0814 -1.5562  0.9314
   70SOL     MW  280   0.516   1.743   1.082  0.1444 -0.3856  0.3454
   71SOL     OW  281   1.538   0.565   1.254  0.3913  0.0870 -0.0291
   71SOL    HW1  282   1.486   0.632   1.308 -2.3919 -0.0193  2.6987
   71SOL    HW2  283   1.543   0.602   1.166  0.0503 -0.7518  0.6406
   71SOL     MW  284   1.532   0.579   1.249 -0.0209 -0.0377  0.4191
   72SOL     OW  285   0.803   1.839   1.015  0.3912  0.4454 -0.0593
   72SOL    HW1  286   0.792   1.924   0.963  0.3076  1.2963  0.2526
   72SOL    HW2  287   0.825   1.768   0.957 -2.0903  0.2250 -1.1730
   72SOL     MW  288   0.805   1.841   1.001  0.0528  0.5286 -0.1651
   73SOL     OW  289   1.129   0.666   1.255 -0.4526 -0.3252 -1.0976
   73SOL    HW1  290   1.075   0.580   1.267  1.7137  1.8400  1.9985
   73SOL    HW2  291   1.089   0.731   1.313  0.2017 -0.7646  0.6368
   73SOL     MW  292   1.116   0.663   1.264 -0.0805 -0.0975 -0.4603
   74SOL     OW  293   2.788   0.094   0.975 -0.5499 -0.1119 -0.0439
   74SOL    HW1  294   2.862   0.072   0.922  0.9502  0.8088  0.0751
   74SOL    HW2  295   2.776   0.186   0.954 -3.7435 -1.9280  1.4347
   74SOL     MW  296   2.796   0.103   0.965 -0.7734 -0.2300  0.1669
   75SOL     OW  297   1.531   1.350   0.146 -0.7678  0.3366 -0.1122
   75SOL    HW1  298   1.590   1.295   0.097 -0.1042 -0.0524  0.7428
   75SOL    HW2  299   1.561   1.338   0.239  1.9892  0.8791  2.6338
   75SOL     MW  300   1.543   1.341   0.152 -0.3165  0.3568  0.3629
   76SOL     OW  301   3.020   0.675   0.508  0.5190  0.6371  0.2529
   76SOL    HW1  302   3.047   0.751   0.572  0.2722  0.4892  2.6567
   76SOL    HW2  303   3.106   0.630   0.496 -0.9129  1.1190  1.4173
   76SOL     MW  304   3.035   0.679   0.515  0.2975  0.6812  0.7237
   77SOL     OW  305   0.838   0.625   0.444 -0.3242 -0.2303  0.2524
   77SOL    HW1  306   0.828   0.638   0.348 -0.6474  3.0798  0.4703
   77SOL    HW2  307   0.797   0.536   0.461 -1.7769  0.8083  2.5018
   77SOL     MW  308   0.831   0.615   0.433 -0.5585  0.3435  0.5780
   78SOL     OW  309   0.769   0.892   1.093  0.6948  0.0583 -0.5294
   78SOL    HW1  310   0.770   0.968   1.039 -0.2152 -2.1554  0.2290
   78SOL    HW2  311   0.678   0.881   1.126 -0.4723  0.5244  1.4401
   78SOL     MW  312   0.757   0.901   1.090  0.4207 -0.1723 -0.1695
   79SOL     OW  313   1.852   1.508   0.564 -0.6043 -0.3733 -0.5026
   79SOL    HW1  314   1.761   1.486   0.585 -1.6928 -0.8094  0.9257
   79SOL    HW2  315   1.876   1.538   0.654 -0.1622 -0.9834  1.6169
   79SOL     MW  316   1.843   1.509   0.578 -0.6896 -0.5113 -0.0345
   80SOL     OW  317   0.126   1.013   0.313  0.4966 -0.1795 -0.2211
   80SOL    HW1  318   0.075   0.965   0.255  3.8716 -1.1341  0.1176
   80SOL    HW2  319   0.171   0.943   0.363  1.6421  1.5536  0.0690
   80SOL     MW  320   0.125   0.997   0.312  1.0930 -0.0768 -0.1381
   81SOL     OW  321   1.786   1.865   0.364  0.5578 -0.3419  0.3961
   81SOL    HW1  322   1.782   1.780   0.328 -0.6160  1.3407 -0.8644
   81SOL    HW2  323   1.745   1.921   0.289 -2.1540 -0.6164  1.2786
   81SOL     MW  324   1.780   1.861   0.349  0.0451 -0.1561  0.3463
   82SOL     OW  325   0.956   1.044   0.535  0.4041 -0.4455  0.7884
   82SOL    HW1  326   0.895   1.074   0.470 -0.5017  2.0732  2.2662
   82SOL    HW2  327   0.916   0.961   0.562  1.6564 -1.2087 -4.4264
   82SOL     MW  328   0.943   1.037   0.530  0.4498 -0.2139  0.2953
   83SOL     OW  329   0.045   0.745   1.557  0.5547 -0.6727 -0.2057
   83SOL    HW1  330   0.054   0.821   1.490 -3.1491 -2.8624  2.8795
   83SOL    HW2  331   0.119   0.683   1.544  1.1925 -0.2786  1.1175
   83SOL     MW  332   0.056   0.747   1.546  0.1501 -0.9096  0.3759
   84SOL     OW  333   0.043   0.180   0.933 -0.1446 -0.4588  0.4130
   84SOL    HW1  334   0.028   0.267   0.968  0.5821 -0.2248 -0.6213
   84SOL    HW2  335   0.036   0.105   0.996 -0.1766  0.3366  0.3083
   84SOL     MW  336   0.040   0.181   0.946 -0.0530 -0.3230  0.2627
   85SOL     OW  337   0.342   0.489   0.759 -0.7853  0.2423  0.5672
   85SOL    HW1  338   0.339   0.517   0.668 -2.8891 -0.7635  1.4416
   85SOL    HW2  339   0.314   0.397   0.755  0.2320  1.8177  0.4982
   85SOL     MW  340   0.338   0.481   0.747 -0.9287  0.3174  0.6735
   86SOL     OW  341   1.226   0.276   1.161 -0.0101  0.0856 -0.5074
   86SOL    HW1  342   1.208   0.364   1.125 -0.4216 -1.8490 -1.1814
   86SOL    HW2  343   1.310   0.284   1.209 -0.2431  0.0814  1.0505
   86SOL     MW  344   1.235   0.289   1.163 -0.0952 -0.1702 -0.3908
   87SOL     OW  345   1.039   1.546   1.191 -0.5316  0.1179 -0.1665
   87SOL    HW1  346   1.105   1.592   1.143  0.8996 -0.9385 -0.0362
   87SOL    HW2  347   1.073   1.457   1.182  2.4294  0.0118 -2.0621
   87SOL     MW  348   1.052   1.540   1.184  0.0479 -0.0355 -0.3994
   88SOL     OW  349   1.217   1.081   1.003 -0.7637  0.0679 -0.3767
   88SOL    HW1  350   1.308   1.115   0.988  0.3012 -0.2872  0.9412
   88SOL    HW2  351   1.181   1.134   1.075  1.1179 -0.3092  1.4111
   88SOL     MW  352   1.224   1.093   1.011 -0.3750 -0.0287  0.0330
   89SOL     OW  353   1.783   0.700   0.241  0.6020  0.1354 -0.4408
   89SOL    HW1  354   1.754   0.624   0.286 -2.1754  0.2795 -1.5096
   89SOL    HW2  355   1.866   0.735   0.280 -0.0751 -1.1598  1.5255
   89SOL     MW  356   1.790   0.695   0.252  0.1462 -0.0165 -0.3224
   90SOL     OW  357   0.799   1.234   2.873 -0.9267  0.0382 -0.5327
   90SOL    HW1  358   0.859   1.169   2.912  0.3557 -0.7364 -2.5390
   90SOL    HW2  359   0.788   1.305   2.935  0.2178 -2.5407 -0.9486
   90SOL     MW  360   0.805   1.235   2.886 -0.6065 -0.4043 -0.8523
   91SOL     OW  361   2.199   0.606   0.459  0.4748 -0.4481 -0.3254
   91SOL    HW1  362   2.273   0.642   0.411 -3.0455 -0.0035  0.1577
   91SOL    HW2  363   2.201   0.511   0.443  0.9932 -0.1658  4.0601
   91SOL     MW  364   2.209   0.598   0.451  0.0787 -0.3522  0.3170
   92SOL     OW  365   1.630   0.957   0.542  0.0504  0.3841 -0.1816
   92SOL    HW1  366   1.573   0.998   0.604  0.1311 -0.6456 -1.3122
   92SOL    HW2  367   1.614   1.026   0.476 -1.3047 -0.9153 -0.8156
   92SOL     MW  368   1.620   0.972   0.542 -0.1178  0.0768 -0.4144
   93SOL     OW  369   1.049   0.288   0.348 -0.1413  0.2026  0.3831
   93SOL    HW1  370   0.966   0.328   0.375  0.7718  1.3674 -0.4296
   93SOL    HW2  371   1.065   0.338   0.262  3.1997 -0.0737 -0.2619
   93SOL     MW  372   1.040   0.300   0.340  0.4200  0.3198  0.1907
   94SOL     OW  373   1.870   1.384   1.574  0.4692 -0.1813 -0.6802
   94SOL    HW1  374   1.840   1.405   1.484 -2.7543  1.1721  3.2905
   94SOL    HW2  375   1.843   1.290   1.587  0.8112 -1.2533  2.3685
   94SOL     MW  376   1.863   1.374   1.564  0.0890 -0.1441  0.2460
   95SOL     OW  377   0.584   1.548   0.909  0.0514 -0.2020  0.2332
   95SOL    HW1  378   0.650   1.503   0.957 -2.2326  4.1847 -0.8267
   95SOL    HW2  379   0.528   1.478   0.870  2.2079 -2.1740  2.1696
   95SOL     MW  380   0.586   1.533   0.910  0.0346  0.1166  0.3488
   96SOL     OW  381   1.345   1.850   1.666  0.4668  0.1672  0.9986
   96SOL    HW1  382   1.270   1.847   1.728 -2.0753 -0.3010  0.2582
   96SOL    HW2  383   1.356   1.753   1.650  0.5767  0.4256 -2.4044
   96SOL     MW  384   1.337   1.837   1.672  0.1459  0.1395  0.4519
   97SOL     OW  385   1.086   1.547   0.846  0.0995  0.5724 -0.4253
   97SOL    HW1  386   1.141   1.604   0.905  1.7457  0.8890 -0.7063
   97SOL    HW2  387   0.998   1.554   0.877  0.2798  0.9921 -1.5473
   97SOL     MW  388   1.082   1.555   0.858  0.3405  0.6696 -0.6104
   98SOL     OW  389   1.336   1.408   1.175 -0.3092  0.1633 -0.0061
   98SOL    HW1  390   1.415   1.432   1.232  1.8809 -1.4359  0.7480
   98SOL    HW2  391   1.367   1.421   1.084 -1.5902  0.4607 -1.4482
   98SOL     MW  392   1.351   1.413   1.171 -0.1892 -0.0085 -0.0969
   99SOL     OW  393   1.492   0.294   1.330  0.2720 -0.1369  0.4001
   99SOL    HW1  394   1.529   0.386   1.315 -1.6505 -3.7132 -2.2285
   99SOL    HW2  395   1.429   0.306   1.403 -1.1839  3.5529  2.9758
   99SOL     MW  396   1.489   0.308   1.338 -0.1738 -0.1219  0.3931
  100SOL     OW  397   1.072   1.137   1.379 -0.3684 -0.4889  0.0436
  100SOL    HW1  398   1.044   1.172   1.461  0.3407 -1.3439  0.9135
  100SOL    HW2  399   1.093   1.040   1.396  0.8791 -1.6801 -2.6563
  100SOL     MW  400   1.071   1.129   1.392 -0.1102 -0.7589 -0.1978
  101SOL     OW  401   0.551   1.210   0.417  0.0169 -0.1057 -0.2024
  101SOL    HW1  402   0.475   1.180   0.353 -2.2760  1.4471 -1.3082
  101SOL    HW2  403   0.637   1.204   0.370  0.0796  2.8385  1.4149
  101SOL     MW  404   0.553   1.205   0.402 -0.2773  0.4876 -0.1349
  102SOL     OW  405   2.942   0.643   1.098  0.5981 -0.0633  0.1794
  102SOL    HW1  406   2.977   0.727   1.084 -0.4286 -0.5935 -1.2260
  102SOL    HW2  407   2.912   0.637   1.192  1.8334  0.3848  3.6416
  102SOL     MW  408   2.943   0.653   1.109  0.6257 -0.0741  0.4508
  103SOL     OW  409   1.856   0.271   1.799 -0.2095  0.4731 -0.4180
  103SOL    HW1  410   1.853   0.176   1.787  0.3508  3.1484 -1.5826
  103SOL    HW2  411   1.849   0.280   1.898  1.5334 -0.2760 -0.1783
  103SOL     MW  412   1.855   0.260   1.810  0.0944  0.7272 -0.5401
  104SOL     OW  413   0.060   1.523   1.656 -0.9200  0.4291  0.1524
  104SOL    HW1  414   0.119   1.441   1.684 -0.2951 -1.2905  0.5219
  104SOL    HW2  415  -0.030   1.509   1.680  1.1102 -0.3014 -1.1716
  104SOL     MW  416   0.056   1.510   1.663 -0.5697  0.1058  0.0265
  105SOL     OW  417   3.092   1.226   0.397  0.5360 -0.1819 -0.1173
  105SOL    HW1  418   3.160   1.158   0.395  1.2385  2.4432  1.8560
  105SOL    HW2  419   3.142   1.307   0.407 -0.3763 -1.7309 -2.5653
  105SOL     MW  420   3.107   1.228   0.398  0.5083 -0.0399 -0.1799
  106SOL     OW  421   0.787   0.320   0.824 -0.2223 -0.9192 -0.2091
  106SOL    HW1  422   0.704   0.352   0.867 -1.0586 -1.3898  1.3543
  106SOL    HW2  423   0.861   0.363   0.869  0.4184 -2.0210 -2.2664
  106SOL     MW  424   0.786   0.330   0.836 -0.2481 -1.1267 -0.2743
  107SOL     OW  425   0.822   2.202   2.882  0.1837  0.5670  0.0666
  107SOL    HW1  426   0.736   2.212   2.848  2.9348 -0.9501 -0.0750
  107SOL    HW2  427   0.812   2.165   2.974 -1.7809  2.7909  1.3381
  107SOL     MW  428   0.809   2.199   2.889  0.2875  0.6603  0.2157
  108SOL     OW  429   1.373   1.585   1.644 -0.2577 -0.1438 -0.3668
  108SOL    HW1  430   1.331   1.553   1.564 -0.9741  0.4602  2.0988
  108SOL    HW2  431   1.451   1.531   1.644  3.6338 -2.5078  1.3712
  108SOL     MW  432   1.377   1.574   1.633  0.1612 -0.3760  0.1878
  109SOL     OW  433   2.023   0.760   0.310 -0.1935 -0.3753  0.8975
  109SOL    HW1  434   2.023   0.861   0.319  0.2615  1.6855  0.1129
  109SOL    HW2  435   2.071   0.721   0.384 -0.6265  0.7063  1.6266
  109SOL     MW  436   2.030   0.768   0.321 -0.1906  0.0393  0.8902
  110SOL     OW  437   0.430   1.909   0.736 -0.3966 -0.0846  0.3371
  110SOL    HW1  438   0.481   1.833   0.712 -1.8278 -0.1084 -0.4004
  110SOL    HW2  439   0.474   1.975   0.676 -0.5820 -0.1934 -0.5830
  110SOL     MW  440   0.442   1.908   0.725 -0.6099 -0.1021  0.1184
  111SOL     OW  441   0.849   0.876   1.372  0.1611 -0.8336 -0.1952
  111SOL    HW1  442   0.805   0.864   1.290 -0.6333 -0.9680  1.0322
  111SOL    HW2  443   0.826   0.790   1.409  1.8641 -2.6960  0.1557
  111SOL     MW  444   0.840   0.863   1.366  0.2810 -1.0970  0.0130
  112SOL     OW  445   1.404   1.099   1.579 -0.0820  0.1767  0.2659
  112SOL    HW1  446   1.329   1.162   1.583  1.1916  0.6006  1.8419
  112SOL    HW2  447   1.353   1.021   1.590 -0.3412 -0.0161  2.0773
  112SOL     MW  448   1.388   1.097   1.581  0.0518  0.2072  0.7128
  113SOL     OW  449   1.212   3.015   1.701  0.3016 -0.5268  0.5613
  113SOL    HW1  450   1.182   2.974   1.783 -1.8803  0.0137  0.5150
  113SOL    HW2  451   1.196   2.955   1.630  3.1961 -0.9947  3.1140
  113SOL     MW  452   1.206   3.002   1.703  0.3956 -0.5172  0.8920
  114SOL     OW  453   0.275   2.868   1.796  0.7678 -0.0650 -0.9212
  114SOL    HW1  454   0.351   2.933   1.817  1.3426 -0.2357 -0.0901
  114SOL    HW2  455   0.196   2.902   1.835  1.2495 -2.1862 -0.7860
  114SOL     MW  456   0.275   2.881   1.804  0.9072 -0.3674 -0.7937
  115SOL     OW  457   0.514   0.837   1.190 -0.0948  0.3138  0.1795
  115SOL    HW1  458   0.503   0.748   1.217 -0.0994  0.5182  0.3992
  115SOL    HW2  459   0.434   0.889   1.232 -1.8089  0.3414  2.1388
  115SOL     MW  460   0.502   0.832   1.199 -0.3216  0.3444  0.4670
  116SOL     OW  461   0.723   1.117   0.964 -0.3515  0.2212  0.0257
  116SOL    HW1  462   0.778   1.133   0.878 -1.9768 -2.2011 -2.8502
  116SOL    HW2  463   0.758   1.176   1.031 -1.2578  0.4771 -2.6162
  116SOL     MW  464   0.735   1.127   0.961 -0.6856 -0.0647 -0.7023
  117SOL     OW  465   1.123   1.267   0.813  0.0918  0.5074 -0.1214
  117SOL    HW1  466   1.139   1.216   0.888  1.4543  1.1889 -1.4089
  117SOL    HW2  467   1.121   1.368   0.823  0.1346  0.1529 -2.4102
  117SOL     MW  468   1.125   1.274   0.824  0.2772  0.5506 -0.5933
  118SOL     OW  469   3.014   2.944   1.787  0.7498 -0.2075  0.8747
  118SOL    HW1  470   3.050   3.024   1.825 -1.6225 -1.8370  3.0563
  118SOL    HW2  471   2.922   2.966   1.761 -0.9178  1.8420 -2.5521
  118SOL     MW  472   3.007   2.958   1.789  0.2168 -0.1521  0.7104
  119SOL     OW  473   0.364   1.538   1.239 -0.3208  0.2646 -0.6151
  119SOL    HW1  474   0.408   1.588   1.168  1.8480 -1.2587  1.3541
  119SOL    HW2  475   0.268   1.532   1.222  0.0539  2.7264  2.9740
  119SOL     MW  476   0.357   1.544   1.227  0.0148  0.3885  0.1182
  120SOL     OW  477   0.265   0.816   0.993  0.2336  0.6842  0.2874
  120SOL    HW1  478   0.339   0.763   1.015 -0.9328 -0.5849 -0.4667
  120SOL    HW2  479   0.296   0.888   0.942  2.4020  0.0582  0.0479
  120SOL     MW  480   0.279   0.818   0.989  0.3658  0.4341  0.1563
  121SOL     OW  481   1.770   1.134   1.614  0.1915  0.1238 -0.3535
  121SOL    HW1  482   1.718   1.125   1.535 -2.5073  1.4368  0.0309
  121SOL    HW2  483   1.839   1.073   1.605 -2.9639 -0.5083  1.6439
  121SOL     MW  484   1.772   1.125   1.602 -0.5809  0.2136 -0.0392
  122SOL     OW  485   0.120   0.617   0.847 -0.1457 -0.0823  0.0827
  122SOL    HW1  486   0.194   0.586   0.796  1.2989 -0.7688 -2.0821
  122SOL    HW2  487   0.151   0.687   0.899 -1.6632 -2.0720 -0.6807
  122SOL     MW  488   0.134   0.622   0.847 -0.1553 -0.4354 -0.3037
  123SOL     OW  489   1.872   1.098   0.533 -0.4603 -0.1508 -0.3337
  123SOL    HW1  490   1.784   1.085   0.565 -0.4855  1.2800 -0.4669
  123SOL    HW2  491   1.925   1.040   0.591  0.9993 -0.1241  0.5819
  123SOL     MW  492   1.867   1.089   0.545 -0.2711  0.0415 -0.2305
  124SOL     OW  493   0.580   0.445   0.966  0.7918 -0.1557 -0.0629
  124SOL    HW1  494   0.494   0.444   0.926  1.6671 -2.3353 -0.1466
  124SOL    HW2  495   0.621   0.532   0.953 -0.7982  1.1014 -1.0227
  124SOL     MW  496   0.574   0.457   0.959  0.6975 -0.2774 -0.2006
  125SOL     OW  497   0.684   1.736   1.788  0.2210 -0.1407 -0.2851
  125SOL    HW1  498   0.653   1.676   1.723 -1.4394  1.5399 -0.5038
  125SOL    HW2  499   0.613   1.808   1.782 -0.2996 -1.6300 -1.7103
  125SOL     MW  500   0.671   1.738   1.779 -0.0667 -0.1154 -0.5020
  126SOL     OW  501   2.141   1.521   1.912 -0.3196  0.5758 -0.1268
  126SOL    HW1  502   2.205   1.587   1.895 -1.4571  0.4584 -1.3660
  126SOL    HW2  503   2.199   1.442   1.916 -1.8797 -0.3508 -1.0398
  126SOL     MW  504   2.157   1.519   1.910 -0.6755  0.4380 -0.4108
  127SOL     OW  505   0.546   0.785   1.800 -0.3993  0.1742  0.1467
  127SOL    HW1  506   0.635   0.751   1.816  3.1653 -0.8050  0.8787
  127SOL    HW2  507   0.520   0.834   1.875  1.3583 -1.9110  0.0977
  127SOL     MW  508   0.554   0.787   1.812  0.3029 -0.2301  0.2368
  128SOL     OW  509   1.753   0.713   2.899 -0.3193 -0.3806  0.3692
  128SOL    HW1  510   1.803   0.711   2.816  2.5389 -0.8836 -3.2166
  128SOL    HW2  511   1.723   0.801   2.911  1.1618  0.0164  2.4044
  128SOL     MW  512   1.756   0.724   2.890  0.2532 -0.3946  0.1646
  129SOL     OW  513   1.577   0.901   0.186 -0.1089 -0.9759  0.0368
  129SOL    HW1  514   1.540   0.832   0.134  0.7460  1.8351 -1.3880
  129SOL    HW2  515   1.642   0.861   0.237 -1.9374 -1.9260 -0.6246
  129SOL     MW  516   1.580   0.887   0.186 -0.2374 -0.7304 -0.2385
  130SOL     OW  517   0.827   1.444   0.315 -0.0730  0.6170  0.1052
  130SOL    HW1  518   0.805   1.456   0.411 -1.6519  1.7915 -1.1725
  130SOL    HW2  519   0.917   1.487   0.315  3.6795  1.7794 -1.3065
  130SOL     MW  520   0.836   1.452   0.328  0.2138  0.9253 -0.2496
  131SOL     OW  521   0.052   0.788   0.080  0.2106  0.2991  0.5002
  131SOL    HW1  522   0.032   0.820  -0.009  2.9785 -0.1767  2.0023
  131SOL    HW2  523   0.133   0.743   0.069 -0.8792 -0.1239 -0.0763
  131SOL     MW  524   0.060   0.786   0.067  0.4320  0.1805  0.6223
  132SOL     OW  525   2.750   0.092   1.253  0.2974 -0.2908  0.0630
  132SOL    HW1  526   2.775   0.103   1.162  2.3566  1.2917 -2.8550
  132SOL    HW2  527   2.658   0.071   1.262 -1.5772  0.2551 -1.9779
  132SOL     MW  528   2.741   0.091   1.242  0.3217 -0.0100 -0.5912
  133SOL     OW  529   1.052   0.137   1.677 -0.5724  0.1542 -0.3334
  133SOL    HW1  530   1.122   0.068   1.677  1.3696 -0.1490  0.8772
  133SOL    HW2  531   1.045   0.167   1.768 -0.5132  1.7423 -2.2323
  133SOL     MW  532   1.060   0.131   1.689 -0.3084  0.3237 -0.4242
  134SOL     OW  533   1.417   2.442   1.485  0.0642  0.5654 -0.2217
  134SOL    HW1  534   1.371   2.515   1.450 -0.0116 -0.0888 -0.6105
  134SOL    HW2  535   1.470   2.474   1.563  0.8519  2.2619 -4.1179
  134SOL     MW  536   1.418   2.456   1.491  0.1581  0.7029 -0.7870
  135SOL     OW  537   3.012   0.991   2.977  0.6899 -0.3739 -0.3038
  135SOL    HW1  538   3.086   1.056   2.994 -1.3132  2.9504 -1.8942
  135SOL    HW2  539   2.946   1.049   2.930 -1.5012 -0.4685  1.6475
  135SOL     MW  540   3.013   1.007   2.973  0.1365  0.0522 -0.2562
  136SOL     OW  541   0.188   1.968   0.869  0.1102  0.0890  0.0459
  136SOL    HW1  542   0.110   1.927   0.831  2.9687  1.0610 -0.9128
  136SOL    HW2  543   0.263   1.946   0.814 -0.0970  1.9285  0.9616
  136SOL     MW  544   0.188   1.960   0.857  0.4600  0.4600  0.0402
  137SOL     OW  545   0.757   2.071   0.572  0.3880  0.5624  0.1734
  137SOL    HW1  546   0.791   2.077   0.665 -0.0407  2.5531  1.6012
  137SOL    HW2  547   0.661   2.099   0.574  1.1632 -0.4970  2.1433
  137SOL     MW  548   0.749   2.075   0.585  0.4337  0.6852  0.6217
  138SOL     OW  549   0.470   0.570   1.210 -0.0521  0.2824 -0.7322
  138SOL    HW1  550   0.387   0.522   1.225  1.8584  1.6676 -0.5568
  138SOL    HW2  551   0.517   0.531   1.134  0.0184 -0.4470 -1.9885
  138SOL     MW  552   0.465   0.559   1.202  0.2093  0.3689 -0.8748
  139SOL     OW  553   2.847   0.545   1.354 -0.1142 -0.2612  0.0935
  139SOL    HW1  554   2.918   0.481   1.331 -2.3307 -1.3423  0.7150
  139SOL    HW2  555   2.870   0.586   1.439  1.3461 -0.2734 -1.6850
  139SOL     MW  556   2.859   0.542   1.362 -0.2140 -0.4054 -0.0591
  140SOL     OW  557   0.870   0.443   1.975 -0.1660  0.1557  0.0312
  140SOL    HW1  558   0.937   0.373   1.977  1.0258 -0.8178 -0.0400
  140SOL    HW2  559   0.863   0.478   2.061 -0.8427 -0.8221 -0.1949
  140SOL     MW  560   0.878   0.438   1.987 -0.0980 -0.1017 -0.0080
  141SOL     OW  561   1.038   0.603   1.629  0.6760  0.0906  0.4971
  141SOL    HW1  562   1.056   0.512   1.607  0.1176  0.2615  0.6362
  141SOL    HW2  563   1.125   0.647   1.617 -1.0530  2.1116 -1.1034
  141SOL     MW  564   1.051   0.597   1.625  0.3742  0.3798  0.3043
  142SOL     OW  565   0.873   1.211   0.743 -0.1160 -0.2059  0.2686
  142SOL    HW1  566   0.883   1.139   0.680  0.9811  2.3733 -0.7776
  142SOL    HW2  567   0.965   1.225   0.759 -0.4801 -0.3203 -1.4118
  142SOL     MW  568   0.886   1.203   0.737 -0.0193  0.1193 -0.0911
  143SOL     OW  569   1.826   0.700   1.029 -0.1416  0.7525 -0.5865
  143SOL    HW1  570   1.856   0.685   0.941  3.0154 -1.9193  0.6185
  143SOL    HW2  571   1.735   0.670   1.027 -0.0905  2.4994  3.2910
  143SOL     MW  572   1.818   0.694   1.017  0.2817  0.6305  0.0841
  144SOL     OW  573   0.257   1.314   1.730  0.4652  0.2581 -0.0631
  144SOL    HW1  574   0.305   1.396   1.707  0.9207 -0.8332 -2.1264
  144SOL    HW2  575   0.311   1.268   1.797 -2.7493  0.3438 -0.8109
  144SOL     MW  576   0.271   1.319   1.736  0.1012  0.1254 -0.4340
  145SOL     OW  577   0.172   0.462   1.251  0.9142  0.6104  0.1261
  145SOL    HW1  578   0.215   0.373   1.265  1.6237  1.6984  1.8335
  145SOL    HW2  579   0.121   0.455   1.168 -1.9366  1.4375 -0.5443
  145SOL     MW  580   0.171   0.450   1.242  0.6317  0.8631  0.2629
  146SOL     OW  581   0.797   1.923   1.456 -0.4404  0.1949  0.7959
  146SOL    HW1  582   0.826   1.957   1.366 -1.1001  0.5606  0.4797
  146SOL    HW2  583   0.721   1.864   1.438 -1.1000 -1.8109  0.6726
  146SOL     MW  584   0.790   1.920   1.442 -0.6145 -0.0215  0.7379
  147SOL     OW  585   0.453   0.496   2.911  0.3478  0.5773 -0.1584
  147SOL    HW1  586   0.371   0.507   2.958 -0.8283  1.2629 -1.8041
  147SOL    HW2  587   0.445   0.557   2.839  1.5474 -1.8161 -1.0986
  147SOL     MW  588   0.442   0.505   2.908  0.3509  0.3520 -0.4996
  148SOL     OW  589   0.075   0.914   1.332 -0.3723  0.2526  0.8029
  148SOL    HW1  590   0.166   0.943   1.318  2.4091  1.6507  2.3638
  148SOL    HW2  591   0.019   0.989   1.323  2.2188  1.1318  1.0104
  148SOL     MW  592   0.079   0.928   1.329  0.3366  0.5530  1.0362
  149SOL     OW  593   1.595   1.166   1.399  0.4191  0.5208 -0.3337
  149SOL    HW1  594   1.521   1.151   1.459  3.2481  0.0243 -3.7029
  149SOL    HW2  595   1.598   1.256   1.371  0.5921 -0.6593 -0.8949
  149SOL     MW  596   1.586   1.176   1.404  0.8152  0.2996 -0.8523
  150SOL     OW  597   1.721   1.456   0.894 -0.1389  0.4145 -0.1798
  150SOL    HW1  598   1.787   1.386   0.908  2.0952  3.4011 -0.4338
  150SOL    HW2  599   1.774   1.535   0.876  1.7988 -0.7213  1.2474
  150SOL     MW  600   1.737   1.458   0.893  0.4115  0.6587 -0.0250
  151SOL     OW  601   1.659   1.896   0.823 -0.5429 -0.3890  0.1882
  151SOL    HW1  602   1.638   1.871   0.728  0.5542  0.4970  0.9346
  151SOL    HW2  603   1.585   1.858   0.870 -1.4329  1.1190 -0.9334
  151SOL     MW  604   1.646   1.888   0.817 -0.5156 -0.0731  0.1387
  152SOL     OW  605   0.654   1.410   1.565 -0.3236  0.5451 -0.0646
  152SOL    HW1  606   0.666   1.439   1.478  0.3344  0.0921  3.3051
  152SOL    HW2  607   0.596   1.333   1.556 -2.7000 -0.2089 -3.6705
  152SOL     MW  608   0.648   1.403   1.553 -0.5504  0.3858 -0.0958
  153SOL     OW  609   2.594   1.211   0.711  0.3237 -0.0551 -0.1777
  153SOL    HW1  610   2.671   1.171   0.670 -1.2200 -1.4763  2.4111
  153SOL    HW2  611   2.542   1.128   0.738  0.9468 -2.1178  1.9434
  153SOL     MW  612   2.597   1.194   0.709  0.2022 -0.5148  0.4437
  154SOL     OW  613   0.122   1.773   1.786  0.2747 -0.0523  0.2048
  154SOL    HW1  614   0.116   1.675   1.757 -1.5180  0.7644 -1.1775
  154SOL    HW2  615   0.211   1.788   1.806 -1.6769  1.2563 -3.0246
  154SOL     MW  616   0.133   1.762   1.784 -0.2194  0.2281 -0.4037
  155SOL     OW  617   1.222   0.721   0.267 -0.0133 -0.6876  0.1079
  155SOL    HW1  618   1.201   0.667   0.349  0.1664 -0.0002 -2.3935
  155SOL    HW2  619   1.196   0.810   0.299  1.1771  1.4365  0.8707
  155SOL     MW  620   1.216   0.725   0.282  0.1675 -0.3166 -0.1215
  156SOL     OW  621   1.547   0.005   1.092  0.2983  0.2342  0.2199
  156SOL    HW1  622   1.619   0.036   1.140 -1.3736  1.0634 -0.6064
  156SOL    HW2  623   1.573  -0.081   1.066  0.7570 -0.0402  1.2366
  156SOL     MW  624   1.560  -0.002   1.095  0.1382  0.3074  0.2451
  157SOL     OW  625   1.332   1.163   0.167  0.1949 -0.7303  0.2212
  157SOL    HW1  626   1.331   1.090   0.230 -1.2168 -0.5649  3.7834
  157SOL    HW2  627   1.420   1.193   0.169 -2.0861 -0.5195  1.6681
  157SOL     MW  628   1.344   1.157   0.176 -0.2923 -0.6807  0.8821
  158SOL     OW  629   0.422   1.667   2.241 -0.2197  0.3948 -0.5713
  158SOL    HW1  630   0.461   1.731   2.180 -0.8172  2.3927 -0.8299
  158SOL    HW2  631   0.332   1.669   2.212 -0.9973 -1.4540 -0.8863
  158SOL     MW  632   0.415   1.676   2.229 -0.4011  0.4145 -0.6470
  159SOL     OW  633   1.197   1.624   0.549  0.4586  0.0038  0.3633
  159SOL    HW1  634   1.145   1.604   0.468  0.8885 -0.9649  0.1238
  159SOL    HW2  635   1.132   1.670   0.606 -0.4657  0.4960  1.7931
  159SOL     MW  636   1.182   1.628   0.546  0.3933 -0.0591  0.5203
  160SOL     OW  637   0.513   1.174   1.544  0.0684 -0.1171 -0.4065
  160SOL    HW1  638   0.456   1.105   1.593  1.1796 -0.8530 -1.7020
  160SOL    HW2  639   0.597   1.132   1.517 -2.1595 -1.8878 -3.0814
  160SOL     MW  640   0.516   1.159   1.547 -0.0789 -0.4478 -0.9304
  161SOL     OW  641   0.426   2.240   2.665  0.5945 -0.1289  0.8322
  161SOL    HW1  642   0.347   2.280   2.621 -2.4113  1.1035 -1.7494
  161SOL    HW2  643   0.457   2.159   2.617 -0.0827  0.1927  2.4920
  161SOL     MW  644   0.420   2.234   2.653  0.1086  0.0762  0.7106
  162SOL     OW  645   1.063   1.820   1.794  0.1135 -0.0215  0.0096
  162SOL    HW1  646   1.060   1.908   1.831  0.2202 -2.3851 -1.1225
  162SOL    HW2  647   0.995   1.775   1.841  1.9488  1.3590  2.5546
  162SOL     MW  648   1.054   1.825   1.805  0.3697 -0.1512  0.1960
  163SOL     OW  649   2.113   3.098   0.838  0.0388 -0.0267  0.1606
  163SOL    HW1  650   2.115   3.163   0.770  1.8340 -0.5398 -0.7729
  163SOL    HW2  651   2.057   3.023   0.795 -0.5332  0.0743 -2.2156
  163SOL     MW  652   2.106   3.097   0.823  0.2002 -0.0810 -0.2761
  164SOL     OW  653   0.286   0.226   0.810 -0.2989  0.2413  0.3969
  164SOL    HW1  654   0.194   0.221   0.839  0.8053  1.7670  1.4765
  164SOL    HW2  655   0.304   0.143   0.768 -2.5317  1.7384 -0.3819
  164SOL     MW  656   0.276   0.215   0.808 -0.4478  0.6402  0.4366
  165SOL     OW  657   1.209   1.304   0.374 -0.3524  0.4793  0.7679
  165SOL    HW1  658   1.251   1.273   0.462  0.4548  0.2224  0.3874
  165SOL    HW2  659   1.258   1.258   0.298 -0.2363  0.7297  1.9509
  165SOL     MW  660   1.221   1.294   0.375 -0.2306  0.4785  0.8738
  166SOL     OW  661   0.469   1.171   1.036 -0.7987 -0.0658  0.8690
  166SOL    HW1  662   0.476   1.216   1.127  2.1474  2.8083 -1.8236
  166SOL    HW2  663   0.564   1.152   1.013  0.5312  4.5615 -1.0346
  166SOL     MW  664   0.483   1.174   1.045 -0.2346  0.9239  0.2625
  167SOL     OW  665   0.804   1.177   0.314 -0.2206 -0.4475  0.5531
  167SOL    HW1  666   0.824   1.269   0.293 -0.6259  1.4921  2.0825
  167SOL    HW2  667   0.870   1.137   0.253  1.8769  0.0153 -1.3684
  167SOL     MW  668   0.815   1.184   0.303  0.0027 -0.1305  0.5014
  168SOL     OW  669   1.717   1.625   3.041 -0.1025  0.2332 -0.0683
  168SOL    HW1  670   1.649   1.686   3.004  0.5108  0.5890 -0.9351
  168SOL    HW2  671   1.693   1.539   3.005 -3.1595 -0.1345 -0.0310
  168SOL     MW  672   1.705   1.622   3.031 -0.4250  0.2316 -0.1777
  169SOL     OW  673   0.327   0.999   1.323  0.3053 -0.5802 -0.4878
  169SOL    HW1  674   0.346   0.988   1.413  1.7684  0.2330 -2.2395
  169SOL    HW2  675   0.340   1.091   1.296 -0.1213 -0.6706  0.4997
  169SOL     MW  676   0.332   1.010   1.331  0.4421 -0.4848 -0.5886
  170SOL     OW  677   1.130   1.511   1.465 -0.3535  0.2776 -0.0708
  170SOL    HW1  678   1.117   1.609   1.467  0.4789  0.5442 -2.1159
  170SOL    HW2  679   1.128   1.486   1.374  1.9721 -2.9882  1.9654
  170SOL     MW  680   1.128   1.521   1.453  0.0631 -0.1181 -0.0720
  171SOL     OW  681   0.503   1.448   0.560  0.0914 -0.0155  0.6811
  171SOL    HW1  682   0.478   1.519   0.512  2.1447 -0.7582  1.1894
  171SOL    HW2  683   0.521   1.360   0.504 -1.2360 -4.0019 -0.4615
  171SOL     MW  684   0.502   1.446   0.546  0.1872 -0.6395  0.5974
  172SOL     OW  685   0.762   0.289   1.260 -0.1670 -0.1921 -0.4892
  172SOL    HW1  686   0.769   0.229   1.184 -3.1199  0.6135  0.6285
  172SOL    HW2  687   0.792   0.226   1.328  1.6737 -2.3820  1.7421
  172SOL     MW  688   0.767   0.273   1.259 -0.3137 -0.3747 -0.0473
  173SOL     OW  689   0.565   1.706   0.327  0.1427 -0.6844 -0.1083
  173SOL    HW1  690   0.578   1.635   0.270  1.5356  0.3651  2.5281
  173SOL    HW2  691   0.635   1.702   0.392 -3.0256 -1.3691  0.7880
  173SOL     MW  692   0.576   1.696   0.328 -0.0916 -0.6362  0.3578
  174SOL     OW  693   1.910   0.883   1.496  0.7154  0.9922 -0.1894
  174SOL    HW1  694   1.823   0.841   1.508  2.4578 -0.9691  0.5571
  174SOL    HW2  695   1.918   0.890   1.399  0.4312  0.5710  0.7928
  174SOL     MW  696   1.900   0.878   1.485  0.9078  0.6779  0.0387
  175SOL     OW  697   0.580   1.482   0.172  0.2558  0.1562  0.9516
  175SOL    HW1  698   0.502   1.430   0.154 -0.1254  0.3922  1.0698
  175SOL    HW2  699   0.646   1.427   0.207 -2.2929  0.5180 -2.7421
  175SOL     MW  700   0.578   1.468   0.175 -0.1308  0.2351  0.4798
  176SOL     OW  701   0.111   1.505   1.188 -0.1287  0.5601 -0.0041
  176SOL    HW1  702   0.123   1.426   1.130  0.2056 -1.1405 -2.4772
  176SOL    HW2  703   0.025   1.489   1.224 -0.8292  0.8654 -2.2736
  176SOL     MW  704   0.102   1.493   1.185 -0.1770  0.3760 -0.6298
  177SOL     OW  705   0.501   0.322   1.428  0.1250 -0.2451  0.5250
  177SOL    HW1  706   0.539   0.358   1.347  1.2018 -1.9200  0.2545
  177SOL    HW2  707   0.484   0.401   1.486 -3.2281 -2.4243 -1.9829
  177SOL     MW  708   0.504   0.337   1.425 -0.1753 -0.7536  0.1584
  178SOL     OW  709   3.059   0.512   3.018 -0.2408  0.4912  0.0704
  178SOL    HW1  710   2.999   0.471   3.074 -1.4743 -1.9017  1.5719
  178SOL    HW2  711   3.028   0.474   2.929  1.2258  0.4152 -3.4029
  178SOL     MW  712   3.047   0.502   3.013 -0.2100  0.1655 -0.1898
  179SOL     OW  713   1.540   1.471   1.361  0.6285  0.0679  1.1827
  179SOL    HW1  714   1.566   1.461   1.450 -0.0781  0.2012  2.0871
  179SOL    HW2  715   1.627   1.470   1.313 -1.2102  2.0599  1.8642
  179SOL     MW  716   1.555   1.469   1.366  0.2927  0.3483  1.3920
  180SOL     OW  717   0.008   0.277   0.421 -0.0292 -0.6064 -0.1653
  180SOL    HW1  718  -0.070   0.298   0.370 -0.4325  0.1713 -4.1927
  180SOL    HW2  719   0.056   0.361   0.423  0.7970  2.0464 -0.0483
  180SOL     MW  720   0.004   0.291   0.415  0.0266 -0.1538 -0.6812
  181SOL     OW  721   1.076   1.304   3.093 -0.2679  0.6611  0.0591
  181SOL    HW1  722   1.153   1.349   3.129 -2.1042 -0.9893  1.8728
  181SOL    HW2  723   1.099   1.265   3.004 -2.1216  0.6010  0.8401
  181SOL     MW  724   1.089   1.305   3.086 -0.7547  0.4354  0.4014
  182SOL     OW  725   0.375   0.945   1.617 -0.1479 -0.8610 -0.5758
  182SOL    HW1  726   0.291   0.926   1.657  3.3394  1.3656 -0.4491
  182SOL    HW2  727   0.428   0.904   1.686 -1.6232  1.1699  1.0920
  182SOL     MW  728   0.371   0.937   1.631  0.1176 -0.2993 -0.3390
  183SOL     OW  729   1.575   1.765   1.289 -0.0836  0.2084 -0.1496
  183SOL    HW1  730   1.672   1.772   1.311 -0.5859 -0.9372 -0.6869
  183SOL    HW2  731   1.550   1.678   1.314  1.7901  0.2074 -0.8311
  183SOL     MW  732   1.584   1.754   1.295  0.0973  0.0571 -0.3104
  184SOL     OW  733   0.811   0.704   1.775  0.2131 -0.5902 -0.0329
  184SOL    HW1  734   0.897   0.696   1.727 -0.3724 -2.9533 -2.5796
  184SOL    HW2  735   0.806   0.617   1.821 -0.3340 -0.6805  1.5145
  184SOL     MW  736   0.822   0.691   1.774  0.0636 -0.9139 -0.1647
  185SOL     OW  737   1.134   0.959   1.876  0.2235  0.1276  0.4559
  185SOL    HW1  738   1.103   0.877   1.923  2.3910 -0.2009  2.6113
  185SOL    HW2  739   1.178   1.011   1.950 -2.2777 -0.9044  3.5478
  185SOL     MW  740   1.136   0.955   1.892  0.1795 -0.0519  1.1482
  186SOL     OW  741   0.271   1.616   1.513 -0.1028  0.3891  0.5798
  186SOL    HW1  742   0.274   1.603   1.420 -1.8533 -2.9273  0.3588
  186SOL    HW2  743   0.176   1.605   1.536 -1.3079  0.4296 -0.3089
  186SOL     MW  744   0.259   1.613   1.504 -0.4928 -0.0432  0.4334
  187SOL     OW  745   1.400   0.766   1.386 -0.7341  0.5636 -0.0494
  187SOL    HW1  746   1.424   0.757   1.478  0.0217  0.2844  0.5025
  187SOL    HW2  747   1.303   0.762   1.372 -0.8190 -0.7192 -1.6870
  187SOL     MW  748   1.390   0.765   1.396 -0.6455  0.3575 -0.1926
  188SOL     OW  749   1.898   1.208   0.891 -0.1035  0.5867  0.5959
  188SOL    HW1  750   1.914   1.171   0.981 -1.3576 -0.7579  2.8199
  188SOL    HW2  751   1.951   1.152   0.834  0.8098  2.9345  1.1305
  188SOL     MW  752   1.907   1.196   0.895 -0.1484  0.7191  0.9599
  189SOL     OW  753   0.693   0.710   0.874  0.3265 -0.3402  0.2009
  189SOL    HW1  754   0.610   0.756   0.885  2.8309 -0.1710  0.6097
  189SOL    HW2  755   0.755   0.747   0.935 -2.7167  0.9030  1.8836
  189SOL     MW  756   0.690   0.721   0.884  0.2554 -0.1539  0.4769
  190SOL     OW  757   1.854   0.305   2.077 -0.5039 -0.0372 -0.4661
  190SOL    HW1  758   1.840   0.242   2.156 -1.0663  0.7628  0.2871
  190SOL    HW2  759   1.943   0.342   2.103  2.4808 -0.4418 -1.0134
  190SOL     MW  760   1.864   0.301   2.091 -0.1843  0.0150 -0.4389
  191SOL     OW  761   1.567   0.959   1.215  0.2682 -0.2766 -0.4473
  191SOL    HW1  762   1.578   1.022   1.285  2.1641 -2.4501 -1.1694
  191SOL    HW2  763   1.508   0.895   1.257  0.4992  1.3707  1.5272
  191SOL     MW  764   1.560   0.959   1.230  0.5488 -0.3461 -0.2821
  192SOL     OW  765   0.512   2.192   2.918 -0.5506 -0.3007  0.7876
  192SOL    HW1  766   0.472   2.219   2.835  0.4412  1.7840 -0.0919
  192SOL    HW2  767   0.509   2.104   2.892  1.0057  1.5285 -0.0641
  192SOL     MW  768   0.506   2.184   2.904 -0.2144  0.2157  0.5592
  193SOL     OW  769   0.814   1.637   0.794  0.4992 -0.4901 -0.5316
  193SOL    HW1  770   0.720   1.626   0.835 -3.3543  0.3708  2.0949
  193SOL    HW2  771   0.828   1.555   0.742  0.3349  0.3171  4.9673
  193SOL     MW  772   0.804   1.625   0.793 -0.0309 -0.2700  0.5404
  194SOL     OW  773   0.455   1.332   0.839 -0.6267  0.6908 -0.2615
  194SOL    HW1  774   0.454   1.264   0.918  1.9952 -0.8838  0.4066
  194SOL    HW2  775   0.365   1.335   0.800 -1.4407  1.1082 -0.2779
  194SOL     MW  776   0.443   1.324   0.845 -0.3882  0.5381 -0.1755
  195SOL     OW  777   1.247   1.086   3.003 -0.6548  0.1594  0.3965
  195SOL    HW1  778   1.259   1.126   3.087 -1.5705  2.4758 -0.3430
  195SOL    HW2  779   1.185   1.016   3.013  0.9215 -1.4716 -0.6098
  195SOL     MW  780   1.241   1.082   3.015 -0.5676  0.2498  0.1661
  196SOL     OW  781   2.245   1.015   0.555 -0.4382 -0.0584 -0.9239
  196SOL    HW1  782   2.286   1.005   0.475  0.7200 -0.0365  1.5148
  196SOL    HW2  783   2.232   1.112   0.564 -1.3798 -0.7773 -4.4916
  196SOL     MW  784   2.249   1.027   0.546 -0.4096 -0.1504 -1.0728
  197SOL     OW  785   0.605   1.347   2.175 -0.1232 -0.2964 -0.4989
  197SOL    HW1  786   0.628   1.267   2.126  1.0848 -0.6739 -1.2684
  197SOL    HW2  787   0.670   1.411   2.144 -2.2762 -1.0701 -0.2561
  197SOL     MW  788   0.617   1.345   2.164 -0.2479 -0.4483 -0.5684
  198SOL     OW  789   2.935   1.425   0.989  0.2245 -0.6578  0.7057
  198SOL    HW1  790   2.953   1.505   0.945 -1.2687 -0.0178 -1.4287
  198SOL    HW2  791   2.864   1.375   0.952 -0.7888  0.5702  1.5607
  198SOL     MW  792   2.928   1.429   0.978 -0.1062 -0.4113  0.5369
  199SOL     OW  793   0.658   1.278   1.832 -0.3834 -0.5630 -0.0050
  199SOL    HW1  794   0.568   1.264   1.872 -1.6856 -0.8961  2.0180
  199SOL    HW2  795   0.640   1.344   1.763  1.2274  1.2178  3.0460
  199SOL     MW  796   0.643   1.285   1.828 -0.3427 -0.3720  0.6645
  200SOL     OW  797   1.834   2.945   1.298 -0.2138  0.5606 -0.3854
  200SOL    HW1  798   1.907   2.971   1.237  2.6091  0.9250 -2.7606
  200SOL    HW2  799   1.763   3.006   1.270  3.4884 -1.7296  1.6249
  200SOL     MW  800   1.834   2.956   1.286  0.6471  0.3065 -0.4335
  201SOL     OW  801   1.190   0.314   0.821  0.1227 -0.4090  0.3556
  201SOL    HW1  802   1.150   0.224   0.816  1.7389 -0.4081  2.5234
  201SOL    HW2  803   1.287   0.311   0.809  0.8930 -3.8836 -1.6134
  201SOL     MW  804   1.197   0.302   0.819  0.4376 -0.8673  0.3818
  202SOL     OW  805   1.504   1.716   0.983 -0.0752 -0.6216  0.2810
  202SOL    HW1  806   1.486   1.622   0.977  2.1264  2.2977  0.5127
  202SOL    HW2  807   1.502   1.739   1.073 -1.1056  1.0507  1.2998
  202SOL     MW  808   1.502   1.707   0.994  0.0793 -0.0158  0.4460
  203SOL     OW  809   3.016   0.344   1.303  0.0925 -0.0504 -0.2045
  203SOL    HW1  810   3.038   0.271   1.363 -0.8085 -3.0933  1.7704
  203SOL    HW2  811   3.104   0.364   1.272  2.3802  0.7666  0.8882
  203SOL     MW  812   3.030   0.337   1.307  0.2754 -0.3441  0.2002
  204SOL     OW  813   1.003   1.808   0.665 -0.5366  0.2754  0.2996
  204SOL    HW1  814   0.977   1.738   0.729 -1.8878 -1.1819 -0.5633
  204SOL    HW2  815   0.924   1.831   0.622  1.1258  2.2036  0.1492
  204SOL     MW  816   0.989   1.802   0.668 -0.4955  0.3375  0.1659
  205SOL     OW  817   1.407   3.030   1.314  0.5549  0.0584  0.1320
  205SOL    HW1  818   1.440   3.071   1.232 -0.9420  1.5272 -0.2562
  205SOL    HW2  819   1.355   3.099   1.354  0.4243 -0.6510  0.5650
  205SOL     MW  820   1.404   3.044   1.308  0.3402  0.1586  0.1379
  206SOL     OW  821   0.391   2.940   1.340 -0.1581 -0.3507 -0.0815
  206SOL    HW1  822   0.385   2.960   1.244 -0.6195 -4.3810 -1.2417
  206SOL    HW2  823   0.484   2.934   1.370  1.2404  0.2325  0.2410
  206SOL     MW  824   0.403   2.942   1.331 -0.0345 -0.8055 -0.1920
  207SOL     OW  825   0.873   1.759   0.215  0.5355 -0.4932  0.4327
  207SOL    HW1  826   0.912   1.834   0.173  0.1415 -1.6260  1.1109
  207SOL    HW2  827   0.932   1.688   0.211 -2.4275 -1.5445  2.7696
  207SOL     MW  828   0.886   1.759   0.209  0.0926 -0.7814  0.8305
  208SOL     OW  829   0.787   1.559   1.343  0.0404 -0.0647 -0.8245
  208SOL    HW1  830   0.881   1.558   1.361 -2.8006 -1.9179 -1.1469
  208SOL    HW2  831   0.789   1.541   1.251  3.6430 -1.0683 -2.4433
  208SOL     MW  832   0.800   1.557   1.333  0.1408 -0.4416 -1.0807
  209SOL     OW  833   1.580   0.503   2.840  1.0414 -0.5163 -0.2131
  209SOL    HW1  834   1.632   0.575   2.876  1.4043  0.8756  0.3055
  209SOL    HW2  835   1.644   0.432   2.812  1.4712  0.6919  0.2360
  209SOL     MW  836   1.596   0.503   2.841  1.1460 -0.1732 -0.0854
  210SOL     OW  837   1.466   1.461   0.953 -0.0001 -0.1882 -0.3448
  210SOL    HW1  838   1.556   1.434   0.931  2.1190 -1.0022 -0.2952
  210SOL    HW2  839   1.419   1.489   0.870 -1.8687  2.0674  0.8731
  210SOL     MW  840   1.472   1.461   0.939  0.0329  0.0020 -0.1775
  211SOL     OW  841   1.725   0.392   0.920  0.4982  0.9856 -0.6803
  211SOL    HW1  842   1.735   0.402   0.820 -2.4614  0.7897 -0.4713
  211SOL    HW2  843   1.805   0.385   0.965 -1.4350  0.1303 -0.1654
  211SOL     MW  844   1.737   0.392   0.913 -0.1474  0.8469 -0.5848
  212SOL     OW  845   0.354   1.143   0.230  0.3211 -0.2960  0.0623
  212SOL    HW1  846   0.293   1.071   0.251  0.7860  0.1385  0.7487
  212SOL    HW2  847   0.409   1.102   0.159  2.1303  2.1112  0.6929
  212SOL     MW  848   0.353   1.128   0.223  0.6211  0.0789  0.2361
  213SOL     OW  849   0.368   1.866   3.010 -0.1118 -0.2707 -0.3210
  213SOL    HW1  850   0.408   1.897   3.087  0.2399 -1.5615  1.3568
  213SOL    HW2  851   0.411   1.911   2.931  0.6131  1.2536 -2.1505
  213SOL     MW  852   0.379   1.876   3.010  0.0303 -0.2399 -0.3410
  214SOL     OW  853   0.590   0.322   2.118  0.0946  1.1032 -0.3636
  214SOL    HW1  854   0.526   0.381   2.145  1.2138 -2.9759  2.8167
  214SOL    HW2  855   0.595   0.306   2.023  0.2390 -0.0560  1.9564
  214SOL     MW  856   0.582   0.328   2.109  0.2613  0.4121  0.3621
  215SOL     OW  857   0.493   0.538   2.529  0.0083 -0.3330 -0.4033
  215SOL    HW1  858   0.454   0.597   2.465 -4.4868  0.1300 -2.0728
  215SOL    HW2  859   0.494   0.465   2.473  0.2284  1.1206 -0.8418
  215SOL     MW  860   0.488   0.536   2.513 -0.5558 -0.0801 -0.6814
  216SOL     OW  861   2.907   3.080   2.732 -0.4027 -0.3577  0.5079
  216SOL    HW1  862   2.841   3.058   2.798 -1.0029  1.5535 -0.2155
  216SOL    HW2  863   2.920   3.183   2.721 -1.3752  1.9075  1.0308
  216SOL     MW  864   2.900   3.091   2.739 -0.6102  0.1933  0.4815
  217SOL     OW  865   1.012   1.081   0.158  0.1987  0.0108 -0.5584
  217SOL    HW1  866   1.014   1.017   0.090 -1.9547  0.4319  1.0914
  217SOL    HW2  867   1.036   1.161   0.101  1.0606  0.0294 -0.3798
  217SOL     MW  868   1.015   1.083   0.142  0.0283  0.0688 -0.3172
  218SOL     OW  869   0.852   1.356   2.639  0.2796 -0.8477 -0.0021
  218SOL    HW1  870   0.816   1.307   2.716  1.5549 -1.6568 -0.9763
  218SOL    HW2  871   0.941   1.389   2.659 -0.2011 -1.7023 -0.8594
  218SOL     MW  872   0.859   1.354   2.652  0.3844 -1.0672 -0.2438
  219SOL     OW  873   1.046   0.425   2.611  0.0939  0.7740 -0.2613
  219SOL    HW1  874   1.109   0.494   2.628 -0.8231  1.9671 -0.2051
  219SOL    HW2  875   0.960   0.470   2.608  1.4409 -1.1536 -2.1770
  219SOL     MW  876   1.043   0.440   2.613  0.1507  0.6771 -0.5066
  220SOL     OW  877   1.728   0.514   2.175 -0.0353 -1.1977  0.2371
  220SOL    HW1  878   1.645   0.532   2.125 -0.8441 -1.4046  1.6899
  220SOL    HW2  879   1.763   0.438   2.128 -1.5641 -2.4217  0.7843
  220SOL     MW  880   1.722   0.507   2.162 -0.3437 -1.3865  0.5010
  221SOL     OW  881   0.378   1.360   2.935  0.4409  0.5466  0.0904
  221SOL    HW1  882   0.409   1.273   2.915 -2.1542  0.3138  3.6435
  221SOL    HW2  883   0.423   1.424   2.888  0.5404  0.7356  0.9351
  221SOL     MW  884   0.388   1.357   2.926  0.1116  0.5408  0.6707
  222SOL     OW  885   0.505   0.946   2.708  0.2263 -0.3422  0.3403
  222SOL    HW1  886   0.411   0.948   2.731 -0.5317  0.9603  1.9751
  222SOL    HW2  887   0.536   0.859   2.716  1.3068  1.1413 -1.5731
  222SOL     MW  888   0.497   0.935   2.712  0.2689  0.0254  0.3036
  223SOL     OW  889   3.099   2.029   2.523 -0.2022 -0.2078  0.2899
  223SOL    HW1  890   3.051   2.058   2.599  0.0533  0.2093 -1.2536
  223SOL    HW2  891   3.135   2.114   2.485 -1.3148  0.8517  0.3782
  223SOL     MW  892   3.097   2.044   2.528 -0.3153 -0.0130  0.0979
  224SOL     OW  893   1.448   0.697   2.446  0.2704 -0.3343 -0.4037
  224SOL    HW1  894   1.545   0.698   2.452 -0.2381  0.4788 -0.3096
  224SOL    HW2  895   1.438   0.779   2.489 -0.9226 -0.1342  0.3635
  224SOL     MW  896   1.459   0.708   2.453  0.0459 -0.2007 -0.2901
  225SOL     OW  897   2.936   1.469   2.296  0.4518  0.2812 -0.6906
  225SOL    HW1  898   2.965   1.549   2.254  1.6270 -0.8526 -2.2511
  225SOL    HW2  899   2.857   1.494   2.347  1.7717 -1.4938  0.9731
  225SOL     MW  900   2.929   1.483   2.297  0.7810 -0.1026 -0.6770
  226SOL     OW  901   0.427   1.510   2.694  0.1099  0.5553 -0.4444
  226SOL    HW1  902   0.518   1.529   2.673 -0.8645  1.7408 -1.2512
  226SOL    HW2  903   0.386   1.597   2.666  1.4699  2.9831 -2.5162
  226SOL     MW  904   0.434   1.524   2.687  0.1608  1.0320 -0.8242
  227SOL     OW  905   0.554   1.128   2.908  0.6120 -0.4249 -0.4061
  227SOL    HW1  906   0.639   1.159   2.890 -2.6373  0.2908 -1.7975
  227SOL    HW2  907   0.528   1.057   2.844 -0.1807 -0.0150  1.7763
  227SOL     MW  908   0.562   1.122   2.897  0.0787 -0.2764 -0.3017
  228SOL     OW  909   0.732   1.143   2.040 -0.0734 -0.0941  0.1425
  228SOL    HW1  910   0.726   1.199   1.962  0.4589 -1.1773  2.3271
  228SOL    HW2  911   0.810   1.175   2.088 -1.3143  1.8332  0.0249
  228SOL     MW  912   0.742   1.155   2.036 -0.1669  0.0173  0.4152
  229SOL     OW  913   0.241   0.550   3.094 -0.8289  0.5152  0.0453
  229SOL    HW1  914   0.148   0.551   3.077  3.1000 -0.0885  0.1602
  229SOL    HW2  915   0.244   0.469   3.150  0.6702 -1.8599  0.2350
  229SOL     MW  916   0.229   0.540   3.099 -0.1127  0.1222  0.0855
  230SOL     OW  917   1.780   1.353   2.030 -0.2820 -0.1390  0.3713
  230SOL    HW1  918   1.762   1.319   2.115  0.3222  2.1259 -1.0051
  230SOL    HW2  919   1.757   1.290   1.967 -3.3226  0.6186 -0.6555
  230SOL     MW  920   1.775   1.340   2.033 -0.6034  0.2598  0.0542
  231SOL     OW  921   2.711   1.230   2.256  0.5764  0.0655 -0.2244
  231SOL    HW1  922   2.755   1.311   2.244 -2.0736 -0.4572 -0.6408
  231SOL    HW2  923   2.650   1.243   2.184 -1.3516  4.4498 -0.9924
  231SOL     MW  924   2.709   1.242   2.245 -0.0276  0.5750 -0.3806
  232SOL     OW  925   2.290   0.867   1.927  0.1862  0.5099 -0.4042
  232SOL    HW1  926   2.216   0.908   1.878  0.1364 -0.0364  3.8805
  232SOL    HW2  927   2.262   0.848   2.016 -0.9471 -1.4257  0.2146
  232SOL     MW  928   2.276   0.870   1.933  0.0301  0.1824  0.2428
  233SOL     OW  929   2.115   0.424   2.084  0.1375  0.2325 -0.3119
  233SOL    HW1  930   2.180   0.363   2.058  1.3322 -1.9497  0.6132
  233SOL    HW2  931   2.148   0.467   2.168  0.8389  0.9054  3.0119
  233SOL     MW  932   2.128   0.422   2.092  0.3876  0.0333  0.2487
  234SOL     OW  933   0.229   1.060   2.651  0.3695  0.4042  0.2365
  234SOL    HW1  934   0.157   1.024   2.595  0.3886 -0.7153 -2.1535
  234SOL    HW2  935   0.256   1.144   2.602 -1.5808  0.1968 -1.5917
  234SOL     MW  936   0.223   1.066   2.637  0.1147  0.2291 -0.3200
  235SOL     OW  937   1.152   3.031   2.811  0.1837  0.4830 -0.3250
  235SOL    HW1  938   1.201   3.000   2.886 -0.0542 -0.1754  0.3484
  235SOL    HW2  939   1.119   3.119   2.839  5.4583  1.0717 -1.0849
  235SOL     MW  940   1.154   3.038   2.824  0.8482  0.4738 -0.3364
  236SOL     OW  941   2.947   0.623   0.215  0.0874 -0.0062 -0.2983
  236SOL    HW1  942   2.983   0.625   0.303 -0.2242 -1.5814  0.2353
  236SOL    HW2  943   2.995   0.673   0.152  0.4295 -0.1563  0.0284
  236SOL     MW  944   2.958   0.630   0.219  0.0914 -0.2338 -0.1848
  237SOL     OW  945   1.918   1.107   2.168  0.2047  0.0308 -0.3105
  237SOL    HW1  946   1.851   1.143   2.227 -0.7758  0.1031  1.4246
  237SOL    HW2  947   1.854   1.064   2.104 -0.7463  0.4671  0.6616
  237SOL     MW  948   1.901   1.106   2.168 -0.0501  0.0979  0.0467
  238SOL     OW  949   1.063   1.732   2.935 -0.4044  0.0151 -0.1086
  238SOL    HW1  950   1.022   1.643   2.921  1.9615 -1.6860  1.4100
  238SOL    HW2  951   1.148   1.712   2.901 -0.9109  0.1750  0.1792
  238SOL     MW  952   1.068   1.717   2.929 -0.1591 -0.1882  0.1298
  239SOL     OW  953   1.189   1.295   2.342  0.3425  0.3798  0.6578
  239SOL    HW1  954   1.114   1.296   2.280 -0.1268 -2.4741  0.6177
  239SOL    HW2  955   1.154   1.235   2.412  0.3167  1.1572 -1.9674
  239SOL     MW  956   1.175   1.287   2.343  0.2772  0.1058  0.3062
  240SOL     OW  957   0.568   0.865   2.262 -0.4779 -0.2138  0.7048
  240SOL    HW1  958   0.598   0.908   2.353  2.6613  2.2460  3.2892
  240SOL    HW2  959   0.653   0.848   2.224 -1.7002  3.2698 -1.5721
  240SOL     MW  960   0.583   0.868   2.269 -0.2250  0.5704  0.7453
  241SOL     OW  961   0.675   0.442   3.079  0.3427 -0.0874  0.5271
  241SOL    HW1  962   0.695   0.524   3.122 -0.8874 -0.7891 -0.0031
  241SOL    HW2  963   0.585   0.464   3.041  0.4082 -0.1635  0.5699
  241SOL     MW  964   0.666   0.456   3.079  0.1890 -0.1900  0.4628
  242SOL     OW  965   1.500   1.665   2.306 -0.3491 -0.3129 -0.1781
  242SOL    HW1  966   1.430   1.736   2.295 -2.0491  3.4912 -1.9330
  242SOL    HW2  967   1.465   1.597   2.248  0.2045  0.3136 -0.2576
  242SOL     MW  968   1.486   1.666   2.297 -0.5004  0.2717 -0.4201
  243SOL     OW  969   1.039   0.321   2.362 -0.0728  0.3868 -0.0042
  243SOL    HW1  970   1.118   0.260   2.368 -1.8240 -0.4975 -0.1045
  243SOL    HW2  971   1.035   0.367   2.445 -2.3700  1.9481 -0.5527
  243SOL     MW  972   1.049   0.319   2.374 -0.6069  0.4762 -0.0898
  244SOL     OW  973   0.134   0.741   2.373 -0.1231  0.1866  0.0736
  244SOL    HW1  974   0.127   0.834   2.400  1.5112 -2.1178  1.6925
  244SOL    HW2  975   0.224   0.735   2.350 -1.6580 -0.3648 -0.8713
  244SOL     MW  976   0.145   0.752   2.374 -0.1100 -0.1902  0.1625
  245SOL     OW  977   1.255   0.196   2.400 -0.1551  0.3658 -0.1902
  245SOL    HW1  978   1.328   0.178   2.333  0.9372  1.1814 -1.9748
  245SOL    HW2  979   1.260   0.123   2.470  0.1740 -1.4317 -0.6887
  245SOL     MW  980   1.266   0.184   2.400  0.0324  0.2362 -0.4915
  246SOL     OW  981   1.224   1.113   2.079 -0.4805  0.1930 -0.6624
  246SOL    HW1  982   1.139   1.133   2.127 -1.3601  3.8117  0.5698
  246SOL    HW2  983   1.293   1.092   2.147  0.0642 -0.4448  1.6289
  246SOL     MW  984   1.222   1.113   2.094 -0.5247  0.5863 -0.1975
  247SOL     OW  985   0.753   0.651   0.144 -0.0485  0.0931  0.4787
  247SOL    HW1  986   0.714   0.742   0.146  0.1060  1.4738 -0.2657
  247SOL    HW2  987   0.850   0.666   0.126 -0.6868 -0.5371  0.4390
  247SOL     MW  988   0.761   0.665   0.142 -0.1123  0.1921  0.3753
  248SOL     OW  989   0.289   1.305   2.552  0.4189  0.7941  0.4283
  248SOL    HW1  990   0.317   1.331   2.461 -1.6696 -1.7373  0.5903
  248SOL    HW2  991   0.326   1.373   2.605 -3.3793  1.1137 -0.2074
  248SOL     MW  992   0.298   1.317   2.547 -0.3578  0.5023  0.3658
  249SOL     OW  993   2.975   1.949   2.785  0.3563  0.3132  0.2588
  249SOL    HW1  994   2.914   1.885   2.747  1.9090  0.6565 -1.2525
  249SOL    HW2  995   3.040   1.893   2.825  2.2770  1.5320 -1.3360
  249SOL     MW  996   2.975   1.933   2.785  0.8146  0.5193 -0.1510
  250SOL     OW  997   2.226   0.808   2.190  0.0603 -0.2747 -0.3064
  250SOL    HW1  998   2.204   0.720   2.230 -0.3516 -6.0753  0.9255
  250SOL    HW2  999   2.150   0.870   2.197  0.4703  3.3092  1.5654
  250SOL     MW 1000   2.213   0.805   2.196  0.0600 -0.5671  0.1031
  251SOL     OW 1001   0.130   0.883   2.054  0.1312  0.3365 -0.4180
  251SOL    HW1 1002   0.086   0.800   2.090  0.1409 -1.0726 -0.4491
  251SOL    HW2 1003   0.113   0.887   1.962 -0.4255  0.6326  1.8068
  251SOL     MW 1004   0.122   0.873   2.047  0.0590  0.1896 -0.1286
  252SOL     OW 1005   1.695   0.976   2.858  0.6306  0.4611  0.3032
  252SOL    HW1 1006   1.694   1.036   2.934 -2.9884  0.1323  0.0137
  252SOL    HW2 1007   1.770   1.009   2.799  0.4573  0.3864 -1.1050
  252SOL     MW 1008   1.705   0.988   2.860  0.1302  0.4079  0.0792
  253SOL     OW 1009   1.171   1.724   2.480 -0.3501 -0.1348  0.6770
  253SOL    HW1 1010   1.127   1.676   2.409 -2.2140  1.3759 -0.6515
  253SOL    HW2 1011   1.094   1.754   2.535  2.4664  0.4301 -0.6297
  253SOL     MW 1012   1.155   1.722   2.478 -0.2244  0.1390  0.3293
  254SOL     OW 1013   0.963   1.137   2.220  0.4261 -0.1981 -0.6850
  254SOL    HW1 1014   0.914   1.051   2.218 -1.9869  1.1737  2.0332
  254SOL    HW2 1015   0.902   1.186   2.282 -1.0513  1.7972  0.0490
  254SOL     MW 1016   0.949   1.132   2.228 -0.0872  0.2462 -0.2295
  255SOL     OW 1017   0.841   2.568   2.126  0.0309 -0.6174  0.4983
  255SOL    HW1 1018   0.760   2.523   2.114  0.3047  2.9849  1.4145
  255SOL    HW2 1019   0.918   2.516   2.148 -2.9465  4.0495  1.4993
  255SOL     MW 1020   0.840   2.555   2.127 -0.3258  0.4736  0.7513
  256SOL     OW 1021   1.270   2.765   2.997  0.8369  0.2471  0.2982
  256SOL    HW1 1022   1.245   2.676   3.008  0.5670  0.8999 -1.5974
  256SOL    HW2 1023   1.361   2.758   2.956  2.1520  0.8077  0.3983
  256SOL     MW 1024   1.279   2.753   2.993  0.9748  0.4072  0.0613
  257SOL     OW 1025   0.037   1.876   0.115  0.4949  0.1568 -0.4461
  257SOL    HW1 1026   0.116   1.899   0.156 -0.5052 -1.3746  3.3839
  257SOL    HW2 1027   0.049   1.839   0.023  0.7244 -0.6347 -0.1298
  257SOL     MW 1028   0.049   1.874   0.108  0.3932 -0.1497  0.1009
  258SOL     OW 1029   0.671   1.000   2.483  0.0063  0.0318  0.2173
  258SOL    HW1 1030   0.691   1.086   2.455  3.4139 -1.0290  2.9769
  258SOL    HW2 1031   0.621   0.998   2.564 -0.0567 -0.0716  0.1147
  258SOL     MW 1032   0.667   1.011   2.490  0.4476 -0.1218  0.5678
  259SOL     OW 1033   0.839   0.468   2.239 -0.0297 -0.6325 -0.4901
  259SOL    HW1 1034   0.766   0.404   2.250 -0.7347 -2.5157 -0.7500
  259SOL    HW2 1035   0.916   0.429   2.281 -1.6361  0.4340  2.6813
  259SOL     MW 1036   0.840   0.455   2.246 -0.3347 -0.7402 -0.1060
  260SOL     OW 1037   0.646   0.152   1.592 -0.3296  0.2508  0.0678
  260SOL    HW1 1038   0.592   0.196   1.532  0.9486 -0.9154 -0.7476
  260SOL    HW2 1039   0.728   0.136   1.549  0.5106  0.1266  0.9615
  260SOL     MW 1040   0.650   0.156   1.579 -0.0501  0.0806  0.0781
  261SOL     OW 1041   1.049   0.728   1.982  0.2336  0.3908  0.1122
  261SOL    HW1 1042   1.092   0.699   2.059 -0.9906  2.1323 -2.0916
  261SOL    HW2 1043   1.010   0.650   1.942 -0.9419  0.0190 -1.6315
  261SOL     MW 1044   1.049   0.714   1.987 -0.0830  0.5715 -0.4086
  262SOL     OW 1045   1.145   0.369   0.105  0.0177 -0.8147  0.0851
  262SOL    HW1 1046   1.240   0.338   0.107 -0.0262 -3.4188 -0.5547
  262SOL    HW2 1047   1.104   0.315   0.035  0.8807  1.2875 -1.7709
  262SOL     MW 1048   1.152   0.358   0.096  0.1258 -0.8809 -0.2442
  263SOL     OW 1049   0.392   0.026   2.544  0.3527  0.2544 -0.4543
  263SOL    HW1 1050   0.303   0.047   2.561  2.6960 -1.6675  2.0767
  263SOL    HW2 1051   0.429   0.080   2.476 -1.0164  0.6872  2.4514
  263SOL     MW 1052   0.385   0.036   2.537  0.4812  0.0579  0.2630
  264SOL     OW 1053   1.536   1.481   1.905  0.2895  0.5659 -0.5631
  264SOL    HW1 1054   1.493   1.394   1.893 -2.9882  2.7076 -1.5773
  264SOL    HW2 1055   1.547   1.484   1.996  0.1115  0.7981 -0.3373
  264SOL     MW 1056   1.532   1.470   1.915 -0.1665  0.8791 -0.6671
  265SOL     OW 1057   0.721   2.833   2.287  0.2224 -0.0624  0.4948
  265SOL    HW1 1058   0.810   2.847   2.253 -1.4707 -0.9579 -0.0298
  265SOL    HW2 1059   0.728   2.800   2.379 -1.3892 -1.1407  0.7321
  265SOL     MW 1060   0.734   2.831   2.295 -0.2136 -0.3228  0.4569
  266SOL     OW 1061   0.828   0.882   2.157 -0.0402  0.1128  0.1334
  266SOL    HW1 1062   0.775   0.922   2.089 -0.7108 -1.0353  0.0040
  266SOL    HW2 1063   0.881   0.817   2.107  2.6255 -2.0957 -5.0247
  266SOL     MW 1064   0.828   0.879   2.141  0.2231 -0.3301 -0.5642
  267SOL     OW 1065   1.378   1.680   2.664  0.0926  0.3869 -0.3228
  267SOL    HW1 1066   1.430   1.610   2.623  1.1406 -3.4114  0.1729
  267SOL    HW2 1067   1.301   1.688   2.609  2.9562  0.6317 -0.6645
  267SOL     MW 1068   1.375   1.672   2.652  0.6087 -0.0819 -0.3025
  268SOL     OW 1069   0.121   0.902   1.777 -0.3162  0.0874  0.1872
  268SOL    HW1 1070   0.097   0.989   1.734 -0.6124  2.8395  2.4600
  268SOL    HW2 1071   0.086   0.843   1.708 -0.3320 -2.1044  0.0644
  268SOL     MW 1072   0.113   0.906   1.762 -0.3574  0.1613  0.4709
  269SOL     OW 1073   1.318   1.892   2.294  0.4550 -0.3852  0.4187
  269SOL    HW1 1074   1.382   1.952   2.329  1.9516 -2.3743 -0.0386
  269SOL    HW2 1075   1.257   1.877   2.367  0.9006  1.1503 -0.7950
  269SOL     MW 1076   1.319   1.898   2.308  0.7113 -0.4450  0.1982
  270SOL     OW 1077   1.091   0.361   1.533  0.0236 -0.5481 -0.3199
  270SOL    HW1 1078   1.064   0.294   1.595 -0.5412 -1.5041 -0.7541
  270SOL    HW2 1079   1.185   0.380   1.552 -2.1529 -0.5906  1.7248
  270SOL     MW 1080   1.100   0.355   1.543 -0.3381 -0.6799 -0.1074
  271SOL     OW 1081   0.905   0.118   2.482 -0.1352 -0.5367 -0.1412
  271SOL    HW1 1082   0.964   0.062   2.534  0.0166 -0.8018  1.2708
  271SOL    HW2 1083   0.959   0.194   2.443  1.3224 -3.8755 -0.4208
  271SOL     MW 1084   0.920   0.121   2.484  0.0771 -1.0122  0.0082
  272SOL     OW 1085   1.475   2.791   2.822 -0.4000  0.1807  0.0314
  272SOL    HW1 1086   1.421   2.792   2.745  0.3456 -0.9679  1.1815
  272SOL    HW2 1087   1.523   2.880   2.825  0.4653 -1.9076 -0.4362
  272SOL     MW 1088   1.474   2.803   2.812 -0.1875 -0.2464  0.1215
  273SOL     OW 1089   1.437   0.820   2.800  0.6036  0.0159  0.5897
  273SOL    HW1 1090   1.526   0.788   2.776 -1.1015  0.6730 -1.4320
  273SOL    HW2 1091   1.443   0.911   2.812  0.1144  0.4580  0.0677
  273SOL     MW 1092   1.450   0.828   2.799  0.3141  0.1609  0.2541
  274SOL     OW 1093   1.440   0.641   0.132  0.0805 -0.3626 -0.0609
  274SOL    HW1 1094   1.505   0.593   0.183 -0.1178 -0.2989 -0.3524
  274SOL    HW2 1095   1.372   0.674   0.195 -1.5497 -0.2446 -1.9003
  274SOL     MW 1096   1.440   0.639   0.147 -0.1608 -0.3386 -0.3421
  275SOL     OW 1097   1.821   0.528   1.742  0.2318 -0.3166 -0.1183
  275SOL    HW1 1098   1.865   0.575   1.819  0.2470  1.0194  0.8761
  275SOL    HW2 1099   1.824   0.432   1.770  2.0955 -1.4985  1.3352
  275SOL     MW 1100   1.827   0.521   1.756  0.4797 -0.2962  0.2047
  276SOL     OW 1101   0.422   1.205   1.935 -0.0484  0.2627 -0.2802
  276SOL    HW1 1102   0.425   1.110   1.963  0.7584 -1.6207  1.4297
  276SOL    HW2 1103   0.359   1.246   2.001 -2.9865  0.9432  0.4522
  276SOL     MW 1104   0.414   1.198   1.948 -0.3296  0.1040  0.0420
  277SOL     OW 1105   1.969   1.131   2.442  0.6912  0.2581  0.5920
  277SOL    HW1 1106   2.010   1.200   2.496  0.6150  2.2551  0.0976
  277SOL    HW2 1107   1.997   1.155   2.355  2.4048 -1.9702 -0.8967
  277SOL     MW 1108   1.978   1.143   2.437  0.9072  0.2276  0.3304
  278SOL     OW 1109   1.395   0.618   1.687  0.1281 -0.3368 -0.0558
  278SOL    HW1 1110   1.403   0.580   1.771 -0.0658  0.6921 -1.6650
  278SOL    HW2 1111   1.476   0.638   1.647 -1.1677 -1.1097 -2.0521
  278SOL     MW 1112   1.407   0.616   1.693 -0.0685 -0.3030 -0.5315
  279SOL     OW 1113   0.509   0.104   2.264 -0.0330  0.0984 -0.0345
  279SOL    HW1 1114   0.599   0.057   2.269  0.6606 -1.2044 -3.6709
  279SOL    HW2 1115   0.541   0.184   2.224 -2.2067 -0.4750 -1.7282
  279SOL     MW 1116   0.525   0.108   2.259 -0.2283 -0.1491 -0.7377
  280SOL     OW 1117   1.460   1.060   2.228 -0.1680 -0.4194  0.1297
  280SOL    HW1 1118   1.488   0.983   2.186  0.5755  0.6820  0.6697
  280SOL    HW2 1119   1.437   1.045   2.321 -2.2987 -1.6467 -0.4612
  280SOL     MW 1120   1.460   1.048   2.234 -0.3510 -0.4360  0.1229
  281SOL     OW 1121   1.306   1.143   2.732 -0.7347 -0.5379 -0.2468
  281SOL    HW1 1122   1.380   1.205   2.736  0.3843 -2.2508  1.8802
  281SOL    HW2 1123   1.293   1.112   2.823 -1.9595 -0.0670  1.3141
  281SOL     MW 1124   1.314   1.147   2.745 -0.7487 -0.7018  0.2398
  282SOL     OW 1125   1.185   1.259   1.606  0.1910  0.5171  0.4770
  282SOL    HW1 1126   1.157   1.338   1.570 -1.9497 -0.2870 -0.7089
  282SOL    HW2 1127   1.103   1.223   1.653 -1.0001 -2.4991  3.4182
  282SOL     MW 1128   1.170   1.265   1.607 -0.2486  0.0131  0.7086
  283SOL     OW 1129   0.812   1.389   3.097  0.2122  0.0679 -0.0735
  283SOL    HW1 1130   0.907   1.379   3.114  0.5887 -2.3371  0.9986
  283SOL    HW2 1131   0.802   1.482   3.099 -1.3117  0.1981  0.2969
  283SOL     MW 1132   0.823   1.400   3.100  0.0608 -0.2322  0.1168
  284SOL     OW 1133   0.385   0.689   2.307 -0.0234 -0.6348  0.2498
  284SOL    HW1 1134   0.458   0.756   2.283  1.8676 -0.0460 -0.7988
  284SOL    HW2 1135   0.377   0.640   2.220 -0.4841  0.3521 -2.8893
  284SOL     MW 1136   0.393   0.691   2.293  0.1653 -0.4269 -0.3027
  285SOL     OW 1137   0.878   0.819   2.859 -0.1135  0.0946 -0.4622
  285SOL    HW1 1138   0.907   0.863   2.779  0.7353 -0.4527 -0.6008
  285SOL    HW2 1139   0.786   0.799   2.849 -2.6405 -0.2076 -2.7273
  285SOL     MW 1140   0.870   0.823   2.847 -0.3349 -0.0175 -0.7793
  286SOL     OW 1141   1.104   1.474   2.664 -0.3236  0.4345  0.5651
  286SOL    HW1 1142   1.134   1.390   2.622 -1.7072 -2.0084  1.5082
  286SOL    HW2 1143   1.081   1.529   2.595  1.8389  0.7526  0.9614
  286SOL     MW 1144   1.105   1.470   2.649 -0.2208  0.1541  0.7418
  287SOL     OW 1145   1.155   0.971   0.354 -0.7286 -0.0243 -0.3776
  287SOL    HW1 1146   1.102   0.994   0.430  1.2977  0.8994  2.7699
  287SOL    HW2 1147   1.108   1.019   0.277  0.8616  0.9769 -1.5239
  287SOL     MW 1148   1.142   0.981   0.354 -0.2515  0.2297 -0.1136
  288SOL     OW 1149   1.493   0.616   2.152  0.3084  0.7152  0.1786
  288SOL    HW1 1150   1.439   0.616   2.236  0.2930 -0.9352 -3.0314
  288SOL    HW2 1151   1.507   0.701   2.113  2.1834  1.0481 -1.0823
  288SOL     MW 1152   1.488   0.628   2.158  0.5537  0.5413 -0.4113
  289SOL     OW 1153   0.896   0.949   2.614  0.1543  0.1055  0.3971
  289SOL    HW1 1154   0.942   0.907   2.544 -2.0505 -1.7339 -2.8940
  289SOL    HW2 1155   0.811   0.976   2.570  1.8228 -3.0016  3.1317
  289SOL     MW 1156   0.891   0.947   2.599  0.0836 -0.5471  0.3237
  290SOL     OW 1157   0.766   0.654   1.476  0.3403  0.0509  0.2926
  290SOL    HW1 1158   0.832   0.586   1.462  0.0417  0.0181  0.2021
  290SOL    HW2 1159   0.747   0.659   1.570 -0.1662  0.9296 -1.1445
  290SOL     MW 1160   0.773   0.645   1.487  0.2341  0.1625  0.0910
  291SOL     OW 1161   0.239   0.330   0.144 -0.0372 -0.3562  0.7585
  291SOL    HW1 1162   0.329   0.314   0.180  0.4018 -0.1845  0.0952
  291SOL    HW2 1163   0.213   0.238   0.134 -0.0958 -1.5273 -0.4564
  291SOL     MW 1164   0.248   0.316   0.148  0.0130 -0.4880  0.5107
  292SOL     OW 1165   1.022   0.633   0.110 -0.2533  0.1671 -0.3072
  292SOL    HW1 1166   1.095   0.666   0.166  1.5081 -2.4866  1.4736
  292SOL    HW2 1167   1.052   0.542   0.088 -0.7910  0.2110  0.5774
  292SOL     MW 1168   1.036   0.625   0.114 -0.0918 -0.1772  0.0445
  293SOL     OW 1169   0.109   0.068   2.585  0.1934 -0.2320 -0.0270
  293SOL    HW1 1170   0.090   0.037   2.497 -0.1637 -1.2913  3.2072
  293SOL    HW2 1171   0.020   0.098   2.614  0.0929  0.1802  1.1487
  293SOL     MW 1172   0.095   0.068   2.577  0.1330 -0.3174  0.5549
  294SOL     OW 1173   1.353   0.463   2.349 -0.2136 -0.2871  0.4318
  294SOL    HW1 1174   1.393   0.513   2.420  0.4092  1.2820  1.4660
  294SOL    HW2 1175   1.351   0.372   2.374  2.4563 -1.9004 -0.7051
  294SOL     MW 1176   1.358   0.458   2.362  0.2208 -0.2929  0.4183
  295SOL     OW 1177   0.843   0.598   2.533  0.3239 -0.3507 -0.5936
  295SOL    HW1 1178   0.791   0.581   2.451 -0.4910 -0.0212 -0.2531
  295SOL    HW2 1179   0.781   0.629   2.603  0.8684  0.2321 -1.8064
  295SOL     MW 1180   0.828   0.600   2.532  0.2882 -0.2303 -0.7087
  296SOL     OW 1181   1.309   0.295   2.066  0.1819  0.1931  0.3130
  296SOL    HW1 1182   1.367   0.218   2.053 -0.0214 -0.4296 -0.4844
  296SOL    HW2 1183   1.347   0.346   2.139  2.3603 -1.5811 -1.3072
  296SOL     MW 1184   1.322   0.292   2.074  0.4425 -0.1232 -0.0060
  297SOL     OW 1185   1.368   0.363   1.605 -0.1322 -0.6258 -0.2623
  297SOL    HW1 1186   1.390   0.441   1.650  2.1020 -1.3611 -0.6062
  297SOL    HW2 1187   1.373   0.292   1.671  2.0820  0.0589 -0.5954
  297SOL     MW 1188   1.371   0.364   1.620  0.4547 -0.6325 -0.3516
  298SOL     OW 1189   1.591   0.868   2.058  0.4323 -0.1803 -0.5855
  298SOL    HW1 1190   1.625   0.913   1.978  0.0371 -1.0025  1.0321
  298SOL    HW2 1191   1.671   0.834   2.098 -2.0210  2.0419 -0.1594
  298SOL     MW 1192   1.606   0.870   2.053  0.0565  0.0044 -0.3158
  299SOL     OW 1193   0.602   1.193   0.099  0.3569 -0.1974 -0.2229
  299SOL    HW1 1194   0.598   1.225   0.006  1.7565  2.1240  0.3843
  299SOL    HW2 1195   0.688   1.224   0.121  0.1040  1.1013 -2.7766
  299SOL     MW 1196   0.613   1.201   0.089  0.5082  0.2802 -0.4797
  300SOL     OW 1197   1.106   1.143   2.552  0.3308 -0.3709  0.2900
  300SOL    HW1 1198   1.031   1.088   2.576 -0.6435  0.1617  1.0218
  300SOL    HW2 1199   1.178   1.132   2.621  0.0466 -0.7021 -0.9427
  300SOL     MW 1200   1.106   1.134   2.564  0.1648 -0.3443  0.2239
  301SOL     OW 1201   1.474   1.070   0.735  0.4714 -0.4780  0.0641
  301SOL    HW1 1202   1.485   1.094   0.827  1.2732  0.6202  0.1373
  301SOL    HW2 1203   1.417   0.987   0.727 -0.7612 -1.0940 -0.4322
  301SOL     MW 1204   1.468   1.062   0.746  0.4146 -0.4144  0.0083
  302SOL     OW 1205   0.173   1.591   2.036  0.4529 -0.3599  0.1454
  302SOL    HW1 1206   0.179   1.499   2.041  0.0021  2.3867 -1.6560
  302SOL    HW2 1207   0.077   1.603   2.043  0.4763 -3.4873  1.2151
  302SOL     MW 1208   0.161   1.580   2.038  0.3965 -0.4102  0.0488
  303SOL     OW 1209   0.322   1.776   2.690  0.0603 -0.0589  0.9712
  303SOL    HW1 1210   0.294   1.801   2.602 -1.2838 -1.1547 -0.9375
  303SOL    HW2 1211   0.242   1.750   2.730 -0.9747  0.3967 -0.3854
  303SOL     MW 1212   0.308   1.776   2.683 -0.2536 -0.1434  0.5404
  304SOL     OW 1213   0.508   2.055   2.483  0.2064 -0.0180 -0.0465
  304SOL    HW1 1214   0.541   2.103   2.403  0.3776 -0.0304 -4.2921
  304SOL    HW2 1215   0.581   1.997   2.500  0.9669  1.7360 -0.1162
  304SOL     MW 1216   0.522   2.054   2.475  0.3293  0.2118 -0.6158
  305SOL     OW 1217   1.147   0.654   0.549  0.2434 -0.0475  0.2641
  305SOL    HW1 1218   1.058   0.641   0.515 -1.5615  1.2213 -3.1456
  305SOL    HW2 1219   1.179   0.565   0.566  2.4244 -2.5707  0.5149
  305SOL     MW 1220   1.139   0.641   0.547  0.2930 -0.2130 -0.1527
  306SOL     OW 1221   1.090   1.528   0.305 -0.0867  0.2706  0.1456
  306SOL    HW1 1222   1.114   1.433   0.328 -2.5138  0.5116  2.3815
  306SOL    HW2 1223   1.140   1.555   0.227 -0.2293 -0.1938  0.3345
  306SOL     MW 1224   1.099   1.519   0.298 -0.4258  0.2411  0.4656
  307SOL     OW 1225   1.432   0.489   1.923  0.4400  0.3369 -0.1585
  307SOL    HW1 1226   1.384   0.409   1.947  2.1267 -0.0011  0.6435
  307SOL    HW2 1227   1.430   0.541   2.004  0.1995  1.7850 -0.7673
  307SOL     MW 1228   1.426   0.485   1.937  0.6308  0.4834 -0.1330
  308SOL     OW 1229   2.217   0.518   2.719  0.6858  0.7851  0.8325
  308SOL    HW1 1230   2.309   0.515   2.746  0.8845 -3.3033 -2.5428
  308SOL    HW2 1231   2.190   0.611   2.720  2.0022 -0.8781 -1.0436
  308SOL     MW 1232   2.226   0.530   2.723  0.8857  0.0262  0.1396
  309SOL     OW 1233   0.514   0.567   0.240  0.3435 -0.3591 -0.2559
  309SOL    HW1 1234   0.602   0.582   0.207 -0.7085 -0.2814 -0.7338
  309SOL    HW2 1235   0.496   0.475   0.238 -1.0239  1.9930  3.0732
  309SOL     MW 1236   0.523   0.557   0.236  0.0243 -0.0385  0.1203
  310SOL     OW 1237   0.407   0.552   1.882 -0.2696 -1.1082 -0.1174
  310SOL    HW1 1238   0.441   0.497   1.809 -1.4261 -0.5881 -1.2545
  310SOL    HW2 1239   0.434   0.641   1.854  0.5041  1.4460 -1.4432
  310SOL     MW 1240   0.415   0.557   1.869 -0.3201 -0.7026 -0.4424
  311SOL     OW 1241   1.966   0.638   1.956 -0.0960  0.2144  0.2057
  311SOL    HW1 1242   1.929   0.677   2.032 -0.8255 -1.5717 -2.0212
  311SOL    HW2 1243   2.006   0.553   1.991  0.8913 -0.4221  0.9691
  311SOL     MW 1244   1.966   0.632   1.970 -0.0620 -0.1052  0.0126
  312SOL     OW 1245   1.721   2.448   0.126 -0.4122  0.4828  0.8037
  312SOL    HW1 1246   1.728   2.402   0.209  1.2509 -0.8894 -0.6977
  312SOL    HW2 1247   1.674   2.529   0.153 -1.0307 -0.8396 -0.1467
  312SOL     MW 1248   1.716   2.453   0.141 -0.2744  0.1273  0.4802
  313SOL     OW 1249   0.137   1.123   3.037  0.0740  0.1426  0.1013
  313SOL    HW1 1250   0.102   1.180   3.112 -0.8573 -0.5606  0.0394
  313SOL    HW2 1251   0.140   1.183   2.968 -0.2982 -0.4248 -0.1708
  313SOL     MW 1252   0.133   1.138   3.038 -0.0980 -0.0251  0.0573
  314SOL     OW 1253   2.175   2.958   0.038  0.5194 -0.7695  0.2968
  314SOL    HW1 1254   2.124   2.947  -0.049  1.3878  2.2372 -0.4021
  314SOL    HW2 1255   2.249   3.024   0.024  4.3999  3.4280 -0.9042
  314SOL     MW 1256   2.178   2.966   0.024  1.1459  0.1810  0.0461
  315SOL     OW 1257   1.537   1.846   2.976 -0.2305  0.2581  0.4667
  315SOL    HW1 1258   1.483   1.900   3.029  1.0083 -0.2925  0.1320
  315SOL    HW2 1259   1.585   1.926   2.941  0.6923 -0.7795  1.7838
  315SOL     MW 1260   1.536   1.863   2.978  0.0547  0.0485  0.5963
  316SOL     OW 1261   1.206   0.644   2.706  0.0008  0.0953 -0.2325
  316SOL    HW1 1262   1.279   0.695   2.736 -0.5695 -1.5725 -2.7859
  316SOL    HW2 1263   1.144   0.630   2.788  0.3777 -0.3421  0.8702
  316SOL     MW 1264   1.207   0.649   2.721 -0.0247 -0.1825 -0.4239
  317SOL     OW 1265   0.691   1.587   2.644 -0.1034  0.5755  0.1312
  317SOL    HW1 1266   0.751   1.519   2.651 -0.2907 -0.1477 -0.5400
  317SOL    HW2 1267   0.663   1.584   2.550 -1.9889  0.9596  3.0074
  317SOL     MW 1268   0.695   1.578   2.633 -0.3769  0.5308  0.4221
  318SOL     OW 1269   1.351   0.375   2.939  0.4584  0.1397 -0.4143
  318SOL    HW1 1270   1.279   0.419   2.892 -2.9417 -1.7207 -3.1765
  318SOL    HW2 1271   1.429   0.427   2.905  1.7537  2.5480  0.5326
  318SOL     MW 1272   1.351   0.388   2.928  0.1807  0.2120 -0.6538
  319SOL     OW 1273   0.788   0.445   2.831  0.1063  0.9306  0.2509
  319SOL    HW1 1274   0.785   0.352   2.804 -1.4668 -0.5270 -0.6558
  319SOL    HW2 1275   0.765   0.446   2.926 -0.2478 -0.9942 -4.0979
  319SOL     MW 1276   0.784   0.433   2.840 -0.1480  0.4843 -0.4425
  320SOL     OW 1277   1.051   1.337   1.976 -0.2769 -0.5317  0.5541
  320SOL    HW1 1278   1.102   1.255   1.985  0.6184  1.8535  0.2218
  320SOL    HW2 1279   1.119   1.400   1.947  0.2880 -1.7926  0.3013
  320SOL     MW 1280   1.067   1.334   1.974 -0.0843 -0.3833  0.4769
  321SOL     OW 1281   1.073   0.884   3.051 -0.1404 -0.9463  0.1054
  321SOL    HW1 1282   1.009   0.861   2.980 -1.7134  2.4840 -0.9962
  321SOL    HW2 1283   1.141   0.814   3.044  0.6195  2.6421 -0.2153
  321SOL     MW 1284   1.074   0.872   3.041 -0.2477 -0.0202 -0.0822
  322SOL     OW 1285   1.254   0.842   1.659  0.0930  0.1351 -0.3300
  322SOL    HW1 1286   1.321   0.781   1.680 -1.7785  1.4420  0.9796
  322SOL    HW2 1287   1.228   0.873   1.745 -1.3611  0.3088 -1.8265
  322SOL     MW 1288   1.259   0.838   1.673 -0.3458  0.3304 -0.3547
  323SOL     OW 1289   1.228   1.539   1.909 -0.3113 -0.3554 -0.0709
  323SOL    HW1 1290   1.308   1.535   1.855  0.3588  0.1274 -0.5479
  323SOL    HW2 1291   1.175   1.603   1.863 -0.0655  0.1002  0.4058
  323SOL     MW 1292   1.231   1.547   1.895 -0.1905 -0.2316 -0.0710
  324SOL     OW 1293   1.439   1.004   2.507 -0.4940 -0.5405  0.7452
  324SOL    HW1 1294   1.387   1.024   2.591  1.5818  0.8498 -1.8504
  324SOL    HW2 1295   1.523   1.054   2.503  0.1118  1.3327  1.2802
  324SOL     MW 1296   1.443   1.013   2.517 -0.1402 -0.1099  0.4733
  325SOL     OW 1297   1.037   0.533   2.903  0.2026  0.0746  0.2931
  325SOL    HW1 1298   1.010   0.590   2.978 -1.8086 -0.0866 -1.6783
  325SOL    HW2 1299   0.953   0.509   2.860 -1.0054 -2.6519 -0.6619
  325SOL     MW 1300   1.023   0.537   2.907 -0.2221 -0.3064 -0.0930
  326SOL     OW 1301   0.373   1.393   2.285  0.2999 -0.5793  0.3108
  326SOL    HW1 1302   0.460   1.352   2.274  1.1253 -1.2619  1.0286
  326SOL    HW2 1303   0.394   1.486   2.286  2.0012  2.5657  0.3340
  326SOL     MW 1304   0.387   1.400   2.284  0.6333 -0.2544  0.4086
  327SOL     OW 1305   1.985   0.797   2.423  0.4955 -0.4254 -0.0091
  327SOL    HW1 1306   1.913   0.795   2.489  0.2740 -0.3119 -1.0765
  327SOL    HW2 1307   2.019   0.888   2.414  0.5729  1.2839  1.8018
  327SOL     MW 1308   1.980   0.809   2.431  0.4765 -0.1849  0.0890
  328SOL     OW 1309   0.225   1.302   2.087 -0.2804  0.3022  0.8493
  328SOL    HW1 1310   0.160   1.228   2.090 -1.8675 -1.4498 -0.0086
  328SOL    HW2 1311   0.269   1.325   2.169  1.6058  2.9800  1.0035
  328SOL     MW 1312   0.222   1.296   2.098 -0.2410  0.4244  0.7564
  329SOL     OW 1313   0.047   0.116   1.372  0.6708  0.2686 -0.3489
  329SOL    HW1 1314   0.046   0.115   1.468  3.3923 -1.8082  1.2806
  329SOL    HW2 1315   0.137   0.150   1.352 -1.4860 -1.9664  2.2707
  329SOL     MW 1316   0.059   0.121   1.382  0.7453 -0.3003  0.2117
  330SOL     OW 1317   0.385   0.020   2.031  0.0270  0.9266 -0.5341
  330SOL    HW1 1318   0.447   0.038   2.104  0.4363 -1.7741 -0.5328
  330SOL    HW2 1319   0.317  -0.037   2.074  0.8027  0.9710  1.1793
  330SOL     MW 1320   0.384   0.015   2.047  0.1834  0.5762 -0.3079
  331SOL     OW 1321   0.780   1.256   2.382 -0.4069  0.3338 -0.3699
  331SOL    HW1 1322   0.723   1.312   2.336  2.6002  0.4278  1.4589
  331SOL    HW2 1323   0.822   1.296   2.462 -2.8886  1.0632  0.4063
  331SOL     MW 1324   0.778   1.269   2.386 -0.3376  0.4425 -0.0262
  332SOL     OW 1325   1.367   1.643   2.935  0.2582  0.4537 -0.0179
  332SOL    HW1 1326   1.348   1.631   2.840  0.3754 -1.1713 -1.9533
  332SOL    HW2 1327   1.430   1.718   2.938  0.6039 -1.1878  0.5701
  332SOL     MW 1328   1.373   1.651   2.923  0.3193  0.0227 -0.1957
  333SOL     OW 1329   1.666   1.336   2.919 -0.1695  0.3935 -0.6259
  333SOL    HW1 1330   1.763   1.341   2.941 -0.5622  0.5350  1.0627
  333SOL    HW2 1331   1.637   1.261   2.961  3.3747  1.0826  1.8222
  333SOL     MW 1332   1.675   1.327   2.928  0.2463  0.5031 -0.0801
  334SOL     OW 1333   1.325  -0.000   2.620  0.3718 -0.3349  0.7873
  334SOL    HW1 1334   1.259  -0.040   2.685  0.5540 -1.0509 -0.3464
  334SOL    HW2 1335   1.369   0.067   2.672  0.3778 -2.4854  0.1336
  334SOL     MW 1336   1.322   0.003   2.635  0.3966 -0.7131  0.5515
  335SOL     OW 1337   1.300   0.717   2.998 -0.2480  0.2839 -0.4049
  335SOL    HW1 1338   1.349   0.707   3.078 -0.6096  1.7188  2.9652
  335SOL    HW2 1339   1.354   0.735   2.924 -4.5880  2.3668  1.9933
  335SOL     MW 1340   1.314   0.718   2.999 -0.8683  0.7480  0.3561
  336SOL     OW 1341   0.945   1.173   1.719 -0.8694  0.1222  0.1273
  336SOL    HW1 1342   0.883   1.220   1.766  1.8895  0.1407 -1.7420
  336SOL    HW2 1343   0.995   1.113   1.781  1.1999 -0.5456 -0.8622
  336SOL     MW 1344   0.943   1.171   1.733 -0.2323  0.0365 -0.2499
  337SOL     OW 1345   0.511   1.941   2.790 -1.0928  0.3383 -0.5604
  337SOL    HW1 1346   0.440   1.892   2.744 -1.0930 -0.4297 -0.4237
  337SOL    HW2 1347   0.590   1.882   2.784  0.4573 -0.4947 -1.1738
  337SOL     MW 1348   0.512   1.927   2.783 -0.8883  0.1271 -0.6233
  338SOL     OW 1349   1.067   0.777   2.452 -0.0385  0.5021 -0.0423
  338SOL    HW1 1350   0.990   0.716   2.463 -0.9310  0.8898 -0.4433
  338SOL    HW2 1351   1.117   0.748   2.528 -1.1649  1.1094 -1.7668
  338SOL     MW 1352   1.063   0.765   2.463 -0.3049  0.6334 -0.3227
  339SOL     OW 1353   1.415   1.223   1.890 -0.2503  0.4548  0.4926
  339SOL    HW1 1354   1.435   1.164   1.820  0.1014  0.0127  2.7662
  339SOL    HW2 1355   1.379   1.173   1.962 -1.9670 -0.8470 -0.2192
  339SOL     MW 1356   1.413   1.209   1.891 -0.4304  0.2247  0.6987
  340SOL     OW 1357   1.283   1.501   0.063  0.4750 -0.4992  0.3008
  340SOL    HW1 1358   1.335   1.550  -0.007  0.7682 -0.1614 -1.6730
  340SOL    HW2 1359   1.341   1.492   0.134 -0.4344  0.4817 -2.8185
  340SOL     MW 1360   1.298   1.506   0.063  0.3937 -0.3252 -0.3712
  341SOL     OW 1361   0.134   1.369   2.793  0.4371 -0.3682 -0.5760
  341SOL    HW1 1362   0.230   1.365   2.807 -2.2089  0.6359  0.3938
  341SOL    HW2 1363   0.124   1.348   2.703 -0.7255  0.7519 -0.7921
  341SOL     MW 1364   0.145   1.366   2.783 -0.0654 -0.0879 -0.4765
  342SOL     OW 1365   1.440   0.328   0.085 -0.3165  0.7040 -0.5677
  342SOL    HW1 1366   1.467   0.416   0.125 -1.4590  1.7547  3.0126
  342SOL    HW2 1367   1.412   0.346  -0.005 -0.4446 -0.5265 -0.1162
  342SOL     MW 1368   1.440   0.342   0.078 -0.4841  0.6803 -0.0357
  343SOL     OW 1369   0.233   0.261   2.153  0.3046 -0.9623 -0.3652
  343SOL    HW1 1370   0.291   0.206   2.108 -0.4005  0.9790 -0.9133
  343SOL    HW2 1371   0.147   0.242   2.116 -1.6848  1.1948  0.1812
  343SOL     MW 1372   0.229   0.251   2.142 -0.0509 -0.4216 -0.3654
  344SOL     OW 1373   1.694   1.981   0.121  0.2971  0.3197  0.1763
  344SOL    HW1 1374   1.746   2.029   0.048  2.4067 -1.6305  0.1537
  344SOL    HW2 1375   1.607   2.007   0.120 -2.0812 -1.5912 -1.1711
  344SOL     MW 1376   1.689   1.991   0.111  0.2617 -0.1897 -0.0044
  345SOL     OW 1377   0.694   1.632   2.374  0.1420  0.8698  0.1864
  345SOL    HW1 1378   0.616   1.638   2.317  1.0816  2.2216  0.9154
  345SOL    HW2 1379   0.767   1.621   2.316 -0.4778 -0.1213 -0.5725
  345SOL     MW 1380   0.693   1.631   2.359  0.1842  0.9174  0.1825
  346SOL     OW 1381   1.645   1.109   0.029  0.5115 -0.3134  0.3395
  346SOL    HW1 1382   1.737   1.105   0.047 -2.3209  0.7341  1.9351
  346SOL    HW2 1383   1.600   1.033   0.067 -4.2278  1.3943  1.1343
  346SOL     MW 1384   1.651   1.098   0.037 -0.4875  0.0501  0.6549
  347SOL     OW 1385   1.154   0.631   2.231  0.2689 -0.5636 -0.3337
  347SOL    HW1 1386   1.207   0.564   2.268 -0.5380 -2.7218  0.6826
  347SOL    HW2 1387   1.126   0.691   2.301 -0.0527 -0.8021  0.4941
  347SOL     MW 1388   1.157   0.630   2.245  0.1200 -0.8798 -0.0904
  348SOL     OW 1389   1.334   2.542   1.917  0.1159 -0.3703  0.3739
  348SOL    HW1 1390   1.346   2.473   1.987 -1.5147  1.4142 -0.6178
  348SOL    HW2 1391   1.365   2.628   1.959 -0.3905 -1.0160 -1.4182
  348SOL     MW 1392   1.340   2.544   1.932 -0.1660 -0.2200  0.0066
  349SOL     OW 1393   1.482   0.152   2.787  0.2005  0.1533 -0.2295
  349SOL    HW1 1394   1.449   0.221   2.839 -1.9443 -2.8188  0.1671
  349SOL    HW2 1395   1.519   0.072   2.833  0.6183 -1.7865 -0.5554
  349SOL     MW 1396   1.482   0.150   2.800 -0.0274 -0.4948 -0.2201
  350SOL     OW 1397   1.823   0.659   2.632 -0.6955 -0.3146  0.1009
  350SOL    HW1 1398   1.783   0.601   2.563 -0.6181  0.7166  0.9937
  350SOL    HW2 1399   1.907   0.626   2.666  3.2455  0.2139 -0.3209
  350SOL     MW 1400   1.829   0.647   2.627 -0.1653 -0.1088  0.1630
  351SOL     OW 1401   0.092   1.140   1.612 -0.0989  0.5695 -0.9022
  351SOL    HW1 1402   0.008   1.133   1.662  0.1356 -2.5628 -0.0284
  351SOL    HW2 1403   0.148   1.201   1.660 -1.8518 -2.0020  1.5598
  351SOL     MW 1404   0.089   1.147   1.625 -0.2992 -0.1831 -0.4621
  352SOL     OW 1405   0.760   1.795   2.789 -0.0953  0.1387 -0.1193
  352SOL    HW1 1406   0.760   1.764   2.883 -0.4870 -1.2211 -0.8418
  352SOL    HW2 1407   0.722   1.730   2.731 -1.8927  1.1643 -2.8196
  352SOL     MW 1408   0.755   1.782   2.794 -0.3841  0.0946 -0.5709
  353SOL     OW 1409   0.021   2.572   2.657  0.3296  0.1439 -0.6195
  353SOL    HW1 1410   0.111   2.535   2.650 -1.3219 -1.2866 -0.5387
  353SOL    HW2 1411   0.008   2.629   2.580 -1.5518 -0.2709 -0.4803
  353SOL     MW 1412   0.032   2.574   2.646 -0.1365 -0.0996 -0.5905
  354SOL     OW 1413   0.373   2.428   0.884  0.6534 -0.3390 -0.3356
  354SOL    HW1 1414   0.385   2.403   0.972 -0.5526  0.9014 -0.8157
  354SOL    HW2 1415   0.312   2.373   0.848 -2.0865  0.9582  1.0152
  354SOL     MW 1416   0.367   2.417   0.891  0.1328 -0.0042 -0.2207
  355SOL     OW 1417   0.037   2.182   0.393  0.8986  0.6018 -0.0912
  355SOL    HW1 1418  -0.058   2.163   0.391 -1.5818 -1.9770 -0.2492
  355SOL    HW2 1419   0.038   2.225   0.479 -0.6721  0.1577  0.1342
  355SOL     MW 1420   0.025   2.185   0.404  0.3641  0.2030 -0.0823
  356SOL     OW 1421   0.760   2.941   1.065 -0.4607  0.7475 -0.0344
  356SOL    HW1 1422   0.831   2.911   1.004 -0.4925 -0.5930 -1.5232
  356SOL    HW2 1423   0.685   2.911   1.015 -1.6331  0.1446  2.4322
  356SOL     MW 1424   0.759   2.933   1.050 -0.6196  0.4911  0.0946
  357SOL     OW 1425   1.841   2.817   0.469 -0.0734 -0.3319 -0.5588
  357SOL    HW1 1426   1.820   2.777   0.554  1.5758  1.8498  0.9756
  357SOL    HW2 1427   1.936   2.795   0.461 -1.4119 -0.0144  0.0111
  357SOL     MW 1428   1.851   2.809   0.479 -0.0324 -0.0021 -0.2812
  358SOL     OW 1429   0.424   0.161   1.065  0.2656 -0.1225  0.4819
  358SOL    HW1 1430   0.521   0.182   1.067  1.1510 -2.6016  0.1616
  358SOL    HW2 1431   0.394   0.180   0.975  0.3893  0.6909  0.2516
  358SOL     MW 1432   0.433   0.166   1.053  0.3987 -0.3423  0.4093
  359SOL     OW 1433   0.903   2.983   1.851 -0.1083 -0.3033  0.2111
  359SOL    HW1 1434   0.916   2.891   1.846  0.4530 -2.1026 -3.1155
  359SOL    HW2 1435   0.937   3.034   1.776  0.6836  2.2554 -1.2281
  359SOL     MW 1436   0.909   2.978   1.840  0.0703 -0.2031 -0.4177
  360SOL     OW 1437   0.557   2.789   0.910  0.5576 -0.2045  0.2839
  360SOL    HW1 1438   0.591   2.767   0.823  1.3245  1.8625  1.7365
  360SOL    HW2 1439   0.567   2.708   0.968  0.3890 -0.6680  1.0469
  360SOL     MW 1440   0.563   2.776   0.906  0.6365  0.0071  0.5762
  361SOL     OW 1441   0.247   2.700   1.366 -0.4386  0.1850 -0.2495
  361SOL    HW1 1442   0.195   2.752   1.422  0.7153 -1.1988 -3.0331
  361SOL    HW2 1443   0.317   2.767   1.347 -1.9935  5.4583 -1.0320
  361SOL     MW 1444   0.250   2.716   1.371 -0.4915  0.6982 -0.7200
  362SOL     OW 1445   1.365   2.428   0.606 -0.0957 -0.1187  0.1364
  362SOL    HW1 1446   1.410   2.362   0.654  1.2703  1.9497  1.7231
  362SOL    HW2 1447   1.431   2.499   0.596 -0.6893  0.0304 -1.4507
  362SOL     MW 1448   1.380   2.429   0.611  0.0062  0.1739  0.1363
  363SOL     OW 1449   0.344   3.099   0.670 -0.4904 -0.0173  0.1741
  363SOL    HW1 1450   0.336   3.007   0.707 -0.1197 -1.4026  2.6091
  363SOL    HW2 1451   0.254   3.118   0.635 -1.0295  4.2991  1.4801
  363SOL     MW 1452   0.331   3.089   0.670 -0.5126  0.3694  0.6677
  364SOL     OW 1453   0.801   0.217   0.127 -0.0840 -0.6387 -0.4948
  364SOL    HW1 1454   0.750   0.149   0.162  0.8433 -0.8710  2.0099
  364SOL    HW2 1455   0.743   0.286   0.094  1.1998 -0.6010  2.8546
  364SOL     MW 1456   0.786   0.217   0.127  0.2077 -0.6643  0.2776
  365SOL     OW 1457   0.881   1.995   1.205 -0.2839 -0.0349  0.0760
  365SOL    HW1 1458   0.850   2.081   1.169  0.2117 -2.6515 -1.2545
  365SOL    HW2 1459   0.864   1.927   1.134  1.1893  0.6971  2.7118
  365SOL     MW 1460   0.875   1.997   1.191 -0.0242 -0.2836  0.2482
  366SOL     OW 1461   2.939   2.636   0.961  0.0843  0.3544 -0.5296
  366SOL    HW1 1462   3.018   2.622   1.019 -0.5512 -1.3664  1.5132
  366SOL    HW2 1463   2.959   2.699   0.889 -0.4157 -0.6520  1.0261
  366SOL     MW 1464   2.952   2.643   0.959 -0.0655 -0.0054 -0.0548
  367SOL     OW 1465   1.195   2.972   0.981  0.2792  0.6075  0.7322
  367SOL    HW1 1466   1.262   3.016   0.925 -0.7495  0.4637  1.3180
  367SOL    HW2 1467   1.135   2.946   0.917  2.4941 -0.0231 -2.1880
  367SOL     MW 1468   1.196   2.974   0.965  0.4357  0.5054  0.4242
  368SOL     OW 1469   1.730   0.421   0.646 -0.2872 -0.0221 -0.5267
  368SOL    HW1 1470   1.782   0.348   0.616  0.0925 -0.6670 -1.4622
  368SOL    HW2 1471   1.758   0.501   0.601 -1.0074  2.2164  1.6543
  368SOL     MW 1472   1.741   0.422   0.636 -0.3322  0.1882 -0.3624
  369SOL     OW 1473   0.149   2.384   1.777 -0.0560  0.6810 -0.2424
  369SOL    HW1 1474   0.247   2.392   1.791  3.6682 -0.1716  1.5602
  369SOL    HW2 1475   0.126   2.480   1.767  1.1098 -0.2916 -0.0532
  369SOL     MW 1476   0.159   2.398   1.778  0.5892  0.4402  0.0204
  370SOL     OW 1477   0.735   0.154   1.050 -0.2038  0.0507  0.5728
  370SOL    HW1 1478   0.797   0.183   0.981  0.9525  1.7985  0.4503
  370SOL    HW2 1479   0.741   0.052   1.058 -1.4779 -2.1333 -0.5204
  370SOL     MW 1480   0.744   0.144   1.042 -0.2194 -0.0069  0.4124
  371SOL     OW 1481   1.188   2.865   1.477 -0.5023  0.6707 -0.3254
  371SOL    HW1 1482   1.191   2.794   1.414 -0.1262 -1.3579  1.3365
  371SOL    HW2 1483   1.166   2.941   1.421 -1.7794  0.8703 -0.2815
  371SOL     MW 1484   1.186   2.866   1.462 -0.6212  0.4294 -0.1003
  372SOL     OW 1485   0.796   2.317   0.501  0.5246  0.2711 -0.0163
  372SOL    HW1 1486   0.752   2.239   0.538 -0.0949 -0.9354 -2.7658
  372SOL    HW2 1487   0.810   2.286   0.411 -3.7216 -1.0399  0.3226
  372SOL     MW 1488   0.792   2.303   0.494 -0.1174 -0.0611 -0.3343
  373SOL     OW 1489   2.848   2.996   1.420  0.2354  0.2508 -0.4370
  373SOL    HW1 1490   2.933   2.978   1.380  2.3918 -2.0029 -0.2404
  373SOL    HW2 1491   2.825   3.073   1.373 -0.6998 -0.0617  0.4238
  373SOL     MW 1492   2.856   3.004   1.408  0.3965 -0.0878 -0.2975
  374SOL     OW 1493   1.588   0.455   0.288  0.0698 -0.1394 -0.1423
  374SOL    HW1 1494   1.676   0.422   0.268  3.2165 -1.3641  0.8724
  374SOL    HW2 1495   1.563   0.412   0.370 -1.8158  0.2141  0.8784
  374SOL     MW 1496   1.596   0.445   0.296  0.2362 -0.2544  0.1262
  375SOL     OW 1497   1.017   2.136   2.279  0.7089 -0.5625 -0.1124
  375SOL    HW1 1498   1.056   2.097   2.356 -0.5433 -1.3779 -3.4825
  375SOL    HW2 1499   0.987   2.063   2.226  2.1920  1.2079 -0.8485
  375SOL     MW 1500   1.019   2.121   2.282  0.7394 -0.4365 -0.6542
  376SOL     OW 1501   0.775   2.496   0.106  0.1747 -0.1458  0.8350
  376SOL    HW1 1502   0.699   2.455   0.141 -0.0279 -0.0311  1.1583
  376SOL    HW2 1503   0.774   2.474   0.014 -0.7949  0.1695  0.6441
  376SOL     MW 1504   0.765   2.488   0.098  0.0201 -0.0890  0.8525
  377SOL     OW 1505   1.330   2.047   0.932  0.8232  0.1976  0.2052
  377SOL    HW1 1506   1.274   2.012   0.868 -0.1174  1.9966 -0.1041
  377SOL    HW2 1507   1.283   2.026   1.018  0.6223 -0.9920  1.0344
  377SOL     MW 1508   1.316   2.039   0.935  0.6726  0.2780  0.2738
  378SOL     OW 1509   0.896   2.851   1.528 -0.6511 -0.1029 -0.0503
  378SOL    HW1 1510   0.939   2.774   1.573  0.1599  0.5609 -4.7368
  378SOL    HW2 1511   0.963   2.884   1.468  2.5904 -0.6094  3.7934
  378SOL     MW 1512   0.910   2.845   1.526 -0.1164 -0.0821 -0.1615
  379SOL     OW 1513   1.104   1.619   2.229 -0.4741 -0.1810  0.2879
  379SOL    HW1 1514   1.036   1.590   2.168  1.2630 -2.1576  0.9974
  379SOL    HW2 1515   1.180   1.567   2.213 -1.3126 -1.1779  1.0063
  379SOL     MW 1516   1.105   1.609   2.219 -0.3555 -0.5733  0.4763
  380SOL     OW 1517   0.876   0.104   1.428  0.3245 -0.1539  0.3742
  380SOL    HW1 1518   0.919   0.037   1.378 -0.6598  3.7975 -0.4474
  380SOL    HW2 1519   0.934   0.118   1.507  1.2240  0.0060  1.4062
  380SOL     MW 1520   0.890   0.097   1.432  0.3133  0.3885  0.4019
  381SOL     OW 1521   0.815   2.044   0.832 -0.5509 -0.0586  0.5380
  381SOL    HW1 1522   0.909   2.045   0.823  0.8242  2.5651  0.9762
  381SOL    HW2 1523   0.791   2.123   0.882 -0.0873 -2.3670 -0.7911
  381SOL     MW 1524   0.824   2.054   0.837 -0.3083 -0.0170  0.4204
  382SOL     OW 1525   0.831   0.154   0.620  0.3066 -0.0685 -0.0652
  382SOL    HW1 1526   0.798   0.200   0.701 -0.1161  0.8781  1.5889
  382SOL    HW2 1527   0.776   0.071   0.611 -2.6410  0.3348 -2.8769
  382SOL     MW 1528   0.819   0.149   0.629 -0.1381  0.1096 -0.2179
  383SOL     OW 1529   0.610   0.060   0.327  0.4787 -0.6720  0.2966
  383SOL    HW1 1530   0.655   0.003   0.263 -1.6786 -0.7617  0.2336
  383SOL    HW2 1531   0.535   0.016   0.367  0.0750  0.6035  0.3901
  383SOL     MW 1532   0.606   0.047   0.324  0.1408 -0.5155  0.3006
  384SOL     OW 1533   0.743   2.979   0.652  0.4248 -0.0002 -0.4854
  384SOL    HW1 1534   0.803   2.959   0.731 -1.5615  1.7522 -0.9046
  384SOL    HW2 1535   0.689   2.901   0.638 -3.1506  2.2735  0.3017
  384SOL     MW 1536   0.744   2.966   0.660 -0.3090  0.5310 -0.4369
  385SOL     OW 1537   1.372   2.080   1.535 -0.7967 -0.0300 -0.2188
  385SOL    HW1 1538   1.431   2.134   1.586 -1.8344 -1.5634 -0.9000
  385SOL    HW2 1539   1.357   1.999   1.587  3.1098  1.7961 -0.0787
  385SOL     MW 1540   1.378   2.076   1.548 -0.4182  0.0086 -0.2902
  386SOL     OW 1541   1.448   0.413   0.904  0.1300  0.6294  0.1773
  386SOL    HW1 1542   1.391   0.420   0.979  2.0223  1.5032  1.0432
  386SOL    HW2 1543   1.534   0.403   0.948  0.1648  1.7420 -0.9795
  386SOL     MW 1544   1.452   0.412   0.920  0.3843  0.8915  0.1389
  387SOL     OW 1545   0.803   2.195   1.570 -0.4604  0.9195  0.4893
  387SOL    HW1 1546   0.869   2.239   1.517 -2.0977 -0.9524  2.8007
  387SOL    HW2 1547   0.827   2.100   1.559  1.5665  0.4904  0.6119
  387SOL     MW 1548   0.815   2.188   1.562 -0.4090  0.6159  0.8104
  388SOL     OW 1549   1.470   2.760   1.362  0.0423 -0.6093  1.0980
  388SOL    HW1 1550   1.457   2.847   1.315  1.0292 -0.4864 -2.8896
  388SOL    HW2 1551   1.456   2.694   1.291  1.9743  0.2558  1.4210
  388SOL     MW 1552   1.467   2.763   1.347  0.4274 -0.4790  0.6145
  389SOL     OW 1553   0.520   0.143   3.073 -0.2619 -0.2648 -0.1111
  389SOL    HW1 1554   0.608   0.104   3.066  0.4962 -1.7934  1.1868
  389SOL    HW2 1555   0.509   0.180   2.988  2.0633  1.6543 -1.5574
  389SOL     MW 1556   0.530   0.143   3.061  0.1449 -0.2133 -0.1307
  390SOL     OW 1557   1.372   0.033   0.751 -0.1870 -0.1750  0.2742
  390SOL    HW1 1558   1.403   0.045   0.662 -0.6415 -0.3850 -2.0151
  390SOL    HW2 1559   1.442   0.078   0.792  1.2245  0.7624 -1.7745
  390SOL     MW 1560   1.385   0.040   0.744 -0.0607 -0.0790 -0.2981
  391SOL     OW 1561   0.352   2.186   1.515 -0.0211 -0.2266 -0.6247
  391SOL    HW1 1562   0.316   2.139   1.590 -0.0495  0.9369  3.5050
  391SOL    HW2 1563   0.304   2.269   1.510 -1.2165 -0.5926 -0.8822
  391SOL     MW 1564   0.341   2.191   1.525 -0.1825 -0.1214 -0.1138
  392SOL     OW 1565   1.971   2.232   0.318 -1.0407 -0.0467  0.4125
  392SOL    HW1 1566   2.039   2.294   0.348  0.0121 -0.4344 -2.5382
  392SOL    HW2 1567   1.887   2.275   0.339  1.3922  1.0493  0.8564
  392SOL     MW 1568   1.969   2.246   0.324 -0.5808  0.0467  0.0818
  393SOL     OW 1569   0.254   2.976   2.874  0.1570  0.0122 -0.3370
  393SOL    HW1 1570   0.325   2.949   2.815  0.7873  3.8197 -0.1688
  393SOL    HW2 1571   0.229   3.072   2.860 -1.3925 -0.3286 -1.1045
  393SOL     MW 1572   0.260   2.985   2.864  0.0357  0.4696 -0.4161
  394SOL     OW 1573   1.046   1.768   1.502  0.0857  0.1686 -0.2005
  394SOL    HW1 1574   1.063   1.779   1.596  2.2066 -0.0154  1.7601
  394SOL    HW2 1575   0.977   1.826   1.475  1.3967 -0.7485  0.2590
  394SOL     MW 1576   1.039   1.777   1.511  0.5385  0.0234  0.1188
  395SOL     OW 1577   0.916   2.954   2.666 -0.2626 -0.3626  1.0701
  395SOL    HW1 1578   0.992   3.003   2.713  1.4557  2.3263  2.3451
  395SOL    HW2 1579   0.963   2.881   2.620 -0.2698  0.0345  0.3224
  395SOL     MW 1580   0.932   2.951   2.666 -0.0368  0.0446  1.1397
  396SOL     OW 1581   0.742   1.896   2.393  0.2063 -0.4378 -1.1130
  396SOL    HW1 1582   0.830   1.902   2.426  1.3122  3.7160  0.4055
  396SOL    HW2 1583   0.715   1.804   2.388  0.9106 -1.4836  0.3731
  396SOL     MW 1584   0.750   1.885   2.396  0.4451 -0.0277 -0.7166
  397SOL     OW 1585   0.961   2.297   1.378  0.2048  0.2374 -0.3749
  397SOL    HW1 1586   0.999   2.318   1.296 -0.0075 -2.0518  0.6019
  397SOL    HW2 1587   1.030   2.314   1.440  0.1918 -0.3794  4.7078
  397SOL     MW 1588   0.975   2.302   1.376  0.1751 -0.1460  0.4246
  398SOL     OW 1589   0.619   2.720   0.629  0.0886 -0.0042  0.2000
  398SOL    HW1 1590   0.566   2.677   0.556  4.3431 -2.2297 -0.6475
  398SOL    HW2 1591   0.700   2.664   0.640 -0.2027 -0.1335  0.6612
  398SOL     MW 1592   0.623   2.707   0.621  0.6115 -0.3149  0.1490
  399SOL     OW 1593   0.302   2.095   0.324  0.6070 -0.0400  0.4967
  399SOL    HW1 1594   0.216   2.133   0.354  0.1968  1.1685  0.1636
  399SOL    HW2 1595   0.321   2.124   0.238  0.5084 -0.1141  1.0403
  399SOL     MW 1596   0.293   2.104   0.316  0.5399  0.1096  0.5245
  400SOL     OW 1597   0.609   1.900   0.087 -0.1712  0.5825 -0.3328
  400SOL    HW1 1598   0.565   1.984   0.108  1.2845 -2.3574 -0.5533
  400SOL    HW2 1599   0.600   1.835   0.157  1.9792 -1.0649 -1.7028
  400SOL     MW 1600   0.602   1.903   0.099  0.3045 -0.0227 -0.5426
  401SOL     OW 1601   0.814   2.070   0.042  0.6231  0.1520  0.1145
  401SOL    HW1 1602   0.899   2.017   0.047 -0.1731 -1.0221  0.3848
  401SOL    HW2 1603   0.744   2.006   0.056 -0.4998 -0.5239 -2.6758
  401SOL     MW 1604   0.816   2.055   0.044  0.3699 -0.0921 -0.2180
  402SOL     OW 1605   0.548   3.009   1.735  0.0293  0.0506  0.4860
  402SOL    HW1 1606   0.630   2.963   1.762  2.4120  0.7777  0.4327
  402SOL    HW2 1607   0.573   3.088   1.694  0.9218 -1.9094 -0.0799
  402SOL     MW 1608   0.562   3.013   1.734  0.4614 -0.1121  0.4043
  403SOL     OW 1609   0.127   0.518   0.401  0.1314  0.1005 -0.0998
  403SOL    HW1 1610   0.220   0.527   0.435  3.1710  0.4962  0.0972
  403SOL    HW2 1611   0.135   0.494   0.303  1.1025  1.0261 -1.2629
  403SOL     MW 1612   0.140   0.516   0.393  0.6606  0.2748 -0.2273
  404SOL     OW 1613   0.950   2.919   0.848 -0.1289  0.4592  0.3061
  404SOL    HW1 1614   1.002   2.865   0.794 -2.6645 -0.5688  1.0786
  404SOL    HW2 1615   0.983   3.003   0.824  2.6227 -0.6566 -1.1521
  404SOL     MW 1616   0.961   2.923   0.838 -0.1004  0.1763  0.2156
  405SOL     OW 1617   0.492   2.462   1.500  0.4579  0.0291  0.4296
  405SOL    HW1 1618   0.508   2.553   1.486 -2.1810 -0.8154 -1.6972
  405SOL    HW2 1619   0.558   2.415   1.453  3.2412 -1.6242  1.2250
  405SOL     MW 1620   0.503   2.468   1.492  0.4770 -0.3004  0.2539
  406SOL     OW 1621   0.408   2.359   1.141  0.0917 -0.1961 -0.9196
  406SOL    HW1 1622   0.315   2.354   1.158 -0.2577  0.4193  2.2329
  406SOL    HW2 1623   0.434   2.272   1.183 -0.2492  1.3357  0.1527
  406SOL     MW 1624   0.399   2.347   1.149  0.0006  0.0872 -0.3622
  407SOL     OW 1625   0.039   2.657   1.159  0.3727  0.0531  0.3728
  407SOL    HW1 1626   0.100   2.652   1.229 -2.1454 -2.0966  1.5637
  407SOL    HW2 1627   0.099   2.680   1.086 -1.5607  3.3175  0.4821
  407SOL     MW 1628   0.055   2.660   1.159 -0.2146  0.2002  0.5443
  408SOL     OW 1629   2.117   2.124   0.757  0.5584 -0.1087  0.3656
  408SOL    HW1 1630   2.039   2.164   0.814 -2.5390 -2.1788 -1.8633
  408SOL    HW2 1631   2.061   2.068   0.692 -1.6356 -0.7927 -0.3155
  408SOL     MW 1632   2.099   2.122   0.756 -0.1397 -0.4721 -0.0183
  409SOL     OW 1633   1.613   0.145   0.850  0.7301 -0.3065 -0.7451
  409SOL    HW1 1634   1.625   0.236   0.865 -1.3336 -0.8658 -0.4615
  409SOL    HW2 1635   1.619   0.111   0.937 -1.7449  4.1981  0.1167
  409SOL     MW 1636   1.615   0.152   0.863  0.1313  0.2140 -0.5940
  410SOL     OW 1637   1.082   2.407   1.153  0.0898  0.1771 -0.1731
  410SOL    HW1 1638   1.035   2.456   1.089  0.2495 -0.7894  0.7757
  410SOL    HW2 1639   1.157   2.367   1.105 -1.5539 -0.4166 -0.7748
  410SOL     MW 1640   1.086   2.408   1.139 -0.1060 -0.0288 -0.1273
  411SOL     OW 1641   2.012   2.954   2.914 -0.1135 -0.2361 -0.2614
  411SOL    HW1 1642   1.997   2.890   2.844  0.1189 -0.6318 -1.5409
  411SOL    HW2 1643   1.992   3.040   2.878  0.0581 -0.7686  0.1983
  411SOL     MW 1644   2.007   2.957   2.900 -0.0602 -0.3586 -0.3696
  412SOL     OW 1645   1.033   2.220   0.607 -0.0352 -0.2889 -0.0236
  412SOL    HW1 1646   1.080   2.299   0.635  0.4304  1.8494 -2.2612
  412SOL    HW2 1647   0.966   2.253   0.545  0.3736  1.6451 -0.9065
  412SOL     MW 1648   1.031   2.234   0.603  0.0801  0.2484 -0.4353
  413SOL     OW 1649   0.587   2.726   0.105  0.1504 -0.5960 -0.5544
  413SOL    HW1 1650   0.653   2.648   0.113  3.3663  0.5037  1.1676
  413SOL    HW2 1651   0.616   2.767   0.025 -1.0620 -0.8008  2.1824
  413SOL     MW 1652   0.599   2.721   0.096  0.4147 -0.4779  0.0339
  414SOL     OW 1653   1.988   3.040   1.095 -0.0816 -0.1578 -0.7410
  414SOL    HW1 1654   1.964   3.129   1.128 -0.1933 -0.7558  1.5205
  414SOL    HW2 1655   2.059   3.050   1.033  2.7169 -0.5671 -0.0850
  414SOL     MW 1656   1.994   3.053   1.091  0.2729 -0.2907 -0.3561
  415SOL     OW 1657   1.629   2.834   1.125 -0.1281 -0.3264 -0.1759
  415SOL    HW1 1658   1.638   2.800   1.214  0.1082 -1.7037 -1.0699
  415SOL    HW2 1659   1.692   2.784   1.072 -1.1720  0.2629 -1.8316
  415SOL     MW 1660   1.638   2.823   1.130 -0.2346 -0.4303 -0.5123
  416SOL     OW 1661   0.601   1.708   1.511  0.1592 -0.4617 -0.1059
  416SOL    HW1 1662   0.537   1.687   1.450  3.5388  0.0310  0.1760
  416SOL    HW2 1663   0.677   1.667   1.471 -1.1756  2.1466 -1.5481
  416SOL     MW 1664   0.603   1.700   1.498  0.4290 -0.0526 -0.2590
  417SOL     OW 1665   0.998   0.009   2.073 -0.3082  0.0274  0.3363
  417SOL    HW1 1666   0.937   0.045   2.136  1.2381 -0.7528  1.6047
  417SOL    HW2 1667   0.943  -0.022   2.001 -0.6485  1.9391  1.2715
  417SOL     MW 1668   0.982   0.009   2.072 -0.1491  0.1767  0.6271
  418SOL     OW 1669   0.760   2.967   0.136 -0.2381 -0.5802 -0.2352
  418SOL    HW1 1670   0.830   2.935   0.077  0.0353 -0.8445  0.0866
  418SOL    HW2 1671   0.693   2.896   0.145 -0.4682 -2.0481 -0.7812
  418SOL     MW 1672   0.760   2.954   0.129 -0.2323 -0.8088 -0.2648
  419SOL     OW 1673   0.575   2.681   1.349  0.6903  0.0355  0.2549
  419SOL    HW1 1674   0.574   2.762   1.407  0.8752  0.8864  1.3451
  419SOL    HW2 1675   0.656   2.635   1.381  2.3195 -1.6688  0.8800
  419SOL     MW 1676   0.585   2.685   1.361  0.9297 -0.0771  0.4812
  420SOL     OW 1677   0.789   2.255   1.032  0.3472  0.2601  0.0003
  420SOL    HW1 1678   0.702   2.283   1.052  1.7215  0.5218 -0.0207
  420SOL    HW2 1679   0.844   2.334   1.035 -0.1275 -1.9750 -0.9654
  420SOL     MW 1680   0.785   2.269   1.035  0.4659 -0.0003 -0.1299
  421SOL     OW 1681   2.901   0.155   0.030 -0.3463  0.3980  0.2108
  421SOL    HW1 1682   2.820   0.137  -0.021 -1.9508  1.8063  2.5613
  421SOL    HW2 1683   2.929   0.065   0.052  0.2071  1.0578 -0.0932
  421SOL     MW 1684   2.894   0.141   0.026 -0.4850  0.6709  0.4808
  422SOL     OW 1685   0.861   2.512   0.981  0.4256 -0.4450 -0.0157
  422SOL    HW1 1686   0.771   2.526   1.021  0.5840 -1.7857  0.0936
  422SOL    HW2 1687   0.854   2.500   0.884  1.0643 -0.7464  0.2365
  422SOL     MW 1688   0.848   2.512   0.974  0.5308 -0.6616  0.0320
  423SOL     OW 1689   1.458   0.068   0.474  0.3000  0.3702 -0.2071
  423SOL    HW1 1690   1.509   0.049   0.386  1.2506 -2.1434  0.2676
  423SOL    HW2 1691   1.487   0.162   0.484  0.3823 -2.4895  0.1089
  423SOL     MW 1692   1.468   0.078   0.464  0.4363 -0.3388 -0.1028
  424SOL     OW 1693   0.636   2.268   1.376  0.1854 -0.3427 -0.0702
  424SOL    HW1 1694   0.583   2.189   1.358  0.5667  1.0144  3.2709
  424SOL    HW2 1695   0.697   2.245   1.448  1.5479  0.8014 -2.9446
  424SOL     MW 1696   0.637   2.255   1.383  0.4155 -0.0127 -0.0086
  425SOL     OW 1697   1.678   2.800   2.044  0.3673 -0.1670 -0.3156
  425SOL    HW1 1698   1.676   2.829   1.951  0.9587  0.8265 -2.8608
  425SOL    HW2 1699   1.733   2.720   2.045 -1.1395 -0.2362 -1.5462
  425SOL     MW 1700   1.685   2.794   2.032  0.2465 -0.0450 -0.8138
  426SOL     OW 1701   0.886   1.719   1.960 -0.5415 -0.1616 -0.1832
  426SOL    HW1 1702   0.805   1.742   1.904 -1.6723  0.5265 -3.0997
  426SOL    HW2 1703   0.884   1.785   2.027  0.4970 -1.3412 -1.9443
  426SOL     MW 1704   0.875   1.731   1.961 -0.5537 -0.2265 -0.8004
  427SOL     OW 1705   0.383   1.713   1.882  0.7097  0.2820  0.0415
  427SOL    HW1 1706   0.418   1.643   1.829 -0.8964  4.0406  0.6005
  427SOL    HW2 1707   0.314   1.680   1.933 -0.5091  0.6214  1.7855
  427SOL     MW 1708   0.379   1.699   1.882  0.3369  0.8227  0.3453
  428SOL     OW 1709   0.578   2.590   1.086 -0.0063  0.0085 -0.1239
  428SOL    HW1 1710   0.521   2.520   1.112 -1.2166  2.6877  0.7223
  428SOL    HW2 1711   0.568   2.652   1.164  2.3714 -2.3755 -0.7573
  428SOL     MW 1712   0.569   2.589   1.100  0.1477  0.0475 -0.0958
  429SOL     OW 1713   1.177   2.716   1.104 -0.8080 -0.3819 -0.0952
  429SOL    HW1 1714   1.097   2.720   1.158  1.3405  3.7206  0.7736
  429SOL    HW2 1715   1.194   2.803   1.065  0.6937  0.6711  1.2137
  429SOL     MW 1716   1.168   2.728   1.106 -0.3264  0.2983  0.1921
  430SOL     OW 1717   1.161   2.771   0.743  0.1653  0.2329  0.5681
  430SOL    HW1 1718   1.154   2.678   0.772 -1.9900 -1.5276  0.9034
  430SOL    HW2 1719   1.135   2.776   0.645  0.2594 -3.1071  0.9037
  430SOL     MW 1720   1.157   2.760   0.734 -0.1067 -0.4401  0.6566
  431SOL     OW 1721   0.309   1.934   1.117  0.0271  0.3389  0.1215
  431SOL    HW1 1722   0.368   1.863   1.084  3.0098 -3.9948  1.3408
  431SOL    HW2 1723   0.273   1.981   1.039 -0.7041  0.3954 -1.0523
  431SOL     MW 1724   0.312   1.931   1.103  0.3242 -0.2254  0.1275
  432SOL     OW 1725   0.064   3.093   1.136 -0.0768 -0.4913 -0.7968
  432SOL    HW1 1726   0.053   3.142   1.219 -2.6351 -0.4572  1.0103
  432SOL    HW2 1727   0.035   3.005   1.157 -1.9962  3.7653  2.5531
  432SOL     MW 1728   0.059   3.088   1.149 -0.6676  0.0748 -0.1164
  433SOL     OW 1729   0.636   2.916   1.462 -0.5063 -0.1724 -0.1699
  433SOL    HW1 1730   0.627   2.998   1.508  0.0514  0.3318  0.3449
  433SOL    HW2 1731   0.729   2.884   1.504 -0.6857  0.9729  1.2469
  433SOL     MW 1732   0.647   2.923   1.474 -0.4564  0.0452  0.0849
  434SOL     OW 1733   1.524   2.833   1.628  0.5403  0.6124 -0.1001
  434SOL    HW1 1734   1.443   2.874   1.653 -0.3267  0.4934  0.6766
  434SOL    HW2 1735   1.517   2.806   1.533  0.5581  0.4706 -1.1469
  434SOL     MW 1736   1.513   2.835   1.618  0.4283  0.5780 -0.1357
  435SOL     OW 1737   2.746   1.764   0.211 -0.1699 -0.4374 -0.2199
  435SOL    HW1 1738   2.805   1.826   0.178  2.1372 -0.5521  0.6621
  435SOL    HW2 1739   2.659   1.790   0.185  1.3915  0.5544  0.2660
  435SOL     MW 1740   2.742   1.776   0.203  0.3405 -0.3217 -0.0394
  436SOL     OW 1741   1.346   2.705   0.325 -0.8458  0.3258 -0.5292
  436SOL    HW1 1742   1.389   2.662   0.398  2.5073  2.3123 -1.6166
  436SOL    HW2 1743   1.345   2.796   0.353 -2.6421 -0.3350 -0.1523
  436SOL     MW 1744   1.352   2.711   0.338 -0.6404  0.5007 -0.6229
  437SOL     OW 1745   1.044   3.004   1.289 -0.7297  0.7466 -0.3733
  437SOL    HW1 1746   1.053   3.061   1.214 -1.4778  2.4592  0.9190
  437SOL    HW2 1747   1.002   2.928   1.255  0.7381  1.0901 -0.2068
  437SOL     MW 1748   1.040   3.002   1.275 -0.6347  1.0179 -0.1808
  438SOL     OW 1749   0.906   2.714   1.911 -0.1220  0.0707  0.2140
  438SOL    HW1 1750   0.896   2.671   2.001  3.4125  0.4186  0.5000
  438SOL    HW2 1751   0.853   2.660   1.856  0.4049  0.4569 -2.3098
  438SOL     MW 1752   0.898   2.701   1.915  0.4139  0.1676 -0.0813
  439SOL     OW 1753   1.228   2.076   0.425 -0.3051 -0.2067  0.2069
  439SOL    HW1 1754   1.146   2.089   0.478  0.0346  1.2551  1.3969
  439SOL    HW2 1755   1.230   2.154   0.362  0.8062 -0.3012 -0.1806
  439SOL     MW 1756   1.217   2.088   0.424 -0.1137 -0.0263  0.3127
  440SOL     OW 1757   1.768   2.950   3.028 -0.8057 -0.6350  0.1222
  440SOL    HW1 1758   1.785   2.918   3.118  0.4550  0.6820  1.3332
  440SOL    HW2 1759   1.852   2.958   2.988  0.4291 -1.0957 -1.2354
  440SOL     MW 1760   1.781   2.947   3.035 -0.4765 -0.5220  0.1029
  441SOL     OW 1761   0.426   2.646   0.426  1.2740 -0.1493  0.4321
  441SOL    HW1 1762   0.388   2.612   0.348 -1.6810 -0.3072 -0.8617
  441SOL    HW2 1763   0.448   2.736   0.413  0.1543 -1.7713 -0.6315
  441SOL     MW 1764   0.424   2.653   0.414  0.7364 -0.3841  0.1210
  442SOL     OW 1765   0.032   2.334   0.641  0.3069  0.5414  0.4723
  442SOL    HW1 1766   0.051   2.422   0.600 -0.0136  2.0798 -4.5715
  442SOL    HW2 1767  -0.062   2.332   0.659 -0.8479  0.4983  1.7670
  442SOL     MW 1768   0.022   2.345   0.638  0.1122  0.7387 -0.0223
  443SOL     OW 1769   1.478   1.780   1.884 -0.0923 -0.5052 -0.3974
  443SOL    HW1 1770   1.457   1.820   1.803 -1.4152 -1.2607  1.1544
  443SOL    HW2 1771   1.460   1.686   1.878 -2.4644  1.5975 -0.8133
  443SOL     MW 1772   1.473   1.773   1.873 -0.5798 -0.3275 -0.2475
  444SOL     OW 1773   0.995   2.604   1.635  0.1078 -0.2919 -0.2470
  444SOL    HW1 1774   1.050   2.563   1.703  0.8794 -1.6785 -0.4287
  444SOL    HW2 1775   0.903   2.609   1.662 -1.8487  0.2464 -0.9861
  444SOL     MW 1776   0.990   2.599   1.647 -0.0486 -0.4039 -0.3685
  445SOL     OW 1777   1.257   0.157   1.409  0.0429  0.1617 -0.0073
  445SOL    HW1 1778   1.213   0.205   1.475  1.2162  0.0172  0.6654
  445SOL    HW2 1779   1.208   0.165   1.328 -3.1345 -0.7372  0.5623
  445SOL     MW 1780   1.245   0.164   1.407 -0.2215  0.0241  0.1566
  446SOL     OW 1781   2.778   2.851   1.038 -0.1227  0.4805 -0.5874
  446SOL    HW1 1782   2.727   2.885   0.964  0.6114 -0.2955 -2.3440
  446SOL    HW2 1783   2.825   2.774   1.014 -2.1884  2.2581  1.6760
  446SOL     MW 1784   2.778   2.845   1.025 -0.2984  0.6127 -0.5206
  447SOL     OW 1785   0.038   1.934   1.551  0.8087 -0.1103  0.0498
  447SOL    HW1 1786   0.060   1.898   1.642 -0.2938  2.0312  1.9635
  447SOL    HW2 1787  -0.036   1.889   1.505 -1.0756 -2.9947 -0.1273
  447SOL     MW 1788   0.031   1.923   1.557  0.4146 -0.2083  0.2790
  448SOL     OW 1789   1.747   2.402   1.670 -1.1090  0.0064 -0.1868
  448SOL    HW1 1790   1.685   2.336   1.649  0.6365 -0.0746  1.0709
  448SOL    HW2 1791   1.704   2.485   1.662 -0.0961  2.7927  0.2501
  448SOL     MW 1792   1.733   2.404   1.666 -0.7451  0.3633  0.0368
  449SOL     OW 1793   0.877   2.939   0.403 -0.0537  0.4791  0.2405
  449SOL    HW1 1794   0.819   2.922   0.329  1.0480  1.4908  0.3409
  449SOL    HW2 1795   0.825   2.947   0.482  0.6302 -0.3557 -0.4060
  449SOL     MW 1796   0.862   2.938   0.404  0.1819  0.5025  0.1684
  450SOL     OW 1797   1.170   2.496   0.774 -0.5534  0.1575  0.0151
  450SOL    HW1 1798   1.185   2.442   0.858 -1.1373 -0.3023  3.0230
  450SOL    HW2 1799   1.237   2.474   0.708 -1.1227  1.8964 -1.2780
  450SOL     MW 1800   1.181   2.486   0.776 -0.7056  0.3262  0.2414
  451SOL     OW 1801   0.529   1.923   1.699  0.1953 -0.6383 -0.3573
  451SOL    HW1 1802   0.590   1.880   1.639  0.1273  1.5904  1.1146
  451SOL    HW2 1803   0.451   1.930   1.637 -1.0402 -1.4372 -1.7171
  451SOL     MW 1804   0.527   1.918   1.683  0.0233 -0.4496 -0.3425
  452SOL     OW 1805   0.343   2.614   0.020 -0.1710  0.3524 -0.1645
  452SOL    HW1 1806   0.411   2.673   0.052 -0.2431  2.6070 -0.9939
  452SOL    HW2 1807   0.277   2.686   0.001 -2.2701  2.0031  0.0400
  452SOL     MW 1808   0.343   2.631   0.022 -0.4574  0.8677 -0.2469
  453SOL     OW 1809   0.290   3.062   1.562 -0.4614 -0.5629  0.1244
  453SOL    HW1 1810   0.313   2.994   1.627 -0.5229 -1.3729 -0.7794
  453SOL    HW2 1811   0.320   3.026   1.475  0.6266  0.4497 -1.4734
  453SOL     MW 1812   0.297   3.048   1.559 -0.3260 -0.5361 -0.2056
  454SOL     OW 1813   0.926   2.759   1.241  0.3813 -0.1006 -0.0352
  454SOL    HW1 1814   0.894   2.692   1.313 -0.6449  0.0848  1.9565
  454SOL    HW2 1815   0.837   2.779   1.211  0.2062 -1.8416 -0.4397
  454SOL     MW 1816   0.910   2.753   1.247  0.2228 -0.3059  0.1742
  455SOL     OW 1817   1.747   2.883   0.199  0.8011 -0.2938 -0.7275
  455SOL    HW1 1818   1.776   2.864   0.289 -1.8815 -0.6965 -2.2165
  455SOL    HW2 1819   1.682   2.810   0.178  1.2223 -0.5113  0.8205
  455SOL     MW 1820   1.742   2.870   0.208  0.5027 -0.3756 -0.7197
  456SOL     OW 1821   2.760   0.272   1.463  0.4813 -0.0124  0.2172
  456SOL    HW1 1822   2.781   0.201   1.397  0.7686 -1.3745 -0.7588
  456SOL    HW2 1823   2.800   0.349   1.431 -2.1135 -1.4111  0.1291
  456SOL     MW 1824   2.768   0.273   1.450  0.1769 -0.3766  0.0768
  457SOL     OW 1825   0.784   1.699   3.046 -0.3024 -0.1810 -0.6891
  457SOL    HW1 1826   0.693   1.680   3.057 -0.1579  1.3279  1.1326
  457SOL    HW2 1827   0.800   1.752   3.120 -0.6728 -0.5437 -0.9795
  457SOL     MW 1828   0.774   1.704   3.057 -0.3322 -0.0298 -0.4871
  458SOL     OW 1829   1.356   1.494   0.705 -0.3152  0.6352  0.1654
  458SOL    HW1 1830   1.303   1.550   0.648  2.3184 -1.1992  1.8197
  458SOL    HW2 1831   1.328   1.408   0.681  0.9933  1.7311 -0.4037
  458SOL     MW 1832   1.345   1.490   0.694  0.2049  0.5378  0.3086
  459SOL     OW 1833   1.590   3.092   0.253  0.5342 -0.0440  0.0038
  459SOL    HW1 1834   1.637   3.010   0.226 -0.2151 -1.4678 -1.3156
  459SOL    HW2 1835   1.529   3.112   0.173 -2.3729 -0.5738  0.3855
  459SOL     MW 1836   1.588   3.084   0.239  0.0518 -0.3018 -0.1199
  460SOL     OW 1837   1.787   2.229   0.651 -0.2387 -0.0572  0.1772
  460SOL    HW1 1838   1.706   2.199   0.687 -0.4207  1.7805  0.8809
  460SOL    HW2 1839   1.839   2.145   0.649 -0.8553 -0.9640  2.7754
  460SOL     MW 1840   1.783   2.214   0.656 -0.3440  0.0656  0.6129
  461SOL     OW 1841   0.433   2.423   0.600 -0.3611 -0.1688 -0.6890
  461SOL    HW1 1842   0.413   2.499   0.548  0.2414  1.7226 -1.2184
  461SOL    HW2 1843   0.450   2.460   0.688 -0.0733 -1.3438 -0.1414
  461SOL     MW 1844   0.433   2.438   0.605 -0.2436 -0.0743 -0.6866
  462SOL     OW 1845   0.279   0.230   1.301 -0.6418 -0.0543 -0.5307
  462SOL    HW1 1846   0.295   0.215   1.208  0.0108 -0.4097 -1.8602
  462SOL    HW2 1847   0.359   0.248   1.350 -0.5117 -0.3279 -2.0363
  462SOL     MW 1848   0.292   0.231   1.295 -0.5386 -0.1373 -0.9048
  463SOL     OW 1849   1.067   0.069   0.751 -0.1812  0.2499  0.0435
  463SOL    HW1 1850   1.147   0.053   0.700  3.4337 -3.8417  2.5265
  463SOL    HW2 1851   1.001   0.110   0.693  1.9570  2.9897  1.0106
  463SOL     MW 1852   1.069   0.073   0.737  0.5779  0.0715  0.4987
  464SOL     OW 1853   0.771   3.096   2.277 -0.2228  0.0554  0.0435
  464SOL    HW1 1854   0.739   3.015   2.316 -0.6750  2.6110 -0.0047
  464SOL    HW2 1855   0.822   3.141   2.346 -1.5379 -2.1046 -1.5095
  464SOL     MW 1856   0.773   3.091   2.291 -0.4560  0.1076 -0.1678
  465SOL     OW 1857   0.782   0.338   0.411  0.1965  0.9616  0.2111
  465SOL    HW1 1858   0.803   0.269   0.480 -0.3722 -2.0281 -2.0208
  465SOL    HW2 1859   0.762   0.299   0.329  2.4674 -0.3640 -0.3710
  465SOL     MW 1860   0.782   0.324   0.409  0.4211  0.3922 -0.1602
  466SOL     OW 1861   1.095   2.032   0.784  0.0479 -0.3169  0.1987
  466SOL    HW1 1862   1.070   1.953   0.744  0.0022  1.9966  1.2075
  466SOL    HW2 1863   1.072   2.106   0.718  1.2452  2.1335  1.3353
  466SOL     MW 1864   1.088   2.032   0.770  0.1999  0.3116  0.4818
  467SOL     OW 1865   1.279   2.315   0.977  0.5973 -0.1980 -0.6445
  467SOL    HW1 1866   1.369   2.328   1.009  1.0437  2.8794 -0.7839
  467SOL    HW2 1867   1.293   2.223   0.952  0.7313 -0.8732  0.1197
  467SOL     MW 1868   1.293   2.305   0.978  0.6739  0.1190 -0.5621
  468SOL     OW 1869   0.512   2.659   1.878  0.2052 -0.1708 -0.2558
  468SOL    HW1 1870   0.467   2.577   1.847 -1.3006  0.2723 -2.5328
  468SOL    HW2 1871   0.448   2.731   1.871  0.0862  5.9942  0.0515
  468SOL     MW 1872   0.497   2.658   1.873 -0.0092  0.7011 -0.5157
  469SOL     OW 1873   0.378   2.108   1.853 -0.7382 -0.1157  0.1447
  469SOL    HW1 1874   0.292   2.064   1.866  1.9772 -0.0235 -1.9834
  469SOL    HW2 1875   0.433   2.044   1.806 -1.2658 -2.0064 -0.7676
  469SOL     MW 1876   0.374   2.094   1.848 -0.4496 -0.3530 -0.2564
  470SOL     OW 1877   3.049   2.614   0.099 -0.0994 -0.1311 -0.0488
  470SOL    HW1 1878   2.971   2.604   0.158 -0.5079 -0.0786 -0.6475
  470SOL    HW2 1879   3.009   2.605   0.009 -0.2089 -1.5213 -1.4159
  470SOL     MW 1880   3.033   2.611   0.095 -0.1677 -0.3076 -0.3082
  471SOL     OW 1881   1.171   2.609   1.393  0.1042  0.4361 -0.6010
  471SOL    HW1 1882   1.115   2.582   1.466 -2.1089  0.3397  0.0068
  471SOL    HW2 1883   1.151   2.551   1.323 -2.3248  1.2766 -2.0991
  471SOL     MW 1884   1.161   2.598   1.393 -0.5083  0.5343 -0.7185
  472SOL     OW 1885   2.853   2.121   0.354  0.8260  0.2199 -0.1395
  472SOL    HW1 1886   2.876   2.084   0.271  2.8332 -0.8237  1.5878
  472SOL    HW2 1887   2.818   2.050   0.401 -3.3721  1.0122 -0.9478
  472SOL     MW 1888   2.851   2.106   0.349  0.5369  0.1867 -0.0182
  473SOL     OW 1889   0.810   2.565   1.404 -0.2356  0.1255 -0.1139
  473SOL    HW1 1890   0.812   2.474   1.373  0.3909  0.1133  1.1793
  473SOL    HW2 1891   0.869   2.569   1.484  2.9360  0.0386 -0.5913
  473SOL     MW 1892   0.818   2.553   1.410  0.2655  0.1125 -0.0062
  474SOL     OW 1893   0.677   2.318   1.799 -0.0492 -0.0070  0.4591
  474SOL    HW1 1894   0.771   2.319   1.830  1.1211  1.8789  0.0793
  474SOL    HW2 1895   0.685   2.260   1.728  0.0487  1.6851  2.3806
  474SOL     MW 1896   0.691   2.310   1.794  0.1181  0.4651  0.6625
  475SOL     OW 1897   1.598   3.072   1.530 -0.5798 -0.6405  0.2932
  475SOL    HW1 1898   1.530   3.045   1.463 -0.2678  0.3434 -2.6201
  475SOL    HW2 1899   1.633   2.986   1.561  1.9187  1.2849  2.4669
  475SOL     MW 1900   1.593   3.057   1.525 -0.2090 -0.2567  0.1956
  476SOL     OW 1901   1.424   2.610   1.130  0.5532  0.5812  1.0214
  476SOL    HW1 1902   1.326   2.623   1.111  0.6002 -1.0284 -1.1054
  476SOL    HW2 1903   1.456   2.695   1.091  0.7115  3.2406  2.4798
  476SOL     MW 1904   1.416   2.623   1.122  0.5802  0.7197  0.9332
  477SOL     OW 1905   0.850   2.567   0.634 -0.0670 -0.2148 -0.4088
  477SOL    HW1 1906   0.908   2.620   0.578 -1.4459  0.1728  1.4222
  477SOL    HW2 1907   0.848   2.483   0.597  1.5790 -0.2681 -1.8528
  477SOL     MW 1908   0.858   2.563   0.622 -0.0317 -0.1707 -0.3577
  478SOL     OW 1909   0.204   2.664   0.947  0.2075 -0.1817  0.1297
  478SOL    HW1 1910   0.242   2.743   0.900  2.3804 -0.0879 -0.3365
  478SOL    HW2 1911   0.257   2.592   0.909  0.4621  0.2163 -0.6272
  478SOL     MW 1912   0.216   2.665   0.936  0.5278 -0.1168 -0.0317
  479SOL     OW 1913   1.412   1.996   1.281 -0.3728  0.3001 -0.1517
  479SOL    HW1 1914   1.397   2.015   1.373  1.3523  0.2454 -1.0020
  479SOL    HW2 1915   1.476   1.922   1.282 -1.3888  1.1614 -0.6353
  479SOL     MW 1916   1.419   1.989   1.294 -0.2793  0.4066 -0.3277
  480SOL     OW 1917   2.008   2.459   1.326 -0.0737  0.2714  0.5586
  480SOL    HW1 1918   2.018   2.361   1.337  0.6315 -0.8031 -0.2883
  480SOL    HW2 1919   2.013   2.469   1.231 -2.0590 -1.4829 -1.6149
  480SOL     MW 1920   2.010   2.447   1.315 -0.2426 -0.1019  0.1601
  481SOL     OW 1921   1.038   0.081   1.064  0.3019  0.6678  0.6147
  481SOL    HW1 1922   1.093   0.026   1.008  1.1261  1.7498 -0.0034
  481SOL    HW2 1923   1.085   0.158   1.086  0.3291  0.7352 -0.7666
  481SOL     MW 1924   1.051   0.084   1.059  0.4142  0.8194  0.3509
  482SOL     OW 1925   1.106   3.083   0.285 -0.1143  0.5443 -0.3045
  482SOL    HW1 1926   1.033   3.026   0.327  1.0685 -1.2409  1.7138
  482SOL    HW2 1927   1.088   3.172   0.310 -0.9330  0.5209  0.1863
  482SOL     MW 1928   1.094   3.087   0.294 -0.0663  0.3056  0.0265
  483SOL     OW 1929   0.411   2.991   0.437  0.2503  0.3853  0.1398
  483SOL    HW1 1930   0.324   2.989   0.392 -2.1590 -1.2011 -1.6129
  483SOL    HW2 1931   0.392   3.032   0.521  1.0365  2.2137  1.5357
  483SOL     MW 1932   0.397   2.996   0.442  0.0362  0.4172  0.0927
  484SOL     OW 1933   1.877   1.945   1.507  0.0096  0.4347 -0.3176
  484SOL    HW1 1934   1.891   2.025   1.453  1.4052  0.3247  1.0338
  484SOL    HW2 1935   1.839   1.983   1.585 -0.9484 -1.0771  1.6560
  484SOL     MW 1936   1.874   1.960   1.510  0.0674  0.2207  0.1211
  485SOL     OW 1937   0.570   2.375   0.238  0.1055  0.7585 -0.1980
  485SOL    HW1 1938   0.602   2.365   0.331 -0.1291  1.5317 -0.1790
  485SOL    HW2 1939   0.474   2.388   0.241  0.6069 -0.6744 -1.4969
  485SOL     MW 1940   0.562   2.376   0.251  0.1407  0.6714 -0.3669
  486SOL     OW 1941   0.178   2.420   1.490  0.2653  0.3554  0.3208
  486SOL    HW1 1942   0.218   2.504   1.486 -0.3824  1.1435 -0.0553
  486SOL    HW2 1943   0.171   2.405   1.588  1.3645 -0.6595 -0.3777
  486SOL     MW 1944   0.183   2.429   1.502  0.3249  0.3255  0.1790
  487SOL     OW 1945   1.209   1.714   1.041 -0.1190 -0.2236 -0.2993
  487SOL    HW1 1946   1.169   1.800   1.062  0.5727  3.5757 -0.9325
  487SOL    HW2 1947   1.301   1.738   1.027 -0.7521  1.7507 -1.5988
  487SOL     MW 1948   1.216   1.729   1.042 -0.1113  0.5382 -0.5543
  488SOL     OW 1949   1.619   1.823   0.561 -0.0537 -0.3601 -0.4528
  488SOL    HW1 1950   1.691   1.842   0.498  1.9500  1.4751  0.3058
  488SOL    HW2 1951   1.562   1.901   0.539 -1.6600 -1.6419  0.3232
  488SOL     MW 1952   1.621   1.835   0.550 -0.0013 -0.2871 -0.2503
  489SOL     OW 1953   0.783   0.843   0.617  0.5093 -0.2148 -0.2935
  489SOL    HW1 1954   0.795   0.763   0.563 -0.0245  0.0579  0.4415
  489SOL    HW2 1955   0.747   0.810   0.698  1.2877  0.0981 -1.4914
  489SOL     MW 1956   0.780   0.828   0.621  0.5416 -0.1376 -0.3546
  490SOL     OW 1957   1.482   2.059   0.510 -0.1417 -0.0852  0.1793
  490SOL    HW1 1958   1.503   2.142   0.462  0.9661  2.7577  0.6786
  490SOL    HW2 1959   1.384   2.055   0.492  1.9462  2.7201  1.1516
  490SOL     MW 1960   1.472   2.069   0.501  0.2799  0.6601  0.3735
  491SOL     OW 1961   1.289   2.964   0.433 -0.7171 -0.0556 -0.2495
  491SOL    HW1 1962   1.347   3.044   0.446  2.0917  2.8718  1.7761
  491SOL    HW2 1963   1.214   3.001   0.383  0.3943 -2.0715 -0.2255
  491SOL     MW 1964   1.287   2.979   0.428 -0.1998  0.0647  0.0209
  492SOL     OW 1965   1.511   2.189   0.729  0.8285  0.2788  0.1009
  492SOL    HW1 1966   1.500   2.137   0.650 -0.8007  0.2425 -0.4268
  492SOL    HW2 1967   1.467   2.143   0.800 -1.0976  3.0027 -1.4933
  492SOL     MW 1968   1.504   2.176   0.728  0.3594  0.6334 -0.1791
  493SOL     OW 1969   0.158   2.997   0.331  0.1004 -0.2483 -0.3151
  493SOL    HW1 1970   0.099   3.058   0.382 -1.3739  0.3741 -1.2426
  493SOL    HW2 1971   0.166   3.030   0.247 -0.9196 -0.5407  0.9152
  493SOL     MW 1972   0.151   3.010   0.327 -0.2287 -0.2048 -0.2752
  494SOL     OW 1973   0.421   2.436   1.764 -0.5065  0.8814 -0.3479
  494SOL    HW1 1974   0.479   2.368   1.802 -1.7309 -0.4180 -0.1872
  494SOL    HW2 1975   0.459   2.443   1.674  3.1321  1.1777  0.7303
  494SOL     MW 1976   0.434   2.428   1.757 -0.1880  0.7491 -0.1845
  495SOL     OW 1977   2.853   1.707   2.592 -0.8574 -0.0438  0.0124
  495SOL    HW1 1978   2.824   1.798   2.594 -1.1296  2.1192  0.2329
  495SOL    HW2 1979   2.837   1.669   2.682  1.3189  1.9798 -1.4381
  495SOL     MW 1980   2.847   1.714   2.604 -0.6062  0.5086 -0.1499
  496SOL     OW 1981   2.931   2.366   2.691  0.2387  0.0735 -0.6183
  496SOL    HW1 1982   2.990   2.295   2.727  0.4821  0.2934 -1.2302
  496SOL    HW2 1983   2.987   2.443   2.693  0.6615 -0.6385  1.4215
  496SOL     MW 1984   2.946   2.367   2.696  0.3266  0.0085 -0.4299
  497SOL     OW 1985   1.604   2.201   2.617 -0.4725  0.1074 -0.1320
  497SOL    HW1 1986   1.536   2.151   2.578  0.5005 -1.1657  0.7307
  497SOL    HW2 1987   1.618   2.161   2.705 -1.6865 -0.2703  1.5288
  497SOL     MW 1988   1.597   2.189   2.623 -0.5043 -0.1104  0.2010
  498SOL     OW 1989   1.456   2.688   2.362  0.3539 -0.3977  0.5208
  498SOL    HW1 1990   1.457   2.593   2.378  3.7567 -1.2306  1.4423
  498SOL    HW2 1991   1.542   2.714   2.334 -3.5536  0.7038 -0.4288
  498SOL     MW 1992   1.468   2.679   2.360  0.2873 -0.3623  0.5171
  499SOL     OW 1993   1.012   0.149   3.071  0.3364  0.3384 -0.4606
  499SOL    HW1 1994   0.946   0.174   3.137 -4.5332  2.1893 -0.0288
  499SOL    HW2 1995   1.045   0.055   3.083  2.0359 -0.7280  1.9044
  499SOL     MW 1996   1.007   0.140   3.081 -0.0819  0.4419 -0.0916
  500SOL     OW 1997   1.118   2.493   2.755 -0.6507 -0.4359 -0.0839
  500SOL    HW1 1998   1.168   2.451   2.825 -0.8429 -2.0999  0.2075
  500SOL    HW2 1999   1.037   2.520   2.795  0.8874  1.2537 -0.6584
  500SOL     MW 2000   1.114   2.491   2.770 -0.4731 -0.4325 -0.1213
  501SOL     OW 2001   1.817   2.203   3.092 -0.6103 -0.3030 -0.0208
  501SOL    HW1 2002   1.768   2.283   3.115  1.3276 -1.1402 -0.2592
  501SOL    HW2 2003   1.913   2.229   3.086 -1.1926 -2.3226 -3.5426
  501SOL     MW 2004   1.823   2.217   3.095 -0.4314 -0.6799 -0.5169
  502SOL     OW 2005   0.155   2.831   3.081 -0.0200 -0.4730 -0.1190
  502SOL    HW1 2006   0.088   2.781   3.036  2.1441  0.6518  1.5500
  502SOL    HW2 2007   0.206   2.876   3.005 -2.6837 -0.8237 -0.3368
  502SOL     MW 2008   0.153   2.830   3.065 -0.0859 -0.3709  0.0725
  503SOL     OW 2009   1.009   2.842   2.169 -0.5083  0.7115 -0.2806
  503SOL    HW1 2010   1.029   2.820   2.077 -0.3010  1.0066 -0.9276
  503SOL    HW2 2011   1.005   2.931   2.147 -0.3569 -1.2997  0.8671
  503SOL     MW 2012   1.011   2.851   2.154 -0.4610  0.4851 -0.2145
  504SOL     OW 2013   0.046   2.698   2.121 -0.2766  0.7644  0.5237
  504SOL    HW1 2014   0.080   2.621   2.075 -1.9227 -0.8364  3.1040
  504SOL    HW2 2015   0.011   2.663   2.198  1.1273 -0.6646 -2.4559
  504SOL     MW 2016   0.046   2.683   2.125 -0.3085  0.3647  0.4710
  505SOL     OW 2017   1.691   2.683   2.685  0.4039 -0.2566 -0.1749
  505SOL    HW1 2018   1.688   2.727   2.596 -1.7928  0.6874 -1.6085
  505SOL    HW2 2019   1.619   2.718   2.741  0.9217  2.2788  0.0672
  505SOL     MW 2020   1.681   2.693   2.680  0.1824  0.2025 -0.3321
  506SOL     OW 2021   1.602   3.013   2.827 -0.2536 -0.4566 -0.5627
  506SOL    HW1 2022   1.661   3.001   2.904 -0.5793 -0.6563 -0.1654
  506SOL    HW2 2023   1.654   3.019   2.745 -0.3608  1.4403  1.1545
  506SOL     MW 2024   1.616   3.012   2.826 -0.3107 -0.2327 -0.2837
  507SOL     OW 2025   0.860   2.734   2.850 -0.7525  0.5523 -0.0118
  507SOL    HW1 2026   0.884   2.795   2.776  0.1076 -1.9127  2.0334
  507SOL    HW2 2027   0.772   2.764   2.860 -2.3212  0.5275 -2.6997
  507SOL     MW 2028   0.852   2.746   2.841 -0.8460  0.2238 -0.0966
  508SOL     OW 2029   1.135   2.062   2.519 -0.1349 -0.2284  0.0721
  508SOL    HW1 2030   1.220   2.041   2.563  0.7016 -2.7187 -0.9412
  508SOL    HW2 2031   1.111   2.136   2.577 -0.9994 -1.4849  0.6080
  508SOL     MW 2032   1.143   2.069   2.532 -0.1386 -0.7228  0.0091
  509SOL     OW 2033   0.612   2.561   2.913  0.2213 -0.0118  0.6541
  509SOL    HW1 2034   0.572   2.512   2.836 -0.8457  0.8848 -2.0761
  509SOL    HW2 2035   0.551   2.543   2.986  1.2489  1.6673  0.6730
  509SOL     MW 2036   0.599   2.552   2.912  0.2161  0.3280  0.2964
  510SOL     OW 2037   1.519   2.576   1.695  0.3008 -0.4938  0.5596
  510SOL    HW1 2038   1.495   2.664   1.684  1.5989 -2.1651  0.3848
  510SOL    HW2 2039   1.462   2.543   1.764  0.4186 -1.9652 -2.9878
  510SOL     MW 2040   1.508   2.583   1.703  0.4876 -0.9085  0.0685
  511SOL     OW 2041   0.411   2.604   2.428 -0.0079 -0.0808  0.0843
  511SOL    HW1 2042   0.489   2.574   2.477 -2.8102 -2.1719  0.7517
  511SOL    HW2 2043   0.436   2.637   2.340 -0.3701 -2.3948 -4.9123
  511SOL     MW 2044   0.424   2.604   2.423 -0.4254 -0.6620 -0.4869
  512SOL     OW 2045   1.019   1.981   2.836 -0.2424 -0.2063 -0.4750
  512SOL    HW1 2046   0.929   2.007   2.829 -0.2300 -2.9229 -1.5152
  512SOL    HW2 2047   1.024   1.893   2.875 -0.6534  0.0002 -0.2394
  512SOL     MW 2048   1.008   1.973   2.840 -0.2950 -0.5375 -0.5811
  513SOL     OW 2049   1.470   2.413   2.393 -0.4195 -0.2122 -0.0591
  513SOL    HW1 2050   1.552   2.403   2.440 -4.4657 -1.7749  1.8904
  513SOL    HW2 2051   1.421   2.334   2.415 -0.8493  0.1383 -0.3741
  513SOL     MW 2052   1.474   2.402   2.402 -1.0101 -0.3722  0.1566
  514SOL     OW 2053   0.266   2.461   2.633 -0.6817 -0.0583 -0.1608
  514SOL    HW1 2054   0.314   2.530   2.598 -0.4750 -3.2478  2.6587
  514SOL    HW2 2055   0.275   2.456   2.731 -2.4133  1.6499 -1.6199
  514SOL     MW 2056   0.273   2.469   2.642 -0.8829 -0.2538  0.0187
  515SOL     OW 2057   1.054   2.054   1.923  0.5778 -0.2244  1.2998
  515SOL    HW1 2058   1.005   2.136   1.899  1.6707 -1.0463  1.1960
  515SOL    HW2 2059   1.128   2.074   1.983 -2.6589 -1.3937  1.6836
  515SOL     MW 2060   1.057   2.068   1.927  0.2949 -0.4871  1.3368
  516SOL     OW 2061   1.461   2.507   3.058 -0.1818  0.4500  1.1903
  516SOL    HW1 2062   1.529   2.496   2.984  0.7569 -2.0404 -2.1727
  516SOL    HW2 2063   1.377   2.484   3.018 -0.3271  0.7939 -0.7580
  516SOL     MW 2064   1.458   2.502   3.043 -0.0771  0.1668  0.4895
  517SOL     OW 2065   0.586   2.396   2.139  0.4265 -0.3320  0.4186
  517SOL    HW1 2066   0.559   2.482   2.164  1.7073 -0.1883 -0.8042
  517SOL    HW2 2067   0.515   2.339   2.123  0.1827  2.3299 -1.1654
  517SOL     MW 2068   0.573   2.400   2.140  0.5633  0.0382  0.0482
  518SOL     OW 2069   1.904   0.124   2.929  0.0656 -0.5991 -0.2015
  518SOL    HW1 2070   1.839   0.175   2.876 -0.9907 -0.9217  1.5304
  518SOL    HW2 2071   1.855   0.102   3.008 -1.0287  0.8004  0.2825
  518SOL     MW 2072   1.889   0.128   2.932 -0.2181 -0.4570  0.0909
  519SOL     OW 2073   0.727   2.581   1.746 -0.3194 -0.0716  0.3528
  519SOL    HW1 2074   0.713   2.488   1.757  1.5331 -3.7116 -0.9603
  519SOL    HW2 2075   0.652   2.618   1.800 -0.7243 -0.1494  0.3750
  519SOL     MW 2076   0.715   2.574   1.755 -0.1284 -0.5622  0.1824
  520SOL     OW 2077   1.275   2.113   2.955  0.0465 -0.4829  0.1074
  520SOL    HW1 2078   1.190   2.074   2.942 -0.9285  2.4730  2.4375
  520SOL    HW2 2079   1.310   2.065   3.031 -0.5258  1.3033 -1.5037
  520SOL     MW 2080   1.269   2.101   2.964 -0.1577  0.1428  0.2023
  521SOL     OW 2081   1.737   2.059   2.248  0.2591 -0.5916  0.0772
  521SOL    HW1 2082   1.747   2.111   2.168  3.3361 -0.1673  1.8375
  521SOL    HW2 2083   1.760   1.966   2.237 -1.9561 -2.2535  0.9454
  521SOL     MW 2084   1.742   2.054   2.236  0.3728 -0.7549  0.4240
  522SOL     OW 2085   2.831   2.562   2.191  0.2513 -0.3739  0.1590
  522SOL    HW1 2086   2.921   2.553   2.206 -3.1815  1.1791  0.5424
  522SOL    HW2 2087   2.786   2.579   2.275  0.2952 -1.2371 -0.0530
  522SOL     MW 2088   2.837   2.563   2.204 -0.1958 -0.2829  0.1816
  523SOL     OW 2089   0.855   1.504   2.123  0.3669 -0.0279 -0.3317
  523SOL    HW1 2090   0.837   1.572   2.057 -0.9703 -0.9460  0.1900
  523SOL    HW2 2091   0.888   1.433   2.063 -2.5112 -4.4654 -0.2938
  523SOL     MW 2092   0.857   1.503   2.107 -0.1893 -0.7345 -0.2579
  524SOL     OW 2093   0.896   2.456   2.939 -0.0264 -0.0059  0.3549
  524SOL    HW1 2094   0.836   2.516   2.897  0.7170  0.2452 -2.3413
  524SOL    HW2 2095   0.863   2.367   2.924  0.6546 -0.4997  0.0114
  524SOL     MW 2096   0.883   2.452   2.931  0.1615 -0.0379 -0.0462
  525SOL     OW 2097   0.353   2.271   2.077 -0.0868 -0.3613 -0.2710
  525SOL    HW1 2098   0.349   2.194   2.140 -0.4568 -2.3374 -0.6862
  525SOL    HW2 2099   0.375   2.224   1.992 -1.9562 -1.0972  0.1847
  525SOL     MW 2100   0.356   2.254   2.074 -0.3823 -0.7191 -0.2656
  526SOL     OW 2101   0.675   2.097   1.987 -0.6115 -0.3513  0.3810
  526SOL    HW1 2102   0.651   2.144   1.906 -0.5672  0.5792  0.5788
  526SOL    HW2 2103   0.697   2.180   2.037 -2.1426  0.6744  0.4548
  526SOL     MW 2104   0.675   2.114   1.983 -0.8077 -0.0932  0.4169
  527SOL     OW 2105   1.350   1.980   2.044  0.1705  0.0838  0.0585
  527SOL    HW1 2106   1.328   1.944   2.129  0.4380  1.3885  0.5577
  527SOL    HW2 2107   1.372   1.898   2.004 -0.9106 -0.8136 -0.8914
  527SOL     MW 2108   1.350   1.964   2.050  0.0631  0.1375 -0.0009
  528SOL     OW 2109   0.653   2.897   2.927  0.6760  0.2841 -0.4435
  528SOL    HW1 2110   0.683   2.982   2.958 -0.2640  0.1119 -0.0457
  528SOL    HW2 2111   0.612   2.916   2.847 -1.1210  0.4717  1.1580
  528SOL     MW 2112   0.651   2.911   2.921  0.3149  0.2861 -0.1797
  529SOL     OW 2113   0.914   2.287   1.893  0.1757 -0.5967  0.0011
  529SOL    HW1 2114   0.943   2.307   1.979 -1.9627  0.7900 -0.1155
  529SOL    HW2 2115   0.995   2.307   1.838 -3.3357  1.2519 -2.0473
  529SOL     MW 2116   0.929   2.292   1.897 -0.5697 -0.1698 -0.2845
  530SOL     OW 2117   1.219   2.423   2.989 -0.5996  0.0711 -0.3876
  530SOL    HW1 2118   1.141   2.468   3.038  0.5623  0.9077  0.1154
  530SOL    HW2 2119   1.219   2.324   2.988  0.8870  0.3444  0.4046
  530SOL     MW 2120   1.209   2.416   2.995 -0.2502  0.2175 -0.2167
  531SOL     OW 2121   0.953   1.860   2.569 -0.2451 -0.0821  0.0935
  531SOL    HW1 2122   1.006   1.935   2.583  2.7777 -2.0065 -0.7846
  531SOL    HW2 2123   0.887   1.852   2.649 -3.4520  1.1236  1.2926
  531SOL     MW 2124   0.951   1.869   2.581 -0.2694 -0.1769  0.1358
  532SOL     OW 2125   1.742   0.298   2.772  0.3222  0.2320 -0.0018
  532SOL    HW1 2126   1.689   0.274   2.697  0.8681  0.0198  1.4770
  532SOL    HW2 2127   1.827   0.317   2.738  2.1326 -2.9351 -1.7374
  532SOL     MW 2128   1.746   0.297   2.758  0.6331 -0.2139 -0.0357
  533SOL     OW 2129   1.837   2.669   3.056  0.6806 -0.5075  0.4847
  533SOL    HW1 2130   1.766   2.614   3.075 -0.0285  1.7539  0.1446
  533SOL    HW2 2131   1.795   2.752   3.042  2.7523 -3.5868 -1.3161
  533SOL     MW 2132   1.822   2.673   3.057  0.8604 -0.6154  0.2022
  534SOL     OW 2133   1.739   2.402   2.486 -0.0273 -0.2018 -0.2096
  534SOL    HW1 2134   1.708   2.317   2.528 -1.0349 -1.9841 -1.1688
  534SOL    HW2 2135   1.829   2.415   2.529  1.1764 -0.8635  1.9160
  534SOL     MW 2136   1.747   2.393   2.498 -0.0014 -0.5243 -0.0557
  535SOL     OW 2137   1.880   2.401   1.908 -0.2247 -0.1436  0.3858
  535SOL    HW1 2138   1.846   2.399   1.819  0.6085  0.6565 -2.4049
  535SOL    HW2 2139   1.963   2.356   1.892  0.4168  0.7893 -0.3678
  535SOL     MW 2140   1.887   2.395   1.894 -0.0302  0.0851 -0.0819
  536SOL     OW 2141   0.563   1.825   2.074 -0.4954  0.2754  0.6879
  536SOL    HW1 2142   0.536   1.799   1.985 -1.7819 -0.5937  1.5855
  536SOL    HW2 2143   0.596   1.919   2.076 -2.9386  1.2718  0.8632
  536SOL     MW 2144   0.563   1.834   2.063 -0.9875  0.2922  0.8294
  537SOL     OW 2145   1.088   0.199   2.765 -0.0267  0.3642 -0.0593
  537SOL    HW1 2146   1.052   0.226   2.851 -1.1685  1.0212  2.1198
  537SOL    HW2 2147   1.066   0.276   2.710 -0.2123  2.3420  0.4145
  537SOL     MW 2148   1.080   0.213   2.769 -0.2018  0.7118  0.2907
  538SOL     OW 2149   1.470   0.056   0.035 -0.2006 -0.3664  0.6290
  538SOL    HW1 2150   1.467   0.149   0.057  0.5748  0.9923 -0.1241
  538SOL    HW2 2151   1.381   0.030   0.014  1.7226  3.2833 -1.1281
  538SOL     MW 2152   1.458   0.064   0.035  0.1555  0.2944  0.2978
  539SOL     OW 2153   0.701   2.804   2.568 -0.1131 -0.0281 -0.3325
  539SOL    HW1 2154   0.741   2.882   2.608  0.3459 -0.7427  1.9050
  539SOL    HW2 2155   0.722   2.720   2.604 -2.2156  0.9496 -3.1681
  539SOL     MW 2156   0.709   2.803   2.578 -0.3299  0.0066 -0.4114
  540SOL     OW 2157   0.254   2.460   2.894 -0.3591  0.2114  0.2092
  540SOL    HW1 2158   0.277   2.524   2.962  3.3990  0.5898  0.1691
  540SOL    HW2 2159   0.232   2.376   2.950 -1.0713  0.6290 -0.0265
  540SOL     MW 2160   0.254   2.458   2.911  0.0428  0.3164  0.1728
  541SOL     OW 2161   0.216   2.942   2.122  0.0250  0.0469 -0.5047
  541SOL    HW1 2162   0.145   2.875   2.130 -0.8703  1.1575  0.8791
  541SOL    HW2 2163   0.281   2.912   2.182  0.8050  0.9296  0.2224
  541SOL     MW 2164   0.215   2.929   2.131  0.0098  0.3099 -0.2262
  542SOL     OW 2165   0.986   2.255   2.672  0.1201  0.2607 -0.5444
  542SOL    HW1 2166   0.939   2.228   2.753 -1.2507 -0.5740 -0.3391
  542SOL    HW2 2167   1.030   2.342   2.697 -0.9585  0.5746 -1.2020
  542SOL     MW 2168   0.986   2.263   2.686 -0.2031  0.1920 -0.6041
  543SOL     OW 2169   1.645   2.457   2.811  0.0309  0.1337 -0.6847
  543SOL    HW1 2170   1.677   2.402   2.745 -1.8620  1.3109 -1.6734
  543SOL    HW2 2171   1.646   2.538   2.751 -0.9381  2.1367  1.3567
  543SOL     MW 2172   1.650   2.460   2.794 -0.3467  0.5533 -0.5458
  544SOL     OW 2173   0.753   0.203   2.703 -0.7106  0.9690 -0.3971
  544SOL    HW1 2174   0.657   0.224   2.694 -0.0605  3.6917  0.6392
  544SOL    HW2 2175   0.794   0.164   2.622 -1.6737 -0.6421 -0.9786
  544SOL     MW 2176   0.746   0.201   2.691 -0.7519  1.1157 -0.3371
  545SOL     OW 2177   1.474   2.121   2.313  0.3202  0.1793  0.1689
  545SOL    HW1 2178   1.432   2.137   2.229  1.4502  0.6073  0.9110
  545SOL    HW2 2179   1.576   2.113   2.297  1.3808 -1.1209 -0.6935
  545SOL     MW 2180   1.482   2.122   2.299  0.6092  0.0642  0.1530
  546SOL     OW 2181   2.868   1.987   0.090 -0.4567 -0.1877 -0.2191
  546SOL    HW1 2182   2.875   2.074   0.049 -2.2310 -1.2703  0.8272
  546SOL    HW2 2183   2.966   1.961   0.098 -2.0096 -0.3217  0.1273
  546SOL     MW 2184   2.882   1.995   0.086 -0.8957 -0.3482 -0.0353
  547SOL     OW 2185   0.227   0.048   0.094  0.1180 -0.0269 -0.1658
  547SOL    HW1 2186   0.303   0.047   0.030 -0.0272  1.1201 -0.4490
  547SOL    HW2 2187   0.150   0.019   0.049 -1.5106  0.1806 -1.6655
  547SOL     MW 2188   0.227   0.044   0.080 -0.1161  0.1518 -0.4010
  548SOL     OW 2189   0.307   2.424   0.218  0.1151  0.3216 -0.4117
  548SOL    HW1 2190   0.311   2.461   0.130 -0.6993  0.2865  1.0287
  548SOL    HW2 2191   0.212   2.384   0.220  0.6813 -1.2686  1.5353
  548SOL     MW 2192   0.295   2.424   0.207  0.0823  0.1071  0.0353
  549SOL     OW 2193   0.879   1.945   2.143  0.0661 -0.3755 -0.0134
  549SOL    HW1 2194   0.826   1.990   2.072  0.3038 -0.2736 -0.5523
  549SOL    HW2 2195   0.821   1.931   2.227  1.0564 -1.0578  1.2807
  549SOL     MW 2196   0.865   1.949   2.145  0.2281 -0.4521  0.0862
  550SOL     OW 2197   1.887   1.766   2.522  0.2191 -0.1378 -0.6821
  550SOL    HW1 2198   1.840   1.782   2.435  0.7131  0.1529 -0.6834
  550SOL    HW2 2199   1.853   1.824   2.595  0.3955 -1.8615  0.3176
  550SOL     MW 2200   1.877   1.776   2.520  0.3076 -0.3269 -0.5504
  551SOL     OW 2201   0.868   2.215   0.265  0.4135 -0.0754 -0.2065
  551SOL    HW1 2202   0.945   2.238   0.210 -1.0004 -1.3175 -0.6128
  551SOL    HW2 2203   0.832   2.156   0.207  3.0794  2.8725  1.0419
  551SOL     MW 2204   0.874   2.210   0.250  0.5787  0.1497 -0.0954
  552SOL     OW 2205   1.763   1.787   2.291  0.1221  0.5992  0.3789
  552SOL    HW1 2206   1.684   1.744   2.323 -2.9946 -2.8921  0.7164
  552SOL    HW2 2207   1.818   1.721   2.234  1.5823 -2.4588  1.3960
  552SOL     MW 2208   1.760   1.773   2.287 -0.0965 -0.2649  0.5576
  553SOL     OW 2209   1.195   2.307   1.543  0.1131  0.2202  0.2160
  553SOL    HW1 2210   1.226   2.211   1.529 -0.0303 -0.7253 -0.3321
  553SOL    HW2 2211   1.278   2.353   1.519  1.5978  0.9628  0.9374
  553SOL     MW 2212   1.210   2.300   1.538  0.2901  0.1934  0.2388
  554SOL     OW 2213   0.468   2.910   2.704  0.2277 -0.2773  0.5667
  554SOL    HW1 2214   0.479   2.998   2.659  2.1073  0.2590  1.5844
  554SOL    HW2 2215   0.519   2.847   2.654 -1.0876 -0.6709 -0.1110
  554SOL     MW 2216   0.477   2.913   2.691  0.3022 -0.2585  0.6116
  555SOL     OW 2217   0.595   2.466   2.574 -0.7902  0.5951  0.2102
  555SOL    HW1 2218   0.537   2.393   2.549 -1.7483  0.4353  1.8746
  555SOL    HW2 2219   0.690   2.445   2.550 -0.2043 -0.1677  1.5647
  555SOL     MW 2220   0.600   2.453   2.568 -0.8393  0.4734  0.6085
  556SOL     OW 2221   1.035   1.923   0.053  0.4259 -0.3970 -0.1304
  556SOL    HW1 2222   1.049   1.870  -0.022 -0.2965 -0.1591 -0.7852
  556SOL    HW2 2223   1.113   1.921   0.104 -0.5514  2.2870 -2.2875
  556SOL     MW 2224   1.047   1.916   0.050  0.2016 -0.0115 -0.5014
  557SOL     OW 2225   1.022   2.710   0.496 -0.0841  0.0189  1.5237
  557SOL    HW1 2226   1.062   2.645   0.430  0.2202  0.1687 -2.2868
  557SOL    HW2 2227   0.989   2.787   0.447 -1.7738 -1.5295  0.8474
  557SOL     MW 2228   1.023   2.712   0.481 -0.2669 -0.1656  0.9317
  558SOL     OW 2229   0.170   2.249   3.020 -0.1332 -0.7509  0.3735
  558SOL    HW1 2230   0.099   2.238   2.958 -0.7778  1.1373 -0.2131
  558SOL    HW2 2231   0.125   2.250   3.104  2.0241  1.3350 -0.5175
  558SOL     MW 2232   0.154   2.247   3.023  0.0664 -0.2265  0.1786
  559SOL     OW 2233   1.041   2.353   2.131  0.4558 -0.2481 -0.0480
  559SOL    HW1 2234   1.135   2.363   2.110 -0.4817 -0.0393  3.0763
  559SOL    HW2 2235   1.037   2.269   2.183  1.4679  0.6644  2.2676
  559SOL     MW 2236   1.053   2.343   2.135  0.4657 -0.1002  0.6697
  560SOL     OW 2237   2.056   2.695   0.136  0.7749 -0.6000 -0.0629
  560SOL    HW1 2238   2.101   2.776   0.135 -0.3370  0.2229  2.1371
  560SOL    HW2 2239   1.976   2.697   0.081 -0.2534 -0.5245 -0.4566
  560SOL     MW 2240   2.052   2.706   0.129  0.4925 -0.4814  0.1754
  561SOL     OW 2241   0.487   2.132   0.107  0.6250  0.4979 -0.5993
  561SOL    HW1 2242   0.468   2.159   0.019 -0.6149  1.9246  1.4985
  561SOL    HW2 2243   0.513   2.214   0.160 -0.2419 -1.2555  2.1939
  561SOL     MW 2244   0.488   2.146   0.102  0.3471  0.4548  0.0460
  562SOL     OW 2245   0.681   2.209   2.319  0.2887  0.7734  0.4358
  562SOL    HW1 2246   0.642   2.279   2.268 -1.6789  2.2426 -2.1447
  562SOL    HW2 2247   0.774   2.223   2.339 -2.4630 -0.9060  0.5674
  562SOL     MW 2248   0.688   2.220   2.315 -0.3340  0.7456  0.1127
  563SOL     OW 2249   1.229   0.394   0.561  0.2392 -0.5143 -0.2750
  563SOL    HW1 2250   1.192   0.352   0.481  0.8815  0.7350 -1.1291
  563SOL    HW2 2251   1.198   0.344   0.651  0.0269 -0.0246  3.6226
  563SOL     MW 2252   1.220   0.382   0.562  0.2959 -0.2849  0.1265
  564SOL     OW 2253   1.042   2.627   2.369 -0.4029  0.1426 -0.4793
  564SOL    HW1 2254   1.016   2.683   2.302  0.4170 -1.0678  1.4183
  564SOL    HW2 2255   1.051   2.674   2.456  0.1788  0.0983  1.1930
  564SOL     MW 2256   1.040   2.641   2.372 -0.2180 -0.0230 -0.0083
  565SOL     OW 2257   2.767   2.839   2.547  0.0751  0.3114 -0.4674
  565SOL    HW1 2258   2.743   2.924   2.508 -1.8737  0.3065  1.2519
  565SOL    HW2 2259   2.722   2.765   2.501 -2.2541 -2.9931  2.1713
  565SOL     MW 2260   2.758   2.840   2.536 -0.4893 -0.1252  0.1076
  566SOL     OW 2261   2.181   1.954   2.335 -0.0961  0.2407  0.4943
  566SOL    HW1 2262   2.198   1.950   2.236 -0.4437 -0.7601 -0.0878
  566SOL    HW2 2263   2.256   2.011   2.364 -0.7635  1.0165  1.0561
  566SOL     MW 2264   2.193   1.961   2.325 -0.2300  0.2110  0.4916
  567SOL     OW 2265   1.216   3.023   0.022 -0.0173 -0.1473  0.6058
  567SOL    HW1 2266   1.194   3.024   0.119 -0.5050 -0.5765  0.5246
  567SOL    HW2 2267   1.242   2.931   0.004  1.3348 -2.7058  1.5436
  567SOL     MW 2268   1.216   3.011   0.032  0.0967 -0.5415  0.7189
  568SOL     OW 2269   1.669   2.066   2.888 -0.0874 -0.4119  0.0674
  568SOL    HW1 2270   1.722   2.128   2.946  1.5527 -1.6477  1.1114
  568SOL    HW2 2271   1.743   2.015   2.844  1.2788  2.2249 -1.0572
  568SOL     MW 2272   1.686   2.067   2.890  0.3092 -0.2271  0.0567
  569SOL     OW 2273   0.115   2.295   2.463  0.3022 -0.2790 -0.0631
  569SOL    HW1 2274   0.045   2.353   2.427  2.0714  0.8862 -1.6472
  569SOL    HW2 2275   0.161   2.336   2.538 -0.1059  0.8178 -1.8755
  569SOL     MW 2276   0.112   2.308   2.468  0.4818  0.0195 -0.5112
  570SOL     OW 2277   1.517   0.328   0.515  0.0631  0.5176 -0.2997
  570SOL    HW1 2278   1.433   0.369   0.541 -2.4417  0.0961 -0.7383
  570SOL    HW2 2279   1.591   0.367   0.562 -0.7178 -1.6037 -0.6335
  570SOL     MW 2280   1.516   0.338   0.524 -0.3704  0.1821 -0.4016
  571SOL     OW 2281   1.346   2.375   2.129 -0.1395  0.1585 -0.1498
  571SOL    HW1 2282   1.401   2.391   2.207  0.9458  2.0250  0.9540
  571SOL    HW2 2283   1.383   2.304   2.082  0.8979  1.8088  0.6911
  571SOL     MW 2284   1.359   2.368   2.133  0.1406  0.6225  0.1068
  572SOL     OW 2285   1.043   2.580   0.062  0.5521 -0.3524 -0.1746
  572SOL    HW1 2286   1.021   2.673   0.056  0.7084  3.6045  1.3433
  572SOL    HW2 2287   0.955   2.532   0.058  1.0206  0.0331  1.2617
  572SOL     MW 2288   1.028   2.586   0.061  0.6345  0.2205  0.2152
  573SOL     OW 2289   1.155   2.243   0.213 -0.1782 -0.3180 -0.2778
  573SOL    HW1 2290   1.210   2.266   0.137 -0.5358 -0.6715  0.1258
  573SOL    HW2 2291   1.136   2.328   0.253 -3.4249 -0.3634  0.3191
  573SOL     MW 2292   1.159   2.257   0.208 -0.6538 -0.3706 -0.1458
  574SOL     OW 2293   1.130   2.519   0.325 -0.0416 -0.5210 -0.2329
  574SOL    HW1 2294   1.201   2.575   0.313  0.3905  0.8042  3.0838
  574SOL    HW2 2295   1.093   2.534   0.236  1.7822 -0.6389  2.7474
  574SOL     MW 2296   1.135   2.528   0.311  0.2560 -0.3617  0.5979
  575SOL     OW 2297   3.070   2.190   1.640  0.3383 -0.4148 -0.2832
  575SOL    HW1 2298   3.110   2.121   1.588 -0.6172 -0.2816 -0.5064
  575SOL    HW2 2299   3.133   2.201   1.710 -2.5279 -0.9311  0.4291
  575SOL     MW 2300   3.083   2.182   1.643 -0.1659 -0.4654 -0.2187
  576SOL     OW 2301   2.851   1.887   1.987  0.5726  0.3510 -0.1116
  576SOL    HW1 2302   2.859   1.973   1.935 -1.2171  1.3120  0.2807
  576SOL    HW2 2303   2.794   1.838   1.924 -1.5194 -2.3998 -1.5098
  576SOL     MW 2304   2.844   1.892   1.972  0.0604  0.1149 -0.2443
  577SOL     OW 2305   2.128   0.222   0.014 -0.2780 -0.3554 -0.3639
  577SOL    HW1 2306   2.077   0.214  -0.064  2.9493 -0.6663  0.4353
  577SOL    HW2 2307   2.069   0.202   0.092  1.2549 -0.5664  1.9642
  577SOL     MW 2308   2.113   0.218   0.014  0.3501 -0.4242  0.0487
  578SOL     OW 2309   1.961   2.110   2.387 -0.2615 -0.0788 -0.6839
  578SOL    HW1 2310   1.891   2.095   2.321 -1.4787  1.6379 -0.4122
  578SOL    HW2 2311   2.024   2.039   2.371 -1.0983 -0.7963  1.9394
  578SOL     MW 2312   1.960   2.098   2.376 -0.5325  0.0530 -0.3019
  579SOL     OW 2313   0.854   2.444   2.491  0.1760  0.2780 -0.3721
  579SOL    HW1 2314   0.899   2.366   2.529 -1.1453  0.7888 -1.6091
  579SOL    HW2 2315   0.910   2.504   2.435  3.4097 -1.3980 -1.6979
  579SOL     MW 2316   0.867   2.441   2.489  0.4283  0.1243 -0.7102
  580SOL     OW 2317   0.958   2.821   0.007 -0.0862  0.2549 -0.3715
  580SOL    HW1 2318   1.028   2.864  -0.038  0.7091  1.3680  1.9821
  580SOL    HW2 2319   0.914   2.769  -0.059 -0.3304  0.9868  0.0430
  580SOL     MW 2320   0.961   2.820  -0.008 -0.0135  0.4983 -0.0062
  581SOL     OW 2321   1.125   2.407   1.785 -0.2205  0.0605  0.0218
  581SOL    HW1 2322   1.196   2.453   1.825 -2.3831  0.6588 -1.2683
  581SOL    HW2 2323   1.165   2.364   1.702  1.6035 -1.1936 -2.7159
  581SOL     MW 2324   1.140   2.407   1.780 -0.2651 -0.0260 -0.5097
  582SOL     OW 2325   3.096   2.888   2.697 -0.1640  0.5650 -0.3940
  582SOL    HW1 2326   3.054   2.979   2.692  2.1658  0.8644 -3.2350
  582SOL    HW2 2327   3.152   2.892   2.775 -0.6583  0.1682  0.9606
  582SOL     MW 2328   3.098   2.901   2.707  0.0782  0.5521 -0.5901
  583SOL     OW 2329   1.975   2.405   2.645 -0.3312 -0.7155 -0.5490
  583SOL    HW1 2330   2.042   2.425   2.575  1.0081 -0.4074 -2.1125
  583SOL    HW2 2331   1.977   2.311   2.654  2.1734 -1.4843 -2.6905
  583SOL     MW 2332   1.984   2.395   2.637  0.1759 -0.7763 -1.0378
  584SOL     OW 2333   0.138   1.909   2.205  0.3410 -0.2866 -0.3453
  584SOL    HW1 2334   0.140   1.859   2.291  0.2775  1.9328 -1.0579
  584SOL    HW2 2335   0.192   1.985   2.226 -2.2237 -1.3226  1.7529
  584SOL     MW 2336   0.145   1.912   2.219 -0.0058 -0.1304 -0.1625
  585SOL     OW 2337   1.558   2.685   0.145  0.4065  0.5590  0.2045
  585SOL    HW1 2338   1.518   2.625   0.081  0.6291  2.6218  1.7738
  585SOL    HW2 2339   1.488   2.692   0.213  0.0625 -0.0280  1.6622
  585SOL     MW 2340   1.543   2.678   0.146  0.3905  0.7538  0.6039
  586SOL     OW 2341   1.336   2.831   2.581  0.0944  0.1897 -0.1161
  586SOL    HW1 2342   1.369   2.795   2.491  0.6178  0.3034 -3.3327
  586SOL    HW2 2343   1.352   2.930   2.574 -1.0442  4.0525  0.5590
  586SOL     MW 2344   1.343   2.840   2.568  0.0132  0.7143 -0.4515
  587SOL     OW 2345   1.363   1.479   2.164 -0.0410 -0.5341 -0.0986
  587SOL    HW1 2346   1.308   1.406   2.186  1.9564  1.0954  2.3354
  587SOL    HW2 2347   1.333   1.500   2.074 -2.2137  1.3652  2.7378
  587SOL     MW 2348   1.352   1.472   2.155 -0.0641 -0.0685  0.5968
  588SOL     OW 2349   1.370   1.992   2.650 -0.0511  0.1566  0.6416
  588SOL    HW1 2350   1.389   1.904   2.632 -1.3569  0.8498  0.2196
  588SOL    HW2 2351   1.373   2.002   2.745 -1.2043  0.5394 -0.4749
  588SOL     MW 2352   1.373   1.982   2.660 -0.3756  0.2986  0.4386
  589SOL     OW 2353   1.418   2.023   0.073 -0.3406  0.2553 -0.1085
  589SOL    HW1 2354   1.418   2.121   0.101  1.5138 -1.0615 -0.0848
  589SOL    HW2 2355   1.356   1.977   0.130 -0.2355  2.2318 -2.3815
  589SOL     MW 2356   1.410   2.030   0.084 -0.0821  0.3423 -0.4052
  590SOL     OW 2357   0.528   2.662   2.183  0.3763  0.0819  0.4494
  590SOL    HW1 2358   0.541   2.669   2.090 -2.5971 -1.3734  1.4089
  590SOL    HW2 2359   0.588   2.728   2.221  1.8327  2.3861 -1.4084
  590SOL     MW 2360   0.538   2.672   2.176  0.1762  0.1939  0.3309
  591SOL     OW 2361   2.233   0.694   0.096 -0.2321  0.3661 -0.1984
  591SOL    HW1 2362   2.172   0.722   0.157  0.3614 -0.9901  1.6758
  591SOL    HW2 2363   2.185   0.725   0.014 -0.9307 -0.2132  0.2112
  591SOL     MW 2364   2.219   0.702   0.094 -0.2460  0.1107  0.1029
  592SOL     OW 2365   1.688   2.964   0.824 -0.0952 -0.4345  0.0921
  592SOL    HW1 2366   1.658   3.054   0.800  0.1467 -1.0988  0.8300
  592SOL    HW2 2367   1.782   2.965   0.811 -1.9832  0.9006 -0.8472
  592SOL     MW 2368   1.696   2.976   0.819 -0.3124 -0.3460  0.0656
  593SOL     OW 2369   1.969   0.699   0.791 -0.4467  0.0202  0.6780
  593SOL    HW1 2370   1.899   0.712   0.720  1.2448 -1.7332 -2.4040
  593SOL    HW2 2371   2.007   0.615   0.765 -0.4574 -0.0737 -0.5294
  593SOL     MW 2372   1.964   0.690   0.778 -0.2249 -0.2235  0.1120
  594SOL     OW 2373   2.724   1.030   1.400  0.6176 -0.0365  0.4765
  594SOL    HW1 2374   2.815   1.007   1.370  1.1044  0.7682 -1.6762
  594SOL    HW2 2375   2.674   1.048   1.323  1.9747 -1.1055 -2.2804
  594SOL     MW 2376   2.729   1.029   1.386  0.8609 -0.0714 -0.1713
  595SOL     OW 2377   0.492   0.910   0.848  0.2116  0.3401 -0.1296
  595SOL    HW1 2378   0.483   0.956   0.767 -0.9223 -0.0300  0.5624
  595SOL    HW2 2379   0.506   0.972   0.916  1.1005 -1.9365 -3.0539
  595SOL     MW 2380   0.493   0.925   0.846  0.1793 -0.0091 -0.4242
  596SOL     OW 2381   2.459   1.342   0.487  0.0976 -0.0467 -0.3770
  596SOL    HW1 2382   2.449   1.437   0.488 -0.9027  0.2814 -0.6959
  596SOL    HW2 2383   2.519   1.315   0.557  0.8810  0.9978 -1.4309
  596SOL     MW 2384   2.466   1.351   0.497  0.0690  0.1344 -0.5581
  597SOL     OW 2385   2.199   0.620   1.548  0.8494  0.4744  0.2969
  597SOL    HW1 2386   2.217   0.583   1.634 -2.2677 -3.4127 -1.1631
  597SOL    HW2 2387   2.137   0.560   1.495 -1.5296 -3.1078 -0.5251
  597SOL     MW 2388   2.194   0.607   1.552  0.1242 -0.5111 -0.0042
  598SOL     OW 2389   2.595   1.050   2.882 -0.1477 -0.3507  0.5655
  598SOL    HW1 2390   2.643   0.968   2.873  2.9783  0.7182 -0.2063
  598SOL    HW2 2391   2.663   1.123   2.868  0.1611 -1.2209 -0.8679
  598SOL     MW 2392   2.611   1.049   2.879  0.3055 -0.3245  0.2746
  599SOL     OW 2393   3.080   0.402   2.262  0.3093  0.3540 -0.0665
  599SOL    HW1 2394   3.081   0.427   2.360 -1.5756  0.7794  2.8016
  599SOL    HW2 2395   3.060   0.483   2.220 -0.6726 -0.3525  1.8707
  599SOL     MW 2396   3.077   0.416   2.269 -0.0689  0.3169  0.5675
  600SOL     OW 2397   1.849   1.692   0.827 -0.1247  0.5173 -0.0336
  600SOL    HW1 2398   1.892   1.717   0.906  1.4961  0.6407 -3.2615
  600SOL    HW2 2399   1.780   1.758   0.819  1.4030  1.8424  1.2461
  600SOL     MW 2400   1.845   1.704   0.836  0.2907  0.7084 -0.2906
  601SOL     OW 2401   2.550   0.720   0.815 -0.0404  0.1238  0.0286
  601SOL    HW1 2402   2.518   0.718   0.906  3.4192  0.1316  0.4693
  601SOL    HW2 2403   2.479   0.663   0.764 -0.6587  1.1224 -0.2967
  601SOL     MW 2404   2.537   0.712   0.820  0.3345  0.2566  0.0438
  602SOL     OW 2405   2.282   1.897   0.751 -0.4700  0.3441  0.0505
  602SOL    HW1 2406   2.234   1.826   0.692 -0.7415 -2.3462  1.4927
  602SOL    HW2 2407   2.213   1.967   0.756 -0.2023  0.3990  0.6025
  602SOL     MW 2408   2.267   1.897   0.744 -0.4705 -0.0036  0.3136
  603SOL     OW 2409   2.956   1.388   1.967  0.0075  0.2085 -0.3875
  603SOL    HW1 2410   2.954   1.435   2.048 -1.7063  2.1212 -2.8019
  603SOL    HW2 2411   3.018   1.307   1.975 -0.2723 -0.7727 -0.8106
  603SOL     MW 2412   2.964   1.383   1.979 -0.2556  0.3314 -0.7619
  604SOL     OW 2413   2.012   1.391   0.375 -0.0497 -0.2639  0.0268
  604SOL    HW1 2414   2.083   1.344   0.422 -0.5386 -1.4660  0.7466
  604SOL    HW2 2415   1.947   1.402   0.442  0.9629 -0.5640  0.9448
  604SOL     MW 2416   2.013   1.387   0.390  0.0194 -0.4621  0.2429
  605SOL     OW 2417   2.409   1.454   0.827 -0.0982 -0.3180 -0.7359
  605SOL    HW1 2418   2.405   1.519   0.756 -0.2910  0.3776  1.1445
  605SOL    HW2 2419   2.477   1.394   0.798 -0.1159  1.6917 -0.4800
  605SOL     MW 2420   2.417   1.455   0.813 -0.1260  0.0389 -0.4541
  606SOL     OW 2421   2.639   1.776   1.818  0.6333 -0.5123 -0.5160
  606SOL    HW1 2422   2.559   1.787   1.866  0.8057 -1.7861 -1.1060
  606SOL    HW2 2423   2.628   1.677   1.801 -1.0420 -3.7066 -1.7209
  606SOL     MW 2424   2.627   1.765   1.822  0.4350 -1.1018 -0.7528
  607SOL     OW 2425   2.376   1.006   3.062 -0.2328 -0.2591 -0.2522
  607SOL    HW1 2426   2.445   1.054   3.016 -0.4147 -0.6165  0.5735
  607SOL    HW2 2427   2.418   1.002   3.149 -0.7494  2.4299  2.5495
  607SOL     MW 2428   2.390   1.012   3.067 -0.3249  0.0486  0.2264
  608SOL     OW 2429   1.846   0.216   0.519 -0.0000  0.6587  0.1449
  608SOL    HW1 2430   1.822   0.253   0.438  0.2058 -1.6500 -0.4285
  608SOL    HW2 2431   1.823   0.118   0.512 -2.2747 -0.2679 -1.5843
  608SOL     MW 2432   1.840   0.208   0.507 -0.2730  0.2318 -0.1589
  609SOL     OW 2433   2.137   1.893   3.082 -0.1459  0.1131 -0.3019
  609SOL    HW1 2434   2.054   1.851   3.052  1.3937 -1.0132  1.9684
  609SOL    HW2 2435   2.123   1.879   3.176 -1.0434 -0.6803  0.9886
  609SOL     MW 2436   2.124   1.886   3.090 -0.0612 -0.1402  0.1679
  610SOL     OW 2437   1.830   0.924   1.203  0.2812  0.2130 -0.3536
  610SOL    HW1 2438   1.852   0.854   1.146 -0.6179  0.8430  0.4992
  610SOL    HW2 2439   1.733   0.936   1.188 -0.2039  1.5549 -1.2599
  610SOL     MW 2440   1.820   0.916   1.194  0.0986  0.4732 -0.3606
  611SOL     OW 2441   2.488   1.644   0.599 -0.3176 -0.0715 -0.8243
  611SOL    HW1 2442   2.570   1.633   0.545  0.7752 -2.3763  0.1952
  611SOL    HW2 2443   2.429   1.710   0.553  0.6649  1.0893  2.4891
  611SOL     MW 2444   2.491   1.651   0.586 -0.0437 -0.2224 -0.2526
  612SOL     OW 2445   2.941   2.965   0.345 -0.1305 -0.3522  0.5525
  612SOL    HW1 2446   2.932   2.991   0.435  2.7408 -0.5122  1.8673
  612SOL    HW2 2447   3.019   2.915   0.343  1.6527 -2.1346 -1.7664
  612SOL     MW 2448   2.950   2.962   0.356  0.4836 -0.6084  0.4200
  613SOL     OW 2449   1.482   1.150   1.016 -0.4146 -0.2664 -0.1003
  613SOL    HW1 2450   1.481   1.231   1.063 -0.7491 -1.9829  0.1103
  613SOL    HW2 2451   1.506   1.093   1.085 -3.5182  0.2158  0.7409
  613SOL     MW 2452   1.485   1.153   1.031 -0.8682 -0.4292  0.0385
  614SOL     OW 2453   2.036   0.467   1.423  0.1900 -0.2770 -0.2934
  614SOL    HW1 2454   2.042   0.430   1.514 -1.0958 -0.1799  1.2572
  614SOL    HW2 2455   1.948   0.487   1.397  0.2377 -1.4280  0.4790
  614SOL     MW 2456   2.026   0.465   1.432  0.0267 -0.4161  0.0131
  615SOL     OW 2457   2.404   0.702   0.325  0.2749  0.4045  0.5666
  615SOL    HW1 2458   2.473   0.636   0.324 -1.3603  0.4838 -0.9313
  615SOL    HW2 2459   2.358   0.695   0.234 -1.3277 -1.5144 -1.4640
  615SOL     MW 2460   2.407   0.693   0.313 -0.1523  0.1618  0.1010
  616SOL     OW 2461   2.555   0.409   1.612  0.1995  0.4421 -0.1767
  616SOL    HW1 2462   2.599   0.338   1.561 -2.2961  0.4710 -2.3972
  616SOL    HW2 2463   2.542   0.472   1.545  1.1787  0.0512  1.3248
  616SOL     MW 2464   2.559   0.408   1.597 -0.0006  0.3943 -0.2715
  617SOL     OW 2465   2.890   0.541   1.866 -0.3600 -0.0310  0.1932
  617SOL    HW1 2466   2.802   0.559   1.900 -0.9558 -1.1388 -0.0578
  617SOL    HW2 2467   2.886   0.477   1.800 -1.7547  2.7362  0.8251
  617SOL     MW 2468   2.878   0.535   1.862 -0.6226  0.1880  0.2434
  618SOL     OW 2469   2.780   0.237   2.009  0.3313 -0.4034  0.1995
  618SOL    HW1 2470   2.766   0.318   2.048  2.7622 -0.4008 -0.0135
  618SOL    HW2 2471   2.862   0.199   2.054  2.3132 -0.3084 -0.8417
  618SOL     MW 2472   2.789   0.243   2.020  0.9135 -0.3905  0.0340
  619SOL     OW 2473   2.719   0.716   0.107  0.2479 -0.4443  0.0665
  619SOL    HW1 2474   2.741   0.807   0.100 -0.9109 -2.6162 -1.1192
  619SOL    HW2 2475   2.789   0.679   0.163  0.9553  0.9346  3.6736
  619SOL     MW 2476   2.731   0.723   0.113  0.1884 -0.5490  0.3860
  620SOL     OW 2477   2.210   1.056   0.944 -0.1994  0.0568  0.6455
  620SOL    HW1 2478   2.284   1.027   0.889 -0.5217 -0.1857 -0.8691
  620SOL    HW2 2479   2.142   1.060   0.879 -0.9396 -0.8283  3.7936
  620SOL     MW 2480   2.211   1.053   0.928 -0.3396 -0.0920  0.8610
  621SOL     OW 2481   1.493   2.192   1.991  0.3154  0.1606  0.7520
  621SOL    HW1 2482   1.457   2.104   2.011  0.9465  0.2851 -3.2316
  621SOL    HW2 2483   1.587   2.172   1.991  0.9422  0.6895 -0.1448
  621SOL     MW 2484   1.500   2.177   1.994  0.4814  0.2468  0.1080
  622SOL     OW 2485   2.637   0.261   0.243 -0.7753  0.3219 -0.4373
  622SOL    HW1 2486   2.719   0.317   0.252  0.5695  0.5125 -0.1711
  622SOL    HW2 2487   2.659   0.171   0.260 -1.1324  1.7276 -1.6663
  622SOL     MW 2488   2.651   0.257   0.246 -0.6450  0.5325 -0.5643
  623SOL     OW 2489   2.394   2.756   0.854 -0.5464  0.3397 -0.2822
  623SOL    HW1 2490   2.460   2.820   0.861 -0.9805  0.4427  2.6119
  623SOL    HW2 2491   2.343   2.771   0.938 -1.4568 -3.5923 -1.4606
  623SOL     MW 2492   2.396   2.767   0.866 -0.7238 -0.1655 -0.0559
  624SOL     OW 2493   2.145   1.533   3.067 -0.0195 -0.1438  0.0147
  624SOL    HW1 2494   2.076   1.472   3.036  0.5636  2.3837  0.8962
  624SOL    HW2 2495   2.098   1.617   3.062  3.0492 -2.3447 -0.1062
  624SOL     MW 2496   2.130   1.536   3.062  0.4623 -0.1007  0.1151
  625SOL     OW 2497   2.194   1.875   1.002 -0.1855  0.2023  0.1270
  625SOL    HW1 2498   2.242   1.822   1.065 -0.9710 -0.0232  0.5189
  625SOL    HW2 2499   2.236   1.866   0.914 -1.4245 -0.6547 -1.7315
  625SOL     MW 2500   2.206   1.867   0.999 -0.4526  0.0595 -0.0665
  626SOL     OW 2501   0.164   1.819   2.461  0.3918 -0.1241  0.0683
  626SOL    HW1 2502   0.125   1.737   2.478 -1.1197  1.9051  0.5880
  626SOL    HW2 2503   0.101   1.882   2.489  1.8344 -0.7350  2.7741
  626SOL     MW 2504   0.151   1.816   2.467  0.3827  0.0630  0.4939
  627SOL     OW 2505   2.561   0.853   2.565  0.4225 -0.2971  0.2160
  627SOL    HW1 2506   2.470   0.851   2.593 -2.4106  0.1346 -1.9239
  627SOL    HW2 2507   2.561   0.804   2.481  3.5163 -1.0060  0.4646
  627SOL     MW 2508   2.549   0.846   2.557  0.4569 -0.3337 -0.0335
  628SOL     OW 2509   2.320   1.357   1.290 -0.1148 -0.3473 -0.6526
  628SOL    HW1 2510   2.300   1.280   1.241  1.4564  1.4824  0.2841
  628SOL    HW2 2511   2.409   1.384   1.273 -0.7934  1.0783  0.2691
  628SOL     MW 2512   2.329   1.351   1.281  0.0030  0.0822 -0.4074
  629SOL     OW 2513   1.801   0.602   1.308  0.1975  0.4419 -0.1496
  629SOL    HW1 2514   1.825   0.645   1.224 -1.1543  1.6311  0.7447
  629SOL    HW2 2515   1.707   0.576   1.296  1.5549 -1.6641  0.3041
  629SOL     MW 2516   1.791   0.604   1.295  0.1982  0.3210  0.0283
  630SOL     OW 2517   2.424   1.891   3.035 -0.3334  0.0084 -0.4850
  630SOL    HW1 2518   2.444   1.976   2.991  2.3451 -2.2782  2.6102
  630SOL    HW2 2519   2.331   1.873   3.031  0.0410  1.4495  0.7905
  630SOL     MW 2520   2.414   1.900   3.029  0.0694 -0.1031  0.0917
  631SOL     OW 2521   2.095   1.788   1.517 -0.5206  0.7495  0.0101
  631SOL    HW1 2522   2.081   1.717   1.579  1.7596  0.2461  1.6671
  631SOL    HW2 2523   2.019   1.848   1.518 -1.7593  1.1099 -2.5830
  631SOL     MW 2524   2.083   1.786   1.526 -0.3832  0.7307 -0.1134
  632SOL     OW 2525   0.293   1.880   1.553 -0.4005  0.0411 -0.1762
  632SOL    HW1 2526   0.212   1.914   1.525  3.1764 -2.2638  1.7070
  632SOL    HW2 2527   0.281   1.790   1.535 -0.9272  2.7262  0.3829
  632SOL     MW 2528   0.281   1.873   1.547  0.0020  0.0912  0.1460
  633SOL     OW 2529   2.591   0.532   0.401 -0.2588 -0.2743 -0.0907
  633SOL    HW1 2530   2.654   0.542   0.476 -1.5865  1.1955  0.0460
  633SOL    HW2 2531   2.575   0.439   0.381  0.2350 -2.8449 -0.8112
  633SOL     MW 2532   2.597   0.521   0.408 -0.3688 -0.4195 -0.1677
  634SOL     OW 2533   2.619  -0.000   0.627  0.2931  0.0103 -0.4298
  634SOL    HW1 2534   2.674   0.072   0.598 -0.6402 -0.9131 -0.1539
  634SOL    HW2 2535   2.558  -0.011   0.554 -0.1280 -1.5549 -0.4519
  634SOL     MW 2536   2.618   0.008   0.614  0.1144 -0.3180 -0.3963
  635SOL     OW 2537   2.622   0.051   1.885  0.4110 -0.1392  0.7361
  635SOL    HW1 2538   2.674   0.003   1.811 -1.8227  0.3873  0.5815
  635SOL    HW2 2539   2.682   0.114   1.927  0.9428 -0.9342  0.9989
  635SOL     MW 2540   2.637   0.053   1.881  0.1865 -0.1746  0.7504
  636SOL     OW 2541   2.709   1.725   0.772 -0.2808  0.2052 -0.4267
  636SOL    HW1 2542   2.628   1.694   0.733  0.4508 -1.2143  1.3158
  636SOL    HW2 2543   2.672   1.778   0.845 -0.1556  0.5455 -0.2846
  636SOL     MW 2544   2.693   1.728   0.777 -0.1678  0.0628 -0.1781
  637SOL     OW 2545   2.853   1.494   0.679 -0.0699 -0.6019  0.3132
  637SOL    HW1 2546   2.913   1.551   0.629  0.1690  0.3316  0.8076
  637SOL    HW2 2547   2.795   1.559   0.725 -2.7640  0.9703 -0.1860
  637SOL     MW 2548   2.853   1.510   0.679 -0.3938 -0.2713  0.3125
  638SOL     OW 2549   2.793   0.527   0.603  0.2485  0.0820 -0.6461
  638SOL    HW1 2550   2.872   0.579   0.592 -0.8160 -3.3723  0.7976
  638SOL    HW2 2551   2.789   0.536   0.698  0.2121 -0.2958 -0.7898
  638SOL     MW 2552   2.803   0.535   0.614  0.1032 -0.4236 -0.4746
  639SOL     OW 2553   1.726   3.084   0.537  0.8995  0.1845  0.0750
  639SOL    HW1 2554   1.633   3.103   0.507 -2.4627 -2.9426 -0.4417
  639SOL    HW2 2555   1.737   2.983   0.537  1.0230 -1.6414 -0.2206
  639SOL     MW 2556   1.715   3.073   0.533  0.4722 -0.4690 -0.0322
  640SOL     OW 2557   0.287   1.399   0.106 -0.2292  0.5692 -0.3018
  640SOL    HW1 2558   0.305   1.371   0.010  0.6190  2.5867 -0.0665
  640SOL    HW2 2559   0.275   1.319   0.156 -0.0816  1.4824 -1.9879
  640SOL     MW 2560   0.288   1.385   0.100 -0.0978  0.9558 -0.4933
  641SOL     OW 2561   2.222   0.343   0.403  0.5170  0.8626  0.1628
  641SOL    HW1 2562   2.302   0.290   0.396 -1.7385  0.6285 -1.0919
  641SOL    HW2 2563   2.161   0.287   0.454 -0.8484 -0.6626  0.7880
  641SOL     MW 2564   2.225   0.329   0.409  0.0392  0.6305  0.0797
  642SOL     OW 2565   0.058   0.041   0.555  0.6579 -0.7285 -0.2383
  642SOL    HW1 2566   0.034   0.133   0.521  1.1687 -0.3912 -1.7591
  642SOL    HW2 2567  -0.033   0.010   0.572  0.5737 -1.2209  1.9380
  642SOL     MW 2568   0.043   0.049   0.553  0.7142 -0.7490 -0.1518
  643SOL     OW 2569   2.081   0.335   1.636  0.2736  0.0995  0.3514
  643SOL    HW1 2570   2.005   0.308   1.689 -0.2983 -0.7392  1.1037
  643SOL    HW2 2571   2.112   0.262   1.584  0.4429 -0.1044 -1.1832
  643SOL     MW 2572   2.075   0.322   1.636  0.2205 -0.0380  0.2482
  644SOL     OW 2573   2.644   1.886   0.978 -0.4335 -0.0142 -0.4393
  644SOL    HW1 2574   2.618   1.834   1.055 -0.7100  1.4879  1.4566
  644SOL    HW2 2575   2.568   1.936   0.950 -2.6441 -1.9102 -1.6584
  644SOL     MW 2576   2.631   1.886   0.984 -0.7616 -0.0662 -0.3500
  645SOL     OW 2577   2.771   0.869   0.743  0.0854 -0.4035  0.9202
  645SOL    HW1 2578   2.861   0.829   0.748  0.2588 -2.3999 -1.6455
  645SOL    HW2 2579   2.707   0.802   0.763  3.9810 -1.2336  0.2155
  645SOL     MW 2580   2.774   0.855   0.746  0.6223 -0.7764  0.4887
  646SOL     OW 2581   0.167   2.240   0.850 -0.3347 -0.2176 -0.2433
  646SOL    HW1 2582   0.165   2.139   0.862 -1.1716 -0.1984 -0.0744
  646SOL    HW2 2583   0.113   2.256   0.774 -0.2641  0.0820  0.8747
  646SOL     MW 2584   0.160   2.228   0.842 -0.4358 -0.1755 -0.0735
  647SOL     OW 2585   2.767   0.525   3.007  0.5934  0.5622 -0.3382
  647SOL    HW1 2586   2.696   0.462   3.014 -1.2222 -1.2492  0.4898
  647SOL    HW2 2587   2.769   0.589   3.081  0.8652  0.1121 -0.4477
  647SOL     MW 2588   2.758   0.525   3.018  0.3897  0.2638 -0.2434
  648SOL     OW 2589   2.239   0.657   1.130 -0.3755 -0.4351  0.1922
  648SOL    HW1 2590   2.245   0.572   1.170 -0.0809  2.1491 -1.8306
  648SOL    HW2 2591   2.174   0.711   1.174  0.3653  0.5383  1.4263
  648SOL     MW 2592   2.231   0.653   1.141 -0.2389  0.0343  0.0881
  649SOL     OW 2593   2.413   2.708   1.254 -0.8706 -0.0193  0.2128
  649SOL    HW1 2594   2.494   2.756   1.280 -1.5193 -3.2453  0.6134
  649SOL    HW2 2595   2.437   2.615   1.263  2.5571 -0.4466 -3.8197
  649SOL     MW 2596   2.427   2.702   1.259 -0.5039 -0.5014 -0.2664
  650SOL     OW 2597   2.776   0.239   0.561 -0.2607  0.6027 -0.3055
  650SOL    HW1 2598   2.794   0.332   0.554 -0.1436  0.0685 -0.0824
  650SOL    HW2 2599   2.848   0.203   0.609  0.3787 -0.5714 -1.2266
  650SOL     MW 2600   2.788   0.246   0.567 -0.1609  0.3773 -0.3976
  651SOL     OW 2601   0.022   0.438   1.027  0.6998 -0.1658 -0.1428
  651SOL    HW1 2602   0.058   0.489   0.949  1.9122 -1.7288 -0.1536
  651SOL    HW2 2603  -0.048   0.493   1.066 -1.0795  0.7859  0.7283
  651SOL     MW 2604   0.018   0.452   1.022  0.6250 -0.2464 -0.0293
  652SOL     OW 2605   2.398   1.416   3.013 -0.0807  0.0776 -0.0342
  652SOL    HW1 2606   2.451   1.440   2.935 -0.7714  2.0524  0.8743
  652SOL    HW2 2607   2.323   1.479   3.013 -1.8259 -0.9627  0.8500
  652SOL     MW 2608   2.395   1.427   3.002 -0.4021  0.2009  0.2023
  653SOL     OW 2609   1.835   0.321   0.281 -0.3434 -0.0612  0.0734
  653SOL    HW1 2610   1.812   0.252   0.213 -0.0143  0.2846 -0.6227
  653SOL    HW2 2611   1.909   0.366   0.245 -2.1715  0.4048 -1.6484
  653SOL     MW 2612   1.841   0.318   0.268 -0.5412  0.0459 -0.2456
  654SOL     OW 2613   2.426   0.983   0.788  0.0468  0.4798  0.0481
  654SOL    HW1 2614   2.370   0.971   0.714  0.1454 -0.2783  0.7820
  654SOL    HW2 2615   2.489   0.906   0.798  3.8167 -1.8720 -1.4687
  654SOL     MW 2616   2.427   0.971   0.780  0.5572  0.0695 -0.0552
  655SOL     OW 2617   2.896   0.917   0.351 -0.1165 -0.2561 -0.8946
  655SOL    HW1 2618   2.862   0.958   0.432 -2.2191 -1.2647 -1.3111
  655SOL    HW2 2619   2.940   0.839   0.379  0.9934  1.3041 -1.0909
  655SOL     MW 2620   2.897   0.912   0.365 -0.2475 -0.1833 -0.9754
  656SOL     OW 2621   1.829   2.644   1.408 -0.1837 -0.3105 -0.0023
  656SOL    HW1 2622   1.845   2.724   1.359  1.1213  0.6911  0.8936
  656SOL    HW2 2623   1.902   2.583   1.389  0.4319 -1.4078  1.6396
  656SOL     MW 2624   1.841   2.647   1.399  0.0697 -0.3232  0.3326
  657SOL     OW 2625   0.065   1.807   1.173  0.4736 -0.7014 -1.0526
  657SOL    HW1 2626   0.157   1.832   1.165  0.9570  0.0781 -0.1587
  657SOL    HW2 2627   0.066   1.718   1.210  0.5876  1.6173  2.6759
  657SOL     MW 2628   0.077   1.799   1.177  0.5524 -0.2926 -0.4427
  658SOL     OW 2629   2.701   1.347   0.235 -0.7902  0.6610 -0.6278
  658SOL    HW1 2630   2.677   1.267   0.286 -0.9474 -1.3621  1.2008
  658SOL    HW2 2631   2.708   1.424   0.289  0.1895 -0.0306  3.6043
  658SOL     MW 2632   2.699   1.347   0.249 -0.6817  0.3028  0.1719
  659SOL     OW 2633   2.149   1.461   1.031 -0.4435 -0.2259  0.5182
  659SOL    HW1 2634   2.238   1.476   0.999  1.7744 -0.3436 -0.8104
  659SOL    HW2 2635   2.153   1.448   1.124 -0.9870  0.1832 -2.6396
  659SOL     MW 2636   2.161   1.461   1.039 -0.2226 -0.1874 -0.0737
  660SOL     OW 2637   2.099   1.572   1.647 -0.0248  0.4302 -0.2882
  660SOL    HW1 2638   2.142   1.564   1.732  0.7819 -1.4021 -0.0839
  660SOL    HW2 2639   2.015   1.528   1.646 -1.6852  2.2094 -2.7071
  660SOL     MW 2640   2.094   1.565   1.658 -0.1375  0.4232 -0.5804
  661SOL     OW 2641   2.414   0.983   0.258 -0.1369  0.0946 -0.0756
  661SOL    HW1 2642   2.492   1.030   0.300 -2.0444  0.5405  1.5029
  661SOL    HW2 2643   2.431   0.885   0.286 -1.1470 -1.5351 -1.7761
  661SOL     MW 2644   2.427   0.976   0.267 -0.5218 -0.0616 -0.0917
  662SOL     OW 2645   2.572   2.948   0.871  0.4753 -0.0987 -0.2785
  662SOL    HW1 2646   2.528   3.020   0.918  1.1813 -0.3624 -1.7856
  662SOL    HW2 2647   2.592   2.985   0.780  0.1220 -0.1499  0.5751
  662SOL     MW 2648   2.569   2.962   0.865  0.5218 -0.1403 -0.3647
  663SOL     OW 2649   2.697   1.582   0.445 -0.0294  0.1898  0.0920
  663SOL    HW1 2650   2.739   1.628   0.375  1.1752 -0.4657 -1.6311
  663SOL    HW2 2651   2.763   1.542   0.500 -2.3083  1.9700 -2.1008
  663SOL     MW 2652   2.711   1.583   0.443 -0.1712  0.3382 -0.4247
  664SOL     OW 2653   2.525   1.482   1.508  0.0742  0.4111  0.0088
  664SOL    HW1 2654   2.480   1.551   1.458  2.1091  1.4787 -1.0936
  664SOL    HW2 2655   2.456   1.415   1.538  0.9442 -1.1543 -1.4491
  664SOL     MW 2656   2.510   1.482   1.505  0.4575  0.3454 -0.3290
  665SOL     OW 2657   2.856   0.840   2.115 -0.4289  0.2256 -0.3152
  665SOL    HW1 2658   2.848   0.827   2.019  2.9382 -0.7256  0.0368
  665SOL    HW2 2659   2.929   0.784   2.138  0.3779  0.9010 -0.3175
  665SOL     MW 2660   2.864   0.831   2.105  0.1218  0.1892 -0.2690
  666SOL     OW 2661   2.775   3.022   1.698 -0.0747  0.0039  0.0704
  666SOL    HW1 2662   2.793   3.028   1.606  2.0014  1.7242  1.1957
  666SOL    HW2 2663   2.730   2.936   1.708 -2.0599 -0.0027 -0.7164
  666SOL     MW 2664   2.771   3.011   1.687 -0.0627  0.2300  0.1150
  667SOL     OW 2665   1.995   2.731   1.744  0.6262  0.1025  0.5948
  667SOL    HW1 2666   2.043   2.688   1.814  1.5560 -0.2140 -1.8350
  667SOL    HW2 2667   2.057   2.798   1.720 -0.8807  0.0185  0.1845
  667SOL     MW 2668   2.010   2.734   1.750  0.5500  0.0497  0.2201
  668SOL     OW 2669   2.777   0.560   0.869 -0.2634  0.3843 -1.0414
  668SOL    HW1 2670   2.852   0.595   0.926  1.8695  0.5198 -0.0417
  668SOL    HW2 2671   2.712   0.625   0.875 -1.0769 -0.4676 -0.9365
  668SOL     MW 2672   2.778   0.573   0.877 -0.0893  0.2898 -0.8957
  669SOL     OW 2673   0.214   0.995   0.715 -0.1772  0.0390 -0.3125
  669SOL    HW1 2674   0.147   1.025   0.781 -0.2232 -4.4968 -0.1259
  669SOL    HW2 2675   0.287   1.063   0.697  1.3229 -1.7234 -0.9351
  669SOL     MW 2676   0.214   1.008   0.721  0.0146 -0.7920 -0.3700
  670SOL     OW 2677   2.898   0.335   0.259  0.0768 -0.0269  0.6680
  670SOL    HW1 2678   2.908   0.260   0.196 -0.3368 -1.5556  1.1167
  670SOL    HW2 2679   2.928   0.418   0.226 -1.7077  2.4725  0.3864
  670SOL     MW 2680   2.903   0.336   0.246 -0.2132  0.1012  0.6901
  671SOL     OW 2681   2.002   3.031   1.518  0.0297  0.0675 -0.4682
  671SOL    HW1 2682   1.933   3.000   1.456 -0.8005 -0.6473 -2.5732
  671SOL    HW2 2683   1.955   3.057   1.600  2.5889  2.5039  0.1516
  671SOL     MW 2684   1.987   3.030   1.521  0.2578  0.2946 -0.6642
  672SOL     OW 2685   1.873   1.744   1.313  0.9278  0.2819  0.0034
  672SOL    HW1 2686   1.887   1.807   1.390  0.4936 -2.3051 -0.3134
  672SOL    HW2 2687   1.887   1.794   1.226 -0.0944  1.1016 -0.5291
  672SOL     MW 2688   1.877   1.759   1.312  0.7356  0.0487 -0.1087
  673SOL     OW 2689   2.790   1.093   0.573 -0.0448  0.5859 -0.1758
  673SOL    HW1 2690   2.787   1.004   0.627 -1.9019 -2.8387  0.3567
  673SOL    HW2 2691   2.863   1.142   0.610  2.0759 -0.4398 -1.8773
  673SOL     MW 2692   2.799   1.088   0.585 -0.0100 -0.0013 -0.3300
  674SOL     OW 2693   2.475   3.101   1.258 -0.5331  0.2751  0.4171
  674SOL    HW1 2694   2.433   3.107   1.172 -4.2537  1.8703 -0.8171
  674SOL    HW2 2695   2.511   3.016   1.271 -2.9804  0.4820 -0.7551
  674SOL     MW 2696   2.475   3.091   1.248 -1.3469  0.5129  0.0996
  675SOL     OW 2697   3.027   0.897   1.107 -0.3047 -0.3842 -0.1176
  675SOL    HW1 2698   3.091   0.896   1.182  1.2293  1.1888 -0.7014
  675SOL    HW2 2699   3.084   0.939   1.034  3.2054  1.6003  1.3296
  675SOL     MW 2700   3.043   0.903   1.107  0.3608  0.0852 -0.0037
  676SOL     OW 2701   2.902   1.457   1.702 -0.1675 -0.6505 -0.1560
  676SOL    HW1 2702   2.886   1.375   1.656  1.3512  0.7586 -1.4072
  676SOL    HW2 2703   2.925   1.429   1.799  2.9872 -0.9115  3.9376
  676SOL     MW 2704   2.903   1.442   1.709  0.4491 -0.4990  0.2191
  677SOL     OW 2705   2.443   0.582   1.970  0.6373  0.6856 -0.0120
  677SOL    HW1 2706   2.416   0.510   1.905 -1.1196  0.1002 -2.5789
  677SOL    HW2 2707   2.396   0.655   1.938  2.3790  0.8090 -1.1312
  677SOL     MW 2708   2.433   0.582   1.957  0.6353  0.6246 -0.4984
  678SOL     OW 2709   2.399   1.627   0.324  0.4247 -0.5196  0.4985
  678SOL    HW1 2710   2.305   1.620   0.335  0.7239  2.7825 -2.3293
  678SOL    HW2 2711   2.428   1.539   0.298 -0.8586  0.8236  1.1546
  678SOL     MW 2712   2.391   1.614   0.322  0.2949  0.0933  0.2119
  679SOL     OW 2713   2.264   0.414   1.257 -0.2607 -0.5644 -0.0193
  679SOL    HW1 2714   2.230   0.347   1.198  0.1061  1.3497 -0.9546
  679SOL    HW2 2715   2.192   0.426   1.316 -1.0031  0.6578 -4.6102
  679SOL     MW 2716   2.250   0.406   1.257 -0.3103 -0.1506 -0.7485
  680SOL     OW 2717   2.444   0.100   1.507  1.0463 -0.3130  0.1295
  680SOL    HW1 2718   2.342   0.111   1.503 -0.8831  4.0687 -2.1389
  680SOL    HW2 2719   2.469   0.064   1.427 -0.0769 -0.1444  1.1593
  680SOL     MW 2720   2.433   0.097   1.496  0.6435  0.2874 -0.0339
  681SOL     OW 2721   0.243   0.609   1.474 -0.4063 -0.2889 -0.5437
  681SOL    HW1 2722   0.251   0.516   1.491  0.8308  2.3602  0.2912
  681SOL    HW2 2723   0.199   0.610   1.384 -0.8727  1.2152 -0.3022
  681SOL     MW 2724   0.238   0.597   1.464 -0.3046  0.2590 -0.4016
  682SOL     OW 2725   0.087   2.842   1.544 -0.1887 -0.7141  0.1494
  682SOL    HW1 2726   0.149   2.913   1.526  2.5943  0.1128 -0.2565
  682SOL    HW2 2727   0.030   2.865   1.612  0.2909  0.7036 -1.0957
  682SOL     MW 2728   0.087   2.855   1.550  0.2417 -0.4179 -0.0685
  683SOL     OW 2729   2.082   0.796   3.011  0.0667 -0.6560  0.2494
  683SOL    HW1 2730   2.023   0.721   3.005 -2.5357  3.3414 -1.2186
  683SOL    HW2 2731   2.024   0.863   3.037  0.7641 -0.0162 -0.7998
  683SOL     MW 2732   2.067   0.795   3.014 -0.1846 -0.0442 -0.0828
  684SOL     OW 2733   2.073   1.737   0.638 -0.5712  0.0911  0.1923
  684SOL    HW1 2734   2.081   1.698   0.546 -2.6548 -0.1397  0.3778
  684SOL    HW2 2735   2.036   1.658   0.682 -1.9111  2.0034  0.9408
  684SOL     MW 2736   2.069   1.722   0.632 -1.0229  0.3130  0.3155
  685SOL     OW 2737   2.686   1.701   1.178  0.0980  0.0730  0.2474
  685SOL    HW1 2738   2.690   1.693   1.275 -1.5483  1.0492  1.1869
  685SOL    HW2 2739   2.640   1.620   1.165  0.8158  0.5119 -1.2381
  685SOL     MW 2740   2.681   1.689   1.189 -0.0245  0.2597  0.1753
  686SOL     OW 2741   2.887   0.651   1.610 -0.3239  0.4301  0.2547
  686SOL    HW1 2742   2.870   0.628   1.697  1.4635  1.6631 -2.0533
  686SOL    HW2 2743   2.973   0.696   1.617 -0.8056 -0.1910  1.4591
  686SOL     MW 2744   2.896   0.654   1.623 -0.1517  0.5108  0.1091
  687SOL     OW 2745   2.124   0.203   1.133 -0.1082  0.6181  0.6764
  687SOL    HW1 2746   2.173   0.163   1.062 -2.9524  0.8462  1.2122
  687SOL    HW2 2747   2.074   0.278   1.094  1.3021 -0.0003  0.6942
  687SOL     MW 2748   2.124   0.208   1.118 -0.2974  0.5666  0.7495
  688SOL     OW 2749   2.445   0.588   1.402  0.4693 -0.1193  0.2547
  688SOL    HW1 2750   2.433   0.508   1.348  2.6096 -0.7047  1.8321
  688SOL    HW2 2751   2.355   0.596   1.446  0.2666  0.6553  1.4788
  688SOL     MW 2752   2.432   0.578   1.401  0.7250 -0.0943  0.6244
  689SOL     OW 2753   2.510   0.752   2.980  0.1660 -0.4410 -0.1223
  689SOL    HW1 2754   2.445   0.822   2.994 -0.4536  1.0594 -0.1593
  689SOL    HW2 2755   2.545   0.740   3.064 -0.1551 -2.0036 -0.9000
  689SOL     MW 2756   2.506   0.760   2.993  0.0419 -0.4492 -0.2298
  690SOL     OW 2757   2.013   0.875   1.838 -0.6217  0.7261 -0.0882
  690SOL    HW1 2758   2.009   0.786   1.871 -2.6955  0.4923  0.4681
  690SOL    HW2 2759   2.039   0.866   1.745  0.6181 -1.2529  1.0081
  690SOL     MW 2760   2.016   0.862   1.830 -0.7317  0.4341  0.1298
  691SOL     OW 2761   2.410   0.300   0.877  0.3538  0.1185  0.3549
  691SOL    HW1 2762   2.483   0.338   0.922 -0.8516  1.0462 -2.3567
  691SOL    HW2 2763   2.339   0.354   0.910  1.3495 -0.4106 -0.8372
  691SOL     MW 2764   2.411   0.312   0.887  0.3262  0.1711 -0.1602
  692SOL     OW 2765   2.867   1.596   1.439 -0.3499  0.1253 -0.2822
  692SOL    HW1 2766   2.868   1.567   1.533 -1.4018  0.5242  0.7751
  692SOL    HW2 2767   2.906   1.685   1.434 -1.2472 -0.7404  2.4008
  692SOL     MW 2768   2.872   1.604   1.451 -0.6070  0.0637  0.2113
  693SOL     OW 2769   2.346   0.394   0.036 -0.4081 -0.3969 -0.1687
  693SOL    HW1 2770   2.276   0.328   0.062  0.1230  0.5800  0.0157
  693SOL    HW2 2771   2.328   0.472   0.082  0.2047 -1.7713 -3.3365
  693SOL     MW 2772   2.335   0.396   0.046 -0.2572 -0.4494 -0.5623
  694SOL     OW 2773   1.905   1.185   1.157  0.3534 -0.9867  0.2019
  694SOL    HW1 2774   1.996   1.188   1.178 -0.2525  1.5073  2.6173
  694SOL    HW2 2775   1.883   1.098   1.178 -0.2052  1.5725  0.0017
  694SOL     MW 2776   1.914   1.174   1.163  0.1998 -0.3200  0.4942
  695SOL     OW 2777   2.964   1.407   1.272 -0.4340 -0.0184  0.4032
  695SOL    HW1 2778   2.936   1.407   1.175 -0.9949  1.1925 -4.1057
  695SOL    HW2 2779   2.928   1.491   1.311  1.4010  0.1108 -1.5381
  695SOL     MW 2780   2.955   1.418   1.264 -0.2659  0.1584 -0.4478
  696SOL     OW 2781   2.036   1.436   0.783 -0.7408 -0.5097  0.2925
  696SOL    HW1 2782   2.067   1.468   0.865  1.2538  1.2635 -2.4253
  696SOL    HW2 2783   2.003   1.349   0.812 -0.6435 -0.7736  0.0600
  696SOL     MW 2784   2.036   1.428   0.798 -0.4648 -0.3105 -0.0968
  697SOL     OW 2785   2.932   1.062   2.243  0.5470 -0.2783  0.3558
  697SOL    HW1 2786   2.848   1.105   2.267 -3.9518  0.4386 -0.1198
  697SOL    HW2 2787   2.901   0.987   2.194  1.3379 -0.1749  1.9359
  697SOL     MW 2788   2.917   1.058   2.239  0.0578 -0.1701  0.5015
  698SOL     OW 2789   2.586   0.313   3.037  0.4924  0.2772 -0.0219
  698SOL    HW1 2790   2.508   0.361   3.059  0.8189  0.5220 -0.6234
  698SOL    HW2 2791   2.623   0.290   3.127 -0.2697  0.0760  1.3151
  698SOL     MW 2792   2.581   0.316   3.052  0.4349  0.2829  0.0751
  699SOL     OW 2793   1.895   1.621   2.081  0.1657 -0.2219 -0.2422
  699SOL    HW1 2794   1.895   1.527   2.061 -1.9652  0.0511  1.1296
  699SOL    HW2 2795   1.985   1.639   2.054  1.6158  1.2124 -0.8513
  699SOL     MW 2796   1.907   1.611   2.075  0.0758  0.0033 -0.1415
  700SOL     OW 2797   2.677   0.828   1.590 -0.2277  0.4005  0.6015
  700SOL    HW1 2798   2.702   0.911   1.551  0.8853  0.4963  0.4160
  700SOL    HW2 2799   2.756   0.781   1.602 -2.9075 -0.3720  2.3462
  700SOL     MW 2800   2.691   0.833   1.586 -0.4344  0.3112  0.8072
  701SOL     OW 2801   1.701   1.130   2.505 -0.4332 -0.2858  0.6715
  701SOL    HW1 2802   1.792   1.119   2.524 -1.6400  3.5177 -1.6189
  701SOL    HW2 2803   1.664   1.158   2.587  3.0150 -1.9114  1.5418
  701SOL     MW 2804   1.708   1.132   2.518 -0.1375  0.0015  0.4841
  702SOL     OW 2805   2.107   0.452   0.744 -0.7566  0.6283 -0.6031
  702SOL    HW1 2806   2.111   0.371   0.696  1.6169 -0.5349 -1.1903
  702SOL    HW2 2807   2.196   0.493   0.725 -0.5154  1.0048 -2.4771
  702SOL     MW 2808   2.120   0.447   0.735 -0.4116  0.5245 -0.9278
  703SOL     OW 2809   2.722   1.241   0.951 -0.2951  0.2745 -0.1734
  703SOL    HW1 2810   2.681   1.246   0.867  0.4749  2.0157  0.8940
  703SOL    HW2 2811   2.707   1.157   0.997  1.4029  0.6434  0.3859
  703SOL     MW 2812   2.714   1.231   0.946  0.0305  0.5529  0.0412
  704SOL     OW 2813   3.074   1.235   0.133 -0.2162  0.3933 -0.2159
  704SOL    HW1 2814   2.985   1.213   0.093 -0.4328  0.6668 -2.4996
  704SOL    HW2 2815   3.063   1.226   0.230  2.6197 -0.8036 -1.2691
  704SOL     MW 2816   3.061   1.231   0.140  0.1294  0.2715 -0.6562
  705SOL     OW 2817   2.061   1.553   1.300 -0.2087 -0.0115 -0.1928
  705SOL    HW1 2818   2.007   1.629   1.302  0.7659  0.4639  1.9493
  705SOL    HW2 2819   2.117   1.558   1.380 -0.1851  0.3248 -0.6537
  705SOL     MW 2820   2.062   1.563   1.310 -0.0770  0.0956  0.0290
  706SOL     OW 2821   2.997   1.228   0.654 -0.0675 -0.2093  0.8205
  706SOL    HW1 2822   3.024   1.224   0.559  1.6167  0.6569 -0.8189
  706SOL    HW2 2823   2.979   1.321   0.668  0.2851  0.5444 -0.9073
  706SOL     MW 2824   2.998   1.240   0.644  0.2012  0.0044  0.3763
  707SOL     OW 2825   2.383   0.037   0.959 -0.2520 -0.1444  0.0477
  707SOL    HW1 2826   2.407   0.117   0.913 -0.0706  2.0104 -0.2806
  707SOL    HW2 2827   2.294   0.012   0.924 -1.8894 -0.9296 -1.2087
  707SOL     MW 2828   2.375   0.044   0.948 -0.4441  0.0363 -0.1613
  708SOL     OW 2829   2.413   1.377   0.183  0.0199  0.0166  0.1110
  708SOL    HW1 2830   2.506   1.371   0.181 -1.2461 -1.0655 -1.3754
  708SOL    HW2 2831   2.404   1.394   0.086 -1.0610 -0.1567  1.0664
  708SOL     MW 2832   2.424   1.379   0.170 -0.2898 -0.1490  0.0410
  709SOL     OW 2833   1.760   1.631   0.235  0.1574  0.9484 -0.1039
  709SOL    HW1 2834   1.754   1.651   0.142  1.8668 -0.9673 -0.2339
  709SOL    HW2 2835   1.672   1.605   0.268 -2.6680  2.3569  2.4298
  709SOL     MW 2836   1.747   1.631   0.227  0.0101  0.8815  0.2133
  710SOL     OW 2837   2.156   1.163   1.172  0.5730  0.3193 -0.0500
  710SOL    HW1 2838   2.153   1.115   1.089  1.6227  2.0427  2.4253
  710SOL    HW2 2839   2.192   1.093   1.232  1.3821  0.3740 -2.4121
  710SOL     MW 2840   2.160   1.148   1.169  0.8183  0.5539 -0.0351
  711SOL     OW 2841   2.408   0.163   1.770 -0.4395  0.0363  0.1875
  711SOL    HW1 2842   2.476   0.098   1.808 -0.1534 -2.9898 -2.9428
  711SOL    HW2 2843   2.432   0.163   1.673 -0.7530 -1.6782 -1.1927
  711SOL     MW 2844   2.420   0.154   1.762 -0.4431 -0.5892 -0.4076
  712SOL     OW 2845   1.901   0.614   0.001 -0.1486  0.1338 -0.5404
  712SOL    HW1 2846   1.834   0.629  -0.064  3.2221 -0.6110 -1.5050
  712SOL    HW2 2847   1.857   0.645   0.080 -2.7096 -1.3866  0.0772
  712SOL     MW 2848   1.886   0.620   0.003 -0.0417 -0.1651 -0.5862
  713SOL     OW 2849   2.523   0.698   1.085 -0.0077  0.1165  0.0671
  713SOL    HW1 2850   2.561   0.629   1.141  0.3926 -3.9846 -0.6951
  713SOL    HW2 2851   2.426   0.675   1.090 -1.3218  1.1307 -1.3322
  713SOL     MW 2852   2.515   0.686   1.093 -0.1282 -0.2908 -0.2181
  714SOL     OW 2853   2.230   0.183   1.967  0.1543 -0.6357 -0.2717
  714SOL    HW1 2854   2.266   0.128   2.038 -2.2606 -3.0659  1.6336
  714SOL    HW2 2855   2.294   0.185   1.894  1.0477 -0.1452  0.5653
  714SOL     MW 2856   2.243   0.176   1.967 -0.0465 -0.8916  0.0901
  715SOL     OW 2857   1.809   2.034   1.760  0.1459 -0.2167 -0.4362
  715SOL    HW1 2858   1.902   2.047   1.750 -0.6767  0.6595  2.2021
  715SOL    HW2 2859   1.780   1.946   1.803 -2.5385 -0.7428  0.7895
  715SOL     MW 2860   1.817   2.024   1.764 -0.3168 -0.1705  0.0736
  716SOL     OW 2861   2.384   0.570   0.666  0.9715  0.3449  0.1533
  716SOL    HW1 2862   2.418   0.478   0.648 -0.3328 -1.9108 -1.3310
  716SOL    HW2 2863   2.337   0.599   0.579  2.5193  0.3440  0.8170
  716SOL     MW 2864   2.382   0.562   0.652  1.0037  0.0471  0.0450
  717SOL     OW 2865   2.830   1.588   2.836  0.0568  0.7386 -0.2788
  717SOL    HW1 2866   2.904   1.568   2.887 -2.1866  0.0024 -3.6423
  717SOL    HW2 2867   2.783   1.649   2.890  0.2928 -1.3886 -2.3685
  717SOL     MW 2868   2.833   1.593   2.850 -0.2081  0.3608 -0.9983
  718SOL     OW 2869   2.650   1.342   1.299  0.0320 -0.0118 -0.6790
  718SOL    HW1 2870   2.629   1.393   1.375 -1.9971 -1.9840  0.5506
  718SOL    HW2 2871   2.745   1.345   1.302 -1.1063 -2.1159 -0.6533
  718SOL     MW 2872   2.660   1.349   1.309 -0.3859 -0.5496 -0.5134
  719SOL     OW 2873   2.205   1.298   0.592  0.3943  0.3582  0.0979
  719SOL    HW1 2874   2.284   1.331   0.567 -1.4375  1.0582 -0.7555
  719SOL    HW2 2875   2.183   1.364   0.656  2.3996  0.8106 -1.2496
  719SOL     MW 2876   2.213   1.311   0.597  0.4172  0.5102 -0.1925
  720SOL     OW 2877   2.824   1.224   0.024  0.5894  0.2633  0.2232
  720SOL    HW1 2878   2.803   1.129   0.036 -1.8011  0.4630 -1.9592
  720SOL    HW2 2879   2.786   1.265   0.103 -0.0293  2.3282  0.4531
  720SOL     MW 2880   2.816   1.217   0.036  0.1924  0.5621 -0.0344
  721SOL     OW 2881   2.476   0.868   1.358  0.2984 -0.2231  0.3586
  721SOL    HW1 2882   2.459   0.775   1.340  2.0916 -1.0045 -3.3596
  721SOL    HW2 2883   2.544   0.868   1.423  4.8451  2.5021 -0.5443
  721SOL     MW 2884   2.483   0.856   1.364  1.1349  0.0334 -0.2511
  722SOL     OW 2885   2.606   1.146   0.375 -0.2179  0.1395  0.7827
  722SOL    HW1 2886   2.555   1.214   0.422 -0.8379 -0.1081 -0.8800
  722SOL    HW2 2887   2.661   1.104   0.442 -1.4424 -2.7682 -2.4504
  722SOL     MW 2888   2.607   1.149   0.390 -0.4612 -0.2768  0.1367
  723SOL     OW 2889   2.287   1.364   1.564  0.0550 -0.8150  0.0887
  723SOL    HW1 2890   2.278   1.346   1.469 -1.1689  1.2954 -0.4706
  723SOL    HW2 2891   2.219   1.419   1.603 -3.0050  1.7812  0.6882
  723SOL     MW 2892   2.277   1.369   1.557 -0.5102 -0.1940  0.0940
  724SOL     OW 2893   2.492   0.308   0.606  0.0569  0.2322 -0.1945
  724SOL    HW1 2894   2.481   0.273   0.695  0.6872  1.3770  0.3089
  724SOL    HW2 2895   2.578   0.277   0.581 -0.9204  0.8570  0.7412
  724SOL     MW 2896   2.502   0.299   0.615  0.0111  0.4657 -0.0046
  725SOL     OW 2897   2.629   0.411   1.244 -0.0767  0.1829  0.3598
  725SOL    HW1 2898   2.708   0.457   1.280 -1.5863  0.2416 -0.3298
  725SOL    HW2 2899   2.619   0.332   1.301  0.4382  2.0104  2.5598
  725SOL     MW 2900   2.638   0.407   1.256 -0.2079  0.4317  0.5591
  726SOL     OW 2901   2.505   2.492   0.461 -0.3891  0.2815 -0.4228
  726SOL    HW1 2902   2.508   2.576   0.418 -0.1211  0.3646  0.5716
  726SOL    HW2 2903   2.497   2.518   0.554  1.7063  0.7520  1.5987
  726SOL     MW 2904   2.504   2.506   0.468 -0.0773  0.3545 -0.0249
  727SOL     OW 2905   2.860   0.300   1.725 -0.1317 -0.2064 -0.2240
  727SOL    HW1 2906   2.800   0.291   1.654 -1.0084  1.0918  0.7707
  727SOL    HW2 2907   2.816   0.272   1.811 -0.8664 -1.0350 -0.5683
  727SOL     MW 2908   2.846   0.295   1.727 -0.3443 -0.1444 -0.1382
  728SOL     OW 2909   2.845   1.187   2.851  0.0429 -0.1034  0.0362
  728SOL    HW1 2910   2.869   1.245   2.774  1.5567  0.0993 -1.7934
  728SOL    HW2 2911   2.861   1.232   2.933  0.0318 -0.2233 -2.0330
  728SOL     MW 2912   2.850   1.201   2.851  0.2412 -0.0925 -0.4782
  729SOL     OW 2913   2.500   1.499   1.105  0.1971  0.3379  0.5382
  729SOL    HW1 2914   2.535   1.411   1.129  0.5784 -1.0402  0.4955
  729SOL    HW2 2915   2.484   1.493   1.009 -0.3008  0.3404 -0.1542
  729SOL     MW 2916   2.502   1.487   1.095  0.1817  0.1564  0.4412
  730SOL     OW 2917   2.212   1.181   0.175  0.4020 -0.5946 -0.1275
  730SOL    HW1 2918   2.280   1.120   0.191 -1.9164  0.4522  0.0033
  730SOL    HW2 2919   2.254   1.264   0.188 -0.1734  0.6456 -0.5332
  730SOL     MW 2920   2.226   1.184   0.179  0.0202 -0.2928 -0.1638
  731SOL     OW 2921   2.739   2.074   2.861 -0.0993 -0.3578  0.1601
  731SOL    HW1 2922   2.660   2.040   2.806  2.1573 -0.9551 -3.5239
  731SOL    HW2 2923   2.819   2.050   2.813 -0.6061 -1.2200 -0.4316
  731SOL     MW 2924   2.739   2.066   2.847  0.1316 -0.5503 -0.4040
  732SOL     OW 2925   2.249   0.987   1.365  0.6879 -0.2359 -0.0495
  732SOL    HW1 2926   2.207   0.974   1.455 -1.5776  2.5068  1.1657
  732SOL    HW2 2927   2.341   0.955   1.367 -1.7815  1.2410  1.9429
  732SOL     MW 2928   2.255   0.981   1.377  0.0632  0.3209  0.3737
  733SOL     OW 2929   2.373   2.818   3.018  0.3264 -0.7526 -0.1637
  733SOL    HW1 2930   2.301   2.854   3.074 -0.0486 -1.3535 -0.3139
  733SOL    HW2 2931   2.356   2.720   3.018  0.2520  0.3504 -1.5983
  733SOL     MW 2932   2.361   2.810   3.026  0.2671 -0.6863 -0.3728
  734SOL     OW 2933   1.588   0.258   2.560 -0.8051  0.1370  0.2329
  734SOL    HW1 2934   1.541   0.205   2.627 -0.0308 -0.9035  0.7034
  734SOL    HW2 2935   1.541   0.252   2.478 -0.8357 -1.2292 -0.7912
  734SOL     MW 2936   1.576   0.250   2.558 -0.7069 -0.1805  0.1599
  735SOL     OW 2937   2.982   0.947   2.679 -0.5980  0.6151  0.3013
  735SOL    HW1 2938   2.979   0.850   2.656 -2.1814 -1.3208  0.0540
  735SOL    HW2 2939   3.006   0.945   2.775  1.3806 -1.0231 -0.0551
  735SOL     MW 2940   2.985   0.934   2.688 -0.5459  0.1435  0.2217
  736SOL     OW 2941   0.136   0.573   2.593 -0.0121  0.4490 -0.1842
  736SOL    HW1 2942   0.148   0.635   2.519  0.5636 -0.3888 -0.6918
  736SOL    HW2 2943   0.168   0.488   2.553  0.6457  0.7062 -0.1826
  736SOL     MW 2944   0.142   0.570   2.578  0.1506  0.3724 -0.2510
  737SOL     OW 2945   2.982   0.683   2.627  0.2400 -0.5152  0.2878
  737SOL    HW1 2946   2.913   0.650   2.558 -0.2892 -2.3162 -2.0333
  737SOL    HW2 2947   3.064   0.650   2.601 -0.2292 -1.7915  1.9695
  737SOL     MW 2948   2.983   0.675   2.614  0.1083 -0.9212  0.2035
  738SOL     OW 2949   0.140   0.499   1.877 -0.5320 -0.5153 -0.1294
  738SOL    HW1 2950   0.233   0.536   1.891  0.1007  1.3954 -0.8949
  738SOL    HW2 2951   0.144   0.452   1.797  0.3288 -1.9020  1.5597
  738SOL     MW 2952   0.153   0.498   1.869 -0.3350 -0.4462 -0.0075
  739SOL     OW 2953   2.481   1.012   2.080 -0.0265 -0.1488  0.4008
  739SOL    HW1 2954   2.443   0.954   2.015 -0.6169  2.6558  2.1955
  739SOL    HW2 2955   2.555   0.963   2.109  0.4227 -1.0778 -0.0749
  739SOL     MW 2956   2.485   0.998   2.075 -0.0451  0.0986  0.5748
  740SOL     OW 2957   0.101   1.836   2.928  0.1327 -0.8789  0.1951
  740SOL    HW1 2958   0.080   1.741   2.937 -0.5797 -0.5444  0.7944
  740SOL    HW2 2959   0.186   1.851   2.972 -1.7045  1.2348  0.3100
  740SOL     MW 2960   0.110   1.826   2.935 -0.2037 -0.5558  0.2894
  741SOL     OW 2961   2.239   1.167   2.733 -0.6110 -0.5708 -0.6732
  741SOL    HW1 2962   2.185   1.230   2.695  1.8113 -1.2802  1.1699
  741SOL    HW2 2963   2.243   1.169   2.831 -1.0155 -2.0305  1.0112
  741SOL     MW 2964   2.232   1.176   2.741 -0.3448 -0.8570 -0.2078
  742SOL     OW 2965   1.688   1.206   2.243 -0.7592  0.1945  0.1360
  742SOL    HW1 2966   1.597   1.180   2.222 -0.4843 -0.3940  0.2413
  742SOL    HW2 2967   1.698   1.183   2.339  2.3516 -1.1846 -0.6687
  742SOL     MW 2968   1.677   1.199   2.253 -0.3125 -0.0651  0.0437
  743SOL     OW 2969   2.486   1.235   2.690 -0.5525 -0.1928  0.0878
  743SOL    HW1 2970   2.390   1.227   2.690  1.9653  0.0579 -1.0522
  743SOL    HW2 2971   2.512   1.156   2.727 -0.5411  0.9447  0.0858
  743SOL     MW 2972   2.477   1.224   2.695 -0.2188 -0.0097 -0.0629
  744SOL     OW 2973   2.723   0.900   1.858 -0.7879 -0.5687 -0.0268
  744SOL    HW1 2974   2.673   0.981   1.840 -1.1777 -1.4517 -0.9819
  744SOL    HW2 2975   2.710   0.863   1.770 -0.3915  0.2751  0.4619
  744SOL     MW 2976   2.714   0.906   1.844 -0.7870 -0.5739 -0.0883
  745SOL     OW 2977   1.689   0.502   2.450  0.0207 -0.0868 -0.0086
  745SOL    HW1 2978   1.679   0.517   2.351  0.7095  2.2103 -0.4592
  745SOL    HW2 2979   1.644   0.422   2.473  0.7772  0.4232  1.3039
  745SOL     MW 2980   1.682   0.494   2.440  0.2114  0.2836  0.1051
  746SOL     OW 2981   1.605   1.422   1.648  0.0994  0.1479  0.0977
  746SOL    HW1 2982   1.696   1.426   1.628 -2.3493  2.1841 -0.9882
  746SOL    HW2 2983   1.596   1.426   1.741 -1.4631  0.7791 -1.7122
  746SOL     MW 2984   1.616   1.423   1.658 -0.4299  0.4998 -0.2844
  747SOL     OW 2985   2.612   1.140   1.818  0.8724 -0.4489  0.2061
  747SOL    HW1 2986   2.521   1.119   1.781  0.7044 -0.8909 -3.8845
  747SOL    HW2 2987   2.592   1.181   1.904 -1.4101  0.4526 -0.6396
  747SOL     MW 2988   2.597   1.143   1.824  0.5491 -0.3883 -0.4452
  748SOL     OW 2989   0.063   0.075   1.889 -0.4531 -0.0929  0.3335
  748SOL    HW1 2990   0.141   0.130   1.871 -0.7494 -2.6566  0.3895
  748SOL    HW2 2991   0.018   0.114   1.973 -0.9523  1.6443  2.4626
  748SOL     MW 2992   0.067   0.088   1.898 -0.5581 -0.2020  0.6218
  749SOL     OW 2993   2.490   0.597   2.730  0.6437  0.1109  0.1333
  749SOL    HW1 2994   2.511   0.679   2.687 -0.0363  0.0030  1.8783
  749SOL    HW2 2995   2.480   0.632   2.823 -1.6208 -1.3265  0.4766
  749SOL     MW 2996   2.491   0.612   2.737  0.2552 -0.0930  0.4088
  750SOL     OW 2997   2.060   3.050   1.993 -0.3464  0.1538  0.3560
  750SOL    HW1 2998   2.107   3.132   1.979 -1.8524  2.1806 -0.0317
  750SOL    HW2 2999   2.143   2.996   1.994  0.1887  1.8260 -1.8565
  750SOL     MW 3000   2.077   3.054   1.991 -0.4745  0.6419  0.0130
  751SOL     OW 3001   0.161   0.332   2.468  0.7688 -0.4581 -0.5470
  751SOL    HW1 3002   0.127   0.258   2.520  0.9153 -1.4317  0.4881
  751SOL    HW2 3003   0.150   0.313   2.373  1.6075 -2.7173  1.3096
  751SOL     MW 3004   0.155   0.320   2.462  0.8988 -0.8846 -0.1655
  752SOL     OW 3005   2.120   0.772   2.741  0.3168  0.6450  0.1286
  752SOL    HW1 3006   2.190   0.820   2.694  0.7286  0.2436 -1.6841
  752SOL    HW2 3007   2.114   0.796   2.836  0.0954  0.9078  1.3989
  752SOL     MW 3008   2.129   0.781   2.747  0.3419  0.6267  0.0570
  753SOL     OW 3009   2.897   0.209   2.392 -0.5639 -0.1828 -0.0937
  753SOL    HW1 3010   2.843   0.133   2.371  0.3283 -2.9311  0.2538
  753SOL    HW2 3011   2.845   0.283   2.358  0.2551 -0.5060  0.9448
  753SOL     MW 3012   2.883   0.208   2.384 -0.3381 -0.5881  0.0892
  754SOL     OW 3013   2.224   2.991   2.597  0.2601  0.0246 -0.0776
  754SOL    HW1 3014   2.224   2.955   2.506 -0.5078  1.7534 -2.1593
  754SOL    HW2 3015   2.296   2.939   2.646 -0.4727 -1.0625  1.9012
  754SOL     MW 3016   2.233   2.979   2.591  0.0621  0.1093 -0.0912
  755SOL     OW 3017   2.699   1.515   2.451  0.4469  0.1727  0.8312
  755SOL    HW1 3018   2.719   1.428   2.490  0.7376 -0.9479 -1.6885
  755SOL    HW2 3019   2.759   1.582   2.496 -1.0888  0.6308 -1.5061
  755SOL     MW 3020   2.709   1.512   2.462  0.2827  0.0853  0.1903
  756SOL     OW 3021   2.211   1.218   2.986  0.6209 -0.0426  0.1105
  756SOL    HW1 3022   2.283   1.282   2.986 -1.7579 -0.6738 -0.8874
  756SOL    HW2 3023   2.245   1.147   3.048  0.5854  2.7473  0.9500
  756SOL     MW 3024   2.225   1.217   2.995  0.3023  0.2422  0.0896
  757SOL     OW 3025   2.155   0.887   1.592 -0.2111 -0.1839 -0.1403
  757SOL    HW1 3026   2.192   0.797   1.579  1.7424  1.5158 -2.0662
  757SOL    HW2 3027   2.060   0.882   1.554 -1.4445 -1.3708 -0.0889
  757SOL     MW 3028   2.147   0.874   1.585 -0.1161 -0.1163 -0.3876
  758SOL     OW 3029   2.234   1.844   2.624 -0.1154  0.4440 -0.8597
  758SOL    HW1 3030   2.211   1.838   2.533 -1.1382  0.1943  3.7792
  758SOL    HW2 3031   2.324   1.804   2.629 -0.7040 -2.3181  2.8296
  758SOL     MW 3032   2.243   1.838   2.613 -0.3280  0.0467  0.2391
  759SOL     OW 3033   1.555   1.265   2.689  0.2824 -0.2846 -0.2302
  759SOL    HW1 3034   1.565   1.338   2.620  2.9996 -1.2896 -1.8500
  759SOL    HW2 3035   1.578   1.308   2.775  0.7541  1.6388 -1.2234
  759SOL     MW 3036   1.559   1.280   2.692  0.7031 -0.1634 -0.5750
  760SOL     OW 3037   2.528   1.980   2.729 -0.3625 -0.2200  0.6219
  760SOL    HW1 3038   2.513   1.888   2.695 -1.4575  0.8419 -3.2117
  760SOL    HW2 3039   2.543   2.040   2.654 -0.0266 -3.5357  0.2256
  760SOL     MW 3040   2.528   1.976   2.714 -0.4626 -0.5174  0.0638
  761SOL     OW 3041   2.158   0.365   2.504  0.0946  0.4493  0.2684
  761SOL    HW1 3042   2.105   0.289   2.520  1.7334  2.6562 -0.4907
  761SOL    HW2 3043   2.175   0.411   2.593  0.0179 -1.4106  1.4462
  761SOL     MW 3044   2.153   0.361   2.518  0.3007  0.4951  0.3236
  762SOL     OW 3045   3.052   0.175   2.107 -0.8578  0.5633  0.7380
  762SOL    HW1 3046   3.078   0.117   2.186 -5.1986 -1.5364 -0.7977
  762SOL    HW2 3047   3.033   0.267   2.141 -3.3095 -1.0639 -1.7622
  762SOL     MW 3048   3.053   0.180   2.122 -1.7540  0.0716  0.2055
  763SOL     OW 3049   2.324   1.037   2.343 -0.4000 -0.1487  0.1530
  763SOL    HW1 3050   2.371   0.980   2.281  0.3366  0.7018 -1.0697
  763SOL    HW2 3051   2.386   1.113   2.346  2.6609  2.7029  1.3785
  763SOL     MW 3052   2.338   1.039   2.335  0.1011  0.3398  0.1534
  764SOL     OW 3053   0.494   0.235   2.796 -0.5441 -0.0227 -0.1863
  764SOL    HW1 3054   0.399   0.210   2.784 -2.2903  0.5529  0.1418
  764SOL    HW2 3055   0.478   0.325   2.822 -1.2849 -0.2634  1.7542
  764SOL     MW 3056   0.480   0.243   2.798 -0.8723  0.0215  0.1130
  765SOL     OW 3057   2.730   3.069   2.348  0.1706 -0.2534  0.0424
  765SOL    HW1 3058   2.669   3.047   2.274  0.2411 -0.6028  2.4875
  765SOL    HW2 3059   2.812   3.028   2.313  0.0267  0.5255  0.4341
  765SOL     MW 3060   2.733   3.061   2.334  0.1609 -0.1968  0.4167
  766SOL     OW 3061   1.859   2.965   2.162  0.4976 -0.1017  0.0447
  766SOL    HW1 3062   1.928   3.007   2.102  1.2960  0.7462 -1.4939
  766SOL    HW2 3063   1.794   2.928   2.097 -0.6414  1.9558 -0.2125
  766SOL     MW 3064   1.859   2.966   2.145  0.4526  0.2816 -0.1923
  767SOL     OW 3065   2.689   0.606   2.093 -0.0321 -0.3361 -0.0513
  767SOL    HW1 3066   2.724   0.689   2.127  0.3068  0.2136  1.1745
  767SOL    HW2 3067   2.599   0.622   2.050 -0.4619  2.2071  1.4591
  767SOL     MW 3068   2.682   0.619   2.092 -0.0441  0.0720  0.3097
  768SOL     OW 3069   0.001   1.592   2.939  0.1996 -0.0987  0.5073
  768SOL    HW1 3070   0.009   1.543   3.027 -1.0907 -0.6001 -1.6539
  768SOL    HW2 3071   0.055   1.534   2.879 -2.3563  0.9554  5.0775
  768SOL     MW 3072   0.009   1.578   2.943 -0.3079 -0.0258  0.8252
  769SOL     OW 3073   2.451   0.686   2.344  0.3663 -0.1568  0.5247
  769SOL    HW1 3074   2.413   0.619   2.394 -1.3152  2.3600 -0.8280
  769SOL    HW2 3075   2.375   0.709   2.291  0.8427  0.5545 -1.3081
  769SOL     MW 3076   2.436   0.680   2.344  0.2073  0.2691  0.1044
  770SOL     OW 3077   0.035   1.627   2.595 -0.2221  0.4916 -0.6432
  770SOL    HW1 3078  -0.050   1.663   2.581  5.9110  4.7022  1.2315
  770SOL    HW2 3079   0.038   1.551   2.541 -1.4626 -1.5568 -0.5985
  770SOL     MW 3080   0.024   1.622   2.586  0.4234  0.7769 -0.3900
  771SOL     OW 3081   3.058   0.623   2.060 -0.2670 -0.7350  0.3869
  771SOL    HW1 3082   2.992   0.598   1.994 -1.2970 -0.9862 -0.3838
  771SOL    HW2 3083   3.146   0.601   2.017  3.2590  0.3168 -0.0190
  771SOL     MW 3084   3.061   0.617   2.046  0.0623 -0.6294  0.2317
  772SOL     OW 3085   0.064   3.094   2.309 -0.1184  0.4854 -0.4750
  772SOL    HW1 3086  -0.007   3.032   2.302 -0.0008 -1.9659  0.3355
  772SOL    HW2 3087   0.128   3.061   2.248  2.0309 -0.5577  0.6432
  772SOL     MW 3088   0.063   3.081   2.300  0.1807  0.0243 -0.2205
  773SOL     OW 3089   2.396   2.858   2.755  0.5795 -0.1765  0.1562
  773SOL    HW1 3090   2.424   2.787   2.694 -0.0527 -0.5728 -1.5146
  773SOL    HW2 3091   2.380   2.819   2.839 -0.6737 -0.8240  0.4892
  773SOL     MW 3092   2.398   2.843   2.758  0.3307 -0.3142 -0.0203
  774SOL     OW 3093   2.349   1.129   1.741 -0.2625  0.8176 -0.0451
  774SOL    HW1 3094   2.324   1.205   1.684  0.3294  1.7871 -1.3767
  774SOL    HW2 3095   2.326   1.043   1.700  0.7153  2.0763 -0.2898
  774SOL     MW 3096   2.343   1.128   1.728 -0.0554  1.1116 -0.2531
  775SOL     OW 3097   2.320   2.877   2.326  0.3354  0.0271 -0.0157
  775SOL    HW1 3098   2.343   2.952   2.275  0.7476 -0.5170 -1.1927
  775SOL    HW2 3099   2.375   2.800   2.302 -1.3196 -2.0565 -0.1185
  775SOL     MW 3100   2.331   2.877   2.316  0.1714 -0.3196 -0.1845
  776SOL     OW 3101   0.033   1.501   0.103 -0.4555  0.4915 -0.3921
  776SOL    HW1 3102   0.127   1.487   0.112 -1.5967 -1.5521  0.7211
  776SOL    HW2 3103  -0.008   1.411   0.110  2.2733  0.6261 -1.3566
  776SOL     MW 3104   0.040   1.488   0.105 -0.2460  0.2396 -0.3725
  777SOL     OW 3105   2.977   1.061   1.743 -0.0800 -0.7114  0.0746
  777SOL    HW1 3106   2.904   1.093   1.691 -1.3564 -0.3185  0.0187
  777SOL    HW2 3107   2.951   1.026   1.828  3.2814 -1.5961  0.3414
  777SOL     MW 3108   2.964   1.061   1.747  0.1951 -0.7763  0.1025
  778SOL     OW 3109   2.888   0.469   2.772  0.0317 -0.9459 -0.1022
  778SOL    HW1 3110   2.838   0.495   2.855 -0.5014 -0.4692 -0.2823
  778SOL    HW2 3111   2.925   0.550   2.738 -0.2138 -2.3421 -2.1374
  778SOL     MW 3112   2.886   0.483   2.779 -0.0710 -1.0672 -0.3945
  779SOL     OW 3113   2.142   0.572   2.321 -0.5906  0.0960 -0.1834
  779SOL    HW1 3114   2.075   0.627   2.344 -1.2174 -1.2694 -1.7330
  779SOL    HW2 3115   2.146   0.510   2.392  1.5421  1.4348 -2.4011
  779SOL     MW 3116   2.134   0.571   2.333 -0.3919  0.0925 -0.6805
  780SOL     OW 3117   0.237   0.139   2.812 -0.5493 -0.1391  0.7817
  780SOL    HW1 3118   0.182   0.182   2.881  0.3042  2.4414  0.2509
  780SOL    HW2 3119   0.176   0.117   2.739 -0.7750  1.2645 -2.1112
  780SOL     MW 3120   0.222   0.142   2.811 -0.4664  0.3866  0.3300
  781SOL     OW 3121   3.067   1.311   2.521  0.0472  0.5027 -0.1254
  781SOL    HW1 3122   3.044   1.341   2.433  4.3314  0.0871 -0.0902
  781SOL    HW2 3123   3.101   1.222   2.511  0.1389  3.1903 -1.1056
  781SOL     MW 3124   3.069   1.303   2.508  0.6245  0.8025 -0.2501
  782SOL     OW 3125   0.531   1.639   3.042  0.2265  0.2500  0.1540
  782SOL    HW1 3126   0.452   1.695   3.053 -1.6268 -0.3761  0.2689
  782SOL    HW2 3127   0.529   1.585   3.127  0.2896 -3.2061  3.2302
  782SOL     MW 3128   0.521   1.639   3.055 -0.0097 -0.2886  0.5751
  783SOL     OW 3129   2.796   0.549   2.475 -0.1391  0.2528  0.3602
  783SOL    HW1 3130   2.765   0.530   2.390  0.4695 -0.5147  1.4334
  783SOL    HW2 3131   2.742   0.492   2.529 -0.7113  0.5054 -3.2560
  783SOL     MW 3132   2.785   0.539   2.471 -0.1343  0.1849  0.0247
  784SOL     OW 3133   0.272   0.903   2.905 -0.4179  0.3480  0.7991
  784SOL    HW1 3134   0.261   0.957   2.975  1.5475 -1.6984 -1.3965
  784SOL    HW2 3135   0.230   0.965   2.841 -0.6419  0.3358  0.7595
  784SOL     MW 3136   0.265   0.918   2.906 -0.1881  0.0764  0.5041
  785SOL     OW 3137   0.374   0.480   2.144 -0.1638  0.2480  0.1379
  785SOL    HW1 3138   0.392   0.505   2.054 -1.9629  0.4252  1.3768
  785SOL    HW2 3139   0.302   0.420   2.153  2.4803  0.3917 -0.8214
  785SOL     MW 3140   0.367   0.476   2.133 -0.0523  0.2903  0.1748
  786SOL     OW 3141   1.990   0.468   2.857 -0.3991  0.3435  0.0905
  786SOL    HW1 3142   1.954   0.461   2.943  1.0039  1.3889 -2.4090
  786SOL    HW2 3143   2.083   0.452   2.880  0.6587 -0.8803  3.5407
  786SOL     MW 3144   1.997   0.465   2.872 -0.0744  0.3199  0.2160
  787SOL     OW 3145   2.398   0.159   2.886 -0.1587  0.5660  0.3835
  787SOL    HW1 3146   2.464   0.103   2.835  2.3226 -0.7401 -2.4712
  787SOL    HW2 3147   2.445   0.231   2.927  0.3778 -1.4184 -1.1971
  787SOL     MW 3148   2.413   0.161   2.885  0.2395  0.1318 -0.2017
  788SOL     OW 3149   2.959   2.932   2.266  0.3204  0.0227  0.4681
  788SOL    HW1 3150   2.983   2.900   2.179  0.3326  0.1011 -2.7925
  788SOL    HW2 3151   2.975   2.861   2.328  1.2669 -1.4972 -0.8561
  788SOL     MW 3152   2.964   2.919   2.262  0.4469 -0.1675 -0.1368
  789SOL     OW 3153   0.059   0.231   2.981 -0.3177  0.1069  0.1339
  789SOL    HW1 3154  -0.014   0.187   3.022 -0.8995 -2.0544 -0.1905
  789SOL    HW2 3155   0.092   0.304   3.039  2.7136 -1.8299  0.7493
  789SOL     MW 3156   0.054   0.235   2.994  0.0055 -0.4338  0.1723
  790SOL     OW 3157   0.011   1.034   2.456 -0.5493  0.2694 -0.1164
  790SOL    HW1 3158  -0.053   1.007   2.523 -0.4544 -1.0322 -4.6785
  790SOL    HW2 3159  -0.039   1.032   2.375 -0.2389  1.1165 -0.7904
  790SOL     MW 3160  -0.004   1.030   2.454 -0.4958  0.2094 -0.8073
  791SOL     OW 3161   2.636   0.380   2.654 -0.2149  0.4694  0.0474
  791SOL    HW1 3162   2.570   0.436   2.687 -1.2532  2.7569 -1.7662
  791SOL    HW2 3163   2.716   0.404   2.699  0.4871 -2.0810 -0.7970
  791SOL     MW 3164   2.638   0.390   2.664 -0.2593  0.4347 -0.3033
  792SOL     OW 3165   2.367   0.247   2.399 -0.1621  0.1967  0.0621
  792SOL    HW1 3166   2.284   0.277   2.451 -0.0865 -0.6314 -0.1720
  792SOL    HW2 3167   2.422   0.188   2.460 -1.0497 -2.7270 -1.7371
  792SOL     MW 3168   2.363   0.243   2.414 -0.2692 -0.2983 -0.2062
  793SOL     OW 3169   1.779   0.993   1.877  0.4609 -0.0695 -0.2920
  793SOL    HW1 3170   1.781   1.039   1.798 -2.7474 -2.3483  2.9334
  793SOL    HW2 3171   1.863   0.945   1.872 -0.2937 -0.8301 -2.1729
  793SOL     MW 3172   1.791   0.993   1.866 -0.0619 -0.4705 -0.1146
  794SOL     OW 3173   1.435   2.277   0.124 -0.0891  0.0140  0.0260
  794SOL    HW1 3174   1.443   2.356   0.070  3.2173  1.5110  0.7772
  794SOL    HW2 3175   1.447   2.307   0.212 -1.3408 -0.5203 -0.6325
  794SOL     MW 3176   1.438   2.292   0.128  0.1820  0.1410  0.0383
  795SOL     OW 3177   2.302   0.923   2.610  0.9103  0.2302  0.0553
  795SOL    HW1 3178   2.299   1.002   2.661 -0.2270  0.4611 -0.7102
  795SOL    HW2 3179   2.298   0.964   2.521 -1.3267 -0.1427 -1.6071
  795SOL     MW 3180   2.301   0.939   2.605  0.4651  0.2114 -0.2650
  796SOL     OW 3181   0.331   0.679   2.763 -0.5434 -0.4635  0.2835
  796SOL    HW1 3182   0.301   0.743   2.830  1.5527  0.7013  0.5816
  796SOL    HW2 3183   0.250   0.653   2.718  1.9198 -0.6633  0.1712
  796SOL     MW 3184   0.316   0.684   2.766  0.0581 -0.3362  0.3080
  797SOL     OW 3185   2.600   0.123   2.563  0.2618 -0.3214  0.3166
  797SOL    HW1 3186   2.616   0.218   2.588 -1.8783  4.0832 -0.0825
  797SOL    HW2 3187   2.639   0.105   2.477 -1.3922 -1.1885 -1.4085
  797SOL     MW 3188   2.607   0.133   2.555 -0.2388  0.1453  0.0363
  798SOL     OW 3189   2.347   0.052   2.200  0.3329  0.3044 -0.2150
  798SOL    HW1 3190   2.335   0.123   2.267 -2.2921 -0.4346 -0.1564
  798SOL    HW2 3191   2.444   0.048   2.183  2.9461  0.6984 -1.2286
  798SOL     MW 3192   2.358   0.061   2.207  0.3313  0.2589 -0.3410
  799SOL     OW 3193   2.485   2.929   0.201 -0.1047 -0.0007 -0.0047
  799SOL    HW1 3194   2.522   2.854   0.155  0.9819  1.7059 -0.1921
  799SOL    HW2 3195   2.429   2.979   0.137 -0.3501  0.8818  1.3501
  799SOL     MW 3196   2.483   2.926   0.186  0.0063  0.3409  0.1493
  800SOL     OW 3197   1.904   3.097   1.766  0.0465  0.1332  0.1916
  800SOL    HW1 3198   1.844   3.024   1.776  0.5983 -1.3163 -1.1401
  800SOL    HW2 3199   1.971   3.078   1.834  0.0911 -0.0201  1.3573
  800SOL     MW 3200   1.905   3.085   1.777  0.1252 -0.0782  0.1697
  801SOL     OW 3201   2.798   1.299   2.565 -0.3442  0.1506 -0.4380
  801SOL    HW1 3202   2.788   1.200   2.564 -0.3250  0.2278  1.7772
  801SOL    HW2 3203   2.892   1.307   2.551  0.6214  0.1171  0.3426
  801SOL     MW 3204   2.809   1.287   2.563 -0.2143  0.1564 -0.0427
  802SOL     OW 3205   2.560   1.516   2.774  0.0015  0.5704 -0.4073
  802SOL    HW1 3206   2.546   1.432   2.730 -1.5004 -0.6476  2.7561
  802SOL    HW2 3207   2.658   1.522   2.765  1.3171  1.1609 -2.4370
  802SOL     MW 3208   2.571   1.505   2.767 -0.0231  0.4876 -0.2577
  803SOL     OW 3209   2.309   1.301   1.958  0.2806 -0.0288 -0.0463
  803SOL    HW1 3210   2.267   1.261   2.030 -0.9397 -0.2263 -2.4102
  803SOL    HW2 3211   2.345   1.224   1.906  0.2083 -2.0750 -0.1571
  803SOL     MW 3212   2.308   1.285   1.960  0.1101 -0.3248 -0.3728
  804SOL     OW 3213   2.347   0.050   0.029  0.1413 -0.3458 -0.0724
  804SOL    HW1 3214   2.266   0.107   0.032 -0.9671 -1.6087 -1.3667
  804SOL    HW2 3215   2.382   0.082  -0.056  1.5127  1.2176 -1.2340
  804SOL     MW 3216   2.341   0.062   0.018  0.1760 -0.3061 -0.3964
  805SOL     OW 3217   2.770   1.031   2.543  0.6020 -0.4816 -0.0397
  805SOL    HW1 3218   2.701   0.960   2.544  0.0553  0.2487  2.0355
  805SOL    HW2 3219   2.829   1.004   2.619 -0.7095 -0.6529  0.1057
  805SOL     MW 3220   2.769   1.018   2.553  0.3568 -0.4078  0.2533
  806SOL     OW 3221   2.664   0.361   2.273  0.2571 -0.4367 -0.6900
  806SOL    HW1 3222   2.575   0.330   2.284 -0.2658 -1.1861  1.4601
  806SOL    HW2 3223   2.647   0.426   2.201  2.0980  1.0350 -0.6831
  806SOL     MW 3224   2.650   0.365   2.265  0.4310 -0.3414 -0.4054
  807SOL     OW 3225   0.005   1.134   2.024  0.9500  0.3617 -0.0206
  807SOL    HW1 3226   0.038   1.042   2.028  3.4599  0.3229 -1.3037
  807SOL    HW2 3227  -0.074   1.124   2.076  0.0100 -1.2371  0.1049
  807SOL     MW 3228  -0.001   1.120   2.031  1.1572  0.1456 -0.1734
  808SOL     OW 3229   2.567   3.078   2.795  0.0965  0.3649 -0.0657
  808SOL    HW1 3230   2.513   2.997   2.779 -3.8577  0.3482 -1.8459
  808SOL    HW2 3231   2.605   3.102   2.712  0.5238  0.7239  2.1655
  808SOL     MW 3232   2.565   3.070   2.782 -0.3689  0.4101 -0.0062
  809SOL     OW 3233   2.477   1.261   2.418 -0.0817  0.2642  0.2076
  809SOL    HW1 3234   2.501   1.256   2.515  1.6163  1.0195  0.3408
  809SOL    HW2 3235   2.553   1.261   2.362 -0.5156 -3.8044 -1.5612
  809SOL     MW 3236   2.490   1.260   2.423  0.0851 -0.1730 -0.0082
  810SOL     OW 3237   2.163   1.191   2.180 -0.5002 -0.4626  0.1689
  810SOL    HW1 3238   2.216   1.137   2.246 -2.7592 -1.9733  0.8313
  810SOL    HW2 3239   2.087   1.136   2.152 -1.9566  0.1160 -1.8645
  810SOL     MW 3240   2.160   1.176   2.185 -0.9904 -0.5856 -0.0120
  811SOL     OW 3241   1.493   0.090   2.241 -0.1221  0.0560 -0.0577
  811SOL    HW1 3242   1.563   0.042   2.289 -3.4557  1.4344  4.5144
  811SOL    HW2 3243   1.514   0.068   2.145  0.1419 -1.3139 -3.3634
  811SOL     MW 3244   1.505   0.081   2.235 -0.5271  0.0571  0.1094
  812SOL     OW 3245   1.390   2.761   2.084  0.2278  0.2600  0.6204
  812SOL    HW1 3246   1.490   2.763   2.077  1.9070  1.7149  1.6504
  812SOL    HW2 3247   1.370   2.719   2.168 -2.5846  0.2283  0.0488
  812SOL     MW 3248   1.400   2.756   2.094  0.0783  0.4478  0.6809
  813SOL     OW 3249   1.838   0.761   2.177  0.8587  0.1536 -0.2019
  813SOL    HW1 3250   1.792   0.679   2.195 -0.8231  1.3763 -1.2701
  813SOL    HW2 3251   1.898   0.768   2.244  1.6738 -0.0127 -2.6953
  813SOL     MW 3252   1.840   0.751   2.188  0.7444  0.2930 -0.6718
  814SOL     OW 3253   2.796   1.211   1.617  0.3787  0.5347  0.1538
  814SOL    HW1 3254   2.721   1.179   1.676  0.6764  0.0960 -0.0349
  814SOL    HW2 3255   2.778   1.184   1.524  1.2540 -2.2988  0.9874
  814SOL     MW 3256   2.783   1.203   1.612  0.5335  0.1030  0.2389
  815SOL     OW 3257   2.464   1.631   2.368  0.1674  0.0444 -0.1231
  815SOL    HW1 3258   2.418   1.559   2.338  0.1685  3.8038 -2.2630
  815SOL    HW2 3259   2.550   1.585   2.381 -0.1017  2.6704 -2.9538
  815SOL     MW 3260   2.469   1.616   2.365  0.1320  0.8869 -0.7789
  816SOL     OW 3261   0.658   0.699   2.715  0.7987  0.5321 -0.0943
  816SOL    HW1 3262   0.707   0.632   2.761 -2.2732  3.1886  1.2171
  816SOL    HW2 3263   0.580   0.655   2.666  0.5041 -0.2285 -1.0620
  816SOL     MW 3264   0.654   0.685   2.714  0.3545  0.7823 -0.0489
  817SOL     OW 3265   3.030   1.156   1.385  0.1323 -0.0845 -0.3134
  817SOL    HW1 3266   3.101   1.165   1.449 -0.3960 -4.6249 -0.1595
  817SOL    HW2 3267   3.022   1.242   1.344 -2.8547  1.0962  0.2158
  817SOL     MW 3268   3.038   1.169   1.388 -0.3315 -0.5278 -0.2233
  818SOL     OW 3269   1.923   0.981   2.682 -0.4797 -0.2144 -0.1833
  818SOL    HW1 3270   1.967   1.031   2.615  0.2166 -1.9738  1.7433
  818SOL    HW2 3271   1.990   0.918   2.706 -0.6981  0.0706 -0.6423
  818SOL     MW 3272   1.938   0.979   2.676 -0.4166 -0.4089  0.0103
  819SOL     OW 3273   1.829   0.271   2.371  0.3037  0.4215 -0.4963
  819SOL    HW1 3274   1.808   0.357   2.400 -1.5175 -1.0414 -2.8677
  819SOL    HW2 3275   1.850   0.217   2.450  1.3023  0.4518  0.7272
  819SOL     MW 3276   1.829   0.275   2.385  0.1952  0.2325 -0.6478
  820SOL     OW 3277   2.457   1.719   2.619  0.3589  0.1593  0.2784
  820SOL    HW1 3278   2.494   1.641   2.660  2.2272 -1.4923 -2.2454
  820SOL    HW2 3279   2.452   1.687   2.523 -1.2498  1.7985 -3.5537
  820SOL     MW 3280   2.461   1.705   2.611  0.3931  0.1576 -0.5602
  821SOL     OW 3281   2.581   1.334   2.039 -0.1966 -0.1202 -0.2607
  821SOL    HW1 3282   2.610   1.377   1.958  0.7251  0.0701 -1.6149
  821SOL    HW2 3283   2.489   1.348   2.036  0.1493  0.0005 -1.9087
  821SOL     MW 3284   2.573   1.341   2.028 -0.0294 -0.0791 -0.6568
  822SOL     OW 3285   2.906   2.684   1.382  0.4771 -0.0418 -0.0528
  822SOL    HW1 3286   2.815   2.709   1.368  1.0624  0.2577 -1.2894
  822SOL    HW2 3287   2.953   2.764   1.414  1.8677  0.9444  1.2713
  822SOL     MW 3288   2.900   2.698   1.384  0.7378  0.1278 -0.0413
  823SOL     OW 3289   2.306   0.439   1.767  0.5746 -0.4184 -0.3615
  823SOL    HW1 3290   2.388   0.405   1.723 -1.8305 -2.1734 -3.4290
  823SOL    HW2 3291   2.239   0.380   1.731 -0.0826 -1.4560 -0.5935
  823SOL     MW 3292   2.308   0.426   1.757  0.1705 -0.7869 -0.7968
  824SOL     OW 3293   2.127   1.324   2.554  0.1327  0.2559 -0.1295
  824SOL    HW1 3294   2.187   1.351   2.477  0.4664  1.6215  0.8286
  824SOL    HW2 3295   2.106   1.412   2.597  0.9896  2.2691  0.8710
  824SOL     MW 3296   2.132   1.339   2.550  0.2898  0.7017  0.1289
  825SOL     OW 3297   2.182   2.397   0.405 -0.7994 -0.0851  0.0834
  825SOL    HW1 3298   2.240   2.348   0.355 -0.1973  3.4658  2.2609
  825SOL    HW2 3299   2.199   2.382   0.500  1.9278 -1.6074 -0.9550
  825SOL     MW 3300   2.192   2.389   0.411 -0.3601  0.1826  0.2337
  826SOL     OW 3301   1.745   2.344   0.399 -0.0832  0.3954 -0.1894
  826SOL    HW1 3302   1.772   2.311   0.488  1.3035 -0.3352  1.1925
  826SOL    HW2 3303   1.764   2.439   0.405  2.3037  2.3034  2.1455
  826SOL     MW 3304   1.751   2.352   0.412  0.4147  0.5507  0.3010
  827SOL     OW 3305   1.929   2.290   0.880  0.3867  0.3016 -0.8257
  827SOL    HW1 3306   1.873   2.282   0.799 -1.4923 -1.4762  1.2876
  827SOL    HW2 3307   1.879   2.223   0.936 -2.2836 -0.5798 -0.1920
  827SOL     MW 3308   1.915   2.280   0.877 -0.2135 -0.0493 -0.4632
  828SOL     OW 3309   0.047   2.598   0.563 -0.0284 -0.3971  0.1869
  828SOL    HW1 3310   0.107   2.639   0.623 -0.3603  0.2323 -2.0877
  828SOL    HW2 3311   0.041   2.654   0.480 -1.7099  0.1891  0.2247
  828SOL     MW 3312   0.054   2.611   0.560 -0.2941 -0.2367 -0.1082
  829SOL     OW 3313   3.011   2.891   1.210 -0.3372 -0.1908  0.3491
  829SOL    HW1 3314   2.939   2.879   1.156  2.8264 -1.4808  2.2627
  829SOL    HW2 3315   3.058   2.808   1.212  0.8488  0.0980  1.3566
  829SOL     MW 3316   3.008   2.879   1.203  0.2367 -0.3229  0.7345
  830SOL     OW 3317   2.495   2.780   1.989 -0.6219  0.0786 -0.5051
  830SOL    HW1 3318   2.410   2.840   1.963 -0.9390  0.2832 -0.1682
  830SOL    HW2 3319   2.543   2.764   1.906 -2.1784  0.8119 -0.8033
  830SOL     MW 3320   2.490   2.786   1.975 -0.8691  0.2024 -0.5000
  831SOL     OW 3321   2.466   2.434   1.183 -0.3722  0.3037  0.7353
  831SOL    HW1 3322   2.432   2.364   1.240 -2.1613 -2.5816  2.0347
  831SOL    HW2 3323   2.562   2.410   1.170 -0.5657 -2.5235 -0.8437
  831SOL     MW 3324   2.474   2.421   1.189 -0.6338 -0.4500  0.6984
  832SOL     OW 3325   2.411   2.121   1.902 -0.3049 -0.4055  0.6059
  832SOL    HW1 3326   2.448   2.206   1.905  1.0983 -0.4064 -0.7147
  832SOL    HW2 3327   2.480   2.062   1.879  2.5020  0.1303  0.8840
  832SOL     MW 3328   2.425   2.125   1.899  0.2506 -0.3349  0.4683
  833SOL     OW 3329   1.640   2.572   0.851 -0.7353 -0.7129 -0.6335
  833SOL    HW1 3330   1.606   2.492   0.902  1.9993 -1.4607 -3.6380
  833SOL    HW2 3331   1.567   2.640   0.845  1.0755  1.7820 -0.0500
  833SOL     MW 3332   1.626   2.571   0.857 -0.1355 -0.4824 -0.9529
  834SOL     OW 3333   2.257   2.357   0.645  0.2116  0.5321 -1.0386
  834SOL    HW1 3334   2.232   2.273   0.678 -3.6072  0.3267 -0.4866
  834SOL    HW2 3335   2.341   2.380   0.687 -2.4808  0.8497 -0.9462
  834SOL     MW 3336   2.265   2.349   0.655 -0.6475  0.5469 -0.9536
  835SOL     OW 3337   1.745   2.542   0.612  0.7538  0.1688 -0.2043
  835SOL    HW1 3338   1.704   2.571   0.695  2.3233 -3.3889  1.4851
  835SOL    HW2 3339   1.802   2.471   0.632 -0.1197 -2.4719  1.4582
  835SOL     MW 3340   1.747   2.537   0.626  0.8457 -0.6490  0.2379
  836SOL     OW 3341   2.076   2.097   1.687  0.7428 -0.2547  0.7158
  836SOL    HW1 3342   2.163   2.057   1.674  0.8215 -0.3526 -1.0020
  836SOL    HW2 3343   2.100   2.187   1.715 -0.1727  0.1372 -0.1708
  836SOL     MW 3344   2.090   2.104   1.689  0.6324 -0.2159  0.3722
  837SOL     OW 3345   2.107   0.175   0.636 -0.1531 -0.1708  0.0885
  837SOL    HW1 3346   2.023   0.177   0.599 -0.5450 -3.3858 -1.6550
  837SOL    HW2 3347   2.155   0.114   0.576  1.9481 -0.1592 -1.7769
  837SOL     MW 3348   2.102   0.167   0.623  0.0724 -0.5934 -0.3876
  838SOL     OW 3349   2.889   2.059   0.901  0.6195 -0.2173 -0.0301
  838SOL    HW1 3350   2.834   1.983   0.919  0.8081  1.4855 -0.5793
  838SOL    HW2 3351   2.931   2.074   0.989  1.8024 -0.2601  1.0989
  838SOL     MW 3352   2.887   2.051   0.915  0.8005  0.0017  0.0464
  839SOL     OW 3353   1.568   2.384   1.051 -0.4818  0.6005  0.1171
  839SOL    HW1 3354   1.543   2.448   1.116 -1.0112 -3.6968 -0.8295
  839SOL    HW2 3355   1.622   2.310   1.104  2.8111 -1.7095  0.5518
  839SOL     MW 3356   1.572   2.383   1.067 -0.1172 -0.2713  0.0496
  840SOL     OW 3357   2.424   2.100   2.351  0.4299  0.1565 -0.8143
  840SOL    HW1 3358   2.354   2.162   2.324 -1.8925  0.0398 -2.3501
  840SOL    HW2 3359   2.464   2.134   2.430 -0.4469 -2.4947  1.3785
  840SOL     MW 3360   2.420   2.113   2.358  0.0078 -0.2087 -0.7276
  841SOL     OW 3361   2.325   2.303   0.103  0.2285 -0.5844  0.2408
  841SOL    HW1 3362   2.308   2.380   0.054  1.1958  0.5451  2.6835
  841SOL    HW2 3363   2.239   2.258   0.094  0.3850 -0.8625  0.8196
  841SOL     MW 3364   2.311   2.307   0.095  0.3768 -0.4720  0.6395
  842SOL     OW 3365   2.646   1.915   1.421 -0.7371 -0.2226  0.8131
  842SOL    HW1 3366   2.578   1.851   1.431  0.0908 -1.1837 -0.6285
  842SOL    HW2 3367   2.646   1.943   1.328  0.0134  0.4210  0.2478
  842SOL     MW 3368   2.637   1.910   1.410 -0.5288 -0.2645  0.5483
  843SOL     OW 3369   2.638   2.782   1.740 -0.0880  0.1555  0.3654
  843SOL    HW1 3370   2.727   2.740   1.750 -1.5076 -5.3289 -1.2162
  843SOL    HW2 3371   2.581   2.703   1.711 -1.3045 -1.2189  1.3717
  843SOL     MW 3372   2.642   2.766   1.737 -0.4358 -0.7494  0.2895
  844SOL     OW 3373   2.712   2.327   1.113  0.2258  0.3048 -0.2866
  844SOL    HW1 3374   2.734   2.357   1.023  0.8230 -1.3385  0.7476
  844SOL    HW2 3375   2.776   2.374   1.171  1.1449 -1.6696  0.8227
  844SOL     MW 3376   2.723   2.337   1.109  0.4259 -0.1725 -0.0038
  845SOL     OW 3377   2.848   2.592   0.295  0.3955  0.1946 -0.2860
  845SOL    HW1 3378   2.840   2.504   0.321  2.9351  1.9322  0.0662
  845SOL    HW2 3379   2.826   2.653   0.365  1.8322 -0.6483 -0.7502
  845SOL     MW 3380   2.844   2.589   0.308  0.9202  0.3126 -0.3008
  846SOL     OW 3381   1.466   2.769   0.793  0.0890 -0.5946  0.1307
  846SOL    HW1 3382   1.527   2.841   0.821  0.8821 -1.2568  0.6717
  846SOL    HW2 3383   1.375   2.805   0.791  0.3881  0.1331  2.3757
  846SOL     MW 3384   1.462   2.784   0.796  0.2331 -0.5860  0.4982
  847SOL     OW 3385   2.498   1.849   0.215 -0.3520 -0.3808  0.7902
  847SOL    HW1 3386   2.463   1.762   0.247  1.7948 -0.1023 -0.6268
  847SOL    HW2 3387   2.460   1.866   0.120 -1.3135  1.4156 -1.1504
  847SOL     MW 3388   2.489   1.840   0.206 -0.1956 -0.1070  0.3472
  848SOL     OW 3389   2.677   2.071   1.206  0.5928 -0.4716 -0.2286
  848SOL    HW1 3390   2.702   2.164   1.186 -2.5855 -1.3491  3.2932
  848SOL    HW2 3391   2.711   2.017   1.130 -0.5511 -1.1303  0.6122
  848SOL     MW 3392   2.685   2.076   1.193  0.0225 -0.6743  0.3470
  849SOL     OW 3393   1.971   2.858   0.788 -0.4973 -0.0659  0.3272
  849SOL    HW1 3394   1.946   2.834   0.878  0.8289 -1.4630  1.2218
  849SOL    HW2 3395   2.024   2.783   0.761  2.6572  0.5507  1.9927
  849SOL     MW 3396   1.975   2.845   0.796  0.0939 -0.1689  0.6650
  850SOL     OW 3397   2.318   1.880   1.621 -0.5368  0.1750  0.3854
  850SOL    HW1 3398   2.232   1.856   1.590 -0.0602 -2.7093  1.5420
  850SOL    HW2 3399   2.328   1.977   1.598 -1.9236  3.0248  0.0098
  850SOL     MW 3400   2.308   1.890   1.614 -0.6569  0.1705  0.4885
  851SOL     OW 3401   2.450   2.238   0.369  0.7740 -0.7608  0.3217
  851SOL    HW1 3402   2.466   2.261   0.279  1.2217 -1.9204 -0.4707
  851SOL    HW2 3403   2.464   2.326   0.415  1.7568  0.4844  1.2554
  851SOL     MW 3404   2.454   2.252   0.363  0.9627 -0.7495  0.3403
  852SOL     OW 3405   2.310   2.013   0.369 -0.1168  0.0764  0.3392
  852SOL    HW1 3406   2.356   2.098   0.372 -0.8741  0.2319 -3.5055
  852SOL    HW2 3407   2.359   1.957   0.303 -3.1461  0.3052  1.0216
  852SOL     MW 3408   2.323   2.017   0.361 -0.6164  0.1271 -0.0780
  853SOL     OW 3409   2.519   2.380   1.926  0.3691 -0.0052  0.1207
  853SOL    HW1 3410   2.507   2.437   1.849 -1.4879  0.8399 -0.2542
  853SOL    HW2 3411   2.613   2.371   1.949 -0.9120 -0.7277 -0.1385
  853SOL     MW 3412   2.529   2.386   1.919 -0.0449  0.0110  0.0370
  854SOL     OW 3413   2.871   2.280   0.733  0.2945  0.4567  0.4841
  854SOL    HW1 3414   2.797   2.268   0.668  1.1513  3.1703 -0.5785
  854SOL    HW2 3415   2.871   2.198   0.789 -1.1650 -1.4805 -0.0629
  854SOL     MW 3416   2.861   2.268   0.732  0.2150  0.5592  0.2717
  855SOL     OW 3417   2.772   2.356   0.439  0.2464  0.0787 -0.1926
  855SOL    HW1 3418   2.681   2.388   0.425 -0.5003  0.7619 -1.8085
  855SOL    HW2 3419   2.773   2.261   0.419 -0.3657  1.2792 -0.9889
  855SOL     MW 3420   2.760   2.348   0.435  0.0671  0.3273 -0.5109
  856SOL     OW 3421   2.058   1.868   0.248  0.0248 -0.6995 -0.2307
  856SOL    HW1 3422   1.973   1.875   0.295 -0.7757 -1.4317 -0.7969
  856SOL    HW2 3423   2.117   1.917   0.305  0.7501  1.0271 -2.1837
  856SOL     MW 3424   2.055   1.875   0.261  0.0149 -0.5683 -0.5631
  857SOL     OW 3425   2.478   1.951   0.565 -0.0229  0.1660  0.1512
  857SOL    HW1 3426   2.409   1.973   0.497 -1.5340  1.5263  0.9524
  857SOL    HW2 3427   2.414   1.945   0.642 -3.0458  0.7160  0.9665
  857SOL     MW 3428   2.461   1.953   0.566 -0.6211  0.4180  0.3644
  858SOL     OW 3429   2.898   2.685   1.781  0.2298 -0.1843  0.0701
  858SOL    HW1 3430   2.987   2.719   1.803  1.9747  0.5745 -3.9243
  858SOL    HW2 3431   2.907   2.596   1.742  0.7093  0.3663  1.4951
  858SOL     MW 3432   2.911   2.678   1.779  0.5233 -0.0116 -0.2689
  859SOL     OW 3433   1.851   2.691   1.009 -0.5874 -0.0336 -0.3573
  859SOL    HW1 3434   1.778   2.656   0.958 -2.2036 -2.8747  0.4355
  859SOL    HW2 3435   1.895   2.623   1.047 -2.8457  1.3829  1.5583
  859SOL     MW 3436   1.847   2.677   1.007 -1.0986 -0.2216  0.0001
  860SOL     OW 3437   2.608   2.599   0.175  0.1371 -0.6098 -0.3544
  860SOL    HW1 3438   2.694   2.599   0.227 -0.5997 -0.1441  0.8022
  860SOL    HW2 3439   2.626   2.640   0.093 -1.6239 -0.6985 -0.1828
  860SOL     MW 3440   2.622   2.604   0.171 -0.1925 -0.5601 -0.1792
  861SOL     OW 3441   1.635   2.138   1.201 -0.1199  0.0481  0.0293
  861SOL    HW1 3442   1.619   2.211   1.257 -1.0883 -0.4622  2.3184
  861SOL    HW2 3443   1.554   2.088   1.205  0.0307 -2.0234  0.5791
  861SOL     MW 3444   1.622   2.141   1.209 -0.2278 -0.2925  0.4039
  862SOL     OW 3445   2.445   1.733   1.427 -0.0422 -0.4447  0.3775
  862SOL    HW1 3446   2.420   1.780   1.507  0.5511  0.5494 -2.4760
  862SOL    HW2 3447   2.391   1.772   1.358  1.2998 -3.1636 -0.6779
  862SOL     MW 3448   2.435   1.744   1.428  0.2131 -0.6722 -0.1383
  863SOL     OW 3449   3.002   1.699   0.990 -0.5522  0.5429 -0.0044
  863SOL    HW1 3450   3.042   1.751   1.062 -0.2246 -2.2543  2.3321
  863SOL    HW2 3451   2.906   1.696   0.993 -0.0005 -0.2763 -0.4639
  863SOL     MW 3452   2.994   1.705   1.000 -0.4362  0.0658  0.2432
  864SOL     OW 3453   0.017   1.795   0.734 -0.0963 -0.6171  0.0896
  864SOL    HW1 3454  -0.031   1.771   0.813 -0.8967  1.6886  0.9888
  864SOL    HW2 3455  -0.043   1.771   0.665 -0.2081 -0.2635  2.5265
  864SOL     MW 3456   0.003   1.789   0.735 -0.2167 -0.2663  0.5298
  865SOL     OW 3457   2.568   2.168   0.098 -0.4386 -0.0036 -0.0222
  865SOL    HW1 3458   2.598   2.082   0.119  2.0206 -1.4177 -1.7632
  865SOL    HW2 3459   2.476   2.150   0.084 -0.6760  0.3513  3.0951
  865SOL     MW 3460   2.560   2.155   0.099 -0.1455 -0.1433  0.1594
  866SOL     OW 3461   2.673   2.379   1.543  0.6291 -0.8295 -0.0648
  866SOL    HW1 3462   2.641   2.291   1.560  0.3305 -0.4574  0.1496
  866SOL    HW2 3463   2.718   2.385   1.463  0.7598  1.2235 -1.9548
  866SOL     MW 3464   2.675   2.368   1.535  0.6070 -0.5095 -0.2859
  867SOL     OW 3465   0.102   2.663   1.736 -0.2047 -0.6144 -0.1418
  867SOL    HW1 3466   0.178   2.693   1.781  0.3410  0.6087 -0.1214
  867SOL    HW2 3467   0.102   2.705   1.648  0.7441  0.4440 -2.2420
  867SOL     MW 3468   0.112   2.672   1.731 -0.0075 -0.3134 -0.4162
  868SOL     OW 3469   2.762   2.702   0.532 -0.0369  0.0097  0.8586
  868SOL    HW1 3470   2.755   2.621   0.569 -1.6687  0.2994  0.1119
  868SOL    HW2 3471   2.674   2.728   0.506  0.0966 -0.1387 -0.9506
  868SOL     MW 3472   2.749   2.694   0.533 -0.2346  0.0284  0.5214
  869SOL     OW 3473   2.038   2.491   1.049 -0.5021 -0.4080 -0.0776
  869SOL    HW1 3474   2.086   2.554   0.994 -1.7335  0.6925 -0.4388
  869SOL    HW2 3475   2.026   2.413   0.992 -2.3909 -4.0506  0.7225
  869SOL     MW 3476   2.043   2.489   1.035 -0.9138 -0.7434 -0.0197
  870SOL     OW 3477   2.231   3.089   0.479  0.2067 -0.4588 -0.0290
  870SOL    HW1 3478   2.290   3.120   0.408  1.8545  0.7742  3.4211
  870SOL    HW2 3479   2.267   3.016   0.521  0.5341 -1.6749 -2.0855
  870SOL     MW 3480   2.243   3.084   0.476  0.4673 -0.4566  0.1549
  871SOL     OW 3481   2.473   2.117   0.883  0.2520  0.0911  0.2143
  871SOL    HW1 3482   2.389   2.112   0.839 -0.8030 -1.8687 -0.5775
  871SOL    HW2 3483   2.461   2.200   0.927  2.1137  0.1276  0.3444
  871SOL     MW 3484   2.461   2.128   0.883  0.3584 -0.1626  0.1270
  872SOL     OW 3485   2.130   2.546   1.548 -0.2751 -0.4715  0.7653
  872SOL    HW1 3486   2.054   2.595   1.582  0.2671  0.9050  0.5706
  872SOL    HW2 3487   2.098   2.523   1.458  0.8448  0.2536 -2.8957
  872SOL     MW 3488   2.116   2.549   1.541 -0.0558 -0.1942  0.2566
  873SOL     OW 3489   2.860   2.106   1.835  0.2549  0.5993 -0.2874
  873SOL    HW1 3490   2.847   2.189   1.888  1.8117  2.5295 -0.2923
  873SOL    HW2 3491   2.928   2.129   1.767 -1.2556  2.0729 -0.0209
  873SOL     MW 3492   2.868   2.120   1.833  0.2610  1.0484 -0.2529
  874SOL     OW 3493   2.268   1.388   2.337 -0.6517 -0.2640  0.5240
  874SOL    HW1 3494   2.224   1.333   2.266 -4.1325  0.0893 -1.3508
  874SOL    HW2 3495   2.351   1.351   2.356  0.7980 -1.6838  0.5842
  874SOL     MW 3496   2.274   1.376   2.330 -0.9197 -0.4047  0.2846
  875SOL     OW 3497   2.377   2.366   0.944  0.4330  0.1237  0.1373
  875SOL    HW1 3498   2.423   2.425   0.878  0.3425 -1.1696 -2.6335
  875SOL    HW2 3499   2.392   2.412   1.029 -0.3551  1.9835  1.8228
  875SOL     MW 3500   2.385   2.379   0.946  0.3171  0.1985 -0.0058
  876SOL     OW 3501  -0.002   2.250   1.317 -0.2432 -0.3689 -0.6389
  876SOL    HW1 3502   0.025   2.287   1.228 -2.5350 -1.0648 -2.0028
  876SOL    HW2 3503   0.063   2.289   1.377 -0.6063  0.0268 -2.8901
  876SOL     MW 3504   0.010   2.260   1.313 -0.5935 -0.4085 -1.1158
  877SOL     OW 3505   0.055   2.763   0.331 -0.3688 -0.1801 -0.0460
  877SOL    HW1 3506   0.107   2.837   0.305 -0.1044 -1.0843 -0.1842
  877SOL    HW2 3507   0.027   2.710   0.260 -0.8865 -1.5927 -1.1575
  877SOL     MW 3508   0.058   2.766   0.318 -0.4022 -0.4858 -0.2109
  878SOL     OW 3509   2.280   1.702   1.198 -0.8478 -0.6410 -0.8583
  878SOL    HW1 3510   2.188   1.652   1.215 -0.6400  0.4101 -1.4894
  878SOL    HW2 3511   2.347   1.638   1.181 -1.5024  1.9867  0.2931
  878SOL     MW 3512   2.276   1.687   1.198 -0.9068 -0.1556 -0.7896
  879SOL     OW 3513   2.739   2.476   0.866 -0.3267 -0.2740 -0.9095
  879SOL    HW1 3514   2.814   2.523   0.906 -0.8920 -2.7389 -2.8219
  879SOL    HW2 3515   2.786   2.411   0.810 -2.2845  2.8416 -2.2844
  879SOL     MW 3516   2.755   2.474   0.864 -0.6596 -0.1882 -1.3432
  880SOL     OW 3517   2.581   2.224   0.647 -0.0200 -0.3953  0.3968
  880SOL    HW1 3518   2.571   2.180   0.735  0.8206 -0.6344  0.0084
  880SOL    HW2 3519   2.562   2.167   0.578 -2.6546  1.8923  4.1066
  880SOL     MW 3520   2.577   2.211   0.650 -0.2567 -0.1250  0.8351
  881SOL     OW 3521   2.975   2.765   0.686  0.4240  0.1672 -0.5456
  881SOL    HW1 3522   2.897   2.754   0.627 -2.0605 -0.5764  4.1179
  881SOL    HW2 3523   3.043   2.699   0.659  0.0937 -0.0625  4.3305
  881SOL     MW 3524   2.974   2.755   0.674  0.0526  0.0388  0.7131
  882SOL     OW 3525   2.258   2.882   1.944  0.3939 -0.1784  0.1291
  882SOL    HW1 3526   2.258   2.895   1.846 -0.4952 -0.3607  0.7884
  882SOL    HW2 3527   2.215   2.794   1.962  0.1953 -0.1775 -1.5104
  882SOL     MW 3528   2.252   2.872   1.933  0.2504 -0.2023 -0.0002
  883SOL     OW 3529   2.426   2.178   1.315 -0.1398 -0.8219 -0.2830
  883SOL    HW1 3530   2.513   2.151   1.290 -2.6354 -0.6410 -0.6969
  883SOL    HW2 3531   2.366   2.142   1.244  1.4319  1.4858  0.1152
  883SOL     MW 3532   2.430   2.170   1.302 -0.2617 -0.4935 -0.2851
  884SOL     OW 3533   1.932   1.836   1.057 -0.3490  0.0348 -0.3574
  884SOL    HW1 3534   1.891   1.923   1.032  2.9494  2.2069  1.0195
  884SOL    HW2 3535   2.020   1.840   1.022 -1.2785 -2.1366 -0.9969
  884SOL     MW 3536   1.938   1.848   1.049 -0.0365  0.0349 -0.2601
  885SOL     OW 3537   2.895   2.423   1.698  0.4641  1.0135 -0.0385
  885SOL    HW1 3538   2.960   2.356   1.667 -1.9761  0.0208  0.0299
  885SOL    HW2 3539   2.812   2.400   1.657 -0.3005 -1.1439 -2.1136
  885SOL     MW 3540   2.893   2.411   1.688  0.0413  0.5979 -0.3032
  886SOL     OW 3541   2.875   2.436   1.288  0.1978  0.0217 -0.6782
  886SOL    HW1 3542   2.950   2.384   1.317 -0.7236 -1.2149 -3.0823
  886SOL    HW2 3543   2.899   2.529   1.330 -0.7577  3.0950 -1.0950
  886SOL     MW 3544   2.888   2.441   1.298 -0.0498  0.2640 -1.0504
  887SOL     OW 3545   2.355   2.706   1.531 -0.3917  0.2224  0.5067
  887SOL    HW1 3546   2.356   2.719   1.437  0.7910  0.6559  0.4426
  887SOL    HW2 3547   2.272   2.658   1.553 -0.4931  0.7791 -0.0534
  887SOL     MW 3548   2.344   2.701   1.521 -0.2491  0.3531  0.4244
  888SOL     OW 3549   2.058   2.162   1.386  0.1040 -0.0291  0.1916
  888SOL    HW1 3550   2.134   2.135   1.336 -0.0496 -1.2739  1.0200
  888SOL    HW2 3551   2.079   2.137   1.474 -4.1067 -2.5577 -1.4317
  888SOL     MW 3552   2.071   2.155   1.391 -0.4718 -0.5269  0.0867
  889SOL     OW 3553   2.277   1.925   2.026  0.3414  0.0889  0.4030
  889SOL    HW1 3554   2.361   1.911   2.076  1.3297 -0.2720 -1.5123
  889SOL    HW2 3555   2.291   2.002   1.966 -0.3033 -0.6067 -1.1731
  889SOL     MW 3556   2.290   1.933   2.025  0.3867 -0.0505 -0.0576
  890SOL     OW 3557   0.057   2.341   0.157  0.2592 -0.0041  0.0338
  890SOL    HW1 3558   0.025   2.432   0.152 -2.2331  0.4050  1.1973
  890SOL    HW2 3559   0.048   2.306   0.248 -0.0694  0.3368  4.5121
  890SOL     MW 3560   0.052   2.348   0.169 -0.1130  0.0949  0.7782
  891SOL     OW 3561   3.015   2.030   1.154  0.3303 -0.1372  0.2893
  891SOL    HW1 3562   3.074   1.958   1.161 -2.1849  0.1730  1.1493
  891SOL    HW2 3563   3.044   2.107   1.209 -3.1381  2.8833 -0.9603
  891SOL     MW 3564   3.026   2.030   1.162 -0.4592  0.3023  0.2379
  892SOL     OW 3565   2.482   2.393   2.805 -0.3315 -0.2586 -0.6626
  892SOL    HW1 3566   2.459   2.310   2.847 -2.0784 -0.7763 -0.1678
  892SOL    HW2 3567   2.576   2.412   2.833  1.4884  2.3806  1.6562
  892SOL     MW 3568   2.491   2.384   2.814 -0.3219  0.0213 -0.2914
  893SOL     OW 3569   1.658   2.353   1.387 -0.2293 -0.6292 -0.4086
  893SOL    HW1 3570   1.563   2.375   1.405 -1.7039  0.3943  0.2774
  893SOL    HW2 3571   1.700   2.416   1.445 -0.7233 -0.5550  1.4386
  893SOL     MW 3572   1.651   2.364   1.397 -0.4890 -0.4844 -0.0744
  894SOL     OW 3573   2.753   1.869   0.454  0.3685  0.0553 -0.1650
  894SOL    HW1 3574   2.662   1.883   0.496 -0.9072 -0.5272  3.3641
  894SOL    HW2 3575   2.734   1.838   0.366 -2.2061  2.6321  2.1911
  894SOL     MW 3576   2.739   1.867   0.448 -0.1395  0.3184  0.6115
  895SOL     OW 3577   2.243   2.154   1.110  0.9551 -0.8361  0.4666
  895SOL    HW1 3578   2.251   2.217   1.041 -3.1043  0.1957 -0.7023
  895SOL    HW2 3579   2.207   2.075   1.068 -1.8606 -2.3388 -0.3603
  895SOL     MW 3580   2.239   2.152   1.096  0.0480 -0.8982  0.2033
  896SOL     OW 3581   2.211   2.765   1.073  0.4326  0.2096 -0.1788
  896SOL    HW1 3582   2.263   2.728   1.148  1.0174  2.9768 -0.9409
  896SOL    HW2 3583   2.154   2.833   1.103  0.2107  0.9529 -0.9215
  896SOL     MW 3584   2.211   2.770   1.087  0.4805  0.6727 -0.3773
  897SOL     OW 3585   3.066   3.021   0.004  0.3121 -0.2096  0.1221
  897SOL    HW1 3586   3.139   2.954   0.004  3.5229 -2.2527 -1.3798
  897SOL    HW2 3587   2.991   2.975  -0.023  1.6210  2.2047 -0.0640
  897SOL     MW 3588   3.066   3.006   0.001  0.9084 -0.1607 -0.1006
  898SOL     OW 3589   2.174   0.132   1.457  0.3725  0.0526  0.2138
  898SOL    HW1 3590   2.117   0.054   1.462  2.3428 -0.9304  1.0170
  898SOL    HW2 3591   2.179   0.155   1.362  0.3949 -1.7430 -3.2007
  898SOL     MW 3592   2.167   0.125   1.445  0.6354 -0.3140 -0.1308
  899SOL     OW 3593   2.896   3.031   0.599  0.2955 -0.3707  0.1497
  899SOL    HW1 3594   2.920   2.941   0.623  3.3989  1.6603 -1.4651
  899SOL    HW2 3595   2.801   3.027   0.594 -1.7607  0.0361  0.7419
  899SOL     MW 3596   2.887   3.019   0.601  0.4337 -0.0491  0.0148
  900SOL     OW 3597   0.104   2.344   1.103  0.6562  0.2689  0.3900
  900SOL    HW1 3598   0.107   2.439   1.100 -1.8996  0.1808  2.4249
  900SOL    HW2 3599   0.119   2.314   1.011  2.1519  1.1375 -0.2157
  900SOL     MW 3600   0.106   2.352   1.090  0.5164  0.3719  0.5786
  901SOL     OW 3601   1.738   2.868   1.785 -0.0869  0.2644 -0.0114
  901SOL    HW1 3602   1.817   2.827   1.763 -2.8817  1.1221 -1.7362
  901SOL    HW2 3603   1.663   2.844   1.731  0.3200  0.3956 -0.5401
  901SOL     MW 3604   1.738   2.859   1.775 -0.4020  0.3948 -0.3087
  902SOL     OW 3605   2.639   2.114   1.630  0.0829  0.0527  0.9317
  902SOL    HW1 3606   2.650   2.058   1.551  0.4814 -0.7339 -0.1594
  902SOL    HW2 3607   2.706   2.082   1.689  0.0225 -0.6302  1.7400
  902SOL     MW 3608   2.650   2.103   1.628  0.1275 -0.1412  0.8943
  903SOL     OW 3609   1.510   2.652   0.538  0.2298 -0.5621 -0.3358
  903SOL    HW1 3610   1.603   2.622   0.558  1.4519  1.7878  3.2312
  903SOL    HW2 3611   1.476   2.709   0.615 -0.0807  3.6337  2.4327
  903SOL     MW 3612   1.518   2.655   0.551  0.3501  0.3015  0.5001
  904SOL     OW 3613   2.512   2.533   1.701  0.3722  0.1418  0.2223
  904SOL    HW1 3614   2.453   2.581   1.634  0.1257  0.4757 -1.3716
  904SOL    HW2 3615   2.578   2.489   1.650 -0.7177  1.2755 -1.1091
  904SOL     MW 3616   2.513   2.534   1.686  0.1959  0.3354 -0.1637
  905SOL     OW 3617   2.312   2.461   2.091  0.9344  0.4950 -0.1718
  905SOL    HW1 3618   2.383   2.426   2.036  0.7961 -0.9801 -0.9274
  905SOL    HW2 3619   2.308   2.385   2.165  1.2907 -0.7028  1.4820
  905SOL     MW 3620   2.320   2.446   2.094  0.9631  0.1423 -0.0533
  906SOL     OW 3621   2.493   2.528   0.757  0.0722 -0.0614 -0.2646
  906SOL    HW1 3622   2.577   2.506   0.798  2.5392  0.4789 -0.1060
  906SOL    HW2 3623   2.466   2.611   0.792 -0.4946 -1.1323  0.4042
  906SOL     MW 3624   2.501   2.536   0.767  0.3229 -0.1314 -0.1554
  907SOL     OW 3625   2.662   2.862   1.281 -0.0196 -0.8690  0.3745
  907SOL    HW1 3626   2.724   2.908   1.344  1.4357 -0.0530  0.5955
  907SOL    HW2 3627   2.701   2.873   1.195  1.0215 -1.3524  5.8173
  907SOL     MW 3628   2.675   2.869   1.278  0.3098 -0.8251  1.1218
  908SOL     OW 3629   2.718   2.396   0.017 -0.5085 -0.6350 -0.4571
  908SOL    HW1 3630   2.651   2.330   0.039 -1.2636  2.3185 -0.3357
  908SOL    HW2 3631   2.683   2.458   0.087 -1.7547 -0.6440  1.1433
  908SOL     MW 3632   2.704   2.396   0.029 -0.7726 -0.2465 -0.2300
  909SOL     OW 3633   1.692   0.091   1.296 -0.2644 -0.3177  0.5131
  909SOL    HW1 3634   1.631   0.166   1.292 -1.3051  0.0518 -1.4674
  909SOL    HW2 3635   1.692   0.062   1.386  0.3510 -2.6587 -1.3071
  909SOL     MW 3636   1.684   0.097   1.307 -0.3205 -0.5778  0.0116
  910SOL     OW 3637   2.124   1.637   0.390 -0.1217  0.4964 -0.2304
  910SOL    HW1 3638   2.058   1.560   0.375 -0.1577  0.2326 -1.5801
  910SOL    HW2 3639   2.088   1.706   0.334 -0.9377 -2.0672 -0.9530
  910SOL     MW 3640   2.111   1.636   0.380 -0.2341  0.1234 -0.5038
  911SOL     OW 3641   2.348   2.137   1.578  0.5991  0.8645 -0.3771
  911SOL    HW1 3642   2.414   2.147   1.644 -2.1256 -0.3831 -2.0924
  911SOL    HW2 3643   2.392   2.175   1.497  1.0623  0.4951  0.5181
  911SOL     MW 3644   2.363   2.143   1.576  0.3008  0.6511 -0.4853
  912SOL     OW 3645   2.914   1.866   1.391 -0.1080 -0.2837 -0.1607
  912SOL    HW1 3646   2.935   1.928   1.327  0.5335  1.1512 -2.9056
  912SOL    HW2 3647   2.819   1.884   1.404  3.1395  0.9073 -2.9012
  912SOL     MW 3648   2.904   1.877   1.384  0.4051  0.0628 -0.8845
  913SOL     OW 3649   2.694   3.088   0.255 -0.3427  0.6374 -0.1135
  913SOL    HW1 3650   2.770   3.041   0.292 -0.7325  0.3908 -1.0756
  913SOL    HW2 3651   2.627   3.020   0.219  0.7488 -1.1127 -0.1606
  913SOL     MW 3652   2.695   3.073   0.255 -0.2501  0.3740 -0.2467
  914SOL     OW 3653   2.709   1.809   2.931 -0.0674  0.1001  0.1092
  914SOL    HW1 3654   2.750   1.897   2.936  0.8562 -3.5681 -0.2060
  914SOL    HW2 3655   2.623   1.818   2.964 -0.5432  0.8371  0.7907
  914SOL     MW 3656   2.703   1.821   2.936 -0.0083 -0.2867  0.1575
  915SOL     OW 3657   1.821   0.124   0.108  0.0179  0.0015  0.0554
  915SOL    HW1 3658   1.897   0.071   0.141  0.9693 -1.9174  0.8018
  915SOL    HW2 3659   1.746   0.076   0.136  2.0738  1.3305  1.0045
  915SOL     MW 3660   1.821   0.110   0.116  0.4147 -0.0763  0.2791
  916SOL     OW 3661   1.761   2.172   2.003  0.3326 -0.0413 -0.8187
  916SOL    HW1 3662   1.800   2.260   1.987 -1.4288 -1.4318 -0.2103
  916SOL    HW2 3663   1.796   2.126   1.926  1.6201  2.8862 -1.6321
  916SOL     MW 3664   1.771   2.178   1.990  0.2701  0.1615 -0.8457
  917SOL     OW 3665   2.549   2.223   2.589  0.5795 -0.1401 -0.1819
  917SOL    HW1 3666   2.520   2.287   2.657  1.1983  0.1142 -0.6957
  917SOL    HW2 3667   2.624   2.264   2.551  0.8493  2.0968 -0.6251
  917SOL     MW 3668   2.555   2.237   2.593  0.6967  0.1886 -0.3082
  918SOL     OW 3669   2.083   1.620   2.644 -0.3050 -0.3612  0.6601
  918SOL    HW1 3670   2.012   1.663   2.600 -2.5550  0.3343  0.7661
  918SOL    HW2 3671   2.153   1.689   2.643 -0.3530 -1.7032 -0.9707
  918SOL     MW 3672   2.083   1.635   2.638 -0.6082 -0.4465  0.4589
  919SOL     OW 3673   3.071   2.420   2.250 -0.7428  0.5696  0.8602
  919SOL    HW1 3674   3.015   2.352   2.214 -1.6336 -1.0744 -0.5281
  919SOL    HW2 3675   3.146   2.417   2.189 -3.0377 -2.5777  0.8413
  919SOL     MW 3676   3.073   2.410   2.237 -1.1631 -0.0625  0.6746
  920SOL     OW 3677   2.648   2.774   3.051 -0.3424  0.6677  0.5630
  920SOL    HW1 3678   2.562   2.773   3.017  0.0803 -0.8631 -1.0297
  920SOL    HW2 3679   2.704   2.780   2.969 -2.4345  0.7924  1.3834
  920SOL     MW 3680   2.644   2.775   3.036 -0.5627  0.4822  0.4611
  921SOL     OW 3681   2.474   2.628   2.648 -0.3712 -0.3238  0.3983
  921SOL    HW1 3682   2.532   2.607   2.574 -2.5826 -0.2468 -1.0186
  921SOL    HW2 3683   2.476   2.544   2.694  0.9107 -1.2423  0.4128
  921SOL     MW 3684   2.482   2.614   2.644 -0.4938 -0.4348  0.2133
  922SOL     OW 3685   2.084   2.666   0.421  0.0868 -0.5346  0.1144
  922SOL    HW1 3686   2.071   2.687   0.329  1.7889 -1.4882  1.3259
  922SOL    HW2 3687   2.126   2.577   0.421 -4.7525  1.1123 -0.2939
  922SOL     MW 3688   2.088   2.657   0.409 -0.3271 -0.4431  0.2204
  923SOL     OW 3689   2.198   2.908   1.679 -0.0817  0.3078 -0.1392
  923SOL    HW1 3690   2.267   2.869   1.621 -0.8288 -1.2344  1.1065
  923SOL    HW2 3691   2.138   2.966   1.630  1.3441  1.3932 -0.6340
  923SOL     MW 3692   2.199   2.910   1.665  0.0079  0.2475 -0.0401
  924SOL     OW 3693   1.063   2.737   2.619  0.0808 -0.0717  0.3612
  924SOL    HW1 3694   1.147   2.785   2.597  0.0581  0.0034 -0.4028
  924SOL    HW2 3695   1.103   2.665   2.666  2.0404 -0.7728  2.2730
  924SOL     MW 3696   1.079   2.734   2.622  0.3363 -0.1543  0.5126
  925SOL     OW 3697   2.987   0.239   2.640  0.2218 -0.1249 -0.6170
  925SOL    HW1 3698   2.951   0.242   2.549  0.4340 -1.2227 -1.0804
  925SOL    HW2 3699   2.971   0.327   2.673 -1.2328  1.8625  0.6630
  925SOL     MW 3700   2.980   0.251   2.633  0.0579 -0.0075 -0.5092
  926SOL     OW 3701   2.804   2.371   1.945 -0.3127  0.6387  0.2132
  926SOL    HW1 3702   2.795   2.453   1.990  1.0756 -2.2163 -0.3435
  926SOL    HW2 3703   2.836   2.390   1.853 -0.4921 -0.3277 -0.2317
  926SOL     MW 3704   2.807   2.384   1.939 -0.1532  0.1345  0.0810
  927SOL     OW 3705   2.383   0.148   0.293  0.7782 -0.5192  0.4056
  927SOL    HW1 3706   2.464   0.203   0.289  2.2079  0.6479 -2.9990
  927SOL    HW2 3707   2.377   0.121   0.198  0.7626 -1.5011 -2.9728
  927SOL     MW 3708   2.393   0.152   0.280  0.9648 -0.4948 -0.4893
  928SOL     OW 3709   2.153   2.338   1.799  0.4229 -0.2813  0.4730
  928SOL    HW1 3710   2.119   2.409   1.742 -0.8966 -1.0274 -1.2389
  928SOL    HW2 3711   2.235   2.367   1.830  0.3890 -1.6655  1.5568
  928SOL     MW 3712   2.159   2.351   1.795  0.2443 -0.5624  0.3901
  929SOL     OW 3713   2.752   2.344   2.480 -0.7430  0.0427 -0.5811
  929SOL    HW1 3714   2.792   2.299   2.397  3.3968 -2.8308 -1.0930
  929SOL    HW2 3715   2.822   2.352   2.545  0.0145 -2.2161  1.1663
  929SOL     MW 3716   2.767   2.339   2.478 -0.0968 -0.6344 -0.4181
  930SOL     OW 3717   2.025   2.798   2.669 -0.8224 -0.1936  0.2180
  930SOL    HW1 3718   2.039   2.722   2.718 -0.0170  0.9213  0.2000
  930SOL    HW2 3719   2.101   2.850   2.652 -0.8869  0.8515 -3.6281
  930SOL     MW 3720   2.037   2.795   2.674 -0.7246  0.0914 -0.2919
  931SOL     OW 3721   0.046   2.784   2.446  0.2055  0.3995 -0.4713
  931SOL    HW1 3722   0.032   2.822   2.542 -1.2264  0.5361 -1.3956
  931SOL    HW2 3723   0.134   2.817   2.421 -0.8037 -0.7174  0.6821
  931SOL     MW 3724   0.055   2.793   2.456 -0.1166  0.2702 -0.4411
  932SOL     OW 3725   2.828   1.979   2.528 -0.6410  0.2187 -0.1893
  932SOL    HW1 3726   2.921   2.006   2.532  0.3738  1.1647 -1.4987
  932SOL    HW2 3727   2.810   1.974   2.434 -0.6605  0.1859  0.7345
  932SOL     MW 3728   2.838   1.982   2.516 -0.5097  0.3392 -0.2401
  933SOL     OW 3729   2.092   2.805   2.208 -0.0888 -0.2040 -0.1935
  933SOL    HW1 3730   2.168   2.841   2.251  1.9908 -0.0988  0.8551
  933SOL    HW2 3731   2.023   2.864   2.202 -0.0396  2.4974  0.1656
  933SOL     MW 3732   2.093   2.818   2.213  0.1921  0.1663 -0.0077
  934SOL     OW 3733   2.017   2.659   2.428 -0.2305  0.4573  0.0150
  934SOL    HW1 3734   1.997   2.703   2.508  0.4795 -0.3274 -2.4137
  934SOL    HW2 3735   2.049   2.725   2.355  1.9996 -0.4931  0.3330
  934SOL     MW 3736   2.019   2.674   2.429  0.1574  0.2284 -0.2634
  935SOL     OW 3737   2.641   1.475   1.771 -0.2848  0.0645  0.2360
  935SOL    HW1 3738   2.729   1.459   1.735  0.2604  0.4785 -0.5252
  935SOL    HW2 3739   2.597   1.466   1.683  1.4799 -1.1790  0.3575
  935SOL     MW 3740   2.647   1.471   1.755  0.0200 -0.0449  0.1516
  936SOL     OW 3741   2.940   2.248   0.020  0.3178  0.1125  0.0710
  936SOL    HW1 3742   3.009   2.289   0.069 -1.5380 -0.1068 -1.7760
  936SOL    HW2 3743   2.866   2.312   0.018 -0.9277 -4.7591  3.0215
  936SOL     MW 3744   2.939   2.262   0.026 -0.0914 -0.5592  0.2166
  937SOL     OW 3745   1.964   2.116   2.671 -0.6790 -0.0347 -0.1251
  937SOL    HW1 3746   2.032   2.093   2.736 -0.8910  1.3213 -0.5953
  937SOL    HW2 3747   1.994   2.086   2.588 -1.5567  0.5275  1.0954
  937SOL     MW 3748   1.977   2.109   2.669 -0.8228  0.2184 -0.0261
  938SOL     OW 3749   2.331   1.712   1.837 -1.1582  0.4324 -0.3783
  938SOL    HW1 3750   2.331   1.748   1.744  0.6620 -1.6677 -2.9238
  938SOL    HW2 3751   2.305   1.783   1.907  0.0813  0.6940 -0.2747
  938SOL     MW 3752   2.327   1.726   1.834 -0.7545  0.1898 -0.7005
  939SOL     OW 3753   2.774   1.943   2.251 -0.2524  0.0997 -0.3634
  939SOL    HW1 3754   2.831   1.906   2.184  1.2933 -0.3565  0.5691
  939SOL    HW2 3755   2.684   1.909   2.225 -0.9860  1.1915 -2.1289
  939SOL     MW 3756   2.770   1.934   2.239 -0.1453  0.1835 -0.4733
  940SOL     OW 3757   2.187   0.125   2.724 -0.3124  0.1654  1.0477
  940SOL    HW1 3758   2.195   0.058   2.658  0.9641 -0.2285 -1.1241
  940SOL    HW2 3759   2.270   0.128   2.776  0.8951 -0.7506  0.5587
  940SOL     MW 3760   2.199   0.117   2.722  0.0153 -0.0075  0.6967
  941SOL     OW 3761   0.134   2.455   2.029 -0.0612  0.2047 -0.8871
  941SOL    HW1 3762   0.216   2.424   2.061 -3.6886  1.4878 -0.4715
  941SOL    HW2 3763   0.108   2.411   1.946 -2.8801 -1.4633  1.2206
  941SOL     MW 3764   0.141   2.445   2.023 -0.9117  0.1539 -0.5542
  942SOL     OW 3765   2.877   2.238   2.203 -0.6109 -0.1120 -0.0652
  942SOL    HW1 3766   2.859   2.284   2.118  0.3526 -0.1124 -0.4347
  942SOL    HW2 3767   2.867   2.142   2.202  1.7621 -3.0843  0.5863
  942SOL     MW 3768   2.874   2.232   2.192 -0.1707 -0.5042 -0.0280
  943SOL     OW 3769   0.293   2.110   2.314  0.5536  0.5738  0.4171
  943SOL    HW1 3770   0.249   2.185   2.357  1.5070 -2.5466 -0.4196
  943SOL    HW2 3771   0.349   2.064   2.378 -2.0208 -0.8042 -0.5550
  943SOL     MW 3772   0.295   2.114   2.328  0.3397 -0.0197  0.1784
  944SOL     OW 3773   2.145   2.644   1.957 -0.6433  0.4101 -0.5204
  944SOL    HW1 3774   2.191   2.564   1.980 -0.1587 -0.8861 -0.7820
  944SOL    HW2 3775   2.103   2.674   2.036 -1.5444  0.6718  2.3279
  944SOL     MW 3776   2.146   2.637   1.971 -0.6982  0.2736 -0.1791
  945SOL     OW 3777   2.821   2.779   2.827 -0.2191 -0.3910  0.1565
  945SOL    HW1 3778   2.772   2.703   2.811  0.0762  2.2231 -2.0871
  945SOL    HW2 3779   2.821   2.822   2.734 -1.4910 -1.2081  1.5858
  945SOL     MW 3780   2.814   2.775   2.812 -0.3480 -0.1539  0.0490
  946SOL     OW 3781   2.465   2.652   2.234 -0.1352 -0.1141  0.2588
  946SOL    HW1 3782   2.491   2.704   2.154 -1.9936  1.4096 -5.3502
  946SOL    HW2 3783   2.424   2.579   2.190  1.3384  0.2712  1.2509
  946SOL     MW 3784   2.463   2.649   2.218 -0.1860  0.1378 -0.3504
  947SOL     OW 3785   2.045   0.010   0.199 -0.5006 -0.1265  0.0850
  947SOL    HW1 3786   2.077  -0.052   0.126 -0.9569  1.4718  1.4618
  947SOL    HW2 3787   2.068  -0.022   0.284  0.6673  0.0075  1.0956
  947SOL     MW 3788   2.052  -0.002   0.201 -0.4067  0.1021  0.4000
  948SOL     OW 3789   1.784   2.999   2.615  0.0598  0.1870  0.1666
  948SOL    HW1 3790   1.855   2.932   2.622  0.2784 -1.5980  0.8621
  948SOL    HW2 3791   1.746   3.003   2.527  0.1953 -1.5311  0.2645
  948SOL     MW 3792   1.788   2.990   2.604  0.1065 -0.2752  0.2713
  949SOL     OW 3793   2.492   1.879   2.201  0.3113 -0.6654 -0.0409
  949SOL    HW1 3794   2.453   1.811   2.252  0.3224  2.0906  0.9501
  949SOL    HW2 3795   2.493   1.959   2.259 -0.8304 -1.2206 -1.3414
  949SOL     MW 3796   2.487   1.881   2.215  0.1622 -0.3750 -0.0817
  950SOL     OW 3797   2.340   2.548   2.998  0.1035 -0.3856  0.1136
  950SOL    HW1 3798   2.383   2.491   2.934  0.5816 -0.3362  0.6144
  950SOL    HW2 3799   2.255   2.537   2.969  0.5562  0.2822 -2.7720
  950SOL     MW 3800   2.335   2.539   2.985  0.2263 -0.2910 -0.2010
  951SOL     OW 3801   3.058   2.195   2.872  0.0027 -0.4757  0.4367
  951SOL    HW1 3802   3.016   2.205   2.960 -0.5556 -1.9522  3.1084
  951SOL    HW2 3803   3.051   2.099   2.870  0.4750  0.5725  2.1982
  951SOL     MW 3804   3.051   2.184   2.883 -0.0086 -0.5322  1.0216
  952SOL     OW 3805   3.029   1.706   2.137 -0.0844  0.2258  0.0438
  952SOL    HW1 3806   2.990   1.765   2.073 -2.6604  1.8422  1.9872
  952SOL    HW2 3807   3.101   1.763   2.178 -1.6042  2.3744  2.7211
  952SOL     MW 3808   3.033   1.721   2.134 -0.6248  0.7226  0.6534
  953SOL     OW 3809   1.958   1.708   2.935  0.0915  0.5073  0.1780
  953SOL    HW1 3810   1.874   1.659   2.951  1.1523 -2.2979 -2.0766
  953SOL    HW2 3811   1.987   1.670   2.852 -1.3486 -1.6069  1.5004
  953SOL     MW 3812   1.951   1.697   2.926  0.0414 -0.1418  0.0550
  954SOL     OW 3813   2.409   2.152   2.916 -0.9209  0.1479 -0.2705
  954SOL    HW1 3814   2.316   2.137   2.921 -0.5234  1.5071  1.2036
  954SOL    HW2 3815   2.448   2.099   2.844  3.7609 -1.8410 -0.4760
  954SOL     MW 3816   2.402   2.143   2.907 -0.2507  0.0648 -0.1031
  955SOL     OW 3817   1.594   1.516   2.543 -0.0324 -0.4508  0.4190
  955SOL    HW1 3818   1.575   1.543   2.448 -0.5798  1.4871 -1.3264
  955SOL    HW2 3819   1.692   1.524   2.552  0.1645  1.7736  0.5797
  955SOL     MW 3820   1.604   1.520   2.532 -0.0786  0.0984  0.2099
  956SOL     OW 3821   2.737   2.496   2.858 -0.1068 -0.2103  0.1187
  956SOL    HW1 3822   2.726   2.457   2.941  0.9947 -1.2786  0.4730
  956SOL    HW2 3823   2.816   2.458   2.822  0.6008  0.4746 -0.2073
  956SOL     MW 3824   2.746   2.486   2.864  0.1319 -0.2609  0.1224
  957SOL     OW 3825   2.280   2.834   0.589 -0.3286 -0.3508  0.0957
  957SOL    HW1 3826   2.215   2.785   0.532  2.6591 -0.9537  1.9755
  957SOL    HW2 3827   2.266   2.816   0.681 -0.3931  1.5057  3.1575
  957SOL     MW 3828   2.270   2.825   0.594  0.0570 -0.1854  0.7477
  958SOL     OW 3829   2.070   2.579   2.892  0.1723 -0.2171  0.2553
  958SOL    HW1 3830   2.034   2.545   2.814  0.3403 -2.1212  2.0921
  958SOL    HW2 3831   2.000   2.561   2.953 -0.2188  0.1247  1.5467
  958SOL     MW 3832   2.056   2.572   2.890  0.1429 -0.4232  0.6680
  959SOL     OW 3833   2.510   2.816   0.456 -0.3281  0.0309 -0.0964
  959SOL    HW1 3834   2.483   2.842   0.368  0.0726  1.8238  1.6593
  959SOL    HW2 3835   2.431   2.824   0.514  0.7102 -2.0080  1.0607
  959SOL     MW 3836   2.496   2.820   0.452 -0.1383 -0.0015  0.2879
  960SOL     OW 3837   1.921   2.373   2.261  0.0755  0.4675 -0.2691
  960SOL    HW1 3838   1.934   2.281   2.270  0.0781  1.2224  0.6194
  960SOL    HW2 3839   1.847   2.388   2.319 -1.1902  1.1989 -1.3384
  960SOL     MW 3840   1.913   2.363   2.270 -0.0911  0.6636 -0.2930
  961SOL     OW 3841   2.247   2.303   2.301 -0.3017  0.3972  0.2547
  961SOL    HW1 3842   2.157   2.279   2.284  0.5380 -0.7780  1.0530
  961SOL    HW2 3843   2.233   2.353   2.378 -0.8321 -1.9620  1.2727
  961SOL     MW 3844   2.233   2.306   2.309 -0.2609 -0.0691  0.4943
  962SOL     OW 3845   2.159   2.013   2.839 -0.1134 -0.4362  0.5188
  962SOL    HW1 3846   2.143   1.972   2.924  0.4228 -0.5476  0.6329
  962SOL    HW2 3847   2.197   1.947   2.786 -3.3052  1.9904  4.3046
  962SOL     MW 3848   2.162   1.999   2.843 -0.4638 -0.1307  1.0334
  963SOL     OW 3849   1.887   2.601   2.084  0.1976  0.4149 -0.1654
  963SOL    HW1 3850   1.919   2.555   2.164  2.1135  1.2727  1.5454
  963SOL    HW2 3851   1.889   2.524   2.016 -1.0131 -1.0820 -1.3323
  963SOL     MW 3852   1.891   2.585   2.085  0.2906  0.3305 -0.0936
  964SOL     OW 3853   1.834   1.906   2.745  0.2287 -0.0853 -0.3663
  964SOL    HW1 3854   1.882   1.988   2.709  1.6351  0.4752  0.8331
  964SOL    HW2 3855   1.882   1.849   2.798 -0.8804  1.2907 -3.6112
  964SOL     MW 3856   1.847   1.910   2.747  0.2679  0.1702 -0.6361
  965SOL     OW 3857   2.138   2.620   0.800 -1.1120 -0.2544  0.4117
  965SOL    HW1 3858   2.136   2.530   0.773 -2.1417 -1.1084  0.4923
  965SOL    HW2 3859   2.224   2.632   0.841  1.5451  0.9590 -0.1435
  965SOL     MW 3860   2.149   2.610   0.802 -0.8973 -0.2069  0.3491
  966SOL     OW 3861   2.679   2.606   2.417  0.4804  0.3136 -0.0347
  966SOL    HW1 3862   2.597   2.614   2.360 -0.0953 -2.6928  1.5699
  966SOL    HW2 3863   2.697   2.513   2.442  0.0568 -0.6008 -4.1432
  966SOL     MW 3864   2.670   2.595   2.413  0.3485 -0.2037 -0.3650
  967SOL     OW 3865   2.755   3.047   3.006 -0.2801  0.4833  0.5154
  967SOL    HW1 3866   2.704   2.970   3.044 -2.1963 -1.9586  1.4532
  967SOL    HW2 3867   2.687   3.074   2.943  0.2532  3.0665 -0.4429
  967SOL     MW 3868   2.739   3.041   3.003 -0.4626  0.5020  0.5127
  968SOL     OW 3869   3.050   2.680   2.923  0.3203  0.5396 -0.2281
  968SOL    HW1 3870   2.980   2.731   2.879 -2.6242 -0.8344 -1.7025
  968SOL    HW2 3871   3.095   2.637   2.847  2.2924 -0.7194 -0.6837
  968SOL     MW 3872   3.047   2.681   2.907  0.1920  0.1922 -0.4827
  969SOL     OW 3873   1.557   2.193   1.708 -0.3253 -0.6123 -0.7599
  969SOL    HW1 3874   1.634   2.138   1.722 -0.7825 -0.3075  0.0845
  969SOL    HW2 3875   1.525   2.211   1.794  0.1772  0.1428  2.7331
  969SOL     MW 3876   1.563   2.188   1.721 -0.3193 -0.4724 -0.1877
  970SOL     OW 3877   1.757   1.813   1.922 -0.4778 -0.3437 -0.1022
  970SOL    HW1 3878   1.776   1.754   1.992 -0.6862  0.6254  0.2777
  970SOL    HW2 3879   1.679   1.779   1.881  0.5321  1.5512 -1.2507
  970SOL     MW 3880   1.749   1.800   1.926 -0.3721  0.0342 -0.2036
  971SOL     OW 3881   1.711   0.011   2.351  0.2228  0.4785 -0.6238
  971SOL    HW1 3882   1.772  -0.039   2.285 -1.8062 -1.3209 -0.0631
  971SOL    HW2 3883   1.736   0.102   2.350 -0.2624  1.0055  0.4623
  971SOL     MW 3884   1.723   0.016   2.342 -0.1089  0.3106 -0.4065
  972SOL     OW 3885   0.311   2.902   2.387  0.0597 -0.4107  0.3081
  972SOL    HW1 3886   0.358   2.831   2.434 -0.8523 -0.0170  2.0025
  972SOL    HW2 3887   0.336   2.975   2.441 -2.2105 -0.1659 -0.9486
  972SOL     MW 3888   0.320   2.902   2.400 -0.3602 -0.3264  0.3659
  973SOL     OW 3889   2.599   3.010   2.119  0.3098  0.0645 -0.4021
  973SOL    HW1 3890   2.563   2.932   2.072 -0.6978 -1.8008  0.0961
  973SOL    HW2 3891   2.622   3.068   2.038 -2.4302  4.9638 -2.9259
  973SOL     MW 3892   2.597   3.007   2.102 -0.1846  0.4648 -0.6694
  974SOL     OW 3893   1.957   0.164   2.595 -0.3039 -0.2770  0.3694
  974SOL    HW1 3894   2.017   0.156   2.668  0.0747 -0.8608 -0.9807
  974SOL    HW2 3895   1.912   0.079   2.593  0.7049  0.9266 -0.8858
  974SOL     MW 3896   1.959   0.152   2.604 -0.1208 -0.1952  0.0256
  975SOL     OW 3897   2.215   2.495   2.516 -0.2312  0.0807  0.2919
  975SOL    HW1 3898   2.277   2.538   2.576  2.9819 -1.5060  1.0744
  975SOL    HW2 3899   2.154   2.562   2.479 -2.5696  3.7462 -0.2451
  975SOL     MW 3900   2.215   2.509   2.519 -0.1158  0.3550  0.3243
  976SOL     OW 3901   0.215   0.352   1.622 -0.3887  0.3712 -0.6485
  976SOL    HW1 3902   0.271   0.292   1.670  0.8654 -1.3767 -1.7160
  976SOL    HW2 3903   0.135   0.301   1.622  0.1544  0.1734 -1.1680
  976SOL     MW 3904   0.212   0.337   1.629 -0.1516  0.1145 -0.8579
  977SOL     OW 3905   1.759   2.768   2.384  0.2474 -0.1425  0.1970
  977SOL    HW1 3906   1.811   2.688   2.376 -1.2958  0.0404  0.6134
  977SOL    HW2 3907   1.802   2.808   2.309  2.1205  0.5376 -0.1819
  977SOL     MW 3908   1.772   2.763   2.373  0.2909 -0.0286  0.2019
   3.10000   3.10000   3.10000
