977 TIP4P/2005f water molecules t=   0.52000 step= 520
 3908
    1SOL     OW    1   0.240   0.808   0.026 -0.9127  0.5347 -0.4086
    1SOL    HW1    2   0.230   0.846  -0.058 -1.6381  0.9606  0.9189
    1SOL    HW2    3   0.226   0.712   0.018  0.5144  2.2495 -0.8811
    1SOL     MW    4   0.237   0.800   0.014 -0.8201  0.8171 -0.2958
    2SOL     OW    5   0.268   3.038   1.156  0.1806 -1.1366 -0.4035
    2SOL    HW1    6   0.325   3.106   1.117 -0.3271  2.6488 -0.2935
    2SOL    HW2    7   0.178   3.074   1.164 -0.2708  1.8844 -0.1363
    2SOL     MW    8   0.264   3.052   1.152  0.0540 -0.2385 -0.3537
    3SOL     OW    9   2.699   0.386   0.930  0.2214  0.0769 -0.0728
    3SOL    HW1   10   2.708   0.454   0.867  0.6572 -2.2261 -1.5503
    3SOL    HW2   11   2.654   0.439   1.005  0.1012 -2.8125  1.6159
    3SOL     MW   12   2.694   0.402   0.931  0.2630 -0.6081 -0.0449
    4SOL     OW   13   3.053   1.758   0.594  0.3943 -0.0315 -0.2993
    4SOL    HW1   14   2.994   1.790   0.526  0.3162 -0.4176 -0.2726
    4SOL    HW2   15   3.090   1.691   0.538 -1.0241  0.1280 -0.4242
    4SOL     MW   16   3.050   1.753   0.577  0.1968 -0.0614 -0.3123
    5SOL     OW   17   1.734   1.497   0.594 -0.4691 -0.3612 -0.2798
    5SOL    HW1   18   1.786   1.448   0.662 -0.9398  2.3070 -0.6765
    5SOL    HW2   19   1.642   1.463   0.590 -0.3196 -1.3692 -1.0782
    5SOL     MW   20   1.729   1.486   0.602 -0.5115 -0.1422 -0.4375
    6SOL     OW   21   0.866   1.387   0.682  0.0140  0.0636 -0.2772
    6SOL    HW1   22   0.784   1.406   0.721  1.2960  2.7410 -1.2345
    6SOL    HW2   23   0.893   1.305   0.717 -0.6821  0.0344  2.6319
    6SOL     MW   24   0.859   1.379   0.692  0.0913  0.4130 -0.0197
    7SOL     OW   25   1.999   1.093   0.048  0.4369  0.6202 -0.2317
    7SOL    HW1   26   2.036   1.159  -0.008  0.0374  0.8334 -1.8485
    7SOL    HW2   27   2.021   1.119   0.138  0.1511  3.9600 -0.0582
    7SOL     MW   28   2.007   1.105   0.053  0.3465  1.0890 -0.4221
    8SOL     OW   29   0.958   1.362   1.017 -0.4977  0.3218  0.1292
    8SOL    HW1   30   0.960   1.348   0.920 -1.6195  0.5141 -0.8695
    8SOL    HW2   31   0.924   1.280   1.057  0.0756  0.9850 -3.1142
    8SOL     MW   32   0.953   1.350   1.010 -0.5701  0.4347 -0.4305
    9SOL     OW   33   1.074   0.479   1.367 -0.1169 -0.3996  0.1760
    9SOL    HW1   34   1.006   0.421   1.334 -1.2156  0.4563 -0.4510
    9SOL    HW2   35   1.122   0.434   1.435 -0.2116  2.3915 -0.9530
    9SOL     MW   36   1.072   0.466   1.372 -0.2743  0.0816 -0.0557
   10SOL     OW   37   0.263   0.779   0.442 -0.5108  0.1733 -0.5726
   10SOL    HW1   38   0.354   0.811   0.440  2.5615  1.8250  1.3989
   10SOL    HW2   39   0.217   0.822   0.516 -0.1647  2.2101  1.0830
   10SOL     MW   40   0.269   0.789   0.452 -0.0598  0.6599 -0.0940
   11SOL     OW   41   0.791   1.103   1.641 -0.6325  0.5345  0.6760
   11SOL    HW1   42   0.813   1.090   1.733  2.5539 -0.8742  0.7098
   11SOL    HW2   43   0.766   1.019   1.597 -0.4566  4.2960  1.3682
   11SOL     MW   44   0.791   1.090   1.647 -0.1889  0.8449  0.7718
   12SOL     OW   45   0.040   1.068   0.856 -0.1814 -0.3044 -0.0728
   12SOL    HW1   46   0.029   1.157   0.892 -1.2661 -2.4336 -4.2453
   12SOL    HW2   47  -0.042   1.076   0.809  1.0727  0.4488  2.2799
   12SOL     MW   48   0.028   1.081   0.854 -0.1590 -0.4859 -0.3129
   13SOL     OW   49   1.867   1.419   1.321 -0.4843  0.2808 -0.2204
   13SOL    HW1   50   1.889   1.392   1.235 -2.6223  1.9160  1.3780
   13SOL    HW2   51   1.841   1.518   1.316  1.0635  1.5949  1.7412
   13SOL     MW   52   1.867   1.429   1.309 -0.5622  0.6700  0.2493
   14SOL     OW   53   0.588   0.315   1.805 -0.2764  0.2922  0.3684
   14SOL    HW1   54   0.555   0.248   1.739 -0.5289 -0.1195  0.5167
   14SOL    HW2   55   0.653   0.267   1.851 -0.8548  3.3699  1.5204
   14SOL     MW   56   0.592   0.300   1.803 -0.3860  0.6440  0.5400
   15SOL     OW   57   1.965   0.517   0.964 -0.5611  0.2276  0.0955
   15SOL    HW1   58   2.009   0.548   1.048 -1.8981  0.9058  2.2985
   15SOL    HW2   59   2.024   0.459   0.914 -0.3206  0.8460  0.0495
   15SOL     MW   60   1.979   0.514   0.968 -0.7058  0.3987  0.3801
   16SOL     OW   61   0.226   1.775   0.328  0.7559  0.2671 -0.2981
   16SOL    HW1   62   0.311   1.739   0.358 -0.6645  0.5300  1.4887
   16SOL    HW2   63   0.229   1.858   0.380 -0.3955 -3.0292  0.7739
   16SOL     MW   64   0.238   1.782   0.339  0.4166 -0.1331  0.0791
   17SOL     OW   65   1.004   0.836   1.493 -0.0962  0.3910  0.0435
   17SOL    HW1   66   1.043   0.803   1.571 -1.4963  1.3798  0.3736
   17SOL    HW2   67   0.914   0.801   1.500 -0.5990  2.2971 -1.9989
   17SOL     MW   68   0.997   0.827   1.504 -0.3473  0.7730 -0.1824
   18SOL     OW   69   0.084   1.577   0.447  0.1632  0.4837 -0.2629
   18SOL    HW1   70   0.123   1.654   0.403 -0.8553  1.0625  0.2378
   18SOL    HW2   71   0.042   1.531   0.375 -0.5693 -0.5989 -0.7916
   18SOL     MW   72   0.083   1.581   0.432 -0.0678  0.4172 -0.2666
   19SOL     OW   73   0.086   1.304   0.988 -0.2472 -0.3165  0.4768
   19SOL    HW1   74   0.146   1.361   0.937  1.8576 -1.6064 -0.2178
   19SOL    HW2   75   0.007   1.352   0.998  0.1632 -1.0832 -0.1682
   19SOL     MW   76   0.083   1.318   0.983  0.0847 -0.5878  0.3001
   20SOL     OW   77   0.430   2.134   1.304 -0.4936 -0.1105 -0.0808
   20SOL    HW1   78   0.389   2.079   1.234  1.7581  2.0429  0.0439
   20SOL    HW2   79   0.368   2.160   1.374  1.7712 -1.0952  0.6511
   20SOL     MW   80   0.417   2.130   1.304  0.1023  0.0437  0.0322
   21SOL     OW   81   0.522   0.837   0.363  0.0256 -0.3576  0.4005
   21SOL    HW1   82   0.595   0.818   0.420 -0.6127 -0.1997  3.1833
   21SOL    HW2   83   0.529   0.781   0.286 -1.1526  0.0415  0.4754
   21SOL     MW   84   0.532   0.827   0.361 -0.2141 -0.2841  0.7775
   22SOL     OW   85   1.550   0.576   1.110 -0.7075 -0.3022 -0.0878
   22SOL    HW1   86   1.592   0.523   1.032 -1.8846 -0.7668  1.3263
   22SOL    HW2   87   1.508   0.651   1.070 -0.8407 -0.4804  1.7116
   22SOL     MW   88   1.550   0.579   1.094 -0.8804 -0.3870  0.3362
   23SOL     OW   89   3.080   0.753   0.697  0.1392  0.2688 -0.3408
   23SOL    HW1   90   3.132   0.681   0.729  0.7296  1.1428 -1.1538
   23SOL    HW2   91   3.149   0.824   0.688  2.0882 -0.2396 -0.8205
   23SOL     MW   92   3.096   0.753   0.700  0.4743  0.3170 -0.5113
   24SOL     OW   93   2.000   2.186   0.072 -0.5024  0.6929  0.3113
   24SOL    HW1   94   1.989   2.161   0.165 -0.9039  1.2038 -0.4865
   24SOL    HW2   95   2.058   2.120   0.039 -2.0319  1.1979 -0.0764
   24SOL     MW   96   2.007   2.174   0.080 -0.7572  0.8270  0.1549
   25SOL     OW   97   0.303   1.422   0.525 -0.5021 -0.5203  0.1922
   25SOL    HW1   98   0.226   1.486   0.502 -3.0896 -1.2927 -0.0408
   25SOL    HW2   99   0.368   1.441   0.465 -5.5038 -0.7326  1.3826
   25SOL     MW  100   0.301   1.433   0.514 -1.5034 -0.6502  0.3185
   26SOL     OW  101   2.035   0.904   0.462 -0.5095  0.3972 -0.2965
   26SOL    HW1  102   1.982   0.979   0.461  1.4131 -2.5356  1.0825
   26SOL    HW2  103   2.103   0.922   0.394 -3.0394 -1.3426 -2.4180
   26SOL     MW  104   2.037   0.916   0.453 -0.5896 -0.2193 -0.3945
   27SOL     OW  105   2.038   1.383   0.271  0.1520  0.4090  0.4616
   27SOL    HW1  106   1.944   1.373   0.297 -0.6003 -1.8217 -1.1756
   27SOL    HW2  107   2.065   1.463   0.319 -0.5885  0.9319 -0.5006
   27SOL     MW  108   2.029   1.392   0.281 -0.0450  0.1837  0.1186
   28SOL     OW  109   0.354   1.065   1.966  0.5898  0.8541 -0.2329
   28SOL    HW1  110   0.436   1.084   2.006 -0.2683  1.6489 -0.9256
   28SOL    HW2  111   0.353   0.979   2.001  3.9085  1.8485  2.5857
   28SOL     MW  112   0.365   1.056   1.976  0.9145  1.0901  0.0476
   29SOL     OW  113   0.264   1.424   0.811 -0.0103  0.2662 -0.1244
   29SOL    HW1  114   0.272   1.520   0.815 -0.3059 -0.6433  0.0707
   29SOL    HW2  115   0.286   1.411   0.720 -1.0925  3.2622  0.6019
   29SOL     MW  116   0.268   1.435   0.799 -0.1921  0.5415 -0.0028
   30SOL     OW  117   0.874   1.107   1.229 -0.0938  0.7418  0.3990
   30SOL    HW1  118   0.784   1.140   1.252 -1.7832  2.2080 -0.7766
   30SOL    HW2  119   0.925   1.103   1.313 -0.0117  0.6509  2.6835
   30SOL     MW  120   0.869   1.111   1.243 -0.3059  0.9232  0.5454
   31SOL     OW  121   0.391   0.248   0.188 -0.1084  0.0021 -0.5648
   31SOL    HW1  122   0.391   0.179   0.260 -2.1961 -0.0097  2.6916
   31SOL    HW2  123   0.384   0.195   0.113 -2.4630  0.8430 -0.0357
   31SOL     MW  124   0.390   0.232   0.188 -0.6945  0.1115 -0.0653
   32SOL     OW  125   2.762   1.038   1.119 -0.0118 -0.5491  0.1469
   32SOL    HW1  126   2.698   0.968   1.112  1.2928  0.9163 -0.0411
   32SOL    HW2  127   2.848   0.995   1.104  0.0006 -2.2930  2.9681
   32SOL     MW  128   2.765   1.023   1.116  0.1620 -0.5858  0.4943
   33SOL     OW  129   1.792   1.362   0.345  0.5170 -0.1602 -0.0181
   33SOL    HW1  130   1.811   1.283   0.397  0.3443 -1.0207 -1.2670
   33SOL    HW2  131   1.746   1.421   0.403 -0.3333  0.2014 -0.8987
   33SOL     MW  132   1.788   1.360   0.360  0.3820 -0.2260 -0.2990
   34SOL     OW  133   1.220   1.893   1.102  0.4006  0.0461  0.2203
   34SOL    HW1  134   1.130   1.937   1.121 -1.4462 -0.4557 -0.7580
   34SOL    HW2  135   1.271   1.897   1.187 -1.0550  0.9697 -2.0924
   34SOL     MW  136   1.215   1.899   1.116 -0.0352  0.1018 -0.2139
   35SOL     OW  137   0.328   0.130   1.810  0.6100 -0.0100 -0.1195
   35SOL    HW1  138   0.345   0.114   1.903 -1.0257 -1.4786  2.1275
   35SOL    HW2  139   0.369   0.048   1.770 -1.2824  0.0553  0.1805
   35SOL     MW  140   0.335   0.117   1.817  0.1445 -0.1951  0.2166
   36SOL     OW  141   1.851   1.929   0.490 -0.1886 -0.2072 -1.0988
   36SOL    HW1  142   1.864   1.915   0.393 -2.4426 -2.3823  0.2188
   36SOL    HW2  143   1.886   1.856   0.538 -0.4794 -2.7945  1.6737
   36SOL     MW  144   1.857   1.918   0.483 -0.5244 -0.8356 -0.5592
   37SOL     OW  145   1.752   2.058   1.029  0.6442 -0.6970  0.7995
   37SOL    HW1  146   1.700   2.008   0.966 -1.2839  0.6472 -1.3359
   37SOL    HW2  147   1.691   2.084   1.111 -1.0646  4.3655 -0.7895
   37SOL     MW  148   1.737   2.055   1.031  0.1643  0.1483  0.3081
   38SOL     OW  149   2.828   0.927   0.173 -0.3114  0.3470 -0.2907
   38SOL    HW1  150   2.867   0.908   0.257 -0.2943 -3.7143  0.1364
   38SOL    HW2  151   2.899   0.904   0.119 -1.6211 -1.5659  1.6803
   38SOL     MW  152   2.842   0.922   0.177 -0.4819 -0.4412  0.0257
   39SOL     OW  153   1.425   0.616   0.800 -0.5349 -0.1527 -0.0316
   39SOL    HW1  154   1.398   0.528   0.826 -0.5529  0.7400  2.5287
   39SOL    HW2  155   1.351   0.672   0.823 -0.0726  0.6164  0.6243
   39SOL     MW  156   1.412   0.612   0.806 -0.4763  0.0665  0.3928
   40SOL     OW  157   1.221   1.875   0.250 -0.6585 -0.1189 -0.2641
   40SOL    HW1  158   1.289   1.820   0.290 -1.5486  2.0648  1.2881
   40SOL    HW2  159   1.228   1.960   0.293 -1.2345 -0.4572 -0.5866
   40SOL     MW  160   1.231   1.879   0.261 -0.8520  0.1246 -0.1018
   41SOL     OW  161   0.599   0.489   1.573  0.2347  0.2581 -0.1382
   41SOL    HW1  162   0.691   0.505   1.555  0.1755 -0.1537  0.1129
   41SOL    HW2  163   0.595   0.424   1.639 -0.1607 -0.7188 -0.0743
   41SOL     MW  164   0.611   0.483   1.579  0.1747  0.0749 -0.0966
   42SOL     OW  165   1.277   2.991   1.989 -0.5211 -0.5026  0.0420
   42SOL    HW1  166   1.186   2.997   2.009  1.1899  0.2671 -2.3993
   42SOL    HW2  167   1.313   2.903   1.979 -1.0035 -0.9176  0.6344
   42SOL     MW  168   1.270   2.980   1.990 -0.3590 -0.4558 -0.2020
   43SOL     OW  169   1.517   0.162   1.720 -0.0239 -0.2543  0.3148
   43SOL    HW1  170   1.588   0.107   1.685 -0.3203 -0.1847 -0.1482
   43SOL    HW2  171   1.426   0.123   1.717 -3.8848 -0.0372  1.1224
   43SOL     MW  172   1.514   0.149   1.715 -0.5724 -0.2165  0.3603
   44SOL     OW  173   1.262   0.734   1.086 -0.5685  0.0261  0.0524
   44SOL    HW1  174   1.245   0.832   1.065  1.8538  1.7278 -1.1060
   44SOL    HW2  175   1.245   0.736   1.182  0.1680  3.4293  0.0810
   44SOL     MW  176   1.257   0.748   1.096 -0.1518  0.6996 -0.0967
   45SOL     OW  177   1.151   0.729   0.793 -0.4592 -0.1769  0.1746
   45SOL    HW1  178   1.134   0.681   0.876 -2.5547  3.8704 -1.5186
   45SOL    HW2  179   1.112   0.676   0.723  2.4933  1.1723  1.5765
   45SOL     MW  180   1.144   0.715   0.795 -0.3461  0.5351  0.1362
   46SOL     OW  181   0.545   1.163   0.539 -0.4088  0.2922  0.4279
   46SOL    HW1  182   0.552   1.152   0.438 -0.8538 -0.2804 -0.0728
   46SOL    HW2  183   0.633   1.140   0.572 -1.0143  1.7939  0.2446
   46SOL     MW  184   0.558   1.159   0.530 -0.5474  0.4148  0.3377
   47SOL     OW  185   0.207   1.913   1.798  0.1498  0.4470 -0.2630
   47SOL    HW1  186   0.277   1.851   1.758 -4.0120  0.1896 -3.9128
   47SOL    HW2  187   0.198   1.890   1.896  2.1323 -1.6518 -0.4410
   47SOL     MW  188   0.215   1.902   1.806 -0.1377  0.1361 -0.7680
   48SOL     OW  189   1.035   0.609   1.020 -0.0279 -0.2491  0.1024
   48SOL    HW1  190   0.945   0.617   1.046  1.2380 -0.8126 -1.3054
   48SOL    HW2  191   1.084   0.669   1.074  1.4389 -2.2251 -2.3117
   48SOL     MW  192   1.029   0.618   1.031  0.3326 -0.5842 -0.4018
   49SOL     OW  193   1.812   0.750   1.555 -0.1003 -0.3502 -0.7894
   49SOL    HW1  194   1.763   0.734   1.637 -0.1954 -2.7699  2.0788
   49SOL    HW2  195   1.878   0.674   1.568  0.4823 -2.3565  0.0703
   49SOL     MW  196   1.814   0.738   1.568 -0.0360 -0.9342 -0.2975
   50SOL     OW  197   1.168   1.053   0.508 -0.2061  0.1779 -0.1977
   50SOL    HW1  198   1.194   1.082   0.593 -0.7590 -0.1391  0.2722
   50SOL    HW2  199   1.231   0.977   0.503  0.1643  0.5429 -1.8538
   50SOL     MW  200   1.180   1.046   0.519 -0.2302  0.1843 -0.3542
   51SOL     OW  201   0.346   2.877   0.961  0.5198 -0.1504  0.1522
   51SOL    HW1  202   0.435   2.843   0.977 -0.8547 -1.8740  0.4495
   51SOL    HW2  203   0.330   2.937   1.035 -0.0487 -0.2968  0.1272
   51SOL     MW  204   0.356   2.880   0.973  0.2634 -0.3971  0.1882
   52SOL     OW  205   0.798   1.790   0.387  0.2968  0.3136  0.0719
   52SOL    HW1  206   0.782   1.878   0.417  2.8777 -1.2688 -0.5306
   52SOL    HW2  207   0.826   1.798   0.294  1.5292  2.6496  1.6658
   52SOL     MW  208   0.800   1.803   0.379  0.7999  0.4130  0.2027
   53SOL     OW  209   0.504   2.134   0.594  0.0280  0.5028  0.2300
   53SOL    HW1  210   0.431   2.083   0.554 -0.2475  2.2688 -0.4851
   53SOL    HW2  211   0.511   2.230   0.576  0.3646  3.2347 -1.7466
   53SOL     MW  212   0.495   2.140   0.586  0.0361  1.0962 -0.1251
   54SOL     OW  213   2.182   0.814   0.854  0.4418  0.1694  0.4005
   54SOL    HW1  214   2.244   0.824   0.784 -0.0090  2.8117  1.8049
   54SOL    HW2  215   2.096   0.805   0.814 -2.4804 -0.4713  1.2529
   54SOL     MW  216   2.179   0.814   0.839 -0.0033  0.4335  0.6983
   55SOL     OW  217   0.559   1.491   1.575  0.5646 -0.1558  0.3044
   55SOL    HW1  218   0.518   1.539   1.502 -0.0601 -0.9526 -0.6642
   55SOL    HW2  219   0.645   1.466   1.541  2.6402  0.3254 -3.0093
   55SOL     MW  220   0.565   1.494   1.561  0.7560 -0.1974 -0.2606
   56SOL     OW  221   0.559   0.767   0.087  0.0079 -0.5097 -0.0773
   56SOL    HW1  222   0.563   0.860   0.070  0.3842 -2.6100  1.9404
   56SOL    HW2  223   0.469   0.751   0.085  0.7333 -2.0521  0.2896
   56SOL     MW  224   0.548   0.777   0.085  0.1533 -0.9903  0.2373
   57SOL     OW  225   1.255   1.227   1.209 -0.0883 -0.4295 -0.3743
   57SOL    HW1  226   1.335   1.253   1.159 -1.8927  0.7818  0.3181
   57SOL    HW2  227   1.277   1.226   1.300  1.9381  4.0622 -1.7361
   57SOL     MW  228   1.268   1.230   1.214 -0.0590  0.3230 -0.4626
   58SOL     OW  229   0.582   1.134   1.284 -0.5102  0.6406 -0.3355
   58SOL    HW1  230   0.550   1.218   1.250 -0.3185  1.9100  1.0480
   58SOL    HW2  231   0.569   1.144   1.375 -1.9646 -0.3105 -0.1891
   58SOL     MW  232   0.576   1.146   1.291 -0.6768  0.6826 -0.1336
   59SOL     OW  233   1.585   1.630   0.374 -0.0584  0.2845  0.2034
   59SOL    HW1  234   1.626   1.667   0.455 -3.3816  1.0220 -0.1086
   59SOL    HW2  235   1.491   1.629   0.390  0.1307 -0.0806 -1.4883
   59SOL     MW  236   1.578   1.634   0.387 -0.4719  0.3337 -0.0610
   60SOL     OW  237   0.050   0.213   1.699  0.5979 -0.1325  0.1531
   60SOL    HW1  238  -0.036   0.247   1.692  0.7201  1.4399  0.6977
   60SOL    HW2  239   0.055   0.139   1.760  2.3129 -0.1512  2.2941
   60SOL     MW  240   0.040   0.208   1.706  0.8403  0.0725  0.5074
   61SOL     OW  241   2.039   1.444  -0.000 -0.2244  0.4107 -0.1980
   61SOL    HW1  242   2.047   1.418   0.095  1.1679  0.0579  0.5876
   61SOL    HW2  243   2.099   1.383  -0.045  3.3881  1.7791 -2.6237
   61SOL     MW  244   2.048   1.433   0.006  0.4360  0.5447 -0.4144
   62SOL     OW  245   0.660   1.674   0.624 -0.1993  0.5378 -0.2686
   62SOL    HW1  246   0.705   1.689   0.546 -2.3835 -0.3381  4.4254
   62SOL    HW2  247   0.639   1.577   0.625 -0.6151 -0.3737  0.4622
   62SOL     MW  248   0.663   1.663   0.614 -0.5423  0.3020  0.4472
   63SOL     OW  249   1.660   0.745   0.714 -0.1577  0.1506 -0.0051
   63SOL    HW1  250   1.642   0.805   0.641  0.5219 -1.8123  0.1239
   63SOL    HW2  251   1.577   0.705   0.743  0.2291 -1.9265  0.8407
   63SOL     MW  252   1.647   0.747   0.708 -0.0170 -0.3825  0.1235
   64SOL     OW  253   0.262   1.697   0.744 -0.0088 -0.0231 -0.5484
   64SOL    HW1  254   0.320   1.768   0.724 -0.4609  1.4739 -0.2382
   64SOL    HW2  255   0.204   1.730   0.809  2.4079 -0.8917 -3.9536
   64SOL     MW  256   0.262   1.711   0.750  0.2504  0.0598 -0.9567
   65SOL     OW  257   1.540   2.322   0.371 -0.4040  0.5406  0.4189
   65SOL    HW1  258   1.624   2.279   0.385 -0.0927 -0.9235 -0.0124
   65SOL    HW2  259   1.527   2.371   0.456 -1.0197 -1.3115 -2.7863
   65SOL     MW  260   1.549   2.323   0.384 -0.4442  0.1031 -0.0609
   66SOL     OW  261   0.312   0.511   0.523 -0.7297 -0.2688  0.1217
   66SOL    HW1  262   0.369   0.458   0.470 -2.2788 -1.5987  2.8331
   66SOL    HW2  263   0.317   0.597   0.476 -2.4678  1.5299 -1.6337
   66SOL     MW  264   0.320   0.515   0.510 -1.1634 -0.2069  0.2478
   67SOL     OW  265   1.465   0.107   2.045 -0.1143 -0.1089  0.1144
   67SOL    HW1  266   1.500   0.152   1.969 -0.0178 -0.9486  1.1094
   67SOL    HW2  267   1.411   0.031   2.018  1.8171  1.7588  0.8082
   67SOL     MW  268   1.463   0.103   2.032  0.1532  0.0267  0.3372
   68SOL     OW  269   0.626   0.085   2.979 -0.4827  0.0781  0.9450
   68SOL    HW1  270   0.623   0.117   2.885 -2.0745  1.5759  0.4845
   68SOL    HW2  271   0.653   0.164   3.032  3.3537 -0.3688 -0.3234
   68SOL     MW  272   0.629   0.100   2.974 -0.1866  0.2168  0.7169
   69SOL     OW  273   0.992   0.200   1.958 -0.3293 -0.0336  0.5055
   69SOL    HW1  274   1.086   0.223   1.974  0.2120 -2.0934 -1.0693
   69SOL    HW2  275   0.983   0.109   1.999 -1.0372  1.0324 -1.5179
   69SOL     MW  276   1.003   0.191   1.966 -0.3513 -0.1647  0.0308
   70SOL     OW  277   0.572   1.782   1.124  0.0573 -0.5975  0.1129
   70SOL    HW1  278   0.598   1.696   1.167 -2.1426 -0.6178 -0.1856
   70SOL    HW2  279   0.619   1.797   1.044  1.6475  1.6218 -2.0033
   70SOL     MW  280   0.582   1.772   1.119 -0.0232 -0.3074 -0.2057
   71SOL     OW  281   1.713   0.612   1.325  0.1770 -0.4740  0.3928
   71SOL    HW1  282   1.705   0.681   1.396  1.0637  2.7399  0.3446
   71SOL    HW2  283   1.626   0.597   1.283  0.0636  0.9705  0.0915
   71SOL     MW  284   1.701   0.619   1.329  0.2791  0.1407  0.3467
   72SOL     OW  285   0.809   1.762   0.973 -0.7049 -0.0960  0.3489
   72SOL    HW1  286   0.786   1.809   0.887 -2.3943 -0.7050 -2.3547
   72SOL    HW2  287   0.772   1.673   0.978  0.1697  0.0598  0.0837
   72SOL     MW  288   0.801   1.756   0.962 -0.8124 -0.1558 -0.0428
   73SOL     OW  289   1.209   0.709   1.349  0.2409 -0.3238  0.1601
   73SOL    HW1  290   1.159   0.626   1.352  2.1530 -1.2626  0.6923
   73SOL    HW2  291   1.141   0.773   1.375 -0.1108 -0.2247  0.0704
   73SOL     MW  292   1.193   0.706   1.352  0.4467 -0.4346  0.2185
   74SOL     OW  293   2.887   0.195   0.987 -0.2080  0.1785 -0.7155
   74SOL    HW1  294   2.880   0.170   0.897  1.5964  2.1278  0.5061
   74SOL    HW2  295   2.816   0.259   0.993  1.8893  2.1317  0.8881
   74SOL     MW  296   2.877   0.200   0.976  0.3068  0.6934 -0.3428
   75SOL     OW  297   1.607   1.368   0.136  0.2567  1.1762  0.3199
   75SOL    HW1  298   1.674   1.379   0.204  1.2839  1.2328 -2.8089
   75SOL    HW2  299   1.640   1.285   0.093  0.9087 -1.3530  1.7769
   75SOL     MW  300   1.620   1.358   0.139  0.4782  0.8500  0.0993
   76SOL     OW  301   3.015   0.639   0.444  0.5586 -0.2996 -0.5048
   76SOL    HW1  302   3.041   0.666   0.529 -1.0534  1.0879 -0.7119
   76SOL    HW2  303   3.055   0.552   0.429 -1.0391  0.2875 -1.2308
   76SOL     MW  304   3.024   0.631   0.453  0.1351 -0.0391 -0.6279
   77SOL     OW  305   0.830   0.522   0.435 -0.1393  0.3545 -0.5220
   77SOL    HW1  306   0.792   0.526   0.347  1.3081  2.2293 -0.4817
   77SOL    HW2  307   0.774   0.460   0.481 -0.5307  1.8621 -2.4470
   77SOL     MW  308   0.817   0.515   0.430  0.0000  0.8008 -0.7707
   78SOL     OW  309   0.737   0.803   1.233  0.1628  0.3550  0.2267
   78SOL    HW1  310   0.649   0.819   1.193  2.9328 -1.2470 -0.0096
   78SOL    HW2  311   0.792   0.873   1.198 -0.6500  0.9668 -2.2470
   78SOL     MW  312   0.733   0.814   1.224  0.4210  0.2243 -0.1308
   79SOL     OW  313   1.927   1.708   0.615  0.3041  0.0818  0.3647
   79SOL    HW1  314   1.862   1.642   0.596 -1.0822 -1.8095 -0.7740
   79SOL    HW2  315   1.929   1.703   0.708  2.9569  1.1208 -1.8417
   79SOL     MW  316   1.919   1.699   0.625  0.4712 -0.0306 -0.0767
   80SOL     OW  317   0.146   1.019   0.314 -0.4370 -0.1657  0.0159
   80SOL    HW1  318   0.053   0.992   0.331 -1.1495 -2.2176 -0.1620
   80SOL    HW2  319   0.188   0.931   0.336 -0.0687 -3.1537 -1.5463
   80SOL     MW  320   0.139   1.004   0.319 -0.4824 -0.8307 -0.2137
   81SOL     OW  321   1.916   1.928   0.201  0.5497  0.3286  0.0989
   81SOL    HW1  322   1.863   1.854   0.167  0.3106 -1.4278 -1.2305
   81SOL    HW2  323   1.843   1.993   0.221 -0.6072 -2.8220  0.8852
   81SOL     MW  324   1.899   1.927   0.199  0.3656 -0.3189  0.0272
   82SOL     OW  325   0.813   1.051   0.533  0.4266 -0.0590  0.0262
   82SOL    HW1  326   0.840   1.077   0.451 -0.3183  0.6654 -0.7096
   82SOL    HW2  327   0.800   0.961   0.522 -0.6502 -0.9420  0.6016
   82SOL     MW  328   0.815   1.043   0.520  0.1862 -0.0799  0.0050
   83SOL     OW  329   0.208   0.596   1.307  0.3347 -0.1305 -0.5409
   83SOL    HW1  330   0.155   0.671   1.320 -0.8896  1.1608  2.0704
   83SOL    HW2  331   0.259   0.581   1.389 -0.3145 -1.2693  1.0556
   83SOL     MW  332   0.208   0.604   1.319  0.0875 -0.1104  0.0143
   84SOL     OW  333   0.072   0.207   0.895 -0.0055 -0.2332 -0.1816
   84SOL    HW1  334  -0.010   0.261   0.877 -2.3820 -2.6365  0.4478
   84SOL    HW2  335   0.056   0.164   0.981 -1.2081 -0.2256  0.5759
   84SOL     MW  336   0.059   0.208   0.904 -0.4777 -0.5493  0.0014
   85SOL     OW  337   0.456   0.455   0.752  0.9843  0.2841  0.3320
   85SOL    HW1  338   0.467   0.504   0.668 -1.1654  0.0101  1.7659
   85SOL    HW2  339   0.396   0.378   0.742 -3.1058 -0.2109  1.4619
   85SOL     MW  340   0.450   0.451   0.740  0.1610  0.1826  0.6703
   86SOL     OW  341   1.234   0.386   1.054 -0.0264 -0.1297 -0.0544
   86SOL    HW1  342   1.182   0.469   1.046  0.7566  0.4143  0.5011
   86SOL    HW2  343   1.301   0.399   1.124  1.7337 -0.1921 -0.3135
   86SOL     MW  344   1.236   0.399   1.062  0.3091 -0.0662 -0.0153
   87SOL     OW  345   1.183   1.481   1.231 -0.3311 -0.2213  0.6789
   87SOL    HW1  346   1.167   1.522   1.148 -0.6957 -0.7282  0.6474
   87SOL    HW2  347   1.199   1.386   1.210 -1.5550  1.1772  1.0500
   87SOL     MW  348   1.183   1.474   1.217 -0.5407 -0.1037  0.7237
   88SOL     OW  349   1.233   1.012   1.047 -0.5270  0.0013 -0.1781
   88SOL    HW1  350   1.329   1.010   1.027 -0.6368 -1.1265 -0.1797
   88SOL    HW2  351   1.236   1.086   1.114  0.3718  1.0044 -0.8952
   88SOL     MW  352   1.246   1.022   1.053 -0.4229 -0.0152 -0.2729
   89SOL     OW  353   1.772   0.668   0.320 -0.1465  0.0213 -0.7748
   89SOL    HW1  354   1.819   0.582   0.341  4.3356 -0.9740 -1.2504
   89SOL    HW2  355   1.843   0.721   0.279  0.0484  2.2160  2.3645
   89SOL     MW  356   1.787   0.664   0.318  0.4706  0.1796 -0.4233
   90SOL     OW  357   0.676   1.178   2.813 -0.1436 -0.3994  0.6179
   90SOL    HW1  358   0.744   1.120   2.842 -3.7165  1.7868  3.5980
   90SOL    HW2  359   0.686   1.241   2.878 -2.4374  1.1547 -0.2794
   90SOL     MW  360   0.686   1.179   2.826 -0.9177  0.0941  0.8927
   91SOL     OW  361   2.213   0.700   0.560  0.4953 -0.1928 -0.4071
   91SOL    HW1  362   2.150   0.755   0.520  1.5561 -2.4384 -2.3588
   91SOL    HW2  363   2.197   0.619   0.509  1.6001 -0.8894 -0.7775
   91SOL     MW  364   2.203   0.696   0.548  0.7810 -0.5810 -0.7135
   92SOL     OW  365   1.637   0.870   0.444 -0.3055  0.5705  0.0443
   92SOL    HW1  366   1.542   0.858   0.462  2.0771  0.8587  1.4083
   92SOL    HW2  367   1.669   0.785   0.407 -0.6981 -0.1493  1.1161
   92SOL     MW  368   1.629   0.857   0.441 -0.0430  0.5135  0.3657
   93SOL     OW  369   1.040   0.310   0.352 -0.1156 -0.1456  0.1809
   93SOL    HW1  370   0.955   0.354   0.351 -0.1821 -0.2471  1.8344
   93SOL    HW2  371   1.089   0.336   0.273  0.2993  0.1477 -1.6909
   93SOL     MW  372   1.035   0.319   0.342 -0.0697 -0.1203  0.1521
   94SOL     OW  373   1.920   1.341   1.581 -0.1407  0.0278 -0.0390
   94SOL    HW1  374   1.907   1.343   1.485 -0.7027  1.3561 -0.2499
   94SOL    HW2  375   1.894   1.248   1.611  2.5562  1.6010  1.0743
   94SOL     MW  376   1.915   1.329   1.572  0.1410  0.4106  0.0801
   95SOL     OW  377   0.719   1.510   0.952 -0.0138 -0.2805  0.5397
   95SOL    HW1  378   0.791   1.462   0.999 -0.8806  0.4739  2.3646
   95SOL    HW2  379   0.634   1.460   0.955 -0.3566  1.0805 -1.3658
   95SOL     MW  380   0.718   1.497   0.959 -0.1734 -0.0014  0.5291
   96SOL     OW  381   1.214   1.819   1.578  0.4174  0.3465 -0.7049
   96SOL    HW1  382   1.129   1.774   1.608 -2.9094 -0.7109  3.2001
   96SOL    HW2  383   1.254   1.765   1.515 -0.7915 -0.1791 -0.2465
   96SOL     MW  384   1.208   1.806   1.573 -0.1811  0.1377 -0.1292
   97SOL     OW  385   1.206   1.430   0.758  0.2230  0.4842 -0.2185
   97SOL    HW1  386   1.219   1.471   0.847 -0.7568 -1.4857  1.8773
   97SOL    HW2  387   1.143   1.482   0.717  2.5707 -0.6539 -0.8681
   97SOL     MW  388   1.200   1.442   0.765  0.4035  0.0741 -0.0277
   98SOL     OW  389   1.495   1.293   1.063  0.0167 -0.0312  0.1059
   98SOL    HW1  390   1.510   1.354   1.134 -1.1082  0.7998 -3.0019
   98SOL    HW2  391   1.546   1.315   0.987 -0.6962 -0.4651 -0.4446
   98SOL     MW  392   1.504   1.304   1.062 -0.2257  0.0212 -0.3768
   99SOL     OW  393   1.452   0.359   1.295 -0.8405  0.0606 -0.0384
   99SOL    HW1  394   1.494   0.433   1.249 -0.0674  0.4174  0.0064
   99SOL    HW2  395   1.484   0.356   1.383  1.5574 -1.5130  0.0618
   99SOL     MW  396   1.461   0.368   1.301 -0.4221 -0.0999 -0.0192
  100SOL     OW  397   1.015   1.103   1.471  1.0087  0.1833 -0.2427
  100SOL    HW1  398   0.977   1.130   1.555 -1.2261  1.1183 -2.6717
  100SOL    HW2  399   1.000   1.009   1.469 -0.0804  1.1834  1.4350
  100SOL     MW  400   1.008   1.094   1.482  0.5701  0.4386 -0.3418
  101SOL     OW  401   0.568   1.083   0.253 -0.2894 -0.4900  0.1842
  101SOL    HW1  402   0.558   0.994   0.294 -1.4136  0.6421 -0.0956
  101SOL    HW2  403   0.534   1.072   0.163 -1.5505 -0.9722 -1.9248
  101SOL     MW  404   0.562   1.069   0.247 -0.6041 -0.4043 -0.1310
  102SOL     OW  405   2.982   0.654   0.977  0.8597 -0.0019 -0.3151
  102SOL    HW1  406   3.012   0.742   0.997 -3.1559  4.2949  0.4261
  102SOL    HW2  407   3.022   0.598   1.042  0.3206 -2.2114 -1.9987
  102SOL     MW  408   2.991   0.658   0.988  0.2588  0.2735 -0.4394
  103SOL     OW  409   1.678   0.369   1.849  0.5923  0.3252 -0.2025
  103SOL    HW1  410   1.620   0.300   1.827 -0.7011 -3.0281  0.4546
  103SOL    HW2  411   1.755   0.327   1.878 -0.6848 -2.2252  0.3613
  103SOL     MW  412   1.681   0.355   1.850  0.2531 -0.4537 -0.0414
  104SOL     OW  413   0.167   1.817   1.466  0.3440 -0.7808  1.1342
  104SOL    HW1  414   0.171   1.777   1.545 -1.2608 -1.2476  1.0235
  104SOL    HW2  415   0.171   1.739   1.405  1.9964  0.6378 -1.9296
  104SOL     MW  416   0.168   1.801   1.468  0.3503 -0.6553  0.7154
  105SOL     OW  417   0.103   1.236   0.503 -0.3353  0.3742 -0.4164
  105SOL    HW1  418   0.131   1.154   0.450 -0.9277 -0.9254 -0.9839
  105SOL    HW2  419   0.180   1.292   0.515 -2.8141  0.5015  1.2047
  105SOL     MW  420   0.117   1.232   0.498 -0.7405  0.2195 -0.2774
  106SOL     OW  421   0.843   0.310   0.984  0.1810  0.4497  0.0704
  106SOL    HW1  422   0.797   0.392   0.965 -2.0845  1.1162  4.0628
  106SOL    HW2  423   0.918   0.306   0.925 -0.1909  1.2390  1.4082
  106SOL     MW  424   0.847   0.320   0.974 -0.1670  0.6418  0.7737
  107SOL     OW  425   0.820   2.172   2.972 -0.3318 -0.0236  0.3214
  107SOL    HW1  426   0.779   2.095   2.938  1.6795 -0.8036 -1.1363
  107SOL    HW2  427   0.797   2.168   3.065  0.6540  3.1839  0.6652
  107SOL     MW  428   0.811   2.161   2.980  0.0636  0.2967  0.1744
  108SOL     OW  429   1.326   1.598   1.425  0.0596 -0.4808  0.2394
  108SOL    HW1  430   1.265   1.562   1.351  1.5844 -1.2444 -0.7055
  108SOL    HW2  431   1.355   1.520   1.467 -2.8549  0.9163 -2.5756
  108SOL     MW  432   1.322   1.583   1.421 -0.1238 -0.3972 -0.2567
  109SOL     OW  433   1.990   0.777   0.178 -0.0494 -0.4363  0.8128
  109SOL    HW1  434   2.020   0.830   0.098  2.5171 -0.0739 -1.7842
  109SOL    HW2  435   2.074   0.787   0.219 -0.1796  0.6682  1.5843
  109SOL     MW  436   2.005   0.785   0.173  0.2720 -0.2428  0.5719
  110SOL     OW  437   0.478   1.896   0.765 -0.2715  0.4170  0.6981
  110SOL    HW1  438   0.541   1.826   0.726 -0.0930 -2.0941  0.7288
  110SOL    HW2  439   0.513   1.977   0.739  1.6178  0.6890  1.6217
  110SOL     MW  440   0.491   1.898   0.756  0.0014  0.1216  0.8240
  111SOL     OW  441   0.717   0.878   1.498 -0.2078  0.4325  0.7192
  111SOL    HW1  442   0.721   0.857   1.404  2.3746  0.9962  0.3145
  111SOL    HW2  443   0.630   0.852   1.528 -1.6783  0.1532 -0.8525
  111SOL     MW  444   0.706   0.872   1.489 -0.0611  0.4700  0.4584
  112SOL     OW  445   1.313   1.082   1.712 -0.0981 -0.4783  0.1646
  112SOL    HW1  446   1.247   1.142   1.732 -1.1955 -2.6566  1.2715
  112SOL    HW2  447   1.271   0.993   1.722 -0.7615 -2.5169 -1.6967
  112SOL     MW  448   1.299   1.078   1.716 -0.3304 -1.0347  0.0650
  113SOL     OW  449   1.312   3.091   1.738 -0.3008 -0.3054  0.4120
  113SOL    HW1  450   1.313   3.026   1.808  0.4915 -0.7632 -0.7618
  113SOL    HW2  451   1.312   3.044   1.649  0.0515 -0.8497 -1.1742
  113SOL     MW  452   1.312   3.076   1.736 -0.1498 -0.4376  0.0478
  114SOL     OW  453   0.475   2.816   1.926 -0.2429  0.1725  0.4581
  114SOL    HW1  454   0.446   2.880   1.989  1.5401 -1.6627  0.8193
  114SOL    HW2  455   0.434   2.838   1.839  0.3623  1.9522  2.4153
  114SOL     MW  456   0.466   2.828   1.923  0.0722  0.1651  0.7640
  115SOL     OW  457   0.490   0.823   1.117 -0.0615 -0.6179  0.1721
  115SOL    HW1  458   0.490   0.729   1.122 -0.7928 -2.2703 -0.3738
  115SOL    HW2  459   0.437   0.864   1.184  2.3812  1.9403 -1.5480
  115SOL     MW  460   0.483   0.816   1.126  0.1643 -0.4984 -0.1269
  116SOL     OW  461   0.787   1.043   0.967  0.1178 -0.5860 -0.0864
  116SOL    HW1  462   0.835   1.073   0.887  1.7430  0.0613 -1.2790
  116SOL    HW2  463   0.844   1.080   1.033 -0.3955 -1.2255  0.1158
  116SOL     MW  464   0.801   1.052   0.965  0.2645 -0.5850 -0.2171
  117SOL     OW  465   1.220   1.140   0.772 -0.1604  0.4573  0.5573
  117SOL    HW1  466   1.231   1.118   0.865  0.7496  2.9797 -1.2869
  117SOL    HW2  467   1.213   1.234   0.767 -2.0560 -1.5145  1.4321
  117SOL     MW  468   1.220   1.150   0.784 -0.2904  0.5300  0.4294
  118SOL     OW  469   3.061   2.936   1.700 -0.4501 -0.8173  0.1731
  118SOL    HW1  470   3.081   2.970   1.789 -0.2196 -1.7468 -1.5643
  118SOL    HW2  471   2.973   2.965   1.680 -3.1212 -2.1229 -3.1529
  118SOL     MW  472   3.052   2.945   1.709 -0.7721 -1.1122 -0.4950
  119SOL     OW  473   0.484   1.370   1.197 -0.6822  0.0497 -0.1251
  119SOL    HW1  474   0.483   1.358   1.104 -0.8954  1.0976  0.9942
  119SOL    HW2  475   0.400   1.345   1.223  1.1985 -0.6037 -0.7650
  119SOL     MW  476   0.473   1.365   1.188 -0.4622  0.1018 -0.0619
  120SOL     OW  477   0.164   0.701   0.982  0.1681 -0.3152  0.6985
  120SOL    HW1  478   0.210   0.662   1.052 -1.0758  0.1696  0.0935
  120SOL    HW2  479   0.223   0.756   0.939  0.2213 -0.3488  1.9985
  120SOL     MW  480   0.178   0.703   0.985  0.0110 -0.2557  0.7902
  121SOL     OW  481   1.846   1.112   1.708 -0.4016 -0.1479 -0.2836
  121SOL    HW1  482   1.763   1.063   1.713 -0.9262 -1.2360 -0.8879
  121SOL    HW2  483   1.904   1.050   1.673 -0.4428 -0.2357  0.9394
  121SOL     MW  484   1.843   1.098   1.704 -0.4762 -0.3031 -0.2019
  122SOL     OW  485   0.154   0.550   0.741  0.1984  0.3450 -0.0383
  122SOL    HW1  486   0.228   0.537   0.682 -0.0532  2.0257 -0.5343
  122SOL    HW2  487   0.190   0.583   0.823 -1.5451 -1.2712  1.2097
  122SOL     MW  488   0.169   0.553   0.744 -0.0649  0.3535  0.0609
  123SOL     OW  489   1.820   1.093   0.483  0.1209  0.0804  0.1688
  123SOL    HW1  490   1.750   1.023   0.465 -1.7134  1.4694  0.5202
  123SOL    HW2  491   1.859   1.072   0.573 -0.5768 -0.2616 -0.1752
  123SOL     MW  492   1.816   1.081   0.493 -0.2132  0.2185  0.1698
  124SOL     OW  493   0.656   0.561   0.919 -0.2062  0.0814  0.2566
  124SOL    HW1  494   0.586   0.508   0.872  0.0891 -1.6362 -0.9374
  124SOL    HW2  495   0.662   0.643   0.869 -1.6315  1.7683 -2.0047
  124SOL     MW  496   0.647   0.565   0.907 -0.3553  0.0773 -0.1993
  125SOL     OW  497   0.659   1.738   1.694  0.2426  0.1380  0.0073
  125SOL    HW1  498   0.590   1.671   1.693  0.7631  1.8950  1.4055
  125SOL    HW2  499   0.634   1.809   1.628 -0.4365  0.9757 -1.2446
  125SOL     MW  500   0.647   1.739   1.685  0.2216  0.4804  0.0266
  126SOL     OW  501   2.090   1.606   1.954  0.2781  0.0786  0.1657
  126SOL    HW1  502   2.148   1.679   1.929  0.8073  1.1868  1.4106
  126SOL    HW2  503   2.136   1.528   1.984  1.3141 -1.8020  1.6842
  126SOL     MW  504   2.104   1.605   1.955  0.4846 -0.0233  0.5303
  127SOL     OW  505   0.625   0.747   1.880  0.3474  0.2173  0.0752
  127SOL    HW1  506   0.710   0.707   1.910  2.2444 -1.3802  1.8922
  127SOL    HW2  507   0.631   0.837   1.914 -0.1310 -0.6894 -0.2381
  127SOL     MW  508   0.637   0.754   1.888  0.5345 -0.1131  0.2736
  128SOL     OW  509   1.837   0.785   2.871 -0.1586  0.2898 -0.4668
  128SOL    HW1  510   1.823   0.758   2.782 -0.4940 -2.4598  0.4728
  128SOL    HW2  511   1.777   0.867   2.883 -0.8541  1.1027 -0.6133
  128SOL     MW  512   1.827   0.793   2.861 -0.2946  0.0343 -0.3622
  129SOL     OW  513   1.552   0.982   0.186  0.3467 -0.1040  0.5116
  129SOL    HW1  514   1.515   0.901   0.189  1.2121  0.6958 -1.5824
  129SOL    HW2  515   1.602   0.988   0.268 -2.1631 -0.2260  0.7287
  129SOL     MW  516   1.553   0.972   0.197  0.1297 -0.0145  0.2640
  130SOL     OW  517   0.751   1.417   0.407  0.9834  0.0101  0.0930
  130SOL    HW1  518   0.779   1.398   0.499 -2.1469 -0.1063  4.9600
  130SOL    HW2  519   0.819   1.387   0.344  2.7065 -1.6441  0.8004
  130SOL     MW  520   0.764   1.411   0.411  0.7977 -0.2235  0.8285
  131SOL     OW  521   3.016   0.823   0.005 -0.1972 -0.1655 -0.7108
  131SOL    HW1  522   3.030   0.900  -0.056 -0.0242  0.4818 -2.1648
  131SOL    HW2  523   3.106   0.790   0.002  3.9164 -1.7255  1.0564
  131SOL     MW  524   3.029   0.829  -0.003  0.3684 -0.2859 -0.6694
  132SOL     OW  525   2.782   0.138   1.237  0.4861 -0.0739 -0.1936
  132SOL    HW1  526   2.818   0.133   1.150  1.1733 -0.7936  0.7052
  132SOL    HW2  527   2.686   0.144   1.217  0.8893 -2.5812 -1.5519
  132SOL     MW  528   2.774   0.138   1.223  0.6300 -0.4996 -0.2543
  133SOL     OW  529   1.092   0.125   1.716 -0.3395  0.3956 -0.0795
  133SOL    HW1  530   1.173   0.084   1.748 -2.0657 -0.7470  0.6622
  133SOL    HW2  531   1.039   0.137   1.796 -0.7678  1.7493 -0.6587
  133SOL     MW  532   1.096   0.121   1.730 -0.6238  0.4234 -0.0581
  134SOL     OW  533   1.406   2.520   1.432  0.4257  0.1726 -0.0109
  134SOL    HW1  534   1.350   2.593   1.404 -1.8297  1.0680  2.0109
  134SOL    HW2  535   1.434   2.535   1.525  0.3793 -2.1123 -2.1727
  134SOL     MW  536   1.402   2.532   1.440  0.1220 -0.0107 -0.0294
  135SOL     OW  537   3.038   1.009   2.894 -0.3615  0.1552 -0.4621
  135SOL    HW1  538   3.111   1.077   2.903 -2.4367  2.0319  1.0005
  135SOL    HW2  539   2.966   1.062   2.926  3.9211 -0.2705 -0.5740
  135SOL     MW  540   3.038   1.025   2.899 -0.0702  0.3467 -0.2839
  136SOL     OW  541   0.249   2.013   0.837  0.8199 -0.3200  0.2148
  136SOL    HW1  542   0.162   1.970   0.823  0.7357  2.2894  0.2924
  136SOL    HW2  543   0.324   1.976   0.794  2.2604  1.5894  1.4524
  136SOL     MW  544   0.247   2.002   0.829  0.9989  0.2762  0.3883
  137SOL     OW  545   0.764   2.026   0.508 -0.4607  0.3281  0.3357
  137SOL    HW1  546   0.792   1.997   0.593  1.5442  0.3928 -1.7820
  137SOL    HW2  547   0.672   2.050   0.522  0.5637  1.2407  0.1077
  137SOL     MW  548   0.756   2.025   0.521 -0.0610  0.4570  0.0262
  138SOL     OW  549   0.524   0.556   1.170 -0.4197 -0.4547  0.2166
  138SOL    HW1  550   0.434   0.524   1.134  0.7310 -2.5453 -0.2552
  138SOL    HW2  551   0.586   0.545   1.100 -0.5504  1.1825  3.0268
  138SOL     MW  552   0.520   0.550   1.156 -0.2851 -0.5145  0.5251
  139SOL     OW  553   2.676   0.520   1.402 -0.3197 -0.2220  0.4681
  139SOL    HW1  554   2.732   0.444   1.385  1.3412  1.4941 -0.0246
  139SOL    HW2  555   2.729   0.587   1.450  0.1351  0.2509  2.7949
  139SOL     MW  556   2.690   0.519   1.406 -0.0405  0.0669  0.7101
  140SOL     OW  557   0.849   0.398   2.078 -0.0145 -0.4402  0.3120
  140SOL    HW1  558   0.899   0.334   2.019 -0.4251  1.3207 -0.0030
  140SOL    HW2  559   0.904   0.403   2.156 -0.0651 -0.3922 -0.8093
  140SOL     MW  560   0.863   0.390   2.081 -0.0753 -0.2015  0.1225
  141SOL     OW  561   1.065   0.584   1.750  1.1579 -0.4766  0.1175
  141SOL    HW1  562   1.122   0.529   1.702  0.2614  4.6075 -0.0760
  141SOL    HW2  563   1.103   0.673   1.751 -0.6298  3.1889 -0.4321
  141SOL     MW  564   1.078   0.589   1.744  0.8037  0.6778  0.0194
  142SOL     OW  565   0.944   1.098   0.766 -0.3623 -0.3275  0.5832
  142SOL    HW1  566   0.903   1.084   0.675 -2.0386  0.3034  0.3166
  142SOL    HW2  567   1.035   1.076   0.753  1.5968 -0.5650 -0.8599
  142SOL     MW  568   0.950   1.094   0.752 -0.3250 -0.2756  0.3576
  143SOL     OW  569   1.785   0.785   1.108 -0.0438 -0.0998  0.0870
  143SOL    HW1  570   1.794   0.780   1.013  0.5106  1.4844  0.9325
  143SOL    HW2  571   1.728   0.707   1.136 -0.4101 -0.5774 -0.9183
  143SOL     MW  572   1.778   0.774   1.099 -0.0190  0.0462  0.0659
  144SOL     OW  573   0.209   1.227   1.538 -0.7023  0.3188 -0.1991
  144SOL    HW1  574   0.298   1.202   1.509 -0.0267 -0.7298  1.8118
  144SOL    HW2  575   0.227   1.246   1.631 -0.8634  0.6930  1.1082
  144SOL     MW  576   0.223   1.226   1.547 -0.6344  0.2298  0.2387
  145SOL     OW  577   0.306   0.435   1.070  0.3242 -0.0098  0.4742
  145SOL    HW1  578   0.294   0.368   1.143  4.7947  0.9154 -2.0720
  145SOL    HW2  579   0.258   0.398   0.985 -1.6496 -0.5307 -0.7189
  145SOL     MW  580   0.298   0.421   1.068  0.6536  0.0436 -0.0191
  146SOL     OW  581   0.860   1.959   1.387  0.2385 -0.2518 -0.2015
  146SOL    HW1  582   0.902   1.962   1.297  0.1623 -1.6420 -0.0204
  146SOL    HW2  583   0.768   1.950   1.381 -0.0657  3.5782 -0.1758
  146SOL     MW  584   0.853   1.958   1.375  0.1883  0.0701 -0.1742
  147SOL     OW  585   0.377   0.429   2.955 -0.3675 -0.8046 -0.0971
  147SOL    HW1  586   0.309   0.475   3.007 -1.2084  0.1779  0.4953
  147SOL    HW2  587   0.365   0.460   2.865  1.5160  1.2354 -2.1996
  147SOL     MW  588   0.366   0.439   2.950 -0.2299 -0.4058 -0.2964
  148SOL     OW  589   0.083   0.871   1.372  0.5817  0.0561 -0.1374
  148SOL    HW1  590   0.176   0.888   1.339 -1.1083  0.6824 -1.0161
  148SOL    HW2  591   0.074   0.908   1.456  2.2529 -0.0851 -0.5683
  148SOL     MW  592   0.094   0.878   1.379  0.5792  0.1201 -0.3102
  149SOL     OW  593   1.389   1.159   1.455  0.2164  0.6993 -0.5673
  149SOL    HW1  594   1.345   1.154   1.538 -0.8507 -0.1634 -0.7329
  149SOL    HW2  595   1.476   1.187   1.464 -1.1080 -0.4805 -0.5561
  149SOL     MW  596   1.394   1.162   1.467 -0.0992  0.4298 -0.5877
  150SOL     OW  597   1.863   1.346   0.767 -0.0418  0.4818 -0.8806
  150SOL    HW1  598   1.874   1.251   0.769  0.1453  0.5074 -0.1188
  150SOL    HW2  599   1.940   1.383   0.804 -0.7251  1.6029 -1.5790
  150SOL     MW  600   1.874   1.338   0.772 -0.1073  0.6331 -0.8722
  151SOL     OW  601   1.659   1.872   0.852 -0.1950  0.1715  0.2243
  151SOL    HW1  602   1.619   1.879   0.764 -0.2967 -4.4469 -0.0141
  151SOL    HW2  603   1.609   1.808   0.902  3.1527  0.1920 -3.6250
  151SOL     MW  604   1.647   1.864   0.847  0.2332 -0.4351 -0.3151
  152SOL     OW  605   0.780   1.344   1.470 -0.1503  0.0984  0.0823
  152SOL    HW1  606   0.762   1.280   1.531 -1.2199  1.8733 -0.3597
  152SOL    HW2  607   0.876   1.357   1.468  0.5024  0.2283 -1.3153
  152SOL     MW  608   0.790   1.337   1.478 -0.2053  0.3497 -0.1604
  153SOL     OW  609   2.613   1.271   0.749  0.3848  0.0222  0.6642
  153SOL    HW1  610   2.703   1.248   0.718 -2.4260  0.2529 -3.7190
  153SOL    HW2  611   2.555   1.191   0.737  1.2256  3.0685 -2.8173
  153SOL     MW  612   2.617   1.257   0.743  0.1249  0.4545 -0.3734
  154SOL     OW  613   0.374   1.726   1.694 -0.1751 -0.0611  0.5077
  154SOL    HW1  614   0.375   1.679   1.608  0.9705  0.6384 -0.7766
  154SOL    HW2  615   0.377   1.664   1.762 -1.6322  1.6317 -3.4086
  154SOL     MW  616   0.375   1.712   1.692 -0.2162  0.2545 -0.1785
  155SOL     OW  617   1.092   0.643   0.294 -0.0020 -0.1340 -0.1950
  155SOL    HW1  618   1.113   0.627   0.387 -0.8778 -0.9979  0.7381
  155SOL    HW2  619   1.059   0.737   0.296  1.0079  0.6811 -0.0180
  155SOL     MW  620   1.090   0.653   0.306  0.0157 -0.1405 -0.0485
  156SOL     OW  621   1.534   3.015   1.060  0.7334  0.3037  0.2633
  156SOL    HW1  622   1.560   3.107   1.083  0.3371  1.6389  0.4351
  156SOL    HW2  623   1.527   2.970   1.148  0.5509 -1.4891  2.0794
  156SOL     MW  624   1.536   3.021   1.074  0.6570  0.2433  0.5256
  157SOL     OW  625   1.385   1.200   0.131  0.7739 -1.3273  0.1189
  157SOL    HW1  626   1.453   1.134   0.148  0.0541 -0.2386 -2.5941
  157SOL    HW2  627   1.431   1.282   0.134 -0.6379 -1.8052  1.8530
  157SOL     MW  628   1.400   1.202   0.134  0.4927 -1.2467 -0.0102
  158SOL     OW  629   0.468   1.620   2.230 -0.2935  0.9916  0.2140
  158SOL    HW1  630   0.464   1.687   2.162  0.4269  1.0312 -1.5080
  158SOL    HW2  631   0.387   1.642   2.273 -1.0394  0.4161 -0.5910
  158SOL     MW  632   0.457   1.632   2.227 -0.2968  0.9209 -0.1194
  159SOL     OW  633   1.318   1.701   0.466 -0.6307  0.1657  0.0474
  159SOL    HW1  634   1.285   1.641   0.403  0.0744  2.2061  1.0105
  159SOL    HW2  635   1.230   1.727   0.506  2.1686  1.8368 -1.0142
  159SOL     MW  636   1.302   1.696   0.463 -0.1683  0.6554  0.0344
  160SOL     OW  637   0.474   1.126   1.567  0.0499 -0.3348  0.1353
  160SOL    HW1  638   0.486   1.035   1.599  0.2542  1.9923 -0.3853
  160SOL    HW2  639   0.486   1.169   1.657  1.2691 -1.5886  0.4225
  160SOL     MW  640   0.477   1.119   1.583  0.2377 -0.1932  0.1045
  161SOL     OW  641   0.541   2.155   2.639 -0.0765  0.1056 -0.2749
  161SOL    HW1  642   0.452   2.124   2.631  0.4492  2.2905 -2.5893
  161SOL    HW2  643   0.579   2.127   2.558  1.7311 -1.7478  0.6524
  161SOL     MW  644   0.534   2.147   2.627  0.2314  0.1493 -0.4579
  162SOL     OW  645   0.993   1.704   1.739  0.0759  1.0624  0.0798
  162SOL    HW1  646   1.024   1.790   1.786 -0.5082  1.9283  0.5403
  162SOL    HW2  647   0.938   1.670   1.815  0.5606 -0.5116  4.1689
  162SOL     MW  648   0.990   1.711   1.755  0.0628  0.9690  0.6801
  163SOL     OW  649   2.115   0.116   0.980 -0.2891 -0.7601 -0.1257
  163SOL    HW1  650   2.094   0.145   0.894 -2.2369 -0.1142  4.5148
  163SOL    HW2  651   2.045   0.051   1.002  0.9438 -2.3167 -0.3193
  163SOL     MW  652   2.103   0.111   0.971 -0.3834 -0.8803  0.4610
  164SOL     OW  653   0.296   0.211   0.742  0.5835 -0.4151  0.5161
  164SOL    HW1  654   0.207   0.213   0.779 -1.3199 -1.1289  0.4444
  164SOL    HW2  655   0.315   0.119   0.753  0.2232  0.6858  0.4342
  164SOL     MW  656   0.287   0.199   0.748  0.2849 -0.3640  0.4958
  165SOL     OW  657   1.358   1.262   0.411 -0.2486 -0.2647 -0.2502
  165SOL    HW1  658   1.298   1.216   0.476 -2.3142 -2.0419 -1.8975
  165SOL    HW2  659   1.338   1.238   0.322  0.6493  0.2682  2.3518
  165SOL     MW  660   1.348   1.253   0.408 -0.4027 -0.4289 -0.1242
  166SOL     OW  661   0.518   1.032   0.933 -0.3614  0.7431  0.0473
  166SOL    HW1  662   0.503   0.947   0.986  1.3258  0.0974  0.1731
  166SOL    HW2  663   0.612   1.040   0.950 -1.8841  1.4431  1.3114
  166SOL     MW  664   0.528   1.022   0.942 -0.3397  0.7503  0.2307
  167SOL     OW  665   0.837   1.164   0.246  0.0769 -0.3926 -0.4640
  167SOL    HW1  666   0.743   1.153   0.218  0.9832 -0.5420  2.2037
  167SOL    HW2  667   0.886   1.222   0.196 -1.7641 -1.8424  0.0275
  167SOL     MW  668   0.831   1.170   0.236 -0.0464 -0.6036 -0.0471
  168SOL     OW  669   1.687   1.709   2.918 -0.1438 -0.2455  0.2903
  168SOL    HW1  670   1.600   1.729   2.887 -0.3386  0.2411  0.9208
  168SOL    HW2  671   1.690   1.625   2.953 -0.3322  3.3946 -1.8581
  168SOL     MW  672   1.676   1.700   2.918 -0.1943  0.2990  0.0901
  169SOL     OW  673   0.355   0.973   1.305 -0.0656  0.1236 -0.4336
  169SOL    HW1  674   0.393   0.948   1.388 -0.6351  0.1936  1.2250
  169SOL    HW2  675   0.391   1.064   1.301  1.7154 -0.8661  1.1870
  169SOL     MW  676   0.364   0.982   1.315  0.0943  0.0022 -0.0009
  170SOL     OW  677   1.038   1.464   1.495 -0.7927 -0.0593 -0.6536
  170SOL    HW1  678   0.983   1.544   1.492  0.6356 -0.8373 -1.3332
  170SOL    HW2  679   1.075   1.442   1.404 -1.6579  1.8120  2.7791
  170SOL     MW  680   1.036   1.472   1.482 -0.7184  0.0849 -0.2904
  171SOL     OW  681   0.577   1.411   0.690 -0.1479  0.6793  0.2354
  171SOL    HW1  682   0.543   1.370   0.766 -1.7876 -1.1089 -0.4899
  171SOL    HW2  683   0.524   1.373   0.621  1.2980 -0.1558  1.3719
  171SOL     MW  684   0.565   1.400   0.691 -0.1735  0.3332  0.2896
  172SOL     OW  685   0.868   0.319   1.257  0.3994  0.1342  0.6491
  172SOL    HW1  686   0.866   0.336   1.158  0.5896  0.5250 -0.1746
  172SOL    HW2  687   0.773   0.315   1.290 -0.9153  1.6819  2.2081
  172SOL     MW  688   0.855   0.321   1.248  0.2511  0.3900  0.7461
  173SOL     OW  689   0.477   1.673   0.389  0.1725 -0.4533  0.3481
  173SOL    HW1  690   0.487   1.581   0.355 -1.1988 -3.5121 -2.0827
  173SOL    HW2  691   0.488   1.669   0.485  1.4321 -0.9191  1.9212
  173SOL     MW  692   0.480   1.660   0.397  0.1577 -0.9184  0.2349
  174SOL     OW  693   1.979   0.929   1.448 -0.1991  0.8731  0.2291
  174SOL    HW1  694   1.902   0.869   1.476 -0.5821 -2.3244 -2.4304
  174SOL    HW2  695   1.940   0.966   1.371  0.1117  1.3057  0.6658
  174SOL     MW  696   1.963   0.926   1.442 -0.2086  0.5083 -0.0642
  175SOL     OW  697   0.492   1.416   0.323 -0.3915 -0.3884  0.2250
  175SOL    HW1  698   0.479   1.370   0.243  0.6876 -0.2447  0.7081
  175SOL    HW2  699   0.580   1.396   0.351 -2.8473  2.9732 -2.2978
  175SOL     MW  700   0.502   1.407   0.316 -0.5732  0.0741 -0.0441
  176SOL     OW  701   0.239   1.285   1.279  0.1855  0.8135  0.1050
  176SOL    HW1  702   0.172   1.256   1.212 -0.1331  0.8486 -0.9301
  176SOL    HW2  703   0.206   1.286   1.377 -2.6204  0.5300 -1.0976
  176SOL     MW  704   0.226   1.282   1.283 -0.2267  0.7807 -0.1902
  177SOL     OW  705   0.583   0.330   1.310 -0.0277 -0.1688 -0.6223
  177SOL    HW1  706   0.555   0.386   1.237 -1.8482  3.3852  1.0284
  177SOL    HW2  707   0.592   0.390   1.380 -0.1968 -3.6958 -2.0188
  177SOL     MW  708   0.580   0.345   1.310 -0.2902 -0.1653 -0.5887
  178SOL     OW  709   3.052   0.402   2.905 -0.2751 -0.3500 -0.5853
  178SOL    HW1  710   3.008   0.441   2.985 -1.4462 -0.3538 -0.9647
  178SOL    HW2  711   2.983   0.413   2.841  2.6605  0.8671  1.1253
  178SOL     MW  712   3.037   0.409   2.907 -0.0423 -0.1899 -0.4097
  179SOL     OW  713   1.638   1.320   1.441 -0.4521  0.2458  0.1915
  179SOL    HW1  714   1.660   1.402   1.491 -0.1306 -0.9244  0.6725
  179SOL    HW2  715   1.721   1.303   1.392  2.5268 -0.5139 -0.5938
  179SOL     MW  716   1.652   1.329   1.441 -0.0167 -0.0088  0.1513
  180SOL     OW  717   2.988   0.180   0.434 -0.5353 -0.1466 -0.1116
  180SOL    HW1  718   2.945   0.214   0.355  1.0206  1.2437  1.2494
  180SOL    HW2  719   3.049   0.258   0.451  2.1550  1.0380 -0.0132
  180SOL     MW  720   2.991   0.195   0.426  0.0249  0.1931  0.0810
  181SOL     OW  721   1.153   1.450   3.028 -0.1313 -0.4001  0.5593
  181SOL    HW1  722   1.233   1.485   3.067 -0.5173  0.3445 -1.8101
  181SOL    HW2  723   1.192   1.390   2.961  1.0060  0.3665 -0.0888
  181SOL     MW  724   1.169   1.447   3.024 -0.0322 -0.2007  0.1612
  182SOL     OW  725   0.482   0.853   1.658  0.4050  0.3025 -0.1891
  182SOL    HW1  726   0.400   0.816   1.689  1.8886 -1.5103 -1.2328
  182SOL    HW2  727   0.546   0.803   1.712  2.3469  1.6990 -0.5798
  182SOL     MW  728   0.479   0.841   1.669  0.8570  0.2476 -0.3783
  183SOL     OW  729   1.535   1.484   1.240 -0.8911  0.2788 -0.1481
  183SOL    HW1  730   1.454   1.516   1.285  0.4493  0.4215  0.6185
  183SOL    HW2  731   1.578   1.430   1.305  0.9755  0.4497 -0.0944
  183SOL     MW  732   1.530   1.481   1.255 -0.4679  0.3202 -0.0399
  184SOL     OW  733   0.860   0.627   1.952  0.2909 -0.2211  0.4325
  184SOL    HW1  734   0.920   0.607   1.879 -1.1022  1.1055 -1.3044
  184SOL    HW2  735   0.836   0.547   1.995 -2.8273  3.9885  0.8023
  184SOL     MW  736   0.865   0.614   1.948 -0.3043  0.5094  0.2521
  185SOL     OW  737   1.201   0.936   1.971  0.2006 -0.1912 -0.5511
  185SOL    HW1  738   1.216   0.852   2.011 -0.0243  1.1427 -0.5267
  185SOL    HW2  739   1.224   1.001   2.035 -1.1710  2.5762  1.7006
  185SOL     MW  740   1.206   0.933   1.984 -0.0100  0.3500 -0.2508
  186SOL     OW  741   0.414   1.654   1.407 -0.4528  0.1140 -0.1082
  186SOL    HW1  742   0.446   1.735   1.364  4.4517  0.3006  1.4482
  186SOL    HW2  743   0.350   1.620   1.350  2.1628 -0.0077 -1.9424
  186SOL     MW  744   0.409   1.661   1.394  0.5394  0.1225 -0.1449
  187SOL     OW  745   1.459   0.752   1.466 -0.4775  0.2736 -0.5936
  187SOL    HW1  746   1.454   0.714   1.553 -2.4702  1.3362 -1.6135
  187SOL    HW2  747   1.371   0.746   1.430  0.3471  2.0724  0.6209
  187SOL     MW  748   1.447   0.746   1.473 -0.6316  0.6511 -0.5679
  188SOL     OW  749   1.888   1.056   0.744  0.2596  0.2299  0.9847
  188SOL    HW1  750   1.862   0.971   0.768 -3.0787  2.6498  0.3091
  188SOL    HW2  751   1.982   1.052   0.766  1.8970 -1.0643  0.8938
  188SOL     MW  752   1.897   1.044   0.750  0.0352  0.3784  0.8836
  189SOL     OW  753   0.707   0.828   0.790  0.8652 -0.8111 -0.6384
  189SOL    HW1  754   0.630   0.871   0.747  0.2537 -0.8800  1.1820
  189SOL    HW2  755   0.738   0.898   0.852  2.0610  3.2973 -0.4912
  189SOL     MW  756   0.701   0.843   0.793  0.9423 -0.2781 -0.3788
  190SOL     OW  757   1.874   0.217   2.022 -0.0255 -0.1803  0.2112
  190SOL    HW1  758   1.903   0.128   2.046 -0.0496 -3.1577  2.4212
  190SOL    HW2  759   1.959   0.261   2.027  2.8311 -1.4603 -0.8708
  190SOL     MW  760   1.889   0.211   2.026  0.3482 -0.7420  0.3600
  191SOL     OW  761   1.515   0.972   1.284 -0.0425 -0.5630 -0.6219
  191SOL    HW1  762   1.471   1.028   1.350 -1.8956  0.1799 -1.8465
  191SOL    HW2  763   1.513   0.889   1.333  0.8887 -0.4243 -0.0980
  191SOL     MW  764   1.509   0.969   1.299 -0.1642 -0.4467 -0.7143
  192SOL     OW  765   0.666   1.994   2.832 -0.7511  0.6651 -0.3700
  192SOL    HW1  766   0.636   2.056   2.768  1.7884 -1.2445  2.3912
  192SOL    HW2  767   0.608   1.915   2.814 -0.8859  2.4860 -1.3399
  192SOL     MW  768   0.654   1.992   2.821 -0.4338  0.6534 -0.1337
  193SOL     OW  769   0.974   1.635   0.746  0.4084 -0.3962 -0.9227
  193SOL    HW1  770   0.979   1.643   0.842  2.3187  0.5775  2.5871
  193SOL    HW2  771   0.922   1.559   0.719  2.1714 -0.0950 -0.5838
  193SOL     MW  772   0.968   1.626   0.755  0.8931 -0.2280 -0.4149
  194SOL     OW  773   0.504   1.313   0.949  0.7957 -0.0955  0.0121
  194SOL    HW1  774   0.501   1.218   0.948  0.0742  3.9073  0.0325
  194SOL    HW2  775   0.419   1.342   0.925  3.2818  0.9334 -0.2060
  194SOL     MW  776   0.492   1.304   0.946  1.0285  0.5684 -0.0140
  195SOL     OW  777   1.297   1.090   2.961  0.0027 -0.2058 -0.2274
  195SOL    HW1  778   1.330   1.122   3.050 -0.5181  0.4426  1.0332
  195SOL    HW2  779   1.203   1.086   2.970 -1.4167 -0.2202 -0.5014
  195SOL     MW  780   1.289   1.094   2.974 -0.2533 -0.1221 -0.0972
  196SOL     OW  781   2.197   1.079   0.621 -0.1858 -0.2792 -0.0597
  196SOL    HW1  782   2.152   1.034   0.549  0.4926 -1.1282  1.2912
  196SOL    HW2  783   2.168   1.171   0.622 -1.4725 -0.2926  0.5757
  196SOL     MW  784   2.187   1.085   0.611 -0.2660 -0.3929  0.2023
  197SOL     OW  785   0.628   1.269   2.029  0.4481  0.5051 -0.3710
  197SOL    HW1  786   0.659   1.179   2.009 -0.2407  3.2941  0.2674
  197SOL    HW2  787   0.597   1.294   1.943 -1.9075  1.5383 -0.9542
  197SOL     MW  788   0.628   1.261   2.015  0.0464  1.0094 -0.3637
  198SOL     OW  789   2.942   1.480   1.033  0.1931 -0.0620  0.7477
  198SOL    HW1  790   2.918   1.576   1.012 -1.6618  1.3372  0.0516
  198SOL    HW2  791   2.860   1.440   1.018  0.3094 -0.8709  0.3808
  198SOL     MW  792   2.928   1.487   1.028 -0.0363  0.0159  0.6075
  199SOL     OW  793   0.505   1.303   1.781 -0.0195  0.1093  0.9201
  199SOL    HW1  794   0.412   1.312   1.792 -0.3542 -0.0198  0.9780
  199SOL    HW2  795   0.536   1.364   1.707  0.2129  1.4162  1.8725
  199SOL     MW  796   0.497   1.312   1.772 -0.0330  0.2647  1.0534
  200SOL     OW  797   1.904   3.099   1.350  0.0618 -0.2197  0.4068
  200SOL    HW1  798   1.916   3.091   1.256  3.7204  2.2226  1.6292
  200SOL    HW2  799   1.814   3.083   1.375  1.8528 -0.2802 -0.3423
  200SOL     MW  800   1.894   3.096   1.341  0.7808  0.0945  0.4693
  201SOL     OW  801   1.068   0.277   0.803 -0.3353 -0.6476 -0.1822
  201SOL    HW1  802   1.035   0.190   0.783 -2.9486 -0.9515 -1.4389
  201SOL    HW2  803   1.119   0.297   0.717  1.6572  1.6314 -0.1789
  201SOL     MW  804   1.071   0.268   0.789 -0.4172 -0.3870 -0.3476
  202SOL     OW  805   1.542   1.673   1.040  0.2067  0.2057 -0.3942
  202SOL    HW1  806   1.567   1.595   0.981 -1.5236 -0.7895  0.3421
  202SOL    HW2  807   1.550   1.632   1.126 -0.3538 -0.2388 -1.1139
  202SOL     MW  808   1.546   1.657   1.043 -0.0955  0.0158 -0.3920
  203SOL     OW  809   3.092   0.479   1.161 -0.1964 -0.1912 -0.2312
  203SOL    HW1  810   3.123   0.402   1.111  0.4620 -2.3832 -0.4060
  203SOL    HW2  811   3.175   0.508   1.207 -0.1990  0.6221 -1.3504
  203SOL     MW  812   3.107   0.472   1.161 -0.1099 -0.3731 -0.4019
  204SOL     OW  813   1.050   1.786   0.529 -0.2419 -0.0761  0.3068
  204SOL    HW1  814   1.008   1.736   0.600  1.6589 -0.2789 -0.5394
  204SOL    HW2  815   0.983   1.775   0.464 -0.2157 -0.7372  0.0266
  204SOL     MW  816   1.036   1.778   0.530  0.0124 -0.1901  0.1582
  205SOL     OW  817   1.358   0.096   1.346  0.1125 -0.3482  0.1452
  205SOL    HW1  818   1.307   0.095   1.267  0.6241  4.7403  0.6151
  205SOL    HW2  819   1.376   0.187   1.343 -0.8079 -1.3619  1.1422
  205SOL     MW  820   1.354   0.108   1.335  0.0586  0.1894  0.3387
  206SOL     OW  821   0.415   3.087   1.423 -0.1107 -0.1934  0.3584
  206SOL    HW1  822   0.338   3.075   1.377  0.2935 -0.8932  0.4835
  206SOL    HW2  823   0.481   3.015   1.417  1.0381  2.4384 -0.2257
  206SOL     MW  824   0.414   3.076   1.416  0.0942  0.0615  0.2978
  207SOL     OW  825   0.960   1.506   0.202  0.5042  0.3298  0.0179
  207SOL    HW1  826   0.959   1.600   0.202  2.3006 -0.8510 -0.5796
  207SOL    HW2  827   1.040   1.481   0.235 -0.9630  0.8037 -2.8041
  207SOL     MW  828   0.970   1.515   0.206  0.5476  0.2365 -0.4333
  208SOL     OW  829   0.697   1.582   1.290 -0.1007 -0.0327  0.5612
  208SOL    HW1  830   0.766   1.617   1.355  3.3699  0.7204  0.2283
  208SOL    HW2  831   0.670   1.493   1.312 -0.5450 -1.3275  1.6793
  208SOL     MW  832   0.703   1.575   1.302  0.2986 -0.1042  0.6648
  209SOL     OW  833   1.560   0.540   2.836  0.2483  0.0870  0.3586
  209SOL    HW1  834   1.620   0.607   2.866 -0.2363 -0.5538 -0.8037
  209SOL    HW2  835   1.621   0.456   2.836 -1.5642  1.6884  0.1712
  209SOL     MW  836   1.576   0.538   2.840 -0.0548  0.2137  0.1805
  210SOL     OW  837   1.622   1.446   0.873  0.2863 -0.1186 -0.0621
  210SOL    HW1  838   1.710   1.421   0.851 -0.1237  1.0544 -2.6904
  210SOL    HW2  839   1.566   1.438   0.791  0.3450 -0.8467 -2.0435
  210SOL     MW  840   1.626   1.442   0.860  0.2399 -0.0599 -0.6703
  211SOL     OW  841   1.703   0.395   0.939 -0.6166 -1.2301  0.3719
  211SOL    HW1  842   1.694   0.411   0.847 -1.5246  1.5891  3.4571
  211SOL    HW2  843   1.791   0.431   0.961  1.5471  0.2646  0.3714
  211SOL     MW  844   1.714   0.402   0.930 -0.4510 -0.6609  0.7789
  212SOL     OW  845   0.237   1.129   0.087  0.0744 -0.4525 -0.2814
  212SOL    HW1  846   0.199   1.089   0.169  2.8205  0.4063  0.4426
  212SOL    HW2  847   0.304   1.066   0.063  0.5158  0.9030 -0.0796
  212SOL     MW  848   0.241   1.115   0.095  0.4949 -0.1604 -0.1592
  213SOL     OW  849   0.402   1.765   3.033 -0.4268  0.1574 -0.0064
  213SOL    HW1  850   0.455   1.785   3.109  1.0377  1.3132 -1.6939
  213SOL    HW2  851   0.459   1.777   2.956 -0.3498  1.3071 -0.6579
  213SOL     MW  852   0.417   1.769   3.033 -0.2234  0.4616 -0.3150
  214SOL     OW  853   0.622   0.284   2.240 -0.0520  0.4483 -0.2410
  214SOL    HW1  854   0.558   0.350   2.202 -1.3649  2.5239 -0.4804
  214SOL    HW2  855   0.692   0.281   2.176  2.8441 -3.3698 -0.9876
  214SOL     MW  856   0.623   0.293   2.226  0.1569  0.2184 -0.3711
  215SOL     OW  857   0.462   0.697   2.619 -0.3026 -0.2145  0.6708
  215SOL    HW1  858   0.477   0.651   2.535  4.5623  0.0084 -0.3487
  215SOL    HW2  859   0.387   0.643   2.656 -1.5704 -3.3968 -0.0536
  215SOL     MW  860   0.454   0.684   2.613  0.1720 -0.6049  0.4407
  216SOL     OW  861   3.041   3.035   2.661 -0.0041 -0.2854 -0.9153
  216SOL    HW1  862   2.983   3.030   2.744 -0.1290 -0.7245 -2.1502
  216SOL    HW2  863   3.025   3.131   2.644 -1.6651  0.4099  5.3324
  216SOL     MW  864   3.031   3.047   2.670 -0.2398 -0.2516 -0.2539
  217SOL     OW  865   0.961   1.268   0.030  0.0237 -0.5019 -0.1552
  217SOL    HW1  866   0.965   1.181  -0.008 -0.8825  0.8525  1.0446
  217SOL    HW2  867   1.033   1.319   0.004 -1.3286  0.4910 -0.3044
  217SOL     MW  868   0.971   1.264   0.021 -0.2743 -0.1922 -0.0166
  218SOL     OW  869   0.903   1.328   2.535  0.0566 -0.1301 -0.3651
  218SOL    HW1  870   0.921   1.240   2.561 -2.3076  1.6681 -1.8373
  218SOL    HW2  871   0.980   1.371   2.555 -1.0067  0.9352 -1.2834
  218SOL     MW  872   0.915   1.322   2.541 -0.3956  0.2477 -0.6805
  219SOL     OW  873   1.062   0.463   2.519  0.3629 -0.0007  0.1976
  219SOL    HW1  874   1.107   0.466   2.604  1.0896 -0.6839 -1.0047
  219SOL    HW2  875   1.002   0.540   2.520  0.0257 -1.8117  0.3837
  219SOL     MW  876   1.060   0.473   2.531  0.4143 -0.3298  0.0635
  220SOL     OW  877   1.790   0.428   2.188 -0.6007 -0.3781 -0.1169
  220SOL    HW1  878   1.721   0.472   2.139  1.0914 -3.5148 -0.4223
  220SOL    HW2  879   1.799   0.350   2.137 -1.0785  0.2833 -0.2330
  220SOL     MW  880   1.782   0.423   2.175 -0.4405 -0.7047 -0.1725
  221SOL     OW  881   0.357   1.327   2.887 -0.3542 -0.2202 -0.2402
  221SOL    HW1  882   0.391   1.243   2.855  0.1076  1.4002 -2.4541
  221SOL    HW2  883   0.346   1.363   2.800  1.1423 -0.4325 -2.1448
  221SOL     MW  884   0.360   1.321   2.871 -0.0958 -0.0344 -0.7836
  222SOL     OW  885   0.277   0.904   2.630  0.0676 -0.6448  1.0696
  222SOL    HW1  886   0.285   0.928   2.538  1.9831 -0.7351 -0.6821
  222SOL    HW2  887   0.339   0.834   2.642  0.6376  1.6012  2.3666
  222SOL     MW  888   0.286   0.898   2.619  0.3956 -0.3604  1.0096
  223SOL     OW  889   0.038   2.060   2.608  0.1795  0.3875  0.0569
  223SOL    HW1  890   0.073   1.973   2.614  4.2064 -2.8290 -0.3370
  223SOL    HW2  891   0.106   2.118   2.565 -0.7940  2.6966 -0.0379
  223SOL     MW  892   0.051   2.056   2.603  0.5823  0.2678 -0.0076
  224SOL     OW  893   1.482   0.806   2.593  0.2260 -0.1068  0.3603
  224SOL    HW1  894   1.457   0.809   2.680  1.8378 -0.7484  0.1540
  224SOL    HW2  895   1.494   0.893   2.561  1.1442  1.6323  1.8407
  224SOL     MW  896   1.480   0.818   2.600  0.5598  0.0380  0.5284
  225SOL     OW  897   2.967   1.520   2.291  0.0557  0.0530 -0.1977
  225SOL    HW1  898   2.997   1.605   2.259 -2.8836  1.3470  0.4960
  225SOL    HW2  899   2.921   1.544   2.374  0.5287  0.0852  0.6144
  225SOL     MW  900   2.965   1.534   2.297 -0.2697  0.2280  0.0010
  226SOL     OW  901   0.406   1.425   2.611  0.0779 -0.3464  0.1782
  226SOL    HW1  902   0.502   1.440   2.619  0.8556  1.1340 -0.4155
  226SOL    HW2  903   0.373   1.515   2.589  1.1274 -0.6917  1.2769
  226SOL     MW  904   0.414   1.439   2.609  0.3190 -0.1967  0.2448
  227SOL     OW  905   0.445   1.060   2.802 -0.1023  0.1383 -0.3111
  227SOL    HW1  906   0.535   1.085   2.786  0.4691 -0.5865  2.4574
  227SOL    HW2  907   0.416   1.038   2.716  1.3650 -0.2358  3.2725
  227SOL     MW  908   0.453   1.061   2.788  0.1667 -0.0067  0.5270
  228SOL     OW  909   0.643   1.000   2.001 -0.1282 -0.1208  0.0070
  228SOL    HW1  910   0.738   1.008   1.972  2.5420 -3.0091  0.1426
  228SOL    HW2  911   0.641   0.975   2.099 -0.0071 -0.7290  1.8355
  228SOL     MW  912   0.655   0.998   2.010  0.2401 -0.5821  0.2661
  229SOL     OW  913   0.183   0.553   3.085 -0.4600  0.1239  0.0943
  229SOL    HW1  914   0.118   0.552   3.011 -0.8181  0.7669  0.8374
  229SOL    HW2  915   0.144   0.492   3.148 -0.0139  2.1495 -3.0039
  229SOL     MW  916   0.169   0.545   3.083 -0.4484  0.4760 -0.2164
  230SOL     OW  917   1.760   1.399   2.031 -0.2108  0.3639  0.1624
  230SOL    HW1  918   1.741   1.375   2.123  1.3333 -0.3368  0.3940
  230SOL    HW2  919   1.811   1.320   2.008 -0.9238 -0.5209 -0.5135
  230SOL     MW  920   1.764   1.386   2.040 -0.1011  0.1547  0.1038
  231SOL     OW  921   2.780   1.339   2.219  0.0136  0.2506  1.0009
  231SOL    HW1  922   2.849   1.405   2.238 -1.6992  1.1798 -2.5445
  231SOL    HW2  923   2.736   1.374   2.137  1.1477  2.1803  0.0909
  231SOL     MW  924   2.783   1.352   2.211 -0.0628  0.6278  0.4131
  232SOL     OW  925   2.267   0.874   2.137 -1.0374  0.1913 -0.3858
  232SOL    HW1  926   2.202   0.905   2.070 -1.1694 -0.4230  0.7842
  232SOL    HW2  927   2.210   0.854   2.207  0.0037  0.8868 -0.5469
  232SOL     MW  928   2.251   0.876   2.137 -0.9175  0.2021 -0.2527
  233SOL     OW  929   2.045   0.528   1.961 -0.2303  0.3269  0.2777
  233SOL    HW1  930   2.036   0.477   1.880 -0.7822 -3.9866  0.0449
  233SOL    HW2  931   2.118   0.495   2.014  2.3553 -0.6790 -0.6660
  233SOL     MW  932   2.053   0.517   1.957  0.0380 -0.3749  0.1224
  234SOL     OW  933   0.291   1.002   2.385  0.1353  0.0874 -0.3462
  234SOL    HW1  934   0.199   1.021   2.372  1.3514 -1.5490 -1.5079
  234SOL    HW2  935   0.338   1.085   2.399  0.8421  1.5759 -0.4240
  234SOL     MW  936   0.285   1.015   2.385  0.3890  0.0679 -0.5097
  235SOL     OW  937   1.087   3.075   2.744 -0.0312  0.2632  0.3747
  235SOL    HW1  938   1.126   3.008   2.803  1.9007  1.2039  0.1972
  235SOL    HW2  939   1.091   3.153   2.793  2.9102 -0.1792 -2.4109
  235SOL     MW  940   1.092   3.076   2.759  0.6118  0.3290 -0.0163
  236SOL     OW  941   2.962   0.545   0.023 -0.1628  0.0502  0.3294
  236SOL    HW1  942   2.883   0.550  -0.033 -0.8425 -0.5243  1.4358
  236SOL    HW2  943   2.963   0.638   0.050  2.9605 -0.2116 -0.1575
  236SOL     MW  944   2.952   0.558   0.019  0.1596 -0.0601  0.4112
  237SOL     OW  945   1.820   0.969   2.158  0.3849  0.0736 -0.0404
  237SOL    HW1  946   1.863   1.051   2.128  3.4525  0.9651 -2.2122
  237SOL    HW2  947   1.777   0.995   2.243 -0.9174 -0.5801  2.0793
  237SOL     MW  948   1.820   0.983   2.165  0.6178  0.1049 -0.0473
  238SOL     OW  949   1.064   1.767   2.986  0.0841 -0.2980  0.4250
  238SOL    HW1  950   1.000   1.702   2.949  0.4486 -0.7304  3.5311
  238SOL    HW2  951   1.150   1.722   2.987 -0.4002 -0.2679  2.5848
  238SOL     MW  952   1.067   1.752   2.981  0.0683 -0.3511  1.1198
  239SOL     OW  953   1.213   1.431   2.353  0.6222 -0.3283  0.3157
  239SOL    HW1  954   1.158   1.465   2.424 -0.8913  2.9796 -0.9795
  239SOL    HW2  955   1.245   1.347   2.381  0.4270 -0.0996 -1.6807
  239SOL     MW  956   1.210   1.425   2.366  0.3968  0.1384 -0.1186
  240SOL     OW  957   0.691   0.879   2.235 -0.1062 -0.7853 -0.7679
  240SOL    HW1  958   0.719   0.928   2.312  2.6216 -0.1150  1.2961
  240SOL    HW2  959   0.777   0.836   2.208  2.3208 -1.9215 -2.0696
  240SOL     MW  960   0.706   0.880   2.241  0.5739 -0.8468 -0.6673
  241SOL     OW  961   0.628   0.343   3.061  0.2683  0.1630  0.2697
  241SOL    HW1  962   0.651   0.412   3.127  1.0822  1.6511  1.7340
  241SOL    HW2  963   0.536   0.370   3.046 -0.1569 -0.5603  3.6032
  241SOL     MW  964   0.619   0.355   3.068  0.3196  0.2639  0.9027
  242SOL     OW  965   1.527   1.742   2.261 -0.2920 -0.4807 -0.1504
  242SOL    HW1  966   1.475   1.807   2.305  3.0525 -1.2209 -1.0643
  242SOL    HW2  967   1.472   1.673   2.227 -1.1489 -1.6739  1.0255
  242SOL     MW  968   1.513   1.742   2.262  0.0362 -0.7358 -0.1158
  243SOL     OW  969   0.978   0.224   2.382  0.8178  0.2830  0.7492
  243SOL    HW1  970   1.071   0.211   2.351 -0.4319  2.9092  2.2698
  243SOL    HW2  971   0.978   0.291   2.446 -1.0885 -0.7621 -0.7198
  243SOL     MW  972   0.991   0.231   2.386  0.4014  0.4916  0.7560
  244SOL     OW  973   0.225   0.717   2.360  0.0078  0.4766  0.6497
  244SOL    HW1  974   0.249   0.810   2.336  1.2233  1.5463 -1.4478
  244SOL    HW2  975   0.311   0.684   2.371  2.0429 -0.1781  0.9733
  244SOL     MW  976   0.239   0.725   2.359  0.4367  0.5314  0.4156
  245SOL     OW  977   1.262   0.228   2.334 -0.0523 -0.1087 -0.5577
  245SOL    HW1  978   1.353   0.194   2.338  1.5656 -0.5671 -1.2888
  245SOL    HW2  979   1.265   0.297   2.402 -0.6332  0.5371  1.5233
  245SOL     MW  980   1.274   0.233   2.343  0.0845 -0.0840 -0.3796
  246SOL     OW  981   1.239   1.197   2.121 -0.6541  0.3171  0.5330
  246SOL    HW1  982   1.181   1.178   2.196 -2.7140  2.7729 -0.5167
  246SOL    HW2  983   1.328   1.172   2.149 -4.1501  2.0796  0.6301
  246SOL     MW  984   1.243   1.191   2.135 -1.3871  0.8737  0.4073
  247SOL     OW  985   0.721   0.544   0.120  0.8343  0.7688 -0.2714
  247SOL    HW1  986   0.683   0.613   0.066 -0.8762 -0.3515  0.9818
  247SOL    HW2  987   0.813   0.542   0.093  1.3082  1.1354  1.7663
  247SOL     MW  988   0.728   0.553   0.109  0.6711  0.6694  0.1628
  248SOL     OW  989   0.482   1.195   2.458  0.0495 -0.8119  0.5142
  248SOL    HW1  990   0.500   1.241   2.375  1.6480 -0.9665 -2.1096
  248SOL    HW2  991   0.436   1.262   2.513 -2.0166  1.2787  1.2350
  248SOL     MW  992   0.479   1.210   2.454 -0.0122 -0.5564  0.2631
  249SOL     OW  993   0.198   1.834   2.682 -0.3032  0.5641 -0.0105
  249SOL    HW1  994   0.151   1.747   2.656  0.3587  3.6888 -1.4137
  249SOL    HW2  995   0.176   1.840   2.773 -0.4248 -2.3750  0.0151
  249SOL     MW  996   0.189   1.823   2.691 -0.2319  0.5886 -0.1922
  250SOL     OW  997   2.132   0.840   2.402  0.2980 -0.1322  0.6783
  250SOL    HW1  998   2.144   0.742   2.390 -1.7752  0.7936 -0.0654
  250SOL    HW2  999   2.203   0.879   2.450 -1.0732  1.4601  0.5667
  250SOL     MW 1000   2.143   0.832   2.407 -0.1565  0.2000  0.5654
  251SOL     OW 1001   0.216   0.830   2.072 -0.3446 -0.0011  0.0197
  251SOL    HW1 1002   0.173   0.763   2.127 -2.1117 -0.1392  2.2812
  251SOL    HW2 1003   0.213   0.808   1.978 -1.0209  1.7751  2.7116
  251SOL     MW 1004   0.210   0.818   2.067 -0.6670  0.2151  0.6733
  252SOL     OW 1005   1.679   1.023   2.871 -0.0443 -0.1082 -0.1541
  252SOL    HW1 1006   1.684   1.091   2.937  0.1394 -2.5905  2.3354
  252SOL    HW2 1007   1.740   1.056   2.799  0.0623  0.9814  1.1681
  252SOL     MW 1008   1.688   1.036   2.870 -0.0060 -0.2920  0.3488
  253SOL     OW 1009   1.142   1.730   2.546 -0.3882  0.4177  0.1489
  253SOL    HW1 1010   1.132   1.768   2.453  1.7906  0.3996  0.9220
  253SOL    HW2 1011   1.062   1.766   2.597 -3.0098  1.0793  0.7563
  253SOL     MW 1012   1.130   1.740   2.540 -0.4466  0.5026  0.3311
  254SOL     OW 1013   1.023   1.077   2.224  0.2022  0.1083  0.1559
  254SOL    HW1 1014   0.990   0.986   2.207 -1.2484  0.1467 -2.3668
  254SOL    HW2 1015   0.944   1.128   2.253 -2.6801 -0.1327  0.6971
  254SOL     MW 1016   1.008   1.072   2.225 -0.3695  0.0816 -0.1055
  255SOL     OW 1017   0.836   2.472   2.149 -0.0565  0.5569  0.0922
  255SOL    HW1 1018   0.754   2.434   2.170  0.7915  2.9967 -2.3222
  255SOL    HW2 1019   0.885   2.478   2.230  1.2730  1.1189 -0.3789
  255SOL     MW 1020   0.832   2.468   2.163  0.2308  0.9529 -0.2885
  256SOL     OW 1021   1.171   2.843   2.861  0.0640  0.1691 -0.5602
  256SOL    HW1 1022   1.147   2.763   2.819  2.4293 -1.1556 -2.4734
  256SOL    HW2 1023   1.262   2.849   2.820  0.4332  0.4371 -2.3840
  256SOL     MW 1024   1.179   2.833   2.850  0.4248  0.0297 -1.0533
  257SOL     OW 1025   0.164   1.922   0.107 -0.3778  0.4902 -0.2268
  257SOL    HW1 1026   0.161   1.854   0.175 -1.2128  1.3707  2.0779
  257SOL    HW2 1027   0.159   1.878   0.021  1.0364  3.2420  1.0426
  257SOL     MW 1028   0.163   1.907   0.105 -0.3014  0.9694  0.2448
  258SOL     OW 1029   0.701   1.038   2.489 -0.0613 -0.1297  0.5164
  258SOL    HW1 1030   0.712   1.096   2.416  1.6007  2.9642 -0.6444
  258SOL    HW2 1031   0.620   1.066   2.522  0.9766  0.0221  2.4573
  258SOL     MW 1032   0.692   1.050   2.484  0.2949  0.2986  0.6194
  259SOL     OW 1033   0.759   0.518   2.355 -0.1907 -0.3460 -0.6118
  259SOL    HW1 1034   0.669   0.552   2.362 -0.9368  3.4333 -0.5038
  259SOL    HW2 1035   0.751   0.432   2.316  2.3821  1.4866 -1.8757
  259SOL     MW 1036   0.746   0.511   2.351  0.0503  0.3945 -0.7643
  260SOL     OW 1037   0.590   0.145   1.598  0.0599 -0.0539  0.0263
  260SOL    HW1 1038   0.541   0.113   1.523  0.1127  1.4265  0.6569
  260SOL    HW2 1039   0.680   0.163   1.567 -1.2819  0.3296 -1.3109
  260SOL     MW 1040   0.595   0.143   1.584 -0.1101  0.1921 -0.0669
  261SOL     OW 1041   1.202   0.673   2.052  0.3249 -0.5380 -0.8916
  261SOL    HW1 1042   1.225   0.673   2.148 -2.3838  1.9717  0.5006
  261SOL    HW2 1043   1.261   0.616   2.003  0.7304  1.3406 -0.0365
  261SOL     MW 1044   1.212   0.665   2.058  0.0210  0.0410 -0.5951
  262SOL     OW 1045   1.175   0.315   0.105 -0.0121  0.2827  0.5722
  262SOL    HW1 1046   1.272   0.300   0.105 -0.9900 -0.9536  2.2609
  262SOL    HW2 1047   1.136   0.239   0.064  0.3836 -2.1453 -3.1843
  262SOL     MW 1048   1.183   0.303   0.099 -0.0889 -0.2007  0.2994
  263SOL     OW 1049   0.436   3.046   2.510 -0.4780 -0.1280  0.1464
  263SOL    HW1 1050   0.358   3.103   2.505  0.9423  1.7995  2.9069
  263SOL    HW2 1051   0.500   3.074   2.442  1.7979  2.6488  2.6978
  263SOL     MW 1052   0.434   3.057   2.500  0.0097  0.4927  0.8472
  264SOL     OW 1053   1.526   1.307   1.926 -0.0855 -0.0877 -0.0561
  264SOL    HW1 1054   1.481   1.261   1.996  0.3905 -2.6132  0.2613
  264SOL    HW2 1055   1.610   1.348   1.958 -1.7040 -0.6053 -1.5020
  264SOL     MW 1056   1.531   1.306   1.940 -0.2362 -0.4892 -0.2050
  265SOL     OW 1057   0.634   2.713   2.251  0.1477  0.0636  0.1826
  265SOL    HW1 1058   0.661   2.650   2.183 -0.3649  0.4699 -3.0629
  265SOL    HW2 1059   0.685   2.697   2.327 -4.2284 -1.0535  1.1010
  265SOL     MW 1060   0.644   2.703   2.252 -0.4973 -0.0302 -0.1244
  266SOL     OW 1061   0.947   0.818   2.180  0.6906 -0.1682 -0.4042
  266SOL    HW1 1062   0.955   0.772   2.098  0.5107 -0.4920 -1.6054
  266SOL    HW2 1063   0.969   0.760   2.247  3.2939  0.1437  0.0535
  266SOL     MW 1064   0.951   0.804   2.178  1.0103 -0.1698 -0.5023
  267SOL     OW 1065   1.371   1.682   2.697  0.2162 -0.6765  0.3197
  267SOL    HW1 1066   1.443   1.656   2.641 -0.6982  1.7515 -1.4402
  267SOL    HW2 1067   1.301   1.717   2.647  1.1366 -0.3506 -0.6053
  267SOL     MW 1068   1.371   1.683   2.683  0.2170 -0.3131 -0.0346
  268SOL     OW 1069   0.246   0.766   1.779 -0.1298  0.2516  0.1627
  268SOL    HW1 1070   0.185   0.822   1.719 -3.0045  2.9185  0.2083
  268SOL    HW2 1071   0.274   0.696   1.724  1.3074  1.8085 -0.5402
  268SOL     MW 1072   0.242   0.764   1.763 -0.3195  0.8089  0.0760
  269SOL     OW 1073   1.377   1.918   2.414  0.2399  0.1062 -0.5682
  269SOL    HW1 1074   1.422   2.000   2.393  0.5353 -0.2751 -1.1177
  269SOL    HW2 1075   1.317   1.947   2.476  2.4910  1.0213 -4.4646
  269SOL     MW 1076   1.375   1.933   2.420  0.5759  0.1766 -1.1548
  270SOL     OW 1077   1.176   0.360   1.609  0.1574  0.0202 -0.0533
  270SOL    HW1 1078   1.147   0.274   1.640  0.1920  0.9692  2.2694
  270SOL    HW2 1079   1.267   0.372   1.645  2.0627 -0.5248  1.6364
  270SOL     MW 1080   1.184   0.350   1.618  0.4133  0.0735  0.4761
  271SOL     OW 1081   0.861   3.069   2.406  0.3322  0.4733  0.3070
  271SOL    HW1 1082   0.907   3.033   2.478  1.4769  0.4217 -1.9620
  271SOL    HW2 1083   0.891   3.163   2.390  2.7200  1.5770 -0.1063
  271SOL     MW 1084   0.871   3.076   2.413  0.7983  0.6121 -0.0469
  272SOL     OW 1085   1.455   2.853   2.797  0.1722 -0.5684 -0.1490
  272SOL    HW1 1086   1.439   2.896   2.708  3.1831  2.1520 -4.6820
  272SOL    HW2 1087   1.476   2.926   2.851  0.6445  0.2690 -0.1032
  272SOL     MW 1088   1.456   2.868   2.792  0.6318 -0.0990 -0.7410
  273SOL     OW 1089   1.425   0.865   2.869 -0.0545 -0.1630 -0.1884
  273SOL    HW1 1090   1.520   0.879   2.874  3.6137 -1.2787  2.9054
  273SOL    HW2 1091   1.383   0.948   2.893 -0.1864 -0.5575  0.0202
  273SOL     MW 1092   1.432   0.878   2.873  0.4121 -0.3623  0.2473
  274SOL     OW 1093   1.387   0.745   0.218  0.4776 -0.2059 -0.3958
  274SOL    HW1 1094   1.428   0.659   0.240  0.4527 -0.6830  1.1174
  274SOL    HW2 1095   1.299   0.739   0.252 -1.2629 -1.1978 -1.0767
  274SOL     MW 1096   1.381   0.733   0.226  0.2447 -0.3997 -0.2860
  275SOL     OW 1097   1.709   0.688   1.790 -0.7921  0.0094 -0.0401
  275SOL    HW1 1098   1.783   0.731   1.841 -0.9362 -0.8525 -0.9420
  275SOL    HW2 1099   1.715   0.597   1.809 -0.1322  0.3879 -1.7214
  275SOL     MW 1100   1.719   0.681   1.800 -0.7241 -0.0544 -0.3809
  276SOL     OW 1101   0.219   1.259   1.804  0.8701 -0.2302  0.3525
  276SOL    HW1 1102   0.222   1.201   1.880  0.8347  0.8098 -0.6802
  276SOL    HW2 1103   0.129   1.301   1.801  2.4886  0.4499  0.5846
  276SOL     MW 1104   0.207   1.257   1.813  1.0790 -0.0033  0.2469
  277SOL     OW 1105   1.904   1.345   2.572  0.1131 -0.4629 -0.2265
  277SOL    HW1 1106   1.970   1.406   2.531  1.4663  1.1938 -1.8933
  277SOL    HW2 1107   1.955   1.275   2.617 -0.7549 -0.3791  0.5517
  277SOL     MW 1108   1.919   1.344   2.572  0.1771 -0.2332 -0.3438
  278SOL     OW 1109   1.423   0.695   1.750  0.2003 -0.3300 -0.1459
  278SOL    HW1 1110   1.412   0.621   1.812  1.1992 -2.3540  0.9257
  278SOL    HW2 1111   1.511   0.731   1.773  1.8872 -4.4107  2.2167
  278SOL     MW 1112   1.433   0.690   1.761  0.5547 -1.1354  0.3072
  279SOL     OW 1113   0.539   0.012   2.237 -0.3418  0.4390 -0.2056
  279SOL    HW1 1114   0.614  -0.039   2.208  1.3183  1.5213  1.8521
  279SOL    HW2 1115   0.565   0.096   2.273 -2.9520  1.7850  0.3276
  279SOL     MW 1116   0.552   0.016   2.238 -0.4671  0.7594  0.1362
  280SOL     OW 1117   1.506   1.126   2.208  0.1511 -0.3568  0.3212
  280SOL    HW1 1118   1.502   1.042   2.166 -2.0153  0.6283 -0.5908
  280SOL    HW2 1119   1.515   1.106   2.298  0.9338  0.1153 -1.0227
  280SOL     MW 1120   1.507   1.112   2.214 -0.0314 -0.1646  0.0236
  281SOL     OW 1121   1.290   1.300   2.780  0.7286 -0.5938 -0.4322
  281SOL    HW1 1122   1.372   1.352   2.776  0.8730  0.2563 -0.0258
  281SOL    HW2 1123   1.301   1.228   2.846 -2.9187 -1.8324 -1.3770
  281SOL     MW 1124   1.303   1.297   2.789  0.2664 -0.6451 -0.5033
  282SOL     OW 1125   1.127   1.306   1.703 -0.1023 -0.1637  0.2407
  282SOL    HW1 1126   1.080   1.336   1.618  1.0907 -1.4184  0.9491
  282SOL    HW2 1127   1.070   1.314   1.780 -1.0654  0.1331 -1.5089
  282SOL     MW 1128   1.113   1.311   1.702 -0.0720 -0.2901  0.1033
  283SOL     OW 1129   0.687   1.268   3.097  0.0302  0.0797 -0.3497
  283SOL    HW1 1130   0.783   1.270   3.092  0.1881  0.1912  0.2487
  283SOL    HW2 1131   0.655   1.355   3.129 -1.8526  1.6686 -0.5975
  283SOL     MW 1132   0.695   1.280   3.100 -0.1974  0.3040 -0.3034
  284SOL     OW 1133   0.516   0.648   2.351  0.5972 -0.0819  0.0962
  284SOL    HW1 1134   0.546   0.723   2.300 -1.5853 -0.6876 -2.5837
  284SOL    HW2 1135   0.492   0.586   2.278 -0.0108 -1.1887 -3.6862
  284SOL     MW 1136   0.517   0.650   2.334  0.2290 -0.3078 -0.7564
  285SOL     OW 1137   0.837   0.955   2.877  0.6562  0.3503  0.6343
  285SOL    HW1 1138   0.870   0.979   2.785  0.9627 -0.0908 -0.3061
  285SOL    HW2 1139   0.787   0.878   2.858 -1.3742 -1.7137  0.9867
  285SOL     MW 1140   0.835   0.948   2.862  0.4287  0.0197  0.5568
  286SOL     OW 1141   1.133   1.460   2.608 -0.5617 -0.2273 -0.5548
  286SOL    HW1 1142   1.190   1.422   2.681 -0.4412  0.1656  1.3960
  286SOL    HW2 1143   1.135   1.555   2.606 -1.2118 -1.6200 -0.3940
  286SOL     MW 1144   1.141   1.468   2.617 -0.6316 -0.3592 -0.2762
  287SOL     OW 1145   0.990   0.905   0.314  0.0520  0.3146 -0.1897
  287SOL    HW1 1146   1.045   0.954   0.372 -1.1811  1.2107 -0.2211
  287SOL    HW2 1147   0.951   0.972   0.257 -3.4326  0.7764 -0.4318
  287SOL     MW 1148   0.992   0.920   0.314 -0.5705  0.4938 -0.2258
  288SOL     OW 1149   1.580   0.621   2.102  0.4145 -0.4438  0.1758
  288SOL    HW1 1150   1.553   0.621   2.196  2.6109 -3.0173  0.0220
  288SOL    HW2 1151   1.560   0.710   2.073  0.1354 -0.9113 -1.6841
  288SOL     MW 1152   1.574   0.633   2.111  0.6675 -0.8450 -0.0899
  289SOL     OW 1153   0.940   1.052   2.637  0.4071 -0.1543  0.0102
  289SOL    HW1 1154   0.995   1.003   2.578 -3.8971  2.0733  0.7494
  289SOL    HW2 1155   0.849   1.040   2.604 -2.4277 -1.0406 -1.0817
  289SOL     MW 1156   0.935   1.044   2.625 -0.5348  0.0227 -0.0363
  290SOL     OW 1157   0.864   0.542   1.561 -0.1353 -0.2563  0.2530
  290SOL    HW1 1158   0.923   0.502   1.499  0.9314 -0.4605  0.9130
  290SOL    HW2 1159   0.914   0.530   1.642 -0.9639  0.2358 -0.6350
  290SOL     MW 1160   0.878   0.535   1.563 -0.1039 -0.2183  0.2229
  291SOL     OW 1161   0.131   0.328   0.168 -0.1482 -0.0855  0.0110
  291SOL    HW1 1162   0.229   0.309   0.178  4.6709 -1.0762 -0.0892
  291SOL    HW2 1163   0.097   0.279   0.094 -0.5340 -1.4453  2.2412
  291SOL     MW 1164   0.139   0.319   0.159  0.4367 -0.3956  0.2921
  292SOL     OW 1165   0.984   0.527   0.067  0.1868 -0.0480  0.2655
  292SOL    HW1 1166   1.018   0.596   0.129 -0.9863  3.7037 -0.4124
  292SOL    HW2 1167   1.051   0.458   0.066  1.4843 -1.2907  0.6178
  292SOL     MW 1168   0.998   0.527   0.075  0.2032  0.2830  0.2225
  293SOL     OW 1169   0.222   0.133   2.469  0.2540  0.6212 -0.2663
  293SOL    HW1 1170   0.139   0.102   2.433  0.5068 -0.8944 -1.3879
  293SOL    HW2 1171   0.202   0.201   2.537 -1.4944  0.2689  0.3073
  293SOL     MW 1172   0.209   0.138   2.473  0.0566  0.3747 -0.3386
  294SOL     OW 1173   1.511   0.629   2.389  0.4312 -0.2741  0.2329
  294SOL    HW1 1174   1.503   0.681   2.464  0.1549 -2.1343 -0.0420
  294SOL    HW2 1175   1.515   0.540   2.427 -0.6875  1.9795 -0.5024
  294SOL     MW 1176   1.510   0.624   2.404  0.2471 -0.2222  0.0996
  295SOL     OW 1177   0.902   0.681   2.517  0.3931 -0.5469 -0.6648
  295SOL    HW1 1178   0.848   0.628   2.465 -0.9448  3.0766  3.8714
  295SOL    HW2 1179   0.853   0.702   2.596  1.2591  3.8544 -1.0095
  295SOL     MW 1180   0.888   0.677   2.520  0.3309  0.5119 -0.1118
  296SOL     OW 1181   1.280   0.307   2.068 -0.4864  0.4031  0.2161
  296SOL    HW1 1182   1.357   0.240   2.056 -0.5219  0.0968 -0.2574
  296SOL    HW2 1183   1.264   0.290   2.168  1.1329  0.9807  0.0662
  296SOL     MW 1184   1.288   0.296   2.080 -0.2774  0.4389  0.1338
  297SOL     OW 1185   1.480   0.412   1.594 -0.1716 -0.3293  0.7413
  297SOL    HW1 1186   1.529   0.460   1.656 -0.1816  0.2320  0.1671
  297SOL    HW2 1187   1.476   0.322   1.621  0.5470 -1.6358 -0.0936
  297SOL     MW 1188   1.486   0.406   1.605 -0.0781 -0.4276  0.5554
  298SOL     OW 1189   1.563   0.885   2.045  1.3026 -0.1210 -0.2342
  298SOL    HW1 1190   1.565   0.932   1.961  2.3805 -0.0926  0.0077
  298SOL    HW2 1191   1.647   0.906   2.083  0.3789  1.7752  0.9173
  298SOL     MW 1192   1.574   0.894   2.039  1.3229  0.1329 -0.0504
  299SOL     OW 1193   0.508   1.039   3.081  0.0286  0.3579 -0.8115
  299SOL    HW1 1194   0.565   1.116   3.081  0.2051 -0.6917 -0.9338
  299SOL    HW2 1195   0.491   1.019   2.993 -0.7833  0.0260  1.7407
  299SOL     MW 1196   0.513   1.047   3.069 -0.0552  0.1756 -0.4909
  300SOL     OW 1197   1.249   1.179   2.506 -0.5249  0.3349  0.2378
  300SOL    HW1 1198   1.169   1.142   2.474 -2.9205  1.3677 -0.4863
  300SOL    HW2 1199   1.244   1.190   2.600  0.3767 -2.2737 -3.1595
  300SOL     MW 1200   1.238   1.176   2.514 -0.7220  0.1270 -0.3060
  301SOL     OW 1201   1.370   0.855   0.573  0.2921  0.7486  0.0160
  301SOL    HW1 1202   1.335   0.908   0.647  1.2584  1.1964  1.2763
  301SOL    HW2 1203   1.340   0.761   0.591  1.9266 -0.7924 -0.6877
  301SOL     MW 1204   1.361   0.850   0.585  0.6352  0.6044  0.0894
  302SOL     OW 1205   0.091   1.488   2.009 -0.4492  0.4028 -0.0309
  302SOL    HW1 1206   0.103   1.442   2.092 -1.8917  1.6933 -0.8653
  302SOL    HW2 1207   0.046   1.569   2.028 -4.6307  0.3934  0.3167
  302SOL     MW 1208   0.087   1.492   2.023 -1.1912  0.5718 -0.0951
  303SOL     OW 1209   0.389   1.702   2.557 -0.3320 -0.2743 -0.6608
  303SOL    HW1 1210   0.339   1.695   2.475 -1.7437 -1.6214 -0.3157
  303SOL    HW2 1211   0.337   1.764   2.609  1.5160 -1.2312 -0.3954
  303SOL     MW 1212   0.375   1.710   2.553 -0.2745 -0.5783 -0.5802
  304SOL     OW 1213   0.648   2.055   2.398  0.2039 -0.2556  0.1698
  304SOL    HW1 1214   0.685   2.134   2.363 -0.9888  0.6236  1.6638
  304SOL    HW2 1215   0.728   2.003   2.407 -0.6000 -0.5870 -1.2435
  304SOL     MW 1216   0.664   2.059   2.395 -0.0596 -0.1833  0.1805
  305SOL     OW 1217   1.067   0.557   0.562  0.0275 -0.1210 -0.2640
  305SOL    HW1 1218   0.984   0.537   0.503 -1.2723 -0.0519 -2.5985
  305SOL    HW2 1219   1.112   0.470   0.563 -1.9545 -1.3907 -2.5397
  305SOL     MW 1220   1.062   0.543   0.554 -0.4055 -0.2794 -0.8723
  306SOL     OW 1221   1.218   1.477   0.304 -0.3521  0.0246 -0.8350
  306SOL    HW1 1222   1.266   1.414   0.355 -1.2626  2.0454 -1.3493
  306SOL    HW2 1223   1.249   1.463   0.212  2.9592  0.1769 -0.8493
  306SOL     MW 1224   1.228   1.467   0.299 -0.0353  0.3113 -0.9047
  307SOL     OW 1225   1.391   0.495   1.918  0.2842 -0.0298  0.2781
  307SOL    HW1 1226   1.352   0.417   1.975  0.6147 -1.3174  0.1838
  307SOL    HW2 1227   1.468   0.520   1.974 -0.4831 -0.3052  0.4008
  307SOL     MW 1228   1.396   0.488   1.933  0.2266 -0.2360  0.2818
  308SOL     OW 1229   2.136   0.636   2.658 -0.3429 -0.0791  0.4769
  308SOL    HW1 1230   2.207   0.597   2.715 -0.2575  0.5198 -3.2849
  308SOL    HW2 1231   2.135   0.734   2.678 -0.0356 -0.7551 -1.5836
  308SOL     MW 1232   2.146   0.644   2.668 -0.2911 -0.0893 -0.2913
  309SOL     OW 1233   0.526   0.390   0.386 -0.9591 -0.8795 -0.0136
  309SOL    HW1 1234   0.566   0.328   0.449 -0.2933  0.5854 -0.9588
  309SOL    HW2 1235   0.481   0.346   0.311  0.3569 -1.5493 -0.5711
  309SOL     MW 1236   0.525   0.376   0.384 -0.6976 -0.7746 -0.2119
  310SOL     OW 1237   0.467   0.536   1.921 -0.3824 -0.1365 -0.7366
  310SOL    HW1 1238   0.512   0.472   1.866  2.0322 -1.2012 -1.5623
  310SOL    HW2 1239   0.526   0.612   1.905 -0.3434 -0.1257  0.6295
  310SOL     MW 1240   0.481   0.537   1.911 -0.0586 -0.2755 -0.6653
  311SOL     OW 1241   1.904   0.781   1.954  0.0651  0.2949  0.3685
  311SOL    HW1 1242   1.879   0.830   2.032  0.6916 -2.0966 -0.9631
  311SOL    HW2 1243   1.954   0.700   1.985  1.6205  1.0070 -1.2187
  311SOL     MW 1244   1.907   0.777   1.969  0.3530  0.0733 -0.0166
  312SOL     OW 1245   1.700   2.499   0.049 -0.6309  0.2051  0.8505
  312SOL    HW1 1246   1.765   2.501   0.125 -1.6115 -4.3827  1.9163
  312SOL    HW2 1247   1.626   2.562   0.078 -1.1628  0.2197  0.9469
  312SOL     MW 1248   1.698   2.507   0.063 -0.8305 -0.3983  1.0039
  313SOL     OW 1249   0.119   1.181   2.950  0.4119  0.5209  0.4510
  313SOL    HW1 1250   0.181   1.188   3.027  0.4851  0.5188  1.4403
  313SOL    HW2 1251   0.167   1.228   2.873  0.1512  2.9777 -0.5093
  313SOL     MW 1252   0.134   1.188   2.950  0.3871  0.8448  0.4549
  314SOL     OW 1253   2.145   2.991   3.003  0.0081  0.1207  0.0837
  314SOL    HW1 1254   2.088   3.032   2.939  0.2164  1.3376 -1.9535
  314SOL    HW2 1255   2.170   3.064   3.055  2.2714 -1.2318 -1.1599
  314SOL     MW 1256   2.141   3.006   3.001  0.3342  0.1028 -0.3492
  315SOL     OW 1257   1.508   1.878   3.063  0.0255 -0.2493  0.3080
  315SOL    HW1 1258   1.445   1.938   3.103 -0.7286  1.4900  0.5884
  315SOL    HW2 1259   1.560   1.930   2.992 -2.1621 -1.2445  0.4650
  315SOL     MW 1260   1.507   1.893   3.059 -0.3626 -0.1512  0.3657
  316SOL     OW 1261   1.254   0.614   2.708 -0.1234 -0.4277 -0.2185
  316SOL    HW1 1262   1.346   0.593   2.722  0.3191  0.0480  1.1073
  316SOL    HW2 1263   1.199   0.602   2.779 -1.6102  2.5339 -0.3208
  316SOL     MW 1264   1.259   0.610   2.719 -0.2612  0.0258 -0.0571
  317SOL     OW 1265   0.678   1.446   2.600 -0.4191  0.4121 -0.1466
  317SOL    HW1 1266   0.731   1.364   2.591 -0.7761 -0.1422 -4.3014
  317SOL    HW2 1267   0.681   1.496   2.507 -1.1335  0.3565 -0.7439
  317SOL     MW 1268   0.686   1.442   2.586 -0.5605  0.3316 -0.7736
  318SOL     OW 1269   1.359   0.392   2.914  0.2239  0.2733  0.1920
  318SOL    HW1 1270   1.271   0.426   2.912  0.8313 -3.2911 -1.4532
  318SOL    HW2 1271   1.426   0.462   2.900  0.8851  2.3056  3.2151
  318SOL     MW 1272   1.356   0.406   2.912  0.3913  0.0712  0.3738
  319SOL     OW 1273   0.834   0.471   2.814 -0.2175 -0.7798  0.1528
  319SOL    HW1 1274   0.810   0.385   2.783  0.7976  0.0471 -0.1355
  319SOL    HW2 1275   0.782   0.494   2.891 -0.1582  0.0878 -0.4721
  319SOL     MW 1276   0.824   0.463   2.820 -0.0758 -0.5562  0.0323
  320SOL     OW 1277   1.034   1.346   1.965 -0.2575 -0.2441 -0.5365
  320SOL    HW1 1278   1.100   1.300   2.012  0.8800  0.3140 -1.6052
  320SOL    HW2 1279   1.083   1.414   1.921 -0.6732 -1.9998  0.1789
  320SOL     MW 1280   1.049   1.349   1.966 -0.1623 -0.4021 -0.5831
  321SOL     OW 1281   1.033   1.006   3.061 -0.4930  0.4390 -0.1986
  321SOL    HW1 1282   0.967   0.974   3.000  2.4408 -1.8136 -1.8295
  321SOL    HW2 1283   1.080   0.926   3.087  0.0193 -0.1477 -0.3445
  321SOL     MW 1284   1.030   0.992   3.057 -0.0383  0.0644 -0.4330
  322SOL     OW 1285   1.178   0.834   1.730 -0.4796 -0.2311 -0.2568
  322SOL    HW1 1286   1.260   0.788   1.706  1.3348  0.4735  0.2980
  322SOL    HW2 1287   1.191   0.852   1.828  0.0269  1.6447  0.4773
  322SOL     MW 1288   1.191   0.830   1.740 -0.1734  0.1093 -0.0868
  323SOL     OW 1289   1.202   1.529   1.825  0.6349 -0.3242 -0.2151
  323SOL    HW1 1290   1.205   1.470   1.751 -0.4585 -0.7593  3.0936
  323SOL    HW2 1291   1.137   1.594   1.805 -0.5455 -0.2334  2.4851
  323SOL     MW 1292   1.194   1.530   1.813  0.3349 -0.3697  0.5777
  324SOL     OW 1293   1.512   1.066   2.477 -0.2538 -0.6015 -0.3966
  324SOL    HW1 1294   1.426   1.113   2.476 -0.7812  2.0886 -0.8577
  324SOL    HW2 1295   1.569   1.133   2.524 -1.3918 -1.4283 -4.3163
  324SOL     MW 1296   1.508   1.081   2.483 -0.4736 -0.3557 -0.9746
  325SOL     OW 1297   1.091   0.481   2.906  0.2414  0.3949 -0.1656
  325SOL    HW1 1298   1.086   0.536   2.990 -0.1757 -0.8462  1.8666
  325SOL    HW2 1299   1.001   0.462   2.889  0.6017 -2.5327  3.5175
  325SOL     MW 1300   1.079   0.486   2.915  0.2339 -0.1551  0.5885
  326SOL     OW 1301   0.480   1.348   2.224 -0.3405 -0.1914 -0.6709
  326SOL    HW1 1302   0.544   1.309   2.160  1.4302  0.5689  0.6503
  326SOL    HW2 1303   0.496   1.442   2.217 -0.6968 -0.6619 -0.8917
  326SOL     MW 1304   0.491   1.355   2.215 -0.1539 -0.1531 -0.5257
  327SOL     OW 1305   1.853   0.900   2.476  0.3681 -0.4244  0.4239
  327SOL    HW1 1306   1.829   0.807   2.507  0.6188  2.3408 -0.0376
  327SOL    HW2 1307   1.940   0.900   2.441 -0.9468 -0.4036 -0.8200
  327SOL     MW 1308   1.861   0.888   2.475  0.2277 -0.0568  0.1989
  328SOL     OW 1309   0.205   1.308   2.224  0.6286 -0.0362  0.5662
  328SOL    HW1 1310   0.193   1.234   2.163  0.7937 -2.5979  0.6079
  328SOL    HW2 1311   0.301   1.310   2.217 -1.8748 -2.2215  0.0182
  328SOL     MW 1312   0.216   1.299   2.215  0.3201 -0.6625  0.4994
  329SOL     OW 1313   0.105   0.125   1.443 -0.1279 -0.2416 -0.4771
  329SOL    HW1 1314   0.102   0.163   1.537  0.0412  0.4479  2.9893
  329SOL    HW2 1315   0.189   0.169   1.404  4.1452 -0.5344 -1.1927
  329SOL     MW 1316   0.115   0.136   1.450  0.4582 -0.1892 -0.1142
  330SOL     OW 1317   0.347   3.011   2.070 -0.4342  0.5052  0.3462
  330SOL    HW1 1318   0.403   3.070   2.124  3.5417  1.1650  2.1717
  330SOL    HW2 1319   0.302   2.950   2.133  1.6288  0.0823 -2.3074
  330SOL     MW 1320   0.349   3.011   2.086  0.3626  0.5364  0.2369
  331SOL     OW 1321   0.765   1.220   2.287  0.1323  0.2251  0.4694
  331SOL    HW1 1322   0.731   1.268   2.214  1.9161 -1.8612 -0.0111
  331SOL    HW2 1323   0.785   1.279   2.363 -0.1039  0.4343 -0.4840
  331SOL     MW 1324   0.763   1.234   2.287  0.3365 -0.0226  0.2802
  332SOL     OW 1325   1.336   1.686   2.981 -0.5147 -0.3097 -0.0911
  332SOL    HW1 1326   1.335   1.677   2.887  0.3782 -0.7379 -0.2795
  332SOL    HW2 1327   1.388   1.773   3.000  2.4329 -0.0519 -0.8787
  332SOL     MW 1328   1.343   1.696   2.971 -0.0080 -0.3322 -0.2199
  333SOL     OW 1329   1.727   1.462   3.008  0.3644 -0.3929  0.0184
  333SOL    HW1 1330   1.806   1.493   3.053 -1.2961  0.4960  0.6411
  333SOL    HW2 1331   1.692   1.420   3.090 -0.3152  0.6182 -0.5113
  333SOL     MW 1332   1.733   1.461   3.025  0.0556 -0.1422  0.0307
  334SOL     OW 1333   1.347   3.067   2.622  0.4296 -0.1232 -0.0951
  334SOL    HW1 1334   1.257   3.071   2.658  1.8518  2.6997 -1.7595
  334SOL    HW2 1335   1.376   3.160   2.643  0.7382  0.7304  0.6026
  334SOL     MW 1336   1.339   3.080   2.630  0.6579  0.3619 -0.2226
  335SOL     OW 1337   1.214   0.791   3.059 -0.2324  0.3915  0.1911
  335SOL    HW1 1338   1.270   0.774   3.137 -0.3462  0.6330  1.6565
  335SOL    HW2 1339   1.264   0.793   2.980 -3.2467  0.4338  0.7309
  335SOL     MW 1340   1.228   0.789   3.059 -0.6451  0.4290  0.4557
  336SOL     OW 1341   0.889   1.102   1.923  0.2861 -0.3347  0.1676
  336SOL    HW1 1342   0.907   1.195   1.939 -2.0661 -3.2783 -0.2402
  336SOL    HW2 1343   0.977   1.065   1.940 -0.2034  2.2217  0.0026
  336SOL     MW 1344   0.903   1.110   1.927 -0.0889 -0.3858  0.0920
  337SOL     OW 1345   0.514   1.783   2.799  0.1858 -0.6078 -0.6953
  337SOL    HW1 1346   0.458   1.753   2.734  0.0228 -1.2794  2.4646
  337SOL    HW2 1347   0.597   1.735   2.773  0.9905  0.9633  0.4868
  337SOL     MW 1348   0.518   1.773   2.787  0.2705 -0.4891 -0.1224
  338SOL     OW 1349   1.120   0.850   2.535 -0.1947  0.1684  0.0978
  338SOL    HW1 1350   1.048   0.795   2.501 -1.7528  0.4125  1.7615
  338SOL    HW2 1351   1.171   0.797   2.601 -0.0523 -1.5667 -0.4493
  338SOL     MW 1352   1.117   0.836   2.539 -0.3815 -0.0283  0.2451
  339SOL     OW 1353   1.574   1.034   1.812 -0.6657 -0.0509 -0.3996
  339SOL    HW1 1354   1.492   1.035   1.767 -2.3255 -0.7470  0.7429
  339SOL    HW2 1355   1.581   1.129   1.836  0.9547  2.9514 -0.5131
  339SOL     MW 1356   1.565   1.047   1.809 -0.6709  0.2534 -0.2638
  340SOL     OW 1357   1.363   1.516   0.082  0.2319 -0.4784 -0.0646
  340SOL    HW1 1358   1.379   1.589   0.021  0.6985 -2.0900  1.2696
  340SOL    HW2 1359   1.455   1.483   0.089  2.1178 -0.8287  3.6622
  340SOL     MW 1360   1.377   1.521   0.075  0.5423 -0.7372  0.6031
  341SOL     OW 1361   0.140   1.355   2.659  0.2055  0.0362 -0.2543
  341SOL    HW1 1362   0.227   1.345   2.622  0.1166 -0.7250  0.7009
  341SOL    HW2 1363   0.089   1.321   2.586  0.7792 -1.1846  1.1802
  341SOL     MW 1364   0.145   1.350   2.644  0.2694 -0.2253  0.0610
  342SOL     OW 1365   1.447   0.313   0.067  0.1176  0.1200 -0.2839
  342SOL    HW1 1366   1.499   0.390   0.097 -2.1344  0.7760  0.3117
  342SOL    HW2 1367   1.420   0.332  -0.022  0.8139 -0.6867  0.2606
  342SOL     MW 1368   1.450   0.325   0.059 -0.0877  0.1001 -0.1335
  343SOL     OW 1369   0.223   0.286   2.232 -0.0802  0.3924  0.0462
  343SOL    HW1 1370   0.214   0.224   2.303  0.3636 -0.5340  1.9296
  343SOL    HW2 1371   0.184   0.238   2.156  1.6482 -1.1521 -1.6600
  343SOL     MW 1372   0.216   0.272   2.232  0.2064  0.0664  0.0696
  344SOL     OW 1373   1.677   2.067   0.248 -0.2583 -0.1427 -0.5407
  344SOL    HW1 1374   1.685   2.115   0.166  1.7514  0.0551 -0.1780
  344SOL    HW2 1375   1.647   1.980   0.223  1.8701  2.2141  2.5617
  344SOL     MW 1376   1.674   2.062   0.234  0.2877  0.1944 -0.0835
  345SOL     OW 1377   0.725   1.589   2.386  0.1900  0.3511 -0.3212
  345SOL    HW1 1378   0.636   1.600   2.356 -0.8065  0.6430 -0.3692
  345SOL    HW2 1379   0.768   1.531   2.314 -1.5371 -0.0224 -1.2526
  345SOL     MW 1380   0.719   1.583   2.372 -0.1693  0.3404 -0.4505
  346SOL     OW 1381   1.729   1.141   0.031  0.3138  0.3088 -0.0178
  346SOL    HW1 1382   1.826   1.118   0.033  0.7402  0.8628  0.8341
  346SOL    HW2 1383   1.681   1.074   0.085 -1.5534  1.1254  0.4776
  346SOL     MW 1384   1.736   1.129   0.039  0.1237  0.4896  0.1599
  347SOL     OW 1385   1.246   0.718   2.311  0.3919  0.1245 -0.1315
  347SOL    HW1 1386   1.331   0.705   2.350 -2.2013  0.1432 -0.9771
  347SOL    HW2 1387   1.202   0.765   2.381  2.6875  0.5593 -2.3980
  347SOL     MW 1388   1.252   0.723   2.325  0.3526  0.1843 -0.5421
  348SOL     OW 1389   1.308   2.590   1.889  0.0832 -0.3685 -0.1948
  348SOL    HW1 1390   1.369   2.509   1.903 -2.8379  0.3465 -0.0069
  348SOL    HW2 1391   1.357   2.665   1.930  0.7165 -0.7832  0.9134
  348SOL     MW 1392   1.323   2.589   1.897 -0.2187 -0.3289 -0.0238
  349SOL     OW 1393   1.447   0.242   2.696  0.1830  0.7167  0.0698
  349SOL    HW1 1394   1.424   0.307   2.761 -2.3326  0.0615 -0.2868
  349SOL    HW2 1395   1.527   0.207   2.736  0.1861 -1.1248  2.7516
  349SOL     MW 1396   1.454   0.246   2.710 -0.1485  0.3873  0.3766
  350SOL     OW 1397   1.873   0.663   2.600  0.3265 -0.3806 -0.1642
  350SOL    HW1 1398   1.849   0.578   2.565 -0.5894 -1.8449 -1.0922
  350SOL    HW2 1399   1.973   0.671   2.609 -0.3771  0.7090 -2.2219
  350SOL     MW 1400   1.883   0.653   2.597  0.1128 -0.4300 -0.5581
  351SOL     OW 1401   0.108   0.948   1.633  0.7042 -0.0831  0.1763
  351SOL    HW1 1402   0.022   0.970   1.672 -0.9793 -1.4030  1.1619
  351SOL    HW2 1403   0.152   1.031   1.646  0.9736  0.7106  0.7309
  351SOL     MW 1404   0.102   0.962   1.640  0.5176 -0.1525  0.3795
  352SOL     OW 1405   0.755   1.634   2.778  0.7230  0.0356 -0.1850
  352SOL    HW1 1406   0.794   1.587   2.855  1.7075 -2.8105  0.4311
  352SOL    HW2 1407   0.752   1.556   2.718  2.5662  0.8280  0.1945
  352SOL     MW 1408   0.760   1.617   2.781  1.0961 -0.2354 -0.0537
  353SOL     OW 1409   3.010   2.434   2.707  0.1754 -0.3086 -0.4904
  353SOL    HW1 1410   3.099   2.398   2.685  0.4776 -1.9326 -2.3461
  353SOL    HW2 1411   2.991   2.506   2.643  2.6017  1.7680 -1.2971
  353SOL     MW 1412   3.019   2.439   2.696  0.5354 -0.2489 -0.8417
  354SOL     OW 1413   0.418   2.432   0.844 -0.1298  0.4557 -0.0031
  354SOL    HW1 1414   0.427   2.394   0.931 -0.9023 -1.8325  0.4109
  354SOL    HW2 1415   0.337   2.384   0.829  0.6770  2.0607 -2.3516
  354SOL     MW 1416   0.409   2.421   0.854 -0.1253  0.3655 -0.2584
  355SOL     OW 1417   0.054   2.178   0.412 -0.6971  0.2919  0.3786
  355SOL    HW1 1418  -0.028   2.138   0.367  0.0039 -1.3237 -0.4692
  355SOL    HW2 1419   0.030   2.232   0.488  0.6663 -0.7046  4.5439
  355SOL     MW 1420   0.040   2.180   0.416 -0.4247 -0.0527  0.8163
  356SOL     OW 1421   0.843   2.922   1.025 -0.7912 -0.8055  0.4478
  356SOL    HW1 1422   0.883   2.912   0.936  0.5345 -1.5499 -1.4466
  356SOL    HW2 1423   0.767   2.869   1.028  2.0706  2.0965  0.4900
  356SOL     MW 1424   0.838   2.913   1.014 -0.2387 -0.5208  0.2034
  357SOL     OW 1425   1.756   2.933   0.384  0.6152  0.3908 -0.0013
  357SOL    HW1 1426   1.715   2.863   0.440  3.0971 -0.4275 -1.7777
  357SOL    HW2 1427   1.842   2.895   0.368 -2.0116 -0.8005  4.0969
  357SOL     MW 1428   1.762   2.919   0.389  0.5961  0.1256  0.3050
  358SOL     OW 1429   0.425   0.121   1.041 -0.9003 -0.1837 -0.3996
  358SOL    HW1 1430   0.515   0.090   1.032 -0.6942 -1.7967  0.5090
  358SOL    HW2 1431   0.392   0.136   0.951  0.0488  0.9122 -2.4793
  358SOL     MW 1432   0.433   0.119   1.028 -0.7479 -0.2519 -0.5541
  359SOL     OW 1433   0.961   2.877   1.829 -0.4730  0.1196  0.1558
  359SOL    HW1 1434   0.931   2.786   1.862  0.9323  0.6314 -1.4316
  359SOL    HW2 1435   0.997   2.853   1.745 -1.5429  1.6941  2.8692
  359SOL     MW 1436   0.962   2.862   1.822 -0.4288  0.3949  0.3043
  360SOL     OW 1437   0.598   2.774   1.013 -0.5395  0.2862  0.0304
  360SOL    HW1 1438   0.631   2.736   0.931 -2.1643  2.4666 -3.1889
  360SOL    HW2 1439   0.577   2.687   1.054  1.2453 -2.6288  0.2186
  360SOL     MW 1440   0.600   2.758   1.007 -0.5184  0.1893 -0.3695
  361SOL     OW 1441   0.182   2.703   1.336  0.2609 -0.5724 -0.7136
  361SOL    HW1 1442   0.157   2.794   1.362  0.7645  2.8294 -0.4053
  361SOL    HW2 1443   0.273   2.686   1.351 -2.0625 -0.1583  0.2939
  361SOL     MW 1444   0.191   2.712   1.342  0.0208 -0.0689 -0.5400
  362SOL     OW 1445   1.484   2.434   0.603  0.0445 -0.0224  0.1085
  362SOL    HW1 1446   1.512   2.356   0.656 -1.0264  2.4184 -0.4659
  362SOL    HW2 1447   1.482   2.499   0.676 -3.5910 -1.0036 -0.5398
  362SOL     MW 1448   1.487   2.432   0.619 -0.5764  0.1702 -0.0528
  363SOL     OW 1449   0.289   3.022   0.736  0.4924 -0.0066 -0.6397
  363SOL    HW1 1450   0.289   2.969   0.815 -0.9288 -0.3358  0.7994
  363SOL    HW2 1451   0.197   3.033   0.724  0.3982  1.3282  2.9376
  363SOL     MW 1452   0.277   3.016   0.745  0.2924  0.1261  0.0221
  364SOL     OW 1453   0.734   0.167   0.256  0.2802  0.2396 -0.0660
  364SOL    HW1 1454   0.703   0.074   0.247  1.7366  1.1107  0.7737
  364SOL    HW2 1455   0.654   0.212   0.254  2.1584 -2.5270 -0.6161
  364SOL     MW 1456   0.719   0.161   0.255  0.7202 -0.0105 -0.0278
  365SOL     OW 1457   0.923   1.941   1.126 -0.0606 -0.2503 -0.0738
  365SOL    HW1 1458   0.881   2.016   1.086  2.8702 -1.8326 -2.4121
  365SOL    HW2 1459   0.877   1.863   1.087 -0.0001  0.0463  1.3020
  365SOL     MW 1460   0.911   1.940   1.115  0.3341 -0.4200 -0.2008
  366SOL     OW 1461   2.892   2.609   1.010  0.2950  0.4153  0.3847
  366SOL    HW1 1462   2.946   2.651   1.081  0.5144 -1.1491 -1.3258
  366SOL    HW2 1463   2.932   2.646   0.921  1.9212  1.1565  0.6117
  366SOL     MW 1464   2.904   2.620   1.008  0.5385  0.3067  0.1889
  367SOL     OW 1465   1.261   2.797   0.876 -0.4805  0.3283  0.1328
  367SOL    HW1 1466   1.181   2.847   0.902  1.0039 -0.1144 -1.5683
  367SOL    HW2 1467   1.234   2.754   0.799  1.0284 -0.7017  1.9656
  367SOL     MW 1468   1.247   2.798   0.870 -0.0856  0.1340  0.1502
  368SOL     OW 1469   1.670   0.469   0.661 -0.3590 -0.2970 -0.2835
  368SOL    HW1 1470   1.755   0.424   0.639 -0.2714  1.0867  0.5750
  368SOL    HW2 1471   1.691   0.560   0.646 -0.2950 -2.8754 -1.5645
  368SOL     MW 1472   1.684   0.475   0.656 -0.3390 -0.4546 -0.3392
  369SOL     OW 1473   0.146   2.462   1.706  0.0927 -0.4473  0.3120
  369SOL    HW1 1474   0.238   2.433   1.716  1.7903 -2.1381  0.0970
  369SOL    HW2 1475   0.133   2.549   1.750  2.4858  1.4800 -1.1496
  369SOL     MW 1476   0.156   2.470   1.713  0.6324 -0.4161  0.0908
  370SOL     OW 1477   0.725   0.078   0.995  1.1575  0.2073  0.1837
  370SOL    HW1 1478   0.772   0.161   0.994 -1.5214  1.0720 -1.7514
  370SOL    HW2 1479   0.777   0.015   1.043  0.4092  0.7870 -0.3527
  370SOL     MW 1480   0.738   0.080   1.001  0.7053  0.3979 -0.1424
  371SOL     OW 1481   1.316   2.988   1.498  0.2216  0.2769  0.0648
  371SOL    HW1 1482   1.252   2.932   1.457  1.1117  0.5344  1.0737
  371SOL    HW2 1483   1.338   3.058   1.436 -0.1353 -1.3493  1.5864
  371SOL     MW 1484   1.310   2.990   1.484  0.2920  0.0963  0.3987
  372SOL     OW 1485   0.830   2.292   0.474 -0.0446  0.1152 -0.3503
  372SOL    HW1 1486   0.805   2.198   0.480 -0.1630  1.1013  0.0404
  372SOL    HW2 1487   0.862   2.317   0.384  1.5900  0.6732  0.1157
  372SOL     MW 1488   0.831   2.283   0.463  0.1554  0.3190 -0.2372
  373SOL     OW 1489   2.825   2.998   1.394 -0.5089 -0.2399  0.2571
  373SOL    HW1 1490   2.896   2.948   1.349  1.1948  0.7009 -1.8069
  373SOL    HW2 1491   2.831   3.090   1.356 -0.6839 -0.7346 -1.6028
  373SOL     MW 1492   2.835   3.003   1.383 -0.3072 -0.1811 -0.2607
  374SOL     OW 1493   1.526   0.502   0.253  0.1478 -0.1408  0.1210
  374SOL    HW1 1494   1.611   0.544   0.257 -2.7760 -0.1712 -4.3373
  374SOL    HW2 1495   1.521   0.466   0.339 -0.8233  2.7817  0.3645
  374SOL     MW 1496   1.536   0.503   0.265 -0.3661  0.2408 -0.4351
  375SOL     OW 1497   1.125   2.119   2.314  0.1915 -0.1148  0.0745
  375SOL    HW1 1498   1.129   2.116   2.410  0.1322 -2.0098 -2.7866
  375SOL    HW2 1499   1.134   2.025   2.292  0.6946  0.1121 -0.8854
  375SOL     MW 1500   1.127   2.106   2.324  0.2500 -0.3349 -0.4296
  376SOL     OW 1501   0.691   2.515   0.061  0.3831 -0.9124 -0.1446
  376SOL    HW1 1502   0.726   2.462   0.131  0.5209 -1.1255 -3.4752
  376SOL    HW2 1503   0.648   2.452  -0.004 -1.8638 -1.4143 -2.7834
  376SOL     MW 1504   0.690   2.500   0.062  0.1048 -1.0067 -0.9322
  377SOL     OW 1505   1.304   1.960   0.853  0.0553 -0.1658  0.6441
  377SOL    HW1 1506   1.216   1.932   0.823  1.0066 -0.8167 -2.0551
  377SOL    HW2 1507   1.303   1.944   0.947 -0.7354 -1.1046 -0.3356
  377SOL     MW 1508   1.292   1.954   0.861  0.0765 -0.3755  0.1587
  378SOL     OW 1509   1.043   2.791   1.560  0.5116  0.4752 -0.0579
  378SOL    HW1 1510   0.968   2.738   1.589 -0.1075  0.7488 -0.1887
  378SOL    HW2 1511   1.000   2.855   1.497 -0.4124  1.8265  0.3780
  378SOL     MW 1512   1.028   2.793   1.555  0.3080  0.6896 -0.0177
  379SOL     OW 1513   1.115   1.801   2.254  0.3573  0.1660 -0.0643
  379SOL    HW1 1514   1.021   1.803   2.282 -2.4226 -1.1557  1.9919
  379SOL    HW2 1515   1.142   1.714   2.220 -1.5227 -1.2334 -0.1513
  379SOL     MW 1516   1.106   1.790   2.254 -0.2575 -0.1930  0.1955
  380SOL     OW 1517   0.870   0.071   1.546 -0.4319 -1.1426  0.3972
  380SOL    HW1 1518   0.927   0.069   1.468 -3.0622 -1.7240 -0.5931
  380SOL    HW2 1519   0.927   0.085   1.618  0.9871  1.6180  1.5799
  380SOL     MW 1520   0.885   0.073   1.545 -0.5917 -0.8551  0.4226
  381SOL     OW 1521   0.786   1.958   0.774 -0.0198  0.0536  0.1915
  381SOL    HW1 1522   0.884   1.955   0.767  1.0817 -0.9983 -0.0442
  381SOL    HW2 1523   0.769   2.027   0.832 -0.8508 -0.2467  0.0245
  381SOL     MW 1524   0.796   1.967   0.781  0.0159 -0.1248  0.1384
  382SOL     OW 1525   0.730   0.072   0.719 -0.0929  0.1755 -0.1046
  382SOL    HW1 1526   0.702   0.070   0.814  0.8953 -1.5153  3.2378
  382SOL    HW2 1527   0.682  -0.008   0.683 -1.8009 -1.3431 -0.1247
  382SOL     MW 1528   0.720   0.061   0.726 -0.1879 -0.2479  0.3337
  383SOL     OW 1529   0.442   0.047   0.365  0.7079 -0.4546 -0.1700
  383SOL    HW1 1530   0.477  -0.031   0.334  1.0959  3.4299 -0.2463
  383SOL    HW2 1531   0.368   0.013   0.413 -0.2172  0.3192  0.3279
  383SOL     MW 1532   0.437   0.032   0.367  0.6371  0.1600 -0.1144
  384SOL     OW 1533   0.637   2.914   0.655  0.0491 -0.0876  0.2728
  384SOL    HW1 1534   0.657   2.836   0.698  2.2186 -1.9070 -0.6525
  384SOL    HW2 1535   0.546   2.895   0.623  1.4407  0.7170 -0.4985
  384SOL     MW 1536   0.628   2.901   0.657  0.5189 -0.2215  0.0490
  385SOL     OW 1537   1.309   2.062   1.516 -0.2330 -0.4583 -0.2073
  385SOL    HW1 1538   1.379   2.082   1.575 -1.3320  0.4217 -0.0820
  385SOL    HW2 1539   1.259   1.989   1.554  2.4263  1.1239 -1.8638
  385SOL     MW 1540   1.312   2.055   1.529 -0.0271 -0.1334 -0.4093
  386SOL     OW 1541   1.372   0.332   0.824  0.1933  0.0247  0.4940
  386SOL    HW1 1542   1.318   0.284   0.768  2.7395 -0.3483 -5.1815
  386SOL    HW2 1543   1.319   0.338   0.906  0.7637 -3.2104  1.0417
  386SOL     MW 1544   1.358   0.327   0.827  0.6045 -0.4514 -0.1826
  387SOL     OW 1545   0.822   2.200   1.468 -0.2760  0.3413  0.1147
  387SOL    HW1 1546   0.894   2.250   1.422  0.0901  0.4939 -2.3815
  387SOL    HW2 1547   0.840   2.103   1.451 -1.6310 -2.3951 -0.8933
  387SOL     MW 1548   0.834   2.194   1.460 -0.4065  0.0004 -0.3476
  388SOL     OW 1549   1.559   2.775   1.272  0.5694 -0.1124 -0.1876
  388SOL    HW1 1550   1.475   2.737   1.242 -0.1479  1.5669 -0.4256
  388SOL    HW2 1551   1.622   2.732   1.211 -1.1127 -0.9075 -0.4974
  388SOL     MW 1552   1.556   2.765   1.260  0.2528  0.0043 -0.2599
  389SOL     OW 1553   0.363   0.063   3.078  0.1565 -1.1117 -0.9100
  389SOL    HW1 1554   0.446   0.051   3.030 -0.3199  0.0665 -1.5286
  389SOL    HW2 1555   0.294   0.091   3.008  1.2490  1.1661 -0.0024
  389SOL     MW 1556   0.365   0.065   3.062  0.2378 -0.6557 -0.8719
  390SOL     OW 1557   1.306   0.010   0.618 -0.6263  0.0705 -0.1740
  390SOL    HW1 1558   1.390   0.045   0.596  0.6707 -0.3902 -0.3582
  390SOL    HW2 1559   1.306  -0.027   0.705 -2.7225 -2.2978 -2.4377
  390SOL     MW 1560   1.317   0.010   0.627 -0.7317 -0.3028 -0.4970
  391SOL     OW 1561   0.290   2.272   1.507 -0.1653  0.3124 -0.3328
  391SOL    HW1 1562   0.226   2.203   1.524  0.4938  0.8077  0.0959
  391SOL    HW2 1563   0.232   2.350   1.485  0.9990 -0.4097 -0.6476
  391SOL     MW 1564   0.274   2.273   1.507  0.0753  0.2825 -0.3177
  392SOL     OW 1565   2.017   2.181   0.377  0.5927 -0.7209  0.0631
  392SOL    HW1 1566   1.938   2.205   0.429  0.2838  0.6362 -2.0751
  392SOL    HW2 1567   2.095   2.221   0.421  3.4448 -2.5850  0.3215
  392SOL     MW 1568   2.017   2.189   0.390  0.9283 -0.7878 -0.1850
  393SOL     OW 1569   0.233   2.992   2.811 -0.4575  0.2110 -0.2189
  393SOL    HW1 1570   0.282   3.067   2.780  1.5766  0.9569 -0.6150
  393SOL    HW2 1571   0.157   2.990   2.760  1.2074 -0.7857  3.5857
  393SOL     MW 1572   0.230   3.002   2.800  0.0305  0.1779  0.2308
  394SOL     OW 1573   0.873   1.681   1.475  0.2854 -0.0372  0.3998
  394SOL    HW1 1574   0.855   1.676   1.568 -0.4000  0.2946  0.9319
  394SOL    HW2 1575   0.859   1.773   1.455 -0.6096  0.7911 -1.8840
  394SOL     MW 1576   0.869   1.693   1.484  0.0769  0.1159  0.1687
  395SOL     OW 1577   0.966   2.850   2.620 -0.2345 -0.0810  0.2062
  395SOL    HW1 1578   1.005   2.929   2.663 -1.8283  3.0704 -0.5504
  395SOL    HW2 1579   1.050   2.793   2.595  2.1564 -0.2187  0.1327
  395SOL     MW 1580   0.982   2.853   2.623 -0.1293  0.3166  0.0967
  396SOL     OW 1581   0.844   1.841   2.372  0.6764 -0.2691  0.2842
  396SOL    HW1 1582   0.859   1.865   2.466  1.9417  1.4502  1.1638
  396SOL    HW2 1583   0.812   1.753   2.377 -1.1188  2.0821 -0.4461
  396SOL     MW 1584   0.842   1.833   2.385  0.6065  0.2680  0.3039
  397SOL     OW 1585   1.024   2.359   1.372 -0.3072  0.3647  0.1406
  397SOL    HW1 1586   1.071   2.400   1.297  2.7226  0.7083  2.7219
  397SOL    HW2 1587   1.102   2.342   1.430  1.8132 -1.2608 -0.9181
  397SOL     MW 1588   1.041   2.362   1.370  0.3723  0.1956  0.3415
  398SOL     OW 1589   0.656   2.632   0.785  0.1797  0.7247  0.6296
  398SOL    HW1 1590   0.604   2.578   0.724 -1.4006 -0.5736 -1.8463
  398SOL    HW2 1591   0.741   2.584   0.754 -2.0709 -2.7762  0.3908
  398SOL     MW 1592   0.661   2.618   0.773 -0.3258  0.0915  0.2715
  399SOL     OW 1593   0.283   2.016   0.439  0.0826  0.8310  0.4427
  399SOL    HW1 1594   0.191   2.057   0.430 -1.8389  2.1562 -2.3450
  399SOL    HW2 1595   0.334   2.040   0.356  0.7175 -2.4742 -1.0698
  399SOL     MW 1596   0.278   2.024   0.427 -0.0872  0.5697 -0.1246
  400SOL     OW 1597   0.567   1.829   0.176 -0.3166 -0.1259  0.8592
  400SOL    HW1 1598   0.540   1.916   0.191 -0.8698  1.3482  1.1124
  400SOL    HW2 1599   0.552   1.783   0.258 -1.6828  1.6138 -2.0028
  400SOL     MW 1600   0.561   1.835   0.189 -0.5698  0.2981  0.5150
  401SOL     OW 1601   0.909   2.076   0.200  0.3637 -0.0648 -0.1773
  401SOL    HW1 1602   0.916   1.984   0.192 -1.0003 -2.5816 -0.7601
  401SOL    HW2 1603   0.967   2.098   0.270 -2.9373 -0.4978 -0.7415
  401SOL     MW 1604   0.918   2.067   0.208 -0.2518 -0.4540 -0.3286
  402SOL     OW 1605   0.681   2.965   1.683  0.3713  0.7873 -0.2430
  402SOL    HW1 1606   0.746   2.928   1.739 -0.5840  0.5097 -2.7472
  402SOL    HW2 1607   0.720   3.048   1.651 -0.3182 -0.7724  1.6733
  402SOL     MW 1608   0.695   2.971   1.686  0.1543  0.5449 -0.3205
  403SOL     OW 1609   0.073   0.389   0.440  0.6628  0.0422 -0.3481
  403SOL    HW1 1610   0.157   0.422   0.483 -0.2568  4.9841 -1.7389
  403SOL    HW2 1611   0.099   0.387   0.350 -1.6013  1.9310 -0.6046
  403SOL     MW 1612   0.087   0.393   0.434  0.2427  0.9434 -0.5654
  404SOL     OW 1613   0.982   2.863   0.798 -0.0596 -0.0523 -0.2137
  404SOL    HW1 1614   1.015   2.805   0.731 -2.5860  0.2438  0.7305
  404SOL    HW2 1615   0.991   2.953   0.757  0.0185  0.5116 -1.1458
  404SOL     MW 1616   0.987   2.867   0.784 -0.3826  0.0612 -0.2121
  405SOL     OW 1617   0.498   2.429   1.573  0.6250 -0.0571 -0.2347
  405SOL    HW1 1618   0.488   2.499   1.511  0.2484 -3.8773  0.3199
  405SOL    HW2 1619   0.419   2.366   1.547 -3.5673  0.3569 -2.0527
  405SOL     MW 1620   0.486   2.430   1.562  0.0222 -0.5065 -0.4014
  406SOL     OW 1621   0.395   2.315   1.097 -0.3178  0.4457  0.3827
  406SOL    HW1 1622   0.298   2.318   1.070 -1.6753  1.9595 -3.0092
  406SOL    HW2 1623   0.407   2.243   1.168 -0.1248 -2.2622 -0.0636
  406SOL     MW 1624   0.384   2.306   1.103 -0.4714  0.2882 -0.1238
  407SOL     OW 1625   0.015   2.727   1.104 -0.5372  0.1892  0.0053
  407SOL    HW1 1626   0.047   2.693   1.187 -1.7325  0.8614 -1.3301
  407SOL    HW2 1627   0.097   2.720   1.044  3.7277  0.6746 -1.6829
  407SOL     MW 1628   0.030   2.721   1.107 -0.1322  0.3419 -0.3936
  408SOL     OW 1629   2.093   2.048   0.668 -0.2840  0.3530  0.2356
  408SOL    HW1 1630   2.044   2.069   0.750  0.0115 -3.1948  2.2181
  408SOL    HW2 1631   2.031   2.030   0.607 -0.8115  0.2965  0.9391
  408SOL     MW 1632   2.079   2.048   0.671 -0.3146 -0.1225  0.5900
  409SOL     OW 1633   1.371   0.069   0.901  0.7803 -0.3829  0.5957
  409SOL    HW1 1634   1.412   0.153   0.867 -0.5077  0.3985 -3.9450
  409SOL    HW2 1635   1.436   0.029   0.956  0.2422  0.5078 -0.5864
  409SOL     MW 1636   1.385   0.075   0.904  0.5394 -0.1622 -0.1594
  410SOL     OW 1637   1.106   2.441   1.115 -0.2548 -0.0085 -1.0114
  410SOL    HW1 1638   1.021   2.453   1.077  0.0346  1.1997  2.2933
  410SOL    HW2 1639   1.128   2.352   1.077  1.7680  0.3175 -0.3042
  410SOL     MW 1640   1.098   2.431   1.105  0.0503  0.1939 -0.4821
  411SOL     OW 1641   1.956   0.050   2.877  0.2848 -0.4694  0.3480
  411SOL    HW1 1642   1.924   0.015   2.786 -1.0193  0.7156 -0.4059
  411SOL    HW2 1643   1.884   0.049   2.940 -0.1401 -3.6449  2.7190
  411SOL     MW 1644   1.942   0.045   2.873  0.0566 -0.7320  0.5614
  412SOL     OW 1645   1.080   2.212   0.600 -0.2737  0.5549  0.0057
  412SOL    HW1 1646   1.119   2.283   0.646 -2.5147 -0.2646 -1.4049
  412SOL    HW2 1647   0.994   2.237   0.582 -0.0843 -2.2503 -2.2757
  412SOL     MW 1648   1.074   2.224   0.604 -0.5444  0.0767 -0.4814
  413SOL     OW 1649   0.538   2.773   0.081 -0.4611 -0.0597 -0.5827
  413SOL    HW1 1650   0.554   2.679   0.085  1.7548  0.7554 -0.2465
  413SOL    HW2 1651   0.564   2.812  -0.003  1.3127 -0.0493  0.1251
  413SOL     MW 1652   0.544   2.765   0.070  0.0653  0.0492 -0.4449
  414SOL     OW 1653   1.954   2.995   1.067 -0.7635 -0.3234 -0.1091
  414SOL    HW1 1654   1.907   3.008   0.985  2.3150  2.9802  0.6884
  414SOL    HW2 1655   2.025   2.929   1.059 -0.7249 -1.4949 -1.3997
  414SOL     MW 1656   1.957   2.988   1.055 -0.3522 -0.0421 -0.1742
  415SOL     OW 1657   1.709   2.639   1.098  0.3754 -0.6773  0.8444
  415SOL    HW1 1658   1.646   2.579   1.147  0.4345 -0.7242  0.8398
  415SOL    HW2 1659   1.798   2.628   1.141  0.7710 -1.9737  0.5623
  415SOL     MW 1660   1.713   2.630   1.110  0.4354 -0.8545  0.8066
  416SOL     OW 1661   0.613   1.909   1.348 -0.5436  0.0693 -0.4511
  416SOL    HW1 1662   0.556   1.984   1.328 -2.6052  0.1558 -0.3027
  416SOL    HW2 1663   0.623   1.862   1.264  0.4304 -1.4173 -1.2446
  416SOL     MW 1664   0.606   1.913   1.334 -0.6871 -0.1155 -0.5362
  417SOL     OW 1665   1.006   3.047   2.038 -0.2705 -0.5450 -0.1030
  417SOL    HW1 1666   0.927   3.029   2.092 -0.6717 -2.8904 -1.6301
  417SOL    HW2 1667   0.984   2.991   1.962 -1.0146  0.0206  1.1540
  417SOL     MW 1668   0.993   3.038   2.035 -0.4216 -0.7798 -0.1386
  418SOL     OW 1669   0.629   2.988   0.220 -0.0683  0.1417 -0.3253
  418SOL    HW1 1670   0.708   3.002   0.163  0.0652  2.2433 -0.4655
  418SOL    HW2 1671   0.588   2.903   0.191  0.9165  1.3203  1.9600
  418SOL     MW 1672   0.634   2.979   0.209  0.0792  0.5745 -0.0423
  419SOL     OW 1673   0.459   2.641   1.387  0.6145 -0.0648 -0.0095
  419SOL    HW1 1674   0.516   2.723   1.391  1.0091 -0.3435  2.4279
  419SOL    HW2 1675   0.479   2.615   1.294  1.3230  0.8918 -0.4611
  419SOL     MW 1676   0.469   2.648   1.375  0.7600  0.0246  0.2525
  420SOL     OW 1677   0.756   2.133   0.994 -0.2410  0.0317  0.3322
  420SOL    HW1 1678   0.716   2.151   1.082  0.0008  0.5562 -0.2679
  420SOL    HW2 1679   0.801   2.220   0.983  0.0123  1.6152 -0.7262
  420SOL     MW 1680   0.757   2.147   1.004 -0.1757  0.3098  0.1134
  421SOL     OW 1681   2.942   0.078   0.030  0.1138  0.4609  0.1562
  421SOL    HW1 1682   2.917   0.032  -0.054  1.1474  0.5535 -1.2105
  421SOL    HW2 1683   2.987   0.012   0.078 -1.0216 -0.3988 -0.4404
  421SOL     MW 1684   2.945   0.063   0.025  0.1004  0.3597 -0.1028
  422SOL     OW 1685   0.828   2.457   0.993 -0.0586  0.0372  0.2083
  422SOL    HW1 1686   0.736   2.481   1.005 -0.4281 -0.8380  2.3469
  422SOL    HW2 1687   0.854   2.491   0.907  0.8707 -2.2101  0.3080
  422SOL     MW 1688   0.819   2.465   0.983  0.0153 -0.3748  0.5036
  423SOL     OW 1689   1.522   0.148   0.508 -0.4887 -0.2981  0.3022
  423SOL    HW1 1690   1.530   0.157   0.407  1.6577 -3.3581 -0.1154
  423SOL    HW2 1691   1.506   0.236   0.531 -0.6209 -0.8651  0.2196
  423SOL     MW 1692   1.521   0.160   0.498 -0.2230 -0.7766  0.2362
  424SOL     OW 1693   0.687   2.245   1.244 -0.1492 -0.4232 -0.2354
  424SOL    HW1 1694   0.600   2.228   1.256  2.6126 -1.7128 -3.0227
  424SOL    HW2 1695   0.726   2.215   1.327 -0.3044 -0.9628 -0.9963
  424SOL     MW 1696   0.681   2.239   1.257  0.1947 -0.6646 -0.7035
  425SOL     OW 1697   1.717   2.825   1.920  0.0647 -0.2599 -0.1485
  425SOL    HW1 1698   1.745   2.839   1.826 -1.2725  1.2461 -0.3286
  425SOL    HW2 1699   1.763   2.747   1.961 -2.7114 -0.0253  1.6793
  425SOL     MW 1700   1.726   2.816   1.913 -0.4780 -0.0303  0.0689
  426SOL     OW 1701   0.816   1.698   1.934  0.0949  0.4735 -0.0437
  426SOL    HW1 1702   0.763   1.709   1.859 -1.4632  1.5354  0.1961
  426SOL    HW2 1703   0.787   1.776   1.978 -2.2186  0.0584  0.7142
  426SOL     MW 1704   0.805   1.710   1.930 -0.4159  0.5588  0.0879
  427SOL     OW 1705   0.323   1.545   1.891  0.2294 -0.1174 -0.1237
  427SOL    HW1 1706   0.368   1.511   1.963  0.5202 -1.7595 -0.5762
  427SOL    HW2 1707   0.234   1.504   1.883  1.2507  0.3145  0.0766
  427SOL     MW 1708   0.317   1.535   1.900  0.4025 -0.2770 -0.1570
  428SOL     OW 1709   0.553   2.544   1.133 -0.6971 -0.0355 -0.1521
  428SOL    HW1 1710   0.638   2.537   1.182 -1.5593 -0.6555 -1.5295
  428SOL    HW2 1711   0.503   2.462   1.140  0.3406  0.8959 -1.7188
  428SOL     MW 1712   0.557   2.532   1.140 -0.6739  0.0056 -0.5405
  429SOL     OW 1713   1.343   2.608   1.086 -0.0240 -0.1218  0.1620
  429SOL    HW1 1714   1.259   2.566   1.115  0.0187 -0.5935 -0.5167
  429SOL    HW2 1715   1.316   2.684   1.025 -1.0746 -1.0167 -2.1653
  429SOL     MW 1716   1.329   2.613   1.081 -0.1570 -0.3021 -0.2346
  430SOL     OW 1717   1.112   2.688   0.634  0.1336 -0.1618 -0.2411
  430SOL    HW1 1718   1.160   2.604   0.635 -1.4121 -0.0048 -0.7574
  430SOL    HW2 1719   1.068   2.697   0.549 -1.3153  1.4032  1.3535
  430SOL     MW 1720   1.113   2.678   0.623 -0.2615  0.0654 -0.0988
  431SOL     OW 1721   0.336   1.945   1.112 -0.3396 -0.2447 -0.3425
  431SOL    HW1 1722   0.412   1.885   1.116  0.8897 -2.4909  0.6032
  431SOL    HW2 1723   0.320   1.953   1.018 -0.4739  0.1974 -2.6358
  431SOL     MW 1724   0.344   1.938   1.100 -0.1951 -0.4828 -0.5203
  432SOL     OW 1725   0.037   0.096   1.178 -0.2189  0.6394 -0.0889
  432SOL    HW1 1726   0.036   0.114   1.274 -1.1703  0.8393 -0.9159
  432SOL    HW2 1727  -0.024   0.014   1.168 -2.8945  0.4360 -0.2719
  432SOL     MW 1728   0.029   0.088   1.189 -0.6975  0.6389 -0.2222
  433SOL     OW 1729   0.610   2.888   1.413 -0.1061 -0.2952 -0.4514
  433SOL    HW1 1730   0.636   2.918   1.501 -0.9269 -0.2656 -1.5454
  433SOL    HW2 1731   0.688   2.900   1.359 -1.2919 -3.1993  1.6035
  433SOL     MW 1732   0.624   2.894   1.418 -0.3709 -0.6745 -0.3246
  434SOL     OW 1733   1.564   2.816   1.527  0.5293  0.0691 -0.1288
  434SOL    HW1 1734   1.478   2.861   1.522 -1.6004 -0.6841 -2.1209
  434SOL    HW2 1735   1.581   2.797   1.435 -1.8952 -1.4719  2.0686
  434SOL     MW 1736   1.555   2.819   1.514 -0.0716 -0.2336 -0.1017
  435SOL     OW 1737   2.863   1.772   0.184 -0.5001  0.3916 -0.4186
  435SOL    HW1 1738   2.923   1.841   0.151  2.3462 -0.1279 -1.1513
  435SOL    HW2 1739   2.833   1.727   0.109  2.6519  1.2596 -0.5812
  435SOL     MW 1740   2.867   1.775   0.170  0.2913  0.4376 -0.5367
  436SOL     OW 1741   1.387   2.747   0.329 -0.4770  0.2464  0.1286
  436SOL    HW1 1742   1.460   2.726   0.389 -3.2089 -2.2457  1.2295
  436SOL    HW2 1743   1.338   2.824   0.366  1.0852 -1.9915 -0.3562
  436SOL     MW 1744   1.390   2.754   0.341 -0.6313 -0.3777  0.2099
  437SOL     OW 1745   0.886   2.900   1.359 -0.5433 -0.7551  0.3344
  437SOL    HW1 1746   0.901   2.993   1.339 -0.5677 -0.0282 -0.4625
  437SOL    HW2 1747   0.943   2.847   1.304  1.2999  0.7795  0.7809
  437SOL     MW 1748   0.895   2.905   1.349 -0.3033 -0.4567  0.2882
  438SOL     OW 1749   0.913   2.639   1.955  0.5590  0.3042 -0.4180
  438SOL    HW1 1750   0.889   2.573   2.028  0.5739  1.3978  2.4738
  438SOL    HW2 1751   0.869   2.609   1.875 -0.9857  1.2800  0.8255
  438SOL     MW 1752   0.904   2.626   1.954  0.3571  0.5772  0.1276
  439SOL     OW 1753   1.143   2.172   0.339 -0.0380 -0.1908 -0.0293
  439SOL    HW1 1754   1.117   2.208   0.427 -0.5775 -1.5665  1.7215
  439SOL    HW2 1755   1.146   2.258   0.290 -1.8166  0.0299  0.6030
  439SOL     MW 1756   1.140   2.188   0.344 -0.3439 -0.3432  0.2851
  440SOL     OW 1757   1.599   2.911   3.028  0.1742 -0.8987  0.0074
  440SOL    HW1 1758   1.576   2.891   3.119 -2.2172 -0.3412 -1.4815
  440SOL    HW2 1759   1.651   2.835   2.999 -4.1464 -0.4237 -1.5459
  440SOL     MW 1760   1.603   2.898   3.036 -0.7114 -0.7625 -0.3940
  441SOL     OW 1761   0.341   2.575   0.521 -0.2800  0.0158  0.3545
  441SOL    HW1 1762   0.349   2.553   0.428 -2.1827  0.4283 -0.5643
  441SOL    HW2 1763   0.356   2.668   0.539  2.9438 -2.1305  0.8196
  441SOL     MW 1764   0.344   2.584   0.511 -0.1057 -0.2130  0.2946
  442SOL     OW 1765   3.054   2.286   0.636  0.3044  0.0849 -0.1228
  442SOL    HW1 1766   3.062   2.380   0.612 -2.8091  0.2101 -2.8146
  442SOL    HW2 1767   2.971   2.278   0.685  2.1756 -0.9490  1.2272
  442SOL     MW 1768   3.044   2.297   0.639  0.1405 -0.0350 -0.2998
  443SOL     OW 1769   1.361   1.746   1.834  0.6682  0.6826  0.2065
  443SOL    HW1 1770   1.311   1.803   1.767  1.2829  0.5637  0.3165
  443SOL    HW2 1771   1.332   1.655   1.827  2.3344  1.5462  1.5697
  443SOL     MW 1772   1.350   1.742   1.824  0.9692  0.7809  0.4009
  444SOL     OW 1773   0.867   2.584   1.550  0.7882  0.0770  0.3863
  444SOL    HW1 1774   0.941   2.516   1.571  0.5678 -5.0011 -1.5565
  444SOL    HW2 1775   0.801   2.555   1.616 -0.9086 -0.0340 -0.9879
  444SOL     MW 1776   0.868   2.571   1.561  0.5353 -0.6077 -0.0514
  445SOL     OW 1777   0.966   0.073   1.275 -0.0681  0.3895 -0.1773
  445SOL    HW1 1778   0.914   0.151   1.247 -1.4254  1.3027 -1.8350
  445SOL    HW2 1779   1.033   0.059   1.210  2.9043  2.9149 -0.2868
  445SOL     MW 1780   0.968   0.082   1.263  0.1450  0.8432 -0.4105
  446SOL     OW 1781   2.701   2.813   1.057 -0.3859 -0.6004  0.5746
  446SOL    HW1 1782   2.652   2.840   0.978  1.2296  1.8578 -0.1892
  446SOL    HW2 1783   2.745   2.729   1.038 -0.3801 -1.8963 -0.4025
  446SOL     MW 1784   2.700   2.806   1.044 -0.1720 -0.4471  0.3449
  447SOL     OW 1785   3.044   2.038   1.713  0.0203 -0.0898  0.0253
  447SOL    HW1 1786   3.114   1.974   1.734 -1.7249  1.9927 -1.3199
  447SOL    HW2 1787   2.970   1.984   1.676 -0.0407 -0.6679 -0.9446
  447SOL     MW 1788   3.043   2.022   1.711 -0.2180  0.1087 -0.2802
  448SOL     OW 1789   1.671   2.358   1.657 -0.3677  0.8921 -0.2556
  448SOL    HW1 1790   1.618   2.276   1.657  1.5148  2.2567  0.5799
  448SOL    HW2 1791   1.611   2.437   1.672  1.7758 -2.1984  2.2063
  448SOL     MW 1792   1.656   2.358   1.659  0.1635  0.6644  0.1795
  449SOL     OW 1793   0.797   2.963   0.446 -0.3846 -0.4321 -0.3906
  449SOL    HW1 1794   0.734   2.946   0.375 -0.8602  0.0455  0.3735
  449SOL    HW2 1795   0.752   2.930   0.526 -0.7976 -0.4972 -0.5581
  449SOL     MW 1796   0.783   2.956   0.447 -0.5018 -0.3777 -0.3119
  450SOL     OW 1797   1.224   2.411   0.694 -0.3035 -0.1028  0.3633
  450SOL    HW1 1798   1.242   2.380   0.784  1.2275  2.3385  2.4257
  450SOL    HW2 1799   1.315   2.419   0.665 -0.8083  0.0203 -0.0484
  450SOL     MW 1800   1.238   2.408   0.702 -0.1681  0.2356  0.5811
  451SOL     OW 1801   0.585   2.030   1.656  0.0211 -0.1152 -0.0112
  451SOL    HW1 1802   0.656   2.088   1.702 -1.2848  1.0288  0.8760
  451SOL    HW2 1803   0.587   2.063   1.563  0.1910 -1.9990 -1.8906
  451SOL     MW 1804   0.595   2.042   1.650 -0.1288 -0.2128 -0.1421
  452SOL     OW 1805   0.267   2.734   0.116 -0.6165 -0.0168 -0.7307
  452SOL    HW1 1806   0.355   2.760   0.099  0.5640  2.5955 -2.0316
  452SOL    HW2 1807   0.227   2.717   0.022 -0.1441  0.6890 -1.0798
  452SOL     MW 1808   0.273   2.735   0.101 -0.3985  0.4210 -0.9484
  453SOL     OW 1809   0.410   2.982   1.703 -0.1488  0.6564 -0.1874
  453SOL    HW1 1810   0.509   2.982   1.686  0.7759 -1.3687 -2.9796
  453SOL    HW2 1811   0.374   2.991   1.615  0.7234  0.1075  2.2654
  453SOL     MW 1812   0.419   2.983   1.689  0.0883  0.3168 -0.2322
  454SOL     OW 1813   1.020   2.776   1.184 -0.5617 -0.6806  0.6179
  454SOL    HW1 1814   0.975   2.691   1.164 -0.9076 -1.3502  2.6876
  454SOL    HW2 1815   0.982   2.832   1.116  0.2439 -2.2673 -2.4932
  454SOL     MW 1816   1.009   2.772   1.172 -0.5011 -0.9783  0.4805
  455SOL     OW 1817   1.530   2.959   0.202 -0.2693 -0.2382  0.1060
  455SOL    HW1 1818   1.616   2.942   0.240 -0.4908 -0.8296 -1.4628
  455SOL    HW2 1819   1.472   2.883   0.226 -0.9375 -0.9279 -0.0220
  455SOL     MW 1820   1.534   2.947   0.210 -0.3867 -0.4072 -0.1179
  456SOL     OW 1821   2.894   0.384   1.329 -0.4301  0.7006 -0.1092
  456SOL    HW1 1822   2.861   0.305   1.285  0.1453 -1.1916 -4.8713
  456SOL    HW2 1823   2.966   0.413   1.272 -1.4439  1.0113  1.0329
  456SOL     MW 1824   2.899   0.377   1.316 -0.4879  0.4919 -0.5868
  457SOL     OW 1825   0.888   1.560   2.994  0.2363  0.2670  0.2280
  457SOL    HW1 1826   0.807   1.569   3.053  2.3663 -1.0172  1.4127
  457SOL    HW2 1827   0.955   1.507   3.028  1.5940  3.9403 -1.1285
  457SOL     MW 1828   0.886   1.554   3.007  0.6964  0.5822  0.2053
  458SOL     OW 1829   1.475   1.413   0.635  0.0226  0.3621 -0.0500
  458SOL    HW1 1830   1.386   1.409   0.676 -1.7038  0.1350  0.5478
  458SOL    HW2 1831   1.461   1.366   0.559 -0.7945  0.8502  3.0429
  458SOL     MW 1832   1.461   1.406   0.631 -0.3130  0.3965  0.4369
  459SOL     OW 1833   1.565   0.148   0.239  0.6983  0.0668 -0.4108
  459SOL    HW1 1834   1.555   0.051   0.230 -0.9754  0.5467 -1.1383
  459SOL    HW2 1835   1.508   0.198   0.171  0.1859 -1.0107  1.2738
  459SOL     MW 1836   1.556   0.142   0.229  0.4098 -0.0121 -0.2845
  460SOL     OW 1837   1.730   2.158   0.631  0.0061  0.5503  0.3245
  460SOL    HW1 1838   1.632   2.134   0.649 -0.9081 -4.2343  0.5419
  460SOL    HW2 1839   1.761   2.063   0.621  0.4265 -0.3201  2.0697
  460SOL     MW 1840   1.721   2.143   0.632 -0.0591 -0.1958  0.5835
  461SOL     OW 1841   0.553   2.436   0.612 -0.5010 -0.2248 -0.3518
  461SOL    HW1 1842   0.498   2.484   0.551  0.6913 -0.2894 -1.1906
  461SOL    HW2 1843   0.510   2.429   0.705  2.4915  1.1360  1.1685
  461SOL     MW 1844   0.540   2.441   0.617  0.0511 -0.0537 -0.2619
  462SOL     OW 1845   0.297   0.252   1.262 -0.5357 -0.0218  0.6348
  462SOL    HW1 1846   0.335   0.202   1.193 -1.2644 -0.7465 -3.6003
  462SOL    HW2 1847   0.374   0.271   1.317 -3.2740 -1.2456 -1.5905
  462SOL     MW 1848   0.312   0.248   1.261 -0.9931 -0.2789 -0.2176
  463SOL     OW 1849   0.994   0.036   0.693 -0.3115 -0.5504 -0.1711
  463SOL    HW1 1850   1.020   0.055   0.601  2.0344 -1.1481  0.0587
  463SOL    HW2 1851   0.898   0.057   0.696 -0.2554  0.3429  0.4810
  463SOL     MW 1852   0.985   0.041   0.681  0.0054 -0.5114 -0.0547
  464SOL     OW 1853   0.754   2.947   2.164  0.6463  0.2997  0.0673
  464SOL    HW1 1854   0.712   2.860   2.183 -0.4712  5.1314  0.3643
  464SOL    HW2 1855   0.772   2.990   2.249  2.0724  3.5687  2.0772
  464SOL     MW 1856   0.751   2.941   2.178  0.6870  1.3685  0.3717
  465SOL     OW 1857   0.727   0.269   0.529 -0.2050  0.5907  0.6570
  465SOL    HW1 1858   0.715   0.195   0.591 -2.2134  2.0187  0.1419
  465SOL    HW2 1859   0.746   0.239   0.440 -0.4591 -0.4073  0.3828
  465SOL     MW 1860   0.727   0.256   0.525 -0.5035  0.6474  0.5529
  466SOL     OW 1861   1.067   1.978   0.721 -0.0632  0.4580  0.1335
  466SOL    HW1 1862   1.049   1.909   0.654  0.2188 -0.1692  0.5861
  466SOL    HW2 1863   1.082   2.059   0.668  2.0842 -0.4653 -0.4048
  466SOL     MW 1864   1.066   1.980   0.705  0.2574  0.2535  0.1222
  467SOL     OW 1865   1.232   2.253   0.941  0.1080 -0.2702 -0.6659
  467SOL    HW1 1866   1.327   2.275   0.949  2.3216 -2.6981 -1.9800
  467SOL    HW2 1867   1.228   2.160   0.907 -0.2996 -1.0578 -2.1623
  467SOL     MW 1868   1.244   2.244   0.938  0.3463 -0.6945 -1.0367
  468SOL     OW 1869   0.354   2.592   2.004  0.0628 -0.1012 -0.0079
  468SOL    HW1 1870   0.361   2.529   1.932  2.6088 -2.9742  1.2851
  468SOL    HW2 1871   0.409   2.670   1.984 -3.5132 -2.1151 -1.8909
  468SOL     MW 1872   0.362   2.594   1.992 -0.0731 -0.7460 -0.0857
  469SOL     OW 1873   0.384   2.143   1.816 -0.4209  0.2269 -0.1754
  469SOL    HW1 1874   0.312   2.085   1.833  1.7829  1.0429 -1.3816
  469SOL    HW2 1875   0.457   2.090   1.783 -0.7449 -0.1853  2.6172
  469SOL     MW 1876   0.384   2.128   1.814 -0.1729  0.2802  0.0339
  470SOL     OW 1877   3.033   2.554   0.152 -0.3137  0.3647 -0.5561
  470SOL    HW1 1878   2.951   2.545   0.204  0.9539  1.9554  2.1596
  470SOL    HW2 1879   3.001   2.552   0.062  0.1538 -0.6065 -1.8386
  470SOL     MW 1880   3.018   2.553   0.147 -0.0848  0.4464 -0.3670
  471SOL     OW 1881   1.247   2.738   1.366  0.5659 -0.1361  0.8585
  471SOL    HW1 1882   1.172   2.744   1.431 -1.2890 -0.2131  1.1257
  471SOL    HW2 1883   1.200   2.764   1.285  3.5931 -0.7643  0.0883
  471SOL     MW 1884   1.231   2.742   1.364  0.7206 -0.2291  0.7922
  472SOL     OW 1885   2.901   2.094   0.323  0.2898 -0.2291  0.0027
  472SOL    HW1 1886   2.935   2.052   0.234 -2.1212  1.3927 -0.5912
  472SOL    HW2 1887   2.875   2.019   0.387 -2.1971  0.7374  1.3369
  472SOL     MW 1888   2.902   2.079   0.319 -0.3564  0.1124  0.1003
  473SOL     OW 1889   0.785   2.551   1.267  0.1439  0.2780 -0.9531
  473SOL    HW1 1890   0.792   2.454   1.257  2.5007 -0.4135  1.6243
  473SOL    HW2 1891   0.810   2.549   1.364  2.0340 -2.3245  0.4267
  473SOL     MW 1892   0.789   2.538   1.278  0.7042 -0.1566 -0.4310
  474SOL     OW 1893   0.774   2.237   1.723 -0.5623  0.2929 -0.3455
  474SOL    HW1 1894   0.863   2.242   1.766  0.9737  0.4176  1.2140
  474SOL    HW2 1895   0.803   2.230   1.629  0.1331 -1.4559 -2.6251
  474SOL     MW 1896   0.789   2.237   1.716 -0.2679  0.0786 -0.4405
  475SOL     OW 1897   1.624   3.095   1.437 -0.2580  0.6357  0.1622
  475SOL    HW1 1898   1.548   3.147   1.399  0.0693  2.1053 -0.8310
  475SOL    HW2 1899   1.586   3.012   1.464 -1.4790  1.8739 -0.6687
  475SOL     MW 1900   1.609   3.091   1.436 -0.3759  0.9930 -0.0785
  476SOL     OW 1901   1.477   2.593   0.807  0.3781  0.8050  0.4755
  476SOL    HW1 1902   1.424   2.599   0.887  1.1181 -3.3371 -1.1542
  476SOL    HW2 1903   1.502   2.682   0.792  1.5736 -0.4089 -0.7510
  476SOL     MW 1904   1.473   2.606   0.816  0.6335  0.0983  0.0987
  477SOL     OW 1905   0.860   2.498   0.676 -0.0146 -0.5059  0.6704
  477SOL    HW1 1906   0.880   2.567   0.615 -2.1602  2.1179 -3.7602
  477SOL    HW2 1907   0.801   2.447   0.620 -1.6574  0.7468  0.6689
  477SOL     MW 1908   0.855   2.500   0.661 -0.5144  0.0056  0.0856
  478SOL     OW 1909   0.238   2.640   0.904 -0.2306  0.7810 -0.0777
  478SOL    HW1 1910   0.281   2.730   0.939  2.1240  0.8163  1.2851
  478SOL    HW2 1911   0.304   2.583   0.863 -0.8993 -1.0021 -0.2884
  478SOL     MW 1912   0.252   2.644   0.903 -0.0082  0.5504  0.0743
  479SOL     OW 1913   1.399   1.939   1.300  0.2362 -0.4298 -0.1947
  479SOL    HW1 1914   1.385   1.986   1.383 -0.0376  2.2737  2.0448
  479SOL    HW2 1915   1.464   1.874   1.324  1.5579 -0.3675  0.4757
  479SOL     MW 1916   1.406   1.937   1.314  0.3744 -0.0649  0.1892
  480SOL     OW 1917   1.852   2.394   1.304  0.2122  0.1468  0.3860
  480SOL    HW1 1918   1.856   2.299   1.326 -1.6427  0.1579 -1.0425
  480SOL    HW2 1919   1.899   2.395   1.219 -2.1719  0.1318 -0.5970
  480SOL     MW 1920   1.859   2.382   1.296 -0.3471  0.1463  0.0678
  481SOL     OW 1921   1.200   0.123   1.106 -0.6412  0.0679  0.0597
  481SOL    HW1 1922   1.266   0.091   1.041  0.9709 -2.6434 -0.7840
  481SOL    HW2 1923   1.198   0.217   1.088 -2.2008 -0.5031  1.3980
  481SOL     MW 1924   1.208   0.131   1.095 -0.6343 -0.3651  0.1249
  482SOL     OW 1925   1.046   0.038   0.434 -0.3165 -0.1854  0.0294
  482SOL    HW1 1926   0.977  -0.027   0.425 -1.0741  1.8374 -1.1025
  482SOL    HW2 1927   1.021   0.109   0.376  0.0062  0.2670 -0.4820
  482SOL     MW 1928   1.034   0.039   0.425 -0.3739  0.1412 -0.1874
  483SOL     OW 1929   0.387   2.860   0.552  0.5690  0.1435 -0.3712
  483SOL    HW1 1930   0.334   2.858   0.478  3.5485  0.9858  0.5290
  483SOL    HW2 1931   0.351   2.927   0.616  0.9511  2.6698 -1.6628
  483SOL     MW 1932   0.375   2.869   0.551  1.0125  0.5879 -0.4228
  484SOL     OW 1933   1.668   1.851   1.445 -0.2823 -0.0616 -0.2653
  484SOL    HW1 1934   1.734   1.921   1.426  2.7203  1.7742  0.4105
  484SOL    HW2 1935   1.667   1.854   1.542 -0.7806  0.7150  0.4099
  484SOL     MW 1936   1.676   1.861   1.455  0.0481  0.2831 -0.0870
  485SOL     OW 1937   0.549   2.291   0.359  0.0787 -0.4727 -0.3024
  485SOL    HW1 1938   0.644   2.306   0.376  2.9227 -1.0333  0.8842
  485SOL    HW2 1939   0.521   2.370   0.299 -6.4616  1.7274  0.5157
  485SOL     MW 1940   0.558   2.303   0.353 -0.4090 -0.2563 -0.0379
  486SOL     OW 1941   0.101   2.469   1.429 -0.1560 -0.1190  0.2769
  486SOL    HW1 1942   0.112   2.567   1.400 -0.7036 -0.7819 -1.6035
  486SOL    HW2 1943   0.078   2.485   1.522 -1.0734 -2.0644 -0.8505
  486SOL     MW 1944   0.100   2.484   1.438 -0.3493 -0.4631 -0.1199
  487SOL     OW 1945   1.260   1.626   0.979 -0.4754  0.0158  0.3744
  487SOL    HW1 1946   1.222   1.709   1.011  1.4885  1.7912  2.8022
  487SOL    HW2 1947   1.349   1.643   1.008  0.6207  0.3738 -0.9002
  487SOL     MW 1948   1.267   1.640   0.987 -0.0717  0.2973  0.5266
  488SOL     OW 1949   1.533   1.881   0.571  0.2930  0.2070 -0.6004
  488SOL    HW1 1950   1.552   1.932   0.496  0.6615  0.1601  0.7723
  488SOL    HW2 1951   1.466   1.820   0.543 -0.0253  0.0111 -0.0452
  488SOL     MW 1952   1.527   1.879   0.558  0.2996  0.1750 -0.3460
  489SOL     OW 1953   0.753   0.779   0.502  0.4326  0.6404 -0.3048
  489SOL    HW1 1954   0.804   0.717   0.455 -1.4334 -1.2740  3.9817
  489SOL    HW2 1955   0.776   0.755   0.591  0.1744  0.1939  1.7025
  489SOL     MW 1956   0.763   0.768   0.508  0.1524  0.3289  0.5256
  490SOL     OW 1957   1.410   2.094   0.402  0.0023  0.3463 -0.2194
  490SOL    HW1 1958   1.465   2.174   0.386 -1.7544  1.5717  0.4979
  490SOL    HW2 1959   1.321   2.126   0.400 -0.4440  0.8370  1.3625
  490SOL     MW 1960   1.406   2.108   0.400 -0.2883  0.5727  0.0840
  491SOL     OW 1961   1.241   2.950   0.385 -0.0516 -0.3750  0.1032
  491SOL    HW1 1962   1.263   2.969   0.475  0.1322  0.2800 -0.8125
  491SOL    HW2 1963   1.171   3.019   0.383 -2.0930  1.6879 -0.3727
  491SOL     MW 1964   1.235   2.962   0.397 -0.2967 -0.0164 -0.0804
  492SOL     OW 1965   1.459   2.138   0.700  0.6916  0.2149 -0.0757
  492SOL    HW1 1966   1.442   2.106   0.612  0.6058  0.6207 -1.5273
  492SOL    HW2 1967   1.422   2.074   0.764  0.2315 -0.1142  0.9544
  492SOL     MW 1968   1.452   2.125   0.697  0.6196  0.2251 -0.1313
  493SOL     OW 1969   0.180   2.985   0.371 -0.6517 -0.3273  0.5110
  493SOL    HW1 1970   0.127   3.043   0.431 -0.8442 -0.9466  1.9516
  493SOL    HW2 1971   0.184   3.020   0.276  0.2661 -0.4325 -0.6308
  493SOL     MW 1972   0.174   2.997   0.367 -0.5560 -0.4229  0.5504
  494SOL     OW 1973   0.389   2.414   1.816 -0.0893 -0.0934 -0.2272
  494SOL    HW1 1974   0.381   2.310   1.816 -2.2566  1.1230 -0.8677
  494SOL    HW2 1975   0.449   2.422   1.744  1.0184 -1.8307 -0.3396
  494SOL     MW 1976   0.396   2.401   1.806 -0.2291 -0.1621 -0.3266
  495SOL     OW 1977   2.908   1.652   2.723 -0.1371  0.0629 -0.3138
  495SOL    HW1 1978   2.905   1.724   2.781 -0.7841 -1.7095 -1.0178
  495SOL    HW2 1979   2.872   1.577   2.771  0.9691 -0.0223  1.6454
  495SOL     MW 1980   2.903   1.652   2.737 -0.0765 -0.1822 -0.1481
  496SOL     OW 1981   2.759   2.262   2.703  0.4574  0.3402 -0.3618
  496SOL    HW1 1982   2.788   2.172   2.726 -0.2755 -0.3183  2.3406
  496SOL    HW2 1983   2.840   2.315   2.724  2.2376  1.1411 -2.1422
  496SOL     MW 1984   2.773   2.257   2.709  0.5956  0.3590 -0.2402
  497SOL     OW 1985   1.503   2.330   2.521 -0.2549 -0.0144 -0.3753
  497SOL    HW1 1986   1.510   2.263   2.444  1.0696 -2.8052 -1.4403
  497SOL    HW2 1987   1.499   2.278   2.602 -1.4848 -1.5711  1.8056
  497SOL     MW 1988   1.503   2.315   2.522 -0.2424 -0.5880 -0.2281
  498SOL     OW 1989   1.542   2.789   2.267  0.3637 -0.5430 -0.0895
  498SOL    HW1 1990   1.550   2.699   2.231  1.5060  0.5692 -1.9386
  498SOL    HW2 1991   1.610   2.783   2.341  1.4830 -0.5639  0.8872
  498SOL     MW 1992   1.552   2.776   2.272  0.6621 -0.3990 -0.2046
  499SOL     OW 1993   0.924   0.149   0.031 -0.1297  0.2147 -0.7466
  499SOL    HW1 1994   0.862   0.158   0.101  1.4994 -0.9659 -0.5793
  499SOL    HW2 1995   0.926   0.057   0.010 -1.9204 -0.9348  1.3372
  499SOL     MW 1996   0.916   0.138   0.037 -0.1510 -0.0928 -0.4496
  500SOL     OW 1997   1.037   2.477   2.768 -0.1585 -0.6319  0.0448
  500SOL    HW1 1998   1.067   2.454   2.860  2.5408  0.9877  0.3762
  500SOL    HW2 1999   0.993   2.562   2.791  0.3551  0.1975 -1.0007
  500SOL     MW 2000   1.035   2.486   2.783  0.2654 -0.3088 -0.0494
  501SOL     OW 2001   1.730   2.210   0.022  0.3660 -0.1360  0.2130
  501SOL    HW1 2002   1.705   2.304   0.009  0.3492 -0.5754 -1.5085
  501SOL    HW2 2003   1.827   2.203   0.026  0.4374 -0.2709 -1.4809
  501SOL     MW 2004   1.740   2.221   0.021  0.3732 -0.2118 -0.2376
  502SOL     OW 2005   0.177   2.730   2.969  0.1133  0.7674 -0.0538
  502SOL    HW1 2006   0.111   2.663   2.952 -0.4194  2.2036 -1.1614
  502SOL    HW2 2007   0.165   2.796   2.902  0.7381  2.0789  2.3865
  502SOL     MW 2008   0.167   2.729   2.958  0.1254  1.1299  0.1221
  503SOL     OW 2009   1.145   2.605   2.100  0.3905  0.1300 -0.6163
  503SOL    HW1 2010   1.218   2.602   2.042 -0.1424  1.2219  0.5648
  503SOL    HW2 2011   1.070   2.634   2.047 -2.4765 -1.0540  2.0226
  503SOL     MW 2012   1.145   2.608   2.085 -0.0581  0.1178 -0.1123
  504SOL     OW 2013   0.086   2.623   2.092 -0.3094  0.2324 -0.4984
  504SOL    HW1 2014   0.167   2.585   2.062  1.1617  2.6991 -2.7597
  504SOL    HW2 2015   0.050   2.567   2.162 -0.8074 -0.3812  1.4466
  504SOL     MW 2016   0.092   2.610   2.097 -0.1810  0.4769 -0.5401
  505SOL     OW 2017   1.632   2.664   2.702 -0.0255 -0.2335  0.1397
  505SOL    HW1 2018   1.683   2.722   2.638  1.7252  2.9182 -0.7256
  505SOL    HW2 2019   1.584   2.730   2.747  0.8168 -1.7983 -1.2363
  505SOL     MW 2020   1.632   2.681   2.699  0.3166 -0.0241 -0.1560
  506SOL     OW 2021   1.600   0.035   2.821  0.0519  0.0269  0.9030
  506SOL    HW1 2022   1.597  -0.021   2.892  0.3995  2.8298 -1.8055
  506SOL    HW2 2023   1.675   0.001   2.772 -0.0845 -1.2330  0.0591
  506SOL     MW 2024   1.610   0.023   2.824  0.0798  0.2305  0.4343
  507SOL     OW 2025   0.876   2.690   2.844  0.3079 -0.1189  0.2915
  507SOL    HW1 2026   0.868   2.766   2.786  0.0315 -0.4309 -1.4587
  507SOL    HW2 2027   0.792   2.669   2.889 -0.8004 -0.9156 -1.1556
  507SOL     MW 2028   0.864   2.697   2.842  0.1252 -0.2652 -0.1304
  508SOL     OW 2029   1.144   2.082   2.581  0.7804  0.5115 -0.4017
  508SOL    HW1 2030   1.222   2.096   2.642 -1.7253 -0.7739 -0.2518
  508SOL    HW2 2031   1.075   2.143   2.619 -0.0977  2.6653 -2.6430
  508SOL     MW 2032   1.145   2.092   2.594  0.3339  0.6260 -0.6776
  509SOL     OW 2033   0.603   2.569   2.832 -0.1897  0.0054 -0.0814
  509SOL    HW1 2034   0.597   2.537   2.741 -3.3421  0.9416 -1.4852
  509SOL    HW2 2035   0.523   2.614   2.855 -1.9802  2.4237 -0.8681
  509SOL     MW 2036   0.592   2.570   2.823 -0.8418  0.4480 -0.3704
  510SOL     OW 2037   1.502   2.589   1.676 -0.4178 -0.0439  0.0141
  510SOL    HW1 2038   1.538   2.677   1.641 -0.3649  3.4155  0.1968
  510SOL    HW2 2039   1.462   2.599   1.761 -0.2762  1.2872 -0.4985
  510SOL     MW 2040   1.502   2.602   1.682 -0.3921  0.5881 -0.0294
  511SOL     OW 2041   0.323   2.544   2.528 -0.0511  0.3869  0.0700
  511SOL    HW1 2042   0.412   2.504   2.551  0.8605 -0.7817  0.0473
  511SOL    HW2 2043   0.323   2.544   2.429 -2.5298 -0.4653  0.8431
  511SOL     MW 2044   0.335   2.539   2.518 -0.2579  0.1203  0.1690
  512SOL     OW 2045   1.040   2.003   2.860 -0.2469  0.3381  0.3052
  512SOL    HW1 2046   0.959   2.034   2.896  0.1609 -1.2597  0.1767
  512SOL    HW2 2047   1.044   1.916   2.905  1.6450  0.4309 -1.3475
  512SOL     MW 2048   1.030   1.996   2.871  0.0565  0.1395  0.0702
  513SOL     OW 2049   1.609   2.530   2.164  1.2111 -0.0552  0.5282
  513SOL    HW1 2050   1.693   2.552   2.114 -2.4646 -2.5508  1.0801
  513SOL    HW2 2051   1.636   2.497   2.252 -1.2448 -1.1136 -1.9653
  513SOL     MW 2052   1.624   2.528   2.169  0.4021 -0.5241  0.2720
  514SOL     OW 2053   0.163   2.359   2.654  0.1084 -0.2992  0.1401
  514SOL    HW1 2054   0.193   2.442   2.608 -0.8083  2.4669  2.3948
  514SOL    HW2 2055   0.203   2.360   2.740 -1.5956  0.9210 -0.0522
  514SOL     MW 2056   0.172   2.370   2.659 -0.2374  0.2268  0.4122
  515SOL     OW 2057   1.086   1.931   1.848 -0.7275  0.2202  0.2178
  515SOL    HW1 2058   1.048   2.022   1.839  0.3126 -2.6248  0.9500
  515SOL    HW2 2059   1.144   1.930   1.923  1.0562  3.1257  1.8730
  515SOL     MW 2060   1.089   1.943   1.856 -0.3549  0.2282  0.5328
  516SOL     OW 2061   1.373   2.544   2.941  0.7052 -0.1468 -0.1498
  516SOL    HW1 2062   1.384   2.545   2.846  2.8400  0.0995 -1.1048
  516SOL    HW2 2063   1.283   2.516   2.955 -0.9730 -1.7994  0.9723
  516SOL     MW 2064   1.363   2.540   2.931  0.7654 -0.3324 -0.1277
  517SOL     OW 2065   0.613   2.359   2.295 -0.2080 -0.3692 -0.3474
  517SOL    HW1 2066   0.555   2.438   2.302 -0.2197  1.2635 -0.6090
  517SOL    HW2 2067   0.578   2.321   2.218  2.1266 -1.8216 -1.1508
  517SOL     MW 2068   0.601   2.364   2.286  0.0985 -0.3454 -0.4879
  518SOL     OW 2069   1.788   0.033   3.079  0.0820 -0.2628 -0.6555
  518SOL    HW1 2070   1.787   0.089   3.158 -2.3303  0.5064  0.3701
  518SOL    HW2 2071   1.729  -0.034   3.115  2.2066 -1.1897  1.5470
  518SOL     MW 2072   1.780   0.032   3.094  0.0441 -0.2836 -0.2296
  519SOL     OW 2073   0.740   2.504   1.788 -0.1805  0.3118 -0.3302
  519SOL    HW1 2074   0.739   2.420   1.742 -1.0418 -1.7534 -1.8246
  519SOL    HW2 2075   0.648   2.529   1.793 -1.8682  0.0368  0.1536
  519SOL     MW 2076   0.728   2.496   1.783 -0.5168  0.0030 -0.4635
  520SOL     OW 2077   1.223   2.185   2.938 -0.4736  0.5755  0.3024
  520SOL    HW1 2078   1.155   2.116   2.907 -2.0408  2.0504  0.8212
  520SOL    HW2 2079   1.275   2.148   3.013 -1.6227  1.0409  0.1793
  520SOL     MW 2080   1.221   2.171   2.944 -0.8320  0.8315  0.3546
  521SOL     OW 2081   1.783   2.084   2.226 -0.5524 -0.6415 -0.5683
  521SOL    HW1 2082   1.768   2.082   2.133  0.5213  0.0058 -0.0262
  521SOL    HW2 2083   1.783   1.994   2.262 -0.9846  0.6865 -1.7417
  521SOL     MW 2084   1.781   2.072   2.218 -0.4678 -0.3809 -0.6516
  522SOL     OW 2085   2.892   2.536   2.248  0.2661 -0.0599  0.3580
  522SOL    HW1 2086   2.980   2.496   2.271  2.0207 -1.1539  2.3629
  522SOL    HW2 2087   2.906   2.634   2.262 -0.4186 -2.0478  1.2928
  522SOL     MW 2088   2.905   2.544   2.253  0.4072 -0.4665  0.7458
  523SOL     OW 2089   0.849   1.517   2.147  0.7134 -0.2409  0.1925
  523SOL    HW1 2090   0.823   1.562   2.069 -0.1159 -0.8768 -0.1103
  523SOL    HW2 2091   0.935   1.484   2.118  0.9279  0.7151 -1.6351
  523SOL     MW 2092   0.857   1.519   2.133  0.6323 -0.1986 -0.0886
  524SOL     OW 2093   0.581   2.337   2.974 -0.2069 -0.0981  0.1333
  524SOL    HW1 2094   0.585   2.398   2.900  0.1803  0.5261 -0.7612
  524SOL    HW2 2095   0.674   2.299   2.964  0.6792 -1.9927 -1.5458
  524SOL     MW 2096   0.594   2.340   2.963 -0.0389 -0.2657 -0.2063
  525SOL     OW 2097   0.470   2.209   2.128  0.6912 -0.3919  0.1770
  525SOL    HW1 2098   0.452   2.132   2.178 -0.6974 -2.5587  1.2859
  525SOL    HW2 2099   0.540   2.182   2.063  0.7923  2.6747  0.9602
  525SOL     MW 2100   0.477   2.195   2.126  0.5214 -0.2732  0.4267
  526SOL     OW 2101   0.702   2.158   1.974 -0.4687 -0.4275 -0.3023
  526SOL    HW1 2102   0.725   2.188   1.892  1.0086 -0.3073  2.7594
  526SOL    HW2 2103   0.785   2.172   2.025 -3.8333  0.4054 -0.8021
  526SOL     MW 2104   0.716   2.164   1.970 -0.7177 -0.3017  0.0357
  527SOL     OW 2105   1.284   1.905   2.056  0.5266  0.3706  0.1760
  527SOL    HW1 2106   1.228   1.858   2.117  0.6285  2.1749 -0.2177
  527SOL    HW2 2107   1.314   1.847   1.990 -2.4142  0.5323  0.8993
  527SOL     MW 2108   1.281   1.891   2.055  0.1520  0.6300  0.2195
  528SOL     OW 2109   0.668   2.916   2.933  0.0738  0.0894 -0.2914
  528SOL    HW1 2110   0.651   3.012   2.929 -1.7836 -0.7453 -4.1578
  528SOL    HW2 2111   0.621   2.881   2.858 -3.1149 -0.1155  0.0111
  528SOL     MW 2112   0.660   2.924   2.922 -0.5920 -0.0477 -0.7616
  529SOL     OW 2113   1.009   2.226   1.849 -0.6837  0.3750  0.6516
  529SOL    HW1 2114   1.069   2.211   1.923 -0.4690  1.0894  1.3744
  529SOL    HW2 2115   1.042   2.308   1.811  1.5218 -1.3799  1.3728
  529SOL     MW 2116   1.021   2.235   1.854 -0.3644  0.2377  0.8421
  530SOL     OW 2117   1.128   2.424   3.006 -0.7663  0.1315  0.2663
  530SOL    HW1 2118   1.080   2.421   3.083  2.5212 -1.8026 -0.9047
  530SOL    HW2 2119   1.161   2.333   2.992  1.7733  3.1843  0.4127
  530SOL     MW 2120   1.126   2.412   3.014  0.0025  0.2791  0.1311
  531SOL     OW 2121   0.919   1.856   2.656 -0.4471  0.2162 -0.0455
  531SOL    HW1 2122   0.967   1.919   2.709 -2.1282  2.4119 -2.7991
  531SOL    HW2 2123   0.880   1.786   2.702  1.1712 -1.4018  0.2980
  531SOL     MW 2124   0.920   1.855   2.669 -0.4554  0.2924 -0.3635
  532SOL     OW 2125   1.694   0.289   2.841  0.2285 -0.3675 -0.3318
  532SOL    HW1 2126   1.665   0.195   2.865  0.3631 -2.1518 -0.4106
  532SOL    HW2 2127   1.759   0.310   2.908 -0.4031 -0.6017 -0.1652
  532SOL     MW 2128   1.699   0.280   2.853  0.1629 -0.6338 -0.3202
  533SOL     OW 2129   1.766   2.705   2.976  0.0819  0.1736  0.0467
  533SOL    HW1 2130   1.738   2.628   3.036 -0.4380 -1.3224  0.7846
  533SOL    HW2 2131   1.727   2.688   2.886 -3.3440 -1.2709  0.1735
  533SOL     MW 2132   1.757   2.692   2.972 -0.4387 -0.2144  0.1608
  534SOL     OW 2133   1.725   2.459   2.443  0.1046  0.0381 -0.6617
  534SOL    HW1 2134   1.651   2.412   2.475  0.1600 -1.2967 -1.2008
  534SOL    HW2 2135   1.774   2.462   2.526 -0.8715 -0.8014 -1.1581
  534SOL     MW 2136   1.721   2.453   2.458 -0.0169 -0.2488 -0.7983
  535SOL     OW 2137   1.841   2.331   1.915  0.3707  0.0973  0.3006
  535SOL    HW1 2138   1.816   2.372   1.830  1.2396 -0.6531  2.3887
  535SOL    HW2 2139   1.932   2.304   1.905  0.5390  0.0753 -1.8303
  535SOL     MW 2140   1.850   2.333   1.902  0.5075 -0.0046  0.2950
  536SOL     OW 2141   0.457   1.820   2.018 -0.2133 -0.1503  0.2352
  536SOL    HW1 2142   0.481   1.807   1.929  1.5431 -2.9857  0.8274
  536SOL    HW2 2143   0.538   1.862   2.054  3.4100 -0.9499 -2.6600
  536SOL     MW 2144   0.471   1.824   2.011  0.4965 -0.6299 -0.0687
  537SOL     OW 2145   1.074   0.219   2.919 -0.5620 -0.2053 -0.2907
  537SOL    HW1 2146   1.011   0.187   2.989  1.4714  2.5101  0.7714
  537SOL    HW2 2147   1.088   0.316   2.933  1.6666  2.2861  1.0382
  537SOL     MW 2148   1.067   0.227   2.930  0.0003  0.4817  0.0248
  538SOL     OW 2149   1.288   0.046   2.975  0.3978 -0.4919 -0.0887
  538SOL    HW1 2150   1.215   0.114   2.959 -0.2373  0.3026 -0.0780
  538SOL    HW2 2151   1.362   0.083   2.929 -0.3016 -3.2677  0.1012
  538SOL     MW 2152   1.288   0.060   2.967  0.2218 -0.7533 -0.0622
  539SOL     OW 2153   0.751   2.670   2.507  0.3582 -0.1615 -0.3582
  539SOL    HW1 2154   0.802   2.743   2.527 -1.4034 -1.1619  1.3962
  539SOL    HW2 2155   0.795   2.589   2.520  0.8280  0.0057 -1.1832
  539SOL     MW 2156   0.764   2.669   2.511  0.1878 -0.2714 -0.2356
  540SOL     OW 2157   0.325   2.260   2.877  0.3699  0.3223 -0.2741
  540SOL    HW1 2158   0.402   2.303   2.905 -0.2378 -0.7769 -1.8923
  540SOL    HW2 2159   0.283   2.229   2.955  1.5090 -1.2272  0.0205
  540SOL     MW 2160   0.330   2.261   2.891  0.4400 -0.0272 -0.4487
  541SOL     OW 2161   0.152   2.858   2.218 -0.0472  0.4113 -0.1653
  541SOL    HW1 2162   0.123   2.782   2.166  0.0409 -1.6673  1.9765
  541SOL    HW2 2163   0.205   2.818   2.288  1.7379  0.9302 -0.2090
  541SOL     MW 2164   0.155   2.843   2.221  0.1999  0.2055  0.1115
  542SOL     OW 2165   0.931   2.248   2.676  0.4343 -0.3122 -0.3313
  542SOL    HW1 2166   0.898   2.184   2.746 -0.6981 -2.2441  2.7509
  542SOL    HW2 2167   0.973   2.324   2.724  1.0352  0.2919  0.1287
  542SOL     MW 2168   0.932   2.249   2.691  0.3642 -0.4874  0.1361
  543SOL     OW 2169   1.377   2.547   2.654  0.2134 -0.2578  0.3267
  543SOL    HW1 2170   1.389   2.467   2.595  2.0701 -0.7811  0.6613
  543SOL    HW2 2171   1.461   2.594   2.657  0.6036  0.7663 -2.1041
  543SOL     MW 2172   1.390   2.542   2.647  0.5099 -0.1917  0.0501
  544SOL     OW 2173   0.622   0.197   2.728 -0.7109  0.6095  0.0242
  544SOL    HW1 2174   0.534   0.175   2.700 -3.3931 -2.1784 -2.6392
  544SOL    HW2 2175   0.675   0.178   2.650  0.2194  1.1308  0.1042
  544SOL     MW 2176   0.617   0.192   2.714 -0.9421  0.3104 -0.3166
  545SOL     OW 2177   1.534   2.143   2.313 -0.4066 -0.1898 -0.9217
  545SOL    HW1 2178   1.476   2.123   2.242 -1.3677 -1.0907  2.6279
  545SOL    HW2 2179   1.622   2.144   2.273  0.9706  0.6460  3.2462
  545SOL     MW 2180   1.538   2.141   2.299 -0.3517 -0.1984  0.0965
  546SOL     OW 2181   3.004   1.991   0.108 -0.0172  0.0925  0.3135
  546SOL    HW1 2182   2.997   2.068   0.058 -2.7988 -1.1574  2.9666
  546SOL    HW2 2183   3.097   1.970   0.113  0.0284  2.7065 -0.6581
  546SOL     MW 2184   3.016   1.998   0.102 -0.3782  0.2725  0.5354
  547SOL     OW 2185   0.185   3.013   0.121  0.4622 -0.2506 -0.0586
  547SOL    HW1 2186   0.245   3.063   0.063  2.4364  0.9310  0.4147
  547SOL    HW2 2187   0.221   2.921   0.123 -1.2217 -2.4620  1.4862
  547SOL     MW 2188   0.198   3.008   0.114  0.5005 -0.3865  0.2077
  548SOL     OW 2189   0.306   2.512   0.269  0.4450  0.8506 -0.3162
  548SOL    HW1 2190   0.295   2.600   0.227  2.5582  1.6378  0.5720
  548SOL    HW2 2191   0.237   2.449   0.231 -1.3822  1.2030 -0.6991
  548SOL     MW 2192   0.295   2.515   0.259  0.4827  1.0010 -0.2495
  549SOL     OW 2193   0.697   1.908   2.085 -0.0741 -0.1084 -0.6471
  549SOL    HW1 2194   0.699   1.987   2.035 -1.8785  0.2125 -1.5349
  549SOL    HW2 2195   0.754   1.917   2.157 -0.3887  2.8343 -0.1710
  549SOL     MW 2196   0.705   1.919   2.088 -0.3537  0.3222 -0.7014
  550SOL     OW 2197   1.827   1.755   2.585  0.3593  0.0504 -0.2744
  550SOL    HW1 2198   1.815   1.783   2.493  0.3853 -0.9687 -0.3983
  550SOL    HW2 2199   1.832   1.842   2.629 -1.4049 -0.0102 -0.3108
  550SOL     MW 2200   1.826   1.770   2.579  0.1300 -0.0920 -0.2955
  551SOL     OW 2201   0.861   2.344   0.207 -0.0120  0.5573 -0.0487
  551SOL    HW1 2202   0.958   2.359   0.215  2.2073 -1.1799  0.8375
  551SOL    HW2 2203   0.864   2.248   0.189  0.5142 -0.8437 -0.1326
  551SOL     MW 2204   0.874   2.333   0.206  0.3502  0.1432  0.0572
  552SOL     OW 2205   1.771   1.815   2.284  0.0392 -0.0218 -0.4689
  552SOL    HW1 2206   1.683   1.779   2.261 -1.5584 -2.9803  0.2863
  552SOL    HW2 2207   1.816   1.766   2.210 -1.4203  1.0393  4.2441
  552SOL     MW 2208   1.765   1.804   2.271 -0.3641 -0.2721  0.2526
  553SOL     OW 2209   1.239   2.320   1.527  0.9760 -0.1586 -0.2229
  553SOL    HW1 2210   1.256   2.227   1.521 -0.3770  1.7823  1.5686
  553SOL    HW2 2211   1.305   2.367   1.480 -0.1681  1.9253  0.9760
  553SOL     MW 2212   1.250   2.314   1.520  0.6465  0.3724  0.1717
  554SOL     OW 2213   0.570   2.856   2.661  0.2698  0.1799 -0.0508
  554SOL    HW1 2214   0.546   2.928   2.605 -0.3484  1.4661 -0.3541
  554SOL    HW2 2215   0.618   2.793   2.611  1.5543  1.2229 -3.7910
  554SOL     MW 2216   0.573   2.857   2.647  0.3577  0.4872 -0.5843
  555SOL     OW 2217   0.574   2.431   2.582  0.0607  0.5387  0.4523
  555SOL    HW1 2218   0.564   2.335   2.586  0.1843  3.4424 -4.8641
  555SOL    HW2 2219   0.655   2.425   2.521  0.8726 -0.6693 -2.1084
  555SOL     MW 2220   0.583   2.418   2.575  0.1841  0.7624 -0.5870
  556SOL     OW 2221   0.978   1.807   0.150 -0.3553 -0.1268  0.5431
  556SOL    HW1 2222   0.992   1.780   0.059  0.3798  1.4903  0.9538
  556SOL    HW2 2223   1.068   1.829   0.183 -1.0402 -0.0907  1.9111
  556SOL     MW 2224   0.992   1.806   0.142 -0.3487  0.0913  0.7778
  557SOL     OW 2225   0.893   2.695   0.457 -0.2728  0.7175  0.1866
  557SOL    HW1 2226   0.957   2.690   0.385 -0.0856 -0.3988 -1.6424
  557SOL    HW2 2227   0.863   2.782   0.449 -1.1590 -1.1168  3.4686
  557SOL     MW 2228   0.898   2.706   0.446 -0.3650  0.3282  0.3783
  558SOL     OW 2229   0.268   2.185   0.032  0.1323 -0.2555  0.7157
  558SOL    HW1 2230   0.241   2.089   0.046 -2.8626 -0.3559 -0.0619
  558SOL    HW2 2231   0.195   2.221   0.086 -0.7514  1.1257  1.8942
  558SOL     MW 2232   0.255   2.177   0.041 -0.3794 -0.0865  0.7686
  559SOL     OW 2233   1.189   2.322   2.111 -0.1849 -0.3667  0.6326
  559SOL    HW1 2234   1.162   2.408   2.129  1.1958  1.1804  0.0830
  559SOL    HW2 2235   1.174   2.270   2.185  0.6528 -2.0799 -1.9977
  559SOL     MW 2236   1.184   2.326   2.123  0.1078 -0.3886  0.2131
  560SOL     OW 2237   1.989   2.790   0.044 -0.3478 -0.0290  0.5048
  560SOL    HW1 2238   2.035   2.859   0.005 -1.5198 -1.5599  2.7290
  560SOL    HW2 2239   1.917   2.770  -0.018 -1.2514 -0.9310 -0.0137
  560SOL     MW 2240   1.986   2.797   0.031 -0.6216 -0.3500  0.7298
  561SOL     OW 2241   0.443   2.087   0.223  0.3895  0.1318  0.2952
  561SOL    HW1 2242   0.380   2.130   0.156 -4.6225 -0.0772 -0.8201
  561SOL    HW2 2243   0.492   2.153   0.272  0.7089  3.7311  1.1008
  561SOL     MW 2244   0.441   2.101   0.221 -0.2297  0.5791  0.2543
  562SOL     OW 2245   0.902   2.181   2.168  0.0117  0.4717  0.4102
  562SOL    HW1 2246   0.899   2.274   2.171  1.9563 -0.0533 -1.8196
  562SOL    HW2 2247   0.989   2.167   2.212 -2.0061  0.4310 -1.6864
  562SOL     MW 2248   0.913   2.192   2.174  0.0021  0.3970 -0.1606
  563SOL     OW 2249   1.218   0.288   0.573 -0.4100  0.5512  0.3227
  563SOL    HW1 2250   1.169   0.288   0.487 -4.2427 -0.2497  0.5525
  563SOL    HW2 2251   1.239   0.194   0.589 -0.7615 -1.0597 -0.8176
  563SOL     MW 2252   1.214   0.276   0.564 -0.9621  0.2330  0.2026
  564SOL     OW 2253   1.093   2.558   2.376  0.5804 -0.0763 -0.3670
  564SOL    HW1 2254   1.119   2.580   2.283 -0.9161 -0.4284 -1.4883
  564SOL    HW2 2255   1.150   2.604   2.443  0.2057  0.2394  1.8947
  564SOL     MW 2256   1.104   2.567   2.373  0.3336 -0.0811 -0.2166
  565SOL     OW 2257   2.887   2.687   2.569 -0.7466  0.1353 -0.5168
  565SOL    HW1 2258   2.958   2.732   2.521  0.3080 -0.2747  0.3621
  565SOL    HW2 2259   2.822   2.672   2.510  1.2227 -0.3570  3.9830
  565SOL     MW 2260   2.888   2.691   2.555 -0.3476  0.0163  0.1929
  566SOL     OW 2261   2.259   1.900   2.368  0.0721 -0.3209  0.2771
  566SOL    HW1 2262   2.262   1.896   2.271 -0.3980  0.9099 -0.2852
  566SOL    HW2 2263   2.311   1.978   2.393  1.9757  0.1243  1.0715
  566SOL     MW 2264   2.267   1.910   2.358  0.2613 -0.0998  0.3077
  567SOL     OW 2265   1.155   2.879   0.049 -0.5748  0.5180  0.1147
  567SOL    HW1 2266   1.194   2.962   0.064 -1.9677 -1.2195 -0.0565
  567SOL    HW2 2267   1.168   2.856  -0.046  1.7960  1.1641 -0.0337
  567SOL     MW 2268   1.162   2.887   0.038 -0.4457  0.3740  0.0725
  568SOL     OW 2269   1.648   2.093   2.882 -0.3445 -0.7429  1.0681
  568SOL    HW1 2270   1.688   2.147   2.951  2.2305 -0.1811 -1.9907
  568SOL    HW2 2271   1.727   2.054   2.849  1.0968  1.2998  0.8909
  568SOL     MW 2272   1.664   2.095   2.887  0.1854 -0.3993  0.6412
  569SOL     OW 2273   0.220   2.187   2.430  0.2022  0.2827  0.2243
  569SOL    HW1 2274   0.170   2.232   2.359 -0.6450  1.0571 -0.7641
  569SOL    HW2 2275   0.221   2.254   2.496 -1.4553 -1.7049 -1.3385
  569SOL     MW 2276   0.214   2.202   2.429 -0.1282  0.1226 -0.1123
  570SOL     OW 2277   1.451   0.426   0.521  0.6810  0.6541  0.1821
  570SOL    HW1 2278   1.367   0.404   0.562  0.4463  3.9118 -2.7282
  570SOL    HW2 2279   1.522   0.449   0.590  0.8079  2.9297  1.1261
  570SOL     MW 2280   1.450   0.426   0.535  0.6667  1.3842 -0.0773
  571SOL     OW 2281   1.485   2.395   1.946  0.0608 -0.2426  0.7748
  571SOL    HW1 2282   1.564   2.400   2.003  0.4642 -0.4989 -0.2400
  571SOL    HW2 2283   1.445   2.309   1.969 -0.8230 -0.0020  2.3656
  571SOL     MW 2284   1.490   2.384   1.956 -0.0026 -0.2447  0.8508
  572SOL     OW 2285   0.937   2.669   0.075 -0.2834  0.5713  0.4383
  572SOL    HW1 2286   0.964   2.691  -0.015  1.8757  1.2999  0.3644
  572SOL    HW2 2287   0.848   2.633   0.073  2.3079 -0.3368 -1.3334
  572SOL     MW 2288   0.929   2.667   0.063  0.3434  0.5476  0.1948
  573SOL     OW 2289   1.142   2.403   0.187  0.0205 -0.2289  0.3589
  573SOL    HW1 2290   1.224   2.415   0.152 -0.8774 -2.2557  5.8269
  573SOL    HW2 2291   1.122   2.486   0.232 -1.1722 -0.9726  1.8235
  573SOL     MW 2292   1.150   2.416   0.189 -0.2554 -0.5944  1.2736
  574SOL     OW 2293   1.108   2.643   0.290 -0.5691 -0.4887 -0.1840
  574SOL    HW1 2294   1.199   2.679   0.289  3.5160 -1.7838  0.6811
  574SOL    HW2 2295   1.068   2.680   0.211 -0.2830 -2.9765  1.0871
  574SOL     MW 2296   1.115   2.653   0.280  0.0076 -0.9878  0.0979
  575SOL     OW 2297   3.070   2.280   1.808  0.1484  0.3412 -0.5130
  575SOL    HW1 2298   3.080   2.196   1.756  0.9280  0.9005  0.4243
  575SOL    HW2 2299   3.144   2.336   1.777  0.2038  0.3276 -0.4755
  575SOL     MW 2300   3.081   2.277   1.797  0.2585  0.4132 -0.3844
  576SOL     OW 2301   2.827   1.827   2.052  0.6108 -0.3821 -0.0917
  576SOL    HW1 2302   2.845   1.912   2.016 -4.3461  0.0625  2.6809
  576SOL    HW2 2303   2.751   1.823   1.994  0.3265  1.2159  0.1656
  576SOL     MW 2304   2.819   1.837   2.040 -0.0807 -0.1126  0.3081
  577SOL     OW 2305   2.081   0.316   0.048  0.3702  0.2356  0.2696
  577SOL    HW1 2306   2.018   0.331  -0.026  0.0722 -3.0926  0.5138
  577SOL    HW2 2307   2.017   0.289   0.121  0.1882 -0.7252  0.2450
  577SOL     MW 2308   2.065   0.314   0.048  0.3069 -0.3303  0.2986
  578SOL     OW 2309   2.019   2.031   2.428 -0.7095 -0.1974  0.3502
  578SOL    HW1 2310   1.970   2.050   2.344 -0.1179  0.1313  1.4825
  578SOL    HW2 2311   2.088   1.965   2.406 -0.2292 -1.5715  2.4365
  578SOL     MW 2312   2.021   2.025   2.414 -0.5681 -0.3353  0.7748
  579SOL     OW 2313   0.855   2.425   2.478  0.1088  0.3404  0.7554
  579SOL    HW1 2314   0.884   2.364   2.548 -0.4653 -2.0046 -0.9800
  579SOL    HW2 2315   0.943   2.458   2.449  0.7417  2.1506  0.4578
  579SOL     MW 2316   0.870   2.422   2.483  0.1166  0.2698  0.4871
  580SOL     OW 2317   0.863   2.977   0.017 -0.3309 -0.2253  0.4182
  580SOL    HW1 2318   0.934   2.910   0.040  4.0325 -2.5560  1.4923
  580SOL    HW2 2319   0.822   2.943  -0.063 -1.4918  0.1893  1.6922
  580SOL     MW 2320   0.867   2.963   0.010  0.0916 -0.4781  0.7280
  581SOL     OW 2321   1.058   2.440   1.710  0.3157 -0.1920  0.4241
  581SOL    HW1 2322   1.102   2.522   1.734 -1.0953  0.9525 -2.7748
  581SOL    HW2 2323   1.114   2.392   1.650 -3.2770 -1.5642  1.4532
  581SOL     MW 2324   1.071   2.444   1.705 -0.3445 -0.2220  0.1378
  582SOL     OW 2325   3.096   2.819   2.482 -0.4356 -0.4491  0.6123
  582SOL    HW1 2326   3.061   2.897   2.535 -0.7985  2.1866  0.1010
  582SOL    HW2 2327   3.190   2.805   2.513 -0.2511  0.4752 -2.7346
  582SOL     MW 2328   3.103   2.828   2.493 -0.4592  0.0206  0.1032
  583SOL     OW 2329   1.932   2.448   2.641  0.1978 -0.0576 -0.1107
  583SOL    HW1 2330   2.000   2.464   2.578  2.1589  1.8701  3.3408
  583SOL    HW2 2331   1.950   2.364   2.687 -0.4147 -2.8009  0.3167
  583SOL     MW 2332   1.943   2.439   2.639  0.3757 -0.1652  0.4011
  584SOL     OW 2333   0.201   1.900   2.085  0.1065  0.0488 -0.5202
  584SOL    HW1 2334   0.289   1.875   2.058  1.9198  0.2928  0.4872
  584SOL    HW2 2335   0.224   1.967   2.145 -0.2674 -0.0989  1.5836
  584SOL     MW 2336   0.216   1.906   2.089  0.2964  0.0615 -0.1097
  585SOL     OW 2337   1.488   2.661   0.079  0.5066  0.2506 -0.3482
  585SOL    HW1 2338   1.451   2.669  -0.006  2.1934  0.5454 -2.5257
  585SOL    HW2 2339   1.422   2.681   0.142 -1.9305  2.6409  0.4467
  585SOL     MW 2340   1.475   2.664   0.076  0.4076  0.6049 -0.5306
  586SOL     OW 2341   1.306   2.877   2.390  1.1295 -1.2455 -0.6247
  586SOL    HW1 2342   1.390   2.867   2.348  0.3684 -0.7537  0.6329
  586SOL    HW2 2343   1.325   2.943   2.457  1.8079  0.4450  1.9714
  586SOL     MW 2344   1.319   2.884   2.394  1.1186 -0.9575 -0.1162
  587SOL     OW 2345   1.269   1.610   2.110  0.2200 -0.7483 -0.0490
  587SOL    HW1 2346   1.269   1.545   2.184  1.2519 -1.0614  0.4304
  587SOL    HW2 2347   1.287   1.560   2.037  0.6950  1.4585  1.8235
  587SOL     MW 2348   1.271   1.595   2.110  0.4189 -0.4984  0.2613
  588SOL     OW 2349   1.416   2.165   2.734  0.0871  0.4264 -0.4004
  588SOL    HW1 2350   1.489   2.120   2.780 -0.9008 -0.8977  0.7553
  588SOL    HW2 2351   1.352   2.188   2.805  1.0597 -3.3371 -0.8558
  588SOL     MW 2352   1.417   2.162   2.749  0.0851 -0.2449 -0.3080
  589SOL     OW 2353   1.365   2.097   0.067  0.1399  0.1767 -0.1761
  589SOL    HW1 2354   1.405   2.180   0.099  0.9917 -0.6684 -0.9022
  589SOL    HW2 2355   1.312   2.067   0.140  1.6090  1.2377  0.3933
  589SOL     MW 2356   1.363   2.104   0.081  0.4461  0.2052 -0.1968
  590SOL     OW 2357   0.413   2.583   2.265  0.2566 -0.0589  0.4658
  590SOL    HW1 2358   0.395   2.562   2.170  4.4150 -0.8052 -0.4479
  590SOL    HW2 2359   0.482   2.651   2.260 -0.3147 -0.4124  0.1221
  590SOL     MW 2360   0.420   2.589   2.252  0.7299 -0.2040  0.2999
  591SOL     OW 2361   2.291   0.707   0.025  0.1508 -0.2362 -0.0210
  591SOL    HW1 2362   2.218   0.759  -0.013 -0.8144 -0.4754  0.0654
  591SOL    HW2 2363   2.365   0.722  -0.034 -3.0711 -1.1534  0.1434
  591SOL     MW 2364   2.291   0.716   0.012 -0.4016 -0.3888  0.0121
  592SOL     OW 2365   1.876   3.040   0.806  0.1263 -0.2243 -0.5743
  592SOL    HW1 2366   1.880   3.092   0.724 -1.0815  2.8291 -0.0412
  592SOL    HW2 2367   1.899   2.946   0.791  1.0876 -0.9620 -1.2499
  592SOL     MW 2368   1.880   3.035   0.793  0.0938  0.0812 -0.5931
  593SOL     OW 2369   1.893   0.755   0.847 -0.3719  0.1455  0.0934
  593SOL    HW1 2370   1.818   0.750   0.786  1.2821 -0.6714  0.5095
  593SOL    HW2 2371   1.924   0.665   0.871 -0.4316 -1.1497  1.8839
  593SOL     MW 2372   1.887   0.742   0.842 -0.1616 -0.1332  0.3845
  594SOL     OW 2373   2.730   1.128   1.403  0.2542 -0.0864 -0.7212
  594SOL    HW1 2374   2.820   1.159   1.423 -0.2298  0.1571  1.1270
  594SOL    HW2 2375   2.743   1.096   1.317 -0.8648 -1.1430  0.8129
  594SOL     MW 2376   2.744   1.128   1.394  0.0427 -0.1937 -0.2750
  595SOL     OW 2377   0.475   0.951   0.671  0.4116 -0.1914  0.3315
  595SOL    HW1 2378   0.505   1.024   0.613 -1.1197 -0.1440 -2.8002
  595SOL    HW2 2379   0.468   0.992   0.760  2.3110  1.7077  0.3295
  595SOL     MW 2380   0.478   0.966   0.675  0.4602  0.0654 -0.0820
  596SOL     OW 2381   2.444   1.386   0.557  0.4277  0.5243 -0.4426
  596SOL    HW1 2382   2.470   1.465   0.516 -1.7554 -1.5119  1.0578
  596SOL    HW2 2383   2.508   1.361   0.624 -0.2593 -0.1305  0.5145
  596SOL     MW 2384   2.456   1.393   0.560  0.0490  0.1693 -0.1183
  597SOL     OW 2385   2.200   0.676   1.679  0.5615 -0.5955 -0.4373
  597SOL    HW1 2386   2.251   0.603   1.723 -0.8885  1.5233 -0.5584
  597SOL    HW2 2387   2.117   0.631   1.646 -0.5908 -0.5603 -0.0345
  597SOL     MW 2388   2.196   0.660   1.680  0.2182 -0.3113 -0.4001
  598SOL     OW 2389   2.615   1.009   2.858  0.7618 -0.4360 -0.7464
  598SOL    HW1 2390   2.660   0.996   2.777  0.1499 -0.0604  2.6320
  598SOL    HW2 2391   2.683   1.072   2.886  1.6242  0.5440 -3.9952
  598SOL     MW 2392   2.630   1.016   2.851  0.7949 -0.2572 -0.7293
  599SOL     OW 2393   2.912   0.332   2.079  0.1755  0.1936  0.4876
  599SOL    HW1 2394   2.872   0.378   2.158  0.0522 -0.2090 -1.2456
  599SOL    HW2 2395   2.949   0.412   2.032  1.3122  0.7923  0.5369
  599SOL     MW 2396   2.911   0.349   2.083  0.3092  0.2195  0.2654
  600SOL     OW 2397   1.896   1.717   0.884 -0.0008  0.1676 -0.2255
  600SOL    HW1 2398   1.919   1.742   0.972  1.9777  2.2599 -0.0904
  600SOL    HW2 2399   1.816   1.768   0.864 -0.1799  1.1124  1.6159
  600SOL     MW 2400   1.888   1.727   0.893  0.2366  0.5683  0.0353
  601SOL     OW 2401   2.504   0.809   0.818 -0.2713 -0.1290 -0.3253
  601SOL    HW1 2402   2.523   0.814   0.913  0.5314  1.6504 -1.5746
  601SOL    HW2 2403   2.456   0.723   0.798 -3.2199  0.4861  0.1566
  601SOL     MW 2404   2.500   0.798   0.828 -0.5545  0.1869 -0.4266
  602SOL     OW 2405   2.330   1.946   0.780  0.4115  0.7540  0.9504
  602SOL    HW1 2406   2.278   1.889   0.844 -0.4891  0.6398  1.4101
  602SOL    HW2 2407   2.257   1.987   0.731  2.2152 -1.6281  0.9081
  602SOL     MW 2408   2.313   1.944   0.782  0.5307  0.4246  1.0055
  603SOL     OW 2409   3.079   1.384   1.791  0.1249  0.4830 -0.1651
  603SOL    HW1 2410   3.068   1.390   1.886 -3.7296 -3.0197  1.0505
  603SOL    HW2 2411   3.060   1.289   1.766 -2.2179  2.1287 -0.6114
  603SOL     MW 2412   3.075   1.372   1.800 -0.6928  0.2380 -0.0636
  604SOL     OW 2413   2.102   1.569   0.444 -0.0435 -0.1178 -0.1907
  604SOL    HW1 2414   2.118   1.493   0.497 -4.9897 -2.3629  1.5459
  604SOL    HW2 2415   2.048   1.628   0.497  3.6511  0.1532  2.1702
  604SOL     MW 2416   2.097   1.567   0.458 -0.2086 -0.3783  0.3500
  605SOL     OW 2417   2.708   1.547   0.825 -0.4849 -0.4067  0.1908
  605SOL    HW1 2418   2.651   1.623   0.845  0.1115  0.6852 -2.5782
  605SOL    HW2 2419   2.662   1.472   0.855  1.7801  0.7946  0.3614
  605SOL     MW 2420   2.695   1.547   0.832 -0.1074 -0.1041 -0.1520
  606SOL     OW 2421   2.568   1.789   1.834 -0.1393  0.3201 -0.1738
  606SOL    HW1 2422   2.476   1.790   1.865  0.4547  0.0046 -0.4491
  606SOL    HW2 2423   2.595   1.695   1.825  0.6594 -0.7389 -3.5323
  606SOL     MW 2424   2.560   1.776   1.837  0.0444  0.1388 -0.6533
  607SOL     OW 2425   2.362   1.012   2.963  0.4340 -0.2197  0.2496
  607SOL    HW1 2426   2.448   0.994   2.915 -1.4963 -0.6559  1.7327
  607SOL    HW2 2427   2.390   1.004   3.051  1.7560 -0.8516  1.2423
  607SOL     MW 2428   2.377   1.009   2.968  0.3538 -0.3606  0.5763
  608SOL     OW 2429   1.861   0.302   0.563  0.1805 -0.0946  0.4379
  608SOL    HW1 2430   1.897   0.333   0.482 -0.4947 -1.2888 -0.0339
  608SOL    HW2 2431   1.815   0.210   0.550 -1.5982  3.5049  1.4553
  608SOL     MW 2432   1.860   0.294   0.551 -0.1432  0.2227  0.5099
  609SOL     OW 2433   2.130   1.960   3.067  0.2210  0.1364 -0.0107
  609SOL    HW1 2434   2.044   1.919   3.045 -1.2823  3.7248 -1.3184
  609SOL    HW2 2435   2.139   1.943   3.165 -1.6555 -0.4375 -0.7714
  609SOL     MW 2436   2.120   1.953   3.077 -0.2249  0.5341 -0.2836
  610SOL     OW 2437   1.770   1.018   1.237 -0.8699 -0.4389 -0.1074
  610SOL    HW1 2438   1.789   0.937   1.186 -0.0391 -0.8521  0.2682
  610SOL    HW2 2439   1.680   1.000   1.249 -1.2941  0.8837 -0.3878
  610SOL     MW 2440   1.761   1.005   1.232 -0.8162 -0.3189 -0.0949
  611SOL     OW 2441   2.451   1.678   0.742  0.4688  0.0060 -0.4982
  611SOL    HW1 2442   2.413   1.757   0.714  1.6144  1.8381 -0.2408
  611SOL    HW2 2443   2.469   1.644   0.659 -0.6846  0.4168  1.4867
  611SOL     MW 2444   2.449   1.684   0.728  0.4678  0.3019 -0.2024
  612SOL     OW 2445   2.780   2.840   0.438  0.0782 -0.3856 -0.3469
  612SOL    HW1 2446   2.807   2.888   0.518 -0.8550  0.7845 -1.2704
  612SOL    HW2 2447   2.867   2.833   0.394 -0.1760 -0.9982  1.1499
  612SOL     MW 2448   2.795   2.845   0.443 -0.0785 -0.3121 -0.2712
  613SOL     OW 2449   1.503   1.029   0.989 -0.0845 -0.4709 -0.9085
  613SOL    HW1 2450   1.506   1.118   1.024 -3.0701 -0.8319  1.8963
  613SOL    HW2 2451   1.546   0.980   1.063 -0.6729 -0.7580  2.4567
  613SOL     MW 2452   1.509   1.034   1.003 -0.5561 -0.5564 -0.0944
  614SOL     OW 2453   1.987   0.562   1.547 -0.5387  0.1127 -0.0100
  614SOL    HW1 2454   1.989   0.489   1.608  0.5925 -0.4650  1.0303
  614SOL    HW2 2455   1.975   0.538   1.454 -2.6991 -1.9523 -0.4569
  614SOL     MW 2456   1.986   0.549   1.543 -0.6745 -0.2360  0.0683
  615SOL     OW 2457   2.265   0.801   0.289  0.9348 -0.6181  0.5091
  615SOL    HW1 2458   2.325   0.758   0.348 -0.1388  0.4489  0.3710
  615SOL    HW2 2459   2.267   0.754   0.208 -0.5308  1.5715 -0.8537
  615SOL     MW 2460   2.273   0.789   0.286  0.5998 -0.1884  0.3110
  616SOL     OW 2461   2.566   0.360   1.605 -0.4677  0.5408 -0.2773
  616SOL    HW1 2462   2.501   0.307   1.555 -0.0791 -0.9502 -0.6451
  616SOL    HW2 2463   2.578   0.435   1.550 -3.4820  2.1131  3.1018
  616SOL     MW 2464   2.559   0.363   1.591 -0.8141  0.5515  0.1200
  617SOL     OW 2465   2.857   0.535   1.689  0.6888  0.0780  0.4677
  617SOL    HW1 2466   2.783   0.572   1.743 -0.9628  1.4470 -1.3033
  617SOL    HW2 2467   2.859   0.439   1.705 -0.1936 -0.9322  3.3048
  617SOL     MW 2468   2.847   0.527   1.698  0.3544  0.1253  0.6084
  618SOL     OW 2469   2.677   0.345   1.965 -0.6899 -0.5027  0.3318
  618SOL    HW1 2470   2.656   0.440   1.978 -0.6013 -0.3493  0.0181
  618SOL    HW2 2471   2.769   0.338   1.999  0.8466  0.0132  0.5387
  618SOL     MW 2472   2.686   0.357   1.971 -0.4755 -0.4144  0.3177
  619SOL     OW 2473   2.636   0.727   0.143  0.2663  0.0569  0.3106
  619SOL    HW1 2474   2.704   0.785   0.176 -0.9849 -0.3608  3.0933
  619SOL    HW2 2475   2.583   0.709   0.215  2.6226 -1.4701 -0.8206
  619SOL     MW 2476   2.638   0.732   0.157  0.4121 -0.1997  0.5285
  620SOL     OW 2477   2.335   1.060   0.997 -0.0658 -0.2996 -0.0040
  620SOL    HW1 2478   2.363   1.073   0.907  3.3336  0.9994  2.5760
  620SOL    HW2 2479   2.302   0.972   0.990  1.9280 -0.2000 -1.5840
  620SOL     MW 2480   2.334   1.050   0.984  0.6458 -0.1151  0.1279
  621SOL     OW 2481   1.472   2.128   1.988 -0.0889  0.8517  0.0692
  621SOL    HW1 2482   1.429   2.048   2.012  1.0403 -3.2765  1.2888
  621SOL    HW2 2483   1.565   2.106   1.979  0.9201  0.2505  0.1019
  621SOL     MW 2484   1.478   2.114   1.990  0.1932  0.2277  0.2344
  622SOL     OW 2485   2.647   0.169   0.262 -0.5612 -0.6774  0.4188
  622SOL    HW1 2486   2.735   0.210   0.262 -1.5525  1.6251 -0.1233
  622SOL    HW2 2487   2.669   0.095   0.318 -1.8314  1.2369  0.5870
  622SOL     MW 2488   2.662   0.165   0.270 -0.8596 -0.1210  0.3694
  623SOL     OW 2489   2.308   2.730   0.901 -0.1684 -0.4142 -0.5292
  623SOL    HW1 2490   2.380   2.798   0.903  1.3833  1.3301 -0.9706
  623SOL    HW2 2491   2.255   2.747   0.983 -1.3241  1.2796 -0.8502
  623SOL     MW 2492   2.311   2.741   0.912 -0.1161  0.0394 -0.6298
  624SOL     OW 2493   2.218   1.671   2.994 -0.3049  0.2667 -0.2049
  624SOL    HW1 2494   2.159   1.623   3.052 -1.0683 -3.3546 -1.0430
  624SOL    HW2 2495   2.214   1.759   3.028 -0.7305 -2.3289 -0.4774
  624SOL     MW 2496   2.210   1.676   3.006 -0.4618 -0.5536 -0.3514
  625SOL     OW 2497   2.191   2.003   1.119  0.7102  0.5959  0.3113
  625SOL    HW1 2498   2.256   1.937   1.136 -1.8703  1.0192 -0.1782
  625SOL    HW2 2499   2.219   2.070   1.054  2.6601  1.4096 -0.3094
  625SOL     MW 2500   2.203   2.003   1.112  0.6270  0.7591  0.1649
  626SOL     OW 2501   0.192   1.638   2.335  0.9557  0.0521  0.4391
  626SOL    HW1 2502   0.188   1.553   2.294  0.3487 -2.2549 -1.3712
  626SOL    HW2 2503   0.114   1.655   2.382  2.1018 -1.0771  3.1955
  626SOL     MW 2504   0.181   1.629   2.336  1.0268 -0.4013  0.5639
  627SOL     OW 2505   2.503   0.824   2.629 -0.4531  0.0415  0.1957
  627SOL    HW1 2506   2.445   0.902   2.629 -0.3420  1.2909 -0.8132
  627SOL    HW2 2507   2.473   0.771   2.549  0.0609 -2.7660 -0.2186
  627SOL     MW 2508   2.491   0.827   2.619 -0.3706 -0.1641  0.0079
  628SOL     OW 2509   2.243   1.369   1.358 -0.1609  0.2733 -0.1839
  628SOL    HW1 2510   2.203   1.297   1.316 -1.1230 -2.3490 -0.4868
  628SOL    HW2 2511   2.336   1.348   1.358 -1.1117  0.5986  0.9367
  628SOL     MW 2512   2.250   1.357   1.353 -0.4133 -0.0298 -0.0760
  629SOL     OW 2513   1.982   0.565   1.248 -0.6371  0.1987  0.1787
  629SOL    HW1 2514   2.007   0.650   1.211 -1.1425  0.4928 -0.3007
  629SOL    HW2 2515   1.888   0.579   1.259 -0.8613  1.4475 -0.8083
  629SOL     MW 2516   1.973   0.578   1.245 -0.7333  0.4023 -0.0148
  630SOL     OW 2517   2.479   1.841   3.054 -0.1929 -0.0700  0.4445
  630SOL    HW1 2518   2.461   1.924   3.015 -1.3950 -1.1378  1.1328
  630SOL    HW2 2519   2.412   1.778   3.031 -3.0832 -2.2477 -1.0316
  630SOL     MW 2520   2.467   1.844   3.046 -0.7328 -0.4982  0.3405
  631SOL     OW 2521   1.988   1.834   1.588  0.3879  0.1741 -0.4420
  631SOL    HW1 2522   2.010   1.745   1.614  0.4459 -0.0556 -1.3664
  631SOL    HW2 2523   1.968   1.825   1.494 -3.9762 -1.0234 -0.7268
  631SOL     MW 2524   1.988   1.821   1.579 -0.1803 -0.0142 -0.6015
  632SOL     OW 2525   0.093   2.079   1.488 -0.5845 -0.7313 -0.1165
  632SOL    HW1 2526   0.045   2.077   1.565  0.4384  2.1427 -1.8810
  632SOL    HW2 2527   0.132   1.994   1.481  0.0139  3.2461 -0.9001
  632SOL     MW 2528   0.092   2.067   1.497 -0.3706  0.1727 -0.4527
  633SOL     OW 2529   2.493   0.681   0.377  0.6675 -0.3633 -0.4561
  633SOL    HW1 2530   2.527   0.688   0.467  0.2696  0.2315  0.1510
  633SOL    HW2 2531   2.500   0.586   0.369  1.6878  1.7381  1.3008
  633SOL     MW 2532   2.498   0.669   0.388  0.7496 -0.0075 -0.1442
  634SOL     OW 2533   2.640   3.058   0.685  0.7741 -0.7577 -0.6093
  634SOL    HW1 2534   2.692   3.142   0.679  0.7714  1.8136  0.7556
  634SOL    HW2 2535   2.570   3.061   0.615 -0.8217 -0.4478 -1.4468
  634SOL     MW 2536   2.638   3.070   0.675  0.5632 -0.3776 -0.5397
  635SOL     OW 2537   2.593   0.124   1.836 -0.1440 -0.2997 -0.1771
  635SOL    HW1 2538   2.639   0.063   1.771  0.0257 -0.5739 -2.5726
  635SOL    HW2 2539   2.637   0.213   1.838  0.5949  0.1076 -0.1524
  635SOL     MW 2540   2.605   0.128   1.828 -0.0241 -0.2821 -0.4899
  636SOL     OW 2541   2.908   1.761   1.023  0.1245  0.1984  1.2579
  636SOL    HW1 2542   2.839   1.826   1.048 -1.5950 -0.1025  4.4985
  636SOL    HW2 2543   2.984   1.768   1.082  0.6135 -1.5535  0.0062
  636SOL     MW 2544   2.909   1.770   1.034 -0.0379 -0.0725  1.5203
  637SOL     OW 2545   2.903   1.524   0.667 -0.2798 -0.0591 -0.0998
  637SOL    HW1 2546   2.961   1.600   0.655 -0.4579 -1.3954 -1.9352
  637SOL    HW2 2547   2.832   1.549   0.727 -0.3092  0.3622 -2.2459
  637SOL     MW 2548   2.901   1.537   0.673 -0.3072 -0.1798 -0.6251
  638SOL     OW 2549   2.731   0.566   0.526  0.3111 -0.4628  0.3796
  638SOL    HW1 2550   2.815   0.584   0.478  0.4347 -0.1412  2.7891
  638SOL    HW2 2551   2.752   0.595   0.619 -2.1003  1.8101 -0.3774
  638SOL     MW 2552   2.745   0.572   0.532  0.0093 -0.1205  0.5977
  639SOL     OW 2553   1.777   0.067   0.513  0.1717 -0.7924  0.2843
  639SOL    HW1 2554   1.684   0.087   0.521  0.7422  1.2999  2.6208
  639SOL    HW2 2555   1.774  -0.020   0.473 -0.4656  0.2984 -2.0782
  639SOL     MW 2556   1.764   0.058   0.509  0.1629 -0.3724  0.2808
  640SOL     OW 2557   0.345   1.385   0.063 -0.0599  0.4258 -0.2400
  640SOL    HW1 2558   0.335   1.382  -0.033  1.9177  1.7175  0.3211
  640SOL    HW2 2559   0.295   1.317   0.107  1.1632 -2.4783  0.3516
  640SOL     MW 2560   0.337   1.376   0.056  0.3624  0.2131 -0.0879
  641SOL     OW 2561   2.199   0.455   0.390  0.2065  0.2585  0.0070
  641SOL    HW1 2562   2.237   0.442   0.307 -1.9537 -1.0560  0.8964
  641SOL    HW2 2563   2.267   0.422   0.445 -0.9464 -1.5645  0.9252
  641SOL     MW 2564   2.213   0.449   0.386 -0.2307 -0.1555  0.2455
  642SOL     OW 2565   0.031   3.094   0.591 -0.5166 -0.2810  0.6545
  642SOL    HW1 2566  -0.016   3.166   0.547 -1.2362  0.7490 -1.0412
  642SOL    HW2 2567  -0.044   3.051   0.624  0.6281 -1.4296 -1.2074
  642SOL     MW 2568   0.015   3.098   0.590 -0.4605 -0.2967  0.1851
  643SOL     OW 2569   2.081   0.345   1.706 -0.0157  0.1716 -0.1719
  643SOL    HW1 2570   2.083   0.296   1.789  1.4846  2.3424  1.7057
  643SOL    HW2 2571   2.040   0.292   1.634 -0.4680  2.0545 -1.2257
  643SOL     MW 2572   2.076   0.331   1.707  0.1226  0.7065 -0.0632
  644SOL     OW 2573   2.719   1.950   1.065 -0.1470  0.5383 -0.4756
  644SOL    HW1 2574   2.686   1.897   1.142 -1.2967 -4.3021  0.4569
  644SOL    HW2 2575   2.648   1.993   1.018  1.5038  3.1997 -0.2527
  644SOL     MW 2576   2.706   1.948   1.069 -0.0809  0.2508 -0.3231
  645SOL     OW 2577   2.833   0.883   0.675  0.0507  0.0812 -0.0091
  645SOL    HW1 2578   2.922   0.852   0.688 -1.4441  1.5783  0.9261
  645SOL    HW2 2579   2.781   0.824   0.729  0.3719  0.2772 -0.0702
  645SOL     MW 2580   2.838   0.871   0.684 -0.1041  0.3046  0.1062
  646SOL     OW 2581   0.178   2.270   0.798 -1.0194  0.7066 -0.6824
  646SOL    HW1 2582   0.199   2.172   0.806  1.8022 -2.2493 -0.1943
  646SOL    HW2 2583   0.101   2.267   0.735  1.1581 -1.6182  0.0119
  646SOL     MW 2584   0.171   2.257   0.791 -0.3598  0.0098 -0.5264
  647SOL     OW 2585   2.719   0.499   2.981  0.2634 -0.3837 -0.2480
  647SOL    HW1 2586   2.665   0.432   3.025  1.0590 -0.1877 -2.7943
  647SOL    HW2 2587   2.669   0.585   3.005 -1.2918  2.2695  2.1529
  647SOL     MW 2588   2.705   0.502   2.990  0.1632 -0.0078 -0.2672
  648SOL     OW 2589   2.135   0.750   1.117  0.1012  0.0085 -0.6033
  648SOL    HW1 2590   2.131   0.780   1.024  0.5420  0.6672  0.1556
  648SOL    HW2 2591   2.156   0.828   1.168 -0.9544  1.7814  2.0546
  648SOL     MW 2592   2.137   0.765   1.111  0.0201  0.3293 -0.1525
  649SOL     OW 2593   2.356   2.778   1.287 -0.6320 -0.1771  0.5013
  649SOL    HW1 2594   2.441   2.823   1.284 -1.0694  0.5651  0.1813
  649SOL    HW2 2595   2.370   2.692   1.250 -0.2978  0.8203 -0.1414
  649SOL     MW 2596   2.369   2.773   1.282 -0.6456  0.0524  0.3742
  650SOL     OW 2597   2.828   0.181   0.671 -0.0903 -0.4412  0.0626
  650SOL    HW1 2598   2.859   0.266   0.697 -1.6366  0.2872 -0.0679
  650SOL    HW2 2599   2.884   0.160   0.591  2.6200  1.7865  0.7815
  650SOL     MW 2600   2.840   0.190   0.664  0.0633 -0.0512  0.1402
  651SOL     OW 2601   2.984   0.411   0.788  0.3333  0.3240 -0.4622
  651SOL    HW1 2602   3.059   0.420   0.730 -0.4986 -0.7646  1.7601
  651SOL    HW2 2603   2.996   0.465   0.865  1.0751 -0.6488 -0.9980
  651SOL     MW 2604   2.996   0.419   0.791  0.3214  0.0521 -0.2397
  652SOL     OW 2605   2.410   1.496   3.028  0.7926 -0.1882 -0.1095
  652SOL    HW1 2606   2.459   1.493   2.949  3.7805  1.0474 -0.1296
  652SOL    HW2 2607   2.341   1.565   3.006  1.6432  0.9032  0.2112
  652SOL     MW 2608   2.407   1.505   3.015  1.2990  0.1188 -0.0699
  653SOL     OW 2609   1.920   0.442   0.334  0.4443  0.3936  0.0310
  653SOL    HW1 2610   1.878   0.371   0.279  2.0806 -2.0023  0.1645
  653SOL    HW2 2611   2.007   0.464   0.312 -0.5844  0.0127  1.3898
  653SOL     MW 2612   1.926   0.435   0.324  0.5245  0.0272  0.2279
  654SOL     OW 2613   2.461   1.063   0.705  0.0489  0.1529  0.0576
  654SOL    HW1 2614   2.381   1.082   0.657 -0.6120 -0.4597  2.4927
  654SOL    HW2 2615   2.474   0.967   0.717  1.1349 -0.7588  0.7359
  654SOL     MW 2616   2.452   1.053   0.700  0.1049 -0.0482  0.4684
  655SOL     OW 2617   2.985   0.920   0.386 -0.1655 -0.1135  0.0836
  655SOL    HW1 2618   2.956   0.961   0.469 -0.0119 -1.1867  0.0258
  655SOL    HW2 2619   2.965   0.824   0.406  0.5129 -0.1602  2.9756
  655SOL     MW 2620   2.979   0.913   0.399 -0.0557 -0.2612  0.4576
  656SOL     OW 2621   1.971   2.683   1.206 -0.2126  0.3747  0.0287
  656SOL    HW1 2622   1.926   2.752   1.262  0.7923  0.2332  2.2612
  656SOL    HW2 2623   2.008   2.620   1.264 -2.7764 -1.0695  0.7567
  656SOL     MW 2624   1.970   2.684   1.221 -0.4183  0.1655  0.4193
  657SOL     OW 2625   0.191   1.581   1.274 -0.2565 -0.0039  0.2933
  657SOL    HW1 2626   0.120   1.617   1.220  0.2374 -0.4135  0.9618
  657SOL    HW2 2627   0.169   1.489   1.291 -1.9092  0.1385  0.9168
  657SOL     MW 2628   0.179   1.574   1.269 -0.4094 -0.0391  0.4638
  658SOL     OW 2629   2.681   1.353   0.189 -0.4521 -0.3350 -0.2374
  658SOL    HW1 2630   2.635   1.278   0.233  1.1323 -0.8895 -0.6466
  658SOL    HW2 2631   2.732   1.395   0.264  2.7241  1.9886 -0.4406
  658SOL     MW 2632   2.682   1.349   0.205  0.1760 -0.1016 -0.3182
  659SOL     OW 2633   2.304   1.527   1.030  0.5890 -0.2028  0.0589
  659SOL    HW1 2634   2.387   1.532   1.077 -3.9020  0.7692 -3.7825
  659SOL    HW2 2635   2.239   1.557   1.096  3.2243 -0.9452  1.6947
  659SOL     MW 2636   2.306   1.531   1.045  0.3441 -0.1725 -0.2321
  660SOL     OW 2637   2.032   1.567   1.692 -0.3058 -0.3792 -0.1099
  660SOL    HW1 2638   2.034   1.577   1.792  0.6174  1.1040 -1.0407
  660SOL    HW2 2639   1.953   1.519   1.673  0.0317  2.0283  0.1577
  660SOL     MW 2640   2.022   1.562   1.703 -0.1395  0.1341 -0.1974
  661SOL     OW 2641   2.368   1.042   0.222 -0.4969 -1.2023  0.3557
  661SOL    HW1 2642   2.415   1.104   0.287  0.6751  2.0043 -0.8636
  661SOL    HW2 2643   2.355   0.950   0.256  0.7284  0.2434  1.1262
  661SOL     MW 2644   2.373   1.038   0.235 -0.1806 -0.5885  0.2965
  662SOL     OW 2645   2.516   2.923   0.892  0.1964 -0.1428  0.0457
  662SOL    HW1 2646   2.459   2.989   0.931  2.5276 -1.0338  0.0890
  662SOL    HW2 2647   2.556   2.972   0.820 -0.2039  0.2270 -0.2197
  662SOL     MW 2648   2.514   2.938   0.888  0.4512 -0.2116  0.0164
  663SOL     OW 2649   2.851   1.497   0.361  0.0482 -0.5324 -0.3122
  663SOL    HW1 2650   2.851   1.570   0.303 -1.0147  0.4757  0.2980
  663SOL    HW2 2651   2.830   1.537   0.450  0.2637 -1.4679  0.8945
  663SOL     MW 2652   2.848   1.512   0.365 -0.0636 -0.5228 -0.0725
  664SOL     OW 2653   2.469   1.555   1.574  0.1809 -0.0855  0.0972
  664SOL    HW1 2654   2.464   1.649   1.553  0.8942 -2.2365  2.0529
  664SOL    HW2 2655   2.383   1.518   1.558  0.8207  0.0004 -0.3153
  664SOL     MW 2656   2.457   1.562   1.569  0.3594 -0.3580  0.3008
  665SOL     OW 2657   2.848   0.811   2.065  0.4446  0.6639 -0.2890
  665SOL    HW1 2658   2.838   0.849   1.977  0.5836 -0.9865 -1.6259
  665SOL    HW2 2659   2.908   0.745   2.044 -2.0482  2.9221 -1.1304
  665SOL     MW 2660   2.854   0.807   2.051  0.1340  0.7441 -0.5764
  666SOL     OW 2661   2.741   3.034   1.682 -0.4435 -0.6885 -0.1001
  666SOL    HW1 2662   2.751   3.045   1.586 -0.7340  4.8056 -0.7290
  666SOL    HW2 2663   2.699   2.943   1.693  0.1225 -0.6586 -0.1775
  666SOL     MW 2664   2.737   3.023   1.670 -0.4072  0.0403 -0.1933
  667SOL     OW 2665   1.986   2.679   1.670 -0.1051 -0.2627  0.2387
  667SOL    HW1 2666   1.993   2.602   1.729 -1.6793 -0.8996 -2.5021
  667SOL    HW2 2667   2.068   2.726   1.687 -0.9116 -0.7624 -0.0710
  667SOL     MW 2668   1.998   2.675   1.680 -0.4192 -0.4126 -0.1638
  668SOL     OW 2669   2.731   0.630   0.797 -0.5046  0.0074 -0.3640
  668SOL    HW1 2670   2.817   0.637   0.848  2.0455 -0.0060  1.2518
  668SOL    HW2 2671   2.661   0.691   0.829  0.5609 -1.3805  0.0876
  668SOL     MW 2672   2.733   0.639   0.808 -0.0275 -0.1775 -0.0912
  669SOL     OW 2673   0.178   0.949   0.660 -0.1181 -0.1145  0.0306
  669SOL    HW1 2674   0.159   0.998   0.736 -4.7882  0.1008 -0.1562
  669SOL    HW2 2675   0.274   0.950   0.667  1.9356  0.5363 -1.0732
  669SOL     MW 2676   0.188   0.956   0.671 -0.4633 -0.0002 -0.1397
  670SOL     OW 2677   2.885   0.306   0.202  0.1374  0.4429 -0.0106
  670SOL    HW1 2678   2.927   0.246   0.132 -0.5640 -1.2738 -0.3655
  670SOL    HW2 2679   2.891   0.390   0.157  1.0544  0.5990 -1.0873
  670SOL     MW 2680   2.892   0.309   0.187  0.1659  0.2370 -0.1995
  671SOL     OW 2681   2.133   3.026   1.543 -0.4080 -0.1870 -0.8669
  671SOL    HW1 2682   2.061   3.010   1.490  2.0154 -0.6780  1.6906
  671SOL    HW2 2683   2.111   3.105   1.587 -2.2124 -2.6503 -1.1285
  671SOL     MW 2684   2.120   3.034   1.542 -0.3263 -0.5768 -0.5640
  672SOL     OW 2685   1.846   1.686   1.316 -0.1192 -0.2494 -0.2219
  672SOL    HW1 2686   1.764   1.727   1.353  2.0011  0.0754 -0.3293
  672SOL    HW2 2687   1.871   1.749   1.243  0.8876  1.6622  1.5751
  672SOL     MW 2688   1.838   1.700   1.311  0.2934  0.0457  0.0010
  673SOL     OW 2689   2.786   1.099   0.505 -0.1034 -0.2108  0.4954
  673SOL    HW1 2690   2.777   1.033   0.573  0.7770 -0.7393  1.6462
  673SOL    HW2 2691   2.860   1.159   0.534  1.7227 -0.5522 -0.1507
  673SOL     MW 2692   2.795   1.098   0.518  0.2537 -0.3256  0.5620
  674SOL     OW 2693   2.512   0.110   1.210 -0.3251 -0.6502  0.0822
  674SOL    HW1 2694   2.454   0.114   1.131  0.7297  3.0208 -2.0435
  674SOL    HW2 2695   2.515   0.018   1.230  0.6718  2.0359 -0.2376
  674SOL     MW 2696   2.505   0.098   1.203 -0.0544  0.1885 -0.2405
  675SOL     OW 2697   3.017   0.933   1.103 -0.2060 -0.3900 -0.0552
  675SOL    HW1 2698   3.063   0.937   1.184 -0.2945 -1.2996 -0.8176
  675SOL    HW2 2699   3.068   0.979   1.033  1.2984  1.1300  1.2502
  675SOL     MW 2700   3.030   0.940   1.104 -0.0192 -0.3095  0.0164
  676SOL     OW 2701   2.889   1.506   1.641 -0.0818 -0.5142  0.7328
  676SOL    HW1 2702   2.851   1.421   1.629  2.5636  2.1284  2.0273
  676SOL    HW2 2703   2.976   1.492   1.668 -1.8458 -0.5659 -0.7172
  676SOL     MW 2704   2.895   1.493   1.643  0.0345 -0.1723  0.7123
  677SOL     OW 2705   2.448   0.720   1.933 -0.4986 -0.6614  0.3031
  677SOL    HW1 2706   2.409   0.658   1.875  1.4206  1.7329  1.3606
  677SOL    HW2 2707   2.376   0.760   1.973 -0.5654  0.5134  1.4844
  677SOL     MW 2708   2.433   0.717   1.931 -0.2542 -0.1905  0.5985
  678SOL     OW 2709   2.530   1.614   0.397 -0.2708  0.5827  0.0208
  678SOL    HW1 2710   2.442   1.669   0.395  0.0575 -1.4294  1.9147
  678SOL    HW2 2711   2.549   1.601   0.304 -0.4453  0.1502 -2.1411
  678SOL     MW 2712   2.521   1.620   0.385 -0.2505  0.2602 -0.0146
  679SOL     OW 2713   2.302   0.507   1.167 -0.1946  0.4383  0.3815
  679SOL    HW1 2714   2.256   0.420   1.163  1.0205 -1.2346  1.4967
  679SOL    HW2 2715   2.237   0.576   1.152  0.7473  0.1476  2.3741
  679SOL     MW 2716   2.287   0.505   1.164  0.0900  0.1792  0.7915
  680SOL     OW 2717   2.375   0.244   1.400  0.0637 -0.1118  0.1740
  680SOL    HW1 2718   2.287   0.218   1.383 -2.9329 -1.6328 -2.4865
  680SOL    HW2 2719   2.425   0.200   1.323 -3.1598 -2.2298 -0.0010
  680SOL     MW 2720   2.370   0.235   1.387 -0.7570 -0.5920 -0.2001
  681SOL     OW 2721   0.354   0.595   1.544  0.3762  0.2542 -0.5292
  681SOL    HW1 2722   0.319   0.517   1.594  0.2619  0.0769  3.9578
  681SOL    HW2 2723   0.454   0.588   1.551  0.5130  2.0278  1.5000
  681SOL     MW 2724   0.362   0.584   1.552  0.3792  0.4648  0.3305
  682SOL     OW 2725   0.136   2.946   1.462  0.1738  0.0122 -0.0956
  682SOL    HW1 2726   0.120   3.040   1.448  0.8734  3.1386 -2.1062
  682SOL    HW2 2727   0.108   2.944   1.551 -0.2728 -1.3153  0.1116
  682SOL     MW 2728   0.130   2.958   1.472  0.2072  0.2495 -0.3336
  683SOL     OW 2729   2.073   0.873   3.038 -0.3495  0.3515 -0.1629
  683SOL    HW1 2730   1.999   0.832   2.990  1.7434 -0.6149 -0.6978
  683SOL    HW2 2731   2.060   0.964   3.063 -0.1918  1.0858 -0.3001
  683SOL     MW 2732   2.061   0.879   3.035 -0.0525  0.3209 -0.2516
  684SOL     OW 2733   2.190   1.766   0.914 -0.4389 -0.2129  0.6398
  684SOL    HW1 2734   2.110   1.736   0.864 -1.2648 -1.4188 -2.4755
  684SOL    HW2 2735   2.250   1.688   0.922 -0.8817 -2.7339 -0.3295
  684SOL     MW 2736   2.187   1.752   0.908 -0.6063 -0.7047  0.1009
  685SOL     OW 2737   2.633   1.745   1.240  0.5801 -0.0296 -0.2141
  685SOL    HW1 2738   2.706   1.729   1.297  0.7667 -1.4601  0.2427
  685SOL    HW2 2739   2.617   1.664   1.185 -1.7974  1.1365 -1.5083
  685SOL     MW 2740   2.640   1.732   1.240  0.2910 -0.0644 -0.3246
  686SOL     OW 2741   2.874   0.713   1.461  0.2775 -0.1485  0.2195
  686SOL    HW1 2742   2.885   0.644   1.533  1.8422 -1.3152 -0.3885
  686SOL    HW2 2743   2.927   0.694   1.383  2.2544  2.6794 -2.2400
  686SOL     MW 2744   2.882   0.701   1.460  0.7448  0.0707 -0.1852
  687SOL     OW 2745   2.146   0.289   1.203 -0.5483 -0.0649 -0.5075
  687SOL    HW1 2746   2.119   0.234   1.126 -0.4828 -0.9527  1.0054
  687SOL    HW2 2747   2.081   0.365   1.209 -0.4869  2.4625 -5.0974
  687SOL     MW 2748   2.134   0.292   1.193 -0.5315  0.1514 -0.9134
  688SOL     OW 2749   2.360   0.627   1.477  0.0834  0.5903 -0.2969
  688SOL    HW1 2750   2.352   0.550   1.424  0.2854  1.0209 -0.1597
  688SOL    HW2 2751   2.288   0.631   1.544 -3.0697 -0.7224 -0.3913
  688SOL     MW 2752   2.350   0.617   1.479 -0.3060  0.4739 -0.2913
  689SOL     OW 2753   2.546   0.737   2.996 -0.3629 -0.0877  0.0758
  689SOL    HW1 2754   2.566   0.810   2.937  1.7734 -0.1418  0.7007
  689SOL    HW2 2755   2.588   0.752   3.090  0.1644 -1.6797  0.0711
  689SOL     MW 2756   2.554   0.749   3.001 -0.0114 -0.3049  0.1576
  690SOL     OW 2757   2.120   0.940   1.909 -0.0190 -0.5928  0.3693
  690SOL    HW1 2758   2.046   0.881   1.914  1.2466 -1.1675 -0.0793
  690SOL    HW2 2759   2.156   0.944   1.819  0.4306 -0.8861  0.1996
  690SOL     MW 2760   2.115   0.933   1.897  0.2073 -0.7073  0.2877
  691SOL     OW 2761   2.442   0.273   0.826  0.5157 -0.1592 -0.3528
  691SOL    HW1 2762   2.527   0.318   0.856 -0.7049 -0.5256 -0.8502
  691SOL    HW2 2763   2.370   0.329   0.856 -1.7990  2.4169  1.4479
  691SOL     MW 2764   2.444   0.286   0.834  0.0492  0.1323 -0.1809
  692SOL     OW 2765   2.822   1.685   1.463  0.0931 -0.9877 -0.1826
  692SOL    HW1 2766   2.840   1.625   1.527 -1.8723 -1.5235 -2.2196
  692SOL    HW2 2767   2.826   1.772   1.493  3.6842 -2.0086  1.3736
  692SOL     MW 2768   2.825   1.688   1.475  0.3076 -1.1931 -0.2461
  693SOL     OW 2769   2.330   0.433   0.118 -0.2186 -0.0986 -0.0156
  693SOL    HW1 2770   2.248   0.400   0.085 -2.4602  0.2343 -1.2053
  693SOL    HW2 2771   2.326   0.522   0.093  1.1800 -1.8150  4.3124
  693SOL     MW 2772   2.319   0.440   0.110 -0.3299 -0.2812  0.3985
  694SOL     OW 2773   1.932   1.279   1.096 -0.3016 -0.3505  0.1461
  694SOL    HW1 2774   1.993   1.218   1.140 -0.8428  1.0269 -0.5942
  694SOL    HW2 2775   1.864   1.224   1.061 -1.2547 -0.3365 -0.6161
  694SOL     MW 2776   1.931   1.264   1.098 -0.4988 -0.1669 -0.0522
  695SOL     OW 2777   2.976   1.439   1.301  0.3058 -0.0817  0.0141
  695SOL    HW1 2778   2.949   1.447   1.211 -0.1985 -0.4136 -1.2843
  695SOL    HW2 2779   2.950   1.527   1.327 -1.2123  0.7133 -2.1774
  695SOL     MW 2780   2.969   1.451   1.293  0.0389 -0.0206 -0.4463
  696SOL     OW 2781   2.100   1.391   0.897 -0.1700 -0.1757  0.0227
  696SOL    HW1 2782   2.178   1.439   0.935  1.5742  1.6116 -0.4970
  696SOL    HW2 2783   2.038   1.366   0.967  0.6877 -0.3117  0.7168
  696SOL     MW 2784   2.102   1.394   0.911  0.1733  0.0422  0.0457
  697SOL     OW 2785   2.915   1.104   2.133 -0.2465 -0.0220 -0.3978
  697SOL    HW1 2786   2.843   1.157   2.169 -1.9267  2.4293  0.7588
  697SOL    HW2 2787   2.887   1.012   2.116 -0.2256 -3.2779 -0.7534
  697SOL     MW 2788   2.902   1.099   2.136 -0.4655 -0.1282 -0.2921
  698SOL     OW 2789   2.570   0.296   0.011  0.0735  0.6529 -0.1426
  698SOL    HW1 2790   2.489   0.324   0.047 -0.2479  1.9174 -2.0438
  698SOL    HW2 2791   2.611   0.232   0.083  1.3110 -2.4257 -0.9643
  698SOL     MW 2792   2.565   0.291   0.025  0.1943  0.4135 -0.5019
  699SOL     OW 2793   1.823   1.646   2.060 -0.2185  0.2666  0.1642
  699SOL    HW1 2794   1.800   1.549   2.065 -2.2747  0.6995  1.7668
  699SOL    HW2 2795   1.918   1.648   2.035 -0.8791  1.4361 -0.0255
  699SOL     MW 2796   1.832   1.633   2.057 -0.5770  0.4780  0.3507
  700SOL     OW 2797   2.732   0.916   1.579 -0.1347  0.3275 -0.0043
  700SOL    HW1 2798   2.737   1.001   1.529 -0.3105  1.5367  3.2320
  700SOL    HW2 2799   2.771   0.841   1.528  1.4757  2.4876  1.1731
  700SOL     MW 2800   2.738   0.917   1.565  0.0546  0.7720  0.5781
  701SOL     OW 2801   1.636   1.277   2.567 -0.5408 -0.3385 -1.0169
  701SOL    HW1 2802   1.723   1.311   2.555 -2.9037 -0.4503  0.0035
  701SOL    HW2 2803   1.616   1.323   2.652 -1.5666  1.3714 -2.2646
  701SOL     MW 2804   1.645   1.288   2.577 -0.9879 -0.1276 -1.0469
  702SOL     OW 2805   2.182   0.393   0.847 -0.0479 -0.2489  0.1183
  702SOL    HW1 2806   2.168   0.316   0.795  1.9580 -0.4882  0.2072
  702SOL    HW2 2807   2.236   0.463   0.811 -0.8137  0.7116  3.6189
  702SOL     MW 2808   2.188   0.392   0.836  0.1157 -0.1537  0.5919
  703SOL     OW 2809   2.681   1.285   1.024  0.3716  0.0148  0.6212
  703SOL    HW1 2810   2.654   1.236   0.944 -0.9460 -1.7968 -0.8874
  703SOL    HW2 2811   2.727   1.206   1.066  0.7034 -1.7995 -0.8722
  703SOL     MW 2812   2.683   1.268   1.019  0.2415 -0.4636  0.2251
  704SOL     OW 2813   3.088   1.326   0.283 -0.3567 -0.0129 -0.4788
  704SOL    HW1 2814   3.020   1.271   0.245 -0.1990  2.5511 -2.4095
  704SOL    HW2 2815   3.126   1.276   0.362  4.6548 -1.1408  1.4966
  704SOL     MW 2816   3.084   1.312   0.288  0.3253  0.1766 -0.4729
  705SOL     OW 2817   2.184   1.605   1.270  0.0427 -0.2173  0.4635
  705SOL    HW1 2818   2.093   1.616   1.288  8.2091  1.2511  3.7771
  705SOL    HW2 2819   2.208   1.522   1.311  0.7318  0.8894  0.1185
  705SOL     MW 2820   2.175   1.595   1.278  1.2111  0.1225  0.8552
  706SOL     OW 2821   2.952   1.243   0.690 -0.4526 -0.6473  0.6158
  706SOL    HW1 2822   3.030   1.239   0.640  1.4005 -0.7356 -0.7095
  706SOL    HW2 2823   2.935   1.339   0.691 -0.2132  0.1532  1.0581
  706SOL     MW 2824   2.960   1.255   0.684 -0.1765 -0.5534  0.4993
  707SOL     OW 2825   2.383   0.056   0.986 -0.1987  0.2301  0.1943
  707SOL    HW1 2826   2.406   0.121   0.911  0.0516  0.0611 -0.7352
  707SOL    HW2 2827   2.288   0.074   0.995 -0.0454  1.3589 -0.9662
  707SOL     MW 2828   2.373   0.067   0.978 -0.1455  0.3568 -0.0815
  708SOL     OW 2829   2.545   1.575   0.138  0.4345 -0.5613  0.3588
  708SOL    HW1 2830   2.590   1.487   0.145  0.1473 -1.2391 -1.4451
  708SOL    HW2 2831   2.469   1.563   0.082 -1.7264  0.3346 -0.6061
  708SOL     MW 2832   2.541   1.562   0.132  0.1115 -0.5325 -0.0065
  709SOL     OW 2833   1.719   1.735   0.140  0.3132 -0.4145  0.4206
  709SOL    HW1 2834   1.679   1.762   0.053 -1.4224  0.5156  1.7189
  709SOL    HW2 2835   1.669   1.678   0.192  0.1800 -0.6713  0.0758
  709SOL     MW 2836   1.707   1.731   0.136  0.0666 -0.3257  0.5464
  710SOL     OW 2837   2.134   1.145   1.196  0.2610  0.1110  0.4656
  710SOL    HW1 2838   2.189   1.141   1.114 -0.7628 -0.4391 -0.1409
  710SOL    HW2 2839   2.181   1.089   1.260  1.7478 -0.5019 -3.6862
  710SOL     MW 2840   2.147   1.137   1.194  0.3221 -0.0424 -0.1622
  711SOL     OW 2841   2.325   0.121   1.759  0.5215  0.1760  0.9332
  711SOL    HW1 2842   2.424   0.124   1.769 -2.9791 -0.9782 -1.2600
  711SOL    HW2 2843   2.316   0.096   1.666 -1.3450  0.4664 -0.1995
  711SOL     MW 2844   2.337   0.118   1.748 -0.1867  0.0620  0.4944
  712SOL     OW 2845   1.785   0.616   3.064  1.2586 -0.1958 -0.6980
  712SOL    HW1 2846   1.817   0.692   3.020  0.0464 -0.0137  1.3127
  712SOL    HW2 2847   1.827   0.599   3.151  3.0585  0.2009  2.9019
  712SOL     MW 2848   1.794   0.624   3.069  1.3361 -0.1194  0.0423
  713SOL     OW 2849   2.595   0.818   1.086  0.2509  0.6110  0.1190
  713SOL    HW1 2850   2.587   0.720   1.075  0.0746 -1.7267 -1.3906
  713SOL    HW2 2851   2.571   0.827   1.178 -2.2560  3.0450 -0.7299
  713SOL     MW 2852   2.591   0.806   1.097 -0.1032  0.6237 -0.1922
  714SOL     OW 2853   2.155   0.214   1.948  0.1096  0.0821  0.2128
  714SOL    HW1 2854   2.223   0.193   2.014  0.6603  0.2286 -0.3916
  714SOL    HW2 2855   2.203   0.191   1.860  0.8791 -0.1607 -3.2373
  714SOL     MW 2856   2.170   0.208   1.945  0.2838  0.0694 -0.3221
  715SOL     OW 2857   1.749   1.910   1.732 -0.5052 -0.0079  0.2414
  715SOL    HW1 2858   1.835   1.893   1.682 -0.4752  0.9157  2.8061
  715SOL    HW2 2859   1.739   1.828   1.783  2.6033 -1.4374 -0.2759
  715SOL     MW 2860   1.759   1.897   1.732 -0.0911 -0.0746  0.5115
  716SOL     OW 2861   2.397   0.562   0.733  0.4626 -0.2510 -0.0852
  716SOL    HW1 2862   2.454   0.503   0.681 -0.1381  1.6620  1.7197
  716SOL    HW2 2863   2.342   0.610   0.670 -2.1025 -1.0292 -0.2146
  716SOL     MW 2864   2.398   0.560   0.718  0.0449 -0.1012  0.1358
  717SOL     OW 2865   2.859   1.461   2.899  0.0169 -0.6434  0.1365
  717SOL    HW1 2866   2.954   1.467   2.916 -2.2901 -0.5139 -1.3089
  717SOL    HW2 2867   2.816   1.517   2.967  0.5694 -2.3182 -0.0788
  717SOL     MW 2868   2.866   1.469   2.910 -0.2146 -0.8473 -0.0826
  718SOL     OW 2869   2.525   1.341   1.382 -0.1250  0.6734 -0.3896
  718SOL    HW1 2870   2.540   1.387   1.467 -2.5749 -2.4372 -1.0963
  718SOL    HW2 2871   2.577   1.260   1.383 -2.4238 -0.9631  1.2007
  718SOL     MW 2872   2.534   1.337   1.393 -0.7516  0.0471 -0.2730
  719SOL     OW 2873   2.164   1.334   0.582  0.1113  0.3064 -0.5608
  719SOL    HW1 2874   2.259   1.350   0.573  0.8973 -0.7076 -2.6391
  719SOL    HW2 2875   2.151   1.344   0.677 -1.9404 -3.2085  0.3433
  719SOL     MW 2876   2.175   1.338   0.594 -0.0557 -0.2911 -0.7157
  720SOL     OW 2877   2.887   1.191   0.141  0.0038 -0.2169  0.3071
  720SOL    HW1 2878   2.852   1.111   0.174  1.5081  0.2711  1.6750
  720SOL    HW2 2879   2.823   1.255   0.162  0.2683 -1.1545 -1.9407
  720SOL     MW 2880   2.874   1.189   0.148  0.2372 -0.2762  0.1910
  721SOL     OW 2881   2.516   0.832   1.360 -0.0989  0.0650  0.0553
  721SOL    HW1 2882   2.502   0.735   1.380 -0.3685 -3.6378  2.1511
  721SOL    HW2 2883   2.559   0.877   1.436 -1.2545 -1.6284 -0.0351
  721SOL     MW 2884   2.520   0.825   1.372 -0.2869 -0.6469  0.3199
  722SOL     OW 2885   2.544   1.210   0.365  0.1964 -0.5201 -0.8258
  722SOL    HW1 2886   2.511   1.249   0.452  0.6041 -2.3603  3.2364
  722SOL    HW2 2887   2.616   1.156   0.390  1.3486 -0.0879 -0.1240
  722SOL     MW 2888   2.549   1.208   0.380  0.4022 -0.7059 -0.1972
  723SOL     OW 2889   2.221   1.376   1.641 -0.2030  0.0377  0.3118
  723SOL    HW1 2890   2.203   1.376   1.549  1.6650  0.0841  1.2453
  723SOL    HW2 2891   2.149   1.429   1.669  0.8459 -0.8769 -0.0076
  723SOL     MW 2892   2.209   1.383   1.633  0.1819 -0.0768  0.3928
  724SOL     OW 2893   2.492   0.374   0.550  0.0868  0.5044  0.0423
  724SOL    HW1 2894   2.503   0.315   0.622  2.4441 -0.0819 -0.0252
  724SOL    HW2 2895   2.581   0.385   0.522 -0.2417 -1.6337 -0.3979
  724SOL     MW 2896   2.506   0.368   0.556  0.3545  0.1449 -0.0247
  725SOL     OW 2897   2.586   0.525   1.130 -0.2942 -0.0986 -0.3621
  725SOL    HW1 2898   2.615   0.524   1.216  1.2215 -2.0774  0.8102
  725SOL    HW2 2899   2.490   0.519   1.126  0.3676  1.9513 -1.1420
  725SOL     MW 2900   2.577   0.524   1.141 -0.0069 -0.0892 -0.3103
  726SOL     OW 2901   2.572   2.432   0.541  0.6534 -0.0517  0.4875
  726SOL    HW1 2902   2.489   2.452   0.489 -1.3157 -2.8110  0.1664
  726SOL    HW2 2903   2.552   2.367   0.602  1.4684  2.0631 -1.0277
  726SOL     MW 2904   2.559   2.426   0.542  0.5012 -0.1367  0.2452
  727SOL     OW 2905   2.888   0.283   1.591  0.7917 -0.4251 -0.3324
  727SOL    HW1 2906   2.906   0.311   1.496  2.8297 -0.1351 -2.7479
  727SOL    HW2 2907   2.804   0.239   1.598 -0.6242  0.2606 -0.0772
  727SOL     MW 2908   2.879   0.281   1.580  0.8738 -0.2963 -0.6174
  728SOL     OW 2909   2.816   1.159   2.970 -0.3073  0.1728  0.1875
  728SOL    HW1 2910   2.835   1.247   2.942  2.6488 -0.9936  2.6655
  728SOL    HW2 2911   2.814   1.156   3.068 -0.5462  1.8468 -1.5495
  728SOL     MW 2912   2.818   1.170   2.980  0.0512  0.2398  0.2853
  729SOL     OW 2913   2.560   1.488   1.159  0.1223  0.5442  0.2136
  729SOL    HW1 2914   2.573   1.463   1.252  1.3081  4.0360 -2.3620
  729SOL    HW2 2915   2.585   1.406   1.109 -0.5118 -0.7296  0.1875
  729SOL     MW 2916   2.565   1.474   1.165  0.1951  0.8368 -0.1297
  730SOL     OW 2917   2.115   1.117   0.285 -0.0095 -0.2183  0.1048
  730SOL    HW1 2918   2.208   1.105   0.259 -0.2037 -1.1723  1.1798
  730SOL    HW2 2919   2.094   1.208   0.297  0.8610  1.4345  0.1462
  730SOL     MW 2920   2.124   1.127   0.283  0.0798 -0.1261  0.2521
  731SOL     OW 2921   2.805   1.848   2.899  0.0372 -0.1171 -0.3025
  731SOL    HW1 2922   2.738   1.861   2.829  0.5790 -1.3450 -1.0144
  731SOL    HW2 2923   2.862   1.926   2.894 -1.2062  0.3164 -0.3917
  731SOL     MW 2924   2.804   1.860   2.889 -0.0554 -0.2219 -0.4082
  732SOL     OW 2925   2.240   0.937   1.324 -0.4517 -0.0414 -0.9784
  732SOL    HW1 2926   2.193   0.883   1.387  0.7206 -1.5791 -0.8876
  732SOL    HW2 2927   2.330   0.905   1.348 -1.2909 -0.8442  1.1955
  732SOL     MW 2928   2.246   0.926   1.335 -0.4077 -0.3502 -0.6796
  733SOL     OW 2929   2.348   2.813   3.068  0.1169 -0.2939 -0.4895
  733SOL    HW1 2930   2.277   2.873   3.052 -1.5712 -1.4066  1.4260
  733SOL    HW2 2931   2.303   2.727   3.062  2.1809 -0.4785 -0.2168
  733SOL     MW 2932   2.333   2.810   3.065  0.1665 -0.4651 -0.2008
  734SOL     OW 2933   1.490   0.372   2.460 -0.1492 -0.7432  0.5366
  734SOL    HW1 2934   1.469   0.319   2.540  2.0141 -2.7449  0.1704
  734SOL    HW2 2935   1.510   0.301   2.398 -0.5451  2.6863  2.2154
  734SOL     MW 2936   1.490   0.356   2.462  0.0840 -0.5548  0.7098
  735SOL     OW 2937   3.020   0.982   2.607 -0.1968 -0.6912 -0.6704
  735SOL    HW1 2938   3.021   0.888   2.603 -1.1875  1.0717 -0.2465
  735SOL    HW2 2939   3.022   1.003   2.700  0.3975  2.3773 -0.5895
  735SOL     MW 2940   3.020   0.973   2.619 -0.2491 -0.0538 -0.6038
  736SOL     OW 2941   0.067   0.587   2.556 -0.5751 -0.5059 -0.4745
  736SOL    HW1 2942   0.114   0.643   2.490  1.6380  1.2901  1.0962
  736SOL    HW2 2943   0.037   0.512   2.497  0.9262  0.1205 -0.4749
  736SOL     MW 2944   0.070   0.584   2.539 -0.0850 -0.1863 -0.2673
  737SOL     OW 2945   2.917   0.696   2.617  0.3727 -0.0688  0.2644
  737SOL    HW1 2946   2.848   0.684   2.547  0.4222  2.0561 -0.2472
  737SOL    HW2 2947   2.995   0.652   2.588 -1.0292  0.1570 -0.6877
  737SOL     MW 2948   2.918   0.689   2.604  0.1943  0.2413  0.0713
  738SOL     OW 2949   0.166   0.531   1.973  0.0379 -0.4178 -0.6347
  738SOL    HW1 2950   0.256   0.559   1.998  0.1498  1.8126 -1.3537
  738SOL    HW2 2951   0.176   0.524   1.877  3.0178  2.2308  1.3254
  738SOL     MW 2952   0.179   0.533   1.963  0.4459  0.2259 -0.4710
  739SOL     OW 2953   2.523   0.949   2.152  0.1810  0.2886  0.1226
  739SOL    HW1 2954   2.437   0.902   2.153 -0.1069  1.3827  1.7791
  739SOL    HW2 2955   2.537   0.987   2.065 -0.3634  0.6398 -0.5061
  739SOL     MW 2956   2.514   0.948   2.141  0.0712  0.4793  0.2582
  740SOL     OW 2957   0.119   1.777   2.954 -0.4063  0.1446 -0.0419
  740SOL    HW1 2958   0.083   1.687   2.963  1.4889  0.2351  0.7982
  740SOL    HW2 2959   0.212   1.767   2.982 -0.4992 -1.8781 -1.7008
  740SOL     MW 2960   0.126   1.764   2.959 -0.1685 -0.1103 -0.1499
  741SOL     OW 2961   2.227   1.212   2.716 -0.0248  0.3013 -0.0140
  741SOL    HW1 2962   2.197   1.281   2.652  0.9953  0.9115  1.8106
  741SOL    HW2 2963   2.228   1.247   2.806  3.0762  0.6287 -1.3472
  741SOL     MW 2964   2.224   1.226   2.719  0.5189  0.4250  0.0508
  742SOL     OW 2965   1.651   1.379   2.276 -0.2669  0.1084  0.0346
  742SOL    HW1 2966   1.590   1.309   2.258  0.9319 -0.2304  0.0233
  742SOL    HW2 2967   1.684   1.360   2.366  0.4259  1.8823 -1.9873
  742SOL     MW 2968   1.647   1.367   2.286 -0.0174  0.2978 -0.2337
  743SOL     OW 2969   2.499   1.238   2.703  0.2364  0.0864  0.5517
  743SOL    HW1 2970   2.403   1.229   2.709  1.6059  1.8828  2.6264
  743SOL    HW2 2971   2.521   1.163   2.757 -1.7049  3.5607 -2.6694
  743SOL     MW 2972   2.489   1.227   2.711  0.1610  0.7818  0.4005
  744SOL     OW 2973   2.788   0.991   1.831  0.1154 -0.0294 -0.0108
  744SOL    HW1 2974   2.712   1.045   1.859 -0.0408  1.0071 -0.6704
  744SOL    HW2 2975   2.771   0.955   1.743  1.3072 -0.5890 -0.4046
  744SOL     MW 2976   2.776   0.993   1.823  0.2520  0.0336 -0.1498
  745SOL     OW 2977   1.783   0.436   2.451  0.5234  0.1823  0.0116
  745SOL    HW1 2978   1.776   0.451   2.356  1.0505 -0.2030  0.4017
  745SOL    HW2 2979   1.699   0.403   2.483 -2.1853  0.0428 -0.7528
  745SOL     MW 2980   1.771   0.434   2.443  0.2355  0.1131 -0.0378
  746SOL     OW 2981   1.503   1.477   1.687  0.0013  0.1757 -0.2106
  746SOL    HW1 2982   1.570   1.523   1.736 -0.9380 -0.8295  0.0285
  746SOL    HW2 2983   1.500   1.403   1.744 -0.5796  0.6403  1.9522
  746SOL     MW 2984   1.511   1.473   1.701 -0.1992  0.1044  0.1063
  747SOL     OW 2985   2.563   1.123   1.918 -0.4933  0.3705 -0.1191
  747SOL    HW1 2986   2.467   1.105   1.911  1.6404 -0.2838 -1.4873
  747SOL    HW2 2987   2.577   1.211   1.958 -0.9392 -1.2656  1.2301
  747SOL     MW 2988   2.552   1.132   1.922 -0.2706  0.0683 -0.1216
  748SOL     OW 2989   0.075   3.057   1.913  0.0538  0.1063  0.2329
  748SOL    HW1 2990   0.168   3.059   1.917 -0.4031  0.0037  1.0510
  748SOL    HW2 2991   0.046   3.136   1.952 -0.2457  0.2586  0.9926
  748SOL     MW 2992   0.083   3.068   1.919 -0.0460  0.1129  0.4410
  749SOL     OW 2993   2.448   0.600   2.778  0.5563 -0.3770 -0.0856
  749SOL    HW1 2994   2.478   0.665   2.713  1.5326 -0.4441 -1.7321
  749SOL    HW2 2995   2.506   0.607   2.861  1.5500 -2.4149  0.0243
  749SOL     MW 2996   2.460   0.609   2.780  0.8162 -0.6547 -0.2884
  750SOL     OW 2997   2.063   3.055   1.952 -0.1560  0.3979  0.4760
  750SOL    HW1 2998   2.110   3.139   1.960 -2.3411 -2.8378  1.0726
  750SOL    HW2 2999   2.128   2.988   1.925  1.6428 -1.4096 -2.4307
  750SOL     MW 3000   2.078   3.057   1.950 -0.2070 -0.2675  0.1712
  751SOL     OW 3001   3.098   0.383   2.390  0.4289  0.3116  0.6011
  751SOL    HW1 3002   3.038   0.409   2.326  1.3460  1.2362  0.8953
  751SOL    HW2 3003   3.178   0.356   2.337  1.3923  1.1542  0.5660
  751SOL     MW 3004   3.101   0.383   2.375  0.6770  0.5448  0.6353
  752SOL     OW 3005   2.130   0.898   2.785 -0.5478  0.1193 -0.5770
  752SOL    HW1 3006   2.211   0.948   2.772  1.0834  0.0939  0.6315
  752SOL    HW2 3007   2.132   0.887   2.883 -0.8929  0.8723 -1.5440
  752SOL     MW 3008   2.141   0.903   2.796 -0.3781  0.2153 -0.5452
  753SOL     OW 3009   2.834   0.430   2.312  0.5062 -0.2344  0.0877
  753SOL    HW1 3010   2.797   0.345   2.335  0.9682  0.1412  0.6804
  753SOL    HW2 3011   2.777   0.498   2.352 -1.1882  1.0733  0.0475
  753SOL     MW 3012   2.821   0.428   2.321  0.3436 -0.0123  0.1606
  754SOL     OW 3013   2.272   2.991   2.616 -0.7223  0.3440 -0.5097
  754SOL    HW1 3014   2.283   2.976   2.518 -0.5769  2.2264 -0.7279
  754SOL    HW2 3015   2.344   2.936   2.655  2.3570  0.2828 -0.8238
  754SOL     MW 3016   2.283   2.982   2.608 -0.2969  0.5843 -0.5799
  755SOL     OW 3017   2.804   1.588   2.481 -0.5660  0.4423  0.3147
  755SOL    HW1 3018   2.755   1.507   2.493  1.1346 -0.5130  1.3573
  755SOL    HW2 3019   2.849   1.614   2.563  0.5149 -0.1343  0.6646
  755SOL     MW 3020   2.804   1.581   2.494 -0.1990  0.2401  0.4984
  756SOL     OW 3021   2.235   1.265   2.977 -0.0055 -0.2144 -0.3267
  756SOL    HW1 3022   2.307   1.334   2.975  3.1181  2.7431 -0.7237
  756SOL    HW2 3023   2.292   1.188   2.986 -0.0156 -0.0885  0.0099
  756SOL     MW 3024   2.252   1.264   2.978  0.4053  0.1925 -0.3347
  757SOL     OW 3025   2.199   0.939   1.646  0.0343 -0.0484 -0.3683
  757SOL    HW1 3026   2.215   0.844   1.657  0.3386 -2.5028  1.5757
  757SOL    HW2 3027   2.131   0.930   1.576 -1.5991  0.0224  1.6322
  757SOL     MW 3028   2.192   0.925   1.638 -0.1410 -0.3629  0.1521
  758SOL     OW 3029   2.267   1.803   2.620  0.0098 -0.5887  0.0454
  758SOL    HW1 3030   2.272   1.824   2.523  0.1115 -0.3416  1.1175
  758SOL    HW2 3031   2.356   1.778   2.647  1.1638  2.5160  2.5378
  758SOL     MW 3032   2.279   1.803   2.611  0.1755 -0.1465  0.5157
  759SOL     OW 3033   1.538   1.419   2.771 -0.0781 -0.0334  0.7267
  759SOL    HW1 3034   1.542   1.495   2.712  0.1304  1.6129 -2.6998
  759SOL    HW2 3035   1.579   1.450   2.854 -0.1116  0.3221 -1.0423
  759SOL     MW 3036   1.544   1.433   2.774 -0.0550  0.2307  0.0412
  760SOL     OW 3037   2.637   1.987   2.693  0.4110 -0.4916 -0.6057
  760SOL    HW1 3038   2.585   1.907   2.685  0.9420  2.7828 -1.5469
  760SOL    HW2 3039   2.717   1.982   2.648 -2.1178 -1.6866  0.4943
  760SOL     MW 3040   2.640   1.976   2.686  0.1474 -0.2172 -0.5847
  761SOL     OW 3041   2.177   0.450   2.448  0.0393  0.2952 -0.5042
  761SOL    HW1 3042   2.116   0.382   2.466  1.2198 -1.7351 -0.9653
  761SOL    HW2 3043   2.145   0.511   2.519 -3.3973 -2.0611  4.5552
  761SOL     MW 3044   2.164   0.449   2.460 -0.2584 -0.2836  0.1025
  762SOL     OW 3045   0.034   0.156   2.086 -0.0832 -0.1910 -0.0463
  762SOL    HW1 3046   0.038   0.104   2.166 -1.7073 -2.7459 -0.5834
  762SOL    HW2 3047  -0.040   0.214   2.090 -0.0845 -0.1368 -2.1935
  762SOL     MW 3048   0.025   0.157   2.097 -0.2977 -0.5210 -0.4005
  763SOL     OW 3049   2.442   1.156   2.374  0.5185  0.0067  0.1000
  763SOL    HW1 3050   2.480   1.117   2.294  0.0679  1.6793 -1.4586
  763SOL    HW2 3051   2.485   1.236   2.395  0.0486  0.0482  1.5982
  763SOL     MW 3052   2.453   1.162   2.366  0.3970  0.2329  0.0920
  764SOL     OW 3053   0.334   0.180   2.779 -0.1710  0.1903  0.4973
  764SOL    HW1 3054   0.246   0.207   2.758  2.1049 -1.5700  0.6875
  764SOL    HW2 3055   0.351   0.219   2.860  0.9589  0.9986 -0.5450
  764SOL     MW 3056   0.324   0.188   2.787  0.2784  0.0647  0.3849
  765SOL     OW 3057   2.749   0.175   2.325  0.3422  0.1983 -0.2835
  765SOL    HW1 3058   2.680   0.147   2.261 -1.1957  0.5751 -0.3155
  765SOL    HW2 3059   2.807   0.099   2.334  2.0088  0.0922 -1.7704
  765SOL     MW 3060   2.748   0.161   2.318  0.3592  0.2340 -0.4839
  766SOL     OW 3061   1.849   3.005   2.097  0.0282 -0.2614 -0.3696
  766SOL    HW1 3062   1.923   3.028   2.042 -0.5196  1.2367 -0.6237
  766SOL    HW2 3063   1.799   2.933   2.058  1.5135 -1.0340  1.2118
  766SOL     MW 3064   1.852   2.998   2.085  0.1519 -0.1657 -0.1945
  767SOL     OW 3065   2.704   0.621   1.942 -0.0253 -0.2375 -0.6778
  767SOL    HW1 3066   2.749   0.685   1.997  3.3314  0.7619 -2.2857
  767SOL    HW2 3067   2.622   0.669   1.915 -0.0146  2.0710  2.8057
  767SOL     MW 3068   2.699   0.636   1.946  0.4190  0.1989 -0.4303
  768SOL     OW 3069   0.035   1.459   2.957  0.0999  0.3778 -0.2941
  768SOL    HW1 3070   0.049   1.461   3.053 -1.7669 -0.8065 -0.7591
  768SOL    HW2 3071   0.056   1.368   2.937 -2.4544  1.8366 -0.2496
  768SOL     MW 3072   0.040   1.448   2.967 -0.4834  0.4140 -0.3496
  769SOL     OW 3073   2.391   0.647   2.462  0.1455 -0.3585  0.8374
  769SOL    HW1 3074   2.340   0.563   2.446 -0.7110 -1.4811 -2.5995
  769SOL    HW2 3075   2.434   0.650   2.376 -1.0224 -1.5318  2.6284
  769SOL     MW 3076   2.390   0.637   2.449 -0.1216 -0.6614  0.6203
  770SOL     OW 3077   0.067   1.619   2.634 -0.0637 -0.3984 -0.3783
  770SOL    HW1 3078  -0.020   1.643   2.665  0.3319  1.0286 -1.2818
  770SOL    HW2 3079   0.092   1.532   2.667 -2.3199  1.1210 -0.8301
  770SOL     MW 3080   0.059   1.611   2.642 -0.3092 -0.0096 -0.5571
  771SOL     OW 3081   2.989   0.567   1.969  0.3491  0.3490  0.3533
  771SOL    HW1 3082   2.961   0.587   1.878 -1.5166  0.0532 -2.1018
  771SOL    HW2 3083   3.080   0.565   1.964 -0.4951  1.3495  0.3136
  771SOL     MW 3084   2.997   0.570   1.956 -0.0084  0.4420  0.0241
  772SOL     OW 3085   0.019   3.079   2.313  0.4105  0.3277 -0.2418
  772SOL    HW1 3086  -0.055   3.051   2.365  3.0295 -1.1248  1.3106
  772SOL    HW2 3087   0.065   2.997   2.288 -1.0406  0.2460 -1.4104
  772SOL     MW 3088   0.015   3.065   2.316  0.5646  0.1253 -0.1912
  773SOL     OW 3089   2.469   2.846   2.800 -0.6229  0.3811 -0.3422
  773SOL    HW1 3090   2.464   2.763   2.745 -0.3135 -2.5748 -1.7589
  773SOL    HW2 3091   2.432   2.821   2.889  1.3551  0.4471  1.9358
  773SOL     MW 3092   2.464   2.832   2.804 -0.3211 -0.0002 -0.2285
  774SOL     OW 3093   2.287   1.169   1.823  0.2315 -0.0412 -0.0998
  774SOL    HW1 3094   2.284   1.247   1.764 -2.1615 -0.9936 -0.8512
  774SOL    HW2 3095   2.262   1.091   1.762  0.5657 -1.1157 -1.6299
  774SOL     MW 3096   2.283   1.169   1.807 -0.0402 -0.3086 -0.4008
  775SOL     OW 3097   2.296   2.976   2.333  0.5243  0.2076 -0.2243
  775SOL    HW1 3098   2.310   3.064   2.291 -0.8901  1.8598  0.3201
  775SOL    HW2 3099   2.363   2.918   2.299  1.0965  3.0031  1.4158
  775SOL     MW 3100   2.307   2.980   2.323  0.4132  0.7944  0.0639
  776SOL     OW 3101   0.105   1.513   0.123 -0.2000 -0.4765 -0.0632
  776SOL    HW1 3102   0.195   1.476   0.100  0.2658 -2.0712  0.8338
  776SOL    HW2 3103   0.060   1.449   0.178  1.4531 -2.9590 -1.8261
  776SOL     MW 3104   0.111   1.499   0.127  0.0795 -1.0144 -0.1775
  777SOL     OW 3105   3.024   1.131   1.725 -0.0264  0.0338 -0.4428
  777SOL    HW1 3106   2.995   1.176   1.649  0.0111 -1.8325  1.7575
  777SOL    HW2 3107   2.958   1.083   1.771  1.4345 -0.6287  0.1330
  777SOL     MW 3108   3.011   1.131   1.721  0.1713 -0.2998 -0.0765
  778SOL     OW 3109   2.800   0.426   2.701 -0.0928  0.1686  0.3393
  778SOL    HW1 3110   2.766   0.450   2.784  2.4954  1.2416 -2.3980
  778SOL    HW2 3111   2.829   0.514   2.670  3.9313 -1.2239  1.0833
  778SOL     MW 3112   2.799   0.441   2.708  0.7796  0.1264  0.0763
  779SOL     OW 3113   2.246   0.561   2.188 -0.1569 -0.3352  0.9303
  779SOL    HW1 3114   2.180   0.601   2.136  2.6767 -0.5043 -3.5787
  779SOL    HW2 3115   2.203   0.536   2.269  0.7230  0.9465 -1.5275
  779SOL     MW 3116   2.232   0.563   2.192  0.3331 -0.1884  0.0111
  780SOL     OW 3117   0.114   0.315   2.681 -0.2455  0.1819 -0.2302
  780SOL    HW1 3118   0.028   0.284   2.712 -1.4002  0.7468  1.2118
  780SOL    HW2 3119   0.119   0.410   2.674  3.8336  2.7506 -1.2987
  780SOL     MW 3120   0.103   0.323   2.684  0.1404  0.5953 -0.1809
  781SOL     OW 3121   3.060   1.308   2.450  0.5227 -0.3414  0.1263
  781SOL    HW1 3122   3.044   1.372   2.380  1.4941 -0.6310  1.2890
  781SOL    HW2 3123   3.089   1.229   2.403 -0.1385 -1.8758 -2.1559
  781SOL     MW 3124   3.062   1.306   2.435  0.5636 -0.5820 -0.0214
  782SOL     OW 3125   0.642   1.578   0.029  0.5136  0.2128 -0.8913
  782SOL    HW1 3126   0.562   1.597  -0.005  4.0278  1.7561  3.0958
  782SOL    HW2 3127   0.649   1.645   0.102  1.1722 -1.4078  0.7636
  782SOL     MW 3128   0.632   1.589   0.034  1.0642  0.2026 -0.1469
  783SOL     OW 3129   2.705   0.639   2.459 -0.2034  0.1985 -0.1068
  783SOL    HW1 3130   2.671   0.647   2.374 -2.8134 -0.8313  1.7675
  783SOL    HW2 3131   2.637   0.576   2.493 -1.7175 -0.2249  0.0940
  783SOL     MW 3132   2.691   0.632   2.452 -0.7475  0.0067  0.1670
  784SOL     OW 3133   0.151   0.849   2.871 -0.2545 -0.4644 -0.2653
  784SOL    HW1 3134   0.082   0.914   2.880  2.6039 -2.3856 -0.5174
  784SOL    HW2 3135   0.201   0.880   2.791 -0.3200 -1.8066 -0.1605
  784SOL     MW 3136   0.149   0.861   2.862  0.1140 -0.8949 -0.2847
  785SOL     OW 3137   0.436   0.464   2.167 -0.5059  0.1477  0.0265
  785SOL    HW1 3138   0.440   0.466   2.071  2.0416 -1.4510  1.8123
  785SOL    HW2 3139   0.363   0.411   2.189  0.0366  1.0213  2.1395
  785SOL     MW 3140   0.427   0.458   2.157 -0.0982  0.0520  0.5409
  786SOL     OW 3141   1.911   0.386   2.961  0.3825 -0.0126 -0.4292
  786SOL    HW1 3142   1.885   0.477   2.973 -0.8597  1.9854  1.8972
  786SOL    HW2 3143   1.960   0.391   2.882  0.4760  1.1923  1.2952
  786SOL     MW 3144   1.914   0.399   2.952  0.2309  0.4100  0.1052
  787SOL     OW 3145   2.479   0.087   2.960 -0.2798  0.2680  0.6713
  787SOL    HW1 3146   2.529   0.027   2.898  0.5540 -2.3267  0.0688
  787SOL    HW2 3147   2.536   0.159   2.995  0.1374 -1.0854  3.8434
  787SOL     MW 3148   2.493   0.089   2.956 -0.1147 -0.2529  1.0103
  788SOL     OW 3149   2.876   3.044   2.434 -0.2033 -0.2308  0.3412
  788SOL    HW1 3150   2.903   3.042   2.528 -0.1251 -0.4886  0.3295
  788SOL    HW2 3151   2.821   2.966   2.421  1.7791  0.1998 -0.9894
  788SOL     MW 3152   2.872   3.034   2.445  0.0686 -0.2080  0.1641
  789SOL     OW 3153   0.066   0.196   3.033 -0.2589  0.1458 -0.3302
  789SOL    HW1 3154  -0.014   0.141   3.045 -0.8508  0.0514  3.5012
  789SOL    HW2 3155   0.018   0.268   2.988 -0.8790 -0.0695  3.6568
  789SOL     MW 3156   0.049   0.199   3.029 -0.4188  0.1049  0.7013
  790SOL     OW 3157   3.086   1.046   2.356  0.2182  0.3700 -0.1210
  790SOL    HW1 3158   3.044   1.016   2.437 -1.2325  1.9083 -0.7033
  790SOL    HW2 3159   3.019   1.056   2.285 -1.5062  1.2746 -1.8704
  790SOL     MW 3160   3.072   1.043   2.357 -0.2008  0.6923 -0.4287
  791SOL     OW 3161   2.561   0.435   2.575  0.0835 -0.0682 -0.2471
  791SOL    HW1 3162   2.491   0.470   2.643 -2.1792 -2.5897  2.1459
  791SOL    HW2 3163   2.642   0.404   2.622  2.2138  0.7716  1.2475
  791SOL     MW 3164   2.563   0.436   2.590  0.0660 -0.2901  0.2658
  792SOL     OW 3165   2.332   0.198   2.424  0.0199 -0.2270 -0.2306
  792SOL    HW1 3166   2.329   0.294   2.426  0.0682 -1.6315  0.1526
  792SOL    HW2 3167   2.316   0.156   2.510  1.4519 -0.3288 -0.3583
  792SOL     MW 3168   2.329   0.205   2.436  0.2152 -0.4258 -0.1969
  793SOL     OW 3169   1.945   1.183   1.981  0.7015  0.8166 -0.2459
  793SOL    HW1 3170   1.931   1.120   1.907  1.9375  1.5735 -0.3465
  793SOL    HW2 3171   2.037   1.187   1.970 -1.0403 -0.5115  1.3854
  793SOL     MW 3172   1.956   1.175   1.970  0.6348  0.7413 -0.0440
  794SOL     OW 3173   1.411   2.374   0.134  0.2534 -0.1031 -0.1445
  794SOL    HW1 3174   1.451   2.445   0.077 -1.4318  0.3482  1.4542
  794SOL    HW2 3175   1.458   2.379   0.218 -1.3852  0.7013  1.1586
  794SOL     MW 3176   1.422   2.384   0.138 -0.1851  0.0626  0.2383
  795SOL     OW 3177   2.319   1.003   2.540 -0.2055 -0.2611 -0.1534
  795SOL    HW1 3178   2.281   1.083   2.580  0.1673 -0.1898  1.5462
  795SOL    HW2 3179   2.367   1.045   2.469  1.5879 -1.1029 -0.2790
  795SOL     MW 3180   2.321   1.019   2.536  0.0803 -0.3628  0.0543
  796SOL     OW 3181   0.250   0.606   2.761  0.1987 -0.6354  0.4696
  796SOL    HW1 3182   0.238   0.688   2.811 -0.4950  1.1300  1.9709
  796SOL    HW2 3183   0.172   0.608   2.704 -0.5763  1.2067  1.4910
  796SOL     MW 3184   0.238   0.617   2.760  0.0049 -0.1594  0.8025
  797SOL     OW 3185   2.608   0.149   2.582 -0.0846  0.6045  0.0088
  797SOL    HW1 3186   2.538   0.207   2.579 -2.0375  0.3772 -1.1814
  797SOL    HW2 3187   2.651   0.166   2.495 -0.4682 -2.5708  0.7320
  797SOL     MW 3188   2.604   0.159   2.570 -0.3929  0.1555 -0.0528
  798SOL     OW 3189   2.342   0.087   2.143 -0.5560  0.0260  0.2794
  798SOL    HW1 3190   2.347   0.124   2.229 -0.8760 -2.2091 -1.6246
  798SOL    HW2 3191   2.425   0.039   2.125 -0.6444  0.0075  1.2258
  798SOL     MW 3192   2.354   0.085   2.152 -0.6099 -0.2714  0.1531
  799SOL     OW 3193   2.562   2.946   0.118 -0.0580 -0.2909  0.1582
  799SOL    HW1 3194   2.479   2.940   0.075 -0.5269  0.7797 -1.0233
  799SOL    HW2 3195   2.535   2.958   0.206  0.8249  0.1138 -1.7464
  799SOL     MW 3196   2.547   2.947   0.124 -0.0034 -0.0963 -0.2490
  800SOL     OW 3197   1.922   0.032   1.712 -0.4096 -0.3378 -0.4904
  800SOL    HW1 3198   1.885  -0.052   1.691 -0.2764  0.3245 -0.4380
  800SOL    HW2 3199   1.949   0.017   1.805  0.8155  0.3750  0.6627
  800SOL     MW 3200   1.921   0.019   1.722 -0.2304 -0.1564 -0.3313
  801SOL     OW 3201   2.817   1.248   2.615  0.0954  0.3125  0.3082
  801SOL    HW1 3202   2.798   1.160   2.580 -0.9977 -0.0166 -1.6621
  801SOL    HW2 3203   2.901   1.274   2.579 -0.3052 -2.7430  1.0048
  801SOL     MW 3204   2.826   1.240   2.606 -0.1017 -0.1341  0.1402
  802SOL     OW 3205   2.592   1.481   2.816 -0.8422 -0.0191  0.2947
  802SOL    HW1 3206   2.579   1.401   2.764  2.7679  0.0857 -0.0551
  802SOL    HW2 3207   2.686   1.462   2.846  1.2079 -1.5576 -1.0304
  802SOL     MW 3208   2.603   1.468   2.813 -0.0954 -0.2083  0.0737
  803SOL     OW 3209   2.232   1.378   2.033  0.0817  0.6680 -0.3389
  803SOL    HW1 3210   2.222   1.345   2.122 -0.5573  2.2558  0.2514
  803SOL    HW2 3211   2.244   1.315   1.962 -0.7557  2.6642 -1.7070
  803SOL     MW 3212   2.232   1.365   2.035 -0.1131  1.1409 -0.4415
  804SOL     OW 3213   2.252   0.085   0.041  0.0900  0.4252 -0.5232
  804SOL    HW1 3214   2.196   0.158   0.004 -0.9596 -0.8729 -1.7496
  804SOL    HW2 3215   2.326   0.074  -0.016 -0.8034 -0.1327  2.5571
  804SOL     MW 3216   2.254   0.093   0.028 -0.1664  0.1803 -0.2786
  805SOL     OW 3217   2.730   0.949   2.606 -0.7683  0.4054  0.5992
  805SOL    HW1 3218   2.654   0.892   2.593  0.7769  0.0807  0.5297
  805SOL    HW2 3219   2.803   0.891   2.586  0.1164 -0.3803 -0.8141
  805SOL     MW 3220   2.729   0.934   2.602 -0.4477  0.2589  0.4036
  806SOL     OW 3221   2.523   0.627   2.218  0.8051 -0.3430 -0.3440
  806SOL    HW1 3222   2.456   0.598   2.156  2.2826 -0.1971  1.1515
  806SOL    HW2 3223   2.547   0.710   2.183 -0.8228 -0.2711 -1.8257
  806SOL     MW 3224   2.517   0.634   2.205  0.7853 -0.3143 -0.3422
  807SOL     OW 3225   0.102   1.090   2.048 -0.0102  0.6120  0.4354
  807SOL    HW1 3226   0.141   1.006   2.066  0.2675  2.4245 -4.4755
  807SOL    HW2 3227   0.008   1.079   2.068  2.7716  0.9979  0.9909
  807SOL     MW 3228   0.095   1.077   2.053  0.3934  0.9021 -0.1393
  808SOL     OW 3229   2.650   3.056   2.782  0.2173 -0.4880  0.3839
  808SOL    HW1 3230   2.603   2.975   2.765  0.4910 -2.4418 -2.7442
  808SOL    HW2 3231   2.628   3.119   2.711  1.5633 -1.4052  2.0154
  808SOL     MW 3232   2.641   3.053   2.771  0.4310 -0.8668  0.1864
  809SOL     OW 3233   2.587   1.380   2.450 -0.1818 -0.1494 -0.1071
  809SOL    HW1 3234   2.603   1.320   2.520  1.5923  2.5842  3.5249
  809SOL    HW2 3235   2.649   1.365   2.371  0.1148 -1.1997  0.9301
  809SOL     MW 3236   2.597   1.370   2.449  0.0914  0.0727  0.5090
  810SOL     OW 3237   2.228   1.317   2.297 -0.0547  0.0207  0.0919
  810SOL    HW1 3238   2.303   1.271   2.329 -2.3520  3.0296  1.2500
  810SOL    HW2 3239   2.181   1.356   2.373 -0.5230  1.0767 -1.1171
  810SOL     MW 3240   2.232   1.316   2.311 -0.4196  0.5570  0.0852
  811SOL     OW 3241   1.530   0.145   2.319  0.3695  0.0810 -0.2152
  811SOL    HW1 3242   1.604   0.091   2.353 -1.6813 -1.4444  0.2353
  811SOL    HW2 3243   1.524   0.133   2.224  1.6333  0.4967 -0.3792
  811SOL     MW 3244   1.539   0.137   2.311  0.2657 -0.0654 -0.1774
  812SOL     OW 3245   1.454   2.786   2.009 -0.3079  0.4257 -0.0200
  812SOL    HW1 3246   1.544   2.791   1.969 -1.9722  0.6064  0.3212
  812SOL    HW2 3247   1.469   2.803   2.102 -0.4585 -0.9077 -2.2025
  812SOL     MW 3248   1.468   2.789   2.016 -0.5473  0.2736 -0.2630
  813SOL     OW 3249   1.971   0.641   2.251  0.2362  1.1030  0.4884
  813SOL    HW1 3250   1.920   0.575   2.210 -2.3556  1.5255  0.3503
  813SOL    HW2 3251   1.897   0.695   2.288 -1.6749  2.8490 -1.4211
  813SOL     MW 3252   1.954   0.640   2.251 -0.3579  1.3891  0.2182
  814SOL     OW 3253   2.695   1.263   1.635 -0.1036  0.5248  0.0817
  814SOL    HW1 3254   2.633   1.214   1.694 -0.2026 -2.0912  1.1059
  814SOL    HW2 3255   2.692   1.213   1.548  1.6553  0.0130  2.6061
  814SOL     MW 3256   2.686   1.250   1.632  0.1154  0.1121  0.5499
  815SOL     OW 3257   2.576   1.742   2.409 -0.1218  0.1350 -0.0886
  815SOL    HW1 3258   2.505   1.684   2.386  1.1426  0.7512 -1.5778
  815SOL    HW2 3259   2.660   1.691   2.407  1.9743 -2.0130 -4.1245
  815SOL     MW 3260   2.578   1.728   2.406  0.3216 -0.0671 -0.8176
  816SOL     OW 3261   0.718   0.704   2.715 -0.4400  0.1455 -0.0057
  816SOL    HW1 3262   0.732   0.609   2.723  2.4601 -1.7239 -0.7200
  816SOL    HW2 3263   0.630   0.700   2.669 -3.1305  2.9467  2.7204
  816SOL     MW 3264   0.709   0.691   2.710 -0.4123  0.2685  0.2597
  817SOL     OW 3265   3.012   1.213   1.452  0.1057 -0.0122  0.0968
  817SOL    HW1 3266   3.108   1.182   1.454  1.1677  0.9347  1.7390
  817SOL    HW2 3267   3.003   1.291   1.390  2.7793  1.3640 -0.0555
  817SOL     MW 3268   3.024   1.219   1.444  0.5986  0.2943  0.2934
  818SOL     OW 3269   1.904   1.032   2.699 -0.1389 -0.4028  0.6957
  818SOL    HW1 3270   1.888   0.988   2.611  0.2239  1.3519  0.2643
  818SOL    HW2 3271   1.981   0.984   2.733 -0.1335 -0.2016 -1.8964
  818SOL     MW 3272   1.912   1.020   2.692 -0.0903 -0.1447  0.2968
  819SOL     OW 3273   1.991   0.258   2.518 -0.3301 -0.2907 -0.0280
  819SOL    HW1 3274   1.920   0.319   2.479 -1.4614 -0.6843  0.9571
  819SOL    HW2 3275   1.999   0.277   2.611  0.9107 -1.1300 -0.6067
  819SOL     MW 3276   1.982   0.269   2.525 -0.3157 -0.4534  0.0256
  820SOL     OW 3277   2.515   1.745   2.677 -0.1117  0.7468  0.9057
  820SOL    HW1 3278   2.532   1.657   2.708  1.1935  0.0101 -2.1204
  820SOL    HW2 3279   2.541   1.744   2.580  3.5883 -1.5355  0.5226
  820SOL     MW 3280   2.521   1.734   2.668  0.5487  0.3485  0.4559
  821SOL     OW 3281   2.583   1.370   2.020  0.3122  0.6300  0.3327
  821SOL    HW1 3282   2.611   1.435   1.949 -3.8521 -3.3486  0.6786
  821SOL    HW2 3283   2.488   1.360   2.018  2.3871  1.9391  1.0177
  821SOL     MW 3284   2.574   1.377   2.010  0.0365  0.2778  0.4687
  822SOL     OW 3285   2.779   2.647   1.394 -0.5637 -0.4871 -0.4912
  822SOL    HW1 3286   2.844   2.674   1.461 -1.5484 -2.0052 -0.6912
  822SOL    HW2 3287   2.722   2.726   1.379 -2.2054 -0.1853  0.8074
  822SOL     MW 3288   2.780   2.661   1.401 -0.9102 -0.6476 -0.3462
  823SOL     OW 3289   2.371   0.478   1.768  0.1574  0.2019 -0.5973
  823SOL    HW1 3290   2.422   0.454   1.698 -3.9629 -2.1606 -0.6521
  823SOL    HW2 3291   2.348   0.403   1.816 -1.5384  0.6410 -4.2312
  823SOL     MW 3292   2.374   0.465   1.765 -0.6100 -0.0518 -1.0840
  824SOL     OW 3293   2.156   1.440   2.544 -0.3351  0.8197 -0.1385
  824SOL    HW1 3294   2.244   1.479   2.527 -0.4316 -0.3626 -2.5264
  824SOL    HW2 3295   2.112   1.507   2.591 -0.5108 -0.2794  0.8122
  824SOL     MW 3296   2.162   1.454   2.548 -0.3710  0.5187 -0.3281
  825SOL     OW 3297   1.856   2.545   0.262 -0.4563  0.3701 -0.4249
  825SOL    HW1 3298   1.858   2.496   0.339 -0.6037  0.2539 -1.5233
  825SOL    HW2 3299   1.932   2.514   0.209 -0.1738  0.5865 -0.4350
  825SOL     MW 3300   1.866   2.534   0.265 -0.4385  0.3833 -0.5712
  826SOL     OW 3301   1.843   2.384   0.528  0.4746 -0.0960  0.6728
  826SOL    HW1 3302   1.805   2.309   0.576  0.2532 -0.6405 -0.9910
  826SOL    HW2 3303   1.813   2.458   0.581  3.5573 -0.6740 -0.4674
  826SOL     MW 3304   1.834   2.384   0.541  0.8521 -0.2441  0.3028
  827SOL     OW 3305   1.931   2.181   0.868  0.2331 -0.4179  0.7855
  827SOL    HW1 3306   1.885   2.209   0.791 -0.8359  0.0902  0.9944
  827SOL    HW2 3307   1.859   2.123   0.909  0.2626  1.4559 -0.0722
  827SOL     MW 3308   1.915   2.177   0.863  0.0959 -0.1037  0.6999
  828SOL     OW 3309   0.052   2.571   0.585  0.2282  0.0196  0.5726
  828SOL    HW1 3310   0.142   2.571   0.559 -1.8189 -1.0200 -0.4893
  828SOL    HW2 3311   0.018   2.614   0.510  0.7549 -0.6024  1.6701
  828SOL     MW 3312   0.060   2.576   0.572  0.0276 -0.1996  0.5773
  829SOL     OW 3313   2.989   2.968   1.153 -0.1064 -0.0083 -0.0370
  829SOL    HW1 3314   2.911   2.936   1.109  0.6056  2.4696 -0.0497
  829SOL    HW2 3315   3.052   2.899   1.128 -0.1727  0.7652 -2.3741
  829SOL     MW 3316   2.987   2.955   1.144 -0.0212  0.4207 -0.3470
  830SOL     OW 3317   2.561   2.826   2.030 -0.3482  0.5834  0.0358
  830SOL    HW1 3318   2.463   2.819   2.016 -2.9820 -0.2227 -0.9805
  830SOL    HW2 3319   2.610   2.778   1.959  1.6019 -1.2646 -0.7079
  830SOL     MW 3320   2.555   2.819   2.019 -0.4384  0.2332 -0.1964
  831SOL     OW 3321   2.381   2.500   1.220  0.6499  0.1351  0.0527
  831SOL    HW1 3322   2.343   2.456   1.295 -1.8476 -1.4756  0.6247
  831SOL    HW2 3323   2.451   2.449   1.183 -1.4965  1.4282  2.6380
  831SOL     MW 3324   2.385   2.487   1.225  0.0372  0.0932  0.4693
  832SOL     OW 3325   2.367   2.196   1.916  0.3718 -0.1164  0.0407
  832SOL    HW1 3326   2.421   2.275   1.928  1.8593  1.3590 -0.3187
  832SOL    HW2 3327   2.436   2.137   1.880 -0.2627  2.0501  0.8050
  832SOL     MW 3328   2.383   2.199   1.913  0.4843  0.3641  0.0941
  833SOL     OW 3329   1.739   2.453   0.904  0.5014  0.0871  0.3293
  833SOL    HW1 3330   1.653   2.409   0.907 -0.1488 -1.5806  1.0450
  833SOL    HW2 3331   1.726   2.521   0.959 -2.5755 -2.8095 -1.7896
  833SOL     MW 3332   1.726   2.456   0.912  0.0097 -0.5151  0.1441
  834SOL     OW 3333   2.108   2.458   0.602 -0.2132  0.1272 -0.1224
  834SOL    HW1 3334   2.020   2.419   0.567 -1.7989 -1.2495  0.5054
  834SOL    HW2 3335   2.157   2.440   0.514  0.4156  0.0862  0.6032
  834SOL     MW 3336   2.103   2.450   0.586 -0.3395 -0.0599  0.0562
  835SOL     OW 3337   1.767   2.616   0.690  0.2700  0.1976  0.6315
  835SOL    HW1 3338   1.764   2.557   0.771 -0.2975 -1.9700  1.3851
  835SOL    HW2 3339   1.841   2.666   0.704 -1.8679  0.1870 -1.0600
  835SOL     MW 3340   1.777   2.615   0.702 -0.0870 -0.0898  0.5078
  836SOL     OW 3341   1.922   2.215   1.635 -0.5347 -0.0202  0.1006
  836SOL    HW1 3342   1.983   2.286   1.650  1.0153 -0.9496  1.9542
  836SOL    HW2 3343   1.838   2.259   1.653  0.2328  1.4365 -0.3639
  836SOL     MW 3344   1.919   2.230   1.639 -0.2289  0.0494  0.2839
  837SOL     OW 3345   2.080   0.175   0.681  0.1084 -0.8504  0.3633
  837SOL    HW1 3346   2.017   0.230   0.627 -2.5192 -2.4885 -1.1558
  837SOL    HW2 3347   2.102   0.102   0.623 -1.7864 -0.0535 -1.4475
  837SOL     MW 3348   2.074   0.172   0.666 -0.4883 -0.9614 -0.0761
  838SOL     OW 3349   2.923   2.064   0.921 -0.2369  0.4414  0.3196
  838SOL    HW1 3350   2.871   2.020   0.987  0.4270  0.1084  0.3032
  838SOL    HW2 3351   2.981   1.997   0.885  0.7340 -0.0170  0.9698
  838SOL     MW 3352   2.924   2.049   0.925 -0.0212  0.3370  0.4033
  839SOL     OW 3353   1.494   2.335   0.968  0.4374 -0.3833  0.1947
  839SOL    HW1 3354   1.445   2.391   1.029 -0.8481  1.0319 -1.5608
  839SOL    HW2 3355   1.553   2.278   1.026  2.9656  1.0041 -1.7566
  839SOL     MW 3356   1.496   2.335   0.984  0.6014 -0.0135 -0.2944
  840SOL     OW 3357   2.371   2.142   2.432  0.0207 -0.5940 -0.1488
  840SOL    HW1 3358   2.290   2.193   2.423  2.5054 -3.0576 -0.5863
  840SOL    HW2 3359   2.421   2.197   2.491  0.9449  0.0786 -0.7809
  840SOL     MW 3360   2.367   2.156   2.438  0.4705 -0.8303 -0.2899
  841SOL     OW 3361   2.107   2.431   0.141 -0.6626 -0.0306  0.1262
  841SOL    HW1 3362   2.146   2.464   0.055  1.7844 -0.1773  0.0057
  841SOL    HW2 3363   2.078   2.342   0.115 -1.2987  1.6258 -0.2794
  841SOL     MW 3364   2.108   2.424   0.126 -0.4237  0.1686  0.0568
  842SOL     OW 3365   2.571   2.082   1.526 -0.3374 -0.0908 -0.4472
  842SOL    HW1 3366   2.540   1.993   1.532 -1.4929 -0.9666  0.5069
  842SOL    HW2 3367   2.538   2.111   1.445 -2.7937 -0.2938  1.5933
  842SOL     MW 3368   2.562   2.074   1.516 -0.8139 -0.2332 -0.0521
  843SOL     OW 3369   2.656   2.766   1.752 -0.5219  0.6753  0.3070
  843SOL    HW1 3370   2.746   2.739   1.720  3.3941  0.7871 -0.7449
  843SOL    HW2 3371   2.593   2.695   1.717 -0.8084 -4.0847 -0.7015
  843SOL     MW 3372   2.659   2.753   1.743 -0.0430  0.0620  0.0351
  844SOL     OW 3373   2.592   2.324   1.147  0.1702  0.0863  0.2171
  844SOL    HW1 3374   2.610   2.382   1.070  1.1812 -0.7122  0.7316
  844SOL    HW2 3375   2.655   2.364   1.207 -0.4388  2.3814 -0.6877
  844SOL     MW 3376   2.602   2.337   1.145  0.2233  0.2837  0.1656
  845SOL     OW 3377   2.823   2.451   0.305 -0.0316  0.0789  0.2738
  845SOL    HW1 3378   2.772   2.370   0.292  0.8711  1.1456 -2.0217
  845SOL    HW2 3379   2.835   2.476   0.398 -1.6642  2.7715  1.8503
  845SOL     MW 3380   2.818   2.444   0.316 -0.1279  0.5749  0.1789
  846SOL     OW 3381   1.525   2.909   0.738 -0.3578 -0.0536 -0.1472
  846SOL    HW1 3382   1.611   2.937   0.774  0.9650 -0.1858 -1.4180
  846SOL    HW2 3383   1.466   2.931   0.814  0.7046 -0.8840 -1.5489
  846SOL     MW 3384   1.529   2.915   0.753 -0.0431 -0.1806 -0.4998
  847SOL     OW 3385   2.610   1.921   0.176  0.4098 -0.0391  0.0651
  847SOL    HW1 3386   2.681   1.863   0.187 -0.7466 -1.3795 -0.8996
  847SOL    HW2 3387   2.552   1.868   0.111  0.5874 -1.2824  2.8046
  847SOL     MW 3388   2.612   1.907   0.169  0.2807 -0.3800  0.2993
  848SOL     OW 3389   2.428   2.120   1.296 -0.4753 -0.5881 -0.2317
  848SOL    HW1 3390   2.469   2.171   1.229 -0.9000  1.6035 -0.5535
  848SOL    HW2 3391   2.401   2.034   1.266 -1.0163 -0.9311 -0.8008
  848SOL     MW 3392   2.430   2.115   1.283 -0.6027 -0.3442 -0.3493
  849SOL     OW 3393   1.972   2.779   0.735 -0.0350 -0.2307 -0.1164
  849SOL    HW1 3394   2.004   2.705   0.783  0.7901 -0.2944  0.5456
  849SOL    HW2 3395   2.055   2.788   0.684 -3.6638 -1.1712  1.6370
  849SOL     MW 3396   1.987   2.770   0.735 -0.4049 -0.3632  0.2023
  850SOL     OW 3397   2.194   1.965   1.681 -0.4911  0.7576  0.3837
  850SOL    HW1 3398   2.107   1.934   1.640 -2.9601  0.6288  1.7956
  850SOL    HW2 3399   2.180   2.058   1.689  2.7708 -0.7483 -1.6614
  850SOL     MW 3400   2.180   1.973   1.677 -0.3865  0.5419  0.3002
  851SOL     OW 3401   2.251   2.408   0.362 -0.3586  0.4136 -0.3079
  851SOL    HW1 3402   2.184   2.426   0.285  0.4958  1.1708 -0.2517
  851SOL    HW2 3403   2.329   2.464   0.341  2.8922 -0.5166  0.7558
  851SOL     MW 3404   2.252   2.418   0.349  0.1830  0.3908 -0.1602
  852SOL     OW 3405   2.313   2.159   0.183  0.0749 -0.0040  0.5107
  852SOL    HW1 3406   2.324   2.214   0.262  0.8488 -2.0007 -1.2155
  852SOL    HW2 3407   2.393   2.179   0.124 -1.3825 -0.3365  0.1264
  852SOL     MW 3408   2.325   2.169   0.185 -0.0152 -0.3113  0.2322
  853SOL     OW 3409   2.453   2.454   1.971 -0.3796  0.2321 -0.0843
  853SOL    HW1 3410   2.465   2.513   1.898 -1.4393 -0.1613 -1.6877
  853SOL    HW2 3411   2.542   2.453   2.005 -0.3254 -2.0341  0.2680
  853SOL     MW 3412   2.466   2.462   1.966 -0.5123 -0.1188 -0.2494
  854SOL     OW 3413   2.820   2.272   0.783 -0.5700 -0.1936 -0.3232
  854SOL    HW1 3414   2.739   2.231   0.754 -1.5739  1.1410 -0.8786
  854SOL    HW2 3415   2.859   2.197   0.832 -2.2072 -1.8378 -2.7265
  854SOL     MW 3416   2.814   2.257   0.786 -0.9184 -0.2345 -0.7136
  855SOL     OW 3417   2.667   2.229   0.336  0.2096  0.4762  0.3284
  855SOL    HW1 3418   2.669   2.283   0.421  2.4508  0.9565  1.9571
  855SOL    HW2 3419   2.746   2.173   0.334 -1.9709  1.8735  2.3626
  855SOL     MW 3420   2.678   2.229   0.347  0.2176  0.7239  0.8117
  856SOL     OW 3421   2.187   1.918   0.232 -0.1579 -0.2206 -0.1155
  856SOL    HW1 3422   2.093   1.936   0.248 -0.9622  0.3943 -1.4802
  856SOL    HW2 3423   2.241   1.999   0.235  2.1381 -1.6729  0.1753
  856SOL     MW 3424   2.182   1.931   0.235  0.0389 -0.3311 -0.2572
  857SOL     OW 3425   2.596   2.018   0.475  0.2182 -0.0760 -0.2416
  857SOL    HW1 3426   2.609   2.086   0.405  0.9545  1.5323 -1.1318
  857SOL    HW2 3427   2.503   1.988   0.464 -4.2622 -3.0065 -0.3866
  857SOL     MW 3428   2.585   2.023   0.464 -0.2758 -0.2505 -0.3782
  858SOL     OW 3429   2.887   2.649   1.672  0.0976 -0.2846  0.2526
  858SOL    HW1 3430   2.975   2.642   1.709 -0.6488  0.0532 -1.8735
  858SOL    HW2 3431   2.837   2.578   1.712 -1.0509  0.3377 -1.2471
  858SOL     MW 3432   2.892   2.639   1.682 -0.1524 -0.1579 -0.2258
  859SOL     OW 3433   2.127   2.500   0.867 -0.1143  0.5436  0.4214
  859SOL    HW1 3434   2.118   2.463   0.777 -0.1054  2.3619  0.4190
  859SOL    HW2 3435   2.223   2.503   0.882 -2.1918 -0.9599 -1.0644
  859SOL     MW 3436   2.139   2.496   0.857 -0.3873  0.5852  0.2251
  860SOL     OW 3437   2.660   2.590   0.129 -0.3483 -0.0279  0.3270
  860SOL    HW1 3438   2.724   2.557   0.193  1.4294  0.2876 -1.2334
  860SOL    HW2 3439   2.703   2.657   0.073 -1.2630  0.4661  0.4959
  860SOL     MW 3440   2.674   2.594   0.130 -0.2344  0.0789  0.1434
  861SOL     OW 3441   1.562   2.139   1.190 -0.4283  0.0351 -0.8407
  861SOL    HW1 3442   1.546   2.233   1.220  1.6513  4.1109  2.3499
  861SOL    HW2 3443   1.506   2.081   1.237  1.0305  0.8175  0.1706
  861SOL     MW 3444   1.553   2.144   1.200  0.0385  0.6761 -0.2863
  862SOL     OW 3445   2.421   1.842   1.533  0.2517 -1.4606  0.8360
  862SOL    HW1 3446   2.345   1.873   1.588  2.2547  0.9874 -0.3843
  862SOL    HW2 3447   2.412   1.865   1.437  4.3603 -0.5578  0.7892
  862SOL     MW 3448   2.410   1.849   1.527  1.0581 -1.0185  0.6688
  863SOL     OW 3449   0.025   1.820   1.168  0.0654  1.2330 -0.7173
  863SOL    HW1 3450   0.108   1.850   1.126  1.1197 -2.8131 -1.0814
  863SOL    HW2 3451  -0.001   1.892   1.219 -0.6947  0.7559  0.3891
  863SOL     MW 3452   0.033   1.833   1.169  0.1042  0.6362 -0.6194
  864SOL     OW 3453   0.020   1.844   0.828  0.1586  0.4025  0.5369
  864SOL    HW1 3454  -0.043   1.816   0.898  0.5694  0.4337  0.4608
  864SOL    HW2 3455  -0.015   1.814   0.738  3.3171  1.1985  1.4931
  864SOL     MW 3456   0.007   1.836   0.825  0.6295  0.5116  0.6530
  865SOL     OW 3457   2.558   2.168   0.048  0.3405 -0.3409 -0.2372
  865SOL    HW1 3458   2.588   2.096   0.104  1.8783  2.4975 -1.7343
  865SOL    HW2 3459   2.550   2.131  -0.041  2.4687 -1.0274  1.4160
  865SOL     MW 3460   2.561   2.154   0.044  0.8242 -0.0570 -0.2166
  866SOL     OW 3461   2.636   2.343   1.628  0.4189 -0.0749  0.7858
  866SOL    HW1 3462   2.624   2.247   1.604 -1.1699 -0.1804 -1.6736
  866SOL    HW2 3463   2.678   2.370   1.545 -3.8613  1.7050 -1.2807
  866SOL     MW 3464   2.640   2.334   1.614 -0.3554  0.1460  0.1886
  867SOL     OW 3465   0.042   2.694   1.827 -0.0783 -0.5063 -0.4850
  867SOL    HW1 3466   0.019   2.677   1.920 -0.6526 -2.8044  1.5369
  867SOL    HW2 3467  -0.000   2.779   1.795 -1.3089 -0.1964  3.0544
  867SOL     MW 3468   0.033   2.703   1.835 -0.3165 -0.7686  0.2488
  868SOL     OW 3469   2.798   2.588   0.549  0.0999  0.0679 -0.3913
  868SOL    HW1 3470   2.711   2.540   0.557 -0.9970  0.8765 -2.1329
  868SOL    HW2 3471   2.790   2.674   0.507 -0.7167 -2.7320 -2.2702
  868SOL     MW 3472   2.785   2.593   0.544 -0.1525 -0.1948 -0.8690
  869SOL     OW 3473   1.983   2.377   1.064 -0.2574  0.8798  0.7113
  869SOL    HW1 3474   2.029   2.429   1.000 -0.8087  2.1016 -0.1453
  869SOL    HW2 3475   1.967   2.300   1.007  0.2594 -3.2710 -0.7888
  869SOL     MW 3476   1.987   2.374   1.048 -0.2619  0.4934  0.4003
  870SOL     OW 3477   2.180   0.003   0.467  0.1294  0.6074 -0.0273
  870SOL    HW1 3478   2.237   0.080   0.442  0.4091 -2.0727 -1.9273
  870SOL    HW2 3479   2.239  -0.069   0.436 -1.6119 -0.9236 -1.5966
  870SOL     MW 3480   2.195   0.004   0.460 -0.0635  0.0518 -0.4850
  871SOL     OW 3481   2.508   2.080   0.921  0.0481 -0.1819  0.6129
  871SOL    HW1 3482   2.442   2.019   0.881 -0.9190 -1.0216 -1.2019
  871SOL    HW2 3483   2.465   2.152   0.963  2.0503  0.4851 -1.0545
  871SOL     MW 3484   2.493   2.081   0.921  0.1847 -0.2047  0.1535
  872SOL     OW 3485   2.054   2.530   1.425  0.1290  0.3307 -0.0357
  872SOL    HW1 3486   2.008   2.583   1.494 -0.1835  2.0490  0.4887
  872SOL    HW2 3487   1.994   2.463   1.396 -0.2428 -0.9697  0.4811
  872SOL     MW 3488   2.040   2.528   1.431  0.0387  0.3858  0.1016
  873SOL     OW 3489   2.858   2.074   1.954  0.9463  0.1386 -0.1889
  873SOL    HW1 3490   2.906   2.134   2.009  1.4076  0.7630 -2.4090
  873SOL    HW2 3491   2.918   2.068   1.874  3.6277  1.8679 -1.2990
  873SOL     MW 3492   2.872   2.081   1.950  1.3610  0.4492 -0.6283
  874SOL     OW 3493   2.374   1.550   2.439 -0.4287 -0.1092 -0.2803
  874SOL    HW1 3494   2.329   1.538   2.357  0.6268  0.1754 -2.7361
  874SOL    HW2 3495   2.439   1.477   2.436  1.2309 -3.7960 -0.7393
  874SOL     MW 3496   2.376   1.539   2.428 -0.0705 -0.5581 -0.6649
  875SOL     OW 3497   2.279   2.283   1.032 -0.1096  0.1576  0.4941
  875SOL    HW1 3498   2.280   2.318   0.944 -2.8223 -0.6029  1.1411
  875SOL    HW2 3499   2.280   2.351   1.096  0.1114  1.1802  1.0970
  875SOL     MW 3500   2.280   2.296   1.029 -0.4383  0.1921  0.6590
  876SOL     OW 3501   3.031   2.345   1.249  0.1382 -0.0823 -0.0869
  876SOL    HW1 3502   3.068   2.387   1.171  1.9836  0.6205 -3.5949
  876SOL    HW2 3503   3.099   2.364   1.312 -0.2576 -1.8148 -0.3657
  876SOL     MW 3504   3.045   2.353   1.247  0.3295 -0.2181 -0.5866
  877SOL     OW 3505   3.062   2.753   0.390  0.2672  0.3825  0.5927
  877SOL    HW1 3506   3.141   2.807   0.400 -1.4887  2.9172 -4.3314
  877SOL    HW2 3507   3.073   2.693   0.316  1.5804  0.9969 -0.0124
  877SOL     MW 3508   3.074   2.752   0.382  0.2088  0.7980 -0.1368
  878SOL     OW 3509   2.374   1.845   1.244  0.3338 -0.2834 -0.2899
  878SOL    HW1 3510   2.315   1.782   1.284  0.9834  0.9355  3.4916
  878SOL    HW2 3511   2.450   1.797   1.219  1.2820  1.2992 -1.7034
  878SOL     MW 3512   2.376   1.831   1.246  0.5446  0.0862  0.0225
  879SOL     OW 3513   2.672   2.453   0.920 -0.5206  0.4394  0.1571
  879SOL    HW1 3514   2.745   2.500   0.961 -0.3401 -2.8531  0.5625
  879SOL    HW2 3515   2.719   2.401   0.850  2.2091 -2.3204 -0.0445
  879SOL     MW 3516   2.688   2.453   0.916 -0.1366 -0.3591  0.1839
  880SOL     OW 3517   2.576   2.194   0.702 -0.0211  0.4624 -0.1132
  880SOL    HW1 3518   2.547   2.138   0.780  1.2869  1.2627 -1.2221
  880SOL    HW2 3519   2.576   2.139   0.629  2.0540  0.4888 -0.8299
  880SOL     MW 3520   2.572   2.180   0.703  0.4253  0.5715 -0.3541
  881SOL     OW 3521   2.956   2.690   0.764 -0.1144 -0.0068 -0.3546
  881SOL    HW1 3522   2.890   2.642   0.711 -0.6761 -2.8131 -1.0515
  881SOL    HW2 3523   3.036   2.651   0.728  1.8556 -0.1709  2.0797
  881SOL     MW 3524   2.958   2.679   0.752  0.0714 -0.3987 -0.1254
  882SOL     OW 3525   2.295   2.821   1.965 -0.3187  0.4485  0.3521
  882SOL    HW1 3526   2.266   2.809   1.876 -3.2926  1.1598  1.7863
  882SOL    HW2 3527   2.232   2.758   1.995 -0.6647 -0.0979 -1.5876
  882SOL     MW 3528   2.283   2.811   1.957 -0.7567  0.4702  0.2854
  883SOL     OW 3529   2.288   2.314   1.432 -0.0184 -0.1004  0.2055
  883SOL    HW1 3530   2.345   2.252   1.387 -0.8814 -0.6548 -0.5528
  883SOL    HW2 3531   2.207   2.288   1.382  1.3666 -0.7504 -0.0648
  883SOL     MW 3532   2.285   2.303   1.420  0.0504 -0.2593  0.0698
  884SOL     OW 3533   1.942   1.873   1.126  0.4961 -0.3062 -0.1029
  884SOL    HW1 3534   1.880   1.950   1.106 -0.2548  0.3008 -0.5135
  884SOL    HW2 3535   2.035   1.906   1.110 -0.3484  1.4454  1.2395
  884SOL     MW 3536   1.946   1.888   1.121  0.2856  0.0050  0.0201
  885SOL     OW 3537   2.822   2.408   1.805  0.6807  0.3183 -0.5516
  885SOL    HW1 3538   2.907   2.368   1.793 -2.2418 -0.1459  0.8816
  885SOL    HW2 3539   2.755   2.359   1.744 -0.8072 -0.1555 -0.7935
  885SOL     MW 3540   2.824   2.396   1.795  0.0988  0.1946 -0.3944
  886SOL     OW 3541   2.766   2.387   1.382  0.6439  0.0742 -0.4080
  886SOL    HW1 3542   2.850   2.356   1.351  0.3487  2.8536  1.2675
  886SOL    HW2 3543   2.776   2.481   1.376  2.0995  0.5477 -0.5071
  886SOL     MW 3544   2.778   2.395   1.377  0.7970  0.5034 -0.2000
  887SOL     OW 3545   2.334   2.627   1.509  0.0225 -0.0371 -0.3058
  887SOL    HW1 3546   2.357   2.703   1.452 -0.7003 -2.8181  0.4316
  887SOL    HW2 3547   2.262   2.589   1.458 -0.5830  2.2237  1.0748
  887SOL     MW 3548   2.328   2.632   1.495 -0.1528 -0.1057 -0.0264
  888SOL     OW 3549   1.880   2.053   1.407  0.0287  0.0586 -0.3318
  888SOL    HW1 3550   1.961   2.073   1.357  0.3169  2.0969 -2.9885
  888SOL    HW2 3551   1.884   2.094   1.492  2.1877 -1.7060  0.6949
  888SOL     MW 3552   1.892   2.061   1.412  0.3516  0.0947 -0.5469
  889SOL     OW 3553   2.331   1.994   2.115 -0.7840 -0.4148  0.1782
  889SOL    HW1 3554   2.412   1.976   2.166  2.0383  0.2288 -1.8859
  889SOL    HW2 3555   2.342   2.077   2.068 -0.7545 -1.2034 -0.0254
  889SOL     MW 3556   2.343   2.002   2.116 -0.4077 -0.4340 -0.1210
  890SOL     OW 3557   0.104   2.336   0.187 -0.1315  0.1248  0.4590
  890SOL    HW1 3558   0.047   2.411   0.188 -1.1108  0.6287  3.0000
  890SOL    HW2 3559   0.092   2.292   0.275 -1.4313  1.7166  0.4163
  890SOL     MW 3560   0.095   2.340   0.199 -0.4322  0.4013  0.7886
  891SOL     OW 3561   2.981   2.023   1.298 -0.2616  0.1089  0.0728
  891SOL    HW1 3562   3.055   2.051   1.355  1.1184 -0.7589 -1.5894
  891SOL    HW2 3563   2.968   2.100   1.244 -1.3532  2.4053 -1.2412
  891SOL     MW 3564   2.989   2.037   1.298 -0.2235  0.2974 -0.3199
  892SOL     OW 3565   2.400   2.357   2.909  0.7353  0.1723 -0.6888
  892SOL    HW1 3566   2.413   2.261   2.886 -3.6513 -1.5794 -1.6418
  892SOL    HW2 3567   2.487   2.385   2.927 -0.0493 -2.8637 -3.0303
  892SOL     MW 3568   2.413   2.348   2.908  0.0530 -0.4594 -1.1235
  893SOL     OW 3569   1.578   2.423   1.247 -0.0144 -0.4103  0.2767
  893SOL    HW1 3570   1.527   2.466   1.321  0.5183 -2.3947  0.2151
  893SOL    HW2 3571   1.661   2.411   1.287 -1.7782  0.0684 -2.7621
  893SOL     MW 3572   1.582   2.427   1.262 -0.1768 -0.6090 -0.1324
  894SOL     OW 3573   2.835   1.857   0.442 -0.2862 -0.7214 -0.6938
  894SOL    HW1 3574   2.744   1.857   0.465 -3.8432 -0.6716  3.3344
  894SOL    HW2 3575   2.837   1.827   0.348 -1.8086  0.4189  0.4163
  894SOL     MW 3576   2.823   1.853   0.433 -0.9563 -0.5644 -0.0159
  895SOL     OW 3577   2.106   2.211   1.258  0.0466  0.3948  0.6326
  895SOL    HW1 3578   2.074   2.273   1.188  1.9469 -1.2924  1.9138
  895SOL    HW2 3579   2.144   2.140   1.200  1.2196  1.0687  0.6648
  895SOL     MW 3580   2.107   2.209   1.241  0.4521  0.2611  0.8059
  896SOL     OW 3581   2.168   2.835   1.115  0.3827 -0.4350 -0.1260
  896SOL    HW1 3582   2.235   2.820   1.177  0.5636  2.0235 -0.2970
  896SOL    HW2 3583   2.097   2.773   1.146 -0.3098  0.7738 -0.6471
  896SOL     MW 3584   2.168   2.824   1.127  0.3152  0.0489 -0.2173
  897SOL     OW 3585   2.974   2.896   0.117 -0.2647 -0.2657 -0.6837
  897SOL    HW1 3586   3.067   2.872   0.113 -1.8312 -2.2145  0.8625
  897SOL    HW2 3587   2.916   2.824   0.092  3.2862  0.7713  1.7794
  897SOL     MW 3588   2.979   2.884   0.113 -0.0029 -0.3860 -0.1547
  898SOL     OW 3589   2.091   0.177   1.446  0.0032 -0.1166 -0.5066
  898SOL    HW1 3590   2.027   0.112   1.423  1.0180 -0.3021  2.9119
  898SOL    HW2 3591   2.107   0.218   1.359  0.1743 -1.3081 -1.2680
  898SOL     MW 3592   2.085   0.174   1.432  0.1597 -0.2983 -0.1560
  899SOL     OW 3593   2.889   2.937   0.660 -0.0353 -0.2795  0.2504
  899SOL    HW1 3594   2.916   2.853   0.703  1.3673 -0.5282 -0.5705
  899SOL    HW2 3595   2.802   2.967   0.695 -0.8749 -0.6158 -0.9973
  899SOL     MW 3596   2.881   2.930   0.670  0.0390 -0.3567 -0.0225
  900SOL     OW 3597   0.127   2.402   1.030 -0.3366 -0.5427 -0.2563
  900SOL    HW1 3598   0.142   2.484   0.977 -1.6414  1.4595  1.3030
  900SOL    HW2 3599   0.110   2.340   0.955  2.2610  1.8822 -1.4882
  900SOL     MW 3600   0.126   2.405   1.013 -0.1661  0.0414 -0.2131
  901SOL     OW 3601   1.798   2.899   1.672  0.2760 -0.3539 -0.2170
  901SOL    HW1 3602   1.850   2.822   1.648 -0.5541  0.3945  1.7834
  901SOL    HW2 3603   1.726   2.899   1.608 -2.0237 -0.0624 -1.0552
  901SOL     MW 3604   1.795   2.889   1.661 -0.1369 -0.2167 -0.0636
  902SOL     OW 3605   2.592   2.056   1.864 -0.1376  0.3642  0.0211
  902SOL    HW1 3606   2.601   1.965   1.840  2.1352  2.1507  0.2726
  902SOL    HW2 3607   2.676   2.086   1.891 -0.3853  0.7801  0.5249
  902SOL     MW 3608   2.604   2.048   1.864  0.1296  0.6548  0.1207
  903SOL     OW 3609   1.585   2.756   0.504  0.0954  0.7563 -0.2462
  903SOL    HW1 3610   1.644   2.690   0.547  0.2605  0.1809  2.6442
  903SOL    HW2 3611   1.574   2.815   0.575  1.1921 -4.0477  0.2359
  903SOL     MW 3612   1.591   2.755   0.519  0.2619  0.0465  0.1988
  904SOL     OW 3613   2.500   2.556   1.710  0.0939 -0.5064 -0.0709
  904SOL    HW1 3614   2.434   2.566   1.643  0.6901  0.7631  1.6875
  904SOL    HW2 3615   2.538   2.472   1.693 -0.1921  1.6240  0.7092
  904SOL     MW 3616   2.497   2.546   1.699  0.1349 -0.0578  0.2640
  905SOL     OW 3617   2.313   2.495   2.212  0.3354 -0.2767  0.0709
  905SOL    HW1 3618   2.356   2.463   2.135 -3.4631 -1.0457 -1.3064
  905SOL    HW2 3619   2.263   2.424   2.256  1.5671  2.9299 -0.2523
  905SOL     MW 3620   2.312   2.482   2.207 -0.0033  0.0449 -0.1534
  906SOL     OW 3621   2.394   2.480   0.845  0.0588  0.5849  0.6356
  906SOL    HW1 3622   2.486   2.453   0.852 -0.4436 -0.9917 -1.2607
  906SOL    HW2 3623   2.399   2.566   0.884 -1.4489  2.0698  0.1770
  906SOL     MW 3624   2.407   2.488   0.851 -0.2064  0.5728  0.3249
  907SOL     OW 3625   2.580   2.922   1.281 -0.5673 -0.1230 -0.1044
  907SOL    HW1 3626   2.661   2.953   1.323 -0.3949 -1.0599  0.3201
  907SOL    HW2 3627   2.614   2.890   1.201  1.0810  0.7418 -0.4289
  907SOL     MW 3628   2.595   2.922   1.276 -0.3271 -0.1326 -0.0912
  908SOL     OW 3629   2.744   2.371   3.087  0.8629  0.1057 -0.3570
  908SOL    HW1 3630   2.685   2.298   3.119  1.7305  4.2105  0.7455
  908SOL    HW2 3631   2.709   2.444   3.132  0.4807 -0.3336 -1.0755
  908SOL     MW 3632   2.732   2.371   3.097  0.9269  0.5893 -0.3064
  909SOL     OW 3633   1.580   0.181   1.106  0.2369  0.0589 -0.3015
  909SOL    HW1 3634   1.596   0.255   1.046  1.1270 -1.3428 -0.5048
  909SOL    HW2 3635   1.542   0.222   1.179  0.0469 -0.2077 -0.4427
  909SOL     MW 3636   1.577   0.196   1.107  0.3292 -0.1612 -0.3470
  910SOL     OW 3637   2.316   1.746   0.389  0.1717 -0.5510  0.3466
  910SOL    HW1 3638   2.257   1.674   0.397 -1.0602  0.9267  0.8254
  910SOL    HW2 3639   2.268   1.817   0.336  0.6755  1.7922 -0.1491
  910SOL     MW 3640   2.302   1.746   0.383  0.0756 -0.0469  0.3444
  911SOL     OW 3641   2.223   2.264   1.691  0.2410 -0.3464  0.1737
  911SOL    HW1 3642   2.296   2.242   1.743 -1.1791  1.2935 -1.7270
  911SOL    HW2 3643   2.265   2.277   1.602  2.0480 -0.8627 -0.3688
  911SOL     MW 3644   2.238   2.263   1.686  0.2920 -0.1982 -0.1487
  912SOL     OW 3645   2.832   1.952   1.515  0.0295 -0.1980  0.4080
  912SOL    HW1 3646   2.859   1.986   1.431 -0.4023  1.3607 -1.3589
  912SOL    HW2 3647   2.748   1.998   1.526  0.9009  2.7652  0.3347
  912SOL     MW 3648   2.824   1.963   1.505  0.0875  0.3986  0.1652
  913SOL     OW 3649   2.540   2.970   0.427  0.5130 -0.0254 -0.3305
  913SOL    HW1 3650   2.623   2.918   0.422  0.8556 -0.7651  0.2585
  913SOL    HW2 3651   2.472   2.903   0.414 -1.4657  1.2566  0.2704
  913SOL     MW 3652   2.542   2.954   0.425  0.2971  0.0461 -0.1735
  914SOL     OW 3653   2.747   1.629   3.061 -0.0894 -0.4112 -0.1730
  914SOL    HW1 3654   2.747   1.713   3.012 -1.3382 -2.8393  2.0712
  914SOL    HW2 3655   2.664   1.621   3.112  3.7545  2.1742 -3.0499
  914SOL     MW 3656   2.736   1.639   3.062  0.2530 -0.3904 -0.2565
  915SOL     OW 3657   1.821   0.248   0.181 -0.4521  0.2717 -0.2130
  915SOL    HW1 3658   1.883   0.178   0.196 -0.9107  1.1197 -0.2672
  915SOL    HW2 3659   1.749   0.214   0.233 -0.7104  0.6157 -0.4256
  915SOL     MW 3660   1.820   0.234   0.190 -0.5467  0.4290 -0.2482
  916SOL     OW 3661   1.726   2.073   1.939 -0.2469  0.2755  0.3705
  916SOL    HW1 3662   1.783   2.154   1.930 -0.5307  0.9740  1.8988
  916SOL    HW2 3663   1.742   2.024   1.858 -2.3582  0.1014 -0.8429
  916SOL     MW 3664   1.736   2.077   1.927 -0.5629  0.3447  0.4120
  917SOL     OW 3665   2.449   2.319   2.635 -0.0963  0.1721 -0.5569
  917SOL    HW1 3666   2.416   2.359   2.714  0.1199  0.9117 -0.8271
  917SOL    HW2 3667   2.489   2.384   2.576  3.8963 -1.1590  0.1165
  917SOL     MW 3668   2.450   2.333   2.638  0.4590  0.0941 -0.5037
  918SOL     OW 3669   2.060   1.648   2.704 -0.2973  0.1170 -0.1465
  918SOL    HW1 3670   1.993   1.679   2.643  2.5616  0.7038  0.4510
  918SOL    HW2 3671   2.141   1.710   2.689  2.8911  0.2370 -0.4112
  918SOL     MW 3672   2.062   1.660   2.694  0.5006  0.2103 -0.1026
  919SOL     OW 3673   0.065   2.374   2.262  0.2108 -0.3549 -0.2765
  919SOL    HW1 3674  -0.003   2.309   2.230  1.1395  0.4673  0.6661
  919SOL    HW2 3675   0.122   2.358   2.186 -0.9069 -0.9185 -0.0293
  919SOL     MW 3676   0.064   2.363   2.247  0.1859 -0.3208 -0.1195
  920SOL     OW 3677   2.757   2.794   3.094  0.5707  0.1849  0.0026
  920SOL    HW1 3678   2.701   2.866   3.128 -0.0527 -3.1976 -0.0047
  920SOL    HW2 3679   2.739   2.779   2.999 -0.3828 -0.5372 -2.7255
  920SOL     MW 3680   2.747   2.801   3.086  0.3627 -0.3567 -0.3583
  921SOL     OW 3681   2.465   2.625   2.657  0.1976  0.2505  0.3246
  921SOL    HW1 3682   2.515   2.623   2.571 -2.7298 -0.9140  1.9729
  921SOL    HW2 3683   2.538   2.587   2.714 -1.0256 -2.0762 -1.9350
  921SOL     MW 3684   2.482   2.620   2.653 -0.3500 -0.2102  0.2439
  922SOL     OW 3685   1.990   2.771   0.304 -0.4740 -0.2751  0.0201
  922SOL    HW1 3686   1.995   2.788   0.206  0.3121 -1.5937 -4.0753
  922SOL    HW2 3687   1.927   2.701   0.301 -0.1852  3.6908  0.8331
  922SOL     MW 3688   1.982   2.764   0.290 -0.3322  0.0742 -0.4130
  923SOL     OW 3689   2.221   2.810   1.707  0.0489 -0.0321 -0.0709
  923SOL    HW1 3690   2.273   2.743   1.654  2.4597  0.4969  0.2645
  923SOL    HW2 3691   2.212   2.894   1.655 -1.2016  1.0380 -0.2512
  923SOL     MW 3692   2.226   2.812   1.693  0.2020  0.1789 -0.0504
  924SOL     OW 3693   1.213   2.739   2.588  0.2603 -0.2777 -0.2761
  924SOL    HW1 3694   1.248   2.790   2.511  0.4295 -0.2636  1.5991
  924SOL    HW2 3695   1.272   2.667   2.616  0.1775  0.1867  2.8355
  924SOL     MW 3696   1.225   2.736   2.581  0.2717 -0.2145  0.3819
  925SOL     OW 3697   2.955   0.188   2.587 -0.0710  0.6736 -0.2843
  925SOL    HW1 3698   2.992   0.237   2.515  4.5593  0.9147 -2.8312
  925SOL    HW2 3699   2.877   0.240   2.621 -0.6757  1.1614  0.9341
  925SOL     MW 3700   2.950   0.202   2.582  0.4601  0.7697 -0.4596
  926SOL     OW 3701   2.714   2.411   2.080  0.0685 -0.0735 -0.3573
  926SOL    HW1 3702   2.763   2.475   2.131 -1.5580 -1.2681  0.6559
  926SOL    HW2 3703   2.761   2.414   1.997  1.3326  1.8568  2.3789
  926SOL     MW 3704   2.727   2.420   2.076  0.0207  0.0236  0.1374
  927SOL     OW 3705   2.371   0.154   0.312 -0.4326  0.3936  0.1108
  927SOL    HW1 3706   2.462   0.162   0.295  0.2049 -0.2604 -0.3389
  927SOL    HW2 3707   2.328   0.158   0.229  0.8587  0.4206  2.0262
  927SOL     MW 3708   2.377   0.155   0.299 -0.1781  0.3109  0.3042
  928SOL     OW 3709   2.077   2.469   1.820 -0.1651 -0.4767  0.8735
  928SOL    HW1 3710   2.147   2.410   1.792 -0.4489  0.0433 -0.4226
  928SOL    HW2 3711   2.100   2.514   1.899  0.3145 -0.7105 -1.6158
  928SOL     MW 3712   2.089   2.467   1.827 -0.1393 -0.4389  0.3741
  929SOL     OW 3713   2.681   2.378   2.446 -0.4760  0.0490 -0.2494
  929SOL    HW1 3714   2.733   2.371   2.370 -3.4447  0.6604  0.5517
  929SOL    HW2 3715   2.736   2.328   2.510 -0.8992  0.8285 -2.0500
  929SOL     MW 3716   2.695   2.370   2.444 -0.9235  0.2325 -0.3813
  930SOL     OW 3717   2.010   2.916   2.655  0.2361 -0.6710 -0.4002
  930SOL    HW1 3718   2.024   2.858   2.734 -0.3352 -0.0647  3.4725
  930SOL    HW2 3719   2.096   2.950   2.647 -2.1067  1.1146 -0.8541
  930SOL     MW 3720   2.023   2.913   2.664 -0.1484 -0.3554  0.0509
  931SOL     OW 3721   2.948   2.802   2.254  0.3568  0.0509 -0.0120
  931SOL    HW1 3722   3.017   2.833   2.316  0.0579  3.9173 -1.1257
  931SOL    HW2 3723   2.945   2.862   2.186  1.0007  0.9983  1.6011
  931SOL     MW 3724   2.957   2.814   2.253  0.4023  0.6860  0.0539
  932SOL     OW 3725   2.882   1.911   2.554  0.7293  0.5136 -0.4643
  932SOL    HW1 3726   2.954   1.971   2.576  2.1366  2.0050 -0.9545
  932SOL    HW2 3727   2.890   1.919   2.459  0.2057  1.7138 -1.3121
  932SOL     MW 3728   2.893   1.920   2.544  0.8459  0.8687 -0.6408
  933SOL     OW 3729   2.068   2.867   2.230  0.4084  0.0002  0.3434
  933SOL    HW1 3730   2.143   2.924   2.260 -0.4729  2.0205  1.0683
  933SOL    HW2 3731   1.994   2.922   2.203  1.2532  0.6413  2.1930
  933SOL     MW 3732   2.068   2.882   2.230  0.4036  0.3514  0.6831
  934SOL     OW 3733   1.998   2.749   2.443 -0.5219 -0.1465 -0.0639
  934SOL    HW1 3734   2.011   2.813   2.519 -0.6375  0.1820 -1.6196
  934SOL    HW2 3735   2.027   2.791   2.359 -1.1709 -2.0453 -2.7672
  934SOL     MW 3736   2.004   2.763   2.442 -0.6228 -0.3537 -0.6259
  935SOL     OW 3737   2.638   1.534   1.799  0.4762  0.2542 -0.0031
  935SOL    HW1 3738   2.724   1.509   1.756 -0.6962 -0.4901 -1.9514
  935SOL    HW2 3739   2.574   1.523   1.725 -0.5939  1.1590 -2.1306
  935SOL     MW 3740   2.641   1.529   1.783  0.1803  0.2754 -0.5409
  936SOL     OW 3741   2.993   2.247   3.091 -0.1746 -0.3864 -0.2146
  936SOL    HW1 3742   3.068   2.281   3.144  0.9777  0.1637  0.4673
  936SOL    HW2 3743   2.908   2.295   3.112  0.5414  1.4735  2.3154
  936SOL     MW 3744   2.992   2.258   3.101  0.0719 -0.0684  0.2092
  937SOL     OW 3745   2.051   2.176   2.684  0.1114  0.0499  0.5827
  937SOL    HW1 3746   2.123   2.147   2.740 -1.8984  4.7134 -1.7791
  937SOL    HW2 3747   2.071   2.143   2.593 -1.6882 -0.3925  1.7171
  937SOL     MW 3748   2.063   2.168   2.679 -0.3912  0.6068  0.4208
  938SOL     OW 3749   2.299   1.815   1.924  0.2533 -0.1722  0.0624
  938SOL    HW1 3750   2.245   1.858   1.850 -1.5038 -1.4399 -0.9881
  938SOL    HW2 3751   2.316   1.878   1.996 -0.8412  0.9193  0.5934
  938SOL     MW 3752   2.294   1.829   1.924 -0.1229 -0.1955 -0.0062
  939SOL     OW 3753   2.816   1.994   2.309 -0.0107 -0.3837 -0.3150
  939SOL    HW1 3754   2.838   1.941   2.233 -1.5685  0.5028 -0.8138
  939SOL    HW2 3755   2.719   2.001   2.312  0.9505  2.5633 -0.3336
  939SOL     MW 3756   2.806   1.988   2.299 -0.0894  0.1221 -0.3833
  940SOL     OW 3757   2.316   0.139   2.719 -0.3019  0.2756 -0.5196
  940SOL    HW1 3758   2.299   0.046   2.681 -0.9102  0.5600 -1.0686
  940SOL    HW2 3759   2.384   0.131   2.784  3.1789 -1.2084 -0.5949
  940SOL     MW 3760   2.323   0.126   2.722  0.0771  0.1174 -0.6020
  941SOL     OW 3761   0.215   2.323   2.042 -0.4221 -0.3081  0.3524
  941SOL    HW1 3762   0.304   2.275   2.068 -3.6912 -2.0902 -2.2767
  941SOL    HW2 3763   0.236   2.371   1.968  1.5610 -0.4216 -0.0680
  941SOL     MW 3764   0.230   2.323   2.036 -0.5918 -0.5582 -0.0500
  942SOL     OW 3765   2.929   2.227   2.184  0.6121  0.0124  0.1738
  942SOL    HW1 3766   2.855   2.277   2.163  0.5952  0.5514 -1.0910
  942SOL    HW2 3767   2.887   2.155   2.232  1.5354  3.1889 -1.6470
  942SOL     MW 3768   2.914   2.224   2.187  0.7317  0.5026 -0.2333
  943SOL     OW 3769   0.405   1.991   2.274 -0.0174 -0.0631 -0.3250
  943SOL    HW1 3770   0.336   2.035   2.331  1.6245  0.4588  1.4244
  943SOL    HW2 3771   0.485   1.993   2.325  1.3698  1.3619  0.7400
  943SOL     MW 3772   0.407   1.997   2.289  0.3822  0.1938  0.0464
  944SOL     OW 3773   2.105   2.628   2.095  0.0245  0.4579  0.3948
  944SOL    HW1 3774   2.174   2.578   2.144 -1.4752  0.2881  0.1103
  944SOL    HW2 3775   2.102   2.704   2.152  0.6849  0.4758  0.5280
  944SOL     MW 3776   2.114   2.632   2.109 -0.0862  0.4378  0.3749
  945SOL     OW 3777   2.780   2.719   2.841  0.2152 -0.0913 -0.1030
  945SOL    HW1 3778   2.717   2.643   2.841  0.9706 -1.6616  0.0308
  945SOL    HW2 3779   2.810   2.739   2.751 -0.7481  1.0085  1.6801
  945SOL     MW 3780   2.776   2.712   2.829  0.1878 -0.1534  0.1500
  946SOL     OW 3781   2.450   2.734   2.271 -0.0429 -0.0186  0.0533
  946SOL    HW1 3782   2.507   2.758   2.200  0.8566 -2.8689  0.9361
  946SOL    HW2 3783   2.396   2.663   2.244  2.1490  0.5501 -1.2142
  946SOL     MW 3784   2.450   2.728   2.258  0.3650 -0.3196  0.0025
  947SOL     OW 3785   2.007   0.059   0.229 -0.2130  0.6941  0.1400
  947SOL    HW1 3786   2.060  -0.003   0.176  2.3295 -1.8589 -0.6546
  947SOL    HW2 3787   2.046   0.057   0.323 -4.0082 -0.7625 -1.6610
  947SOL     MW 3788   2.019   0.051   0.234 -0.3783  0.1651 -0.2025
  948SOL     OW 3789   1.796   3.070   2.650 -0.0028 -0.2790  0.0602
  948SOL    HW1 3790   1.864   2.996   2.655 -0.3156 -0.2311  1.0278
  948SOL    HW2 3791   1.786   3.095   2.557  1.1275  1.0559  2.0378
  948SOL     MW 3792   1.804   3.063   2.639  0.1051 -0.0966  0.4488
  949SOL     OW 3793   2.539   1.979   2.283  0.2655 -0.6274  0.0920
  949SOL    HW1 3794   2.562   1.902   2.346  0.3776 -2.7006  3.2930
  949SOL    HW2 3795   2.497   2.044   2.340  1.0305 -0.4270  2.7657
  949SOL     MW 3796   2.537   1.977   2.299  0.3812 -0.8745  0.8671
  950SOL     OW 3797   2.256   2.569   3.019  0.3047  0.2651  0.0880
  950SOL    HW1 3798   2.296   2.480   2.993 -0.3663 -1.3756  1.7698
  950SOL    HW2 3799   2.195   2.594   2.954  0.4619 -1.5024 -1.5210
  950SOL     MW 3800   2.253   2.560   3.007  0.2369 -0.1846  0.0976
  951SOL     OW 3801   2.968   2.077   2.830 -0.0412  0.6123  0.1492
  951SOL    HW1 3802   2.981   2.141   2.895  3.0633  1.1356 -1.2290
  951SOL    HW2 3803   3.052   2.082   2.784  0.4828 -0.9873 -3.6787
  951SOL     MW 3804   2.981   2.086   2.833  0.4375  0.4702 -0.5377
  952SOL     OW 3805   3.073   1.695   2.110  0.0209  0.8957  0.4290
  952SOL    HW1 3806   2.987   1.730   2.084 -1.6398 -1.5742  1.8400
  952SOL    HW2 3807   3.143   1.763   2.113 -2.1729  0.9574 -0.5798
  952SOL     MW 3808   3.071   1.709   2.107 -0.4877  0.5780  0.4821
  953SOL     OW 3809   1.956   1.805   2.940 -1.1203 -0.5123 -0.1911
  953SOL    HW1 3810   1.864   1.768   2.950  0.5263 -0.7772  0.4443
  953SOL    HW2 3811   2.015   1.740   2.897  1.2573 -1.1203 -1.3145
  953SOL     MW 3812   1.952   1.792   2.936 -0.5894 -0.6274 -0.2555
  954SOL     OW 3813   2.478   2.095   2.883 -0.3793 -0.4617 -0.1495
  954SOL    HW1 3814   2.397   2.077   2.841  1.0367 -0.1774  0.1455
  954SOL    HW2 3815   2.541   2.069   2.817 -2.6496  0.2985 -2.8537
  954SOL     MW 3816   2.476   2.089   2.869 -0.4920 -0.3239 -0.4674
  955SOL     OW 3817   1.586   1.634   2.520  0.6112  0.2806  0.3443
  955SOL    HW1 3818   1.564   1.645   2.426 -0.7638 -1.6372 -1.4289
  955SOL    HW2 3819   1.670   1.663   2.540 -4.1096 -1.3863 -1.4549
  955SOL     MW 3820   1.594   1.640   2.510 -0.1931 -0.1923 -0.1271
  956SOL     OW 3821   2.642   2.470   2.837  0.3920 -0.1610  0.3009
  956SOL    HW1 3822   2.689   2.441   2.915 -0.4582  3.2229 -1.4805
  956SOL    HW2 3823   2.675   2.409   2.771  0.9049 -0.3429 -1.0074
  956SOL     MW 3824   2.653   2.458   2.839  0.3475  0.2615 -0.1068
  957SOL     OW 3825   2.264   2.826   0.390 -0.3087  0.7137  0.1533
  957SOL    HW1 3826   2.184   2.802   0.349 -1.9228  0.6859  0.7833
  957SOL    HW2 3827   2.258   2.781   0.472 -0.8566 -0.9413 -0.1579
  957SOL     MW 3828   2.252   2.817   0.396 -0.5939  0.4916  0.1953
  958SOL     OW 3829   2.003   2.675   2.824 -0.1165 -0.3585  0.0977
  958SOL    HW1 3830   2.001   2.593   2.768 -1.7525  2.0757  2.7641
  958SOL    HW2 3831   1.931   2.661   2.887  0.8320 -0.1169 -0.2285
  958SOL     MW 3832   1.993   2.662   2.825 -0.2072 -0.0055  0.4065
  959SOL     OW 3833   2.452   2.591   0.309  0.4299  0.1742  0.3785
  959SOL    HW1 3834   2.506   2.589   0.226  2.5171  1.1106 -3.5024
  959SOL    HW2 3835   2.411   2.680   0.308 -1.8440  1.5660  1.3825
  959SOL     MW 3836   2.454   2.603   0.298  0.4052  0.4814 -0.0011
  960SOL     OW 3837   1.903   2.319   2.282  0.2680  0.5549 -0.0132
  960SOL    HW1 3838   1.848   2.255   2.240 -0.2720 -0.6418 -0.2368
  960SOL    HW2 3839   1.844   2.338   2.354 -0.0594 -0.9340 -1.0113
  960SOL     MW 3840   1.888   2.313   2.286  0.1536  0.2006 -0.1744
  961SOL     OW 3841   2.160   2.321   2.353  0.0139  0.0921 -0.0152
  961SOL    HW1 3842   2.071   2.312   2.336 -1.7995  0.9988 -0.2966
  961SOL    HW2 3843   2.172   2.394   2.411  2.7019 -0.7039  0.8521
  961SOL     MW 3844   2.150   2.329   2.358  0.1293  0.1067  0.0621
  962SOL     OW 3845   2.237   2.013   2.803  0.4268 -0.8323 -0.0394
  962SOL    HW1 3846   2.203   1.980   2.887  1.1085  0.5369 -1.8301
  962SOL    HW2 3847   2.239   1.943   2.739 -0.6153  0.2951 -0.8170
  962SOL     MW 3848   2.233   1.999   2.806  0.3792 -0.5029 -0.3783
  963SOL     OW 3849   1.844   2.582   2.021 -0.1730 -0.4781 -0.6690
  963SOL    HW1 3850   1.931   2.595   2.055 -1.3590  1.8212 -2.1283
  963SOL    HW2 3851   1.845   2.488   1.994 -2.0801  2.7077  0.2295
  963SOL     MW 3852   1.856   2.571   2.022 -0.5811  0.2456 -0.7430
  964SOL     OW 3853   1.867   1.970   2.750  0.0615 -0.3837  0.1148
  964SOL    HW1 3854   1.915   2.054   2.712  0.1007  0.8018 -0.1159
  964SOL    HW2 3855   1.925   1.918   2.807 -3.5934  2.7249 -1.6719
  964SOL     MW 3856   1.881   1.974   2.753 -0.4156  0.1828 -0.1514
  965SOL     OW 3857   2.246   2.730   0.653  0.3775  0.4521  0.2659
  965SOL    HW1 3858   2.229   2.638   0.639  2.9578 -1.9660 -0.3495
  965SOL    HW2 3859   2.274   2.742   0.746  0.1279  2.7610 -0.2073
  965SOL     MW 3860   2.248   2.719   0.664  0.6850  0.4377  0.1222
  966SOL     OW 3861   2.623   2.638   2.450  0.0664 -0.0673  0.3573
  966SOL    HW1 3862   2.574   2.678   2.380  0.1594 -0.5166  2.5273
  966SOL    HW2 3863   2.630   2.541   2.413  0.2493 -1.6610  1.7399
  966SOL     MW 3864   2.617   2.630   2.436  0.1028 -0.3369  0.8261
  967SOL     OW 3865   2.913   3.036   2.903  0.3350  0.0617 -0.0585
  967SOL    HW1 3866   2.906   2.950   2.943 -0.2756 -0.2007  0.4721
  967SOL    HW2 3867   2.821   3.055   2.873 -0.8430 -2.5613  0.1918
  967SOL     MW 3868   2.900   3.027   2.904  0.0990 -0.3190  0.0445
  968SOL     OW 3869   3.031   2.597   2.931 -0.6686  0.1619  0.3242
  968SOL    HW1 3870   2.973   2.654   2.879 -2.2949 -0.1920 -1.9387
  968SOL    HW2 3871   3.018   2.518   2.870 -1.0230  0.1491  1.2220
  968SOL     MW 3872   3.022   2.594   2.916 -0.9299  0.1135  0.1441
  969SOL     OW 3873   1.513   2.129   1.705 -0.0790 -0.0698 -0.5445
  969SOL    HW1 3874   1.573   2.050   1.717  0.6185 -2.6987  0.6546
  969SOL    HW2 3875   1.472   2.145   1.788 -2.0520  0.4665 -1.0285
  969SOL     MW 3876   1.515   2.121   1.717 -0.2473 -0.3459 -0.4502
  970SOL     OW 3877   1.685   1.660   1.827  0.0037 -0.3421 -0.6076
  970SOL    HW1 3878   1.733   1.667   1.909 -1.5178  0.4432 -2.7430
  970SOL    HW2 3879   1.591   1.673   1.855 -1.2743 -5.2966  1.5688
  970SOL     MW 3880   1.679   1.663   1.841 -0.3657 -0.8922 -0.6022
  971SOL     OW 3881   1.788   0.020   2.376 -0.5579 -0.3592  0.2901
  971SOL    HW1 3882   1.766  -0.008   2.280 -1.2678 -1.9993 -4.5558
  971SOL    HW2 3883   1.864   0.076   2.361  1.8815  2.7374 -0.7476
  971SOL     MW 3884   1.795   0.024   2.361 -0.3297 -0.1670 -0.4862
  972SOL     OW 3885   0.271   2.802   2.489 -0.5328  0.2847 -0.7434
  972SOL    HW1 3886   0.317   2.720   2.502  0.6121  0.5657 -1.0077
  972SOL    HW2 3887   0.346   2.855   2.511 -1.9323 -0.7003 -1.1632
  972SOL     MW 3888   0.287   2.798   2.494 -0.5664  0.1918 -0.8337
  973SOL     OW 3889   2.601   0.024   2.110 -0.3350  0.0653  0.4060
  973SOL    HW1 3890   2.615  -0.067   2.081 -3.0350  0.3342  1.0482
  973SOL    HW2 3891   2.614   0.079   2.034 -0.2795 -1.7935  3.0582
  973SOL     MW 3892   2.605   0.019   2.096 -0.6839 -0.1444  0.8407
  974SOL     OW 3893   2.085   0.285   2.783 -0.8753  0.1925 -0.3423
  974SOL    HW1 3894   2.165   0.242   2.747 -0.0313 -1.5544  0.4000
  974SOL    HW2 3895   2.048   0.205   2.828  1.9786  0.4448 -0.3901
  974SOL     MW 3896   2.091   0.269   2.784 -0.3874 -0.0047 -0.2507
  975SOL     OW 3897   2.181   2.559   2.523 -0.5682 -0.2107 -0.1758
  975SOL    HW1 3898   2.260   2.591   2.574  0.9996 -0.0693 -0.6261
  975SOL    HW2 3899   2.138   2.634   2.481  1.0492 -0.0245 -0.6002
  975SOL     MW 3900   2.185   2.573   2.525 -0.1479 -0.1675 -0.2912
  976SOL     OW 3901   0.257   0.402   1.731  0.4894  0.0366  0.8317
  976SOL    HW1 3902   0.323   0.359   1.783 -2.1725  1.6884 -0.9563
  976SOL    HW2 3903   0.180   0.349   1.724 -1.7191  0.7334  1.7172
  976SOL     MW 3904   0.255   0.389   1.737 -0.1532  0.3465  0.7127
  977SOL     OW 3905   1.743   2.741   2.459  0.0095 -0.2758 -0.2254
  977SOL    HW1 3906   1.736   2.647   2.442  0.9204  2.0877 -0.7516
  977SOL    HW2 3907   1.840   2.752   2.466  0.7170 -0.3082  0.6718
  977SOL     MW 3908   1.755   2.730   2.458  0.2230  0.0317 -0.1764
   3.10000   3.10000   3.10000
