977 TIP4P/2005f water molecules t=   0.56000 step= 560
 3908
    1SOL     OW    1   0.213   0.835   0.022 -0.5092  0.4536  0.1104
    1SOL    HW1    2   0.200   0.835  -0.072 -2.0139  0.3635  0.5808
    1SOL    HW2    3   0.170   0.757   0.050 -0.5917  3.1480  0.1556
    1SOL     MW    4   0.206   0.825   0.013 -0.7186  0.7972  0.1784
    2SOL     OW    5   0.259   3.019   1.160 -0.3560 -0.3400  0.4080
    2SOL    HW1    6   0.312   3.077   1.109 -0.7389  3.6368  1.4064
    2SOL    HW2    7   0.166   3.044   1.158 -1.6123 -1.2266 -1.0702
    2SOL     MW    8   0.254   3.030   1.153 -0.5723  0.0677  0.3447
    3SOL     OW    9   2.692   0.386   0.920 -0.6577  0.3342 -0.2943
    3SOL    HW1   10   2.710   0.466   0.872  1.8562  1.5347 -2.9855
    3SOL    HW2   11   2.654   0.429   1.003  0.2708 -1.5527  2.0674
    3SOL     MW   12   2.689   0.403   0.925 -0.2035  0.2436 -0.3378
    4SOL     OW   13   3.050   1.760   0.587 -0.3137  0.1614 -0.0135
    4SOL    HW1   14   2.982   1.785   0.525  0.3540 -0.8066  0.4897
    4SOL    HW2   15   3.098   1.701   0.527 -2.9113  0.0938  1.5730
    4SOL     MW   16   3.047   1.755   0.571 -0.5683  0.0248  0.2623
    5SOL     OW   17   1.726   1.502   0.564  0.1899  0.3419 -0.8036
    5SOL    HW1   18   1.761   1.452   0.642 -1.6215  2.2816 -0.4039
    5SOL    HW2   19   1.629   1.493   0.556  1.7619 -0.2543 -1.5562
    5SOL     MW   20   1.718   1.494   0.573  0.1583  0.5191 -0.8502
    6SOL     OW   21   0.858   1.387   0.685 -0.4148 -0.1601  0.3361
    6SOL    HW1   22   0.765   1.384   0.692  0.0737 -0.7402 -2.4520
    6SOL    HW2   23   0.879   1.296   0.659  0.6339 -0.7728 -0.6166
    6SOL     MW   24   0.848   1.375   0.682 -0.2120 -0.3175 -0.1575
    7SOL     OW   25   2.012   1.136   0.030  0.3219  0.9821 -0.3173
    7SOL    HW1   26   2.049   1.224   0.011  1.1828  1.6900  0.0148
    7SOL    HW2   27   2.023   1.123   0.122 -1.1990 -0.0997 -0.4018
    7SOL     MW   28   2.018   1.146   0.040  0.2348  0.9328 -0.2846
    8SOL     OW   29   0.943   1.372   1.020 -0.1582  0.1090 -0.0512
    8SOL    HW1   30   0.925   1.339   0.934  1.4730 -2.3219  3.8766
    8SOL    HW2   31   0.964   1.299   1.072 -0.0931  0.8917  0.2173
    8SOL     MW   32   0.943   1.358   1.015  0.0656 -0.1084  0.5025
    9SOL     OW   33   1.072   0.464   1.379  0.0827 -0.3593  0.3997
    9SOL    HW1   34   0.989   0.424   1.347 -0.6710 -0.6094 -0.5261
    9SOL    HW2   35   1.095   0.429   1.464  2.7202  2.9451  0.0051
    9SOL     MW   36   1.064   0.454   1.386  0.3312  0.0437  0.2255
   10SOL     OW   37   0.252   0.789   0.427 -0.2711 -0.0031 -0.3482
   10SOL    HW1   38   0.343   0.797   0.404  2.8201  1.6960  0.0052
   10SOL    HW2   39   0.243   0.837   0.511  0.8442 -0.5143  1.8247
   10SOL     MW   40   0.263   0.796   0.435  0.2839  0.1537 -0.0148
   11SOL     OW   41   0.779   1.137   1.663 -0.1933  0.5908  0.2587
   11SOL    HW1   42   0.813   1.119   1.753 -0.9111  2.1103  0.3241
   11SOL    HW2   43   0.754   1.054   1.622  2.1474  4.1601  0.9780
   11SOL     MW   44   0.780   1.124   1.670  0.0209  1.2622  0.3623
   12SOL     OW   45   0.020   1.055   0.858 -0.5550 -0.3670  0.4451
   12SOL    HW1   46   0.059   1.123   0.920 -4.6633  1.0337 -3.4088
   12SOL    HW2   47  -0.043   1.114   0.818  3.2514  2.0880  1.1633
   12SOL     MW   48   0.017   1.072   0.861 -0.5948  0.1417  0.0314
   13SOL     OW   49   1.849   1.418   1.320 -0.4126 -0.3625 -0.0269
   13SOL    HW1   50   1.881   1.382   1.241 -0.2321  0.0130  0.5464
   13SOL    HW2   51   1.842   1.517   1.300  0.0081  1.6358  0.2583
   13SOL     MW   52   1.852   1.427   1.307 -0.3333 -0.0493  0.0864
   14SOL     OW   53   0.583   0.327   1.814  0.2507 -0.0748 -0.1444
   14SOL    HW1   54   0.590   0.255   1.748 -0.8796  1.3718 -0.9767
   14SOL    HW2   55   0.667   0.325   1.860  2.0871  0.8640 -0.0090
   14SOL     MW   56   0.595   0.317   1.812  0.3438  0.2400 -0.2364
   15SOL     OW   57   1.936   0.518   0.973 -0.7421 -0.3969  0.3810
   15SOL    HW1   58   1.934   0.548   1.069  0.3859  1.5813  0.3033
   15SOL    HW2   59   2.022   0.482   0.949 -1.2185 -0.3601 -0.3314
   15SOL     MW   60   1.947   0.517   0.982 -0.6562 -0.1310  0.2767
   16SOL     OW   61   0.250   1.785   0.325  0.4938  0.5278 -0.1107
   16SOL    HW1   62   0.333   1.744   0.352 -0.4899  1.2843  1.2939
   16SOL    HW2   63   0.249   1.861   0.382  2.1635 -0.5937 -1.6174
   16SOL     MW   64   0.261   1.790   0.336  0.5843  0.4797 -0.1242
   17SOL     OW   65   1.002   0.846   1.492  0.0799  0.1699  0.0588
   17SOL    HW1   66   1.041   0.831   1.577  0.6534 -1.1583  0.1146
   17SOL    HW2   67   0.910   0.853   1.514  1.2597  0.2915 -0.3027
   17SOL     MW   68   0.995   0.845   1.506  0.3112  0.0107  0.0185
   18SOL     OW   69   0.090   1.582   0.426  0.1482  0.1641 -0.7903
   18SOL    HW1   70   0.133   1.648   0.368 -0.0954  1.4042 -0.1306
   18SOL    HW2   71   0.043   1.524   0.362  1.1688 -1.9356 -2.3786
   18SOL     MW   72   0.090   1.583   0.410  0.2507  0.0507 -0.9128
   19SOL     OW   73   0.082   1.296   1.003  0.1754  0.0516  0.3725
   19SOL    HW1   74   0.138   1.357   0.950  0.1023 -0.1142 -0.4141
   19SOL    HW2   75   0.005   1.348   1.026 -3.2680 -1.4778  0.8798
   19SOL     MW   76   0.079   1.311   0.999 -0.2886 -0.1721  0.3356
   20SOL     OW   77   0.417   2.124   1.293 -0.7151 -0.0274 -0.3269
   20SOL    HW1   78   0.367   2.060   1.239  3.3035  0.5480 -1.6106
   20SOL    HW2   79   0.362   2.171   1.363  0.2155 -0.9110 -0.0975
   20SOL     MW   80   0.403   2.122   1.295 -0.0621 -0.0681 -0.4660
   21SOL     OW   81   0.521   0.822   0.379  0.0710 -0.3826 -0.1677
   21SOL    HW1   82   0.604   0.819   0.423  0.5381 -1.3650  2.0484
   21SOL    HW2   83   0.529   0.787   0.290 -1.6532 -0.9231  0.5720
   21SOL     MW   84   0.533   0.817   0.373 -0.0949 -0.5836  0.2223
   22SOL     OW   85   1.515   0.561   1.113 -0.7777 -0.7328 -0.0826
   22SOL    HW1   86   1.574   0.503   1.058 -1.0071  2.1848  2.0630
   22SOL    HW2   87   1.447   0.590   1.051 -0.5279  1.3302 -0.6942
   22SOL     MW   88   1.514   0.557   1.098 -0.7750 -0.0756  0.1198
   23SOL     OW   89   3.084   0.767   0.667 -0.2202  0.1416 -0.8986
   23SOL    HW1   90   3.124   0.694   0.714  1.3517  0.9782 -1.1155
   23SOL    HW2   91   3.161   0.829   0.648 -0.3418 -0.0512 -0.7614
   23SOL     MW   92   3.100   0.766   0.671 -0.0289  0.2266 -0.9091
   24SOL     OW   93   1.991   2.207   0.088  0.3164  0.1469  0.6864
   24SOL    HW1   94   2.015   2.180   0.178 -0.3180 -0.2571 -0.5994
   24SOL    HW2   95   2.038   2.147   0.032  0.1855 -0.4374 -0.9472
   24SOL     MW   96   2.001   2.195   0.092  0.2155  0.0165  0.3012
   25SOL     OW   97   0.266   1.403   0.537 -0.2691 -0.6879  0.2189
   25SOL    HW1   98   0.221   1.489   0.508 -3.3652 -0.6971  0.2714
   25SOL    HW2   99   0.337   1.390   0.486 -0.6193  2.2171  1.6368
   25SOL     MW  100   0.269   1.413   0.527 -0.7238 -0.3058  0.4129
   26SOL     OW  101   2.021   0.913   0.455 -0.1910  0.5692  0.2013
   26SOL    HW1  102   1.942   0.937   0.494 -1.5646 -1.5405 -0.8568
   26SOL    HW2  103   2.053   0.985   0.398  1.7784 -2.5487  0.2886
   26SOL     MW  104   2.015   0.925   0.452 -0.1124 -0.1205  0.0732
   27SOL     OW  105   2.057   1.388   0.255  0.4458  0.1240 -0.5806
   27SOL    HW1  106   1.967   1.373   0.285 -0.5884  0.0616 -1.9495
   27SOL    HW2  107   2.091   1.457   0.313  1.4668 -1.2212 -1.1695
   27SOL     MW  108   2.050   1.395   0.267  0.4441 -0.0617 -0.8389
   28SOL     OW  109   0.394   1.094   1.961  1.0117  0.7015 -0.0981
   28SOL    HW1  110   0.462   1.045   1.915 -1.3938 -4.9218  1.4140
   28SOL    HW2  111   0.391   1.027   2.031  0.4311 -0.4366 -0.8980
   28SOL     MW  112   0.403   1.078   1.964  0.6177 -0.1906 -0.0041
   29SOL     OW  113   0.273   1.433   0.815  0.4369  0.0899  0.4086
   29SOL    HW1  114   0.270   1.527   0.797 -0.0343 -1.6743 -0.9618
   29SOL    HW2  115   0.284   1.397   0.729 -1.5518  0.2492  0.5635
   29SOL     MW  116   0.274   1.440   0.801  0.1124 -0.1218  0.2482
   30SOL     OW  117   0.859   1.135   1.235 -0.3688  0.5893 -0.1630
   30SOL    HW1  118   0.783   1.170   1.287 -0.9145  1.4744 -0.8932
   30SOL    HW2  119   0.941   1.143   1.290  0.7695  0.1138  0.5402
   30SOL     MW  120   0.860   1.140   1.249 -0.2906  0.6433 -0.1665
   31SOL     OW  121   0.384   0.230   0.170  0.0617 -0.8871 -0.4485
   31SOL    HW1  122   0.397   0.157   0.231  0.4235 -1.3204  0.8569
   31SOL    HW2  123   0.373   0.187   0.089 -1.7912 -1.5286 -2.0670
   31SOL     MW  124   0.385   0.215   0.167 -0.1351 -1.0289 -0.4898
   32SOL     OW  125   2.764   1.023   1.137  0.0150 -0.0664  0.3952
   32SOL    HW1  126   2.713   0.945   1.122 -0.0990  2.1139  0.3230
   32SOL    HW2  127   2.855   0.993   1.113 -0.7537 -3.3229  1.1568
   32SOL     MW  128   2.770   1.009   1.132 -0.1015 -0.2084  0.4861
   33SOL     OW  129   1.793   1.346   0.353  0.1539 -0.6236  0.4825
   33SOL    HW1  130   1.799   1.258   0.392  0.1173 -0.6912  1.2012
   33SOL    HW2  131   1.759   1.403   0.425 -3.2654 -0.0645 -0.9210
   33SOL     MW  132   1.789   1.342   0.367 -0.3021 -0.5588  0.3921
   34SOL     OW  133   1.216   1.884   1.104 -0.0183 -0.3944  0.3635
   34SOL    HW1  134   1.126   1.908   1.142  0.6263  0.3925 -2.4919
   34SOL    HW2  135   1.279   1.873   1.179 -2.5538 -2.2219 -0.3314
   34SOL     MW  136   1.213   1.885   1.119 -0.2678 -0.5317 -0.1049
   35SOL     OW  137   0.352   0.126   1.824  0.4380 -0.1380  0.6190
   35SOL    HW1  138   0.340   0.090   1.914  1.1334  0.7519 -0.2978
   35SOL    HW2  139   0.362   0.042   1.771 -1.0458  0.4904  1.2605
   35SOL     MW  140   0.352   0.110   1.829  0.3340  0.0623  0.5827
   36SOL     OW  141   1.843   1.916   0.470 -0.0502 -0.0032 -0.2068
   36SOL    HW1  142   1.889   1.951   0.398 -2.8962  0.1231  2.3861
   36SOL    HW2  143   1.882   1.841   0.508  1.5993 -1.2943 -0.0190
   36SOL     MW  144   1.854   1.911   0.466 -0.2081 -0.1569  0.1601
   37SOL     OW  145   1.772   2.030   1.051  0.4036 -0.9778  0.5624
   37SOL    HW1  146   1.730   1.996   0.972 -3.0271 -0.5294 -1.0779
   37SOL    HW2  147   1.699   2.064   1.111  0.3758  2.0760 -0.2785
   37SOL     MW  148   1.757   2.030   1.049 -0.0527 -0.5157  0.2350
   38SOL     OW  149   2.818   0.926   0.167  0.0410 -0.2028 -0.3750
   38SOL    HW1  150   2.870   0.916   0.247  1.0782 -1.3529 -0.5137
   38SOL    HW2  151   2.876   0.884   0.108  1.8567  1.7008  1.2917
   38SOL     MW  152   2.833   0.919   0.170  0.4174 -0.1034 -0.1734
   39SOL     OW  153   1.401   0.618   0.803 -0.5142  0.1271 -0.0550
   39SOL    HW1  154   1.415   0.525   0.816 -0.5360 -0.1587  1.3323
   39SOL    HW2  155   1.308   0.638   0.824 -0.4194 -0.0050  0.2718
   39SOL     MW  156   1.390   0.608   0.808 -0.5046  0.0719  0.1711
   40SOL     OW  157   1.202   1.883   0.250 -0.4460  0.1969  0.2566
   40SOL    HW1  158   1.237   1.821   0.314  0.2103  1.5118 -1.1490
   40SOL    HW2  159   1.181   1.963   0.299  2.2611  0.2039  2.1872
   40SOL     MW  160   1.204   1.886   0.265 -0.0022  0.3713  0.3259
   41SOL     OW  161   0.607   0.486   1.565  0.0569 -0.2604 -0.2668
   41SOL    HW1  162   0.700   0.496   1.550 -0.7527 -0.4302 -0.5448
   41SOL    HW2  163   0.599   0.441   1.651 -0.1965 -0.8875  1.3569
   41SOL     MW  164   0.618   0.481   1.574 -0.0834 -0.3655 -0.0893
   42SOL     OW  165   1.256   2.988   1.995 -0.4203  0.1693  0.7073
   42SOL    HW1  166   1.176   2.970   2.039 -0.6093 -1.3729 -2.2319
   42SOL    HW2  167   1.311   2.908   1.995 -1.0810  0.4592 -1.8156
   42SOL     MW  168   1.252   2.975   2.001 -0.5324  0.0040 -0.0134
   43SOL     OW  169   1.522   0.152   1.736  0.5188 -0.4072  0.2597
   43SOL    HW1  170   1.570   0.142   1.655  0.0733  1.8562  1.2363
   43SOL    HW2  171   1.435   0.110   1.746 -0.7200  0.7025  1.5377
   43SOL     MW  172   1.517   0.145   1.726  0.2966  0.0378  0.5572
   44SOL     OW  173   1.251   0.746   1.088 -0.2482 -0.0408 -0.0029
   44SOL    HW1  174   1.235   0.844   1.070  1.4173  1.2199  0.0393
   44SOL    HW2  175   1.236   0.737   1.184 -0.2668  1.5354  0.5639
   44SOL     MW  176   1.247   0.758   1.098 -0.0309  0.3335  0.0774
   45SOL     OW  177   1.142   0.724   0.786 -0.4620 -0.3963 -0.6841
   45SOL    HW1  178   1.079   0.701   0.847  3.3028 -0.8279 -1.0234
   45SOL    HW2  179   1.110   0.695   0.705  0.0024  2.0942  0.6407
   45SOL     MW  180   1.130   0.717   0.783  0.0960 -0.1247 -0.5541
   46SOL     OW  181   0.540   1.184   0.540  0.1178  0.5647 -0.3303
   46SOL    HW1  182   0.497   1.211   0.456 -0.0589  0.2083  2.3956
   46SOL    HW2  183   0.614   1.135   0.509 -1.9524  0.4002  0.0553
   46SOL     MW  184   0.544   1.181   0.524 -0.1786  0.4960  0.0802
   47SOL     OW  185   0.195   1.938   1.782 -0.4298  0.8161 -0.1890
   47SOL    HW1  186   0.264   1.863   1.770 -2.9583 -0.3786  0.3207
   47SOL    HW2  187   0.181   1.949   1.880 -2.3781 -0.9950 -1.6385
   47SOL     MW  188   0.202   1.930   1.793 -1.0205  0.4195 -0.3130
   48SOL     OW  189   1.035   0.590   1.018  0.3306 -0.1689  0.0592
   48SOL    HW1  190   0.997   0.619   1.098 -0.8596 -3.1101  1.4962
   48SOL    HW2  191   1.114   0.645   1.018 -0.8739 -1.3349  0.1920
   48SOL     MW  192   1.040   0.601   1.029  0.0146 -0.7108  0.2663
   49SOL     OW  193   1.794   0.751   1.536 -0.2619  0.6239 -0.3014
   49SOL    HW1  194   1.745   0.748   1.620 -1.5352 -1.6346  2.5249
   49SOL    HW2  195   1.854   0.681   1.563 -0.3411 -1.3049  1.5671
   49SOL     MW  196   1.795   0.742   1.550 -0.4403  0.0714  0.3180
   50SOL     OW  197   1.169   1.059   0.497  0.1398 -0.0733 -0.1839
   50SOL    HW1  198   1.172   1.109   0.580  0.7118  2.5801 -0.1927
   50SOL    HW2  199   1.227   0.991   0.529 -0.8291  1.3486  0.4619
   50SOL     MW  200   1.177   1.057   0.512  0.0874  0.4644 -0.0999
   51SOL     OW  201   0.358   2.878   0.953 -0.3009  0.5680 -0.5721
   51SOL    HW1  202   0.447   2.842   0.958 -2.2020 -0.9785 -2.7848
   51SOL    HW2  203   0.335   2.909   1.040  1.4190 -0.5659 -0.2948
   51SOL     MW  204   0.366   2.877   0.965 -0.3248  0.2143 -0.8275
   52SOL     OW  205   0.820   1.797   0.402  0.2647  0.0587  0.7546
   52SOL    HW1  206   0.778   1.882   0.411  2.3593 -0.5130 -2.2689
   52SOL    HW2  207   0.846   1.791   0.311  0.4638  2.4555  2.2350
   52SOL     MW  208   0.818   1.808   0.391  0.5673  0.2995  0.5510
   53SOL     OW  209   0.506   2.150   0.600 -0.1407 -0.1697  0.0887
   53SOL    HW1  210   0.422   2.117   0.580  1.0600  2.1620  1.8450
   53SOL    HW2  211   0.526   2.243   0.572 -1.7218  2.0192  1.2562
   53SOL     MW  212   0.497   2.158   0.594 -0.1909  0.4268  0.4745
   54SOL     OW  213   2.190   0.829   0.858 -0.0681  0.4370 -0.3114
   54SOL    HW1  214   2.183   0.884   0.780  1.6432  1.5789 -1.7845
   54SOL    HW2  215   2.099   0.794   0.873 -1.5250  0.2860  1.5337
   54SOL     MW  216   2.177   0.832   0.850 -0.0345  0.5677 -0.2623
   55SOL     OW  217   0.576   1.484   1.589 -0.0637 -0.2098  0.8543
   55SOL    HW1  218   0.517   1.507   1.517  0.1612  0.5836 -0.4281
   55SOL    HW2  219   0.646   1.431   1.547  1.4287 -0.2384 -2.1098
   55SOL     MW  220   0.578   1.480   1.574  0.1629 -0.1089  0.2940
   56SOL     OW  221   0.550   0.756   0.091 -0.1557  0.1159  0.0238
   56SOL    HW1  222   0.573   0.818   0.027 -1.3929 -0.2441  0.4166
   56SOL    HW2  223   0.469   0.714   0.054 -2.2959 -0.7130  0.7044
   56SOL     MW  224   0.542   0.759   0.077 -0.6013 -0.0410  0.1654
   57SOL     OW  225   1.258   1.223   1.196 -0.0288 -0.0448 -0.3864
   57SOL    HW1  226   1.341   1.232   1.142 -0.4782 -2.2640  0.8920
   57SOL    HW2  227   1.283   1.205   1.287  0.9291  2.1804  0.3578
   57SOL     MW  228   1.272   1.222   1.201  0.0383 -0.0440 -0.1195
   58SOL     OW  229   0.567   1.152   1.287 -0.4059 -0.0020  0.3553
   58SOL    HW1  230   0.534   1.239   1.256  1.9341  0.5157  1.0823
   58SOL    HW2  231   0.561   1.162   1.384 -0.7415  1.0137  2.3310
   58SOL     MW  232   0.561   1.165   1.296 -0.1414  0.2003  0.7119
   59SOL     OW  233   1.574   1.647   0.370 -0.3379  0.6633 -0.1528
   59SOL    HW1  234   1.620   1.687   0.438 -1.5092  0.0544 -2.5154
   59SOL    HW2  235   1.483   1.659   0.389  0.8106  2.5748  0.0442
   59SOL     MW  236   1.568   1.654   0.381 -0.3409  0.8352 -0.4385
   60SOL     OW  237   0.073   0.211   1.701  0.5605 -0.2120 -0.1733
   60SOL    HW1  238  -0.023   0.206   1.697 -2.4218  2.2062  0.6129
   60SOL    HW2  239   0.109   0.155   1.770  1.9795 -0.4585 -1.5520
   60SOL     MW  240   0.065   0.203   1.709  0.3543  0.0745 -0.2515
   61SOL     OW  241   2.042   1.457   3.083 -0.0613  0.0226 -0.6340
   61SOL    HW1  242   2.036   1.465   3.180  0.5242  1.3801 -0.1701
   61SOL    HW2  243   2.118   1.394   3.075  3.0219  1.0155 -0.0196
   61SOL     MW  244   2.051   1.450   3.094  0.4227  0.3327 -0.4917
   62SOL     OW  245   0.636   1.697   0.621 -0.6829  0.4986 -0.0537
   62SOL    HW1  246   0.718   1.680   0.592 -0.7442  1.4035  1.9552
   62SOL    HW2  247   0.601   1.605   0.650 -0.7831  0.2500 -0.8188
   62SOL     MW  248   0.642   1.683   0.621 -0.7042  0.5852  0.1104
   63SOL     OW  249   1.652   0.740   0.708 -0.2035 -0.0368 -0.1617
   63SOL    HW1  250   1.644   0.799   0.636  0.8079 -0.2107  0.2664
   63SOL    HW2  251   1.565   0.721   0.745 -0.3681 -0.8662 -0.2770
   63SOL     MW  252   1.639   0.745   0.704 -0.0917 -0.1692 -0.1204
   64SOL     OW  253   0.264   1.700   0.726  0.0856 -0.0353 -0.3198
   64SOL    HW1  254   0.338   1.761   0.741 -0.1983  1.0955  0.4405
   64SOL    HW2  255   0.188   1.748   0.709 -0.3081  1.7209 -1.0046
   64SOL     MW  256   0.264   1.714   0.726 -0.0038  0.3456 -0.3098
   65SOL     OW  257   1.539   2.336   0.364  0.3532  0.1612 -0.1913
   65SOL    HW1  258   1.631   2.309   0.383  1.4463  1.2253 -0.6065
   65SOL    HW2  259   1.514   2.384   0.454 -1.6231  0.9749 -0.7511
   65SOL     MW  260   1.548   2.339   0.379  0.2366  0.4089 -0.3200
   66SOL     OW  261   0.300   0.520   0.518  0.4776  0.6116  0.0011
   66SOL    HW1  262   0.369   0.491   0.462 -0.9256 -1.2804  1.4267
   66SOL    HW2  263   0.288   0.611   0.487 -2.0665  1.8892 -0.1115
   66SOL     MW  264   0.307   0.528   0.507 -0.0432  0.5306  0.1744
   67SOL     OW  265   1.461   0.101   2.045 -0.4089 -0.4834 -0.1288
   67SOL    HW1  266   1.506   0.091   1.963 -0.7398  1.1927 -0.4167
   67SOL    HW2  267   1.392   0.037   2.048  0.7274  1.8763 -1.1336
   67SOL     MW  268   1.458   0.092   2.035 -0.3026  0.0490 -0.2994
   68SOL     OW  269   0.616   0.088   2.992  0.1191  0.0781 -0.0561
   68SOL    HW1  270   0.621   0.109   2.897  1.0953  0.1907 -0.4019
   68SOL    HW2  271   0.631   0.167   3.044 -1.4306  0.4989 -2.0339
   68SOL     MW  272   0.618   0.101   2.986  0.0434  0.1485 -0.3627
   69SOL     OW  273   0.995   0.197   1.970  0.3514 -0.2346  0.5929
   69SOL    HW1  274   1.071   0.243   2.014  1.8860 -0.8905 -1.9724
   69SOL    HW2  275   0.999   0.100   2.002  1.5158 -0.7507  0.3238
   69SOL     MW  276   1.005   0.190   1.980  0.7075 -0.3892  0.2190
   70SOL     OW  277   0.563   1.752   1.119 -0.5150 -0.9488  0.2219
   70SOL    HW1  278   0.586   1.679   1.176  0.0340  1.1670 -0.2326
   70SOL    HW2  279   0.631   1.762   1.051 -0.5495  0.8971 -3.6022
   70SOL     MW  280   0.575   1.744   1.117 -0.4471 -0.4261 -0.3426
   71SOL     OW  281   1.715   0.592   1.341 -0.5767 -0.7854  0.2544
   71SOL    HW1  282   1.739   0.643   1.424  1.5048  0.9737  0.2945
   71SOL    HW2  283   1.641   0.635   1.304  1.3094 -0.2382  0.6828
   71SOL     MW  284   1.708   0.604   1.347 -0.0532 -0.4811  0.3162
   72SOL     OW  285   0.783   1.757   0.967 -0.2045  0.1020 -0.3707
   72SOL    HW1  286   0.767   1.816   0.887 -1.9190  0.8498 -1.0417
   72SOL    HW2  287   0.743   1.669   0.962  1.3126  0.1446 -0.1460
   72SOL     MW  288   0.776   1.753   0.956 -0.2305  0.2063 -0.4296
   73SOL     OW  289   1.208   0.703   1.359 -0.6583 -0.4363  0.3106
   73SOL    HW1  290   1.160   0.619   1.364 -0.7936 -0.1237  1.1077
   73SOL    HW2  291   1.145   0.764   1.401  0.5180  2.2624 -1.7898
   73SOL     MW  292   1.193   0.700   1.365 -0.5210 -0.0390  0.1387
   74SOL     OW  293   2.886   0.196   0.962 -0.1788 -0.1922 -0.5790
   74SOL    HW1  294   2.867   0.124   0.905  0.4983 -2.1898  0.0002
   74SOL    HW2  295   2.819   0.263   0.949 -0.0581 -0.5380  1.5587
   74SOL     MW  296   2.874   0.195   0.952 -0.0735 -0.5014 -0.2205
   75SOL     OW  297   1.624   1.395   0.142  0.5298  0.3477  0.0775
   75SOL    HW1  298   1.652   1.397   0.232  0.6791 -0.5293 -0.6265
   75SOL    HW2  299   1.682   1.323   0.106  1.0934 -2.2622  0.1367
   75SOL     MW  300   1.635   1.386   0.149  0.6238 -0.1124 -0.0076
   76SOL     OW  301   3.026   0.629   0.440  0.2467 -0.4688  0.2251
   76SOL    HW1  302   3.067   0.663   0.520  0.0174  2.3276  0.8559
   76SOL    HW2  303   3.081   0.558   0.408 -0.2719  1.6559 -1.1669
   76SOL     MW  304   3.038   0.624   0.446  0.1480  0.1805  0.1246
   77SOL     OW  305   0.817   0.533   0.401 -0.5403 -0.0969 -0.9812
   77SOL    HW1  306   0.785   0.538   0.310 -1.0681 -0.0786  0.4972
   77SOL    HW2  307   0.779   0.453   0.435 -0.2497  1.2422 -0.6931
   77SOL     MW  308   0.807   0.523   0.393 -0.5716  0.0822 -0.7481
   78SOL     OW  309   0.751   0.822   1.242  0.0949  0.4334  0.0858
   78SOL    HW1  310   0.670   0.817   1.195  3.0787  2.8839  1.5928
   78SOL    HW2  311   0.789   0.907   1.215 -0.5030  0.4430  2.0774
   78SOL     MW  312   0.745   0.833   1.232  0.4097  0.7580  0.5474
   79SOL     OW  313   1.931   1.698   0.619 -0.3372 -0.3628  0.3011
   79SOL    HW1  314   1.855   1.640   0.607 -3.2187 -0.6946 -0.8187
   79SOL    HW2  315   1.932   1.710   0.710  2.7860 -0.7595 -3.7459
   79SOL     MW  316   1.921   1.692   0.629 -0.3053 -0.4589 -0.3806
   80SOL     OW  317   0.127   0.999   0.318 -0.3776 -0.2942 -0.0325
   80SOL    HW1  318   0.037   0.992   0.360 -2.2087 -0.6672  0.6891
   80SOL    HW2  319   0.177   0.924   0.362  0.2082 -0.9413  0.8962
   80SOL     MW  320   0.121   0.988   0.329 -0.5419 -0.4288  0.1853
   81SOL     OW  321   1.915   1.926   0.205 -0.2246 -0.0967  0.0294
   81SOL    HW1  322   1.851   1.852   0.184 -2.6684 -1.3570  0.9046
   81SOL    HW2  323   1.847   1.998   0.214  0.1564 -2.3765  0.0631
   81SOL     MW  324   1.897   1.926   0.204 -0.4968 -0.5638  0.1493
   82SOL     OW  325   0.821   1.060   0.523  0.1864  0.4920 -0.4657
   82SOL    HW1  326   0.845   1.104   0.444  0.3304  1.0393 -3.5232
   82SOL    HW2  327   0.822   0.973   0.500 -1.4843  1.9897  1.6039
   82SOL     MW  328   0.824   1.054   0.510 -0.0150  0.7618 -0.5961
   83SOL     OW  329   0.204   0.605   1.294 -0.1450  0.1644 -0.3825
   83SOL    HW1  330   0.170   0.698   1.307 -2.2945  2.9381 -1.4046
   83SOL    HW2  331   0.272   0.583   1.360 -1.2249  1.7514  2.4356
   83SOL     MW  332   0.208   0.615   1.304 -0.5711  0.7397 -0.1455
   84SOL     OW  333   0.068   0.197   0.902  0.0384 -0.1474  0.1572
   84SOL    HW1  334  -0.000   0.259   0.875  2.8210  0.4258  1.6821
   84SOL    HW2  335   0.048   0.172   0.995 -0.3912  0.9488  0.9488
   84SOL     MW  336   0.057   0.202   0.911  0.3489  0.0729  0.4628
   85SOL     OW  337   0.476   0.455   0.763 -0.0242 -0.1969 -0.0686
   85SOL    HW1  338   0.428   0.468   0.687  2.1371 -0.5844  0.4911
   85SOL    HW2  339   0.480   0.358   0.784  2.2605 -0.8743 -0.6750
   85SOL     MW  340   0.471   0.444   0.755  0.5624 -0.3374 -0.0748
   86SOL     OW  341   1.231   0.389   1.062 -0.3516  0.1260  0.4551
   86SOL    HW1  342   1.142   0.424   1.044  0.3880 -0.9956 -0.8181
   86SOL    HW2  343   1.248   0.397   1.157 -2.1950 -0.5645 -0.7799
   86SOL     MW  344   1.222   0.395   1.072 -0.4972 -0.1131  0.1242
   87SOL     OW  345   1.156   1.475   1.254 -0.5601 -0.2868  0.4559
   87SOL    HW1  346   1.175   1.525   1.173 -0.3412  0.8853 -0.9685
   87SOL    HW2  347   1.196   1.384   1.239 -0.4874  0.2539 -1.2871
   87SOL     MW  348   1.164   1.470   1.242 -0.5216 -0.0608  0.0380
   88SOL     OW  349   1.223   1.010   1.021 -0.2303  0.0999 -0.8648
   88SOL    HW1  350   1.320   1.003   1.009  0.2444 -1.9042 -1.2798
   88SOL    HW2  351   1.227   1.085   1.087  0.6394  0.6248 -1.9490
   88SOL     MW  352   1.236   1.019   1.028 -0.0529 -0.0953 -1.0626
   89SOL     OW  353   1.762   0.669   0.295 -0.6140  0.1618 -0.6472
   89SOL    HW1  354   1.803   0.593   0.343  1.4165 -0.1303  2.7358
   89SOL    HW2  355   1.843   0.707   0.257  1.0937 -1.2095  1.0328
   89SOL     MW  356   1.778   0.664   0.296 -0.1208 -0.0576  0.0208
   90SOL     OW  357   0.680   1.177   2.833  0.4869  0.0848  0.0030
   90SOL    HW1  358   0.731   1.103   2.844 -1.5522  0.2178 -0.4762
   90SOL    HW2  359   0.687   1.214   2.924  1.2254 -3.0878  4.2806
   90SOL     MW  360   0.688   1.172   2.847  0.3153 -0.3162  0.5042
   91SOL     OW  361   2.232   0.675   0.552  0.4208 -0.6690  0.2267
   91SOL    HW1  362   2.194   0.748   0.504  0.2264 -0.2331 -2.6881
   91SOL    HW2  363   2.219   0.605   0.487 -0.5819 -1.1840  1.6790
   91SOL     MW  364   2.225   0.675   0.537  0.2628 -0.6795  0.0338
   92SOL     OW  365   1.623   0.896   0.456 -0.2676  0.4862  0.3264
   92SOL    HW1  366   1.525   0.886   0.481  0.8535  0.4788  0.5735
   92SOL    HW2  367   1.649   0.811   0.411 -0.5933 -0.5259  1.3862
   92SOL     MW  368   1.613   0.883   0.453 -0.1627  0.3517  0.4988
   93SOL     OW  369   1.033   0.302   0.366 -0.2308 -0.2158  0.3009
   93SOL    HW1  370   0.975   0.375   0.348 -0.1235 -0.1616  0.9944
   93SOL    HW2  371   1.098   0.301   0.293  1.6432  0.5444 -0.5085
   93SOL     MW  372   1.034   0.311   0.354  0.0306 -0.1084  0.2856
   94SOL     OW  373   1.914   1.351   1.586 -0.4279  0.0487  0.0521
   94SOL    HW1  374   1.902   1.370   1.490  0.4265  1.7042  0.1721
   94SOL    HW2  375   1.870   1.267   1.596  2.9927  1.7446  1.8715
   94SOL     MW  376   1.906   1.342   1.574  0.1362  0.4909  0.3080
   95SOL     OW  377   0.715   1.499   0.971 -0.2949 -0.4471  0.4862
   95SOL    HW1  378   0.807   1.465   0.992  0.3209  0.9421 -2.9606
   95SOL    HW2  379   0.650   1.430   0.989  1.7561  1.2612  0.6153
   95SOL     MW  380   0.719   1.485   0.976  0.0570 -0.0384  0.0485
   96SOL     OW  381   1.221   1.807   1.564  0.1107 -0.6432 -0.0294
   96SOL    HW1  382   1.125   1.782   1.593 -1.3429 -1.4464 -0.4432
   96SOL    HW2  383   1.254   1.746   1.502  1.7673  0.1754 -2.6982
   96SOL     MW  384   1.213   1.796   1.560  0.1375 -0.6412 -0.4361
   97SOL     OW  385   1.222   1.446   0.762  0.5627  0.7163  0.4396
   97SOL    HW1  386   1.226   1.497   0.844  0.8483 -0.3952  0.1651
   97SOL    HW2  387   1.142   1.485   0.726 -3.3167 -0.9241  0.6674
   97SOL     MW  388   1.212   1.458   0.768  0.0886  0.3532  0.4334
   98SOL     OW  389   1.486   1.291   1.057 -0.2251  0.2610  0.0525
   98SOL    HW1  390   1.488   1.339   1.138  0.3523 -0.6509 -3.2972
   98SOL    HW2  391   1.524   1.341   0.988 -0.6835 -0.0822 -0.2591
   98SOL     MW  392   1.491   1.304   1.059 -0.2094  0.0954 -0.4306
   99SOL     OW  393   1.434   0.375   1.294 -0.4504  0.8565 -0.2720
   99SOL    HW1  394   1.490   0.437   1.244  0.5376  0.1953  1.1313
   99SOL    HW2  395   1.440   0.402   1.387  0.5585  0.0249  2.5621
   99SOL     MW  396   1.442   0.387   1.299 -0.1869  0.6596  0.2871
  100SOL     OW  397   1.042   1.120   1.459  0.4366  0.5866 -0.5237
  100SOL    HW1  398   0.969   1.123   1.517  2.4646 -0.8926  1.0874
  100SOL    HW2  399   1.047   1.029   1.434 -1.8798  0.2213 -0.4229
  100SOL     MW  400   1.033   1.108   1.463  0.3986  0.3432 -0.2978
  101SOL     OW  401   0.554   1.070   0.259 -0.1729 -0.1755  0.1525
  101SOL    HW1  402   0.528   0.987   0.304 -0.4939  1.3571  0.5957
  101SOL    HW2  403   0.514   1.061   0.167 -2.4364 -0.9582  0.1509
  101SOL     MW  404   0.545   1.058   0.253 -0.5139 -0.0765  0.2108
  102SOL     OW  405   2.979   0.654   0.958 -0.4640 -0.0084 -0.6782
  102SOL    HW1  406   3.012   0.747   0.978  0.0187  2.0822 -0.9280
  102SOL    HW2  407   3.035   0.590   1.004 -2.1155 -3.4579  0.4938
  102SOL     MW  408   2.991   0.658   0.967 -0.6182 -0.1877 -0.5566
  103SOL     OW  409   1.703   0.373   1.843  0.6204  0.4683 -0.0538
  103SOL    HW1  410   1.639   0.305   1.805  0.4518 -3.5204 -0.1685
  103SOL    HW2  411   1.768   0.321   1.895  3.9509 -1.1494  0.5776
  103SOL     MW  412   1.703   0.357   1.845  1.0376 -0.2714  0.0144
  104SOL     OW  413   0.172   1.794   1.506  0.1018 -0.3147  0.6324
  104SOL    HW1  414   0.139   1.702   1.533 -2.9385 -2.1380  0.1545
  104SOL    HW2  415   0.238   1.764   1.445 -0.8355  1.2305  2.1017
  104SOL     MW  416   0.176   1.778   1.501 -0.4230 -0.3514  0.7632
  105SOL     OW  417   0.075   1.223   0.500 -0.9991 -0.8399  0.1782
  105SOL    HW1  418   0.119   1.149   0.451 -1.4788  0.2010 -1.2055
  105SOL    HW2  419   0.144   1.291   0.515 -4.0726  0.7668  1.1815
  105SOL     MW  420   0.090   1.222   0.495 -1.4679 -0.4906  0.1280
  106SOL     OW  421   0.852   0.350   0.996  0.3264  0.9286  0.1138
  106SOL    HW1  422   0.794   0.417   0.955 -0.0300  3.1669  1.6914
  106SOL    HW2  423   0.913   0.319   0.930 -0.1863 -0.8696  1.1636
  106SOL     MW  424   0.852   0.355   0.982  0.2117  0.9867  0.4604
  107SOL     OW  425   0.813   2.166   2.979  0.1492 -0.3340  0.2440
  107SOL    HW1  426   0.757   2.102   2.935 -1.5437  2.2488 -2.6932
  107SOL    HW2  427   0.806   2.151   3.073 -0.5994 -0.7462  0.3165
  107SOL     MW  428   0.805   2.156   2.986 -0.1729 -0.0476 -0.1339
  108SOL     OW  429   1.336   1.588   1.434  0.3131  0.0658  0.5223
  108SOL    HW1  430   1.263   1.534   1.385 -3.3654 -0.1784  2.4861
  108SOL    HW2  431   1.362   1.535   1.506  2.8690 -1.9415  0.1722
  108SOL     MW  432   1.330   1.574   1.437  0.1650 -0.2312  0.7352
  109SOL     OW  433   1.998   0.768   0.199  0.1306 -0.4014  0.0333
  109SOL    HW1  434   2.052   0.782   0.117  0.7607  0.8869  1.8271
  109SOL    HW2  435   2.067   0.724   0.248  1.0099  0.7585  0.7131
  109SOL     MW  436   2.015   0.764   0.195  0.3297 -0.0784  0.3596
  110SOL     OW  437   0.493   1.893   0.777  0.7966 -0.5801  0.0699
  110SOL    HW1  438   0.565   1.832   0.747 -0.3774  2.0986 -0.6264
  110SOL    HW2  439   0.497   1.970   0.715 -1.3944  2.1982 -2.3105
  110SOL     MW  440   0.503   1.895   0.765  0.3527  0.1399 -0.3361
  111SOL     OW  441   0.723   0.897   1.509  0.5814  0.5217  0.1135
  111SOL    HW1  442   0.708   0.863   1.421  2.4350  0.8214 -1.1521
  111SOL    HW2  443   0.650   0.869   1.567 -0.5757  1.3136  0.5732
  111SOL     MW  444   0.711   0.888   1.505  0.6733  0.6657  0.0072
  112SOL     OW  445   1.304   1.063   1.704 -0.0519 -0.1057 -0.8617
  112SOL    HW1  446   1.247   1.137   1.685 -3.0651  0.3006 -0.3829
  112SOL    HW2  447   1.241   0.987   1.702 -0.5780  0.0860  2.0152
  112SOL     MW  448   1.288   1.062   1.701 -0.5189 -0.0268 -0.4189
  113SOL     OW  449   1.304   3.087   1.754 -0.3359  0.2883  0.4011
  113SOL    HW1  450   1.279   3.044   1.836  0.6371  1.2299 -0.0469
  113SOL    HW2  451   1.303   3.019   1.683 -2.0345 -0.7213 -0.6733
  113SOL     MW  452   1.301   3.072   1.755 -0.4316  0.2794  0.2002
  114SOL     OW  453   0.467   2.827   1.937 -0.0655  0.5617  0.0654
  114SOL    HW1  454   0.423   2.893   1.991 -2.9036 -0.1023 -1.2421
  114SOL    HW2  455   0.459   2.854   1.848 -2.1770 -3.9722  1.8116
  114SOL     MW  456   0.460   2.839   1.932 -0.7186 -0.1241  0.1233
  115SOL     OW  457   0.485   0.808   1.117 -0.4764  0.0247  0.0397
  115SOL    HW1  458   0.504   0.713   1.122  3.4622  0.1007 -1.9003
  115SOL    HW2  459   0.435   0.840   1.190  1.3365 -0.7529  0.7286
  115SOL     MW  460   0.481   0.800   1.127  0.2825 -0.0679 -0.1253
  116SOL     OW  461   0.783   1.014   0.983 -0.2771 -0.6840  0.8472
  116SOL    HW1  462   0.811   1.051   0.901 -1.8061 -2.8692 -2.3931
  116SOL    HW2  463   0.800   1.083   1.044 -1.5764  1.0245 -0.2341
  116SOL     MW  464   0.789   1.028   0.980 -0.6503 -0.7469  0.2770
  117SOL     OW  465   1.206   1.155   0.786 -0.5498  0.2267  0.2740
  117SOL    HW1  466   1.215   1.110   0.868  0.4163  1.2476 -1.6714
  117SOL    HW2  467   1.244   1.238   0.796  0.4149 -1.6494  1.4178
  117SOL     MW  468   1.212   1.160   0.798 -0.2950  0.1139  0.1683
  118SOL     OW  469   3.037   2.905   1.695 -0.5768 -0.3205 -0.2375
  118SOL    HW1  470   3.088   2.967   1.745  0.9128 -4.3281  1.2521
  118SOL    HW2  471   2.946   2.944   1.708 -1.5348 -0.1042  0.4863
  118SOL     MW  472   3.032   2.918   1.703 -0.5067 -0.8208  0.0546
  119SOL     OW  473   0.473   1.390   1.209 -0.1133  0.7523  0.1194
  119SOL    HW1  474   0.480   1.381   1.116 -0.2872  3.0652  1.9992
  119SOL    HW2  475   0.380   1.372   1.225  2.6586  0.6313 -1.2387
  119SOL     MW  476   0.462   1.386   1.199  0.2295  1.0415  0.1882
  120SOL     OW  477   0.192   0.689   1.009  0.8615 -0.1843  0.6190
  120SOL    HW1  478   0.218   0.607   1.049  1.0788 -2.8149 -1.2087
  120SOL    HW2  479   0.236   0.757   1.063  1.8572 -0.9680  3.7622
  120SOL     MW  480   0.201   0.687   1.022  1.0216 -0.6348  0.7926
  121SOL     OW  481   1.831   1.093   1.700 -0.4964 -0.3691 -0.1659
  121SOL    HW1  482   1.744   1.073   1.738  0.0618 -1.4789  0.7500
  121SOL    HW2  483   1.835   1.033   1.624 -1.8754 -0.4104 -2.2686
  121SOL     MW  484   1.820   1.083   1.695 -0.6047 -0.5210 -0.3225
  122SOL     OW  485   0.139   0.558   0.761 -0.5335  0.1656  0.8820
  122SOL    HW1  486   0.195   0.538   0.687 -1.8948 -0.6434 -0.7568
  122SOL    HW2  487   0.195   0.607   0.820 -0.3193 -0.8878  0.1154
  122SOL     MW  488   0.154   0.562   0.759 -0.6848 -0.0801  0.5647
  123SOL     OW  489   1.817   1.097   0.489 -0.2868  0.1540  0.4172
  123SOL    HW1  490   1.751   1.023   0.483  0.1322  1.2951 -0.5230
  123SOL    HW2  491   1.844   1.111   0.581 -0.1344 -1.0207 -1.9763
  123SOL     MW  492   1.812   1.089   0.501 -0.2114  0.1495 -0.0227
  124SOL     OW  493   0.656   0.565   0.934  0.3629  0.1497  0.7228
  124SOL    HW1  494   0.584   0.541   0.870 -0.0304 -0.6047 -0.9100
  124SOL    HW2  495   0.708   0.635   0.885  1.3255  0.4006 -1.0335
  124SOL     MW  496   0.653   0.571   0.919  0.4380  0.0833  0.2756
  125SOL     OW  497   0.681   1.753   1.702  0.4901  0.5400  0.3151
  125SOL    HW1  498   0.624   1.702   1.650  2.2102  0.5848 -0.0263
  125SOL    HW2  499   0.634   1.835   1.731  1.0781 -0.2923 -1.6342
  125SOL     MW  500   0.668   1.757   1.699  0.7946  0.4361  0.0129
  126SOL     OW  501   2.097   1.619   1.966 -0.0952  0.6087  0.2143
  126SOL    HW1  502   2.153   1.690   1.931 -1.2126  0.4016 -2.0616
  126SOL    HW2  503   2.143   1.538   1.986  0.1770  0.5523  0.0170
  126SOL     MW  504   2.111   1.618   1.964 -0.2067  0.5739 -0.1120
  127SOL     OW  505   0.639   0.758   1.877  0.0633  0.3700 -0.4260
  127SOL    HW1  506   0.720   0.710   1.902  1.5010 -0.9425  1.4086
  127SOL    HW2  507   0.652   0.838   1.926  1.1071  0.4570 -2.1026
  127SOL     MW  508   0.651   0.762   1.887  0.3907  0.2083 -0.4051
  128SOL     OW  509   1.837   0.789   2.856  0.4110 -0.5514 -0.3210
  128SOL    HW1  510   1.856   0.766   2.764 -2.5263  1.2215 -2.4517
  128SOL    HW2  511   1.788   0.877   2.845 -1.1733 -1.3697  3.5567
  128SOL     MW  512   1.833   0.798   2.842 -0.1855 -0.4255 -0.0905
  129SOL     OW  513   1.572   0.969   0.203  0.7174 -0.7457  0.4671
  129SOL    HW1  514   1.517   0.898   0.180 -0.1500 -3.0300  1.4581
  129SOL    HW2  515   1.603   0.945   0.290  1.3179  1.9599 -0.6799
  129SOL     MW  516   1.569   0.956   0.212  0.6822 -0.6901  0.4465
  130SOL     OW  517   0.781   1.410   0.422  0.7237 -0.0081 -0.0751
  130SOL    HW1  518   0.851   1.415   0.494  1.6450  0.2925  0.6835
  130SOL    HW2  519   0.813   1.462   0.346 -2.4453  1.4942  1.1314
  130SOL     MW  520   0.794   1.418   0.421  0.4271  0.2298  0.1842
  131SOL     OW  521   3.023   0.813   3.082 -0.2516 -0.0840 -0.4410
  131SOL    HW1  522   3.014   0.873   3.005 -0.3098  0.4829  0.4272
  131SOL    HW2  523   3.089   0.871   3.133  3.1049 -0.6101  0.8834
  131SOL     MW  524   3.031   0.829   3.079  0.1836 -0.0786 -0.1517
  132SOL     OW  525   2.803   0.130   1.227  0.3770  0.0773 -0.1904
  132SOL    HW1  526   2.828   0.156   1.141 -0.3240 -1.1892  0.0431
  132SOL    HW2  527   2.709   0.146   1.227  1.3923 -0.6560 -1.5899
  132SOL     MW  528   2.794   0.135   1.216  0.4185 -0.1866 -0.3443
  133SOL     OW  529   1.061   0.147   1.709 -0.4780  0.4372 -0.4070
  133SOL    HW1  530   1.142   0.102   1.728 -1.9191  1.4258  1.5203
  133SOL    HW2  531   1.029   0.165   1.801 -1.1582  0.9602 -0.4941
  133SOL     MW  532   1.067   0.143   1.723 -0.7579  0.6367 -0.1642
  134SOL     OW  533   1.418   2.519   1.433  0.5655 -0.0913  0.0300
  134SOL    HW1  534   1.357   2.592   1.410 -1.8585  0.2503  0.9035
  134SOL    HW2  535   1.447   2.541   1.523 -1.3765 -1.0563 -1.2527
  134SOL     MW  536   1.414   2.531   1.442 -0.0106 -0.1736 -0.0240
  135SOL     OW  537   3.020   1.019   2.877 -0.5792 -0.0105 -0.6641
  135SOL    HW1  538   3.097   1.081   2.878 -0.4162  3.0121  0.4312
  135SOL    HW2  539   2.951   1.081   2.904  4.5202  2.3955  1.1086
  135SOL     MW  540   3.021   1.035   2.881  0.1151  0.7058 -0.2857
  136SOL     OW  541   0.263   2.024   0.861 -0.1076  0.2768  0.8517
  136SOL    HW1  542   0.193   1.961   0.883 -0.3678  2.6029 -0.5926
  136SOL    HW2  543   0.341   1.984   0.827 -1.6899  2.7341  0.4110
  136SOL     MW  544   0.264   2.010   0.859 -0.3507  0.9079  0.6030
  137SOL     OW  545   0.741   2.046   0.520 -0.9276  0.1767  0.4283
  137SOL    HW1  546   0.757   2.023   0.611  2.1157  1.0965 -1.0118
  137SOL    HW2  547   0.647   2.072   0.515  0.2658  2.5734  0.0074
  137SOL     MW  548   0.731   2.046   0.532 -0.3686  0.6142  0.1828
  138SOL     OW  549   0.518   0.555   1.173  0.2795  0.2484 -0.2578
  138SOL    HW1  550   0.434   0.502   1.148 -2.1316 -0.5932  0.0877
  138SOL    HW2  551   0.574   0.536   1.102  0.6904  0.7444  2.5468
  138SOL     MW  552   0.514   0.546   1.160  0.0156  0.2028  0.1578
  139SOL     OW  553   2.665   0.525   1.413 -0.0204  0.3173 -0.2411
  139SOL    HW1  554   2.751   0.489   1.390 -1.7656  1.3553 -0.5956
  139SOL    HW2  555   2.668   0.619   1.398 -0.3600 -0.8894 -0.0825
  139SOL     MW  556   2.677   0.532   1.408 -0.2955  0.2951 -0.2669
  140SOL     OW  557   0.841   0.378   2.096 -0.3192 -0.1893  0.4991
  140SOL    HW1  558   0.891   0.300   2.056 -0.0110 -0.0247 -0.0732
  140SOL    HW2  559   0.866   0.388   2.186 -1.5112 -2.1899  0.3619
  140SOL     MW  560   0.851   0.369   2.102 -0.4358 -0.4315  0.4055
  141SOL     OW  561   1.085   0.575   1.760 -0.1507 -0.8116  0.3119
  141SOL    HW1  562   1.120   0.496   1.732  0.9920  0.7468  1.5369
  141SOL    HW2  563   1.138   0.645   1.719 -0.2559  0.3429 -2.1401
  141SOL     MW  564   1.097   0.574   1.751 -0.0138 -0.4537  0.1500
  142SOL     OW  565   0.941   1.105   0.768  0.0920  0.5368 -0.0410
  142SOL    HW1  566   0.922   1.074   0.678 -1.1098  0.9165 -0.3677
  142SOL    HW2  567   1.036   1.133   0.768  2.2773  1.7490 -0.5321
  142SOL     MW  568   0.951   1.105   0.756  0.2218  0.7468 -0.1489
  143SOL     OW  569   1.784   0.776   1.101 -0.1658 -0.3350 -0.3985
  143SOL    HW1  570   1.835   0.771   1.019 -0.0976 -1.1424 -0.2743
  143SOL    HW2  571   1.709   0.723   1.086  0.8522  3.1016  0.3976
  143SOL     MW  572   1.781   0.768   1.088 -0.0225  0.0119 -0.2771
  144SOL     OW  573   0.185   1.224   1.542 -0.4256 -0.3003 -0.0649
  144SOL    HW1  574   0.282   1.218   1.547  0.2773 -0.0871  0.5966
  144SOL    HW2  575   0.166   1.271   1.625 -0.3438 -0.5289  2.3289
  144SOL     MW  576   0.195   1.229   1.553 -0.3221 -0.3023  0.3382
  145SOL     OW  577   0.304   0.428   1.065 -0.8212 -0.6112 -0.4190
  145SOL    HW1  578   0.263   0.377   1.138  1.2090 -0.3701 -2.1224
  145SOL    HW2  579   0.273   0.387   0.985  3.0597  3.4969  2.3621
  145SOL     MW  580   0.295   0.416   1.064 -0.0412 -0.0374 -0.2768
  146SOL     OW  581   0.871   1.939   1.385 -0.2130 -0.4274 -0.1759
  146SOL    HW1  582   0.901   1.943   1.289  1.2364 -3.0708  1.4418
  146SOL    HW2  583   0.782   1.917   1.389  4.4409  1.1965  0.7233
  146SOL     MW  584   0.863   1.937   1.373  0.5923 -0.5619  0.1562
  147SOL     OW  585   0.372   0.396   2.948  0.0819 -0.6890  0.0190
  147SOL    HW1  586   0.307   0.386   3.021  1.3009 -2.0935  1.7783
  147SOL    HW2  587   0.337   0.472   2.893 -2.2772 -0.7912 -0.6688
  147SOL     MW  588   0.359   0.404   2.950 -0.0685 -0.8878  0.1603
  148SOL     OW  589   0.108   0.868   1.356  0.6083 -0.0757 -0.5443
  148SOL    HW1  590   0.172   0.931   1.325 -0.6001 -3.2234  1.3104
  148SOL    HW2  591   0.085   0.885   1.443 -0.9228  1.5683 -0.4212
  148SOL     MW  592   0.114   0.879   1.363  0.2468 -0.2741 -0.2834
  149SOL     OW  593   1.393   1.182   1.427  0.1305  0.4139 -0.7519
  149SOL    HW1  594   1.399   1.143   1.514 -0.0131  0.3430  0.3033
  149SOL    HW2  595   1.463   1.241   1.412  0.3433 -1.5294 -2.6373
  149SOL     MW  596   1.403   1.185   1.436  0.1396  0.1481 -0.8614
  150SOL     OW  597   1.869   1.354   0.747  0.2999 -0.2261 -0.1003
  150SOL    HW1  598   1.882   1.260   0.758  0.7777  0.1561  0.1726
  150SOL    HW2  599   1.945   1.391   0.788  0.2179  2.0734 -1.9738
  150SOL     MW  600   1.881   1.346   0.754  0.3521  0.1278 -0.3115
  151SOL     OW  601   1.654   1.863   0.853  0.0685 -0.1979  0.2178
  151SOL    HW1  602   1.627   1.885   0.764 -1.7960  1.2505  0.8687
  151SOL    HW2  603   1.586   1.826   0.905 -0.0497 -0.6884 -5.2446
  151SOL     MW  604   1.642   1.861   0.848 -0.1931 -0.0715 -0.4170
  152SOL     OW  605   0.768   1.343   1.473 -0.2559 -0.2013  0.1186
  152SOL    HW1  606   0.782   1.282   1.541 -1.1479 -2.3518  1.0632
  152SOL    HW2  607   0.854   1.387   1.453  0.1423 -2.1597 -1.5286
  152SOL     MW  608   0.781   1.341   1.479 -0.3211 -0.7434  0.0259
  153SOL     OW  609   2.631   1.280   0.763  0.3683  0.3471  0.4242
  153SOL    HW1  610   2.695   1.269   0.697 -0.2548 -2.3411  0.6334
  153SOL    HW2  611   2.567   1.205   0.760  1.6629  1.1419 -0.9259
  153SOL     MW  612   2.631   1.269   0.754  0.4569  0.0973  0.2737
  154SOL     OW  613   0.368   1.727   1.693  0.1043  0.0650 -0.0499
  154SOL    HW1  614   0.344   1.716   1.599 -1.3458 -0.6904  1.7724
  154SOL    HW2  615   0.367   1.645   1.736  1.1182  3.6832 -1.3088
  154SOL     MW  616   0.364   1.715   1.686  0.0468  0.4427  0.0244
  155SOL     OW  617   1.103   0.662   0.289  0.4834  0.7463 -0.1648
  155SOL    HW1  618   1.084   0.628   0.379  0.6115  1.8943  1.8662
  155SOL    HW2  619   1.061   0.752   0.290  0.2104  1.3765 -2.1510
  155SOL     MW  620   1.095   0.669   0.301  0.4643  0.9809 -0.1589
  156SOL     OW  621   1.567   3.015   1.077  0.8229 -0.4955  0.5438
  156SOL    HW1  622   1.599   3.105   1.099  2.2419  0.8797 -1.3817
  156SOL    HW2  623   1.601   2.954   1.145 -0.0845  1.0927 -0.8062
  156SOL     MW  624   1.576   3.019   1.089  0.8904 -0.1045  0.1117
  157SOL     OW  625   1.403   1.157   0.132  0.5203 -0.6963 -0.0740
  157SOL    HW1  626   1.464   1.088   0.165 -1.5146 -0.1272 -1.9460
  157SOL    HW2  627   1.462   1.213   0.083 -1.0052  0.1614 -1.2928
  157SOL     MW  628   1.419   1.155   0.130  0.0506 -0.5081 -0.4818
  158SOL     OW  629   0.462   1.655   2.233  0.2360  0.4746  0.2339
  158SOL    HW1  630   0.458   1.719   2.162 -0.2562 -0.2328 -1.5280
  158SOL    HW2  631   0.376   1.664   2.270 -0.9355 -0.5508  0.0842
  158SOL     MW  632   0.450   1.665   2.228  0.0165  0.2460 -0.0183
  159SOL     OW  633   1.290   1.713   0.455 -0.9343  0.1838 -0.2247
  159SOL    HW1  634   1.286   1.625   0.420  0.9371  1.3095 -2.7635
  159SOL    HW2  635   1.200   1.725   0.496  1.1270 -0.8529 -3.1677
  159SOL     MW  636   1.278   1.703   0.456 -0.4154  0.1956 -0.9480
  160SOL     OW  637   0.471   1.118   1.569 -0.1726  0.2196 -0.0082
  160SOL    HW1  638   0.488   1.029   1.606  0.2475  1.4811 -2.8147
  160SOL    HW2  639   0.521   1.174   1.633 -0.8615 -2.9416  0.6147
  160SOL     MW  640   0.480   1.114   1.582 -0.2080 -0.0311 -0.2963
  161SOL     OW  641   0.542   2.163   2.620  0.0207  0.3444 -0.4506
  161SOL    HW1  642   0.448   2.154   2.622 -0.1688 -0.3647 -0.4853
  161SOL    HW2  643   0.564   2.134   2.532 -2.2222  2.9466 -1.5053
  161SOL     MW  644   0.533   2.158   2.609 -0.3003  0.5942 -0.5943
  162SOL     OW  645   1.013   1.729   1.750  0.8963  0.0835  0.2290
  162SOL    HW1  646   1.036   1.806   1.807 -0.5796  3.9173  0.0524
  162SOL    HW2  647   0.930   1.705   1.798 -1.7949 -1.2261  0.0826
  162SOL     MW  648   1.005   1.736   1.764  0.3465  0.4165  0.1864
  163SOL     OW  649   2.102   0.083   0.988 -0.1790 -0.7546  0.1174
  163SOL    HW1  650   2.095   0.082   0.897  0.6597 -2.7422  0.4477
  163SOL    HW2  651   2.017   0.043   1.017 -1.4829  1.4723 -2.7607
  163SOL     MW  652   2.090   0.078   0.980 -0.2403 -0.7230 -0.2188
  164SOL     OW  653   0.323   0.201   0.775  0.8266  0.0085  1.0278
  164SOL    HW1  654   0.231   0.200   0.806 -1.4843  0.5966  0.1570
  164SOL    HW2  655   0.325   0.119   0.728  1.2311 -0.5469  2.8548
  164SOL     MW  656   0.312   0.190   0.773  0.5751  0.0128  1.1540
  165SOL     OW  657   1.337   1.249   0.406 -0.5012 -0.2362 -0.0242
  165SOL    HW1  658   1.269   1.181   0.433  1.4436 -0.1025 -0.7596
  165SOL    HW2  659   1.378   1.226   0.327 -3.9136 -0.9489 -1.2220
  165SOL     MW  660   1.333   1.237   0.399 -0.6948 -0.3126 -0.2792
  166SOL     OW  661   0.509   1.057   0.940 -0.0628  0.2074  0.2027
  166SOL    HW1  662   0.476   0.989   1.003  1.0248  2.2641  0.4188
  166SOL    HW2  663   0.604   1.036   0.949 -1.0759 -0.0164  1.6979
  166SOL     MW  664   0.517   1.045   0.950 -0.0530  0.4492  0.4285
  167SOL     OW  665   0.838   1.133   0.255 -0.2185 -0.8832  0.1758
  167SOL    HW1  666   0.745   1.129   0.236  3.1437 -1.7672  1.7198
  167SOL    HW2  667   0.886   1.185   0.196 -0.7823  0.7301  3.4451
  167SOL     MW  668   0.832   1.139   0.245  0.1507 -0.7870  0.8109
  168SOL     OW  669   1.684   1.705   2.919 -0.4044 -0.5938  0.0736
  168SOL    HW1  670   1.591   1.701   2.902 -0.0170  0.2891  0.9527
  168SOL    HW2  671   1.706   1.625   2.966 -1.1278  1.8198 -2.6845
  168SOL     MW  672   1.674   1.694   2.923 -0.4488 -0.1589 -0.1743
  169SOL     OW  673   0.356   0.971   1.295  0.1710 -0.0348 -0.2522
  169SOL    HW1  674   0.368   0.937   1.386  1.8201  0.4189 -0.5908
  169SOL    HW2  675   0.419   1.049   1.294 -0.0951 -0.5364  0.4057
  169SOL     MW  676   0.366   0.977   1.307  0.3535 -0.0411 -0.2100
  170SOL     OW  677   1.013   1.454   1.473 -0.5245 -0.2536 -0.3271
  170SOL    HW1  678   0.973   1.544   1.485  0.4872 -0.3992 -2.7133
  170SOL    HW2  679   1.038   1.442   1.376 -2.1754 -0.3833  3.1866
  170SOL     MW  680   1.011   1.464   1.462 -0.6088 -0.2899 -0.1784
  171SOL     OW  681   0.582   1.430   0.689  0.5766  0.4612 -0.4233
  171SOL    HW1  682   0.562   1.403   0.780 -1.4053 -0.0411  0.9130
  171SOL    HW2  683   0.554   1.355   0.637  0.9665 -0.6807  0.5760
  171SOL     MW  684   0.575   1.416   0.694  0.3665  0.2443 -0.1151
  172SOL     OW  685   0.865   0.335   1.275 -0.4786  0.3419  0.1068
  172SOL    HW1  686   0.869   0.350   1.175 -0.6296  4.1385 -0.6385
  172SOL    HW2  687   0.768   0.327   1.296 -0.2827 -1.6310  1.6322
  172SOL     MW  688   0.853   0.336   1.264 -0.4727  0.5825  0.2097
  173SOL     OW  689   0.479   1.660   0.402  0.1411  0.1837  0.3946
  173SOL    HW1  690   0.487   1.563   0.400  1.7350 -3.1343 -1.3057
  173SOL    HW2  691   0.525   1.692   0.484 -1.3453  0.8725  0.9197
  173SOL     MW  692   0.486   1.651   0.413  0.1553 -0.1632  0.2395
  174SOL     OW  693   1.971   0.964   1.461 -0.2760  0.9792  0.5719
  174SOL    HW1  694   1.920   0.881   1.484 -0.1433 -0.3712 -1.2221
  174SOL    HW2  695   1.912   0.986   1.388 -0.3304 -1.2754 -1.5759
  174SOL     MW  696   1.956   0.956   1.455 -0.2657  0.5036  0.0518
  175SOL     OW  697   0.478   1.397   0.327 -0.0762 -0.6397  0.1601
  175SOL    HW1  698   0.452   1.413   0.237 -0.3603 -1.9605 -0.1075
  175SOL    HW2  699   0.564   1.367   0.319 -5.1733 -1.2174 -0.0866
  175SOL     MW  700   0.486   1.395   0.314 -0.7862 -0.8902  0.0923
  176SOL     OW  701   0.222   1.318   1.266 -0.8972  0.6796 -0.5051
  176SOL    HW1  702   0.151   1.293   1.204  0.2281 -0.3917  1.0144
  176SOL    HW2  703   0.219   1.272   1.353 -3.2435  2.2966 -1.7014
  176SOL     MW  704   0.213   1.309   1.269 -1.0583  0.7516 -0.4625
  177SOL     OW  705   0.583   0.321   1.304  0.1193 -0.5458  0.3878
  177SOL    HW1  706   0.562   0.404   1.260 -0.8882 -1.2932 -0.7267
  177SOL    HW2  707   0.587   0.334   1.394  0.2227  1.9984 -0.6146
  177SOL     MW  708   0.581   0.334   1.310  0.0000 -0.3087  0.1085
  178SOL     OW  709   3.031   0.407   2.888 -0.6291  0.1557 -0.3469
  178SOL    HW1  710   2.992   0.437   2.975 -0.6350 -0.2938 -0.4487
  178SOL    HW2  711   2.954   0.390   2.840  0.6706  1.2090 -0.7126
  178SOL     MW  712   3.016   0.409   2.893 -0.4584  0.2353 -0.4086
  179SOL     OW  713   1.618   1.326   1.447 -0.6133  0.2913  0.4384
  179SOL    HW1  714   1.595   1.338   1.537 -2.1056  1.3759 -1.7260
  179SOL    HW2  715   1.698   1.385   1.431  1.0098 -0.2287  0.1333
  179SOL     MW  716   1.625   1.335   1.457 -0.5960  0.3658  0.1126
  180SOL     OW  717   2.985   0.190   0.439 -0.0241  0.3418  0.3072
  180SOL    HW1  718   2.950   0.220   0.357  0.8810 -0.7718 -0.2239
  180SOL    HW2  719   3.048   0.266   0.459 -0.2344  3.4159 -0.3168
  180SOL     MW  720   2.989   0.204   0.431  0.0676  0.6005  0.1548
  181SOL     OW  721   1.143   1.423   3.034  0.0214 -0.8801  0.1071
  181SOL    HW1  722   1.210   1.400   3.096  0.3725 -0.8485 -1.4259
  181SOL    HW2  723   1.191   1.436   2.956 -0.1196  0.3018  2.2772
  181SOL     MW  724   1.158   1.422   3.032  0.0491 -0.7200  0.1912
  182SOL     OW  725   0.500   0.865   1.660  0.1560  0.0684  0.9830
  182SOL    HW1  726   0.417   0.817   1.666 -0.4728 -1.1383 -3.7164
  182SOL    HW2  727   0.544   0.819   1.733 -0.2833 -0.3708  0.2363
  182SOL     MW  728   0.495   0.853   1.671  0.0150 -0.1487  0.2645
  183SOL     OW  729   1.504   1.502   1.251 -0.7291  0.5944  0.3512
  183SOL    HW1  730   1.436   1.542   1.309 -0.6000  0.2863 -1.3062
  183SOL    HW2  731   1.553   1.447   1.313  0.0452 -1.2806  2.0644
  183SOL     MW  732   1.501   1.500   1.267 -0.6099  0.3063  0.3586
  184SOL     OW  733   0.876   0.638   1.963  1.0042 -0.0659  0.4122
  184SOL    HW1  734   0.959   0.630   1.914  0.1006  1.8544 -1.2725
  184SOL    HW2  735   0.852   0.551   1.986 -2.1559  1.2185 -1.9969
  184SOL     MW  736   0.884   0.625   1.960  0.4680  0.3569 -0.1279
  185SOL     OW  737   1.195   0.946   1.969 -0.4284  0.2191  0.2381
  185SOL    HW1  738   1.206   0.855   1.986 -1.3383  0.5574 -0.1741
  185SOL    HW2  739   1.274   0.993   2.009  2.1130  0.1192 -2.5159
  185SOL     MW  740   1.207   0.940   1.977 -0.2131  0.2505 -0.1796
  186SOL     OW  741   0.426   1.664   1.418  0.7354 -0.0882  0.3542
  186SOL    HW1  742   0.502   1.642   1.364 -1.0068  0.2512 -1.4231
  186SOL    HW2  743   0.354   1.623   1.372 -2.6318  0.1506  1.5096
  186SOL     MW  744   0.426   1.655   1.405  0.0613 -0.0119  0.2721
  187SOL     OW  745   1.449   0.767   1.448  0.1547  0.2583 -0.1876
  187SOL    HW1  746   1.450   0.755   1.542 -1.2973 -0.9008  0.5111
  187SOL    HW2  747   1.361   0.737   1.421  0.3586  2.1288  1.2568
  187SOL     MW  748   1.438   0.761   1.457 -0.0100  0.3522  0.0952
  188SOL     OW  749   1.896   1.074   0.779 -0.0270  0.5560  0.6125
  188SOL    HW1  750   1.864   1.033   0.860  0.8465  0.6623  4.2777
  188SOL    HW2  751   1.975   1.021   0.768  0.2555  2.4120  0.1265
  188SOL     MW  752   1.902   1.061   0.788  0.1256  0.8149  1.0320
  189SOL     OW  753   0.732   0.800   0.768  0.3278 -0.7972 -0.2105
  189SOL    HW1  754   0.643   0.833   0.752  1.5193  0.3503 -0.6680
  189SOL    HW2  755   0.765   0.867   0.835 -0.5930  0.1104  0.9254
  189SOL     MW  756   0.725   0.813   0.775  0.3635 -0.5261 -0.1210
  190SOL     OW  757   1.878   0.205   2.034 -0.3128 -0.3807  0.1492
  190SOL    HW1  758   1.813   0.132   2.048  1.1036 -0.3780  0.4400
  190SOL    HW2  759   1.941   0.165   1.972 -0.3473 -0.4722 -1.2688
  190SOL     MW  760   1.878   0.190   2.028 -0.1305 -0.3924  0.0005
  191SOL     OW  761   1.489   0.951   1.263 -0.8525 -0.1104 -0.5884
  191SOL    HW1  762   1.468   1.025   1.319  0.2924 -1.9331  1.8556
  191SOL    HW2  763   1.460   0.877   1.321 -1.6369 -0.6225 -2.4361
  191SOL     MW  764   1.482   0.951   1.278 -0.8049 -0.4185 -0.5097
  192SOL     OW  765   0.642   2.028   2.825 -0.7535  0.4478 -0.2572
  192SOL    HW1  766   0.604   2.076   2.750  1.6350 -0.0336  3.0484
  192SOL    HW2  767   0.622   1.934   2.814 -0.9471  3.0326 -0.8870
  192SOL     MW  768   0.634   2.022   2.814 -0.4639  0.7254  0.0958
  193SOL     OW  769   1.005   1.613   0.725  0.5695 -0.9050 -0.0810
  193SOL    HW1  770   0.968   1.656   0.808  1.1558 -0.3145 -0.9052
  193SOL    HW2  771   0.952   1.534   0.706  1.0743  1.0251 -0.7133
  193SOL     MW  772   0.993   1.608   0.734  0.7135 -0.5724 -0.2732
  194SOL     OW  773   0.516   1.326   0.925 -0.4820  0.3314 -0.6056
  194SOL    HW1  774   0.517   1.225   0.917  0.8251  3.4248  0.4005
  194SOL    HW2  775   0.428   1.351   0.899  1.8444 -0.2832 -0.7441
  194SOL     MW  776   0.505   1.316   0.920 -0.0026  0.6584 -0.4911
  195SOL     OW  777   1.286   1.088   2.962 -0.1799  0.2035  0.1762
  195SOL    HW1  778   1.339   1.112   3.042 -0.3805 -4.0808  0.1000
  195SOL    HW2  779   1.198   1.060   2.994 -1.9955 -0.8280  0.8721
  195SOL     MW  780   1.281   1.088   2.977 -0.4459 -0.4979  0.2579
  196SOL     OW  781   2.187   1.048   0.624 -0.3371 -1.1037 -0.0536
  196SOL    HW1  782   2.132   1.008   0.556  1.0230  0.0967 -0.2301
  196SOL    HW2  783   2.186   1.144   0.610 -2.2204 -0.1134  3.9317
  196SOL     MW  784   2.180   1.055   0.613 -0.4062 -0.8147  0.4489
  197SOL     OW  785   0.661   1.284   2.011  1.0929 -0.2823  0.0470
  197SOL    HW1  786   0.632   1.198   2.032  2.2481  2.8306  0.7149
  197SOL    HW2  787   0.618   1.298   1.928 -0.7959  2.6173  0.9724
  197SOL     MW  788   0.652   1.274   2.003  0.9961  0.5110  0.2572
  198SOL     OW  789   2.945   1.472   1.046  0.2248 -0.2894  0.1206
  198SOL    HW1  790   2.929   1.571   1.046  0.4989  0.9248 -1.8040
  198SOL    HW2  791   2.855   1.436   1.033 -2.2513 -0.3322  0.0876
  198SOL     MW  792   2.931   1.481   1.044 -0.0657 -0.1348 -0.1377
  199SOL     OW  793   0.501   1.316   1.800  0.0025  0.5965 -0.3353
  199SOL    HW1  794   0.406   1.300   1.810 -0.0040  0.8993 -0.3706
  199SOL    HW2  795   0.519   1.385   1.732  0.3562 -0.9388 -0.1354
  199SOL     MW  796   0.491   1.323   1.792  0.0484  0.4339 -0.3136
  200SOL     OW  797   1.912   3.080   1.362 -0.3054 -0.4176 -0.1306
  200SOL    HW1  798   1.882   3.069   1.273  0.0076 -1.0664  0.0793
  200SOL    HW2  799   1.845   3.125   1.411  3.4131 -1.0184  3.3692
  200SOL     MW  800   1.899   3.085   1.356  0.2265 -0.5825  0.3589
  201SOL     OW  801   1.045   0.256   0.804 -0.4813 -0.3359  0.1796
  201SOL    HW1  802   1.019   0.164   0.798 -3.6761 -1.9178  1.2179
  201SOL    HW2  803   1.084   0.269   0.716 -4.3200 -0.2713  1.1033
  201SOL     MW  804   1.046   0.245   0.792 -1.4093 -0.5361  0.4385
  202SOL     OW  805   1.548   1.669   1.007  0.0446 -0.1370 -0.8539
  202SOL    HW1  806   1.601   1.602   0.958 -2.0520 -0.6142  0.0126
  202SOL    HW2  807   1.531   1.628   1.091  0.2630 -1.9396 -1.5610
  202SOL     MW  808   1.552   1.655   1.012 -0.2032 -0.4378 -0.8328
  203SOL     OW  809  -0.004   0.464   1.153  0.1713 -0.5598 -0.0377
  203SOL    HW1  810   0.013   0.369   1.141  1.3279  0.7298 -0.6167
  203SOL    HW2  811   0.061   0.493   1.220 -0.9200 -0.5264  0.3185
  203SOL     MW  812   0.007   0.456   1.160  0.1799 -0.3852 -0.0671
  204SOL     OW  813   1.047   1.789   0.533  0.0324  0.5527  0.1622
  204SOL    HW1  814   1.017   1.724   0.602  0.1984 -1.2584 -2.1321
  204SOL    HW2  815   0.967   1.798   0.477  0.4686 -0.7981 -1.9251
  204SOL     MW  816   1.033   1.781   0.535  0.1118  0.1355 -0.4159
  205SOL     OW  817   1.358   0.099   1.337  0.0103 -0.0716 -0.1188
  205SOL    HW1  818   1.326   0.084   1.249 -2.0566 -0.1800 -0.4355
  205SOL    HW2  819   1.368   0.194   1.335  1.4855  0.8847 -4.4611
  205SOL     MW  820   1.355   0.109   1.325 -0.0678  0.0403 -0.7335
  206SOL     OW  821   0.416   3.081   1.432  0.3629 -0.4838  0.0712
  206SOL    HW1  822   0.328   3.063   1.395 -2.8640  2.4227  0.7176
  206SOL    HW2  823   0.489   3.024   1.405 -2.5176  0.1294  1.3474
  206SOL     MW  824   0.414   3.071   1.424 -0.4429 -0.0194  0.3248
  207SOL     OW  825   0.969   1.527   0.197 -0.0409  0.5273  0.0833
  207SOL    HW1  826   0.958   1.619   0.183  0.7676  0.4765 -0.3952
  207SOL    HW2  827   1.051   1.517   0.238 -2.8963  1.6934 -1.2119
  207SOL     MW  828   0.979   1.537   0.201 -0.3110  0.6744 -0.1507
  208SOL     OW  829   0.690   1.583   1.307 -0.5678  0.0443  0.3910
  208SOL    HW1  830   0.748   1.622   1.379  1.5786  1.4926  0.4869
  208SOL    HW2  831   0.711   1.488   1.299  1.6665  0.9389 -1.3227
  208SOL     MW  832   0.701   1.576   1.316  0.0102  0.3535  0.1775
  209SOL     OW  833   1.574   0.547   2.844  0.5115 -0.3096 -0.0423
  209SOL    HW1  834   1.628   0.595   2.907 -1.6339  0.9847  2.2622
  209SOL    HW2  835   1.632   0.470   2.814  0.6524  2.9887  1.0667
  209SOL     MW  836   1.589   0.543   2.849  0.2470  0.2963  0.4081
  210SOL     OW  837   1.624   1.442   0.868 -0.1358 -0.0871  0.1817
  210SOL    HW1  838   1.712   1.414   0.849  0.7394 -1.7911 -2.6724
  210SOL    HW2  839   1.566   1.429   0.788  0.4996  0.0321 -0.7935
  210SOL     MW  840   1.628   1.437   0.855  0.0635 -0.2962 -0.3235
  211SOL     OW  841   1.684   0.372   0.954 -0.3873 -0.0569  0.1479
  211SOL    HW1  842   1.659   0.347   0.868  0.9686 -1.0120 -0.0400
  211SOL    HW2  843   1.781   0.400   0.951  0.5462  1.4476 -0.5131
  211SOL     MW  844   1.694   0.372   0.942 -0.0853  0.0156  0.0359
  212SOL     OW  845   0.256   1.121   0.082  0.4173 -0.0797  0.0610
  212SOL    HW1  846   0.203   1.086   0.154  1.4023  0.1767 -0.0262
  212SOL    HW2  847   0.305   1.045   0.053 -1.2110 -0.5428 -0.3543
  212SOL     MW  848   0.256   1.106   0.088  0.3324 -0.1070 -0.0053
  213SOL     OW  849   0.387   1.767   3.037 -0.3687 -0.1824  0.0009
  213SOL    HW1  850   0.420   1.833   3.095  0.4184 -0.1912 -0.0362
  213SOL    HW2  851   0.431   1.781   2.953 -0.0832  1.1960 -0.0150
  213SOL     MW  852   0.397   1.778   3.033 -0.2272 -0.0017 -0.0061
  214SOL     OW  853   0.628   0.293   2.227 -0.0960  0.1845 -0.2578
  214SOL    HW1  854   0.548   0.345   2.210 -2.2201 -0.1394 -0.6874
  214SOL    HW2  855   0.696   0.345   2.180  3.4481  1.3201 -1.9666
  214SOL     MW  856   0.626   0.306   2.219  0.0914  0.2916 -0.5399
  215SOL     OW  857   0.464   0.685   2.634  0.3460 -0.4317 -0.0726
  215SOL    HW1  858   0.456   0.655   2.542 -3.1135 -2.1640 -0.1701
  215SOL    HW2  859   0.392   0.630   2.678 -0.0840  0.6793  2.3035
  215SOL     MW  860   0.453   0.674   2.628 -0.1672 -0.5137  0.2280
  216SOL     OW  861   3.040   3.036   2.650  0.0478  0.3659  0.2623
  216SOL    HW1  862   2.979   3.036   2.731 -1.2038  3.0912 -1.6427
  216SOL    HW2  863   3.032   3.126   2.612  1.2315  1.9553  0.7283
  216SOL     MW  864   3.031   3.048   2.656  0.0388  0.9352  0.0724
  217SOL     OW  865   0.951   1.251   0.020 -0.6119 -0.5321 -0.0959
  217SOL    HW1  866   0.988   1.169  -0.018 -2.9624  1.6056 -0.1262
  217SOL    HW2  867   1.022   1.313   0.031  1.1362  0.3867 -0.0021
  217SOL     MW  868   0.965   1.248   0.016 -0.6914 -0.1288 -0.0875
  218SOL     OW  869   0.902   1.309   2.516  0.1098 -0.5759  0.0270
  218SOL    HW1  870   0.908   1.237   2.573 -1.3166 -1.1528 -3.0217
  218SOL    HW2  871   0.977   1.359   2.534 -2.0475 -0.2984 -1.2415
  218SOL     MW  872   0.912   1.306   2.526 -0.3631 -0.6154 -0.5426
  219SOL     OW  873   1.081   0.455   2.534  0.4419  0.2050  0.2825
  219SOL    HW1  874   1.161   0.501   2.553 -0.6584 -1.1751  2.3917
  219SOL    HW2  875   1.018   0.527   2.536  2.3607 -1.9580  2.4675
  219SOL     MW  876   1.083   0.470   2.537  0.5499 -0.2625  0.8491
  220SOL     OW  877   1.773   0.415   2.178 -0.1779 -0.1095  0.1765
  220SOL    HW1  878   1.714   0.474   2.133  2.3890 -1.8697 -0.1804
  220SOL    HW2  879   1.824   0.377   2.107 -0.6333  1.0515 -1.6901
  220SOL     MW  880   1.772   0.418   2.163  0.1007 -0.1886 -0.1168
  221SOL     OW  881   0.360   1.318   2.870  0.2554 -0.1149 -0.1698
  221SOL    HW1  882   0.365   1.227   2.836  4.1819  0.0233  0.6492
  221SOL    HW2  883   0.362   1.367   2.784 -0.1864 -0.8705 -1.8052
  221SOL     MW  884   0.361   1.313   2.854  0.7152 -0.1963 -0.2775
  222SOL     OW  885   0.295   0.890   2.657  0.5680  0.0324  0.2736
  222SOL    HW1  886   0.252   0.931   2.581 -0.1421  0.2289 -2.4233
  222SOL    HW2  887   0.347   0.817   2.629  1.4330  2.1717  1.3695
  222SOL     MW  888   0.297   0.886   2.643  0.5884  0.3406  0.0624
  223SOL     OW  889   0.041   2.066   2.610  0.0959  0.3147 -0.2274
  223SOL    HW1  890   0.079   1.990   2.649 -1.8255 -3.5320  0.8448
  223SOL    HW2  891   0.092   2.098   2.536 -0.4331  0.4318  1.9149
  223SOL     MW  892   0.052   2.060   2.605 -0.2274 -0.1774  0.1967
  224SOL     OW  893   1.495   0.808   2.607  0.3687 -0.0390  0.0554
  224SOL    HW1  894   1.475   0.832   2.693 -0.0565 -0.3564  1.4842
  224SOL    HW2  895   1.501   0.886   2.554 -0.8070  1.8762  0.3264
  224SOL     MW  896   1.493   0.821   2.611  0.1575  0.1718  0.2796
  225SOL     OW  897   2.978   1.522   2.289  0.4156  0.0496 -0.0116
  225SOL    HW1  898   3.011   1.596   2.235 -1.4014  1.5627  0.3996
  225SOL    HW2  899   2.931   1.568   2.359  0.9161 -0.8487  1.3287
  225SOL     MW  900   2.976   1.538   2.291  0.2419  0.1307  0.2195
  226SOL     OW  901   0.409   1.416   2.618 -0.3125 -0.1546  0.0093
  226SOL    HW1  902   0.502   1.430   2.629 -0.1518  2.5529  1.6868
  226SOL    HW2  903   0.380   1.505   2.592  0.7546 -0.5016  0.6139
  226SOL     MW  904   0.417   1.429   2.616 -0.1505  0.1568  0.3104
  227SOL     OW  905   0.426   1.067   2.809 -0.8289 -0.2202 -0.0441
  227SOL    HW1  906   0.516   1.072   2.784 -3.1482  0.9052  2.7024
  227SOL    HW2  907   0.396   0.999   2.756  0.3644  2.3665  2.1953
  227SOL     MW  908   0.434   1.059   2.799 -0.9775  0.2696  0.6137
  228SOL     OW  909   0.653   0.996   2.004  0.3567  0.2912  0.0210
  228SOL    HW1  910   0.739   1.027   1.962  3.0403 -0.7437  0.4730
  228SOL    HW2  911   0.668   0.949   2.087 -0.0600 -1.3026  1.5416
  228SOL     MW  912   0.666   0.994   2.009  0.6558 -0.0556  0.2813
  229SOL     OW  913   0.159   0.549   3.085 -0.5236 -0.5548  0.2027
  229SOL    HW1  914   0.091   0.523   3.027 -0.3179 -0.3138  3.2480
  229SOL    HW2  915   0.141   0.503   3.165 -1.8067  1.9595 -2.9262
  229SOL     MW  916   0.148   0.540   3.088 -0.6657 -0.1912  0.1917
  230SOL     OW  917   1.752   1.393   2.032 -0.2014 -0.0494  0.0745
  230SOL    HW1  918   1.717   1.396   2.124  0.9365 -0.1674  0.7246
  230SOL    HW2  919   1.832   1.339   2.045 -0.8118 -1.3225 -0.8662
  230SOL     MW  920   1.758   1.386   2.045 -0.1318 -0.2329  0.0362
  231SOL     OW  921   2.765   1.343   2.251 -0.4769 -0.3809  0.7993
  231SOL    HW1  922   2.836   1.409   2.258 -1.0233  1.3498 -1.7647
  231SOL    HW2  923   2.708   1.375   2.174  0.7664  2.0072 -0.8144
  231SOL     MW  924   2.767   1.355   2.242 -0.3849  0.1626  0.2481
  232SOL     OW  925   2.240   0.872   2.140 -0.1527 -0.2520  0.4676
  232SOL    HW1  926   2.195   0.887   2.051  0.5803  0.3714  0.3813
  232SOL    HW2  927   2.165   0.886   2.196 -1.3211 -1.6064  1.6603
  232SOL     MW  928   2.224   0.876   2.135 -0.2101 -0.3485  0.6136
  233SOL     OW  929   2.041   0.532   1.967 -0.3975  0.2859  0.0514
  233SOL    HW1  930   2.020   0.487   1.881  2.3673 -0.7189 -0.5810
  233SOL    HW2  931   2.114   0.495   2.021 -0.4923  0.8985  1.4566
  233SOL     MW  932   2.048   0.521   1.963 -0.0452  0.2341  0.1534
  234SOL     OW  933   0.287   1.000   2.369 -0.3672  0.0401 -0.1707
  234SOL    HW1  934   0.226   1.061   2.332 -0.0914 -0.5290 -1.8420
  234SOL    HW2  935   0.354   1.053   2.415  1.2842  0.0513  0.1672
  234SOL     MW  936   0.288   1.015   2.370 -0.1129 -0.0335 -0.3466
  235SOL     OW  937   1.090   3.089   2.741 -0.0223 -0.0000 -0.4946
  235SOL    HW1  938   1.132   3.024   2.798  0.4041  2.0122  1.3306
  235SOL    HW2  939   1.057   3.152   2.803  1.4332  1.2067  1.2003
  235SOL     MW  940   1.091   3.089   2.757  0.2260  0.4247 -0.0302
  236SOL     OW  941   2.955   0.536   0.032  0.0106 -0.2080  0.1055
  236SOL    HW1  942   2.860   0.535   0.018  0.1057 -1.0365 -1.9331
  236SOL    HW2  943   2.972   0.630   0.029  0.5139 -0.7575  1.7430
  236SOL     MW  944   2.945   0.548   0.029  0.0896 -0.3898  0.0526
  237SOL     OW  945   1.838   0.971   2.158  0.8700  0.1929  0.1396
  237SOL    HW1  946   1.859   1.057   2.112 -0.6435  1.7045 -1.4675
  237SOL    HW2  947   1.863   0.997   2.248 -0.5946 -1.2663 -0.1491
  237SOL     MW  948   1.844   0.986   2.163  0.4771  0.1998 -0.1105
  238SOL     OW  949   1.071   1.771   3.012  0.2757  0.6011  0.5916
  238SOL    HW1  950   1.008   1.693   2.994  1.4959 -0.1221  0.3167
  238SOL    HW2  951   1.162   1.744   2.994  0.3361  1.1618  1.4441
  238SOL     MW  952   1.075   1.758   3.007  0.4446  0.5796  0.6678
  239SOL     OW  953   1.244   1.422   2.345  0.8129 -0.3880 -0.0005
  239SOL    HW1  954   1.196   1.472   2.417 -1.0394  2.4549 -2.0085
  239SOL    HW2  955   1.246   1.330   2.375  0.1244 -2.5266 -1.7558
  239SOL     MW  956   1.238   1.417   2.359  0.4776 -0.2951 -0.4970
  240SOL     OW  957   0.692   0.840   2.226 -0.1874 -1.0337  0.1884
  240SOL    HW1  958   0.677   0.901   2.302  1.3864  0.7329  0.2600
  240SOL    HW2  959   0.788   0.824   2.235  2.4093 -1.2416  0.8042
  240SOL     MW  960   0.703   0.846   2.237  0.3629 -0.8281  0.2791
  241SOL     OW  961   0.645   0.362   3.084  0.3602  0.3798  0.3470
  241SOL    HW1  962   0.666   0.443   3.135  0.1844  0.8560  2.2838
  241SOL    HW2  963   0.573   0.392   3.029  2.2228  1.3414 -0.4778
  241SOL     MW  964   0.638   0.377   3.083  0.5828  0.5695  0.4937
  242SOL     OW  965   1.498   1.709   2.261 -0.9936 -0.6083  0.2032
  242SOL    HW1  966   1.444   1.772   2.304  1.6000 -1.9679 -1.0018
  242SOL    HW2  967   1.448   1.660   2.193 -0.3783 -3.1947  0.9531
  242SOL     MW  968   1.484   1.711   2.258 -0.5702 -1.1290  0.1431
  243SOL     OW  969   1.004   0.233   2.406  0.6987  0.0749  0.4321
  243SOL    HW1  970   1.086   0.196   2.375 -2.7269  1.3304  1.1066
  243SOL    HW2  971   1.031   0.299   2.468  1.4632 -1.4301  1.5571
  243SOL     MW  972   1.019   0.237   2.410  0.3476  0.0420  0.6695
  244SOL     OW  973   0.237   0.734   2.385  0.2680  0.3513  0.6980
  244SOL    HW1  974   0.250   0.833   2.382  0.5548  0.6939 -0.8399
  244SOL    HW2  975   0.325   0.713   2.343  1.6063  0.1804 -2.6652
  244SOL     MW  976   0.250   0.744   2.379  0.4824  0.3739  0.0513
  245SOL     OW  977   1.260   0.232   2.328  0.2411  0.0827  0.1041
  245SOL    HW1  978   1.316   0.152   2.316 -0.4864 -1.7418  0.4948
  245SOL    HW2  979   1.326   0.288   2.376  0.8529  0.5280 -0.0965
  245SOL     MW  980   1.276   0.229   2.332  0.2259 -0.0992  0.1292
  246SOL     OW  981   1.211   1.214   2.125 -0.7176  0.3621 -0.1168
  246SOL    HW1  982   1.149   1.165   2.181 -0.4811  0.8598  0.1046
  246SOL    HW2  983   1.275   1.249   2.176 -0.3694  1.7310 -2.2452
  246SOL     MW  984   1.211   1.212   2.139 -0.6404  0.6084 -0.3684
  247SOL     OW  985   0.747   0.562   0.131  0.5040  0.5370  0.6118
  247SOL    HW1  986   0.696   0.636   0.100 -0.2508 -2.0927 -0.6809
  247SOL    HW2  987   0.839   0.575   0.109  1.2096 -0.5818  2.8824
  247SOL     MW  988   0.753   0.573   0.124  0.4975  0.0425  0.7408
  248SOL     OW  989   0.470   1.181   2.472 -0.2274 -0.4681  0.3440
  248SOL    HW1  990   0.499   1.232   2.393 -1.3394  2.5862 -1.8091
  248SOL    HW2  991   0.427   1.248   2.531 -2.1215 -0.6117  1.1688
  248SOL     MW  992   0.468   1.196   2.470 -0.6241 -0.0841  0.1688
  249SOL     OW  993   0.187   1.862   2.690 -0.4451  0.2524  0.2096
  249SOL    HW1  994   0.130   1.783   2.667  2.0315  1.3409  2.2648
  249SOL    HW2  995   0.189   1.862   2.785  2.3349  0.3880  1.0784
  249SOL     MW  996   0.180   1.851   2.699  0.2484  0.4139  0.5954
  250SOL     OW  997   2.132   0.850   2.419  0.1338  0.3818  0.4720
  250SOL    HW1  998   2.149   0.765   2.444 -2.5360  1.9099 -0.3408
  250SOL    HW2  999   2.199   0.906   2.459 -0.8254  2.3305 -0.2370
  250SOL     MW 1000   2.143   0.847   2.428 -0.3450  0.8405  0.2712
  251SOL     OW 1001   0.201   0.834   2.070 -0.3772  0.0529 -0.2220
  251SOL    HW1 1002   0.161   0.781   2.140  1.4115  1.0614 -0.9068
  251SOL    HW2 1003   0.212   0.791   1.989 -0.5789  3.5351  0.3797
  251SOL     MW 1004   0.197   0.822   2.069 -0.1678  0.6454 -0.2330
  252SOL     OW 1005   1.676   1.017   2.879 -0.1102  0.0415  0.3551
  252SOL    HW1 1006   1.686   1.074   2.956 -1.9857  1.7070  0.6213
  252SOL    HW2 1007   1.742   1.055   2.817 -1.4156 -0.0465  0.2123
  252SOL     MW 1008   1.686   1.030   2.881 -0.5298  0.2496  0.3714
  253SOL     OW 1009   1.136   1.742   2.556  0.4359  0.1437  0.0357
  253SOL    HW1 1010   1.127   1.767   2.466 -1.8564 -1.7018  2.4484
  253SOL    HW2 1011   1.060   1.792   2.603 -1.4110 -1.3280  2.5641
  253SOL     MW 1012   1.125   1.752   2.551 -0.1102 -0.2939  0.6876
  254SOL     OW 1013   1.006   1.082   2.237 -0.5091  0.0190  0.4615
  254SOL    HW1 1014   0.984   0.987   2.234 -1.9738 -0.5452 -0.2157
  254SOL    HW2 1015   0.922   1.131   2.267 -0.9603  0.6231 -0.1461
  254SOL     MW 1016   0.992   1.076   2.241 -0.7619  0.0243  0.2920
  255SOL     OW 1017   0.835   2.496   2.169 -0.1083  0.4699  0.8950
  255SOL    HW1 1018   0.769   2.438   2.202 -1.4452  3.1713  0.4686
  255SOL    HW2 1019   0.909   2.502   2.232  1.5622  2.0716  0.6149
  255SOL     MW 1020   0.836   2.490   2.181 -0.0643  1.0376  0.8018
  256SOL     OW 1021   1.193   2.845   2.849  0.5798  0.1458  0.0269
  256SOL    HW1 1022   1.169   2.785   2.773  2.5027 -0.9566 -1.0544
  256SOL    HW2 1023   1.291   2.829   2.848  1.1352 -1.3733  0.3902
  256SOL     MW 1024   1.203   2.835   2.839  0.9068 -0.2001 -0.0678
  257SOL     OW 1025   0.154   1.941   0.097 -0.0507 -0.3438 -0.2193
  257SOL    HW1 1026   0.193   1.890   0.171 -1.2602 -1.0721  2.2898
  257SOL    HW2 1027   0.145   1.884   0.021 -0.9160  4.0055 -1.4609
  257SOL     MW 1028   0.158   1.927   0.097 -0.3244  0.1340 -0.0521
  258SOL     OW 1029   0.715   1.033   2.496  0.2963 -0.3100 -0.3179
  258SOL    HW1 1030   0.754   1.090   2.434  1.0827  0.9254 -1.8184
  258SOL    HW2 1031   0.630   1.069   2.513 -2.2521  0.8750  1.5937
  258SOL     MW 1032   0.709   1.045   2.490  0.0638  0.0094 -0.2637
  259SOL     OW 1033   0.756   0.512   2.333 -0.0286 -0.2799 -0.3438
  259SOL    HW1 1034   0.682   0.575   2.346  0.3943  1.6253 -0.5157
  259SOL    HW2 1035   0.733   0.423   2.355  3.6205 -0.7552  1.0196
  259SOL     MW 1036   0.743   0.509   2.337  0.5087 -0.0912 -0.1866
  260SOL     OW 1037   0.589   0.150   1.588 -0.1314  0.3133 -0.2459
  260SOL    HW1 1038   0.523   0.094   1.550  1.4316  0.1933 -2.6253
  260SOL    HW2 1039   0.673   0.109   1.581 -1.2155  0.5029  1.9533
  260SOL     MW 1040   0.591   0.137   1.582 -0.0682  0.3225 -0.2697
  261SOL     OW 1041   1.210   0.667   2.026  0.4284  0.0622 -0.3517
  261SOL    HW1 1042   1.250   0.659   2.116 -0.3266  0.5728 -0.2729
  261SOL    HW2 1043   1.253   0.601   1.973 -2.5201 -0.2354 -2.2554
  261SOL     MW 1044   1.221   0.658   2.031 -0.0602  0.0903 -0.5924
  262SOL     OW 1045   1.164   0.315   0.124 -0.2665 -0.0521  0.4218
  262SOL    HW1 1046   1.253   0.331   0.093 -0.8778 -2.3586  0.8027
  262SOL    HW2 1047   1.125   0.243   0.064 -1.3030 -2.1598 -1.0083
  262SOL     MW 1048   1.171   0.307   0.112 -0.4839 -0.6345  0.2833
  263SOL     OW 1049   0.421   3.053   2.519 -0.4785  0.1104  0.0055
  263SOL    HW1 1050   0.359   3.126   2.523  0.1977  0.3095 -0.4864
  263SOL    HW2 1051   0.456   3.044   2.430 -0.9960  0.6252  0.7120
  263SOL     MW 1052   0.418   3.061   2.508 -0.4575  0.2046  0.0338
  264SOL     OW 1053   1.522   1.294   1.918  0.0507 -0.5528 -0.2179
  264SOL    HW1 1054   1.463   1.278   1.993 -0.9117  3.6214 -0.5024
  264SOL    HW2 1055   1.611   1.321   1.953 -1.5784 -0.1875 -0.5894
  264SOL     MW 1056   1.526   1.295   1.932 -0.2912  0.0461 -0.3045
  265SOL     OW 1057   0.652   2.731   2.254  0.9760  0.8237 -0.0565
  265SOL    HW1 1058   0.704   2.666   2.202 -1.8194 -1.7424  2.5139
  265SOL    HW2 1059   0.699   2.737   2.335 -1.9722 -1.4334 -0.3125
  265SOL     MW 1060   0.665   2.723   2.258  0.2182  0.1874  0.2489
  266SOL     OW 1061   0.978   0.802   2.160  0.6490 -0.3173 -0.1224
  266SOL    HW1 1062   0.945   0.743   2.092 -2.8875  0.3572 -1.8606
  266SOL    HW2 1063   1.066   0.772   2.190  4.4852 -1.5453 -1.8864
  266SOL     MW 1064   0.985   0.790   2.155  0.6885 -0.3903 -0.5845
  267SOL     OW 1065   1.377   1.663   2.705  0.1770 -0.3374  0.2618
  267SOL    HW1 1066   1.448   1.653   2.644 -1.5234 -1.5040  1.3164
  267SOL    HW2 1067   1.301   1.701   2.663 -0.0261  1.0737 -3.3110
  267SOL     MW 1068   1.376   1.667   2.691 -0.0742 -0.3052 -0.0704
  268SOL     OW 1069   0.250   0.773   1.785  0.5872 -0.0230  0.4615
  268SOL    HW1 1070   0.188   0.828   1.732 -1.0600  1.1693 -2.3328
  268SOL    HW2 1071   0.231   0.681   1.768  0.3224 -2.2891  3.5893
  268SOL     MW 1072   0.240   0.768   1.776  0.3349 -0.1647  0.5055
  269SOL     OW 1073   1.392   1.927   2.388  0.3211  0.0182 -0.7192
  269SOL    HW1 1074   1.424   2.006   2.338 -2.3954 -0.4003 -0.3845
  269SOL    HW2 1075   1.325   1.964   2.445 -1.2164  1.4537  2.3987
  269SOL     MW 1076   1.388   1.943   2.389 -0.2402  0.1524 -0.2637
  270SOL     OW 1077   1.196   0.372   1.605  0.4085  0.4373 -0.1881
  270SOL    HW1 1078   1.159   0.288   1.634  1.2199 -0.4682 -0.9638
  270SOL    HW2 1079   1.297   0.364   1.599  0.6015  0.2271  1.2027
  270SOL     MW 1080   1.205   0.360   1.608  0.5410  0.2901 -0.1070
  271SOL     OW 1081   0.878   3.087   2.410  0.3719  0.3505  0.1532
  271SOL    HW1 1082   0.935   3.027   2.459  1.8669 -0.0579  2.9390
  271SOL    HW2 1083   0.898   3.182   2.420 -1.0292  0.9240 -0.6353
  271SOL     MW 1084   0.888   3.091   2.417  0.3843  0.3723  0.4167
  272SOL     OW 1085   1.459   2.846   2.775  0.0759 -0.0448  0.0053
  272SOL    HW1 1086   1.420   2.941   2.767 -0.7797  2.1050 -3.1314
  272SOL    HW2 1087   1.499   2.851   2.862 -0.6783  1.9414  2.1290
  272SOL     MW 1088   1.459   2.859   2.786 -0.1365  0.5009 -0.1284
  273SOL     OW 1089   1.430   0.860   2.870  0.0318  0.1705 -0.0501
  273SOL    HW1 1090   1.525   0.893   2.871  0.8463  0.9131  0.8506
  273SOL    HW2 1091   1.374   0.933   2.890  0.4026 -0.9248  2.3923
  273SOL     MW 1092   1.435   0.874   2.873  0.1882  0.1240  0.3910
  274SOL     OW 1093   1.390   0.735   0.199 -0.2053 -0.1005 -0.7534
  274SOL    HW1 1094   1.450   0.659   0.211 -0.3760  0.3033  1.1679
  274SOL    HW2 1095   1.314   0.711   0.257 -0.8912  0.6250  1.5605
  274SOL     MW 1096   1.388   0.722   0.208 -0.3183  0.0485 -0.1946
  275SOL     OW 1097   1.683   0.675   1.793 -0.1612 -0.2692  0.3693
  275SOL    HW1 1098   1.741   0.727   1.850  0.5311 -1.8165 -1.9851
  275SOL    HW2 1099   1.703   0.585   1.816  0.4473 -1.7723  0.2602
  275SOL     MW 1100   1.693   0.670   1.804  0.0104 -0.6717  0.0443
  276SOL     OW 1101   0.250   1.258   1.814  0.4351 -0.0176  0.3978
  276SOL    HW1 1102   0.286   1.191   1.876  0.9572  0.6630 -1.2789
  276SOL    HW2 1103   0.196   1.314   1.864  2.4941 -1.0497 -0.6686
  276SOL     MW 1104   0.248   1.257   1.829  0.7757 -0.0640  0.0359
  277SOL     OW 1105   1.898   1.317   2.563 -0.1297 -1.0998  0.1294
  277SOL    HW1 1106   1.980   1.375   2.567 -1.7860  0.2551 -0.3305
  277SOL    HW2 1107   1.920   1.238   2.610 -0.0573 -0.5199 -1.4691
  277SOL     MW 1108   1.912   1.314   2.570 -0.3387 -0.8445 -0.1422
  278SOL     OW 1109   1.427   0.683   1.733 -0.5899 -0.0044 -0.9563
  278SOL    HW1 1110   1.423   0.624   1.809  1.9168 -1.1044  2.2334
  278SOL    HW2 1111   1.518   0.716   1.747  0.1909 -0.8046  0.5575
  278SOL     MW 1112   1.439   0.680   1.745 -0.1561 -0.2551 -0.3357
  279SOL     OW 1113   0.531   0.033   2.242 -0.0214  0.4883  0.1570
  279SOL    HW1 1114   0.607  -0.021   2.222 -1.6633 -2.3631 -0.4867
  279SOL    HW2 1115   0.564   0.124   2.239  2.2713  0.7945  4.7655
  279SOL     MW 1116   0.546   0.038   2.239  0.0644  0.1525  0.6801
  280SOL     OW 1117   1.506   1.117   2.205  0.0254 -0.2625 -0.3415
  280SOL    HW1 1118   1.551   1.044   2.165  2.2045  0.3290 -0.0536
  280SOL    HW2 1119   1.498   1.091   2.296 -0.3768  2.4069 -1.7324
  280SOL     MW 1120   1.511   1.104   2.212  0.2598  0.1677 -0.4870
  281SOL     OW 1121   1.304   1.279   2.762  0.1117 -0.1966 -0.4727
  281SOL    HW1 1122   1.380   1.339   2.777  1.1462  0.2849 -1.9628
  281SOL    HW2 1123   1.291   1.214   2.835 -1.0867 -2.2143 -2.0327
  281SOL     MW 1124   1.312   1.278   2.774  0.0900 -0.3993 -0.8751
  282SOL     OW 1125   1.129   1.289   1.698  0.3661 -0.3020 -0.6301
  282SOL    HW1 1126   1.088   1.310   1.609 -1.2460 -3.3348  2.4031
  282SOL    HW2 1127   1.069   1.278   1.770  1.9958  0.0172 -0.2328
  282SOL     MW 1128   1.116   1.290   1.696  0.3684 -0.6600 -0.1775
  283SOL     OW 1129   0.677   1.284   3.081 -0.2983  0.6382 -0.4319
  283SOL    HW1 1130   0.771   1.267   3.090 -0.0157  0.3802  0.9180
  283SOL    HW2 1131   0.659   1.377   3.104 -0.1460 -0.4878  1.3095
  283SOL     MW 1132   0.687   1.294   3.085 -0.2410  0.4556 -0.0241
  284SOL     OW 1133   0.525   0.654   2.342 -0.0968  0.5431  0.0005
  284SOL    HW1 1134   0.583   0.702   2.283  1.0295 -1.1651 -0.4949
  284SOL    HW2 1135   0.500   0.585   2.286  0.0007  1.2472 -0.7747
  284SOL     MW 1136   0.529   0.652   2.327  0.0647  0.4106 -0.1672
  285SOL     OW 1137   0.847   0.956   2.881 -0.3280  0.1638 -0.5678
  285SOL    HW1 1138   0.886   1.001   2.800  3.7463 -2.1521 -0.0973
  285SOL    HW2 1139   0.810   0.876   2.831 -0.7807 -1.9285 -0.9489
  285SOL     MW 1140   0.847   0.952   2.863  0.1498 -0.4178 -0.5560
  286SOL     OW 1141   1.105   1.462   2.602 -0.3385  0.3585 -0.0100
  286SOL    HW1 1142   1.184   1.435   2.652 -2.0712  1.9062  1.0603
  286SOL    HW2 1143   1.094   1.557   2.606 -1.7699 -0.0347 -0.8759
  286SOL     MW 1144   1.114   1.471   2.609 -0.7560  0.5108  0.0170
  287SOL     OW 1145   0.994   0.919   0.305  0.1634  0.2725 -0.0818
  287SOL    HW1 1146   1.055   0.961   0.366  3.8597 -1.3401 -0.1665
  287SOL    HW2 1147   0.944   0.995   0.264  0.7471  1.2417 -0.1515
  287SOL     MW 1148   0.995   0.935   0.308  0.7281  0.1876 -0.1022
  288SOL     OW 1149   1.592   0.595   2.110  0.2078 -0.2247  0.4713
  288SOL    HW1 1150   1.565   0.606   2.204 -1.0209 -3.0739 -0.4598
  288SOL    HW2 1151   1.608   0.686   2.079  0.1751  0.2094 -2.2101
  288SOL     MW 1152   1.591   0.609   2.118  0.0414 -0.5434 -0.0053
  289SOL     OW 1153   0.942   1.050   2.634  0.4998 -0.1050  0.1905
  289SOL    HW1 1154   1.000   0.979   2.613 -2.8296  1.9923 -1.1174
  289SOL    HW2 1155   0.858   1.025   2.595 -0.4732 -0.9515  0.5343
  289SOL     MW 1156   0.939   1.037   2.626 -0.0679  0.0600  0.0633
  290SOL     OW 1157   0.876   0.533   1.570  0.7421  0.0853  0.3057
  290SOL    HW1 1158   0.920   0.538   1.485  0.9447  0.0497  0.5514
  290SOL    HW2 1159   0.947   0.555   1.627 -0.8995 -1.6542 -0.0932
  290SOL     MW 1160   0.891   0.537   1.567  0.5522 -0.1489  0.2855
  291SOL     OW 1161   0.136   0.333   0.165 -0.0175  0.3399 -0.3708
  291SOL    HW1 1162   0.222   0.299   0.179  1.7114 -1.2729 -1.5240
  291SOL    HW2 1163   0.099   0.298   0.087 -0.6614  0.9137  0.6330
  291SOL     MW 1164   0.142   0.324   0.157  0.1257  0.2028 -0.3905
  292SOL     OW 1165   1.011   0.529   0.068  0.8447  0.0475 -0.1569
  292SOL    HW1 1166   1.051   0.580   0.144  0.9247  2.5210  1.1277
  292SOL    HW2 1167   1.059   0.442   0.068  2.5638 -1.5044 -1.3454
  292SOL     MW 1168   1.023   0.524   0.078  1.0821  0.1691 -0.1443
  293SOL     OW 1169   0.225   0.147   2.461 -0.0850  0.1310 -0.2304
  293SOL    HW1 1170   0.165   0.096   2.404 -1.5716  0.6907 -0.2076
  293SOL    HW2 1171   0.170   0.210   2.511  2.1799 -0.1366  1.3824
  293SOL     MW 1172   0.210   0.149   2.460  0.0176  0.1695 -0.0146
  294SOL     OW 1173   1.519   0.623   2.386  0.0551 -0.1836 -0.1030
  294SOL    HW1 1174   1.525   0.677   2.460 -1.4583 -2.5860 -0.6757
  294SOL    HW2 1175   1.516   0.533   2.426  0.9377  2.4457 -1.5318
  294SOL     MW 1176   1.519   0.618   2.401 -0.0281 -0.1537 -0.3671
  295SOL     OW 1177   0.907   0.678   2.498 -0.1766 -0.4615 -0.9211
  295SOL    HW1 1178   0.883   0.637   2.419 -0.7684  3.2670  3.1794
  295SOL    HW2 1179   0.835   0.676   2.560  0.7105 -0.5298  0.9715
  295SOL     MW 1180   0.894   0.672   2.496 -0.1377  0.0214 -0.1304
  296SOL     OW 1181   1.254   0.306   2.070 -0.7376 -0.3447 -0.1864
  296SOL    HW1 1182   1.334   0.250   2.040 -0.8514 -0.5035 -0.8426
  296SOL    HW2 1183   1.254   0.282   2.168 -0.9010 -0.6749 -0.3730
  296SOL     MW 1184   1.265   0.296   2.079 -0.7742 -0.4092 -0.2976
  297SOL     OW 1185   1.466   0.388   1.611 -0.5440 -0.5129  0.0670
  297SOL    HW1 1186   1.483   0.474   1.652 -1.8694  1.2492  0.0683
  297SOL    HW2 1187   1.472   0.314   1.674 -2.8771 -1.8086  0.2548
  297SOL     MW 1188   1.469   0.390   1.625 -1.0267 -0.4514  0.0919
  298SOL     OW 1189   1.614   0.890   2.040  0.9163  0.0808 -0.2338
  298SOL    HW1 1190   1.592   0.940   1.963  1.9381  1.7634  1.2414
  298SOL    HW2 1191   1.697   0.925   2.069  1.7884 -0.7224 -0.1592
  298SOL     MW 1192   1.622   0.901   2.033  1.1662  0.1968 -0.0293
  299SOL     OW 1193   0.510   1.050   3.065  0.2722  0.1999 -0.2533
  299SOL    HW1 1194   0.556   1.131   3.085 -2.2493  1.1657  0.7921
  299SOL    HW2 1195   0.487   1.056   2.975  0.6923  0.1097  2.3277
  299SOL     MW 1196   0.513   1.062   3.056 -0.0050  0.3154  0.2251
  300SOL     OW 1197   1.235   1.186   2.499 -0.2310  0.3187 -0.1542
  300SOL    HW1 1198   1.142   1.155   2.504  1.0275 -1.3301  0.6157
  300SOL    HW2 1199   1.259   1.229   2.576  0.7281 -3.5321 -0.4872
  300SOL     MW 1200   1.226   1.187   2.510  0.0616 -0.4069 -0.0965
  301SOL     OW 1201   1.387   0.879   0.574  0.3051  0.3289  0.3099
  301SOL    HW1 1202   1.404   0.920   0.661  0.5624  1.6925 -1.7803
  301SOL    HW2 1203   1.336   0.802   0.595 -0.1681  3.4823 -0.8494
  301SOL     MW 1204   1.383   0.875   0.589  0.2766  0.9249 -0.1188
  302SOL     OW 1205   0.072   1.493   2.026  0.0287 -0.2302  0.4783
  302SOL    HW1 1206   0.096   1.428   2.088 -1.8215  1.6227  2.2703
  302SOL    HW2 1207   0.040   1.571   2.069 -2.8243  1.1302  0.5951
  302SOL     MW 1208   0.071   1.494   2.040 -0.5918  0.1938  0.7301
  303SOL     OW 1209   0.379   1.686   2.543  0.3688 -0.1060  0.5794
  303SOL    HW1 1210   0.344   1.672   2.454 -0.8019 -0.4870  1.4376
  303SOL    HW2 1211   0.322   1.743   2.593  1.6278 -1.7059  2.4924
  303SOL     MW 1212   0.367   1.691   2.538  0.3805 -0.3674  0.9451
  304SOL     OW 1213   0.658   2.044   2.399  0.4303 -0.4805 -0.0257
  304SOL    HW1 1214   0.698   2.126   2.375  1.1878 -0.6858 -2.2628
  304SOL    HW2 1215   0.733   1.995   2.428 -1.1030  1.9176  0.4682
  304SOL     MW 1216   0.673   2.048   2.400  0.3279 -0.1912 -0.2557
  305SOL     OW 1217   1.073   0.555   0.547  0.4338  0.1861  0.0584
  305SOL    HW1 1218   0.969   0.552   0.547 -0.9745 -1.6263 -2.2167
  305SOL    HW2 1219   1.097   0.465   0.564 -0.5779  0.6898  0.6187
  305SOL     MW 1220   1.062   0.543   0.549  0.1145  0.0135 -0.1679
  306SOL     OW 1221   1.216   1.484   0.291  0.0361  0.1544  0.1775
  306SOL    HW1 1222   1.228   1.394   0.310  1.5792  1.5520  0.6006
  306SOL    HW2 1223   1.271   1.506   0.211  1.7762 -1.0444  0.0535
  306SOL     MW 1224   1.225   1.475   0.283  0.4693  0.1806  0.2170
  307SOL     OW 1225   1.405   0.495   1.940  0.4817  0.2745  0.3990
  307SOL    HW1 1226   1.356   0.416   1.983 -2.2561 -1.5999  2.4942
  307SOL    HW2 1227   1.479   0.515   1.998 -0.3673  0.3345  0.6177
  307SOL     MW 1228   1.408   0.487   1.953  0.0084  0.0351  0.7043
  308SOL     OW 1229   2.141   0.633   2.675  0.5522  0.0017  0.5649
  308SOL    HW1 1230   2.229   0.613   2.691 -1.4398 -0.5742  0.9736
  308SOL    HW2 1231   2.124   0.728   2.705 -0.1237 -0.7944 -1.5024
  308SOL     MW 1232   2.150   0.643   2.681  0.2002 -0.1793  0.3461
  309SOL     OW 1233   0.483   0.371   0.391 -1.0417 -0.1027  0.2568
  309SOL    HW1 1234   0.552   0.322   0.434 -1.9593  0.8248 -0.5749
  309SOL    HW2 1235   0.457   0.327   0.309  0.0453  0.0661  0.4209
  309SOL     MW 1236   0.489   0.359   0.386 -1.0194  0.0420  0.1687
  310SOL     OW 1237   0.456   0.543   1.904 -0.4088  0.8283  0.3403
  310SOL    HW1 1238   0.486   0.460   1.864  1.2131 -0.3076 -0.2271
  310SOL    HW2 1239   0.511   0.602   1.857 -0.4667 -0.1152  0.9506
  310SOL     MW 1240   0.467   0.540   1.892 -0.2024  0.5539  0.3460
  311SOL     OW 1241   1.902   0.776   1.961 -0.3926 -0.5939  0.2433
  311SOL    HW1 1242   1.895   0.819   2.044  0.2424  0.2448 -0.6073
  311SOL    HW2 1243   1.960   0.694   1.978  0.4861  0.1089 -0.3417
  311SOL     MW 1244   1.909   0.771   1.974 -0.1928 -0.3905  0.0539
  312SOL     OW 1245   1.678   2.487   0.063 -0.1381 -0.4933 -0.2524
  312SOL    HW1 1246   1.743   2.524   0.127 -1.5157 -2.0656  2.6199
  312SOL    HW2 1247   1.602   2.549   0.058 -1.1794  0.3625  1.1564
  312SOL     MW 1248   1.677   2.500   0.071 -0.4572 -0.5879  0.3124
  313SOL     OW 1249   0.124   1.216   2.957 -0.3243  0.6075  0.2426
  313SOL    HW1 1250   0.152   1.183   3.046  2.4030  1.5452  0.8698
  313SOL    HW2 1251   0.210   1.261   2.921 -0.1211  2.2919 -2.2596
  313SOL     MW 1252   0.139   1.217   2.964  0.0623  0.9534 -0.0048
  314SOL     OW 1253   2.140   2.977   3.005  0.0071 -0.5325  0.3234
  314SOL    HW1 1254   2.081   3.019   2.944  0.1358 -1.2392 -1.2071
  314SOL    HW2 1255   2.166   3.051   3.054 -2.3481 -2.3373 -0.8711
  314SOL     MW 1256   2.136   2.992   3.003 -0.2866 -0.8639 -0.0361
  315SOL     OW 1257   1.502   1.882   3.081  0.0765  0.1178  0.4650
  315SOL    HW1 1258   1.436   1.955   3.086 -1.4796  2.0060 -0.5810
  315SOL    HW2 1259   1.567   1.915   3.015 -3.4398 -1.2148  1.1070
  315SOL     MW 1260   1.502   1.896   3.073 -0.5928  0.1911  0.4117
  316SOL     OW 1261   1.246   0.605   2.696  0.0750  0.1307 -0.4492
  316SOL    HW1 1262   1.323   0.659   2.711 -1.0517  1.4790 -1.6666
  316SOL    HW2 1263   1.208   0.559   2.772  0.3838 -3.0166  1.2760
  316SOL     MW 1264   1.251   0.606   2.708 -0.0329 -0.1066 -0.3822
  317SOL     OW 1265   0.667   1.460   2.593  0.5438  0.2836 -0.0481
  317SOL    HW1 1266   0.731   1.388   2.584 -2.1308 -1.3877 -0.1193
  317SOL    HW2 1267   0.660   1.499   2.498 -0.9892  1.2709 -2.8476
  317SOL     MW 1268   0.675   1.456   2.579 -0.0113  0.1933 -0.4268
  318SOL     OW 1269   1.359   0.393   2.923 -0.1918  0.1981  0.1058
  318SOL    HW1 1270   1.283   0.444   2.943 -0.2643 -2.2168  2.1355
  318SOL    HW2 1271   1.426   0.457   2.893  0.7247  2.2852  1.3565
  318SOL     MW 1272   1.358   0.408   2.922 -0.0805  0.1548  0.5386
  319SOL     OW 1273   0.815   0.441   2.826 -0.7092 -0.8121  0.4595
  319SOL    HW1 1274   0.814   0.378   2.756  0.1996  1.4869 -2.0932
  319SOL    HW2 1275   0.777   0.401   2.903  0.6759 -1.6501 -0.0358
  319SOL     MW 1276   0.810   0.427   2.827 -0.4066 -0.6193  0.0573
  320SOL     OW 1277   1.031   1.343   1.962 -0.2593  0.1024  0.4337
  320SOL    HW1 1278   1.101   1.303   2.012  0.8091  0.4012 -0.0137
  320SOL    HW2 1279   1.068   1.422   1.928  0.2351 -1.4150 -0.3501
  320SOL     MW 1280   1.045   1.348   1.964 -0.0531 -0.0584  0.2713
  321SOL     OW 1281   1.043   1.014   3.057  0.6981  0.1895  0.2037
  321SOL    HW1 1282   0.966   1.002   3.003  2.5758 -3.7418 -1.8928
  321SOL    HW2 1283   1.073   0.924   3.078  1.9491  0.4808  0.0414
  321SOL     MW 1284   1.037   1.001   3.053  1.1109 -0.2907 -0.0943
  322SOL     OW 1285   1.175   0.827   1.715  0.1824  0.0212 -0.4935
  322SOL    HW1 1286   1.268   0.804   1.707  1.8228  1.5347 -2.3961
  322SOL    HW2 1287   1.166   0.863   1.805  0.9230 -2.0547  1.6251
  322SOL     MW 1288   1.186   0.829   1.726  0.4966 -0.0530 -0.4650
  323SOL     OW 1289   1.215   1.527   1.836 -0.0069 -0.0740  0.2883
  323SOL    HW1 1290   1.225   1.443   1.790  2.1360  2.5886  1.0123
  323SOL    HW2 1291   1.150   1.579   1.790 -0.3591  1.3174  0.9527
  323SOL     MW 1292   1.207   1.523   1.824  0.2294  0.4609  0.4715
  324SOL     OW 1293   1.483   1.036   2.459 -0.8758 -0.8567 -0.1400
  324SOL    HW1 1294   1.388   1.068   2.472 -1.0237  1.8617 -0.5075
  324SOL    HW2 1295   1.537   1.119   2.487 -1.6170 -2.0614  0.1322
  324SOL     MW 1296   1.478   1.051   2.465 -0.9931 -0.6569 -0.1526
  325SOL     OW 1297   1.100   0.501   2.912  0.1397  0.5355  0.0449
  325SOL    HW1 1298   1.064   0.531   2.999  0.9306  2.9021 -0.4096
  325SOL    HW2 1299   1.032   0.527   2.854 -1.9095  0.3577  0.2651
  325SOL     MW 1300   1.086   0.509   2.916 -0.0263  0.8243  0.0140
  326SOL     OW 1301   0.469   1.347   2.212  0.0916  0.1978 -0.1421
  326SOL    HW1 1302   0.535   1.332   2.140 -0.2359 -0.1510 -0.2027
  326SOL    HW2 1303   0.482   1.437   2.241  0.8037  0.6857 -1.2870
  326SOL     MW 1304   0.479   1.357   2.206  0.1423  0.2162 -0.3011
  327SOL     OW 1305   1.874   0.894   2.471  0.6667 -0.1710 -0.2417
  327SOL    HW1 1306   1.845   0.798   2.490  0.1497  1.6580 -0.8163
  327SOL    HW2 1307   1.970   0.887   2.463  1.3630 -0.6525 -0.7177
  327SOL     MW 1308   1.883   0.880   2.472  0.6903  0.0068 -0.3803
  328SOL     OW 1309   0.207   1.302   2.236 -0.4182  0.0886  0.1238
  328SOL    HW1 1310   0.180   1.239   2.163 -0.2143 -0.1998 -1.2182
  328SOL    HW2 1311   0.303   1.309   2.214 -2.7573 -0.5379  0.0705
  328SOL     MW 1312   0.216   1.295   2.223 -0.6999 -0.0321 -0.0603
  329SOL     OW 1313   0.109   0.118   1.432 -0.0429 -0.1592 -0.2942
  329SOL    HW1 1314   0.102   0.160   1.523  0.3435  0.9476  3.1448
  329SOL    HW2 1315   0.182   0.176   1.394  3.2011  0.4426 -0.8487
  329SOL     MW 1316   0.118   0.131   1.439  0.4361  0.0663  0.0864
  330SOL     OW 1317   0.333   3.035   2.079 -0.8868  0.4583  0.0767
  330SOL    HW1 1318   0.392   3.093   2.128  1.6549  2.0771  0.0853
  330SOL    HW2 1319   0.275   2.986   2.138  4.4749  0.6102 -0.2576
  330SOL     MW 1320   0.333   3.036   2.093  0.1560  0.6919  0.0337
  331SOL     OW 1321   0.781   1.221   2.298  0.6630 -0.0402 -0.0051
  331SOL    HW1 1322   0.749   1.293   2.246 -0.8243  1.9636  1.7167
  331SOL    HW2 1323   0.832   1.261   2.374 -2.1995 -3.4395  1.3239
  331SOL     MW 1324   0.783   1.236   2.301  0.0891 -0.2243  0.3974
  332SOL     OW 1325   1.330   1.681   2.971 -0.0260 -0.1721 -0.2341
  332SOL    HW1 1326   1.350   1.684   2.878 -0.4104  0.8237 -0.5797
  332SOL    HW2 1327   1.368   1.766   3.015  2.0809  0.8714  0.9876
  332SOL     MW 1328   1.337   1.693   2.965  0.2012  0.0969 -0.1185
  333SOL     OW 1329   1.743   1.454   3.002  0.6187 -0.1065 -0.1605
  333SOL    HW1 1330   1.831   1.426   3.019  0.1922  0.9719 -0.9372
  333SOL    HW2 1331   1.720   1.470   3.098  2.2689  0.5036 -2.0235
  333SOL     MW 1332   1.751   1.452   3.017  0.7802  0.1163 -0.5088
  334SOL     OW 1333   1.365   3.071   2.613  0.4320  0.3347 -0.1959
  334SOL    HW1 1334   1.282   3.063   2.655  1.1543  1.0250 -0.0378
  334SOL    HW2 1335   1.391   3.161   2.640 -2.0231 -1.1869  0.2950
  334SOL     MW 1336   1.358   3.082   2.622  0.2034  0.2250 -0.1103
  335SOL     OW 1337   1.208   0.803   3.073  0.3235  0.0219  0.5123
  335SOL    HW1 1338   1.245   0.783   3.160 -3.3293  0.1945  0.2850
  335SOL    HW2 1339   1.277   0.807   3.009  0.8940  0.0245 -0.6727
  335SOL     MW 1340   1.222   0.801   3.076 -0.0831  0.0450  0.3259
  336SOL     OW 1341   0.898   1.080   1.921  0.2277 -0.3162 -0.2809
  336SOL    HW1 1342   0.916   1.169   1.938  2.7238 -3.7524  1.1402
  336SOL    HW2 1343   0.977   1.037   1.949 -1.9020 -1.9590  0.6352
  336SOL     MW 1344   0.911   1.086   1.927  0.2761 -0.9863  0.0275
  337SOL     OW 1345   0.533   1.750   2.777  0.8930 -0.8728 -0.2576
  337SOL    HW1 1346   0.507   1.761   2.686 -2.8455  2.2166 -1.8243
  337SOL    HW2 1347   0.618   1.701   2.773  0.0005 -1.2198 -1.3792
  337SOL     MW 1348   0.541   1.745   2.765  0.2820 -0.5109 -0.6123
  338SOL     OW 1349   1.116   0.850   2.540  0.4088  0.1428  0.1592
  338SOL    HW1 1350   1.049   0.782   2.519 -0.4637  0.9460  1.7622
  338SOL    HW2 1351   1.174   0.813   2.607 -4.1354 -0.7775  1.6006
  338SOL     MW 1352   1.115   0.836   2.546 -0.3059  0.1273  0.5609
  339SOL     OW 1353   1.556   1.047   1.800 -0.1907  0.4513 -0.0815
  339SOL    HW1 1354   1.475   1.040   1.755  0.1191 -0.1544 -2.1788
  339SOL    HW2 1355   1.538   1.135   1.847 -1.2714  1.4307  1.6168
  339SOL     MW 1356   1.543   1.058   1.801 -0.2924  0.5006 -0.1342
  340SOL     OW 1357   1.391   1.500   0.086  0.2488 -0.0653 -0.4261
  340SOL    HW1 1358   1.389   1.553   0.008  1.2107 -0.1942  1.9103
  340SOL    HW2 1359   1.481   1.460   0.086  1.5163 -0.7068  0.4314
  340SOL     MW 1360   1.403   1.502   0.076  0.5429 -0.1670 -0.0047
  341SOL     OW 1361   0.140   1.350   2.656  0.1269  0.0604 -0.0302
  341SOL    HW1 1362   0.231   1.355   2.627 -1.3029 -1.6879 -0.3084
  341SOL    HW2 1363   0.096   1.326   2.574 -0.7480  0.3169  1.7608
  341SOL     MW 1364   0.146   1.348   2.641 -0.1772 -0.1364  0.1694
  342SOL     OW 1365   1.445   0.315   0.069 -0.1947  0.1973  0.5906
  342SOL    HW1 1366   1.491   0.395   0.103  1.5468 -0.4349 -2.5068
  342SOL    HW2 1367   1.423   0.339  -0.021  1.7049 -0.8718  0.2756
  342SOL     MW 1368   1.448   0.329   0.061  0.2857 -0.0271  0.1404
  343SOL     OW 1369   0.223   0.305   2.236 -0.3269  0.5435 -0.1011
  343SOL    HW1 1370   0.224   0.261   2.322 -2.2465 -1.7919  1.1115
  343SOL    HW2 1371   0.174   0.249   2.173  3.2373 -0.9209 -2.7084
  343SOL     MW 1372   0.217   0.292   2.239 -0.1099  0.0422 -0.2851
  344SOL     OW 1373   1.679   2.065   0.233 -0.0158  0.2527 -0.4484
  344SOL    HW1 1374   1.690   2.124   0.159  1.5271  0.0752  0.0129
  344SOL    HW2 1375   1.605   2.014   0.213 -1.6631 -1.3830  0.6332
  344SOL     MW 1376   1.671   2.066   0.221 -0.0296  0.0135 -0.2449
  345SOL     OW 1377   0.716   1.618   2.354 -0.2026  0.7626 -1.0166
  345SOL    HW1 1378   0.633   1.624   2.303 -2.4061  2.5911 -2.0466
  345SOL    HW2 1379   0.774   1.550   2.308 -0.7525 -0.6514  0.4965
  345SOL     MW 1380   0.713   1.610   2.341 -0.5659  0.8173 -0.9529
  346SOL     OW 1381   1.726   1.148   0.036 -0.1195  0.1378  0.2688
  346SOL    HW1 1382   1.825   1.141   0.031 -0.0903 -1.3951 -2.2179
  346SOL    HW2 1383   1.694   1.090   0.107 -0.8163  0.6798  0.1204
  346SOL     MW 1384   1.735   1.140   0.045 -0.2076  0.0070 -0.0789
  347SOL     OW 1385   1.260   0.726   2.303  0.5428  0.0969 -0.3584
  347SOL    HW1 1386   1.345   0.696   2.324 -1.4762  2.4697  1.2808
  347SOL    HW2 1387   1.247   0.793   2.363 -0.7319 -0.5191 -0.0878
  347SOL     MW 1388   1.270   0.731   2.314  0.1082  0.3287 -0.1064
  348SOL     OW 1389   1.316   2.583   1.876  0.2667 -0.0978 -0.6261
  348SOL    HW1 1390   1.394   2.514   1.893  0.4722 -0.8172  1.8055
  348SOL    HW2 1391   1.351   2.670   1.906 -1.4422  1.5015  0.1223
  348SOL     MW 1392   1.331   2.585   1.882  0.0683  0.0183 -0.2066
  349SOL     OW 1393   1.441   0.246   2.712 -0.4152 -0.3096  0.6211
  349SOL    HW1 1394   1.395   0.280   2.788 -0.3192 -1.6446  2.1006
  349SOL    HW2 1395   1.534   0.257   2.742  0.9069  2.1779 -0.3367
  349SOL     MW 1396   1.447   0.252   2.726 -0.2281 -0.1575  0.6899
  350SOL     OW 1397   1.867   0.648   2.601 -0.0873 -0.1445  0.3856
  350SOL    HW1 1398   1.830   0.577   2.544 -1.1261 -3.6298  0.9923
  350SOL    HW2 1399   1.956   0.621   2.633 -1.4169  2.6014  0.1972
  350SOL     MW 1400   1.874   0.635   2.598 -0.3998 -0.2421  0.4408
  351SOL     OW 1401   0.128   0.959   1.636  0.1896  0.7533 -0.2767
  351SOL    HW1 1402   0.060   1.011   1.682 -0.0087  0.4939  1.0823
  351SOL    HW2 1403   0.180   1.030   1.597  0.5879  1.1213 -1.9218
  351SOL     MW 1404   0.126   0.975   1.637  0.2160  0.7677 -0.3144
  352SOL     OW 1405   0.784   1.647   2.765  0.4706  0.6152 -0.2828
  352SOL    HW1 1406   0.827   1.609   2.844 -0.1035 -2.0394  0.5979
  352SOL    HW2 1407   0.741   1.565   2.736  2.7896  0.8978 -1.4310
  352SOL     MW 1408   0.784   1.631   2.771  0.7008  0.3022 -0.3181
  353SOL     OW 1409   3.007   2.424   2.684 -0.3687  0.1652 -0.1947
  353SOL    HW1 1410   3.102   2.416   2.665  1.3375  0.4408 -3.9464
  353SOL    HW2 1411   2.974   2.500   2.630  1.3102 -1.8541 -2.8470
  353SOL     MW 1412   3.015   2.433   2.675  0.0779 -0.0649 -1.0397
  354SOL     OW 1413   0.400   2.442   0.840 -0.8638  0.0794 -0.1671
  354SOL    HW1 1414   0.399   2.397   0.925 -0.0371  0.7052  2.0885
  354SOL    HW2 1415   0.322   2.398   0.814  0.7699  0.1221  1.6281
  354SOL     MW 1416   0.389   2.431   0.848 -0.5392  0.1676  0.3674
  355SOL     OW 1417   0.037   2.179   0.411 -0.1598  0.0073 -0.3078
  355SOL    HW1 1418  -0.046   2.126   0.387 -0.5034 -1.0601 -0.4659
  355SOL    HW2 1419   0.022   2.240   0.482 -0.5804  0.0348  1.3433
  355SOL     MW 1420   0.024   2.180   0.417 -0.2606 -0.1299 -0.1108
  356SOL     OW 1421   0.831   2.890   1.039 -0.1030 -0.7840  0.3692
  356SOL    HW1 1422   0.873   2.888   0.949 -0.3750 -0.2865 -1.6306
  356SOL    HW2 1423   0.743   2.854   1.033  4.3638  0.3368  1.3373
  356SOL     MW 1424   0.825   2.885   1.027  0.4504 -0.5705  0.2331
  357SOL     OW 1425   1.775   2.928   0.368 -0.0403 -0.2566 -0.7180
  357SOL    HW1 1426   1.734   2.863   0.435  0.9943 -3.2799 -2.6395
  357SOL    HW2 1427   1.852   2.870   0.349  0.3500  0.1898  3.9874
  357SOL     MW 1428   1.780   2.911   0.375  0.1477 -0.5966 -0.3507
  358SOL     OW 1429   0.398   0.117   1.020 -0.5630 -0.1488 -0.5069
  358SOL    HW1 1430   0.489   0.146   1.031  0.0907  2.3595 -1.5705
  358SOL    HW2 1431   0.374   0.140   0.928 -1.0850 -1.8582 -0.3294
  358SOL     MW 1432   0.407   0.124   1.009 -0.5456 -0.0434 -0.6238
  359SOL     OW 1433   0.938   2.888   1.813 -0.7378  0.1084 -1.2150
  359SOL    HW1 1434   0.921   2.798   1.864 -0.8783  0.0056 -0.8010
  359SOL    HW2 1435   0.982   2.862   1.736 -0.2938  0.7963 -0.0510
  359SOL     MW 1436   0.942   2.873   1.810 -0.6977  0.1856 -1.0068
  360SOL     OW 1437   0.594   2.788   1.014  0.5534  0.2563  0.3162
  360SOL    HW1 1438   0.630   2.732   0.945  0.1132 -0.7512  0.0756
  360SOL    HW2 1439   0.563   2.714   1.069 -0.0863 -0.5050  1.1133
  360SOL     MW 1440   0.595   2.771   1.012  0.4109  0.0229  0.3896
  361SOL     OW 1441   0.193   2.698   1.315  0.4623 -0.1340 -0.3121
  361SOL    HW1 1442   0.168   2.775   1.368 -0.2318  1.9043 -0.1136
  361SOL    HW2 1443   0.285   2.690   1.307  0.9786  0.6991 -0.3415
  361SOL     MW 1444   0.202   2.707   1.321  0.4388  0.2448 -0.2898
  362SOL     OW 1445   1.474   2.425   0.619 -0.1502 -0.5728  0.7624
  362SOL    HW1 1446   1.482   2.338   0.663 -1.6478  2.2140 -0.4507
  362SOL    HW2 1447   1.502   2.487   0.690 -1.6247 -1.0233  0.7315
  362SOL     MW 1448   1.479   2.422   0.634 -0.5424 -0.2646  0.5982
  363SOL     OW 1449   0.299   3.030   0.722  0.3404  0.1668 -0.4669
  363SOL    HW1 1450   0.312   3.008   0.816 -2.5325 -0.7825  0.4115
  363SOL    HW2 1451   0.204   3.023   0.725 -0.4831 -1.0568  0.9315
  363SOL     MW 1452   0.288   3.026   0.735 -0.1473 -0.1199 -0.1665
  364SOL     OW 1453   0.751   0.174   0.255  0.5170 -0.0238  0.0311
  364SOL    HW1 1454   0.703   0.096   0.266 -0.1690  2.5849 -2.8398
  364SOL    HW2 1455   0.699   0.221   0.192 -1.2734  2.2387 -0.5410
  364SOL     MW 1456   0.738   0.169   0.249  0.1903  0.6189 -0.4232
  365SOL     OW 1457   0.942   1.939   1.120  0.4996  0.0767 -0.2439
  365SOL    HW1 1458   0.886   2.015   1.109  0.2544  1.0786 -0.2895
  365SOL    HW2 1459   0.899   1.864   1.074  1.1790 -0.4870  0.7880
  365SOL     MW 1460   0.929   1.939   1.112  0.5569  0.1345 -0.1138
  366SOL     OW 1461   2.882   2.616   1.012 -0.4774  0.1486 -0.2128
  366SOL    HW1 1462   2.952   2.653   1.065 -2.6889 -0.8131 -0.0525
  366SOL    HW2 1463   2.908   2.625   0.912  2.5695  1.3524 -0.6906
  366SOL     MW 1464   2.894   2.622   1.006 -0.3672  0.1806 -0.2547
  367SOL     OW 1465   1.246   2.805   0.884 -0.5117  0.3075  0.2434
  367SOL    HW1 1466   1.159   2.833   0.875  1.4542 -2.2189  0.4721
  367SOL    HW2 1467   1.263   2.752   0.806  0.8777 -0.1715 -0.7449
  367SOL     MW 1468   1.237   2.801   0.873 -0.0690 -0.0890  0.1432
  368SOL     OW 1469   1.675   0.459   0.678  0.2509 -0.4519  0.7288
  368SOL    HW1 1470   1.762   0.409   0.667  1.0657  1.0921  1.9770
  368SOL    HW2 1471   1.700   0.545   0.703 -2.0986  0.1094  2.6519
  368SOL     MW 1472   1.690   0.464   0.680  0.0484 -0.1741  1.1472
  369SOL     OW 1473   0.153   2.459   1.707 -0.1109  0.0881 -0.3065
  369SOL    HW1 1474   0.243   2.447   1.744  2.2404  0.3367 -1.4130
  369SOL    HW2 1475   0.102   2.531   1.749  1.9630  2.4442 -0.3180
  369SOL     MW 1476   0.158   2.467   1.717  0.4730  0.4317 -0.4540
  370SOL     OW 1477   0.747   0.079   0.994  0.5384  0.0427 -0.0095
  370SOL    HW1 1478   0.803   0.147   1.022 -0.7458 -0.2619  0.6071
  370SOL    HW2 1479   0.786  -0.003   1.022 -3.1897 -1.8323  1.1917
  370SOL     MW 1480   0.760   0.077   1.002 -0.1229 -0.2449  0.2304
  371SOL     OW 1481   1.332   2.971   1.504  0.7375 -0.5072 -0.0561
  371SOL    HW1 1482   1.316   2.895   1.449  1.4221 -1.6012  0.0557
  371SOL    HW2 1483   1.347   3.050   1.450 -0.1611 -2.3647  1.7418
  371SOL     MW 1484   1.332   2.972   1.489  0.7092 -0.8966  0.1959
  372SOL     OW 1485   0.830   2.297   0.468 -0.0389  0.3926 -0.0078
  372SOL    HW1 1486   0.809   2.201   0.473  0.0881  1.3047  0.9556
  372SOL    HW2 1487   0.849   2.316   0.373  0.9204 -0.7168 -0.5920
  372SOL     MW 1488   0.830   2.287   0.456  0.1044  0.3665  0.0422
  373SOL     OW 1489   2.804   3.000   1.394 -0.6478  0.2207  0.0836
  373SOL    HW1 1490   2.866   2.942   1.347 -1.6376  0.2310 -0.3332
  373SOL    HW2 1491   2.814   3.092   1.357  2.0125 -0.2975 -0.4759
  373SOL     MW 1492   2.813   3.005   1.383 -0.4274  0.1537 -0.0452
  374SOL     OW 1493   1.528   0.509   0.248  0.3332  0.0349 -0.2016
  374SOL    HW1 1494   1.612   0.535   0.270 -1.7622  2.3422 -0.7350
  374SOL    HW2 1495   1.494   0.476   0.331 -1.9749  0.9908 -1.6592
  374SOL     MW 1496   1.534   0.508   0.262 -0.2478  0.4654 -0.4643
  375SOL     OW 1497   1.133   2.107   2.297  0.1747 -0.3452 -0.5196
  375SOL    HW1 1498   1.145   2.114   2.395 -0.0199 -0.3116 -1.9663
  375SOL    HW2 1499   1.155   2.016   2.278 -1.3100 -0.0297  2.0714
  375SOL     MW 1500   1.138   2.096   2.308 -0.0468 -0.2991 -0.3687
  376SOL     OW 1501   0.703   2.491   0.049  0.4544 -0.0971  0.0713
  376SOL    HW1 1502   0.741   2.452   0.124 -1.0041  1.0296 -0.9050
  376SOL    HW2 1503   0.645   2.422   0.004 -0.3877 -1.1010 -1.9615
  376SOL     MW 1504   0.700   2.477   0.053  0.1509 -0.0809 -0.3257
  377SOL     OW 1505   1.312   1.965   0.861  0.0280  0.5074 -0.1307
  377SOL    HW1 1506   1.228   1.955   0.813  0.5554 -1.4114 -0.4202
  377SOL    HW2 1507   1.291   1.933   0.950  1.9983 -0.5051  0.1794
  377SOL     MW 1508   1.298   1.959   0.866  0.3575  0.1206 -0.1280
  378SOL     OW 1509   1.055   2.812   1.561  0.1243  0.2826  0.1359
  378SOL    HW1 1510   1.006   2.729   1.580 -1.5006  0.2578  0.0311
  378SOL    HW2 1511   0.992   2.863   1.504  0.1296  0.8921 -0.1221
  378SOL     MW 1512   1.040   2.807   1.556 -0.0894  0.3597  0.0880
  379SOL     OW 1513   1.118   1.807   2.262  0.4808  0.2451  0.2174
  379SOL    HW1 1514   1.022   1.820   2.289 -1.9585  0.6021  0.7905
  379SOL    HW2 1515   1.135   1.724   2.216 -1.2989 -0.6104  1.2307
  379SOL     MW 1516   1.108   1.798   2.260 -0.0759  0.1793  0.4267
  380SOL     OW 1517   0.856   0.040   1.557 -0.1349 -0.2905 -0.4281
  380SOL    HW1 1518   0.904   0.046   1.477  2.1969  0.0825  1.5354
  380SOL    HW2 1519   0.913   0.074   1.628 -1.8454  0.2313  4.8597
  380SOL     MW 1520   0.870   0.045   1.556 -0.0529 -0.1724  0.5287
  381SOL     OW 1521   0.795   1.961   0.783  0.3576  0.0850  0.3246
  381SOL    HW1 1522   0.894   1.968   0.774  0.8769 -1.4022 -0.5942
  381SOL    HW2 1523   0.772   2.020   0.851 -0.5512  2.8833 -0.0843
  381SOL     MW 1524   0.805   1.970   0.790  0.3062  0.2580  0.1494
  382SOL     OW 1525   0.718   0.067   0.726 -0.2440 -0.0462  0.1646
  382SOL    HW1 1526   0.694   0.087   0.819 -1.6549 -1.5729  3.2010
  382SOL    HW2 1527   0.672  -0.021   0.713  0.1614 -1.4163 -2.4268
  382SOL     MW 1528   0.709   0.058   0.736 -0.3767 -0.4284  0.2233
  383SOL     OW 1529   0.460   0.043   0.358  0.4024 -0.1235 -0.5938
  383SOL    HW1 1530   0.512  -0.011   0.310  0.5096 -0.4713  1.8031
  383SOL    HW2 1531   0.393  -0.020   0.388 -1.0096  0.7512  1.6739
  383SOL     MW 1532   0.458   0.027   0.356  0.2303 -0.0540  0.0216
  384SOL     OW 1533   0.646   2.905   0.667  0.0778 -0.0283  0.0133
  384SOL    HW1 1534   0.656   2.818   0.713 -0.4654 -3.2584  3.9387
  384SOL    HW2 1535   0.567   2.890   0.616  2.3784  1.0205 -0.4827
  384SOL     MW 1536   0.637   2.892   0.667  0.3097 -0.3161  0.4658
  385SOL     OW 1537   1.314   2.059   1.511  0.2167  0.0730 -0.0826
  385SOL    HW1 1538   1.385   2.074   1.573 -0.2821  0.5358 -0.4773
  385SOL    HW2 1539   1.261   1.985   1.554  2.0318  1.2306 -1.6447
  385SOL     MW 1540   1.316   2.051   1.525  0.3904  0.2868 -0.3408
  386SOL     OW 1541   1.390   0.332   0.824  0.5475  0.3326 -0.1340
  386SOL    HW1 1542   1.332   0.327   0.742 -3.5747 -2.5511 -1.3010
  386SOL    HW2 1543   1.335   0.376   0.889  2.4042  1.2439  1.5502
  386SOL     MW 1544   1.375   0.337   0.822  0.2486  0.0724 -0.0658
  387SOL     OW 1545   0.821   2.211   1.457  0.1220  0.2786 -0.3884
  387SOL    HW1 1546   0.902   2.260   1.433  0.6300  0.2098 -2.5269
  387SOL    HW2 1547   0.837   2.120   1.444 -0.5331 -0.4576  1.4389
  387SOL     MW 1548   0.834   2.206   1.452  0.1026  0.1724 -0.4295
  388SOL     OW 1549   1.566   2.782   1.250 -0.0407  0.3394 -0.4923
  388SOL    HW1 1550   1.481   2.747   1.225  0.3741  1.3730 -0.9471
  388SOL    HW2 1551   1.628   2.712   1.218  0.5754 -0.4534 -0.7645
  388SOL     MW 1552   1.563   2.768   1.243  0.0953  0.3712 -0.5882
  389SOL     OW 1553   0.364   0.037   3.050 -0.3090 -0.1675 -0.7779
  389SOL    HW1 1554   0.460   0.034   3.030  0.0031 -1.4124 -0.5124
  389SOL    HW2 1555   0.325   0.080   2.976  3.3068  0.4527  3.6686
  389SOL     MW 1556   0.372   0.042   3.038  0.2093 -0.2500 -0.1562
  390SOL     OW 1557   1.282   0.017   0.607 -0.3273  0.6392  0.0683
  390SOL    HW1 1558   1.360   0.056   0.567 -0.3959 -0.2454 -3.2600
  390SOL    HW2 1559   1.286   0.017   0.701 -0.8604  0.9679  1.0702
  390SOL     MW 1560   1.293   0.022   0.614 -0.4067  0.5659 -0.2387
  391SOL     OW 1561   0.283   2.274   1.482 -0.0148 -0.4294 -0.9870
  391SOL    HW1 1562   0.229   2.199   1.502  0.1820 -0.5977 -0.8940
  391SOL    HW2 1563   0.215   2.342   1.458 -0.0541 -0.7441 -1.1354
  391SOL     MW 1564   0.267   2.273   1.481  0.0060 -0.4931 -0.9943
  392SOL     OW 1565   2.041   2.160   0.368  0.7594 -0.2113 -0.0054
  392SOL    HW1 1566   2.019   2.228   0.428  0.2910 -0.8819 -1.0241
  392SOL    HW2 1567   2.103   2.108   0.421 -1.3958 -3.2429 -3.4177
  392SOL     MW 1568   2.046   2.162   0.383  0.4132 -0.6998 -0.5900
  393SOL     OW 1569   0.216   2.999   2.804 -0.3579  0.1700 -0.0912
  393SOL    HW1 1570   0.281   3.066   2.828  0.6824 -1.1113 -0.2465
  393SOL    HW2 1571   0.138   3.045   2.776 -3.4635  1.5708 -1.8180
  393SOL     MW 1572   0.214   3.014   2.804 -0.6304  0.1858 -0.3395
  394SOL     OW 1573   0.880   1.693   1.487  0.0794  0.3350  0.3615
  394SOL    HW1 1574   0.827   1.720   1.564 -1.4476 -0.4886  1.4858
  394SOL    HW2 1575   0.904   1.780   1.450 -0.2668  1.6422 -1.4986
  394SOL     MW 1576   0.876   1.708   1.492 -0.1677  0.3988  0.2644
  395SOL     OW 1577   0.953   2.852   2.625 -0.4657  0.0788  0.1850
  395SOL    HW1 1578   0.973   2.940   2.663  1.7034  1.5962 -0.8319
  395SOL    HW2 1579   1.042   2.818   2.586  0.2459 -2.4357 -1.9796
  395SOL     MW 1580   0.968   2.859   2.625 -0.0856 -0.0527 -0.2348
  396SOL     OW 1581   0.868   1.842   2.383  0.3508 -0.0084  0.0764
  396SOL    HW1 1582   0.877   1.855   2.481  0.0739  0.6469  0.4579
  396SOL    HW2 1583   0.825   1.759   2.377 -0.0816  1.7841 -0.9376
  396SOL     MW 1584   0.863   1.833   2.395  0.2572  0.3145 -0.0071
  397SOL     OW 1585   1.023   2.374   1.376 -0.1163  0.2718 -0.1085
  397SOL    HW1 1586   1.054   2.364   1.285  2.8700 -0.4475  1.2296
  397SOL    HW2 1587   1.110   2.378   1.423  1.6000  0.9618 -0.5755
  397SOL     MW 1588   1.038   2.373   1.370  0.5042  0.2679  0.0064
  398SOL     OW 1589   0.655   2.663   0.785 -0.1034  0.7743 -0.3204
  398SOL    HW1 1590   0.589   2.587   0.782  0.7366 -0.8397  1.4431
  398SOL    HW2 1591   0.727   2.610   0.742 -1.3849 -0.3746  1.3518
  398SOL     MW 1592   0.656   2.646   0.779 -0.1616  0.4097  0.1329
  399SOL     OW 1593   0.288   2.052   0.451  0.4086  0.9168  0.4599
  399SOL    HW1 1594   0.189   2.072   0.456 -1.9260 -1.0799  0.0121
  399SOL    HW2 1595   0.319   2.083   0.363 -2.7459  1.0794 -1.4487
  399SOL     MW 1596   0.279   2.058   0.440 -0.3157  0.6748  0.1490
  400SOL     OW 1597   0.550   1.833   0.195 -0.2279 -0.2006  0.3599
  400SOL    HW1 1598   0.513   1.917   0.219 -2.5318  0.8262  0.5361
  400SOL    HW2 1599   0.538   1.777   0.265 -0.3706  1.8953 -2.5091
  400SOL     MW 1600   0.543   1.837   0.207 -0.5507  0.2114  0.0046
  401SOL     OW 1601   0.914   2.074   0.186  0.1824  0.2997 -0.4365
  401SOL    HW1 1602   0.920   1.977   0.187 -0.2681 -2.6325  1.8006
  401SOL    HW2 1603   0.992   2.099   0.227  0.5487  1.3764 -0.9093
  401SOL     MW 1604   0.925   2.065   0.192  0.1712  0.0549 -0.2037
  402SOL     OW 1605   0.692   2.981   1.670  0.1857 -0.0448 -0.2073
  402SOL    HW1 1606   0.742   2.930   1.733 -0.9157 -0.5685  1.6486
  402SOL    HW2 1607   0.762   3.025   1.618 -0.3334 -4.3000  0.3598
  402SOL     MW 1608   0.708   2.980   1.672 -0.0281 -0.6753  0.1124
  403SOL     OW 1609   0.075   0.396   0.417 -0.6128 -0.2100 -0.5810
  403SOL    HW1 1610   0.152   0.393   0.476 -0.6864  0.5658 -2.3047
  403SOL    HW2 1611   0.104   0.371   0.331  0.7886  1.1807 -0.0637
  403SOL     MW 1612   0.089   0.393   0.413 -0.4376  0.0758 -0.7402
  404SOL     OW 1613   0.976   2.868   0.795  0.1184 -0.2622  0.1616
  404SOL    HW1 1614   1.024   2.822   0.728 -2.4516  1.0042 -1.3880
  404SOL    HW2 1615   0.977   2.962   0.760 -0.8165  0.8404  0.5077
  404SOL     MW 1616   0.982   2.874   0.782 -0.3440  0.0504  0.0028
  405SOL     OW 1617   0.517   2.422   1.557  0.5853  0.0539 -0.3897
  405SOL    HW1 1618   0.503   2.502   1.512 -0.0720 -2.1456 -0.2837
  405SOL    HW2 1619   0.439   2.365   1.520 -3.0632 -0.2123 -2.3507
  405SOL     MW 1620   0.505   2.425   1.546  0.0172 -0.2714 -0.6345
  406SOL     OW 1621   0.373   2.336   1.102 -0.5179  0.4798  0.2112
  406SOL    HW1 1622   0.272   2.328   1.094 -2.9044 -2.3696 -2.2012
  406SOL    HW2 1623   0.402   2.257   1.157  0.5968  0.7994 -1.4236
  406SOL     MW 1624   0.363   2.325   1.108 -0.6857  0.1460 -0.3228
  407SOL     OW 1625   0.027   2.738   1.101  0.6487  0.3236 -0.0510
  407SOL    HW1 1626   0.095   2.726   1.166 -0.5517 -2.1106 -0.7240
  407SOL    HW2 1627   0.074   2.720   1.008  1.1511 -0.4839 -1.4340
  407SOL     MW 1628   0.042   2.734   1.097  0.5566 -0.1041 -0.3223
  408SOL     OW 1629   2.085   2.054   0.677 -0.0226  0.3072  0.1098
  408SOL    HW1 1630   2.032   2.120   0.723  0.2964  0.2767  0.0609
  408SOL    HW2 1631   2.018   1.999   0.630 -2.8793 -3.0937  0.8614
  408SOL     MW 1632   2.069   2.055   0.677 -0.3574 -0.1456  0.2025
  409SOL     OW 1633   1.386   0.048   0.906 -0.0192 -0.5975  0.1108
  409SOL    HW1 1634   1.414   0.139   0.922  0.3280 -1.2797 -0.0170
  409SOL    HW2 1635   1.433  -0.005   0.967  0.9545 -2.2558 -2.1758
  409SOL     MW 1636   1.396   0.053   0.916  0.1551 -0.9063 -0.2078
  410SOL     OW 1637   1.100   2.439   1.085  0.0644 -0.2554 -0.9331
  410SOL    HW1 1638   1.031   2.469   1.031 -0.4459  1.1968 -0.5929
  410SOL    HW2 1639   1.140   2.371   1.027 -1.1608 -2.3647  2.2939
  410SOL     MW 1640   1.096   2.434   1.070 -0.1646 -0.3421 -0.4624
  411SOL     OW 1641   1.971   0.041   2.873  0.3055  0.1989 -0.5552
  411SOL    HW1 1642   1.921  -0.005   2.801  2.5382 -0.3624  1.4416
  411SOL    HW2 1643   1.903   0.057   2.936 -2.1162 -1.4809 -1.4455
  411SOL     MW 1644   1.955   0.037   2.872  0.2806 -0.0968 -0.4092
  412SOL     OW 1645   1.056   2.229   0.586 -0.4206  0.7147 -0.1311
  412SOL    HW1 1646   1.117   2.294   0.622 -2.6960 -1.2919 -1.0079
  412SOL    HW2 1647   0.987   2.274   0.543 -1.2274 -2.0540 -0.7997
  412SOL     MW 1648   1.055   2.244   0.585 -0.8272  0.0847 -0.3350
  413SOL     OW 1649   0.535   2.770   0.054  0.4163  0.0534 -0.7636
  413SOL    HW1 1650   0.580   2.688   0.067 -3.4241 -1.4748 -0.9167
  413SOL    HW2 1651   0.537   2.795  -0.038 -2.8739 -1.6762 -0.1419
  413SOL     MW 1652   0.541   2.762   0.044 -0.5245 -0.3764 -0.7018
  414SOL     OW 1653   1.931   2.995   1.067 -0.6123 -0.2273  0.3247
  414SOL    HW1 1654   1.893   2.989   0.980  1.2784  1.8671  0.5714
  414SOL    HW2 1655   2.015   2.943   1.072  0.8333  1.6971 -1.0428
  414SOL     MW 1656   1.937   2.987   1.056 -0.1721  0.3029  0.1768
  415SOL     OW 1657   1.723   2.599   1.124  0.4326 -0.9127  0.5566
  415SOL    HW1 1658   1.689   2.516   1.174  0.0292 -0.6954  0.2703
  415SOL    HW2 1659   1.814   2.628   1.158  1.8363 -3.5716  0.9925
  415SOL     MW 1660   1.731   2.592   1.135  0.5645 -1.2348  0.5764
  416SOL     OW 1661   0.580   1.920   1.343 -0.5646  0.3282  0.0895
  416SOL    HW1 1662   0.532   2.005   1.325 -1.0492  1.2323  0.1139
  416SOL    HW2 1663   0.564   1.866   1.267 -0.1492 -1.7208  1.3046
  416SOL     MW 1664   0.571   1.924   1.330 -0.5737  0.1771  0.2530
  417SOL     OW 1665   0.989   3.021   2.036 -0.1653 -0.0442  0.3256
  417SOL    HW1 1666   0.901   3.018   2.080 -0.4743 -0.7310 -1.3540
  417SOL    HW2 1667   0.974   2.976   1.948 -2.0577 -2.3755  0.2115
  417SOL     MW 1668   0.975   3.015   2.030 -0.4557 -0.4424  0.0890
  418SOL     OW 1669   0.640   2.997   0.205  0.1671 -0.0782 -0.6363
  418SOL    HW1 1670   0.728   2.979   0.157  1.3873  0.7988  1.1945
  418SOL    HW2 1671   0.577   2.930   0.176  1.4552  2.5877 -0.9611
  418SOL     MW 1672   0.643   2.986   0.195  0.4980  0.3892 -0.4376
  419SOL     OW 1673   0.478   2.638   1.386  0.0410 -0.0236 -0.1387
  419SOL    HW1 1674   0.527   2.728   1.379  2.7413 -2.1065 -0.7421
  419SOL    HW2 1675   0.495   2.597   1.297  1.4677 -1.7185  1.1509
  419SOL     MW 1676   0.487   2.645   1.374  0.5855 -0.5221 -0.0482
  420SOL     OW 1677   0.762   2.142   0.996  0.3340  0.3074 -0.2003
  420SOL    HW1 1678   0.719   2.168   1.082 -0.5840 -0.7541 -1.4820
  420SOL    HW2 1679   0.760   2.229   0.956  1.1562 -1.3591 -0.1902
  420SOL     MW 1680   0.756   2.157   1.002  0.3214 -0.0526 -0.3680
  421SOL     OW 1681   2.940   0.089   0.042 -0.4570  0.2942  0.2484
  421SOL    HW1 1682   2.910   0.064  -0.048 -2.8568 -2.3851  1.1509
  421SOL    HW2 1683   2.962   0.007   0.090  4.8086 -1.0449  0.4472
  421SOL     MW 1684   2.939   0.075   0.036 -0.0789 -0.2360  0.3937
  422SOL     OW 1685   0.835   2.440   0.987  0.2308 -0.2954 -0.8131
  422SOL    HW1 1686   0.789   2.515   1.026  2.3448 -0.9189  2.3302
  422SOL    HW2 1687   0.850   2.462   0.896  0.3719 -2.2059 -0.4359
  422SOL     MW 1688   0.831   2.453   0.980  0.5284 -0.6297 -0.3486
  423SOL     OW 1689   1.509   0.140   0.516 -0.2698 -0.1434 -0.2999
  423SOL    HW1 1690   1.523   0.131   0.418 -0.4155 -0.0997  0.3357
  423SOL    HW2 1691   1.498   0.234   0.520  0.4562  2.5237  3.1188
  423SOL     MW 1692   1.509   0.151   0.503 -0.1932  0.2142  0.2350
  424SOL     OW 1693   0.676   2.231   1.228 -0.3803 -0.2490 -0.0289
  424SOL    HW1 1694   0.597   2.188   1.249 -2.0268 -0.2715 -0.7229
  424SOL    HW2 1695   0.726   2.225   1.309 -0.9943  0.1805 -1.5004
  424SOL     MW 1696   0.672   2.224   1.242 -0.6785 -0.1953 -0.3146
  425SOL     OW 1697   1.711   2.818   1.924 -0.1330 -0.1080 -0.1493
  425SOL    HW1 1698   1.735   2.838   1.829 -0.0669 -0.1153 -0.9756
  425SOL    HW2 1699   1.758   2.734   1.953 -0.4198  2.0067  4.3228
  425SOL     MW 1700   1.720   2.809   1.916 -0.1621  0.1701  0.3317
  426SOL     OW 1701   0.797   1.705   1.936 -0.2755 -0.4199 -0.0523
  426SOL    HW1 1702   0.741   1.711   1.862  0.1899  0.0504  0.3840
  426SOL    HW2 1703   0.773   1.791   1.967 -2.5247 -1.9911 -1.4690
  426SOL     MW 1704   0.787   1.717   1.930 -0.5108 -0.5651 -0.1817
  427SOL     OW 1705   0.336   1.537   1.890  0.2477 -0.0175  0.3656
  427SOL    HW1 1706   0.399   1.461   1.904  0.0426 -1.8220 -2.4706
  427SOL    HW2 1707   0.279   1.552   1.963  2.1628 -2.6323 -1.1317
  427SOL     MW 1708   0.337   1.529   1.901  0.4733 -0.6006 -0.2062
  428SOL     OW 1709   0.535   2.544   1.137 -0.1047  0.0782  0.4101
  428SOL    HW1 1710   0.620   2.509   1.168 -0.7532  0.4784 -0.6226
  428SOL    HW2 1711   0.478   2.466   1.124 -0.2347  0.5108  0.6318
  428SOL     MW 1712   0.539   2.529   1.139 -0.2074  0.1880  0.3031
  429SOL     OW 1713   1.334   2.608   1.076 -0.3407  0.0695 -0.2362
  429SOL    HW1 1714   1.253   2.555   1.086 -0.4281  1.9310 -0.4712
  429SOL    HW2 1715   1.307   2.692   1.027  0.4658 -0.3045 -1.6005
  429SOL     MW 1716   1.320   2.612   1.071 -0.2459  0.2658 -0.4472
  430SOL     OW 1717   1.118   2.683   0.629 -0.0908 -0.0884  0.1589
  430SOL    HW1 1718   1.128   2.597   0.667  2.6697  1.0070 -0.7920
  430SOL    HW2 1719   1.046   2.682   0.565  1.0035 -0.5104  0.8598
  430SOL     MW 1720   1.110   2.672   0.625  0.4178  0.0004  0.1259
  431SOL     OW 1721   0.321   1.932   1.101 -0.6831 -0.1947  0.0494
  431SOL    HW1 1722   0.397   1.876   1.072  1.2907 -1.4504  1.2850
  431SOL    HW2 1723   0.308   1.983   1.018  1.2311  0.6423 -2.3472
  431SOL     MW 1724   0.329   1.931   1.086 -0.1702 -0.2499 -0.1038
  432SOL     OW 1725   0.026   0.116   1.162  0.0452  0.3478 -0.4598
  432SOL    HW1 1726   0.042   0.118   1.256 -2.5429 -0.7421  0.5923
  432SOL    HW2 1727  -0.033   0.033   1.148 -2.6678  0.0359 -1.2838
  432SOL     MW 1728   0.020   0.105   1.172 -0.6542  0.1629 -0.4297
  433SOL     OW 1729   0.603   2.873   1.410 -0.0640 -0.1263  0.3653
  433SOL    HW1 1730   0.610   2.881   1.506 -0.8689 -1.5912 -1.2509
  433SOL    HW2 1731   0.692   2.886   1.377 -2.4297 -0.1432  0.3780
  433SOL     MW 1732   0.616   2.876   1.419 -0.4823 -0.3218  0.1537
  434SOL     OW 1733   1.563   2.827   1.536 -0.0846  0.4246  0.1131
  434SOL    HW1 1734   1.499   2.902   1.554 -0.3823  1.6498 -0.0248
  434SOL    HW2 1735   1.578   2.814   1.444 -2.7142 -0.2028  2.1157
  434SOL     MW 1736   1.556   2.835   1.526 -0.4708  0.5035  0.3591
  435SOL     OW 1737   2.845   1.774   0.161 -0.2204 -0.0458 -0.3507
  435SOL    HW1 1738   2.891   1.848   0.118  0.7978 -1.2937 -2.4464
  435SOL    HW2 1739   2.823   1.712   0.092 -2.4674  0.6049 -1.1197
  435SOL     MW 1740   2.848   1.776   0.146 -0.3826 -0.1246 -0.7287
  436SOL     OW 1741   1.361   2.734   0.315 -0.6836 -0.1807 -0.4332
  436SOL    HW1 1742   1.439   2.711   0.362 -1.2357 -2.1441 -1.0451
  436SOL    HW2 1743   1.322   2.817   0.360  2.3351  0.2814  1.4050
  436SOL     MW 1744   1.366   2.742   0.327 -0.3581 -0.3788 -0.2714
  437SOL     OW 1745   0.867   2.895   1.374 -0.2029  0.1769  0.0636
  437SOL    HW1 1746   0.879   2.984   1.337  1.8651 -0.3882 -0.7984
  437SOL    HW2 1747   0.921   2.836   1.326 -1.6578 -1.2789  1.5299
  437SOL     MW 1748   0.876   2.899   1.362 -0.1220 -0.0897  0.1433
  438SOL     OW 1749   0.922   2.642   1.942 -0.1413 -0.1878 -0.4098
  438SOL    HW1 1750   0.870   2.598   2.017  1.6440 -1.1284  0.2793
  438SOL    HW2 1751   0.892   2.607   1.859 -0.0608  0.3726 -0.8346
  438SOL     MW 1752   0.911   2.632   1.941  0.1049 -0.2380 -0.3750
  439SOL     OW 1753   1.139   2.149   0.345 -0.3398 -0.8462 -0.0359
  439SOL    HW1 1754   1.109   2.180   0.433  0.6616 -1.7404 -0.0868
  439SOL    HW2 1755   1.145   2.240   0.303  2.4879 -1.5978  0.1991
  439SOL     MW 1756   1.136   2.165   0.351  0.1654 -1.0634 -0.0116
  440SOL     OW 1757   1.593   2.901   3.026 -0.0357 -0.0203  0.1346
  440SOL    HW1 1758   1.549   2.897   3.110  0.6975 -0.7488 -1.0843
  440SOL    HW2 1759   1.648   2.825   3.023 -3.4290  0.3016 -2.4465
  440SOL     MW 1760   1.594   2.890   3.037 -0.3867 -0.0740 -0.3668
  441SOL     OW 1761   0.324   2.580   0.539 -0.4015  0.5073  0.2739
  441SOL    HW1 1762   0.343   2.561   0.447  1.3363 -0.0803  0.7140
  441SOL    HW2 1763   0.336   2.672   0.543 -0.9959 -1.4599  1.6048
  441SOL     MW 1764   0.328   2.590   0.527 -0.2507  0.1702  0.5075
  442SOL     OW 1765   3.048   2.301   0.639 -0.6050  0.8844  0.1051
  442SOL    HW1 1766   3.076   2.395   0.637 -0.8517  1.1885  1.5404
  442SOL    HW2 1767   2.953   2.301   0.661 -0.1734  0.6891 -1.0750
  442SOL     MW 1768   3.039   2.313   0.642 -0.5806  0.8988  0.1387
  443SOL     OW 1769   1.391   1.773   1.838  0.7097  0.4090 -0.2616
  443SOL    HW1 1770   1.380   1.818   1.758  1.1602 -0.0210  3.2650
  443SOL    HW2 1771   1.343   1.689   1.836  1.6941  1.1641  1.5022
  443SOL     MW 1772   1.383   1.768   1.827  0.8990  0.4519  0.4364
  444SOL     OW 1773   0.890   2.579   1.546  0.6037  0.0473 -0.2631
  444SOL    HW1 1774   0.967   2.515   1.563  1.1939  2.5773  0.1236
  444SOL    HW2 1775   0.836   2.576   1.626 -2.3849 -2.5782 -1.8678
  444SOL     MW 1776   0.893   2.570   1.558  0.2872  0.0347 -0.4238
  445SOL     OW 1777   0.962   0.074   1.273 -0.2856 -0.3885  0.5091
  445SOL    HW1 1778   0.947   0.169   1.271 -1.9169  1.8526 -1.3537
  445SOL    HW2 1779   1.023   0.059   1.200 -0.6852 -1.6586 -1.8965
  445SOL     MW 1780   0.968   0.084   1.263 -0.5536 -0.2604 -0.0541
  446SOL     OW 1781   2.692   2.798   1.083 -0.0986 -0.2417  0.4998
  446SOL    HW1 1782   2.648   2.806   0.998  0.4303  0.7474  0.4168
  446SOL    HW2 1783   2.769   2.737   1.070 -0.5260 -3.3339  1.6788
  446SOL     MW 1784   2.696   2.791   1.070 -0.0852 -0.5192  0.6444
  447SOL     OW 1785   3.041   2.024   1.709  0.1193 -0.2925  0.0482
  447SOL    HW1 1786   3.114   1.961   1.723 -1.8793  0.0547 -2.0628
  447SOL    HW2 1787   2.959   1.979   1.672  0.2519 -0.5246 -0.0637
  447SOL     MW 1788   3.040   2.010   1.706 -0.1269 -0.2773 -0.2451
  448SOL     OW 1789   1.671   2.384   1.662 -0.1633  0.5446  0.3096
  448SOL    HW1 1790   1.618   2.305   1.655  1.8089  2.4829 -1.1831
  448SOL    HW2 1791   1.613   2.464   1.658  2.4133 -2.3473  0.2707
  448SOL     MW 1792   1.656   2.384   1.660  0.4368  0.4188  0.1075
  449SOL     OW 1793   0.787   2.955   0.426 -0.2367  0.1366 -0.5945
  449SOL    HW1 1794   0.727   2.941   0.351 -1.0595  0.6809 -0.1534
  449SOL    HW2 1795   0.740   2.926   0.506  2.8372 -1.1649 -0.0943
  449SOL     MW 1796   0.773   2.949   0.427  0.0603  0.0367 -0.4703
  450SOL     OW 1797   1.210   2.422   0.711 -0.4358  0.2640  0.2853
  450SOL    HW1 1798   1.238   2.345   0.766  0.6614 -0.2912 -1.1713
  450SOL    HW2 1799   1.302   2.450   0.692 -1.8005  1.3537  1.8826
  450SOL     MW 1800   1.226   2.416   0.716 -0.4711  0.3346  0.3039
  451SOL     OW 1801   0.587   2.027   1.657  0.0096 -0.0614 -0.2442
  451SOL    HW1 1802   0.663   2.087   1.640 -0.6026 -2.0261  1.3620
  451SOL    HW2 1803   0.582   1.976   1.576 -0.1540 -2.1239  2.6592
  451SOL     MW 1804   0.597   2.028   1.644 -0.0928 -0.5927  0.3508
  452SOL     OW 1805   0.259   2.748   0.100  0.1845 -0.0238  0.0062
  452SOL    HW1 1806   0.349   2.759   0.090  0.3599  1.1192 -1.5120
  452SOL    HW2 1807   0.223   2.745   0.007  0.0820  2.1398 -2.6499
  452SOL     MW 1808   0.266   2.749   0.087  0.1941  0.4125 -0.5446
  453SOL     OW 1809   0.409   3.000   1.696  0.1284  0.3402 -0.2160
  453SOL    HW1 1810   0.508   3.024   1.700  1.6980 -0.1971 -1.9842
  453SOL    HW2 1811   0.394   3.009   1.604  0.9098  0.3161  1.5573
  453SOL     MW 1812   0.420   3.004   1.685  0.4386  0.2661 -0.2154
  454SOL     OW 1813   1.004   2.729   1.192 -0.5561 -1.3039  0.1897
  454SOL    HW1 1814   0.945   2.654   1.197 -0.1416  0.1248  0.9351
  454SOL    HW2 1815   0.957   2.784   1.130 -0.1226  0.4378  0.0175
  454SOL     MW 1816   0.990   2.727   1.184 -0.4442 -0.8856  0.2653
  455SOL     OW 1817   1.528   2.952   0.207  0.2161  0.1024  0.3029
  455SOL    HW1 1818   1.610   2.944   0.257 -0.1549 -1.5056  1.3577
  455SOL    HW2 1819   1.457   2.908   0.257  0.4279  0.2503 -2.0438
  455SOL     MW 1820   1.530   2.945   0.220  0.1951 -0.0903  0.1324
  456SOL     OW 1821   2.882   0.393   1.317 -0.1215  0.1890 -0.1206
  456SOL    HW1 1822   2.857   0.301   1.296 -0.2132 -3.1137 -2.3820
  456SOL    HW2 1823   2.934   0.416   1.242 -1.4562 -0.8503  0.1318
  456SOL     MW 1824   2.886   0.384   1.304 -0.3097 -0.3839 -0.3857
  457SOL     OW 1825   0.912   1.561   3.005  0.0854 -0.1256 -0.0480
  457SOL    HW1 1826   0.826   1.569   3.049  2.4155  0.4080 -2.7138
  457SOL    HW2 1827   0.960   1.482   3.025  1.0929 -0.5478  1.5285
  457SOL     MW 1828   0.907   1.552   3.014  0.5257 -0.1109 -0.1917
  458SOL     OW 1829   1.460   1.420   0.637 -0.3726  0.1546  0.0523
  458SOL    HW1 1830   1.373   1.440   0.682 -1.6123 -1.5112  0.2304
  458SOL    HW2 1831   1.434   1.359   0.574 -0.6901 -0.3592 -2.5099
  458SOL     MW 1832   1.445   1.415   0.635 -0.5780 -0.1330 -0.2623
  459SOL     OW 1833   1.580   0.132   0.228 -0.1780 -0.5651 -0.2446
  459SOL    HW1 1834   1.563   0.037   0.213  0.1904 -0.6718  1.1137
  459SOL    HW2 1835   1.511   0.188   0.178 -1.5522 -3.1207 -1.3484
  459SOL     MW 1836   1.568   0.127   0.219 -0.3107 -0.9164 -0.2110
  460SOL     OW 1837   1.741   2.165   0.644  0.8938 -0.0138  0.1017
  460SOL    HW1 1838   1.641   2.174   0.669 -2.3514  1.6362 -2.1406
  460SOL    HW2 1839   1.736   2.096   0.573 -0.6163  0.6997  1.6313
  460SOL     MW 1840   1.727   2.157   0.638  0.2664  0.2980  0.0077
  461SOL     OW 1841   0.548   2.427   0.605 -0.1362 -0.2496 -0.1209
  461SOL    HW1 1842   0.485   2.499   0.592  1.8811  1.1845 -0.7575
  461SOL    HW2 1843   0.524   2.387   0.693 -0.4563  0.6727 -1.3650
  461SOL     MW 1844   0.536   2.431   0.615  0.0877  0.0613 -0.3690
  462SOL     OW 1845   0.292   0.244   1.277  0.4716  0.0678  0.3940
  462SOL    HW1 1846   0.287   0.174   1.206 -0.7985 -2.9163 -2.8946
  462SOL    HW2 1847   0.380   0.263   1.279 -3.1724 -0.0025  0.8351
  462SOL     MW 1848   0.303   0.237   1.268 -0.1768 -0.3352  0.0183
  463SOL     OW 1849   0.984   0.007   0.698 -0.2847 -0.7874 -0.0264
  463SOL    HW1 1850   1.003   0.017   0.605 -0.2780  0.8658  0.3325
  463SOL    HW2 1851   0.889   0.026   0.703 -0.3003  0.4490  2.2071
  463SOL     MW 1852   0.974   0.011   0.686 -0.2859 -0.4061  0.3156
  464SOL     OW 1853   0.781   2.983   2.191  0.0457  0.6171  0.8356
  464SOL    HW1 1854   0.746   2.899   2.210  2.8541  4.4415 -0.4073
  464SOL    HW2 1855   0.790   3.031   2.274  0.6012  2.0610  3.5104
  464SOL     MW 1856   0.778   2.978   2.205  0.4895  1.3122  1.0245
  465SOL     OW 1857   0.716   0.296   0.538 -0.1562  0.6784  0.1173
  465SOL    HW1 1858   0.705   0.271   0.627 -0.7745  0.9849 -1.2137
  465SOL    HW2 1859   0.737   0.218   0.484 -0.3211  1.6655 -0.8518
  465SOL     MW 1860   0.717   0.282   0.542 -0.2595  0.8491 -0.1862
  466SOL     OW 1861   1.061   1.984   0.730 -0.3234  0.2473  0.3549
  466SOL    HW1 1862   1.052   1.913   0.662  0.8995  0.1474 -0.5757
  466SOL    HW2 1863   1.049   2.069   0.682  2.7115 -0.4604 -2.0112
  466SOL     MW 1864   1.058   1.986   0.715  0.2384  0.1408 -0.0801
  467SOL     OW 1865   1.241   2.240   0.912  0.0231 -0.2938 -0.6021
  467SOL    HW1 1866   1.330   2.282   0.920  0.4847  2.4970 -1.5768
  467SOL    HW2 1867   1.247   2.144   0.910  4.0046  1.7730  0.8015
  467SOL     MW 1868   1.253   2.233   0.913  0.6093  0.3471 -0.5455
  468SOL     OW 1869   0.345   2.588   2.009 -0.3360  0.2449  0.3074
  468SOL    HW1 1870   0.369   2.524   1.939  0.9125  0.7588 -1.7491
  468SOL    HW2 1871   0.416   2.658   1.998 -1.4307 -2.3975  0.5248
  468SOL     MW 1872   0.358   2.588   1.998 -0.3157 -0.0359  0.0647
  469SOL     OW 1873   0.367   2.136   1.812 -0.2577 -0.4997 -0.2845
  469SOL    HW1 1874   0.295   2.077   1.797  0.2377 -0.6418 -0.6314
  469SOL    HW2 1875   0.435   2.108   1.750  0.0057 -2.1480  0.7267
  469SOL     MW 1876   0.367   2.124   1.802 -0.1576 -0.7359 -0.1968
  470SOL     OW 1877   3.027   2.570   0.138  0.0528  0.3508 -0.4106
  470SOL    HW1 1878   2.941   2.537   0.162 -1.0891  3.1808  1.1169
  470SOL    HW2 1879   3.028   2.569   0.041  1.1049 -0.3032 -1.5715
  470SOL     MW 1880   3.016   2.566   0.128  0.0410  0.6379 -0.3622
  471SOL     OW 1881   1.260   2.736   1.399  0.0140  0.0957  0.3013
  471SOL    HW1 1882   1.194   2.768   1.467  0.7539 -1.2898  4.2119
  471SOL    HW2 1883   1.199   2.723   1.330 -0.8373  0.1476  2.1938
  471SOL     MW 1884   1.244   2.738   1.399 -0.0007 -0.0802  1.0670
  472SOL     OW 1885   2.898   2.092   0.348 -0.0466 -0.1407  0.8981
  472SOL    HW1 1886   2.918   2.080   0.245 -3.0418  0.4524 -2.8180
  472SOL    HW2 1887   2.892   2.001   0.392 -0.4907 -1.8787  1.6927
  472SOL     MW 1888   2.900   2.078   0.340 -0.5004 -0.2918  0.5127
  473SOL     OW 1889   0.803   2.556   1.259  0.4736  0.3005 -0.1117
  473SOL    HW1 1890   0.841   2.471   1.235 -1.0989  0.1067  2.8986
  473SOL    HW2 1891   0.786   2.541   1.359  0.8208 -2.1992  0.3796
  473SOL     MW 1892   0.806   2.543   1.269  0.3119 -0.0549  0.3503
  474SOL     OW 1893   0.757   2.247   1.723 -0.4181  0.2080  0.1411
  474SOL    HW1 1894   0.841   2.218   1.756  0.1571  0.6219  1.7031
  474SOL    HW2 1895   0.777   2.258   1.633  0.2551 -0.2264 -0.1501
  474SOL     MW 1896   0.771   2.244   1.715 -0.2534  0.2053  0.3088
  475SOL     OW 1897   1.614   0.024   1.442 -0.1521  0.7952  0.0243
  475SOL    HW1 1898   1.534   0.046   1.391  0.0340 -1.3319  3.0104
  475SOL    HW2 1899   1.614  -0.069   1.452  1.2772  1.2132 -0.2318
  475SOL     MW 1900   1.603   0.015   1.436  0.0610  0.5697  0.3845
  476SOL     OW 1901   1.490   2.627   0.826  0.3125  0.8729  0.6561
  476SOL    HW1 1902   1.456   2.629   0.912 -2.0657  0.8896  0.7592
  476SOL    HW2 1903   1.523   2.717   0.811  1.4940  1.6244 -3.4942
  476SOL     MW 1904   1.490   2.639   0.835  0.1546  0.9742  0.1221
  477SOL     OW 1905   0.851   2.488   0.690 -0.2153 -0.3660  0.5114
  477SOL    HW1 1906   0.878   2.554   0.622  1.7624  2.5588 -3.3287
  477SOL    HW2 1907   0.833   2.414   0.630 -0.5741  0.8814 -1.6220
  477SOL     MW 1908   0.852   2.487   0.673 -0.0017  0.1844 -0.2768
  478SOL     OW 1909   0.217   2.655   0.909 -1.0595 -0.0694  0.1442
  478SOL    HW1 1910   0.258   2.745   0.927  1.5034  1.5007  1.6580
  478SOL    HW2 1911   0.279   2.583   0.896  0.5530 -0.1094 -0.5915
  478SOL     MW 1912   0.230   2.657   0.910 -0.5086  0.1325  0.2469
  479SOL     OW 1913   1.425   1.932   1.297  0.8812  0.0510 -0.2524
  479SOL    HW1 1914   1.386   1.976   1.371  0.4823 -0.2639  1.8706
  479SOL    HW2 1915   1.499   1.888   1.340  0.8627 -1.4643 -0.6764
  479SOL     MW 1916   1.429   1.932   1.312  0.8261 -0.1905 -0.0282
  480SOL     OW 1917   1.842   2.391   1.322 -0.0452 -0.2135  0.9779
  480SOL    HW1 1918   1.871   2.312   1.363  1.7050  1.2780 -1.1282
  480SOL    HW2 1919   1.890   2.395   1.237 -3.4795 -0.4736  0.4764
  480SOL     MW 1920   1.852   2.381   1.316 -0.2674 -0.0511  0.6338
  481SOL     OW 1921   1.181   0.116   1.117 -0.0201 -0.1000  0.0997
  481SOL    HW1 1922   1.225   0.061   1.048 -0.9502 -2.8344 -1.3581
  481SOL    HW2 1923   1.197   0.206   1.092 -1.1209  0.7946  1.4291
  481SOL     MW 1924   1.189   0.121   1.105 -0.2881 -0.3428  0.0828
  482SOL     OW 1925   1.016   0.033   0.415 -1.1019 -0.0911 -0.4813
  482SOL    HW1 1926   0.932  -0.008   0.396 -1.9885 -1.1950 -0.6721
  482SOL    HW2 1927   1.004   0.127   0.397 -3.2213 -0.0414 -1.7963
  482SOL     MW 1928   1.003   0.040   0.410 -1.4985 -0.2302 -0.6800
  483SOL     OW 1929   0.409   2.861   0.526  0.1914 -0.2644 -0.5753
  483SOL    HW1 1930   0.335   2.875   0.472 -1.1786 -0.0778 -0.8060
  483SOL    HW2 1931   0.391   2.909   0.608  0.7948  2.5024 -2.6993
  483SOL     MW 1932   0.397   2.869   0.529  0.0902  0.1253 -0.8860
  484SOL     OW 1933   1.665   1.865   1.436 -0.1680  0.5581 -0.1850
  484SOL    HW1 1934   1.725   1.943   1.412  3.0231  1.5321 -0.8094
  484SOL    HW2 1935   1.681   1.861   1.531  1.1493  0.4626 -0.9649
  484SOL     MW 1936   1.675   1.875   1.446  0.4269  0.6740 -0.3703
  485SOL     OW 1937   0.554   2.300   0.344  0.0367  0.8599 -0.0283
  485SOL    HW1 1938   0.615   2.356   0.401  2.7157 -1.2558  1.3254
  485SOL    HW2 1939   0.479   2.356   0.363 -0.4934 -1.1564 -3.8947
  485SOL     MW 1940   0.552   2.314   0.354  0.3202  0.3147 -0.3598
  486SOL     OW 1941   0.094   2.453   1.438  0.1216  0.0270  0.3326
  486SOL    HW1 1942   0.125   2.544   1.408 -0.7482 -0.6249 -1.5294
  486SOL    HW2 1943   0.112   2.468   1.531 -3.2838 -0.7163  0.3237
  486SOL     MW 1944   0.101   2.467   1.446 -0.4424 -0.1571  0.0858
  487SOL     OW 1945   1.247   1.631   1.004 -0.2161 -0.3201  0.6400
  487SOL    HW1 1946   1.223   1.722   1.035 -1.3282  2.0978 -1.3462
  487SOL    HW2 1947   1.344   1.641   1.004  1.2265  2.7208  2.1151
  487SOL     MW 1948   1.257   1.644   1.008 -0.1725  0.4001  0.5725
  488SOL     OW 1949   1.545   1.873   0.554  0.1296 -0.3098 -0.1810
  488SOL    HW1 1950   1.564   1.934   0.483  1.6698 -1.1132 -2.5401
  488SOL    HW2 1951   1.458   1.837   0.530 -0.0605 -1.1680 -0.7522
  488SOL     MW 1952   1.536   1.876   0.541  0.3077 -0.5290 -0.5676
  489SOL     OW 1953   0.763   0.796   0.512  0.0166  0.2103  0.1348
  489SOL    HW1 1954   0.785   0.712   0.482  0.5577  2.1577 -2.3504
  489SOL    HW2 1955   0.770   0.789   0.608  1.8937 -3.5078 -0.0078
  489SOL     MW 1956   0.767   0.784   0.521  0.3356 -0.0233 -0.2119
  490SOL     OW 1957   1.396   2.103   0.405 -0.1293  0.0093  0.2142
  490SOL    HW1 1958   1.441   2.189   0.401 -1.9496  1.4622 -0.0352
  490SOL    HW2 1959   1.303   2.121   0.382 -2.0221  0.3552  1.3932
  490SOL     MW 1960   1.389   2.116   0.402 -0.6192  0.2467  0.3369
  491SOL     OW 1961   1.231   2.958   0.399 -0.2441  0.1154  0.2617
  491SOL    HW1 1962   1.244   3.003   0.481  0.2318 -0.5416  0.6388
  491SOL    HW2 1963   1.134   2.979   0.391 -0.2112  0.7398 -0.1802
  491SOL     MW 1964   1.220   2.967   0.408 -0.1769  0.1111  0.2532
  492SOL     OW 1965   1.473   2.147   0.694  0.0892  0.1945 -0.0608
  492SOL    HW1 1966   1.446   2.114   0.604 -1.8953  0.6016 -1.5548
  492SOL    HW2 1967   1.444   2.083   0.762 -1.2285  0.8900  0.5180
  492SOL     MW 1968   1.466   2.135   0.691 -0.3465  0.3400 -0.1815
  493SOL     OW 1969   0.166   2.965   0.414 -0.0765 -0.4186  1.0935
  493SOL    HW1 1970   0.114   3.019   0.478 -0.2093 -1.5041  1.3611
  493SOL    HW2 1971   0.160   3.000   0.321  1.5809 -0.2005 -0.4674
  493SOL     MW 1972   0.159   2.977   0.410  0.1247 -0.5330  0.9229
  494SOL     OW 1973   0.400   2.401   1.801  0.5911  0.0997 -0.3847
  494SOL    HW1 1974   0.380   2.300   1.809 -2.2094 -1.0424  0.0041
  494SOL    HW2 1975   0.442   2.411   1.720  1.7107 -1.4057  1.7050
  494SOL     MW 1976   0.403   2.389   1.791  0.3693 -0.2496 -0.0577
  495SOL     OW 1977   2.910   1.653   2.723  0.2597  0.0260  0.2568
  495SOL    HW1 1978   2.876   1.724   2.771 -0.7785 -2.2220  0.5329
  495SOL    HW2 1979   2.896   1.572   2.774 -0.7817 -0.1096 -0.2888
  495SOL     MW 1980   2.903   1.652   2.736 -0.0146 -0.2885  0.2212
  496SOL     OW 1981   2.790   2.284   2.684  0.6874  0.4019 -0.5445
  496SOL    HW1 1982   2.825   2.201   2.716  2.5258  1.3108 -3.3443
  496SOL    HW2 1983   2.876   2.336   2.683  1.8435  1.8601 -0.3789
  496SOL     MW 1984   2.806   2.280   2.688  1.0825  0.7142 -0.8921
  497SOL     OW 1985   1.491   2.313   2.509 -0.2620 -0.2659 -0.5350
  497SOL    HW1 1986   1.487   2.258   2.424 -0.1123 -2.0288 -0.7004
  497SOL    HW2 1987   1.479   2.250   2.579 -0.2899 -1.3584  2.8392
  497SOL     MW 1988   1.489   2.297   2.507 -0.2459 -0.6426 -0.1116
  498SOL     OW 1989   1.566   2.761   2.255  0.5101 -0.7096 -0.8297
  498SOL    HW1 1990   1.588   2.667   2.232  0.5843 -1.2349 -2.2180
  498SOL    HW2 1991   1.627   2.778   2.336  0.4735 -0.5941  0.7206
  498SOL     MW 1992   1.577   2.751   2.262  0.5151 -0.7637 -0.8083
  499SOL     OW 1993   0.909   0.146   0.018 -0.4499 -0.0482 -0.1061
  499SOL    HW1 1994   0.876   0.172   0.103 -0.3037 -2.4986  1.5001
  499SOL    HW2 1995   0.907   0.052   0.022 -0.2279 -1.1099  0.0244
  499SOL     MW 1996   0.905   0.137   0.030 -0.4013 -0.5116  0.1230
  500SOL     OW 1997   1.029   2.467   2.757 -0.2503 -0.0519 -0.1711
  500SOL    HW1 1998   1.063   2.455   2.847  0.7434  0.5989 -0.6136
  500SOL    HW2 1999   0.969   2.538   2.784  1.2938  0.4166 -0.0846
  500SOL     MW 2000   1.026   2.475   2.773  0.0845  0.0957 -0.2181
  501SOL     OW 2001   1.734   2.216   0.018 -0.4167  0.3240 -0.0271
  501SOL    HW1 2002   1.709   2.310   0.029  0.5866  0.3112 -1.6394
  501SOL    HW2 2003   1.831   2.212   0.030 -0.2053  1.7582 -1.8347
  501SOL     MW 2004   1.744   2.228   0.021 -0.2565  0.5116 -0.4783
  502SOL     OW 2005   0.172   2.762   2.945 -0.1632  1.0108 -0.9740
  502SOL    HW1 2006   0.078   2.763   2.928 -0.8723 -0.2796 -0.1447
  502SOL    HW2 2007   0.204   2.833   2.891 -2.1890 -0.4819 -3.4649
  502SOL     MW 2008   0.164   2.772   2.936 -0.5241  0.6436 -1.1933
  503SOL     OW 2009   1.154   2.606   2.093  0.2616 -0.1003 -0.1694
  503SOL    HW1 2010   1.226   2.606   2.033  2.6719 -0.2707  1.9075
  503SOL    HW2 2011   1.073   2.623   2.042 -1.3421  1.3689  1.1318
  503SOL     MW 2012   1.153   2.608   2.078  0.3680  0.0711  0.2763
  504SOL     OW 2013   0.085   2.632   2.079  0.3006  0.0851 -0.2676
  504SOL    HW1 2014   0.175   2.619   2.053  1.1685 -0.8037 -0.6438
  504SOL    HW2 2015   0.047   2.544   2.099 -2.8303  1.8700  0.5823
  504SOL     MW 2016   0.092   2.619   2.078  0.0020  0.2033 -0.2051
  505SOL     OW 2017   1.639   2.663   2.712  0.3102  0.1298  0.4485
  505SOL    HW1 2018   1.678   2.694   2.622  1.4662  0.5341 -1.1670
  505SOL    HW2 2019   1.576   2.736   2.722  0.4350 -4.1346 -1.2687
  505SOL     MW 2020   1.636   2.677   2.702  0.4792 -0.3795  0.0088
  506SOL     OW 2021   1.598   0.029   2.857 -0.0534 -0.1879  0.8242
  506SOL    HW1 2022   1.639  -0.009   2.928 -1.8567 -1.7364  0.4377
  506SOL    HW2 2023   1.645  -0.014   2.786  1.4640 -0.1527  1.3459
  506SOL     MW 2024   1.610   0.018   2.857 -0.0911 -0.3876  0.8420
  507SOL     OW 2025   0.882   2.680   2.850 -0.0451 -0.3954 -0.1577
  507SOL    HW1 2026   0.924   2.743   2.788 -0.2634  0.7512 -1.0088
  507SOL    HW2 2027   0.787   2.683   2.841  0.8000  1.2346  3.4391
  507SOL     MW 2028   0.875   2.688   2.841  0.0376 -0.0290  0.2046
  508SOL     OW 2029   1.173   2.105   2.566  0.9545  0.3230 -0.1597
  508SOL    HW1 2030   1.248   2.114   2.618  0.4973  1.9763 -3.3095
  508SOL    HW2 2031   1.094   2.121   2.626  0.9638  0.6791  0.6643
  508SOL     MW 2032   1.173   2.108   2.580  0.8954  0.5881 -0.4666
  509SOL     OW 2033   0.588   2.575   2.822 -0.1808  0.3202 -0.0892
  509SOL    HW1 2034   0.588   2.527   2.738  0.3321  1.1929 -2.2540
  509SOL    HW2 2035   0.559   2.667   2.805  1.5446  0.2254 -2.0072
  509SOL     MW 2036   0.584   2.581   2.809  0.1145  0.4229 -0.6279
  510SOL     OW 2037   1.494   2.595   1.677 -0.0617 -0.0525 -0.1698
  510SOL    HW1 2038   1.521   2.692   1.654  0.2939  2.0278 -0.4948
  510SOL    HW2 2039   1.423   2.596   1.744  0.1030  1.6732  2.5971
  510SOL     MW 2040   1.488   2.608   1.683  0.0069  0.4497  0.1524
  511SOL     OW 2041   0.323   2.550   2.535  0.0387  0.3954  0.2005
  511SOL    HW1 2042   0.409   2.523   2.581 -0.2898 -2.3504  1.8741
  511SOL    HW2 2043   0.350   2.556   2.441 -0.1754 -1.0131  0.6804
  511SOL     MW 2044   0.338   2.547   2.529 -0.0329 -0.1527  0.4846
  512SOL     OW 2045   1.024   2.015   2.874 -0.5880 -0.0312  0.3478
  512SOL    HW1 2046   0.952   2.066   2.913  0.4734  2.9475 -0.4597
  512SOL    HW2 2047   1.025   1.933   2.925 -0.9806  2.2184  2.8805
  512SOL     MW 2048   1.014   2.011   2.886 -0.4998  0.6586  0.5754
  513SOL     OW 2049   1.645   2.525   2.184  0.6837 -0.3736  0.4444
  513SOL    HW1 2050   1.713   2.549   2.105 -1.3098  0.2902 -0.8015
  513SOL    HW2 2051   1.689   2.500   2.263  0.1436  2.8288 -0.5175
  513SOL     MW 2052   1.660   2.525   2.184  0.3494  0.1365  0.1531
  514SOL     OW 2053   0.176   2.348   2.659  0.5394 -0.5210  0.0401
  514SOL    HW1 2054   0.231   2.419   2.617  0.8031  0.4253  0.0521
  514SOL    HW2 2055   0.224   2.326   2.739  2.0253  4.4125  0.3416
  514SOL     MW 2056   0.190   2.354   2.664  0.7703  0.2548  0.0814
  515SOL     OW 2057   1.072   1.965   1.872 -0.1318  1.5623  0.7405
  515SOL    HW1 2058   1.055   2.055   1.883  1.5435 -2.1629  2.5282
  515SOL    HW2 2059   1.142   1.937   1.938  0.8569  0.7100  2.7937
  515SOL     MW 2060   1.079   1.973   1.882  0.2197  0.9583  1.2473
  516SOL     OW 2061   1.396   2.538   2.943  0.0776 -0.1887  0.1880
  516SOL    HW1 2062   1.399   2.549   2.846  2.5368  0.6583 -1.2133
  516SOL    HW2 2063   1.304   2.507   2.960 -0.6833 -0.8990  1.2032
  516SOL     MW 2064   1.384   2.536   2.932  0.3016 -0.1706  0.1371
  517SOL     OW 2065   0.611   2.363   2.284 -0.0951  0.3636 -0.4253
  517SOL    HW1 2066   0.544   2.435   2.285  0.4623  1.0047  3.4126
  517SOL    HW2 2067   0.581   2.315   2.211  2.6480 -0.3662  0.8715
  517SOL     MW 2068   0.598   2.366   2.274  0.3404  0.3519  0.2522
  518SOL     OW 2069   1.779   0.021   3.068 -0.4534 -0.1817 -0.1957
  518SOL    HW1 2070   1.749   0.095   3.123  0.8254 -2.9605  1.1883
  518SOL    HW2 2071   1.722  -0.047   3.104 -1.9326  2.7077 -0.5578
  518SOL     MW 2072   1.767   0.022   3.080 -0.4798 -0.1671 -0.0609
  519SOL     OW 2073   0.724   2.517   1.773 -0.3113  0.6227 -0.1326
  519SOL    HW1 2074   0.736   2.427   1.744 -0.1600 -1.6948 -2.0101
  519SOL    HW2 2075   0.629   2.526   1.767  0.8663  0.2142 -1.6866
  519SOL     MW 2076   0.713   2.507   1.769 -0.1359  0.2630 -0.5853
  520SOL     OW 2077   1.216   2.199   2.946  0.1320 -0.0672  0.0459
  520SOL    HW1 2078   1.161   2.126   2.900 -1.0501 -0.3951  0.0855
  520SOL    HW2 2079   1.273   2.158   3.017  0.5202  0.5794 -0.7831
  520SOL     MW 2080   1.217   2.184   2.949  0.0272 -0.0252 -0.0582
  521SOL     OW 2081   1.770   2.061   2.207  0.0101 -0.2206  0.1251
  521SOL    HW1 2082   1.751   2.077   2.114 -0.2413 -1.5517  0.5597
  521SOL    HW2 2083   1.785   1.963   2.222 -2.3113  0.6468  0.9570
  521SOL     MW 2084   1.769   2.050   2.197 -0.3293 -0.2818  0.2922
  522SOL     OW 2085   2.901   2.524   2.269  0.3676 -0.1866  0.3284
  522SOL    HW1 2086   2.988   2.489   2.297 -2.0320  0.0600 -1.2203
  522SOL    HW2 2087   2.918   2.617   2.247 -1.0629 -1.2925  2.7490
  522SOL     MW 2088   2.915   2.532   2.270 -0.1377 -0.3000  0.4435
  523SOL     OW 2089   0.879   1.508   2.147  0.7434 -0.2716 -0.0075
  523SOL    HW1 2090   0.861   1.567   2.073  0.5416  0.3772 -1.5210
  523SOL    HW2 2091   0.905   1.430   2.100 -1.2492  0.7787 -0.8035
  523SOL     MW 2092   0.880   1.506   2.131  0.4539 -0.0474 -0.3122
  524SOL     OW 2093   0.580   2.335   2.964  0.0322 -0.1185 -0.5104
  524SOL    HW1 2094   0.583   2.422   2.927  0.3580  0.6717 -1.0185
  524SOL    HW2 2095   0.676   2.312   2.963 -1.6133  3.2880  1.8128
  524SOL     MW 2096   0.593   2.344   2.959 -0.1419  0.4352 -0.2709
  525SOL     OW 2097   0.478   2.191   2.121 -0.4293 -0.5738 -0.6937
  525SOL    HW1 2098   0.459   2.118   2.175  1.9157  1.0108  3.5194
  525SOL    HW2 2099   0.551   2.162   2.059 -0.4886  1.4736  1.3896
  525SOL     MW 2100   0.485   2.177   2.120 -0.1278 -0.0946  0.1370
  526SOL     OW 2101   0.685   2.147   1.968  0.0608 -0.0712 -0.1457
  526SOL    HW1 2102   0.696   2.179   1.883 -0.2876  0.7818 -0.8236
  526SOL    HW2 2103   0.765   2.184   2.017 -2.0640  0.4923 -3.7974
  526SOL     MW 2104   0.697   2.156   1.963 -0.2655  0.1157 -0.7170
  527SOL     OW 2105   1.298   1.929   2.055  0.2307  0.4315 -0.1168
  527SOL    HW1 2106   1.278   1.880   2.130  0.7760 -0.3535 -1.1356
  527SOL    HW2 2107   1.343   1.879   1.992 -0.7263  2.6917 -0.3899
  527SOL     MW 2108   1.301   1.916   2.057  0.1764  0.6261 -0.2873
  528SOL     OW 2109   0.655   2.912   2.921 -0.2441 -0.1753  0.2931
  528SOL    HW1 2110   0.635   3.002   2.950 -0.3305  0.2679 -1.3150
  528SOL    HW2 2111   0.661   2.916   2.824 -2.0221  1.8736 -1.7804
  528SOL     MW 2112   0.653   2.924   2.912 -0.4901  0.1535 -0.1927
  529SOL     OW 2113   0.991   2.229   1.889 -0.3804  0.1340  0.9739
  529SOL    HW1 2114   1.038   2.235   1.974  1.1537 -1.1743 -1.1198
  529SOL    HW2 2115   1.044   2.287   1.836  0.8021 -1.9650  1.9513
  529SOL     MW 2116   1.004   2.237   1.893 -0.0220 -0.3156  0.8266
  530SOL     OW 2117   1.121   2.438   3.030  0.1620  0.3890  0.6629
  530SOL    HW1 2118   1.137   2.450   3.122 -3.1377  2.2591  3.2198
  530SOL    HW2 2119   1.135   2.341   3.017  1.5072  1.7525  0.8678
  530SOL     MW 2120   1.125   2.426   3.041 -0.0959  0.8156  1.0273
  531SOL     OW 2121   0.902   1.863   2.645 -0.4993  0.4916 -0.0065
  531SOL    HW1 2122   0.921   1.915   2.721  0.3918  0.0344  0.4673
  531SOL    HW2 2123   0.851   1.784   2.663  0.4284 -3.3284 -2.7749
  531SOL     MW 2124   0.898   1.860   2.658 -0.2593 -0.0727 -0.3093
  532SOL     OW 2125   1.700   0.285   2.829  0.1093  0.2024 -0.5134
  532SOL    HW1 2126   1.674   0.191   2.859 -1.5190  0.9963 -0.0970
  532SOL    HW2 2127   1.777   0.307   2.884 -0.9536  0.2554  2.2454
  532SOL     MW 2128   1.707   0.276   2.840 -0.2458  0.3141 -0.0945
  533SOL     OW 2129   1.766   2.681   2.974  0.2173 -0.7536  0.0240
  533SOL    HW1 2130   1.736   2.596   3.015 -3.0769 -3.4893 -1.1971
  533SOL    HW2 2131   1.727   2.691   2.883 -0.5644  1.1105 -0.2086
  533SOL     MW 2132   1.757   2.671   2.967 -0.3205 -0.8686 -0.1678
  534SOL     OW 2133   1.725   2.460   2.430  0.1123 -0.0408  0.2165
  534SOL    HW1 2134   1.663   2.406   2.473  0.9945 -0.3310 -1.1780
  534SOL    HW2 2135   1.801   2.443   2.490 -2.0786  0.1260 -0.0110
  534SOL     MW 2136   1.727   2.451   2.444 -0.0604 -0.0571  0.0025
  535SOL     OW 2137   1.847   2.326   1.920 -0.3044 -0.0182 -0.1378
  535SOL    HW1 2138   1.779   2.332   1.855  1.9180  0.2327  0.6717
  535SOL    HW2 2139   1.931   2.362   1.882  1.6257 -1.9196 -0.4719
  535SOL     MW 2140   1.849   2.332   1.907  0.2435 -0.2359 -0.0751
  536SOL     OW 2141   0.453   1.796   2.016 -0.3737 -0.6387 -0.2252
  536SOL    HW1 2142   0.448   1.746   1.933  1.8354 -0.5017 -2.4997
  536SOL    HW2 2143   0.538   1.841   2.014  0.9589 -1.1052 -0.8785
  536SOL     MW 2144   0.464   1.796   2.004  0.0936 -0.6822 -0.6115
  537SOL     OW 2145   1.074   0.210   2.904  0.2094 -0.5870 -0.4716
  537SOL    HW1 2146   1.014   0.178   2.974  0.9431  2.5832  0.2824
  537SOL    HW2 2147   1.051   0.307   2.892 -1.8695  1.9106 -0.4261
  537SOL     MW 2148   1.063   0.219   2.911  0.0320  0.1608 -0.3661
  538SOL     OW 2149   1.299   0.026   2.976  0.1627 -0.4382 -0.1067
  538SOL    HW1 2150   1.250   0.098   2.930  1.2147 -1.6594  0.7735
  538SOL    HW2 2151   1.380   0.024   2.931  2.1536  0.1550  2.3256
  538SOL     MW 2152   1.303   0.035   2.964  0.5642 -0.5211  0.3303
  539SOL     OW 2153   0.763   2.687   2.495  0.5785  0.6354 -0.2529
  539SOL    HW1 2154   0.824   2.749   2.525 -0.6074  2.7551 -0.0658
  539SOL    HW2 2155   0.800   2.601   2.495 -0.2277  3.5780  0.3750
  539SOL     MW 2156   0.776   2.683   2.499  0.3157  1.3033 -0.1454
  540SOL     OW 2157   0.335   2.267   2.866  0.2262  0.0069 -0.0931
  540SOL    HW1 2158   0.417   2.306   2.890  0.4951  0.5691  0.0476
  540SOL    HW2 2159   0.284   2.245   2.944 -3.2113 -0.8248 -1.4406
  540SOL     MW 2160   0.339   2.269   2.880 -0.1918 -0.0287 -0.2523
  541SOL     OW 2161   0.162   2.869   2.216  0.1121  0.4133 -0.3008
  541SOL    HW1 2162   0.123   2.793   2.171  1.2997 -0.4001 -1.2121
  541SOL    HW2 2163   0.203   2.833   2.299 -0.3887 -0.6616  0.3169
  541SOL     MW 2164   0.162   2.854   2.221  0.2027  0.1641 -0.3395
  542SOL     OW 2165   0.947   2.229   2.668  0.1445 -0.6930 -0.0772
  542SOL    HW1 2166   0.900   2.198   2.748  0.9100  0.2000 -2.6875
  542SOL    HW2 2167   0.994   2.307   2.700  0.4810  0.8606  0.5522
  542SOL     MW 2168   0.947   2.235   2.683  0.2899 -0.3702 -0.3385
  543SOL     OW 2169   1.406   2.532   2.666  0.6633 -0.5103  0.3322
  543SOL    HW1 2170   1.423   2.462   2.602  1.8989  1.1407  0.8534
  543SOL    HW2 2171   1.493   2.564   2.693  1.9477  0.4505 -1.4548
  543SOL     MW 2172   1.419   2.527   2.661  0.9958 -0.1657  0.1652
  544SOL     OW 2173   0.595   0.215   2.724 -0.2325  0.3436 -0.0761
  544SOL    HW1 2174   0.496   0.201   2.738 -3.6639  0.3722  2.6452
  544SOL    HW2 2175   0.614   0.162   2.650 -3.8418 -0.9854  0.0563
  544SOL     MW 2176   0.584   0.206   2.716 -1.1614  0.1721  0.3004
  545SOL     OW 2177   1.513   2.138   2.290 -0.1772  0.3308 -0.8583
  545SOL    HW1 2178   1.478   2.180   2.211 -4.4785 -0.7025 -1.4474
  545SOL    HW2 2179   1.605   2.113   2.275  0.1815 -1.9966  0.5198
  545SOL     MW 2180   1.520   2.140   2.277 -0.6974 -0.1126 -0.7542
  546SOL     OW 2181   2.994   1.997   0.105 -0.3276  0.0296 -0.2331
  546SOL    HW1 2182   3.005   2.077   0.058 -2.6167  0.2379  2.7098
  546SOL    HW2 2183   3.084   1.966   0.118 -1.4260  0.8630 -0.0890
  546SOL     MW 2184   3.007   2.003   0.101 -0.7745  0.1670  0.1742
  547SOL     OW 2185   0.199   2.999   0.115 -0.0168 -0.1377  0.2014
  547SOL    HW1 2186   0.239   3.049   0.040  0.9155  1.3024 -1.6038
  547SOL    HW2 2187   0.238   2.909   0.109  0.4722 -1.3424  1.5121
  547SOL     MW 2188   0.209   2.993   0.104  0.1707 -0.1066  0.1362
  548SOL     OW 2189   0.322   2.536   0.254  0.0653  0.0523 -0.1817
  548SOL    HW1 2190   0.281   2.615   0.213  0.4216  1.2822  2.0535
  548SOL    HW2 2191   0.260   2.460   0.246  1.3013  1.7287 -0.7664
  548SOL     MW 2192   0.308   2.536   0.247  0.2754  0.4358  0.0361
  549SOL     OW 2193   0.707   1.910   2.068  0.3130  0.3097 -0.2133
  549SOL    HW1 2194   0.704   1.995   2.024  0.1058 -0.7175  2.8448
  549SOL    HW2 2195   0.736   1.918   2.161  0.0702 -1.6704  1.5905
  549SOL     MW 2196   0.710   1.922   2.075  0.2536 -0.0871  0.4282
  550SOL     OW 2197   1.841   1.758   2.562  0.4947  0.2310 -0.6092
  550SOL    HW1 2198   1.858   1.786   2.471 -2.4519 -1.3294 -0.0828
  550SOL    HW2 2199   1.849   1.847   2.607  0.8184  0.4553 -1.6599
  550SOL     MW 2200   1.844   1.774   2.556  0.1487  0.0547 -0.6784
  551SOL     OW 2201   0.868   2.349   0.203  0.0472 -0.0393  0.0037
  551SOL    HW1 2202   0.961   2.386   0.194  0.8957 -1.2554  0.8083
  551SOL    HW2 2203   0.883   2.253   0.195 -0.1776 -1.1916 -3.2369
  551SOL     MW 2204   0.882   2.341   0.201  0.1295 -0.3518 -0.3177
  552SOL     OW 2205   1.780   1.811   2.283  0.4083 -0.3219 -0.1640
  552SOL    HW1 2206   1.682   1.796   2.287 -0.8652 -2.1165  0.7631
  552SOL    HW2 2207   1.797   1.755   2.196 -0.8026 -0.2101  2.8428
  552SOL     MW 2208   1.770   1.801   2.272  0.0805 -0.5439  0.3550
  553SOL     OW 2209   1.256   2.329   1.529  0.3112  0.2643  0.0955
  553SOL    HW1 2210   1.275   2.234   1.524 -3.7922  1.6789  1.8932
  553SOL    HW2 2211   1.323   2.380   1.486 -0.2953  0.7283 -0.4900
  553SOL     MW 2212   1.268   2.323   1.523 -0.3102  0.5122  0.2554
  554SOL     OW 2213   0.584   2.860   2.658  0.3710  0.0407  0.2011
  554SOL    HW1 2214   0.530   2.926   2.613  0.7584  2.0143 -2.6625
  554SOL    HW2 2215   0.634   2.808   2.590  1.2883 -2.5351 -0.8002
  554SOL     MW 2216   0.584   2.862   2.643  0.5431 -0.0388 -0.3088
  555SOL     OW 2217   0.573   2.449   2.590 -0.1137  0.3503  0.4035
  555SOL    HW1 2218   0.579   2.360   2.622  1.6651  0.6107 -3.4652
  555SOL    HW2 2219   0.645   2.447   2.519 -1.6280 -3.2400  1.6783
  555SOL     MW 2220   0.583   2.437   2.585 -0.0788 -0.0891  0.0613
  556SOL     OW 2221   0.962   1.798   0.164 -0.3487 -0.4763 -0.0989
  556SOL    HW1 2222   0.984   1.769   0.076 -0.5139 -1.1612  0.3231
  556SOL    HW2 2223   1.051   1.820   0.205 -0.8369  2.6766 -0.2026
  556SOL     MW 2224   0.977   1.797   0.158 -0.4349 -0.1507 -0.0569
  557SOL     OW 2225   0.889   2.709   0.477  0.0327  0.0155  0.6039
  557SOL    HW1 2226   0.944   2.680   0.403  1.4173 -1.1894  0.2374
  557SOL    HW2 2227   0.856   2.790   0.449  0.9173 -1.2100  3.4114
  557SOL     MW 2228   0.892   2.716   0.464  0.3321 -0.3051  0.9260
  558SOL     OW 2229   0.266   2.175   0.056  0.1174  0.4859  0.3237
  558SOL    HW1 2230   0.224   2.089   0.081  0.8259 -1.0170 -2.3081
  558SOL    HW2 2231   0.206   2.229   0.109 -2.1792 -2.6648  0.1550
  558SOL     MW 2232   0.253   2.171   0.066 -0.0921 -0.1281 -0.0458
  559SOL     OW 2233   1.178   2.306   2.121 -0.3530 -0.2858 -0.0226
  559SOL    HW1 2234   1.199   2.394   2.155 -0.9057  1.9590  0.7827
  559SOL    HW2 2235   1.176   2.247   2.194 -2.4476 -3.3683 -0.1190
  559SOL     MW 2236   1.180   2.310   2.135 -0.7023 -0.3963  0.0710
  560SOL     OW 2237   1.974   2.794   0.039 -0.4280  0.2696 -0.5064
  560SOL    HW1 2238   2.027   2.850  -0.010  0.2690  0.6696  1.3503
  560SOL    HW2 2239   1.899   2.769  -0.015  0.6825  0.0425 -0.7956
  560SOL     MW 2240   1.971   2.798   0.026 -0.1895  0.2924 -0.2996
  561SOL     OW 2241   0.448   2.076   0.228  0.3596 -0.5841  0.2400
  561SOL    HW1 2242   0.393   2.110   0.155 -2.0618  0.2188 -1.1309
  561SOL    HW2 2243   0.508   2.134   0.257 -1.6139 -1.3940 -0.9510
  561SOL     MW 2244   0.448   2.088   0.222 -0.2203 -0.5850 -0.0980
  562SOL     OW 2245   0.889   2.203   2.172 -0.3691  0.3291  0.1781
  562SOL    HW1 2246   0.928   2.290   2.170 -0.3352  1.4423  1.1737
  562SOL    HW2 2247   0.955   2.153   2.221 -1.5180  1.5251 -3.5124
  562SOL     MW 2248   0.903   2.208   2.178 -0.5162  0.6338 -0.1775
  563SOL     OW 2249   1.198   0.296   0.578 -0.0240  0.1859  0.3519
  563SOL    HW1 2250   1.166   0.298   0.485 -0.2776  0.2695 -1.1169
  563SOL    HW2 2251   1.218   0.202   0.598 -2.5129 -2.1830 -0.9296
  563SOL     MW 2252   1.196   0.284   0.568 -0.3859 -0.1156 -0.0110
  564SOL     OW 2253   1.104   2.555   2.367  0.1960  0.0732 -0.0919
  564SOL    HW1 2254   1.138   2.585   2.279 -1.2456 -1.5682 -0.8366
  564SOL    HW2 2255   1.138   2.614   2.440  0.3175 -0.8143  0.0440
  564SOL     MW 2256   1.113   2.566   2.365  0.0218 -0.2605 -0.1722
  565SOL     OW 2257   2.857   2.681   2.579 -0.3405 -0.1605  0.2823
  565SOL    HW1 2258   2.924   2.730   2.533 -0.2233 -0.6125  0.2667
  565SOL    HW2 2259   2.780   2.673   2.526  1.3429 -2.0471  5.7179
  565SOL     MW 2260   2.855   2.686   2.566 -0.1029 -0.4691  0.9974
  566SOL     OW 2261   2.252   1.890   2.378 -0.6152 -0.2014  0.2478
  566SOL    HW1 2262   2.270   1.889   2.283 -1.0070 -2.2181  0.3794
  566SOL    HW2 2263   2.298   1.970   2.412  1.4673  1.1475 -0.1663
  566SOL     MW 2264   2.260   1.900   2.370 -0.3921 -0.2895  0.2105
  567SOL     OW 2265   1.134   2.898   0.039 -0.7061  0.5092 -0.5085
  567SOL    HW1 2266   1.186   2.970   0.074  2.7709  1.0765 -0.2645
  567SOL    HW2 2267   1.153   2.887  -0.053  0.0214 -0.1763  0.1105
  567SOL     MW 2268   1.143   2.906   0.032 -0.1514  0.4936 -0.3946
  568SOL     OW 2269   1.636   2.053   2.912 -0.5182 -1.0310  0.6672
  568SOL    HW1 2270   1.674   2.111   2.982  0.8349  0.7753 -2.1766
  568SOL    HW2 2271   1.717   2.039   2.856  2.0886 -2.6717  1.2467
  568SOL     MW 2272   1.652   2.059   2.914  0.0043 -1.0092  0.3685
  569SOL     OW 2273   0.224   2.205   2.435  0.0624  0.5537  0.1565
  569SOL    HW1 2274   0.172   2.258   2.366 -1.0452  0.5784  0.5816
  569SOL    HW2 2275   0.203   2.251   2.514 -1.0197 -1.5496 -0.7135
  569SOL     MW 2276   0.215   2.218   2.436 -0.2265  0.2794  0.0978
  570SOL     OW 2277   1.462   0.449   0.499  0.0191  0.1385 -0.7688
  570SOL    HW1 2278   1.387   0.471   0.550 -0.5049  2.0296 -0.3298
  570SOL    HW2 2279   1.542   0.477   0.550  1.5649  3.0946 -1.3538
  570SOL     MW 2280   1.462   0.455   0.512  0.1539  0.7781 -0.7881
  571SOL     OW 2281   1.489   2.400   1.972  0.2139  0.5946  0.7906
  571SOL    HW1 2282   1.499   2.430   2.063  1.7176 -1.3078 -0.3861
  571SOL    HW2 2283   1.486   2.303   1.975 -1.5763 -0.3251 -2.2545
  571SOL     MW 2284   1.490   2.391   1.985  0.1761  0.2222  0.2336
  572SOL     OW 2285   0.927   2.684   0.081 -0.3176  0.1452 -0.1451
  572SOL    HW1 2286   0.982   2.698   0.005 -0.4513 -0.2963  1.5826
  572SOL    HW2 2287   0.851   2.640   0.052 -0.7661  0.7810  1.5277
  572SOL     MW 2288   0.924   2.680   0.068 -0.3944  0.1708  0.3036
  573SOL     OW 2289   1.145   2.378   0.207  0.8749 -0.6082  0.1720
  573SOL    HW1 2290   1.237   2.385   0.184 -3.8256 -0.8139  1.9526
  573SOL    HW2 2291   1.124   2.463   0.253 -0.4543 -1.4408 -0.4119
  573SOL     MW 2292   1.154   2.390   0.210  0.0794 -0.7452  0.3298
  574SOL     OW 2293   1.094   2.629   0.292 -0.7482 -0.0003  0.1865
  574SOL    HW1 2294   1.180   2.682   0.309  2.3592 -0.7974  0.1599
  574SOL    HW2 2295   1.046   2.674   0.220  1.2346 -2.7518 -0.5791
  574SOL     MW 2296   1.099   2.642   0.285 -0.0766 -0.4685  0.0820
  575SOL     OW 2297   3.065   2.299   1.799 -0.0438  0.0043 -0.1278
  575SOL    HW1 2298   3.071   2.214   1.754 -1.5971  2.4786  0.2516
  575SOL    HW2 2299   3.145   2.345   1.764  0.8168 -0.5003 -0.1884
  575SOL     MW 2300   3.076   2.294   1.789 -0.1352  0.2642 -0.0857
  576SOL     OW 2301   2.832   1.823   2.051 -0.1869  0.0341 -0.1520
  576SOL    HW1 2302   2.846   1.881   1.979 -3.7377 -0.6016  0.5321
  576SOL    HW2 2303   2.757   1.776   2.016  1.0417  2.3914 -2.5071
  576SOL     MW 2304   2.824   1.824   2.037 -0.4933  0.2613 -0.3725
  577SOL     OW 2305   2.094   0.314   0.060 -0.1083 -0.3360  0.5003
  577SOL    HW1 2306   2.036   0.355  -0.006  1.2970 -2.4967 -1.6717
  577SOL    HW2 2307   2.037   0.250   0.100  1.0600  2.8437 -1.4283
  577SOL     MW 2308   2.079   0.311   0.056  0.2313 -0.2015 -0.0407
  578SOL     OW 2309   1.997   2.022   2.455 -0.4488 -0.1848  0.5719
  578SOL    HW1 2310   1.937   2.034   2.387 -1.1127 -1.7689  2.6388
  578SOL    HW2 2311   2.078   1.988   2.413 -0.5108  0.6413  1.2301
  578SOL     MW 2312   2.000   2.019   2.441 -0.5446 -0.2848  0.9315
  579SOL     OW 2313   0.873   2.437   2.497  0.5353  0.0860  0.2519
  579SOL    HW1 2314   0.886   2.361   2.555  1.1692  1.2724  1.9629
  579SOL    HW2 2315   0.966   2.447   2.467  0.1078  1.3908 -1.7056
  579SOL     MW 2316   0.887   2.428   2.501  0.5626  0.4147  0.2194
  580SOL     OW 2317   0.851   2.973   0.043 -0.4023  0.1524  0.4539
  580SOL    HW1 2318   0.940   2.929   0.071  1.4587 -0.8730  2.9701
  580SOL    HW2 2319   0.832   2.922  -0.034 -0.0276 -0.3706  0.0047
  580SOL     MW 2320   0.861   2.960   0.036 -0.1073 -0.0519  0.7266
  581SOL     OW 2321   1.079   2.432   1.710  0.9449 -0.1100 -0.0071
  581SOL    HW1 2322   1.105   2.491   1.781  0.1760 -3.8811  3.0063
  581SOL    HW2 2323   1.157   2.406   1.664 -1.4927 -0.6464 -0.6191
  581SOL     MW 2324   1.093   2.437   1.714  0.5218 -0.6784  0.3097
  582SOL     OW 2325   3.093   2.817   2.499 -0.0596 -0.3137  0.1913
  582SOL    HW1 2326   3.065   2.895   2.557 -1.5287  1.9222  0.4568
  582SOL    HW2 2327   3.190   2.803   2.511 -1.2453  1.6909  0.3324
  582SOL     MW 2328   3.102   2.826   2.508 -0.4099  0.2458  0.2450
  583SOL     OW 2329   1.947   2.445   2.639  0.2800 -0.0322 -0.1691
  583SOL    HW1 2330   2.028   2.475   2.596  0.7201 -2.0873 -1.4003
  583SOL    HW2 2331   1.968   2.359   2.688  1.0292  0.8402  2.6932
  583SOL     MW 2332   1.960   2.437   2.640  0.4370 -0.1882  0.0461
  584SOL     OW 2333   0.203   1.896   2.068 -0.3598 -0.1809 -0.2596
  584SOL    HW1 2334   0.296   1.888   2.051  0.9514 -0.8891 -2.4324
  584SOL    HW2 2335   0.204   1.940   2.156  1.4420  0.7080 -0.3590
  584SOL     MW 2336   0.216   1.901   2.077  0.0509 -0.1570 -0.5594
  585SOL     OW 2337   1.489   2.675   0.058 -0.2647  0.1953 -0.4078
  585SOL    HW1 2338   1.429   2.667  -0.013 -1.0423  2.2116 -2.8836
  585SOL    HW2 2339   1.442   2.691   0.144 -2.0146 -0.7516  1.9691
  585SOL     MW 2340   1.475   2.676   0.060 -0.5982  0.3364 -0.4208
  586SOL     OW 2341   1.350   2.848   2.378  0.8128 -0.5515 -0.0589
  586SOL    HW1 2342   1.426   2.812   2.334 -0.0401  1.3440 -1.6361
  586SOL    HW2 2343   1.389   2.933   2.415  1.4705 -0.2891  1.3467
  586SOL     MW 2344   1.365   2.854   2.377  0.7870 -0.2668 -0.0816
  587SOL     OW 2345   1.280   1.577   2.125  0.2465 -0.5645  0.4505
  587SOL    HW1 2346   1.258   1.515   2.199  1.4667  0.6264  1.0521
  587SOL    HW2 2347   1.243   1.538   2.047 -2.4033 -3.2175 -0.7735
  587SOL     MW 2348   1.272   1.563   2.125  0.0579 -0.7574  0.3684
  588SOL     OW 2349   1.415   2.171   2.730 -0.2546  0.0878  0.0845
  588SOL    HW1 2350   1.500   2.149   2.770 -1.6485 -1.4237  3.0975
  588SOL    HW2 2351   1.363   2.212   2.798  2.8133  1.0718 -0.9572
  588SOL     MW 2352   1.419   2.173   2.744 -0.0338  0.0182  0.3446
  589SOL     OW 2353   1.371   2.104   0.059  0.1237  0.4330 -0.1708
  589SOL    HW1 2354   1.390   2.199   0.071 -0.7551 -0.5842  1.7643
  589SOL    HW2 2355   1.370   2.070   0.147 -0.2434 -0.8075 -0.3311
  589SOL     MW 2356   1.373   2.112   0.072 -0.0407  0.1351  0.0634
  590SOL     OW 2357   0.417   2.562   2.281  0.1254 -0.5742  0.4383
  590SOL    HW1 2358   0.371   2.553   2.194  1.7330 -1.9600 -1.0145
  590SOL    HW2 2359   0.492   2.618   2.258 -1.1555 -0.0043 -0.6677
  590SOL     MW 2360   0.421   2.569   2.267  0.1685 -0.6818  0.1007
  591SOL     OW 2361   2.291   0.700   0.026  0.0730 -0.1177 -0.1953
  591SOL    HW1 2362   2.222   0.744  -0.025  2.5070 -0.0567 -0.2597
  591SOL    HW2 2363   2.373   0.722  -0.015 -2.0511  0.9176  2.0551
  591SOL     MW 2364   2.293   0.708   0.014  0.1139  0.0269  0.0931
  592SOL     OW 2365   1.877   3.029   0.784 -0.2274 -0.3689 -0.6760
  592SOL    HW1 2366   1.857   3.084   0.707  0.7270 -1.0184 -0.3071
  592SOL    HW2 2367   1.922   2.946   0.754  0.5159 -1.0183  2.0548
  592SOL     MW 2368   1.880   3.025   0.770 -0.0034 -0.5403 -0.2670
  593SOL     OW 2369   1.893   0.761   0.858  0.0860  0.3502  0.1457
  593SOL    HW1 2370   1.811   0.775   0.811  2.3666  0.7669  0.2755
  593SOL    HW2 2371   1.908   0.667   0.874 -0.2758 -0.6006  0.8231
  593SOL     MW 2372   1.884   0.750   0.854  0.3391  0.2798  0.2522
  594SOL     OW 2373   2.746   1.128   1.381  0.2918  0.2450 -0.5585
  594SOL    HW1 2374   2.839   1.156   1.379  1.1779 -1.6885  3.3217
  594SOL    HW2 2375   2.739   1.091   1.294  2.2914 -1.2498 -0.2321
  594SOL     MW 2376   2.758   1.127   1.369  0.6725 -0.2073 -0.0035
  595SOL     OW 2377   0.485   0.938   0.695  0.0960 -0.4184  0.9569
  595SOL    HW1 2378   0.513   1.013   0.643  0.4383  0.9184 -0.2652
  595SOL    HW2 2379   0.466   0.979   0.782  0.0693  0.3584  1.1002
  595SOL     MW 2380   0.486   0.954   0.700  0.1377 -0.1395  0.8145
  596SOL     OW 2381   2.455   1.398   0.537  0.1333  0.4637 -0.7000
  596SOL    HW1 2382   2.485   1.480   0.499 -0.1359 -2.4421  0.7526
  596SOL    HW2 2383   2.487   1.387   0.628  0.1364 -2.0726 -0.4009
  596SOL     MW 2384   2.463   1.407   0.544  0.0982 -0.2544 -0.4689
  597SOL     OW 2385   2.198   0.662   1.666 -0.2773 -0.0180 -0.5102
  597SOL    HW1 2386   2.249   0.595   1.720 -1.3465  1.6842  1.0196
  597SOL    HW2 2387   2.123   0.608   1.630 -0.4580 -0.7912 -0.6277
  597SOL     MW 2388   2.195   0.646   1.668 -0.4422  0.1046 -0.3238
  598SOL     OW 2389   2.632   1.003   2.855 -0.2237  0.1240  1.0283
  598SOL    HW1 2390   2.678   0.986   2.761  2.0957 -1.5924  2.1631
  598SOL    HW2 2391   2.700   1.065   2.893  0.9234  0.6388 -0.6714
  598SOL     MW 2392   2.647   1.009   2.847  0.2337 -0.0345  0.9537
  599SOL     OW 2393   2.933   0.340   2.080  0.4730  0.3291 -0.0354
  599SOL    HW1 2394   2.905   0.372   2.170 -0.1419  1.0079 -1.7956
  599SOL    HW2 2395   2.957   0.426   2.038  1.8304  0.4482 -1.0257
  599SOL     MW 2396   2.933   0.355   2.087  0.5709  0.4344 -0.3983
  600SOL     OW 2397   1.900   1.738   0.886 -0.0402  0.6059  0.0098
  600SOL    HW1 2398   1.920   1.772   0.974 -1.3853  1.9121  1.6846
  600SOL    HW2 2399   1.809   1.770   0.867  0.3431 -0.1255  0.5679
  600SOL     MW 2400   1.891   1.747   0.895 -0.1671  0.6817  0.3044
  601SOL     OW 2401   2.501   0.808   0.813  0.2802 -0.2536  0.1481
  601SOL    HW1 2402   2.514   0.792   0.907 -0.6816  0.7926  0.2368
  601SOL    HW2 2403   2.451   0.731   0.773 -1.3290  0.8158 -0.9805
  601SOL     MW 2404   2.496   0.796   0.820 -0.0590  0.0256  0.0109
  602SOL     OW 2405   2.329   1.955   0.805 -0.4880 -0.0766  0.4620
  602SOL    HW1 2406   2.273   1.885   0.848 -1.1951 -1.2671  0.5503
  602SOL    HW2 2407   2.264   2.008   0.766  1.4892 -1.0764  1.0381
  602SOL     MW 2408   2.313   1.953   0.806 -0.3204 -0.3656  0.5496
  603SOL     OW 2409   3.084   1.385   1.781  0.4830 -0.0795 -0.2962
  603SOL    HW1 2410   3.122   1.442   1.853  0.1813  0.1465  2.2729
  603SOL    HW2 2411   3.077   1.291   1.808  1.6478  1.4074  1.5407
  603SOL     MW 2412   3.088   1.380   1.794  0.5969  0.1465  0.2851
  604SOL     OW 2413   2.104   1.577   0.458  0.0023  0.2888  0.3547
  604SOL    HW1 2414   2.133   1.511   0.516 -2.4799 -0.6380  0.3938
  604SOL    HW2 2415   2.032   1.610   0.512  2.1631  0.2533  0.1573
  604SOL     MW 2416   2.098   1.572   0.472 -0.0401  0.1618  0.3338
  605SOL     OW 2417   2.676   1.546   0.842 -0.9660 -0.0926  0.2241
  605SOL    HW1 2418   2.608   1.606   0.805  1.6427  2.0747  2.1451
  605SOL    HW2 2419   2.650   1.459   0.809 -0.4581 -0.9861 -2.5956
  605SOL     MW 2420   2.664   1.542   0.833 -0.5548  0.0754  0.1055
  606SOL     OW 2421   2.569   1.805   1.835 -0.0283  0.3801  0.4536
  606SOL    HW1 2422   2.474   1.798   1.853  0.2010  1.5444 -0.6054
  606SOL    HW2 2423   2.602   1.714   1.819 -0.2411 -0.7720 -1.4543
  606SOL     MW 2424   2.561   1.792   1.835 -0.0261  0.3817  0.0622
  607SOL     OW 2425   2.375   1.011   2.982  0.2628  0.1994  0.3072
  607SOL    HW1 2426   2.465   1.019   2.950 -1.9797 -0.8675  2.3297
  607SOL    HW2 2427   2.384   0.981   3.077  1.6111  1.1941  1.6997
  607SOL     MW 2428   2.388   1.008   2.990  0.1448  0.1899  0.7578
  608SOL     OW 2429   1.878   0.312   0.579  0.6158  0.1459  0.1855
  608SOL    HW1 2430   1.900   0.373   0.508  1.2596 -0.8333 -1.8024
  608SOL    HW2 2431   1.842   0.223   0.543 -0.9934  1.2848  2.2645
  608SOL     MW 2432   1.876   0.308   0.565  0.4884  0.1670  0.1976
  609SOL     OW 2433   2.132   1.967   3.056 -0.1424 -0.0228 -0.4368
  609SOL    HW1 2434   2.051   1.916   3.067 -1.1136  1.2651  1.0748
  609SOL    HW2 2435   2.177   1.957   3.145  0.2777  1.0800 -1.1096
  609SOL     MW 2436   2.128   1.959   3.069 -0.2151  0.2926 -0.3261
  610SOL     OW 2437   1.764   1.020   1.237  0.1654  0.2495  0.0753
  610SOL    HW1 2438   1.789   0.936   1.195  2.5138  1.1404  1.1029
  610SOL    HW2 2439   1.678   0.992   1.254  0.8469 -0.9426 -0.7989
  610SOL     MW 2440   1.756   1.005   1.234  0.5651  0.2097  0.0955
  611SOL     OW 2441   2.476   1.683   0.723  0.7106  0.0859 -0.5381
  611SOL    HW1 2442   2.444   1.760   0.772 -0.7928 -0.0502  1.7170
  611SOL    HW2 2443   2.427   1.709   0.646 -1.0054  3.6261 -1.3041
  611SOL     MW 2444   2.465   1.697   0.719  0.2858  0.5350 -0.3417
  612SOL     OW 2445   2.792   2.824   0.423  0.5207 -0.2321 -0.4079
  612SOL    HW1 2446   2.849   2.865   0.489  0.2307  0.3437 -0.4459
  612SOL    HW2 2447   2.856   2.796   0.359 -1.3123 -0.2610 -0.2154
  612SOL     MW 2448   2.808   2.826   0.423  0.2406 -0.1599 -0.3875
  613SOL     OW 2449   1.489   1.008   0.976 -0.4108 -0.7167 -0.2869
  613SOL    HW1 2450   1.541   1.089   0.972  0.8497  0.4674  1.4377
  613SOL    HW2 2451   1.513   0.965   1.063 -0.7855  0.2836  0.2224
  613SOL     MW 2452   1.499   1.013   0.987 -0.2939 -0.4285  0.0079
  614SOL     OW 2453   1.985   0.540   1.543  0.1064 -0.2730 -0.2755
  614SOL    HW1 2454   1.981   0.459   1.595 -1.4900 -2.1585 -0.6456
  614SOL    HW2 2455   2.008   0.524   1.451  0.9056 -1.2680 -1.1697
  614SOL     MW 2456   1.988   0.527   1.538  0.0012 -0.6531 -0.4423
  615SOL     OW 2457   2.283   0.775   0.295  0.5596 -0.7597 -0.2461
  615SOL    HW1 2458   2.357   0.736   0.339 -0.3792  0.7524  0.4021
  615SOL    HW2 2459   2.282   0.742   0.204 -2.3618 -3.4006 -0.1261
  615SOL     MW 2460   2.293   0.765   0.288  0.0503 -0.9087 -0.1447
  616SOL     OW 2461   2.539   0.369   1.590 -0.3172 -0.2534 -0.6901
  616SOL    HW1 2462   2.465   0.331   1.539 -1.4755  1.0236  1.5277
  616SOL    HW2 2463   2.576   0.421   1.519 -3.3549  2.5205  0.1979
  616SOL     MW 2464   2.534   0.371   1.574 -0.8708  0.2811 -0.2804
  617SOL     OW 2465   2.887   0.549   1.721  0.9307  0.4565  0.7123
  617SOL    HW1 2466   2.806   0.552   1.776  2.0458  0.4598  1.2018
  617SOL    HW2 2467   2.869   0.484   1.649  0.0743 -0.5428  1.0832
  617SOL     MW 2468   2.874   0.541   1.719  0.9648  0.3251  0.8258
  618SOL     OW 2469   2.656   0.331   1.977 -0.3943 -0.3264  0.0359
  618SOL    HW1 2470   2.661   0.419   1.940 -1.3324 -0.4513  2.0010
  618SOL    HW2 2471   2.741   0.322   2.027  1.3968 -0.3356  0.9387
  618SOL     MW 2472   2.668   0.342   1.978 -0.2818 -0.3441  0.4143
  619SOL     OW 2473   2.650   0.725   0.149  0.3859 -0.0329 -0.3199
  619SOL    HW1 2474   2.712   0.792   0.181 -1.1573 -1.9615  3.1952
  619SOL    HW2 2475   2.609   0.691   0.225 -0.5198 -1.8111 -2.0166
  619SOL     MW 2476   2.653   0.730   0.163  0.0628 -0.5220 -0.0800
  620SOL     OW 2477   2.332   1.050   0.997 -0.1033 -0.0895  0.2554
  620SOL    HW1 2478   2.418   1.083   0.977  1.1637 -0.5076 -0.3529
  620SOL    HW2 2479   2.313   1.002   0.918 -1.6677  0.7682 -0.8132
  620SOL     MW 2480   2.341   1.048   0.984 -0.1425 -0.0315  0.0341
  621SOL     OW 2481   1.456   2.128   2.000 -0.3957  0.0594  0.2242
  621SOL    HW1 2482   1.387   2.067   2.031 -1.5955 -0.9966  3.3753
  621SOL    HW2 2483   1.534   2.079   2.004 -1.2813 -1.8233  0.6199
  621SOL     MW 2484   1.457   2.113   2.005 -0.6708 -0.3283  0.6922
  622SOL     OW 2485   2.625   0.157   0.272 -0.3284  0.0963  0.2346
  622SOL    HW1 2486   2.700   0.207   0.299 -0.1885 -1.4164  1.5312
  622SOL    HW2 2487   2.653   0.075   0.305 -1.7356 -2.1485 -1.5215
  622SOL     MW 2488   2.638   0.152   0.280 -0.4956 -0.3995  0.1739
  623SOL     OW 2489   2.326   2.749   0.905  0.8197  0.6018  0.0901
  623SOL    HW1 2490   2.396   2.819   0.900  1.0107  3.5326 -0.3414
  623SOL    HW2 2491   2.268   2.777   0.981 -0.8788  2.2080 -1.4599
  623SOL     MW 2492   2.328   2.762   0.914  0.6208  1.2004 -0.1713
  624SOL     OW 2493   2.204   1.678   2.994 -0.1327  0.0965 -0.1069
  624SOL    HW1 2494   2.135   1.609   2.982 -1.0072 -2.1217  0.9754
  624SOL    HW2 2495   2.147   1.748   3.018  0.0379  3.2092  0.1655
  624SOL     MW 2496   2.188   1.679   2.996 -0.2256  0.2145  0.0719
  625SOL     OW 2497   2.208   2.022   1.120 -0.0183  0.1279  0.0514
  625SOL    HW1 2498   2.270   1.954   1.116  2.3756  2.7334 -2.0319
  625SOL    HW2 2499   2.238   2.108   1.082 -1.5138  0.7288  1.5820
  625SOL     MW 2500   2.220   2.025   1.115  0.1002  0.5509 -0.0215
  626SOL     OW 2501   0.221   1.621   2.355 -0.2214 -0.8500 -0.1239
  626SOL    HW1 2502   0.184   1.546   2.303  1.2690 -2.1212  0.9122
  626SOL    HW2 2503   0.174   1.630   2.438 -1.1532  0.6640  1.3533
  626SOL     MW 2504   0.210   1.612   2.359 -0.1477 -0.8179  0.2077
  627SOL     OW 2505   2.478   0.813   2.635 -0.4277 -0.2758  0.3525
  627SOL    HW1 2506   2.418   0.889   2.622 -0.8485  0.5173  1.7222
  627SOL    HW2 2507   2.471   0.757   2.553 -1.3769 -1.1666 -2.2130
  627SOL     MW 2508   2.469   0.815   2.622 -0.6085 -0.2887  0.1947
  628SOL     OW 2509   2.240   1.349   1.362  0.0505 -0.5001  0.3772
  628SOL    HW1 2510   2.221   1.277   1.303  0.1115 -2.2941 -1.4740
  628SOL    HW2 2511   2.334   1.342   1.375 -1.8192 -1.6450  1.7807
  628SOL     MW 2512   2.250   1.339   1.356 -0.1881 -0.8878  0.3182
  629SOL     OW 2513   1.960   0.570   1.246 -0.1872 -0.1349 -0.2445
  629SOL    HW1 2514   1.984   0.656   1.212 -1.5652  1.0208 -0.5372
  629SOL    HW2 2515   1.870   0.584   1.274  0.5811 -0.2870 -0.1891
  629SOL     MW 2516   1.951   0.583   1.245 -0.2676 -0.0025 -0.2758
  630SOL     OW 2517   2.457   1.831   3.062 -0.4907 -0.1733  0.1370
  630SOL    HW1 2518   2.472   1.886   2.985 -1.3024 -0.8826 -2.8314
  630SOL    HW2 2519   2.362   1.795   3.061 -0.8324  1.2810  2.0096
  630SOL     MW 2520   2.446   1.833   3.052 -0.6429 -0.0750 -0.0076
  631SOL     OW 2521   1.983   1.825   1.571 -0.2837 -0.1878 -0.1403
  631SOL    HW1 2522   1.980   1.735   1.605 -1.2139 -1.3482 -0.7660
  631SOL    HW2 2523   1.937   1.818   1.485  2.8113 -1.6059 -1.7686
  631SOL     MW 2524   1.976   1.812   1.564  0.0019 -0.5280 -0.4377
  632SOL     OW 2525   0.077   2.061   1.473 -0.0824 -0.8812 -0.0639
  632SOL    HW1 2526   0.036   2.070   1.555 -0.7287  1.6036 -1.3002
  632SOL    HW2 2527   0.107   1.971   1.472  0.8051  3.3972 -2.2151
  632SOL     MW 2528   0.076   2.050   1.484 -0.0506  0.0111 -0.5108
  633SOL     OW 2529   2.523   0.658   0.376  0.7888 -0.5911  0.4217
  633SOL    HW1 2530   2.592   0.700   0.424  0.0294 -3.3704 -0.0337
  633SOL    HW2 2531   2.517   0.579   0.422  0.4234  0.8637  0.7231
  633SOL     MW 2532   2.531   0.653   0.388  0.6404 -0.7658  0.4014
  634SOL     OW 2533   2.660   3.038   0.666  0.4190 -0.5263 -0.3473
  634SOL    HW1 2534   2.699   3.129   0.660 -0.4025  2.4014 -1.2160
  634SOL    HW2 2535   2.634   3.014   0.573 -1.8424  0.2149 -0.8067
  634SOL     MW 2536   2.662   3.047   0.653  0.0122 -0.0422 -0.5225
  635SOL     OW 2537   2.587   0.101   1.832 -0.0183 -0.6234  0.5732
  635SOL    HW1 2538   2.652   0.055   1.767 -2.0545 -0.5912 -3.2234
  635SOL    HW2 2539   2.626   0.189   1.860  1.9322  0.7027 -0.2691
  635SOL     MW 2540   2.601   0.107   1.827 -0.0296 -0.4442 -0.0389
  636SOL     OW 2541   2.914   1.748   1.060  0.2825 -0.6081  0.6252
  636SOL    HW1 2542   2.854   1.826   1.055  0.7748  0.4072 -1.0469
  636SOL    HW2 2543   2.994   1.777   1.102 -0.8189 -1.5402  1.0368
  636SOL     MW 2544   2.917   1.762   1.065  0.2021 -0.5971  0.4589
  637SOL     OW 2545   2.904   1.511   0.641  0.0239 -0.3861 -0.4179
  637SOL    HW1 2546   2.968   1.580   0.630  0.1632 -2.6277 -1.0237
  637SOL    HW2 2547   2.839   1.545   0.702  0.1807  1.6461 -3.1934
  637SOL     MW 2548   2.904   1.525   0.647  0.0630 -0.4138 -0.8640
  638SOL     OW 2549   2.743   0.549   0.535  0.5103 -0.5437  0.2005
  638SOL    HW1 2550   2.827   0.557   0.494 -2.8432 -1.5560 -0.8944
  638SOL    HW2 2551   2.765   0.563   0.632  3.2677  1.7612 -1.9199
  638SOL     MW 2552   2.757   0.552   0.543  0.4316 -0.3732 -0.2237
  639SOL     OW 2553   1.779   0.047   0.541  0.1691 -0.2205  1.1437
  639SOL    HW1 2554   1.685   0.067   0.532 -0.8348  1.4367 -0.4077
  639SOL    HW2 2555   1.792  -0.034   0.491  0.8140  1.0274 -1.3559
  639SOL     MW 2556   1.768   0.039   0.533  0.1218  0.1628  0.6092
  640SOL     OW 2557   0.352   1.390   0.060  0.3073 -0.0095 -0.2031
  640SOL    HW1 2558   0.370   1.409  -0.031  1.0094 -0.2519  0.4149
  640SOL    HW2 2559   0.317   1.299   0.078  1.1097 -0.7893  4.4418
  640SOL     MW 2560   0.350   1.381   0.050  0.5058 -0.1443  0.4913
  641SOL     OW 2561   2.214   0.455   0.387  0.3946 -0.3731 -0.4493
  641SOL    HW1 2562   2.273   0.468   0.318  0.3406  2.6073  0.3678
  641SOL    HW2 2563   2.241   0.367   0.417  1.7944 -1.5027  0.0560
  641SOL     MW 2564   2.225   0.445   0.382  0.5722 -0.1289 -0.2748
  642SOL     OW 2565   0.007   3.081   0.604 -0.4582 -0.2441  0.2650
  642SOL    HW1 2566  -0.037   3.159   0.568  0.8164  0.7463 -0.2825
  642SOL    HW2 2567  -0.063   3.035   0.645 -1.0994 -1.4985 -1.0554
  642SOL     MW 2568  -0.008   3.085   0.605 -0.3746 -0.2789  0.0186
  643SOL     OW 2569   2.075   0.351   1.702  0.3859 -0.4681  0.0218
  643SOL    HW1 2570   2.090   0.298   1.783 -2.4386  0.0785  1.6775
  643SOL    HW2 2571   2.093   0.295   1.623 -3.2412  1.2387 -0.9485
  643SOL     MW 2572   2.079   0.337   1.702 -0.4653 -0.1708  0.1123
  644SOL     OW 2573   2.710   1.963   1.063  0.0799 -0.0554  0.0140
  644SOL    HW1 2574   2.682   1.892   1.130 -0.1148 -0.0752  3.9115
  644SOL    HW2 2575   2.634   2.000   1.018  0.1953  0.8594  1.4381
  644SOL     MW 2576   2.696   1.958   1.066  0.0695  0.0627  0.7161
  645SOL     OW 2577   2.835   0.883   0.682  0.0087 -0.3336  0.1446
  645SOL    HW1 2578   2.924   0.850   0.678 -0.9849  1.7347 -0.1123
  645SOL    HW2 2579   2.780   0.807   0.685  1.7327 -0.9904  0.4961
  645SOL     MW 2580   2.839   0.869   0.682  0.1051 -0.1474  0.1571
  646SOL     OW 2581   0.173   2.289   0.778  0.2468  0.7281 -0.3450
  646SOL    HW1 2582   0.179   2.190   0.802  2.6011 -2.4575  1.0760
  646SOL    HW2 2583   0.081   2.289   0.734  1.2425 -1.5167 -0.6023
  646SOL     MW 2584   0.161   2.276   0.775  0.6888  0.0116 -0.1915
  647SOL     OW 2585   2.726   0.496   2.968 -0.0985 -0.1428 -0.2940
  647SOL    HW1 2586   2.678   0.437   3.028 -0.5580  1.9962 -0.3999
  647SOL    HW2 2587   2.666   0.579   2.964  1.0194  0.6080 -2.2564
  647SOL     MW 2588   2.712   0.499   2.975 -0.0116  0.2385 -0.5669
  648SOL     OW 2589   2.138   0.749   1.118  0.1392 -0.6610  0.0471
  648SOL    HW1 2590   2.177   0.781   1.037 -0.2473  2.3001  1.9102
  648SOL    HW2 2591   2.178   0.810   1.185 -0.6597  1.4743  3.1927
  648SOL     MW 2592   2.149   0.761   1.116 -0.0172  0.0114  0.7079
  649SOL     OW 2593   2.343   2.771   1.298 -0.1008 -0.2479 -0.2072
  649SOL    HW1 2594   2.425   2.822   1.305 -0.8651 -0.5145 -1.1206
  649SOL    HW2 2595   2.374   2.682   1.273 -0.3480 -0.2085  2.6962
  649SOL     MW 2596   2.358   2.766   1.296 -0.2342 -0.2779  0.0554
  650SOL     OW 2597   2.824   0.172   0.676 -0.3967 -0.3443 -0.0284
  650SOL    HW1 2598   2.835   0.259   0.718  3.6509  0.3323  1.0278
  650SOL    HW2 2599   2.874   0.180   0.593 -0.6731  0.5781  0.8806
  650SOL     MW 2600   2.832   0.185   0.670  0.1008 -0.1334  0.2309
  651SOL     OW 2601   3.001   0.423   0.770  0.4313  0.5095 -0.4777
  651SOL    HW1 2602   3.092   0.439   0.766 -0.6157  1.7936  1.0636
  651SOL    HW2 2603   2.965   0.495   0.818 -0.4006 -1.1062 -0.1010
  651SOL     MW 2604   3.008   0.435   0.776  0.1834  0.4658 -0.2246
  652SOL     OW 2605   2.423   1.479   3.019 -0.3934 -0.6457 -0.0607
  652SOL    HW1 2606   2.476   1.488   2.942  0.0975  3.1356  2.1513
  652SOL    HW2 2607   2.355   1.547   3.017  1.7057 -0.5890  2.0059
  652SOL     MW 2608   2.421   1.489   3.009 -0.0517 -0.1393  0.5038
  653SOL     OW 2609   1.937   0.451   0.345  0.4390  0.0241  0.5696
  653SOL    HW1 2610   1.898   0.393   0.279  0.9664  0.5790  1.2037
  653SOL    HW2 2611   2.028   0.460   0.339 -1.5969  2.3603 -3.5304
  653SOL     MW 2612   1.944   0.444   0.335  0.2400  0.4056  0.1123
  654SOL     OW 2613   2.456   1.061   0.712 -0.2053 -0.0513  0.2411
  654SOL    HW1 2614   2.372   1.076   0.671  1.4846  0.9389 -1.1483
  654SOL    HW2 2615   2.465   0.965   0.737 -0.6961 -0.6519  1.1668
  654SOL     MW 2616   2.446   1.050   0.710 -0.0471  0.0001  0.1799
  655SOL     OW 2617   2.983   0.911   0.393 -0.1326 -0.1032 -0.0799
  655SOL    HW1 2618   2.912   0.937   0.452  2.0370 -1.4264  2.0303
  655SOL    HW2 2619   2.990   0.811   0.394 -4.2001  0.1564 -1.3298
  655SOL     MW 2620   2.974   0.901   0.401 -0.3830 -0.2435  0.0336
  656SOL     OW 2621   1.955   2.693   1.221 -0.3854  0.4935  0.4075
  656SOL    HW1 2622   1.931   2.783   1.237  1.3354 -1.2496 -0.7328
  656SOL    HW2 2623   2.004   2.661   1.294 -0.7374  1.5168  2.1075
  656SOL     MW 2624   1.958   2.701   1.233 -0.2048  0.3986  0.4814
  657SOL     OW 2625   0.172   1.589   1.279 -0.3341  0.3848  0.1005
  657SOL    HW1 2626   0.084   1.614   1.268 -0.2697 -1.0847  1.4024
  657SOL    HW2 2627   0.176   1.492   1.268 -0.4420  0.3919 -0.4971
  657SOL     MW 2628   0.161   1.580   1.276 -0.3398  0.1919  0.1934
  658SOL     OW 2629   2.689   1.344   0.183  0.6059 -0.5585  0.1794
  658SOL    HW1 2630   2.649   1.267   0.230  0.6814 -2.0488 -2.9445
  658SOL    HW2 2631   2.734   1.398   0.250 -1.2176  2.5893  1.5058
  658SOL     MW 2632   2.690   1.341   0.198  0.3753 -0.3398 -0.0578
  659SOL     OW 2633   2.312   1.524   1.030  0.1084 -0.0039  0.0935
  659SOL    HW1 2634   2.402   1.517   1.040 -3.9767  2.9007  1.9822
  659SOL    HW2 2635   2.277   1.552   1.115  0.6035 -3.3437 -0.4546
  659SOL     MW 2636   2.319   1.526   1.043 -0.3653 -0.0613  0.2704
  660SOL     OW 2637   2.025   1.577   1.686  0.1313  0.2910 -0.0120
  660SOL    HW1 2638   2.045   1.570   1.782 -1.6547  0.6480 -1.5645
  660SOL    HW2 2639   1.975   1.497   1.667 -2.1220  2.7134 -0.3675
  660SOL     MW 2640   2.021   1.566   1.696 -0.4016  0.6577 -0.2638
  661SOL     OW 2641   2.361   1.021   0.224  0.0057 -0.3265 -0.2038
  661SOL    HW1 2642   2.434   1.065   0.281  0.1223  0.2749  1.8373
  661SOL    HW2 2643   2.329   0.935   0.261  0.5621  0.2744 -2.0164
  661SOL     MW 2644   2.367   1.016   0.237  0.0945 -0.1678 -0.1737
  662SOL     OW 2645   2.520   2.924   0.889  0.0492  0.2845 -0.1141
  662SOL    HW1 2646   2.468   2.998   0.912  0.6465 -1.0874 -1.2834
  662SOL    HW2 2647   2.560   2.954   0.808  0.5306  0.9920 -0.3124
  662SOL     MW 2648   2.519   2.938   0.881  0.1916  0.1968 -0.2946
  663SOL     OW 2649   2.839   1.486   0.350 -0.1354 -0.3109 -0.0406
  663SOL    HW1 2650   2.849   1.581   0.370 -2.0383  0.4913  1.5678
  663SOL    HW2 2651   2.888   1.447   0.420 -1.5647  0.5312 -2.6647
  663SOL     MW 2652   2.847   1.493   0.362 -0.5751 -0.0939 -0.1746
  664SOL     OW 2653   2.473   1.540   1.585 -0.1870 -0.7068  0.3695
  664SOL    HW1 2654   2.451   1.637   1.579  1.5687 -1.8073  0.7893
  664SOL    HW2 2655   2.412   1.502   1.648  0.7706 -2.5835  0.0633
  664SOL     MW 2656   2.462   1.548   1.593  0.1710 -1.0996  0.3845
  665SOL     OW 2657   2.866   0.839   2.042  0.2913  0.4936 -0.5248
  665SOL    HW1 2658   2.863   0.888   1.955  2.7081 -0.5957 -1.0330
  665SOL    HW2 2659   2.939   0.788   2.022  0.2696 -0.0318 -2.6648
  665SOL     MW 2660   2.875   0.839   2.028  0.6073  0.2805 -0.8742
  666SOL     OW 2661   2.733   3.022   1.671  0.1887 -0.4441 -0.3598
  666SOL    HW1 2662   2.758   2.988   1.581  0.4973  1.5291 -2.7786
  666SOL    HW2 2663   2.694   2.941   1.710  0.4635  0.9002  1.7788
  666SOL     MW 2664   2.731   3.007   1.665  0.2657 -0.0064 -0.3968
  667SOL     OW 2665   1.979   2.667   1.666  0.1223 -0.3083  0.1046
  667SOL    HW1 2666   1.980   2.616   1.746 -1.4778  0.4989 -1.3821
  667SOL    HW2 2667   2.060   2.721   1.670  0.3364 -0.1558 -2.1592
  667SOL     MW 2668   1.990   2.667   1.677 -0.0606 -0.1817 -0.3902
  668SOL     OW 2669   2.727   0.635   0.796 -0.2819  0.1074  0.3196
  668SOL    HW1 2670   2.796   0.678   0.857  1.6625  1.0096  0.1092
  668SOL    HW2 2671   2.643   0.679   0.797  2.3131  1.2630 -1.8535
  668SOL     MW 2672   2.725   0.646   0.804  0.3170  0.3789  0.0051
  669SOL     OW 2673   0.184   0.944   0.655  0.2406  0.1392  0.1266
  669SOL    HW1 2674   0.147   0.993   0.721  1.9219  0.4612 -2.7109
  669SOL    HW2 2675   0.275   0.923   0.687  2.9007 -3.2243 -2.0658
  669SOL     MW 2676   0.191   0.948   0.668  0.8134 -0.2621 -0.5370
  670SOL     OW 2677   2.885   0.311   0.197 -0.1148 -0.2301 -0.0895
  670SOL    HW1 2678   2.923   0.241   0.136  1.4696 -0.2560  1.3470
  670SOL    HW2 2679   2.951   0.381   0.183 -0.8240  1.3733  1.5186
  670SOL     MW 2680   2.898   0.311   0.187  0.0006 -0.0219  0.3122
  671SOL     OW 2681   2.117   2.992   1.531 -0.4871 -1.1438  0.0960
  671SOL    HW1 2682   2.106   3.027   1.445  0.6559  3.0117 -1.8498
  671SOL    HW2 2683   2.047   3.032   1.576 -0.1893  0.1070 -0.1704
  671SOL     MW 2684   2.107   3.002   1.526 -0.2970 -0.4305 -0.1958
  672SOL     OW 2685   1.852   1.698   1.311  0.1990  0.4386  0.0019
  672SOL    HW1 2686   1.774   1.749   1.334  1.6017  0.4794 -1.1837
  672SOL    HW2 2687   1.897   1.746   1.235 -0.0216  1.6546 -0.1013
  672SOL     MW 2688   1.848   1.711   1.304  0.3550  0.6045 -0.1682
  673SOL     OW 2689   2.781   1.095   0.526 -0.2483  0.0795  0.5295
  673SOL    HW1 2690   2.775   1.015   0.578 -0.6306 -0.3452  1.8674
  673SOL    HW2 2691   2.852   1.144   0.572  0.4493 -1.4478 -0.9534
  673SOL     MW 2692   2.790   1.091   0.539 -0.2067 -0.1780  0.5104
  674SOL     OW 2693   2.514   0.085   1.218  0.1135 -0.8703  0.5306
  674SOL    HW1 2694   2.454   0.070   1.141  0.1860  0.3861 -2.9101
  674SOL    HW2 2695   2.537  -0.002   1.245  2.6301  0.6193 -1.1614
  674SOL     MW 2696   2.509   0.071   1.211  0.4551 -0.5080 -0.1466
  675SOL     OW 2697   3.018   0.914   1.101  0.0767 -0.5358 -0.3180
  675SOL    HW1 2698   3.085   0.889   1.165  2.5127  0.1032 -0.0113
  675SOL    HW2 2699   3.053   0.943   1.016  0.2397 -1.7201 -0.0902
  675SOL     MW 2700   3.031   0.915   1.098  0.4196 -0.6078 -0.2475
  676SOL     OW 2701   2.864   1.484   1.666 -0.8940 -0.5148  0.2769
  676SOL    HW1 2702   2.801   1.413   1.652  2.0463 -0.2254  2.2663
  676SOL    HW2 2703   2.946   1.441   1.691 -3.0408  0.0379 -2.2791
  676SOL     MW 2704   2.866   1.469   1.668 -0.7893 -0.4037  0.2022
  677SOL     OW 2705   2.429   0.701   1.954 -0.4612 -0.6517  0.4679
  677SOL    HW1 2706   2.397   0.636   1.900 -0.1160 -0.7820  1.5919
  677SOL    HW2 2707   2.345   0.746   1.977 -1.9068  0.6752  0.8482
  677SOL     MW 2708   2.414   0.698   1.950 -0.6064 -0.4938  0.6663
  678SOL     OW 2709   2.543   1.614   0.417  0.2901 -0.0326  0.7668
  678SOL    HW1 2710   2.454   1.664   0.407 -1.1795  0.4278 -0.3583
  678SOL    HW2 2711   2.576   1.607   0.328  1.7363 -0.7121 -0.9227
  678SOL     MW 2712   2.536   1.619   0.404  0.2870 -0.0615  0.3954
  679SOL     OW 2713   2.309   0.526   1.187 -0.0342  0.4021  0.6958
  679SOL    HW1 2714   2.249   0.447   1.192 -0.1484  0.0942 -2.7299
  679SOL    HW2 2715   2.253   0.595   1.156  2.3152  1.4373 -1.5409
  679SOL     MW 2716   2.294   0.525   1.183  0.2607  0.4981 -0.0513
  680SOL     OW 2717   2.370   0.238   1.417  0.1481  0.0479  0.8094
  680SOL    HW1 2718   2.277   0.198   1.417 -4.2210 -2.1670 -3.0188
  680SOL    HW2 2719   2.413   0.201   1.336 -0.4447 -0.2846  1.6139
  680SOL     MW 2720   2.364   0.228   1.406 -0.5066 -0.2882  0.4104
  681SOL     OW 2721   0.351   0.598   1.546 -0.1860 -0.1345 -0.0443
  681SOL    HW1 2722   0.308   0.536   1.611 -0.4410 -0.9423  1.8276
  681SOL    HW2 2723   0.447   0.577   1.553 -0.7022  0.7574  2.3914
  681SOL     MW 2724   0.358   0.587   1.556 -0.2878 -0.1234  0.5241
  682SOL     OW 2725   0.139   2.948   1.460 -0.0073 -0.3762 -0.0468
  682SOL    HW1 2726   0.127   3.041   1.456  0.3941  2.3714 -0.6233
  682SOL    HW2 2727   0.062   2.931   1.511 -1.5030  0.0784  2.0399
  682SOL     MW 2728   0.128   2.958   1.466 -0.1517  0.0463  0.1525
  683SOL     OW 2729   2.053   0.863   3.030 -0.6389 -0.2941 -0.1119
  683SOL    HW1 2730   1.964   0.841   3.002  0.0702  0.2521 -1.2325
  683SOL    HW2 2731   2.063   0.955   3.045  0.1464 -1.6713 -1.8381
  683SOL     MW 2732   2.043   0.872   3.028 -0.4417 -0.4037 -0.4875
  684SOL     OW 2733   2.178   1.748   0.930 -0.0822 -0.2933  0.3893
  684SOL    HW1 2734   2.094   1.715   0.891  0.1753  0.3543  2.1452
  684SOL    HW2 2735   2.230   1.671   0.968  1.0223 -2.4090 -2.3063
  684SOL     MW 2736   2.174   1.734   0.930  0.0975 -0.4870  0.2653
  685SOL     OW 2737   2.652   1.748   1.230  0.3080  0.3436  0.0846
  685SOL    HW1 2738   2.723   1.732   1.292  3.3391 -0.9849 -1.8180
  685SOL    HW2 2739   2.624   1.658   1.196 -1.5147  1.0331 -2.3988
  685SOL     MW 2740   2.658   1.734   1.234  0.4675  0.2593 -0.4941
  686SOL     OW 2741   2.892   0.711   1.469  0.6511  0.3022  0.4117
  686SOL    HW1 2742   2.899   0.672   1.559 -2.8676  1.2347  0.5947
  686SOL    HW2 2743   2.974   0.757   1.441 -0.2534 -0.7013  1.3842
  686SOL     MW 2744   2.903   0.712   1.477  0.0675  0.2929  0.5642
  687SOL     OW 2745   2.113   0.294   1.173 -0.8195  0.2975 -0.9920
  687SOL    HW1 2746   2.130   0.223   1.108 -2.5015  0.2446 -0.2983
  687SOL    HW2 2747   2.035   0.337   1.138 -0.8153 -1.4415  2.3043
  687SOL     MW 2748   2.105   0.290   1.159 -1.0409  0.0611 -0.4656
  688SOL     OW 2749   2.369   0.640   1.447  0.1899  0.1151 -0.7915
  688SOL    HW1 2750   2.333   0.569   1.393 -0.1920 -0.8463 -2.5323
  688SOL    HW2 2751   2.328   0.645   1.537 -1.9648 -0.7908  0.4648
  688SOL     MW 2752   2.359   0.631   1.451 -0.1448 -0.1312 -0.8555
  689SOL     OW 2753   2.544   0.730   3.006 -0.0812 -0.3869  0.3692
  689SOL    HW1 2754   2.571   0.801   2.946 -1.6363 -0.4069 -1.2340
  689SOL    HW2 2755   2.598   0.732   3.093  3.7466  0.9078  1.3047
  689SOL     MW 2756   2.555   0.740   3.010  0.2187 -0.2187  0.2811
  690SOL     OW 2757   2.116   0.924   1.910 -0.2627 -0.1329 -0.4027
  690SOL    HW1 2758   2.041   0.865   1.927  1.3282 -0.4796 -1.4290
  690SOL    HW2 2759   2.145   0.911   1.820  0.1223  0.6523  0.1967
  690SOL     MW 2760   2.110   0.914   1.901 -0.0020 -0.0750 -0.4590
  691SOL     OW 2761   2.466   0.267   0.817  0.8001 -0.1596 -0.2454
  691SOL    HW1 2762   2.539   0.320   0.855 -0.2875 -1.0596 -1.2564
  691SOL    HW2 2763   2.381   0.319   0.841 -2.2677  1.0697  0.6173
  691SOL     MW 2764   2.464   0.281   0.825  0.2518 -0.1161 -0.2649
  692SOL     OW 2765   2.825   1.647   1.436  0.3327 -1.0162 -0.4207
  692SOL    HW1 2766   2.850   1.605   1.512 -2.9754  0.2720 -4.2970
  692SOL    HW2 2767   2.816   1.738   1.457 -1.1953  1.4302 -0.3083
  692SOL     MW 2768   2.827   1.654   1.449 -0.3054 -0.5234 -0.9173
  693SOL     OW 2769   2.324   0.432   0.123  0.0621  0.5434  0.0951
  693SOL    HW1 2770   2.242   0.383   0.121 -0.1694 -0.6521  1.6033
  693SOL    HW2 2771   2.297   0.509   0.083  1.1847 -1.6033 -0.5229
  693SOL     MW 2772   2.310   0.436   0.117  0.1797  0.1024  0.2126
  694SOL     OW 2773   1.912   1.270   1.092 -0.3157 -0.4600  0.1831
  694SOL    HW1 2774   1.995   1.229   1.119 -1.1469 -0.0257 -2.3289
  694SOL    HW2 2775   1.848   1.206   1.129 -0.0355  0.1095  1.1180
  694SOL     MW 2776   1.914   1.256   1.101 -0.3884 -0.3276 -0.0250
  695SOL     OW 2777   2.988   1.444   1.311  0.1710  0.2330  0.7388
  695SOL    HW1 2778   2.957   1.454   1.222 -2.0200 -0.3365  0.7106
  695SOL    HW2 2779   2.927   1.507   1.351  1.5447  0.2337 -1.0555
  695SOL     MW 2780   2.976   1.453   1.304  0.0632  0.1580  0.4983
  696SOL     OW 2781   2.099   1.387   0.894 -0.0665 -0.1515 -0.1028
  696SOL    HW1 2782   2.174   1.427   0.947  0.4187 -0.3231 -0.0359
  696SOL    HW2 2783   2.036   1.342   0.951 -0.5828 -0.0666 -0.5776
  696SOL     MW 2784   2.100   1.386   0.909 -0.0706 -0.1630 -0.1566
  697SOL     OW 2785   2.912   1.096   2.130  0.1478  0.0974  0.1722
  697SOL    HW1 2786   2.852   1.171   2.162 -2.3692  1.2206  2.0804
  697SOL    HW2 2787   2.859   1.011   2.117  1.3975 -3.0242 -0.7235
  697SOL     MW 2788   2.897   1.095   2.132 -0.0194 -0.1663  0.3058
  698SOL     OW 2789   2.573   0.316   0.011 -0.0162  0.6169  0.3436
  698SOL    HW1 2790   2.495   0.363   0.040 -2.9280 -0.0555  0.6340
  698SOL    HW2 2791   2.602   0.276   0.100  0.5940 -1.3015 -2.5159
  698SOL     MW 2792   2.566   0.317   0.027 -0.3199  0.2750  0.0047
  699SOL     OW 2793   1.830   1.670   2.058  0.6954  0.3909 -0.3742
  699SOL    HW1 2794   1.804   1.576   2.080 -1.6440  0.0546  0.1766
  699SOL    HW2 2795   1.928   1.667   2.039 -0.1416  3.0796 -0.9406
  699SOL     MW 2796   1.840   1.657   2.059  0.2763  0.7013 -0.3763
  700SOL     OW 2797   2.724   0.926   1.573 -0.1322 -0.1027 -0.5541
  700SOL    HW1 2798   2.757   0.990   1.506  0.1932 -0.3818  2.2219
  700SOL    HW2 2799   2.757   0.836   1.561 -1.4297  1.8703 -0.5009
  700SOL     MW 2800   2.733   0.923   1.562 -0.2605  0.1208 -0.1808
  701SOL     OW 2801   1.623   1.274   2.531 -0.4518  0.0433 -0.5356
  701SOL    HW1 2802   1.708   1.312   2.518 -2.2609  0.0292 -3.8965
  701SOL    HW2 2803   1.591   1.332   2.602  3.2282  0.1324 -1.3362
  701SOL     MW 2804   1.630   1.286   2.539 -0.2049  0.0532 -1.0847
  702SOL     OW 2805   2.191   0.390   0.857  0.4873  0.3246  0.0245
  702SOL    HW1 2806   2.127   0.338   0.809 -1.7192 -2.3385  2.9626
  702SOL    HW2 2807   2.245   0.449   0.805 -0.6771  0.1944  0.1498
  702SOL     MW 2808   2.189   0.391   0.844  0.0425 -0.0440  0.4287
  703SOL     OW 2809   2.698   1.280   1.036  0.5981 -0.0197  0.1575
  703SOL    HW1 2810   2.697   1.251   0.939 -0.3741 -1.8406 -0.4855
  703SOL    HW2 2811   2.726   1.192   1.074  1.1679  0.3277  0.7663
  703SOL     MW 2812   2.701   1.264   1.028  0.5450 -0.2141  0.1530
  704SOL     OW 2813   3.084   1.326   0.263 -0.4557 -0.1158 -0.2312
  704SOL    HW1 2814   3.016   1.278   0.221  1.2184  0.0627 -2.2514
  704SOL    HW2 2815   3.112   1.277   0.345  3.8127 -2.7409  2.6767
  704SOL     MW 2816   3.079   1.313   0.268  0.3284 -0.4386 -0.1141
  705SOL     OW 2817   2.202   1.621   1.286  0.7210  0.3970  0.2570
  705SOL    HW1 2818   2.152   1.672   1.336 -1.4992  1.5505 -0.0509
  705SOL    HW2 2819   2.200   1.532   1.326  0.7327  3.2308  0.8138
  705SOL     MW 2820   2.195   1.616   1.298  0.4296  0.9231  0.2898
  706SOL     OW 2821   2.951   1.229   0.699  0.1035 -0.0681  0.0875
  706SOL    HW1 2822   3.025   1.211   0.637  2.3233 -1.9798 -2.7915
  706SOL    HW2 2823   2.949   1.326   0.699  0.9326  0.2308 -0.9716
  706SOL     MW 2824   2.960   1.239   0.691  0.5058 -0.2809 -0.4321
  707SOL     OW 2825   2.377   0.064   0.973 -0.0540 -0.1488 -0.4320
  707SOL    HW1 2826   2.405   0.136   0.907  0.2395  0.6537 -1.7743
  707SOL    HW2 2827   2.280   0.066   0.971 -0.0317  0.7323 -0.0321
  707SOL     MW 2828   2.368   0.074   0.964 -0.0123  0.0734 -0.5564
  708SOL     OW 2829   2.559   1.565   0.140  0.5383  0.1666 -0.1011
  708SOL    HW1 2830   2.608   1.481   0.155 -2.6452 -1.7085 -0.3591
  708SOL    HW2 2831   2.495   1.550   0.069 -1.7876  0.8631 -0.5620
  708SOL     MW 2832   2.557   1.552   0.133 -0.1886  0.0111 -0.1960
  709SOL     OW 2833   1.726   1.726   0.154  0.0367  0.1369  0.2122
  709SOL    HW1 2834   1.660   1.740   0.091  2.9000 -1.4302  0.7829
  709SOL    HW2 2835   1.685   1.696   0.235 -2.1027 -3.5238  0.1825
  709SOL     MW 2836   1.712   1.724   0.156  0.1322 -0.5528  0.2836
  710SOL     OW 2837   2.156   1.162   1.199  0.6188  0.5902 -0.4336
  710SOL    HW1 2838   2.219   1.145   1.127 -0.1465 -0.3289  1.2054
  710SOL    HW2 2839   2.163   1.086   1.254  0.4612  1.4640 -1.5662
  710SOL     MW 2840   2.165   1.149   1.196  0.4971  0.5842 -0.3668
  711SOL     OW 2841   2.332   0.126   1.775  0.3772  0.0688 -0.1069
  711SOL    HW1 2842   2.431   0.115   1.801 -0.5501 -0.7348 -1.1019
  711SOL    HW2 2843   2.342   0.119   1.682 -0.2038 -0.7032  1.6854
  711SOL     MW 2844   2.346   0.124   1.766  0.1782 -0.1391 -0.0017
  712SOL     OW 2845   1.835   0.609   3.063  1.0073  0.5698  0.2036
  712SOL    HW1 2846   1.826   0.664   2.989  2.1862  2.1648  1.8829
  712SOL    HW2 2847   1.837   0.659   3.148 -1.1915 -1.4576 -0.6586
  712SOL     MW 2848   1.834   0.623   3.065  0.8727  0.5127  0.3114
  713SOL     OW 2849   2.590   0.826   1.085 -0.1546 -0.1059 -0.0314
  713SOL    HW1 2850   2.626   0.736   1.108 -2.3905 -1.1190 -2.9288
  713SOL    HW2 2851   2.537   0.848   1.161 -1.3702 -0.2623  0.8341
  713SOL     MW 2852   2.587   0.817   1.098 -0.6100 -0.2602 -0.2995
  714SOL     OW 2853   2.167   0.217   1.956  0.0351  0.2841  0.5329
  714SOL    HW1 2854   2.209   0.207   2.041  0.0570 -2.0183 -0.7557
  714SOL    HW2 2855   2.232   0.189   1.896 -0.5153  0.7989 -1.6756
  714SOL     MW 2856   2.181   0.212   1.959 -0.0346  0.0482  0.0715
  715SOL     OW 2857   1.729   1.906   1.732 -0.4740  0.0875 -0.2825
  715SOL    HW1 2858   1.818   1.897   1.701 -3.8545 -2.1918 -0.4053
  715SOL    HW2 2859   1.708   1.818   1.770  1.9981 -2.4954  0.6816
  715SOL     MW 2860   1.738   1.893   1.733 -0.5939 -0.5540 -0.1715
  716SOL     OW 2861   2.390   0.564   0.734 -0.4368  0.0609 -0.0633
  716SOL    HW1 2862   2.431   0.500   0.677  0.5787  2.3556  1.7764
  716SOL    HW2 2863   2.335   0.619   0.673 -2.8372 -0.2635 -0.5732
  716SOL     MW 2864   2.388   0.563   0.718 -0.6195  0.3208  0.1122
  717SOL     OW 2865   2.866   1.423   2.902  0.1840 -0.6837  0.1079
  717SOL    HW1 2866   2.963   1.426   2.923 -1.4232 -0.2968 -0.7565
  717SOL    HW2 2867   2.824   1.485   2.968 -0.2529 -0.8067  0.4426
  717SOL     MW 2868   2.873   1.431   2.914 -0.0857 -0.6489  0.0380
  718SOL     OW 2869   2.509   1.354   1.377 -0.3476  0.3266 -0.0688
  718SOL    HW1 2870   2.518   1.431   1.436 -1.5826 -0.6048 -2.8091
  718SOL    HW2 2871   2.585   1.299   1.387  0.1799  3.2418  0.2958
  718SOL     MW 2872   2.520   1.357   1.386 -0.4409  0.5883 -0.3822
  719SOL     OW 2873   2.172   1.348   0.571  0.7473  0.3436  0.0422
  719SOL    HW1 2874   2.266   1.360   0.579  1.1657 -2.5673 -0.0623
  719SOL    HW2 2875   2.139   1.361   0.661 -1.9192 -0.0668  0.3293
  719SOL     MW 2876   2.180   1.351   0.584  0.4507 -0.0946  0.0663
  720SOL     OW 2877   2.893   1.180   0.143 -0.1480 -0.4557 -0.2044
  720SOL    HW1 2878   2.859   1.091   0.149  1.1081  0.9205  1.4408
  720SOL    HW2 2879   2.818   1.241   0.153  3.7568  0.3359 -2.8254
  720SOL     MW 2880   2.878   1.176   0.145  0.5330 -0.1697 -0.3332
  721SOL     OW 2881   2.510   0.834   1.367  0.1578  0.6469  0.1716
  721SOL    HW1 2882   2.468   0.750   1.375  0.3417 -0.9383 -1.2199
  721SOL    HW2 2883   2.574   0.857   1.428 -1.7413  1.0935 -1.2617
  721SOL     MW 2884   2.513   0.826   1.376 -0.0685  0.4967 -0.2011
  722SOL     OW 2885   2.554   1.172   0.357  0.1135 -0.9123 -0.0647
  722SOL    HW1 2886   2.494   1.235   0.408  0.9345 -0.2544  1.4485
  722SOL    HW2 2887   2.618   1.138   0.421  1.9363 -1.6390  2.6664
  722SOL     MW 2888   2.555   1.176   0.372  0.4623 -0.9214  0.4953
  723SOL     OW 2889   2.228   1.377   1.649  0.3936  0.2679 -0.2271
  723SOL    HW1 2890   2.222   1.359   1.558  0.1580  1.3779  0.3316
  723SOL    HW2 2891   2.178   1.456   1.654  0.5737 -0.5324  2.3551
  723SOL     MW 2892   2.220   1.385   1.638  0.3862  0.3087  0.1873
  724SOL     OW 2893   2.502   0.391   0.552  0.1645  0.4155 -0.0113
  724SOL    HW1 2894   2.486   0.323   0.621  1.9439 -0.7691  1.3659
  724SOL    HW2 2895   2.592   0.417   0.572  0.1288  1.8150  1.8123
  724SOL     MW 2896   2.512   0.385   0.564  0.3946  0.4439  0.4110
  725SOL     OW 2897   2.573   0.529   1.129 -0.4307  0.0990  0.1266
  725SOL    HW1 2898   2.602   0.526   1.220  1.9717 -0.0702  4.1120
  725SOL    HW2 2899   2.477   0.531   1.125  0.7915  1.5312 -1.7778
  725SOL     MW 2900   2.564   0.529   1.141  0.0475  0.2656  0.4012
  726SOL     OW 2901   2.592   2.426   0.551  0.2222 -0.0663 -0.0877
  726SOL    HW1 2902   2.519   2.465   0.505  2.0470  0.1526  2.8971
  726SOL    HW2 2903   2.562   2.353   0.602 -0.8449  1.5230 -2.1304
  726SOL     MW 2904   2.578   2.421   0.552  0.3221  0.1722  0.0366
  727SOL     OW 2905   2.915   0.263   1.579  0.5084 -0.2364 -0.2547
  727SOL    HW1 2906   2.936   0.301   1.489 -0.2110 -0.5506 -1.3817
  727SOL    HW2 2907   2.820   0.248   1.585  0.7529 -3.7879  0.5161
  727SOL     MW 2908   2.905   0.266   1.568  0.4457 -0.7465 -0.3017
  728SOL     OW 2909   2.815   1.170   2.978  0.0807  0.1184  0.1711
  728SOL    HW1 2910   2.789   1.255   2.941  0.8447  1.5191  1.1797
  728SOL    HW2 2911   2.854   1.191   3.064 -2.3220  0.2100 -1.7826
  728SOL     MW 2912   2.817   1.184   2.984 -0.1355  0.3153  0.0464
  729SOL     OW 2913   2.564   1.513   1.149  0.0239 -0.0232 -0.2012
  729SOL    HW1 2914   2.534   1.443   1.207  1.0961  2.4032 -1.3576
  729SOL    HW2 2915   2.645   1.474   1.104 -0.0290  1.7961 -3.3063
  729SOL     MW 2916   2.571   1.498   1.150  0.1584  0.5370 -0.7634
  730SOL     OW 2917   2.118   1.117   0.291 -0.0118  0.0112  0.1300
  730SOL    HW1 2918   2.212   1.111   0.269 -1.3011  0.3876 -1.8581
  730SOL    HW2 2919   2.091   1.208   0.294  0.1657  1.7048 -1.0399
  730SOL     MW 2920   2.127   1.128   0.288 -0.1585  0.2843 -0.2866
  731SOL     OW 2921   2.804   1.850   2.878 -0.0595  0.4247 -0.4477
  731SOL    HW1 2922   2.749   1.917   2.837  2.5512 -1.0915 -1.4559
  731SOL    HW2 2923   2.889   1.890   2.890 -0.0774 -1.3411 -0.1363
  731SOL     MW 2924   2.808   1.864   2.874  0.2826 -0.0083 -0.5397
  732SOL     OW 2925   2.231   0.908   1.295 -0.0721 -0.6746 -0.3035
  732SOL    HW1 2926   2.186   0.940   1.374  1.5818 -3.3050  1.2998
  732SOL    HW2 2927   2.322   0.903   1.328 -1.6427  1.1002  0.2860
  732SOL     MW 2928   2.237   0.912   1.310 -0.0611 -0.7875 -0.0142
  733SOL     OW 2929   2.365   2.815   3.048  0.4178 -0.0608 -0.6316
  733SOL    HW1 2930   2.292   2.878   3.039  0.3673  2.7490  2.3154
  733SOL    HW2 2931   2.316   2.732   3.051  0.1657  2.0295 -0.6209
  733SOL     MW 2932   2.349   2.812   3.047  0.3779  0.5857 -0.2414
  734SOL     OW 2933   1.495   0.360   2.474  0.2239  0.0331 -0.1779
  734SOL    HW1 2934   1.460   0.322   2.559 -0.0414 -1.9419  0.2349
  734SOL    HW2 2935   1.525   0.279   2.426 -0.2019  2.4612  0.7259
  734SOL     MW 2936   1.494   0.344   2.479  0.1327  0.0929 -0.0042
  735SOL     OW 2937   3.007   0.954   2.590 -0.2982 -0.9080 -0.2191
  735SOL    HW1 2938   2.989   0.863   2.608 -1.2139 -0.9105 -3.0040
  735SOL    HW2 2939   3.033   0.995   2.674 -1.0328 -0.3093  0.3657
  735SOL     MW 2940   3.008   0.947   2.603 -0.5159 -0.8293 -0.5094
  736SOL     OW 2941   0.065   0.595   2.550  0.3741  0.6222  0.1614
  736SOL    HW1 2942   0.108   0.641   2.476  2.3264  2.3103  0.5009
  736SOL    HW2 2943   0.038   0.509   2.509 -0.0586  0.0827 -0.1574
  736SOL     MW 2944   0.067   0.590   2.535  0.5746  0.7737  0.1641
  737SOL     OW 2945   2.926   0.695   2.622 -0.0901 -0.0835  0.0897
  737SOL    HW1 2946   2.865   0.687   2.547  1.6912  0.6929 -0.7252
  737SOL    HW2 2947   3.005   0.644   2.604 -1.1768 -0.3858  0.9395
  737SOL     MW 2948   2.928   0.687   2.610  0.0016 -0.0209  0.0943
  738SOL     OW 2949   0.165   0.529   1.959 -0.3493 -0.0449  0.2786
  738SOL    HW1 2950   0.247   0.568   1.985  0.4879 -1.5874 -4.5541
  738SOL    HW2 2951   0.196   0.483   1.877  0.1644  4.0390  0.1163
  738SOL     MW 2952   0.180   0.528   1.952 -0.1711  0.2904 -0.3805
  739SOL     OW 2953   2.524   0.970   2.161 -0.2558  0.5866  0.0855
  739SOL    HW1 2954   2.438   0.926   2.149  1.4950 -0.8049  1.0529
  739SOL    HW2 2955   2.549   1.010   2.077 -0.8807  2.0077  1.2239
  739SOL     MW 2956   2.516   0.969   2.148 -0.1072  0.5905  0.3633
  740SOL     OW 2957   0.126   1.777   2.957  0.2734  0.0383  0.1701
  740SOL    HW1 2958   0.086   1.697   2.926  3.3539 -0.3383  0.2314
  740SOL    HW2 2959   0.214   1.751   2.992 -0.0004 -1.5144 -1.7466
  740SOL     MW 2960   0.132   1.763   2.957  0.6437 -0.2163 -0.0747
  741SOL     OW 2961   2.231   1.227   2.698 -0.0167  0.3911 -0.8266
  741SOL    HW1 2962   2.219   1.306   2.645 -0.0606 -1.5283  1.2183
  741SOL    HW2 2963   2.226   1.256   2.790  2.7055  2.6153 -1.8627
  741SOL     MW 2964   2.229   1.241   2.703  0.3367  0.4313 -0.6935
  742SOL     OW 2965   1.640   1.376   2.275 -0.4739 -0.2200 -0.0032
  742SOL    HW1 2966   1.601   1.289   2.263  0.1235 -0.6214 -1.3049
  742SOL    HW2 2967   1.626   1.392   2.364 -0.6243 -0.6837 -1.2675
  742SOL     MW 2968   1.633   1.367   2.285 -0.4149 -0.3341 -0.3418
  743SOL     OW 2969   2.513   1.247   2.723  0.2906 -0.2929  0.4418
  743SOL    HW1 2970   2.422   1.221   2.704  2.7699 -0.0551  1.0459
  743SOL    HW2 2971   2.550   1.171   2.748 -2.9007  2.6185 -0.0659
  743SOL     MW 2972   2.506   1.234   2.723  0.1966  0.1226  0.4545
  744SOL     OW 2973   2.800   0.990   1.835  0.0402  0.0847  0.1835
  744SOL    HW1 2974   2.718   1.021   1.877  0.0880  1.2105 -1.3148
  744SOL    HW2 2975   2.773   0.970   1.745  1.2135  0.5415 -0.8589
  744SOL     MW 2976   2.786   0.992   1.829  0.2013  0.2935 -0.1517
  745SOL     OW 2977   1.790   0.437   2.462 -0.0996  0.0056  0.0022
  745SOL    HW1 2978   1.795   0.414   2.368 -2.0775  0.3139 -0.4813
  745SOL    HW2 2979   1.694   0.442   2.483 -0.4921 -2.4827  1.6066
  745SOL     MW 2980   1.778   0.434   2.452 -0.4123 -0.2821  0.1501
  746SOL     OW 2981   1.503   1.473   1.680  0.0465 -0.2996 -0.5211
  746SOL    HW1 2982   1.575   1.532   1.698 -2.4229  0.1176  3.1730
  746SOL    HW2 2983   1.506   1.428   1.767  0.7811 -1.5099  0.4278
  746SOL     MW 2984   1.513   1.475   1.694 -0.1824 -0.4043  0.0915
  747SOL     OW 2985   2.549   1.131   1.908 -0.1735  0.3974 -0.3108
  747SOL    HW1 2986   2.455   1.134   1.879  0.4782 -2.6855  2.2842
  747SOL    HW2 2987   2.559   1.217   1.952 -1.5921 -0.2421 -0.5305
  747SOL     MW 2988   2.538   1.142   1.910 -0.2747 -0.0937  0.0026
  748SOL     OW 2989   0.077   3.057   1.909  0.2278 -0.1821 -0.4614
  748SOL    HW1 2990   0.156   3.014   1.943  0.8398  0.2590  0.0128
  748SOL    HW2 2991   0.067   3.131   1.964 -2.7866 -1.4366 -1.2682
  748SOL     MW 2992   0.086   3.061   1.921 -0.0892 -0.2894 -0.5053
  749SOL     OW 2993   2.462   0.577   2.772 -0.1494 -0.4600  0.2649
  749SOL    HW1 2994   2.470   0.668   2.732  3.7896  1.1244 -1.4267
  749SOL    HW2 2995   2.463   0.589   2.864 -0.2630 -0.0544 -3.5547
  749SOL     MW 2996   2.463   0.591   2.779  0.3553 -0.1974 -0.4622
  750SOL     OW 2997   2.069   3.060   1.951  0.4176  0.2143 -0.2571
  750SOL    HW1 2998   2.118   3.141   1.940 -0.4242 -3.8585 -0.1353
  750SOL    HW2 2999   2.136   2.990   1.982  1.3419 -0.0057 -0.2659
  750SOL     MW 3000   2.085   3.061   1.953  0.4285 -0.3521 -0.2422
  751SOL     OW 3001   0.012   0.376   2.400 -0.1324 -0.6471 -0.0883
  751SOL    HW1 3002  -0.072   0.390   2.364  0.7410 -0.6528 -1.3471
  751SOL    HW2 3003   0.072   0.374   2.323  0.5061  1.4218  1.5661
  751SOL     MW 3004   0.009   0.377   2.385  0.0671 -0.3749 -0.0361
  752SOL     OW 3005   2.129   0.901   2.755  0.2269 -0.1234 -0.4532
  752SOL    HW1 3006   2.222   0.925   2.739 -0.4142 -1.3502 -0.3810
  752SOL    HW2 3007   2.124   0.889   2.853  0.8398 -0.2320 -1.4163
  752SOL     MW 3008   2.141   0.903   2.766  0.2232 -0.2996 -0.5707
  753SOL     OW 3009   2.852   0.430   2.333  0.4591 -0.0648  0.7478
  753SOL    HW1 3010   2.792   0.356   2.332  0.9907  0.3291  0.8293
  753SOL    HW2 3011   2.800   0.512   2.337  1.6262  0.1551 -0.0498
  753SOL     MW 3012   2.837   0.431   2.333  0.6832  0.0162  0.6533
  754SOL     OW 3013   2.255   3.004   2.599 -0.3077  0.1760 -0.1625
  754SOL    HW1 3014   2.286   3.004   2.504 -0.6137  0.0703 -0.7260
  754SOL    HW2 3015   2.323   2.948   2.649  1.1978  0.2160  0.0935
  754SOL     MW 3016   2.268   2.997   2.593 -0.1494  0.1673 -0.2030
  755SOL     OW 3017   2.781   1.599   2.492 -0.2368  0.2246  0.1710
  755SOL    HW1 3018   2.775   1.504   2.510 -1.3819 -0.7012 -0.8837
  755SOL    HW2 3019   2.835   1.640   2.557 -0.5001 -0.6839  0.7325
  755SOL     MW 3020   2.787   1.592   2.503 -0.4226 -0.0174  0.1059
  756SOL     OW 3021   2.247   1.269   2.979  0.1148 -0.1489  0.3801
  756SOL    HW1 3022   2.322   1.333   2.991  1.9051  2.9574 -0.3286
  756SOL    HW2 3023   2.301   1.193   2.991  1.0530  1.5939  1.2256
  756SOL     MW 3024   2.264   1.268   2.982  0.4748  0.4909  0.3982
  757SOL     OW 3025   2.195   0.939   1.644 -0.3041  0.2513 -0.0189
  757SOL    HW1 3026   2.198   0.843   1.639 -0.0757 -2.1481  0.3347
  757SOL    HW2 3027   2.125   0.953   1.582  0.6476 -0.4006  1.3127
  757SOL     MW 3028   2.186   0.928   1.635 -0.1484 -0.1513  0.2035
  758SOL     OW 3029   2.261   1.787   2.630 -0.2116 -0.5817 -0.1169
  758SOL    HW1 3030   2.261   1.815   2.535  0.9465  1.3160  1.7074
  758SOL    HW2 3031   2.347   1.754   2.652  1.6970  0.9992  1.6751
  758SOL     MW 3032   2.272   1.787   2.620  0.1931 -0.1227  0.3602
  759SOL     OW 3033   1.539   1.425   2.787  0.2417 -0.0266  0.1065
  759SOL    HW1 3034   1.539   1.522   2.760 -0.8975  1.7055  1.1086
  759SOL    HW2 3035   1.624   1.415   2.823 -1.0935  0.2707  2.3906
  759SOL     MW 3036   1.550   1.436   2.788 -0.0848  0.2411  0.5401
  760SOL     OW 3037   2.666   1.979   2.671  0.9005  0.0440 -0.2263
  760SOL    HW1 3038   2.621   1.893   2.667  4.0626  2.4201 -1.7124
  760SOL    HW2 3039   2.750   1.980   2.633 -1.1358 -0.3092  0.5779
  760SOL     MW 3040   2.671   1.968   2.666  1.0491  0.3109 -0.3163
  761SOL     OW 3041   2.172   0.450   2.446  0.0001 -0.1452  0.0167
  761SOL    HW1 3042   2.101   0.386   2.439 -2.9495 -1.1721  3.6284
  761SOL    HW2 3043   2.133   0.506   2.522 -1.9066  0.7510  0.0661
  761SOL     MW 3044   2.158   0.449   2.455 -0.6406 -0.1625  0.4997
  762SOL     OW 3045   0.022   0.154   2.092 -0.1812  0.5260  0.4294
  762SOL    HW1 3046   0.018   0.106   2.176  0.7216 -2.5256 -1.1499
  762SOL    HW2 3047  -0.055   0.210   2.081 -1.4289 -1.1607  1.4052
  762SOL     MW 3048   0.011   0.155   2.102 -0.2267 -0.0992  0.3498
  763SOL     OW 3049   2.458   1.156   2.363  0.0391 -0.3670 -0.1867
  763SOL    HW1 3050   2.514   1.090   2.322 -0.4002  0.2832 -0.2230
  763SOL    HW2 3051   2.508   1.235   2.374 -0.2397 -0.2409 -3.7615
  763SOL     MW 3052   2.472   1.158   2.359 -0.0557 -0.2646 -0.6632
  764SOL     OW 3053   0.330   0.183   2.801 -0.2454  0.1114  0.3411
  764SOL    HW1 3054   0.265   0.211   2.742  1.6398 -1.6923  0.3118
  764SOL    HW2 3055   0.334   0.249   2.868 -2.8322 -1.8967  2.8637
  764SOL     MW 3056   0.322   0.195   2.802 -0.3380 -0.3915  0.6701
  765SOL     OW 3057   2.753   0.171   2.315 -0.0662 -0.4919 -0.1592
  765SOL    HW1 3058   2.703   0.119   2.249 -0.9390  1.3377 -0.1220
  765SOL    HW2 3059   2.794   0.106   2.377  2.2019 -0.9524  0.0254
  765SOL     MW 3060   2.752   0.156   2.315  0.1179 -0.3113 -0.1300
  766SOL     OW 3061   1.845   2.998   2.100 -0.1323 -0.1026  0.0998
  766SOL    HW1 3062   1.910   3.032   2.040 -2.1667  1.3189  0.7296
  766SOL    HW2 3063   1.786   2.932   2.065  0.8803 -0.7010  2.0228
  766SOL     MW 3064   1.846   2.994   2.088 -0.2671  0.0060  0.4366
  767SOL     OW 3065   2.697   0.617   1.909 -0.4172 -0.4266 -0.8637
  767SOL    HW1 3066   2.739   0.678   1.973 -1.1103  2.1160 -0.4760
  767SOL    HW2 3067   2.607   0.652   1.903  1.4680  1.1612 -3.1291
  767SOL     MW 3068   2.691   0.630   1.916 -0.2599  0.1184 -1.1115
  768SOL     OW 3069   0.023   1.479   2.951 -0.2592  0.7991 -0.1108
  768SOL    HW1 3070   0.044   1.484   3.049 -1.0739 -3.2530 -0.1071
  768SOL    HW2 3071   0.081   1.413   2.918 -1.1573  1.1901  0.3898
  768SOL     MW 3072   0.033   1.471   2.960 -0.4852  0.3160 -0.0443
  769SOL     OW 3073   2.381   0.628   2.470 -0.6030 -0.4254 -0.2936
  769SOL    HW1 3074   2.319   0.549   2.461  1.8421 -1.7056 -2.5470
  769SOL    HW2 3075   2.422   0.629   2.385 -0.8103 -0.8086  0.4140
  769SOL     MW 3076   2.378   0.618   2.457 -0.3077 -0.6448 -0.4976
  770SOL     OW 3077   0.058   1.607   2.600 -0.0296 -0.3236 -1.0164
  770SOL    HW1 3078  -0.030   1.618   2.640  0.5208  0.7801 -0.4862
  770SOL    HW2 3079   0.095   1.527   2.640 -2.0030  1.5367 -1.2483
  770SOL     MW 3080   0.051   1.598   2.611 -0.2173  0.0674 -0.9771
  771SOL     OW 3081   3.005   0.587   1.972  0.6658  0.2546 -0.0365
  771SOL    HW1 3082   2.975   0.590   1.878  0.3625  3.4184 -1.3081
  771SOL    HW2 3083   3.095   0.572   1.960 -2.6193  1.3115  1.3911
  771SOL     MW 3084   3.013   0.585   1.958  0.1923  0.8115 -0.0159
  772SOL     OW 3085   0.040   3.099   2.308  0.3914  0.5888  0.2076
  772SOL    HW1 3086  -0.052   3.079   2.325  0.4338 -0.4531 -1.0399
  772SOL    HW2 3087   0.072   3.011   2.285 -0.5316  1.0817  0.7327
  772SOL     MW 3088   0.032   3.085   2.307  0.2752  0.5164  0.1123
  773SOL     OW 3089   2.440   2.872   2.787 -0.9928  1.0672 -0.2145
  773SOL    HW1 3090   2.451   2.787   2.743  0.6151 -1.0548 -2.7122
  773SOL    HW2 3091   2.405   2.849   2.875  0.2995  0.5240  0.1983
  773SOL     MW 3092   2.437   2.857   2.793 -0.6101  0.7156 -0.4896
  774SOL     OW 3093   2.297   1.173   1.809  0.3733 -0.0372 -0.1975
  774SOL    HW1 3094   2.277   1.246   1.745 -0.3726  0.3185  0.0059
  774SOL    HW2 3095   2.255   1.091   1.771 -0.9912  3.5943 -1.1089
  774SOL     MW 3096   2.289   1.172   1.795  0.0949  0.4888 -0.2909
  775SOL     OW 3097   2.313   2.985   2.332  0.4378 -0.5242 -0.0025
  775SOL    HW1 3098   2.348   3.052   2.267 -0.0367  0.2937  0.1258
  775SOL    HW2 3099   2.363   2.909   2.311  1.5982  1.2217 -0.4758
  775SOL     MW 3100   2.324   2.984   2.320  0.5283 -0.1859 -0.0480
  776SOL     OW 3101   0.103   1.498   0.105  0.1194  0.3031 -0.8315
  776SOL    HW1 3102   0.187   1.446   0.091  0.2226 -0.6931  0.0509
  776SOL    HW2 3103   0.047   1.438   0.152  1.2676 -0.7767 -2.4984
  776SOL     MW 3104   0.107   1.483   0.109  0.2845  0.0292 -0.9350
  777SOL     OW 3105   3.008   1.119   1.716 -0.5194 -0.6928 -0.1626
  777SOL    HW1 3106   2.993   1.156   1.633  0.4974  3.0503  3.0284
  777SOL    HW2 3107   2.937   1.074   1.759 -0.2058 -1.3177 -1.7426
  777SOL     MW 3108   2.997   1.118   1.711 -0.3438 -0.2814  0.0499
  778SOL     OW 3109   2.819   0.442   2.719  0.4202  0.6317  0.5267
  778SOL    HW1 3110   2.770   0.449   2.799  2.4127 -0.3658 -0.9704
  778SOL    HW2 3111   2.833   0.535   2.697  0.2353 -0.9266  2.5237
  778SOL     MW 3112   2.815   0.456   2.727  0.6587  0.2945  0.5927
  779SOL     OW 3113   2.248   0.550   2.198  0.2473 -0.0333  0.2926
  779SOL    HW1 3114   2.241   0.647   2.213 -0.1942  0.7462 -1.6147
  779SOL    HW2 3115   2.209   0.509   2.271  2.3525 -1.8978 -1.6572
  779SOL     MW 3116   2.242   0.558   2.210  0.4668 -0.1765 -0.2163
  780SOL     OW 3117   0.120   0.314   2.671  0.5988  0.0772  0.1282
  780SOL    HW1 3118   0.078   0.338   2.756 -0.5269 -0.2570 -0.3911
  780SOL    HW2 3119   0.157   0.397   2.630  0.0187 -1.4870 -2.2817
  780SOL     MW 3120   0.120   0.328   2.677  0.3737 -0.1733 -0.2583
  781SOL     OW 3121   3.076   1.294   2.461 -0.0022  0.0972  0.3335
  781SOL    HW1 3122   3.045   1.354   2.397  0.3638 -1.2819  0.5638
  781SOL    HW2 3123   3.093   1.214   2.410 -0.4499 -0.8993 -0.4926
  781SOL     MW 3124   3.074   1.291   2.446 -0.0130 -0.2163  0.2549
  782SOL     OW 3125   0.658   1.581   0.014  0.5104 -0.1087  0.0328
  782SOL    HW1 3126   0.592   1.642  -0.011 -2.7794  1.9970 -0.1332
  782SOL    HW2 3127   0.680   1.610   0.099 -2.2752 -0.7442 -2.3454
  782SOL     MW 3128   0.652   1.593   0.022 -0.2912  0.0853 -0.3029
  783SOL     OW 3129   2.690   0.638   2.450  0.0098  0.0873 -0.1502
  783SOL    HW1 3130   2.667   0.650   2.359 -0.8361 -1.3917 -1.0170
  783SOL    HW2 3131   2.635   0.560   2.466 -0.7103 -1.9812 -1.6231
  783SOL     MW 3132   2.679   0.630   2.440 -0.1969 -0.3807 -0.4589
  784SOL     OW 3133   0.144   0.824   2.860 -0.4749 -0.6734 -0.2105
  784SOL    HW1 3134   0.069   0.871   2.843  0.7788 -0.2918  1.3570
  784SOL    HW2 3135   0.213   0.859   2.796  0.0290 -0.8126 -0.3239
  784SOL     MW 3136   0.143   0.834   2.849 -0.2430 -0.6414 -0.0187
  785SOL     OW 3137   0.418   0.470   2.175 -0.4850  0.2727 -0.4149
  785SOL    HW1 3138   0.433   0.482   2.082  1.9872 -2.0311  2.6677
  785SOL    HW2 3139   0.341   0.419   2.186  2.1119  1.9185  2.2771
  785SOL     MW 3140   0.410   0.465   2.164  0.1838  0.1859  0.3470
  786SOL     OW 3141   1.916   0.388   2.960  0.1506 -0.2305  0.2171
  786SOL    HW1 3142   1.893   0.474   2.992  1.7106 -1.2572 -1.4958
  786SOL    HW2 3143   1.980   0.407   2.895  0.3171 -1.9650 -0.7294
  786SOL     MW 3144   1.922   0.402   2.955  0.3784 -0.5948 -0.1338
  787SOL     OW 3145   2.468   0.091   2.976 -0.0294  0.2820 -0.1440
  787SOL    HW1 3146   2.536   0.028   2.943 -1.2618 -0.4829  0.5909
  787SOL    HW2 3147   2.506   0.176   3.002  0.4888  0.1594  1.7470
  787SOL     MW 3148   2.482   0.094   2.975 -0.1236  0.1649  0.2024
  788SOL     OW 3149   2.864   3.033   2.431 -0.1087 -0.3180 -0.3148
  788SOL    HW1 3150   2.925   3.025   2.506 -1.1952 -1.6884 -0.8127
  788SOL    HW2 3151   2.866   2.950   2.388 -1.1816  1.9941 -3.7217
  788SOL     MW 3152   2.873   3.021   2.435 -0.3936 -0.1937 -0.8300
  789SOL     OW 3153   0.069   0.197   3.036  0.4621  0.0928 -0.0669
  789SOL    HW1 3154   0.001   0.136   3.071  1.1380  0.4550  0.8198
  789SOL    HW2 3155   0.021   0.234   2.963 -0.7959 -0.9949  3.0309
  789SOL     MW 3156   0.054   0.194   3.031  0.3853 -0.0029  0.4588
  790SOL     OW 3157   3.097   1.065   2.335  0.5272  0.0926 -0.3596
  790SOL    HW1 3158   3.080   1.004   2.405 -1.4120 -0.0601 -1.6463
  790SOL    HW2 3159   3.028   1.058   2.265  0.0560 -0.0378 -2.8121
  790SOL     MW 3160   3.086   1.056   2.335  0.2092  0.0552 -0.8530
  791SOL     OW 3161   2.570   0.423   2.576  0.6719 -0.4530 -0.0722
  791SOL    HW1 3162   2.518   0.494   2.626 -2.5984 -0.9693  0.3140
  791SOL    HW2 3163   2.648   0.407   2.633  2.5752  2.0251  2.1452
  791SOL     MW 3164   2.573   0.430   2.590  0.4915 -0.1942  0.2713
  792SOL     OW 3165   2.334   0.193   2.414  0.1217  0.1820 -0.0976
  792SOL    HW1 3166   2.324   0.283   2.419 -0.7587 -0.6617 -0.6912
  792SOL    HW2 3167   2.357   0.154   2.497  0.4868 -0.1169 -2.0337
  792SOL     MW 3168   2.336   0.200   2.425  0.0537  0.0312 -0.4314
  793SOL     OW 3169   1.962   1.209   1.977  0.2182  0.5047 -0.0408
  793SOL    HW1 3170   1.935   1.211   1.888  0.6597  0.4966  2.1559
  793SOL    HW2 3171   2.035   1.149   1.961 -0.0999 -1.3741 -3.7377
  793SOL     MW 3172   1.968   1.201   1.963  0.2344  0.2558 -0.2388
  794SOL     OW 3173   1.407   2.370   0.132 -0.3089  0.0868 -0.1527
  794SOL    HW1 3174   1.441   2.448   0.099  0.1329 -3.5402 -0.4091
  794SOL    HW2 3175   1.455   2.353   0.218 -2.2893  0.2748  1.6700
  794SOL     MW 3176   1.418   2.378   0.139 -0.5119 -0.3670  0.0540
  795SOL     OW 3177   2.307   1.001   2.548 -0.3352  0.7527  0.2050
  795SOL    HW1 3178   2.259   1.078   2.582 -0.1667 -0.1558 -0.2527
  795SOL    HW2 3179   2.357   1.039   2.479  1.4112 -2.1376  0.1553
  795SOL     MW 3180   2.308   1.016   2.544 -0.0826  0.2515  0.1380
  796SOL     OW 3181   0.240   0.579   2.779 -0.3371 -0.9064  0.0518
  796SOL    HW1 3182   0.207   0.659   2.830 -2.5258  0.4432  0.9249
  796SOL    HW2 3183   0.178   0.583   2.706 -2.3285 -0.5215  0.4850
  796SOL     MW 3184   0.228   0.590   2.776 -0.8887 -0.6775  0.2241
  797SOL     OW 3185   2.609   0.152   2.583  0.4808 -0.5830  0.0888
  797SOL    HW1 3186   2.586   0.249   2.576 -3.1057  3.2815  0.4316
  797SOL    HW2 3187   2.636   0.135   2.497 -3.4375  1.7474  0.1007
  797SOL     MW 3188   2.610   0.163   2.571 -0.5094  0.2343  0.1356
  798SOL     OW 3189   2.312   0.099   2.161 -0.5095  0.6200  0.7790
  798SOL    HW1 3190   2.304   0.109   2.254 -2.9581 -0.9013 -1.1737
  798SOL    HW2 3191   2.406   0.085   2.143 -1.2652 -0.0619 -0.4350
  798SOL     MW 3192   2.323   0.098   2.171 -0.9323  0.3293  0.3612
  799SOL     OW 3193   2.561   2.934   0.115  0.1206 -0.3421 -0.1201
  799SOL    HW1 3194   2.483   2.884   0.088 -0.6969  0.0398 -1.8941
  799SOL    HW2 3195   2.537   2.965   0.198 -1.4400 -0.4259  0.6327
  799SOL     MW 3196   2.548   2.931   0.122 -0.1931 -0.3028 -0.2548
  800SOL     OW 3197   1.922   0.030   1.701  0.3003 -0.2562 -0.1858
  800SOL    HW1 3198   1.864  -0.040   1.679  0.5232 -0.2778  0.1553
  800SOL    HW2 3199   1.970  -0.010   1.775  0.1517  0.9185 -1.3263
  800SOL     MW 3200   1.921   0.016   1.708  0.3101 -0.1041 -0.2913
  801SOL     OW 3201   2.815   1.256   2.615 -0.1401  0.1681 -0.0838
  801SOL    HW1 3202   2.800   1.163   2.629  1.4788  0.3718 -1.8486
  801SOL    HW2 3203   2.888   1.261   2.557 -0.1510  1.2437 -0.7868
  801SOL     MW 3204   2.823   1.245   2.609  0.0721  0.3369 -0.4094
  802SOL     OW 3205   2.583   1.484   2.811  0.0914  0.3385 -0.4858
  802SOL    HW1 3206   2.551   1.404   2.759  3.7389  0.8587 -4.3513
  802SOL    HW2 3207   2.680   1.460   2.814 -0.2663 -0.2574 -0.1049
  802SOL     MW 3208   2.591   1.470   2.804  0.5255  0.3285 -0.9455
  803SOL     OW 3209   2.243   1.401   2.017  0.7190 -0.0349 -0.0899
  803SOL    HW1 3210   2.221   1.378   2.109 -1.7711  1.2095 -0.7575
  803SOL    HW2 3211   2.279   1.331   1.963  0.0435  2.3292 -1.9915
  803SOL     MW 3212   2.245   1.389   2.022  0.3013  0.4412 -0.4289
  804SOL     OW 3213   2.260   0.103   0.035  0.1439  0.5536  0.1619
  804SOL    HW1 3214   2.229   0.197   0.021 -0.0879 -0.6084 -1.1789
  804SOL    HW2 3215   2.335   0.091  -0.029  0.0163 -3.0688  3.3769
  804SOL     MW 3216   2.266   0.114   0.025  0.0965 -0.0777  0.4092
  805SOL     OW 3217   2.719   0.974   2.607  0.1082  0.7910 -0.7245
  805SOL    HW1 3218   2.659   0.900   2.594  1.4540  0.0232  0.1236
  805SOL    HW2 3219   2.809   0.939   2.594 -0.5938  1.6287 -1.2682
  805SOL     MW 3220   2.723   0.960   2.603  0.1931  0.8002 -0.6844
  806SOL     OW 3221   2.554   0.627   2.217  0.2853  0.0125  0.2458
  806SOL    HW1 3222   2.498   0.558   2.193  3.6406  0.4483 -3.2644
  806SOL    HW2 3223   2.536   0.692   2.148 -0.3187 -0.4747 -0.6479
  806SOL     MW 3224   2.544   0.627   2.205  0.6483  0.0057 -0.3353
  807SOL     OW 3225   0.090   1.130   2.066 -0.4915  0.8957  0.3549
  807SOL    HW1 3226   0.126   1.046   2.077 -1.2393  1.3178  2.3291
  807SOL    HW2 3227   0.000   1.113   2.076  1.7992  3.6516 -1.4764
  807SOL     MW 3228   0.083   1.117   2.069 -0.2879  1.3150  0.3738
  808SOL     OW 3229   2.665   3.038   2.798  0.2114  0.0033  0.4217
  808SOL    HW1 3230   2.596   2.971   2.806 -0.2858 -3.4463 -0.6616
  808SOL    HW2 3231   2.640   3.100   2.733 -0.0812 -1.8120  1.6876
  808SOL     MW 3232   2.653   3.038   2.791  0.1072 -0.6914  0.4458
  809SOL     OW 3233   2.596   1.372   2.456  0.4165  0.0241  0.4119
  809SOL    HW1 3234   2.623   1.308   2.522  1.4580 -4.1203  0.0110
  809SOL    HW2 3235   2.666   1.369   2.383 -2.4427 -0.7828 -0.9038
  809SOL     MW 3236   2.609   1.363   2.455  0.1766 -0.6292  0.1854
  810SOL     OW 3237   2.220   1.324   2.294 -0.1012  0.1149 -0.1960
  810SOL    HW1 3238   2.291   1.265   2.305 -0.0731  1.8160 -0.9312
  810SOL    HW2 3239   2.174   1.330   2.375  1.0886 -1.5019 -1.7606
  810SOL     MW 3240   2.223   1.317   2.306  0.0595  0.1260 -0.4994
  811SOL     OW 3241   1.541   0.141   2.306  0.2723 -0.2401 -0.3551
  811SOL    HW1 3242   1.630   0.103   2.311 -0.2136 -0.2561 -0.5892
  811SOL    HW2 3243   1.519   0.151   2.212 -0.2816  0.6288 -0.1413
  811SOL     MW 3244   1.550   0.137   2.294  0.1351 -0.1275 -0.3578
  812SOL     OW 3245   1.450   2.791   2.006  0.3605 -0.1607  0.0373
  812SOL    HW1 3246   1.534   2.795   1.957 -1.2538 -0.6563  0.5972
  812SOL    HW2 3247   1.479   2.770   2.093 -1.9150  1.0688 -0.7352
  812SOL     MW 3248   1.465   2.789   2.011 -0.1527 -0.0639  0.0092
  813SOL     OW 3249   1.962   0.681   2.261 -0.2497  0.9843  0.1109
  813SOL    HW1 3250   1.890   0.615   2.239 -3.1569  0.6916 -0.3834
  813SOL    HW2 3251   1.916   0.753   2.299 -0.9440 -2.7447  1.4353
  813SOL     MW 3252   1.946   0.681   2.263 -0.7249  0.4537  0.2204
  814SOL     OW 3253   2.695   1.280   1.644  0.1076  0.0294 -0.0137
  814SOL    HW1 3254   2.689   1.223   1.723  1.1373  2.4241 -1.6085
  814SOL    HW2 3255   2.713   1.224   1.572  0.2129  1.5173  3.6448
  814SOL     MW 3256   2.696   1.265   1.645  0.2573  0.5417  0.2586
  815SOL     OW 3257   2.573   1.731   2.413 -0.5234 -0.3124  0.4968
  815SOL    HW1 3258   2.503   1.672   2.397  1.7527 -1.8178 -2.5095
  815SOL    HW2 3259   2.648   1.678   2.449  0.4171 -4.9538 -0.4059
  815SOL     MW 3260   2.573   1.716   2.415 -0.0990 -1.1234 -0.0189
  816SOL     OW 3261   0.719   0.717   2.727  0.5874  0.2391  0.4747
  816SOL    HW1 3262   0.730   0.631   2.769 -1.4739 -0.4375  4.5440
  816SOL    HW2 3263   0.639   0.696   2.681  1.0428  2.3176 -2.4323
  816SOL     MW 3264   0.710   0.703   2.727  0.3755  0.4241  0.6280
  817SOL     OW 3265   3.018   1.214   1.456  0.0574  0.0813  0.1196
  817SOL    HW1 3266   3.111   1.231   1.482 -1.0955 -1.1430 -2.4936
  817SOL    HW2 3267   2.997   1.287   1.392  2.4480  1.4130 -1.5100
  817SOL     MW 3268   3.027   1.226   1.451  0.2207  0.0955 -0.4402
  818SOL     OW 3269   1.893   1.040   2.717 -0.3645  0.6898 -0.0020
  818SOL    HW1 3270   1.880   0.997   2.627 -0.1587 -0.3515 -0.2024
  818SOL    HW2 3271   1.979   1.003   2.745 -1.0001  0.6388  0.5781
  818SOL     MW 3272   1.903   1.030   2.708 -0.4212  0.5457  0.0481
  819SOL     OW 3273   1.974   0.241   2.508 -0.3925 -0.4972 -0.4767
  819SOL    HW1 3274   1.903   0.312   2.508 -0.7255 -2.2124 -2.1845
  819SOL    HW2 3275   2.018   0.246   2.594 -1.0516  0.5063  0.2716
  819SOL     MW 3276   1.971   0.251   2.519 -0.5234 -0.5911 -0.6033
  820SOL     OW 3277   2.531   1.747   2.701  0.2380 -0.2627  0.5941
  820SOL    HW1 3278   2.559   1.676   2.762  2.7558 -3.1051 -0.7578
  820SOL    HW2 3279   2.555   1.724   2.608  1.2126 -1.6506 -0.0574
  820SOL     MW 3280   2.538   1.734   2.697  0.6988 -0.8209  0.3297
  821SOL     OW 3281   2.587   1.395   2.032  0.4318  0.4727  0.2379
  821SOL    HW1 3282   2.628   1.437   1.952 -2.5597  2.0816  2.6098
  821SOL    HW2 3283   2.519   1.450   2.065 -0.6588  2.8852 -2.7820
  821SOL     MW 3284   2.583   1.407   2.025 -0.1068  1.0033  0.1524
  822SOL     OW 3285   2.758   2.652   1.386 -0.6264  0.4383  0.2495
  822SOL    HW1 3286   2.790   2.651   1.476 -0.5893  0.7227 -2.0201
  822SOL    HW2 3287   2.675   2.691   1.385  1.1595 -1.2586 -0.3571
  822SOL     MW 3288   2.751   2.657   1.398 -0.3859  0.2519 -0.1300
  823SOL     OW 3289   2.366   0.480   1.757  0.1797 -0.1266  0.2832
  823SOL    HW1 3290   2.436   0.457   1.700 -6.0592  1.7176 -0.9894
  823SOL    HW2 3291   2.297   0.414   1.742 -1.2437 -0.5912 -1.6966
  823SOL     MW 3292   2.366   0.468   1.748 -0.8313  0.0554 -0.1459
  824SOL     OW 3293   2.143   1.463   2.548 -0.1355  0.3270  0.1629
  824SOL    HW1 3294   2.226   1.496   2.515 -0.7419 -0.0110  0.4373
  824SOL    HW2 3295   2.107   1.538   2.591  0.5513 -1.5962  1.5625
  824SOL     MW 3296   2.150   1.477   2.549 -0.1249  0.0287  0.3838
  825SOL     OW 3297   1.855   2.541   0.267  0.4998 -0.2454  0.4226
  825SOL    HW1 3298   1.832   2.488   0.344 -1.2081 -0.8063  2.2421
  825SOL    HW2 3299   1.920   2.488   0.216 -0.0353 -0.9218  1.1806
  825SOL     MW 3300   1.861   2.527   0.271  0.2039 -0.4086  0.7627
  826SOL     OW 3301   1.859   2.386   0.544 -0.1384  0.2757  0.2978
  826SOL    HW1 3302   1.835   2.306   0.594  1.5722 -1.3208 -0.1895
  826SOL    HW2 3303   1.811   2.455   0.590  1.0840 -0.2571 -1.6522
  826SOL     MW 3304   1.849   2.384   0.557  0.2486 -0.0052 -0.0238
  827SOL     OW 3305   1.940   2.173   0.897  0.2917  0.2875  0.6928
  827SOL    HW1 3306   1.865   2.216   0.851 -1.4851 -0.7640  0.2059
  827SOL    HW2 3307   1.892   2.105   0.951  1.6430  0.5606  0.2914
  827SOL     MW 3308   1.924   2.170   0.898  0.2355  0.1848  0.5756
  828SOL     OW 3309   0.057   2.568   0.604  0.1096 -0.0006  0.5437
  828SOL    HW1 3310   0.150   2.575   0.611 -1.1609  1.9117 -2.0108
  828SOL    HW2 3311   0.052   2.626   0.531  1.2198 -3.2837 -0.8032
  828SOL     MW 3312   0.068   2.577   0.596  0.0884 -0.1815  0.0289
  829SOL     OW 3313   2.979   2.972   1.149 -0.3270  0.1826  0.0487
  829SOL    HW1 3314   2.893   2.966   1.113 -1.4366 -0.7618  0.5977
  829SOL    HW2 3315   3.016   2.884   1.143  0.9439  0.2027 -1.7928
  829SOL     MW 3316   2.973   2.960   1.143 -0.3057  0.0607 -0.1218
  830SOL     OW 3317   2.545   2.848   2.028 -0.4685  0.8731 -0.0530
  830SOL    HW1 3318   2.448   2.838   2.012 -2.6043  0.0656 -0.5693
  830SOL    HW2 3319   2.592   2.853   1.942 -0.4537 -1.3792  0.1246
  830SOL     MW 3320   2.539   2.848   2.015 -0.7484  0.4694 -0.0977
  831SOL     OW 3321   2.392   2.499   1.229  0.5117 -0.0382  0.1085
  831SOL    HW1 3322   2.363   2.456   1.312 -1.1891 -1.1420  1.2537
  831SOL    HW2 3323   2.470   2.455   1.202 -2.7887  1.0322  1.5626
  831SOL     MW 3324   2.398   2.488   1.236 -0.1482 -0.0426  0.4514
  832SOL     OW 3325   2.373   2.201   1.922 -0.2358  0.0346  0.2316
  832SOL    HW1 3326   2.406   2.294   1.936  1.7191  1.5377 -0.7914
  832SOL    HW2 3327   2.462   2.160   1.894 -1.2649 -1.4520  0.1017
  832SOL     MW 3328   2.389   2.208   1.920 -0.1136  0.0368  0.0795
  833SOL     OW 3329   1.748   2.447   0.904  0.3661 -0.3132 -0.0908
  833SOL    HW1 3330   1.668   2.396   0.930  0.8827 -1.6380  1.9501
  833SOL    HW2 3331   1.768   2.484   0.983 -1.0866 -1.6340 -4.2008
  833SOL     MW 3332   1.740   2.445   0.918  0.2426 -0.6623 -0.3638
  834SOL     OW 3333   2.106   2.464   0.595  0.3307  0.2491 -0.2584
  834SOL    HW1 3334   2.014   2.433   0.565 -2.1318  1.5891  0.9233
  834SOL    HW2 3335   2.153   2.438   0.513  2.7359  0.8126  1.6481
  834SOL     MW 3336   2.100   2.457   0.580  0.3232  0.5002  0.1491
  835SOL     OW 3337   1.763   2.606   0.688  0.1418 -0.2448 -0.4873
  835SOL    HW1 3338   1.748   2.552   0.770 -2.1910 -1.4903 -0.0636
  835SOL    HW2 3339   1.839   2.654   0.706 -2.5890 -1.8993 -2.3840
  835SOL     MW 3340   1.771   2.605   0.701 -0.5263 -0.6274 -0.6817
  836SOL     OW 3341   1.905   2.211   1.634 -0.2060 -0.2803 -0.3834
  836SOL    HW1 3342   1.991   2.230   1.673 -0.4963  1.1816 -0.0362
  836SOL    HW2 3343   1.865   2.298   1.640 -0.2757 -1.2690  2.9987
  836SOL     MW 3344   1.911   2.225   1.640 -0.2535 -0.2179  0.1087
  837SOL     OW 3345   2.079   0.146   0.691  0.1138 -0.3862  0.6979
  837SOL    HW1 3346   2.018   0.215   0.652  0.5043 -0.4024 -3.2812
  837SOL    HW2 3347   2.129   0.108   0.618 -1.2593 -1.2498 -1.9373
  837SOL     MW 3348   2.077   0.150   0.677 -0.0159 -0.5022 -0.1748
  838SOL     OW 3349   2.923   2.078   0.929  0.1580  0.3346  0.1186
  838SOL    HW1 3350   2.855   2.029   0.975  0.5953  1.2104  1.4116
  838SOL    HW2 3351   3.000   2.020   0.924 -0.8056 -0.7147  0.5540
  838SOL     MW 3352   2.925   2.064   0.935  0.0886  0.3117  0.3466
  839SOL     OW 3353   1.508   2.325   0.972 -0.0532 -0.2704  0.3811
  839SOL    HW1 3354   1.509   2.401   1.034  1.0201  2.0034 -1.2276
  839SOL    HW2 3355   1.524   2.247   1.030  3.7575 -0.7251 -3.4800
  839SOL     MW 3356   1.510   2.325   0.988  0.5912 -0.0304 -0.3406
  840SOL     OW 3357   2.375   2.122   2.432 -0.1083 -0.0144 -0.0266
  840SOL    HW1 3358   2.340   2.183   2.377 -0.1583 -2.5322  2.0750
  840SOL    HW2 3359   2.408   2.181   2.502  2.6854 -1.3982  0.2845
  840SOL     MW 3360   2.374   2.138   2.434  0.2537 -0.5292  0.2917
  841SOL     OW 3361   2.080   2.453   0.140 -0.6335  0.9993 -0.0627
  841SOL    HW1 3362   2.120   2.495   0.060 -0.4986 -0.0037  0.1038
  841SOL    HW2 3363   2.048   2.367   0.105 -0.0589  0.1745  1.2806
  841SOL     MW 3364   2.081   2.447   0.125 -0.5399  0.7582  0.1365
  842SOL     OW 3365   2.563   2.074   1.522  0.2281 -0.4076  0.2942
  842SOL    HW1 3366   2.522   2.014   1.588 -2.0410 -1.7386 -0.3157
  842SOL    HW2 3367   2.514   2.071   1.444 -0.9272  3.5055  0.5680
  842SOL     MW 3368   2.551   2.066   1.520 -0.2237 -0.0669  0.2499
  843SOL     OW 3369   2.649   2.783   1.762 -0.1418  0.3348  0.6129
  843SOL    HW1 3370   2.722   2.724   1.731  2.6595 -2.0949 -2.7228
  843SOL    HW2 3371   2.568   2.727   1.742 -3.5068 -0.3033 -1.9253
  843SOL     MW 3372   2.648   2.767   1.755 -0.2162 -0.0700 -0.1621
  844SOL     OW 3373   2.594   2.331   1.167  0.1252  0.1033  0.5222
  844SOL    HW1 3374   2.638   2.377   1.093 -0.0485 -2.2785  1.4867
  844SOL    HW2 3375   2.671   2.334   1.227 -1.0236  2.1611  0.9904
  844SOL     MW 3376   2.610   2.338   1.165 -0.0493  0.0606  0.7112
  845SOL     OW 3377   2.828   2.472   0.302  0.0641  0.4674 -0.5192
  845SOL    HW1 3378   2.768   2.395   0.318  2.0327 -0.2688 -0.8926
  845SOL    HW2 3379   2.857   2.511   0.386  0.7913  1.2925 -0.2808
  845SOL     MW 3380   2.824   2.467   0.315  0.4198  0.4791 -0.5370
  846SOL     OW 3381   1.519   2.900   0.737 -0.1922  0.0176  0.5453
  846SOL    HW1 3382   1.583   2.959   0.774 -1.5764 -0.7915  0.0251
  846SOL    HW2 3383   1.443   2.923   0.783 -0.0542 -0.6030 -4.2658
  846SOL     MW 3384   1.517   2.911   0.748 -0.3567 -0.1710 -0.1581
  847SOL     OW 3385   2.625   1.924   0.182 -0.1630  0.4743 -0.1005
  847SOL    HW1 3386   2.708   1.873   0.170  0.2354 -3.5831 -0.0192
  847SOL    HW2 3387   2.569   1.864   0.123  2.3260 -0.6862  2.2031
  847SOL     MW 3388   2.629   1.909   0.173  0.2180 -0.2141  0.2142
  848SOL     OW 3389   2.419   2.110   1.288  0.0890 -0.1789 -0.0332
  848SOL    HW1 3390   2.486   2.150   1.230  2.3316  0.9588 -0.8073
  848SOL    HW2 3391   2.385   2.028   1.255 -0.8958 -0.4157  0.6310
  848SOL     MW 3392   2.423   2.105   1.276  0.2550 -0.0601 -0.0477
  849SOL     OW 3393   1.984   2.771   0.740  0.5669 -0.3722  0.0360
  849SOL    HW1 3394   2.015   2.750   0.829  0.9122  0.0521 -0.6307
  849SOL    HW2 3395   2.048   2.725   0.695 -1.0729  2.5331  4.0022
  849SOL     MW 3396   1.996   2.762   0.746  0.3961  0.0671  0.4713
  850SOL     OW 3397   2.198   1.988   1.703  0.3766  0.1568  0.4537
  850SOL    HW1 3398   2.131   1.952   1.640 -0.9086  0.3647  0.5092
  850SOL    HW2 3399   2.186   2.080   1.691  1.6061 -0.0174  1.6018
  850SOL     MW 3400   2.188   1.996   1.693  0.3693  0.1612  0.6125
  851SOL     OW 3401   2.253   2.420   0.359 -0.0699  0.0339 -0.0581
  851SOL    HW1 3402   2.178   2.429   0.288 -0.4164  2.3779 -1.6953
  851SOL    HW2 3403   2.323   2.488   0.338  3.0550  0.6407  0.9954
  851SOL     MW 3404   2.252   2.430   0.346  0.2966  0.4232 -0.1351
  852SOL     OW 3405   2.319   2.156   0.201  0.4922  0.1205  0.3843
  852SOL    HW1 3406   2.301   2.240   0.236 -0.8475 -0.0593  0.2421
  852SOL    HW2 3407   2.413   2.157   0.171 -2.5094  0.7008  2.1268
  852SOL     MW 3408   2.329   2.167   0.202 -0.0806  0.1733  0.5954
  853SOL     OW 3409   2.443   2.454   1.968  0.1249  0.0002  0.1058
  853SOL    HW1 3410   2.456   2.493   1.881 -2.8391  0.3739 -0.4965
  853SOL    HW2 3411   2.531   2.456   2.001  0.4249 -1.1431  0.2260
  853SOL     MW 3412   2.456   2.459   1.961 -0.2266 -0.1014  0.0422
  854SOL     OW 3413   2.813   2.268   0.770  0.4721  0.1893 -0.1905
  854SOL    HW1 3414   2.733   2.224   0.745  0.3695  0.0152  1.5804
  854SOL    HW2 3415   2.857   2.201   0.825  0.1279  0.6593 -0.9001
  854SOL     MW 3416   2.808   2.254   0.774  0.4131  0.2283 -0.0505
  855SOL     OW 3417   2.678   2.258   0.354  0.1146  0.6313  0.3433
  855SOL    HW1 3418   2.646   2.303   0.440  1.3438  0.0318  1.9952
  855SOL    HW2 3419   2.756   2.201   0.366 -0.7532  1.6926  2.3146
  855SOL     MW 3420   2.684   2.257   0.367  0.1623  0.6922  0.8214
  856SOL     OW 3421   2.192   1.915   0.219  0.2930 -0.0209 -0.4373
  856SOL    HW1 3422   2.094   1.914   0.213 -0.8300 -0.1890 -3.5125
  856SOL    HW2 3423   2.232   2.001   0.248  1.9794 -0.0504  0.9518
  856SOL     MW 3424   2.185   1.926   0.222  0.3673 -0.0470 -0.6598
  857SOL     OW 3425   2.587   2.006   0.478 -0.0389 -0.5367 -0.0882
  857SOL    HW1 3426   2.612   2.087   0.431 -0.1417  2.7187  0.1139
  857SOL    HW2 3427   2.560   1.939   0.406 -0.9153 -0.5135 -0.3910
  857SOL     MW 3428   2.587   2.008   0.462 -0.1681 -0.1041 -0.1015
  858SOL     OW 3429   2.887   2.643   1.669 -0.0899  0.3924 -0.2782
  858SOL    HW1 3430   2.955   2.697   1.702  0.1209 -0.2658 -1.0047
  858SOL    HW2 3431   2.880   2.565   1.728 -3.0602 -0.6983 -1.6728
  858SOL     MW 3432   2.895   2.640   1.681 -0.4540  0.1617 -0.5581
  859SOL     OW 3433   2.109   2.523   0.875 -0.2849  0.4015  0.0268
  859SOL    HW1 3434   2.082   2.482   0.791 -0.5076  0.5043  1.1448
  859SOL    HW2 3435   2.199   2.504   0.883 -2.4689  1.4343  0.0812
  859SOL     MW 3436   2.117   2.515   0.865 -0.6025  0.5513  0.1815
  860SOL     OW 3437   2.652   2.582   0.136  0.0369 -0.2629  0.2892
  860SOL    HW1 3438   2.712   2.548   0.204  0.5775  0.7039 -0.4003
  860SOL    HW2 3439   2.702   2.647   0.087 -1.7967 -0.5776 -0.8857
  860SOL     MW 3440   2.666   2.586   0.138 -0.1337 -0.1769  0.0432
  861SOL     OW 3441   1.542   2.152   1.167 -0.6660 -0.5118 -0.5639
  861SOL    HW1 3442   1.547   2.248   1.209  0.4281  3.4162 -1.7769
  861SOL    HW2 3443   1.488   2.096   1.218 -1.9165  1.1016  2.1482
  861SOL     MW 3444   1.535   2.157   1.179 -0.6867  0.2194 -0.3661
  862SOL     OW 3445   2.435   1.799   1.561  0.0173 -0.4699  0.2140
  862SOL    HW1 3446   2.345   1.820   1.571  1.6677 -3.6512  2.4403
  862SOL    HW2 3447   2.458   1.802   1.469 -0.9261 -2.7929  2.3885
  862SOL     MW 3448   2.426   1.802   1.550  0.1106 -1.1962  0.7947
  863SOL     OW 3449   0.046   1.861   1.151  0.6932  1.3947 -0.1256
  863SOL    HW1 3450   0.134   1.892   1.137  1.3940 -2.5167 -1.0599
  863SOL    HW2 3451   0.007   1.921   1.210  1.1207  0.9178  2.6146
  863SOL     MW 3452   0.052   1.873   1.157  0.8421  0.8157  0.1127
  864SOL     OW 3453   0.028   1.863   0.850 -0.1716  0.4464  0.2753
  864SOL    HW1 3454   0.001   1.799   0.916  3.7668  0.9458  0.3256
  864SOL    HW2 3455  -0.038   1.858   0.774  0.7737 -0.2384  1.7473
  864SOL     MW 3456   0.016   1.854   0.849  0.4727  0.4220  0.4762
  865SOL     OW 3457   2.581   2.161   0.035  0.5522 -0.2135 -0.4144
  865SOL    HW1 3458   2.606   2.082   0.085  0.2380  0.5279 -1.4574
  865SOL    HW2 3459   2.527   2.127  -0.037  0.3267 -1.0947  2.0485
  865SOL     MW 3460   2.577   2.146   0.032  0.4810 -0.2319 -0.2270
  866SOL     OW 3461   2.641   2.325   1.626  0.2421 -0.6231 -0.2969
  866SOL    HW1 3462   2.611   2.235   1.644  0.3552  0.4358 -0.8872
  866SOL    HW2 3463   2.714   2.315   1.564  1.1796 -1.2254 -0.7339
  866SOL     MW 3464   2.646   2.312   1.620  0.3807 -0.5628 -0.4324
  867SOL     OW 3465   0.031   2.666   1.812 -0.2343 -0.6890 -0.4370
  867SOL    HW1 3466   0.022   2.681   1.909 -0.9134  2.7619  1.4526
  867SOL    HW2 3467   0.040   2.751   1.771 -0.1458 -3.1798 -0.8507
  867SOL     MW 3468   0.031   2.679   1.819 -0.3122 -0.5624 -0.2422
  868SOL     OW 3469   2.802   2.589   0.540  0.4722  0.2461  0.5342
  868SOL    HW1 3470   2.731   2.522   0.541  0.0994  0.6993 -2.7661
  868SOL    HW2 3471   2.775   2.664   0.489  0.4970 -3.7439 -1.8717
  868SOL     MW 3472   2.789   2.590   0.533  0.4263 -0.2206 -0.2187
  869SOL     OW 3473   1.980   2.394   1.086  0.3247  0.3276  0.7231
  869SOL    HW1 3474   2.025   2.453   1.025 -0.6008  0.9407 -2.0719
  869SOL    HW2 3475   1.941   2.330   1.019 -2.3621 -2.6332 -0.9120
  869SOL     MW 3476   1.981   2.393   1.069 -0.1519  0.0178  0.1386
  870SOL     OW 3477   2.179   0.019   0.459 -0.2401  0.1160 -0.1109
  870SOL    HW1 3478   2.252   0.073   0.417 -2.6725  1.4291  0.8681
  870SOL    HW2 3479   2.213  -0.073   0.453  2.3310  2.5524 -1.7440
  870SOL     MW 3480   2.193   0.014   0.453 -0.2218  0.6107 -0.1972
  871SOL     OW 3481   2.512   2.093   0.955 -0.3646  0.9592  0.6182
  871SOL    HW1 3482   2.458   2.031   0.906  0.7085  0.8464 -0.4836
  871SOL    HW2 3483   2.462   2.163   0.995  0.4236  1.7805  2.5467
  871SOL     MW 3484   2.499   2.094   0.954 -0.1190  1.0527  0.7273
  872SOL     OW 3485   2.057   2.552   1.432 -0.0615  0.6380  0.2560
  872SOL    HW1 3486   2.020   2.588   1.517  0.6230  0.2981  0.9117
  872SOL    HW2 3487   1.992   2.493   1.396 -0.7492 -0.5433 -0.4220
  872SOL     MW 3488   2.043   2.549   1.438 -0.0619  0.4373  0.2530
  873SOL     OW 3489   2.900   2.084   1.939  0.6142 -0.1032 -0.3917
  873SOL    HW1 3490   2.946   2.134   2.006  2.2555  1.5469 -1.4201
  873SOL    HW2 3491   2.959   2.082   1.856  2.5598  1.2056  0.3530
  873SOL     MW 3492   2.914   2.090   1.937  1.0875  0.2872 -0.4291
  874SOL     OW 3493   2.378   1.545   2.408  0.2387 -0.0217 -0.8721
  874SOL    HW1 3494   2.321   1.496   2.344 -2.1612 -1.1897  0.6199
  874SOL    HW2 3495   2.436   1.478   2.443  3.7969 -1.5450 -0.1971
  874SOL     MW 3496   2.378   1.530   2.404  0.3915 -0.3768 -0.5862
  875SOL     OW 3497   2.284   2.283   1.050  0.2773 -0.1468  0.2772
  875SOL    HW1 3498   2.205   2.309   1.004 -1.3480 -1.0268  1.2088
  875SOL    HW2 3499   2.346   2.356   1.067  1.1696  0.5336  0.3444
  875SOL     MW 3500   2.282   2.296   1.046  0.1806 -0.1732  0.4090
  876SOL     OW 3501   3.033   2.335   1.238 -0.1924 -0.4274 -0.2255
  876SOL    HW1 3502   3.097   2.337   1.159  0.9726  1.7131 -2.7532
  876SOL    HW2 3503   3.076   2.392   1.299 -0.0252 -1.9808  1.7448
  876SOL     MW 3504   3.047   2.343   1.235 -0.0167 -0.3500 -0.2990
  877SOL     OW 3505   3.072   2.767   0.396 -0.0697  0.2015 -0.0771
  877SOL    HW1 3506   3.140   2.836   0.397  4.6777 -3.5634  2.6583
  877SOL    HW2 3507   3.084   2.709   0.322  1.0897  0.6757  0.4906
  877SOL     MW 3508   3.083   2.769   0.387  0.7096 -0.2327  0.3587
  878SOL     OW 3509   2.392   1.830   1.244  0.5983 -0.7267 -0.0457
  878SOL    HW1 3510   2.327   1.762   1.222 -2.2370  1.0352  1.3044
  878SOL    HW2 3511   2.479   1.797   1.226  2.0862  0.5501 -0.6953
  878SOL     MW 3512   2.395   1.817   1.239  0.4205 -0.3257  0.0467
  879SOL     OW 3513   2.671   2.456   0.927 -0.0511  0.1265  0.4725
  879SOL    HW1 3514   2.728   2.523   0.962  2.5371 -0.9341 -0.3950
  879SOL    HW2 3515   2.714   2.410   0.851 -0.1485 -0.5626 -1.6094
  879SOL     MW 3516   2.684   2.459   0.921  0.2775 -0.1044  0.0833
  880SOL     OW 3517   2.569   2.199   0.678 -0.7959 -0.7636 -0.2602
  880SOL    HW1 3518   2.532   2.179   0.765  0.3712  1.8057 -2.7514
  880SOL    HW2 3519   2.540   2.131   0.620 -1.6854 -0.5196 -2.1803
  880SOL     MW 3520   2.560   2.187   0.682 -0.7592 -0.3924 -0.8422
  881SOL     OW 3521   2.951   2.677   0.749 -0.2050 -0.5359 -0.0513
  881SOL    HW1 3522   2.900   2.650   0.669 -2.7288 -0.2786 -1.3998
  881SOL    HW2 3523   3.040   2.653   0.717  0.0778 -1.6445 -2.5454
  881SOL     MW 3524   2.956   2.671   0.734 -0.5006 -0.6482 -0.5583
  882SOL     OW 3525   2.271   2.840   1.977 -0.4727  0.6042  0.2797
  882SOL    HW1 3526   2.260   2.813   1.884 -3.4899  0.6311  1.4290
  882SOL    HW2 3527   2.228   2.758   2.010 -1.0795 -0.5060 -2.8538
  882SOL     MW 3528   2.264   2.825   1.969 -0.9509  0.4613  0.0179
  883SOL     OW 3529   2.302   2.313   1.434  0.5937  0.3215  0.2043
  883SOL    HW1 3530   2.357   2.246   1.393  0.4770 -0.0560 -1.0213
  883SOL    HW2 3531   2.217   2.292   1.385  1.2033 -1.5483  0.2996
  883SOL     MW 3532   2.298   2.301   1.422  0.6588  0.0250  0.0552
  884SOL     OW 3533   1.961   1.863   1.124  0.7062 -0.4048  0.0405
  884SOL    HW1 3534   1.894   1.936   1.113  1.1548  1.6203 -0.7505
  884SOL    HW2 3535   2.047   1.897   1.095 -0.5839 -1.6668 -1.3630
  884SOL     MW 3536   1.964   1.877   1.119  0.5951 -0.3041 -0.2490
  885SOL     OW 3537   2.841   2.423   1.807  0.2821  0.3129  0.6735
  885SOL    HW1 3538   2.928   2.374   1.802 -1.2742  0.3418  0.6907
  885SOL    HW2 3539   2.778   2.371   1.746 -1.2688 -0.0236 -0.2907
  885SOL     MW 3540   2.844   2.410   1.798 -0.1279  0.2723  0.5485
  886SOL     OW 3541   2.790   2.377   1.358  0.4705 -0.7624 -0.8093
  886SOL    HW1 3542   2.869   2.365   1.307 -0.2499  1.5810  0.0483
  886SOL    HW2 3543   2.778   2.471   1.352  2.8351 -0.3305 -0.1528
  886SOL     MW 3544   2.799   2.387   1.351  0.6874 -0.3962 -0.6095
  887SOL     OW 3545   2.324   2.621   1.523 -0.4308 -0.3143  0.8551
  887SOL    HW1 3546   2.318   2.689   1.446  0.1326 -0.7497  2.0310
  887SOL    HW2 3547   2.264   2.554   1.490  1.1999  0.9508 -2.0372
  887SOL     MW 3548   2.315   2.621   1.508 -0.1413 -0.2048  0.6286
  888SOL     OW 3549   1.880   2.061   1.390 -0.2795  0.3050 -0.5861
  888SOL    HW1 3550   1.959   2.078   1.335  1.0718  0.1670  2.0655
  888SOL    HW2 3551   1.887   2.108   1.473 -1.9530  0.3587  1.6672
  888SOL     MW 3552   1.892   2.069   1.394 -0.3220  0.2939  0.0611
  889SOL     OW 3553   2.309   1.987   2.118 -0.3443 -0.0236 -0.0599
  889SOL    HW1 3554   2.393   1.985   2.165  0.3726 -0.1884  0.6289
  889SOL    HW2 3555   2.309   2.062   2.059  0.8350  0.3961  0.8715
  889SOL     MW 3556   2.320   1.997   2.116 -0.0941  0.0101  0.1538
  890SOL     OW 3557   0.090   2.354   0.207 -0.0639  0.5184  0.1636
  890SOL    HW1 3558   0.045   2.437   0.203 -2.4436  2.0203  2.4426
  890SOL    HW2 3559   0.055   2.309   0.285 -1.1450  1.4539 -0.2056
  890SOL     MW 3560   0.079   2.359   0.216 -0.5206  0.8400  0.4156
  891SOL     OW 3561   2.981   2.037   1.297  0.0930  0.3169  0.0044
  891SOL    HW1 3562   3.056   2.065   1.355 -0.3760 -0.8477 -0.6123
  891SOL    HW2 3563   2.958   2.124   1.256  0.6275  1.3128 -0.1630
  891SOL     MW 3564   2.988   2.052   1.299  0.1016  0.2947 -0.0991
  892SOL     OW 3565   2.414   2.363   2.878  0.5068  0.2680 -0.7173
  892SOL    HW1 3566   2.432   2.270   2.902  0.0049  0.6129 -1.3237
  892SOL    HW2 3567   2.495   2.410   2.888 -0.7397  0.4359  0.1074
  892SOL     MW 3568   2.427   2.357   2.883  0.2761  0.3356 -0.6885
  893SOL     OW 3569   1.588   2.408   1.251  0.1271 -0.1239  0.4016
  893SOL    HW1 3570   1.531   2.461   1.315  1.6327 -1.0024  1.5834
  893SOL    HW2 3571   1.660   2.386   1.308 -0.2272 -1.2996 -2.7593
  893SOL     MW 3572   1.590   2.412   1.267  0.2790 -0.3949  0.1405
  894SOL     OW 3573   2.819   1.834   0.435  0.1253 -0.4729 -0.2278
  894SOL    HW1 3574   2.738   1.891   0.451 -5.7290  1.0673  2.3033
  894SOL    HW2 3575   2.824   1.810   0.343 -0.2973  0.6840  1.1565
  894SOL     MW 3576   2.809   1.838   0.425 -0.7029 -0.1171  0.2888
  895SOL     OW 3577   2.087   2.224   1.290 -0.7407  0.2803  0.4980
  895SOL    HW1 3578   2.078   2.282   1.216 -1.6125 -1.3891  2.9636
  895SOL    HW2 3579   2.142   2.152   1.249 -0.2422  0.7752  0.4508
  895SOL     MW 3580   2.093   2.222   1.275 -0.7900  0.1253  0.8171
  896SOL     OW 3581   2.166   2.826   1.095 -0.3135 -0.2688 -0.1896
  896SOL    HW1 3582   2.223   2.824   1.169 -3.3484  1.7767 -1.3344
  896SOL    HW2 3583   2.104   2.752   1.112 -1.5290  1.3151 -0.6903
  896SOL     MW 3584   2.166   2.816   1.107 -0.8743  0.2101 -0.4067
  897SOL     OW 3585   2.985   2.900   0.101 -0.0395  0.3396 -0.5113
  897SOL    HW1 3586   3.038   2.824   0.092  0.1701  0.1464  0.3588
  897SOL    HW2 3587   2.892   2.874   0.095  4.0173 -2.1048  2.5745
  897SOL     MW 3588   2.980   2.887   0.099  0.5234 -0.0084  0.0106
  898SOL     OW 3589   2.092   0.201   1.433  0.0478  0.9927 -0.2297
  898SOL    HW1 3590   2.033   0.133   1.413  0.1642  0.3173  0.6071
  898SOL    HW2 3591   2.099   0.246   1.347  2.3802  0.7319 -0.3548
  898SOL     MW 3592   2.085   0.198   1.419  0.3709  0.8692 -0.1358
  899SOL     OW 3593   2.902   2.927   0.663  0.4538 -0.2098  0.0702
  899SOL    HW1 3594   2.915   2.847   0.717  2.1564 -0.9658 -1.3322
  899SOL    HW2 3595   2.813   2.968   0.680 -0.9819 -1.4081 -1.6277
  899SOL     MW 3596   2.892   2.922   0.672  0.4890 -0.4676 -0.3389
  900SOL     OW 3597   0.118   2.391   1.030 -0.2794 -0.0176  0.3637
  900SOL    HW1 3598   0.102   2.480   1.000 -0.5373 -2.3722 -1.8438
  900SOL    HW2 3599   0.124   2.344   0.943  0.4348 -1.6104  1.2930
  900SOL     MW 3600   0.117   2.397   1.015 -0.2192 -0.5384  0.1950
  901SOL     OW 3601   1.801   2.873   1.665  0.1283 -0.9505 -0.0035
  901SOL    HW1 3602   1.860   2.798   1.654 -0.3395  0.5103  0.2758
  901SOL    HW2 3603   1.721   2.852   1.609 -2.1894  0.8217 -0.9426
  901SOL     MW 3604   1.799   2.860   1.656 -0.2392 -0.5240 -0.0906
  902SOL     OW 3605   2.606   2.075   1.863  0.6767  0.3045 -0.1607
  902SOL    HW1 3606   2.588   1.982   1.861  2.3674  1.2240 -0.5735
  902SOL    HW2 3607   2.700   2.078   1.884  1.8438  1.3198  1.0780
  902SOL     MW 3608   2.616   2.063   1.865  1.0538  0.5598 -0.0518
  903SOL     OW 3609   1.599   2.770   0.516  0.3008  0.2906  0.2257
  903SOL    HW1 3610   1.667   2.714   0.564  0.5153  1.5644  1.4682
  903SOL    HW2 3611   1.575   2.827   0.587  1.2000 -1.6367  1.4641
  903SOL     MW 3612   1.605   2.770   0.532  0.4478  0.2044  0.5530
  904SOL     OW 3613   2.496   2.542   1.718 -0.0370 -0.3737 -0.0753
  904SOL    HW1 3614   2.437   2.562   1.646 -1.6604 -0.7470  3.1845
  904SOL    HW2 3615   2.547   2.466   1.689 -1.3004  1.9217  1.6634
  904SOL     MW 3616   2.495   2.535   1.705 -0.4179 -0.1201  0.5842
  905SOL     OW 3617   2.320   2.500   2.209 -0.0361  0.3990  0.0797
  905SOL    HW1 3618   2.377   2.469   2.139 -0.3164 -1.0011 -0.3925
  905SOL    HW2 3619   2.279   2.422   2.258  1.7701  2.9875 -0.9385
  905SOL     MW 3620   2.322   2.485   2.206  0.1652  0.5558 -0.1170
  906SOL     OW 3621   2.402   2.496   0.864  0.1895  0.4044  0.6499
  906SOL    HW1 3622   2.492   2.471   0.886  0.5805 -2.4164 -2.7523
  906SOL    HW2 3623   2.394   2.588   0.886  1.0060  2.0534 -0.7330
  906SOL     MW 3624   2.413   2.505   0.870  0.3488  0.2498  0.0185
  907SOL     OW 3625   2.569   2.923   1.277 -0.1633  0.0466  0.1358
  907SOL    HW1 3626   2.652   2.956   1.317  0.0276  0.0831 -1.0722
  907SOL    HW2 3627   2.609   2.891   1.198 -2.1878  2.3127  1.8870
  907SOL     MW 3628   2.585   2.923   1.272 -0.4053  0.3504  0.2074
  908SOL     OW 3629   2.761   2.389   3.078  0.1311  0.0792 -0.2138
  908SOL    HW1 3630   2.721   2.300   3.105  1.1667  3.2049  1.3228
  908SOL    HW2 3631   2.726   2.447   3.143 -2.4642 -0.3138 -0.8015
  908SOL     MW 3632   2.751   2.385   3.090 -0.0747  0.4398 -0.0886
  909SOL     OW 3633   1.591   0.185   1.105  0.2922  0.0782  0.3475
  909SOL    HW1 3634   1.629   0.252   1.046 -2.6772 -1.0295  0.2797
  909SOL    HW2 3635   1.536   0.235   1.167 -0.4606 -0.2592  4.1031
  909SOL     MW 3636   1.589   0.200   1.105 -0.1989 -0.1125  0.8341
  910SOL     OW 3637   2.294   1.746   0.412 -0.3673  0.1207  0.7249
  910SOL    HW1 3638   2.224   1.684   0.430 -1.8654  1.2720  0.8975
  910SOL    HW2 3639   2.257   1.807   0.343 -0.6695  1.7987  0.0092
  910SOL     MW 3640   2.280   1.746   0.405 -0.6048  0.4940  0.6532
  911SOL     OW 3641   2.218   2.255   1.698 -0.4452 -0.1029  0.5175
  911SOL    HW1 3642   2.288   2.231   1.760 -0.9581  2.3906 -1.9996
  911SOL    HW2 3643   2.269   2.265   1.611  0.3893 -2.0015 -0.4428
  911SOL     MW 3644   2.234   2.253   1.695 -0.4028 -0.0244  0.0587
  912SOL     OW 3645   2.840   1.956   1.531  0.2669 -0.1757  0.3353
  912SOL    HW1 3646   2.874   1.987   1.448 -0.3035  3.7718 -0.7840
  912SOL    HW2 3647   2.750   1.987   1.524  0.4476 -0.8410 -0.4028
  912SOL     MW 3648   2.833   1.964   1.519  0.2155  0.2574  0.0902
  913SOL     OW 3649   2.554   2.976   0.407  0.2066  0.2642 -0.5915
  913SOL    HW1 3650   2.614   2.901   0.392  1.8653  0.3198 -0.5702
  913SOL    HW2 3651   2.471   2.935   0.426  0.5083  0.4313 -1.2075
  913SOL     MW 3652   2.551   2.960   0.408  0.4653  0.2936 -0.6700
  914SOL     OW 3653   2.754   1.627   3.063  0.3234  0.0510  0.0276
  914SOL    HW1 3654   2.739   1.705   3.010 -1.5443 -2.6797  1.4847
  914SOL    HW2 3655   2.670   1.608   3.123  0.6796  0.9415 -3.2128
  914SOL     MW 3656   2.741   1.635   3.064  0.1240 -0.1918 -0.2077
  915SOL     OW 3657   1.810   0.255   0.171 -0.1101  0.2205 -0.1872
  915SOL    HW1 3658   1.872   0.188   0.194  1.0937  2.6636 -2.8610
  915SOL    HW2 3659   1.733   0.217   0.214  1.2970 -0.7796  0.7567
  915SOL     MW 3660   1.808   0.241   0.180  0.2344  0.4109 -0.4155
  916SOL     OW 3661   1.724   2.091   1.955  0.1897  0.3295 -0.0339
  916SOL    HW1 3662   1.800   2.156   1.958 -0.1187  0.1468  2.6797
  916SOL    HW2 3663   1.748   2.018   1.897 -1.0041 -0.6352 -1.4817
  916SOL     MW 3664   1.737   2.090   1.948 -0.0085  0.1781  0.1331
  917SOL     OW 3665   2.442   2.319   2.604 -0.4398 -0.3755 -0.5781
  917SOL    HW1 3666   2.419   2.310   2.696 -0.2782 -2.0005  0.0197
  917SOL    HW2 3667   2.536   2.314   2.587 -1.3687  0.3478 -2.2857
  917SOL     MW 3668   2.452   2.317   2.614 -0.5410 -0.4944 -0.7246
  918SOL     OW 3669   2.047   1.651   2.707 -1.2416 -0.1695  0.2901
  918SOL    HW1 3670   1.982   1.668   2.640  0.9435  2.6446  1.0504
  918SOL    HW2 3671   2.117   1.721   2.687  2.1224  2.0265  0.3780
  918SOL     MW 3672   2.048   1.663   2.696 -0.5095  0.4916  0.4020
  919SOL     OW 3673   0.063   2.361   2.259 -0.1635 -0.2891  0.1768
  919SOL    HW1 3674  -0.012   2.299   2.232  0.7348 -0.1210  0.7496
  919SOL    HW2 3675   0.122   2.337   2.184 -0.8102  1.4852 -0.2088
  919SOL     MW 3676   0.061   2.349   2.246 -0.1303 -0.0329  0.2015
  920SOL     OW 3677   2.764   2.797   3.094 -0.0097  0.3601  0.1124
  920SOL    HW1 3678   2.689   2.857   3.116 -0.4042 -3.4729  0.9144
  920SOL    HW2 3679   2.755   2.774   2.997 -1.3877  0.0686 -2.8558
  920SOL     MW 3680   2.753   2.802   3.084 -0.2436 -0.1841 -0.1734
  921SOL     OW 3681   2.458   2.621   2.677 -0.2106  0.0281  0.6492
  921SOL    HW1 3682   2.516   2.619   2.595 -2.6849 -3.9147  0.3440
  921SOL    HW2 3683   2.496   2.551   2.723 -0.6329  0.8544 -2.8121
  921SOL     MW 3684   2.470   2.611   2.672 -0.5928 -0.3831  0.1522
  922SOL     OW 3685   1.984   2.779   0.322  0.0911 -0.0356  0.5215
  922SOL    HW1 3686   1.992   2.808   0.232  1.9715  0.8343  0.0185
  922SOL    HW2 3687   1.951   2.694   0.311  0.5424  3.6262  0.7686
  922SOL     MW 3688   1.981   2.772   0.309  0.3987  0.5623  0.4877
  923SOL     OW 3689   2.219   2.814   1.694  0.0215 -0.1269 -0.3061
  923SOL    HW1 3690   2.253   2.745   1.630 -2.9690 -1.0965 -0.0998
  923SOL    HW2 3691   2.206   2.900   1.646  0.4021  0.6171 -1.5183
  923SOL     MW 3692   2.222   2.816   1.679 -0.3228 -0.1567 -0.4388
  924SOL     OW 3693   1.202   2.718   2.579 -0.4043 -0.5287 -0.4745
  924SOL    HW1 3694   1.253   2.785   2.529 -1.1762 -0.3417  0.0320
  924SOL    HW2 3695   1.265   2.653   2.614 -0.6541 -1.1153  1.5776
  924SOL     MW 3696   1.217   2.718   2.577 -0.5391 -0.5814 -0.1369
  925SOL     OW 3697   2.961   0.221   2.576 -0.2012  0.6156 -0.2314
  925SOL    HW1 3698   3.038   0.283   2.556  4.9620  1.6982  0.8175
  925SOL    HW2 3699   2.892   0.277   2.613  1.1748 -0.9938  1.6278
  925SOL     MW 3700   2.962   0.236   2.579  0.6616  0.5461  0.1523
  926SOL     OW 3701   2.724   2.409   2.066  0.3276  0.0548 -0.5049
  926SOL    HW1 3702   2.784   2.471   2.103  0.8913 -0.7890 -2.0080
  926SOL    HW2 3703   2.759   2.399   1.979  1.8801 -1.1537  1.8171
  926SOL     MW 3704   2.737   2.416   2.059  0.6068 -0.2160 -0.3969
  927SOL     OW 3705   2.348   0.168   0.311 -0.6372  0.3009 -0.2458
  927SOL    HW1 3706   2.442   0.176   0.327  0.1686  0.5667  0.7586
  927SOL    HW2 3707   2.339   0.140   0.222 -0.0031 -0.7157 -0.7690
  927SOL     MW 3708   2.359   0.165   0.302 -0.4472  0.2018 -0.1823
  928SOL     OW 3709   2.076   2.447   1.842  0.1243 -0.4740  0.2549
  928SOL    HW1 3710   2.128   2.377   1.802 -0.1948 -0.8591  0.7203
  928SOL    HW2 3711   2.126   2.483   1.912  0.0040 -0.7251  1.7832
  928SOL     MW 3712   2.089   2.443   1.846  0.0663 -0.5580  0.5179
  929SOL     OW 3713   2.661   2.370   2.438 -0.0881 -0.4742  0.0119
  929SOL    HW1 3714   2.711   2.368   2.356  1.3432 -0.6343 -1.9467
  929SOL    HW2 3715   2.724   2.333   2.497 -1.1349  2.0126 -1.4433
  929SOL     MW 3716   2.676   2.364   2.435 -0.0374 -0.1672 -0.4386
  930SOL     OW 3717   2.016   2.885   2.657  0.1430 -0.8735  0.2142
  930SOL    HW1 3718   2.038   2.807   2.719  1.3912 -0.9632  2.9027
  930SOL    HW2 3719   2.100   2.918   2.636 -2.5925  0.3249  1.0593
  930SOL     MW 3720   2.030   2.879   2.663 -0.0532 -0.7272  0.6804
  931SOL     OW 3721   2.951   2.811   2.252 -0.2797  0.0817  0.0395
  931SOL    HW1 3722   3.014   2.796   2.325  1.4491 -0.1633 -0.2663
  931SOL    HW2 3723   3.000   2.865   2.183  4.0409  0.1557 -0.0644
  931SOL     MW 3724   2.966   2.816   2.253  0.5184  0.0592 -0.0145
  932SOL     OW 3725   2.908   1.941   2.542  0.2777  0.5817 -0.4215
  932SOL    HW1 3726   3.004   1.950   2.556 -0.2203  2.6254  1.5531
  932SOL    HW2 3727   2.897   1.959   2.448  1.6273  0.5102 -0.7824
  932SOL     MW 3728   2.919   1.944   2.531  0.3901  0.8419 -0.2086
  933SOL     OW 3729   2.084   2.880   2.229  0.4819  0.4926 -0.0132
  933SOL    HW1 3730   2.165   2.926   2.259  0.0056  3.6088 -0.9367
  933SOL    HW2 3731   2.029   2.942   2.183 -0.2533 -0.8611 -0.1041
  933SOL     MW 3732   2.087   2.894   2.227  0.3221  0.7252 -0.1470
  934SOL     OW 3733   1.999   2.731   2.448  0.2076 -0.4786  0.2075
  934SOL    HW1 3734   1.996   2.793   2.528  0.1613 -0.0984  0.1660
  934SOL    HW2 3735   2.031   2.782   2.373 -1.7754 -0.6847 -2.2735
  934SOL     MW 3736   2.003   2.746   2.449 -0.0601 -0.4556 -0.1253
  935SOL     OW 3737   2.648   1.538   1.790  0.2882  0.2574  0.4782
  935SOL    HW1 3738   2.744   1.525   1.762 -0.3998 -1.5998  0.1957
  935SOL    HW2 3739   2.595   1.511   1.710 -1.7368  1.3254 -2.2491
  935SOL     MW 3740   2.654   1.532   1.775 -0.0697  0.1533  0.0811
  936SOL     OW 3741   3.000   2.233   3.089  0.5310 -0.2655 -0.2444
  936SOL    HW1 3742   3.047   2.288   3.153 -1.2136  0.3674 -0.2552
  936SOL    HW2 3743   2.916   2.276   3.059  0.1516  0.6499  0.8493
  936SOL     MW 3744   2.995   2.246   3.093  0.2507 -0.0612 -0.1015
  937SOL     OW 3745   2.037   2.183   2.691 -0.3974 -0.2749 -0.2191
  937SOL    HW1 3746   2.108   2.131   2.716 -2.2468  0.8665  1.8099
  937SOL    HW2 3747   2.014   2.148   2.602 -0.0825  0.7710  0.3003
  937SOL     MW 3748   2.043   2.171   2.683 -0.5999  0.0137  0.1172
  938SOL     OW 3749   2.298   1.801   1.909  0.0178 -0.2636 -0.6971
  938SOL    HW1 3750   2.261   1.864   1.840 -1.3246 -0.9097  0.9573
  938SOL    HW2 3751   2.305   1.843   1.994 -1.0708 -0.9294 -0.2515
  938SOL     MW 3752   2.294   1.815   1.911 -0.3029 -0.4367 -0.4200
  939SOL     OW 3753   2.818   1.993   2.279  0.3619  0.1009 -0.5880
  939SOL    HW1 3754   2.854   1.926   2.220 -1.0016  1.9233 -3.6335
  939SOL    HW2 3755   2.721   1.987   2.265  2.1272  0.5593 -2.9177
  939SOL     MW 3756   2.810   1.983   2.269  0.4149  0.4018 -1.2972
  940SOL     OW 3757   2.308   0.153   2.699 -0.3097  0.5041 -0.4124
  940SOL    HW1 3758   2.290   0.064   2.657 -0.0524 -0.1525 -1.4142
  940SOL    HW2 3759   2.378   0.136   2.769  1.4840 -0.2817  1.3596
  940SOL     MW 3760   2.315   0.139   2.703 -0.0391  0.3138 -0.3108
  941SOL     OW 3761   0.210   2.301   2.045  0.3701 -1.0689 -0.2389
  941SOL    HW1 3762   0.292   2.252   2.044 -1.8463  5.2028  0.9751
  941SOL    HW2 3763   0.217   2.373   1.974 -0.1756 -0.0658 -0.5847
  941SOL     MW 3764   0.222   2.304   2.036  0.0057 -0.1090 -0.1244
  942SOL     OW 3765   2.945   2.232   2.184  0.0422 -0.4630 -0.1215
  942SOL    HW1 3766   2.870   2.286   2.155 -1.9368  0.4267 -0.3975
  942SOL    HW2 3767   2.901   2.153   2.212  0.8599  4.0199 -0.2476
  942SOL     MW 3768   2.930   2.229   2.184 -0.1110  0.2459 -0.1746
  943SOL     OW 3769   0.403   1.996   2.286 -0.5295  0.0989  0.6041
  943SOL    HW1 3770   0.355   2.069   2.324  1.4550 -0.9616 -0.7353
  943SOL    HW2 3771   0.490   1.999   2.328  1.0765  1.5861  1.8638
  943SOL     MW 3772   0.408   2.006   2.297 -0.0558  0.1552  0.5936
  944SOL     OW 3773   2.108   2.648   2.098  0.1349  0.3440 -0.1303
  944SOL    HW1 3774   2.176   2.600   2.148 -1.0189  0.4374 -1.9975
  944SOL    HW2 3775   2.091   2.723   2.155  0.8569 -0.6589  0.4133
  944SOL     MW 3776   2.115   2.651   2.112  0.0779  0.2240 -0.3050
  945SOL     OW 3777   2.787   2.706   2.825  0.0444 -0.4269 -0.3871
  945SOL    HW1 3778   2.712   2.642   2.828 -0.8873  1.0170  0.9122
  945SOL    HW2 3779   2.823   2.704   2.735 -1.3788 -1.1727  0.9172
  945SOL     MW 3780   2.782   2.698   2.813 -0.2663 -0.3348 -0.0436
  946SOL     OW 3781   2.451   2.732   2.268 -0.1937  0.0686 -0.0358
  946SOL    HW1 3782   2.489   2.758   2.186  1.0226 -2.6806  0.3512
  946SOL    HW2 3783   2.409   2.649   2.258  1.6609  1.7205 -1.6659
  946SOL     MW 3784   2.451   2.725   2.256  0.2115 -0.0762 -0.1998
  947SOL     OW 3785   2.004   0.076   0.234  0.4052  0.1700  0.3738
  947SOL    HW1 3786   2.077   0.057   0.167 -1.6109  0.9972  0.4543
  947SOL    HW2 3787   2.037   0.054   0.319  0.6993  3.3947 -3.9944
  947SOL     MW 3788   2.018   0.071   0.237  0.1780  0.7046 -0.1919
  948SOL     OW 3789   1.796   3.063   2.660  0.1403 -0.2091  0.1545
  948SOL    HW1 3790   1.874   2.999   2.662 -0.7313 -1.7483 -0.5818
  948SOL    HW2 3791   1.765   3.062   2.571 -2.1514 -0.3413  1.1954
  948SOL     MW 3792   1.802   3.055   2.648 -0.2771 -0.4296  0.1947
  949SOL     OW 3793   2.553   1.973   2.287 -0.0480  0.2833 -0.4235
  949SOL    HW1 3794   2.565   1.894   2.338 -0.2439 -1.0450  1.9707
  949SOL    HW2 3795   2.516   2.030   2.355  2.5709  1.6850  1.1603
  949SOL     MW 3796   2.550   1.970   2.303  0.2717  0.2930  0.1014
  950SOL     OW 3797   2.258   2.554   3.022  0.0271 -0.4727  0.0237
  950SOL    HW1 3798   2.300   2.481   2.966 -2.4489 -2.5454  0.7553
  950SOL    HW2 3799   2.175   2.577   2.974 -2.8901  0.1471 -0.6936
  950SOL     MW 3800   2.252   2.548   3.008 -0.6845 -0.6644  0.0256
  951SOL     OW 3801   2.965   2.099   2.832 -0.3575  0.2108 -0.1507
  951SOL    HW1 3802   3.022   2.139   2.899 -0.0139  1.4872  2.4083
  951SOL    HW2 3803   3.028   2.100   2.759  1.6674  2.8147  0.9850
  951SOL     MW 3804   2.981   2.104   2.831 -0.0450  0.7228  0.3368
  952SOL     OW 3805   3.068   1.742   2.129  0.7399  1.0960  0.5849
  952SOL    HW1 3806   2.980   1.777   2.100 -0.6939 -1.9308  1.6096
  952SOL    HW2 3807   3.139   1.796   2.102 -1.7810  0.6226 -0.0701
  952SOL     MW 3808   3.066   1.754   2.122  0.2181  0.6342  0.6337
  953SOL     OW 3809   1.928   1.782   2.928 -0.0152 -0.1917 -0.2794
  953SOL    HW1 3810   1.832   1.747   2.951 -1.3916  0.1458 -0.6277
  953SOL    HW2 3811   1.961   1.728   2.849  0.4673 -2.0043 -1.8838
  953SOL     MW 3812   1.920   1.770   2.921 -0.1332 -0.3863 -0.5370
  954SOL     OW 3813   2.477   2.074   2.883  0.3602 -0.4083  0.3513
  954SOL    HW1 3814   2.389   2.060   2.841  2.9869 -0.2258 -0.2678
  954SOL    HW2 3815   2.536   2.064   2.808 -0.4219 -1.6769 -1.0536
  954SOL     MW 3816   2.473   2.071   2.868  0.6036 -0.5516  0.0843
  955SOL     OW 3817   1.593   1.634   2.536  0.5132  0.0518  0.3469
  955SOL    HW1 3818   1.563   1.644   2.442 -1.3183  0.3896  1.5882
  955SOL    HW2 3819   1.679   1.672   2.545 -4.5863 -1.2840 -0.4261
  955SOL     MW 3820   1.600   1.640   2.525 -0.4013 -0.0799  0.4087
  956SOL     OW 3821   2.665   2.465   2.844  0.6801 -0.1985  0.6058
  956SOL    HW1 3822   2.702   2.435   2.930  0.3497  1.8446 -1.5438
  956SOL    HW2 3823   2.724   2.424   2.782 -2.0452 -0.4081 -3.8977
  956SOL     MW 3824   2.678   2.456   2.847  0.2769  0.0434 -0.2720
  957SOL     OW 3825   2.247   2.851   0.397 -0.2040  0.6717  0.1359
  957SOL    HW1 3826   2.168   2.813   0.361 -2.5028  1.7303 -0.2313
  957SOL    HW2 3827   2.250   2.808   0.480 -1.2421 -0.0511 -1.2110
  957SOL     MW 3828   2.237   2.840   0.403 -0.6442  0.7160 -0.0902
  958SOL     OW 3829   2.000   2.662   2.826 -0.1249 -0.3004 -0.2391
  958SOL    HW1 3830   1.961   2.584   2.795  4.2244  1.2044  2.9691
  958SOL    HW2 3831   1.937   2.685   2.895 -0.8334 -3.3190 -0.8262
  958SOL     MW 3832   1.986   2.655   2.831  0.3555 -0.5001  0.1067
  959SOL     OW 3833   2.454   2.604   0.327 -0.4307  0.5422  0.7650
  959SOL    HW1 3834   2.506   2.578   0.249  0.6293 -2.6333 -3.3024
  959SOL    HW2 3835   2.419   2.691   0.306  1.5735  1.1093  0.7173
  959SOL     MW 3836   2.456   2.612   0.314 -0.0264  0.1980  0.2221
  960SOL     OW 3837   1.912   2.333   2.273  0.4257  0.1259 -0.4692
  960SOL    HW1 3838   1.852   2.258   2.265 -1.4844  1.3969 -2.1493
  960SOL    HW2 3839   1.852   2.396   2.307  1.0187 -1.1856  1.5008
  960SOL     MW 3840   1.897   2.332   2.276  0.2519  0.1206 -0.4310
  961SOL     OW 3841   2.175   2.324   2.360  0.3764 -0.0434 -0.0369
  961SOL    HW1 3842   2.089   2.315   2.332  1.9557 -0.5689  1.8708
  961SOL    HW2 3843   2.182   2.403   2.416  2.6523  0.4160 -0.2973
  961SOL     MW 3844   2.165   2.333   2.364  0.8850 -0.0521  0.1804
  962SOL     OW 3845   2.239   1.988   2.801 -0.5262 -0.3899  0.2022
  962SOL    HW1 3846   2.203   1.967   2.887  1.0611  0.2619 -1.2179
  962SOL    HW2 3847   2.259   1.905   2.754  0.0274  1.0255 -0.6636
  962SOL     MW 3848   2.237   1.974   2.806 -0.2438 -0.1171 -0.0994
  963SOL     OW 3849   1.833   2.582   1.998 -0.0798 -0.0372 -0.2819
  963SOL    HW1 3850   1.920   2.592   2.038  1.4513  1.3527 -0.7690
  963SOL    HW2 3851   1.821   2.480   1.990 -2.4479  0.6360 -2.1964
  963SOL     MW 3852   1.843   2.570   2.002 -0.1903  0.2350 -0.5988
  964SOL     OW 3853   1.853   1.975   2.748 -0.5450  0.0303  0.2582
  964SOL    HW1 3854   1.922   2.057   2.743 -1.3255  0.9109 -0.6943
  964SOL    HW2 3855   1.878   1.913   2.820  1.7251  2.3651 -2.0544
  964SOL     MW 3856   1.866   1.978   2.757 -0.3484  0.4545 -0.1726
  965SOL     OW 3857   2.250   2.742   0.631  0.0607  0.0228 -0.5487
  965SOL    HW1 3858   2.251   2.646   0.604 -1.8365 -0.5296 -1.7239
  965SOL    HW2 3859   2.281   2.750   0.722  0.2284  0.7697 -0.9194
  965SOL     MW 3860   2.254   2.730   0.640 -0.1675  0.0485 -0.7527
  966SOL     OW 3861   2.634   2.644   2.461  0.0117  0.4841 -0.0453
  966SOL    HW1 3862   2.592   2.684   2.387  1.2457  1.6696  2.1930
  966SOL    HW2 3863   2.629   2.543   2.437 -1.6829 -2.9197 -0.7543
  966SOL     MW 3864   2.628   2.636   2.448 -0.0491  0.1915  0.1565
  967SOL     OW 3865   2.914   3.026   2.899  0.2997 -0.1506 -0.1189
  967SOL    HW1 3866   2.918   2.973   2.981 -0.7556 -2.8573 -0.4525
  967SOL    HW2 3867   2.822   3.021   2.863 -1.3671 -0.0771  1.2676
  967SOL     MW 3868   2.903   3.018   2.905 -0.0595 -0.4981  0.0200
  968SOL     OW 3869   3.000   2.603   2.946 -0.5392 -0.0357  0.4645
  968SOL    HW1 3870   2.920   2.643   2.899 -0.2933  1.2798 -1.5542
  968SOL    HW2 3871   3.038   2.554   2.874 -0.7580  1.3744  3.0333
  968SOL     MW 3872   2.995   2.602   2.930 -0.5357  0.3240  0.5371
  969SOL     OW 3873   1.508   2.118   1.687  0.2383 -0.3099 -0.2098
  969SOL    HW1 3874   1.599   2.076   1.692  0.1084  2.3001 -1.4292
  969SOL    HW2 3875   1.479   2.136   1.778 -0.9349 -0.9901  1.2095
  969SOL     MW 3876   1.517   2.115   1.700  0.0664 -0.0553 -0.1834
  970SOL     OW 3877   1.673   1.645   1.810 -0.2657  0.0973 -0.1679
  970SOL    HW1 3878   1.735   1.637   1.879 -1.7866 -1.2109 -0.9462
  970SOL    HW2 3879   1.596   1.695   1.843  0.5197 -0.4119 -2.0042
  970SOL     MW 3880   1.671   1.651   1.823 -0.3627 -0.1425 -0.5129
  971SOL     OW 3881   1.770   0.012   2.371 -0.3853 -0.1272  0.1141
  971SOL    HW1 3882   1.830  -0.040   2.303 -0.2683  0.0266 -2.5128
  971SOL    HW2 3883   1.834   0.089   2.394  2.8829  0.9093  2.0745
  971SOL     MW 3884   1.787   0.015   2.365  0.0614  0.0298  0.0262
  972SOL     OW 3885   0.254   2.823   2.450 -0.0428  0.5718 -0.6171
  972SOL    HW1 3886   0.286   2.745   2.499  2.4767  0.7182 -2.4764
  972SOL    HW2 3887   0.302   2.886   2.500 -1.2689 -1.3869  0.0297
  972SOL     MW 3888   0.264   2.821   2.463  0.1278  0.3327 -0.7771
  973SOL     OW 3889   2.587   0.021   2.120 -0.3484 -0.2309 -0.0910
  973SOL    HW1 3890   2.595  -0.072   2.136  1.5330  1.1185  1.2192
  973SOL    HW2 3891   2.599   0.033   2.030 -1.1581  0.3247  1.2833
  973SOL     MW 3892   2.589   0.010   2.110 -0.2070  0.0204  0.2632
  974SOL     OW 3893   2.071   0.277   2.757 -0.1292 -0.3847 -0.7258
  974SOL    HW1 3894   2.158   0.236   2.730  0.2154 -2.0247 -2.9977
  974SOL    HW2 3895   2.026   0.197   2.795  2.5115  0.0471 -1.0290
  974SOL     MW 3896   2.077   0.261   2.758  0.2647 -0.5441 -1.0655
  975SOL     OW 3897   2.167   2.540   2.524 -0.1501 -0.4633  0.1876
  975SOL    HW1 3898   2.256   2.572   2.542 -2.1182 -3.0251  0.1860
  975SOL    HW2 3899   2.118   2.609   2.477  1.4332  0.1664 -0.8520
  975SOL     MW 3900   2.172   2.554   2.520 -0.2008 -0.7182  0.0502
  976SOL     OW 3901   0.263   0.404   1.741  0.2343 -0.5436 -0.6085
  976SOL    HW1 3902   0.328   0.344   1.759 -1.1777  1.2162  0.5099
  976SOL    HW2 3903   0.181   0.354   1.729 -1.8779  0.0435  2.0940
  976SOL     MW 3904   0.260   0.389   1.742 -0.2307 -0.2340 -0.1044
  977SOL     OW 3905   1.721   2.727   2.458 -0.6057 -0.5911  0.3823
  977SOL    HW1 3906   1.711   2.635   2.436  0.8721  0.8499  1.4898
  977SOL    HW2 3907   1.815   2.742   2.452  0.3331 -0.2001  0.0103
  977SOL     MW 3908   1.732   2.717   2.454 -0.2869 -0.3494  0.4793
   3.10000   3.10000   3.10000
