977 TIP4P/2005f water molecules t=   0.43000 step= 430
 3908
    1SOL     OW    1   0.286   0.774   0.033  0.3707  0.3887  0.0560
    1SOL    HW1    2   0.264   0.803  -0.058  1.2383 -1.6744  0.8899
    1SOL    HW2    3   0.263   0.680   0.027  0.8716  0.8879  1.8791
    1SOL     MW    4   0.280   0.765   0.020  0.5512  0.1824  0.4066
    2SOL     OW    5   0.302   3.045   1.184 -0.0660  0.6887  0.1625
    2SOL    HW1    6   0.352   3.113   1.137  2.4236 -2.1927  0.5074
    2SOL    HW2    7   0.210   3.081   1.182  0.3693 -0.7061  0.5590
    2SOL     MW    8   0.297   3.059   1.177  0.3199  0.1245  0.2603
    3SOL     OW    9   2.661   0.390   0.921 -0.6166  0.2298  0.5694
    3SOL    HW1   10   2.694   0.469   0.872  0.7117 -2.0777  2.0036
    3SOL    HW2   11   2.650   0.435   1.002  0.2655  1.6828 -3.8327
    3SOL     MW   12   2.664   0.406   0.925 -0.3250  0.1170  0.1778
    4SOL     OW   13   3.052   1.753   0.572 -0.3321 -0.2434  0.5682
    4SOL    HW1   14   2.978   1.812   0.533 -2.7083  2.4021  0.1657
    4SOL    HW2   15   3.085   1.680   0.519  0.0387 -2.0420 -0.5586
    4SOL     MW   16   3.046   1.751   0.560 -0.5967 -0.1317  0.3665
    5SOL     OW   17   1.727   1.461   0.589  0.4604  0.6499 -0.0096
    5SOL    HW1   18   1.774   1.442   0.672  1.2711  1.9812  1.5132
    5SOL    HW2   19   1.642   1.460   0.623  1.2707 -0.4443  2.8832
    5SOL     MW   20   1.722   1.458   0.604  0.6743  0.6812  0.5730
    6SOL     OW   21   0.877   1.396   0.663 -0.2160 -0.6184  0.7880
    6SOL    HW1   22   0.787   1.404   0.692 -3.5634 -4.4234 -0.1369
    6SOL    HW2   23   0.901   1.311   0.699 -1.6355 -0.4336 -0.4617
    6SOL     MW   24   0.868   1.386   0.672 -0.8449 -1.0960  0.5011
    7SOL     OW   25   1.982   1.076   0.049 -0.4134  0.1153  0.2200
    7SOL    HW1   26   2.027   1.162   0.031  3.0586 -0.2712 -1.9241
    7SOL    HW2   27   2.020   1.046   0.133 -0.0694  0.9403  2.2799
    7SOL     MW   28   1.993   1.083   0.058  0.0901  0.1731  0.2089
    8SOL     OW   29   0.969   1.338   1.009  0.2262  0.2029 -0.1471
    8SOL    HW1   30   0.952   1.315   1.101 -0.4405 -2.6796 -1.0151
    8SOL    HW2   31   1.038   1.394   0.998 -3.8656  0.0911  1.1737
    8SOL     MW   32   0.976   1.342   1.020 -0.4017 -0.1922 -0.0874
    9SOL     OW   33   1.060   0.457   1.347  0.1846  0.2333  0.7046
    9SOL    HW1   34   1.002   0.400   1.300  1.3467  0.6271  1.2045
    9SOL    HW2   35   1.087   0.405   1.420 -2.1312  0.0909  0.2383
    9SOL     MW   36   1.056   0.443   1.350  0.0324  0.2665  0.7090
   10SOL     OW   37   0.283   0.795   0.443 -0.0677 -0.3338  0.2421
   10SOL    HW1   38   0.370   0.832   0.397  3.1839 -0.0126  0.4500
   10SOL    HW2   39   0.278   0.844   0.528 -2.4512  2.1089  0.2028
   10SOL     MW   40   0.294   0.806   0.448  0.0469  0.0309  0.2643
   11SOL     OW   41   0.790   1.082   1.619 -0.3578 -0.1300  0.3128
   11SOL    HW1   42   0.777   1.084   1.716 -0.2364  0.6984 -0.2968
   11SOL    HW2   43   0.758   0.990   1.602  1.9456  0.8674 -0.0167
   11SOL     MW   44   0.784   1.070   1.630 -0.0378  0.1109  0.1889
   12SOL     OW   45   0.025   1.098   0.868  0.4319 -0.3435  0.2147
   12SOL    HW1   46   0.061   1.162   0.922 -5.1279 -1.4553  1.7365
   12SOL    HW2   47  -0.010   1.133   0.790  0.4019 -3.1814  0.0789
   12SOL     MW   48   0.025   1.111   0.865 -0.3056 -0.8646  0.3975
   13SOL     OW   49   1.895   1.398   1.336  0.2476 -0.3379 -0.3371
   13SOL    HW1   50   1.928   1.360   1.257 -1.5478  0.1411  0.5823
   13SOL    HW2   51   1.888   1.492   1.325 -0.3625  2.7206 -2.4449
   13SOL     MW   52   1.898   1.406   1.324 -0.0698  0.1289 -0.4939
   14SOL     OW   53   0.608   0.311   1.790 -0.2342  0.4398  0.0145
   14SOL    HW1   54   0.596   0.249   1.715  1.4053 -0.1052  0.8356
   14SOL    HW2   55   0.680   0.270   1.831 -0.8163  0.4026 -1.4931
   14SOL     MW   56   0.616   0.298   1.785 -0.0947  0.3630 -0.0761
   15SOL     OW   57   2.003   0.516   0.955 -0.8551 -0.3642  0.1789
   15SOL    HW1   58   2.021   0.548   1.040 -0.3323 -0.6371 -2.0933
   15SOL    HW2   59   2.091   0.482   0.922 -0.1372  1.6151 -0.7425
   15SOL     MW   60   2.017   0.516   0.962 -0.6914 -0.1391 -0.2425
   16SOL     OW   61   0.199   1.754   0.335 -0.0831 -0.1726 -0.0440
   16SOL    HW1   62   0.287   1.711   0.327  0.2394 -2.4974  2.3444
   16SOL    HW2   63   0.225   1.826   0.402 -1.4377  0.7895 -0.8765
   16SOL     MW   64   0.214   1.758   0.343 -0.2193 -0.3524  0.1613
   17SOL     OW   65   1.021   0.822   1.515 -0.1168 -0.0059  0.0292
   17SOL    HW1   66   1.064   0.836   1.603 -2.7533 -0.5559 -1.0638
   17SOL    HW2   67   0.952   0.759   1.526  1.0777 -1.1010  1.3241
   17SOL     MW   68   1.018   0.815   1.528 -0.3071 -0.2230  0.0558
   18SOL     OW   69   0.074   1.536   0.459  0.1715  0.1100 -0.1078
   18SOL    HW1   70   0.111   1.600   0.392 -1.4722 -0.9771 -0.3689
   18SOL    HW2   71   0.018   1.472   0.409 -0.9128  0.9974  0.3922
   18SOL     MW   72   0.071   1.536   0.443 -0.1885  0.0837 -0.0763
   19SOL     OW   73   0.082   1.357   1.003 -0.3282 -0.2326 -0.5008
   19SOL    HW1   74   0.131   1.375   0.926 -1.2240  1.2941  0.0429
   19SOL    HW2   75  -0.006   1.396   0.991  1.0465 -0.6583 -0.9313
   19SOL     MW   76   0.077   1.365   0.991 -0.2650 -0.0873 -0.4858
   20SOL     OW   77   0.448   2.133   1.313 -0.0422  0.0876  0.3644
   20SOL    HW1   78   0.398   2.072   1.258 -1.0125 -1.5633  1.0306
   20SOL    HW2   79   0.382   2.178   1.368 -2.0250  0.0357 -0.0685
   20SOL     MW   80   0.433   2.131   1.313 -0.4318 -0.1371  0.3952
   21SOL     OW   81   0.526   0.870   0.347 -0.3139 -0.4685 -0.1917
   21SOL    HW1   82   0.596   0.846   0.405 -1.8123 -3.5710 -0.3548
   21SOL    HW2   83   0.544   0.832   0.258 -0.9306 -1.1637 -0.6439
   21SOL     MW   84   0.538   0.862   0.343 -0.5930 -0.9696 -0.2729
   22SOL     OW   85   1.541   0.565   1.112  0.7471 -0.2289 -0.3190
   22SOL    HW1   86   1.613   0.544   1.055 -3.4740 -2.1676  0.8682
   22SOL    HW2   87   1.473   0.603   1.052  0.7431  2.2623 -1.5922
   22SOL     MW   88   1.542   0.567   1.096  0.1896 -0.1560 -0.3303
   23SOL     OW   89   3.083   0.752   0.713  0.5059 -0.2682 -0.2601
   23SOL    HW1   90   3.131   0.673   0.734 -2.4577 -1.1826  2.0067
   23SOL    HW2   91   3.152   0.808   0.681  1.0847  2.3329  2.2967
   23SOL     MW   92   3.099   0.749   0.712  0.1912 -0.0457  0.3763
   24SOL     OW   93   1.999   2.193   0.070  0.3361 -0.6317  0.1304
   24SOL    HW1   94   2.006   2.211   0.167  1.2808  0.2098  0.6524
   24SOL    HW2   95   2.078   2.137   0.049  1.1206  0.4893  1.8583
   24SOL     MW   96   2.010   2.188   0.080  0.5643 -0.3728  0.4273
   25SOL     OW   97   0.306   1.412   0.530  0.6802  0.0430  0.8026
   25SOL    HW1   98   0.227   1.463   0.495 -2.6490  1.1132  0.2876
   25SOL    HW2   99   0.368   1.419   0.466 -0.4214  2.1571  0.6014
   25SOL     MW  100   0.304   1.420   0.517  0.0956  0.4631  0.7081
   26SOL     OW  101   2.046   0.916   0.462  0.5265 -0.4809  0.3889
   26SOL    HW1  102   1.947   0.944   0.455 -0.9946  0.9950  0.4617
   26SOL    HW2  103   2.090   0.972   0.397 -1.6396 -0.9200 -0.6689
   26SOL     MW  104   2.039   0.927   0.452  0.0400 -0.3441  0.2589
   27SOL     OW  105   2.011   1.383   0.272  0.5367 -0.2752 -0.4566
   27SOL    HW1  106   1.921   1.358   0.299  0.2140  1.2663  1.1217
   27SOL    HW2  107   2.032   1.454   0.336  1.3986 -1.9338  2.3506
   27SOL     MW  108   2.002   1.389   0.284  0.6079 -0.2906  0.1220
   28SOL     OW  109   0.376   1.040   1.934 -0.1463  0.0687  0.3908
   28SOL    HW1  110   0.324   0.962   1.924  3.0045 -1.3726 -0.6977
   28SOL    HW2  111   0.454   1.027   1.996 -1.1276 -2.8247  3.8012
   28SOL     MW  112   0.380   1.028   1.941  0.1399 -0.5033  0.6972
   29SOL     OW  113   0.257   1.417   0.788  0.5797  0.4692 -0.4105
   29SOL    HW1  114   0.264   1.514   0.797  1.1110 -0.1398 -1.5586
   29SOL    HW2  115   0.270   1.405   0.688 -1.1254 -1.2253 -1.6315
   29SOL     MW  116   0.259   1.429   0.776  0.4248  0.1653 -0.7231
   30SOL     OW  117   0.872   1.041   1.206 -0.3102  0.1914  0.6750
   30SOL    HW1  118   0.795   1.079   1.261 -0.0504  0.9823  0.7734
   30SOL    HW2  119   0.941   1.035   1.273  0.4407  0.5040  1.1227
   30SOL     MW  120   0.871   1.045   1.222 -0.1769  0.3370  0.7471
   31SOL     OW  121   0.407   0.291   0.237 -0.4214 -0.1553 -0.0912
   31SOL    HW1  122   0.423   0.221   0.307  1.1061 -0.5201 -2.3436
   31SOL    HW2  123   0.412   0.240   0.155 -0.1081  1.2377  3.3808
   31SOL     MW  124   0.410   0.275   0.236 -0.1785 -0.0196  0.0697
   32SOL     OW  125   2.749   1.051   1.118  0.2963  0.2554  0.4155
   32SOL    HW1  126   2.704   0.969   1.089 -1.9454 -0.3279  0.3814
   32SOL    HW2  127   2.843   1.028   1.119 -0.0877  0.2526  1.2134
   32SOL     MW  128   2.755   1.037   1.115 -0.0501  0.1781  0.5163
   33SOL     OW  129   1.746   1.319   0.364  0.2663  0.6975  0.4891
   33SOL    HW1  130   1.761   1.225   0.376 -2.1132  0.2094  0.7905
   33SOL    HW2  131   1.730   1.350   0.451  0.0459 -1.3208 -0.9840
   33SOL     MW  132   1.746   1.311   0.377 -0.0767  0.3668  0.3345
   34SOL     OW  133   1.200   1.873   1.081 -0.1844  0.4019  0.0347
   34SOL    HW1  134   1.116   1.909   1.103 -0.3636  0.6178 -0.7756
   34SOL    HW2  135   1.264   1.896   1.159 -0.0016  0.6717  0.5026
   34SOL     MW  136   1.197   1.880   1.094 -0.1840  0.4660 -0.0105
   35SOL     OW  137   0.316   0.113   1.809 -0.6284  0.0781  0.2470
   35SOL    HW1  138   0.394   0.118   1.867  2.6758  0.3081  0.2321
   35SOL    HW2  139   0.337   0.032   1.752  0.8354  1.0032 -0.0637
   35SOL     MW  140   0.329   0.103   1.809  0.0007  0.2305  0.2041
   36SOL     OW  141   1.888   1.960   0.509  0.1658  0.2280  0.6028
   36SOL    HW1  142   1.909   1.952   0.410 -0.3677 -2.1257 -1.9300
   36SOL    HW2  143   1.885   1.864   0.539  0.2159 -2.6005  0.9475
   36SOL     MW  144   1.890   1.946   0.500  0.1020 -0.4557  0.3141
   37SOL     OW  145   1.743   2.067   0.990  0.5610  0.0056 -0.0408
   37SOL    HW1  146   1.689   2.005   0.948  0.4621 -0.0308  2.9955
   37SOL    HW2  147   1.676   2.102   1.059 -2.3525 -0.8018  1.6267
   37SOL     MW  148   1.727   2.064   0.994  0.1635 -0.1057  0.5798
   38SOL     OW  149   2.826   0.929   0.180 -0.4112 -0.4515 -0.1516
   38SOL    HW1  150   2.856   0.947   0.266  1.7021  2.1627  0.0476
   38SOL    HW2  151   2.907   0.902   0.142  0.0504  1.8081 -0.2874
   38SOL     MW  152   2.841   0.927   0.186 -0.0715  0.1915 -0.1432
   39SOL     OW  153   1.455   0.646   0.805 -0.6318 -0.4526 -0.1729
   39SOL    HW1  154   1.467   0.554   0.783  0.1118 -0.7770  1.8465
   39SOL    HW2  155   1.362   0.649   0.829  0.3301  0.8489 -1.5549
   39SOL     MW  156   1.444   0.634   0.805 -0.4068 -0.3237 -0.0888
   40SOL     OW  157   1.266   1.876   0.247  0.1472  0.5090  0.0927
   40SOL    HW1  158   1.274   1.792   0.288  1.1616 -1.1545 -1.4455
   40SOL    HW2  159   1.272   1.936   0.320 -2.1584  1.4978  0.1304
   40SOL     MW  160   1.268   1.873   0.262 -0.0232  0.4200 -0.1052
   41SOL     OW  161   0.597   0.492   1.595  0.2150 -0.9535 -0.1258
   41SOL    HW1  162   0.684   0.516   1.578  0.5765 -0.0920 -0.4647
   41SOL    HW2  163   0.603   0.430   1.666 -0.2746  1.6914 -0.6460
   41SOL     MW  164   0.609   0.487   1.602  0.1981 -0.4909 -0.2391
   42SOL     OW  165   1.302   3.015   2.000  0.1636 -0.4521  0.1129
   42SOL    HW1  166   1.220   2.979   2.038 -0.8155  0.4486  0.2195
   42SOL    HW2  167   1.357   2.939   2.002  1.3145  0.7486  0.2358
   42SOL     MW  168   1.298   3.000   2.005  0.1862 -0.1748  0.1432
   43SOL     OW  169   1.580   0.193   1.684 -0.3418 -0.1595  0.5962
   43SOL    HW1  170   1.641   0.162   1.619 -2.6962  2.0313 -1.0984
   43SOL    HW2  171   1.506   0.123   1.679 -4.1539 -3.1747 -0.1776
   43SOL     MW  172   1.579   0.180   1.675 -1.1554 -0.2683  0.2705
   44SOL     OW  173   1.305   0.730   1.076 -0.3032  0.1269  0.0841
   44SOL    HW1  174   1.307   0.822   1.070  1.8675  0.2459  2.0033
   44SOL    HW2  175   1.301   0.708   1.169  1.6959 -1.5840 -0.2149
   44SOL     MW  176   1.305   0.739   1.087  0.2470 -0.0831  0.2979
   45SOL     OW  177   1.188   0.712   0.775  0.4454  0.1178 -0.1660
   45SOL    HW1  178   1.155   0.695   0.865 -3.1707 -1.6335  1.4788
   45SOL    HW2  179   1.126   0.656   0.721  2.6534  2.4155 -0.0258
   45SOL     MW  180   1.175   0.702   0.780  0.2596  0.1899  0.0695
   46SOL     OW  181   0.552   1.157   0.535  0.2409  0.4149 -0.2507
   46SOL    HW1  182   0.533   1.189   0.447 -0.6581 -1.3254 -2.8700
   46SOL    HW2  183   0.649   1.133   0.533  0.5142  0.9347  0.1914
   46SOL     MW  184   0.562   1.158   0.523  0.1584  0.2539 -0.5380
   47SOL     OW  185   0.177   1.923   1.819 -0.2856  0.0376  0.1493
   47SOL    HW1  186   0.219   1.853   1.758  1.4095 -0.3438  1.0791
   47SOL    HW2  187   0.179   1.881   1.907  1.3042 -0.4919  0.1745
   47SOL     MW  188   0.183   1.908   1.823  0.1478 -0.0826  0.2753
   48SOL     OW  189   1.047   0.629   1.023 -0.7867 -0.3918  0.0579
   48SOL    HW1  190   0.965   0.647   1.064  1.2592 -0.2289  1.9985
   48SOL    HW2  191   1.106   0.687   1.076 -0.0338 -3.5939 -0.9346
   48SOL     MW  192   1.044   0.639   1.035 -0.4174 -0.7928  0.1830
   49SOL     OW  193   1.806   0.778   1.592 -0.3748  0.2044 -0.3102
   49SOL    HW1  194   1.763   0.747   1.667  0.2518  1.2547 -0.5362
   49SOL    HW2  195   1.875   0.719   1.572  0.1366  0.5915 -3.4985
   49SOL     MW  196   1.809   0.766   1.599 -0.2246  0.3941 -0.7607
   50SOL     OW  197   1.220   1.025   0.483 -0.9409  0.4376  0.1122
   50SOL    HW1  198   1.166   1.053   0.559  0.5697 -2.0037  0.0117
   50SOL    HW2  199   1.280   0.949   0.510  2.6158 -0.8474  1.4356
   50SOL     MW  200   1.221   1.019   0.497 -0.2723 -0.0541  0.2736
   51SOL     OW  201   0.326   2.871   0.984 -0.1859  0.1584 -0.3440
   51SOL    HW1  202   0.422   2.873   0.971  2.2029  0.3879 -0.0667
   51SOL    HW2  203   0.312   2.916   1.072  1.2763 -0.3993 -1.1902
   51SOL     MW  204   0.337   2.877   0.994  0.3222  0.1151 -0.4190
   52SOL     OW  205   0.798   1.763   0.389 -0.3862  0.0301 -0.2531
   52SOL    HW1  206   0.770   1.843   0.427  1.0533 -1.2729 -1.7020
   52SOL    HW2  207   0.754   1.764   0.306 -0.7816 -2.3164  1.7870
   52SOL     MW  208   0.789   1.773   0.383 -0.2485 -0.4514 -0.1751
   53SOL     OW  209   0.502   2.073   0.565  0.0786  0.0961  0.0868
   53SOL    HW1  210   0.424   2.042   0.506  3.0127 -0.7962  1.9651
   53SOL    HW2  211   0.467   2.165   0.558  0.7593 -0.8941 -1.0886
   53SOL     MW  212   0.487   2.081   0.556  0.5555 -0.1522  0.1796
   54SOL     OW  213   2.178   0.815   0.862 -0.5017 -0.3756 -0.3787
   54SOL    HW1  214   2.231   0.778   0.795 -1.6295  2.3013 -3.1196
   54SOL    HW2  215   2.093   0.785   0.837  0.2135  1.1770 -2.8162
   54SOL     MW  216   2.174   0.806   0.850 -0.5561  0.1825 -1.0619
   55SOL     OW  217   0.570   1.495   1.571  0.0534 -0.3523  0.0320
   55SOL    HW1  218   0.531   1.526   1.489 -0.0203  3.9251 -0.0752
   55SOL    HW2  219   0.637   1.430   1.544  1.0425 -1.3561 -1.4242
   55SOL     MW  220   0.573   1.490   1.556  0.1742  0.0797 -0.1743
   56SOL     OW  221   0.569   0.785   0.084 -0.5503  0.1124  0.0219
   56SOL    HW1  222   0.602   0.866   0.038 -2.0356  2.6788  0.0481
   56SOL    HW2  223   0.476   0.779   0.061 -4.0201  0.9055  2.1292
   56SOL     MW  224   0.561   0.795   0.075 -1.2041  0.5556  0.3034
   57SOL     OW  225   1.274   1.230   1.226  0.2183 -0.4008  0.5881
   57SOL    HW1  226   1.349   1.269   1.177 -0.3993 -2.0279 -1.3407
   57SOL    HW2  227   1.298   1.220   1.317  0.5530  2.3059 -2.4067
   57SOL     MW  228   1.287   1.234   1.232  0.1810 -0.2583 -0.0615
   58SOL     OW  229   0.643   1.111   1.323 -0.5379 -0.0756 -0.2150
   58SOL    HW1  230   0.598   1.182   1.286  0.0161 -0.8172 -0.4444
   58SOL    HW2  231   0.595   1.073   1.400  0.1674 -0.4536 -1.1077
   58SOL     MW  232   0.631   1.116   1.329 -0.3717 -0.2233 -0.3630
   59SOL     OW  233   1.595   1.632   0.330  0.3266 -0.2194  0.6854
   59SOL    HW1  234   1.654   1.578   0.380 -0.4679  1.2932 -1.0497
   59SOL    HW2  235   1.514   1.633   0.378 -1.5047 -0.1728 -1.4590
   59SOL     MW  236   1.592   1.625   0.343 -0.0199 -0.0137  0.1735
   60SOL     OW  237   3.075   0.219   1.670  0.5568  0.4495  0.3189
   60SOL    HW1  238   2.984   0.251   1.655  1.3375 -0.2138 -0.4510
   60SOL    HW2  239   3.069   0.175   1.756  1.1325  1.2759 -0.4553
   60SOL     MW  240   3.062   0.218   1.680  0.7357  0.4710  0.1152
   61SOL     OW  241   2.005   1.454   3.076  1.0767 -0.7569  0.0248
   61SOL    HW1  242   2.027   1.438   3.169  1.4896 -2.1772  1.3473
   61SOL    HW2  243   2.050   1.382   3.033  0.5588  0.2965  1.8536
   61SOL     MW  244   2.014   1.442   3.082  1.0629 -0.8053  0.4406
   62SOL     OW  245   0.637   1.654   0.609  0.4581  0.5577  0.5873
   62SOL    HW1  246   0.680   1.675   0.516  0.4237  0.0120  0.2964
   62SOL    HW2  247   0.637   1.561   0.619  1.8083  0.6670  0.3028
   62SOL     MW  248   0.643   1.644   0.598  0.6317  0.5001  0.5113
   63SOL     OW  249   1.684   0.747   0.688 -0.2307  0.0665  0.3488
   63SOL    HW1  250   1.653   0.798   0.610 -0.4777  0.1240  0.3858
   63SOL    HW2  251   1.608   0.742   0.745 -2.0122  0.3888  0.0017
   63SOL     MW  252   1.670   0.753   0.685 -0.4983  0.1166  0.3079
   64SOL     OW  253   0.262   1.680   0.831  0.1376 -0.4449 -1.2844
   64SOL    HW1  254   0.348   1.728   0.808 -0.9264  0.8814 -0.8356
   64SOL    HW2  255   0.187   1.737   0.817 -1.2114  2.4094  1.9600
   64SOL     MW  256   0.264   1.694   0.826 -0.1807  0.1067 -0.7971
   65SOL     OW  257   1.567   2.316   0.330  0.1048  0.1913  0.4208
   65SOL    HW1  258   1.626   2.242   0.302  3.1462  0.9100  2.3631
   65SOL    HW2  259   1.591   2.364   0.411  0.0469 -0.1625 -3.4334
   65SOL     MW  260   1.578   2.312   0.337  0.4984  0.2395  0.1685
   66SOL     OW  261   0.347   0.522   0.505  0.5407 -0.1586 -0.1468
   66SOL    HW1  262   0.430   0.490   0.470 -1.9639  1.0739  0.1755
   66SOL    HW2  263   0.329   0.612   0.466 -1.3344 -0.0808 -2.7602
   66SOL     MW  264   0.355   0.530   0.495 -0.0372  0.0143 -0.4491
   67SOL     OW  265   1.515   0.110   2.035 -0.6843 -0.3526 -0.0357
   67SOL    HW1  266   1.542   0.153   1.957 -0.2716  0.1261 -0.0885
   67SOL    HW2  267   1.447   0.050   2.015 -2.5258 -0.7829  0.9029
   67SOL     MW  268   1.510   0.107   2.022 -0.8728 -0.3462  0.0812
   68SOL     OW  269   0.626   0.066   2.950  0.1653  0.1179  0.3408
   68SOL    HW1  270   0.642   0.066   2.855  0.7098 -0.7242 -1.0171
   68SOL    HW2  271   0.643   0.161   2.973 -1.2537  1.7529 -0.8864
   68SOL     MW  272   0.630   0.078   2.940  0.0499  0.2225 -0.0003
   69SOL     OW  273   1.036   0.233   1.955  0.4109  0.1746  0.2972
   69SOL    HW1  274   1.113   0.247   2.012 -0.6988  1.3368  1.7007
   69SOL    HW2  275   1.021   0.139   1.971  3.0167  2.2771 -1.7648
   69SOL     MW  276   1.044   0.222   1.965  0.6083  0.6053  0.2103
   70SOL     OW  277   0.576   1.823   1.117  0.2573 -0.7762 -0.0399
   70SOL    HW1  278   0.619   1.738   1.139  0.9135 -0.5795 -0.3752
   70SOL    HW2  279   0.560   1.807   1.019  0.0936 -2.7287 -0.2149
   70SOL     MW  280   0.579   1.810   1.107  0.3222 -1.0079 -0.1072
   71SOL     OW  281   1.750   0.638   1.289 -0.3738 -0.0921  0.8069
   71SOL    HW1  282   1.729   0.665   1.377 -1.3468 -1.2675 -0.7512
   71SOL    HW2  283   1.659   0.618   1.259 -1.1704 -1.7829  0.3064
   71SOL     MW  284   1.735   0.639   1.297 -0.6073 -0.4703  0.5353
   72SOL     OW  285   0.826   1.776   0.963 -0.2310 -0.1501 -0.2750
   72SOL    HW1  286   0.784   1.829   0.887  1.2047  0.5587  1.0913
   72SOL    HW2  287   0.799   1.684   0.946  1.1362  0.7497 -0.9997
   72SOL     MW  288   0.817   1.771   0.951  0.1388  0.0621 -0.1904
   73SOL     OW  289   1.230   0.703   1.358 -0.4418  0.6085 -0.3182
   73SOL    HW1  290   1.176   0.625   1.356 -0.8932  1.5689 -0.5955
   73SOL    HW2  291   1.173   0.770   1.396 -0.9581  0.6680 -1.0767
   73SOL     MW  292   1.215   0.702   1.362 -0.5695  0.7431 -0.4549
   74SOL     OW  293   2.857   0.168   1.006  0.7142 -0.1110  0.3881
   74SOL    HW1  294   2.903   0.166   0.926 -1.0326  1.7674  1.3409
   74SOL    HW2  295   2.797   0.245   0.997  1.2713 -0.0027 -0.0291
   74SOL     MW  296   2.855   0.178   0.994  0.5572  0.1511  0.4588
   75SOL     OW  297   1.592   1.341   0.121  0.3415 -0.0478  0.3289
   75SOL    HW1  298   1.639   1.371   0.200 -3.4019  0.7059 -0.6392
   75SOL    HW2  299   1.635   1.261   0.092 -0.6455  0.6147  0.0689
   75SOL     MW  300   1.604   1.334   0.128 -0.2827  0.1391  0.1668
   76SOL     OW  301   2.967   0.655   0.485  0.1769 -0.1683  0.0996
   76SOL    HW1  302   3.002   0.674   0.571  1.4969 -0.3228 -1.7784
   76SOL    HW2  303   3.027   0.594   0.439  1.7878 -1.0375  0.4467
   76SOL     MW  304   2.979   0.649   0.490  0.5636 -0.3034 -0.1024
   77SOL     OW  305   0.861   0.468   0.455 -0.5119 -0.0380 -0.1204
   77SOL    HW1  306   0.772   0.486   0.421 -0.8082  0.2598 -0.3598
   77SOL    HW2  307   0.849   0.376   0.484 -1.2394  1.8684 -0.3325
   77SOL     MW  308   0.848   0.459   0.455 -0.6470  0.2528 -0.1800
   78SOL     OW  309   0.762   0.802   1.204 -0.2089  0.5155  0.3821
   78SOL    HW1  310   0.689   0.846   1.160 -2.8735 -1.4844 -2.0037
   78SOL    HW2  311   0.817   0.880   1.227 -0.7313 -0.5316 -0.8090
   78SOL     MW  312   0.759   0.818   1.201 -0.6294  0.1135 -0.0898
   79SOL     OW  313   1.939   1.717   0.609 -0.1990 -0.1294 -0.4104
   79SOL    HW1  314   1.865   1.664   0.611 -0.6344  1.6574 -1.2764
   79SOL    HW2  315   1.961   1.728   0.706 -0.6229 -1.4379  0.4650
   79SOL     MW  316   1.933   1.712   0.622 -0.3124 -0.0663 -0.4092
   80SOL     OW  317   0.170   1.010   0.354 -0.4273  0.0455 -0.0204
   80SOL    HW1  318   0.079   0.979   0.384 -0.1334  0.1503  1.3412
   80SOL    HW2  319   0.222   0.933   0.372  0.3342 -0.2693 -0.9930
   80SOL     MW  320   0.164   0.996   0.360 -0.2881  0.0178  0.0309
   81SOL     OW  321   1.898   1.907   0.260 -0.1774  0.2394 -0.9036
   81SOL    HW1  322   1.865   1.826   0.224  1.5241 -0.5905  2.4386
   81SOL    HW2  323   1.820   1.970   0.253  0.0368  0.9963 -0.1158
   81SOL     MW  324   1.884   1.904   0.255  0.0754  0.2298 -0.3587
   82SOL     OW  325   0.822   1.041   0.523 -0.5717 -0.1713 -0.8523
   82SOL    HW1  326   0.870   1.088   0.454  0.1476  1.3279 -2.9446
   82SOL    HW2  327   0.804   0.953   0.500  3.7887  1.8932 -2.2561
   82SOL     MW  328   0.826   1.035   0.511  0.0985  0.2989 -1.3136
   83SOL     OW  329   0.162   0.627   1.338  0.1840  0.4979 -0.3948
   83SOL    HW1  330   0.146   0.719   1.347 -0.3334 -1.4622 -2.5434
   83SOL    HW2  331   0.219   0.611   1.415  1.2121 -0.7805  2.0492
   83SOL     MW  332   0.167   0.637   1.349  0.2514  0.0706 -0.3559
   84SOL     OW  333   0.082   0.242   0.943 -0.2819 -0.2745 -0.6462
   84SOL    HW1  334   0.014   0.303   0.909 -1.4128  1.1634 -1.3583
   84SOL    HW2  335   0.040   0.193   1.016  0.3336 -2.5267 -1.3321
   84SOL     MW  336   0.068   0.244   0.948 -0.3499 -0.3819 -0.8307
   85SOL     OW  337   0.438   0.439   0.769  0.0653  0.0273 -0.0591
   85SOL    HW1  338   0.394   0.461   0.686 -2.5915 -1.6661 -2.2349
   85SOL    HW2  339   0.419   0.348   0.762 -0.9727 -1.3204 -3.4134
   85SOL     MW  340   0.429   0.430   0.757 -0.4222 -0.3740 -0.7887
   86SOL     OW  341   1.212   0.412   1.104  0.4110  0.1764 -0.8096
   86SOL    HW1  342   1.153   0.472   1.062  0.0506 -0.6468 -2.5868
   86SOL    HW2  343   1.176   0.414   1.194  1.4316 -0.4379 -1.2718
   86SOL     MW  344   1.199   0.420   1.111  0.4981 -0.0133 -1.1051
   87SOL     OW  345   1.200   1.503   1.214 -0.1969 -0.0884 -0.4547
   87SOL    HW1  346   1.234   1.551   1.137 -0.2784 -2.3454 -0.1628
   87SOL    HW2  347   1.228   1.413   1.208 -0.3537  2.4239  2.2564
   87SOL     MW  348   1.208   1.498   1.203 -0.2284 -0.0547 -0.0585
   88SOL     OW  349   1.266   1.009   1.011 -0.4309  0.1796  0.4316
   88SOL    HW1  350   1.362   1.010   1.032 -0.2820 -2.1019 -1.5176
   88SOL    HW2  351   1.235   1.084   1.058  1.0878 -0.0689  0.9715
   88SOL     MW  352   1.275   1.019   1.020 -0.2109 -0.1542  0.2457
   89SOL     OW  353   1.751   0.660   0.344  1.0805  0.0836 -0.6034
   89SOL    HW1  354   1.804   0.583   0.353  1.5860  1.2409  2.4418
   89SOL    HW2  355   1.802   0.715   0.281 -0.1461 -0.5979 -2.1789
   89SOL     MW  356   1.764   0.657   0.337  0.9854  0.1464 -0.4095
   90SOL     OW  357   0.699   1.201   2.786  0.6069 -0.0909 -0.4855
   90SOL    HW1  358   0.722   1.108   2.764 -0.2091 -1.3168  4.2365
   90SOL    HW2  359   0.710   1.207   2.888 -1.1673 -0.7125 -0.1993
   90SOL     MW  360   0.704   1.190   2.797  0.2651 -0.3346  0.1753
   91SOL     OW  361   2.150   0.681   0.581  0.7301  0.3871  0.3333
   91SOL    HW1  362   2.128   0.767   0.549  3.6711 -1.1247  0.5836
   91SOL    HW2  363   2.098   0.623   0.527  2.4578  0.9550  1.3715
   91SOL     MW  364   2.140   0.685   0.569  1.3461  0.2625  0.5033
   92SOL     OW  365   1.595   0.866   0.455  0.9169  0.1656  0.1272
   92SOL    HW1  366   1.499   0.845   0.451 -1.4091 -0.7359 -0.6157
   92SOL    HW2  367   1.645   0.796   0.413  0.4773  2.2897  0.6103
   92SOL     MW  368   1.589   0.854   0.449  0.5520  0.3269  0.0929
   93SOL     OW  369   1.053   0.318   0.341  0.2354 -0.2410 -0.0693
   93SOL    HW1  370   0.980   0.379   0.353 -0.7670 -0.9907 -0.5818
   93SOL    HW2  371   1.083   0.331   0.249 -1.1960  1.4402 -2.8095
   93SOL     MW  372   1.047   0.328   0.330 -0.0857 -0.1181 -0.4985
   94SOL     OW  373   1.920   1.342   1.618  0.5728  0.8202 -0.6513
   94SOL    HW1  374   1.900   1.363   1.524 -1.7414  0.0883 -0.3705
   94SOL    HW2  375   1.882   1.252   1.640 -1.6367 -1.9219  0.6268
   94SOL     MW  376   1.912   1.333   1.609 -0.0241  0.3619 -0.4456
   95SOL     OW  377   0.759   1.506   0.934 -0.7425 -0.0503 -0.2435
   95SOL    HW1  378   0.810   1.424   0.930  0.7525 -2.3638  1.9401
   95SOL    HW2  379   0.712   1.488   1.015 -1.3346  1.0174 -2.6077
   95SOL     MW  380   0.760   1.493   0.944 -0.6234 -0.2147 -0.2673
   96SOL     OW  381   1.233   1.807   1.575 -0.6633 -0.1977  0.1677
   96SOL    HW1  382   1.166   1.740   1.591  2.2529  2.0510 -0.7936
   96SOL    HW2  383   1.265   1.781   1.494  0.3530 -0.5762  1.6706
   96SOL     MW  384   1.228   1.795   1.566 -0.1444  0.0491  0.2392
   97SOL     OW  385   1.212   1.401   0.782 -0.3327  0.2183 -0.1927
   97SOL    HW1  386   1.249   1.455   0.851 -0.8447  1.5632  1.1663
   97SOL    HW2  387   1.139   1.457   0.758 -3.1227  1.2803  0.0633
   97SOL     MW  388   1.207   1.415   0.788 -0.7684  0.5359  0.0204
   98SOL     OW  389   1.488   1.318   1.093 -0.0737 -0.5131 -0.4946
   98SOL    HW1  390   1.525   1.370   1.165 -1.6606  0.4084 -1.5450
   98SOL    HW2  391   1.520   1.359   1.015 -1.6603 -0.4783  0.4205
   98SOL     MW  392   1.497   1.330   1.092 -0.4924 -0.3869 -0.5125
   99SOL     OW  393   1.511   0.369   1.279 -0.3089  0.5892  0.3805
   99SOL    HW1  394   1.510   0.445   1.219 -0.0914  1.5705 -2.1524
   99SOL    HW2  395   1.476   0.410   1.355 -1.1746 -0.1782  1.0342
   99SOL     MW  396   1.506   0.385   1.281 -0.3944  0.6175  0.1326
  100SOL     OW  397   1.024   1.077   1.430 -0.2311  0.0868  0.2090
  100SOL    HW1  398   0.956   1.118   1.483 -2.3858  0.9259 -0.7074
  100SOL    HW2  399   1.007   0.984   1.459  0.3245  0.6186 -1.3491
  100SOL     MW  400   1.013   1.070   1.441 -0.4421  0.2676 -0.1175
  101SOL     OW  401   0.587   1.121   0.250 -0.4584 -0.3313  0.0309
  101SOL    HW1  402   0.566   1.035   0.293  0.6782 -0.1721 -0.3044
  101SOL    HW2  403   0.543   1.116   0.165  0.6695  0.2528  1.2882
  101SOL     MW  404   0.579   1.109   0.245 -0.1596 -0.2332  0.1526
  102SOL     OW  405   2.945   0.605   1.006 -0.2609  0.5694 -0.1881
  102SOL    HW1  406   3.002   0.688   0.996 -0.1918 -0.3863  0.5002
  102SOL    HW2  407   2.987   0.568   1.083 -0.0232  3.3216 -1.9113
  102SOL     MW  408   2.958   0.611   1.015 -0.2204  0.8064 -0.3247
  103SOL     OW  409   1.662   0.401   1.870  0.3271 -0.4173 -0.0529
  103SOL    HW1  410   1.624   0.337   1.809  2.5861  2.2499  1.1262
  103SOL    HW2  411   1.724   0.344   1.912 -0.2488  1.0240 -0.1822
  103SOL     MW  412   1.666   0.385   1.868  0.5491  0.1248  0.0856
  104SOL     OW  413   0.175   1.842   1.417 -0.6093 -0.2948  0.3858
  104SOL    HW1  414   0.266   1.802   1.402  0.2188 -0.7027 -3.0234
  104SOL    HW2  415   0.127   1.821   1.340  2.3892  1.8399  1.3556
  104SOL     MW  416   0.180   1.834   1.405 -0.1044 -0.0670  0.0640
  105SOL     OW  417   0.148   1.209   0.559 -0.7194  0.6138  0.2121
  105SOL    HW1  418   0.170   1.141   0.493  0.9378  1.8721 -3.8766
  105SOL    HW2  419   0.216   1.279   0.534 -0.4631 -0.3816 -2.3724
  105SOL     MW  420   0.160   1.210   0.547 -0.4669  0.6485 -0.6684
  106SOL     OW  421   0.829   0.313   0.940  0.4657 -0.1034  0.1582
  106SOL    HW1  422   0.773   0.388   0.913  1.9485 -1.2449 -0.6286
  106SOL    HW2  423   0.916   0.342   0.911 -0.5422  0.4308 -0.5744
  106SOL     MW  424   0.833   0.326   0.933  0.5284 -0.1835 -0.0422
  107SOL     OW  425   0.845   2.187   2.986 -0.1088 -0.0810 -0.6078
  107SOL    HW1  426   0.786   2.124   2.950  0.9677 -0.4493  2.6163
  107SOL    HW2  427   0.851   2.154   3.075  1.1490 -1.3631 -0.9012
  107SOL     MW  428   0.838   2.174   2.993  0.1992 -0.2988 -0.2211
  108SOL     OW  429   1.372   1.629   1.419 -0.2058  0.0776  0.0410
  108SOL    HW1  430   1.294   1.612   1.368  0.2973  2.6881 -1.9175
  108SOL    HW2  431   1.385   1.573   1.502  0.3455 -3.1335  2.2861
  108SOL     MW  432   1.364   1.619   1.423 -0.0667 -0.0016  0.0788
  109SOL     OW  433   1.950   0.764   0.182  0.0939 -0.2745  0.1706
  109SOL    HW1  434   1.982   0.779   0.097 -4.5618  2.5407  2.5249
  109SOL    HW2  435   2.024   0.777   0.238 -0.3577 -0.6959  0.5098
  109SOL     MW  436   1.964   0.768   0.178 -0.5800  0.0414  0.5260
  110SOL     OW  437   0.466   1.819   0.714  0.5581  1.2246  0.1293
  110SOL    HW1  438   0.527   1.744   0.690  2.6105 -1.8257 -0.5061
  110SOL    HW2  439   0.494   1.893   0.661  2.6456 -2.9488 -1.3115
  110SOL     MW  440   0.478   1.819   0.704  1.1043  0.2715 -0.1446
  111SOL     OW  441   0.719   0.833   1.497 -0.3268  0.2576 -0.0998
  111SOL    HW1  442   0.734   0.795   1.413  1.0613  1.0948  0.7240
  111SOL    HW2  443   0.641   0.792   1.537 -0.4970 -1.3719 -2.3878
  111SOL     MW  444   0.711   0.822   1.491 -0.1661  0.1531 -0.2930
  112SOL     OW  445   1.342   1.085   1.739 -0.5524  0.4867 -0.2634
  112SOL    HW1  446   1.289   1.161   1.721  2.0128  2.1091 -1.5134
  112SOL    HW2  447   1.279   1.018   1.737 -0.6127  1.4152 -0.2804
  112SOL     MW  448   1.326   1.086   1.736 -0.2219  0.8232 -0.4306
  113SOL     OW  449   1.358   0.007   1.723 -0.2343 -0.3369  0.4561
  113SOL    HW1  450   1.328  -0.025   1.811 -2.7632  0.4104 -0.4992
  113SOL    HW2  451   1.357  -0.066   1.660  0.8726 -0.0794 -1.0898
  113SOL     MW  452   1.354  -0.007   1.726 -0.4219 -0.2043  0.1261
  114SOL     OW  453   0.506   2.813   1.884 -0.2401 -0.1196  0.7358
  114SOL    HW1  454   0.461   2.876   1.942 -1.7340 -0.3860 -1.5034
  114SOL    HW2  455   0.462   2.827   1.801  2.6211 -0.6121 -2.8140
  114SOL     MW  456   0.494   2.823   1.881 -0.0597 -0.2197 -0.0280
  115SOL     OW  457   0.461   0.842   1.130  0.4039 -0.0234 -0.0990
  115SOL    HW1  458   0.486   0.748   1.134 -3.1895 -4.5644  0.0591
  115SOL    HW2  459   0.410   0.857   1.209  1.6031  0.0450 -1.1629
  115SOL     MW  460   0.457   0.832   1.141  0.0880 -0.6135 -0.2185
  116SOL     OW  461   0.771   1.065   0.932  0.5148 -0.0098  0.6319
  116SOL    HW1  462   0.832   1.101   0.867  0.8231  2.1123 -0.4900
  116SOL    HW2  463   0.815   1.070   1.020 -1.0264  2.3172  3.2107
  116SOL     MW  464   0.785   1.070   0.935  0.3521  0.5772  0.8241
  117SOL     OW  465   1.234   1.122   0.770  0.2618 -0.1829  0.2554
  117SOL    HW1  466   1.256   1.066   0.847  1.0818  0.0818 -0.4056
  117SOL    HW2  467   1.235   1.214   0.802 -1.3736 -1.7011 -1.4237
  117SOL     MW  468   1.237   1.127   0.785  0.1542 -0.3483 -0.0533
  118SOL     OW  469   3.043   2.989   1.704 -0.2057 -0.0077 -0.6857
  118SOL    HW1  470   3.092   3.004   1.784  0.7479 -1.3926 -3.8628
  118SOL    HW2  471   2.955   3.032   1.708  3.0128 -0.3682  1.2136
  118SOL     MW  472   3.038   2.997   1.715  0.3448 -0.2380 -0.8543
  119SOL     OW  473   0.534   1.342   1.220 -0.2118  0.5281  0.3053
  119SOL    HW1  474   0.526   1.337   1.130  0.6459  1.0415  1.6530
  119SOL    HW2  475   0.447   1.314   1.258 -0.9219  0.2123 -1.8067
  119SOL     MW  476   0.522   1.338   1.213 -0.1923  0.5542  0.2045
  120SOL     OW  477   0.188   0.702   0.942 -0.3450  0.1253  0.0880
  120SOL    HW1  478   0.222   0.636   1.004 -0.3472 -0.1175 -1.2589
  120SOL    HW2  479   0.253   0.768   0.931 -1.0206  2.8032  1.4424
  120SOL     MW  480   0.201   0.702   0.949 -0.4344  0.4466  0.0890
  121SOL     OW  481   1.840   1.079   1.723  0.3413  0.6226  0.2737
  121SOL    HW1  482   1.745   1.071   1.751 -0.2878  1.7167  0.5286
  121SOL    HW2  483   1.874   0.992   1.701  0.3482 -1.7922 -0.7801
  121SOL     MW  484   1.832   1.066   1.724  0.2592  0.4483  0.1683
  122SOL     OW  485   0.114   0.512   0.751  0.0206  0.5454 -0.2045
  122SOL    HW1  486   0.179   0.462   0.700  0.3800 -0.1900  0.7426
  122SOL    HW2  487   0.163   0.566   0.814 -0.0842 -1.4884  0.9745
  122SOL     MW  488   0.129   0.512   0.753  0.0542  0.1800  0.0760
  123SOL     OW  489   1.797   1.071   0.435  0.1860  1.0412  0.0111
  123SOL    HW1  490   1.714   1.025   0.442  2.0420 -3.5893 -2.0425
  123SOL    HW2  491   1.828   1.068   0.530 -1.3082  0.3334  1.5981
  123SOL     MW  492   1.790   1.065   0.449  0.2337  0.3368 -0.0505
  124SOL     OW  493   0.675   0.530   0.876  0.1349  0.7991  0.6893
  124SOL    HW1  494   0.597   0.503   0.824 -1.3158 -0.9674 -0.6866
  124SOL    HW2  495   0.685   0.621   0.856  0.9167  0.7733  1.1211
  124SOL     MW  496   0.666   0.538   0.867  0.0466  0.5626  0.5647
  125SOL     OW  497   0.683   1.701   1.679 -0.2298  0.4427  0.6916
  125SOL    HW1  498   0.631   1.630   1.625 -1.5321 -0.5093 -1.0441
  125SOL    HW2  499   0.623   1.773   1.680  2.6137  0.7604  0.2798
  125SOL     MW  500   0.669   1.701   1.672 -0.0264  0.3590  0.4083
  126SOL     OW  501   2.122   1.595   1.954 -0.4518  0.3073  0.2109
  126SOL    HW1  502   2.193   1.664   1.948  0.7498  0.7891 -1.6091
  126SOL    HW2  503   2.174   1.514   1.970  0.1551 -2.8824 -0.7486
  126SOL     MW  504   2.138   1.593   1.955 -0.2132 -0.0500 -0.1558
  127SOL     OW  505   0.619   0.756   1.853 -0.2084  0.5294  0.1500
  127SOL    HW1  506   0.709   0.716   1.865  2.5780 -0.2693  1.3824
  127SOL    HW2  507   0.622   0.832   1.909  0.4306 -1.5363 -2.1271
  127SOL     MW  508   0.632   0.761   1.862  0.2436  0.1515  0.0122
  128SOL     OW  509   1.835   0.780   2.893  0.6745  0.5356  0.0129
  128SOL    HW1  510   1.845   0.744   2.802  1.2432  4.6366 -0.9147
  128SOL    HW2  511   1.792   0.867   2.875  2.6418  0.6082  1.3963
  128SOL     MW  512   1.831   0.786   2.879  1.0091  1.0862  0.0731
  129SOL     OW  513   1.505   0.969   0.185  0.5660 -0.1399 -0.0917
  129SOL    HW1  514   1.445   0.902   0.202  4.3857  0.8323 -0.5393
  129SOL    HW2  515   1.558   0.977   0.261  1.3386  1.7185 -1.8772
  129SOL     MW  516   1.504   0.961   0.197  1.1719  0.2336 -0.3864
  130SOL     OW  517   0.751   1.442   0.407  0.0184 -0.4624  0.0770
  130SOL    HW1  518   0.813   1.428   0.480  0.0113 -0.2891 -2.2829
  130SOL    HW2  519   0.812   1.465   0.339  1.2365  0.6563 -1.4429
  130SOL     MW  520   0.767   1.443   0.408  0.1782 -0.2920 -0.4349
  131SOL     OW  521   3.052   0.819   0.053 -0.3109  0.0797 -0.6335
  131SOL    HW1  522   3.028   0.870  -0.037 -0.2508  0.8106 -2.2845
  131SOL    HW2  523   3.153   0.816   0.067 -1.0473  4.6405 -0.4640
  131SOL     MW  524   3.062   0.825   0.043 -0.4002  0.7779 -0.8290
  132SOL     OW  525   2.779   0.140   1.267  0.1932 -0.2747 -0.0598
  132SOL    HW1  526   2.813   0.118   1.179  1.2548  0.5793 -0.0566
  132SOL    HW2  527   2.683   0.134   1.260  1.0503  1.3947  0.4767
  132SOL     MW  528   2.771   0.136   1.254  0.4464  0.0582  0.0114
  133SOL     OW  529   1.095   0.140   1.696 -0.4138 -0.7068  0.1638
  133SOL    HW1  530   1.177   0.092   1.689 -1.3896 -0.6043 -1.5970
  133SOL    HW2  531   1.081   0.151   1.788  2.1148 -0.4708  1.0891
  133SOL     MW  532   1.104   0.135   1.707 -0.2089 -0.6621  0.0536
  134SOL     OW  533   1.376   2.515   1.422  0.0360 -0.0413  0.4573
  134SOL    HW1  534   1.322   2.585   1.390  0.6159 -1.4104  0.8203
  134SOL    HW2  535   1.425   2.565   1.488  0.2227  0.2065  0.9215
  134SOL     MW  536   1.375   2.531   1.426  0.1371 -0.1893  0.5664
  135SOL     OW  537   3.015   0.986   2.937 -0.5221 -0.2266 -0.3862
  135SOL    HW1  538   3.087   1.049   2.937 -0.6945  0.2770 -3.8243
  135SOL    HW2  539   2.948   1.046   2.951  2.5522 -3.1445 -0.7731
  135SOL     MW  540   3.016   1.002   2.939 -0.1393 -0.5451 -0.8909
  136SOL     OW  541   0.251   1.998   0.869 -1.0545 -0.2323 -0.6098
  136SOL    HW1  542   0.173   1.955   0.837 -1.2832 -3.0120 -0.9383
  136SOL    HW2  543   0.315   1.940   0.820 -0.4250 -0.3001 -1.0631
  136SOL     MW  544   0.249   1.985   0.858 -1.0016 -0.6080 -0.7130
  137SOL     OW  545   0.747   2.006   0.510 -0.1613  0.4138 -0.0371
  137SOL    HW1  546   0.753   1.993   0.602 -1.1805 -1.8711  0.7127
  137SOL    HW2  547   0.658   2.044   0.500  0.0384  0.6169  0.1453
  137SOL     MW  548   0.736   2.009   0.520 -0.2694  0.1391  0.0859
  138SOL     OW  549   0.515   0.572   1.119  0.6090  0.3250  0.4943
  138SOL    HW1  550   0.433   0.529   1.089 -1.3119 -1.7386  1.1735
  138SOL    HW2  551   0.568   0.559   1.038 -1.7495  0.9576  0.3423
  138SOL     MW  552   0.511   0.565   1.104  0.0444  0.1362  0.5638
  139SOL     OW  553   2.700   0.484   1.392 -0.2492  0.9348 -0.1009
  139SOL    HW1  554   2.771   0.437   1.341 -4.1746 -2.3039 -3.3769
  139SOL    HW2  555   2.738   0.563   1.425  1.6753 -0.1551  1.2427
  139SOL     MW  556   2.714   0.488   1.390 -0.5132  0.3637 -0.3559
  140SOL     OW  557   0.839   0.384   2.089  0.0574  0.2120 -0.0858
  140SOL    HW1  558   0.906   0.326   2.048 -0.8528 -1.4971  1.2374
  140SOL    HW2  559   0.885   0.395   2.170 -1.2915 -0.5774 -0.8884
  140SOL     MW  560   0.854   0.377   2.095 -0.2407 -0.1176 -0.0171
  141SOL     OW  561   1.031   0.585   1.736  0.2356 -0.0186  0.3610
  141SOL    HW1  562   1.068   0.497   1.710 -1.3090  0.2327 -0.7537
  141SOL    HW2  563   1.110   0.642   1.745 -1.0801 -2.1643 -0.5198
  141SOL     MW  564   1.047   0.581   1.734 -0.1418 -0.2686  0.0977
  142SOL     OW  565   0.952   1.143   0.746  0.0477  0.2140  0.4445
  142SOL    HW1  566   0.915   1.066   0.688  0.2460 -3.1124 -2.9702
  142SOL    HW2  567   1.049   1.132   0.749 -1.7925  1.6200 -2.8003
  142SOL     MW  568   0.960   1.131   0.738 -0.1689 -0.0394 -0.4342
  143SOL     OW  569   1.807   0.842   1.102 -0.3134 -0.8245  0.0203
  143SOL    HW1  570   1.788   0.811   1.015 -1.1177 -1.7022 -1.1778
  143SOL    HW2  571   1.775   0.775   1.163 -1.6101 -1.8182  0.8468
  143SOL     MW  572   1.800   0.829   1.099 -0.5906 -1.0714 -0.0287
  144SOL     OW  573   0.218   1.161   1.525  0.2998  0.4879  0.1914
  144SOL    HW1  574   0.307   1.141   1.547 -0.0022  1.2381 -1.1554
  144SOL    HW2  575   0.196   1.222   1.592  0.3847  0.4984 -1.7018
  144SOL     MW  576   0.227   1.166   1.536  0.2712  0.5883 -0.2361
  145SOL     OW  577   0.275   0.473   1.040 -0.1092 -0.3613 -0.5095
  145SOL    HW1  578   0.274   0.414   1.120  1.0249 -1.0117 -2.5171
  145SOL    HW2  579   0.257   0.414   0.971  1.7259  3.1349  3.7915
  145SOL     MW  580   0.273   0.458   1.042  0.2825  0.0142 -0.2069
  146SOL     OW  581   0.900   1.937   1.415  0.3527  0.0220  0.1416
  146SOL    HW1  582   0.935   1.972   1.329 -0.9317 -2.5406 -0.4101
  146SOL    HW2  583   0.808   1.929   1.377 -2.9967  0.0657 -2.3527
  146SOL     MW  584   0.893   1.940   1.398 -0.2587 -0.3103 -0.2603
  147SOL     OW  585   0.396   0.456   2.904  0.1949  0.4464  0.5805
  147SOL    HW1  586   0.354   0.466   2.985 -0.8061  0.9326 -0.8746
  147SOL    HW2  587   0.348   0.520   2.853 -1.0393 -2.8174  1.6873
  147SOL     MW  588   0.384   0.466   2.908 -0.1000  0.0799  0.5346
  148SOL     OW  589   0.065   0.875   1.345  0.3836 -0.8553  0.1308
  148SOL    HW1  590   0.165   0.907   1.350  3.1500 -0.6127 -1.9021
  148SOL    HW2  591   0.045   0.884   1.438  2.7770 -0.1587 -1.5846
  148SOL     MW  592   0.076   0.880   1.358  1.0644 -0.7314 -0.3638
  149SOL     OW  593   1.400   1.177   1.460 -0.5611 -0.5216 -0.0881
  149SOL    HW1  594   1.396   1.118   1.530  0.8208  1.1128  0.8310
  149SOL    HW2  595   1.470   1.240   1.491  0.6925 -1.3814  0.2740
  149SOL     MW  596   1.409   1.178   1.474 -0.2134 -0.4194  0.0810
  150SOL     OW  597   1.820   1.301   0.799  0.5688  0.3315  0.1741
  150SOL    HW1  598   1.829   1.209   0.784 -0.6099  1.5960 -0.3887
  150SOL    HW2  599   1.894   1.332   0.852 -1.3618  0.1837 -0.5679
  150SOL     MW  600   1.831   1.293   0.804  0.1586  0.4789  0.0019
  151SOL     OW  601   1.640   1.836   0.851 -0.0176  0.1691 -0.2687
  151SOL    HW1  602   1.604   1.812   0.765 -0.3777  4.1840 -0.2885
  151SOL    HW2  603   1.583   1.784   0.919  1.6425  0.3747 -1.0728
  151SOL     MW  604   1.628   1.826   0.849  0.1539  0.7260 -0.3774
  152SOL     OW  605   0.776   1.345   1.505 -0.2002 -0.0135 -0.3560
  152SOL    HW1  606   0.767   1.251   1.534 -1.6329  2.0431 -1.7793
  152SOL    HW2  607   0.849   1.353   1.443 -0.2868 -0.6297  1.3746
  152SOL     MW  608   0.784   1.334   1.501 -0.4006  0.1765 -0.3154
  153SOL     OW  609   2.625   1.263   0.713 -0.1120  0.4978  0.5912
  153SOL    HW1  610   2.673   1.260   0.635 -3.6369  2.3245 -0.7501
  153SOL    HW2  611   2.600   1.173   0.706 -0.2430 -0.0809 -1.0447
  153SOL     MW  612   2.628   1.250   0.702 -0.5944  0.6624  0.1984
  154SOL     OW  613   0.339   1.748   1.679  0.6326 -1.0658 -0.3230
  154SOL    HW1  614   0.355   1.718   1.594 -0.0490  1.3328 -2.1353
  154SOL    HW2  615   0.343   1.669   1.727  1.0709 -0.8848  1.7694
  154SOL     MW  616   0.342   1.734   1.674  0.6005 -0.7254 -0.2861
  155SOL     OW  617   1.118   0.668   0.300 -0.0333 -0.3189  0.0225
  155SOL    HW1  618   1.125   0.633   0.389  3.1428 -0.6379  0.3816
  155SOL    HW2  619   1.079   0.758   0.296  1.3570  0.0686 -1.2017
  155SOL     MW  620   1.114   0.675   0.311  0.5692 -0.3099 -0.0916
  156SOL     OW  621   1.487   3.006   1.041  0.0253 -0.0743 -0.0262
  156SOL    HW1  622   1.544   3.077   1.060  1.8840 -1.3095  0.2725
  156SOL    HW2  623   1.487   2.952   1.119  0.2700  2.8231 -0.8173
  156SOL     MW  624   1.495   3.008   1.054  0.3028  0.1450 -0.0912
  157SOL     OW  625   1.327   1.225   0.142  0.0943  0.6802 -0.4625
  157SOL    HW1  626   1.378   1.144   0.159  0.0416 -0.6929  0.5308
  157SOL    HW2  627   1.386   1.293   0.113 -0.7875 -2.4939 -2.3998
  157SOL     MW  628   1.341   1.223   0.141 -0.0290  0.0802 -0.5871
  158SOL     OW  629   0.456   1.647   2.237  0.7928 -0.3544 -0.3233
  158SOL    HW1  630   0.445   1.697   2.156  0.0066 -2.4301 -0.3102
  158SOL    HW2  631   0.372   1.627   2.277  1.8538 -2.9236 -2.2472
  158SOL     MW  632   0.443   1.651   2.232  0.8291 -0.9673 -0.5754
  159SOL     OW  633   1.329   1.700   0.470  0.3456 -0.0406  0.1238
  159SOL    HW1  634   1.300   1.615   0.446 -0.8854  1.8448  0.3114
  159SOL    HW2  635   1.248   1.745   0.509 -2.0873  0.5630  1.9505
  159SOL     MW  636   1.315   1.695   0.472 -0.1378  0.2878  0.3896
  160SOL     OW  637   0.503   1.093   1.542  0.2580 -0.1397  0.3539
  160SOL    HW1  638   0.493   1.007   1.584 -1.1269 -0.3040 -1.9698
  160SOL    HW2  639   0.519   1.165   1.602 -1.6676 -1.0593 -0.8814
  160SOL     MW  640   0.503   1.091   1.556 -0.1788 -0.2827 -0.1157
  161SOL     OW  641   0.550   2.127   2.671  0.1084  0.0089 -0.2676
  161SOL    HW1  642   0.469   2.158   2.708  0.1882 -0.3456 -1.3738
  161SOL    HW2  643   0.536   2.106   2.582 -0.6378  1.3437  3.9247
  161SOL     MW  644   0.537   2.128   2.664  0.0205  0.1382  0.1396
  162SOL     OW  645   0.984   1.692   1.747  0.0281 -0.1116 -0.4790
  162SOL    HW1  646   1.029   1.783   1.770 -1.3697 -1.8505 -2.0126
  162SOL    HW2  647   0.901   1.705   1.783 -1.6791 -2.0063 -0.7151
  162SOL     MW  648   0.979   1.706   1.755 -0.3816 -0.5910 -0.7125
  163SOL     OW  649   2.120   0.164   0.982 -0.0307 -0.9846  0.2831
  163SOL    HW1  650   2.118   0.151   0.883  0.1570  0.3235 -3.0488
  163SOL    HW2  651   2.073   0.092   1.026 -1.7859  0.8638 -1.3921
  163SOL     MW  652   2.114   0.153   0.975 -0.2375 -0.5681 -0.3776
  164SOL     OW  653   0.266   0.224   0.726  0.7037  0.0283 -0.3721
  164SOL    HW1  654   0.196   0.222   0.793 -0.9040  2.3411  0.0469
  164SOL    HW2  655   0.268   0.136   0.690 -0.0924 -1.8433 -0.8802
  164SOL     MW  656   0.257   0.212   0.730  0.3865  0.0865 -0.3838
  165SOL     OW  657   1.369   1.238   0.422  0.0690  0.3234 -0.1264
  165SOL    HW1  658   1.317   1.178   0.471  0.8131  1.7048  2.2610
  165SOL    HW2  659   1.328   1.235   0.332 -0.5042  0.2268 -0.9565
  165SOL     MW  660   1.357   1.230   0.416  0.0915  0.4929  0.0790
  166SOL     OW  661   0.490   1.046   0.937  0.2545  0.1226 -0.5521
  166SOL    HW1  662   0.484   0.977   1.007  0.0819  1.1399  3.6983
  166SOL    HW2  663   0.581   1.059   0.921 -1.2700  0.3148 -2.0641
  166SOL     MW  664   0.501   1.038   0.944  0.0306  0.2822 -0.1908
  167SOL     OW  665   0.881   1.154   0.280 -0.4267  0.1863  0.5056
  167SOL    HW1  666   0.788   1.168   0.261 -3.0452  0.9762 -1.1669
  167SOL    HW2  667   0.913   1.226   0.217 -0.0931  0.0927  0.9989
  167SOL     MW  668   0.873   1.166   0.269 -0.7282  0.2782  0.3500
  168SOL     OW  669   1.707   1.729   2.888  0.4103 -0.2772  0.6170
  168SOL    HW1  670   1.631   1.785   2.892 -0.3985  0.2787 -2.5115
  168SOL    HW2  671   1.689   1.661   2.943  2.6767  1.5283 -0.0681
  168SOL     MW  672   1.694   1.727   2.896  0.6026  0.0344  0.1139
  169SOL     OW  673   0.316   0.952   1.345  0.1616  0.0051 -0.2154
  169SOL    HW1  674   0.385   0.947   1.413  0.1157  0.6809  1.1430
  169SOL    HW2  675   0.307   1.039   1.311 -1.5084 -0.9364  1.0175
  169SOL     MW  676   0.324   0.963   1.350 -0.0648 -0.0300  0.1265
  170SOL     OW  677   1.068   1.477   1.473 -0.2683 -0.1761  0.6349
  170SOL    HW1  678   0.987   1.537   1.459 -0.8558 -0.9430  2.7851
  170SOL    HW2  679   1.108   1.485   1.385  0.3468  1.9808 -3.6004
  170SOL     MW  680   1.062   1.486   1.459 -0.2647  0.0073  0.3598
  171SOL     OW  681   0.598   1.372   0.688  0.0244 -0.1808 -0.1470
  171SOL    HW1  682   0.561   1.369   0.775  0.7061  1.4922 -3.2819
  171SOL    HW2  683   0.568   1.296   0.635 -0.3846  0.2825 -1.9200
  171SOL     MW  684   0.589   1.362   0.692  0.0604  0.1010 -0.7945
  172SOL     OW  685   0.857   0.313   1.229  0.1852  0.0176  0.1985
  172SOL    HW1  686   0.832   0.314   1.130 -2.2486 -1.3716 -1.2368
  172SOL    HW2  687   0.771   0.314   1.275 -1.6020 -0.4389  0.6753
  172SOL     MW  688   0.843   0.314   1.222 -0.3717 -0.2259  0.0720
  173SOL     OW  689   0.480   1.715   0.349  0.0027  0.3695  0.1824
  173SOL    HW1  690   0.487   1.614   0.332 -1.9112 -2.2290  0.3827
  173SOL    HW2  691   0.503   1.722   0.443  0.4973 -1.0432 -1.5682
  173SOL     MW  692   0.484   1.703   0.359 -0.1845 -0.1597 -0.0221
  174SOL     OW  693   2.005   0.925   1.445 -0.0541 -0.2279 -0.9011
  174SOL    HW1  694   1.922   0.891   1.490 -0.9940 -1.6869  1.3261
  174SOL    HW2  695   1.977   0.975   1.367  2.4973 -0.2010  1.4857
  174SOL     MW  696   1.990   0.927   1.440  0.1586 -0.4169 -0.2923
  175SOL     OW  697   0.468   1.460   0.308  0.1802 -0.7115 -0.4735
  175SOL    HW1  698   0.463   1.429   0.214  0.5072 -0.2332 -0.8191
  175SOL    HW2  699   0.548   1.426   0.340  1.1782 -1.1017 -1.8120
  175SOL     MW  700   0.478   1.451   0.300  0.3551 -0.6999 -0.6957
  176SOL     OW  701   0.253   1.256   1.235 -0.4743  0.1224  0.5891
  176SOL    HW1  702   0.201   1.255   1.158  2.1359 -0.1395  2.2218
  176SOL    HW2  703   0.196   1.206   1.301 -1.7721 -1.2075  2.7699
  176SOL     MW  704   0.239   1.249   1.234 -0.3012 -0.0876  1.0922
  177SOL     OW  705   0.612   0.360   1.341 -0.9679 -0.5955  0.1940
  177SOL    HW1  706   0.592   0.418   1.262  1.8511  0.9315  2.8785
  177SOL    HW2  707   0.590   0.417   1.421 -0.6388 -2.6096 -0.1159
  177SOL     MW  708   0.606   0.375   1.341 -0.5525 -0.6598  0.5073
  178SOL     OW  709   3.069   0.423   2.905 -0.0226  0.1672  0.1703
  178SOL    HW1  710   3.032   0.460   2.989  0.9497  1.7224 -1.2149
  178SOL    HW2  711   3.004   0.434   2.840  1.2843 -1.1503 -0.9307
  178SOL     MW  712   3.056   0.429   2.907  0.2781  0.1986 -0.1577
  179SOL     OW  713   1.644   1.294   1.474  0.0196 -0.0760 -0.7401
  179SOL    HW1  714   1.626   1.340   1.555 -1.1600  3.5226  0.0786
  179SOL    HW2  715   1.724   1.323   1.437  1.3502 -1.0862 -0.9227
  179SOL     MW  716   1.652   1.304   1.480  0.0395  0.2655 -0.6562
  180SOL     OW  717   2.984   0.179   0.442  0.1644 -0.4960  0.0653
  180SOL    HW1  718   2.974   0.205   0.346 -0.0147 -0.3026 -2.0747
  180SOL    HW2  719   3.035   0.257   0.482 -0.6454 -0.2541  1.0347
  180SOL     MW  720   2.989   0.193   0.435  0.0339 -0.4386 -0.0892
  181SOL     OW  721   1.132   1.459   3.027  0.6880 -0.1452 -0.4779
  181SOL    HW1  722   1.178   1.459   3.110  1.2658  3.2307 -0.7365
  181SOL    HW2  723   1.189   1.440   2.952  0.1854 -2.9453 -2.3598
  181SOL     MW  724   1.145   1.456   3.028  0.6979 -0.0692 -0.7603
  182SOL     OW  725   0.476   0.854   1.655  0.6752  0.6807  0.1666
  182SOL    HW1  726   0.384   0.834   1.685  0.1261 -0.3434 -0.7815
  182SOL    HW2  727   0.531   0.814   1.725  0.4121  1.9493  1.1610
  182SOL     MW  728   0.471   0.846   1.668  0.5680  0.7129  0.1727
  183SOL     OW  729   1.555   1.513   1.291 -0.4901 -0.1947  0.0217
  183SOL    HW1  730   1.488   1.568   1.341 -2.2836 -1.3567 -0.1260
  183SOL    HW2  731   1.586   1.449   1.355  2.8717 -2.0964 -0.8887
  183SOL     MW  732   1.550   1.512   1.306 -0.2832 -0.5989 -0.1179
  184SOL     OW  733   0.847   0.656   1.959 -0.0761  0.0529 -0.5955
  184SOL    HW1  734   0.909   0.635   1.893 -1.1435 -2.2697 -1.0067
  184SOL    HW2  735   0.837   0.571   1.997 -1.7964  3.9193 -3.5383
  184SOL     MW  736   0.854   0.642   1.955 -0.4439  0.2566 -1.0380
  185SOL     OW  737   1.135   0.946   1.974  1.5182 -0.0282  0.1603
  185SOL    HW1  738   1.152   0.858   2.001 -0.5396  0.9505  1.7134
  185SOL    HW2  739   1.204   1.005   1.996 -1.0450 -1.2089 -0.3833
  185SOL     MW  740   1.146   0.942   1.981  0.9085 -0.0548  0.2935
  186SOL     OW  741   0.400   1.677   1.405  0.1193  0.0371  0.3162
  186SOL    HW1  742   0.449   1.736   1.348  0.3629 -2.0984 -0.2464
  186SOL    HW2  743   0.339   1.630   1.350  2.4551 -2.1803  0.0420
  186SOL     MW  744   0.398   1.678   1.390  0.4596 -0.5372  0.2058
  187SOL     OW  745   1.491   0.714   1.450 -0.2586  0.5477  0.3965
  187SOL    HW1  746   1.491   0.758   1.539  0.0073 -0.0377  0.8745
  187SOL    HW2  747   1.396   0.716   1.421 -0.3953 -0.6710  0.7077
  187SOL     MW  748   1.478   0.720   1.458 -0.2416  0.3097  0.5006
  188SOL     OW  749   1.923   1.043   0.709 -0.1388  0.1395 -0.0516
  188SOL    HW1  750   1.931   0.952   0.743 -1.3522 -1.4698  1.1780
  188SOL    HW2  751   2.014   1.073   0.717 -1.9612 -3.3061  3.0722
  188SOL     MW  752   1.936   1.035   0.715 -0.5393 -0.5274  0.5228
  189SOL     OW  753   0.674   0.786   0.797  0.1180  0.8365  0.1853
  189SOL    HW1  754   0.606   0.836   0.758 -2.1435  1.8744  1.8518
  189SOL    HW2  755   0.725   0.840   0.855 -0.4886 -2.4498  0.4830
  189SOL     MW  756   0.672   0.800   0.800 -0.2604  0.5399  0.4445
  190SOL     OW  757   1.856   0.258   1.984 -0.1206 -0.0139  0.1823
  190SOL    HW1  758   1.864   0.160   1.992 -1.2285 -0.1664  0.5563
  190SOL    HW2  759   1.932   0.296   1.941 -0.3189 -4.2365  2.7441
  190SOL     MW  760   1.867   0.250   1.980 -0.2930 -0.5912  0.5696
  191SOL     OW  761   1.569   0.956   1.327 -1.0673  0.4614 -0.2497
  191SOL    HW1  762   1.508   1.028   1.343 -3.3023  0.5184  0.4583
  191SOL    HW2  763   1.542   0.874   1.367  0.5144  0.8697  0.1735
  191SOL     MW  764   1.557   0.954   1.334 -1.1535  0.5228 -0.1004
  192SOL     OW  765   0.719   1.976   2.812 -0.7244  0.3197 -0.1002
  192SOL    HW1  766   0.654   2.036   2.766 -0.4337 -2.4444 -0.2057
  192SOL    HW2  767   0.662   1.903   2.841  0.5013 -0.6678  0.6531
  192SOL     MW  768   0.703   1.975   2.810 -0.5243 -0.1753 -0.0147
  193SOL     OW  769   0.985   1.628   0.739 -0.4586  0.7889  0.4126
  193SOL    HW1  770   0.950   1.673   0.811  0.2026 -2.2602 -1.1218
  193SOL    HW2  771   0.935   1.545   0.733 -2.1395  0.1443  1.1092
  193SOL     MW  772   0.974   1.623   0.748 -0.5931  0.3015  0.3021
  194SOL     OW  773   0.468   1.310   0.933 -0.1259 -1.1382 -0.1328
  194SOL    HW1  774   0.457   1.212   0.930  1.6035 -1.1440 -3.2149
  194SOL    HW2  775   0.389   1.345   0.890 -2.6984  0.6353 -1.9254
  194SOL     MW  776   0.456   1.302   0.927 -0.2371 -0.9049 -0.7760
  195SOL     OW  777   1.282   1.127   2.996  0.0677 -0.6948 -0.1231
  195SOL    HW1  778   1.293   1.163   3.084  1.9546  0.6754  1.5833
  195SOL    HW2  779   1.204   1.071   2.998 -1.6471  1.1983 -0.2896
  195SOL     MW  780   1.273   1.124   3.008  0.0904 -0.2643  0.0801
  196SOL     OW  781   2.191   1.087   0.652  0.2013 -0.3322 -0.7222
  196SOL    HW1  782   2.151   1.042   0.578 -2.1724  0.4340  1.2536
  196SOL    HW2  783   2.160   1.173   0.634 -0.2348 -2.1403 -1.6850
  196SOL     MW  784   2.182   1.092   0.640 -0.1694 -0.4696 -0.5885
  197SOL     OW  785   0.593   1.254   2.003  0.0321  0.3735  0.3601
  197SOL    HW1  786   0.616   1.157   2.016 -1.5165  1.1673 -0.7047
  197SOL    HW2  787   0.554   1.269   1.920  1.8719  0.5334  3.4808
  197SOL     MW  788   0.591   1.243   1.994  0.0706  0.4993  0.6314
  198SOL     OW  789   2.925   1.438   1.000  0.5027  1.0377 -0.0784
  198SOL    HW1  790   2.920   1.533   0.973  0.2408  3.6957 -2.4782
  198SOL    HW2  791   2.850   1.386   0.958 -0.7916  0.7165  0.8255
  198SOL     MW  792   2.915   1.444   0.991  0.2974  1.3460 -0.2757
  199SOL     OW  793   0.493   1.292   1.756 -0.1467  0.0838  0.4374
  199SOL    HW1  794   0.398   1.291   1.771  2.5758  2.0799 -2.1999
  199SOL    HW2  795   0.505   1.377   1.707  0.2169  1.1489 -1.5554
  199SOL     MW  796   0.482   1.303   1.751  0.2605  0.4877 -0.1735
  200SOL     OW  797   1.903   0.013   1.356 -0.1419 -0.4532 -1.0666
  200SOL    HW1  798   1.899   0.002   1.262 -2.9599 -1.5304  1.8397
  200SOL    HW2  799   1.808  -0.004   1.379 -0.6697  3.2070 -0.4248
  200SOL     MW  800   1.890   0.009   1.347 -0.5834 -0.1124 -0.5984
  201SOL     OW  801   1.096   0.302   0.821 -0.2791 -0.2103 -0.0053
  201SOL    HW1  802   1.116   0.213   0.821  0.2150  2.1582 -2.7266
  201SOL    HW2  803   1.063   0.308   0.737  2.6266 -1.1558  2.6664
  201SOL     MW  804   1.095   0.291   0.810  0.1694 -0.0226 -0.0119
  202SOL     OW  805   1.543   1.659   1.028 -0.2805 -0.0811 -0.0434
  202SOL    HW1  806   1.568   1.583   0.968  2.3370  2.7298 -0.5561
  202SOL    HW2  807   1.566   1.631   1.118 -1.0414 -0.2273  1.2015
  202SOL     MW  808   1.550   1.645   1.032 -0.0355  0.2705  0.0532
  203SOL     OW  809   0.001   0.479   1.182  0.0492  0.3419 -0.0521
  203SOL    HW1  810   0.053   0.425   1.118  1.0506  1.0615  0.6267
  203SOL    HW2  811   0.067   0.524   1.239 -0.3593 -1.6422 -0.1551
  203SOL     MW  812   0.017   0.478   1.181  0.1274  0.1751  0.0239
  204SOL     OW  813   1.062   1.749   0.523 -0.0719  0.0573 -0.0193
  204SOL    HW1  814   1.046   1.686   0.596 -3.2623  2.4265  0.1600
  204SOL    HW2  815   0.980   1.758   0.472  1.1019  1.2089 -0.2484
  204SOL     MW  816   1.049   1.742   0.526 -0.3380  0.5218 -0.0259
  205SOL     OW  817   1.381   0.101   1.341 -0.8286  0.2672 -0.2570
  205SOL    HW1  818   1.315   0.106   1.277  1.9353 -0.9929 -1.0359
  205SOL    HW2  819   1.415   0.191   1.346  1.1053  0.8074 -0.8860
  205SOL     MW  820   1.377   0.113   1.333 -0.2088  0.1722 -0.4428
  206SOL     OW  821   0.439   3.079   1.415 -0.5598  0.4115 -0.1600
  206SOL    HW1  822   0.380   3.049   1.350  0.4660  1.0074  3.6160
  206SOL    HW2  823   0.496   3.004   1.420 -1.3501  0.5950 -1.5930
  206SOL     MW  824   0.439   3.065   1.407 -0.5288  0.5143  0.1491
  207SOL     OW  825   0.950   1.521   0.241 -0.3745 -0.7110 -0.5286
  207SOL    HW1  826   0.960   1.617   0.227 -2.0106  0.0884 -0.1669
  207SOL    HW2  827   1.039   1.499   0.286 -1.2386  0.3772  1.0662
  207SOL     MW  828   0.963   1.531   0.245 -0.7044 -0.4619 -0.2705
  208SOL     OW  829   0.685   1.575   1.221 -0.0435  0.4911  0.3235
  208SOL    HW1  830   0.736   1.589   1.296  0.8284  1.2661  1.2482
  208SOL    HW2  831   0.631   1.501   1.247  1.4176 -0.8484 -0.0925
  208SOL     MW  832   0.685   1.567   1.234  0.2643  0.4166  0.3907
  209SOL     OW  833   1.536   0.549   2.819  0.6301 -0.1579 -0.0944
  209SOL    HW1  834   1.582   0.619   2.858  0.9780 -1.5340  0.1778
  209SOL    HW2  835   1.588   0.475   2.830 -2.5080  2.2278 -0.3691
  209SOL     MW  836   1.549   0.549   2.826  0.2620 -0.0247 -0.0947
  210SOL     OW  837   1.602   1.452   0.870  0.2054  0.3864  0.0722
  210SOL    HW1  838   1.682   1.395   0.862  0.0564  0.4210  2.0175
  210SOL    HW2  839   1.546   1.435   0.794 -1.1083  1.8896 -1.8243
  210SOL     MW  840   1.605   1.442   0.859  0.0124  0.5893  0.0787
  211SOL     OW  841   1.729   0.473   0.933  0.1661 -0.2087 -0.1986
  211SOL    HW1  842   1.695   0.461   0.847  0.1422 -0.1858  2.3518
  211SOL    HW2  843   1.817   0.450   0.922  0.7661 -2.0349  0.6213
  211SOL     MW  844   1.736   0.468   0.920  0.2421 -0.4466  0.2461
  212SOL     OW  845   0.241   1.118   0.084 -0.5144  0.3365 -0.0187
  212SOL    HW1  846   0.222   1.104   0.179 -1.1726 -0.9757  0.6777
  212SOL    HW2  847   0.323   1.070   0.065  0.1124  1.6422 -0.3500
  212SOL     MW  848   0.250   1.110   0.094 -0.5186  0.3356  0.0294
  213SOL     OW  849   0.422   1.701   3.074 -0.8966  1.0153 -0.1236
  213SOL    HW1  850   0.477   1.758   3.127 -1.1105 -0.1350  0.1456
  213SOL    HW2  851   0.450   1.725   2.986  1.0391 -1.2226 -1.2142
  213SOL     MW  852   0.433   1.712   3.069 -0.6694  0.5683 -0.2320
  214SOL     OW  853   0.659   0.240   2.255  0.2183  0.2821 -0.1713
  214SOL    HW1  854   0.577   0.286   2.258 -0.9904  2.3183 -2.3470
  214SOL    HW2  855   0.706   0.294   2.189 -2.0625  0.0790  1.1335
  214SOL     MW  856   0.654   0.253   2.247 -0.2421  0.5240 -0.2862
  215SOL     OW  857   0.481   0.738   2.613  0.0607 -0.1831 -0.0595
  215SOL    HW1  858   0.471   0.695   2.524 -2.4893 -1.8181  2.0728
  215SOL    HW2  859   0.411   0.697   2.671 -0.8933 -0.2766  0.1199
  215SOL     MW  860   0.471   0.727   2.609 -0.4016 -0.4112  0.2455
  216SOL     OW  861   3.085   3.028   2.701 -0.3129 -0.0230 -0.6040
  216SOL    HW1  862   3.049   3.007   2.788 -0.0145  1.3332  1.0316
  216SOL    HW2  863   3.050   3.102   2.652  1.6379 -1.6676 -2.4536
  216SOL     MW  864   3.075   3.035   2.706 -0.0162 -0.0611 -0.6323
  217SOL     OW  865   0.952   1.249   0.026  0.2085  0.7014 -0.0909
  217SOL    HW1  866   0.983   1.159   0.010 -1.7427 -0.1464  1.0759
  217SOL    HW2  867   1.030   1.299  -0.009 -1.8583 -0.1617 -1.0431
  217SOL     MW  868   0.966   1.243   0.019 -0.3216  0.4757 -0.0626
  218SOL     OW  869   0.932   1.295   2.552  0.4863  0.1887  0.5026
  218SOL    HW1  870   0.930   1.203   2.586  1.0353 -0.9998  0.7574
  218SOL    HW2  871   1.011   1.345   2.550 -1.7611 -1.5058 -1.1927
  218SOL     MW  872   0.942   1.290   2.556  0.2622 -0.1917  0.3125
  219SOL     OW  873   1.044   0.447   2.521  0.3065 -0.0414  0.0584
  219SOL    HW1  874   1.113   0.466   2.459 -0.7528  0.2301  0.4292
  219SOL    HW2  875   0.996   0.528   2.518 -0.8642  1.5054 -0.5711
  219SOL     MW  876   1.047   0.460   2.512  0.0123  0.1985  0.0243
  220SOL     OW  877   1.754   0.455   2.175  0.5981 -0.8024 -0.6872
  220SOL    HW1  878   1.687   0.522   2.148  0.6846  1.5175  1.8319
  220SOL    HW2  879   1.772   0.393   2.108  0.3152  0.2934  0.7159
  220SOL     MW  880   1.748   0.456   2.163  0.5721 -0.3517 -0.1697
  221SOL     OW  881   0.395   1.330   2.895 -0.3733 -0.4695  0.2523
  221SOL    HW1  882   0.405   1.235   2.890  0.0059 -2.6037 -0.6770
  221SOL    HW2  883   0.386   1.375   2.808  1.1663 -0.5139  0.1810
  221SOL     MW  884   0.395   1.323   2.883 -0.1202 -0.7570  0.1203
  222SOL     OW  885   0.306   0.939   2.640 -0.5663 -0.7796 -0.0359
  222SOL    HW1  886   0.256   0.963   2.569  1.4943 -1.4304 -0.1232
  222SOL    HW2  887   0.371   0.875   2.610 -1.7543  0.5928  2.4250
  222SOL     MW  888   0.308   0.934   2.626 -0.4511 -0.6844  0.2773
  223SOL     OW  889   3.093   2.001   2.601  0.3853  0.6466 -0.3217
  223SOL    HW1  890   3.164   1.950   2.653  3.0356 -3.6730  3.2062
  223SOL    HW2  891   3.142   2.061   2.552 -0.0485  0.7771  2.4353
  223SOL     MW  892   3.108   2.002   2.601  0.6777  0.0939  0.5075
  224SOL     OW  893   1.462   0.835   2.585  0.0981  0.0208 -0.2202
  224SOL    HW1  894   1.418   0.871   2.665 -0.6797 -0.3052  1.0012
  224SOL    HW2  895   1.493   0.918   2.546  2.3954  2.0888  1.0050
  224SOL     MW  896   1.460   0.851   2.591  0.2986  0.2506  0.1026
  225SOL     OW  897   2.977   1.492   2.257  0.4952  0.4874  0.3771
  225SOL    HW1  898   2.991   1.552   2.184 -0.3843 -2.6989 -0.5762
  225SOL    HW2  899   2.942   1.548   2.325  0.0933  1.3866 -2.4099
  225SOL     MW  900   2.974   1.507   2.257  0.3261  0.1857 -0.1164
  226SOL     OW  901   0.393   1.441   2.625  0.3500  0.1688 -0.6159
  226SOL    HW1  902   0.488   1.444   2.619 -0.7463 -3.1546  1.2224
  226SOL    HW2  903   0.363   1.533   2.613 -2.0662  1.0739  2.2026
  226SOL     MW  904   0.402   1.454   2.622 -0.1134 -0.1503 -0.0015
  227SOL     OW  905   0.443   1.079   2.832 -0.1953 -0.0155  0.2872
  227SOL    HW1  906   0.524   1.111   2.797 -3.1490 -2.9000  1.2525
  227SOL    HW2  907   0.404   1.021   2.759 -0.1024 -2.8677 -0.2515
  227SOL     MW  908   0.448   1.076   2.818 -0.5728 -0.7724  0.3435
  228SOL     OW  909   0.679   0.978   2.016 -0.4778 -0.6085  0.0148
  228SOL    HW1  910   0.765   1.017   2.003 -1.4257 -0.2853 -0.9297
  228SOL    HW2  911   0.680   0.942   2.112 -0.9300  0.9914 -0.7928
  228SOL     MW  912   0.690   0.978   2.027 -0.6625 -0.3548 -0.2164
  229SOL     OW  913   0.188   0.527   3.088 -0.5377  0.0640  0.1517
  229SOL    HW1  914   0.099   0.551   3.072  0.5762 -1.9130  0.7602
  229SOL    HW2  915   0.190   0.470   3.162  1.2757  1.4182 -2.9620
  229SOL     MW  916   0.176   0.523   3.096 -0.1515 -0.0182 -0.1788
  230SOL     OW  917   1.773   1.373   2.052 -0.0176 -0.1950 -0.3081
  230SOL    HW1  918   1.739   1.371   2.147 -0.8681  1.3518  1.6266
  230SOL    HW2  919   1.821   1.296   2.029 -0.2246  0.0347 -2.4191
  230SOL     MW  920   1.775   1.362   2.061 -0.1571  0.0394 -0.3313
  231SOL     OW  921   2.751   1.307   2.188  0.2010  0.4120  0.4015
  231SOL    HW1  922   2.826   1.373   2.186  1.7345 -1.2696  0.2118
  231SOL    HW2  923   2.678   1.326   2.129 -0.1983 -2.2223  2.5459
  231SOL     MW  924   2.751   1.318   2.180  0.3506 -0.1575  0.6594
  232SOL     OW  925   2.275   0.870   2.115 -0.7355 -0.1526  0.1660
  232SOL    HW1  926   2.210   0.906   2.052  0.5855  1.9231 -1.6786
  232SOL    HW2  927   2.244   0.871   2.208  1.4201 -1.4303  0.2375
  232SOL     MW  928   2.262   0.875   2.119 -0.2768 -0.0473 -0.0680
  233SOL     OW  929   2.052   0.534   1.933  0.0910 -0.2894 -0.0186
  233SOL    HW1  930   2.102   0.590   1.867 -2.8133 -0.7477 -0.5836
  233SOL    HW2  931   2.117   0.528   2.005 -2.0365 -0.5530  1.3257
  233SOL     MW  932   2.067   0.541   1.934 -0.5729 -0.3846  0.0842
  234SOL     OW  933   0.264   1.010   2.327 -0.0247  0.4906  0.6634
  234SOL    HW1  934   0.173   1.035   2.356  0.3330  0.5158 -0.3463
  234SOL    HW2  935   0.311   1.075   2.375 -1.8204  2.2581 -2.4594
  234SOL     MW  936   0.258   1.022   2.337 -0.2144  0.7271  0.1181
  235SOL     OW  937   1.061   3.058   2.757  0.5750  0.2531 -0.3316
  235SOL    HW1  938   1.096   2.982   2.804 -1.9272  0.1814 -0.8661
  235SOL    HW2  939   1.048   3.132   2.823  0.4035  0.2372 -1.1752
  235SOL     MW  940   1.064   3.058   2.772  0.2223  0.2415 -0.5134
  236SOL     OW  941   2.934   0.542   0.031  0.3451  0.2518 -0.0723
  236SOL    HW1  942   2.846   0.535  -0.017 -0.3529  0.9235 -1.6689
  236SOL    HW2  943   2.961   0.632   0.050 -1.6236  1.2040  1.0964
  236SOL     MW  944   2.926   0.552   0.027 -0.0068  0.4661 -0.1288
  237SOL     OW  945   1.754   0.922   2.153 -0.0351  0.7192 -0.2706
  237SOL    HW1  946   1.808   0.983   2.100  0.6815  1.2995 -0.3093
  237SOL    HW2  947   1.779   0.917   2.242  0.9639  2.7770 -1.6699
  237SOL     MW  948   1.764   0.929   2.157  0.1912  1.0672 -0.4603
  238SOL     OW  949   1.066   1.738   2.961  0.1982  0.2226  0.3444
  238SOL    HW1  950   1.059   1.640   2.968 -1.7533 -0.4342 -1.2644
  238SOL    HW2  951   1.163   1.749   2.961  0.4074 -2.6072 -0.2829
  238SOL     MW  952   1.078   1.726   2.962 -0.0317 -0.2374  0.0494
  239SOL     OW  953   1.178   1.439   2.318  0.8194  0.5071 -0.2320
  239SOL    HW1  954   1.191   1.425   2.414 -1.5318  1.6715 -1.1362
  239SOL    HW2  955   1.112   1.375   2.307  0.1374  0.9408  0.5894
  239SOL     MW  956   1.171   1.428   2.329  0.4192  0.7180 -0.2429
  240SOL     OW  957   0.625   0.877   2.251 -0.0556  0.0854 -0.2315
  240SOL    HW1  958   0.602   0.937   2.323  1.8931  1.9178  2.2212
  240SOL    HW2  959   0.713   0.850   2.284  1.3185  0.1140  2.2222
  240SOL     MW  960   0.634   0.881   2.265  0.3828  0.3309  0.4159
  241SOL     OW  961   0.632   0.334   3.024 -0.3377 -0.0512  0.7485
  241SOL    HW1  962   0.659   0.410   3.080  2.2309  0.2830  1.1627
  241SOL    HW2  963   0.554   0.363   2.974 -0.9812 -1.6223  0.5171
  241SOL     MW  964   0.625   0.348   3.025 -0.0837 -0.2144  0.7726
  242SOL     OW  965   1.494   1.771   2.296 -0.0114  0.1417 -0.4617
  242SOL    HW1  966   1.433   1.822   2.347 -1.5753  1.8892 -1.5837
  242SOL    HW2  967   1.437   1.712   2.247  0.5015 -1.0505 -1.6287
  242SOL     MW  968   1.479   1.770   2.297 -0.1501  0.2150 -0.7637
  243SOL     OW  969   0.944   0.210   2.333 -0.0203  0.2194  0.1497
  243SOL    HW1  970   1.038   0.222   2.342  2.7006 -0.0999 -0.4880
  243SOL    HW2  971   0.907   0.267   2.405 -2.7678 -0.6193  4.3220
  243SOL     MW  972   0.952   0.219   2.344 -0.0238  0.0666  0.6160
  244SOL     OW  973   0.216   0.719   2.315  0.2269 -0.2009  0.4153
  244SOL    HW1  974   0.203   0.805   2.293  0.8609 -2.4479 -1.2943
  244SOL    HW2  975   0.303   0.702   2.277 -1.7510 -2.5629  0.0156
  244SOL     MW  976   0.226   0.728   2.307  0.0496 -0.8090  0.1370
  245SOL     OW  977   1.230   0.241   2.346  0.4871  0.0111  0.1323
  245SOL    HW1  978   1.284   0.161   2.342  0.6335  1.3376  0.2873
  245SOL    HW2  979   1.259   0.286   2.427  0.7432  0.0442  0.5284
  245SOL     MW  980   1.241   0.236   2.357  0.5402  0.1905  0.2050
  246SOL     OW  981   1.262   1.174   2.088  0.2911  0.4434 -0.4899
  246SOL    HW1  982   1.196   1.128   2.140 -0.0477 -0.0585  1.5311
  246SOL    HW2  983   1.346   1.164   2.134 -2.4166 -1.4211 -0.0985
  246SOL     MW  984   1.265   1.166   2.101 -0.1109  0.1311 -0.1716
  247SOL     OW  985   0.693   0.495   0.120 -0.6655 -0.2536  0.7319
  247SOL    HW1  986   0.664   0.588   0.122  2.9760  2.1727  0.6873
  247SOL    HW2  987   0.791   0.498   0.109 -0.4851  0.1351 -0.8754
  247SOL     MW  988   0.702   0.508   0.119 -0.1612  0.1178  0.5140
  248SOL     OW  989   0.442   1.184   2.489  0.4711 -0.0152 -0.0553
  248SOL    HW1  990   0.453   1.230   2.402 -2.7468  1.4327 -3.2459
  248SOL    HW2  991   0.406   1.249   2.550  2.3965  0.6226 -3.0653
  248SOL     MW  992   0.439   1.199   2.485  0.3006  0.2600 -0.8734
  249SOL     OW  993   0.189   1.851   2.711  0.1661  0.0969  0.2837
  249SOL    HW1  994   0.159   1.762   2.687 -0.5318 -1.0680  0.7681
  249SOL    HW2  995   0.196   1.842   2.808  1.5095  3.4579  0.5061
  249SOL     MW  996   0.186   1.838   2.721  0.2512  0.3867  0.3770
  250SOL     OW  997   2.146   0.862   2.374 -0.5622 -0.0301  0.0672
  250SOL    HW1  998   2.197   0.786   2.381  2.0854 -1.2849  1.9322
  250SOL    HW2  999   2.206   0.915   2.430 -2.0722 -0.2352 -0.0803
  250SOL     MW 1000   2.160   0.859   2.382 -0.4121 -0.2227  0.2938
  251SOL     OW 1001   0.218   0.795   2.039  0.3641  0.3112  0.8282
  251SOL    HW1 1002   0.195   0.706   2.075  1.0891  0.8958 -0.3161
  251SOL    HW2 1003   0.210   0.777   1.942 -0.1561 -0.3639 -0.6247
  251SOL     MW 1004   0.214   0.781   2.031  0.3911  0.2992  0.4855
  252SOL     OW 1005   1.695   0.995   2.850 -0.4102  0.1311  0.6605
  252SOL    HW1 1006   1.711   1.047   2.933  1.4866  0.0524 -0.4207
  252SOL    HW2 1007   1.751   1.027   2.776  0.8054 -0.7994 -1.3365
  252SOL     MW 1008   1.705   1.006   2.851  0.0004 -0.0020  0.2544
  253SOL     OW 1009   1.156   1.734   2.526 -0.3463  0.2845  0.0052
  253SOL    HW1 1010   1.149   1.747   2.425  0.8441 -2.1675 -0.7719
  253SOL    HW2 1011   1.067   1.760   2.564  0.6206 -0.5728 -1.3808
  253SOL     MW 1012   1.143   1.739   2.518 -0.0616 -0.1521 -0.2802
  254SOL     OW 1013   1.046   1.085   2.225 -0.7484 -0.0773 -0.0632
  254SOL    HW1 1014   1.018   0.999   2.238 -0.7132  1.0150  0.9168
  254SOL    HW2 1015   0.967   1.137   2.219 -0.8872  2.0955  1.2520
  254SOL     MW 1016   1.032   1.080   2.226 -0.7620  0.3535  0.2397
  255SOL     OW 1017   0.839   2.428   2.201  0.2365  0.0270 -0.3839
  255SOL    HW1 1018   0.757   2.395   2.176  0.4231 -2.9369  0.9344
  255SOL    HW2 1019   0.838   2.429   2.299 -1.5045 -0.3866 -1.5061
  255SOL     MW 1020   0.828   2.424   2.210  0.0314 -0.4186 -0.3580
  256SOL     OW 1021   1.158   2.820   2.875  0.4412  0.2278  0.0183
  256SOL    HW1 1022   1.148   2.727   2.902 -2.3996 -1.3753  0.3978
  256SOL    HW2 1023   1.257   2.844   2.864  2.6013  1.6309  0.7085
  256SOL     MW 1024   1.170   2.811   2.877  0.3514  0.2014  0.1594
  257SOL     OW 1025   0.162   1.898   0.090  0.5133  0.3796 -0.2123
  257SOL    HW1 1026   0.173   1.839   0.163  1.2086  1.9160 -2.6177
  257SOL    HW2 1027   0.150   1.843   0.009 -0.0957 -0.3451  3.0116
  257SOL     MW 1028   0.162   1.883   0.089  0.5247  0.4867 -0.1043
  258SOL     OW 1029   0.710   1.082   2.487  0.0989 -0.8338  0.1871
  258SOL    HW1 1030   0.762   1.138   2.425  0.0072  3.0539 -1.3855
  258SOL    HW2 1031   0.633   1.143   2.506  2.1569 -0.3191 -1.2511
  258SOL     MW 1032   0.707   1.097   2.481  0.3583 -0.2530 -0.2102
  259SOL     OW 1033   0.725   0.504   2.386  1.0471  0.2603  0.0183
  259SOL    HW1 1034   0.647   0.556   2.410  0.2406 -2.5057 -1.7523
  259SOL    HW2 1035   0.685   0.423   2.351 -2.7949  1.8354 -1.2755
  259SOL     MW 1036   0.709   0.500   2.384  0.4338  0.1031 -0.3860
  260SOL     OW 1037   0.603   0.119   1.577  0.2343 -0.0715 -0.7298
  260SOL    HW1 1038   0.547   0.091   1.504 -0.8545  0.6753  1.7014
  260SOL    HW2 1039   0.696   0.119   1.545  0.8247 -2.7631 -0.1993
  260SOL     MW 1040   0.608   0.115   1.563  0.1685 -0.3281 -0.3391
  261SOL     OW 1041   1.179   0.684   2.079  0.2348 -0.3261 -0.1540
  261SOL    HW1 1042   1.189   0.680   2.173  2.4543 -0.6175 -0.2814
  261SOL    HW2 1043   1.245   0.618   2.050  3.1564  0.6338  0.6780
  261SOL     MW 1044   1.189   0.675   2.088  0.9131 -0.2379 -0.0611
  262SOL     OW 1045   1.150   0.317   0.092  0.4181 -0.0994  0.3666
  262SOL    HW1 1046   1.243   0.293   0.096  1.3790 -2.8733 -0.8585
  262SOL    HW2 1047   1.094   0.241   0.098 -0.1137  3.0166 -0.8476
  262SOL     MW 1048   1.155   0.304   0.093  0.4747 -0.0542  0.0448
  263SOL     OW 1049   0.464   3.034   2.510 -0.0619  0.2194 -0.7293
  263SOL    HW1 1050   0.381   3.083   2.506 -0.5819  1.6585  1.0368
  263SOL    HW2 1051   0.514   3.058   2.430  1.3401  0.8281 -1.7421
  263SOL     MW 1052   0.460   3.043   2.499  0.0544  0.4896 -0.6299
  264SOL     OW 1053   1.540   1.310   1.910  0.0543 -0.5185 -0.2094
  264SOL    HW1 1054   1.478   1.278   1.978  0.0479 -2.0499 -0.4459
  264SOL    HW2 1055   1.604   1.352   1.969 -0.6900 -3.0604  0.8164
  264SOL     MW 1056   1.540   1.311   1.927 -0.0448 -1.0559 -0.1052
  265SOL     OW 1057   0.666   2.659   2.268 -0.4909  0.7066 -0.1080
  265SOL    HW1 1058   0.732   2.591   2.243 -0.5642  2.1142  0.1557
  265SOL    HW2 1059   0.686   2.692   2.350  1.3900 -3.3587 -0.3195
  265SOL     MW 1060   0.677   2.655   2.275 -0.2524  0.3559 -0.1011
  266SOL     OW 1061   0.898   0.799   2.207  0.1858  0.0598 -0.2887
  266SOL    HW1 1062   0.893   0.750   2.123  1.9722  1.2314  1.6211
  266SOL    HW2 1063   0.972   0.753   2.248  3.4746  1.3444  1.8462
  266SOL     MW 1064   0.907   0.786   2.202  0.8554  0.3839  0.2450
  267SOL     OW 1065   1.385   1.735   2.688 -0.0266 -0.5799  0.2420
  267SOL    HW1 1066   1.441   1.682   2.626  1.6637  0.0669 -2.9110
  267SOL    HW2 1067   1.305   1.737   2.631 -2.3568 -1.0973  1.1857
  267SOL     MW 1068   1.382   1.729   2.672 -0.1111 -0.5628 -0.0495
  268SOL     OW 1069   0.231   0.747   1.758  0.4844 -0.3920  0.5519
  268SOL    HW1 1070   0.157   0.794   1.721 -1.1332 -1.9378 -1.9813
  268SOL    HW2 1071   0.262   0.676   1.694 -1.2587  2.4184 -0.2840
  268SOL     MW 1072   0.225   0.744   1.745  0.0410 -0.2251  0.1074
  269SOL     OW 1073   1.357   1.941   2.462  0.1747 -0.8462 -0.1196
  269SOL    HW1 1074   1.403   2.013   2.510 -0.1682  1.3667 -1.9292
  269SOL    HW2 1075   1.260   1.952   2.480 -4.5691 -0.6348 -0.8895
  269SOL     MW 1076   1.350   1.952   2.470 -0.4964 -0.5263 -0.4600
  270SOL     OW 1077   1.170   0.390   1.600  0.1960 -0.2519 -0.0149
  270SOL    HW1 1078   1.151   0.302   1.628 -2.3954  0.6434 -0.1384
  270SOL    HW2 1079   1.262   0.396   1.589 -2.0148 -1.1636  3.1066
  270SOL     MW 1080   1.180   0.379   1.602 -0.4376 -0.2541  0.3807
  271SOL     OW 1081   0.825   3.026   2.394 -0.1010 -0.1227 -0.3681
  271SOL    HW1 1082   0.879   2.968   2.448  1.6629 -1.6410  0.5862
  271SOL    HW2 1083   0.883   3.100   2.374 -0.5656  1.3090 -2.5792
  271SOL     MW 1084   0.840   3.028   2.399  0.0705 -0.1341 -0.5339
  272SOL     OW 1085   1.408   2.885   2.820  0.6638 -0.9180 -0.1586
  272SOL    HW1 1086   1.367   2.925   2.746 -2.7563 -1.9148 -2.3361
  272SOL    HW2 1087   1.428   2.960   2.879  0.0358  1.2455 -0.4616
  272SOL     MW 1088   1.405   2.900   2.818  0.1297 -0.7640 -0.4859
  273SOL     OW 1089   1.442   0.915   2.862 -0.1071 -0.7559 -0.0765
  273SOL    HW1 1090   1.528   0.944   2.855 -0.6233 -0.5942  0.6354
  273SOL    HW2 1091   1.396   0.987   2.900  1.6445  1.1650  0.0360
  273SOL     MW 1092   1.447   0.928   2.866  0.0559 -0.4811  0.0323
  274SOL     OW 1093   1.351   0.750   0.214 -0.1840  0.2252  0.5746
  274SOL    HW1 1094   1.413   0.680   0.213  0.1198  0.0658  0.0099
  274SOL    HW2 1095   1.272   0.711   0.252 -2.2621  0.7532 -1.5971
  274SOL     MW 1096   1.349   0.735   0.219 -0.4181  0.2738  0.2135
  275SOL     OW 1097   1.693   0.653   1.831 -0.2535 -0.2987 -0.3824
  275SOL    HW1 1098   1.774   0.662   1.886 -1.2884 -0.5397 -0.7464
  275SOL    HW2 1099   1.681   0.557   1.839 -2.7943  0.6848  0.6539
  275SOL     MW 1100   1.702   0.642   1.840 -0.7253 -0.2008 -0.2937
  276SOL     OW 1101   0.235   1.241   1.798 -0.5038  0.4031 -0.3328
  276SOL    HW1 1102   0.277   1.160   1.834 -2.9174  1.0838  2.4866
  276SOL    HW2 1103   0.165   1.251   1.865 -0.6680  1.9126  1.1716
  276SOL     MW 1104   0.231   1.231   1.812 -0.8439  0.6921  0.2377
  277SOL     OW 1105   1.942   1.342   2.610 -0.1037  0.1706 -0.4317
  277SOL    HW1 1106   2.024   1.385   2.602 -2.1414 -0.7127  0.6572
  277SOL    HW2 1107   1.960   1.252   2.620  3.1791  0.4859  0.8188
  277SOL     MW 1108   1.955   1.336   2.610  0.0606  0.0956 -0.1230
  278SOL     OW 1109   1.455   0.730   1.747 -0.0257 -0.3541  0.0923
  278SOL    HW1 1110   1.417   0.648   1.779  0.6966  0.2091  1.6929
  278SOL    HW2 1111   1.545   0.713   1.779  0.2263  3.0367 -0.4395
  278SOL     MW 1112   1.462   0.717   1.756  0.1028  0.1676  0.2333
  279SOL     OW 1113   0.529   3.096   2.228  0.0401 -0.0898  0.3075
  279SOL    HW1 1114   0.606   3.044   2.195 -0.5676 -2.8373 -1.6346
  279SOL    HW2 1115   0.566   3.185   2.233 -1.1405  0.9074  2.0641
  279SOL     MW 1116   0.544   3.101   2.224 -0.1958 -0.3207  0.2830
  280SOL     OW 1117   1.508   1.133   2.233  0.4962 -0.1056  0.1921
  280SOL    HW1 1118   1.525   1.055   2.182 -0.0848 -0.8737 -0.5609
  280SOL    HW2 1119   1.518   1.106   2.330  0.3165 -2.7700  3.7970
  280SOL     MW 1120   1.512   1.119   2.239  0.3959 -0.5585  0.5684
  281SOL     OW 1121   1.292   1.339   2.817 -0.1004 -0.1919 -0.1366
  281SOL    HW1 1122   1.384   1.374   2.817 -0.8162  1.5923  0.7486
  281SOL    HW2 1123   1.283   1.271   2.889 -1.6807 -0.4450  1.3035
  281SOL     MW 1124   1.303   1.335   2.826 -0.4034  0.0101  0.1702
  282SOL     OW 1125   1.137   1.292   1.697 -0.0170 -0.2022  0.2777
  282SOL    HW1 1126   1.120   1.363   1.629  1.3138  0.5059  2.9465
  282SOL    HW2 1127   1.074   1.224   1.679  0.3764  0.3508 -0.8878
  282SOL     MW 1128   1.126   1.293   1.686  0.2105 -0.0358  0.4760
  283SOL     OW 1129   0.684   1.272   3.083 -0.2035 -0.5297  0.5735
  283SOL    HW1 1130   0.776   1.288   3.094  0.0728  0.9044  3.2483
  283SOL    HW2 1131   0.649   1.351   3.120  1.4896 -3.3622  0.0294
  283SOL     MW 1132   0.691   1.285   3.089  0.0563 -0.7142  0.8546
  284SOL     OW 1133   0.494   0.670   2.335  0.3670  0.4169 -0.8756
  284SOL    HW1 1134   0.542   0.743   2.293  2.3851 -0.7788  1.9443
  284SOL    HW2 1135   0.484   0.595   2.269 -1.6715 -1.0876  2.4051
  284SOL     MW 1136   0.499   0.669   2.321  0.3643  0.0606 -0.0707
  285SOL     OW 1137   0.821   0.966   2.847 -0.8218 -0.9553 -0.2689
  285SOL    HW1 1138   0.885   0.986   2.776 -0.3767 -0.9854 -1.8943
  285SOL    HW2 1139   0.803   0.879   2.821  2.7342  1.7108 -3.2511
  285SOL     MW 1140   0.827   0.957   2.834 -0.2939 -0.6075 -0.8768
  286SOL     OW 1141   1.137   1.467   2.598 -0.4776  0.0079  0.5025
  286SOL    HW1 1142   1.176   1.440   2.679 -1.2334 -1.6806  2.1441
  286SOL    HW2 1143   1.153   1.566   2.590  1.5587 -0.4806 -0.3006
  286SOL     MW 1144   1.144   1.476   2.607 -0.3086 -0.2793  0.6131
  287SOL     OW 1145   1.011   0.919   0.341 -0.2999 -0.3123 -0.2897
  287SOL    HW1 1146   1.080   0.950   0.402 -2.4136 -0.8494  0.3675
  287SOL    HW2 1147   0.971   0.999   0.301 -0.8753 -1.4744  2.7028
  287SOL     MW 1148   1.014   0.934   0.344 -0.6547 -0.5365  0.1918
  288SOL     OW 1149   1.547   0.627   2.094 -0.0041 -0.2572  0.2059
  288SOL    HW1 1150   1.513   0.646   2.186  0.3564  1.4539 -1.5044
  288SOL    HW2 1151   1.552   0.713   2.045 -0.2667 -0.1327  1.0148
  288SOL     MW 1152   1.543   0.641   2.100  0.0088 -0.0150  0.0870
  289SOL     OW 1153   0.947   1.028   2.619 -0.2392  0.2653 -0.0278
  289SOL    HW1 1154   1.025   0.964   2.598 -1.9646  2.7642  0.9773
  289SOL    HW2 1155   0.877   1.015   2.551 -0.4806  0.0455 -0.7514
  289SOL     MW 1156   0.948   1.018   2.607 -0.4987  0.5660  0.0093
  290SOL     OW 1157   0.849   0.569   1.507  0.2290 -0.2291  0.4133
  290SOL    HW1 1158   0.895   0.542   1.429 -1.3688 -0.1773  0.2224
  290SOL    HW2 1159   0.901   0.568   1.586  0.0694  0.6239  0.5745
  290SOL     MW 1160   0.862   0.565   1.507 -0.0029 -0.1097  0.4094
  291SOL     OW 1161   0.148   0.327   0.205 -0.1293  0.2907 -1.1330
  291SOL    HW1 1162   0.242   0.288   0.223  0.9592 -2.6072 -0.5827
  291SOL    HW2 1163   0.104   0.261   0.150  0.6411  0.7307  0.8889
  291SOL     MW 1164   0.155   0.313   0.200  0.1160 -0.0336 -0.7936
  292SOL     OW 1165   0.979   0.530   0.065  0.2330 -0.1428 -0.4392
  292SOL    HW1 1166   1.025   0.566   0.138 -0.5134 -0.2115 -0.5593
  292SOL    HW2 1167   1.027   0.450   0.049 -1.3500 -0.9038  0.7103
  292SOL     MW 1168   0.992   0.524   0.072 -0.0744 -0.2523 -0.3034
  293SOL     OW 1169   0.214   0.088   2.475 -0.2629 -0.0792 -0.4393
  293SOL    HW1 1170   0.145   0.074   2.408 -3.5018  0.9171  1.2392
  293SOL    HW2 1171   0.181   0.144   2.541  0.1344 -0.0703  0.2597
  293SOL     MW 1172   0.201   0.093   2.475 -0.6378  0.0534 -0.1256
  294SOL     OW 1173   1.494   0.669   2.370  0.0919 -0.4071 -0.8965
  294SOL    HW1 1174   1.478   0.728   2.450 -3.1894  1.7936  3.4698
  294SOL    HW2 1175   1.505   0.579   2.405  0.9497  0.9926 -0.1929
  294SOL     MW 1176   1.493   0.665   2.385 -0.2278  0.0679 -0.2276
  295SOL     OW 1177   0.904   0.703   2.505  0.2273  0.3306  0.0804
  295SOL    HW1 1178   0.844   0.649   2.453 -0.2315 -3.3577 -2.9173
  295SOL    HW2 1179   0.842   0.738   2.572  0.5452  0.0943  1.1699
  295SOL     MW 1180   0.888   0.700   2.507  0.2087 -0.1872 -0.1713
  296SOL     OW 1181   1.274   0.269   2.075 -1.0485 -0.1721 -0.6353
  296SOL    HW1 1182   1.358   0.213   2.062 -0.6204  2.2554 -1.7714
  296SOL    HW2 1183   1.262   0.269   2.175 -0.0043  0.0511  1.2298
  296SOL     MW 1184   1.283   0.262   2.087 -0.8542  0.1776 -0.5391
  297SOL     OW 1185   1.445   0.425   1.545  1.0353 -0.4174  0.2299
  297SOL    HW1 1186   1.498   0.504   1.554 -0.4292  1.6267 -1.9474
  297SOL    HW2 1187   1.501   0.352   1.576 -0.4202 -0.5788  0.8364
  297SOL     MW 1188   1.460   0.426   1.550  0.6501 -0.1690  0.0226
  298SOL     OW 1189   1.511   0.928   2.065  0.4936 -0.2126  0.2252
  298SOL    HW1 1190   1.509   0.974   1.982 -1.0304  0.5463  1.0268
  298SOL    HW2 1191   1.603   0.945   2.097  1.7095  0.5448 -0.5702
  298SOL     MW 1192   1.523   0.936   2.058  0.4529 -0.0125  0.2260
  299SOL     OW 1193   0.505   1.077   3.086  0.2154 -0.3136 -0.4728
  299SOL    HW1 1194   0.576   1.142   3.078  1.9350 -0.4235 -2.7922
  299SOL    HW2 1195   0.477   1.082   2.996  0.6359 -1.5072  2.0461
  299SOL     MW 1196   0.511   1.086   3.073  0.4978 -0.4856 -0.4465
  300SOL     OW 1197   1.267   1.162   2.506  0.1334  0.3622 -0.0243
  300SOL    HW1 1198   1.188   1.103   2.507 -0.5251 -3.2150 -0.7030
  300SOL    HW2 1199   1.249   1.239   2.554  0.4125  1.1379 -0.5219
  300SOL     MW 1200   1.254   1.165   2.513  0.0834 -0.0074 -0.1795
  301SOL     OW 1201   1.349   0.801   0.574 -0.3480  0.5000  0.0129
  301SOL    HW1 1202   1.414   0.781   0.640 -0.7948  1.2893  0.1667
  301SOL    HW2 1203   1.280   0.775   0.631  2.1799 -0.2978  0.8018
  301SOL     MW 1204   1.349   0.795   0.590 -0.0734  0.4989  0.1373
  302SOL     OW 1205   0.106   1.469   1.993 -0.2813 -0.5280  0.2294
  302SOL    HW1 1206   0.126   1.401   2.058  0.6217  0.0073  0.9911
  302SOL    HW2 1207   0.069   1.542   2.036  1.1236 -0.0338 -0.0395
  302SOL     MW 1208   0.104   1.469   2.007  0.0232 -0.3921  0.2945
  303SOL     OW 1209   0.405   1.734   2.560  0.1350 -0.4611  0.1296
  303SOL    HW1 1210   0.475   1.784   2.519  0.7422 -0.5684  0.5502
  303SOL    HW2 1211   0.335   1.791   2.563 -0.0896 -2.5746 -0.4729
  303SOL     MW 1212   0.405   1.748   2.555  0.1855 -0.7541  0.1056
  304SOL     OW 1213   0.630   2.084   2.405  0.2849 -0.4238 -0.2277
  304SOL    HW1 1214   0.664   2.165   2.368  1.1926  0.1890  0.0170
  304SOL    HW2 1215   0.691   2.011   2.389  2.6486 -0.9575 -4.1861
  304SOL     MW 1216   0.642   2.085   2.398  0.7165 -0.4134 -0.7176
  305SOL     OW 1217   1.091   0.554   0.557 -0.3555  0.5427  0.9291
  305SOL    HW1 1218   1.001   0.553   0.519 -3.3364  2.5973 -1.2907
  305SOL    HW2 1219   1.122   0.463   0.561  1.0037  0.7032 -2.1115
  305SOL     MW 1220   1.083   0.542   0.553 -0.5695  0.8349  0.2351
  306SOL     OW 1221   1.204   1.471   0.345  0.4685  0.2217  0.1649
  306SOL    HW1 1222   1.236   1.382   0.362  0.3766  2.0284  0.6975
  306SOL    HW2 1223   1.231   1.493   0.261 -2.6717 -1.6730  0.2871
  306SOL     MW 1224   1.211   1.462   0.336  0.0421  0.2101  0.2513
  307SOL     OW 1225   1.353   0.538   1.937  0.8517 -0.4793 -0.0975
  307SOL    HW1 1226   1.338   0.444   1.927  0.4758 -3.1692 -1.6517
  307SOL    HW2 1227   1.414   0.558   2.013 -0.3887  1.4583 -0.8733
  307SOL     MW 1228   1.359   0.528   1.946  0.6385 -0.5786 -0.4049
  308SOL     OW 1229   2.145   0.642   2.655  0.8771  0.3159  0.1029
  308SOL    HW1 1230   2.205   0.597   2.720  2.4028  0.2135  2.1704
  308SOL    HW2 1231   2.173   0.732   2.690  3.0436 -1.4637  1.1548
  308SOL     MW 1232   2.157   0.648   2.668  1.3642  0.0676  0.5144
  309SOL     OW 1233   0.590   0.456   0.393 -0.2887 -0.5615 -1.0055
  309SOL    HW1 1234   0.589   0.360   0.406 -1.6164 -1.6245  0.1617
  309SOL    HW2 1235   0.561   0.457   0.303 -2.5259 -1.2724  0.4197
  309SOL     MW 1236   0.586   0.443   0.383 -0.7591 -0.7955 -0.6634
  310SOL     OW 1237   0.456   0.526   1.928  0.1741  0.1733 -0.0027
  310SOL    HW1 1238   0.519   0.461   1.896 -2.3809  0.8137  1.3659
  310SOL    HW2 1239   0.487   0.614   1.900  2.9881  0.5115 -1.1189
  310SOL     MW 1240   0.469   0.529   1.920  0.2083  0.3024  0.0306
  311SOL     OW 1241   1.921   0.774   1.989  0.0137 -0.0443 -0.4855
  311SOL    HW1 1242   1.849   0.792   2.057  2.5731  4.4019 -0.2558
  311SOL    HW2 1243   1.972   0.700   2.020  1.1327  1.1687  1.2734
  311SOL     MW 1244   1.918   0.766   2.002  0.4990  0.7024 -0.2231
  312SOL     OW 1245   1.740   2.505   0.024 -0.9246 -0.2164 -0.3085
  312SOL    HW1 1246   1.795   2.519   0.104  1.4457  1.1962 -0.9313
  312SOL    HW2 1247   1.654   2.553   0.038  0.6568 -1.8037  2.0746
  312SOL     MW 1248   1.736   2.513   0.037 -0.4032 -0.2394 -0.0763
  313SOL     OW 1249   0.107   1.193   2.938  0.6057 -0.1236  0.0724
  313SOL    HW1 1250   0.174   1.169   3.006  2.4262  1.0197  0.4535
  313SOL    HW2 1251   0.148   1.216   2.859  0.5275  1.2184  1.3482
  313SOL     MW 1252   0.121   1.193   2.937  0.8356  0.2043  0.2910
  314SOL     OW 1253   2.135   3.012   2.973  0.0159 -0.4194 -0.0039
  314SOL    HW1 1254   2.086   3.073   2.924  0.0179  0.1674  3.1056
  314SOL    HW2 1255   2.183   3.061   3.035 -2.1752 -0.3294  0.1850
  314SOL     MW 1256   2.135   3.026   2.975 -0.2729 -0.3301  0.4313
  315SOL     OW 1257   1.533   1.947   3.038 -0.5589 -0.6864  0.6076
  315SOL    HW1 1258   1.480   2.007   3.096  0.5262 -1.6945  0.9925
  315SOL    HW2 1259   1.574   2.010   2.975  0.7764  1.4442 -3.5043
  315SOL     MW 1260   1.531   1.964   3.038 -0.2395 -0.5383  0.1159
  316SOL     OW 1261   1.248   0.658   2.700 -0.0462 -0.3337 -0.3127
  316SOL    HW1 1262   1.341   0.633   2.694 -0.3088  0.5781  2.7782
  316SOL    HW2 1263   1.209   0.582   2.749 -0.4836  0.2450  0.0380
  316SOL     MW 1264   1.255   0.645   2.706 -0.1385 -0.1370  0.1414
  317SOL     OW 1265   0.666   1.423   2.629  0.0485  0.0791 -0.0643
  317SOL    HW1 1266   0.693   1.345   2.676 -2.4035  0.5752 -1.1890
  317SOL    HW2 1267   0.725   1.430   2.544  1.1811  2.3010 -0.7872
  317SOL     MW 1268   0.678   1.414   2.624 -0.1256  0.4377 -0.3081
  318SOL     OW 1269   1.347   0.360   2.897  0.1531  0.1200  0.4410
  318SOL    HW1 1270   1.263   0.414   2.915 -0.3658  2.4640 -2.8856
  318SOL    HW2 1271   1.402   0.422   2.853  2.1519  0.5016  2.3307
  318SOL     MW 1272   1.343   0.376   2.894  0.3484  0.4796  0.2514
  319SOL     OW 1273   0.807   0.457   2.827  0.4511  0.5996 -0.0810
  319SOL    HW1 1274   0.826   0.389   2.766  1.0331  1.9054 -1.2850
  319SOL    HW2 1275   0.762   0.407   2.894 -0.6016  0.2858 -0.3404
  319SOL     MW 1276   0.804   0.442   2.828  0.3890  0.7305 -0.2741
  320SOL     OW 1277   1.043   1.328   2.047  0.5817  0.2711 -1.3209
  320SOL    HW1 1278   1.131   1.287   2.048 -2.9109  0.3470  0.0408
  320SOL    HW2 1279   1.054   1.397   1.986  1.5301 -0.7390 -0.1305
  320SOL     MW 1280   1.056   1.332   2.039  0.2460  0.1478 -0.9842
  321SOL     OW 1281   1.071   0.967   3.051  0.1064  0.6880  0.2837
  321SOL    HW1 1282   1.005   0.935   2.988 -0.8067  0.2577  0.4196
  321SOL    HW2 1283   1.133   0.895   3.061 -0.2324 -0.1148  3.7252
  321SOL     MW 1284   1.070   0.954   3.044 -0.0587  0.5253  0.7557
  322SOL     OW 1285   1.174   0.854   1.738 -0.1423  0.0383  0.0478
  322SOL    HW1 1286   1.267   0.824   1.749  0.9816 -1.2611 -1.2872
  322SOL    HW2 1287   1.144   0.900   1.823 -2.0500 -1.0696  0.0279
  322SOL     MW 1288   1.182   0.856   1.751 -0.2457 -0.2793 -0.1310
  323SOL     OW 1289   1.171   1.515   1.868 -0.0102 -0.1978 -0.4095
  323SOL    HW1 1290   1.172   1.432   1.826 -0.6026  3.9162  0.0113
  323SOL    HW2 1291   1.102   1.573   1.826  0.3125  0.3073 -2.3447
  323SOL     MW 1292   1.162   1.511   1.857 -0.0458  0.4116 -0.6093
  324SOL     OW 1293   1.530   1.064   2.477 -0.0185  0.0744 -0.3487
  324SOL    HW1 1294   1.432   1.095   2.492  0.0843  1.5416  3.1198
  324SOL    HW2 1295   1.576   1.125   2.533 -1.7309 -2.2256 -1.2382
  324SOL     MW 1296   1.523   1.076   2.486 -0.2309 -0.0355 -0.0084
  325SOL     OW 1297   1.094   0.498   2.904  0.1065 -0.1013  0.0090
  325SOL    HW1 1298   1.103   0.573   2.965 -2.0947  1.2158  4.7288
  325SOL    HW2 1299   1.008   0.517   2.868  0.9691  0.5109  0.4283
  325SOL     MW 1300   1.084   0.511   2.907 -0.0702  0.1533  0.6870
  326SOL     OW 1301   0.448   1.338   2.223  0.6741  0.1951  0.1535
  326SOL    HW1 1302   0.482   1.311   2.137  0.8977  0.2406  0.5148
  326SOL    HW2 1303   0.442   1.434   2.217  0.2213 -0.1378 -1.1192
  326SOL     MW 1304   0.452   1.347   2.211  0.6438  0.1572  0.0333
  327SOL     OW 1305   1.879   0.909   2.405 -0.5035  0.1825  0.3627
  327SOL    HW1 1306   1.870   0.851   2.484  0.3298 -3.0292  0.7364
  327SOL    HW2 1307   1.974   0.905   2.404 -2.4582 -1.4626  2.3339
  327SOL     MW 1308   1.891   0.901   2.415 -0.6514 -0.4583  0.6721
  328SOL     OW 1309   0.189   1.265   2.223  0.0265  0.3555 -0.4794
  328SOL    HW1 1310   0.164   1.188   2.177  2.3225  0.7626  2.3030
  328SOL    HW2 1311   0.286   1.278   2.217  1.0760  1.9607  1.1216
  328SOL     MW 1312   0.198   1.257   2.216  0.4679  0.6210  0.0990
  329SOL     OW 1313   0.125   0.137   1.416 -0.2329 -0.3821  0.2977
  329SOL    HW1 1314   0.074   0.183   1.493 -0.4387  1.7152  3.9895
  329SOL    HW2 1315   0.195   0.193   1.397  0.0095  0.2424  2.0022
  329SOL     MW 1316   0.128   0.150   1.424 -0.2280 -0.0230  1.0097
  330SOL     OW 1317   0.360   2.981   2.055 -0.2938  0.1039 -0.0325
  330SOL    HW1 1318   0.430   3.009   2.109 -4.5308  1.5934  3.1500
  330SOL    HW2 1319   0.290   2.956   2.122 -2.8176 -0.0327  2.2373
  330SOL     MW 1320   0.360   2.981   2.071 -1.1858  0.2824  0.6869
  331SOL     OW 1321   0.814   1.224   2.255 -0.1055 -0.4662  0.5342
  331SOL    HW1 1322   0.776   1.258   2.171 -3.5484 -1.1320 -1.1769
  331SOL    HW2 1323   0.816   1.304   2.302 -2.2423 -0.3872  0.9212
  331SOL     MW 1324   0.809   1.239   2.250 -0.8417 -0.5436  0.3595
  332SOL     OW 1325   1.350   1.743   2.958 -0.3997 -0.6944 -0.4147
  332SOL    HW1 1326   1.362   1.734   2.864 -1.1549 -1.4074 -0.5028
  332SOL    HW2 1327   1.401   1.828   2.980  3.2541 -0.5429 -0.2543
  332SOL     MW 1328   1.358   1.753   2.949 -0.0172 -0.7685 -0.4051
  333SOL     OW 1329   1.726   1.464   2.999 -0.2660 -0.0985 -0.0527
  333SOL    HW1 1330   1.823   1.460   2.995  1.7035  3.8804  0.8877
  333SOL    HW2 1331   1.696   1.417   3.077  1.3777 -1.3444  1.7911
  333SOL     MW 1332   1.735   1.457   3.009  0.2107  0.2621  0.3146
  334SOL     OW 1333   1.308   3.065   2.639  0.3272  0.4339 -0.4561
  334SOL    HW1 1334   1.217   3.069   2.673  2.3884 -2.2923  0.0667
  334SOL    HW2 1335   1.347   3.157   2.632  2.7562  2.7253 -1.4996
  334SOL     MW 1336   1.301   3.078   2.643  0.9196  0.3765 -0.5248
  335SOL     OW 1337   1.257   0.755   3.054 -0.5576  0.2040  0.0602
  335SOL    HW1 1338   1.299   0.757   3.140  0.4583 -2.3431 -2.0411
  335SOL    HW2 1339   1.335   0.782   3.003  0.2084  0.9603 -1.0678
  335SOL     MW 1340   1.273   0.758   3.059 -0.3225 -0.0323 -0.3659
  336SOL     OW 1341   0.905   1.112   1.911 -0.6156  0.0967  0.0790
  336SOL    HW1 1342   0.921   1.207   1.926 -1.1321  3.1868 -0.0189
  336SOL    HW2 1343   0.985   1.064   1.931  1.3858  2.8594  0.2890
  336SOL     MW 1344   0.918   1.118   1.916 -0.4197  0.8689  0.0938
  337SOL     OW 1345   0.494   1.795   2.833  0.4232  0.2393 -0.7195
  337SOL    HW1 1346   0.445   1.806   2.748 -0.1128 -1.3733 -0.6358
  337SOL    HW2 1347   0.556   1.726   2.817 -2.6744 -0.2471 -0.3534
  337SOL     MW 1348   0.495   1.787   2.820 -0.0562 -0.0376 -0.6602
  338SOL     OW 1349   1.129   0.850   2.567 -0.1336 -0.4440 -0.1313
  338SOL    HW1 1350   1.054   0.790   2.562  1.7849 -0.1783 -3.0287
  338SOL    HW2 1351   1.191   0.805   2.623  1.9576  4.0564 -1.1291
  338SOL     MW 1352   1.127   0.836   2.574  0.3955  0.1848 -0.6452
  339SOL     OW 1353   1.597   1.070   1.834  0.1169 -0.1430  0.1483
  339SOL    HW1 1354   1.508   1.063   1.790  1.5801  0.0822 -1.2487
  339SOL    HW2 1355   1.594   1.168   1.863  0.0362  2.8083 -2.4752
  339SOL     MW 1356   1.585   1.082   1.832  0.2993  0.2761 -0.3822
  340SOL     OW 1357   1.359   1.564   0.097  0.0322 -0.5683 -0.1836
  340SOL    HW1 1358   1.354   1.617   0.015  1.4663 -0.6166  0.4869
  340SOL    HW2 1359   1.448   1.524   0.105 -1.3624 -0.6714 -0.4216
  340SOL     MW 1360   1.370   1.566   0.087  0.0374 -0.5883 -0.1265
  341SOL     OW 1361   0.137   1.332   2.668 -0.0717  0.4420 -0.3291
  341SOL    HW1 1362   0.221   1.366   2.636 -0.2476  0.4950 -0.4074
  341SOL    HW2 1363   0.068   1.318   2.604 -0.5349  0.9975  0.0128
  341SOL     MW 1364   0.139   1.335   2.655 -0.1560  0.5223 -0.2943
  342SOL     OW 1365   1.429   0.321   0.068  0.2739 -0.0742 -0.2149
  342SOL    HW1 1366   1.430   0.405   0.115  0.3511 -0.5655 -0.4040
  342SOL    HW2 1367   1.418   0.341  -0.026 -0.8908  0.7583  2.1840
  342SOL     MW 1368   1.428   0.335   0.062  0.1304 -0.0292  0.0766
  343SOL     OW 1369   0.218   0.273   2.257  0.7609  0.6658 -0.6094
  343SOL    HW1 1370   0.240   0.214   2.332 -0.3117 -1.2452 -2.7907
  343SOL    HW2 1371   0.164   0.219   2.189 -0.4549 -0.9871  0.4571
  343SOL     MW 1372   0.213   0.258   2.258  0.4590  0.1956 -0.7565
  344SOL     OW 1373   1.682   2.081   0.240 -0.1699 -0.1402  0.4972
  344SOL    HW1 1374   1.693   2.116   0.154 -0.9715 -1.6207  1.2093
  344SOL    HW2 1375   1.625   2.013   0.228  0.4980  0.7978  0.6267
  344SOL     MW 1376   1.676   2.077   0.227 -0.1875 -0.2118  0.6083
  345SOL     OW 1377   0.692   1.593   2.376  0.2766 -0.1508  0.2174
  345SOL    HW1 1378   0.604   1.596   2.335  2.1368 -2.4881  0.5899
  345SOL    HW2 1379   0.741   1.572   2.293  0.8712  0.2763  1.5630
  345SOL     MW 1380   0.687   1.591   2.359  0.6005 -0.4028  0.4441
  346SOL     OW 1381   1.697   1.092   0.007  0.3867  0.3791  0.1852
  346SOL    HW1 1382   1.787   1.054   0.021  0.2421  0.6186 -0.2442
  346SOL    HW2 1383   1.639   1.020   0.028  1.2147 -1.7146 -2.4658
  346SOL     MW 1384   1.701   1.077   0.012  0.4769  0.1345 -0.2212
  347SOL     OW 1385   1.208   0.689   2.355  0.9218  0.5164 -0.3431
  347SOL    HW1 1386   1.303   0.694   2.359 -1.0642  1.2168  1.7737
  347SOL    HW2 1387   1.175   0.769   2.405 -1.6155 -0.1166 -0.4398
  347SOL     MW 1388   1.216   0.700   2.362  0.3250  0.5253 -0.0765
  348SOL     OW 1389   1.313   2.611   1.883 -0.1024 -0.4009 -0.0179
  348SOL    HW1 1390   1.350   2.529   1.906  0.0362  1.9717 -2.3840
  348SOL    HW2 1391   1.369   2.672   1.925 -1.3622  0.8150  0.1909
  348SOL     MW 1392   1.325   2.608   1.892 -0.2503  0.0726 -0.3025
  349SOL     OW 1393   1.400   0.217   2.648  0.2491 -0.4599  0.0646
  349SOL    HW1 1394   1.391   0.243   2.743  2.2837 -0.5101  1.2127
  349SOL    HW2 1395   1.494   0.193   2.644 -0.8332 -0.0757  3.1266
  349SOL     MW 1396   1.412   0.218   2.660  0.3748 -0.4159  0.6200
  350SOL     OW 1397   1.850   0.685   2.642 -0.3863 -0.1314 -0.3829
  350SOL    HW1 1398   1.801   0.615   2.599  1.7768  1.4524 -1.1702
  350SOL    HW2 1399   1.936   0.645   2.641  1.7820 -0.1732  2.5021
  350SOL     MW 1400   1.855   0.670   2.636  0.1852  0.0720 -0.1061
  351SOL     OW 1401   0.083   0.947   1.621  0.2300  0.2532 -0.0378
  351SOL    HW1 1402   0.041   1.011   1.678 -1.2115  1.1861  1.9352
  351SOL    HW2 1403   0.140   1.003   1.565  1.0649  2.3411  2.3309
  351SOL     MW 1404   0.085   0.963   1.621  0.1499  0.6517  0.5350
  352SOL     OW 1405   0.742   1.660   2.770 -0.4898 -0.1992  0.2367
  352SOL    HW1 1406   0.795   1.633   2.842  2.1867 -0.8818 -1.0202
  352SOL    HW2 1407   0.723   1.576   2.729 -1.6630  2.5882 -0.1760
  352SOL     MW 1408   0.746   1.645   2.774 -0.2915  0.0785  0.0164
  353SOL     OW 1409   2.980   2.414   2.714 -0.2822  0.5432  0.0601
  353SOL    HW1 1410   3.068   2.377   2.693  0.9835  0.0505  2.0175
  353SOL    HW2 1411   2.969   2.491   2.659 -0.5069  0.2553 -1.0409
  353SOL     MW 1412   2.990   2.419   2.704 -0.1449  0.4402  0.1731
  354SOL     OW 1413   0.427   2.394   0.854 -0.0893  0.1954 -0.4673
  354SOL    HW1 1414   0.432   2.356   0.941  1.3892  0.4368 -0.4616
  354SOL    HW2 1415   0.342   2.365   0.819 -0.8475  0.9360  1.5849
  354SOL     MW 1416   0.417   2.386   0.861  0.0058  0.3249 -0.1958
  355SOL     OW 1417   0.073   2.176   0.395 -0.0071 -0.4681 -0.2573
  355SOL    HW1 1418  -0.015   2.146   0.369 -0.3588  1.5373 -1.6628
  355SOL    HW2 1419   0.060   2.240   0.463  0.8478  0.1064 -3.7760
  355SOL     MW 1420   0.060   2.180   0.400  0.0593 -0.1277 -0.9070
  356SOL     OW 1421   0.857   2.952   1.023 -0.3893  0.1981  0.0715
  356SOL    HW1 1422   0.890   2.950   0.928 -0.1563 -1.2109 -2.0517
  356SOL    HW2 1423   0.790   2.887   1.017  0.4123  1.1712  2.9543
  356SOL     MW 1424   0.853   2.943   1.009 -0.2528  0.1406  0.1717
  357SOL     OW 1425   1.759   2.888   0.372 -0.5563  0.1077  0.1600
  357SOL    HW1 1426   1.711   2.840   0.433  0.6698  2.7606 -0.4811
  357SOL    HW2 1427   1.850   2.850   0.356 -1.2449  1.9424 -1.9703
  357SOL     MW 1428   1.765   2.877   0.378 -0.4853  0.6998 -0.2057
  358SOL     OW 1429   0.425   0.152   1.046  0.1195 -0.2354  0.6556
  358SOL    HW1 1430   0.508   0.113   1.015  2.6278 -1.1041  1.2301
  358SOL    HW2 1431   0.368   0.169   0.969  0.6394  0.7482  1.0082
  358SOL     MW 1432   0.429   0.149   1.032  0.5190 -0.2203  0.7779
  359SOL     OW 1433   0.982   2.865   1.827  0.1086  0.2591 -0.3865
  359SOL    HW1 1434   0.972   2.788   1.878 -0.5453  1.0711  2.5375
  359SOL    HW2 1435   0.979   2.851   1.729 -1.9007  1.3857  1.1888
  359SOL     MW 1436   0.980   2.853   1.821 -0.2428  0.5149  0.2072
  360SOL     OW 1437   0.641   2.795   0.999  0.2395  0.2852 -0.0811
  360SOL    HW1 1438   0.651   2.738   0.921 -1.8865 -3.9635  0.3459
  360SOL    HW2 1439   0.621   2.746   1.075  0.8928 -0.1927 -1.7394
  360SOL     MW 1440   0.640   2.781   0.999  0.0452 -0.3384 -0.2436
  361SOL     OW 1441   0.174   2.722   1.355  0.1679 -0.0853 -0.2836
  361SOL    HW1 1442   0.169   2.813   1.397  0.1701  3.4626 -2.0061
  361SOL    HW2 1443   0.269   2.716   1.358 -2.9111  2.3737 -0.5047
  361SOL     MW 1444   0.186   2.733   1.361 -0.2380  0.7073 -0.5400
  362SOL     OW 1445   1.500   2.405   0.601  0.0625 -1.0075  0.0202
  362SOL    HW1 1446   1.465   2.316   0.628 -1.2108 -0.6195  0.2823
  362SOL    HW2 1447   1.535   2.451   0.674 -0.8509 -0.2054 -2.9848
  362SOL     MW 1448   1.500   2.399   0.614 -0.2260 -0.8504 -0.3417
  363SOL     OW 1449   0.255   3.051   0.750  0.1861 -0.0355  0.1269
  363SOL    HW1 1450   0.220   3.026   0.830  1.7695 -0.8955 -0.0826
  363SOL    HW2 1451   0.185   3.045   0.681  0.7034 -1.2091 -0.8186
  363SOL     MW 1452   0.241   3.047   0.751  0.4633 -0.3038 -0.0255
  364SOL     OW 1453   0.694   0.174   0.217  0.6109 -0.3222  0.9321
  364SOL    HW1 1454   0.680   0.081   0.212 -2.9711 -0.1359  3.0135
  364SOL    HW2 1455   0.612   0.224   0.194 -1.8276  2.4872 -1.1750
  364SOL     MW 1456   0.682   0.169   0.213 -0.1835  0.0730  0.9287
  365SOL     OW 1457   0.952   1.975   1.127 -0.2448 -0.0154  0.1824
  365SOL    HW1 1458   0.920   2.052   1.073 -1.4317 -0.2053  0.1918
  365SOL    HW2 1459   0.896   1.904   1.091  1.2129  0.8847  1.8578
  365SOL     MW 1460   0.941   1.976   1.115 -0.2090  0.0783  0.4047
  366SOL     OW 1461   2.860   2.630   1.010  0.0556 -0.7115  0.0453
  366SOL    HW1 1462   2.937   2.637   1.061  0.9500 -1.3901  0.6563
  366SOL    HW2 1463   2.891   2.646   0.914 -1.1518 -0.9748  1.9311
  366SOL     MW 1464   2.874   2.633   1.004  0.0143 -0.8358  0.3747
  367SOL     OW 1465   1.271   2.817   0.874 -0.1243 -0.8385 -0.0541
  367SOL    HW1 1466   1.196   2.852   0.915  0.4849 -0.4894 -1.8974
  367SOL    HW2 1467   1.231   2.768   0.793  0.6442  0.1486 -0.2076
  367SOL     MW 1468   1.256   2.815   0.869  0.0575 -0.6622 -0.3176
  368SOL     OW 1469   1.660   0.468   0.663  0.0557  0.1123 -0.0722
  368SOL    HW1 1470   1.739   0.425   0.631 -0.4208 -2.1702  1.1300
  368SOL    HW2 1471   1.678   0.564   0.673  1.5633 -0.6377  2.0163
  368SOL     MW 1472   1.673   0.475   0.660  0.1917 -0.2878  0.3620
  369SOL     OW 1473   0.109   2.482   1.723  0.1538  0.2765 -0.3892
  369SOL    HW1 1474   0.194   2.464   1.761 -0.8178  1.7472 -1.8118
  369SOL    HW2 1475   0.098   2.575   1.746  1.0041  2.7983 -0.5312
  369SOL     MW 1476   0.119   2.492   1.731  0.1378  0.8033 -0.5956
  370SOL     OW 1477   0.692   0.070   0.973  0.0425 -1.0398 -0.0662
  370SOL    HW1 1478   0.744   0.152   0.983  0.6549 -2.5751  1.7152
  370SOL    HW2 1479   0.743  -0.007   1.002  0.7402  0.1093 -0.5348
  370SOL     MW 1480   0.706   0.071   0.978  0.2154 -1.0908  0.1070
  371SOL     OW 1481   1.311   2.954   1.482  0.0740 -0.4797 -0.2523
  371SOL    HW1 1482   1.296   2.889   1.410 -0.2852  0.9729  1.1904
  371SOL    HW2 1483   1.320   3.038   1.432  0.9488 -1.2675  1.3080
  371SOL     MW 1484   1.310   2.956   1.466  0.1420 -0.3920  0.1439
  372SOL     OW 1485   0.841   2.272   0.510  0.7919  0.2530 -0.2724
  372SOL    HW1 1486   0.803   2.184   0.520 -0.4333  1.0619  1.0936
  372SOL    HW2 1487   0.792   2.305   0.437 -2.6400  0.9765  2.0941
  372SOL     MW 1488   0.830   2.265   0.501  0.1775  0.4552  0.2201
  373SOL     OW 1489   2.865   3.032   1.408 -0.5098  0.2094 -0.5946
  373SOL    HW1 1490   2.923   3.006   1.338 -0.2932  0.0254  1.0264
  373SOL    HW2 1491   2.826   3.114   1.368 -1.8187 -1.1677  0.0071
  373SOL     MW 1492   2.868   3.039   1.394 -0.6539  0.0034 -0.3013
  374SOL     OW 1493   1.519   0.541   0.262  0.3588 -0.8876  0.1129
  374SOL    HW1 1494   1.595   0.596   0.298  1.1481  2.4466  3.1737
  374SOL    HW2 1495   1.466   0.500   0.337 -0.7225  1.7098 -2.0450
  374SOL     MW 1496   1.522   0.543   0.276  0.3203 -0.1050  0.2320
  375SOL     OW 1497   1.141   2.119   2.323 -0.3896  0.1881  0.6448
  375SOL    HW1 1498   1.148   2.126   2.418 -1.6213 -1.2672 -2.5697
  375SOL    HW2 1499   1.116   2.028   2.307  0.2131  1.8146 -1.1050
  375SOL     MW 1500   1.139   2.108   2.334 -0.4726  0.2107 -0.0102
  376SOL     OW 1501   0.673   2.528   0.117  0.5443 -0.0008 -0.4120
  376SOL    HW1 1502   0.734   2.461   0.163  1.3448  2.0591  1.2517
  376SOL    HW2 1503   0.647   2.469   0.051  1.9903 -2.9917  2.9674
  376SOL     MW 1504   0.678   2.512   0.114  0.8407 -0.1237  0.2534
  377SOL     OW 1505   1.290   1.999   0.856  0.3069 -0.7695 -0.2186
  377SOL    HW1 1506   1.218   1.981   0.792  0.0768 -0.0402 -0.1502
  377SOL    HW2 1507   1.250   1.970   0.942 -0.1139 -1.2672 -1.5156
  377SOL     MW 1508   1.275   1.992   0.859  0.2210 -0.7390 -0.3807
  378SOL     OW 1509   1.011   2.774   1.557  0.0245 -0.1379 -0.1263
  378SOL    HW1 1510   0.928   2.717   1.555 -1.2524  1.3427 -0.9651
  378SOL    HW2 1511   0.990   2.841   1.486  3.7311  2.1872 -0.7086
  378SOL     MW 1512   0.997   2.775   1.548  0.3451  0.3642 -0.3138
  379SOL     OW 1513   1.099   1.805   2.269  0.1091 -0.5815  0.0171
  379SOL    HW1 1514   1.005   1.802   2.295  1.5641  1.9203 -0.8546
  379SOL    HW2 1515   1.125   1.718   2.231  1.8873  1.0609  0.1606
  379SOL     MW 1516   1.090   1.793   2.267  0.5357 -0.0347 -0.0790
  380SOL     OW 1517   0.862   0.151   1.533 -0.1562 -0.7427  0.4064
  380SOL    HW1 1518   0.883   0.181   1.447  1.9326 -0.2925  2.3379
  380SOL    HW2 1519   0.942   0.128   1.575 -2.1771 -0.5083 -3.2717
  380SOL     MW 1520   0.875   0.152   1.527 -0.1473 -0.6523  0.1759
  381SOL     OW 1521   0.792   1.970   0.779  0.2538 -0.2784 -0.3106
  381SOL    HW1 1522   0.888   1.956   0.770 -0.9325 -0.1915 -1.0374
  381SOL    HW2 1523   0.781   2.051   0.829  0.6965 -3.0478 -0.4799
  381SOL     MW 1524   0.803   1.979   0.785  0.1556 -0.6323 -0.4288
  382SOL     OW 1525   0.727   0.032   0.710 -0.0609  0.9062  0.3702
  382SOL    HW1 1526   0.719   0.058   0.805  0.0562  1.4006  2.0062
  382SOL    HW2 1527   0.674  -0.051   0.698 -1.9901 -0.4377 -0.6950
  382SOL     MW 1528   0.719   0.024   0.721 -0.3000  0.7941  0.4455
  383SOL     OW 1529   0.445   0.049   0.379 -1.0148  0.0228 -0.0174
  383SOL    HW1 1530   0.513  -0.017   0.381  1.3983 -2.1892 -0.1488
  383SOL    HW2 1531   0.359   0.009   0.400 -0.0757 -1.1636 -1.8398
  383SOL     MW 1532   0.443   0.035   0.382 -0.5725 -0.4256 -0.2752
  384SOL     OW 1533   0.612   2.903   0.631  0.4132 -0.2239  0.8996
  384SOL    HW1 1534   0.628   2.826   0.688 -1.9065  2.4297 -0.9531
  384SOL    HW2 1535   0.526   2.887   0.588 -0.2020  0.5107 -0.3916
  384SOL     MW 1536   0.603   2.891   0.633  0.0260  0.2232  0.4848
  385SOL     OW 1537   1.316   2.063   1.560 -0.0254  0.2421 -0.0846
  385SOL    HW1 1538   1.390   2.062   1.625  2.5187  0.1985  0.1768
  385SOL    HW2 1539   1.276   1.973   1.572  0.2081  0.1618  0.4781
  385SOL     MW 1540   1.320   2.051   1.570  0.3411  0.2258  0.0241
  386SOL     OW 1541   1.358   0.377   0.831 -0.2797 -0.7250 -0.7715
  386SOL    HW1 1542   1.266   0.364   0.811  0.5726  3.0194  0.1975
  386SOL    HW2 1543   1.353   0.405   0.919  0.3901 -0.5546 -0.9146
  386SOL     MW 1544   1.345   0.379   0.840 -0.0789 -0.2085 -0.6625
  387SOL     OW 1545   0.823   2.183   1.485  0.1181  0.6461  0.3171
  387SOL    HW1 1546   0.890   2.242   1.454 -1.0974 -1.6185  1.8718
  387SOL    HW2 1547   0.863   2.090   1.472  0.2403  2.3076 -3.8179
  387SOL     MW 1548   0.838   2.179   1.479 -0.0261  0.5665 -0.0234
  388SOL     OW 1549   1.493   2.795   1.219  0.3890 -0.2450  0.7702
  388SOL    HW1 1550   1.425   2.741   1.178  1.6633 -1.8413  0.0762
  388SOL    HW2 1551   1.568   2.782   1.158  2.1459 -0.9688  0.7071
  388SOL     MW 1552   1.494   2.786   1.206  0.7890 -0.5511  0.6703
  389SOL     OW 1553   0.361   0.140   3.094  0.1694 -0.8769 -0.1043
  389SOL    HW1 1554   0.410   0.109   3.016  0.3981 -2.2660 -1.2764
  389SOL    HW2 1555   0.264   0.143   3.076 -3.5578  0.7743  1.5183
  389SOL     MW 1556   0.355   0.136   3.081 -0.2922 -0.8423 -0.0449
  390SOL     OW 1557   1.346   0.015   0.614 -0.3704 -0.3760 -0.3559
  390SOL    HW1 1558   1.423   0.068   0.585  1.1391  2.3291 -1.6623
  390SOL    HW2 1559   1.327   0.043   0.706  0.3652  0.7355  0.2786
  390SOL     MW 1560   1.354   0.025   0.622 -0.0742  0.1276 -0.4445
  391SOL     OW 1561   0.307   2.276   1.476 -0.0679 -0.2353  0.0771
  391SOL    HW1 1562   0.249   2.211   1.511 -0.8822  0.8430  2.1567
  391SOL    HW2 1563   0.249   2.349   1.445  1.8362 -2.1109  1.9424
  391SOL     MW 1564   0.292   2.277   1.476  0.0759 -0.3405  0.5976
  392SOL     OW 1565   1.993   2.212   0.333 -0.0993  0.4877  0.4435
  392SOL    HW1 1566   1.913   2.242   0.372  0.8653 -3.8015  1.4706
  392SOL    HW2 1567   2.050   2.198   0.408 -0.5547 -0.1085 -1.0338
  392SOL     MW 1568   1.990   2.214   0.348 -0.0321 -0.1569  0.3841
  393SOL     OW 1569   0.233   2.991   2.808  0.0817 -0.2586 -0.1147
  393SOL    HW1 1570   0.274   3.084   2.813 -0.0426  0.2305 -0.6587
  393SOL    HW2 1571   0.151   3.008   2.757 -0.6466  1.0824 -1.7610
  393SOL     MW 1572   0.227   3.005   2.802 -0.0308 -0.0171 -0.4037
  394SOL     OW 1573   0.852   1.660   1.453  0.5823  0.7657  0.4769
  394SOL    HW1 1574   0.812   1.670   1.541  0.2567 -1.4227  0.6457
  394SOL    HW2 1575   0.897   1.744   1.444 -0.9184  0.3133 -1.6859
  394SOL     MW 1576   0.852   1.672   1.463  0.3413  0.4172  0.2138
  395SOL     OW 1577   0.922   2.876   2.611  0.2107 -0.8808 -0.0927
  395SOL    HW1 1578   0.943   2.949   2.668 -1.1881  0.3367 -2.4239
  395SOL    HW2 1579   1.004   2.816   2.602 -1.1613 -0.5245  0.9366
  395SOL     MW 1580   0.936   2.878   2.617 -0.1549 -0.6732 -0.2645
  396SOL     OW 1581   0.797   1.849   2.387  0.1275  0.1649 -0.6139
  396SOL    HW1 1582   0.845   1.860   2.466 -1.6569 -0.8099 -0.3561
  396SOL    HW2 1583   0.752   1.765   2.388  2.6200 -0.6913 -1.5738
  396SOL     MW 1584   0.798   1.839   2.397  0.2210 -0.0767 -0.7066
  397SOL     OW 1585   1.013   2.343   1.347 -0.1297  0.3077  0.2030
  397SOL    HW1 1586   1.046   2.411   1.288 -2.1625 -3.7725 -2.7237
  397SOL    HW2 1587   1.081   2.337   1.411  2.0309 -0.2299 -0.7383
  397SOL     MW 1588   1.026   2.351   1.347 -0.1128 -0.3016 -0.3074
  398SOL     OW 1589   0.673   2.673   0.742 -0.6615 -0.5165  0.5766
  398SOL    HW1 1590   0.608   2.609   0.730  0.9733  2.2247  2.8172
  398SOL    HW2 1591   0.757   2.641   0.714  2.6697  3.7641 -0.7807
  398SOL     MW 1592   0.675   2.660   0.737 -0.0063  0.4099  0.6931
  399SOL     OW 1593   0.281   2.010   0.422  0.6602  0.1379  0.7378
  399SOL    HW1 1594   0.198   2.061   0.424 -2.0776 -0.7838  2.4770
  399SOL    HW2 1595   0.306   2.014   0.324 -0.1794  0.8913 -0.2131
  399SOL     MW 1596   0.274   2.017   0.409  0.1882  0.1157  0.8418
  400SOL     OW 1597   0.589   1.837   0.143 -0.3016 -0.0895  0.1164
  400SOL    HW1 1598   0.551   1.921   0.156 -0.4000 -1.5770 -1.1675
  400SOL    HW2 1599   0.542   1.794   0.215  0.8572 -0.1074 -0.8811
  400SOL     MW 1600   0.578   1.842   0.155 -0.1617 -0.2881 -0.1846
  401SOL     OW 1601   0.938   2.064   0.195 -0.6043 -0.2813  0.3663
  401SOL    HW1 1602   0.947   1.982   0.158  1.0939  4.8594 -1.1591
  401SOL    HW2 1603   1.023   2.086   0.240  0.4520 -1.6793  2.6193
  401SOL     MW 1604   0.950   2.056   0.196 -0.2409  0.2125  0.4623
  402SOL     OW 1605   0.706   2.929   1.700 -0.2027  0.5035 -0.4567
  402SOL    HW1 1606   0.665   2.877   1.771  0.7998 -3.5527  1.0785
  402SOL    HW2 1607   0.773   2.980   1.739 -1.5951  1.9416  0.6725
  402SOL     MW 1608   0.710   2.929   1.714 -0.2542  0.1581 -0.1051
  403SOL     OW 1609   0.058   0.431   0.442 -0.0947 -0.9711  0.3349
  403SOL    HW1 1610   0.148   0.450   0.461 -1.7358 -0.6066 -0.8138
  403SOL    HW2 1611   0.063   0.396   0.348 -0.0806 -1.8283  1.4017
  403SOL     MW 1612   0.071   0.429   0.432 -0.3094 -1.0361  0.3241
  404SOL     OW 1613   1.012   2.890   0.797 -0.1660  0.1481 -0.2132
  404SOL    HW1 1614   1.053   2.826   0.731 -1.8421 -0.7624  0.2123
  404SOL    HW2 1615   1.025   2.982   0.765  0.1765 -0.1399  0.1186
  404SOL     MW 1616   1.019   2.894   0.784 -0.3420 -0.0100 -0.1133
  405SOL     OW 1617   0.488   2.473   1.556 -0.0485  0.0342  0.0924
  405SOL    HW1 1618   0.472   2.560   1.509  1.2670 -1.7586  3.4668
  405SOL    HW2 1619   0.428   2.404   1.524 -0.3659 -2.9118 -0.7114
  405SOL     MW 1620   0.478   2.476   1.546  0.0832 -0.5910  0.4316
  406SOL     OW 1621   0.409   2.313   1.116  0.4038 -0.1256 -0.7815
  406SOL    HW1 1622   0.322   2.354   1.131  0.5444 -1.7930  0.0171
  406SOL    HW2 1623   0.408   2.234   1.167 -5.7121  0.0153  1.6987
  406SOL     MW 1624   0.397   2.308   1.125 -0.3846 -0.3270 -0.3489
  407SOL     OW 1625   0.051   2.717   1.120  0.3552 -0.3059  0.0006
  407SOL    HW1 1626   0.110   2.720   1.201  0.8060 -0.0642 -1.4687
  407SOL    HW2 1627   0.108   2.730   1.041 -2.4605  4.5304  4.1631
  407SOL     MW 1628   0.066   2.719   1.121  0.0432  0.3641  0.3559
  408SOL     OW 1629   2.103   2.076   0.635 -0.9950 -0.9713  0.3247
  408SOL    HW1 1630   2.050   2.116   0.698  1.5342 -1.8099 -0.6873
  408SOL    HW2 1631   2.040   2.020   0.586  0.5477  1.7049  0.8246
  408SOL     MW 1632   2.088   2.074   0.637 -0.4578 -0.7289  0.2571
  409SOL     OW 1633   1.326   0.057   0.877  0.5452 -0.1823 -0.4243
  409SOL    HW1 1634   1.392   0.112   0.910 -0.6846 -1.1993  0.4035
  409SOL    HW2 1635   1.352  -0.026   0.922  0.6465  1.5072  0.0890
  409SOL     MW 1636   1.338   0.054   0.887  0.3963 -0.0936 -0.2473
  410SOL     OW 1637   1.093   2.479   1.104  0.6103 -0.9667  0.5985
  410SOL    HW1 1638   1.001   2.484   1.066 -0.5048 -2.0438  1.3034
  410SOL    HW2 1639   1.136   2.406   1.055  0.3532 -0.5902  3.7291
  410SOL     MW 1640   1.087   2.470   1.093  0.4293 -1.0592  1.1046
  411SOL     OW 1641   1.940   0.089   2.847 -0.1619 -0.4532  0.6128
  411SOL    HW1 1642   1.882   0.046   2.787 -2.2771 -1.3801  0.1072
  411SOL    HW2 1643   1.889   0.088   2.934  0.0392 -0.0880  3.2207
  411SOL     MW 1644   1.926   0.084   2.851 -0.4144 -0.5273  0.8902
  412SOL     OW 1645   1.084   2.199   0.587 -0.5489  0.1007 -0.1850
  412SOL    HW1 1646   1.145   2.265   0.616 -1.5790  0.4476  0.5847
  412SOL    HW2 1647   1.002   2.240   0.563 -2.3810  1.5977  2.2504
  412SOL     MW 1648   1.081   2.213   0.588 -0.9265  0.3440  0.2379
  413SOL     OW 1649   0.552   2.793   0.095  0.3507  0.0810 -0.7936
  413SOL    HW1 1650   0.591   2.704   0.101 -0.1289 -1.1957  0.6123
  413SOL    HW2 1651   0.560   2.819   0.003 -4.0358 -2.4126 -2.1451
  413SOL     MW 1652   0.558   2.784   0.084 -0.2913 -0.4165 -0.7864
  414SOL     OW 1653   1.974   3.073   1.084  0.0294 -0.3483  0.4107
  414SOL    HW1 1654   1.941   3.065   0.990  2.2295  0.6183 -0.3022
  414SOL    HW2 1655   2.034   3.000   1.093  0.8978 -0.1237 -0.7428
  414SOL     MW 1656   1.977   3.062   1.072  0.4342 -0.1911  0.1644
  415SOL     OW 1657   1.715   2.658   1.075 -0.5904 -0.2193  0.1705
  415SOL    HW1 1658   1.677   2.577   1.116 -0.3986 -0.9381  1.8083
  415SOL    HW2 1659   1.808   2.651   1.103  1.8003 -0.3147  0.8911
  415SOL     MW 1660   1.722   2.647   1.084 -0.2496 -0.3267  0.4817
  416SOL     OW 1661   0.593   1.916   1.392 -0.3682 -0.0314 -0.2612
  416SOL    HW1 1662   0.544   2.000   1.385  0.4047  1.8878 -0.5909
  416SOL    HW2 1663   0.604   1.897   1.300 -2.5862 -0.2789 -0.4086
  416SOL     MW 1664   0.588   1.925   1.379 -0.5589  0.1891 -0.3241
  417SOL     OW 1665   1.011   3.037   2.029 -0.0651  0.0867  0.4021
  417SOL    HW1 1666   0.939   2.999   2.079  2.2682  0.1482  1.8965
  417SOL    HW2 1667   1.020   2.984   1.951 -2.6454  1.0414  1.1487
  417SOL     MW 1668   1.002   3.025   2.026 -0.0977  0.2208  0.6978
  418SOL     OW 1669   0.684   2.991   0.230 -0.8478 -0.1459  0.1264
  418SOL    HW1 1670   0.760   2.972   0.175 -0.9341 -3.2113  1.4233
  418SOL    HW2 1671   0.629   2.919   0.193  0.0506  1.1482  2.1729
  418SOL     MW 1672   0.687   2.979   0.218 -0.7406 -0.3796  0.5675
  419SOL     OW 1673   0.449   2.669   1.374 -0.5431 -0.6344 -0.1215
  419SOL    HW1 1674   0.512   2.736   1.398  1.4159 -2.5128  2.9565
  419SOL    HW2 1675   0.483   2.631   1.292  1.1984 -3.3003  1.7386
  419SOL     MW 1676   0.462   2.673   1.366 -0.0548 -1.2340  0.5300
  420SOL     OW 1677   0.789   2.177   0.997 -0.4692 -0.9785 -0.2634
  420SOL    HW1 1678   0.729   2.204   1.064  0.0143 -0.4104  0.3079
  420SOL    HW2 1679   0.839   2.254   0.975 -3.0906 -0.8535 -0.1517
  420SOL     MW 1680   0.787   2.191   1.003 -0.7513 -0.8870 -0.1733
  421SOL     OW 1681   2.940   0.061   0.041  0.1850 -0.0491  0.7334
  421SOL    HW1 1682   2.926   0.025  -0.046 -1.3293  1.7506 -1.4654
  421SOL    HW2 1683   2.959  -0.014   0.095 -0.4547  1.1946 -3.1955
  421SOL     MW 1684   2.941   0.047   0.037 -0.0992  0.3524 -0.0751
  422SOL     OW 1685   0.873   2.437   0.942 -0.7096  0.3147  0.8019
  422SOL    HW1 1686   0.784   2.470   0.944 -1.1109  1.2470 -0.6394
  422SOL    HW2 1687   0.888   2.448   0.850 -0.7164  1.5654  0.9041
  422SOL     MW 1688   0.863   2.443   0.930 -0.7635  0.6027  0.6252
  423SOL     OW 1689   1.546   0.162   0.502 -0.7998 -0.1749  0.0392
  423SOL    HW1 1690   1.553   0.160   0.405 -1.3630  3.2382  1.3819
  423SOL    HW2 1691   1.542   0.253   0.521 -0.4105 -0.9719  1.4902
  423SOL     MW 1692   1.546   0.174   0.492 -0.8227  0.1703  0.4078
  424SOL     OW 1693   0.690   2.267   1.243 -0.2353  0.5214  0.1981
  424SOL    HW1 1694   0.609   2.222   1.285  0.2832 -0.2709  0.7312
  424SOL    HW2 1695   0.758   2.245   1.305 -2.7786 -0.0812 -0.9750
  424SOL     MW 1696   0.688   2.258   1.257 -0.5024  0.3374  0.1136
  425SOL     OW 1697   1.748   2.832   1.953 -0.5893 -0.5066 -0.5104
  425SOL    HW1 1698   1.772   2.839   1.861  0.0927  0.5232  1.1715
  425SOL    HW2 1699   1.799   2.757   1.983  1.9703  0.5947 -1.7438
  425SOL     MW 1700   1.758   2.823   1.945 -0.1616 -0.2254 -0.4512
  426SOL     OW 1701   0.774   1.689   1.947  0.4033  0.0384 -0.0870
  426SOL    HW1 1702   0.735   1.685   1.860 -0.0582 -0.6715 -2.3352
  426SOL    HW2 1703   0.756   1.773   1.988  1.4417  0.2184 -0.4173
  426SOL     MW 1704   0.767   1.700   1.941  0.4794 -0.0315 -0.4272
  427SOL     OW 1705   0.363   1.566   1.888 -0.3926 -0.0878 -0.0612
  427SOL    HW1 1706   0.412   1.638   1.932  0.6579  0.5910  4.1360
  427SOL    HW2 1707   0.280   1.556   1.936 -4.6619 -0.5156 -2.7474
  427SOL     MW 1708   0.359   1.574   1.900 -0.8173 -0.0547  0.1382
  428SOL     OW 1709   0.554   2.547   1.160  0.0471 -0.5491 -0.1378
  428SOL    HW1 1710   0.638   2.537   1.202  0.0507  0.4600  1.7539
  428SOL    HW2 1711   0.510   2.458   1.173 -0.3002 -0.9007  2.8849
  428SOL     MW 1712   0.559   2.534   1.167  0.0017 -0.4624  0.5106
  429SOL     OW 1713   1.339   2.634   1.072  0.3968 -0.3519  0.2626
  429SOL    HW1 1714   1.257   2.587   1.087 -0.1707 -1.3955 -1.7805
  429SOL    HW2 1715   1.317   2.697   0.998 -0.3237  0.5805 -0.0276
  429SOL     MW 1716   1.325   2.636   1.065  0.2269 -0.3666 -0.0453
  430SOL     OW 1717   1.150   2.685   0.660 -0.3854 -0.1593 -0.0027
  430SOL    HW1 1718   1.166   2.591   0.676  0.9126 -0.6905 -1.0214
  430SOL    HW2 1719   1.111   2.675   0.573 -1.2769 -1.5652  1.2927
  430SOL     MW 1720   1.147   2.672   0.651 -0.3318 -0.4149  0.0338
  431SOL     OW 1721   0.331   1.964   1.129  0.4686  0.1555  0.0081
  431SOL    HW1 1722   0.383   1.895   1.105 -0.8469 -0.2849  2.0108
  431SOL    HW2 1723   0.302   2.004   1.046  0.6577 -2.0647 -0.0394
  431SOL     MW 1724   0.334   1.960   1.115  0.3200 -0.1956  0.2661
  432SOL     OW 1725   0.034   0.076   1.162 -0.0273  0.2624  0.5945
  432SOL    HW1 1726   0.049   0.114   1.255 -0.2321 -0.6041 -1.0929
  432SOL    HW2 1727  -0.027  -0.003   1.166 -2.5924  1.1066 -1.8864
  432SOL     MW 1728   0.028   0.071   1.175 -0.3928  0.2595  0.0445
  433SOL     OW 1729   0.620   2.872   1.439  0.0446  0.3771 -0.0554
  433SOL    HW1 1730   0.622   2.892   1.535  0.5853 -0.3308 -1.7591
  433SOL    HW2 1731   0.706   2.912   1.407 -1.1282  3.1377 -1.7778
  433SOL     MW 1732   0.631   2.880   1.448 -0.0388  0.6479 -0.5074
  434SOL     OW 1733   1.541   2.832   1.550 -0.1135  0.2704  0.0827
  434SOL    HW1 1734   1.447   2.857   1.546 -1.9951  1.2224  1.7163
  434SOL    HW2 1735   1.561   2.796   1.463  1.3945  2.2207  1.7382
  434SOL     MW 1736   1.531   2.830   1.538 -0.1628  0.6533  0.5167
  435SOL     OW 1737   2.875   1.774   0.227 -0.0626 -0.7092 -0.1898
  435SOL    HW1 1738   2.932   1.834   0.182 -0.6959  0.8870 -0.6288
  435SOL    HW2 1739   2.839   1.727   0.144 -1.0434 -4.5122 -2.1728
  435SOL     MW 1740   2.878   1.775   0.210 -0.2756 -1.0004 -0.5094
  436SOL     OW 1741   1.395   2.768   0.310 -0.3123 -0.4839 -0.3389
  436SOL    HW1 1742   1.443   2.734   0.385  0.1797  0.7007  1.4537
  436SOL    HW2 1743   1.349   2.841   0.356 -1.6453  0.4192  1.6639
  436SOL     MW 1744   1.395   2.773   0.326 -0.4232 -0.2084  0.1619
  437SOL     OW 1745   0.888   2.931   1.368 -0.0310 -0.3268  0.5040
  437SOL    HW1 1746   0.925   3.017   1.338  2.1445  0.1859  1.5747
  437SOL    HW2 1747   0.895   2.874   1.289 -0.7208 -1.1215  0.4861
  437SOL     MW 1748   0.894   2.935   1.354  0.1650 -0.3640  0.6429
  438SOL     OW 1749   0.892   2.614   1.989  0.5638  0.3370 -0.4434
  438SOL    HW1 1750   0.887   2.552   2.059 -2.2453 -0.1705 -2.0594
  438SOL    HW2 1751   0.832   2.573   1.928  0.5646  0.4285  1.9583
  438SOL     MW 1752   0.884   2.600   1.990  0.1933  0.2821 -0.3397
  439SOL     OW 1753   1.172   2.171   0.325 -0.2331  0.1524 -0.0091
  439SOL    HW1 1754   1.138   2.160   0.417 -3.5219  0.2232  1.7604
  439SOL    HW2 1755   1.153   2.261   0.296  1.6102  1.2943 -2.9441
  439SOL     MW 1756   1.165   2.182   0.333 -0.4238  0.3124 -0.1629
  440SOL     OW 1757   1.605   2.972   3.024 -0.4764  0.0924  0.3754
  440SOL    HW1 1758   1.572   2.968   3.112  2.6805 -1.7670 -0.2134
  440SOL    HW2 1759   1.651   2.885   3.013  0.4903 -0.4668  0.9041
  440SOL     MW 1760   1.607   2.960   3.034  0.0677 -0.2267  0.3675
  441SOL     OW 1761   0.327   2.562   0.533  0.8631  0.4339  0.1363
  441SOL    HW1 1762   0.318   2.558   0.434  0.5720 -2.9805 -1.5335
  441SOL    HW2 1763   0.335   2.661   0.543  0.5993  0.9927  0.5246
  441SOL     MW 1764   0.327   2.574   0.522  0.7899  0.0572 -0.0328
  442SOL     OW 1765   0.005   2.311   0.626 -0.3777  0.2448  1.0109
  442SOL    HW1 1766   0.027   2.403   0.609  1.2226 -0.6194 -1.8335
  442SOL    HW2 1767  -0.080   2.315   0.671 -1.7396 -0.6625 -2.7339
  442SOL     MW 1768  -0.003   2.324   0.630 -0.3462  0.0111  0.1415
  443SOL     OW 1769   1.365   1.733   1.822  0.0030  0.1175  0.0947
  443SOL    HW1 1770   1.340   1.770   1.735 -2.5841 -1.4485 -4.2829
  443SOL    HW2 1771   1.321   1.648   1.814 -0.4622  1.9274 -0.1529
  443SOL     MW 1772   1.356   1.727   1.810 -0.3997  0.1497 -0.5156
  444SOL     OW 1773   0.831   2.577   1.583 -0.1775  0.1042 -0.4436
  444SOL    HW1 1774   0.907   2.554   1.636  0.0490 -4.3081  0.2186
  444SOL    HW2 1775   0.760   2.543   1.644 -2.0594 -0.3172  0.1748
  444SOL     MW 1776   0.832   2.570   1.598 -0.3959 -0.5336 -0.2746
  445SOL     OW 1777   0.994   0.085   1.266  0.3320 -0.3152 -0.3051
  445SOL    HW1 1778   0.941   0.153   1.226 -0.5530  1.0125  2.9183
  445SOL    HW2 1779   1.070   0.076   1.203 -2.6343 -1.9156 -1.5028
  445SOL     MW 1780   0.997   0.093   1.252 -0.1762 -0.3512 -0.0378
  446SOL     OW 1781   2.754   2.883   1.032 -0.0281 -0.7339  0.9328
  446SOL    HW1 1782   2.677   2.906   0.978 -1.2668 -0.2605  0.9120
  446SOL    HW2 1783   2.774   2.786   1.021  0.2611 -0.4887 -1.2396
  446SOL     MW 1784   2.747   2.873   1.023 -0.1533 -0.6391  0.6434
  447SOL     OW 1785   3.043   2.029   1.732 -0.0972 -0.9476 -0.8425
  447SOL    HW1 1786   3.104   1.950   1.757  1.3259 -1.8523 -3.2105
  447SOL    HW2 1787   2.983   2.009   1.655  0.7036  1.0150 -2.9658
  447SOL     MW 1788   3.043   2.016   1.725  0.1962 -0.8080 -1.4351
  448SOL     OW 1789   1.682   2.333   1.664 -0.0500 -0.2067  0.4481
  448SOL    HW1 1790   1.607   2.283   1.694  1.1050  0.9064 -1.3739
  448SOL    HW2 1791   1.623   2.413   1.641 -0.8947 -0.0873 -1.2171
  448SOL     MW 1792   1.664   2.337   1.665 -0.0091 -0.0441 -0.0120
  449SOL     OW 1793   0.833   2.954   0.450  0.1618  0.8656 -0.1420
  449SOL    HW1 1794   0.775   2.958   0.372 -0.5428  3.9287  0.1227
  449SOL    HW2 1795   0.776   2.928   0.520  1.1653  1.0820 -1.3428
  449SOL     MW 1796   0.818   2.951   0.449  0.2013  1.2983 -0.2655
  450SOL     OW 1797   1.218   2.421   0.685  0.2499  0.3416  0.2109
  450SOL    HW1 1798   1.208   2.407   0.778 -0.3398  0.3357 -2.0733
  450SOL    HW2 1799   1.310   2.441   0.669 -0.0635 -1.4530 -2.4800
  450SOL     MW 1800   1.228   2.421   0.695  0.1307  0.1041 -0.4455
  451SOL     OW 1801   0.599   2.026   1.656 -0.4265  0.5067  0.0115
  451SOL    HW1 1802   0.688   2.050   1.667  1.5568  1.4337  0.2463
  451SOL    HW2 1803   0.598   1.991   1.566  1.8896 -1.5519  1.6112
  451SOL     MW 1804   0.611   2.024   1.646  0.1408  0.3574  0.2535
  452SOL     OW 1805   0.279   2.746   0.146  0.0100 -0.1848 -0.1901
  452SOL    HW1 1806   0.369   2.769   0.148  0.5101 -2.6715  1.7132
  452SOL    HW2 1807   0.263   2.722   0.049  0.0909  1.7470  1.3366
  452SOL     MW 1808   0.289   2.746   0.133  0.0867 -0.2580  0.2625
  453SOL     OW 1809   0.386   2.987   1.676  0.4439 -0.3096  0.4634
  453SOL    HW1 1810   0.479   3.017   1.667  1.2630 -3.2628  0.8652
  453SOL    HW2 1811   0.328   3.005   1.601 -2.4214  0.3884 -0.0384
  453SOL     MW 1812   0.391   2.993   1.665  0.1739 -0.6071  0.4502
  454SOL     OW 1813   1.061   2.802   1.096 -0.2357 -0.1867  0.4270
  454SOL    HW1 1814   1.046   2.728   1.039 -2.7127  1.2119  1.1479
  454SOL    HW2 1815   0.993   2.871   1.076 -2.6830  0.7029  1.5027
  454SOL     MW 1816   1.050   2.802   1.086 -0.8854  0.1152  0.6640
  455SOL     OW 1817   1.551   2.961   0.189  0.0624  0.6699  0.1487
  455SOL    HW1 1818   1.625   2.932   0.239  0.1831 -2.4783 -0.0223
  455SOL    HW2 1819   1.481   2.905   0.222 -0.5506  2.4034 -0.7534
  455SOL     MW 1820   1.551   2.950   0.200 -0.0026  0.4832  0.0071
  456SOL     OW 1821   2.938   0.349   1.377 -0.5868 -0.1627 -0.5478
  456SOL    HW1 1822   2.912   0.261   1.335 -1.3603 -2.0855 -0.7233
  456SOL    HW2 1823   3.015   0.376   1.317 -1.0305  2.2033 -0.6452
  456SOL     MW 1824   2.945   0.341   1.364 -0.7474 -0.1042 -0.5838
  457SOL     OW 1825   0.840   1.540   2.997 -0.0031  0.3938 -0.0619
  457SOL    HW1 1826   0.756   1.530   3.044 -0.5269 -0.8152  1.6759
  457SOL    HW2 1827   0.905   1.497   3.060  4.7091 -3.8089 -1.9130
  457SOL     MW 1828   0.838   1.533   3.012  0.5495 -0.3202 -0.0769
  458SOL     OW 1829   1.462   1.402   0.648  0.5659 -0.0905 -0.1802
  458SOL    HW1 1830   1.371   1.409   0.670  1.4628 -0.2650  0.1086
  458SOL    HW2 1831   1.472   1.348   0.568  0.9282  1.8408  1.2949
  458SOL     MW 1832   1.451   1.396   0.641  0.7320  0.1413  0.0526
  459SOL     OW 1833   1.558   0.136   0.232 -0.3274 -0.3687  0.1812
  459SOL    HW1 1834   1.533   0.043   0.216  0.7931 -0.1295 -2.5037
  459SOL    HW2 1835   1.501   0.177   0.163 -0.0039 -0.0657  1.8501
  459SOL     MW 1836   1.547   0.129   0.221 -0.1369 -0.2972  0.0472
  460SOL     OW 1837   1.701   2.168   0.607  0.7375 -0.3419  0.5114
  460SOL    HW1 1838   1.632   2.164   0.668  1.9297  5.7183 -2.1957
  460SOL    HW2 1839   1.741   2.078   0.583  0.9312  1.8457 -1.5811
  460SOL     MW 1840   1.698   2.156   0.612  0.9203  0.7463 -0.1219
  461SOL     OW 1841   0.533   2.411   0.601  0.6583  0.4957  0.7817
  461SOL    HW1 1842   0.465   2.478   0.583 -4.9689 -0.3762 -1.5353
  461SOL    HW2 1843   0.491   2.386   0.683 -3.2479 -0.3856 -0.2001
  461SOL     MW 1844   0.518   2.416   0.609 -0.5995  0.2644  0.3464
  462SOL     OW 1845   0.358   0.296   1.279 -0.1123 -0.9290 -0.2597
  462SOL    HW1 1846   0.382   0.249   1.206  2.7491 -1.0584  0.7587
  462SOL    HW2 1847   0.442   0.316   1.332  0.3273 -1.4016  1.1576
  462SOL     MW 1848   0.373   0.292   1.276  0.3232 -1.0084  0.0616
  463SOL     OW 1849   1.016   0.048   0.728  0.1203 -0.4569  0.1858
  463SOL    HW1 1850   1.045   0.057   0.635 -2.2087  1.2595  0.6235
  463SOL    HW2 1851   0.916   0.049   0.715 -0.0193 -0.1926 -0.7524
  463SOL     MW 1852   1.007   0.049   0.714 -0.2054 -0.1956  0.1198
  464SOL     OW 1853   0.775   2.943   2.137 -0.5527  0.3160  0.5369
  464SOL    HW1 1854   0.753   2.846   2.144  0.5970 -1.4658  1.5628
  464SOL    HW2 1855   0.814   2.958   2.231  2.0207 -1.3494  1.6882
  464SOL     MW 1856   0.777   2.932   2.150 -0.0614 -0.1388  0.8241
  465SOL     OW 1857   0.751   0.207   0.504 -0.0452  0.6195 -0.2200
  465SOL    HW1 1858   0.709   0.140   0.563 -0.6694 -0.3551  1.5247
  465SOL    HW2 1859   0.726   0.174   0.419  0.4053 -0.3513  1.1862
  465SOL     MW 1860   0.742   0.193   0.500 -0.0681  0.3629  0.1957
  466SOL     OW 1861   1.063   1.965   0.716 -0.4089 -0.1570  0.6024
  466SOL    HW1 1862   1.059   1.889   0.655  1.1415  0.4744 -0.6289
  466SOL    HW2 1863   1.069   2.043   0.658  1.7884  0.3294  0.8939
  466SOL     MW 1864   1.064   1.965   0.700  0.0856 -0.0095  0.4784
  467SOL     OW 1865   1.219   2.275   0.964 -0.1780 -0.1336  0.2635
  467SOL    HW1 1866   1.314   2.299   0.975 -1.1410  0.5382  3.2001
  467SOL    HW2 1867   1.227   2.187   0.929 -1.8339  3.2079 -0.1011
  467SOL     MW 1868   1.232   2.267   0.961 -0.5236  0.3959  0.6029
  468SOL     OW 1869   0.323   2.621   1.989  0.2430 -0.1038  0.5358
  468SOL    HW1 1870   0.381   2.552   1.963  0.3143  2.3716 -1.1616
  468SOL    HW2 1871   0.368   2.691   1.948 -2.6236  0.1911  0.5946
  468SOL     MW 1872   0.336   2.621   1.980 -0.1258  0.2617  0.3196
  469SOL     OW 1873   0.388   2.103   1.839  0.5744  0.4927 -0.1378
  469SOL    HW1 1874   0.306   2.048   1.819 -1.5655  2.0065  0.4650
  469SOL    HW2 1875   0.452   2.071   1.771 -2.7156  1.3640 -0.5450
  469SOL     MW 1876   0.386   2.091   1.828 -0.1420  0.8074 -0.1120
  470SOL     OW 1877   3.052   2.533   0.159  0.1818  0.0890  0.6448
  470SOL    HW1 1878   2.970   2.493   0.195 -0.6306  1.7757 -1.0789
  470SOL    HW2 1879   3.025   2.570   0.074 -2.0035  0.1505  2.1431
  470SOL     MW 1880   3.038   2.533   0.152 -0.2137  0.3197  0.6150
  471SOL     OW 1881   1.191   2.737   1.356  0.5816  0.5356 -0.2938
  471SOL    HW1 1882   1.136   2.738   1.436  1.3859 -1.1837  1.7249
  471SOL    HW2 1883   1.142   2.748   1.270 -0.7922  1.3608 -1.4528
  471SOL     MW 1884   1.178   2.739   1.355  0.5064  0.4176 -0.1804
  472SOL     OW 1885   2.922   2.122   0.314 -0.0190 -0.4079  0.3326
  472SOL    HW1 1886   2.926   2.089   0.222 -0.7799  1.3247  2.1215
  472SOL    HW2 1887   2.909   2.045   0.368  1.1841  0.5257 -2.2944
  472SOL     MW 1888   2.921   2.108   0.309  0.0394 -0.0561  0.2221
  473SOL     OW 1889   0.796   2.536   1.296 -0.1501 -0.4461  0.4482
  473SOL    HW1 1890   0.824   2.446   1.278 -1.2360  1.3694 -1.2984
  473SOL    HW2 1891   0.821   2.561   1.385 -1.0748  2.6469  0.9829
  473SOL     MW 1892   0.803   2.528   1.306 -0.4154  0.2016  0.2883
  474SOL     OW 1893   0.820   2.218   1.759 -0.8201  0.1782 -1.0537
  474SOL    HW1 1894   0.912   2.197   1.795  1.4746 -0.7248  1.9292
  474SOL    HW2 1895   0.817   2.215   1.659  1.1069  1.7751  1.1801
  474SOL     MW 1896   0.832   2.215   1.751 -0.2631  0.2698 -0.3654
  475SOL     OW 1897   1.629   3.066   1.420  0.2684 -0.4130  0.2230
  475SOL    HW1 1898   1.554   3.116   1.396  2.7863  0.0101  1.1210
  475SOL    HW2 1899   1.592   2.991   1.465 -2.7239 -0.1777  0.6665
  475SOL     MW 1900   1.615   3.063   1.422  0.2058 -0.3261  0.4000
  476SOL     OW 1901   1.465   2.591   0.801 -0.0061 -0.1193  0.0693
  476SOL    HW1 1902   1.443   2.598   0.896  2.8851  1.4174  3.1103
  476SOL    HW2 1903   1.498   2.685   0.789 -0.1135  2.6163  3.4552
  476SOL     MW 1904   1.467   2.605   0.812  0.3612  0.4444  0.9173
  477SOL     OW 1905   0.888   2.507   0.659  0.0764 -0.1548 -0.4987
  477SOL    HW1 1906   0.915   2.557   0.587  1.4881  3.7305  2.0810
  477SOL    HW2 1907   0.855   2.427   0.613 -0.4849 -1.5766  0.8041
  477SOL     MW 1908   0.887   2.503   0.644  0.1886  0.1702  0.0136
  478SOL     OW 1909   0.240   2.613   0.912 -0.4084 -0.3156 -0.0474
  478SOL    HW1 1910   0.284   2.696   0.948  1.2540  3.6850 -1.5942
  478SOL    HW2 1911   0.313   2.570   0.867  1.3133  2.0168  1.3320
  478SOL     MW 1912   0.255   2.619   0.911  0.0381  0.5200 -0.0695
  479SOL     OW 1913   1.382   1.943   1.315  0.1379 -0.0770 -0.4570
  479SOL    HW1 1914   1.353   1.996   1.391 -0.1767  1.5184  2.5167
  479SOL    HW2 1915   1.456   1.891   1.350  0.6452 -0.1672 -0.9971
  479SOL     MW 1916   1.388   1.943   1.330  0.1633  0.1216 -0.1360
  480SOL     OW 1917   1.835   2.357   1.286  0.2352  0.5396  0.3115
  480SOL    HW1 1918   1.862   2.283   1.336 -1.0109  1.1892 -0.7482
  480SOL    HW2 1919   1.872   2.350   1.194  2.1229 -1.0791 -1.2391
  480SOL     MW 1920   1.844   2.347   1.280  0.3199  0.4117 -0.0329
  481SOL     OW 1921   1.206   0.135   1.113 -0.5662 -0.4439  0.4826
  481SOL    HW1 1922   1.230   0.098   1.028  2.5986 -0.9029 -1.0881
  481SOL    HW2 1923   1.225   0.232   1.104  2.2844 -0.6278  1.5248
  481SOL     MW 1924   1.212   0.143   1.101  0.2275 -0.5287  0.4129
  482SOL     OW 1925   1.026   0.044   0.421 -0.1607  0.2009 -0.1184
  482SOL    HW1 1926   0.945  -0.008   0.419 -0.0575 -0.5405 -0.9114
  482SOL    HW2 1927   1.007   0.133   0.392 -0.9113 -0.2772  0.5308
  482SOL     MW 1928   1.013   0.049   0.417 -0.2461  0.0400 -0.1374
  483SOL     OW 1929   0.346   2.848   0.583  0.0196  0.0610 -0.6966
  483SOL    HW1 1930   0.283   2.889   0.520  2.0569 -1.5013  1.2937
  483SOL    HW2 1931   0.324   2.876   0.669 -2.4010  0.3019 -1.2482
  483SOL     MW 1932   0.335   2.857   0.586 -0.0310 -0.1133 -0.5068
  484SOL     OW 1933   1.668   1.870   1.439  0.3112 -0.1269  0.8198
  484SOL    HW1 1934   1.722   1.941   1.405 -1.3611  3.1635 -3.3880
  484SOL    HW2 1935   1.665   1.877   1.533  0.9138 -0.7245  0.2628
  484SOL     MW 1936   1.675   1.881   1.447  0.1701  0.2284  0.1912
  485SOL     OW 1937   0.569   2.316   0.342 -0.0997 -0.1969 -0.0085
  485SOL    HW1 1938   0.573   2.350   0.433 -1.1434  1.4240 -1.3818
  485SOL    HW2 1939   0.501   2.377   0.306  3.4134  0.3891  4.0464
  485SOL     MW 1940   0.561   2.329   0.349  0.2261  0.0943  0.3453
  486SOL     OW 1941   0.119   2.456   1.441  0.0499 -0.2644  0.1455
  486SOL    HW1 1942   0.119   2.549   1.400  2.7742 -0.4788 -0.6455
  486SOL    HW2 1943   0.113   2.465   1.535 -0.7752  0.3536 -3.4015
  486SOL     MW 1944   0.118   2.470   1.448  0.3005 -0.2111 -0.4268
  487SOL     OW 1945   1.284   1.602   0.966  0.0286  0.3941 -0.1943
  487SOL    HW1 1946   1.233   1.684   0.972  0.1116 -0.8100 -2.0244
  487SOL    HW2 1947   1.376   1.623   0.981  0.9036  0.1332  0.7326
  487SOL     MW 1948   1.290   1.615   0.968  0.1550  0.2008 -0.3135
  488SOL     OW 1949   1.508   1.840   0.611  0.1504  0.1429 -0.3390
  488SOL    HW1 1950   1.495   1.928   0.579 -1.5580  0.5633 -1.1141
  488SOL    HW2 1951   1.457   1.783   0.549  1.6170  2.1662 -2.5506
  488SOL     MW 1952   1.500   1.844   0.599  0.1185  0.4653 -0.7331
  489SOL     OW 1953   0.715   0.773   0.527  0.4855  0.3557 -0.3764
  489SOL    HW1 1954   0.716   0.684   0.499  1.9155 -0.5696  0.5316
  489SOL    HW2 1955   0.707   0.777   0.623 -0.4631  1.5286 -1.5146
  489SOL     MW 1956   0.714   0.762   0.536  0.5490  0.3883 -0.4068
  490SOL     OW 1957   1.400   2.078   0.434  0.0221 -0.4250 -0.0770
  490SOL    HW1 1958   1.470   2.133   0.398  0.5494  0.3280  0.6390
  490SOL    HW2 1959   1.322   2.120   0.394 -0.3551 -1.2128  0.1924
  490SOL     MW 1960   1.399   2.090   0.424  0.0419 -0.4296  0.0530
  491SOL     OW 1961   1.275   2.977   0.410  0.1584  0.1338  0.4318
  491SOL    HW1 1962   1.304   3.010   0.499 -0.9815 -2.2864  2.9431
  491SOL    HW2 1963   1.200   3.025   0.391  2.3626  0.2276  2.3520
  491SOL     MW 1964   1.269   2.988   0.419  0.2988 -0.1731  1.0165
  492SOL     OW 1965   1.431   2.147   0.690  0.1226  0.5830 -0.5920
  492SOL    HW1 1966   1.420   2.112   0.601  0.4200 -0.1013 -0.3247
  492SOL    HW2 1967   1.388   2.080   0.746 -0.4474 -0.7301 -0.0171
  492SOL     MW 1968   1.424   2.133   0.685  0.0866  0.3195 -0.4808
  493SOL     OW 1969   0.197   2.988   0.373  0.4462  0.1316  0.8575
  493SOL    HW1 1970   0.120   2.990   0.433 -1.4367 -2.5349 -0.0369
  493SOL    HW2 1971   0.168   3.022   0.291 -0.4308  2.6307  1.6767
  493SOL     MW 1972   0.183   2.993   0.370  0.0821  0.1095  0.8476
  494SOL     OW 1973   0.390   2.403   1.806  0.0269  0.0297  0.2103
  494SOL    HW1 1974   0.396   2.308   1.840  0.9977 -0.2327  2.4402
  494SOL    HW2 1975   0.423   2.415   1.714  1.6436 -0.6628 -1.3482
  494SOL     MW 1976   0.395   2.392   1.798  0.3683 -0.0963  0.2989
  495SOL     OW 1977   2.899   1.653   2.746  0.1938  0.6513 -0.5008
  495SOL    HW1 1978   2.848   1.735   2.776  1.8263  1.8945 -0.3638
  495SOL    HW2 1979   2.893   1.592   2.818  1.5083 -1.9967 -1.4266
  495SOL     MW 1980   2.891   1.656   2.760  0.5826  0.4660 -0.6049
  496SOL     OW 1981   2.756   2.270   2.722 -0.4311 -0.3180 -0.3493
  496SOL    HW1 1982   2.795   2.186   2.747  0.7820  1.3941  0.9517
  496SOL    HW2 1983   2.832   2.331   2.722  1.4305  0.6999 -0.7476
  496SOL     MW 1984   2.771   2.267   2.725 -0.0254  0.0422 -0.2302
  497SOL     OW 1985   1.496   2.333   2.548 -0.1902 -0.5369  0.2551
  497SOL    HW1 1986   1.510   2.265   2.470 -0.4120  0.2905 -1.5964
  497SOL    HW2 1987   1.474   2.274   2.622 -0.6640  0.3696  0.3135
  497SOL     MW 1988   1.495   2.316   2.548 -0.2819 -0.3081  0.0185
  498SOL     OW 1989   1.489   2.793   2.294  0.5873  0.4976 -0.1347
  498SOL    HW1 1990   1.475   2.700   2.273  1.1384  0.3283 -1.2751
  498SOL    HW2 1991   1.563   2.798   2.349  0.1450 -2.2025 -0.2055
  498SOL     MW 1992   1.497   2.782   2.299  0.6016  0.1190 -0.2945
  499SOL     OW 1993   0.943   0.139   0.093 -0.1270 -0.1042 -0.3581
  499SOL    HW1 1994   0.846   0.150   0.113 -1.1954  3.1428 -0.9683
  499SOL    HW2 1995   0.944   0.045   0.076 -1.2274 -0.1120  0.5165
  499SOL     MW 1996   0.930   0.128   0.093 -0.4132  0.3231 -0.3232
  500SOL     OW 1997   1.029   2.511   2.748 -0.0644 -0.1671 -0.0376
  500SOL    HW1 1998   1.078   2.494   2.829 -1.9390  3.2648  0.6137
  500SOL    HW2 1999   0.961   2.579   2.775 -0.4776  1.1841 -2.2743
  500SOL     MW 2000   1.027   2.518   2.762 -0.3663  0.4640 -0.2468
  501SOL     OW 2001   1.733   2.223   0.011 -0.4267  0.0794  0.3181
  501SOL    HW1 2002   1.741   2.321   0.009 -1.2754  1.0481  1.5097
  501SOL    HW2 2003   1.824   2.202   0.037  0.3942 -0.4980 -1.6090
  501SOL     MW 2004   1.746   2.233   0.014 -0.4304  0.1311  0.2211
  502SOL     OW 2005   0.232   2.698   2.996 -0.7617  0.0044 -0.1186
  502SOL    HW1 2006   0.151   2.659   2.959  0.7051 -0.4605  1.0587
  502SOL    HW2 2007   0.261   2.763   2.934 -1.5077 -0.4158 -0.6049
  502SOL     MW 2008   0.225   2.701   2.982 -0.6666 -0.1124 -0.0274
  503SOL     OW 2009   1.129   2.596   2.123 -0.3047 -0.0533 -0.0369
  503SOL    HW1 2010   1.200   2.587   2.059 -1.3092  1.4186  1.9269
  503SOL    HW2 2011   1.067   2.652   2.082  1.5366  0.2659  0.1516
  503SOL     MW 2012   1.130   2.602   2.109 -0.1943  0.1830  0.2471
  504SOL     OW 2013   0.081   2.619   2.136  0.3765 -0.4502 -0.3609
  504SOL    HW1 2014   0.152   2.607   2.075  1.9927 -1.2567  0.4549
  504SOL    HW2 2015   0.077   2.538   2.190  4.0492  0.4565 -2.0180
  504SOL     MW 2016   0.090   2.607   2.135  1.0743 -0.4370 -0.4719
  505SOL     OW 2017   1.608   2.720   2.740 -0.0921 -0.9841 -0.0451
  505SOL    HW1 2018   1.660   2.753   2.668  1.4298 -0.4836 -3.4723
  505SOL    HW2 2019   1.536   2.783   2.762 -2.2742 -2.1153 -0.0555
  505SOL     MW 2020   1.605   2.733   2.733 -0.1792 -1.0673 -0.4986
  506SOL     OW 2021   1.588   0.045   2.813  0.1337 -0.4894  0.5968
  506SOL    HW1 2022   1.578  -0.013   2.894  0.8651 -0.4729 -1.6153
  506SOL    HW2 2023   1.648   0.007   2.754 -0.5469  0.0291 -1.2605
  506SOL     MW 2024   1.594   0.032   2.816  0.1404 -0.4188  0.0599
  507SOL     OW 2025   0.864   2.706   2.850  0.1701 -0.1737 -0.1319
  507SOL    HW1 2026   0.880   2.790   2.805 -2.1031  0.9465  0.0180
  507SOL    HW2 2027   0.780   2.674   2.814 -0.3956 -1.7860 -0.9010
  507SOL     MW 2028   0.855   2.713   2.839 -0.2045 -0.2387 -0.2136
  508SOL     OW 2029   1.155   2.077   2.590 -0.6217 -0.2863 -0.2454
  508SOL    HW1 2030   1.236   2.097   2.635  0.3510 -1.5024  1.5652
  508SOL    HW2 2031   1.085   2.098   2.648  0.8105  0.4031  0.3322
  508SOL     MW 2032   1.157   2.083   2.604 -0.3044 -0.3558  0.0697
  509SOL     OW 2033   0.636   2.570   2.794 -0.3934 -0.1110  0.1598
  509SOL    HW1 2034   0.653   2.508   2.723  1.3647 -0.5314  1.7550
  509SOL    HW2 2035   0.570   2.635   2.757  0.1322  1.3144  3.1537
  509SOL     MW 2036   0.629   2.571   2.780 -0.0921  0.0216  0.7653
  510SOL     OW 2037   1.532   2.569   1.645 -0.1978  0.1654  0.5178
  510SOL    HW1 2038   1.525   2.661   1.629 -0.4262  0.4554 -1.9898
  510SOL    HW2 2039   1.486   2.557   1.732  0.9851 -0.1206  2.3162
  510SOL     MW 2040   1.525   2.579   1.654 -0.0719  0.1659  0.4242
  511SOL     OW 2041   0.354   2.507   2.544 -0.1958  0.1466 -0.8082
  511SOL    HW1 2042   0.445   2.477   2.550  0.5630 -1.0075 -0.5596
  511SOL    HW2 2043   0.341   2.535   2.452 -0.1893  0.4776  1.3680
  511SOL     MW 2044   0.364   2.507   2.532 -0.0948  0.0380 -0.4883
  512SOL     OW 2045   1.015   2.006   2.854  0.0690  0.3969 -0.2145
  512SOL    HW1 2046   0.992   2.065   2.927 -0.4400  0.5750  0.6336
  512SOL    HW2 2047   1.014   1.913   2.871  0.1722  0.8085  1.2886
  512SOL     MW 2048   1.012   2.002   2.866  0.0154  0.4747  0.0957
  513SOL     OW 2049   1.562   2.545   2.168  0.6834 -0.0088 -0.3931
  513SOL    HW1 2050   1.648   2.573   2.144 -2.7167 -2.6900  0.1898
  513SOL    HW2 2051   1.582   2.511   2.250 -1.7498  1.9485 -2.0354
  513SOL     MW 2052   1.576   2.544   2.176 -0.0863 -0.1043 -0.5329
  514SOL     OW 2053   0.150   2.344   2.644  0.8077  0.2527 -0.0245
  514SOL    HW1 2054   0.194   2.427   2.614 -0.8349  1.0543  2.4014
  514SOL    HW2 2055   0.199   2.315   2.723 -2.9469 -1.0795 -1.2301
  514SOL     MW 2056   0.162   2.351   2.650  0.0956  0.1827  0.1365
  515SOL     OW 2057   1.091   1.920   1.813  0.5226  0.1466  0.6089
  515SOL    HW1 2058   1.086   2.017   1.779 -0.9306  1.1795 -1.5582
  515SOL    HW2 2059   1.139   1.927   1.893 -0.6733  0.1632 -2.5343
  515SOL     MW 2060   1.097   1.934   1.819  0.1730  0.2850 -0.0917
  516SOL     OW 2061   1.340   2.595   2.937  0.5645 -0.2798  0.2608
  516SOL    HW1 2062   1.361   2.588   2.842 -2.0117 -2.2878  0.1310
  516SOL    HW2 2063   1.309   2.511   2.957  0.1535 -1.7553 -0.0882
  516SOL     MW 2064   1.339   2.583   2.927  0.1704 -0.7394  0.1976
  517SOL     OW 2065   0.568   2.372   2.286  0.5270  0.0034  0.0533
  517SOL    HW1 2066   0.521   2.454   2.286  1.1432 -0.6193 -3.1285
  517SOL    HW2 2067   0.535   2.325   2.211  1.0091 -1.0031 -0.6282
  517SOL     MW 2068   0.557   2.377   2.276  0.6719 -0.2115 -0.4564
  518SOL     OW 2069   1.810   0.067   3.067 -0.2220 -0.5599 -0.0534
  518SOL    HW1 2070   1.826   0.118   3.145  1.3021  2.4524  1.1374
  518SOL    HW2 2071   1.728   0.023   3.066 -0.8645 -0.0815  0.3376
  518SOL     MW 2072   1.801   0.068   3.077 -0.1057 -0.0993  0.1553
  519SOL     OW 2073   0.708   2.472   1.804  1.2706  0.5538 -1.1435
  519SOL    HW1 2074   0.727   2.382   1.790 -1.4395  1.1575  0.4802
  519SOL    HW2 2075   0.611   2.488   1.799  1.0405  2.3220  0.1831
  519SOL     MW 2076   0.698   2.463   1.802  0.8826  0.8667 -0.7542
  520SOL     OW 2077   1.245   2.142   2.941  0.1537  0.5319  0.6249
  520SOL    HW1 2078   1.174   2.081   2.922  1.1265  1.7702 -0.3982
  520SOL    HW2 2079   1.288   2.098   3.015 -1.5271 -2.4051 -3.6513
  520SOL     MW 2080   1.241   2.128   2.948  0.0603  0.3078 -0.0743
  521SOL     OW 2081   1.801   2.065   2.234 -0.0570 -0.0868 -0.2368
  521SOL    HW1 2082   1.804   2.079   2.138  0.1032  0.9823 -0.2593
  521SOL    HW2 2083   1.799   1.972   2.231 -1.1842 -0.1608 -0.1468
  521SOL     MW 2084   1.801   2.055   2.221 -0.1846  0.0445 -0.2279
  522SOL     OW 2085   2.887   2.541   2.234  0.0973 -0.1351 -0.0445
  522SOL    HW1 2086   2.973   2.496   2.242 -1.6869  2.1234 -1.1525
  522SOL    HW2 2087   2.910   2.625   2.281 -0.9746 -0.9098  1.2821
  522SOL     MW 2088   2.901   2.546   2.242 -0.2796  0.0607 -0.0157
  523SOL     OW 2089   0.820   1.498   2.144  0.0227  0.7391 -0.2566
  523SOL    HW1 2090   0.777   1.539   2.073 -0.6563 -1.4384 -0.8200
  523SOL    HW2 2091   0.911   1.495   2.121 -0.7053  0.1309  0.9699
  523SOL     MW 2092   0.826   1.503   2.132 -0.1629  0.3716 -0.1691
  524SOL     OW 2093   0.619   2.351   2.995 -0.4039 -0.5639 -0.1560
  524SOL    HW1 2094   0.613   2.418   2.927 -2.5136  0.4719 -0.6664
  524SOL    HW2 2095   0.691   2.293   2.978  0.8767 -2.8971 -1.6288
  524SOL     MW 2096   0.627   2.352   2.984 -0.5133 -0.7351 -0.4177
  525SOL     OW 2097   0.449   2.209   2.120  0.5514  0.4115 -0.0075
  525SOL    HW1 2098   0.414   2.126   2.129  2.5058  1.8508 -0.0830
  525SOL    HW2 2099   0.539   2.187   2.082  2.4547 -1.5772  0.7645
  525SOL     MW 2100   0.456   2.196   2.116  1.0604  0.3390  0.0844
  526SOL     OW 2101   0.684   2.150   2.011 -0.0594  0.7222 -0.5034
  526SOL    HW1 2102   0.688   2.142   1.916  0.4468 -1.0032  3.9199
  526SOL    HW2 2103   0.768   2.162   2.049  0.5781  0.5863 -1.3611
  526SOL     MW 2104   0.695   2.151   2.003  0.0915  0.4767 -0.0329
  527SOL     OW 2105   1.277   1.899   2.021  0.2309  0.3116  0.4179
  527SOL    HW1 2106   1.255   1.856   2.101 -3.0005 -0.9090 -0.6957
  527SOL    HW2 2107   1.316   1.830   1.966  0.4381  1.5351 -0.5469
  527SOL     MW 2108   1.280   1.884   2.025 -0.1681  0.3120  0.1437
  528SOL     OW 2109   0.637   2.885   2.967  0.3422  0.1645 -0.2700
  528SOL    HW1 2110   0.624   2.984   2.973  0.5577 -2.1499  5.5443
  528SOL    HW2 2111   0.612   2.863   2.878  1.3112  0.2209  1.9226
  528SOL     MW 2112   0.632   2.895   2.956  0.4985 -0.1334  0.7864
  529SOL     OW 2113   1.095   2.194   1.824 -0.7130 -0.3411  0.1736
  529SOL    HW1 2114   1.109   2.221   1.917 -1.8658 -3.4804 -0.5262
  529SOL    HW2 2115   1.094   2.276   1.769  0.1683  1.4225  0.2901
  529SOL     MW 2116   1.096   2.208   1.829 -0.7488 -0.5226  0.0966
  530SOL     OW 2117   1.141   2.383   2.983  0.2090 -0.0224  0.5861
  530SOL    HW1 2118   1.065   2.384   3.042  1.1482 -0.6121  0.8967
  530SOL    HW2 2119   1.163   2.293   2.970 -1.0896  0.4918 -0.3494
  530SOL     MW 2120   1.133   2.371   2.989  0.1616 -0.0323  0.5037
  531SOL     OW 2121   0.927   1.805   2.638  0.6545  0.4736  0.2666
  531SOL    HW1 2122   0.930   1.884   2.692  1.3892 -2.8773  1.5763
  531SOL    HW2 2123   0.852   1.762   2.682  2.3362  1.2743 -1.4172
  531SOL     MW 2124   0.918   1.810   2.651  0.9733  0.1371  0.2172
  532SOL     OW 2125   1.657   0.294   2.856  0.1893  0.1392 -0.0627
  532SOL    HW1 2126   1.632   0.205   2.847  0.7240 -1.1582 -0.0460
  532SOL    HW2 2127   1.747   0.291   2.883  0.2627 -1.8593  0.6252
  532SOL     MW 2128   1.666   0.282   2.859  0.2696 -0.2956  0.0303
  533SOL     OW 2129   1.789   2.727   2.933  0.0023 -0.3872  0.2474
  533SOL    HW1 2130   1.783   2.641   2.982 -0.4595  0.4668 -1.6210
  533SOL    HW2 2131   1.722   2.723   2.860  0.9479  0.0801 -1.6586
  533SOL     MW 2132   1.780   2.715   2.930  0.0661 -0.2129 -0.2506
  534SOL     OW 2133   1.730   2.465   2.486  0.0092  0.3939 -0.5850
  534SOL    HW1 2134   1.656   2.421   2.524 -0.6845 -0.3654 -0.7737
  534SOL    HW2 2135   1.809   2.440   2.538  0.2144  1.4095  1.5587
  534SOL     MW 2136   1.731   2.456   2.498 -0.0552  0.4277 -0.3270
  535SOL     OW 2137   1.817   2.358   1.910 -0.4466 -0.5624 -0.6081
  535SOL    HW1 2138   1.764   2.352   1.830  3.6556 -0.0015  0.3096
  535SOL    HW2 2139   1.908   2.375   1.877  1.0493  0.8214  4.1210
  535SOL     MW 2140   1.822   2.360   1.895  0.2920 -0.3058  0.1369
  536SOL     OW 2141   0.456   1.811   2.005  0.0115 -0.0192 -0.0757
  536SOL    HW1 2142   0.453   1.865   1.924 -3.5903  0.1181 -1.7585
  536SOL    HW2 2143   0.540   1.821   2.043 -1.6567 -1.3232  0.4624
  536SOL     MW 2144   0.467   1.820   1.999 -0.6838 -0.1732 -0.2268
  537SOL     OW 2145   1.031   0.185   2.901  0.8402  0.4060  0.0556
  537SOL    HW1 2146   0.978   0.190   2.987 -2.6620 -0.2007  0.8792
  537SOL    HW2 2147   1.069   0.268   2.896  0.6850 -1.3165  0.7385
  537SOL     MW 2148   1.029   0.197   2.911  0.3576  0.0987  0.2543
  538SOL     OW 2149   1.309   0.055   3.009 -0.0223  0.1556 -0.5328
  538SOL    HW1 2150   1.224   0.089   2.970 -2.9156  1.9783 -1.0590
  538SOL    HW2 2151   1.361   0.135   3.012 -0.2700 -1.1569 -0.7690
  538SOL     MW 2152   1.305   0.070   3.004 -0.4367  0.2229 -0.6334
  539SOL     OW 2153   0.729   2.709   2.520  0.6012 -0.0490 -0.1420
  539SOL    HW1 2154   0.807   2.763   2.540 -1.1419  4.0043  0.9684
  539SOL    HW2 2155   0.774   2.623   2.519  0.1553  1.1449  1.4155
  539SOL     MW 2156   0.745   2.705   2.523  0.3124  0.6433  0.2100
  540SOL     OW 2157   0.337   2.263   2.838 -0.5714  0.0927  0.2281
  540SOL    HW1 2158   0.421   2.286   2.881  0.3303  2.4782  1.8323
  540SOL    HW2 2159   0.297   2.217   2.911 -1.4576  2.6768 -1.2311
  540SOL     MW 2160   0.343   2.260   2.853 -0.5694  0.7484  0.2472
  541SOL     OW 2161   0.188   2.862   2.241 -0.1669 -0.3431 -0.4886
  541SOL    HW1 2162   0.175   2.789   2.181  1.6838  2.1366 -2.6638
  541SOL    HW2 2163   0.213   2.823   2.326 -1.9862 -1.1532 -0.5654
  541SOL     MW 2164   0.190   2.847   2.244 -0.1628 -0.1228 -0.7857
  542SOL     OW 2165   0.901   2.279   2.702  0.2147 -0.1739 -0.2523
  542SOL    HW1 2166   0.892   2.241   2.793  2.1123 -0.9016 -3.4005
  542SOL    HW2 2167   0.950   2.365   2.714 -1.4605  0.6103  1.5180
  542SOL     MW 2168   0.906   2.286   2.716  0.2440 -0.1665 -0.4341
  543SOL     OW 2169   1.403   2.561   2.674  0.1194 -0.3489 -0.3972
  543SOL    HW1 2170   1.417   2.481   2.616 -1.1203 -2.5105 -0.2214
  543SOL    HW2 2171   1.488   2.611   2.674 -0.1143  0.5120 -0.0137
  543SOL     MW 2172   1.416   2.557   2.666 -0.0750 -0.5205 -0.3234
  544SOL     OW 2173   0.673   0.163   2.670 -0.4247  0.4636  0.7972
  544SOL    HW1 2174   0.578   0.151   2.645  1.5598  3.0185  1.2329
  544SOL    HW2 2175   0.727   0.110   2.613 -3.5995 -0.0692  1.4131
  544SOL     MW 2176   0.668   0.155   2.659 -0.5818  0.7304  0.9359
  545SOL     OW 2177   1.536   2.156   2.337  0.0008  0.1181  0.3367
  545SOL    HW1 2178   1.474   2.105   2.290  2.4528 -0.8725 -2.4369
  545SOL    HW2 2179   1.617   2.117   2.291 -3.3281  0.9798 -1.2230
  545SOL     MW 2180   1.538   2.144   2.325 -0.1149  0.1011 -0.2351
  546SOL     OW 2181   2.999   1.979   0.090  0.3283  0.4612 -0.5117
  546SOL    HW1 2182   2.995   2.052   0.027  0.4666 -1.1857 -0.1122
  546SOL    HW2 2183   3.087   1.955   0.081  2.7080 -0.0405  0.4166
  546SOL     MW 2184   3.010   1.985   0.081  0.6605  0.1777 -0.3365
  547SOL     OW 2185   0.142   2.983   0.078  0.1381  0.9040  0.1870
  547SOL    HW1 2186   0.185   3.027   0.004  1.9890  0.4895 -0.7106
  547SOL    HW2 2187   0.192   2.902   0.093  1.5356  1.2092 -0.7861
  547SOL     MW 2188   0.154   2.978   0.070  0.5667  0.8896 -0.0598
  548SOL     OW 2189   0.301   2.484   0.269 -0.1824 -0.1111  0.0539
  548SOL    HW1 2190   0.271   2.546   0.200  0.0811 -1.3672 -3.4347
  548SOL    HW2 2191   0.268   2.401   0.244 -1.0709 -1.0708  0.4568
  548SOL     MW 2192   0.293   2.481   0.257 -0.2649 -0.4034 -0.3532
  549SOL     OW 2193   0.720   1.887   2.106  0.1844  0.5427  0.4987
  549SOL    HW1 2194   0.715   1.973   2.081  2.5180 -1.6903  1.1931
  549SOL    HW2 2195   0.759   1.876   2.191  0.7127 -0.0415  0.0867
  549SOL     MW 2196   0.724   1.897   2.114  0.5620  0.1710  0.5360
  550SOL     OW 2197   1.817   1.757   2.571 -0.3368  0.2000  0.1848
  550SOL    HW1 2198   1.844   1.773   2.481  1.3005 -0.9515  0.4583
  550SOL    HW2 2199   1.813   1.837   2.618  2.5095 -0.8637  0.4610
  550SOL     MW 2200   1.820   1.769   2.565  0.2548 -0.0923  0.2573
  551SOL     OW 2201   0.847   2.350   0.208 -0.6812  0.3580 -0.4990
  551SOL    HW1 2202   0.937   2.372   0.201 -1.0339  1.7694 -0.7655
  551SOL    HW2 2203   0.845   2.257   0.201 -0.9193 -0.7024  3.1386
  551SOL     MW 2204   0.859   2.341   0.206 -0.7592  0.4043 -0.0542
  552SOL     OW 2205   1.810   1.789   2.303  0.0723  0.8567 -0.0919
  552SOL    HW1 2206   1.720   1.780   2.312  0.9554 -0.8786 -1.2137
  552SOL    HW2 2207   1.844   1.721   2.227  1.3018 -0.6058  2.5139
  552SOL     MW 2208   1.803   1.779   2.294  0.3511  0.4348  0.1039
  553SOL     OW 2209   1.218   2.320   1.538  0.0437  0.0595  0.1689
  553SOL    HW1 2210   1.266   2.240   1.556  2.5105  0.1512 -2.1439
  553SOL    HW2 2211   1.273   2.385   1.496  1.1530  0.3510  0.7511
  553SOL     MW 2212   1.231   2.318   1.535  0.5155  0.1100 -0.0595
  554SOL     OW 2213   0.570   2.833   2.701 -0.0060  0.1783 -0.8308
  554SOL    HW1 2214   0.539   2.908   2.651 -0.9664 -0.2322  2.6287
  554SOL    HW2 2215   0.622   2.789   2.641 -0.5010 -1.3278  3.4352
  554SOL     MW 2216   0.573   2.837   2.686 -0.1980 -0.0746  0.1885
  555SOL     OW 2217   0.598   2.390   2.609 -0.4581  0.3883 -0.1585
  555SOL    HW1 2218   0.595   2.300   2.647 -0.6950  1.3848 -0.0075
  555SOL    HW2 2219   0.614   2.372   2.521 -0.6479  0.6069  0.8472
  555SOL     MW 2220   0.600   2.376   2.602 -0.5144  0.5486 -0.0059
  556SOL     OW 2221   1.013   1.805   0.127 -0.6237  0.3157 -0.2049
  556SOL    HW1 2222   1.034   1.786   0.035 -2.1512 -1.1422  1.3691
  556SOL    HW2 2223   1.097   1.805   0.170  0.7232 -1.0367 -0.9682
  556SOL     MW 2224   1.027   1.802   0.121 -0.6475 -0.0551 -0.0980
  557SOL     OW 2225   0.930   2.687   0.444 -0.9233 -0.7789  0.0375
  557SOL    HW1 2226   0.994   2.686   0.371  0.2744  1.3330 -0.3285
  557SOL    HW2 2227   0.899   2.784   0.456  0.8305  1.9912 -1.0227
  557SOL     MW 2228   0.934   2.700   0.436 -0.5339 -0.1348 -0.1507
  558SOL     OW 2229   0.264   2.127   0.011 -0.1999  0.3144  0.5318
  558SOL    HW1 2230   0.228   2.036   0.032  0.1268 -2.9608  1.7326
  558SOL    HW2 2231   0.209   2.196   0.045  0.8474  4.3672 -0.8169
  558SOL     MW 2232   0.252   2.124   0.018 -0.0186  0.4170  0.5123
  559SOL     OW 2233   1.180   2.314   2.052  0.2823  0.7410  0.4789
  559SOL    HW1 2234   1.135   2.396   2.076 -0.8300 -3.1001 -0.7104
  559SOL    HW2 2235   1.184   2.271   2.137 -1.9936  0.7086  2.3153
  559SOL     MW 2236   1.175   2.319   2.066 -0.1647  0.2299  0.5643
  560SOL     OW 2237   1.989   2.797   0.026  0.3308 -0.3319 -0.3097
  560SOL    HW1 2238   2.031   2.867  -0.025 -0.2266 -2.2732 -0.7998
  560SOL    HW2 2239   1.924   2.763  -0.032  1.7410 -0.1047  0.0766
  560SOL     MW 2240   1.986   2.802   0.012  0.4433 -0.5580 -0.3234
  561SOL     OW 2241   0.462   2.070   0.208 -0.4567 -0.3376  0.0608
  561SOL    HW1 2242   0.421   2.130   0.141 -0.4782  5.2340 -2.8022
  561SOL    HW2 2243   0.525   2.126   0.247 -0.7452 -1.8927  1.1152
  561SOL     MW 2244   0.465   2.085   0.204 -0.4976  0.1923 -0.1779
  562SOL     OW 2245   0.908   2.170   2.174  0.0774  0.0614 -0.1453
  562SOL    HW1 2246   0.906   2.262   2.189 -0.2516 -1.0704  0.3438
  562SOL    HW2 2247   0.988   2.129   2.204 -1.0877 -0.6200 -1.0309
  562SOL     MW 2248   0.919   2.177   2.180 -0.1197 -0.1778 -0.1976
  563SOL     OW 2249   1.196   0.248   0.560  0.2918 -0.2771 -0.1475
  563SOL    HW1 2250   1.153   0.258   0.473 -2.7588  0.8704 -0.1982
  563SOL    HW2 2251   1.232   0.156   0.560  1.6794 -2.5292 -0.4227
  563SOL     MW 2252   1.195   0.237   0.548  0.0724 -0.4229 -0.1905
  564SOL     OW 2253   1.046   2.580   2.396  0.3558 -0.3529  0.3479
  564SOL    HW1 2254   1.095   2.580   2.315  1.7065  2.8069  1.0128
  564SOL    HW2 2255   1.092   2.638   2.455  3.1227  0.4643 -0.8670
  564SOL     MW 2256   1.059   2.588   2.393  0.8991  0.1719  0.2753
  565SOL     OW 2257   2.916   2.652   2.587 -0.5331  0.1106  0.0430
  565SOL    HW1 2258   2.992   2.702   2.561 -0.9228  1.0731  2.4799
  565SOL    HW2 2259   2.837   2.667   2.536  3.2833  1.2073  4.0992
  565SOL     MW 2260   2.916   2.661   2.577 -0.0810  0.3823  0.8997
  566SOL     OW 2261   2.269   1.933   2.340  0.0344 -0.3553  0.0269
  566SOL    HW1 2262   2.294   1.950   2.247  0.1491 -0.8390 -0.6544
  566SOL    HW2 2263   2.303   2.012   2.385 -0.9159  0.4685 -0.4860
  566SOL     MW 2264   2.277   1.946   2.333 -0.0759 -0.3104 -0.1307
  567SOL     OW 2265   1.196   2.872   0.080 -0.2711 -0.5116  0.0995
  567SOL    HW1 2266   1.210   2.961   0.071 -1.2086 -1.4947 -0.0718
  567SOL    HW2 2267   1.178   2.841  -0.012 -0.9673 -1.9408 -0.9530
  567SOL     MW 2268   1.195   2.879   0.067 -0.4866 -0.8299 -0.0620
  568SOL     OW 2269   1.653   2.124   2.850  0.5086 -0.1520 -0.4371
  568SOL    HW1 2270   1.696   2.175   2.922 -1.4393  0.4198  1.5980
  568SOL    HW2 2271   1.720   2.070   2.814 -3.2152  0.1826 -3.5978
  568SOL     MW 2272   1.668   2.123   2.855 -0.2397 -0.0324 -0.5856
  569SOL     OW 2273   0.183   2.188   2.433  1.0067 -0.1378 -0.1916
  569SOL    HW1 2274   0.116   2.215   2.370  1.3855 -1.6004  0.8131
  569SOL    HW2 2275   0.192   2.261   2.502  1.1533 -1.1172 -0.3779
  569SOL     MW 2276   0.175   2.201   2.434  1.0760 -0.4600 -0.0836
  570SOL     OW 2277   1.440   0.426   0.499  0.6383 -0.5333 -0.0592
  570SOL    HW1 2278   1.379   0.370   0.547  3.7021  0.9139  2.4736
  570SOL    HW2 2279   1.489   0.456   0.571 -4.0633  3.1456  2.1679
  570SOL     MW 2280   1.438   0.422   0.515  0.4222  0.1430  0.5688
  571SOL     OW 2281   1.493   2.389   1.916  0.1365  0.0204 -0.0399
  571SOL    HW1 2282   1.525   2.439   1.989  2.9415 -1.0089 -1.2245
  571SOL    HW2 2283   1.439   2.321   1.953 -0.5083  2.3231  0.9673
  571SOL     MW 2284   1.490   2.387   1.931  0.4215  0.1885 -0.0633
  572SOL     OW 2285   0.933   2.629   3.102  0.4033  0.2580  1.0658
  572SOL    HW1 2286   0.896   2.643   3.014  0.2871  0.0599  2.2174
  572SOL    HW2 2287   0.862   2.577   3.143 -2.6623  0.4699  0.9150
  572SOL     MW 2288   0.919   2.624   3.096 -0.0165  0.2598  1.1978
  573SOL     OW 2289   1.120   2.424   0.184  0.1886 -0.1812 -0.4090
  573SOL    HW1 2290   1.197   2.407   0.133 -1.3652  0.0186  2.6561
  573SOL    HW2 2291   1.127   2.511   0.217  1.5144  1.2163  0.8639
  573SOL     MW 2292   1.131   2.433   0.181  0.1585  0.0296  0.1634
  574SOL     OW 2293   1.138   2.690   0.258 -0.0180  0.5111  0.1558
  574SOL    HW1 2294   1.217   2.695   0.304 -1.4863 -2.4902 -1.4320
  574SOL    HW2 2295   1.158   2.748   0.178  2.0996 -1.4474  0.6868
  574SOL     MW 2296   1.151   2.699   0.254  0.0677 -0.1433  0.0164
  575SOL     OW 2297   3.049   2.287   1.841  0.0855 -0.0352  0.0707
  575SOL    HW1 2298   3.055   2.198   1.795 -3.0332 -0.6034 -2.0535
  575SOL    HW2 2299   3.104   2.350   1.792 -0.6438  1.4710 -0.2674
  575SOL     MW 2300   3.057   2.283   1.828 -0.4222  0.0886 -0.2542
  576SOL     OW 2301   2.810   1.819   2.078  0.1981 -0.2449 -0.1847
  576SOL    HW1 2302   2.807   1.903   2.038 -0.0696 -2.1399 -0.5740
  576SOL    HW2 2303   2.737   1.767   2.047 -0.0450  1.3361 -1.3119
  576SOL     MW 2304   2.800   1.823   2.069  0.1307 -0.2863 -0.3848
  577SOL     OW 2305   2.103   0.276   0.073  0.0717  0.0598  0.0193
  577SOL    HW1 2306   2.035   0.323   0.021 -0.8443  0.9889 -2.7101
  577SOL    HW2 2307   2.062   0.213   0.124 -0.9565  4.6653 -0.6442
  577SOL     MW 2308   2.089   0.274   0.073 -0.1848  0.7900 -0.4284
  578SOL     OW 2309   2.026   2.062   2.393 -0.0270 -0.0500  0.8189
  578SOL    HW1 2310   1.960   2.052   2.327  4.4890 -0.2487 -0.8331
  578SOL    HW2 2311   2.102   2.006   2.360  0.2943  0.0065 -1.1897
  578SOL     MW 2312   2.028   2.054   2.380  0.6113 -0.0687  0.3360
  579SOL     OW 2313   0.850   2.411   2.473  0.3962  0.1224 -0.5727
  579SOL    HW1 2314   0.856   2.349   2.549 -0.0347 -2.4145 -1.3022
  579SOL    HW2 2315   0.937   2.460   2.462 -0.9330  0.4346  0.1161
  579SOL     MW 2316   0.863   2.409   2.482  0.1640 -0.1711 -0.5781
  580SOL     OW 2317   0.891   2.973   0.026  0.0080  0.5693 -0.2613
  580SOL    HW1 2318   0.941   2.897   0.041 -2.8317  3.2983 -2.1233
  580SOL    HW2 2319   0.845   2.958  -0.056  0.0690 -0.8618 -2.2321
  580SOL     MW 2320   0.891   2.961   0.017 -0.3586  0.7406 -0.7670
  581SOL     OW 2321   1.063   2.498   1.704 -0.1177 -0.5985  0.0788
  581SOL    HW1 2322   1.123   2.559   1.745  0.3272  1.3253 -4.5377
  581SOL    HW2 2323   1.107   2.468   1.629  0.6226 -2.1353  1.4118
  581SOL     MW 2324   1.076   2.502   1.700  0.0387 -0.5474 -0.3544
  582SOL     OW 2325   0.007   2.839   2.510  0.4919  0.1998 -1.1002
  582SOL    HW1 2326  -0.007   2.915   2.564 -0.8157 -1.7423  3.5611
  582SOL    HW2 2327   0.104   2.829   2.531 -1.2572  1.1348  1.0695
  582SOL     MW 2328   0.018   2.848   2.520  0.0886  0.0669 -0.1990
  583SOL     OW 2329   1.976   2.453   2.647 -0.7452 -0.3328  0.0336
  583SOL    HW1 2330   2.043   2.478   2.579 -0.7937  0.7976 -1.0523
  583SOL    HW2 2331   2.000   2.366   2.664 -0.6088  3.1138  2.9993
  583SOL     MW 2332   1.988   2.445   2.640 -0.7336  0.2711  0.2816
  584SOL     OW 2333   0.179   1.871   2.108  0.1355  0.0424 -0.6847
  584SOL    HW1 2334   0.272   1.851   2.105 -1.8619  2.5351  0.7177
  584SOL    HW2 2335   0.163   1.887   2.201 -0.8716  0.9638  1.6512
  584SOL     MW 2336   0.189   1.870   2.120 -0.2609  0.4929 -0.1914
  585SOL     OW 2337   1.491   2.595   0.060  0.0091  0.9867  0.4587
  585SOL    HW1 2338   1.434   2.616  -0.015 -2.1367  0.5910  1.7568
  585SOL    HW2 2339   1.479   2.656   0.126 -0.7531  1.2949 -2.9593
  585SOL     MW 2340   1.482   2.606   0.059 -0.3746  0.9752  0.1790
  586SOL     OW 2341   1.248   2.982   2.391  0.3995 -0.6413  0.2142
  586SOL    HW1 2342   1.323   2.935   2.358  2.2536  0.5639 -1.0593
  586SOL    HW2 2343   1.270   3.021   2.479  0.0130  1.5470  3.2171
  586SOL     MW 2344   1.261   2.981   2.398  0.5931 -0.1936  0.4423
  587SOL     OW 2345   1.240   1.617   2.136  0.1060 -0.2635  0.5351
  587SOL    HW1 2346   1.225   1.542   2.199 -2.4245 -0.1034  0.5358
  587SOL    HW2 2347   1.238   1.581   2.043  1.2262 -0.8158 -3.0145
  587SOL     MW 2348   1.238   1.602   2.132 -0.0800 -0.3152  0.0669
  588SOL     OW 2349   1.403   2.137   2.717  0.4868  0.7743 -0.0095
  588SOL    HW1 2350   1.493   2.128   2.753  1.0287  0.9879  1.0388
  588SOL    HW2 2351   1.356   2.139   2.808  0.6511  1.6139 -0.8981
  588SOL     MW 2352   1.409   2.136   2.734  0.5800  0.9132  0.0116
  589SOL     OW 2353   1.349   2.080   0.087 -0.0413  0.1694 -0.1050
  589SOL    HW1 2354   1.344   2.172   0.122 -0.5916  0.0427  0.2878
  589SOL    HW2 2355   1.306   2.020   0.152 -3.2190  1.6646 -0.9449
  589SOL     MW 2356   1.342   2.084   0.100 -0.5332  0.3500 -0.1640
  590SOL     OW 2357   0.402   2.582   2.259 -0.4093 -0.3862  0.4025
  590SOL    HW1 2358   0.371   2.605   2.171 -0.2075 -0.2940  0.6134
  590SOL    HW2 2359   0.460   2.655   2.279 -0.7643  0.5443  0.5801
  590SOL     MW 2360   0.405   2.595   2.250 -0.4295 -0.2513  0.4538
  591SOL     OW 2361   2.320   0.717   0.014  0.1701  0.1032  0.2160
  591SOL    HW1 2362   2.241   0.757  -0.018 -0.6881 -1.5592 -0.0345
  591SOL    HW2 2363   2.398   0.753  -0.035 -1.0780  0.8249 -1.0356
  591SOL     MW 2364   2.320   0.727   0.003 -0.1078 -0.0209  0.0178
  592SOL     OW 2365   1.859   3.024   0.830 -0.0133  0.3294 -0.2229
  592SOL    HW1 2366   1.811   3.040   0.749  0.8504 -1.0910 -0.8728
  592SOL    HW2 2367   1.888   2.938   0.804  2.1566  1.1658  0.8684
  592SOL     MW 2368   1.857   3.015   0.816  0.3870  0.2524 -0.1647
  593SOL     OW 2369   1.904   0.751   0.840  0.3705  0.0581 -0.3355
  593SOL    HW1 2370   1.831   0.744   0.773  0.2636  0.3556 -0.0989
  593SOL    HW2 2371   1.909   0.663   0.873  0.0795 -0.5843  0.9105
  593SOL     MW 2372   1.895   0.739   0.836  0.3180  0.0126 -0.1399
  594SOL     OW 2373   2.743   1.112   1.377  0.4606  0.0356 -0.0535
  594SOL    HW1 2374   2.836   1.126   1.401 -0.2487  0.4858 -0.9083
  594SOL    HW2 2375   2.728   1.090   1.287  1.6099 -0.1426  1.6014
  594SOL     MW 2376   2.753   1.110   1.368  0.5187  0.0715  0.0521
  595SOL     OW 2377   0.452   0.955   0.681  0.0979 -0.1318  0.0258
  595SOL    HW1 2378   0.485   1.025   0.623  1.6103  0.1615  2.2427
  595SOL    HW2 2379   0.447   1.001   0.768 -1.3932 -0.2404 -2.4797
  595SOL     MW 2380   0.456   0.970   0.685  0.1007 -0.1074 -0.0123
  596SOL     OW 2381   2.425   1.384   0.586 -0.0562  0.4391 -0.4841
  596SOL    HW1 2382   2.457   1.447   0.521  1.2864  0.9297 -2.1666
  596SOL    HW2 2383   2.498   1.359   0.643  0.9105  1.4561 -0.4598
  596SOL     MW 2384   2.439   1.389   0.585  0.2485  0.6380 -0.7029
  597SOL     OW 2385   2.187   0.658   1.735  0.2021  0.3812 -0.2988
  597SOL    HW1 2386   2.267   0.598   1.731 -1.0106 -0.1858 -2.9731
  597SOL    HW2 2387   2.143   0.626   1.653 -0.2105 -0.6513  2.0588
  597SOL     MW 2388   2.191   0.646   1.724 -0.0123  0.1701 -0.3406
  598SOL     OW 2389   2.601   1.024   2.855 -0.2853 -0.3583  0.3591
  598SOL    HW1 2390   2.644   0.979   2.777  1.0770  3.6199  0.3704
  598SOL    HW2 2391   2.664   1.077   2.906  0.7358  2.9118  1.6013
  598SOL     MW 2392   2.615   1.025   2.852  0.0292  0.5980  0.5245
  599SOL     OW 2393   2.925   0.334   2.053 -0.0591 -0.1822  0.9738
  599SOL    HW1 2394   2.882   0.366   2.138  1.6923 -0.0453 -0.8492
  599SOL    HW2 2395   2.952   0.414   1.999  0.8730 -1.3933 -0.5134
  599SOL     MW 2396   2.923   0.349   2.057  0.2950 -0.3239  0.5371
  600SOL     OW 2397   1.898   1.721   0.895 -0.2119  0.2190  0.6740
  600SOL    HW1 2398   1.901   1.765   0.979  2.0932 -2.4902  1.2218
  600SOL    HW2 2399   1.806   1.736   0.878  1.6470  1.0840  0.9651
  600SOL     MW 2400   1.886   1.729   0.904  0.3375 -0.0243  0.7847
  601SOL     OW 2401   2.530   0.789   0.837  0.3783 -0.2259 -0.0089
  601SOL    HW1 2402   2.536   0.777   0.932  0.6012  2.1309 -2.6100
  601SOL    HW2 2403   2.454   0.736   0.817  0.6640 -2.6328  0.7848
  601SOL     MW 2404   2.521   0.780   0.847  0.4454 -0.2325 -0.2474
  602SOL     OW 2405   2.338   1.919   0.714 -0.1308 -0.0513 -0.0258
  602SOL    HW1 2406   2.280   1.857   0.760 -2.1705  1.4670  0.7715
  602SOL    HW2 2407   2.273   1.974   0.663  2.7494  2.4261  0.6944
  602SOL     MW 2408   2.322   1.918   0.713 -0.0199  0.4759  0.1744
  603SOL     OW 2409   3.027   1.398   1.790  0.7342  0.1383  0.0653
  603SOL    HW1 2410   3.096   1.419   1.852  2.2837 -0.9495  2.4082
  603SOL    HW2 2411   3.006   1.304   1.806  2.4266 -0.6982 -0.7607
  603SOL     MW 2412   3.033   1.388   1.801  1.1619 -0.1156  0.2654
  604SOL     OW 2413   2.117   1.567   0.452 -0.1094  0.0551  0.1662
  604SOL    HW1 2414   2.139   1.498   0.510  0.7013 -1.8252 -0.9779
  604SOL    HW2 2415   2.052   1.614   0.505  0.0332  0.8841  0.1822
  604SOL     MW 2416   2.111   1.564   0.466  0.0164 -0.0836  0.0174
  605SOL     OW 2417   2.672   1.560   0.841 -0.0040  0.0595 -0.2358
  605SOL    HW1 2418   2.598   1.596   0.791 -1.1349  0.5019  2.8386
  605SOL    HW2 2419   2.629   1.529   0.919 -2.8536 -0.9701  0.4923
  605SOL     MW 2420   2.657   1.561   0.845 -0.5292 -0.0179  0.2659
  606SOL     OW 2421   2.558   1.766   1.910 -0.0713  0.3380 -0.9659
  606SOL    HW1 2422   2.462   1.749   1.918  0.1876 -1.6135 -2.7374
  606SOL    HW2 2423   2.589   1.693   1.856 -1.4796  0.0997 -1.4398
  606SOL     MW 2424   2.550   1.754   1.904 -0.2230  0.0491 -1.2621
  607SOL     OW 2425   2.333   1.028   2.991 -0.4025  0.3686 -0.8226
  607SOL    HW1 2426   2.426   1.012   2.964  0.8755  2.9714  0.8845
  607SOL    HW2 2427   2.342   1.060   3.086 -1.6217 -1.6677 -1.7017
  607SOL     MW 2428   2.346   1.030   3.000 -0.3948  0.4433 -0.7134
  608SOL     OW 2429   1.880   0.328   0.581  0.0623  0.2109 -0.0401
  608SOL    HW1 2430   1.925   0.351   0.500  1.1911 -1.9451 -2.6725
  608SOL    HW2 2431   1.820   0.252   0.561 -0.9398  2.3402  0.5021
  608SOL     MW 2432   1.878   0.321   0.567  0.0790  0.2073 -0.3159
  609SOL     OW 2433   2.178   1.951   3.051 -0.0468 -0.1027  0.1459
  609SOL    HW1 2434   2.094   1.909   3.029  0.7928  0.4037 -0.4321
  609SOL    HW2 2435   2.196   1.935   3.143 -0.3202 -0.3067  0.2457
  609SOL     MW 2436   2.169   1.943   3.060  0.0279 -0.0628  0.0828
  610SOL     OW 2437   1.858   1.054   1.254 -0.6301 -0.2812 -0.1726
  610SOL    HW1 2438   1.860   0.973   1.196 -1.5096 -1.4002 -1.0355
  610SOL    HW2 2439   1.773   1.050   1.303 -0.3033 -1.1365 -1.3740
  610SOL     MW 2440   1.847   1.043   1.253 -0.7030 -0.5417 -0.4450
  611SOL     OW 2441   2.457   1.666   0.744  0.1167 -0.0241  0.5865
  611SOL    HW1 2442   2.452   1.761   0.719 -0.4154 -1.1094  1.3491
  611SOL    HW2 2443   2.417   1.617   0.678 -0.4190  2.7458  0.3267
  611SOL     MW 2444   2.451   1.672   0.732 -0.0242  0.1981  0.6529
  612SOL     OW 2445   2.780   2.839   0.447 -0.1168  0.3809 -0.5029
  612SOL    HW1 2446   2.819   2.893   0.519 -1.4637  0.1718 -0.1790
  612SOL    HW2 2447   2.852   2.802   0.396 -0.9014 -1.7700  0.3029
  612SOL     MW 2448   2.795   2.841   0.450 -0.3981  0.0695 -0.3539
  613SOL     OW 2449   1.542   1.027   1.052 -0.6092  0.0400 -0.6106
  613SOL    HW1 2450   1.547   1.120   1.061 -1.0311  0.4414 -1.4103
  613SOL    HW2 2451   1.586   0.991   1.127 -0.6115 -0.1272 -3.1460
  613SOL     MW 2452   1.549   1.035   1.063 -0.6652  0.0709 -1.0506
  614SOL     OW 2453   2.041   0.549   1.521 -0.4907 -0.2750  0.3547
  614SOL    HW1 2454   2.034   0.469   1.579  1.7863 -3.3544 -1.4304
  614SOL    HW2 2455   2.014   0.514   1.437 -1.3285  1.4730  0.4168
  614SOL     MW 2456   2.037   0.534   1.518 -0.3008 -0.4507  0.1274
  615SOL     OW 2457   2.226   0.839   0.240 -0.1456  0.1205  0.4408
  615SOL    HW1 2458   2.263   0.797   0.319  0.1728 -1.1151  0.5217
  615SOL    HW2 2459   2.271   0.796   0.171 -2.3955 -1.7550  2.4226
  615SOL     MW 2460   2.237   0.828   0.241 -0.4005 -0.2900  0.7130
  616SOL     OW 2461   2.587   0.364   1.602  0.6267 -0.9539 -0.1946
  616SOL    HW1 2462   2.519   0.317   1.556 -0.9346  0.9512 -1.6000
  616SOL    HW2 2463   2.639   0.415   1.535  0.2064 -1.2836 -0.4084
  616SOL     MW 2464   2.585   0.365   1.587  0.3653 -0.7460 -0.4083
  617SOL     OW 2465   2.822   0.569   1.716  0.1989 -0.4320 -0.8425
  617SOL    HW1 2466   2.766   0.594   1.786 -0.4403 -0.8994 -1.7815
  617SOL    HW2 2467   2.788   0.486   1.684 -2.2846 -0.4511 -2.5398
  617SOL     MW 2468   2.810   0.562   1.721 -0.2131 -0.4962 -1.1903
  618SOL     OW 2469   2.689   0.344   1.909 -0.1634  0.0394  0.5267
  618SOL    HW1 2470   2.659   0.434   1.927 -0.0529  0.8457 -1.3393
  618SOL    HW2 2471   2.771   0.332   1.960 -0.7509 -0.6793  0.1592
  618SOL     MW 2472   2.696   0.355   1.918 -0.2264  0.0510  0.2320
  619SOL     OW 2473   2.610   0.752   0.156  0.5717 -0.4211 -0.0962
  619SOL    HW1 2474   2.675   0.809   0.192 -0.0071  0.8368 -1.9213
  619SOL    HW2 2475   2.548   0.727   0.233 -0.1907  0.3839 -1.2227
  619SOL     MW 2476   2.611   0.756   0.171  0.3947 -0.1489 -0.4856
  620SOL     OW 2477   2.304   1.073   0.967  0.1772 -0.2171  0.7204
  620SOL    HW1 2478   2.381   1.117   0.940 -1.2897  2.5668  1.7389
  620SOL    HW2 2479   2.273   1.029   0.890  3.0741 -0.8887 -0.2526
  620SOL     MW 2480   2.310   1.073   0.953  0.3659  0.0616  0.7264
  621SOL     OW 2481   1.472   2.099   1.996 -0.3506 -0.2512 -0.2081
  621SOL    HW1 2482   1.387   2.056   2.009 -4.1899 -0.4288  1.5401
  621SOL    HW2 2483   1.540   2.039   2.019  0.3123  0.3841 -1.8835
  621SOL     MW 2484   1.470   2.085   2.000 -0.7697 -0.1908 -0.1985
  622SOL     OW 2485   2.649   0.161   0.246 -0.0568  0.6480  0.4267
  622SOL    HW1 2486   2.735   0.201   0.219  1.0183  0.4818 -2.3420
  622SOL    HW2 2487   2.653   0.068   0.242  0.8202  1.4680 -1.8017
  622SOL     MW 2488   2.661   0.154   0.242  0.2008  0.7343 -0.2326
  623SOL     OW 2489   2.342   2.705   0.910 -0.3816  0.5956  0.5309
  623SOL    HW1 2490   2.396   2.787   0.900  0.7696  1.5633 -0.5306
  623SOL    HW2 2491   2.267   2.730   0.967 -0.5131  1.8054  3.2663
  623SOL     MW 2492   2.339   2.719   0.916 -0.2471  0.8829  0.7518
  624SOL     OW 2493   2.237   1.682   3.035 -0.8966  0.8510 -0.2724
  624SOL    HW1 2494   2.162   1.619   3.049 -0.1580  1.4389 -1.5270
  624SOL    HW2 2495   2.204   1.775   3.044 -0.4265  2.3117  0.2262
  624SOL     MW 2496   2.222   1.686   3.038 -0.7371  1.1213 -0.3721
  625SOL     OW 2497   2.140   1.975   1.085  0.5933  0.2302  0.2737
  625SOL    HW1 2498   2.222   1.935   1.118 -0.0000  1.4850 -1.0611
  625SOL    HW2 2499   2.131   1.924   1.003  0.0130  2.2373  0.4024
  625SOL     MW 2500   2.150   1.963   1.079  0.4384  0.6606  0.1145
  626SOL     OW 2501   0.177   1.612   2.311 -0.5702  0.6858 -0.2211
  626SOL    HW1 2502   0.125   1.539   2.265  0.3282 -2.0745  1.8531
  626SOL    HW2 2503   0.135   1.614   2.396  1.1668  2.6371  0.8738
  626SOL     MW 2504   0.164   1.602   2.316 -0.2225  0.5791  0.1971
  627SOL     OW 2505   2.505   0.829   2.617  0.4635 -0.1470  0.1419
  627SOL    HW1 2506   2.435   0.890   2.587  0.2428 -1.5788 -0.0646
  627SOL    HW2 2507   2.494   0.762   2.545 -4.6236  0.2628 -0.1547
  627SOL     MW 2508   2.494   0.828   2.603 -0.2368 -0.2818  0.0755
  628SOL     OW 2509   2.254   1.337   1.359 -0.0891 -0.2607 -0.2857
  628SOL    HW1 2510   2.227   1.268   1.304  1.3425 -0.6000 -2.2100
  628SOL    HW2 2511   2.343   1.310   1.382  0.4252 -0.1728  1.6881
  628SOL     MW 2512   2.262   1.324   1.355  0.1676 -0.2938 -0.2791
  629SOL     OW 2513   1.999   0.524   1.254  0.3246 -0.2636  0.0994
  629SOL    HW1 2514   2.056   0.600   1.237  1.4649  0.9851 -0.0569
  629SOL    HW2 2515   1.908   0.554   1.252 -0.3636 -3.0198  0.9433
  629SOL     MW 2516   1.995   0.538   1.251  0.3842 -0.4625  0.1901
  630SOL     OW 2517   2.500   1.849   2.998  0.0008  0.7518 -0.0951
  630SOL    HW1 2518   2.468   1.925   2.948  0.5871 -0.7001 -1.2410
  630SOL    HW2 2519   2.421   1.784   3.003 -0.5871 -0.2843  1.4360
  630SOL     MW 2520   2.485   1.850   2.992  0.0006  0.4235 -0.0442
  631SOL     OW 2521   1.990   1.813   1.581  0.0498 -0.1362  0.4711
  631SOL    HW1 2522   2.013   1.726   1.618  0.3774 -1.2628  0.3932
  631SOL    HW2 2523   1.994   1.803   1.485 -1.3007 -0.5390  0.6937
  631SOL     MW 2524   1.994   1.801   1.573 -0.0851 -0.3380  0.4902
  632SOL     OW 2525   0.088   2.093   1.504 -0.4536  0.3997 -0.4658
  632SOL    HW1 2526   0.034   2.088   1.581  1.8579 -1.6042 -2.3505
  632SOL    HW2 2527   0.123   1.997   1.500  0.9408 -3.0252  1.4284
  632SOL     MW 2528   0.085   2.080   1.514  0.0354 -0.3165 -0.4645
  633SOL     OW 2529   2.458   0.668   0.387  0.2965  0.1701  0.2088
  633SOL    HW1 2530   2.541   0.641   0.432  0.6234 -0.5458  1.1383
  633SOL    HW2 2531   2.386   0.614   0.407  1.5643  2.6666  1.4306
  633SOL     MW 2532   2.459   0.657   0.396  0.5069  0.4050  0.4926
  634SOL     OW 2533   2.628   0.011   0.692 -0.3160 -0.2672  0.3361
  634SOL    HW1 2534   2.671   0.096   0.690 -0.6399  0.9863 -0.7529
  634SOL    HW2 2535   2.573   0.009   0.619 -1.3203 -1.6932  2.5028
  634SOL     MW 2536   2.627   0.022   0.682 -0.4912 -0.2900  0.4783
  635SOL     OW 2537   2.576   0.109   1.824 -0.1448  0.9939  0.4475
  635SOL    HW1 2538   2.637   0.089   1.756  0.5895 -2.6948  2.1818
  635SOL    HW2 2539   2.604   0.196   1.853 -2.2790  1.2297  0.7706
  635SOL     MW 2540   2.588   0.118   1.819 -0.3295  0.5383  0.7190
  636SOL     OW 2541   2.915   1.711   0.964  0.2409  0.4589 -0.1813
  636SOL    HW1 2542   2.820   1.709   0.959  1.4074  2.8008 -0.6695
  636SOL    HW2 2543   2.929   1.749   1.052  0.0399 -2.1810  1.1869
  636SOL     MW 2544   2.904   1.715   0.975  0.3683  0.4196 -0.0652
  637SOL     OW 2545   2.905   1.518   0.664  0.7615  0.0732 -0.3652
  637SOL    HW1 2546   2.974   1.584   0.695  0.8051  1.7664 -0.7328
  637SOL    HW2 2547   2.821   1.535   0.713  1.4388  0.8593 -1.7295
  637SOL     MW 2548   2.903   1.529   0.675  0.8566  0.4003 -0.5937
  638SOL     OW 2549   2.694   0.606   0.503  0.3976 -0.5814 -0.0546
  638SOL    HW1 2550   2.785   0.639   0.488  2.0912  1.2097 -1.3280
  638SOL    HW2 2551   2.699   0.567   0.588  1.5402 -0.9842  0.4124
  638SOL     MW 2552   2.707   0.605   0.513  0.7718 -0.3982 -0.1610
  639SOL     OW 2553   1.794   0.051   0.498 -0.2796  0.2203 -0.1200
  639SOL    HW1 2554   1.706   0.072   0.516  0.1728  0.9918 -0.1516
  639SOL    HW2 2555   1.800  -0.026   0.444 -3.0256  0.3541 -0.2490
  639SOL     MW 2556   1.783   0.043   0.493 -0.5822  0.3398 -0.1412
  640SOL     OW 2557   0.347   1.386   0.068  0.4891 -0.1544  0.2291
  640SOL    HW1 2558   0.375   1.402  -0.024  0.3597  2.7949 -0.1666
  640SOL    HW2 2559   0.316   1.298   0.069 -1.6235  1.1912 -0.0422
  640SOL     MW 2560   0.347   1.376   0.056  0.1933  0.4122  0.1411
  641SOL     OW 2561   2.230   0.452   0.360 -0.7602 -0.1082  0.2383
  641SOL    HW1 2562   2.267   0.462   0.271 -1.5310 -0.6723  1.5011
  641SOL    HW2 2563   2.294   0.396   0.408  1.1950 -0.0980 -0.6660
  641SOL     MW 2564   2.243   0.446   0.355 -0.6040 -0.1813  0.2856
  642SOL     OW 2565   0.025   3.080   0.571  0.1854  0.1843 -0.0310
  642SOL    HW1 2566   0.003   3.158   0.521 -0.4787  1.1670 -1.0875
  642SOL    HW2 2567  -0.056   3.051   0.622  0.7036  0.4134 -1.7609
  642SOL     MW 2568   0.011   3.086   0.571  0.1661  0.3442 -0.3986
  643SOL     OW 2569   2.046   0.352   1.706  0.2830  0.0978  0.0285
  643SOL    HW1 2570   2.111   0.301   1.753  0.0525 -1.8018 -2.0112
  643SOL    HW2 2571   2.033   0.286   1.642 -0.0111  0.1901  0.3197
  643SOL     MW 2572   2.053   0.337   1.704  0.2138 -0.1407 -0.2022
  644SOL     OW 2573   2.710   1.923   1.065  0.2869  0.4922  0.4733
  644SOL    HW1 2574   2.703   1.854   1.126 -0.8101  2.0590 -1.3755
  644SOL    HW2 2575   2.620   1.942   1.041 -1.2582 -2.2233 -0.3234
  644SOL     MW 2576   2.697   1.917   1.070 -0.0617  0.3406  0.1243
  645SOL     OW 2577   2.828   0.896   0.653 -0.2333 -0.0507  0.1672
  645SOL    HW1 2578   2.912   0.844   0.663  1.5259 -0.7061 -1.5363
  645SOL    HW2 2579   2.764   0.834   0.689  0.9450  1.0096  1.6068
  645SOL     MW 2580   2.831   0.881   0.659  0.1543  0.0027  0.1324
  646SOL     OW 2581   0.169   2.261   0.822  0.2239  0.3359 -0.9876
  646SOL    HW1 2582   0.195   2.164   0.826  0.8755 -0.3420  1.2169
  646SOL    HW2 2583   0.102   2.279   0.747  0.3059 -0.1500  0.9473
  646SOL     MW 2584   0.164   2.251   0.812  0.3207  0.1823 -0.4414
  647SOL     OW 2585   2.690   0.496   2.981  0.4806  0.1278 -0.1587
  647SOL    HW1 2586   2.630   0.428   3.021  1.1760 -0.4904  0.5081
  647SOL    HW2 2587   2.648   0.570   2.954  0.0268 -0.0570  1.8558
  647SOL     MW 2588   2.677   0.497   2.983  0.5125  0.0219  0.1951
  648SOL     OW 2589   2.176   0.734   1.158 -0.4530  0.4381 -0.2124
  648SOL    HW1 2590   2.171   0.787   1.080  0.4713  0.7221 -1.9629
  648SOL    HW2 2591   2.209   0.794   1.224 -3.5499  2.1710 -2.0828
  648SOL     MW 2592   2.180   0.749   1.157 -0.7396  0.7042 -0.6901
  649SOL     OW 2593   2.400   2.750   1.264 -0.3397  0.3670  0.0599
  649SOL    HW1 2594   2.482   2.797   1.255  1.0161  0.1845  0.2694
  649SOL    HW2 2595   2.410   2.664   1.226  0.7900  0.9243  1.4812
  649SOL     MW 2596   2.412   2.745   1.258 -0.0118  0.4165  0.2750
  650SOL     OW 2597   2.821   0.209   0.671  0.2680 -0.2715 -0.0674
  650SOL    HW1 2598   2.870   0.271   0.730 -0.3698 -0.9726  0.5164
  650SOL    HW2 2599   2.863   0.214   0.586  0.1066 -0.3804 -0.6264
  650SOL     MW 2600   2.833   0.218   0.667  0.1626 -0.3783 -0.0641
  651SOL     OW 2601   2.981   0.395   0.815  0.2606  0.3405 -0.5400
  651SOL    HW1 2602   3.060   0.446   0.777  1.0034 -1.8063  0.2514
  651SOL    HW2 2603   2.953   0.456   0.882  1.7523 -0.1758  0.1211
  651SOL     MW 2604   2.987   0.410   0.818  0.5554 -0.0109 -0.3483
  652SOL     OW 2605   2.395   1.460   2.992 -0.0517 -0.0702  0.4529
  652SOL    HW1 2606   2.444   1.463   2.910 -2.3904  0.7679  1.8414
  652SOL    HW2 2607   2.358   1.552   3.014 -0.9141  0.0862 -0.4046
  652SOL     MW 2608   2.397   1.472   2.984 -0.4740  0.0610  0.5229
  653SOL     OW 2609   1.939   0.437   0.312 -0.4128  0.2853  0.4274
  653SOL    HW1 2610   1.898   0.373   0.253 -0.5011 -0.4226 -1.5005
  653SOL    HW2 2611   2.031   0.419   0.287 -1.0478  0.8339 -4.0036
  653SOL     MW 2612   1.946   0.426   0.301 -0.5082  0.2642 -0.4116
  654SOL     OW 2613   2.464   1.035   0.717 -0.4330  0.0784 -0.3363
  654SOL    HW1 2614   2.374   1.021   0.687 -0.6004 -1.5284  1.5682
  654SOL    HW2 2615   2.488   0.958   0.764  0.8474 -0.2631 -1.6178
  654SOL     MW 2616   2.456   1.023   0.719 -0.2861 -0.1787 -0.2541
  655SOL     OW 2617   3.006   0.924   0.396  0.5627  0.2001 -0.3003
  655SOL    HW1 2618   2.937   0.968   0.446 -1.4016  1.6271 -0.6634
  655SOL    HW2 2619   3.000   0.829   0.421  0.5125 -2.1481  0.1239
  655SOL     MW 2620   2.996   0.918   0.406  0.2969  0.0786 -0.2922
  656SOL     OW 2621   1.951   2.676   1.206  0.2947 -0.2733  0.2760
  656SOL    HW1 2622   1.912   2.747   1.258  1.2282 -1.4866 -1.8686
  656SOL    HW2 2623   1.989   2.614   1.269 -1.3763 -2.4478 -3.4968
  656SOL     MW 2624   1.950   2.677   1.221  0.1974 -0.7203 -0.5047
  657SOL     OW 2625   0.209   1.562   1.247 -0.3346  0.6708  0.2615
  657SOL    HW1 2626   0.124   1.597   1.268 -2.4219  1.9633 -2.1089
  657SOL    HW2 2627   0.196   1.468   1.240 -0.5151 -0.2783  2.2749
  657SOL     MW 2628   0.196   1.554   1.249 -0.6338  0.7161  0.2144
  658SOL     OW 2629   2.698   1.381   0.233 -0.0641  0.3578 -0.5410
  658SOL    HW1 2630   2.654   1.319   0.295  0.8597  1.5644  0.9048
  658SOL    HW2 2631   2.747   1.434   0.299 -1.4960 -2.3836  0.9410
  658SOL     MW 2632   2.698   1.380   0.250 -0.1311  0.1553 -0.1547
  659SOL     OW 2633   2.300   1.528   1.031  0.2662  0.1850  0.1734
  659SOL    HW1 2634   2.383   1.498   1.072 -3.5657  1.7228 -2.7232
  659SOL    HW2 2635   2.250   1.581   1.093 -0.2589 -1.1374 -2.3638
  659SOL     MW 2636   2.304   1.531   1.045 -0.3087  0.2134 -0.5435
  660SOL     OW 2637   2.063   1.560   1.688 -0.8338  0.2765 -0.3857
  660SOL    HW1 2638   2.096   1.572   1.784  0.0353 -2.6455  0.5729
  660SOL    HW2 2639   2.011   1.481   1.688 -1.7414 -1.0788 -1.4424
  660SOL     MW 2640   2.060   1.551   1.701 -0.8389 -0.2879 -0.3987
  661SOL     OW 2641   2.393   1.110   0.158 -0.4356 -0.2540  0.5587
  661SOL    HW1 2642   2.454   1.143   0.225 -0.1274 -0.0424  3.7961
  661SOL    HW2 2643   2.394   1.018   0.180  2.0492 -1.5048 -0.5198
  661SOL     MW 2644   2.401   1.102   0.170 -0.0671 -0.3911  0.8436
  662SOL     OW 2645   2.523   2.938   0.883 -0.8739 -0.2193  0.1199
  662SOL    HW1 2646   2.460   2.997   0.919  0.8577 -0.8265 -1.7723
  662SOL    HW2 2647   2.568   2.990   0.815  0.4700 -1.2740 -1.1691
  662SOL     MW 2648   2.521   2.953   0.879 -0.4682 -0.4386 -0.2998
  663SOL     OW 2649   2.843   1.550   0.393  0.1816 -0.7573 -0.2654
  663SOL    HW1 2650   2.879   1.623   0.337 -1.9926 -0.2386 -4.8877
  663SOL    HW2 2651   2.866   1.557   0.483  0.4641  1.7685 -3.2070
  663SOL     MW 2652   2.851   1.561   0.398 -0.0680 -0.3556 -1.2634
  664SOL     OW 2653   2.466   1.563   1.578 -0.2965 -0.5474  0.2353
  664SOL    HW1 2654   2.424   1.635   1.534 -1.4386  1.4205 -1.0271
  664SOL    HW2 2655   2.399   1.493   1.588 -1.2611  1.2219  1.0736
  664SOL     MW 2656   2.451   1.563   1.573 -0.5745 -0.0543  0.1794
  665SOL     OW 2657   2.862   0.809   2.076 -0.1797  0.0738  0.1945
  665SOL    HW1 2658   2.852   0.851   1.993 -2.7149 -1.5642 -0.5009
  665SOL    HW2 2659   2.917   0.729   2.062 -2.4033 -3.0436  1.6984
  665SOL     MW 2660   2.868   0.804   2.063 -0.8076 -0.5536  0.3012
  666SOL     OW 2661   2.795   3.051   1.685  0.2383 -0.0334 -0.1862
  666SOL    HW1 2662   2.815   3.026   1.594 -3.1417  0.1550 -0.1938
  666SOL    HW2 2663   2.751   2.971   1.718 -1.5464 -2.7874 -1.1186
  666SOL     MW 2664   2.792   3.037   1.677 -0.4431 -0.3719 -0.3102
  667SOL     OW 2665   1.976   2.700   1.627  0.2396  0.1945  0.2420
  667SOL    HW1 2666   1.995   2.638   1.702  0.1047 -1.5419 -1.3707
  667SOL    HW2 2667   2.057   2.749   1.614 -3.5883  1.0418  2.7311
  667SOL     MW 2668   1.989   2.699   1.635 -0.2832  0.0772  0.3576
  668SOL     OW 2669   2.745   0.641   0.792 -0.4133  0.5189  0.7370
  668SOL    HW1 2670   2.798   0.638   0.872  1.8856  0.0489  1.5682
  668SOL    HW2 2671   2.668   0.701   0.809  2.8881  0.5384 -2.0179
  668SOL     MW 2672   2.741   0.649   0.805  0.3256  0.4595  0.4832
  669SOL     OW 2673   0.177   0.927   0.674  0.0220 -0.0634 -0.8146
  669SOL    HW1 2674   0.116   0.992   0.718  0.1680 -0.8655  1.5605
  669SOL    HW2 2675   0.275   0.968   0.677  0.0847  0.7999  2.7623
  669SOL     MW 2676   0.182   0.941   0.681  0.0495 -0.0553 -0.0293
  670SOL     OW 2677   2.937   0.288   0.189 -0.5032 -0.1721  0.0253
  670SOL    HW1 2678   2.929   0.222   0.115 -1.2078  0.1274 -1.0849
  670SOL    HW2 2679   2.935   0.379   0.152 -2.1515  0.0002 -0.3630
  670SOL     MW 2680   2.936   0.291   0.175 -0.8136 -0.1099 -0.1724
  671SOL     OW 2681   2.155   3.041   1.579 -0.0409 -0.7930 -0.3076
  671SOL    HW1 2682   2.168   3.109   1.515 -0.4457  0.1004 -3.4131
  671SOL    HW2 2683   2.085   3.084   1.639  0.4824 -0.1741  2.7651
  671SOL     MW 2684   2.147   3.056   1.579 -0.0252 -0.5935 -0.3119
  672SOL     OW 2685   1.873   1.693   1.325 -0.2904 -0.0832 -0.4986
  672SOL    HW1 2686   1.794   1.720   1.384 -0.9436  0.7146  1.3675
  672SOL    HW2 2687   1.867   1.749   1.244 -0.7165 -0.5077  1.8621
  672SOL     MW 2688   1.862   1.704   1.322 -0.4328 -0.0339  0.0591
  673SOL     OW 2689   2.791   1.111   0.502 -0.1711 -0.0854 -0.1143
  673SOL    HW1 2690   2.781   1.043   0.571 -2.6322 -1.0628 -0.9950
  673SOL    HW2 2691   2.871   1.156   0.541  3.2405 -0.0264  0.1966
  673SOL     MW 2692   2.800   1.108   0.516 -0.0457 -0.2066 -0.1895
  674SOL     OW 2693   2.503   0.092   1.228  0.3709  0.5572 -0.6826
  674SOL    HW1 2694   2.464   0.082   1.141 -0.5175 -1.3107  2.6805
  674SOL    HW2 2695   2.528  -0.005   1.249 -1.5553  1.2273 -0.0337
  674SOL     MW 2696   2.501   0.078   1.219 -0.0004  0.3992 -0.1533
  675SOL     OW 2697   3.018   0.996   1.102  0.4645 -0.7326 -0.1924
  675SOL    HW1 2698   3.087   0.986   1.166  0.8468 -4.3345  1.5320
  675SOL    HW2 2699   3.054   1.004   1.014 -0.2767  2.2536 -0.5455
  675SOL     MW 2700   3.032   0.996   1.099  0.4172 -0.8138 -0.0115
  676SOL     OW 2701   2.841   1.502   1.617  1.3031 -0.2799  0.5444
  676SOL    HW1 2702   2.781   1.420   1.618 -1.3485 -0.8866 -1.6165
  676SOL    HW2 2703   2.911   1.472   1.673 -2.1055  1.1321  0.8392
  676SOL     MW 2704   2.842   1.487   1.625  0.5035 -0.1736  0.2982
  677SOL     OW 2705   2.421   0.763   1.888  0.7487 -0.8025  0.1384
  677SOL    HW1 2706   2.393   0.672   1.865  0.7980  0.2374 -0.1304
  677SOL    HW2 2707   2.343   0.803   1.939 -1.2877 -0.9282  0.7644
  677SOL     MW 2708   2.407   0.756   1.892  0.4865 -0.6819  0.1855
  678SOL     OW 2709   2.531   1.586   0.444 -0.4732 -0.1206 -0.2326
  678SOL    HW1 2710   2.466   1.645   0.393  2.4630  0.9580 -3.5787
  678SOL    HW2 2711   2.605   1.644   0.466  0.2098 -3.3624 -0.6429
  678SOL     MW 2712   2.532   1.601   0.440  0.0044 -0.4061 -0.7282
  679SOL     OW 2713   2.315   0.509   1.115  0.5190 -0.1557  0.5727
  679SOL    HW1 2714   2.252   0.438   1.141 -2.3068  1.2099 -2.4842
  679SOL    HW2 2715   2.270   0.593   1.134 -1.1561 -0.0517  0.7414
  679SOL     MW 2716   2.301   0.511   1.121 -0.0748  0.0382  0.1916
  680SOL     OW 2717   2.396   0.271   1.441  0.1881 -0.2622 -0.1498
  680SOL    HW1 2718   2.295   0.262   1.462 -1.3301  2.7866  0.0537
  680SOL    HW2 2719   2.428   0.221   1.365  2.5707 -0.9224  2.2065
  680SOL     MW 2720   2.387   0.263   1.434  0.3022  0.0530  0.1879
  681SOL     OW 2721   0.311   0.575   1.572  0.1344  0.6509 -0.2700
  681SOL    HW1 2722   0.263   0.493   1.595  2.0076 -0.9535 -2.7953
  681SOL    HW2 2723   0.398   0.536   1.582 -0.6668 -3.7177 -0.0431
  681SOL     MW 2724   0.316   0.559   1.576  0.2759 -0.1372 -0.5732
  682SOL     OW 2725   0.128   2.971   1.483 -0.1223 -0.6876 -0.0699
  682SOL    HW1 2726   0.155   3.063   1.463 -3.9682  0.8315  1.6401
  682SOL    HW2 2727   0.046   2.976   1.535  1.0742  0.1471 -0.4187
  682SOL     MW 2728   0.120   2.984   1.487 -0.4719 -0.3770  0.1097
  683SOL     OW 2729   2.073   0.815   3.021 -0.3370  0.2184 -0.0889
  683SOL    HW1 2730   1.998   0.796   2.964  0.0144  1.2281 -0.4662
  683SOL    HW2 2731   2.054   0.899   3.060  1.4832  3.0543 -0.4415
  683SOL     MW 2732   2.060   0.824   3.018 -0.0505  0.7258 -0.1852
  684SOL     OW 2733   2.179   1.753   0.899  0.3197 -0.4546  0.5183
  684SOL    HW1 2734   2.096   1.711   0.896  1.8181  1.4937  1.6674
  684SOL    HW2 2735   2.242   1.695   0.866  1.3945  1.6652  1.2690
  684SOL     MW 2736   2.176   1.740   0.894  0.6592  0.0822  0.7690
  685SOL     OW 2737   2.580   1.729   1.248  0.6739  0.3099  0.4253
  685SOL    HW1 2738   2.659   1.719   1.303  0.7130 -1.8491  2.4782
  685SOL    HW2 2739   2.557   1.636   1.226  2.0792 -1.5705 -1.0758
  685SOL     MW 2740   2.587   1.715   1.253  0.8645 -0.2230  0.4981
  686SOL     OW 2741   2.880   0.706   1.463 -0.4710 -0.1059 -0.0868
  686SOL    HW1 2742   2.894   0.666   1.550  0.6606 -3.3053 -2.4470
  686SOL    HW2 2743   2.972   0.726   1.437  0.6108  1.2399  1.4326
  686SOL     MW 2744   2.894   0.703   1.471 -0.1789 -0.3504 -0.1978
  687SOL     OW 2745   2.150   0.308   1.217 -0.2264  0.1928  0.0515
  687SOL    HW1 2746   2.154   0.258   1.130 -1.8527 -1.6645 -0.7855
  687SOL    HW2 2747   2.081   0.373   1.215 -1.5486 -0.7159  4.5070
  687SOL     MW 2748   2.142   0.310   1.205 -0.6154 -0.1721  0.5290
  688SOL     OW 2749   2.390   0.600   1.466 -0.4060  0.3510  0.1011
  688SOL    HW1 2750   2.436   0.522   1.442 -0.0809  0.8334  0.0250
  688SOL    HW2 2751   2.296   0.580   1.462  0.1900  1.4061  2.4097
  688SOL     MW 2752   2.384   0.587   1.462 -0.2845  0.5539  0.3957
  689SOL     OW 2753   2.554   0.753   2.991 -0.1118 -0.3244  0.1514
  689SOL    HW1 2754   2.593   0.834   2.960 -1.8576  1.4711 -1.8920
  689SOL    HW2 2755   2.595   0.751   3.077 -0.6080  1.1303  0.3684
  689SOL     MW 2756   2.565   0.763   2.998 -0.4076  0.1045 -0.0896
  690SOL     OW 2757   2.114   0.962   1.937  0.5069 -0.4923 -0.0862
  690SOL    HW1 2758   2.045   0.895   1.932 -0.2356 -0.1894  1.6324
  690SOL    HW2 2759   2.127   0.987   1.844 -1.2718  0.2987 -1.6524
  690SOL     MW 2760   2.107   0.957   1.924  0.1743 -0.3479 -0.0661
  691SOL     OW 2761   2.449   0.268   0.827  0.4299  0.2269  0.6400
  691SOL    HW1 2762   2.522   0.310   0.875 -1.9120 -1.4286  0.5441
  691SOL    HW2 2763   2.374   0.321   0.850 -2.2159  1.1966 -0.5487
  691SOL     MW 2764   2.449   0.281   0.836 -0.2281  0.1364  0.4705
  692SOL     OW 2765   2.804   1.712   1.423 -0.0943  0.1265  0.2003
  692SOL    HW1 2766   2.822   1.651   1.490 -1.5986 -0.7591 -4.4215
  692SOL    HW2 2767   2.841   1.790   1.456  0.5807  3.0696  2.8013
  692SOL     MW 2768   2.811   1.714   1.436 -0.2037  0.3980 -0.0663
  693SOL     OW 2769   2.324   0.458   0.107  0.0028 -0.3110 -0.0600
  693SOL    HW1 2770   2.252   0.407   0.117  1.8913  1.3691  1.5555
  693SOL    HW2 2771   2.296   0.546   0.075  2.8547 -0.3179  1.1671
  693SOL     MW 2772   2.311   0.463   0.104  0.6283 -0.0902  0.3150
  694SOL     OW 2773   1.952   1.277   1.089 -0.1650  0.4359 -0.2320
  694SOL    HW1 2774   2.014   1.217   1.130 -2.4441 -1.0415  2.1090
  694SOL    HW2 2775   1.886   1.215   1.058 -0.2065  1.0604 -1.7663
  694SOL     MW 2776   1.952   1.261   1.091 -0.4712  0.3234 -0.1256
  695SOL     OW 2777   2.951   1.447   1.310  0.3207 -0.0462  0.1300
  695SOL    HW1 2778   2.965   1.470   1.217 -0.8954  0.0223  1.3263
  695SOL    HW2 2779   2.924   1.522   1.363 -1.6829 -1.0875 -1.6960
  695SOL     MW 2780   2.949   1.460   1.305 -0.1041 -0.1745  0.0469
  696SOL     OW 2781   2.106   1.388   0.902  0.3240  0.0264 -1.0608
  696SOL    HW1 2782   2.174   1.444   0.936  1.2466  0.3019  1.6915
  696SOL    HW2 2783   2.059   1.352   0.983 -2.9858  0.7662 -0.4694
  696SOL     MW 2784   2.109   1.390   0.917  0.0090  0.1604 -0.6197
  697SOL     OW 2785   2.899   1.067   2.199  0.7587  0.9554 -1.0972
  697SOL    HW1 2786   2.849   1.142   2.178 -2.1247 -0.6561 -2.3114
  697SOL    HW2 2787   2.859   0.994   2.156 -0.1862  2.2724  1.7442
  697SOL     MW 2788   2.887   1.068   2.190  0.2536  0.9165 -0.8825
  698SOL     OW 2789   2.536   0.315   0.023  0.3011 -0.6472  0.1594
  698SOL    HW1 2790   2.462   0.370   0.044  4.7047 -2.9633  3.5587
  698SOL    HW2 2791   2.571   0.277   0.110 -1.2744 -2.9818 -0.8315
  698SOL     MW 2792   2.531   0.317   0.037  0.6743 -1.2608  0.4771
  699SOL     OW 2793   1.857   1.645   2.066 -0.1957  0.2782 -0.1345
  699SOL    HW1 2794   1.831   1.551   2.062  1.7092  1.0733  1.7919
  699SOL    HW2 2795   1.945   1.644   2.024 -0.5154 -0.7527 -0.6358
  699SOL     MW 2796   1.865   1.633   2.060  0.0134  0.2471  0.0536
  700SOL     OW 2797   2.705   0.910   1.553  0.2500 -0.2237 -0.0067
  700SOL    HW1 2798   2.731   0.989   1.504 -1.4467 -0.1413 -2.1832
  700SOL    HW2 2799   2.753   0.840   1.505 -4.5570  0.6548  0.3724
  700SOL     MW 2800   2.715   0.911   1.540 -0.6081 -0.0969 -0.2439
  701SOL     OW 2801   1.656   1.268   2.607 -0.1449 -0.0716 -0.3544
  701SOL    HW1 2802   1.747   1.281   2.631 -1.2568 -2.4532 -1.5652
  701SOL    HW2 2803   1.606   1.310   2.676  1.3516  2.0909  0.5522
  701SOL     MW 2804   1.661   1.275   2.619 -0.0942 -0.1005 -0.3946
  702SOL     OW 2805   2.217   0.419   0.825 -0.3219 -0.1814 -0.0606
  702SOL    HW1 2806   2.192   0.365   0.749 -0.5360 -0.8579 -1.8111
  702SOL    HW2 2807   2.264   0.495   0.783  0.5135 -0.4079 -2.4328
  702SOL     MW 2808   2.220   0.422   0.809 -0.2399 -0.3005 -0.6045
  703SOL     OW 2809   2.693   1.305   0.987 -0.4305 -0.0389 -0.0252
  703SOL    HW1 2810   2.671   1.301   0.895  0.4211 -0.9529 -1.0371
  703SOL    HW2 2811   2.722   1.217   1.020  0.0483 -2.1923  2.9277
  703SOL     MW 2812   2.694   1.293   0.979 -0.2550 -0.4436  0.2309
  704SOL     OW 2813   0.010   1.341   0.281 -0.0715  0.4798  0.4806
  704SOL    HW1 2814  -0.062   1.278   0.250  1.8648 -3.5115  1.2839
  704SOL    HW2 2815   0.047   1.295   0.356 -2.8232 -1.2851 -1.9321
  704SOL     MW 2816   0.005   1.327   0.287 -0.1791 -0.2797  0.2683
  705SOL     OW 2817   2.128   1.633   1.257  0.5708 -0.0411 -0.2017
  705SOL    HW1 2818   2.024   1.636   1.270 -1.8729 -0.2149  0.6187
  705SOL    HW2 2819   2.148   1.537   1.258 -0.6151  2.2899 -1.2641
  705SOL     MW 2820   2.117   1.621   1.259  0.0919  0.2435 -0.2337
  706SOL     OW 2821   2.989   1.246   0.608 -0.3637  0.4831  0.7891
  706SOL    HW1 2822   3.080   1.228   0.599 -0.8355 -0.2927 -1.8808
  706SOL    HW2 2823   2.982   1.339   0.638  2.9190  2.5181  0.9611
  706SOL     MW 2824   3.000   1.256   0.611  0.0072  0.6493  0.4595
  707SOL     OW 2825   2.370   0.061   0.984  0.0311 -0.0472 -0.4055
  707SOL    HW1 2826   2.410   0.122   0.918 -1.0159 -0.4648  0.4653
  707SOL    HW2 2827   2.284   0.095   1.004  1.4616 -1.5394  1.2119
  707SOL     MW 2828   2.364   0.074   0.978  0.0817 -0.2992 -0.0772
  708SOL     OW 2829   2.531   1.580   0.114  0.0524 -0.0055  0.3129
  708SOL    HW1 2830   2.563   1.529   0.190 -0.0619 -1.7175  1.1292
  708SOL    HW2 2831   2.499   1.518   0.056  1.1651  2.4432  0.7708
  708SOL     MW 2832   2.531   1.565   0.116  0.1841  0.0917  0.4810
  709SOL     OW 2833   1.680   1.756   0.107  0.2231 -0.2245  0.3755
  709SOL    HW1 2834   1.624   1.796   0.048  0.7887 -1.8800 -0.4985
  709SOL    HW2 2835   1.622   1.715   0.175  2.0825  1.4016  1.5816
  709SOL     MW 2836   1.665   1.756   0.108  0.5430 -0.2284  0.4193
  710SOL     OW 2837   2.180   1.151   1.190 -0.3676  0.3600 -0.1558
  710SOL    HW1 2838   2.229   1.122   1.106 -1.3087 -0.2995 -0.4218
  710SOL    HW2 2839   2.172   1.068   1.242 -1.2380  0.9349  3.7954
  710SOL     MW 2840   2.186   1.136   1.186 -0.6066  0.3488  0.3304
  711SOL     OW 2841   2.330   0.131   1.718  0.2431 -0.3890  0.5249
  711SOL    HW1 2842   2.420   0.120   1.756 -2.8332  0.3387 -1.4437
  711SOL    HW2 2843   2.283   0.056   1.677 -0.5988  1.2747 -0.6475
  711SOL     MW 2844   2.336   0.120   1.718 -0.2739 -0.0735  0.1105
  712SOL     OW 2845   1.683   0.618   3.070  0.7446 -0.0054  0.5687
  712SOL    HW1 2846   1.731   0.692   3.034  1.2816 -1.5291 -0.0557
  712SOL    HW2 2847   1.655   0.644   3.162  0.8672  0.6526  0.4900
  712SOL     MW 2848   1.686   0.631   3.077  0.8316 -0.1196  0.4759
  713SOL     OW 2849   2.578   0.806   1.116 -0.1815 -0.5736 -0.6370
  713SOL    HW1 2850   2.613   0.712   1.126  0.4962 -1.2383 -1.0403
  713SOL    HW2 2851   2.543   0.829   1.206  3.4354 -2.2560 -1.3214
  713SOL     MW 2852   2.578   0.796   1.129  0.3851 -0.8832 -0.7805
  714SOL     OW 2853   2.210   0.169   1.947 -0.9622  0.5706 -0.3626
  714SOL    HW1 2854   2.265   0.164   2.025 -2.9264  0.1657  0.0751
  714SOL    HW2 2855   2.276   0.160   1.874  1.8451  0.9250  1.7578
  714SOL     MW 2856   2.226   0.167   1.948 -0.8509  0.5640 -0.0251
  715SOL     OW 2857   1.729   1.917   1.715  0.3074 -0.4716 -0.1742
  715SOL    HW1 2858   1.809   1.891   1.661 -0.8000  2.2044 -0.7377
  715SOL    HW2 2859   1.714   1.840   1.772  2.5743 -2.3492  0.2247
  715SOL     MW 2860   1.737   1.903   1.715  0.4604 -0.3662 -0.1959
  716SOL     OW 2861   2.391   0.596   0.708 -0.4579 -0.9897  0.2897
  716SOL    HW1 2862   2.442   0.521   0.671 -1.9852  1.1697 -1.9039
  716SOL    HW2 2863   2.324   0.621   0.645 -0.9241  0.4523  0.4324
  716SOL     MW 2864   2.389   0.589   0.695 -0.7209 -0.5146  0.0191
  717SOL     OW 2865   2.855   1.456   2.937  0.7498 -0.1671 -0.3384
  717SOL    HW1 2866   2.945   1.454   2.970  1.2953 -1.2627 -0.5146
  717SOL    HW2 2867   2.819   1.519   3.002 -0.9120  1.2913  0.5870
  717SOL     MW 2868   2.862   1.464   2.950  0.6025 -0.1192 -0.2395
  718SOL     OW 2869   2.530   1.325   1.396 -0.0111  0.0703  0.0206
  718SOL    HW1 2870   2.549   1.371   1.480 -0.7628 -0.3620  2.8623
  718SOL    HW2 2871   2.600   1.263   1.381 -3.6526 -0.5701  0.1777
  718SOL     MW 2872   2.542   1.323   1.405 -0.5907 -0.0712  0.4162
  719SOL     OW 2873   2.161   1.395   0.640  0.1485  0.0510  0.0747
  719SOL    HW1 2874   2.260   1.400   0.625  3.2247 -2.5655 -0.2116
  719SOL    HW2 2875   2.139   1.383   0.737 -1.7224 -1.1793 -0.3417
  719SOL     MW 2876   2.171   1.394   0.651  0.3075 -0.4566 -0.0180
  720SOL     OW 2877   2.892   1.202   0.127  0.0083 -0.2382  0.0962
  720SOL    HW1 2878   2.872   1.111   0.133 -0.5015  0.0672 -0.8287
  720SOL    HW2 2879   2.817   1.254   0.146  0.0167 -0.8670 -3.2984
  720SOL     MW 2880   2.879   1.197   0.130 -0.0579 -0.2809 -0.4737
  721SOL     OW 2881   2.519   0.819   1.388  0.2389  0.2867 -0.0813
  721SOL    HW1 2882   2.491   0.729   1.419  0.6626 -2.2374 -2.3324
  721SOL    HW2 2883   2.586   0.860   1.453  1.6720  4.0218 -2.4044
  721SOL     MW 2884   2.524   0.812   1.401  0.4839  0.4465 -0.6848
  722SOL     OW 2885   2.552   1.206   0.384  0.1034 -0.1527  0.5771
  722SOL    HW1 2886   2.486   1.244   0.444 -3.9061  3.0342 -0.9649
  722SOL    HW2 2887   2.632   1.175   0.429 -0.8560  1.7787 -1.3306
  722SOL     MW 2888   2.554   1.207   0.398 -0.5522  0.5226  0.1219
  723SOL     OW 2889   2.269   1.399   1.629 -0.4077 -0.1514  0.1817
  723SOL    HW1 2890   2.241   1.362   1.546  1.3509  1.2027  0.1268
  723SOL    HW2 2891   2.200   1.462   1.654  1.7821  1.1682 -3.1527
  723SOL     MW 2892   2.256   1.403   1.622  0.1133  0.2014 -0.2655
  724SOL     OW 2893   2.464   0.374   0.581  0.3852  0.0938 -0.1490
  724SOL    HW1 2894   2.448   0.324   0.658  0.9110  2.3367 -1.6976
  724SOL    HW2 2895   2.518   0.326   0.518  0.5963 -0.3087 -1.0119
  724SOL     MW 2896   2.469   0.361   0.583  0.4824  0.3367 -0.4671
  725SOL     OW 2897   2.588   0.523   1.132 -0.2989  0.0435 -0.3297
  725SOL    HW1 2898   2.621   0.519   1.227 -0.5042 -0.9084  3.1808
  725SOL    HW2 2899   2.492   0.513   1.128  1.0742 -0.7917  0.3350
  725SOL     MW 2900   2.580   0.521   1.144 -0.1448 -0.1923  0.2212
  726SOL     OW 2901   2.573   2.435   0.488 -0.4765  0.2432  0.1619
  726SOL    HW1 2902   2.520   2.481   0.423 -0.0377 -0.5038 -1.0166
  726SOL    HW2 2903   2.513   2.394   0.560 -0.8473 -2.6379  2.8311
  726SOL     MW 2904   2.558   2.435   0.489 -0.4675 -0.2355  0.3586
  727SOL     OW 2905   2.833   0.275   1.625  0.1663  0.2833 -0.1597
  727SOL    HW1 2906   2.858   0.273   1.527  0.8190  3.7308 -2.5078
  727SOL    HW2 2907   2.739   0.293   1.631  0.7701 -2.1607 -1.5863
  727SOL     MW 2908   2.824   0.277   1.613  0.3321  0.4157 -0.6577
  728SOL     OW 2909   2.806   1.184   2.955  0.3427 -0.4719 -0.2179
  728SOL    HW1 2910   2.770   1.265   2.911 -0.2025  0.3442  1.5054
  728SOL    HW2 2911   2.858   1.227   3.026  2.0880 -2.3433  0.8047
  728SOL     MW 2912   2.808   1.200   2.959  0.5010 -0.6111  0.1444
  729SOL     OW 2913   2.523   1.475   1.166 -0.0239  0.0131 -0.0296
  729SOL    HW1 2914   2.502   1.429   1.250  3.3261  0.1213 -3.1681
  729SOL    HW2 2915   2.593   1.418   1.140 -0.7039  1.2328 -0.1783
  729SOL     MW 2916   2.530   1.461   1.174  0.3283  0.1883 -0.4633
  730SOL     OW 2917   2.135   1.117   0.293 -0.2460 -0.1717  0.0589
  730SOL    HW1 2918   2.228   1.108   0.256  1.3484 -1.2957  0.8030
  730SOL    HW2 2919   2.115   1.209   0.281  0.9218  1.5499 -0.3542
  730SOL     MW 2920   2.144   1.128   0.286  0.1185 -0.0929  0.1026
  731SOL     OW 2921   2.799   1.858   2.904 -0.5462 -0.0526  0.1721
  731SOL    HW1 2922   2.724   1.910   2.882  0.0056 -1.6850 -4.2907
  731SOL    HW2 2923   2.874   1.918   2.901  0.3944 -0.3675  1.0065
  731SOL     MW 2924   2.799   1.873   2.901 -0.3493 -0.3095 -0.3066
  732SOL     OW 2925   2.274   0.928   1.323 -0.6230 -0.2364  0.6815
  732SOL    HW1 2926   2.213   0.920   1.396  0.7577  2.4729  0.6760
  732SOL    HW2 2927   2.365   0.902   1.339  2.8801  0.4549  0.4781
  732SOL     MW 2928   2.278   0.924   1.335  0.0214  0.2123  0.6540
  733SOL     OW 2929   2.356   2.835   3.063  0.1868 -0.2387  0.1499
  733SOL    HW1 2930   2.305   2.910   3.032 -0.1566  0.6546  2.8415
  733SOL    HW2 2931   2.293   2.763   3.063 -2.3027  0.7032  3.4909
  733SOL     MW 2932   2.341   2.835   3.059 -0.1870  0.0034  0.9458
  734SOL     OW 2933   1.496   0.371   2.454  0.2216  0.2329 -0.2670
  734SOL    HW1 2934   1.448   0.339   2.528  0.8580 -0.2893  1.2181
  734SOL    HW2 2935   1.513   0.302   2.392  0.6307  2.1045  1.4920
  734SOL     MW 2936   1.492   0.358   2.455  0.3595  0.4110  0.1610
  735SOL     OW 2937   3.065   0.971   2.637 -0.6389  0.6624  0.2023
  735SOL    HW1 2938   3.051   0.879   2.653  2.1261 -0.0113  1.8316
  735SOL    HW2 2939   3.040   1.016   2.719 -2.4398  0.5581 -0.6233
  735SOL     MW 2940   3.060   0.965   2.650 -0.5117  0.5597  0.3084
  736SOL     OW 2941   0.053   0.595   2.508  0.2283  0.2154  0.7855
  736SOL    HW1 2942   0.109   0.646   2.447 -0.6246 -0.6092 -1.4361
  736SOL    HW2 2943   0.039   0.509   2.463  1.1028 -1.0928  0.1547
  736SOL     MW 2944   0.058   0.590   2.494  0.2311 -0.0660  0.4092
  737SOL     OW 2945   2.930   0.713   2.610 -0.0685 -0.2019  0.3690
  737SOL    HW1 2946   2.882   0.711   2.528  1.1824  0.7757 -0.6439
  737SOL    HW2 2947   3.013   0.666   2.595 -1.4432  0.4925  0.8690
  737SOL     MW 2948   2.935   0.706   2.597 -0.0849  0.0187  0.3013
  738SOL     OW 2949   0.178   0.508   1.978 -0.1237  0.5091  0.2165
  738SOL    HW1 2950   0.257   0.523   1.926 -2.2822  3.8894 -0.5764
  738SOL    HW2 2951   0.179   0.427   2.021 -0.5506  0.7808 -0.7761
  738SOL     MW 2952   0.189   0.499   1.977 -0.4648  0.9909 -0.0191
  739SOL     OW 2953   2.549   0.953   2.164  0.4641  0.1994  0.3839
  739SOL    HW1 2954   2.453   0.944   2.143  0.3295 -3.3289 -1.9868
  739SOL    HW2 2955   2.570   0.995   2.082 -2.0848 -0.0196  1.0776
  739SOL     MW 2956   2.539   0.957   2.151  0.1101 -0.2950  0.1627
  740SOL     OW 2957   0.169   1.746   2.969 -0.1502  0.4206 -0.6325
  740SOL    HW1 2958   0.100   1.682   2.974 -0.4699  2.0392  1.3345
  740SOL    HW2 2959   0.249   1.716   3.011  1.2465  4.6379  0.4670
  740SOL     MW 2960   0.170   1.734   2.975 -0.0081  1.1906 -0.2279
  741SOL     OW 2961   2.205   1.194   2.731 -0.0801  0.0366 -0.6986
  741SOL    HW1 2962   2.192   1.286   2.699 -0.2299  0.3127  1.7956
  741SOL    HW2 2963   2.200   1.221   2.826 -1.2763 -0.5144 -0.5748
  741SOL     MW 2964   2.202   1.210   2.740 -0.2577  0.0003 -0.3532
  742SOL     OW 2965   1.661   1.349   2.293  0.1275  0.0182 -0.5400
  742SOL    HW1 2966   1.600   1.272   2.271 -2.8685  1.6449 -0.6303
  742SOL    HW2 2967   1.676   1.342   2.383 -3.8075  0.2406 -2.4435
  742SOL     MW 2968   1.655   1.338   2.302 -0.7870  0.2621 -0.8031
  743SOL     OW 2969   2.503   1.236   2.689  0.4320  0.3490 -0.4091
  743SOL    HW1 2970   2.406   1.216   2.703 -0.0496 -1.1407  0.1823
  743SOL    HW2 2971   2.558   1.188   2.754  0.2563  0.0162  4.8679
  743SOL     MW 2972   2.497   1.227   2.700  0.3453  0.1086  0.3652
  744SOL     OW 2973   2.787   0.934   1.847  0.7229  1.0512  0.0773
  744SOL    HW1 2974   2.697   0.962   1.868 -1.0611  0.3006  1.1545
  744SOL    HW2 2975   2.771   0.894   1.764 -0.6792  4.5815 -1.3766
  744SOL     MW 2976   2.773   0.932   1.839  0.3025  1.4179  0.0276
  745SOL     OW 2977   1.767   0.440   2.490 -0.1795 -0.6348 -0.2819
  745SOL    HW1 2978   1.766   0.436   2.394 -1.2407  1.8983 -0.8892
  745SOL    HW2 2979   1.681   0.408   2.503  0.5225 -0.2537  2.0141
  745SOL     MW 2980   1.755   0.435   2.479 -0.2269 -0.2503 -0.0591
  746SOL     OW 2981   1.530   1.456   1.677 -0.5765  0.0848  0.6444
  746SOL    HW1 2982   1.580   1.526   1.712 -0.1948 -1.4193  0.6142
  746SOL    HW2 2983   1.504   1.402   1.749 -0.1176  1.4906 -2.0419
  746SOL     MW 2984   1.533   1.458   1.691 -0.4656  0.0719  0.2860
  747SOL     OW 2985   2.555   1.082   1.920  0.1326  0.1174 -0.0555
  747SOL    HW1 2986   2.480   1.109   1.865 -3.5358  0.4330 -0.2670
  747SOL    HW2 2987   2.563   1.163   1.972 -0.2824 -1.2599 -0.4717
  747SOL     MW 2988   2.546   1.097   1.920 -0.4062 -0.0227 -0.1383
  748SOL     OW 2989   0.099   3.076   1.921  0.1750  0.2488  0.6124
  748SOL    HW1 2990   0.179   3.115   1.879  0.2041 -1.6953 -2.1448
  748SOL    HW2 2991   0.086   3.138   1.987  0.8975  0.6432  0.5878
  748SOL     MW 2992   0.108   3.089   1.924  0.2742  0.0443  0.2454
  749SOL     OW 2993   2.387   0.624   2.772  0.0038 -0.4134 -0.0332
  749SOL    HW1 2994   2.407   0.719   2.748 -0.8451  0.1747 -0.9358
  749SOL    HW2 2995   2.420   0.615   2.857 -0.4776  1.4220 -1.9331
  749SOL     MW 2996   2.394   0.636   2.780 -0.1717 -0.0936 -0.4030
  750SOL     OW 2997   2.090   3.024   1.949  0.1272  0.5158 -0.0191
  750SOL    HW1 2998   2.138   3.104   1.949  0.2513 -3.2982 -1.4166
  750SOL    HW2 2999   2.152   2.952   1.939 -3.9785  1.9282 -2.2128
  750SOL     MW 3000   2.104   3.025   1.948 -0.3982  0.1990 -0.4929
  751SOL     OW 3001   3.067   0.343   2.399  0.0368  0.2798 -0.6519
  751SOL    HW1 3002   2.991   0.363   2.343 -0.1071  1.1341 -0.0094
  751SOL    HW2 3003   3.142   0.339   2.345 -1.1311  2.2814 -0.2493
  751SOL     MW 3004   3.067   0.345   2.385 -0.1363  0.6566 -0.5140
  752SOL     OW 3005   2.160   0.893   2.767  0.0661 -0.0943 -0.1138
  752SOL    HW1 3006   2.231   0.958   2.782  1.1517 -1.1587 -0.6806
  752SOL    HW2 3007   2.134   0.859   2.855  0.8669 -0.5735 -1.2449
  752SOL     MW 3008   2.166   0.897   2.781  0.3150 -0.2979 -0.3378
  753SOL     OW 3009   2.819   0.390   2.291  0.1934  0.4885 -0.0650
  753SOL    HW1 3010   2.765   0.311   2.292 -0.5152  0.7525 -0.3228
  753SOL    HW2 3011   2.768   0.459   2.327  1.1619  0.8894  2.0270
  753SOL     MW 3012   2.806   0.389   2.296  0.2277  0.5762  0.1770
  754SOL     OW 3013   2.306   2.957   2.653 -0.2238  0.0158  0.0812
  754SOL    HW1 3014   2.338   2.930   2.570  0.9347 -0.6517 -0.4671
  754SOL    HW2 3015   2.366   2.912   2.717  1.4652  2.0393  0.4080
  754SOL     MW 3016   2.318   2.948   2.651  0.1519  0.1947  0.0520
  755SOL     OW 3017   2.789   1.592   2.481  0.0371 -0.1521  0.4298
  755SOL    HW1 3018   2.735   1.514   2.502 -1.7110 -0.8791 -0.2992
  755SOL    HW2 3019   2.820   1.621   2.570  2.3323  0.6370  0.8477
  755SOL     MW 3020   2.786   1.586   2.496  0.1093 -0.1439  0.3888
  756SOL     OW 3021   2.183   1.257   3.001  0.9529  0.1342  0.1040
  756SOL    HW1 3022   2.271   1.311   2.986  0.7309  0.9054  1.5471
  756SOL    HW2 3023   2.219   1.177   3.036 -0.1851  0.3441  0.7443
  756SOL     MW 3024   2.200   1.253   3.003  0.7735  0.2636  0.3789
  757SOL     OW 3025   2.176   0.967   1.661  0.5049  0.1887 -0.0779
  757SOL    HW1 3026   2.220   0.883   1.670  2.1272 -0.0426 -0.5132
  757SOL    HW2 3027   2.112   0.956   1.589 -1.0933 -2.5149 -1.9969
  757SOL     MW 3028   2.173   0.954   1.653  0.5081 -0.1985 -0.3885
  758SOL     OW 3029   2.232   1.838   2.643  0.1413 -0.4016 -0.0946
  758SOL    HW1 3030   2.234   1.884   2.556  0.4349  1.9508 -2.2022
  758SOL    HW2 3031   2.313   1.787   2.641 -0.3899  1.3565 -1.8097
  758SOL     MW 3032   2.243   1.837   2.631  0.1099  0.1408 -0.5990
  759SOL     OW 3033   1.525   1.459   2.795 -0.2592 -0.4635 -0.5446
  759SOL    HW1 3034   1.542   1.525   2.725 -1.2683 -1.9272  1.2464
  759SOL    HW2 3035   1.609   1.443   2.843  2.2185 -0.0459  1.4563
  759SOL     MW 3036   1.538   1.466   2.792 -0.0654 -0.6015 -0.0443
  760SOL     OW 3037   2.610   1.958   2.736  0.3054  0.4947  0.1384
  760SOL    HW1 3038   2.564   1.872   2.733  0.4139  1.4362 -0.3900
  760SOL    HW2 3039   2.675   1.932   2.675  0.3906 -0.9175  2.0225
  760SOL     MW 3040   2.613   1.943   2.728  0.3310  0.4326  0.3173
  761SOL     OW 3041   2.208   0.455   2.464 -0.0689 -0.3897 -0.2465
  761SOL    HW1 3042   2.128   0.406   2.457 -0.1501 -1.6356 -2.0918
  761SOL    HW2 3043   2.186   0.511   2.535  0.8929  1.3179 -0.6846
  761SOL     MW 3044   2.194   0.456   2.472  0.0473 -0.3287 -0.5478
  762SOL     OW 3045   0.035   0.157   2.105 -0.1692 -0.7316 -0.1199
  762SOL    HW1 3046   0.017   0.086   2.173 -1.1172  0.7565  2.6423
  762SOL    HW2 3047  -0.041   0.217   2.097  0.3453 -1.1181  0.5210
  762SOL     MW 3048   0.022   0.156   2.113 -0.2264 -0.5863  0.3292
  763SOL     OW 3049   2.455   1.137   2.333 -0.0330 -0.0661 -0.3551
  763SOL    HW1 3050   2.495   1.065   2.287  1.8916 -2.0642  1.8606
  763SOL    HW2 3051   2.525   1.197   2.354 -2.0615 -0.9010 -1.9141
  763SOL     MW 3052   2.469   1.136   2.329 -0.0467 -0.4399 -0.2685
  764SOL     OW 3053   0.380   0.171   2.792 -0.9072 -0.0525 -0.2487
  764SOL    HW1 3054   0.373   0.181   2.696  1.0956 -1.3982 -0.7482
  764SOL    HW2 3055   0.384   0.263   2.829  1.8872  1.4758 -0.9391
  764SOL     MW 3056   0.380   0.185   2.784 -0.2743 -0.0284 -0.4057
  765SOL     OW 3057   2.704   0.147   2.302  0.1504  0.3662  0.6994
  765SOL    HW1 3058   2.690   0.110   2.215  0.4374  1.0406  0.3053
  765SOL    HW2 3059   2.782   0.106   2.341  0.8537 -0.9981 -1.1512
  765SOL     MW 3060   2.713   0.137   2.296  0.2811  0.2751  0.4032
  766SOL     OW 3061   1.867   3.040   2.109 -0.5634 -0.3200  0.4282
  766SOL    HW1 3062   1.939   3.048   2.049 -0.6343 -0.2712  0.8806
  766SOL    HW2 3063   1.804   2.978   2.066 -0.6305 -0.8581 -2.6186
  766SOL     MW 3064   1.868   3.033   2.095 -0.5816 -0.3846  0.0859
  767SOL     OW 3065   2.672   0.640   1.929  0.1101 -0.0750  0.5990
  767SOL    HW1 3066   2.718   0.676   2.004  0.2069 -2.6635 -0.2693
  767SOL    HW2 3067   2.585   0.681   1.929 -0.6040 -2.4729  1.4761
  767SOL     MW 3068   2.666   0.650   1.939  0.0287 -0.7329  0.6002
  768SOL     OW 3069   0.020   1.447   2.989  0.0163 -0.1484 -0.0630
  768SOL    HW1 3070   0.049   1.472   3.077 -0.9953  1.8571 -2.0842
  768SOL    HW2 3071   0.063   1.358   2.971  3.0745  0.3121  0.0350
  768SOL     MW 3072   0.030   1.439   2.998  0.2864  0.1770 -0.3167
  769SOL     OW 3073   2.347   0.690   2.424  0.7833 -0.2834  0.8285
  769SOL    HW1 3074   2.296   0.611   2.430 -3.3431  1.0888  1.8498
  769SOL    HW2 3075   2.387   0.674   2.340  2.1730 -0.2231  1.6377
  769SOL     MW 3076   2.346   0.678   2.414  0.4223 -0.0944  1.0700
  770SOL     OW 3077   0.073   1.618   2.636 -0.3717 -0.5951  0.1258
  770SOL    HW1 3078  -0.014   1.652   2.645 -1.0882 -0.2334  1.1867
  770SOL    HW2 3079   0.071   1.552   2.707 -0.4740 -0.1130  0.9129
  770SOL     MW 3080   0.061   1.614   2.647 -0.4797 -0.4837  0.3696
  771SOL     OW 3081   3.002   0.571   1.945 -0.3126 -0.4351  0.2334
  771SOL    HW1 3082   2.983   0.555   1.852  1.4894  1.3198  1.7488
  771SOL    HW2 3083   3.095   0.580   1.955  1.9154  0.9584 -1.2893
  771SOL     MW 3084   3.012   0.570   1.934  0.2192 -0.0197  0.2324
  772SOL     OW 3085   0.011   3.090   2.315  0.3821  0.5088 -0.4390
  772SOL    HW1 3086  -0.069   3.054   2.363 -1.6197  2.5389 -2.7124
  772SOL    HW2 3087   0.071   3.015   2.306  0.5957  0.1028 -0.1323
  772SOL     MW 3088   0.008   3.075   2.320  0.1461  0.7231 -0.6985
  773SOL     OW 3089   2.483   2.848   2.821 -0.0075  0.5707 -0.2672
  773SOL    HW1 3090   2.504   2.766   2.779 -1.0446 -2.1374 -1.6492
  773SOL    HW2 3091   2.438   2.825   2.909 -0.3436 -0.5230  1.9235
  773SOL     MW 3092   2.480   2.834   2.827 -0.1886  0.0691 -0.1605
  774SOL     OW 3093   2.320   1.192   1.819 -0.6018  0.0274  0.3364
  774SOL    HW1 3094   2.316   1.288   1.791  3.5631  2.0576  1.1266
  774SOL    HW2 3095   2.271   1.146   1.755 -2.1291  1.0756  4.2395
  774SOL     MW 3096   2.313   1.199   1.807 -0.2538  0.4336  0.9556
  775SOL     OW 3097   2.262   2.946   2.334  0.3503  0.0716 -0.0400
  775SOL    HW1 3098   2.293   3.028   2.300  2.3902 -2.0568  1.0372
  775SOL    HW2 3099   2.328   2.887   2.300  0.6590  0.3634  2.1778
  775SOL     MW 3100   2.275   2.949   2.325  0.6602 -0.1707  0.3948
  776SOL     OW 3101   0.123   1.539   0.116 -0.3480 -0.0416  0.1315
  776SOL    HW1 3102   0.215   1.514   0.102  1.1139  0.3067 -2.0708
  776SOL    HW2 3103   0.093   1.464   0.176 -2.8430  1.6368  0.4705
  776SOL     MW 3104   0.131   1.525   0.122 -0.4843  0.2258 -0.1143
  777SOL     OW 3105   2.981   1.117   1.736  0.2028 -0.1816  0.0277
  777SOL    HW1 3106   2.937   1.158   1.659 -0.2205  1.8029 -0.5720
  777SOL    HW2 3107   2.906   1.069   1.767 -0.9485 -1.4670  0.3092
  777SOL     MW 3108   2.965   1.116   1.730 -0.0050 -0.0894 -0.0143
  778SOL     OW 3109   2.823   0.429   2.749 -0.8105 -0.1318 -0.6285
  778SOL    HW1 3110   2.767   0.423   2.831  0.3000 -0.6866 -2.1798
  778SOL    HW2 3111   2.806   0.514   2.711 -0.4906 -0.5411 -0.2388
  778SOL     MW 3112   2.813   0.439   2.755 -0.6217 -0.2590 -0.7818
  779SOL     OW 3113   2.247   0.529   2.127 -0.3347  0.9550  0.5624
  779SOL    HW1 3114   2.178   0.581   2.166 -0.8276 -1.7614  1.2157
  779SOL    HW2 3115   2.264   0.474   2.198 -3.5492  1.3274  1.6355
  779SOL     MW 3116   2.240   0.528   2.142 -0.8239  0.6457  0.7902
  780SOL     OW 3117   0.109   0.270   2.675 -0.1546  0.5520  0.0382
  780SOL    HW1 3118   0.025   0.242   2.643 -3.4543  3.2844 -1.8805
  780SOL    HW2 3119   0.081   0.341   2.737 -2.0206 -1.8681  1.4545
  780SOL     MW 3120   0.095   0.276   2.679 -0.8362  0.5932 -0.0281
  781SOL     OW 3121   3.038   1.296   2.470 -0.1906  0.0718 -0.1562
  781SOL    HW1 3122   3.033   1.362   2.399 -1.7785 -0.4585 -2.4861
  781SOL    HW2 3123   3.078   1.216   2.434  1.8090  0.6620  0.9833
  781SOL     MW 3124   3.043   1.294   2.456 -0.1363  0.0797 -0.3133
  782SOL     OW 3125   0.603   1.531   0.060 -0.4008  0.9276  0.0646
  782SOL    HW1 3126   0.523   1.566   0.001 -0.2781 -0.1968  0.3073
  782SOL    HW2 3127   0.621   1.600   0.122  0.4715 -0.3585 -1.4477
  782SOL     MW 3128   0.595   1.545   0.060 -0.2695  0.6096 -0.1029
  783SOL     OW 3129   2.691   0.621   2.421  0.4461  0.2833  0.5293
  783SOL    HW1 3130   2.653   0.646   2.332  0.8731 -0.1147 -0.8857
  783SOL    HW2 3131   2.632   0.556   2.468 -1.1233  0.6778  2.3350
  783SOL     MW 3132   2.678   0.616   2.416  0.2954  0.2829  0.5808
  784SOL     OW 3133   0.199   0.853   2.890  0.0228  0.3116 -0.2351
  784SOL    HW1 3134   0.104   0.873   2.889 -3.0001 -0.5352 -1.6877
  784SOL    HW2 3135   0.232   0.904   2.811 -0.4961 -1.1795 -1.8112
  784SOL     MW 3136   0.191   0.862   2.879 -0.4445  0.0031 -0.6347
  785SOL     OW 3137   0.449   0.429   2.205 -0.6014  0.5298  0.2648
  785SOL    HW1 3138   0.454   0.449   2.108 -0.9690 -2.9778  0.0498
  785SOL    HW2 3139   0.361   0.397   2.225  0.3364 -0.5594 -2.2238
  785SOL     MW 3140   0.438   0.428   2.195 -0.5262 -0.0767 -0.0919
  786SOL     OW 3141   1.900   0.413   2.991 -0.1642 -0.2327 -0.7788
  786SOL    HW1 3142   1.832   0.475   2.991  2.9936 -2.2691 -0.3631
  786SOL    HW2 3143   1.965   0.437   2.925  0.3500  1.2402 -0.2319
  786SOL     MW 3144   1.900   0.424   2.982  0.3203 -0.3071 -0.6518
  787SOL     OW 3145   2.466   0.106   2.963 -0.2637 -0.5795 -0.2226
  787SOL    HW1 3146   2.552   0.093   2.921  3.8282  1.8279 -0.6186
  787SOL    HW2 3147   2.479   0.183   3.022  0.1060 -0.9022  0.0310
  787SOL     MW 3148   2.479   0.115   2.966  0.3250 -0.3044 -0.2414
  788SOL     OW 3149   2.849   3.024   2.410  0.0902  0.6032  0.7190
  788SOL    HW1 3150   2.830   2.994   2.497  1.4896 -1.6908 -0.6103
  788SOL    HW2 3151   2.876   2.945   2.357 -1.8045  0.2785 -3.3421
  788SOL     MW 3152   2.850   3.009   2.415  0.0248  0.2577  0.0078
  789SOL     OW 3153   0.100   0.187   3.045 -0.2176 -0.0492 -0.0794
  789SOL    HW1 3154   0.025   0.132   3.051  3.3297 -3.4750 -1.3338
  789SOL    HW2 3155   0.086   0.264   2.986 -2.9082  1.4348 -2.2571
  789SOL     MW 3156   0.088   0.190   3.038 -0.1046 -0.3054 -0.5322
  790SOL     OW 3157   3.101   1.065   2.393  0.3431 -0.3275 -0.4014
  790SOL    HW1 3158   3.086   1.022   2.483  0.0059 -1.6311 -0.9242
  790SOL    HW2 3159   3.019   1.054   2.343 -3.0724 -0.3970 -2.0624
  790SOL     MW 3160   3.088   1.058   2.398 -0.1521 -0.5086 -0.6896
  791SOL     OW 3161   2.536   0.464   2.594  0.4118 -0.7340 -0.3155
  791SOL    HW1 3162   2.478   0.525   2.649 -4.2255  4.4162 -1.0776
  791SOL    HW2 3163   2.586   0.410   2.654 -0.4239  0.9619  1.2400
  791SOL     MW 3164   2.535   0.465   2.609 -0.3103  0.1692 -0.2109
  792SOL     OW 3165   2.344   0.211   2.427 -0.5450 -0.0878 -0.2244
  792SOL    HW1 3166   2.358   0.303   2.445 -1.4484  2.0926  0.6257
  792SOL    HW2 3167   2.301   0.185   2.508 -0.4209  1.0547 -0.1802
  792SOL     MW 3168   2.340   0.220   2.440 -0.6478  0.3506 -0.1064
  793SOL     OW 3169   1.890   1.106   1.994  0.3643  0.7430 -0.0478
  793SOL    HW1 3170   1.844   1.112   1.906 -1.4708  1.0482 -1.9532
  793SOL    HW2 3171   1.982   1.079   1.985  2.9348  1.2773  0.3512
  793SOL     MW 3172   1.896   1.103   1.981  0.4614  0.8538 -0.2466
  794SOL     OW 3173   1.392   2.344   0.138  0.5299 -0.1130 -0.1184
  794SOL    HW1 3174   1.441   2.409   0.094  2.2404  1.7565 -1.3802
  794SOL    HW2 3175   1.447   2.327   0.216  1.3895  0.5007  0.8206
  794SOL     MW 3176   1.406   2.350   0.142  0.8690  0.2146 -0.1610
  795SOL     OW 3177   2.310   1.009   2.527 -0.3275 -0.7457  0.7070
  795SOL    HW1 3178   2.255   1.056   2.591 -1.6561 -0.0081  0.6380
  795SOL    HW2 3179   2.361   1.073   2.479  0.6844  0.9089  3.4989
  795SOL     MW 3180   2.309   1.023   2.529 -0.3693 -0.4301  1.0662
  796SOL     OW 3181   0.261   0.623   2.751 -0.1154  0.1521  0.7140
  796SOL    HW1 3182   0.219   0.683   2.809 -0.6602 -0.2817 -0.1781
  796SOL    HW2 3183   0.199   0.602   2.680  0.8944 -0.3669 -1.3659
  796SOL     MW 3184   0.247   0.628   2.750 -0.0541  0.0264  0.3219
  797SOL     OW 3185   2.599   0.147   2.569  0.5350 -0.5438  0.3535
  797SOL    HW1 3186   2.499   0.180   2.570  0.9199  2.2074 -1.7925
  797SOL    HW2 3187   2.619   0.150   2.474  2.1262  0.4533 -0.4982
  797SOL     MW 3188   2.588   0.152   2.557  0.7957 -0.0493 -0.0420
  798SOL     OW 3189   2.357   0.108   2.181  0.0380  0.0652 -0.3820
  798SOL    HW1 3190   2.355   0.140   2.277 -0.7926  0.1399 -2.6454
  798SOL    HW2 3191   2.443   0.065   2.177 -1.0134 -1.7325 -1.9969
  798SOL     MW 3192   2.368   0.106   2.193 -0.2103 -0.1621 -0.8937
  799SOL     OW 3193   2.553   2.976   0.142 -0.0107 -0.4279 -0.5820
  799SOL    HW1 3194   2.486   2.929   0.097  2.3790  0.1788  0.5735
  799SOL    HW2 3195   2.534   2.984   0.237 -1.5312  2.4720  0.7898
  799SOL     MW 3196   2.542   2.971   0.149  0.1040  0.0348 -0.2485
  800SOL     OW 3197   1.932   0.055   1.745 -0.1446  0.6046  0.1283
  800SOL    HW1 3198   1.877  -0.022   1.728 -0.3155 -0.2687 -0.6231
  800SOL    HW2 3199   1.993   0.029   1.810  0.2803  0.3793 -3.2261
  800SOL     MW 3200   1.932   0.041   1.751 -0.1111  0.4596 -0.4135
  801SOL     OW 3201   2.794   1.227   2.582  0.3190  0.3742 -0.1183
  801SOL    HW1 3202   2.782   1.134   2.591 -0.3130  1.4934  2.1676
  801SOL    HW2 3203   2.884   1.241   2.545 -0.2708  2.5110 -0.3225
  801SOL     MW 3204   2.804   1.216   2.579  0.1578  0.8038  0.1564
  802SOL     OW 3205   2.592   1.467   2.784  0.2181  0.0514 -0.1601
  802SOL    HW1 3206   2.564   1.386   2.742 -1.2030  1.6698  0.0533
  802SOL    HW2 3207   2.678   1.463   2.812 -2.2918  0.9571  1.9502
  802SOL     MW 3208   2.599   1.456   2.782 -0.3006  0.3844  0.1465
  803SOL     OW 3209   2.238   1.375   2.020 -0.5168 -0.5659  0.0121
  803SOL    HW1 3210   2.221   1.358   2.110  0.6781 -0.7173 -1.1060
  803SOL    HW2 3211   2.237   1.286   1.982  0.5650 -2.0042 -0.8251
  803SOL     MW 3212   2.236   1.361   2.027 -0.2164 -0.7756 -0.2459
  804SOL     OW 3213   2.284   0.071   0.046 -0.3087  0.4668  0.1111
  804SOL    HW1 3214   2.231   0.152   0.046 -0.0160  1.1605 -2.4362
  804SOL    HW2 3215   2.356   0.086  -0.022 -0.6161 -1.4669  1.8125
  804SOL     MW 3216   2.286   0.083   0.037 -0.3106  0.3032 -0.0005
  805SOL     OW 3217   2.749   0.958   2.603  0.3854 -0.2893 -0.4304
  805SOL    HW1 3218   2.664   0.914   2.597  0.4000  0.9179 -1.0515
  805SOL    HW2 3219   2.818   0.895   2.618 -2.2357 -0.0932 -1.8956
  805SOL     MW 3220   2.747   0.944   2.604  0.0415 -0.1042 -0.7057
  806SOL     OW 3221   2.507   0.693   2.190 -0.3533 -0.3285 -0.1257
  806SOL    HW1 3222   2.423   0.684   2.144 -0.3943 -2.7385 -0.1420
  806SOL    HW2 3223   2.542   0.785   2.185 -1.8521 -1.5752  0.9383
  806SOL     MW 3224   2.501   0.704   2.183 -0.5565 -0.8109  0.0125
  807SOL     OW 3225   0.068   1.077   2.044 -0.4482  0.1098  0.0534
  807SOL    HW1 3226   0.119   1.007   2.088  0.9619 -2.7847 -0.2092
  807SOL    HW2 3227  -0.027   1.068   2.072 -0.9547  0.4942  0.1809
  807SOL     MW 3228   0.062   1.067   2.054 -0.3290 -0.2214  0.0356
  808SOL     OW 3229   2.641   3.068   2.773  0.3866  0.0165 -0.1670
  808SOL    HW1 3230   2.568   3.011   2.787  0.5342 -0.3998  0.5810
  808SOL    HW2 3231   2.633   3.109   2.689 -0.1207 -0.6803  1.7741
  808SOL     MW 3232   2.631   3.066   2.763  0.3391 -0.1304  0.1878
  809SOL     OW 3233   2.633   1.340   2.414  0.0044  0.6214  0.5264
  809SOL    HW1 3234   2.668   1.284   2.482  0.9341 -2.3667 -1.2104
  809SOL    HW2 3235   2.696   1.327   2.335 -0.4892 -1.2031  1.2453
  809SOL     MW 3236   2.646   1.331   2.413  0.0619 -0.0136  0.3921
  810SOL     OW 3237   2.225   1.318   2.307  0.0004 -0.2069  0.0268
  810SOL    HW1 3238   2.294   1.252   2.309 -1.7651  0.9927 -1.4202
  810SOL    HW2 3239   2.187   1.316   2.393  0.6349  2.4729 -0.8698
  810SOL     MW 3240   2.229   1.309   2.319 -0.1488  0.3050 -0.2824
  811SOL     OW 3241   1.533   0.127   2.311 -0.4509 -0.0030  0.1559
  811SOL    HW1 3242   1.627   0.122   2.321  0.6786  0.3634  2.5547
  811SOL    HW2 3243   1.523   0.133   2.214  2.4135  0.0865 -0.3623
  811SOL     MW 3244   1.544   0.127   2.299  0.0761  0.0572  0.4040
  812SOL     OW 3245   1.469   2.811   2.003  0.1303 -0.5133  0.0074
  812SOL    HW1 3246   1.557   2.828   1.968 -1.9840  0.3482 -0.6782
  812SOL    HW2 3247   1.484   2.815   2.100  0.0981 -0.7866 -0.5853
  812SOL     MW 3248   1.483   2.814   2.012 -0.1529 -0.4357 -0.1612
  813SOL     OW 3249   1.996   0.611   2.235  0.2116 -0.0502  0.0350
  813SOL    HW1 3250   1.923   0.552   2.219 -2.6155 -3.1001 -0.2939
  813SOL    HW2 3251   1.959   0.693   2.278  0.4553  1.2795  1.7167
  813SOL     MW 3252   1.981   0.614   2.239 -0.1293 -0.2771  0.2135
  814SOL     OW 3253   2.727   1.261   1.654 -0.2801  0.6527  0.2940
  814SOL    HW1 3254   2.691   1.218   1.736 -2.1511 -0.7208  0.9793
  814SOL    HW2 3255   2.702   1.211   1.578 -0.5416  2.1618 -2.6737
  814SOL     MW 3256   2.719   1.249   1.655 -0.5615  0.6706 -0.0071
  815SOL     OW 3257   2.587   1.764   2.389 -0.1074 -0.3311  0.3190
  815SOL    HW1 3258   2.536   1.680   2.366 -0.1069 -2.0242  1.1202
  815SOL    HW2 3259   2.673   1.721   2.396  2.5713 -0.9216 -1.5644
  815SOL     MW 3260   2.591   1.747   2.387  0.2461 -0.6324  0.1762
  816SOL     OW 3261   0.713   0.724   2.731 -0.1136  0.6686  0.1396
  816SOL    HW1 3262   0.743   0.639   2.773 -0.7411 -2.9854  0.1394
  816SOL    HW2 3263   0.618   0.709   2.686  1.4092 -0.8467  0.2729
  816SOL     MW 3264   0.704   0.711   2.731  0.0045 -0.0134  0.1572
  817SOL     OW 3265   2.980   1.211   1.465  0.0768 -0.4698 -0.3256
  817SOL    HW1 3266   3.069   1.172   1.463 -1.0754  0.9822 -1.3526
  817SOL    HW2 3267   2.984   1.286   1.401 -1.1431  0.4735  0.3834
  817SOL     MW 3268   2.992   1.216   1.456 -0.2361 -0.1537 -0.3675
  818SOL     OW 3269   1.917   1.088   2.658 -0.3895 -0.0407  0.3832
  818SOL    HW1 3270   1.897   1.045   2.571 -0.0856 -1.3526  1.7866
  818SOL    HW2 3271   1.992   1.045   2.699  1.8490  1.2956  0.0933
  818SOL     MW 3272   1.924   1.077   2.652 -0.0540 -0.0375  0.5301
  819SOL     OW 3273   1.988   0.280   2.528  0.3145 -0.3440 -0.0397
  819SOL    HW1 3274   1.909   0.342   2.530 -0.3174  1.6856 -0.6768
  819SOL    HW2 3275   2.010   0.271   2.624 -3.7857  0.0889  1.2278
  819SOL     MW 3276   1.981   0.287   2.541 -0.3099 -0.0191  0.0435
  820SOL     OW 3277   2.513   1.724   2.693  0.5991 -0.2672 -0.0266
  820SOL    HW1 3278   2.561   1.648   2.725  0.3985  1.5385 -0.6721
  820SOL    HW2 3279   2.532   1.725   2.598  0.2001 -1.2832 -0.9631
  820SOL     MW 3280   2.522   1.714   2.685  0.5200 -0.1630 -0.2353
  821SOL     OW 3281   2.539   1.358   2.007  0.7981  0.5011 -0.0099
  821SOL    HW1 3282   2.557   1.413   1.933  1.4903 -3.6341  1.1134
  821SOL    HW2 3283   2.444   1.372   2.007 -3.0606 -2.6283  1.6255
  821SOL     MW 3284   2.529   1.367   1.997  0.3803 -0.4574  0.3541
  822SOL     OW 3285   2.829   2.676   1.433 -0.4242  0.1014 -0.4825
  822SOL    HW1 3286   2.856   2.670   1.528 -0.3946  0.3749  1.1255
  822SOL    HW2 3287   2.837   2.770   1.407 -0.6503  1.1029  0.6193
  822SOL     MW 3288   2.834   2.688   1.442 -0.4501  0.2697 -0.1250
  823SOL     OW 3289   2.391   0.490   1.829  0.1239 -0.1547 -0.2886
  823SOL    HW1 3290   2.484   0.468   1.798 -2.2152  0.4565 -1.3178
  823SOL    HW2 3291   2.373   0.446   1.908 -3.5875  1.3664 -1.0589
  823SOL     MW 3292   2.401   0.481   1.835 -0.6744  0.1266 -0.5260
  824SOL     OW 3293   2.210   1.446   2.598 -0.8722 -0.9035 -0.8949
  824SOL    HW1 3294   2.290   1.496   2.575 -0.4906  0.8054  1.0655
  824SOL    HW2 3295   2.156   1.508   2.645  0.4478 -0.2807  1.1986
  824SOL     MW 3296   2.214   1.461   2.601 -0.6477 -0.5959 -0.3600
  825SOL     OW 3297   1.923   2.514   0.270  0.0265 -1.1148  0.4422
  825SOL    HW1 3298   1.876   2.455   0.323  1.2274  2.4197 -1.1814
  825SOL    HW2 3299   1.991   2.466   0.220 -1.5960 -1.9707 -3.4488
  825SOL     MW 3300   1.926   2.500   0.270 -0.0291 -0.7614 -0.2854
  826SOL     OW 3301   1.802   2.381   0.492 -0.1366  0.3854  0.3336
  826SOL    HW1 3302   1.760   2.305   0.538 -0.2782  1.0291  1.2421
  826SOL    HW2 3303   1.779   2.457   0.538  0.8387 -1.2835  1.1639
  826SOL     MW 3304   1.794   2.381   0.504 -0.0266  0.2501  0.5630
  827SOL     OW 3305   1.908   2.194   0.789  0.0682  0.1025 -0.0235
  827SOL    HW1 3306   1.839   2.201   0.721  1.5746  0.8441 -0.7918
  827SOL    HW2 3307   1.874   2.148   0.869  0.8100  0.5123  2.7687
  827SOL     MW 3308   1.895   2.189   0.790  0.3648  0.2545  0.2435
  828SOL     OW 3309   0.057   2.571   0.567 -0.4092 -0.8011  0.0580
  828SOL    HW1 3310   0.154   2.584   0.574 -0.5821  0.6718 -0.7014
  828SOL    HW2 3311   0.023   2.609   0.489  0.2510 -0.7530  1.5744
  828SOL     MW 3312   0.065   2.578   0.558 -0.3449 -0.6004  0.1579
  829SOL     OW 3313   2.980   2.921   1.170 -0.3313  0.1119 -0.6668
  829SOL    HW1 3314   2.899   2.924   1.114 -0.8181  0.7031 -1.7341
  829SOL    HW2 3315   3.025   2.837   1.151  0.1937  1.4250 -0.8344
  829SOL     MW 3316   2.975   2.910   1.160 -0.3262  0.3632 -0.8297
  830SOL     OW 3317   2.581   2.816   2.018  0.3383 -0.2828 -0.0677
  830SOL    HW1 3318   2.477   2.811   2.001 -2.7774  0.9642  0.8000
  830SOL    HW2 3319   2.621   2.782   1.938 -1.0555 -1.9347 -0.2075
  830SOL     MW 3320   2.572   2.811   2.005 -0.2567 -0.3362  0.0283
  831SOL     OW 3321   2.358   2.471   1.189  0.1351  0.0850  0.5502
  831SOL    HW1 3322   2.348   2.448   1.280 -0.1138 -1.4360  1.3829
  831SOL    HW2 3323   2.449   2.434   1.178  0.4651  2.4458 -0.4840
  831SOL     MW 3324   2.368   2.463   1.200  0.1458  0.1958  0.5236
  832SOL     OW 3325   2.360   2.218   1.883 -0.0435 -0.3048  0.3653
  832SOL    HW1 3326   2.385   2.287   1.943 -1.4077  0.9420  2.5492
  832SOL    HW2 3327   2.438   2.166   1.863  2.5593  1.0329  0.1600
  832SOL     MW 3328   2.373   2.220   1.888  0.1199  0.0362  0.6264
  833SOL     OW 3329   1.708   2.464   0.859 -0.0898  0.2642  0.1190
  833SOL    HW1 3330   1.624   2.425   0.884  2.3957  0.1048  1.3138
  833SOL    HW2 3331   1.721   2.527   0.927  1.9308 -2.2669 -5.1613
  833SOL     MW 3332   1.698   2.467   0.871  0.5048 -0.0908 -0.4201
  834SOL     OW 3333   2.081   2.445   0.557  1.0510  0.2526  0.2263
  834SOL    HW1 3334   1.994   2.442   0.529  0.4569 -0.1044  1.6156
  834SOL    HW2 3335   2.149   2.402   0.496  0.0014 -0.4940  1.3267
  834SOL     MW 3336   2.078   2.439   0.545  0.8342  0.1070  0.5548
  835SOL     OW 3337   1.791   2.616   0.650 -0.5044 -0.2487  0.3623
  835SOL    HW1 3338   1.734   2.562   0.713 -0.6326 -0.8657 -0.2202
  835SOL    HW2 3339   1.857   2.673   0.695 -2.1011 -3.9095 -0.9153
  835SOL     MW 3340   1.792   2.617   0.664 -0.7320 -0.8131  0.1169
  836SOL     OW 3341   1.949   2.210   1.611 -0.0038  0.2472  0.2810
  836SOL    HW1 3342   2.041   2.238   1.630 -0.0449  1.5279  0.5273
  836SOL    HW2 3343   1.887   2.270   1.653 -0.0864 -0.9985  1.7394
  836SOL     MW 3344   1.953   2.222   1.619 -0.0201  0.2518  0.5059
  837SOL     OW 3345   2.117   0.218   0.670 -0.6637  0.1874 -0.1294
  837SOL    HW1 3346   2.030   0.256   0.652 -2.2060  0.4978  3.3764
  837SOL    HW2 3347   2.124   0.149   0.603 -1.8609 -2.1526  1.3144
  837SOL     MW 3348   2.106   0.214   0.659 -1.0252 -0.0804  0.5237
  838SOL     OW 3349   2.947   2.040   0.916  0.0210 -0.0089 -0.2098
  838SOL    HW1 3350   2.871   2.024   0.973 -0.2391 -0.8822 -0.1239
  838SOL    HW2 3351   2.976   1.962   0.871  0.3864  1.2849  0.0931
  838SOL     MW 3352   2.941   2.027   0.918  0.0349  0.0466 -0.1585
  839SOL     OW 3353   1.490   2.337   1.008 -0.3577  0.5132 -0.4841
  839SOL    HW1 3354   1.509   2.403   1.078 -1.6528 -3.6698  1.8186
  839SOL    HW2 3355   1.500   2.262   1.057 -0.2893  2.2027 -2.7380
  839SOL     MW 3356   1.494   2.336   1.024 -0.5196  0.1842 -0.4776
  840SOL     OW 3357   2.367   2.157   2.453  0.1736  0.0207 -0.4308
  840SOL    HW1 3358   2.304   2.213   2.402  1.2941 -0.6678 -0.6053
  840SOL    HW2 3359   2.379   2.191   2.541 -2.7069 -3.3498 -0.7460
  840SOL     MW 3360   2.360   2.169   2.458 -0.0586 -0.5149 -0.4954
  841SOL     OW 3361   2.122   2.424   0.129 -0.4185  0.1736  0.5033
  841SOL    HW1 3362   2.142   2.497   0.071  1.7367 -0.8281 -1.5893
  841SOL    HW2 3363   2.069   2.357   0.080 -1.1151  1.2342  1.2209
  841SOL     MW 3364   2.117   2.425   0.115 -0.2260  0.1814  0.3219
  842SOL     OW 3365   2.605   2.080   1.541 -0.4826  0.1895 -0.0299
  842SOL    HW1 3366   2.543   2.013   1.570  1.2087  0.0693 -1.0601
  842SOL    HW2 3367   2.581   2.106   1.451  2.3971 -2.8735 -0.6707
  842SOL     MW 3368   2.594   2.074   1.533  0.1205 -0.2305 -0.2503
  843SOL     OW 3369   2.689   2.791   1.766 -0.5255  0.0553  0.1312
  843SOL    HW1 3370   2.777   2.739   1.758  2.3504  0.3446 -1.4353
  843SOL    HW2 3371   2.622   2.722   1.767 -2.5934 -2.3379  1.8058
  843SOL     MW 3372   2.691   2.775   1.765 -0.4189 -0.2223  0.1454
  844SOL     OW 3373   2.587   2.343   1.151  0.0138 -0.3384 -0.0701
  844SOL    HW1 3374   2.622   2.352   1.062 -1.8783  0.5818  0.2072
  844SOL    HW2 3375   2.658   2.357   1.216  0.3677 -2.5004  3.5114
  844SOL     MW 3376   2.601   2.346   1.148 -0.1892 -0.5022  0.4390
  845SOL     OW 3377   2.829   2.453   0.302  0.1309 -0.5145 -0.1694
  845SOL    HW1 3378   2.760   2.388   0.322 -1.5968  0.9477  0.8121
  845SOL    HW2 3379   2.845   2.487   0.389 -1.4960 -1.8632 -2.2250
  845SOL     MW 3380   2.822   2.449   0.316 -0.3117 -0.4995 -0.3111
  846SOL     OW 3381   1.534   2.875   0.788  0.5463  0.5598 -1.1226
  846SOL    HW1 3382   1.584   2.904   0.863 -1.1088 -0.4180  0.2297
  846SOL    HW2 3383   1.447   2.897   0.810 -0.3912  1.9434 -1.0355
  846SOL     MW 3384   1.529   2.881   0.801  0.2042  0.6133 -0.9327
  847SOL     OW 3385   2.609   1.925   0.184 -0.4343  0.5461 -0.2597
  847SOL    HW1 3386   2.699   1.892   0.202  1.9121 -0.9535  1.9524
  847SOL    HW2 3387   2.568   1.859   0.121 -1.4258 -0.3276 -1.1562
  847SOL     MW 3388   2.615   1.912   0.178 -0.2555  0.2330 -0.0861
  848SOL     OW 3389   2.485   2.150   1.312 -0.3141 -0.2341  0.4362
  848SOL    HW1 3390   2.535   2.191   1.240  2.4937  0.5052 -2.0577
  848SOL    HW2 3391   2.443   2.075   1.267 -0.2646  1.3502 -0.8851
  848SOL     MW 3392   2.486   2.145   1.297  0.0629  0.0725 -0.0672
  849SOL     OW 3393   1.975   2.775   0.762 -0.0162  0.3336 -0.7922
  849SOL    HW1 3394   2.006   2.701   0.820  1.3389  1.3681  1.3633
  849SOL    HW2 3395   2.041   2.780   0.684  3.1226 -0.4762  1.1842
  849SOL     MW 3396   1.988   2.766   0.759  0.5767  0.3632 -0.2470
  850SOL     OW 3397   2.200   1.954   1.689  0.6552 -0.6307 -0.0675
  850SOL    HW1 3398   2.132   1.892   1.649 -1.7348 -0.5185  1.2417
  850SOL    HW2 3399   2.159   2.040   1.707  1.0573  2.5407  0.9295
  850SOL     MW 3400   2.186   1.957   1.687  0.3930 -0.1974  0.2368
  851SOL     OW 3401   2.251   2.365   0.367  0.0789 -0.2777 -0.6505
  851SOL    HW1 3402   2.197   2.395   0.300  3.6771 -3.3940  1.9278
  851SOL    HW2 3403   2.331   2.412   0.343 -1.0505  0.7238 -0.2375
  851SOL     MW 3404   2.255   2.375   0.355  0.4046 -0.5568 -0.2558
  852SOL     OW 3405   2.284   2.185   0.181  0.2788  0.6359  0.6080
  852SOL    HW1 3406   2.278   2.250   0.255  1.9002  1.9184  0.5115
  852SOL    HW2 3407   2.378   2.175   0.158 -1.5175 -0.8164  1.7568
  852SOL     MW 3408   2.295   2.192   0.187  0.2557  0.6135  0.7469
  853SOL     OW 3409   2.460   2.437   1.988  0.1758 -0.1655  0.0231
  853SOL    HW1 3410   2.481   2.479   1.905  0.9535  2.0324  1.4455
  853SOL    HW2 3411   2.546   2.395   2.026  2.7473  1.8287 -1.1367
  853SOL     MW 3412   2.474   2.437   1.982  0.6177  0.3876  0.0578
  854SOL     OW 3413   2.852   2.263   0.777 -0.3599  0.4317  0.4471
  854SOL    HW1 3414   2.765   2.240   0.742 -0.4325 -0.6052  2.7891
  854SOL    HW2 3415   2.878   2.186   0.831  0.6142  0.7515  0.6199
  854SOL     MW 3416   2.844   2.250   0.780 -0.2410  0.3371  0.7789
  855SOL     OW 3417   2.663   2.238   0.329 -0.1333 -0.3292 -0.2800
  855SOL    HW1 3418   2.624   2.281   0.406 -1.5615  0.5798  2.4059
  855SOL    HW2 3419   2.732   2.184   0.357 -0.9425  0.9764 -1.2915
  855SOL     MW 3420   2.667   2.236   0.343 -0.4285 -0.0370 -0.0591
  856SOL     OW 3421   2.173   1.947   0.229  0.2680  0.3779 -0.0947
  856SOL    HW1 3422   2.078   1.950   0.241 -0.8934 -0.4801 -2.6833
  856SOL    HW2 3423   2.202   2.038   0.215  0.6189  0.8076 -0.0112
  856SOL     MW 3424   2.165   1.960   0.229  0.1611  0.3213 -0.4252
  857SOL     OW 3425   2.576   1.963   0.482  0.6920  0.9287  0.5673
  857SOL    HW1 3426   2.548   1.966   0.392 -1.0677  0.2532 -2.4075
  857SOL    HW2 3427   2.493   1.940   0.530  1.1975  1.6171 -3.2709
  857SOL     MW 3428   2.561   1.961   0.477  0.5265  0.9304 -0.3316
  858SOL     OW 3429   2.908   2.629   1.696  0.0141  0.2615 -0.5537
  858SOL    HW1 3430   2.991   2.658   1.741  0.0487 -0.4562  0.1352
  858SOL    HW2 3431   2.896   2.537   1.733  2.7877  1.5017 -1.2431
  858SOL     MW 3432   2.917   2.621   1.707  0.3846  0.3305 -0.5538
  859SOL     OW 3433   2.116   2.491   0.850  0.2941  0.1179  0.2582
  859SOL    HW1 3434   2.105   2.460   0.756  0.6237  1.1985 -1.6101
  859SOL    HW2 3435   2.191   2.446   0.883 -0.2596 -1.4133  0.9838
  859SOL     MW 3436   2.125   2.481   0.842  0.2646  0.0585  0.1075
  860SOL     OW 3437   2.639   2.582   0.143  0.2247 -0.2801 -0.0112
  860SOL    HW1 3438   2.708   2.550   0.209  0.2228 -2.7142  0.1590
  860SOL    HW2 3439   2.660   2.676   0.125 -0.5321  1.7186 -2.7021
  860SOL     MW 3440   2.651   2.590   0.149  0.1246 -0.3376 -0.3437
  861SOL     OW 3441   1.583   2.137   1.221 -0.4037  0.2642  0.3171
  861SOL    HW1 3442   1.639   2.157   1.305 -1.6614  0.9123  1.6763
  861SOL    HW2 3443   1.519   2.071   1.252 -0.2099 -0.7657 -1.2823
  861SOL     MW 3444   1.582   2.131   1.236 -0.5440  0.2139  0.2854
  862SOL     OW 3445   2.409   1.893   1.502 -0.1583  0.2132 -0.1020
  862SOL    HW1 3446   2.329   1.922   1.550 -0.6039 -0.1930 -2.6764
  862SOL    HW2 3447   2.372   1.880   1.419  0.0747  3.1568 -0.6928
  862SOL     MW 3448   2.394   1.895   1.498 -0.1864  0.5480 -0.5196
  863SOL     OW 3449   3.093   1.764   1.203  0.7488  0.0005  0.1192
  863SOL    HW1 3450   3.156   1.771   1.136  0.8144  0.8026  1.4847
  863SOL    HW2 3451   3.075   1.854   1.224  2.6784 -2.2519 -3.0247
  863SOL     MW 3452   3.099   1.777   1.197  1.0121 -0.1909 -0.1154
  864SOL     OW 3453   0.020   1.837   0.809 -0.2716  0.1578  0.1495
  864SOL    HW1 3454  -0.041   1.791   0.869 -0.5646  0.0816  1.5307
  864SOL    HW2 3455  -0.005   1.803   0.721 -2.4252 -1.6895  0.0183
  864SOL     MW 3456   0.009   1.826   0.805 -0.5944 -0.0960  0.3144
  865SOL     OW 3457   2.526   2.168   0.064  0.3917 -0.2877  0.3913
  865SOL    HW1 3458   2.568   2.101   0.105 -0.0129  1.8773 -2.4050
  865SOL    HW2 3459   2.516   2.141  -0.028 -0.8826  2.6260 -0.6426
  865SOL     MW 3460   2.530   2.156   0.057  0.1702  0.3824 -0.1141
  866SOL     OW 3461   2.633   2.348   1.627 -0.2210  0.1561 -0.0114
  866SOL    HW1 3462   2.601   2.253   1.648  0.8874 -2.4098 -2.6218
  866SOL    HW2 3463   2.653   2.344   1.531 -1.4229 -3.0279 -0.8652
  866SOL     MW 3464   2.631   2.335   1.617 -0.2334 -0.6025 -0.4685
  867SOL     OW 3465   0.029   2.736   1.815  0.4596 -0.7500  0.0584
  867SOL    HW1 3466   0.027   2.771   1.907 -1.1026 -2.3144  0.9635
  867SOL    HW2 3467   0.012   2.809   1.757 -2.3078 -0.2801 -1.1849
  867SOL     MW 3468   0.026   2.750   1.820 -0.1117 -0.8944  0.0138
  868SOL     OW 3469   2.779   2.583   0.563  0.4358 -0.1046  0.5359
  868SOL    HW1 3470   2.701   2.524   0.551 -0.9546  0.0757 -0.4302
  868SOL    HW2 3471   2.736   2.669   0.540  0.4494  0.1588 -1.5427
  868SOL     MW 3472   2.763   2.586   0.558  0.2542 -0.0461  0.1342
  869SOL     OW 3473   1.970   2.336   1.032  0.3496  0.1239  0.1190
  869SOL    HW1 3474   2.006   2.411   0.985 -0.4068 -1.4498 -2.1572
  869SOL    HW2 3475   1.942   2.289   0.961  3.8209 -0.2743  3.0489
  869SOL     MW 3476   1.971   2.340   1.016  0.7078 -0.1363  0.2052
  870SOL     OW 3477   2.194   0.009   0.479 -0.2883 -0.4001 -0.7565
  870SOL    HW1 3478   2.251   0.065   0.420 -1.7900 -1.3078  0.8141
  870SOL    HW2 3479   2.244  -0.073   0.490  0.1501  0.2638 -0.1333
  870SOL     MW 3480   2.208   0.006   0.473 -0.4286 -0.4322 -0.4671
  871SOL     OW 3481   2.473   2.020   0.933 -0.1835  1.4410  0.2477
  871SOL    HW1 3482   2.412   1.989   0.870  0.4082  1.4895  1.3087
  871SOL    HW2 3483   2.432   2.100   0.957  0.7556  1.4538 -0.7668
  871SOL     MW 3484   2.460   2.026   0.928  0.0185  1.4491  0.2539
  872SOL     OW 3485   2.037   2.526   1.427  0.2082  0.1902  0.1867
  872SOL    HW1 3486   1.993   2.579   1.491  1.1850 -2.1297  4.3785
  872SOL    HW2 3487   1.974   2.460   1.407  0.8963 -0.4616 -1.2577
  872SOL     MW 3488   2.023   2.524   1.433  0.4279 -0.2019  0.5492
  873SOL     OW 3489   2.832   2.098   1.954  0.2451  0.1259 -0.0412
  873SOL    HW1 3490   2.853   2.144   2.037  0.0204  1.3708  2.9650
  873SOL    HW2 3491   2.906   2.113   1.893 -2.3092  0.7791  0.4208
  873SOL     MW 3492   2.845   2.106   1.957 -0.1216  0.3763  0.4164
  874SOL     OW 3493   2.411   1.524   2.428 -0.8450  0.8571  0.5584
  874SOL    HW1 3494   2.331   1.493   2.378 -1.0947  2.1278  0.9661
  874SOL    HW2 3495   2.478   1.451   2.432  1.1492 -2.2425  0.9492
  874SOL     MW 3496   2.409   1.511   2.422 -0.6148  0.6158  0.6637
  875SOL     OW 3497   2.329   2.272   0.967 -0.0637 -0.5519  0.4032
  875SOL    HW1 3498   2.366   2.340   0.909  1.9554 -3.0660 -1.5391
  875SOL    HW2 3499   2.328   2.317   1.055 -0.7097  1.0599  0.6261
  875SOL     MW 3500   2.334   2.287   0.971  0.1175 -0.6709  0.1764
  876SOL     OW 3501   3.014   2.341   1.277 -0.3666  0.0828 -0.2575
  876SOL    HW1 3502   3.064   2.366   1.194 -1.5155  2.0786  2.5385
  876SOL    HW2 3503   3.076   2.353   1.349  0.1076  2.0685 -2.1880
  876SOL     MW 3504   3.029   2.346   1.276 -0.4556  0.6081 -0.1433
  877SOL     OW 3505   3.045   2.732   0.346  0.5551 -0.2330  0.3985
  877SOL    HW1 3506   3.043   2.819   0.305 -2.9687 -0.1545 -1.3288
  877SOL    HW2 3507   3.050   2.673   0.270  2.4043 -2.7123  1.8669
  877SOL     MW 3508   3.045   2.735   0.330  0.3341 -0.5497  0.3644
  878SOL     OW 3509   2.325   1.834   1.224  0.4233  0.2758  0.3653
  878SOL    HW1 3510   2.265   1.758   1.205  5.4571 -1.6964  0.4129
  878SOL    HW2 3511   2.415   1.807   1.215 -0.8827 -1.2878  1.8033
  878SOL     MW 3512   2.329   1.820   1.221  0.9151 -0.1907  0.5613
  879SOL     OW 3513   2.680   2.425   0.923 -0.7476  0.4176  0.2182
  879SOL    HW1 3514   2.729   2.490   0.970 -1.0626 -2.5543 -3.1561
  879SOL    HW2 3515   2.746   2.386   0.858 -0.0331  0.6412 -3.3136
  879SOL     MW 3516   2.695   2.428   0.920 -0.6949  0.0550 -0.6930
  880SOL     OW 3517   2.606   2.190   0.686 -0.3047  0.1095 -0.2012
  880SOL    HW1 3518   2.555   2.175   0.767 -1.4784  0.9664  1.1067
  880SOL    HW2 3519   2.600   2.113   0.636 -0.4956  1.9593  1.1217
  880SOL     MW 3520   2.599   2.178   0.690 -0.4848  0.4666  0.1459
  881SOL     OW 3521   2.969   2.698   0.748  0.0757 -0.1933  0.2695
  881SOL    HW1 3522   2.903   2.666   0.687 -0.6293  1.1264 -0.5386
  881SOL    HW2 3523   3.043   2.648   0.712 -1.9199  0.6995 -1.9345
  881SOL     MW 3524   2.970   2.688   0.735 -0.2806  0.0986 -0.1279
  882SOL     OW 3525   2.311   2.802   1.955 -0.2494 -0.2946  0.2047
  882SOL    HW1 3526   2.306   2.799   1.856 -0.9497 -0.5107 -2.7717
  882SOL    HW2 3527   2.248   2.738   1.992 -2.0222  0.0041  0.6318
  882SOL     MW 3528   2.302   2.793   1.947 -0.5757 -0.2837 -0.1316
  883SOL     OW 3529   2.286   2.323   1.418  0.2542  0.7607 -0.0407
  883SOL    HW1 3530   2.357   2.256   1.412  1.1799 -0.4972  0.3748
  883SOL    HW2 3531   2.212   2.279   1.370 -1.5310 -0.4665 -0.9591
  883SOL     MW 3532   2.286   2.308   1.411  0.1408  0.4328 -0.1071
  884SOL     OW 3533   1.884   1.881   1.114  0.4125 -0.1109 -0.4615
  884SOL    HW1 3534   1.830   1.959   1.085 -0.5906  0.8270  0.9961
  884SOL    HW2 3535   1.973   1.918   1.126 -0.6391 -3.4355 -1.4124
  884SOL     MW 3536   1.889   1.896   1.112  0.1414 -0.4258 -0.3947
  885SOL     OW 3537   2.807   2.414   1.822 -0.0387 -0.3691  0.2628
  885SOL    HW1 3538   2.882   2.363   1.838 -1.2322  2.8743 -0.2209
  885SOL    HW2 3539   2.763   2.371   1.745 -0.2503 -2.3976 -1.2307
  885SOL     MW 3540   2.811   2.401   1.814 -0.2241 -0.2088  0.0019
  886SOL     OW 3541   2.759   2.406   1.335 -0.3397 -0.9768  0.0443
  886SOL    HW1 3542   2.850   2.385   1.304 -0.3346 -1.4109 -0.3147
  886SOL    HW2 3543   2.764   2.498   1.356 -2.5178 -3.3429  1.0716
  886SOL     MW 3544   2.772   2.415   1.334 -0.6264 -1.3463  0.1325
  887SOL     OW 3545   2.301   2.635   1.500  0.4711 -0.0749  0.2908
  887SOL    HW1 3546   2.339   2.671   1.414  0.2958  2.4737  2.4682
  887SOL    HW2 3547   2.227   2.577   1.481 -2.5083  2.6411 -0.8485
  887SOL     MW 3548   2.296   2.632   1.486  0.0549  0.6197  0.4278
  888SOL     OW 3549   1.859   2.062   1.397  0.0842 -0.6403  0.5629
  888SOL    HW1 3550   1.933   2.074   1.335  1.1085 -0.9951  3.4484
  888SOL    HW2 3551   1.893   2.111   1.472  0.5626  0.6742  0.5215
  888SOL     MW 3552   1.873   2.070   1.399  0.2824 -0.5137  0.9381
  889SOL     OW 3553   2.341   2.005   2.085 -0.0554  0.2877  0.2760
  889SOL    HW1 3554   2.429   2.032   2.118  1.1306 -0.7890  1.5275
  889SOL    HW2 3555   2.330   2.058   2.004 -0.9044 -0.5100  0.2808
  889SOL     MW 3556   2.351   2.015   2.079 -0.0109  0.0404  0.4417
  890SOL     OW 3557   0.085   2.299   0.147 -0.0344  0.5452  0.7375
  890SOL    HW1 3558   0.052   2.390   0.163  0.5596  2.3128 -3.0594
  890SOL    HW2 3559   0.092   2.260   0.235 -0.6124  1.0115 -1.5136
  890SOL     MW 3560   0.082   2.306   0.160 -0.0323  0.8399 -0.0605
  891SOL     OW 3561   3.028   2.026   1.301 -0.3753 -0.2791  0.2123
  891SOL    HW1 3562   3.087   2.044   1.383  0.0961  0.0421  1.4447
  891SOL    HW2 3563   3.025   2.116   1.260  0.3938  0.4691  1.8816
  891SOL     MW 3564   3.036   2.040   1.307 -0.2116 -0.1380  0.5951
  892SOL     OW 3565   2.369   2.387   2.949  0.4310 -0.7385 -0.2530
  892SOL    HW1 3566   2.393   2.306   2.991 -0.7760  0.4009 -1.5061
  892SOL    HW2 3567   2.446   2.450   2.952  1.0636 -0.2771  0.1516
  892SOL     MW 3568   2.383   2.385   2.955  0.3552 -0.5273 -0.3650
  893SOL     OW 3569   1.592   2.477   1.215  0.4656 -0.3549 -0.2292
  893SOL    HW1 3570   1.521   2.463   1.279 -1.3048 -1.2958  0.0347
  893SOL    HW2 3571   1.672   2.428   1.221 -1.3754 -0.3586 -0.4858
  893SOL     MW 3572   1.593   2.469   1.224 -0.0109 -0.4795 -0.2282
  894SOL     OW 3573   2.836   1.903   0.461  0.1051 -0.1409  0.4102
  894SOL    HW1 3574   2.745   1.920   0.465  0.8166 -1.0122 -4.7391
  894SOL    HW2 3575   2.845   1.832   0.387 -0.4098 -0.0893 -1.3831
  894SOL     MW 3576   2.825   1.896   0.452  0.1310 -0.2490 -0.5058
  895SOL     OW 3577   2.074   2.179   1.261 -0.0373  0.7563 -0.3534
  895SOL    HW1 3578   2.028   2.246   1.206 -0.1073 -0.9781  0.9375
  895SOL    HW2 3579   2.114   2.116   1.200 -1.9898 -1.3028  0.5051
  895SOL     MW 3580   2.073   2.179   1.245 -0.3042  0.2558 -0.0698
  896SOL     OW 3581   2.170   2.834   1.116 -0.1143  0.3763 -0.1025
  896SOL    HW1 3582   2.241   2.816   1.174  1.1581 -1.6796 -1.1219
  896SOL    HW2 3583   2.096   2.774   1.146  0.0925 -1.6737  0.5190
  896SOL     MW 3584   2.170   2.824   1.127  0.0809 -0.1654 -0.1550
  897SOL     OW 3585   2.991   2.928   0.174 -0.2706 -0.2631 -0.8236
  897SOL    HW1 3586   3.077   2.942   0.130  0.8215  2.0833  2.8227
  897SOL    HW2 3587   2.921   2.894   0.108 -1.7408  2.7609 -1.8263
  897SOL     MW 3588   2.993   2.926   0.160 -0.3205  0.4455 -0.4748
  898SOL     OW 3589   2.074   0.194   1.459  0.1928  0.4061  0.6479
  898SOL    HW1 3590   1.996   0.142   1.427  1.9265 -0.3620 -0.5426
  898SOL    HW2 3591   2.105   0.226   1.372  3.7065 -2.4687  0.2462
  898SOL     MW 3592   2.068   0.191   1.443  0.8851 -0.0745  0.4378
  899SOL     OW 3593   2.918   2.975   0.678  0.1510  0.4033 -0.3409
  899SOL    HW1 3594   2.939   2.888   0.716  0.7520 -0.3030 -0.8649
  899SOL    HW2 3595   2.853   3.012   0.732  0.5569 -1.9885  0.4300
  899SOL     MW 3596   2.913   2.968   0.690  0.2838 -0.0055 -0.3083
  900SOL     OW 3597   0.147   2.380   1.087  0.1583  0.6745 -0.4179
  900SOL    HW1 3598   0.159   2.473   1.063 -0.6339  1.5455 -1.7210
  900SOL    HW2 3599   0.130   2.331   1.004 -3.6950 -0.8333 -1.4500
  900SOL     MW 3600   0.146   2.386   1.073 -0.4547  0.5905 -0.7260
  901SOL     OW 3601   1.789   2.892   1.687  0.1312 -0.0813 -0.4878
  901SOL    HW1 3602   1.850   2.821   1.661 -1.6153 -0.9978  0.4209
  901SOL    HW2 3603   1.708   2.893   1.640  3.0716 -1.2953 -0.7206
  901SOL     MW 3604   1.786   2.883   1.677  0.2887 -0.3624 -0.3986
  902SOL     OW 3605   2.567   2.051   1.848  0.2895 -0.0752  0.1705
  902SOL    HW1 3606   2.563   1.954   1.849 -2.4132  2.6004 -1.8480
  902SOL    HW2 3607   2.657   2.074   1.866 -2.3861  1.4793  0.5967
  902SOL     MW 3608   2.578   2.041   1.851 -0.4201  0.4829 -0.0396
  903SOL     OW 3609   1.569   2.765   0.532  0.2365 -0.3023  0.5453
  903SOL    HW1 3610   1.602   2.685   0.570  1.1945 -2.0354  0.4003
  903SOL    HW2 3611   1.559   2.817   0.608 -0.3084  1.0710 -4.0602
  903SOL     MW 3612   1.572   2.761   0.547  0.2910 -0.3498 -0.0814
  904SOL     OW 3613   2.487   2.554   1.733  0.0335 -0.1792 -0.2612
  904SOL    HW1 3614   2.425   2.576   1.664  1.3939 -1.4086  0.7645
  904SOL    HW2 3615   2.530   2.477   1.698 -0.4608  2.3026 -1.1392
  904SOL     MW 3616   2.484   2.546   1.720  0.1477 -0.0140 -0.2417
  905SOL     OW 3617   2.327   2.516   2.196  0.1131 -0.3567  0.2583
  905SOL    HW1 3618   2.375   2.475   2.127 -1.4812 -1.0811 -0.2743
  905SOL    HW2 3619   2.265   2.449   2.240  0.9623 -2.0068  1.6475
  905SOL     MW 3620   2.325   2.502   2.192  0.0148 -0.6700  0.3713
  906SOL     OW 3621   2.426   2.467   0.826 -0.0105 -0.4784  0.6409
  906SOL    HW1 3622   2.515   2.447   0.861 -0.5179  0.8183 -0.2794
  906SOL    HW2 3623   2.404   2.561   0.851  1.5559 -1.4186 -0.3161
  906SOL     MW 3624   2.435   2.477   0.834  0.1292 -0.4314  0.3932
  907SOL     OW 3625   2.625   2.950   1.265 -0.0484 -0.2118  0.2541
  907SOL    HW1 3626   2.691   2.963   1.336 -0.8987  0.7378  1.0759
  907SOL    HW2 3627   2.684   2.937   1.188  2.2024 -0.6316 -2.2861
  907SOL     MW 3628   2.642   2.950   1.264  0.1364 -0.1419  0.0274
  908SOL     OW 3629   2.708   2.361   3.083 -0.1925 -0.3756 -0.3920
  908SOL    HW1 3630   2.647   2.293   3.104 -2.5812  0.9236 -0.4845
  908SOL    HW2 3631   2.677   2.439   3.122  0.7019  3.2797  0.2569
  908SOL     MW 3632   2.696   2.362   3.091 -0.3896  0.2781 -0.3186
  909SOL     OW 3633   1.576   0.176   1.096 -0.1684  0.3685  0.4557
  909SOL    HW1 3634   1.630   0.216   1.031  0.4989 -0.0489  2.5409
  909SOL    HW2 3635   1.571   0.236   1.172 -0.8019 -0.6001  0.1574
  909SOL     MW 3636   1.582   0.189   1.098 -0.1640  0.1857  0.6914
  910SOL     OW 3637   2.323   1.769   0.412 -0.1574 -0.4790 -0.0616
  910SOL    HW1 3638   2.251   1.704   0.414  0.2967  1.4484 -1.1921
  910SOL    HW2 3639   2.299   1.822   0.340  0.1992 -1.1171 -1.8141
  910SOL     MW 3640   2.310   1.767   0.403 -0.0505 -0.3089 -0.4420
  911SOL     OW 3641   2.203   2.271   1.686 -0.0502 -0.0549  0.5575
  911SOL    HW1 3642   2.270   2.245   1.753  2.6790 -1.5788  0.2963
  911SOL    HW2 3643   2.238   2.281   1.597 -0.6160  1.2909 -0.8476
  911SOL     MW 3644   2.217   2.269   1.683  0.2353 -0.0784  0.3376
  912SOL     OW 3645   2.877   1.995   1.530 -0.6519  0.2532  0.3080
  912SOL    HW1 3646   2.892   2.028   1.440  2.5739 -0.6664 -1.2411
  912SOL    HW2 3647   2.782   2.016   1.556 -2.3921 -0.9198  2.5060
  912SOL     MW 3648   2.866   2.002   1.521 -0.4559 -0.0229  0.3936
  913SOL     OW 3649   2.512   2.963   0.422  0.0803  0.2126  0.2303
  913SOL    HW1 3650   2.598   2.917   0.432  0.2660 -0.1622  2.2074
  913SOL    HW2 3651   2.441   2.898   0.430  1.4071 -1.1839  0.8101
  913SOL     MW 3652   2.514   2.948   0.424  0.2799 -0.0211  0.5676
  914SOL     OW 3653   2.775   1.663   3.091 -0.4582  0.4661 -0.5581
  914SOL    HW1 3654   2.769   1.733   3.023  3.0798  1.3401 -1.6396
  914SOL    HW2 3655   2.687   1.644   3.110 -0.2914 -0.2169  2.1854
  914SOL     MW 3656   2.763   1.669   3.085  0.0306  0.4913 -0.3388
  915SOL     OW 3657   1.824   0.189   0.230  0.0698  0.5375 -0.7365
  915SOL    HW1 3658   1.855   0.114   0.284  1.4660 -1.3852 -0.9586
  915SOL    HW2 3659   1.726   0.189   0.231 -0.5226  0.3949 -0.2022
  915SOL     MW 3660   1.815   0.179   0.237  0.1759  0.2650 -0.6953
  916SOL     OW 3661   1.777   2.063   1.968 -0.3466 -0.2697 -0.2755
  916SOL    HW1 3662   1.750   2.154   1.947 -0.3864  0.4212 -2.3033
  916SOL    HW2 3663   1.801   2.025   1.882  1.6538  1.4447  0.3033
  916SOL     MW 3664   1.776   2.070   1.954 -0.0879  0.0477 -0.4667
  917SOL     OW 3665   2.412   2.311   2.676  0.7827  0.3700 -0.4612
  917SOL    HW1 3666   2.393   2.325   2.770  1.0582 -2.8650  0.3490
  917SOL    HW2 3667   2.367   2.386   2.637  0.5395  0.1759  0.1273
  917SOL     MW 3668   2.403   2.323   2.683  0.7870 -0.0824 -0.2767
  918SOL     OW 3669   2.048   1.640   2.699  0.0674 -0.2476  0.2244
  918SOL    HW1 3670   1.959   1.659   2.656 -0.2643 -1.3617  1.4479
  918SOL    HW2 3671   2.105   1.719   2.662 -0.6898  2.3727 -0.2483
  918SOL     MW 3672   2.044   1.653   2.688 -0.0763 -0.0489  0.3234
  919SOL     OW 3673   0.011   2.349   2.240  0.7972  0.4066 -0.0935
  919SOL    HW1 3674  -0.076   2.305   2.203  0.9621 -0.4438 -3.6522
  919SOL    HW2 3675   0.078   2.348   2.170  1.5250  0.8692 -1.2619
  919SOL     MW 3676   0.008   2.343   2.226  0.9150  0.3554 -0.7172
  920SOL     OW 3677   2.765   2.832   0.005 -0.3565 -0.4806 -0.0326
  920SOL    HW1 3678   2.697   2.892   0.034  1.3568 -0.5216 -2.6191
  920SOL    HW2 3679   2.748   2.801  -0.080 -0.7915  0.0832  1.8653
  920SOL     MW 3680   2.754   2.836  -0.002 -0.1878 -0.4117 -0.1234
  921SOL     OW 3681   2.462   2.604   2.646 -0.3650 -0.0312 -0.3748
  921SOL    HW1 3682   2.528   2.621   2.577 -1.0541 -0.5485  3.4022
  921SOL    HW2 3683   2.503   2.548   2.713  0.9460 -2.7460  2.4992
  921SOL     MW 3684   2.476   2.599   2.646 -0.2829 -0.4576  0.5027
  922SOL     OW 3685   2.017   2.793   0.292 -0.0668 -0.0085  0.9803
  922SOL    HW1 3686   2.018   2.794   0.191 -1.4195  1.7110 -3.4143
  922SOL    HW2 3687   1.989   2.701   0.316  0.3450  0.6895  1.2788
  922SOL     MW 3688   2.013   2.781   0.282 -0.1910  0.3104  0.4399
  923SOL     OW 3689   2.233   2.803   1.708 -0.0640  0.0380  0.0607
  923SOL    HW1 3690   2.268   2.735   1.645  0.4787 -0.5733  0.5134
  923SOL    HW2 3691   2.232   2.883   1.651  0.6570 -0.5874  0.3954
  923SOL     MW 3692   2.237   2.805   1.692  0.1027 -0.1252  0.1646
  924SOL     OW 3693   1.175   2.733   2.562 -0.1906 -0.4650  0.2416
  924SOL    HW1 3694   1.215   2.799   2.504  1.0595 -2.1952  3.1099
  924SOL    HW2 3695   1.249   2.679   2.583 -0.3130  2.1399 -0.7792
  924SOL     MW 3696   1.190   2.734   2.557 -0.0418 -0.3496  0.4854
  925SOL     OW 3697   2.965   0.203   2.609  0.3282 -0.5227 -0.0216
  925SOL    HW1 3698   2.995   0.264   2.544 -0.8137 -0.6424  3.2440
  925SOL    HW2 3699   2.915   0.254   2.666  2.2120  1.1411 -3.4673
  925SOL     MW 3700   2.962   0.218   2.608  0.4261 -0.3189 -0.0453
  926SOL     OW 3701   2.704   2.387   2.089  0.1051 -0.0729 -0.1604
  926SOL    HW1 3702   2.737   2.458   2.145  2.4970  0.3005 -0.4114
  926SOL    HW2 3703   2.753   2.393   2.006  0.9262 -0.9322  0.0532
  926SOL     MW 3704   2.715   2.397   2.085  0.5290 -0.1370 -0.1653
  927SOL     OW 3705   2.366   0.123   0.314  0.5020  0.1909 -0.0650
  927SOL    HW1 3706   2.461   0.151   0.304  0.0591 -2.2818 -2.0796
  927SOL    HW2 3707   2.342   0.086   0.225 -3.2291  0.6243  1.3814
  927SOL     MW 3708   2.375   0.122   0.301 -0.0487 -0.0781 -0.1400
  928SOL     OW 3709   2.053   2.500   1.799  0.8647 -0.3412 -0.1947
  928SOL    HW1 3710   2.113   2.432   1.777  1.9175  0.9990 -0.2527
  928SOL    HW2 3711   2.095   2.542   1.879  1.1361 -1.5527  2.4104
  928SOL     MW 3712   2.066   2.496   1.807  1.0394 -0.3243  0.1413
  929SOL     OW 3713   2.733   2.379   2.461 -0.7057 -0.3830 -0.0982
  929SOL    HW1 3714   2.788   2.361   2.389  2.1096  0.6512  1.2321
  929SOL    HW2 3715   2.764   2.320   2.537  2.9044 -1.0041  1.7276
  929SOL     MW 3716   2.745   2.369   2.461  0.1421 -0.3285  0.3182
  930SOL     OW 3717   2.044   2.922   2.702  0.0725  0.1651 -0.2571
  930SOL    HW1 3718   2.035   2.835   2.745  1.6530  0.1561  1.4393
  930SOL    HW2 3719   2.136   2.946   2.701 -2.1474 -1.5656  1.1743
  930SOL     MW 3720   2.055   2.914   2.708 -0.0119 -0.0645  0.1556
  931SOL     OW 3721   2.934   2.825   2.261  0.1064 -0.3637 -0.1027
  931SOL    HW1 3722   3.032   2.825   2.271 -0.5358 -0.2762  1.8071
  931SOL    HW2 3723   2.909   2.817   2.170 -2.1130 -0.3622 -1.7697
  931SOL     MW 3724   2.943   2.824   2.250 -0.2712 -0.3520 -0.0707
  932SOL     OW 3725   2.845   1.914   2.557  0.2456 -0.5520  0.7208
  932SOL    HW1 3726   2.926   1.951   2.587 -1.0486  1.3801 -0.6849
  932SOL    HW2 3727   2.836   1.926   2.464 -1.4304 -1.7413 -0.5957
  932SOL     MW 3728   2.854   1.921   2.549 -0.1463 -0.4540  0.3616
  933SOL     OW 3729   2.054   2.831   2.196 -0.0728  0.7143 -0.6154
  933SOL    HW1 3730   2.120   2.899   2.227  2.0787 -1.0237  2.0169
  933SOL    HW2 3731   1.976   2.884   2.172 -0.9404 -0.7627  0.1696
  933SOL     MW 3732   2.053   2.847   2.197  0.0966  0.2901 -0.1645
  934SOL     OW 3733   2.037   2.751   2.469  0.0080 -0.0859 -0.1535
  934SOL    HW1 3734   2.062   2.820   2.536 -2.0668  1.1115 -0.5183
  934SOL    HW2 3735   2.069   2.786   2.386 -1.3468  1.8854  2.0725
  934SOL     MW 3736   2.045   2.765   2.467 -0.4445  0.3321  0.0920
  935SOL     OW 3737   2.627   1.523   1.777  0.3867 -0.2849 -0.1816
  935SOL    HW1 3738   2.713   1.537   1.739  1.3748 -1.2831 -0.9216
  935SOL    HW2 3739   2.562   1.530   1.704 -4.5902 -2.2238  0.6901
  935SOL     MW 3740   2.630   1.526   1.762 -0.1396 -0.6724 -0.1642
  936SOL     OW 3741   2.982   2.234   3.068  0.7107  0.2799  0.8045
  936SOL    HW1 3742   3.038   2.278   3.128 -0.2908 -0.4172  0.0056
  936SOL    HW2 3743   2.898   2.278   3.072 -1.9111 -0.8235 -2.9675
  936SOL     MW 3744   2.978   2.245   3.076  0.2327  0.0423  0.2014
  937SOL     OW 3745   2.022   2.193   2.638  0.5089 -0.5236 -0.1100
  937SOL    HW1 3746   2.105   2.165   2.682 -2.5321  1.5529 -2.1688
  937SOL    HW2 3747   2.034   2.173   2.546 -0.4192  0.6129  0.8572
  937SOL     MW 3748   2.034   2.187   2.632 -0.0148 -0.0997 -0.2540
  938SOL     OW 3749   2.284   1.795   1.905 -0.2139  0.2570 -0.0607
  938SOL    HW1 3750   2.276   1.848   1.819  1.1589  1.8257  0.1513
  938SOL    HW2 3751   2.314   1.860   1.968 -0.9095  1.4556 -1.8530
  938SOL     MW 3752   2.287   1.810   1.902 -0.1245  0.6221 -0.2692
  939SOL     OW 3753   2.824   1.981   2.304 -0.3575  0.5062 -0.0312
  939SOL    HW1 3754   2.830   1.903   2.247  0.1979 -0.8171  1.5396
  939SOL    HW2 3755   2.729   2.004   2.316  0.4919  0.4019  1.4008
  939SOL     MW 3756   2.812   1.974   2.298 -0.1721  0.3178  0.3650
  940SOL     OW 3757   2.324   0.128   2.694  0.0544  0.4250  0.6301
  940SOL    HW1 3758   2.280   0.037   2.691  1.2397 -2.5593  1.5152
  940SOL    HW2 3759   2.361   0.117   2.779 -1.5271 -3.3184  0.5980
  940SOL     MW 3760   2.323   0.115   2.705  0.0022 -0.4626  0.7426
  941SOL     OW 3761   0.201   2.341   2.061  0.4711  0.3171  0.4600
  941SOL    HW1 3762   0.281   2.302   2.099 -2.4004  4.2211 -1.7024
  941SOL    HW2 3763   0.183   2.290   1.980 -0.0657 -3.6367 -1.6362
  941SOL     MW 3764   0.209   2.329   2.055  0.0214  0.3105 -0.1019
  942SOL     OW 3765   2.894   2.227   2.191  0.2552  0.2484 -0.4060
  942SOL    HW1 3766   2.816   2.281   2.151 -3.6435  2.7226  1.3115
  942SOL    HW2 3767   2.862   2.141   2.228 -2.1148  2.8222  2.0992
  942SOL     MW 3768   2.879   2.223   2.191 -0.5719  0.9144  0.1512
  943SOL     OW 3769   0.373   2.033   2.311  0.5808 -0.3245 -0.3393
  943SOL    HW1 3770   0.310   2.097   2.360 -1.7929 -1.0828  1.3306
  943SOL    HW2 3771   0.460   2.067   2.335  1.0983 -2.1240 -0.9894
  943SOL     MW 3772   0.377   2.046   2.321  0.3359 -0.6620 -0.2048
  944SOL     OW 3773   2.122   2.633   2.027 -0.1713  0.0503  0.4566
  944SOL    HW1 3774   2.176   2.584   2.094  3.0151  2.3543  1.9570
  944SOL    HW2 3775   2.071   2.696   2.082 -0.9213  0.8341  2.5126
  944SOL     MW 3776   2.123   2.635   2.043  0.1502  0.4577  0.9258
  945SOL     OW 3777   2.787   2.708   2.840 -0.1210  0.4826 -0.5388
  945SOL    HW1 3778   2.755   2.622   2.827  0.4983 -0.8830  0.1979
  945SOL    HW2 3779   2.817   2.734   2.751  0.3765 -1.7682 -1.6391
  945SOL     MW 3780   2.787   2.700   2.826  0.0263  0.0055 -0.5868
  946SOL     OW 3781   2.446   2.752   2.255 -0.6108  0.0715 -0.0904
  946SOL    HW1 3782   2.499   2.759   2.176 -1.1239 -2.4697 -0.2136
  946SOL    HW2 3783   2.391   2.678   2.241 -3.3095  0.0940 -0.4433
  946SOL     MW 3784   2.446   2.743   2.243 -1.0345 -0.2608 -0.1532
  947SOL     OW 3785   2.031   0.009   0.257  0.0162  0.7193 -0.3428
  947SOL    HW1 3786   1.990  -0.081   0.237  2.1047 -3.4767 -0.2007
  947SOL    HW2 3787   2.074  -0.001   0.353 -0.8646  3.2723  0.4392
  947SOL     MW 3788   2.031  -0.004   0.267  0.1756  0.5025 -0.2209
  948SOL     OW 3789   1.809   3.079   2.632 -0.4395  0.1725 -0.1053
  948SOL    HW1 3790   1.888   3.015   2.634 -0.0577 -0.4847 -2.8388
  948SOL    HW2 3791   1.820   3.112   2.539  0.9529  0.8160  0.0216
  948SOL     MW 3792   1.821   3.075   2.620 -0.2054  0.1707 -0.4492
  949SOL     OW 3793   2.558   2.045   2.304 -0.1623 -0.1486  0.1166
  949SOL    HW1 3794   2.539   1.950   2.322  1.1042 -3.6128 -1.9625
  949SOL    HW2 3795   2.509   2.098   2.367  1.0908  1.9197 -2.5124
  949SOL     MW 3796   2.549   2.039   2.314  0.1701 -0.3328 -0.5046
  950SOL     OW 3797   2.183   2.590   3.014  0.5667 -0.3509  0.2753
  950SOL    HW1 3798   2.214   2.504   2.979 -1.3671 -3.5892  0.4496
  950SOL    HW2 3799   2.111   2.617   2.946  2.8592  0.0719 -0.3079
  950SOL     MW 3800   2.177   2.582   3.000  0.6140 -0.7224  0.2214
  951SOL     OW 3801   2.973   2.073   2.853 -0.0793 -0.4787 -0.1242
  951SOL    HW1 3802   2.979   2.137   2.931 -1.2539  2.3960 -1.0473
  951SOL    HW2 3803   3.021   2.106   2.778 -0.6276  0.0762  1.8279
  951SOL     MW 3804   2.980   2.086   2.854 -0.3066 -0.0262  0.0116
  952SOL     OW 3805   3.060   1.699   2.063  0.3524  0.2970  0.6922
  952SOL    HW1 3806   3.001   1.771   2.048 -0.2796  0.6085  2.8183
  952SOL    HW2 3807   3.141   1.753   2.078  1.3858  2.2311  1.8047
  952SOL     MW 3808   3.063   1.716   2.063  0.4054  0.5933  1.1195
  953SOL     OW 3809   1.975   1.796   2.901 -0.6343 -0.2012  0.5531
  953SOL    HW1 3810   1.879   1.771   2.897 -2.3972 -0.9062 -1.4080
  953SOL    HW2 3811   2.007   1.738   2.837 -2.7479  0.8891  0.0039
  953SOL     MW 3812   1.967   1.785   2.892 -1.1458 -0.1503  0.2219
  954SOL     OW 3813   2.467   2.098   2.903  0.3994 -0.3698 -0.3626
  954SOL    HW1 3814   2.385   2.077   2.847 -3.7742 -2.6887  0.7480
  954SOL    HW2 3815   2.536   2.078   2.838  2.8408 -1.8325  0.5374
  954SOL     MW 3816   2.466   2.092   2.887  0.1709 -0.8687 -0.0974
  955SOL     OW 3817   1.570   1.616   2.537 -0.3776  0.4427 -0.2243
  955SOL    HW1 3818   1.549   1.669   2.466  1.4532 -0.5329  1.9144
  955SOL    HW2 3819   1.658   1.654   2.548  0.0734 -4.2167  2.3821
  955SOL     MW 3820   1.579   1.628   2.529 -0.0766 -0.3008  0.4018
  956SOL     OW 3821   2.618   2.474   2.857  0.5190  0.0375  0.1687
  956SOL    HW1 3822   2.656   2.424   2.929 -1.1568  0.4816  1.2954
  956SOL    HW2 3823   2.599   2.407   2.792 -1.8160  0.1495  0.2481
  956SOL     MW 3824   2.620   2.459   2.858 -0.0102  0.1109  0.3278
  957SOL     OW 3825   2.297   2.790   0.387 -0.0864  0.0833 -0.2897
  957SOL    HW1 3826   2.212   2.823   0.361  0.9515 -0.3318  0.2348
  957SOL    HW2 3827   2.281   2.746   0.474 -0.0680 -2.7961  0.7971
  957SOL     MW 3828   2.284   2.789   0.395  0.0530 -0.3513 -0.0771
  958SOL     OW 3829   2.020   2.667   2.803 -0.5272  0.3523 -0.2019
  958SOL    HW1 3830   2.014   2.598   2.726  0.4212  2.1409 -0.4158
  958SOL    HW2 3831   1.926   2.676   2.829  1.9806 -1.6895  0.1319
  958SOL     MW 3832   2.007   2.659   2.796 -0.0712  0.3189 -0.1861
  959SOL     OW 3833   2.423   2.561   0.313  0.0787  0.2818  0.1552
  959SOL    HW1 3834   2.487   2.571   0.241  0.9279  1.9073 -2.7405
  959SOL    HW2 3835   2.369   2.648   0.317 -0.7374  2.9810 -0.2171
  959SOL     MW 3836   2.424   2.574   0.304  0.0831  0.8524 -0.2760
  960SOL     OW 3837   1.908   2.354   2.309 -0.2987 -0.6662 -0.1615
  960SOL    HW1 3838   1.873   2.268   2.289  1.9496  0.9688 -2.0072
  960SOL    HW2 3839   1.837   2.399   2.356 -0.8887  0.3361  0.2898
  960SOL     MW 3840   1.894   2.348   2.312 -0.0799 -0.3182 -0.3455
  961SOL     OW 3841   2.183   2.354   2.359  0.0639 -0.3198  0.1635
  961SOL    HW1 3842   2.084   2.359   2.346 -4.7387  2.8038  1.8668
  961SOL    HW2 3843   2.205   2.411   2.433 -3.1721 -0.2094  0.0225
  961SOL     MW 3844   2.173   2.362   2.367 -0.9967  0.1069  0.3696
  962SOL     OW 3845   2.230   2.064   2.805  0.4349 -0.5273  0.7751
  962SOL    HW1 3846   2.198   2.040   2.894  1.0408 -1.8432  1.1867
  962SOL    HW2 3847   2.209   1.987   2.761  1.1509 -0.4545  2.3102
  962SOL     MW 3848   2.223   2.051   2.811  0.6093 -0.6913  1.0319
  963SOL     OW 3849   1.808   2.579   2.052  0.5577  0.0709 -0.1629
  963SOL    HW1 3850   1.895   2.563   2.091 -0.2392  1.1720 -1.7026
  963SOL    HW2 3851   1.787   2.501   2.005  1.9319  3.4550  1.2967
  963SOL     MW 3852   1.817   2.566   2.051  0.6339  0.6626 -0.1735
  964SOL     OW 3853   1.862   1.988   2.732  0.2129 -0.3394  1.0308
  964SOL    HW1 3854   1.934   2.046   2.703  0.1506  2.6443 -2.6893
  964SOL    HW2 3855   1.904   1.927   2.792  0.9640  2.4408 -3.7305
  964SOL     MW 3856   1.877   1.988   2.736  0.3038  0.4211 -0.0882
  965SOL     OW 3857   2.204   2.685   0.624  0.0691  0.4467  0.2400
  965SOL    HW1 3858   2.153   2.616   0.587 -0.9787  1.2483 -1.1541
  965SOL    HW2 3859   2.240   2.641   0.701  0.9662 -0.8915 -0.6401
  965SOL     MW 3860   2.202   2.670   0.629  0.0493  0.3759 -0.0600
  966SOL     OW 3861   2.671   2.650   2.446 -0.4777  0.3068 -0.5743
  966SOL    HW1 3862   2.622   2.677   2.369  0.5356 -0.5594  0.6600
  966SOL    HW2 3863   2.690   2.551   2.448 -1.7410 -0.9120 -0.6623
  966SOL     MW 3864   2.667   2.640   2.436 -0.5107  0.0317 -0.4230
  967SOL     OW 3865   2.882   3.006   2.914 -0.4158  0.4919 -0.5917
  967SOL    HW1 3866   2.852   2.939   2.979 -2.4533 -0.2423  0.5939
  967SOL    HW2 3867   2.802   3.040   2.871  1.2711  0.3691 -2.5270
  967SOL     MW 3868   2.867   3.002   2.917 -0.4621  0.3788 -0.6906
  968SOL     OW 3869   3.017   2.590   2.965  0.3519  0.0351 -0.8770
  968SOL    HW1 3870   2.963   2.666   2.937  3.7196  0.3777 -0.9204
  968SOL    HW2 3871   3.010   2.511   2.910  1.1195 -1.0221 -0.4965
  968SOL     MW 3872   3.009   2.590   2.954  0.8975 -0.0591 -0.8325
  969SOL     OW 3873   1.533   2.096   1.725 -0.3264  0.6089 -0.3431
  969SOL    HW1 3874   1.610   2.045   1.725 -2.5671 -0.7754 -0.2221
  969SOL    HW2 3875   1.500   2.090   1.817 -2.6758 -0.1371  1.6628
  969SOL     MW 3876   1.539   2.089   1.737 -0.9320  0.3278 -0.0625
  970SOL     OW 3877   1.636   1.715   1.864  0.5345 -0.0973 -0.4174
  970SOL    HW1 3878   1.667   1.702   1.953  1.0683 -0.6281 -1.6616
  970SOL    HW2 3879   1.544   1.741   1.856  1.7559 -0.4129  1.2210
  970SOL     MW 3880   1.628   1.717   1.875  0.7661 -0.2090 -0.3654
  971SOL     OW 3881   1.813   0.077   2.353 -0.3737 -0.6861  0.5003
  971SOL    HW1 3882   1.838   0.012   2.286  3.7128 -5.4822 -1.9174
  971SOL    HW2 3883   1.886   0.145   2.357 -0.0312 -0.1077 -2.0910
  971SOL     MW 3884   1.826   0.078   2.345  0.2107 -1.2425 -0.1606
  972SOL     OW 3885   0.285   2.794   2.525  0.1178  0.1129  0.0063
  972SOL    HW1 3886   0.302   2.711   2.566 -0.8152  2.0900  1.4042
  972SOL    HW2 3887   0.357   2.854   2.538  1.2642 -0.2043  1.7371
  972SOL     MW 3888   0.297   2.791   2.532  0.1460  0.3319  0.4191
  973SOL     OW 3889   2.639   0.010   2.086  0.0860  0.3441  0.0629
  973SOL    HW1 3890   2.650  -0.083   2.079  2.9651  0.6413 -1.7820
  973SOL    HW2 3891   2.616   0.035   1.999  0.1008  0.2806  2.7853
  973SOL     MW 3892   2.638   0.001   2.073  0.4679  0.3749  0.1787
  974SOL     OW 3893   2.112   0.293   2.778  0.0394 -0.6496  0.2229
  974SOL    HW1 3894   2.190   0.255   2.743  1.2328  1.6729  1.1712
  974SOL    HW2 3895   2.048   0.225   2.797  0.5177  2.2014  0.1915
  974SOL     MW 3896   2.114   0.279   2.776  0.2599  0.0330  0.3439
  975SOL     OW 3897   2.214   2.541   2.548 -0.3888 -0.1821 -0.7032
  975SOL    HW1 3898   2.296   2.572   2.577  0.1953 -0.7641 -0.7668
  975SOL    HW2 3899   2.162   2.620   2.547  0.4911 -0.0999  1.2321
  975SOL     MW 3900   2.218   2.555   2.552 -0.1957 -0.2480 -0.4563
  976SOL     OW 3901   0.208   0.346   1.705 -0.0744  0.8635 -0.0421
  976SOL    HW1 3902   0.265   0.264   1.728  3.3520 -0.9442  0.8399
  976SOL    HW2 3903   0.125   0.306   1.714 -0.4137  1.9943 -0.9401
  976SOL     MW 3904   0.204   0.330   1.709  0.3329  0.7742 -0.0442
  977SOL     OW 3905   1.715   2.745   2.473  0.2565 -0.3517 -0.2019
  977SOL    HW1 3906   1.714   2.650   2.487  0.5973  1.4245 -0.2334
  977SOL    HW2 3907   1.803   2.771   2.449  0.1224 -0.8055 -1.4930
  977SOL     MW 3908   1.726   2.736   2.472  0.2838 -0.1772 -0.3764
   3.10000   3.10000   3.10000
