977 TIP4P/2005f water molecules t=   1.42000 step= 1420
 3908
    1SOL     OW    1   0.366   0.873   0.034 -0.1078  0.0492  0.6388
    1SOL    HW1    2   0.375   0.865  -0.062 -2.2518 -0.4984  1.6507
    1SOL    HW2    3   0.325   0.798   0.073  0.5515  1.7920  2.6089
    1SOL     MW    4   0.362   0.862   0.026 -0.3037  0.2069  1.0322
    2SOL     OW    5   0.325   3.054   1.130 -0.6167  0.4554 -0.7109
    2SOL    HW1    6   0.380   3.130   1.098  2.5594 -0.0905 -0.2434
    2SOL    HW2    7   0.237   3.085   1.117 -0.3252 -1.3988  0.8691
    2SOL     MW    8   0.321   3.068   1.124 -0.1592  0.1388 -0.4408
    3SOL     OW    9   2.645   0.332   0.968  0.5178 -0.2468 -0.2311
    3SOL    HW1   10   2.690   0.405   0.918 -3.3728 -1.2252  3.0141
    3SOL    HW2   11   2.627   0.365   1.057 -0.3771  0.8419  3.9971
    3SOL     MW   12   2.649   0.346   0.973 -0.1136 -0.2322  0.7549
    4SOL     OW   13   3.071   1.737   0.567  0.2776 -0.0749 -0.5946
    4SOL    HW1   14   2.992   1.776   0.536  0.6873  1.3641 -1.0282
    4SOL    HW2   15   3.112   1.695   0.492 -2.2036 -1.2043  0.1290
    4SOL     MW   16   3.066   1.737   0.553  0.0043 -0.0341 -0.5563
    5SOL     OW   17   1.636   1.491   0.630  0.2552 -0.4868  0.0099
    5SOL    HW1   18   1.652   1.476   0.721  2.1454  0.7669  0.5986
    5SOL    HW2   19   1.535   1.485   0.611 -4.8443 -0.0018 -0.0437
    5SOL     MW   20   1.624   1.488   0.640 -0.1682 -0.2574  0.0805
    6SOL     OW   21   0.785   1.399   0.594  0.2070  0.4349  0.1897
    6SOL    HW1   22   0.691   1.401   0.596  1.0039  1.1524  2.1195
    6SOL    HW2   23   0.824   1.328   0.644 -2.3309  2.0991  0.5586
    6SOL     MW   24   0.777   1.390   0.601 -0.0227  0.7491  0.4930
    7SOL     OW   25   1.995   1.060   0.017 -0.1765  0.0605  0.0345
    7SOL    HW1   26   2.064   1.109  -0.027 -0.3528  3.5428 -3.8231
    7SOL    HW2   27   2.006   1.063   0.111  0.2362  0.2194  0.3948
    7SOL     MW   28   2.006   1.067   0.023 -0.1453  0.5409 -0.4270
    8SOL     OW   29   0.779   1.517   1.173  0.1887 -0.4574 -0.2757
    8SOL    HW1   30   0.871   1.543   1.150 -0.0622  1.5051  1.2762
    8SOL    HW2   31   0.796   1.432   1.215 -2.1440  0.4303 -0.1046
    8SOL     MW   32   0.794   1.509   1.176 -0.1522 -0.0813 -0.0484
    9SOL     OW   33   1.037   0.477   1.353 -0.6068 -0.9872 -0.5434
    9SOL    HW1   34   0.987   0.405   1.309 -0.4029  0.7289 -1.2224
    9SOL    HW2   35   1.061   0.445   1.443  1.5370  0.6687  1.2413
    9SOL     MW   36   1.033   0.463   1.359 -0.2970 -0.5423 -0.3975
   10SOL     OW   37   0.255   0.813   0.518  0.3420  0.7203 -0.1763
   10SOL    HW1   38   0.340   0.827   0.474  1.0020 -4.1832  0.6328
   10SOL    HW2   39   0.257   0.843   0.611  3.0986  1.3310 -1.2939
   10SOL     MW   40   0.266   0.819   0.524  0.7928  0.1539 -0.2170
   11SOL     OW   41   0.763   1.149   1.587  0.2713 -0.4323 -0.2312
   11SOL    HW1   42   0.844   1.159   1.648  1.0437  1.7416  1.8976
   11SOL    HW2   43   0.736   1.061   1.576 -1.6011 -0.8708 -0.6324
   11SOL     MW   44   0.770   1.139   1.594  0.1261 -0.2034 -0.0032
   12SOL     OW   45   3.041   1.132   0.861  0.3408 -0.3742  0.2212
   12SOL    HW1   46   3.095   1.196   0.902 -1.1393  0.5866 -1.0621
   12SOL    HW2   47   2.999   1.176   0.787 -1.6181  0.9066 -2.4458
   12SOL     MW   48   3.042   1.147   0.857 -0.1129 -0.0784 -0.3000
   13SOL     OW   49   1.824   1.424   1.288  0.1130 -0.1562 -0.5099
   13SOL    HW1   50   1.833   1.369   1.204  1.5283 -0.1116 -0.5809
   13SOL    HW2   51   1.854   1.514   1.264  2.6713 -0.3660 -0.1264
   13SOL     MW   52   1.829   1.429   1.274  0.6373 -0.1780 -0.4687
   14SOL     OW   53   0.563   0.311   1.835  0.0372  0.3925  0.3196
   14SOL    HW1   54   0.499   0.251   1.800 -2.1621 -0.1603 -0.3778
   14SOL    HW2   55   0.627   0.341   1.770  3.6438  0.9598  1.3263
   14SOL     MW   56   0.563   0.307   1.822  0.2229  0.3944  0.3604
   15SOL     OW   57   1.995   0.344   1.054  0.1642  0.6109 -0.2706
   15SOL    HW1   58   1.988   0.405   1.129  1.4817  0.5333  0.5416
   15SOL    HW2   59   2.059   0.376   0.989 -0.2644  0.5730 -0.2004
   15SOL     MW   60   2.003   0.356   1.056  0.2815  0.5956 -0.1542
   16SOL     OW   61   0.239   1.817   0.286 -0.2645 -0.3844 -0.5291
   16SOL    HW1   62   0.329   1.834   0.251  0.2970 -0.9055  0.5046
   16SOL    HW2   63   0.215   1.904   0.317  1.6734  0.4750  1.3428
   16SOL     MW   64   0.247   1.831   0.286  0.0653 -0.3398 -0.1457
   17SOL     OW   65   1.072   0.878   1.416  0.2922  0.1951 -0.1665
   17SOL    HW1   66   1.127   0.856   1.498  0.4154  0.4766  0.2670
   17SOL    HW2   67   0.984   0.858   1.446  0.7102  1.3767 -0.5465
   17SOL     MW   68   1.068   0.873   1.431  0.3636  0.3882 -0.1595
   18SOL     OW   69   0.145   1.580   0.358  0.0039 -0.0160  0.1540
   18SOL    HW1   70   0.200   1.659   0.335  0.2704  1.5387 -3.1985
   18SOL    HW2   71   0.119   1.548   0.267 -0.6197 -1.6818 -2.3201
   18SOL     MW   72   0.149   1.586   0.343 -0.0433 -0.0307 -0.6148
   19SOL     OW   73   0.091   1.389   0.947 -0.2696  0.2266 -0.1822
   19SOL    HW1   74   0.127   1.413   0.863 -0.6138 -0.1235 -0.6158
   19SOL    HW2   75   0.007   1.435   0.947  2.1744 -1.4340  0.7326
   19SOL     MW   76   0.084   1.398   0.936  0.0075 -0.0386 -0.1187
   20SOL     OW   77   0.427   2.175   1.211  0.2613  0.0177  0.8839
   20SOL    HW1   78   0.405   2.098   1.158  0.4561 -1.3660 -0.7283
   20SOL    HW2   79   0.386   2.152   1.294 -0.3405 -2.6547 -0.7029
   20SOL     MW   80   0.419   2.162   1.215  0.2076 -0.5174  0.4618
   21SOL     OW   81   0.506   0.895   0.406  0.3193  0.0751  0.4230
   21SOL    HW1   82   0.558   0.858   0.474  1.2858 -0.1512 -1.4083
   21SOL    HW2   83   0.540   0.869   0.324  0.3983  0.6817  1.9013
   21SOL     MW   84   0.518   0.887   0.404  0.4572  0.1253  0.3765
   22SOL     OW   85   1.560   0.713   0.951  0.7850  0.0306  0.5466
   22SOL    HW1   86   1.529   0.655   0.885 -0.4674 -0.4365  0.9987
   22SOL    HW2   87   1.485   0.761   0.978  1.9756 -0.8940 -1.0505
   22SOL     MW   88   1.546   0.711   0.946  0.7769 -0.1531  0.3955
   23SOL     OW   89   3.089   0.698   0.689 -0.5715 -0.1019 -0.1639
   23SOL    HW1   90   3.152   0.639   0.733 -1.5265  2.2287  1.2132
   23SOL    HW2   91   3.138   0.783   0.698  0.7779 -0.1598  0.4180
   23SOL     MW   92   3.104   0.701   0.696 -0.5194  0.1979  0.0945
   24SOL     OW   93   2.073   2.186   3.079  0.5120 -0.2150  0.4700
   24SOL    HW1   94   2.047   2.177   3.171  1.3525  0.6088 -0.6917
   24SOL    HW2   95   2.104   2.093   3.070 -0.9578 -0.4206 -1.0321
   24SOL     MW   96   2.074   2.173   3.090  0.4290 -0.1335  0.1186
   25SOL     OW   97   0.238   1.345   0.416 -0.2222  0.2834 -0.0968
   25SOL    HW1   98   0.212   1.440   0.392  0.3459  0.9457  2.0193
   25SOL    HW2   99   0.333   1.336   0.388  0.3397 -2.2053 -0.5296
   25SOL     MW  100   0.247   1.356   0.409 -0.0731  0.0424  0.1253
   26SOL     OW  101   2.044   1.015   0.283 -0.1426 -0.3544  0.6054
   26SOL    HW1  102   1.990   1.074   0.332  0.5069 -0.1173 -1.2640
   26SOL    HW2  103   2.119   1.065   0.272 -4.7601 -1.1611  0.5232
   26SOL     MW  104   2.047   1.030   0.288 -0.6661 -0.4296  0.3479
   27SOL     OW  105   1.875   1.392   0.202 -0.7322 -0.9023 -0.8195
   27SOL    HW1  106   1.829   1.476   0.217 -1.2316 -1.3128  0.6837
   27SOL    HW2  107   1.932   1.383   0.281  0.3331 -1.7134 -0.1571
   27SOL     MW  108   1.876   1.402   0.215 -0.6576 -1.0635 -0.5338
   28SOL     OW  109   0.476   0.982   2.012 -0.1120 -0.4889  0.0225
   28SOL    HW1  110   0.519   0.992   2.095 -1.5551 -2.0963 -1.3060
   28SOL    HW2  111   0.383   0.955   2.021  1.3518 -2.7970  0.6834
   28SOL     MW  112   0.470   0.980   2.024 -0.1093 -1.0055 -0.0656
   29SOL     OW  113   0.253   1.399   0.699 -0.0001 -0.4931  0.0460
   29SOL    HW1  114   0.257   1.497   0.701 -0.0201  1.7139 -1.4329
   29SOL    HW2  115   0.294   1.374   0.611  3.2563 -0.4779  0.5736
   29SOL     MW  116   0.259   1.409   0.688  0.4269 -0.1999 -0.0795
   30SOL     OW  117   0.805   1.249   1.221 -0.6228 -0.5798  0.2305
   30SOL    HW1  118   0.713   1.243   1.255 -1.8573 -2.4387 -0.3497
   30SOL    HW2  119   0.863   1.239   1.296 -1.4103  2.4026 -3.7840
   30SOL     MW  120   0.800   1.247   1.235 -0.8896 -0.4316 -0.3757
   31SOL     OW  121   0.452   0.294   0.166  0.3528  0.1477 -0.8496
   31SOL    HW1  122   0.471   0.222   0.228  1.0513 -1.1614 -1.6641
   31SOL    HW2  123   0.462   0.254   0.080  0.6466  1.0412 -0.3141
   31SOL     MW  124   0.456   0.279   0.163  0.4837  0.0928 -0.8864
   32SOL     OW  125   2.690   0.979   1.137  0.4893  0.2591  0.3932
   32SOL    HW1  126   2.624   0.912   1.134 -2.2044 -1.8721  1.2452
   32SOL    HW2  127   2.757   0.951   1.078 -2.1288  0.0503  0.1086
   32SOL     MW  128   2.690   0.966   1.129 -0.2115 -0.0496  0.4681
   33SOL     OW  129   1.630   1.322   0.394  0.3518 -0.0673  0.6597
   33SOL    HW1  130   1.698   1.259   0.412  0.4200 -1.7868  1.6040
   33SOL    HW2  131   1.644   1.385   0.465  0.5264 -0.8425  0.2698
   33SOL     MW  132   1.641   1.322   0.406  0.3839 -0.3964  0.7328
   34SOL     OW  133   1.224   1.949   1.121 -0.9497 -0.0370 -0.0283
   34SOL    HW1  134   1.144   1.994   1.130  0.3945  2.2959 -1.4311
   34SOL    HW2  135   1.283   1.974   1.189  1.8224 -0.8215  0.9663
   34SOL     MW  136   1.221   1.958   1.131 -0.4066  0.1673 -0.0822
   35SOL     OW  137   0.326   0.142   1.819 -0.2325  0.5484  0.0587
   35SOL    HW1  138   0.373   0.086   1.883 -0.3175  3.2512  2.3339
   35SOL    HW2  139   0.327   0.086   1.738 -2.5634 -0.8573  0.6415
   35SOL     MW  140   0.333   0.127   1.817 -0.5513  0.7195  0.4358
   36SOL     OW  141   1.936   1.920   0.589 -0.4851  0.2570  0.1029
   36SOL    HW1  142   1.931   1.897   0.498  1.3840 -2.1095 -0.2001
   36SOL    HW2  143   1.944   1.824   0.620 -0.0562 -0.6096  1.3780
   36SOL     MW  144   1.937   1.904   0.581 -0.1819 -0.1696  0.2311
   37SOL     OW  145   1.815   2.004   1.019  0.0649  0.3923  0.2628
   37SOL    HW1  146   1.795   1.966   0.934  2.3342 -1.8885  1.9421
   37SOL    HW2  147   1.744   2.056   1.057  2.1280 -0.0017  4.6075
   37SOL     MW  148   1.803   2.006   1.013  0.6365  0.0394  1.0576
   38SOL     OW  149   2.808   0.898   0.133  0.4378 -0.0182  0.3173
   38SOL    HW1  150   2.845   0.914   0.223  1.7693 -2.2475 -2.2710
   38SOL    HW2  151   2.883   0.854   0.092  0.1772 -0.2025  0.5759
   38SOL     MW  152   2.822   0.894   0.140  0.5791 -0.3366  0.0100
   39SOL     OW  153   1.458   0.557   0.750  0.5223  0.5696 -0.3808
   39SOL    HW1  154   1.422   0.473   0.779 -0.8135  1.3360  0.6297
   39SOL    HW2  155   1.381   0.615   0.741 -0.9951  1.3031  2.7487
   39SOL     MW  156   1.443   0.554   0.753  0.1458  0.7675  0.1655
   40SOL     OW  157   1.261   1.878   0.251  0.3349  0.0584  0.7722
   40SOL    HW1  158   1.326   1.822   0.291 -0.8600  2.6234  1.6554
   40SOL    HW2  159   1.223   1.936   0.318  0.6700  2.0749 -0.6240
   40SOL     MW  160   1.264   1.878   0.265  0.2215  0.6629  0.7045
   41SOL     OW  161   0.589   0.516   1.623 -0.5022  0.4897 -0.1416
   41SOL    HW1  162   0.676   0.549   1.593  2.6207 -0.2804 -1.4989
   41SOL    HW2  163   0.525   0.573   1.586  2.4918 -2.1436  1.3124
   41SOL     MW  164   0.592   0.528   1.614  0.3049  0.0406 -0.1289
   42SOL     OW  165   1.285   3.002   1.943  0.2590 -0.0251  0.0225
   42SOL    HW1  166   1.193   3.007   1.976 -1.2710  1.4144 -0.9214
   42SOL    HW2  167   1.312   2.919   1.982 -2.7899 -0.0617 -0.0295
   42SOL     MW  168   1.276   2.992   1.952 -0.3451  0.1600 -0.1089
   43SOL     OW  169   1.484   0.145   1.663  0.4842 -0.2426  0.4446
   43SOL    HW1  170   1.567   0.106   1.675  0.1244 -0.0781  2.0061
   43SOL    HW2  171   1.414   0.081   1.657  2.4982  0.6808 -1.2156
   43SOL     MW  172   1.486   0.131   1.664  0.7024 -0.0990  0.4316
   44SOL     OW  173   1.294   0.736   1.071 -0.0740 -0.3782 -0.0746
   44SOL    HW1  174   1.266   0.827   1.064 -1.0198  2.1426  2.6126
   44SOL    HW2  175   1.260   0.718   1.161 -3.7321  0.2344  0.0534
   44SOL     MW  176   1.286   0.745   1.082 -0.6814  0.0352  0.2968
   45SOL     OW  177   1.277   0.759   0.773  0.2696  0.1694 -0.0391
   45SOL    HW1  178   1.239   0.753   0.861 -0.2419 -1.8579 -0.3090
   45SOL    HW2  179   1.192   0.739   0.714 -1.2468  0.7231 -0.3992
   45SOL     MW  180   1.261   0.756   0.777  0.0020 -0.0250 -0.1222
   46SOL     OW  181   0.521   1.104   0.638 -0.3582  0.3613  0.7920
   46SOL    HW1  182   0.536   1.102   0.545  0.7264 -0.3717 -0.2351
   46SOL    HW2  183   0.604   1.129   0.672 -0.5307  1.0359  0.0037
   46SOL     MW  184   0.534   1.107   0.631 -0.2378  0.3536  0.5525
   47SOL     OW  185   0.187   1.969   1.953 -0.5581  0.0235  0.1729
   47SOL    HW1  186   0.116   1.923   1.914  0.2684  2.1390  0.8471
   47SOL    HW2  187   0.179   1.937   2.042  0.3002 -0.4359 -2.0054
   47SOL     MW  188   0.176   1.958   1.959 -0.3358  0.2420 -0.0255
   48SOL     OW  189   1.142   0.507   1.018  0.6197 -0.3186 -0.2177
   48SOL    HW1  190   1.075   0.529   1.077 -0.0522  0.4681 -0.3810
   48SOL    HW2  191   1.201   0.585   1.017  1.0387  2.3648  0.2472
   48SOL     MW  192   1.141   0.520   1.026  0.5863  0.1393 -0.1779
   49SOL     OW  193   1.698   0.626   1.521 -0.2176 -0.0651  0.3671
   49SOL    HW1  194   1.709   0.585   1.606 -1.5702 -1.3296 -0.7358
   49SOL    HW2  195   1.726   0.563   1.455 -1.6300 -0.3224  0.5626
   49SOL     MW  196   1.703   0.612   1.524 -0.5824 -0.2659  0.2474
   50SOL     OW  197   1.268   1.177   0.579  0.2232  0.9862  0.2544
   50SOL    HW1  198   1.183   1.177   0.635 -1.4261 -1.0076  1.0956
   50SOL    HW2  199   1.328   1.117   0.626 -2.8979  0.3921 -0.8588
   50SOL     MW  200   1.265   1.169   0.593 -0.4062  0.6447  0.2185
   51SOL     OW  201   0.331   2.910   0.896 -0.4615 -0.4860 -0.0123
   51SOL    HW1  202   0.424   2.869   0.895 -0.6597  1.3734 -0.1662
   51SOL    HW2  203   0.336   2.959   0.979  0.8606  0.5859  0.9029
   51SOL     MW  204   0.344   2.911   0.907 -0.3132 -0.0992  0.0881
   52SOL     OW  205   0.807   1.824   0.470  0.3369  0.4005 -0.0509
   52SOL    HW1  206   0.769   1.914   0.476  0.1371  0.2498  0.0701
   52SOL    HW2  207   0.831   1.814   0.378  0.6594  2.2118  0.3979
   52SOL     MW  208   0.805   1.835   0.458  0.3531  0.6196  0.0243
   53SOL     OW  209   0.436   2.153   0.497 -0.1622  0.0520 -0.4798
   53SOL    HW1  210   0.366   2.133   0.440  1.4066 -0.0970 -3.0321
   53SOL    HW2  211   0.441   2.247   0.524 -1.5755 -0.1215  0.1388
   53SOL     MW  212   0.428   2.162   0.493 -0.1417  0.0095 -0.7349
   54SOL     OW  213   2.071   0.930   0.774 -0.1069  0.4298 -0.1447
   54SOL    HW1  214   2.132   0.915   0.703 -2.2134  1.3402 -1.1802
   54SOL    HW2  215   2.025   0.846   0.797  1.4912  0.4343  1.6879
   54SOL     MW  216   2.073   0.917   0.768 -0.1740  0.5505 -0.0395
   55SOL     OW  217   0.502   1.561   1.655 -0.5392 -0.0361 -0.0715
   55SOL    HW1  218   0.469   1.571   1.565  2.1370 -2.2110  1.3379
   55SOL    HW2  219   0.587   1.523   1.626  1.0039  0.4482  0.8283
   55SOL     MW  220   0.509   1.557   1.639  0.0175 -0.2591  0.2332
   56SOL     OW  221   0.624   0.876   0.157  0.0427  0.1776  0.1867
   56SOL    HW1  222   0.658   0.962   0.135  2.0249  0.3974  0.5382
   56SOL    HW2  223   0.540   0.885   0.109  1.5845  3.1629 -2.3392
   56SOL     MW  224   0.617   0.889   0.148  0.5076  0.6005 -0.1002
   57SOL     OW  225   1.181   1.227   1.171 -0.5369  0.4918  0.1201
   57SOL    HW1  226   1.272   1.252   1.168 -0.9750  0.3631 -1.5505
   57SOL    HW2  227   1.147   1.205   1.259 -3.3424 -1.3135  0.1919
   57SOL     MW  228   1.188   1.228   1.182 -0.9648  0.2367 -0.0908
   58SOL     OW  229   0.542   1.251   1.277  0.7154 -0.0198 -0.1430
   58SOL    HW1  230   0.519   1.342   1.254 -1.8844  2.6391  2.6983
   58SOL    HW2  231   0.518   1.240   1.368  0.2926 -1.7137 -1.0099
   58SOL     MW  232   0.536   1.262   1.286  0.3166  0.1075  0.1175
   59SOL     OW  233   1.495   1.678   0.330 -0.8069 -0.4693 -0.1819
   59SOL    HW1  234   1.533   1.737   0.392 -3.7660 -1.1159  1.0856
   59SOL    HW2  235   1.415   1.646   0.367  0.7192 -1.2966 -1.4128
   59SOL     MW  236   1.489   1.681   0.343 -0.9959 -0.6638 -0.1771
   60SOL     OW  237   3.073   0.167   1.712 -0.0274 -0.2420  0.0233
   60SOL    HW1  238   2.977   0.168   1.738 -2.7153  0.6051 -0.6294
   60SOL    HW2  239   3.112   0.117   1.780  1.2524 -1.9022  1.0853
   60SOL     MW  240   3.066   0.161   1.725 -0.2132 -0.3493  0.0773
   61SOL     OW  241   1.984   1.384   3.011 -0.1138 -0.4764 -0.2265
   61SOL    HW1  242   1.914   1.391   3.086  0.7852  0.8213  1.3523
   61SOL    HW2  243   2.039   1.312   3.029  2.1403  1.9034 -0.0040
   61SOL     MW  244   1.982   1.375   3.023  0.3022  0.0088  0.0112
   62SOL     OW  245   0.537   1.729   0.541 -0.1736  0.3803  0.2290
   62SOL    HW1  246   0.624   1.735   0.515 -1.4277 -1.2653 -1.4664
   62SOL    HW2  247   0.527   1.633   0.533  0.2326  1.6198  0.6684
   62SOL     MW  248   0.547   1.717   0.537 -0.2855  0.3267  0.0633
   63SOL     OW  249   1.727   0.645   0.660  0.2327  0.3168 -0.3315
   63SOL    HW1  250   1.727   0.741   0.663 -1.1132  0.5094  0.2111
   63SOL    HW2  251   1.631   0.625   0.659 -0.2082  0.1442 -1.5136
   63SOL     MW  252   1.715   0.655   0.660 -0.0030  0.3194 -0.4159
   64SOL     OW  253   0.271   1.673   0.764 -0.5478 -0.6620 -0.0110
   64SOL    HW1  254   0.316   1.747   0.724  0.9577  0.4010  2.6669
   64SOL    HW2  255   0.184   1.715   0.782  0.8769  1.2865 -3.1591
   64SOL     MW  256   0.265   1.688   0.761 -0.1612 -0.2647 -0.0730
   65SOL     OW  257   1.563   2.310   0.374 -0.1245 -0.2771 -0.6109
   65SOL    HW1  258   1.653   2.333   0.405  0.0665  0.5425 -1.8766
   65SOL    HW2  259   1.503   2.354   0.439 -1.6005 -0.2385  2.7469
   65SOL     MW  260   1.567   2.319   0.386 -0.2941 -0.1639 -0.3349
   66SOL     OW  261   0.352   0.563   0.475  0.1567  0.6535  0.3592
   66SOL    HW1  262   0.382   0.557   0.383  0.2622 -0.4937  1.2684
   66SOL    HW2  263   0.302   0.650   0.490 -0.1063  0.3769  2.0739
   66SOL     MW  264   0.349   0.574   0.465  0.1359  0.4657  0.7054
   67SOL     OW  265   1.473   0.115   1.977  0.1820 -0.7489 -0.3585
   67SOL    HW1  266   1.496   0.137   1.886 -2.4089  0.0569  0.7727
   67SOL    HW2  267   1.429   0.028   1.978  0.4687 -3.3517 -2.3996
   67SOL     MW  268   1.470   0.106   1.965 -0.1220 -0.9860 -0.4786
   68SOL     OW  269   0.771   0.009   2.969 -0.4234 -0.4992  0.4349
   68SOL    HW1  270   0.799  -0.004   2.878 -1.0676 -1.1736  1.1389
   68SOL    HW2  271   0.822   0.087   3.002  0.0303 -0.9183  0.4542
   68SOL     MW  272   0.781   0.018   2.961 -0.4485 -0.6435  0.5303
   69SOL     OW  273   0.953   0.194   1.956 -0.1093 -0.2899  0.1390
   69SOL    HW1  274   1.045   0.186   1.992  0.3909  1.5725  1.4603
   69SOL    HW2  275   0.927   0.106   1.944 -0.0098 -0.5093 -1.1734
   69SOL     MW  276   0.962   0.182   1.959 -0.0301 -0.0731  0.1402
   70SOL     OW  277   0.482   1.694   1.080 -0.1011 -0.3036 -0.2016
   70SOL    HW1  278   0.558   1.744   1.115  0.6492 -2.4553 -0.0191
   70SOL    HW2  279   0.514   1.661   0.993  0.5948  0.9456 -0.5622
   70SOL     MW  280   0.496   1.697   1.073  0.0897 -0.4227 -0.2251
   71SOL     OW  281   1.519   0.541   1.176 -0.7458  0.6352  0.2381
   71SOL    HW1  282   1.532   0.613   1.234  0.5121 -0.0320  1.2638
   71SOL    HW2  283   1.512   0.578   1.089 -2.6777  0.2275 -0.6234
   71SOL     MW  284   1.520   0.556   1.172 -0.8347  0.4934  0.2598
   72SOL     OW  285   0.773   1.870   1.004 -0.5419 -0.2224  0.1682
   72SOL    HW1  286   0.733   1.942   0.956  0.6217  0.9139  2.8127
   72SOL    HW2  287   0.760   1.799   0.945 -0.4947  2.6136 -0.2005
   72SOL     MW  288   0.766   1.870   0.990 -0.3822  0.3017  0.4685
   73SOL     OW  289   1.229   0.680   1.324  0.1653 -0.1525  0.2317
   73SOL    HW1  290   1.171   0.614   1.345 -1.8947  3.2831  0.9627
   73SOL    HW2  291   1.180   0.758   1.360  0.1735  1.2900  1.3121
   73SOL     MW  292   1.215   0.682   1.332 -0.1054  0.4912  0.4707
   74SOL     OW  293   2.877   0.246   1.061  0.4283 -0.4484 -0.3129
   74SOL    HW1  294   2.917   0.198   0.993 -1.6054 -3.4709 -1.9322
   74SOL    HW2  295   2.785   0.264   1.028 -2.1133  1.5823  2.1909
   74SOL     MW  296   2.871   0.242   1.048 -0.1753 -0.5793 -0.1962
   75SOL     OW  297   1.584   1.323   0.113  0.0608 -0.1443 -0.2774
   75SOL    HW1  298   1.637   1.252   0.066  0.7235  1.1457 -0.5435
   75SOL    HW2  299   1.608   1.311   0.210 -0.7503 -0.3703 -0.4985
   75SOL     MW  300   1.594   1.312   0.119  0.0412 -0.0039 -0.3417
   76SOL     OW  301   2.980   0.599   0.462  0.6960  0.3554  0.1275
   76SOL    HW1  302   3.005   0.628   0.552  2.4440  0.7109  0.1348
   76SOL    HW2  303   3.050   0.547   0.426  0.8843  0.5898  0.5099
   76SOL     MW  304   2.992   0.596   0.469  0.9515  0.4332  0.1789
   77SOL     OW  305   0.906   0.549   0.425  0.3559  0.5093 -0.4586
   77SOL    HW1  306   0.881   0.577   0.338 -0.6975  0.5536  0.3890
   77SOL    HW2  307   0.879   0.457   0.420 -0.1404  1.7117  0.8023
   77SOL     MW  308   0.899   0.541   0.413  0.1514  0.6738 -0.1804
   78SOL     OW  309   0.765   0.873   1.142 -0.3962  0.1814 -0.0655
   78SOL    HW1  310   0.775   0.961   1.091 -1.9694  2.3819 -1.5792
   78SOL    HW2  311   0.672   0.851   1.142  1.8690  1.1777 -2.1718
   78SOL     MW  312   0.754   0.882   1.135 -0.3049  0.6032 -0.5431
   79SOL     OW  313   1.893   1.654   0.633 -0.4837  0.1634 -0.5441
   79SOL    HW1  314   1.801   1.635   0.633  0.0382 -2.6484  0.7300
   79SOL    HW2  315   1.921   1.624   0.722 -1.8209 -0.6735 -1.7967
   79SOL     MW  316   1.885   1.648   0.645 -0.5913 -0.3180 -0.5412
   80SOL     OW  317   0.079   0.951   0.373 -0.2606 -0.0902  0.2751
   80SOL    HW1  318  -0.009   0.918   0.374 -1.6704  3.0386  0.7205
   80SOL    HW2  319   0.131   0.888   0.417 -1.3924 -1.2228 -0.2301
   80SOL     MW  320   0.074   0.939   0.379 -0.5960  0.1732  0.2672
   81SOL     OW  321   1.865   1.886   0.321 -0.0435  0.1036 -0.0054
   81SOL    HW1  322   1.833   1.799   0.300 -2.4012 -2.4041  0.2462
   81SOL    HW2  323   1.807   1.946   0.262 -1.0889  0.4032  0.0398
   81SOL     MW  324   1.853   1.883   0.311 -0.4925 -0.1877  0.0338
   82SOL     OW  325   0.864   1.041   0.512  0.3836  0.0512 -0.0382
   82SOL    HW1  326   0.830   1.060   0.423  1.3748  1.0192 -0.0924
   82SOL    HW2  327   0.853   0.945   0.535 -2.1007 -2.1044 -1.1975
   82SOL     MW  328   0.858   1.031   0.503  0.1866 -0.1055 -0.1983
   83SOL     OW  329   0.042   0.742   1.496  0.0184  0.3879 -0.1859
   83SOL    HW1  330   0.065   0.765   1.407  1.6209 -0.2462 -1.3944
   83SOL    HW2  331   0.107   0.671   1.512  0.7739 -3.0468 -3.4547
   83SOL     MW  332   0.053   0.736   1.486  0.3295 -0.1489 -0.7766
   84SOL     OW  333   0.048   0.203   0.893 -0.3310  0.1391 -0.0434
   84SOL    HW1  334   0.028   0.275   0.959  0.3407  2.1077  0.8293
   84SOL    HW2  335   0.043   0.121   0.944 -1.2226 -1.6653  0.4524
   84SOL     MW  336   0.045   0.202   0.909 -0.3600  0.1608  0.1371
   85SOL     OW  337   0.398   0.437   0.708 -0.2931  0.0339 -0.3187
   85SOL    HW1  338   0.383   0.469   0.623 -1.8133 -0.0770  0.3747
   85SOL    HW2  339   0.369   0.345   0.716  0.3932  0.2891  0.1931
   85SOL     MW  340   0.393   0.429   0.698 -0.4031  0.0529 -0.1597
   86SOL     OW  341   1.179   0.243   1.129  0.0573  0.1859  0.3093
   86SOL    HW1  342   1.143   0.331   1.144  0.3136  0.3801  0.9623
   86SOL    HW2  343   1.268   0.261   1.123  0.8392 -1.1591  1.4834
   86SOL     MW  344   1.186   0.257   1.131  0.1943  0.0340  0.5504
   87SOL     OW  345   1.062   1.490   1.210 -0.3556  0.4654 -0.0034
   87SOL    HW1  346   1.116   1.552   1.163 -1.1128 -1.9440  1.0820
   87SOL    HW2  347   1.085   1.405   1.179 -2.5869 -1.8847 -0.1805
   87SOL     MW  348   1.072   1.487   1.200 -0.7499 -0.1626  0.1165
   88SOL     OW  349   1.230   1.026   0.993  0.2625  0.0610 -0.0362
   88SOL    HW1  350   1.322   1.045   0.974 -0.2632 -1.8512 -1.5682
   88SOL    HW2  351   1.205   1.080   1.072  1.1945  1.3898  2.4372
   88SOL     MW  352   1.239   1.035   1.001  0.3161 -0.0160  0.0880
   89SOL     OW  353   1.731   0.734   0.383  0.0276 -0.1369 -0.0227
   89SOL    HW1  354   1.714   0.653   0.429 -0.1595 -1.4254 -2.4306
   89SOL    HW2  355   1.809   0.714   0.328  1.9337 -0.0710 -1.6596
   89SOL     MW  356   1.739   0.721   0.382  0.2544 -0.2982 -0.5564
   90SOL     OW  357   0.844   1.158   2.887  0.6011 -0.3764 -0.1854
   90SOL    HW1  358   0.860   1.063   2.901  3.0189  0.3699 -1.4905
   90SOL    HW2  359   0.864   1.194   2.979 -1.1076 -1.1103  0.5134
   90SOL     MW  360   0.849   1.150   2.901  0.6947 -0.3748 -0.2654
   91SOL     OW  361   2.193   0.657   0.461  0.4827  0.0974 -0.6484
   91SOL    HW1  362   2.264   0.706   0.408  0.2078  1.6143  0.8092
   91SOL    HW2  363   2.190   0.568   0.431  1.4740 -0.1300 -0.5369
   91SOL     MW  364   2.202   0.652   0.450  0.5772  0.2675 -0.4414
   92SOL     OW  365   1.655   0.914   0.563 -0.2388  0.2235  0.1235
   92SOL    HW1  366   1.561   0.936   0.587 -0.6279  1.1264 -1.4327
   92SOL    HW2  367   1.652   0.837   0.501 -1.3359  0.2399  2.1526
   92SOL     MW  368   1.642   0.907   0.558 -0.4349  0.3448  0.1859
   93SOL     OW  369   1.132   0.193   0.419  0.1809  0.5981 -0.7158
   93SOL    HW1  370   1.039   0.205   0.431  1.8577  0.8997 -1.2774
   93SOL    HW2  371   1.149   0.241   0.335 -0.0860  0.1192 -1.6402
   93SOL     MW  372   1.122   0.201   0.409  0.3669  0.5747 -0.9119
   94SOL     OW  373   1.851   1.357   1.599  0.0668  0.7278 -0.0609
   94SOL    HW1  374   1.870   1.370   1.510 -0.2160 -2.0189  1.0578
   94SOL    HW2  375   1.842   1.261   1.610 -0.0777  2.0196 -0.9838
   94SOL     MW  376   1.852   1.346   1.588  0.0104  0.5358 -0.0351
   95SOL     OW  377   0.654   1.566   0.924 -0.6414 -1.0557 -0.1841
   95SOL    HW1  378   0.662   1.564   1.023 -3.2546 -0.0910 -0.9425
   95SOL    HW2  379   0.609   1.488   0.891 -1.3505 -0.3071  0.1156
   95SOL     MW  380   0.649   1.555   0.933 -1.0797 -0.8296 -0.2446
   96SOL     OW  381   1.329   1.874   1.721 -0.2355 -0.3956  0.3262
   96SOL    HW1  382   1.248   1.898   1.756  2.1480  1.8540 -0.1707
   96SOL    HW2  383   1.331   1.784   1.693  0.6312 -0.1024 -1.1989
   96SOL     MW  384   1.319   1.865   1.722  0.1933 -0.0601  0.0594
   97SOL     OW  385   1.119   1.459   0.852 -0.0249 -0.0555  0.3110
   97SOL    HW1  386   1.160   1.508   0.923 -0.0255  0.0456  0.8282
   97SOL    HW2  387   1.048   1.511   0.826 -0.0594 -0.2718  1.9399
   97SOL     MW  388   1.115   1.473   0.858 -0.0295 -0.0707  0.5941
   98SOL     OW  389   1.427   1.340   1.158 -0.1093  0.8048 -0.4070
   98SOL    HW1  390   1.488   1.378   1.223  0.3074 -0.5278  2.4649
   98SOL    HW2  391   1.435   1.397   1.079 -1.9946 -1.1480  1.5360
   98SOL     MW  392   1.436   1.353   1.156 -0.3031  0.3713  0.2283
   99SOL     OW  393   1.464   0.286   1.256 -0.3638 -0.0513  0.5359
   99SOL    HW1  394   1.487   0.379   1.237 -0.5472 -1.3589 -0.3323
   99SOL    HW2  395   1.409   0.296   1.329 -1.1269 -0.1434 -3.7478
   99SOL     MW  396   1.460   0.300   1.263 -0.4887 -0.2360 -0.1438
  100SOL     OW  397   1.020   1.165   1.401 -0.2008 -0.0108 -0.4239
  100SOL    HW1  398   1.066   1.208   1.474  0.2141  1.4050 -0.1568
  100SOL    HW2  399   1.029   1.071   1.413 -0.5690 -1.1203  0.8674
  100SOL     MW  400   1.027   1.158   1.412 -0.1947  0.0297 -0.2183
  101SOL     OW  401   0.535   1.188   0.358  0.6403 -0.4362 -0.1518
  101SOL    HW1  402   0.458   1.151   0.318  3.0274 -0.2259 -2.0345
  101SOL    HW2  403   0.595   1.129   0.307 -0.9794 -0.6966  1.0636
  101SOL     MW  404   0.533   1.175   0.346  0.7415 -0.4428 -0.2398
  102SOL     OW  405   2.897   0.638   1.030 -0.4071  0.1347  0.8862
  102SOL    HW1  406   2.912   0.731   1.018  1.1787  1.5262  0.2444
  102SOL    HW2  407   2.883   0.617   1.128  1.8172 -0.1689 -1.1104
  102SOL     MW  408   2.897   0.647   1.041  0.0956  0.2782  0.5381
  103SOL     OW  409   1.833   0.227   1.827  0.0394 -0.3306 -0.8601
  103SOL    HW1  410   1.821   0.138   1.803  0.2999 -0.2678 -1.3828
  103SOL    HW2  411   1.810   0.237   1.918 -0.7564  0.6582 -1.0283
  103SOL     MW  412   1.828   0.216   1.836 -0.0313 -0.1919 -0.9513
  104SOL     OW  413   0.100   1.520   1.585  0.6456  0.3696  0.0752
  104SOL    HW1  414   0.156   1.461   1.629 -1.9455 -3.2415  1.2604
  104SOL    HW2  415   0.016   1.478   1.610 -0.1546  0.1738  3.0943
  104SOL     MW  416   0.096   1.507   1.594  0.1982 -0.1327  0.6299
  105SOL     OW  417  -0.005   1.224   0.416 -0.3643  0.2604 -0.3753
  105SOL    HW1  418   0.020   1.129   0.412  1.9841  0.2136  1.9749
  105SOL    HW2  419   0.079   1.262   0.401 -1.2777 -2.1554 -0.0827
  105SOL     MW  420   0.010   1.217   0.414 -0.1749 -0.0645 -0.0266
  106SOL     OW  421   0.769   0.417   0.903 -0.4286 -0.1166 -0.1891
  106SOL    HW1  422   0.705   0.490   0.902 -0.6199  0.7927  1.5224
  106SOL    HW2  423   0.840   0.444   0.850 -0.3792 -0.5180  0.9969
  106SOL     MW  424   0.770   0.430   0.895 -0.4473 -0.0496  0.1932
  107SOL     OW  425   0.830   2.112   2.901  0.0674 -0.4612 -0.4142
  107SOL    HW1  426   0.738   2.103   2.874  2.0307 -1.2664 -0.7099
  107SOL    HW2  427   0.830   2.093   2.993 -0.3492  4.4163 -1.0027
  107SOL     MW  428   0.818   2.108   2.910  0.2715  0.0761 -0.5308
  108SOL     OW  429   1.361   1.604   1.640  0.2383 -0.1525  0.2849
  108SOL    HW1  430   1.310   1.584   1.556 -2.6239 -1.7837 -1.8154
  108SOL    HW2  431   1.446   1.568   1.645 -2.1541  0.6538  0.0125
  108SOL     MW  432   1.366   1.597   1.629 -0.4550 -0.2613 -0.0281
  109SOL     OW  433   2.013   0.727   0.245  0.1355 -0.6929  0.1226
  109SOL    HW1  434   2.034   0.818   0.235  0.5456 -0.8218  0.7962
  109SOL    HW2  435   2.072   0.693   0.312  2.7617  0.7492 -0.8946
  109SOL     MW  436   2.023   0.735   0.253  0.5361 -0.5196  0.0773
  110SOL     OW  437   0.410   1.931   0.703 -0.0650  0.1367  0.4787
  110SOL    HW1  438   0.473   1.878   0.659 -2.1980  0.6423  2.8713
  110SOL    HW2  439   0.382   1.992   0.630  2.3808 -2.4753 -1.5630
  110SOL     MW  440   0.415   1.932   0.688 -0.0237 -0.1412  0.5250
  111SOL     OW  441   0.788   0.895   1.434  0.4168  0.0346 -0.4800
  111SOL    HW1  442   0.795   0.898   1.339  0.9654 -1.3647  1.1980
  111SOL    HW2  443   0.759   0.803   1.452 -1.8611 -0.0229 -1.6007
  111SOL     MW  444   0.785   0.883   1.424  0.1886 -0.1576 -0.4065
  112SOL     OW  445   1.356   1.082   1.623  0.6792  0.0891 -0.0750
  112SOL    HW1  446   1.287   1.142   1.639  0.7650  0.0596  1.4694
  112SOL    HW2  447   1.316   0.996   1.608  2.3211 -1.4840 -0.5820
  112SOL     MW  448   1.342   1.078   1.623  0.9072 -0.1224  0.0618
  113SOL     OW  449   1.244   3.069   1.671 -0.1956 -0.1116 -0.1699
  113SOL    HW1  450   1.251   3.045   1.767 -1.0500 -0.3764  2.2964
  113SOL    HW2  451   1.232   2.987   1.620  1.9547 -0.5970 -0.9671
  113SOL     MW  452   1.243   3.055   1.677 -0.0246 -0.2106  0.0503
  114SOL     OW  453   0.261   2.870   1.867  0.0494  0.2307  0.2361
  114SOL    HW1  454   0.314   2.905   1.941 -0.6365 -0.5729 -1.6938
  114SOL    HW2  455   0.194   2.938   1.855  0.0441  5.9876 -1.7258
  114SOL     MW  456   0.259   2.884   1.875 -0.0418  0.8842 -0.2774
  115SOL     OW  457   0.452   0.803   1.142  0.2434 -0.2347  0.2212
  115SOL    HW1  458   0.447   0.705   1.138 -2.6575 -0.8438 -2.9159
  115SOL    HW2  459   0.427   0.819   1.240  2.0234  2.0149  2.0851
  115SOL     MW  460   0.448   0.792   1.155  0.0955 -0.0182  0.0532
  116SOL     OW  461   0.818   1.091   1.008  0.3001  0.2928  0.7418
  116SOL    HW1  462   0.841   1.124   0.922 -1.0095  1.0017  0.3049
  116SOL    HW2  463   0.821   1.164   1.063 -0.2216  1.6998 -1.7459
  116SOL     MW  464   0.821   1.105   1.004  0.0585  0.5720  0.3559
  117SOL     OW  465   1.102   1.176   0.803  0.0897  0.1851 -0.2085
  117SOL    HW1  466   1.132   1.112   0.866  1.8582  2.2144 -1.4916
  117SOL    HW2  467   1.138   1.263   0.842  1.0205 -2.1798  0.5511
  117SOL     MW  468   1.111   1.179   0.816  0.4459  0.1408 -0.2776
  118SOL     OW  469   3.040   2.978   1.696 -0.0039 -0.1938 -0.0809
  118SOL    HW1  470   3.069   3.035   1.770  0.5143 -2.9050 -0.1456
  118SOL    HW2  471   2.957   3.022   1.659  1.9399  0.8531 -1.1119
  118SOL     MW  472   3.033   2.992   1.701  0.3209 -0.4134 -0.2255
  119SOL     OW  473   0.410   1.502   1.259  0.2548  0.4603 -0.3672
  119SOL    HW1  474   0.416   1.567   1.189 -1.0930  3.7653  4.1406
  119SOL    HW2  475   0.320   1.466   1.254 -1.4632 -0.4125 -1.9357
  119SOL     MW  476   0.399   1.506   1.249 -0.1497  0.7812  0.0207
  120SOL     OW  477   0.206   0.768   1.026  0.3929  0.3291 -0.0211
  120SOL    HW1  478   0.135   0.789   1.085  0.0293  0.2539 -1.1373
  120SOL    HW2  479   0.286   0.808   1.059  1.6414 -2.8677 -3.5996
  120SOL     MW  480   0.207   0.776   1.038  0.5096 -0.1026 -0.6405
  121SOL     OW  481   1.765   1.123   1.661 -0.1975 -0.6610 -0.3631
  121SOL    HW1  482   1.695   1.180   1.622 -2.4464  1.4359 -0.3510
  121SOL    HW2  483   1.755   1.045   1.604  0.7202  0.9742  0.2989
  121SOL     MW  484   1.755   1.120   1.648 -0.3731 -0.1686 -0.2742
  122SOL     OW  485   0.177   0.568   0.812  0.0556 -0.3800 -0.2427
  122SOL    HW1  486   0.254   0.514   0.785 -0.3302  0.3601  0.0297
  122SOL    HW2  487   0.212   0.629   0.876  0.2999 -0.9896  1.7022
  122SOL     MW  488   0.192   0.569   0.817  0.0369 -0.3628  0.0499
  123SOL     OW  489   1.839   1.095   0.479  0.2148  0.1025  0.1108
  123SOL    HW1  490   1.776   1.024   0.498  1.2144  1.4098  1.5447
  123SOL    HW2  491   1.837   1.144   0.562 -1.8545  0.4636  2.0196
  123SOL     MW  492   1.831   1.092   0.493  0.0737  0.3226  0.5519
  124SOL     OW  493   0.512   0.571   0.934 -0.1984 -0.0199  0.2319
  124SOL    HW1  494   0.475   0.530   0.855 -0.4915 -1.9588 -0.7032
  124SOL    HW2  495   0.554   0.655   0.907  1.7667 -0.9903  1.6073
  124SOL     MW  496   0.513   0.577   0.920  0.0222 -0.4038  0.2900
  125SOL     OW  497   0.744   1.779   1.719 -0.0634 -0.0281  0.3856
  125SOL    HW1  498   0.663   1.728   1.726 -1.1912  1.5347  0.7474
  125SOL    HW2  499   0.714   1.877   1.716 -0.2582  0.4870 -2.8597
  125SOL     MW  500   0.729   1.785   1.719 -0.2379  0.2461  0.0052
  126SOL     OW  501   2.158   1.513   1.948  0.2867 -0.8219 -0.0203
  126SOL    HW1  502   2.210   1.598   1.944 -0.6129  0.0328 -0.5651
  126SOL    HW2  503   2.217   1.444   1.979  0.8021  0.9137 -0.5946
  126SOL     MW  504   2.173   1.515   1.952  0.2360 -0.4802 -0.1680
  127SOL     OW  505   0.585   0.866   1.784 -0.0638 -0.0858 -0.1484
  127SOL    HW1  506   0.668   0.830   1.814  1.4779  1.8818 -0.0709
  127SOL    HW2  507   0.541   0.891   1.871 -0.4488 -0.6017 -0.1341
  127SOL     MW  508   0.590   0.865   1.799  0.0888  0.1057 -0.1363
  128SOL     OW  509   1.677   0.716   2.900 -0.0960 -0.1437  0.1827
  128SOL    HW1  510   1.729   0.707   2.816  0.8752  0.9236 -2.0796
  128SOL    HW2  511   1.655   0.809   2.898 -0.2450 -0.3264 -1.1947
  128SOL     MW  512   1.681   0.727   2.888  0.0125 -0.0270 -0.2975
  129SOL     OW  513   1.612   0.935   0.175 -0.0860 -0.1263  0.8767
  129SOL    HW1  514   1.536   0.877   0.159 -1.0262 -1.5025 -0.7998
  129SOL    HW2  515   1.672   0.893   0.240  0.1355  0.3492 -0.0031
  129SOL     MW  516   1.610   0.922   0.181 -0.1808 -0.2451  0.5395
  130SOL     OW  517   0.789   1.391   0.307 -0.5767  0.9253 -0.1373
  130SOL    HW1  518   0.816   1.389   0.405 -1.7205  0.6693  0.9793
  130SOL    HW2  519   0.841   1.457   0.268  1.4043 -1.6652 -1.5184
  130SOL     MW  520   0.799   1.399   0.315 -0.4662  0.5498 -0.1722
  131SOL     OW  521   3.047   0.818   0.008 -0.1355  0.1014  0.6732
  131SOL    HW1  522   3.049   0.852  -0.090  0.3909 -1.6694 -1.2395
  131SOL    HW2  523   3.134   0.807   0.039 -0.4019 -2.5398 -0.5445
  131SOL     MW  524   3.059   0.821  -0.001 -0.1012 -0.4807  0.2601
  132SOL     OW  525   2.739   0.159   1.297  0.2509  0.2998 -0.2131
  132SOL    HW1  526   2.811   0.169   1.237 -0.2314  0.5321 -1.6869
  132SOL    HW2  527   2.661   0.143   1.243 -2.4404  0.2119 -2.6465
  132SOL     MW  528   2.739   0.158   1.282 -0.1678  0.3189 -0.7286
  133SOL     OW  529   1.058   0.183   1.687 -0.2872 -0.3435 -0.0059
  133SOL    HW1  530   1.123   0.111   1.676 -0.2277 -1.0957 -2.1025
  133SOL    HW2  531   1.082   0.227   1.768 -0.6543 -0.5516  0.1737
  133SOL     MW  532   1.070   0.179   1.696 -0.3278 -0.4702 -0.2588
  134SOL     OW  533   1.418   2.451   1.432  0.0667 -0.0108  0.5398
  134SOL    HW1  534   1.344   2.517   1.426 -2.0233  1.9088  3.6190
  134SOL    HW2  535   1.451   2.473   1.519 -1.3392 -0.7660 -0.0049
  134SOL     MW  536   1.412   2.463   1.443 -0.3946  0.1428  0.8742
  135SOL     OW  537   3.051   0.987   2.874  0.1725  0.0513  0.5665
  135SOL    HW1  538   3.126   1.030   2.913 -0.3871 -0.9142 -4.0984
  135SOL    HW2  539   2.977   1.050   2.882  0.5271  0.6912 -1.7770
  135SOL     MW  540   3.051   1.001   2.880  0.1455  0.0084 -0.3582
  136SOL     OW  541   0.220   2.051   0.867  0.0804 -0.3209  0.4456
  136SOL    HW1  542   0.145   1.990   0.846  0.1539 -0.2684 -0.7324
  136SOL    HW2  543   0.291   2.033   0.812  0.3634 -0.8942 -1.1068
  136SOL     MW  544   0.219   2.041   0.857  0.1275 -0.3896  0.0853
  137SOL     OW  545   0.687   2.066   0.541 -0.0873 -0.0124 -0.4586
  137SOL    HW1  546   0.677   2.084   0.638 -0.4552 -0.3993 -1.9847
  137SOL    HW2  547   0.597   2.087   0.508 -1.2606 -2.0802  2.2499
  137SOL     MW  548   0.674   2.071   0.549 -0.2906 -0.3363 -0.3026
  138SOL     OW  549   0.458   0.506   1.205 -0.6868 -0.1742  0.2674
  138SOL    HW1  550   0.365   0.498   1.186 -2.2788  0.0138 -1.3667
  138SOL    HW2  551   0.487   0.530   1.113  0.5765  1.2420  2.3232
  138SOL     MW  552   0.450   0.508   1.190 -0.7302  0.0374  0.3230
  139SOL     OW  553   2.816   0.568   1.281 -0.9691  0.2905  0.4633
  139SOL    HW1  554   2.870   0.490   1.312  4.4714  0.4678 -0.0141
  139SOL    HW2  555   2.825   0.627   1.357 -1.0726  0.9904  1.2362
  139SOL     MW  556   2.824   0.565   1.295 -0.2650  0.4062  0.5023
  140SOL     OW  557   0.893   0.473   1.999 -0.6032  0.1183  0.0516
  140SOL    HW1  558   0.884   0.375   1.990  0.0031  0.8160 -1.7404
  140SOL    HW2  559   0.866   0.488   2.093 -2.5416  1.5408 -0.1608
  140SOL     MW  560   0.888   0.462   2.010 -0.7790  0.3980 -0.2129
  141SOL     OW  561   0.990   0.649   1.677  0.2616  0.0942 -0.1476
  141SOL    HW1  562   1.048   0.577   1.678 -1.0478  2.5719 -0.1093
  141SOL    HW2  563   1.052   0.722   1.671  1.9834  1.8173  0.4863
  141SOL     MW  564   1.005   0.649   1.676  0.3160  0.6485 -0.0589
  142SOL     OW  565   0.850   1.169   0.743  0.7311  0.0868  0.0007
  142SOL    HW1  566   0.847   1.113   0.663 -3.1513 -2.1526  2.2079
  142SOL    HW2  567   0.942   1.173   0.764 -1.0519 -0.6654  2.2936
  142SOL     MW  568   0.862   1.162   0.735 -0.0164 -0.3079  0.5944
  143SOL     OW  569   1.823   0.683   1.091 -0.0269  0.0601 -0.1294
  143SOL    HW1  570   1.901   0.689   1.035  0.9986  2.8219  1.9961
  143SOL    HW2  571   1.748   0.698   1.032  0.4203  3.2999  1.0473
  143SOL     MW  572   1.823   0.686   1.076  0.1674  0.8519  0.3063
  144SOL     OW  573   0.289   1.363   1.726 -0.6523 -0.0047 -0.2496
  144SOL    HW1  574   0.361   1.359   1.656  3.1437  0.6156  0.0167
  144SOL    HW2  575   0.330   1.307   1.800  1.0646 -1.2407 -0.4072
  144SOL     MW  576   0.304   1.355   1.727  0.0751 -0.0860 -0.2352
  145SOL     OW  577   0.165   0.476   1.258 -0.1224 -0.7265  0.3217
  145SOL    HW1  578   0.209   0.390   1.247 -2.4018  0.6262 -0.8575
  145SOL    HW2  579   0.112   0.472   1.177  3.3336  1.8841  0.8933
  145SOL     MW  580   0.164   0.464   1.246  0.0328 -0.2036  0.2415
  146SOL     OW  581   0.901   1.919   1.377 -0.0551 -0.7596 -0.2930
  146SOL    HW1  582   0.919   1.962   1.296  1.5236 -1.0015  1.8453
  146SOL    HW2  583   0.814   1.887   1.372 -0.4227 -0.2432 -2.4124
  146SOL     MW  584   0.892   1.920   1.366  0.1047 -0.7233 -0.2905
  147SOL     OW  585   0.431   0.516   2.952  0.4623 -0.2714 -0.0548
  147SOL    HW1  586   0.365   0.502   3.023  0.4426  1.3610  1.5995
  147SOL    HW2  587   0.381   0.572   2.894 -0.4022 -2.0142 -0.9426
  147SOL     MW  588   0.415   0.521   2.954  0.3456 -0.2859  0.0464
  148SOL     OW  589   0.042   0.889   1.240 -0.6049  0.6419  0.7263
  148SOL    HW1  590   0.132   0.934   1.237  0.8833  0.8051  1.9091
  148SOL    HW2  591  -0.027   0.943   1.289 -0.3841  3.0183  1.0084
  148SOL     MW  592   0.044   0.902   1.246 -0.3794  0.9770  0.9196
  149SOL     OW  593   1.580   1.165   1.453 -0.2502  0.1616  1.0213
  149SOL    HW1  594   1.505   1.148   1.510  2.8351  0.3119  3.0077
  149SOL    HW2  595   1.564   1.256   1.430  0.0810 -0.7968  0.6258
  149SOL     MW  596   1.568   1.174   1.458  0.2006  0.0550  1.2312
  150SOL     OW  597   1.711   1.368   0.860  0.1980 -0.5742  0.2405
  150SOL    HW1  598   1.767   1.300   0.826  0.4077  0.4703  0.9083
  150SOL    HW2  599   1.774   1.433   0.897  0.3888  2.5241  1.6584
  150SOL     MW  600   1.726   1.368   0.861  0.2509 -0.0276  0.5157
  151SOL     OW  601   1.694   1.845   0.795 -0.0843 -0.2189  0.0329
  151SOL    HW1  602   1.668   1.840   0.705  1.1128  0.5029 -0.4238
  151SOL    HW2  603   1.618   1.834   0.847  0.3562  0.0112 -2.0230
  151SOL     MW  604   1.681   1.843   0.790  0.1318 -0.0933 -0.2986
  152SOL     OW  605   0.773   1.425   1.627 -0.0355  0.5114 -0.2261
  152SOL    HW1  606   0.813   1.497   1.578 -1.2443  1.1697  0.0369
  152SOL    HW2  607   0.777   1.344   1.569  0.8056  0.1192  2.8143
  152SOL     MW  608   0.779   1.424   1.613 -0.0840  0.5465  0.2098
  153SOL     OW  609   2.551   1.223   0.767 -0.1961 -0.1612 -0.0383
  153SOL    HW1  610   2.627   1.171   0.744 -0.6601  0.6297  0.2668
  153SOL    HW2  611   2.477   1.157   0.782  1.1401 -0.8756  0.1719
  153SOL     MW  612   2.552   1.207   0.766 -0.0810 -0.1511  0.0297
  154SOL     OW  613   0.125   1.758   1.733 -0.1196 -0.0580  0.4520
  154SOL    HW1  614   0.087   1.685   1.683  0.8783  1.6004  0.0860
  154SOL    HW2  615   0.208   1.741   1.779  0.2369  1.3079 -0.3349
  154SOL     MW  616   0.131   1.746   1.733  0.0591  0.3410  0.2999
  155SOL     OW  617   1.184   0.762   0.319 -0.1708 -0.2937 -0.1039
  155SOL    HW1  618   1.156   0.735   0.412 -0.9144  0.0560  2.4404
  155SOL    HW2  619   1.173   0.858   0.320  1.9277 -0.2561 -0.3831
  155SOL     MW  620   1.179   0.771   0.332  0.0080 -0.2426  0.1950
  156SOL     OW  621   1.551   3.048   1.109 -0.4017 -0.2267  0.0752
  156SOL    HW1  622   1.623   3.110   1.142 -2.3902  1.7201  2.6039
  156SOL    HW2  623   1.597   2.965   1.109 -0.7159  0.3129  1.5677
  156SOL     MW  624   1.566   3.045   1.113 -0.7055  0.1013  0.6057
  157SOL     OW  625   1.369   1.153   0.099  0.3496  0.3269 -0.2191
  157SOL    HW1  626   1.418   1.109   0.171 -0.7495 -2.5712 -2.6957
  157SOL    HW2  627   1.433   1.225   0.095  0.0126  2.7641  0.1543
  157SOL     MW  628   1.384   1.157   0.108  0.1601  0.2661 -0.4966
  158SOL     OW  629   0.446   1.674   2.306  0.3665  0.8265 -0.6175
  158SOL    HW1  630   0.462   1.715   2.221 -1.1402  1.2586 -1.1412
  158SOL    HW2  631   0.388   1.737   2.347  0.3682  0.3333 -1.5302
  158SOL     MW  632   0.440   1.688   2.300  0.1679  0.8184 -0.8070
  159SOL     OW  633   1.249   1.632   0.473  0.3838 -0.5819  0.1847
  159SOL    HW1  634   1.207   1.609   0.389  0.1673 -3.0728 -0.5478
  159SOL    HW2  635   1.184   1.689   0.518 -3.9905 -0.8780  0.4243
  159SOL     MW  636   1.235   1.637   0.468 -0.2219 -0.9496  0.1196
  160SOL     OW  637   0.502   1.257   1.551  0.2475  0.1616 -0.6374
  160SOL    HW1  638   0.448   1.180   1.568  0.8431  2.0349  1.7865
  160SOL    HW2  639   0.595   1.238   1.581  0.5755 -0.6054  1.9331
  160SOL     MW  640   0.507   1.244   1.557  0.3694  0.3076  0.0216
  161SOL     OW  641   0.457   2.185   2.574 -0.5204  0.6234  0.0354
  161SOL    HW1  642   0.372   2.227   2.555  1.8403  0.3007  2.8663
  161SOL    HW2  643   0.483   2.132   2.496  2.1226 -0.7629 -2.4329
  161SOL     MW  644   0.449   2.184   2.561  0.1398  0.3979  0.0832
  162SOL     OW  645   1.047   1.829   1.843  0.1676  0.2273 -0.1791
  162SOL    HW1  646   1.047   1.924   1.846 -1.2975 -1.8679 -1.4753
  162SOL    HW2  647   0.976   1.812   1.908 -0.9095 -1.5579 -0.6201
  162SOL     MW  648   1.038   1.840   1.852 -0.1678 -0.2847 -0.4083
  163SOL     OW  649   2.057   3.059   0.899  0.5122  0.0916 -0.1176
  163SOL    HW1  650   2.061   3.117   0.821 -2.1652  3.3163 -1.7211
  163SOL    HW2  651   2.084   2.972   0.866  0.1300  0.0329 -1.5320
  163SOL     MW  652   2.061   3.055   0.884  0.1085  0.5093 -0.5158
  164SOL     OW  653   0.302   0.190   0.796  0.6535  0.0479 -0.1339
  164SOL    HW1  654   0.206   0.206   0.810 -2.4998 -0.1491  1.2701
  164SOL    HW2  655   0.313   0.105   0.748  1.1732 -1.1493  2.3317
  164SOL     MW  656   0.291   0.181   0.791  0.3060 -0.1360  0.3767
  165SOL     OW  657   1.203   1.323   0.344 -0.3227 -0.0568  0.2033
  165SOL    HW1  658   1.187   1.271   0.418  1.3653 -0.5883  0.3420
  165SOL    HW2  659   1.280   1.292   0.304 -0.9674 -0.8593  0.1684
  165SOL     MW  660   1.211   1.312   0.348 -0.1850 -0.2328  0.2170
  166SOL     OW  661   0.552   1.120   1.020 -0.5690 -0.0768 -0.0060
  166SOL    HW1  662   0.529   1.172   1.101 -0.0936 -0.6451 -1.3369
  166SOL    HW2  663   0.648   1.102   1.036  1.3538  0.4809  1.6904
  166SOL     MW  664   0.561   1.125   1.033 -0.2526 -0.0782  0.0422
  167SOL     OW  665   0.811   1.107   0.251 -0.3603 -0.1012  0.1151
  167SOL    HW1  666   0.817   1.208   0.267 -0.7672 -0.5514  0.8668
  167SOL    HW2  667   0.894   1.081   0.210  0.4763  1.4135  1.9001
  167SOL     MW  668   0.823   1.117   0.248 -0.3036  0.0393  0.4498
  168SOL     OW  669   1.742   1.658   3.039  0.2459  0.5631  0.5502
  168SOL    HW1  670   1.667   1.721   3.022  0.6300  3.5153 -0.3280
  168SOL    HW2  671   1.732   1.580   2.981  1.4400 -0.9424 -0.4259
  168SOL     MW  672   1.731   1.656   3.029  0.4541  0.7540  0.3056
  169SOL     OW  673   0.300   0.965   1.332 -0.4408 -0.2005  0.1653
  169SOL    HW1  674   0.332   0.961   1.422 -1.3572 -1.0279  2.8583
  169SOL    HW2  675   0.358   1.018   1.281 -0.6814 -2.5834 -1.6057
  169SOL     MW  676   0.312   0.971   1.337 -0.5935 -0.6241  0.2869
  170SOL     OW  677   1.145   1.504   1.483 -0.0136  0.0158 -0.9421
  170SOL    HW1  678   1.077   1.561   1.502  0.6349  1.4891 -0.2418
  170SOL    HW2  679   1.132   1.485   1.393  2.6674  0.4640  0.4130
  170SOL     MW  680   1.135   1.509   1.473  0.4257  0.2693 -0.6709
  171SOL     OW  681   0.510   1.421   0.529 -1.2160 -0.1090 -0.1582
  171SOL    HW1  682   0.501   1.379   0.614 -0.4860  0.8703  3.7760
  171SOL    HW2  683   0.523   1.354   0.462  0.4974  0.7349 -0.3351
  171SOL     MW  684   0.511   1.406   0.531 -0.8936  0.1316  0.3376
  172SOL     OW  685   0.857   0.298   1.254 -0.3234 -0.0566 -0.0391
  172SOL    HW1  686   0.810   0.284   1.170  2.0902  0.0152 -0.0854
  172SOL    HW2  687   0.831   0.227   1.308 -1.9283  0.8041 -3.5143
  172SOL     MW  688   0.847   0.287   1.250 -0.2167  0.0664 -0.5037
  173SOL     OW  689   0.522   1.810   0.270  0.4495 -0.5629  0.8029
  173SOL    HW1  690   0.531   1.716   0.249  1.9085  0.4024  2.1343
  173SOL    HW2  691   0.511   1.801   0.362  0.1999 -1.0529  0.2552
  173SOL     MW  692   0.522   1.796   0.280  0.6090 -0.5002  0.9063
  174SOL     OW  693   1.847   0.901   1.493  0.4241  0.2909  0.1113
  174SOL    HW1  694   1.801   0.824   1.525  0.4441 -0.7171 -0.1774
  174SOL    HW2  695   1.817   0.905   1.401  1.4130 -2.4265 -0.4498
  174SOL     MW  696   1.837   0.891   1.485  0.5572 -0.2006 -0.0009
  175SOL     OW  697   0.524   1.517   0.199  0.9719  0.3042  0.2020
  175SOL    HW1  698   0.465   1.446   0.170  2.1987 -2.2915 -2.7994
  175SOL    HW2  699   0.594   1.482   0.254 -3.8756 -0.0216 -0.1048
  175SOL     MW  700   0.526   1.503   0.202  0.4942 -0.0812 -0.2345
  176SOL     OW  701   0.152   1.466   1.211 -0.5024 -0.5564 -0.3996
  176SOL    HW1  702   0.138   1.438   1.114  2.6496  1.7935 -1.8712
  176SOL    HW2  703   0.070   1.438   1.261 -0.0839  0.3926  2.3928
  176SOL     MW  704   0.139   1.458   1.205 -0.0313 -0.1211 -0.2253
  177SOL     OW  705   0.556   0.315   1.444 -0.3148  0.0878  0.6942
  177SOL    HW1  706   0.594   0.365   1.374  0.0671 -3.0041 -0.9039
  177SOL    HW2  707   0.559   0.373   1.520  1.1634 -0.5620 -0.1529
  177SOL     MW  708   0.561   0.329   1.445 -0.0694 -0.4059  0.3716
  178SOL     OW  709   3.092   0.519   2.999 -0.0412  0.0883  0.3004
  178SOL    HW1  710   3.035   0.521   3.086 -1.5896 -2.3873  1.5786
  178SOL    HW2  711   3.029   0.484   2.930 -0.5910 -1.5182  0.9122
  178SOL     MW  712   3.076   0.515   3.002 -0.3181 -0.4503  0.5498
  179SOL     OW  713   1.581   1.436   1.375 -0.4844 -0.2788 -0.1746
  179SOL    HW1  714   1.583   1.450   1.467 -0.1998 -0.9852  0.5665
  179SOL    HW2  715   1.677   1.438   1.362 -1.2461 -1.2812  1.2178
  179SOL     MW  716   1.594   1.438   1.385 -0.5473 -0.5042  0.1069
  180SOL     OW  717   2.987   0.274   0.501  0.1380  0.2423  0.4594
  180SOL    HW1  718   2.974   0.284   0.402  0.3507  0.9217 -2.8974
  180SOL    HW2  719   3.073   0.300   0.522 -1.6274  0.7966 -0.1615
  180SOL     MW  720   2.996   0.279   0.491 -0.0668  0.4051 -0.0654
  181SOL     OW  721   1.140   1.324   3.077 -0.1209 -0.3945  0.0596
  181SOL    HW1  722   1.213   1.367   3.121 -1.1832 -1.8845  2.5150
  181SOL    HW2  723   1.187   1.246   3.040 -0.0402 -1.7276 -0.2940
  181SOL     MW  724   1.156   1.320   3.078 -0.2504 -0.7670  0.3369
  182SOL     OW  725   0.370   1.004   1.613 -0.1496 -0.1231  0.0118
  182SOL    HW1  726   0.292   0.970   1.654  1.1743  0.2093  4.1609
  182SOL    HW2  727   0.443   0.962   1.666  2.2537  1.7216 -1.0454
  182SOL     MW  728   0.369   0.994   1.625  0.3422  0.1642  0.4198
  183SOL     OW  729   1.531   1.710   1.273 -0.2488  0.3595  0.5058
  183SOL    HW1  730   1.628   1.717   1.273 -0.2761  1.7556 -2.4108
  183SOL    HW2  731   1.526   1.619   1.304 -1.2045 -0.6060  2.1686
  183SOL     MW  732   1.543   1.699   1.277 -0.3785  0.4163  0.3404
  184SOL     OW  733   0.796   0.711   1.886 -0.5263 -0.2758  0.1006
  184SOL    HW1  734   0.874   0.697   1.828  1.1043 -0.5034 -1.4563
  184SOL    HW2  735   0.790   0.633   1.938 -0.8514 -0.4954 -0.4815
  184SOL     MW  736   0.805   0.699   1.886 -0.3540 -0.3348 -0.1816
  185SOL     OW  737   1.093   0.942   1.891 -0.6929 -0.2548  0.1895
  185SOL    HW1  738   1.103   0.854   1.927  2.4805  0.4464 -1.5761
  185SOL    HW2  739   1.137   1.003   1.947 -2.7706  0.7711 -1.5328
  185SOL     MW  740   1.100   0.938   1.903 -0.5483 -0.0269 -0.2707
  186SOL     OW  741   0.322   1.656   1.476 -0.6130 -0.6480  0.5746
  186SOL    HW1  742   0.354   1.603   1.402  0.7272  0.0718  3.0071
  186SOL    HW2  743   0.248   1.596   1.514 -2.2145  0.1289 -1.0630
  186SOL     MW  744   0.316   1.641   1.471 -0.6475 -0.4505  0.6795
  187SOL     OW  745   1.511   0.744   1.360  0.3228 -0.1803 -0.1797
  187SOL    HW1  746   1.558   0.700   1.430 -0.0984  1.2053  1.2063
  187SOL    HW2  747   1.420   0.723   1.379 -0.0323 -0.2995  2.4016
  187SOL     MW  748   1.506   0.735   1.371  0.2204 -0.0132  0.3437
  188SOL     OW  749   1.943   1.184   0.796  0.3632  0.1715  1.0010
  188SOL    HW1  750   1.925   1.172   0.889  0.2908  1.4278 -2.0052
  188SOL    HW2  751   1.982   1.098   0.770 -0.7178  1.2458  0.2824
  188SOL     MW  752   1.946   1.171   0.805  0.2110  0.4790  0.5096
  189SOL     OW  753   0.683   0.764   0.838  0.0689 -0.0506  0.0142
  189SOL    HW1  754   0.605   0.835   0.836 -2.1173 -0.6174 -0.4969
  189SOL    HW2  755   0.745   0.788   0.910  1.2962  1.6096 -1.5025
  189SOL     MW  756   0.681   0.777   0.847 -0.0576  0.0937 -0.2533
  190SOL     OW  757   1.848   0.321   2.141  0.4332  0.4633 -0.0743
  190SOL    HW1  758   1.887   0.253   2.195 -1.2805  1.3688  0.3443
  190SOL    HW2  759   1.917   0.389   2.144 -2.8939  0.5402 -0.6393
  190SOL     MW  760   1.862   0.321   2.149 -0.2319  0.5929 -0.0936
  191SOL     OW  761   1.516   0.983   1.230 -0.1157  0.5920  0.3512
  191SOL    HW1  762   1.524   1.035   1.310  1.1185 -0.5802 -0.5771
  191SOL    HW2  763   1.509   0.893   1.264  0.1780 -0.4220 -2.2716
  191SOL     MW  764   1.516   0.978   1.245  0.0859  0.3035 -0.1173
  192SOL     OW  765   0.539   2.115   2.827 -0.1907 -0.4363  0.9435
  192SOL    HW1  766   0.499   2.153   2.750  2.3394  2.7250 -0.5130
  192SOL    HW2  767   0.547   2.020   2.809 -2.7672  1.2231 -1.3275
  192SOL     MW  768   0.535   2.107   2.815 -0.1968  0.1998  0.4517
  193SOL     OW  769   0.871   1.618   0.758  0.0082 -0.0342  0.5952
  193SOL    HW1  770   0.810   1.593   0.821  0.3934  3.2018 -1.5879
  193SOL    HW2  771   0.837   1.558   0.688 -0.2589 -1.9157 -2.1818
  193SOL     MW  772   0.858   1.607   0.757  0.0238  0.1445 -0.0593
  194SOL     OW  773   0.521   1.341   0.813  0.3497 -0.2815 -0.5322
  194SOL    HW1  774   0.529   1.258   0.861  0.3944 -0.4312 -1.5718
  194SOL    HW2  775   0.421   1.345   0.810 -0.0631  0.2667 -2.2314
  194SOL     MW  776   0.509   1.330   0.819  0.3011 -0.2290 -0.8935
  195SOL     OW  777   1.288   1.113   2.935  0.4464  0.1382 -0.4642
  195SOL    HW1  778   1.328   1.116   3.023 -1.3671  1.3702 -0.3252
  195SOL    HW2  779   1.224   1.046   2.951  0.1404 -1.2363  1.4320
  195SOL     MW  780   1.285   1.105   2.949  0.1668  0.1194 -0.1957
  196SOL     OW  781   2.246   0.975   0.526  0.7255  0.0077  0.2975
  196SOL    HW1  782   2.171   0.951   0.480  3.0288  1.0510  1.1579
  196SOL    HW2  783   2.234   1.071   0.544 -1.1391 -0.4429  2.3959
  196SOL     MW  784   2.234   0.984   0.523  0.7834  0.0859  0.6879
  197SOL     OW  785   0.619   1.281   2.236  0.0354 -0.5783  0.3069
  197SOL    HW1  786   0.664   1.205   2.187  0.2034 -0.2144 -0.9787
  197SOL    HW2  787   0.628   1.362   2.186 -0.5239  0.4032 -0.8758
  197SOL     MW  788   0.626   1.281   2.223 -0.0162 -0.4008 -0.0187
  198SOL     OW  789   2.932   1.440   1.013 -0.1631  0.9785 -0.4701
  198SOL    HW1  790   2.871   1.495   0.963 -0.4602  0.6937  0.5100
  198SOL    HW2  791   2.881   1.358   1.024  0.3682 -3.4861 -2.4844
  198SOL     MW  792   2.917   1.436   1.008 -0.1322  0.3518 -0.6066
  199SOL     OW  793   0.738   1.344   1.909 -0.5204 -0.3340 -0.6162
  199SOL    HW1  794   0.647   1.326   1.925 -0.9716 -1.2856 -2.0457
  199SOL    HW2  795   0.743   1.381   1.822  0.6439 -0.3376 -2.3932
  199SOL     MW  796   0.727   1.346   1.900 -0.4263 -0.4600 -1.0393
  200SOL     OW  797   1.858   2.906   1.363 -0.1635  0.1945  0.2119
  200SOL    HW1  798   1.918   2.958   1.314  1.3441  1.1963  1.5081
  200SOL    HW2  799   1.781   2.965   1.359  2.5093 -3.0249  0.0273
  200SOL     MW  800   1.856   2.921   1.356  0.3880 -0.0981  0.3586
  201SOL     OW  801   1.038   0.348   0.724  0.7811 -0.3303 -0.2037
  201SOL    HW1  802   1.033   0.252   0.714 -1.9501 -0.3165  2.6165
  201SOL    HW2  803   1.097   0.343   0.803  1.8163 -0.8627  2.1151
  201SOL     MW  804   1.045   0.334   0.733  0.5573 -0.3987  0.4744
  202SOL     OW  805   1.474   1.771   0.964 -0.2166  0.9006  0.0874
  202SOL    HW1  806   1.476   1.674   0.950 -0.0180  0.1816  1.2409
  202SOL    HW2  807   1.488   1.782   1.057  0.2455  3.3955  2.4670
  202SOL     MW  808   1.476   1.760   0.975 -0.1294  1.1349  0.5535
  203SOL     OW  809   2.983   0.395   1.467 -0.1486  0.0702 -0.7577
  203SOL    HW1  810   3.034   0.320   1.429  1.6929 -2.4144  1.3542
  203SOL    HW2  811   3.042   0.425   1.539  3.1345 -3.8211 -1.1104
  203SOL     MW  812   2.998   0.389   1.471  0.5275 -0.7710 -0.5256
  204SOL     OW  813   1.024   1.814   0.636  0.3423 -0.1338 -0.3035
  204SOL    HW1  814   0.976   1.737   0.677 -0.8416  0.0995  2.8296
  204SOL    HW2  815   0.969   1.835   0.562 -0.1244  1.6616  1.1491
  204SOL     MW  816   1.010   1.807   0.632  0.1245  0.1339  0.3016
  205SOL     OW  817   1.375   3.053   1.324  0.4943 -0.4510  0.1570
  205SOL    HW1  818   1.426   3.065   1.241  2.6460  1.4734  2.2822
  205SOL    HW2  819   1.340   3.138   1.345  0.2644  0.2848  0.8422
  205SOL     MW  820   1.377   3.066   1.316  0.7479 -0.1000  0.5278
  206SOL     OW  821   0.475   3.071   1.355 -0.0117 -0.0888 -0.2362
  206SOL    HW1  822   0.436   3.044   1.271 -2.1885 -0.0147 -0.9197
  206SOL    HW2  823   0.552   3.013   1.369  1.3876 -0.0359 -2.8910
  206SOL     MW  824   0.480   3.060   1.346 -0.1143 -0.0720 -0.6767
  207SOL     OW  825   0.885   1.697   0.213 -0.1857  0.3937 -0.6298
  207SOL    HW1  826   0.927   1.763   0.164  0.0712 -1.0989 -0.4460
  207SOL    HW2  827   0.955   1.635   0.214 -2.2069  1.2140  1.3174
  207SOL     MW  828   0.900   1.697   0.207 -0.4185  0.3050 -0.3487
  208SOL     OW  829   0.723   1.627   1.422  0.1430 -0.6743  0.0995
  208SOL    HW1  830   0.811   1.654   1.459 -2.1214 -1.5970  0.0963
  208SOL    HW2  831   0.740   1.590   1.331  1.4648 -3.1693 -0.8705
  208SOL     MW  832   0.737   1.626   1.415  0.0186 -1.1252 -0.0289
  209SOL     OW  833   1.522   0.494   2.803 -0.3165  0.2070  0.7356
  209SOL    HW1  834   1.575   0.569   2.834  3.6498  1.3219 -0.1246
  209SOL    HW2  835   1.586   0.423   2.799 -2.1296 -1.2262  0.7034
  209SOL     MW  836   1.537   0.494   2.806 -0.0324  0.1650  0.6179
  210SOL     OW  837   1.476   1.495   0.931 -0.4008 -0.2783 -0.2437
  210SOL    HW1  838   1.568   1.461   0.912  1.1279  0.5242  1.6886
  210SOL    HW2  839   1.427   1.486   0.846 -0.0644 -2.5848 -2.9199
  210SOL     MW  840   1.481   1.489   0.917 -0.1547 -0.4768 -0.3419
  211SOL     OW  841   1.725   0.306   0.995 -0.1530  0.0193 -0.0982
  211SOL    HW1  842   1.714   0.329   0.904  0.2241 -0.6282  0.5560
  211SOL    HW2  843   1.815   0.320   1.012  0.0585 -0.7403 -2.5101
  211SOL     MW  844   1.735   0.311   0.985 -0.0753 -0.1663 -0.3301
  212SOL     OW  845   0.272   1.090   0.217  0.4267 -0.0711  0.0482
  212SOL    HW1  846   0.217   1.026   0.259 -1.0267  0.5944 -2.2629
  212SOL    HW2  847   0.327   1.031   0.155  0.1444  0.3769 -1.4604
  212SOL     MW  848   0.272   1.074   0.214  0.1977  0.0758 -0.4558
  213SOL     OW  849   0.449   1.779   2.999 -0.7845  0.8544 -0.0235
  213SOL    HW1  850   0.483   1.836   3.065 -1.2530 -3.3451 -1.4213
  213SOL    HW2  851   0.497   1.809   2.921 -0.4729 -0.4993  2.0586
  213SOL     MW  852   0.460   1.791   2.997 -0.8052  0.1217  0.0668
  214SOL     OW  853   0.610   0.324   2.137 -0.1394 -0.2552  0.0782
  214SOL    HW1  854   0.552   0.401   2.151  0.9400  4.3869  0.3779
  214SOL    HW2  855   0.603   0.318   2.040  0.1950 -0.3538 -1.9600
  214SOL     MW  856   0.602   0.333   2.126  0.0471  0.3443 -0.1512
  215SOL     OW  857   0.509   0.639   2.587 -0.1920 -0.9675 -1.0911
  215SOL    HW1  858   0.483   0.682   2.505 -0.1144 -1.8266 -2.2434
  215SOL    HW2  859   0.430   0.607   2.631 -3.7091 -0.2131 -0.1566
  215SOL     MW  860   0.495   0.640   2.582 -0.6458 -0.9813 -1.1199
  216SOL     OW  861   2.980   3.056   2.704 -0.4379 -0.0518  0.0058
  216SOL    HW1  862   2.950   3.054   2.794 -0.6037 -0.8609  0.1636
  216SOL    HW2  863   3.005   3.150   2.696  0.8879  3.2528  0.5177
  216SOL     MW  864   2.980   3.068   2.715 -0.2848  0.2774  0.0942
  217SOL     OW  865   1.063   1.076   0.102  0.0665 -0.4608  0.1462
  217SOL    HW1  866   1.076   1.014   0.022 -1.6606 -1.7998  0.0778
  217SOL    HW2  867   1.094   1.162   0.086  0.5219 -1.8124  2.1504
  217SOL     MW  868   1.069   1.079   0.089 -0.1013 -0.8158  0.4016
  218SOL     OW  869   0.854   1.361   2.691  0.3066 -0.0923 -0.3312
  218SOL    HW1  870   0.866   1.291   2.755  1.0052 -2.5612 -1.6927
  218SOL    HW2  871   0.939   1.403   2.668  2.0308  2.7930  0.6452
  218SOL     MW  872   0.867   1.357   2.696  0.6263 -0.0374 -0.3820
  219SOL     OW  873   1.067   0.363   2.627 -0.2818  0.3460  0.4629
  219SOL    HW1  874   1.141   0.421   2.664 -2.3701 -2.5243  1.3135
  219SOL    HW2  875   1.004   0.430   2.603 -0.4878 -0.8288 -0.3986
  219SOL     MW  876   1.069   0.379   2.629 -0.5845 -0.1877  0.4614
  220SOL     OW  877   1.653   0.498   2.236  0.3094 -0.3050  0.0262
  220SOL    HW1  878   1.586   0.537   2.172 -0.4663 -0.4305 -1.7013
  220SOL    HW2  879   1.707   0.429   2.191  1.5192  0.3090 -2.0253
  220SOL     MW  880   1.651   0.494   2.222  0.3667 -0.2406 -0.4724
  221SOL     OW  881   0.331   1.281   2.903 -0.2130  0.0846  0.0843
  221SOL    HW1  882   0.414   1.237   2.886 -0.4651 -0.6343 -0.3259
  221SOL    HW2  883   0.343   1.359   2.849 -0.3215 -2.1585  1.9754
  221SOL     MW  884   0.343   1.286   2.894 -0.2606 -0.3062  0.2797
  222SOL     OW  885   0.510   0.905   2.689 -0.0289  0.2822  0.6781
  222SOL    HW1  886   0.425   0.927   2.666  0.6665  2.8310  0.2541
  222SOL    HW2  887   0.513   0.818   2.653 -0.5004 -0.7753 -0.8294
  222SOL     MW  888   0.499   0.896   2.681  0.0006  0.4789  0.4233
  223SOL     OW  889   0.025   1.996   2.574 -0.5944 -0.1625 -0.1378
  223SOL    HW1  890   0.007   1.990   2.669  2.7832  1.1840 -0.6942
  223SOL    HW2  891   0.039   2.091   2.551 -1.4603  3.8781  0.6466
  223SOL     MW  892   0.025   2.008   2.583 -0.2630  0.5483 -0.1077
  224SOL     OW  893   1.459   0.737   2.505 -0.1025  0.2649  0.7516
  224SOL    HW1  894   1.448   0.758   2.599 -1.1213  3.2919 -1.1706
  224SOL    HW2  895   1.471   0.816   2.461  0.0138 -0.7872  0.7906
  224SOL     MW  896   1.459   0.750   2.511 -0.2216  0.5255  0.5032
  225SOL     OW  897   2.944   1.438   2.302  0.0501 -0.1597  0.8554
  225SOL    HW1  898   2.965   1.519   2.255 -1.5788  0.2594  1.0259
  225SOL    HW2  899   2.858   1.467   2.340 -2.2363  1.8001  1.1787
  225SOL     MW  900   2.935   1.453   2.301 -0.4665  0.1542  0.9205
  226SOL     OW  901   0.389   1.497   2.753  0.4296 -0.4765  0.5603
  226SOL    HW1  902   0.477   1.512   2.719  0.4683  0.6871  0.6412
  226SOL    HW2  903   0.350   1.579   2.730 -0.7616  1.5485  1.1820
  226SOL     MW  904   0.395   1.510   2.745  0.2775 -0.0558  0.6530
  227SOL     OW  905   0.568   1.121   2.843 -0.1130  0.3492  0.4204
  227SOL    HW1  906   0.654   1.152   2.819  0.1544 -0.0521  2.2234
  227SOL    HW2  907   0.563   1.038   2.800  1.4919  2.1326  1.6411
  227SOL     MW  908   0.579   1.114   2.834  0.1341  0.5316  0.8194
  228SOL     OW  909   0.747   1.092   2.061  0.5129  0.1104  0.2514
  228SOL    HW1  910   0.769   1.162   1.995  0.0358  0.1151 -0.5445
  228SOL    HW2  911   0.818   1.087   2.127  1.4518  2.0158  0.9581
  228SOL     MW  912   0.759   1.101   2.061  0.5738  0.3624  0.2397
  229SOL     OW  913   0.225   0.631   0.017  0.6494 -0.3408 -0.0019
  229SOL    HW1  914   0.158   0.613  -0.046  0.6543 -0.7572 -1.6455
  229SOL    HW2  915   0.214   0.544   0.066  0.0593 -1.8748  0.0983
  229SOL     MW  916   0.215   0.617   0.015  0.5722 -0.5981 -0.2055
  230SOL     OW  917   1.800   1.369   2.016  0.1154 -0.3182 -0.4290
  230SOL    HW1  918   1.758   1.337   2.106  0.7846  1.5033  2.1330
  230SOL    HW2  919   1.832   1.283   1.987 -2.2162  0.2473  0.0517
  230SOL     MW  920   1.798   1.354   2.024 -0.1039 -0.0033 -0.0275
  231SOL     OW  921   2.733   1.250   2.194 -0.1876  0.4742  0.1700
  231SOL    HW1  922   2.815   1.298   2.224 -1.5944  1.4373  3.1651
  231SOL    HW2  923   2.699   1.294   2.112  0.3515 -1.8420  0.9828
  231SOL     MW  924   2.739   1.262   2.187 -0.3021  0.2957  0.6724
  232SOL     OW  925   2.281   0.797   1.999  0.2903 -0.5457 -0.0378
  232SOL    HW1  926   2.221   0.842   1.940 -1.0934  1.0852 -0.6573
  232SOL    HW2  927   2.225   0.810   2.074 -3.1617 -2.4038 -1.0441
  232SOL     MW  928   2.265   0.804   2.001 -0.3477 -0.5757 -0.2523
  233SOL     OW  929   2.076   0.469   2.086  0.5165  0.3965  0.1503
  233SOL    HW1  930   2.098   0.387   2.050 -1.6820  0.8167  0.6772
  233SOL    HW2  931   2.146   0.492   2.149 -2.2518 -1.6559 -1.3060
  233SOL     MW  932   2.089   0.461   2.089 -0.1388  0.1811  0.0277
  234SOL     OW  933   0.260   1.042   2.640 -0.2312  0.1288 -0.6278
  234SOL    HW1  934   0.186   1.028   2.584  0.7317  0.5918 -0.7212
  234SOL    HW2  935   0.307   1.119   2.606  1.6127  0.5960 -1.8852
  234SOL     MW  936   0.256   1.050   2.628  0.1391  0.2515 -0.8060
  235SOL     OW  937   1.016   3.039   2.797 -0.7910  0.1718 -0.4789
  235SOL    HW1  938   1.072   3.002   2.872  1.3213 -0.2682  1.1883
  235SOL    HW2  939   1.039   3.134   2.795  1.5981 -1.5824  1.3610
  235SOL     MW  940   1.027   3.047   2.807 -0.1971 -0.1177 -0.0162
  236SOL     OW  941   2.950   0.575   0.121 -0.0938  0.0890 -0.0506
  236SOL    HW1  942   2.893   0.603   0.194 -0.0939 -2.0326  0.0079
  236SOL    HW2  943   2.974   0.661   0.085 -0.5776 -0.1393  0.6674
  236SOL     MW  944   2.946   0.590   0.126 -0.1577 -0.2211  0.0519
  237SOL     OW  945   1.944   1.077   2.180 -0.2179 -0.4850 -0.8546
  237SOL    HW1  946   1.860   1.089   2.142 -0.7133  1.0454  0.9629
  237SOL    HW2  947   1.987   0.992   2.150 -1.1032  0.5587 -1.7904
  237SOL     MW  948   1.939   1.067   2.171 -0.4001 -0.1454 -0.7383
  238SOL     OW  949   1.101   1.786   2.963 -0.1643 -0.3784  0.0864
  238SOL    HW1  950   1.026   1.726   2.958 -1.1484  2.3564 -0.1962
  238SOL    HW2  951   1.181   1.742   2.926  0.9721 -2.9101  1.2659
  238SOL     MW  952   1.102   1.772   2.958 -0.1442 -0.3516  0.2047
  239SOL     OW  953   1.194   1.324   2.284 -0.1654 -0.4772 -0.4327
  239SOL    HW1  954   1.111   1.350   2.245 -0.1648 -3.2053 -0.2889
  239SOL    HW2  955   1.181   1.253   2.355 -0.5597 -2.3319 -1.4937
  239SOL     MW  956   1.181   1.318   2.288 -0.2174 -1.0819 -0.5537
  240SOL     OW  957   0.606   0.906   2.245 -0.1430 -0.1906 -0.2678
  240SOL    HW1  958   0.651   0.922   2.339  1.1213  1.0145  0.8163
  240SOL    HW2  959   0.674   0.908   2.177 -0.7319 -1.4481  0.7034
  240SOL     MW  960   0.621   0.908   2.248 -0.0539 -0.1975  0.0034
  241SOL     OW  961   0.674   0.470   3.074  0.0567  0.6861 -0.2990
  241SOL    HW1  962   0.707   0.547   3.131  0.4595  0.4813 -0.0813
  241SOL    HW2  963   0.602   0.497   3.020  1.5021  1.5148  1.9071
  241SOL     MW  964   0.669   0.484   3.075  0.3006  0.7684  0.0208
  242SOL     OW  965   1.511   1.718   2.263  0.0585 -0.6160  0.0929
  242SOL    HW1  966   1.457   1.800   2.270  1.4325 -1.8593 -2.3077
  242SOL    HW2  967   1.458   1.642   2.239  0.5222  1.3029  1.1688
  242SOL     MW  968   1.497   1.719   2.261  0.3009 -0.5268 -0.0819
  243SOL     OW  969   0.988   0.258   2.373  0.0908  0.5554 -0.7863
  243SOL    HW1  970   1.071   0.225   2.326  1.6021  4.3324  1.6167
  243SOL    HW2  971   1.017   0.289   2.459  0.2657 -0.2915  2.3273
  243SOL     MW  972   1.003   0.258   2.378  0.3133  0.9420 -0.0584
  244SOL     OW  973   0.130   0.804   2.359 -0.0275 -0.0427  0.3947
  244SOL    HW1  974   0.093   0.892   2.386  1.4799 -1.0276 -0.9012
  244SOL    HW2  975   0.224   0.802   2.355 -0.8335 -0.4649 -0.1604
  244SOL     MW  976   0.138   0.816   2.362  0.0651 -0.2284  0.1505
  245SOL     OW  977   1.255   0.196   2.296 -0.3693 -0.0079  0.2817
  245SOL    HW1  978   1.261   0.103   2.289 -1.0451  0.2140 -1.6181
  245SOL    HW2  979   1.269   0.223   2.384  0.4633  0.4111  0.4924
  245SOL     MW  980   1.258   0.188   2.307 -0.3486  0.0767  0.0589
  246SOL     OW  981   1.196   1.133   2.063  0.2589 -0.1820 -0.1174
  246SOL    HW1  982   1.141   1.163   2.140  1.7414  0.3267 -1.1343
  246SOL    HW2  983   1.289   1.145   2.104  0.4728  0.9457 -0.3834
  246SOL     MW  984   1.201   1.139   2.078  0.4827  0.0339 -0.2866
  247SOL     OW  985   0.766   0.642   0.161  0.0538 -0.3057 -0.6007
  247SOL    HW1  986   0.722   0.726   0.164 -3.1508 -0.4357  2.2516
  247SOL    HW2  987   0.861   0.647   0.127 -0.1935  2.5260 -1.2015
  247SOL     MW  988   0.773   0.654   0.157 -0.4017  0.0508 -0.3036
  248SOL     OW  989   0.345   1.292   2.557 -0.3107 -0.2898 -0.6696
  248SOL    HW1  990   0.324   1.337   2.475  3.6757  0.8672  1.5894
  248SOL    HW2  991   0.355   1.359   2.619 -0.1275 -0.3465 -1.1093
  248SOL     MW  992   0.343   1.306   2.554  0.2395 -0.1446 -0.4296
  249SOL     OW  993   3.046   1.904   2.832 -0.7970 -0.0045  0.6233
  249SOL    HW1  994   2.968   1.854   2.813 -1.0903 -0.8072  0.6424
  249SOL    HW2  995   3.108   1.838   2.854 -1.3188 -0.2394 -2.2839
  249SOL     MW  996   3.044   1.889   2.832 -0.9046 -0.1414  0.2422
  250SOL     OW  997   2.147   0.869   2.217  0.1777 -1.0358 -0.3322
  250SOL    HW1  998   2.107   0.783   2.248 -2.3215  3.0410  0.7558
  250SOL    HW2  999   2.188   0.897   2.301  0.4229 -3.0987 -0.0393
  250SOL     MW 1000   2.147   0.862   2.232 -0.1197 -0.7701 -0.1500
  251SOL     OW 1001   0.161   0.911   2.015 -0.5472 -0.2906 -0.0396
  251SOL    HW1 1002   0.121   0.832   2.040  1.4772 -0.2703  3.1928
  251SOL    HW2 1003   0.167   0.908   1.921 -1.5870  1.8421  0.4572
  251SOL     MW 1004   0.157   0.900   2.006 -0.4173 -0.0065  0.4524
  252SOL     OW 1005   1.660   1.015   2.835 -0.4475 -0.3887 -0.4366
  252SOL    HW1 1006   1.688   1.061   2.916  2.8285  1.3757 -1.4243
  252SOL    HW2 1007   1.736   1.013   2.781  0.1061 -2.4891 -0.6222
  252SOL     MW 1008   1.674   1.021   2.838  0.0577 -0.4331 -0.5914
  253SOL     OW 1009   1.124   1.707   2.428  0.3452  0.0447  0.0596
  253SOL    HW1 1010   1.113   1.693   2.324 -2.9971 -2.5023 -2.8259
  253SOL    HW2 1011   1.041   1.747   2.458  3.0932 -0.9178  3.5254
  253SOL     MW 1012   1.112   1.710   2.418  0.2668 -0.4183  0.1362
  254SOL     OW 1013   0.948   1.135   2.250 -0.0660 -0.1884 -0.4183
  254SOL    HW1 1014   0.945   1.043   2.244  0.5052  2.0275 -0.7707
  254SOL    HW2 1015   0.892   1.165   2.321 -0.5296  0.5469  0.2045
  254SOL     MW 1016   0.941   1.127   2.259 -0.0518  0.2009 -0.3826
  255SOL     OW 1017   0.887   2.545   2.144  0.6280  0.7915  0.5412
  255SOL    HW1 1018   0.789   2.522   2.143 -3.9946 -0.0008 -0.1726
  255SOL    HW2 1019   0.939   2.467   2.164 -2.8419  0.9885 -0.7886
  255SOL     MW 1020   0.881   2.532   2.147 -0.4397  0.7130  0.2716
  256SOL     OW 1021   1.210   2.749   2.974 -0.4430  0.3186  0.5331
  256SOL    HW1 1022   1.155   2.683   2.930  0.3564  0.1779  2.0749
  256SOL    HW2 1023   1.303   2.736   2.945  1.6872  0.7346 -0.1173
  256SOL     MW 1024   1.215   2.739   2.964 -0.0564  0.3549  0.6507
  257SOL     OW 1025   0.036   1.908   0.020  0.0233 -0.2451  1.1150
  257SOL    HW1 1026   0.080   1.888   0.103  0.4015  0.6879 -2.5228
  257SOL    HW2 1027   0.087   1.852  -0.037 -0.4648  1.6952 -0.9163
  257SOL     MW 1028   0.048   1.898   0.023  0.0088  0.1340  0.3670
  258SOL     OW 1029   0.702   0.987   2.472 -0.2885 -0.3536 -0.7027
  258SOL    HW1 1030   0.713   1.079   2.466 -0.3259 -1.2330  0.3252
  258SOL    HW2 1031   0.637   0.985   2.538  2.2428 -5.0754 -1.8293
  258SOL     MW 1032   0.695   0.999   2.480  0.0405 -1.0926 -0.7157
  259SOL     OW 1033   0.815   0.493   2.278 -0.3178  0.0441  0.2314
  259SOL    HW1 1034   0.734   0.456   2.243 -1.1842 -0.8192  0.8426
  259SOL    HW2 1035   0.872   0.418   2.298  0.4099  1.7878 -0.5786
  259SOL     MW 1036   0.812   0.478   2.276 -0.3361  0.1603  0.2052
  260SOL     OW 1037   0.639   0.109   1.592 -0.4624 -0.4116 -0.7668
  260SOL    HW1 1038   0.605   0.185   1.535 -0.3647 -1.0061  0.0391
  260SOL    HW2 1039   0.730   0.092   1.565 -0.5571 -0.5458  0.1309
  260SOL     MW 1040   0.647   0.117   1.581 -0.4620 -0.5078 -0.5420
  261SOL     OW 1041   1.114   0.672   1.970 -0.1386  0.0259 -0.4464
  261SOL    HW1 1042   1.142   0.672   2.059  1.0561 -2.9110  1.6026
  261SOL    HW2 1043   1.034   0.610   1.964 -0.1291  0.9229  0.2720
  261SOL     MW 1044   1.107   0.664   1.981  0.0203 -0.2433 -0.0813
  262SOL     OW 1045   1.109   0.330   0.193  0.8937 -0.1563  0.4943
  262SOL    HW1 1046   1.193   0.341   0.138 -0.2041  0.3409  1.5223
  262SOL    HW2 1047   1.064   0.260   0.138  1.0116  0.6889  0.2502
  262SOL     MW 1048   1.114   0.323   0.178  0.7644  0.0208  0.5977
  263SOL     OW 1049   0.358   0.030   2.461  0.3667 -0.4313 -0.1995
  263SOL    HW1 1050   0.285   0.098   2.464  0.9954  1.5940  0.5064
  263SOL    HW2 1051   0.422   0.069   2.402 -0.7719 -1.4883 -3.1809
  263SOL     MW 1052   0.357   0.045   2.454  0.2994 -0.3036 -0.4997
  264SOL     OW 1053   1.541   1.350   1.931 -0.7130  0.1911  0.7446
  264SOL    HW1 1054   1.510   1.262   1.904 -1.4652  0.0025  1.3243
  264SOL    HW2 1055   1.636   1.341   1.955  2.2543  1.0461 -1.9191
  264SOL     MW 1056   1.549   1.337   1.930 -0.4208  0.2790  0.4696
  265SOL     OW 1057   0.736   2.769   2.306 -0.5944 -0.2468 -0.0286
  265SOL    HW1 1058   0.793   2.706   2.259  0.2581  1.2447 -0.5221
  265SOL    HW2 1059   0.745   2.767   2.404 -0.5485 -0.9557  0.1536
  265SOL     MW 1060   0.745   2.760   2.313 -0.4758 -0.1436 -0.0697
  266SOL     OW 1061   0.895   0.845   2.154 -0.7091  0.3351 -0.5312
  266SOL    HW1 1062   0.910   0.805   2.067  3.2436  1.2341 -0.4600
  266SOL    HW2 1063   0.982   0.838   2.195  0.7169  1.9195  3.2753
  266SOL     MW 1064   0.909   0.839   2.148  0.0006  0.6628 -0.0196
  267SOL     OW 1065   1.325   1.754   2.637 -0.0729 -0.3784  0.0594
  267SOL    HW1 1066   1.404   1.713   2.600 -2.1546 -2.2448  2.5829
  267SOL    HW2 1067   1.250   1.728   2.581  0.0348  0.0337 -3.4769
  267SOL     MW 1068   1.326   1.745   2.624 -0.3333 -0.5703 -0.0742
  268SOL     OW 1069   0.131   0.929   1.720 -0.3295  0.3479  0.9496
  268SOL    HW1 1070   0.095   1.018   1.692  1.1264 -2.0478 -1.3016
  268SOL    HW2 1071   0.104   0.864   1.656 -1.8994 -1.7552 -0.2757
  268SOL     MW 1072   0.122   0.932   1.708 -0.3446 -0.2457  0.4909
  269SOL     OW 1073   1.354   1.956   2.286 -0.1776 -0.2531  0.1969
  269SOL    HW1 1074   1.379   2.030   2.334 -0.4279  0.6293  0.9532
  269SOL    HW2 1075   1.260   1.955   2.300 -2.1683  2.1609 -0.1944
  269SOL     MW 1076   1.345   1.965   2.294 -0.4733  0.1818  0.2451
  270SOL     OW 1077   1.132   0.400   1.584  0.2197  0.2050 -0.1147
  270SOL    HW1 1078   1.094   0.310   1.617 -1.2814 -0.6541  0.8107
  270SOL    HW2 1079   1.224   0.380   1.561  0.2607  0.8558  1.4645
  270SOL     MW 1080   1.139   0.385   1.585  0.0270  0.1775  0.2158
  271SOL     OW 1081   0.814   0.072   2.443  0.2732 -0.0772  0.3908
  271SOL    HW1 1082   0.876   0.004   2.469  2.8660  2.2635  1.9060
  271SOL    HW2 1083   0.882   0.136   2.407  3.5562  0.3277 -2.1743
  271SOL     MW 1084   0.831   0.072   2.442  1.0485  0.2850  0.2523
  272SOL     OW 1085   1.455   2.829   2.855  0.1540 -0.1900 -0.7121
  272SOL    HW1 1086   1.441   2.800   2.767  2.0737  1.7834  0.5296
  272SOL    HW2 1087   1.473   2.927   2.847 -1.2498 -0.4599 -1.1322
  272SOL     MW 1088   1.455   2.838   2.842  0.2221  0.0348 -0.6037
  273SOL     OW 1089   1.425   0.870   2.749 -0.0498 -0.8329 -0.1586
  273SOL    HW1 1090   1.504   0.922   2.768  3.1311 -0.2034 -2.0778
  273SOL    HW2 1091   1.357   0.924   2.706 -1.4067 -5.3248 -0.3693
  273SOL     MW 1092   1.426   0.884   2.746  0.1909 -1.3425 -0.4396
  274SOL     OW 1093   1.417   0.752   0.181  0.1383 -0.8499  0.3469
  274SOL    HW1 1094   1.461   0.673   0.217  1.6327 -0.9923  1.2841
  274SOL    HW2 1095   1.340   0.771   0.237  1.8907 -2.1358  0.0218
  274SOL     MW 1096   1.412   0.744   0.193  0.5667 -1.0383  0.4276
  275SOL     OW 1097   1.745   0.516   1.791  0.6981  0.0812  0.1533
  275SOL    HW1 1098   1.813   0.562   1.843 -0.3273  0.1440 -0.7305
  275SOL    HW2 1099   1.756   0.422   1.795  0.8038 -1.5452  1.5144
  275SOL     MW 1100   1.756   0.510   1.799  0.5768 -0.1251  0.2163
  276SOL     OW 1101   0.467   1.257   1.915  0.8931 -0.4093  0.2081
  276SOL    HW1 1102   0.482   1.163   1.937  2.0335  2.3927  0.4399
  276SOL    HW2 1103   0.387   1.281   1.969  0.7352  2.9717 -0.0723
  276SOL     MW 1104   0.459   1.248   1.925  1.0227  0.4064  0.2017
  277SOL     OW 1105   1.965   1.081   2.459  0.1613 -0.6025  0.0049
  277SOL    HW1 1106   2.000   1.168   2.451 -1.2890  0.1896 -0.5882
  277SOL    HW2 1107   1.929   1.074   2.370  1.3928 -0.3997  0.1477
  277SOL     MW 1108   1.965   1.091   2.446  0.1324 -0.4712 -0.0545
  278SOL     OW 1109   1.383   0.677   1.760  0.6898  0.0385  0.0056
  278SOL    HW1 1110   1.345   0.619   1.829  1.1678 -2.7245  2.5328
  278SOL    HW2 1111   1.480   0.675   1.778  1.2894  0.3948  1.2950
  278SOL     MW 1112   1.391   0.669   1.772  0.8320 -0.2791  0.5092
  279SOL     OW 1113   0.540   0.103   2.283 -0.4649  0.4441  0.5616
  279SOL    HW1 1114   0.597   0.029   2.267 -2.3894 -1.1740 -0.6012
  279SOL    HW2 1115   0.588   0.176   2.247  0.5180 -2.2282 -1.5681
  279SOL     MW 1116   0.554   0.103   2.276 -0.5891 -0.1220  0.1272
  280SOL     OW 1117   1.460   1.106   2.149  0.2049  0.2577 -0.2065
  280SOL    HW1 1118   1.500   1.024   2.116 -0.3551  1.2521  1.0018
  280SOL    HW2 1119   1.452   1.075   2.244  0.8750 -0.9662  2.0422
  280SOL     MW 1120   1.465   1.091   2.157  0.2194  0.2274  0.2496
  281SOL     OW 1121   1.381   1.149   2.696 -0.7058 -0.0853 -0.1895
  281SOL    HW1 1122   1.436   1.225   2.680 -1.2953  1.7339 -3.1569
  281SOL    HW2 1123   1.369   1.141   2.792 -1.6644 -1.3808 -1.5292
  281SOL     MW 1124   1.387   1.158   2.706 -0.9101 -0.0162 -0.7578
  282SOL     OW 1125   1.165   1.274   1.620  0.1242 -0.4492 -0.1222
  282SOL    HW1 1126   1.170   1.372   1.607  0.2775 -2.0847  1.4187
  282SOL    HW2 1127   1.087   1.266   1.675  0.0990  2.5027  0.2675
  282SOL     MW 1128   1.156   1.286   1.626  0.1411 -0.2755  0.1325
  283SOL     OW 1129   0.876   1.315   0.008  0.3234  0.5411 -0.3694
  283SOL    HW1 1130   0.975   1.332   0.009  3.0231 -3.1937  1.4913
  283SOL    HW2 1131   0.834   1.385  -0.035  1.3851  3.5872  1.7211
  283SOL     MW 1132   0.884   1.326   0.003  0.8197  0.4503  0.1519
  284SOL     OW 1133   0.418   0.727   2.361  0.2074 -0.1105 -0.4185
  284SOL    HW1 1134   0.488   0.782   2.321 -2.2794  1.0648 -1.2536
  284SOL    HW2 1135   0.397   0.668   2.288 -2.1278 -1.3691  1.4675
  284SOL     MW 1136   0.425   0.727   2.346 -0.4288 -0.1215 -0.2798
  285SOL     OW 1137   0.875   0.888   2.822 -0.0959  0.7814  0.6486
  285SOL    HW1 1138   0.910   0.932   2.742 -1.3823  0.3024  1.1780
  285SOL    HW2 1139   0.811   0.834   2.782 -1.3316  1.3909  0.2336
  285SOL     MW 1140   0.871   0.887   2.806 -0.4287  0.7986  0.6637
  286SOL     OW 1141   1.123   1.486   2.620 -0.1698 -0.1573  0.1077
  286SOL    HW1 1142   1.185   1.417   2.608 -2.9576 -0.4464  1.2402
  286SOL    HW2 1143   1.112   1.521   2.527 -1.0610 -0.4959 -3.1817
  286SOL     MW 1144   1.130   1.482   2.607 -0.6552 -0.2401 -0.1769
  287SOL     OW 1145   1.204   1.011   0.321 -0.2747  0.4978  0.2692
  287SOL    HW1 1146   1.176   1.077   0.379 -0.2331  1.9100  2.7112
  287SOL    HW2 1147   1.151   1.031   0.247 -1.0357  1.6437 -0.6103
  287SOL     MW 1148   1.194   1.022   0.319 -0.3696  0.8353  0.4754
  288SOL     OW 1149   1.464   0.600   2.076  0.4801  0.2065  0.0190
  288SOL    HW1 1150   1.410   0.610   2.166 -0.0900 -0.4940 -0.6192
  288SOL    HW2 1151   1.490   0.688   2.072 -3.0422  2.6548  0.7887
  288SOL     MW 1152   1.461   0.613   2.088 -0.0599  0.4371  0.0363
  289SOL     OW 1153   0.968   1.008   2.586 -0.8809 -0.2062 -0.0532
  289SOL    HW1 1154   1.000   0.911   2.577 -0.7904 -1.3975  0.2197
  289SOL    HW2 1155   0.887   1.002   2.542  0.3449  0.0317 -2.9900
  289SOL     MW 1156   0.961   0.994   2.579 -0.7072 -0.3319 -0.4047
  290SOL     OW 1157   0.794   0.604   1.487 -0.1638  0.4717 -0.2000
  290SOL    HW1 1158   0.839   0.579   1.407  0.9539  2.6686 -0.1528
  290SOL    HW2 1159   0.863   0.610   1.553  1.0016 -1.1224 -2.1920
  290SOL     MW 1160   0.809   0.601   1.485  0.1374  0.5513 -0.4566
  291SOL     OW 1161   0.184   0.383   0.136 -0.4309 -0.1258  0.2458
  291SOL    HW1 1162   0.275   0.366   0.173  0.6074 -2.4669  2.5756
  291SOL    HW2 1163   0.150   0.299   0.108 -0.0705  0.3531 -0.4632
  291SOL     MW 1164   0.192   0.369   0.137 -0.2464 -0.3715  0.4596
  292SOL     OW 1165   1.040   0.597   0.135  0.2030 -0.0595  0.0172
  292SOL    HW1 1166   1.081   0.659   0.201  3.7554 -0.0961  1.3732
  292SOL    HW2 1167   1.057   0.512   0.174 -2.4109  1.1100 -1.5893
  292SOL     MW 1168   1.048   0.594   0.149  0.3268  0.0900 -0.0158
  293SOL     OW 1169   0.122   0.180   2.504  0.0164 -0.0442 -0.1223
  293SOL    HW1 1170   0.063   0.121   2.452  0.1645 -0.8372 -0.6991
  293SOL    HW2 1171   0.072   0.197   2.582  0.6908  1.1243  1.4752
  293SOL     MW 1172   0.107   0.175   2.508  0.1249  0.0054  0.0124
  294SOL     OW 1173   1.345   0.554   2.307 -0.7282 -0.8132  0.2061
  294SOL    HW1 1174   1.412   0.586   2.371 -0.7606 -2.7163 -0.0083
  294SOL    HW2 1175   1.349   0.462   2.300 -0.5139 -0.6799 -0.5661
  294SOL     MW 1176   1.354   0.546   2.315 -0.7042 -1.0467  0.0759
  295SOL     OW 1177   0.889   0.531   2.543 -1.0785  0.1681 -0.5999
  295SOL    HW1 1178   0.842   0.547   2.463  2.4572  0.1945 -1.5286
  295SOL    HW2 1179   0.854   0.590   2.613 -0.6758 -1.9622 -0.9219
  295SOL     MW 1180   0.878   0.541   2.542 -0.5589 -0.1095 -0.7649
  296SOL     OW 1181   1.214   0.231   2.027  0.2795 -0.2067  0.2916
  296SOL    HW1 1182   1.305   0.205   2.003 -1.6205 -0.8347 -0.6332
  296SOL    HW2 1183   1.219   0.241   2.120  1.3147  1.5459 -0.2123
  296SOL     MW 1184   1.227   0.229   2.036  0.1654 -0.0583  0.1031
  297SOL     OW 1185   1.392   0.373   1.531 -0.2649 -0.0024 -0.4289
  297SOL    HW1 1186   1.410   0.451   1.590 -1.5792 -1.7584  1.0647
  297SOL    HW2 1187   1.447   0.308   1.573  0.5762  2.1045 -0.4405
  297SOL     MW 1188   1.402   0.375   1.545 -0.3274  0.0439 -0.2334
  298SOL     OW 1189   1.607   0.879   2.076 -0.3448  0.9245  0.0336
  298SOL    HW1 1190   1.670   0.929   2.020 -0.8300  0.9090 -0.9701
  298SOL    HW2 1191   1.659   0.840   2.144  0.8297 -0.5820 -2.3663
  298SOL     MW 1192   1.622   0.881   2.078 -0.2538  0.7237 -0.4155
  299SOL     OW 1193   0.579   1.128   0.040 -0.2639  0.2297  0.6233
  299SOL    HW1 1194   0.567   1.124  -0.062 -2.5128 -0.9633  2.6733
  299SOL    HW2 1195   0.637   1.200   0.055 -0.5891 -0.3763  0.7438
  299SOL     MW 1196   0.585   1.137   0.029 -0.6035 -0.0076  0.9096
  300SOL     OW 1197   1.194   1.136   2.497 -0.0474  0.2244  0.8998
  300SOL    HW1 1198   1.108   1.118   2.528 -0.0127  3.1107  0.4244
  300SOL    HW2 1199   1.254   1.137   2.572 -0.1527 -2.2262  0.9602
  300SOL     MW 1200   1.191   1.134   2.511 -0.0567  0.2819  0.8450
  301SOL     OW 1201   1.427   0.980   0.697 -0.4209  0.4151  0.6579
  301SOL    HW1 1202   1.471   1.005   0.777 -0.1650 -0.4465  0.5357
  301SOL    HW2 1203   1.370   0.913   0.725 -0.5451  0.2550  0.8196
  301SOL     MW 1204   1.425   0.974   0.711 -0.4035  0.2803  0.6631
  302SOL     OW 1205   0.215   1.532   2.044 -0.0852 -0.1954  0.1833
  302SOL    HW1 1206   0.205   1.438   2.027 -1.9134  0.2372  0.4912
  302SOL    HW2 1207   0.133   1.580   2.046  0.8180  1.4418 -2.6816
  302SOL     MW 1208   0.203   1.526   2.042 -0.2072  0.0777 -0.1541
  303SOL     OW 1209   0.314   1.791   2.664 -0.4679 -0.1346 -0.7357
  303SOL    HW1 1210   0.269   1.795   2.577 -1.2950  0.5657 -2.7474
  303SOL    HW2 1211   0.245   1.790   2.726 -0.1548  2.4042  1.3551
  303SOL     MW 1212   0.299   1.791   2.661 -0.5357  0.2928 -0.7253
  304SOL     OW 1213   0.490   2.044   2.338  0.4212 -0.6054  0.1424
  304SOL    HW1 1214   0.561   2.111   2.316 -0.3313 -1.1109 -1.4177
  304SOL    HW2 1215   0.529   1.957   2.365 -1.2231  1.1204  3.1400
  304SOL     MW 1216   0.504   2.041   2.339  0.1050 -0.4444  0.3321
  305SOL     OW 1217   1.098   0.670   0.570  0.0670  0.3600  0.0574
  305SOL    HW1 1218   1.012   0.635   0.536 -1.0258 -0.9433 -2.4338
  305SOL    HW2 1219   1.150   0.586   0.558  0.4517 -0.8519 -0.5389
  305SOL     MW 1220   1.094   0.655   0.564 -0.0264  0.0281 -0.3499
  306SOL     OW 1221   1.135   1.553   0.209 -0.2138  0.2013 -0.2423
  306SOL    HW1 1222   1.161   1.461   0.235  1.3394 -1.6617 -0.0321
  306SOL    HW2 1223   1.192   1.561   0.134 -2.3396  1.1670 -0.2293
  306SOL     MW 1224   1.146   1.542   0.202 -0.2893  0.0829 -0.2128
  307SOL     OW 1225   1.330   0.435   1.893  0.0306 -0.2507  0.1053
  307SOL    HW1 1226   1.273   0.364   1.929 -0.9371 -2.6386 -0.9923
  307SOL    HW2 1227   1.376   0.469   1.970 -0.2760 -0.4112  1.2394
  307SOL     MW 1228   1.329   0.430   1.908 -0.1375 -0.5870  0.1101
  308SOL     OW 1229   2.227   0.496   2.673  0.0737  0.3115 -0.1874
  308SOL    HW1 1230   2.314   0.527   2.693 -0.6886 -2.4177  0.5200
  308SOL    HW2 1231   2.171   0.578   2.677  1.7984 -0.2410  0.6899
  308SOL     MW 1232   2.231   0.511   2.677  0.2007 -0.1215  0.0217
  309SOL     OW 1233   0.476   0.546   0.230  0.1297  0.1991 -0.0571
  309SOL    HW1 1234   0.510   0.600   0.162  0.4088 -0.1856  0.6255
  309SOL    HW2 1235   0.507   0.460   0.206  0.7504  1.4075 -0.3286
  309SOL     MW 1236   0.484   0.541   0.218  0.2484  0.3078 -0.0029
  310SOL     OW 1237   0.489   0.631   1.919 -0.0884  0.9790  0.1371
  310SOL    HW1 1238   0.519   0.559   1.864  1.3639 -2.4065 -2.6011
  310SOL    HW2 1239   0.521   0.713   1.882 -0.0490 -0.6092  1.3531
  310SOL     MW 1240   0.497   0.633   1.907  0.1084  0.3228 -0.0637
  311SOL     OW 1241   1.942   0.653   1.917  0.2103 -0.2252  0.3012
  311SOL    HW1 1242   1.906   0.700   1.992  1.8908  3.4384 -3.1090
  311SOL    HW2 1243   1.986   0.574   1.960  2.2710 -1.6013 -1.4446
  311SOL     MW 1244   1.943   0.649   1.933  0.7039  0.0766 -0.3791
  312SOL     OW 1245   1.800   2.454   0.166 -0.0948 -0.3217 -0.2079
  312SOL    HW1 1246   1.821   2.424   0.256 -0.2617 -0.9763 -0.3126
  312SOL    HW2 1247   1.731   2.514   0.188  0.9779 -0.7193  0.4960
  312SOL     MW 1248   1.794   2.458   0.181  0.0247 -0.4605 -0.1288
  313SOL     OW 1249   0.131   1.148   3.029  0.7929  0.3173 -0.1736
  313SOL    HW1 1250   0.126   1.154   3.122  3.4761  1.9684 -0.5210
  313SOL    HW2 1251   0.181   1.218   2.999 -2.3464 -0.3961  1.8368
  313SOL     MW 1252   0.137   1.158   3.038  0.7327  0.4411  0.0458
  314SOL     OW 1253   2.171   2.965   3.040 -0.4066  0.3000  0.7229
  314SOL    HW1 1254   2.101   2.996   2.978  2.1079 -2.8554  3.8171
  314SOL    HW2 1255   2.195   3.045   3.083  0.8538 -0.9141 -0.6280
  314SOL     MW 1256   2.165   2.980   3.038  0.0914 -0.2765  0.9529
  315SOL     OW 1257   1.544   1.827   2.976  0.0920 -0.2010  0.2692
  315SOL    HW1 1258   1.524   1.867   3.065 -0.6926 -0.5038 -3.0346
  315SOL    HW2 1259   1.568   1.907   2.920 -1.3861 -1.6160 -0.5884
  315SOL     MW 1260   1.544   1.842   2.980 -0.2065 -0.4277 -0.2798
  316SOL     OW 1261   1.248   0.563   2.717  0.1671  0.0510  0.2652
  316SOL    HW1 1262   1.343   0.538   2.728 -0.1855 -1.3155 -1.6077
  316SOL    HW2 1263   1.210   0.573   2.805 -0.2811  1.1688  0.0578
  316SOL     MW 1264   1.255   0.561   2.730  0.0614  0.0182 -0.0093
  317SOL     OW 1265   0.703   1.571   2.635  0.0685  0.6293  0.2291
  317SOL    HW1 1266   0.734   1.488   2.670 -2.0869  0.9418  2.8250
  317SOL    HW2 1267   0.684   1.554   2.544 -0.5912  1.1223  2.5829
  317SOL     MW 1268   0.705   1.557   2.628 -0.3030  0.7356  0.8822
  318SOL     OW 1269   1.356   0.356   2.958  0.0772  0.0164 -0.5148
  318SOL    HW1 1270   1.270   0.400   2.958 -2.7783  0.6159  1.7574
  318SOL    HW2 1271   1.411   0.417   2.911  0.8109 -3.0068  1.6949
  318SOL     MW 1272   1.352   0.370   2.952 -0.2027 -0.3034  0.0765
  319SOL     OW 1273   0.858   0.355   2.931  0.4291  0.1942 -0.1563
  319SOL    HW1 1274   0.827   0.319   2.848 -4.4679 -0.6015 -1.0655
  319SOL    HW2 1275   0.775   0.381   2.983 -3.1309 -0.0403 -1.2852
  319SOL     MW 1276   0.843   0.354   2.927 -0.6867  0.0583 -0.4252
  320SOL     OW 1277   1.076   1.388   1.995 -0.0545  0.4643 -0.4772
  320SOL    HW1 1278   1.131   1.312   2.023 -0.4989  0.0491  0.0184
  320SOL    HW2 1279   1.122   1.445   1.935 -0.6706 -1.0784  0.8286
  320SOL     MW 1280   1.089   1.385   1.991 -0.1944  0.2060 -0.2395
  321SOL     OW 1281   1.117   0.912   2.992  0.4443 -0.3244  0.2758
  321SOL    HW1 1282   1.038   0.877   2.942  0.9947  3.1829  1.0906
  321SOL    HW2 1283   1.188   0.842   2.998  1.6636 -0.5864 -0.2058
  321SOL     MW 1284   1.116   0.898   2.986  0.6778  0.1038  0.3198
  322SOL     OW 1285   1.193   0.830   1.657  0.4874 -0.3447 -0.2986
  322SOL    HW1 1286   1.259   0.760   1.680  1.5618  0.8481 -1.5002
  322SOL    HW2 1287   1.164   0.877   1.743 -2.5903  4.0131 -0.4538
  322SOL     MW 1288   1.198   0.827   1.672  0.2231  0.3877 -0.4776
  323SOL     OW 1289   1.243   1.627   1.894  0.0846  0.4540 -0.3072
  323SOL    HW1 1290   1.267   1.610   1.802  2.0920 -0.7153 -0.0108
  323SOL    HW2 1291   1.169   1.685   1.886 -1.2806 -3.9990  0.3403
  323SOL     MW 1292   1.236   1.632   1.881  0.1694 -0.2878 -0.1826
  324SOL     OW 1293   1.499   1.005   2.411 -0.2546 -0.1509  0.0053
  324SOL    HW1 1294   1.421   1.031   2.465 -1.3867 -1.9087  2.2343
  324SOL    HW2 1295   1.580   1.046   2.438  1.9073 -0.5709 -1.9762
  324SOL     MW 1296   1.500   1.014   2.422 -0.1188 -0.4382  0.0379
  325SOL     OW 1297   1.105   0.496   2.970  0.2135  0.1854  0.2058
  325SOL    HW1 1298   1.094   0.543   3.057 -0.7253  1.5139  0.2290
  325SOL    HW2 1299   1.021   0.453   2.960  1.6588  1.3978  1.3250
  325SOL     MW 1300   1.093   0.496   2.980  0.2803  0.5207  0.3565
  326SOL     OW 1301   0.340   1.373   2.279 -0.5170 -0.0434 -0.0487
  326SOL    HW1 1302   0.436   1.340   2.264  2.4531 -1.1274 -1.5881
  326SOL    HW2 1303   0.328   1.461   2.246  1.3046 -2.1316  0.2061
  326SOL     MW 1304   0.351   1.380   2.273  0.1152 -0.4619 -0.2182
  327SOL     OW 1305   1.930   0.785   2.456  0.4703  0.4195 -0.2553
  327SOL    HW1 1306   1.899   0.751   2.545 -0.0440 -0.6078 -1.4159
  327SOL    HW2 1307   1.953   0.872   2.476  0.8577 -0.8749  2.4904
  327SOL     MW 1308   1.929   0.792   2.470  0.4536  0.1132 -0.0462
  328SOL     OW 1309   0.235   1.271   2.061  0.4824  0.1202 -0.6822
  328SOL    HW1 1310   0.167   1.206   2.079 -0.4115 -0.2623 -0.1102
  328SOL    HW2 1311   0.253   1.311   2.148  0.6213 -1.2595  1.8356
  328SOL     MW 1312   0.228   1.268   2.075  0.3828 -0.1123 -0.2746
  329SOL     OW 1313   0.072   0.172   1.353  0.7947 -0.0648 -0.1648
  329SOL    HW1 1314   0.071   0.116   1.426 -0.9081  0.6414 -1.1919
  329SOL    HW2 1315   0.161   0.190   1.316 -0.0755  1.3080 -2.6450
  329SOL     MW 1316   0.084   0.167   1.358  0.4552  0.2095 -0.6276
  330SOL     OW 1317   0.392   3.082   2.035  0.0469  0.1920 -0.1851
  330SOL    HW1 1318   0.480   3.050   2.041 -0.3574  0.3727  1.4642
  330SOL    HW2 1319   0.377   3.106   2.122  0.6574  1.8041 -2.1951
  330SOL     MW 1320   0.401   3.081   2.047  0.0741  0.4286 -0.2327
  331SOL     OW 1321   0.774   1.242   2.455  0.1422  0.5596  0.2432
  331SOL    HW1 1322   0.700   1.278   2.406 -1.3798 -0.0600  3.7837
  331SOL    HW2 1323   0.783   1.283   2.544  1.3420 -1.5278  0.9955
  331SOL     MW 1324   0.766   1.252   2.461  0.0997  0.2024  0.8096
  332SOL     OW 1325   1.338   1.667   2.895 -0.1196 -0.1521 -0.1578
  332SOL    HW1 1326   1.326   1.677   2.801 -0.2167  0.7179  0.1383
  332SOL    HW2 1327   1.402   1.736   2.920 -0.5685  2.8650 -2.9479
  332SOL     MW 1328   1.345   1.678   2.886 -0.1916  0.3608 -0.4869
  333SOL     OW 1329   1.726   1.409   2.903 -0.4606 -0.2260  0.2446
  333SOL    HW1 1330   1.820   1.374   2.923  2.2999 -0.5804  1.2655
  333SOL    HW2 1331   1.665   1.363   2.965 -0.1808 -1.7942 -0.4386
  333SOL     MW 1332   1.730   1.398   2.913 -0.0595 -0.4797  0.2891
  334SOL     OW 1333   1.270   3.044   2.616 -0.6344 -0.3611  0.7341
  334SOL    HW1 1334   1.204   3.039   2.681 -0.3270  1.7580 -1.2387
  334SOL    HW2 1335   1.328   3.118   2.656  1.2928  1.8030  0.9193
  334SOL     MW 1336   1.269   3.054   2.630 -0.3396  0.2040  0.4982
  335SOL     OW 1337   1.309   0.734   2.988 -0.2055  0.1724 -0.0371
  335SOL    HW1 1338   1.359   0.760   3.071  1.3465  0.9768  2.9152
  335SOL    HW2 1339   1.361   0.787   2.920 -2.5343  0.2368 -1.9205
  335SOL     MW 1340   1.322   0.744   2.990 -0.3080  0.2870  0.1039
  336SOL     OW 1341   0.949   1.193   1.776  0.2129  0.3695 -0.4125
  336SOL    HW1 1342   0.922   1.242   1.851 -0.6984 -2.7547 -3.5047
  336SOL    HW2 1343   0.981   1.108   1.809  3.2708  1.5107  0.2882
  336SOL     MW 1344   0.949   1.188   1.790  0.4961  0.1079 -0.7280
  337SOL     OW 1345   0.590   1.853   2.780 -0.3783  0.5040  0.4706
  337SOL    HW1 1346   0.537   1.827   2.705  1.3593  0.3195  2.0640
  337SOL    HW2 1347   0.677   1.807   2.772 -0.8842  2.4916  0.3426
  337SOL     MW 1348   0.595   1.843   2.769 -0.2158  0.7419  0.6640
  338SOL     OW 1349   1.064   0.744   2.561 -0.8365  0.5439 -0.3978
  338SOL    HW1 1350   1.001   0.674   2.529 -1.4469  2.7971  1.3299
  338SOL    HW2 1351   1.122   0.701   2.615 -2.6079  0.2626 -0.3938
  338SOL     MW 1352   1.063   0.729   2.564 -1.1508  0.8041 -0.1693
  339SOL     OW 1353   1.471   1.105   1.868 -0.5562  0.5828 -0.0819
  339SOL    HW1 1354   1.435   1.099   1.778  0.7385  2.5355 -1.1154
  339SOL    HW2 1355   1.405   1.068   1.925 -0.4422 -0.5945 -0.1890
  339SOL     MW 1356   1.457   1.099   1.864 -0.3704  0.6851 -0.2324
  340SOL     OW 1357   1.360   1.492   0.034 -0.8933  0.0510  0.0478
  340SOL    HW1 1358   1.362   1.545  -0.048  2.3498  2.2073  1.7226
  340SOL    HW2 1359   1.447   1.486   0.062 -0.5457  0.5925  0.9327
  340SOL     MW 1360   1.371   1.498   0.027 -0.4195  0.4069  0.3856
  341SOL     OW 1361   0.038   1.359   2.751 -0.4061  0.2150  0.1288
  341SOL    HW1 1362   0.102   1.291   2.741 -1.5124 -1.6437  0.4833
  341SOL    HW2 1363  -0.020   1.342   2.683 -0.3940  2.2828  1.7528
  341SOL     MW 1364   0.039   1.348   2.741 -0.5505  0.2426  0.3898
  342SOL     OW 1365   1.376   0.344   0.115 -0.1991 -0.6729  0.0431
  342SOL    HW1 1366   1.445   0.410   0.147  0.7060  2.4071 -0.3694
  342SOL    HW2 1367   1.385   0.353   0.021  0.0822  0.2112 -0.0294
  342SOL     MW 1368   1.387   0.354   0.107 -0.0425 -0.1499 -0.0209
  343SOL     OW 1369   0.302   0.297   2.217  0.0037  0.0320 -0.0686
  343SOL    HW1 1370   0.358   0.237   2.258 -1.3650 -0.4401 -0.4285
  343SOL    HW2 1371   0.241   0.254   2.155  0.0471 -0.1706  0.3938
  343SOL     MW 1372   0.301   0.284   2.214 -0.1712 -0.0570 -0.0551
  344SOL     OW 1373   1.706   2.032   0.179  0.5814 -0.3721 -0.2050
  344SOL    HW1 1374   1.755   2.077   0.107  0.0328 -0.9847 -1.3770
  344SOL    HW2 1375   1.612   2.064   0.180  3.0774  0.2656 -0.8371
  344SOL     MW 1376   1.700   2.042   0.169  0.8383 -0.3688 -0.4430
  345SOL     OW 1377   0.681   1.568   2.373  0.0724  0.0423 -0.0335
  345SOL    HW1 1378   0.584   1.589   2.356 -2.2299 -2.1616 -1.6796
  345SOL    HW2 1379   0.722   1.583   2.289  0.3696 -1.5154  0.5122
  345SOL     MW 1380   0.674   1.573   2.359 -0.1921 -0.4540 -0.1787
  346SOL     OW 1381   1.723   1.123   3.091  0.0154 -0.2127 -0.9217
  346SOL    HW1 1382   1.818   1.110   3.097 -2.5250 -1.2743  0.9133
  346SOL    HW2 1383   1.680   1.056   3.149 -1.4615 -1.6600 -1.0996
  346SOL     MW 1384   1.730   1.113   3.100 -0.5146 -0.5437 -0.7031
  347SOL     OW 1385   1.145   0.751   2.269 -0.1675  0.1755 -0.6254
  347SOL    HW1 1386   1.206   0.682   2.293  0.7179 -0.6050 -0.1219
  347SOL    HW2 1387   1.113   0.771   2.357 -0.4545 -0.2000  3.0760
  347SOL     MW 1388   1.149   0.745   2.284 -0.0886  0.0230 -0.0706
  348SOL     OW 1389   1.352   2.549   1.914  0.5081  0.1656 -0.2371
  348SOL    HW1 1390   1.345   2.472   1.973 -1.5832 -0.6685  2.5099
  348SOL    HW2 1391   1.350   2.627   1.973  0.2610 -0.5570 -0.8390
  348SOL     MW 1392   1.351   2.549   1.930  0.1996 -0.0398  0.0459
  349SOL     OW 1393   1.404   0.153   2.741  0.1005  0.4851  0.9301
  349SOL    HW1 1394   1.353   0.187   2.814  0.5806 -1.2343 -0.0451
  349SOL    HW2 1395   1.472   0.097   2.788  0.4709 -0.4405 -1.2622
  349SOL     MW 1396   1.406   0.150   2.756  0.2127  0.1361  0.5122
  350SOL     OW 1397   1.820   0.656   2.679  0.5367 -0.6130 -0.0478
  350SOL    HW1 1398   1.760   0.594   2.622  0.3568  2.0088  0.9876
  350SOL    HW2 1399   1.871   0.594   2.727  1.3787  1.0184 -0.6076
  350SOL     MW 1400   1.819   0.640   2.678  0.6241 -0.0518  0.0149
  351SOL     OW 1401   0.073   1.191   1.642  0.0422 -0.4254  0.0458
  351SOL    HW1 1402  -0.004   1.196   1.699 -2.1556  0.5639 -0.1089
  351SOL    HW2 1403   0.152   1.240   1.682 -0.7686 -1.1304 -1.2587
  351SOL     MW 1404   0.073   1.198   1.654 -0.3548 -0.3879 -0.1467
  352SOL     OW 1405   0.844   1.748   2.799  0.0405  0.3229  0.0317
  352SOL    HW1 1406   0.826   1.672   2.863  0.8638  0.8340 -0.9949
  352SOL    HW2 1407   0.821   1.699   2.715  0.1282 -0.9251 -1.7326
  352SOL     MW 1408   0.838   1.732   2.796  0.1607  0.2257 -0.3365
  353SOL     OW 1409   0.035   2.547   2.751 -0.0545 -0.0436 -0.6394
  353SOL    HW1 1410   0.124   2.520   2.723 -1.0702  0.0837  0.9212
  353SOL    HW2 1411   0.030   2.640   2.737 -1.0560 -0.3725 -1.7919
  353SOL     MW 1412   0.046   2.556   2.746 -0.3207 -0.0702 -0.5855
  354SOL     OW 1413   0.312   2.457   0.833  0.2670  0.4658  0.7785
  354SOL    HW1 1414   0.327   2.443   0.927  0.2721 -0.5022 -2.4270
  354SOL    HW2 1415   0.233   2.404   0.828 -0.4273  1.7046  3.5126
  354SOL     MW 1416   0.303   2.448   0.844  0.1760  0.5015  0.7163
  355SOL     OW 1417   3.075   2.229   0.335 -0.6857 -0.6973 -0.5022
  355SOL    HW1 1418   2.985   2.189   0.320  1.7594 -1.0385 -0.0716
  355SOL    HW2 1419   3.085   2.254   0.428 -2.3490  0.4795  1.0533
  355SOL     MW 1420   3.065   2.227   0.345 -0.5825 -0.5870 -0.2402
  356SOL     OW 1421   0.812   2.763   0.932 -0.0805  0.4968  0.2651
  356SOL    HW1 1422   0.864   2.800   0.859  2.7355 -0.1264  0.0686
  356SOL    HW2 1423   0.716   2.787   0.923  0.1128 -0.6498 -1.4896
  356SOL     MW 1424   0.806   2.771   0.921  0.3165  0.2633  0.0076
  357SOL     OW 1425   1.785   2.820   0.478 -0.1467 -0.4243  0.5677
  357SOL    HW1 1426   1.766   2.763   0.554  0.0513 -0.3771  1.3997
  357SOL    HW2 1427   1.874   2.805   0.447  2.0785  3.2756 -0.7488
  357SOL     MW 1428   1.794   2.811   0.484  0.1730  0.0701  0.5038
  358SOL     OW 1429   0.463   0.155   1.015 -0.8522  0.1610  0.3014
  358SOL    HW1 1430   0.559   0.141   0.995  1.6065  0.6718  0.7423
  358SOL    HW2 1431   0.409   0.176   0.936 -1.5402 -0.9920  0.2107
  358SOL     MW 1432   0.468   0.156   1.002 -0.6186  0.0763  0.3476
  359SOL     OW 1433   0.791   2.917   1.868 -0.7231  1.1773 -0.6045
  359SOL    HW1 1434   0.790   2.822   1.883  2.3121  1.0211 -2.0487
  359SOL    HW2 1435   0.838   2.922   1.786  0.2656  0.9601 -1.1135
  359SOL     MW 1436   0.797   2.905   1.859 -0.1922  1.1280 -0.8622
  360SOL     OW 1437   0.551   2.775   0.876  0.1631 -0.7680 -0.0588
  360SOL    HW1 1438   0.576   2.749   0.786  0.0854 -0.1408  0.0622
  360SOL    HW2 1439   0.528   2.689   0.923  1.8086 -1.9163  0.6311
  360SOL     MW 1440   0.552   2.760   0.870  0.3700 -0.8367  0.0482
  361SOL     OW 1441   0.214   2.612   1.392 -0.1591  0.1035  0.7370
  361SOL    HW1 1442   0.200   2.700   1.428 -0.1967  0.0971  1.9263
  361SOL    HW2 1443   0.303   2.607   1.364 -3.3344  1.1922  1.4381
  361SOL     MW 1444   0.224   2.623   1.393 -0.5830  0.2463  0.9864
  362SOL     OW 1445   1.430   2.379   0.607 -0.4668  0.7223 -0.4447
  362SOL    HW1 1446   1.462   2.308   0.665  0.2594  1.2931 -3.4834
  362SOL    HW2 1447   1.479   2.467   0.619 -1.2276  0.4384 -1.0003
  362SOL     MW 1448   1.440   2.381   0.616 -0.4714  0.7602 -0.9190
  363SOL     OW 1449   0.307   3.080   0.663 -0.0032 -0.1956 -0.8789
  363SOL    HW1 1450   0.307   3.020   0.735  0.2933 -0.1135 -0.9315
  363SOL    HW2 1451   0.221   3.083   0.618 -0.2898  2.7532  1.0648
  363SOL     MW 1452   0.296   3.072   0.666 -0.0019  0.2043 -0.6294
  364SOL     OW 1453   0.762   0.247   0.176  0.8629  0.2311 -0.4080
  364SOL    HW1 1454   0.692   0.181   0.200 -1.1580 -0.1539  1.0126
  364SOL    HW2 1455   0.711   0.309   0.119  0.3530 -1.1580 -0.5368
  364SOL     MW 1456   0.746   0.246   0.171  0.5290 -0.0030 -0.2376
  365SOL     OW 1457   0.969   2.029   1.118  0.1664  0.0786 -0.4477
  365SOL    HW1 1458   0.934   2.112   1.091  1.0819 -3.1379 -0.9206
  365SOL    HW2 1459   0.909   1.971   1.070  2.1091  0.2652  3.1499
  365SOL     MW 1460   0.957   2.032   1.108  0.5435 -0.3211 -0.0355
  366SOL     OW 1461   2.939   2.646   0.938  0.4667  0.2764  0.2601
  366SOL    HW1 1462   3.010   2.628   0.999 -1.6028  2.0357  0.7288
  366SOL    HW2 1463   2.981   2.687   0.856  0.2732  1.0798  0.1084
  366SOL     MW 1464   2.954   2.649   0.935  0.1681  0.6145  0.3019
  367SOL     OW 1465   1.231   2.954   0.892 -0.0767  0.3320  0.7104
  367SOL    HW1 1466   1.261   3.002   0.816  0.3600 -0.7641  3.4600
  367SOL    HW2 1467   1.205   2.870   0.854 -2.3466  0.5403 -1.6625
  367SOL     MW 1468   1.232   2.949   0.877 -0.3186  0.2149  0.7601
  368SOL     OW 1469   1.712   0.377   0.731  0.7383  0.6975 -0.0138
  368SOL    HW1 1470   1.774   0.349   0.669 -3.0984  0.0651  0.1416
  368SOL    HW2 1471   1.724   0.471   0.732  0.8500 -0.2738 -0.4221
  368SOL     MW 1472   1.722   0.386   0.723  0.2469  0.4859 -0.0471
  369SOL     OW 1473   0.116   2.416   1.771  0.0803 -0.0441  0.3512
  369SOL    HW1 1474   0.214   2.405   1.771 -1.9675 -0.0014  0.5246
  369SOL    HW2 1475   0.097   2.510   1.778  2.1057 -0.3856  0.5218
  369SOL     MW 1476   0.127   2.427   1.772  0.0773 -0.0835  0.3966
  370SOL     OW 1477   0.742   0.146   0.954  0.2626 -0.2232  0.4249
  370SOL    HW1 1478   0.746   0.242   0.938 -0.1090  1.1363 -2.2614
  370SOL    HW2 1479   0.831   0.123   0.974 -2.2552  3.9145 -2.4375
  370SOL     MW 1480   0.754   0.156   0.955 -0.1186  0.5021 -0.3072
  371SOL     OW 1481   1.276   2.841   1.512 -0.9712 -0.3714  0.2097
  371SOL    HW1 1482   1.262   2.769   1.449 -1.7141 -1.5919 -0.0966
  371SOL    HW2 1483   1.299   2.917   1.451 -2.5328  0.7925 -0.3857
  371SOL     MW 1484   1.277   2.841   1.495 -1.2752 -0.3789  0.0907
  372SOL     OW 1485   0.810   2.299   0.487  0.1934  0.2413 -0.1947
  372SOL    HW1 1486   0.765   2.213   0.494 -0.1462  1.3835 -0.9354
  372SOL    HW2 1487   0.845   2.326   0.391 -0.7602  1.2317  1.1885
  372SOL     MW 1488   0.809   2.291   0.475  0.0228  0.5227 -0.1099
  373SOL     OW 1489   2.863   3.031   1.404  0.1561 -0.5567 -0.4670
  373SOL    HW1 1490   2.917   2.971   1.347  1.2473 -3.1119 -1.4077
  373SOL    HW2 1491   2.825   3.108   1.355  0.6429  2.1431  0.1464
  373SOL     MW 1492   2.865   3.034   1.390  0.3643 -0.5376 -0.5102
  374SOL     OW 1493   1.531   0.495   0.293  0.0300 -0.0895 -0.5388
  374SOL    HW1 1494   1.629   0.498   0.279  0.4288 -0.0506  0.3153
  374SOL    HW2 1495   1.526   0.441   0.374 -1.4513 -3.0071  0.3768
  374SOL     MW 1496   1.544   0.488   0.302 -0.1128 -0.4693 -0.3053
  375SOL     OW 1497   0.959   2.114   2.317 -0.3548  0.7542  0.2166
  375SOL    HW1 1498   1.023   2.103   2.381 -2.4709 -2.6559  0.6392
  375SOL    HW2 1499   0.945   2.018   2.293  2.5463 -1.5696  1.3612
  375SOL     MW 1500   0.965   2.100   2.322 -0.2512 -0.0023  0.4234
  376SOL     OW 1501   0.699   2.482   0.075  0.0582 -0.3970  0.1272
  376SOL    HW1 1502   0.622   2.435   0.113  0.5884 -0.6495 -1.7774
  376SOL    HW2 1503   0.717   2.447  -0.020  0.6084  1.0410 -3.5737
  376SOL     MW 1504   0.691   2.471   0.068  0.2007 -0.2406 -0.6124
  377SOL     OW 1505   1.259   2.094   0.902 -0.2090  0.3124  0.8285
  377SOL    HW1 1506   1.177   2.059   0.867  0.6712  0.6368  0.2782
  377SOL    HW2 1507   1.274   2.035   0.982 -1.0207 -0.2818  3.3166
  377SOL     MW 1508   1.250   2.081   0.908 -0.2000  0.2768  1.0842
  378SOL     OW 1509   0.920   2.870   1.610 -0.0478  0.5598 -0.2407
  378SOL    HW1 1510   0.911   2.774   1.622  2.2954 -0.0194  3.1485
  378SOL    HW2 1511   0.958   2.890   1.523  0.1122 -0.4520 -3.5580
  378SOL     MW 1512   0.924   2.860   1.600  0.2824  0.3499 -0.2312
  379SOL     OW 1513   1.134   1.662   2.166 -0.1226 -0.1702  0.0238
  379SOL    HW1 1514   1.059   1.607   2.144 -1.5888 -0.8956  2.3482
  379SOL    HW2 1515   1.213   1.628   2.118 -1.2145 -0.3362 -0.3939
  379SOL     MW 1516   1.135   1.650   2.157 -0.4601 -0.2878  0.2754
  380SOL     OW 1517   0.898   0.094   1.464  0.2521 -0.5612 -0.1162
  380SOL    HW1 1518   0.931   0.005   1.449  0.4554  2.2628  0.3864
  380SOL    HW2 1519   0.943   0.130   1.546  1.7490 -4.1709 -2.0169
  380SOL     MW 1520   0.908   0.087   1.473  0.4764 -0.6649 -0.3007
  381SOL     OW 1521   0.727   2.085   0.845  0.4765 -0.1359  0.1584
  381SOL    HW1 1522   0.817   2.062   0.829  0.2422  1.1986  0.8886
  381SOL    HW2 1523   0.734   2.149   0.916  0.7159  3.1139  1.0911
  381SOL     MW 1524   0.740   2.090   0.852  0.4772  0.4690  0.3778
  382SOL     OW 1525   0.729   0.146   0.617  0.7697  0.2289  0.0896
  382SOL    HW1 1526   0.710   0.149   0.708  1.4265 -0.3637 -1.5499
  382SOL    HW2 1527   0.717   0.053   0.599  0.3389  1.3699 -1.5454
  382SOL     MW 1528   0.725   0.134   0.626  0.7995  0.3012 -0.3425
  383SOL     OW 1529   0.561   0.044   0.279  0.1775 -0.0889  0.2029
  383SOL    HW1 1530   0.604  -0.020   0.223 -1.9328  0.3005 -0.0465
  383SOL    HW2 1531   0.476   0.014   0.309 -1.1971 -0.6310  0.3167
  383SOL     MW 1532   0.555   0.031   0.276 -0.2823 -0.1091  0.1850
  384SOL     OW 1533   0.757   2.982   0.602  0.0355 -0.0053  0.1448
  384SOL    HW1 1534   0.825   2.957   0.670  3.6160 -1.0164  1.0912
  384SOL    HW2 1535   0.692   2.909   0.607  2.8396  1.8940  1.6568
  384SOL     MW 1536   0.757   2.969   0.612  0.8778  0.1119  0.4691
  385SOL     OW 1537   1.444   2.035   1.547  0.2924  0.1850 -0.0384
  385SOL    HW1 1538   1.504   2.101   1.582 -1.0951 -2.2332  1.0763
  385SOL    HW2 1539   1.407   1.973   1.619 -0.6113  1.4766 -0.4881
  385SOL     MW 1540   1.447   2.035   1.561 -0.0099  0.0364  0.0493
  386SOL     OW 1541   1.305   0.350   0.839 -0.4535  0.1184 -0.1142
  386SOL    HW1 1542   1.257   0.394   0.911 -0.1232 -2.2646 -0.1194
  386SOL    HW2 1543   1.324   0.262   0.875  1.4737  0.2598  1.6138
  386SOL     MW 1544   1.301   0.344   0.853 -0.1556 -0.1774  0.1131
  387SOL     OW 1545   0.816   2.164   1.492 -0.4675 -0.4329 -0.3147
  387SOL    HW1 1546   0.889   2.220   1.477 -1.0005 -1.0840  0.7266
  387SOL    HW2 1547   0.866   2.086   1.471 -0.2932  0.5352  0.4074
  387SOL     MW 1548   0.832   2.161   1.487 -0.5148 -0.3911 -0.0820
  388SOL     OW 1549   1.526   2.744   1.257  0.3453  0.1865  0.5804
  388SOL    HW1 1550   1.465   2.807   1.221  1.7394 -2.7806 -0.4840
  388SOL    HW2 1551   1.498   2.653   1.227  0.0202 -2.0742 -1.0992
  388SOL     MW 1552   1.514   2.740   1.248  0.4863 -0.5033  0.2183
  389SOL     OW 1553   0.557   0.158   3.045  0.4409 -0.2936  0.0872
  389SOL    HW1 1554   0.641   0.112   3.057  1.9646  1.2084  0.2463
  389SOL    HW2 1555   0.542   0.177   2.947 -2.2622 -1.0886  2.2284
  389SOL     MW 1556   0.566   0.154   3.034  0.2853 -0.2003  0.3907
  390SOL     OW 1557   1.324   0.033   0.706  0.4311  0.2163 -0.6539
  390SOL    HW1 1558   1.360   0.045   0.619  1.8097  0.7336  2.3279
  390SOL    HW2 1559   1.371   0.091   0.770 -0.5223  1.7481  0.3510
  390SOL     MW 1560   1.335   0.042   0.703  0.4872  0.4866 -0.1279
  391SOL     OW 1561   0.401   2.179   1.506  0.3891  0.0260 -0.2122
  391SOL    HW1 1562   0.376   2.086   1.511  1.4357 -0.5487 -1.1014
  391SOL    HW2 1563   0.320   2.231   1.501 -1.6296 -0.3390 -0.5343
  391SOL     MW 1564   0.387   2.174   1.506  0.2608 -0.0980 -0.3720
  392SOL     OW 1565   2.084   2.226   0.309 -0.2134 -0.0043 -0.3005
  392SOL    HW1 1566   2.173   2.234   0.332 -2.2895 -0.1684 -0.8491
  392SOL    HW2 1567   2.033   2.227   0.392  1.1809  0.3573  0.0423
  392SOL     MW 1568   2.089   2.227   0.323 -0.3033  0.0218 -0.3277
  393SOL     OW 1569   0.309   2.916   2.815  0.3524  0.1395  0.3724
  393SOL    HW1 1570   0.377   2.918   2.749 -0.0907  0.0369  1.2348
  393SOL    HW2 1571   0.279   3.007   2.821 -1.0723  1.6261 -2.1128
  393SOL     MW 1572   0.314   2.928   2.807  0.1059  0.3221  0.1583
  394SOL     OW 1573   0.967   1.690   1.525  0.8572 -0.1837  0.1751
  394SOL    HW1 1574   0.953   1.695   1.616 -0.6084  0.7618 -0.3985
  394SOL    HW2 1575   0.952   1.780   1.498  2.9655 -2.4947  2.1284
  394SOL     MW 1576   0.963   1.702   1.533  0.9420 -0.3639  0.3572
  395SOL     OW 1577   0.971   2.978   2.542  0.3028  0.0137 -0.0930
  395SOL    HW1 1578   1.006   3.003   2.628 -0.4171  0.1120  0.2545
  395SOL    HW2 1579   1.033   2.911   2.522 -0.5906  1.9216 -0.7492
  395SOL     MW 1580   0.984   2.972   2.551  0.0899  0.2784 -0.1337
  396SOL     OW 1581   0.701   1.842   2.433  0.0751  1.0014  0.1884
  396SOL    HW1 1582   0.784   1.853   2.480  1.5450 -2.3705  1.7284
  396SOL    HW2 1583   0.704   1.745   2.421 -2.2506 -0.0976  0.5086
  396SOL     MW 1584   0.712   1.831   2.437 -0.0378  0.4115  0.4338
  397SOL     OW 1585   1.021   2.318   1.438 -0.2526 -0.0894  0.1118
  397SOL    HW1 1586   1.031   2.330   1.340 -2.0683  1.8796 -2.5752
  397SOL    HW2 1587   1.111   2.299   1.473 -0.0023 -0.7682  0.1705
  397SOL     MW 1588   1.034   2.317   1.430 -0.4591  0.0809 -0.2350
  398SOL     OW 1589   0.629   2.736   0.612 -0.1276 -0.0657  0.2177
  398SOL    HW1 1590   0.550   2.701   0.570  0.2449 -1.5494 -3.2246
  398SOL    HW2 1591   0.682   2.653   0.622 -1.0233 -2.4593 -1.8952
  398SOL     MW 1592   0.626   2.720   0.607 -0.1967 -0.5773 -0.5152
  399SOL     OW 1593   0.213   2.083   0.343  0.1501  0.4582  0.3732
  399SOL    HW1 1594   0.128   2.123   0.364  3.0898 -2.4803  1.0171
  399SOL    HW2 1595   0.243   2.112   0.253  0.7271 -0.0942 -1.3461
  399SOL     MW 1596   0.206   2.092   0.334  0.6141 -0.0024  0.2313
  400SOL     OW 1597   0.561   1.989   0.079  0.0692  0.2537  0.2740
  400SOL    HW1 1598   0.488   2.040   0.109  0.4310  2.8939  2.1236
  400SOL    HW2 1599   0.568   1.920   0.145 -1.4212  2.6248  0.2214
  400SOL     MW 1600   0.552   1.987   0.092 -0.0797  0.9149  0.5111
  401SOL     OW 1601   0.811   2.093   0.078  0.1303 -0.1175  0.1865
  401SOL    HW1 1602   0.870   2.043   0.134 -0.9786 -0.4054  2.2180
  401SOL    HW2 1603   0.719   2.057   0.081 -0.5040  2.4556 -3.8146
  401SOL     MW 1604   0.807   2.081   0.086 -0.0997  0.1840 -0.0734
  402SOL     OW 1605   0.562   2.966   1.718  0.3758  0.1880 -0.1022
  402SOL    HW1 1606   0.626   2.956   1.792 -2.7003  0.1880 -0.4034
  402SOL    HW2 1607   0.588   3.053   1.687 -1.1161 -0.2024  0.7671
  402SOL     MW 1608   0.574   2.976   1.724 -0.2269  0.1365 -0.0272
  403SOL     OW 1609   0.091   0.460   0.372 -0.7497  0.7383 -0.6515
  403SOL    HW1 1610   0.177   0.479   0.410  1.4350  1.9506  0.2865
  403SOL    HW2 1611   0.102   0.420   0.286  0.4520 -1.3983  3.0639
  403SOL     MW 1612   0.104   0.457   0.366 -0.3029  0.6163 -0.0375
  404SOL     OW 1613   0.961   2.903   0.749 -0.0531 -0.0489 -0.1312
  404SOL    HW1 1614   1.035   2.847   0.727  2.0549 -0.9614 -0.0065
  404SOL    HW2 1615   1.008   2.986   0.743  0.2665 -0.3430 -0.5294
  404SOL     MW 1616   0.977   2.907   0.746  0.2672 -0.2081 -0.1673
  405SOL     OW 1617   0.512   2.454   1.531  0.0339  0.0818 -0.1780
  405SOL    HW1 1618   0.504   2.516   1.456  2.2506 -0.0663  0.6303
  405SOL    HW2 1619   0.518   2.375   1.485 -4.8243  1.7777  1.8423
  405SOL     MW 1620   0.512   2.452   1.515 -0.3146  0.2860  0.1952
  406SOL     OW 1621   0.329   2.409   1.095  0.2254  0.0334 -0.0149
  406SOL    HW1 1622   0.236   2.415   1.128 -0.5818  0.8239  2.3712
  406SOL    HW2 1623   0.373   2.326   1.123  0.8045 -0.4100 -0.8434
  406SOL     MW 1624   0.323   2.399   1.103  0.1953  0.0792  0.1906
  407SOL     OW 1625   0.080   2.682   1.153 -0.1634 -0.1163 -0.1326
  407SOL    HW1 1626   0.130   2.661   1.236  1.9003 -1.7268  2.1463
  407SOL    HW2 1627   0.130   2.727   1.087 -1.0256  0.4534  2.3259
  407SOL     MW 1628   0.093   2.685   1.155 -0.0049 -0.2536  0.4924
  408SOL     OW 1629   2.143   2.099   0.668  0.3747  0.5298  0.4681
  408SOL    HW1 1630   2.115   2.142   0.752 -0.5416  1.1324 -2.1805
  408SOL    HW2 1631   2.061   2.049   0.652  3.5981 -0.8321 -0.7934
  408SOL     MW 1632   2.128   2.098   0.677  0.6791  0.4296 -0.0478
  409SOL     OW 1633   1.470   0.140   0.936  0.7165 -0.5594 -0.5601
  409SOL    HW1 1634   1.545   0.199   0.939  1.7034  2.8086  0.5639
  409SOL    HW2 1635   1.492   0.071   0.998 -0.9848  0.0012 -0.7393
  409SOL     MW 1636   1.483   0.139   0.945  0.6223 -0.0411 -0.4354
  410SOL     OW 1637   1.057   2.410   1.179 -0.0098  0.2210 -0.1453
  410SOL    HW1 1638   0.990   2.462   1.142 -2.4812 -0.9213 -0.7078
  410SOL    HW2 1639   1.124   2.402   1.105  0.0079  2.9718 -2.8125
  410SOL     MW 1640   1.057   2.416   1.165 -0.3336  0.4332 -0.5714
  411SOL     OW 1641   1.960   3.075   2.915  0.6848 -0.6031 -0.0422
  411SOL    HW1 1642   1.906   3.046   2.842  0.8714 -0.6449  0.8497
  411SOL    HW2 1643   1.920   3.155   2.948  1.6262 -1.7897  1.5763
  411SOL     MW 1644   1.947   3.081   2.910  0.8337 -0.7652  0.2890
  412SOL     OW 1645   1.048   2.231   0.623  0.5844  0.4968  0.0215
  412SOL    HW1 1646   1.088   2.303   0.663  0.7053  0.6789 -0.6642
  412SOL    HW2 1647   0.967   2.258   0.582  1.1041 -0.8461 -0.6842
  412SOL     MW 1648   1.043   2.244   0.623  0.6689  0.3436 -0.1621
  413SOL     OW 1649   0.577   2.720   0.045  0.1863  0.5146  0.3879
  413SOL    HW1 1650   0.599   2.627   0.030 -2.3165 -2.8595 -3.7720
  413SOL    HW2 1651   0.606   2.757  -0.034 -0.3644 -0.2849  2.5758
  413SOL     MW 1652   0.584   2.712   0.033 -0.2166 -0.0361  0.1277
  414SOL     OW 1653   2.031   2.999   1.192 -0.0434  0.1103 -0.0250
  414SOL    HW1 1654   2.062   3.097   1.190  0.0105  0.6819  3.3480
  414SOL    HW2 1655   2.007   2.987   1.100 -0.5200  0.0024 -0.7833
  414SOL     MW 1656   2.032   3.010   1.180 -0.0992  0.1715  0.3200
  415SOL     OW 1657   1.724   2.798   1.082 -1.0280  0.1881  0.0200
  415SOL    HW1 1658   1.690   2.772   1.166  0.3999 -0.3519  0.5288
  415SOL    HW2 1659   1.811   2.762   1.084 -4.0079 -2.9254 -0.6629
  415SOL     MW 1660   1.731   2.790   1.093 -1.2328 -0.2940 -0.0029
  416SOL     OW 1661   0.556   1.877   1.407 -0.1361 -1.3790  0.5983
  416SOL    HW1 1662   0.466   1.856   1.434  2.0813  0.5697  1.1951
  416SOL    HW2 1663   0.604   1.799   1.415  0.5935  2.3229 -0.9662
  416SOL     MW 1664   0.550   1.864   1.412  0.2527 -0.6334  0.4706
  417SOL     OW 1665   0.986   3.016   2.040  0.0588  0.5593 -0.0979
  417SOL    HW1 1666   0.927   3.033   2.109 -0.3108  0.4930  0.6442
  417SOL    HW2 1667   0.933   2.972   1.967  3.6167 -0.5049  1.5266
  417SOL     MW 1668   0.971   3.013   2.039  0.4794  0.4101  0.2143
  418SOL     OW 1669   0.718   2.941   0.151  0.7543  0.4406 -0.1170
  418SOL    HW1 1670   0.792   2.916   0.090  1.1233  0.4390 -0.4159
  418SOL    HW2 1671   0.649   2.876   0.129 -1.5332  2.2180  0.7404
  418SOL     MW 1672   0.719   2.929   0.140  0.5012  0.6749 -0.0433
  419SOL     OW 1673   0.512   2.670   1.363  0.1609  1.0030  0.2840
  419SOL    HW1 1674   0.544   2.742   1.418 -0.1312 -1.4693  2.7216
  419SOL    HW2 1675   0.597   2.663   1.327  0.2445 -0.0369 -0.4476
  419SOL     MW 1676   0.527   2.679   1.366  0.1334  0.5396  0.5091
  420SOL     OW 1677   0.790   2.235   1.062 -0.5828  0.2273  0.0185
  420SOL    HW1 1678   0.739   2.255   1.143  1.4247  1.3028  0.8765
  420SOL    HW2 1679   0.803   2.332   1.028  0.8737 -1.1416  0.7756
  420SOL     MW 1680   0.785   2.250   1.068 -0.1257  0.1886  0.2316
  421SOL     OW 1681   2.964   0.175   3.081 -0.5012  0.1121  0.3057
  421SOL    HW1 1682   2.892   0.139   3.035  1.1311 -1.0662  2.7106
  421SOL    HW2 1683   3.023   0.098   3.075 -0.9697 -0.9109 -1.7254
  421SOL     MW 1684   2.963   0.160   3.074 -0.3477 -0.1783  0.3550
  422SOL     OW 1685   0.807   2.456   0.957  0.3026 -0.0540  0.0926
  422SOL    HW1 1686   0.780   2.545   0.973 -4.2383  0.1896  2.2569
  422SOL    HW2 1687   0.797   2.451   0.860 -1.5953  1.3477 -0.1167
  422SOL     MW 1688   0.802   2.467   0.946 -0.5469  0.1631  0.3505
  423SOL     OW 1689   1.502   0.068   0.470 -0.2116  0.8855 -0.1629
  423SOL    HW1 1690   1.516   0.046   0.374  0.5389 -4.1261 -1.3775
  423SOL    HW2 1691   1.519   0.166   0.471 -2.0329  0.8376  1.0387
  423SOL     MW 1692   1.506   0.078   0.457 -0.3529  0.2180 -0.1646
  424SOL     OW 1693   0.653   2.295   1.303 -0.2651  0.1159  0.2521
  424SOL    HW1 1694   0.572   2.243   1.273 -0.6633 -0.3041 -0.3250
  424SOL    HW2 1695   0.706   2.241   1.362 -1.0302 -0.7767 -1.0533
  424SOL     MW 1696   0.649   2.281   1.307 -0.4186 -0.0573  0.0037
  425SOL     OW 1697   1.722   2.751   2.068 -0.2389  0.3270 -0.2237
  425SOL    HW1 1698   1.751   2.744   1.979 -0.3701 -0.5908 -0.1509
  425SOL    HW2 1699   1.732   2.653   2.097  0.3584 -2.5538  0.9799
  425SOL     MW 1700   1.727   2.737   2.060 -0.1774 -0.1742 -0.0553
  426SOL     OW 1701   0.841   1.733   1.987 -0.1493  0.3439  0.3808
  426SOL    HW1 1702   0.788   1.743   1.910  3.8721 -2.3478 -1.2009
  426SOL    HW2 1703   0.826   1.813   2.046 -0.0522  5.1441  1.0053
  426SOL     MW 1704   0.832   1.745   1.985  0.3941  0.6221  0.2545
  427SOL     OW 1705   0.345   1.691   1.854 -0.0385  0.0523  0.2250
  427SOL    HW1 1706   0.395   1.654   1.787 -0.2455  1.6845 -1.6536
  427SOL    HW2 1707   0.305   1.622   1.908  0.5753  1.7231 -0.7052
  427SOL     MW 1708   0.347   1.677   1.852  0.0152  0.4881 -0.1456
  428SOL     OW 1709   0.576   2.586   1.065 -0.5413  0.3425  0.2069
  428SOL    HW1 1710   0.579   2.494   1.089 -1.7428 -1.3910  0.4764
  428SOL    HW2 1711   0.507   2.618   1.112  1.4550 -0.5904 -0.7183
  428SOL     MW 1712   0.568   2.578   1.075 -0.4364 -0.0093  0.1204
  429SOL     OW 1713   1.215   2.805   1.146 -0.1386 -0.4364  0.1557
  429SOL    HW1 1714   1.130   2.772   1.170  1.4943 -2.5966  0.3388
  429SOL    HW2 1715   1.212   2.859   1.068 -1.8124  1.5227  0.8362
  429SOL     MW 1716   1.203   2.808   1.139 -0.1440 -0.4629  0.2696
  430SOL     OW 1717   1.148   2.722   0.687 -0.2630 -0.1127 -0.1007
  430SOL    HW1 1718   1.183   2.641   0.719 -2.2888  1.0741 -0.7334
  430SOL    HW2 1719   1.079   2.699   0.613  1.4789  2.5982 -0.3836
  430SOL     MW 1720   1.144   2.708   0.682 -0.3005  0.4015 -0.2215
  431SOL     OW 1721   0.330   1.928   1.091 -0.3859  0.4690  0.9602
  431SOL    HW1 1722   0.377   1.845   1.077  0.0170 -0.2127 -3.1992
  431SOL    HW2 1723   0.300   1.949   1.002 -0.5620 -1.3333  2.0356
  431SOL     MW 1724   0.332   1.919   1.077 -0.3560  0.1413  0.5533
  432SOL     OW 1725   0.046   0.014   1.106 -0.0520 -0.1212  0.0808
  432SOL    HW1 1726   0.066   0.076   1.179  0.0402  0.1670 -1.5225
  432SOL    HW2 1727   0.001  -0.059   1.148  0.8938 -2.6217  1.0148
  432SOL     MW 1728   0.043   0.012   1.121  0.0850 -0.4131 -0.0075
  433SOL     OW 1729   0.653   2.867   1.483  0.4522  0.2091  0.1152
  433SOL    HW1 1730   0.601   2.903   1.562 -0.9686 -1.3929  0.1138
  433SOL    HW2 1731   0.743   2.882   1.499 -2.5715  2.3676 -3.7665
  433SOL     MW 1732   0.658   2.874   1.495 -0.1342  0.2825 -0.3972
  434SOL     OW 1733   1.537   2.805   1.581  0.3930 -0.4135 -0.5283
  434SOL    HW1 1734   1.443   2.799   1.556  2.0999  0.8555 -0.8766
  434SOL    HW2 1735   1.580   2.788   1.497  0.0986  0.8434 -1.4453
  434SOL     MW 1736   1.530   2.802   1.567  0.5794 -0.0802 -0.6952
  435SOL     OW 1737   2.743   1.765   0.207  0.3186 -0.0621  0.1259
  435SOL    HW1 1738   2.804   1.830   0.164  1.5033  1.4582 -1.1814
  435SOL    HW2 1739   2.660   1.804   0.166 -1.3702  1.0227  0.1179
  435SOL     MW 1740   2.740   1.779   0.196  0.2521  0.2816 -0.0477
  436SOL     OW 1741   1.410   2.683   0.369  0.2972  0.1779  0.1130
  436SOL    HW1 1742   1.448   2.674   0.456  1.2924 -0.8468  0.2150
  436SOL    HW2 1743   1.398   2.782   0.357 -0.6979  1.4565 -1.9685
  436SOL     MW 1744   1.414   2.695   0.379  0.2972  0.2114 -0.1482
  437SOL     OW 1745   0.993   2.953   1.346  1.2399 -0.1048 -0.5459
  437SOL    HW1 1746   1.044   2.997   1.277  0.1178  0.9284  0.2455
  437SOL    HW2 1747   0.962   2.868   1.313  0.8041  0.8352 -1.3233
  437SOL     MW 1748   0.995   2.948   1.332  1.0344  0.1555 -0.5440
  438SOL     OW 1749   0.812   2.659   1.906  0.3534  0.1016 -0.1745
  438SOL    HW1 1750   0.852   2.607   1.975 -2.4251 -0.4841 -2.0690
  438SOL    HW2 1751   0.749   2.594   1.868  0.3609 -0.0367  0.2794
  438SOL     MW 1752   0.809   2.643   1.910 -0.0122  0.0061 -0.3645
  439SOL     OW 1753   1.155   2.099   0.406 -0.1090  0.2180 -0.3558
  439SOL    HW1 1754   1.116   2.134   0.485  0.9153  1.4011 -0.0560
  439SOL    HW2 1755   1.171   2.175   0.350 -0.3137  0.4650  3.3439
  439SOL     MW 1756   1.152   2.114   0.409 -0.0009  0.4067  0.1719
  440SOL     OW 1757   1.663   2.963   3.064  0.7250 -0.1940 -0.1108
  440SOL    HW1 1758   1.667   2.896   3.130 -0.1900  0.1202 -0.7050
  440SOL    HW2 1759   1.752   2.988   3.049 -0.5369  0.0723 -0.1742
  440SOL     MW 1760   1.676   2.957   3.071  0.4378 -0.1174 -0.1976
  441SOL     OW 1761   0.359   2.669   0.518 -0.1902  0.0974 -0.0267
  441SOL    HW1 1762   0.352   2.632   0.425  1.4078  0.4485 -1.5979
  441SOL    HW2 1763   0.363   2.760   0.505 -0.1495 -1.7502 -1.9207
  441SOL     MW 1764   0.359   2.676   0.504  0.0260 -0.1000 -0.4839
  442SOL     OW 1765   3.075   2.352   0.584 -0.2211  0.2049  0.5098
  442SOL    HW1 1766   3.100   2.434   0.551 -0.3069 -0.7891 -2.5262
  442SOL    HW2 1767   2.986   2.353   0.623  1.3840  1.4292  0.5793
  442SOL     MW 1768   3.067   2.363   0.585 -0.0206  0.2353  0.1184
  443SOL     OW 1769   1.521   1.742   1.968  0.1291 -0.0543 -0.4511
  443SOL    HW1 1770   1.456   1.685   1.933  0.5427  2.7325 -4.8871
  443SOL    HW2 1771   1.543   1.725   2.060  0.9128 -1.5312 -1.1803
  443SOL     MW 1772   1.515   1.732   1.976  0.2870  0.1185 -1.1326
  444SOL     OW 1773   0.920   2.601   1.581  0.7329  0.1768 -0.4462
  444SOL    HW1 1774   1.006   2.578   1.618 -0.5157 -0.5333  2.0059
  444SOL    HW2 1775   0.853   2.569   1.641  0.1363 -1.9795  0.6051
  444SOL     MW 1776   0.922   2.594   1.594  0.4894 -0.2014  0.0160
  445SOL     OW 1777   1.184   0.156   1.397  0.0843  0.6488  0.2545
  445SOL    HW1 1778   1.092   0.130   1.396  2.6821 -2.2585  0.3848
  445SOL    HW2 1779   1.185   0.197   1.309  3.2506  0.4696 -1.6715
  445SOL     MW 1780   1.172   0.158   1.385  0.8448  0.2416  0.0176
  446SOL     OW 1781   2.789   2.865   1.038  0.0440  0.0619  0.0813
  446SOL    HW1 1782   2.731   2.886   0.959 -0.2291 -0.2828 -2.3285
  446SOL    HW2 1783   2.835   2.787   1.000  0.0742  0.6014 -0.5127
  446SOL     MW 1784   2.788   2.857   1.023  0.0119  0.0876 -0.3150
  447SOL     OW 1785   0.026   1.984   1.637  0.2633 -0.0864 -0.0331
  447SOL    HW1 1786   0.055   1.897   1.668  0.9436 -3.2173  1.3400
  447SOL    HW2 1787  -0.056   1.956   1.587 -3.5409  0.0108  0.0603
  447SOL     MW 1788   0.019   1.969   1.635 -0.1489 -0.4867  0.1604
  448SOL     OW 1789   1.769   2.421   1.689 -0.1908  0.5692 -0.4391
  448SOL    HW1 1790   1.734   2.334   1.678  0.0185 -2.0907  0.9565
  448SOL    HW2 1791   1.686   2.474   1.685  0.8981  1.1345 -0.3386
  448SOL     MW 1792   1.754   2.417   1.687 -0.0195  0.2929 -0.2417
  449SOL     OW 1793   0.909   2.885   0.378  0.0014  0.6036  0.5979
  449SOL    HW1 1794   0.850   2.905   0.303  1.4474 -0.6299  1.3360
  449SOL    HW2 1795   0.845   2.902   0.449  0.7209 -2.1611 -2.0076
  449SOL     MW 1796   0.893   2.890   0.377  0.2871  0.0761  0.3516
  450SOL     OW 1797   1.206   2.454   0.736 -0.2862 -0.3197  0.1694
  450SOL    HW1 1798   1.226   2.444   0.827 -0.0852 -0.5456  0.2462
  450SOL    HW2 1799   1.285   2.428   0.687  1.1501 -2.4729 -0.5216
  450SOL     MW 1800   1.219   2.449   0.742 -0.0702 -0.6336  0.0883
  451SOL     OW 1801   0.609   2.018   1.681  0.2891 -0.7869  0.3738
  451SOL    HW1 1802   0.648   2.098   1.722 -3.3562  1.1322  2.0242
  451SOL    HW2 1803   0.574   2.046   1.598  1.0416  0.9101  0.2148
  451SOL     MW 1804   0.610   2.033   1.675 -0.0926 -0.3098  0.5706
  452SOL     OW 1805   0.317   2.631   0.052  0.3482 -0.3457  0.1459
  452SOL    HW1 1806   0.409   2.654   0.058 -3.5736 -0.0405 -1.0790
  452SOL    HW2 1807   0.277   2.720   0.041  1.3792  1.1648  0.2937
  452SOL     MW 1808   0.324   2.646   0.051 -0.0332 -0.1061  0.0038
  453SOL     OW 1809   0.331   3.056   1.620  0.2803  0.0566  0.5431
  453SOL    HW1 1810   0.399   3.015   1.672  0.3692  1.9454  2.0597
  453SOL    HW2 1811   0.371   3.091   1.539  0.0450  1.2647 -3.0086
  453SOL     MW 1812   0.345   3.055   1.616  0.2610  0.4652  0.2746
  454SOL     OW 1813   0.952   2.726   1.185 -0.3156  0.0661  0.6002
  454SOL    HW1 1814   0.904   2.657   1.222 -1.4518  1.1900  2.8302
  454SOL    HW2 1815   0.906   2.736   1.099 -2.0692 -1.7755 -1.1945
  454SOL     MW 1816   0.940   2.718   1.179 -0.6969 -0.0286  0.6576
  455SOL     OW 1817   1.642   2.874   0.243  0.6076  0.2379  0.4998
  455SOL    HW1 1818   1.695   2.871   0.318 -2.0169  1.8249 -0.0154
  455SOL    HW2 1819   1.627   2.784   0.219 -2.0720  1.7246  0.0593
  455SOL     MW 1820   1.647   2.862   0.250 -0.0922  0.6435  0.3737
  456SOL     OW 1821   2.713   0.305   1.531 -0.2070 -0.0477  0.0760
  456SOL    HW1 1822   2.685   0.233   1.471 -2.0873  0.9935  0.9469
  456SOL    HW2 1823   2.801   0.326   1.487  0.2211 -0.1987 -0.4731
  456SOL     MW 1824   2.721   0.298   1.518 -0.3986  0.0698  0.1184
  457SOL     OW 1825   0.804   1.579   3.021 -0.5302 -0.1100  0.2177
  457SOL    HW1 1826   0.712   1.545   3.040 -1.7626  2.3359 -1.0124
  457SOL    HW2 1827   0.805   1.656   3.079  1.5688  1.6468  0.1817
  457SOL     MW 1828   0.792   1.585   3.031 -0.4159  0.4445  0.0506
  458SOL     OW 1829   1.357   1.463   0.659 -0.5092  0.2561  0.6568
  458SOL    HW1 1830   1.310   1.523   0.599 -0.2198  0.4523 -0.1906
  458SOL    HW2 1831   1.316   1.377   0.638  0.3801 -0.9600  3.8506
  458SOL     MW 1832   1.345   1.460   0.649 -0.3536  0.1216  0.9664
  459SOL     OW 1833   1.544   0.021   0.206 -0.1215  0.1844 -0.3358
  459SOL    HW1 1834   1.573  -0.070   0.221  0.2404 -0.7264  1.7873
  459SOL    HW2 1835   1.508   0.019   0.116  1.0081 -0.2605 -0.3289
  459SOL     MW 1836   1.543   0.008   0.196  0.0753  0.0055 -0.0548
  460SOL     OW 1837   1.780   2.150   0.636  0.4960  0.4640 -0.1290
  460SOL    HW1 1838   1.697   2.155   0.685  0.1925 -0.6575  1.1941
  460SOL    HW2 1839   1.812   2.059   0.640  2.1190  1.8459  0.7521
  460SOL     MW 1840   1.774   2.139   0.643  0.6701  0.4984  0.1618
  461SOL     OW 1841   0.463   2.409   0.607  0.2580  0.9846  0.7599
  461SOL    HW1 1842   0.433   2.497   0.575  1.2326 -1.1108 -1.6103
  461SOL    HW2 1843   0.417   2.413   0.692 -1.4259 -1.4955 -2.0559
  461SOL     MW 1844   0.453   2.421   0.614  0.1644  0.3809  0.0757
  462SOL     OW 1845   0.316   0.248   1.235 -0.1343 -0.1723  0.5414
  462SOL    HW1 1846   0.376   0.220   1.161 -0.3980  1.7194  0.5914
  462SOL    HW2 1847   0.390   0.254   1.305 -1.5756  0.9042  0.2875
  462SOL     MW 1848   0.334   0.245   1.235 -0.3593  0.2193  0.5145
  463SOL     OW 1849   1.001   0.077   0.679 -0.2814 -0.2669  0.3238
  463SOL    HW1 1850   1.069   0.069   0.610  1.3501  1.9398  0.2658
  463SOL    HW2 1851   0.922   0.097   0.636  2.9270 -0.0983  2.0838
  463SOL     MW 1852   1.000   0.079   0.664  0.3572  0.0465  0.5484
  464SOL     OW 1853   0.784   3.024   2.236  0.1294  0.3954  0.2961
  464SOL    HW1 1854   0.766   2.940   2.279  3.2898 -0.8579  0.3129
  464SOL    HW2 1855   0.807   3.089   2.302  2.1644 -0.8051  0.1935
  464SOL     MW 1856   0.784   3.022   2.251  0.8149  0.0717  0.2848
  465SOL     OW 1857   0.874   0.269   0.422 -0.7152  0.2675 -0.0897
  465SOL    HW1 1858   0.815   0.238   0.495  1.3449  1.2357  0.8535
  465SOL    HW2 1859   0.826   0.263   0.336 -0.3220 -2.4862 -4.0440
  465SOL     MW 1860   0.860   0.264   0.420 -0.3915  0.0319 -0.4870
  466SOL     OW 1861   1.007   2.030   0.800  0.5938  0.2185 -0.1387
  466SOL    HW1 1862   1.011   1.947   0.759 -0.0309  1.2025 -1.6541
  466SOL    HW2 1863   1.005   2.105   0.736  1.2894  1.1961  0.7714
  466SOL     MW 1864   1.007   2.029   0.786  0.6032  0.4773 -0.2185
  467SOL     OW 1865   1.259   2.337   1.011 -0.3967 -0.2227  0.5338
  467SOL    HW1 1866   1.353   2.359   1.003 -0.6664  0.4993 -1.3619
  467SOL    HW2 1867   1.244   2.246   0.967 -0.8044 -0.0071 -1.6643
  467SOL     MW 1868   1.269   2.328   1.004 -0.4861 -0.0990 -0.0063
  468SOL     OW 1869   0.492   2.659   1.920  0.0826  0.0213 -0.1563
  468SOL    HW1 1870   0.481   2.580   1.871  0.7764 -0.8757  0.1956
  468SOL    HW2 1871   0.454   2.727   1.861 -1.9524 -1.0604  0.4089
  468SOL     MW 1872   0.486   2.657   1.905 -0.0943 -0.2398 -0.0353
  469SOL     OW 1873   0.382   2.118   1.842  0.0281 -0.1493  0.5522
  469SOL    HW1 1874   0.303   2.067   1.863 -1.9701  0.4376 -2.4629
  469SOL    HW2 1875   0.427   2.059   1.775  0.1003  0.6552 -2.5431
  469SOL     MW 1876   0.378   2.104   1.836 -0.2260  0.0343 -0.2540
  470SOL     OW 1877   3.084   2.579   0.174  0.5591  0.2438  0.7193
  470SOL    HW1 1878   3.000   2.573   0.230  1.4120 -1.9516 -0.6315
  470SOL    HW2 1879   3.055   2.583   0.083  0.7377  0.6694 -1.6480
  470SOL     MW 1880   3.069   2.579   0.170  0.6952  0.0103  0.2287
  471SOL     OW 1881   1.198   2.603   1.401  0.8080 -0.7035 -0.2007
  471SOL    HW1 1882   1.139   2.554   1.454  0.1140 -1.2465 -1.7124
  471SOL    HW2 1883   1.183   2.586   1.311 -1.5288 -0.6485  0.9702
  471SOL     MW 1884   1.189   2.594   1.396  0.4082 -0.7679 -0.2456
  472SOL     OW 1885   2.786   2.094   0.365 -0.1111 -0.3521 -0.1605
  472SOL    HW1 1886   2.794   2.067   0.268  0.2516 -0.3255 -2.8723
  472SOL    HW2 1887   2.794   2.012   0.417 -1.0266 -0.5950  0.9415
  472SOL     MW 1888   2.788   2.080   0.359 -0.1840 -0.3807 -0.3729
  473SOL     OW 1889   0.785   2.552   1.323  0.4833 -0.3137  0.1154
  473SOL    HW1 1890   0.756   2.464   1.338  0.8694 -0.5348  0.0541
  473SOL    HW2 1891   0.850   2.565   1.391 -1.1527  2.8587  0.1166
  473SOL     MW 1892   0.790   2.542   1.334  0.3184  0.0757  0.1075
  474SOL     OW 1893   0.747   2.221   1.779 -0.2041  0.5851  0.1222
  474SOL    HW1 1894   0.827   2.264   1.818 -0.0105  1.5119  0.4157
  474SOL    HW2 1895   0.775   2.204   1.690  0.7868  2.3732 -2.0884
  474SOL     MW 1896   0.761   2.225   1.772 -0.0479  0.9433 -0.1308
  475SOL     OW 1897   1.622   3.043   1.444 -0.4243  0.8633 -0.5874
  475SOL    HW1 1898   1.538   3.051   1.399 -2.1700 -1.3693 -2.9269
  475SOL    HW2 1899   1.604   2.981   1.518 -1.3307  2.5682  0.3496
  475SOL     MW 1900   1.609   3.036   1.448 -0.7742  0.7937 -0.7725
  476SOL     OW 1901   1.402   2.630   1.044  0.4166  0.3547 -0.2304
  476SOL    HW1 1902   1.323   2.677   1.069  0.3364  0.2818  0.5982
  476SOL    HW2 1903   1.435   2.677   0.964  1.0159  2.0222 -2.5580
  476SOL     MW 1904   1.396   2.642   1.037  0.4851  0.5651 -0.4282
  477SOL     OW 1905   0.781   2.511   0.674 -0.6903  0.1063 -0.5146
  477SOL    HW1 1906   0.868   2.542   0.646 -3.2190  1.2841 -1.1141
  477SOL    HW2 1907   0.767   2.452   0.595 -0.2669 -2.2694 -1.5021
  477SOL     MW 1908   0.791   2.507   0.660 -0.9680 -0.0518 -0.7240
  478SOL     OW 1909   0.181   2.684   0.892  0.5002 -0.2981 -0.7008
  478SOL    HW1 1910   0.244   2.751   0.856 -1.2931 -1.8421 -1.9564
  478SOL    HW2 1911   0.234   2.605   0.873 -0.3685 -0.3890  2.0982
  478SOL     MW 1912   0.196   2.683   0.885  0.1490 -0.5138 -0.4972
  479SOL     OW 1913   1.470   2.007   1.276 -0.0281 -0.4063  0.1647
  479SOL    HW1 1914   1.453   2.024   1.373  0.2690  1.2487  1.2751
  479SOL    HW2 1915   1.487   1.910   1.269  0.9365 -3.2344 -0.3380
  479SOL     MW 1916   1.470   1.997   1.288  0.1384 -0.5611  0.2449
  480SOL     OW 1917   1.934   2.456   1.258  0.1763 -0.1532  0.1553
  480SOL    HW1 1918   1.879   2.382   1.284  1.1517 -0.0718  1.6221
  480SOL    HW2 1919   1.941   2.455   1.165 -0.8132 -0.0432  2.1605
  480SOL     MW 1920   1.927   2.446   1.249  0.1745 -0.1279  0.6134
  481SOL     OW 1921   1.052   0.004   1.094 -0.1611 -0.2729  0.2032
  481SOL    HW1 1922   1.089  -0.034   1.015  0.7448 -1.0765  0.1501
  481SOL    HW2 1923   1.091   0.091   1.103 -1.3879  1.3430  1.5532
  481SOL     MW 1924   1.062   0.010   1.084 -0.2035 -0.1657  0.3743
  482SOL     OW 1925   1.076   3.062   0.246  0.0384  0.8158 -0.5155
  482SOL    HW1 1926   1.011   3.001   0.285 -1.5263 -1.2685  0.9800
  482SOL    HW2 1927   1.070   3.140   0.299 -2.5183 -0.0492 -1.4417
  482SOL     MW 1928   1.067   3.064   0.258 -0.5054  0.4267 -0.4404
  483SOL     OW 1929   0.389   2.929   0.452  0.0103 -0.6700  0.0710
  483SOL    HW1 1930   0.324   2.949   0.385  0.3370 -0.5933 -0.6858
  483SOL    HW2 1931   0.381   2.997   0.519  2.1007 -2.4674  1.4014
  483SOL     MW 1932   0.380   2.940   0.452  0.3292 -0.8971  0.1467
  484SOL     OW 1933   1.866   1.888   1.499  0.5728  0.0119 -0.2863
  484SOL    HW1 1934   1.913   1.956   1.444  1.9019 -2.8686  0.4795
  484SOL    HW2 1935   1.843   1.934   1.581 -1.7239 -0.1185 -1.0163
  484SOL     MW 1936   1.869   1.903   1.502  0.4452 -0.3854 -0.2816
  485SOL     OW 1937   0.504   2.342   0.185  0.2416 -0.3561  0.2999
  485SOL    HW1 1938   0.584   2.318   0.241  1.3919  0.4539 -0.6960
  485SOL    HW2 1939   0.452   2.407   0.239 -1.0950  1.3693  0.2602
  485SOL     MW 1940   0.507   2.348   0.199  0.2170 -0.0216  0.1632
  486SOL     OW 1941   0.179   2.363   1.499 -0.3090 -0.0189 -0.1918
  486SOL    HW1 1942   0.203   2.453   1.484  0.7225 -1.8217 -0.9341
  486SOL    HW2 1943   0.124   2.364   1.577 -0.8855  0.0195  0.5535
  486SOL     MW 1944   0.175   2.375   1.507 -0.2490 -0.2517 -0.1914
  487SOL     OW 1945   1.211   1.680   1.053  0.1315  0.3674  0.4987
  487SOL    HW1 1946   1.187   1.774   1.079 -1.4459 -1.1782 -1.7458
  487SOL    HW2 1947   1.294   1.708   1.015  0.1146 -0.5026  2.6180
  487SOL     MW 1948   1.218   1.696   1.051 -0.0788  0.0487  0.4822
  488SOL     OW 1949   1.610   1.872   0.493  0.0819  0.4389  0.1850
  488SOL    HW1 1950   1.685   1.894   0.445  0.9656  0.5429  0.3958
  488SOL    HW2 1951   1.542   1.943   0.489 -0.5878  1.8850  2.4241
  488SOL     MW 1952   1.611   1.884   0.486  0.1102  0.6435  0.5082
  489SOL     OW 1953   0.753   0.780   0.561 -0.1567 -0.0332 -0.2257
  489SOL    HW1 1954   0.776   0.696   0.523 -1.7325  1.5260 -2.1578
  489SOL    HW2 1955   0.754   0.766   0.660  2.9642 -0.9509  2.5041
  489SOL     MW 1956   0.756   0.767   0.569  0.0471  0.0514 -0.1204
  490SOL     OW 1957   1.442   2.081   0.463 -0.3963  0.0502 -0.2338
  490SOL    HW1 1958   1.504   2.145   0.412 -1.5128  1.4099 -3.2509
  490SOL    HW2 1959   1.352   2.105   0.457 -1.2829 -0.0900  0.8435
  490SOL     MW 1960   1.438   2.093   0.456 -0.6606  0.2111 -0.4898
  491SOL     OW 1961   1.316   2.974   0.360 -0.5273 -0.2490  0.3015
  491SOL    HW1 1962   1.360   3.048   0.407 -2.3709  0.6253 -1.0883
  491SOL    HW2 1963   1.234   3.010   0.331 -0.8933  1.1114  3.1905
  491SOL     MW 1964   1.311   2.989   0.363 -0.8188  0.0458  0.4993
  492SOL     OW 1965   1.491   2.147   0.740  0.2466 -0.2434  0.1244
  492SOL    HW1 1966   1.443   2.115   0.663  0.6496  1.9814  1.3323
  492SOL    HW2 1967   1.421   2.137   0.811 -1.8771  1.1380 -0.9388
  492SOL     MW 1968   1.475   2.142   0.739  0.0196  0.2324  0.1435
  493SOL     OW 1969   0.184   3.019   0.288 -0.1608 -0.1130  0.6247
  493SOL    HW1 1970   0.152   3.072   0.364  1.5466  1.9129 -0.0901
  493SOL    HW2 1971   0.187   3.089   0.217 -0.1346  0.6338  0.6811
  493SOL     MW 1972   0.180   3.035   0.289  0.0679  0.2529  0.5379
  494SOL     OW 1973   0.380   2.416   1.770 -0.2049  0.5813 -0.1203
  494SOL    HW1 1974   0.409   2.326   1.794 -0.0253  2.1384 -0.8841
  494SOL    HW2 1975   0.428   2.427   1.687 -0.8181 -2.6164  1.4168
  494SOL     MW 1976   0.390   2.406   1.762 -0.2621  0.3648 -0.0183
  495SOL     OW 1977   2.928   1.641   2.646 -0.5685 -0.0337 -0.2158
  495SOL    HW1 1978   2.903   1.726   2.603 -0.3810  1.2578  1.9914
  495SOL    HW2 1979   2.882   1.637   2.732 -0.6992  1.1524 -2.0276
  495SOL     MW 1980   2.918   1.651   2.652 -0.5610  0.2932 -0.1636
  496SOL     OW 1981   2.930   2.365   2.663  0.0537  0.5934 -0.0749
  496SOL    HW1 1982   2.982   2.309   2.718  1.7401 -2.5125  0.8506
  496SOL    HW2 1983   2.961   2.455   2.668 -2.1603  0.4473  0.3575
  496SOL     MW 1984   2.941   2.369   2.671 -0.0159  0.1643  0.1042
  497SOL     OW 1985   1.591   2.255   2.656  0.8155 -0.8593 -0.3620
  497SOL    HW1 1986   1.519   2.225   2.597  0.5335 -0.9987  0.2304
  497SOL    HW2 1987   1.612   2.184   2.717  2.2461  0.8401 -0.6277
  497SOL     MW 1988   1.584   2.242   2.656  0.9671 -0.6535 -0.3189
  498SOL     OW 1989   1.464   2.715   2.329 -0.6570  0.1297  0.3554
  498SOL    HW1 1990   1.464   2.624   2.302  1.1595 -2.5887 -1.7384
  498SOL    HW2 1991   1.555   2.715   2.367  0.2816 -1.2812 -1.2517
  498SOL     MW 1992   1.476   2.703   2.330 -0.2935 -0.4151 -0.1329
  499SOL     OW 1993   0.971   0.141   0.046  0.1148  0.0935 -0.7994
  499SOL    HW1 1994   0.894   0.188   0.090  2.9404 -1.7383 -0.7177
  499SOL    HW2 1995   1.016   0.085   0.108 -0.9944 -1.7146  1.7573
  499SOL     MW 1996   0.967   0.140   0.060  0.3413 -0.3867 -0.4513
  500SOL     OW 1997   1.084   2.555   2.833 -0.1635 -0.0224  0.0283
  500SOL    HW1 1998   1.128   2.500   2.907  0.3533  0.9261 -0.0580
  500SOL    HW2 1999   0.992   2.571   2.858 -2.2815 -2.0354  0.4315
  500SOL     MW 2000   1.078   2.550   2.846 -0.3748 -0.1629  0.0701
  501SOL     OW 2001   1.793   2.180   3.070  0.6021 -0.0406  0.2277
  501SOL    HW1 2002   1.768   2.264   3.094 -1.9365  0.9540 -0.2650
  501SOL    HW2 2003   1.874   2.192   3.024 -0.5079  1.2558  3.1164
  501SOL     MW 2004   1.800   2.192   3.067  0.1207  0.2617  0.5438
  502SOL     OW 2005   0.141   2.808   3.043 -0.4228 -0.4146  0.3764
  502SOL    HW1 2006   0.079   2.733   3.035  0.2513 -0.2304  0.2229
  502SOL    HW2 2007   0.201   2.810   2.966  1.1710 -0.1210 -1.2098
  502SOL     MW 2008   0.141   2.798   3.032 -0.1236 -0.3516  0.1469
  503SOL     OW 2009   1.134   2.778   2.135 -0.2729 -0.0282  0.0948
  503SOL    HW1 2010   1.064   2.709   2.131 -1.0209  1.2470 -0.3150
  503SOL    HW2 2011   1.087   2.861   2.130 -1.7013 -0.1486  3.5695
  503SOL     MW 2012   1.119   2.780   2.134 -0.5600  0.1242  0.4992
  504SOL     OW 2013   0.111   2.690   2.145  0.0248  0.1932  0.2149
  504SOL    HW1 2014   0.159   2.612   2.120 -0.3785  1.8478 -0.0008
  504SOL    HW2 2015   0.038   2.705   2.081  0.4108 -1.2968 -0.3597
  504SOL     MW 2016   0.108   2.682   2.133  0.0225  0.2149  0.1106
  505SOL     OW 2017   1.686   2.721   2.760 -0.4611 -0.0700 -0.5745
  505SOL    HW1 2018   1.650   2.716   2.670 -0.5304  1.7115 -3.5344
  505SOL    HW2 2019   1.606   2.742   2.810 -0.3032  1.6788  0.7027
  505SOL     MW 2020   1.670   2.723   2.754 -0.4494  0.3958 -0.7965
  506SOL     OW 2021   1.581   3.084   2.846 -0.3455  0.2007 -0.1735
  506SOL    HW1 2022   1.594   3.059   2.940 -0.3222  1.7917  1.0695
  506SOL    HW2 2023   1.652   3.042   2.798  0.0057  1.9142 -1.1865
  506SOL     MW 2024   1.592   3.075   2.852 -0.2961  0.6367 -0.1432
  507SOL     OW 2025   0.882   2.792   2.863  0.2299  0.1851  0.1581
  507SOL    HW1 2026   0.907   2.888   2.825  5.8983  2.0696 -1.3343
  507SOL    HW2 2027   0.789   2.797   2.890  0.8166  1.2141 -1.3937
  507SOL     MW 2028   0.873   2.806   2.861  1.0552  0.5695 -0.2436
  508SOL     OW 2029   1.149   2.087   2.523 -0.0548 -0.3735 -0.1754
  508SOL    HW1 2030   1.239   2.071   2.553 -1.0092 -0.8393 -1.7863
  508SOL    HW2 2031   1.119   2.169   2.574 -0.3736  1.1902  0.2873
  508SOL     MW 2032   1.157   2.096   2.534 -0.2228 -0.2287 -0.3269
  509SOL     OW 2033   0.644   2.583   2.759 -1.0319 -0.3331  0.4563
  509SOL    HW1 2034   0.637   2.532   2.683 -1.2183  0.9955 -1.0835
  509SOL    HW2 2035   0.553   2.602   2.785 -1.5635  0.3260 -1.8288
  509SOL     MW 2036   0.631   2.579   2.752 -1.1266 -0.0708 -0.0484
  510SOL     OW 2037   1.523   2.555   1.688 -0.1183 -0.4671  0.2338
  510SOL    HW1 2038   1.513   2.644   1.656 -1.1823  0.2531 -2.7182
  510SOL    HW2 2039   1.473   2.533   1.773  0.3070 -1.4186 -0.2462
  510SOL     MW 2040   1.515   2.564   1.695 -0.2026 -0.4976 -0.2190
  511SOL     OW 2041   0.457   2.643   2.425  0.6784 -0.0797 -0.1098
  511SOL    HW1 2042   0.520   2.572   2.433  3.0286 -3.6361  0.7441
  511SOL    HW2 2043   0.446   2.687   2.340  1.9055  2.3094 -0.8696
  511SOL     MW 2044   0.464   2.639   2.415  1.1504 -0.2337 -0.0974
  512SOL     OW 2045   1.053   2.005   2.816 -0.2206 -0.0941 -0.1463
  512SOL    HW1 2046   0.957   2.016   2.832  0.0747  0.5694 -0.0498
  512SOL    HW2 2047   1.074   1.918   2.857 -0.7199 -1.0086  2.1889
  512SOL     MW 2048   1.043   1.995   2.824 -0.2475 -0.1272  0.1745
  513SOL     OW 2049   1.557   2.452   2.278  0.9115  0.4925 -0.0085
  513SOL    HW1 2050   1.615   2.442   2.201 -3.6030 -3.6230 -0.2055
  513SOL    HW2 2051   1.611   2.459   2.355  0.0883 -1.6086  1.5230
  513SOL     MW 2052   1.572   2.452   2.278  0.2072 -0.3277  0.1675
  514SOL     OW 2053   0.274   2.527   2.649 -0.0009  0.4567  0.6842
  514SOL    HW1 2054   0.310   2.569   2.570  1.0590  2.0781 -0.5227
  514SOL    HW2 2055   0.338   2.541   2.722 -0.1289  1.3421  1.1358
  514SOL     MW 2056   0.287   2.534   2.648  0.1220  0.7875  0.5845
  515SOL     OW 2057   1.138   2.128   1.822 -0.3150  0.1527 -0.8535
  515SOL    HW1 2058   1.081   2.199   1.848 -2.3930 -1.4787 -0.7789
  515SOL    HW2 2059   1.208   2.115   1.888  1.5882  0.7627 -2.0553
  515SOL     MW 2060   1.140   2.136   1.834 -0.3381  0.0179 -1.0022
  516SOL     OW 2061   1.488   2.443   3.033  0.1283 -0.1417 -0.7275
  516SOL    HW1 2062   1.556   2.431   2.965  3.2229  1.8384  0.4480
  516SOL    HW2 2063   1.394   2.445   3.007  1.1899  0.8166 -2.7449
  516SOL     MW 2064   1.485   2.442   3.020  0.6767  0.2460 -0.8386
  517SOL     OW 2065   0.596   2.477   2.146  0.3873 -0.4294  0.2573
  517SOL    HW1 2066   0.560   2.564   2.141 -0.9101 -0.3939 -0.0249
  517SOL    HW2 2067   0.528   2.409   2.110 -0.3879  0.7366 -0.1313
  517SOL     MW 2068   0.582   2.480   2.140  0.1139 -0.2708  0.1688
  518SOL     OW 2069   1.864   0.212   3.031  0.3332 -0.1467 -0.2790
  518SOL    HW1 2070   1.812   0.254   2.961  0.7999  1.6811  0.4809
  518SOL    HW2 2071   1.798   0.193   3.103 -0.3451 -3.1494 -0.5905
  518SOL     MW 2072   1.849   0.215   3.031  0.3053 -0.3017 -0.2199
  519SOL     OW 2073   0.683   2.515   1.727 -0.0897  1.4368  0.2258
  519SOL    HW1 2074   0.674   2.418   1.751 -3.1345  2.9229  0.0778
  519SOL    HW2 2075   0.626   2.523   1.654 -2.7230  1.5144  2.6760
  519SOL     MW 2076   0.674   2.503   1.720 -0.8388  1.6431  0.5295
  520SOL     OW 2077   1.286   2.125   2.912  0.2760  0.3108 -0.0714
  520SOL    HW1 2078   1.209   2.069   2.878 -0.2733 -1.3410 -1.1515
  520SOL    HW2 2079   1.327   2.082   2.984 -0.3884  0.0496 -0.2043
  520SOL     MW 2080   1.281   2.112   2.917  0.1159  0.0584 -0.2314
  521SOL     OW 2081   1.696   2.048   2.280 -0.5322  0.0041  0.3867
  521SOL    HW1 2082   1.717   2.093   2.193  0.6515 -1.2395 -1.2188
  521SOL    HW2 2083   1.704   1.952   2.259 -2.6413 -0.0745  0.5754
  521SOL     MW 2084   1.700   2.041   2.266 -0.6543 -0.1703  0.1998
  522SOL     OW 2085   2.857   2.558   2.163  0.4034  0.1154 -0.2740
  522SOL    HW1 2086   2.934   2.515   2.199  0.5963  0.6207  1.9115
  522SOL    HW2 2087   2.820   2.597   2.238 -2.5359  0.7708  1.2336
  522SOL     MW 2088   2.862   2.558   2.177  0.0411  0.2686  0.2133
  523SOL     OW 2089   0.866   1.511   2.159 -0.0869  0.3983 -0.0843
  523SOL    HW1 2090   0.850   1.587   2.104  2.4868  1.1878 -0.8496
  523SOL    HW2 2091   0.882   1.439   2.093  1.3054 -0.6479 -0.0372
  523SOL     MW 2092   0.866   1.511   2.143  0.4364  0.3644 -0.1790
  524SOL     OW 2093   0.782   2.381   2.929  1.1017  0.7630  0.4152
  524SOL    HW1 2094   0.710   2.417   2.875  0.0559 -2.1760 -0.0240
  524SOL    HW2 2095   0.799   2.288   2.897  1.5538 -1.7525  2.4807
  524SOL     MW 2096   0.775   2.373   2.918  1.0234  0.0433  0.6297
  525SOL     OW 2097   0.414   2.263   2.090 -0.2630  0.0321  0.8229
  525SOL    HW1 2098   0.350   2.219   2.140  0.8166 -0.4421 -2.6319
  525SOL    HW2 2099   0.444   2.192   2.032 -0.0671 -1.1282 -1.1869
  525SOL     MW 2100   0.410   2.248   2.089 -0.0947 -0.1836  0.1019
  526SOL     OW 2101   0.666   2.074   2.038  0.1562 -1.0384 -0.3441
  526SOL    HW1 2102   0.666   2.113   1.952  1.2359  1.1164  2.6815
  526SOL    HW2 2103   0.679   2.146   2.104 -0.8961  0.9732  2.4863
  526SOL     MW 2104   0.668   2.088   2.036  0.1598 -0.4887  0.4286
  527SOL     OW 2105   1.359   2.002   2.016 -0.3886 -0.2383 -0.5988
  527SOL    HW1 2106   1.352   1.994   2.112 -1.1522  1.0064 -0.6559
  527SOL    HW2 2107   1.389   1.919   1.982 -1.4025 -2.7542  1.9311
  527SOL     MW 2108   1.362   1.990   2.024 -0.6231 -0.4060 -0.2725
  528SOL     OW 2109   0.637   2.875   2.918 -0.2293  0.1707 -0.6134
  528SOL    HW1 2110   0.667   2.954   2.958  0.6176  0.0857  0.2670
  528SOL    HW2 2111   0.610   2.890   2.830  1.4466 -1.2830  1.1388
  528SOL     MW 2112   0.637   2.887   2.912  0.1036 -0.0323 -0.2660
  529SOL     OW 2113   0.984   2.346   1.875 -0.8467  0.0643  0.1392
  529SOL    HW1 2114   1.012   2.347   1.968  0.8818 -0.2979  1.0082
  529SOL    HW2 2115   1.052   2.396   1.826 -0.5396  5.4466 -2.7482
  529SOL     MW 2116   0.997   2.353   1.881 -0.5781  0.7267 -0.1271
  530SOL     OW 2117   1.200   2.431   3.021 -0.3957  0.2634 -0.1325
  530SOL    HW1 2118   1.129   2.465   3.084  1.7661  0.7784  1.2364
  530SOL    HW2 2119   1.180   2.334   3.024  1.3574 -0.4290  0.9047
  530SOL     MW 2120   1.188   2.422   3.030  0.1209  0.2400  0.1850
  531SOL     OW 2121   0.958   1.870   2.567  0.1900 -0.1205 -0.1828
  531SOL    HW1 2122   1.015   1.943   2.574 -2.4726 -0.6101  2.2332
  531SOL    HW2 2123   0.942   1.842   2.658  0.5344  0.6970 -4.6642
  531SOL     MW 2124   0.964   1.876   2.580 -0.1159 -0.0773 -0.4553
  532SOL     OW 2125   1.736   0.328   2.803  0.1579  0.0752  0.7060
  532SOL    HW1 2126   1.744   0.259   2.739  1.5998  0.2246 -1.0503
  532SOL    HW2 2127   1.818   0.378   2.802  3.0214  0.7482  0.5226
  532SOL     MW 2128   1.748   0.326   2.794  0.7259  0.1837  0.4501
  533SOL     OW 2129   1.871   2.646   3.052 -0.3701  0.4046 -0.2667
  533SOL    HW1 2130   1.856   2.569   3.117 -0.4951  0.4196 -1.6563
  533SOL    HW2 2131   1.815   2.626   2.979  0.8129  1.0534  0.7526
  533SOL     MW 2132   1.862   2.633   3.051 -0.2305  0.4922 -0.3156
  534SOL     OW 2133   1.769   2.428   2.533  0.0418 -0.1855  0.5967
  534SOL    HW1 2134   1.719   2.356   2.580 -1.0367 -2.1105 -0.1488
  534SOL    HW2 2135   1.846   2.452   2.589  0.8310 -0.6319 -1.7718
  534SOL     MW 2136   1.773   2.422   2.546  0.0037 -0.4984  0.1858
  535SOL     OW 2137   1.901   2.397   1.912 -0.0135  0.5261  0.5351
  535SOL    HW1 2138   1.862   2.424   1.831  0.2649  0.0590  2.3973
  535SOL    HW2 2139   1.987   2.438   1.908 -0.8322  1.1792  1.9647
  535SOL     MW 2140   1.907   2.406   1.901 -0.0848  0.5507  0.9694
  536SOL     OW 2141   0.481   1.820   2.070  0.6014 -0.3275  0.0425
  536SOL    HW1 2142   0.411   1.795   2.006 -0.8511  0.2222  1.5258
  536SOL    HW2 2143   0.500   1.907   2.043 -0.3639 -1.2303 -1.0966
  536SOL     MW 2144   0.474   1.828   2.058  0.2824 -0.3741  0.0879
  537SOL     OW 2145   1.094   0.183   2.836  0.0571 -0.4509 -0.6958
  537SOL    HW1 2146   1.054   0.233   2.909 -0.0216  0.9879  1.3064
  537SOL    HW2 2147   1.070   0.235   2.756 -2.0233  0.5720  0.9682
  537SOL     MW 2148   1.086   0.197   2.835 -0.2277 -0.1261 -0.2121
  538SOL     OW 2149   1.392   0.070   3.067  0.1936  0.4843  0.1888
  538SOL    HW1 2150   1.389   0.158   3.028 -1.5655  3.3200 -0.0008
  538SOL    HW2 2151   1.312   0.025   3.048  1.1029  1.1263  1.7344
  538SOL     MW 2152   1.381   0.076   3.059  0.0815  0.9432  0.3677
  539SOL     OW 2153   0.759   2.798   2.584 -0.6274  0.5299  0.5518
  539SOL    HW1 2154   0.840   2.850   2.595 -1.0425  2.7519 -1.8210
  539SOL    HW2 2155   0.753   2.729   2.647  1.3455 -1.6621 -3.4693
  539SOL     MW 2156   0.769   2.796   2.594 -0.4218  0.5339 -0.2918
  540SOL     OW 2157   0.367   2.532   2.899 -0.1825  0.2242 -0.6706
  540SOL    HW1 2158   0.347   2.562   2.988 -0.9445 -2.2808  0.2052
  540SOL    HW2 2159   0.316   2.449   2.900 -1.1512 -3.3640  1.6107
  540SOL     MW 2160   0.358   2.525   2.911 -0.4108 -0.5797 -0.2540
  541SOL     OW 2161   0.178   2.961   2.224 -0.4325 -0.0641  0.4649
  541SOL    HW1 2162   0.175   2.880   2.174  2.1800  1.7344  1.9654
  541SOL    HW2 2163   0.225   2.932   2.304 -1.5121 -2.2004 -2.4592
  541SOL     MW 2164   0.184   2.946   2.228 -0.2303 -0.1087  0.2771
  542SOL     OW 2165   1.075   2.315   2.683 -0.1645 -0.1640 -0.0923
  542SOL    HW1 2166   1.096   2.256   2.754 -0.7335  0.5700  1.1486
  542SOL    HW2 2167   1.100   2.400   2.715 -0.5842 -0.5846 -1.2807
  542SOL     MW 2168   1.081   2.319   2.697 -0.2949 -0.1227 -0.0853
  543SOL     OW 2169   1.667   2.441   2.857  0.1230 -0.2031  0.1503
  543SOL    HW1 2170   1.636   2.376   2.797  0.2535 -1.7066  2.2980
  543SOL    HW2 2171   1.662   2.519   2.806 -0.4604 -0.0731 -0.6504
  543SOL     MW 2172   1.662   2.442   2.842  0.0633 -0.3843  0.3280
  544SOL     OW 2173   0.723   0.177   2.706  0.4576 -0.7390 -0.1254
  544SOL    HW1 2174   0.633   0.192   2.712  2.5854  0.0757  1.0600
  544SOL    HW2 2175   0.730   0.161   2.612 -1.0232 -1.3260  0.1280
  544SOL     MW 2176   0.712   0.177   2.694  0.5430 -0.7089  0.0645
  545SOL     OW 2177   1.481   2.171   2.410 -0.1045 -0.0380  0.2965
  545SOL    HW1 2178   1.461   2.231   2.334 -0.7021 -0.5446  0.9654
  545SOL    HW2 2179   1.560   2.115   2.374  0.3548  0.1256 -0.9308
  545SOL     MW 2180   1.489   2.171   2.395 -0.1227 -0.0833  0.2228
  546SOL     OW 2181   2.870   1.996   0.098 -0.1829 -0.0917  0.6312
  546SOL    HW1 2182   2.845   2.070   0.043 -1.2489  0.1586 -2.2149
  546SOL    HW2 2183   2.959   1.970   0.077 -0.9292  0.0359  0.6612
  546SOL     MW 2184   2.878   2.002   0.088 -0.4220 -0.0419  0.2597
  547SOL     OW 2185   0.154   0.104   0.094 -0.1451  0.5119 -0.0116
  547SOL    HW1 2186   0.205   0.103   0.007  2.0002  0.7856 -0.8875
  547SOL    HW2 2187   0.088   0.037   0.084 -0.4825  2.2701  0.7183
  547SOL     MW 2188   0.152   0.095   0.082  0.0934  0.7800 -0.0309
  548SOL     OW 2189   0.310   2.518   0.291  0.4429  0.2972  0.0540
  548SOL    HW1 2190   0.315   2.548   0.200 -0.2799 -0.8438 -3.2322
  548SOL    HW2 2191   0.252   2.444   0.296 -3.3200 -1.4998  0.1933
  548SOL     MW 2192   0.303   2.512   0.279 -0.1490 -0.0905 -0.3612
  549SOL     OW 2193   0.834   1.911   2.194  0.5028  0.6529  0.1200
  549SOL    HW1 2194   0.792   1.994   2.170  0.6758  0.2835 -0.7741
  549SOL    HW2 2195   0.778   1.878   2.262 -2.2258  1.8477  0.7921
  549SOL     MW 2196   0.821   1.917   2.200  0.1656  0.7618  0.0907
  550SOL     OW 2197   1.812   1.719   2.537  0.3951  0.6084  0.3318
  550SOL    HW1 2198   1.827   1.739   2.446 -1.2241 -0.1257 -3.2359
  550SOL    HW2 2199   1.800   1.805   2.580 -0.0196  0.2646 -0.2969
  550SOL     MW 2200   1.813   1.733   2.530  0.1267  0.4662 -0.2219
  551SOL     OW 2201   0.903   2.322   0.228 -0.2749 -0.6464  0.5921
  551SOL    HW1 2202   0.994   2.308   0.226 -1.3499  2.6727  0.8428
  551SOL    HW2 2203   0.866   2.263   0.165 -0.7382 -1.8697  2.3938
  551SOL     MW 2204   0.910   2.313   0.219 -0.4778 -0.3699  0.8629
  552SOL     OW 2205   1.771   1.798   2.261  0.4713  0.4099  0.1381
  552SOL    HW1 2206   1.678   1.768   2.246 -0.6599  1.8289  1.4794
  552SOL    HW2 2207   1.808   1.740   2.200 -0.7057 -2.8315  2.6151
  552SOL     MW 2208   1.764   1.786   2.251  0.1667  0.1694  0.6419
  553SOL     OW 2209   1.268   2.248   1.540 -0.1248 -0.3271 -0.0129
  553SOL    HW1 2210   1.328   2.172   1.553 -1.2133 -1.7709 -0.2432
  553SOL    HW2 2211   1.329   2.310   1.493 -0.3060 -4.2084  1.9947
  553SOL     MW 2212   1.284   2.246   1.536 -0.2923 -1.0297  0.2216
  554SOL     OW 2213   0.527   2.933   2.657 -0.0246 -0.4601  0.2480
  554SOL    HW1 2214   0.517   3.009   2.599 -0.6641  2.0381 -0.3550
  554SOL    HW2 2215   0.608   2.890   2.621  0.5186 -0.4940  3.2499
  554SOL     MW 2216   0.536   2.937   2.644 -0.0373 -0.1350  0.5646
  555SOL     OW 2217   0.641   2.434   2.514 -0.1340  0.2476  0.4424
  555SOL    HW1 2218   0.600   2.348   2.517 -0.8187 -1.0295  1.5884
  555SOL    HW2 2219   0.739   2.412   2.512  2.3079  0.5301 -1.3268
  555SOL     MW 2220   0.648   2.420   2.514  0.0978  0.1164  0.3601
  556SOL     OW 2221   1.016   1.893   0.097  0.8013  0.4355  0.1514
  556SOL    HW1 2222   1.043   1.871   0.003 -1.6740  0.4739  0.2509
  556SOL    HW2 2223   1.090   1.873   0.147 -1.4431 -0.3314  0.2229
  556SOL     MW 2224   1.029   1.888   0.091  0.1786  0.3394  0.1740
  557SOL     OW 2225   0.982   2.645   0.488  0.3295  0.5217 -0.1171
  557SOL    HW1 2226   1.040   2.592   0.425 -1.1647  0.2781  0.5791
  557SOL    HW2 2227   0.969   2.734   0.449  2.9206  2.3951  2.2376
  557SOL     MW 2228   0.988   2.650   0.475  0.4743  0.7367  0.2854
  558SOL     OW 2229   0.205   2.294   2.976  0.2446 -0.3657 -0.4586
  558SOL    HW1 2230   0.132   2.269   2.922 -0.1862  2.7887 -0.7321
  558SOL    HW2 2231   0.178   2.292   3.070 -1.1519 -0.1325  3.4660
  558SOL     MW 2232   0.192   2.291   2.981  0.0035  0.0812  0.0232
  559SOL     OW 2233   1.045   2.318   2.157 -0.4408 -0.3574  0.5398
  559SOL    HW1 2234   1.131   2.331   2.195 -0.0403 -2.6500  0.6957
  559SOL    HW2 2235   1.020   2.234   2.198 -2.3347  1.9303  2.0936
  559SOL     MW 2236   1.053   2.308   2.168 -0.6379 -0.3580  0.7654
  560SOL     OW 2237   1.931   2.878   0.081  0.0275 -0.5219  0.3338
  560SOL    HW1 2238   2.019   2.894   0.048 -0.5977  0.4775  1.7309
  560SOL    HW2 2239   1.896   2.802   0.028 -0.6041 -2.0538 -0.3809
  560SOL     MW 2240   1.938   2.870   0.069 -0.1383 -0.5922  0.4238
  561SOL     OW 2241   0.343   2.144   0.096  0.3432  0.1621  0.1937
  561SOL    HW1 2242   0.323   2.162   0.005  1.8215  1.2505  1.0570
  561SOL    HW2 2243   0.391   2.229   0.113  1.0700 -0.0884 -1.4672
  561SOL     MW 2244   0.347   2.158   0.086  0.6342  0.2726  0.0884
  562SOL     OW 2245   0.708   2.216   2.281  0.0911 -0.2179 -0.1528
  562SOL    HW1 2246   0.692   2.311   2.252  1.4963  2.3864 -1.9567
  562SOL    HW2 2247   0.784   2.206   2.339 -0.9073  0.6221 -0.5066
  562SOL     MW 2248   0.716   2.227   2.284  0.1448  0.2365 -0.4375
  563SOL     OW 2249   1.238   0.430   0.549  0.0208  0.2909 -0.6254
  563SOL    HW1 2250   1.197   0.381   0.478  0.1987 -0.5701 -0.9664
  563SOL    HW2 2251   1.173   0.407   0.617 -2.2111 -3.3218 -0.3072
  563SOL     MW 2252   1.224   0.421   0.549 -0.2502 -0.2994 -0.6284
  564SOL     OW 2253   1.132   2.634   2.391 -0.7683  0.3262  0.2555
  564SOL    HW1 2254   1.149   2.681   2.318  1.6113 -2.8177  1.6442
  564SOL    HW2 2255   1.132   2.689   2.473  0.6063 -1.1059  0.3564
  564SOL     MW 2256   1.134   2.647   2.392 -0.2730 -0.2775  0.4520
  565SOL     OW 2257   2.738   2.755   2.600  0.2880  0.5387 -0.4839
  565SOL    HW1 2258   2.770   2.840   2.573 -1.0075  0.9397 -1.1998
  565SOL    HW2 2259   2.727   2.709   2.519 -0.9325 -0.7611 -1.7444
  565SOL     MW 2260   2.740   2.760   2.585 -0.0440  0.4201 -0.7447
  566SOL     OW 2261   2.143   1.880   2.415  0.7985  0.4682 -0.6948
  566SOL    HW1 2262   2.163   1.845   2.330  0.8490  0.0580 -0.7648
  566SOL    HW2 2263   2.173   1.973   2.409 -0.5145  3.2176  1.4854
  566SOL     MW 2264   2.150   1.888   2.403  0.6319  0.7768 -0.4164
  567SOL     OW 2265   1.165   3.017   3.058  0.8592 -0.2920  0.7607
  567SOL    HW1 2266   1.164   3.026   3.156  0.3509 -0.4638  0.8336
  567SOL    HW2 2267   1.216   2.932   3.045  1.4232  2.5615 -1.0331
  567SOL     MW 2268   1.172   3.007   3.069  0.8665  0.0618  0.5336
  568SOL     OW 2269   1.601   2.053   2.844 -0.4252  0.4340 -1.3913
  568SOL    HW1 2270   1.650   2.084   2.919  2.7149 -0.0532 -0.2864
  568SOL    HW2 2271   1.674   2.031   2.780  1.7363  0.8840 -2.7571
  568SOL     MW 2272   1.617   2.054   2.845  0.2743  0.4291 -1.4258
  569SOL     OW 2273   0.154   2.298   2.482 -0.7145  0.0021 -0.7513
  569SOL    HW1 2274   0.089   2.339   2.423  0.2103  3.3095 -0.1064
  569SOL    HW2 2275   0.163   2.366   2.548  0.6950 -0.6434 -0.0460
  569SOL     MW 2276   0.147   2.312   2.483 -0.4065  0.3533 -0.5732
  570SOL     OW 2277   1.498   0.341   0.505 -0.3431 -0.4151 -0.3919
  570SOL    HW1 2278   1.408   0.370   0.528 -2.5337  0.0836  1.2509
  570SOL    HW2 2279   1.542   0.350   0.589  1.8071 -1.6528 -0.2719
  570SOL     MW 2280   1.492   0.346   0.519 -0.3485 -0.5126 -0.1593
  571SOL     OW 2281   1.332   2.358   2.118  0.0649 -0.3166  0.5376
  571SOL    HW1 2282   1.408   2.403   2.158 -1.1052 -0.5715  1.0418
  571SOL    HW2 2283   1.359   2.292   2.052 -2.6238 -0.7338 -0.5454
  571SOL     MW 2284   1.346   2.356   2.114 -0.4442 -0.4053  0.4612
  572SOL     OW 2285   0.971   2.561   0.080 -0.6886  0.0177 -0.3060
  572SOL    HW1 2286   0.931   2.647   0.061 -0.2129 -2.6398 -1.2971
  572SOL    HW2 2287   0.898   2.510   0.106 -0.3013  1.5291 -2.3022
  572SOL     MW 2288   0.956   2.566   0.081 -0.5748 -0.1335 -0.7001
  573SOL     OW 2289   1.191   2.294   0.202 -0.1446 -0.9259  0.3698
  573SOL    HW1 2290   1.284   2.309   0.177  0.5467 -0.7349  1.2667
  573SOL    HW2 2291   1.177   2.389   0.236 -3.1308 -1.8254 -0.7197
  573SOL     MW 2292   1.201   2.308   0.203 -0.4474 -1.0193  0.3444
  574SOL     OW 2293   1.129   2.541   0.303 -0.3022 -0.1314  0.0030
  574SOL    HW1 2294   1.208   2.602   0.333  0.9524  1.7996 -0.8608
  574SOL    HW2 2295   1.085   2.580   0.224 -0.7114 -0.2226 -2.0242
  574SOL     MW 2296   1.134   2.554   0.296 -0.1907  0.1113 -0.3784
  575SOL     OW 2297   3.031   2.226   1.745 -0.0033  0.3519 -0.5949
  575SOL    HW1 2298   3.056   2.154   1.684  0.6397 -1.7874 -0.0174
  575SOL    HW2 2299   3.099   2.292   1.754  0.1807 -0.6361  3.9647
  575SOL     MW 2300   3.044   2.225   1.738  0.1058 -0.0607  0.0829
  576SOL     OW 2301   2.853   1.835   2.022  0.0973  0.6679  0.0428
  576SOL    HW1 2302   2.859   1.907   1.957 -0.8130 -1.6926 -0.7399
  576SOL    HW2 2303   2.765   1.813   2.005  3.1385  0.1539 -0.0046
  576SOL     MW 2304   2.842   1.842   2.011  0.3784  0.2886 -0.0667
  577SOL     OW 2305   2.077   0.225   0.103 -0.3205 -0.0378 -0.1996
  577SOL    HW1 2306   2.005   0.230   0.043  0.0355  0.5784  1.1297
  577SOL    HW2 2307   2.055   0.181   0.185 -1.0970  2.9382 -1.3482
  577SOL     MW 2308   2.065   0.220   0.106 -0.3760  0.4362 -0.1758
  578SOL     OW 2309   1.916   2.047   2.441  0.1582  0.3791  1.2570
  578SOL    HW1 2310   1.831   2.038   2.385  2.5341  1.2950  1.3297
  578SOL    HW2 2311   1.973   1.972   2.420 -0.8074 -0.4117 -0.4504
  578SOL     MW 2312   1.913   2.036   2.431  0.3443  0.3956  1.0413
  579SOL     OW 2313   0.898   2.418   2.476 -0.3624 -0.4695  0.6621
  579SOL    HW1 2314   0.965   2.382   2.538 -0.2726  0.3151 -2.2139
  579SOL    HW2 2315   0.946   2.499   2.447  1.7125  3.6860 -1.1818
  579SOL     MW 2316   0.913   2.424   2.480 -0.0768  0.1823  0.0393
  580SOL     OW 2317   0.941   2.846   0.027 -0.0928 -0.0492 -0.0063
  580SOL    HW1 2318   1.011   2.909   0.016  0.3780  0.6273 -1.0151
  580SOL    HW2 2319   0.916   2.824  -0.063 -2.3987 -1.0978 -1.1059
  580SOL     MW 2320   0.947   2.851   0.014 -0.3349 -0.0983 -0.2845
  581SOL     OW 2321   1.149   2.500   1.683  0.1729 -0.3363  0.1378
  581SOL    HW1 2322   1.200   2.553   1.743  3.0677  0.6487  1.8702
  581SOL    HW2 2323   1.205   2.421   1.670  0.0711  1.2022  1.8601
  581SOL     MW 2324   1.163   2.497   1.690  0.5414 -0.0033  0.5937
  582SOL     OW 2325   0.052   2.814   2.755  0.2887  0.6274  0.4188
  582SOL    HW1 2326   0.003   2.897   2.731 -0.0903 -0.7787 -2.3204
  582SOL    HW2 2327   0.143   2.837   2.774  0.4599  1.5972  2.1382
  582SOL     MW 2328   0.058   2.828   2.754  0.2613  0.5698  0.2843
  583SOL     OW 2329   2.010   2.436   2.683  0.3133  0.0188 -0.0680
  583SOL    HW1 2330   2.084   2.435   2.619 -2.6959 -0.0869 -1.1255
  583SOL    HW2 2331   2.007   2.354   2.722  0.4331  0.6995 -2.7706
  583SOL     MW 2332   2.019   2.425   2.680 -0.0679  0.0946 -0.5641
  584SOL     OW 2333   0.060   1.901   2.223  0.2381  0.0943 -0.3164
  584SOL    HW1 2334   0.113   1.866   2.303  1.6558 -0.9691  1.0040
  584SOL    HW2 2335   0.072   1.996   2.222 -0.9482  1.6129 -3.6591
  584SOL     MW 2336   0.068   1.909   2.234  0.2686  0.1544 -0.5832
  585SOL     OW 2337   1.576   2.622   0.161  0.3037  0.5622 -0.6909
  585SOL    HW1 2338   1.530   2.578   0.090 -1.9883  0.6596 -2.3133
  585SOL    HW2 2339   1.505   2.631   0.224 -0.5269 -0.3148  0.4586
  585SOL     MW 2340   1.560   2.617   0.160 -0.1083  0.4594 -0.7533
  586SOL     OW 2341   1.395   2.818   2.583 -0.4021 -0.1785 -0.1015
  586SOL    HW1 2342   1.419   2.804   2.489  0.6954 -2.5700 -0.8666
  586SOL    HW2 2343   1.346   2.899   2.594  6.1387 -0.1862  0.2270
  586SOL     MW 2344   1.391   2.827   2.572  0.6057 -0.4951 -0.1591
  587SOL     OW 2345   1.375   1.484   2.147  0.4096 -0.3826 -0.1146
  587SOL    HW1 2346   1.314   1.425   2.191 -2.6294 -0.3124 -1.2645
  587SOL    HW2 2347   1.411   1.432   2.073 -0.1220 -1.6929  1.0133
  587SOL     MW 2348   1.372   1.469   2.143 -0.0615 -0.5462 -0.1175
  588SOL     OW 2349   1.376   2.027   2.658  0.3310  0.0580 -0.5718
  588SOL    HW1 2350   1.343   1.938   2.662 -1.8586 -0.9292 -2.6930
  588SOL    HW2 2351   1.379   2.060   2.750  2.2074  1.1169  0.1729
  588SOL     MW 2352   1.372   2.019   2.671  0.2897  0.0674 -0.7534
  589SOL     OW 2353   1.424   2.000   0.031  0.0995 -0.1168  0.1872
  589SOL    HW1 2354   1.441   2.093   0.051  1.7999  0.2334  0.4205
  589SOL    HW2 2355   1.368   1.972   0.105  1.4770  0.5668 -0.6386
  589SOL     MW 2356   1.418   2.009   0.043  0.5056  0.0196  0.1090
  590SOL     OW 2357   0.487   2.759   2.177 -0.3074 -0.3511 -0.5587
  590SOL    HW1 2358   0.497   2.729   2.083  2.4234  0.5813  0.0654
  590SOL    HW2 2359   0.580   2.762   2.211  0.5429 -2.9250  0.1581
  590SOL     MW 2360   0.501   2.755   2.169  0.1651 -0.5677 -0.3818
  591SOL     OW 2361   2.267   0.693   0.043  0.8107  0.4146  0.4941
  591SOL    HW1 2362   2.214   0.756   0.001 -1.0137  0.1468  0.6024
  591SOL    HW2 2363   2.346   0.691  -0.018  0.8769 -2.0417 -0.8346
  591SOL     MW 2364   2.270   0.701   0.029  0.5787  0.0552  0.3331
  592SOL     OW 2365   1.738   2.923   0.767  0.2425 -0.5374  0.6855
  592SOL    HW1 2366   1.743   2.994   0.701 -0.4142  2.1365 -0.3934
  592SOL    HW2 2367   1.828   2.894   0.777 -0.1482  0.2111 -3.2314
  592SOL     MW 2368   1.750   2.929   0.759  0.1043 -0.0858  0.0264
  593SOL     OW 2369   1.959   0.686   0.822 -0.3540 -0.4158 -0.3393
  593SOL    HW1 2370   1.881   0.673   0.764  0.4591 -0.6407 -3.1878
  593SOL    HW2 2371   2.029   0.623   0.802  1.3624  0.1662  2.6956
  593SOL     MW 2372   1.958   0.676   0.812 -0.0203 -0.3687 -0.3147
  594SOL     OW 2373   2.777   1.075   1.400 -0.2847 -0.4668 -0.3063
  594SOL    HW1 2374   2.863   1.096   1.378 -1.6701  0.8349 -0.0617
  594SOL    HW2 2375   2.730   1.044   1.324  1.5194 -2.8301  1.8629
  594SOL     MW 2376   2.782   1.074   1.387 -0.2295 -0.6069  0.0122
  595SOL     OW 2377   0.466   0.919   0.825  0.0384 -0.4890  0.3529
  595SOL    HW1 2378   0.471   0.971   0.740 -0.7789 -1.8391 -0.2687
  595SOL    HW2 2379   0.446   0.977   0.897  1.3685  1.9166 -3.6002
  595SOL     MW 2380   0.464   0.933   0.823  0.1060 -0.3497 -0.2507
  596SOL     OW 2381   2.470   1.335   0.516 -0.1334  0.3487  0.1898
  596SOL    HW1 2382   2.506   1.418   0.499  0.0026  1.6581  1.4589
  596SOL    HW2 2383   2.480   1.317   0.606  0.5537  1.1363  0.9537
  596SOL     MW 2384   2.476   1.344   0.526 -0.0248  0.6254  0.4580
  597SOL     OW 2385   2.191   0.669   1.622  0.7053  0.2564  0.1828
  597SOL    HW1 2386   2.208   0.611   1.696 -0.1603 -1.2648  2.0612
  597SOL    HW2 2387   2.127   0.619   1.561 -0.4436 -0.2929 -4.1088
  597SOL     MW 2388   2.184   0.655   1.624  0.4395 -0.0168 -0.1356
  598SOL     OW 2389   2.577   1.056   2.869  0.2062 -0.1994  0.2766
  598SOL    HW1 2390   2.610   1.035   2.780 -0.3399  3.2428 -2.0332
  598SOL    HW2 2391   2.652   1.068   2.925  0.0342 -3.3502  0.5215
  598SOL     MW 2392   2.591   1.055   2.865  0.1114 -0.1610  0.0042
  599SOL     OW 2393   2.973   0.434   2.151 -0.3743  0.1032 -0.1289
  599SOL    HW1 2394   3.028   0.434   2.226 -2.0507  0.5718 -2.9798
  599SOL    HW2 2395   2.994   0.519   2.111 -4.2550  0.2422 -0.7473
  599SOL     MW 2396   2.983   0.445   2.155 -1.1075  0.1834 -0.5866
  600SOL     OW 2397   1.857   1.620   0.897  0.3874 -0.1542  0.1709
  600SOL    HW1 2398   1.923   1.661   0.953 -1.4618  0.8906  0.7978
  600SOL    HW2 2399   1.800   1.693   0.878 -1.6493  0.4581  1.1555
  600SOL     MW 2400   1.858   1.635   0.902 -0.1253  0.0644  0.3835
  601SOL     OW 2401   2.554   0.724   0.812  0.4062  0.1409 -0.1001
  601SOL    HW1 2402   2.547   0.726   0.911  1.1644  0.0957  1.1768
  601SOL    HW2 2403   2.481   0.672   0.775 -1.9206 -1.9425 -1.4998
  601SOL     MW 2404   2.543   0.717   0.820  0.1993 -0.1399 -0.1163
  602SOL     OW 2405   2.310   1.922   0.773 -0.1158 -0.0189  0.2496
  602SOL    HW1 2406   2.270   1.836   0.749  1.9789 -2.0748 -0.3205
  602SOL    HW2 2407   2.246   1.984   0.746 -1.2217 -0.7455  1.0963
  602SOL     MW 2408   2.296   1.919   0.766  0.0146 -0.3860  0.2861
  603SOL     OW 2409   2.970   1.356   1.984 -0.2926 -0.5237 -0.0075
  603SOL    HW1 2410   3.034   1.389   2.051 -2.2921  1.1518  3.2327
  603SOL    HW2 2411   2.981   1.264   1.997  0.3022 -2.9723 -1.0439
  603SOL     MW 2412   2.980   1.348   1.994 -0.4779 -0.6257  0.2833
  604SOL     OW 2413   2.033   1.461   0.439  0.2291 -0.1031 -0.1657
  604SOL    HW1 2414   2.065   1.385   0.498  0.2846 -1.0563 -0.8828
  604SOL    HW2 2415   1.976   1.514   0.498 -0.2102  2.3818  1.8646
  604SOL     MW 2416   2.030   1.458   0.454  0.1784  0.0990  0.0076
  605SOL     OW 2417   2.495   1.490   0.892 -0.0337  0.1130 -0.7019
  605SOL    HW1 2418   2.454   1.541   0.818 -3.2217 -0.7983  2.7909
  605SOL    HW2 2419   2.514   1.406   0.843 -2.2318 -0.9667 -2.3100
  605SOL     MW 2420   2.492   1.486   0.876 -0.7444 -0.1497 -0.4532
  606SOL     OW 2421   2.577   1.818   1.947  0.5984  0.0277 -0.7165
  606SOL    HW1 2422   2.482   1.810   1.950 -0.0829 -0.7685 -0.2667
  606SOL    HW2 2423   2.611   1.737   1.904  1.0574  2.7841 -0.3369
  606SOL     MW 2424   2.569   1.806   1.942  0.5690  0.2863 -0.6071
  607SOL     OW 2425   2.386   0.993   3.037  0.4101  0.1158  0.1668
  607SOL    HW1 2426   2.456   1.011   2.978  1.5665 -1.2567  1.1249
  607SOL    HW2 2427   2.419   0.964   3.121  0.3624  1.8686  1.5176
  607SOL     MW 2428   2.400   0.992   3.040  0.5563  0.1660  0.4714
  608SOL     OW 2429   1.853   0.257   0.532  0.5761  0.1147  0.0255
  608SOL    HW1 2430   1.802   0.302   0.468 -2.1455 -1.9567 -0.9873
  608SOL    HW2 2431   1.807   0.176   0.531 -0.7764 -0.9134  0.8732
  608SOL     MW 2432   1.841   0.252   0.523  0.0386 -0.2942  0.0037
  609SOL     OW 2433   2.139   1.935   3.041  0.1608  0.0626  0.2881
  609SOL    HW1 2434   2.057   1.904   2.995  3.1040 -2.1173 -0.1792
  609SOL    HW2 2435   2.117   1.909   3.137 -0.7344  1.0442  2.1697
  609SOL     MW 2436   2.125   1.928   3.048  0.4310 -0.0955  0.4747
  610SOL     OW 2437   1.788   0.941   1.213 -0.2293 -0.3828 -0.4532
  610SOL    HW1 2438   1.809   0.850   1.179 -2.7664  0.5473 -1.9454
  610SOL    HW2 2439   1.689   0.949   1.229  1.4845 -0.2063 -0.4477
  610SOL     MW 2440   1.778   0.930   1.210 -0.3380 -0.2368 -0.6494
  611SOL     OW 2441   2.452   1.662   0.689 -0.2726  0.1898 -0.3787
  611SOL    HW1 2442   2.498   1.686   0.608  1.4521 -1.9568  2.4655
  611SOL    HW2 2443   2.364   1.705   0.685 -1.2103 -1.3071 -2.2393
  611SOL     MW 2444   2.447   1.671   0.678 -0.1688 -0.2909 -0.2489
  612SOL     OW 2445   2.882   2.949   0.347  0.8943 -0.1040 -0.4474
  612SOL    HW1 2446   2.912   2.984   0.435  1.2711  0.8227 -0.8612
  612SOL    HW2 2447   2.945   2.892   0.310 -1.1044  0.5413 -0.7583
  612SOL     MW 2448   2.895   2.946   0.354  0.6803  0.1034 -0.5430
  613SOL     OW 2449   1.507   1.053   0.958  0.3854  0.4554  0.2025
  613SOL    HW1 2450   1.505   1.143   0.995  1.2231  1.5824 -0.3546
  613SOL    HW2 2451   1.553   1.001   1.020  1.8840  0.3658  2.6229
  613SOL     MW 2452   1.513   1.058   0.971  0.6936  0.5923  0.4484
  614SOL     OW 2453   2.014   0.502   1.423  0.1884 -0.5662 -0.1850
  614SOL    HW1 2454   2.003   0.431   1.486  1.1780  2.0100 -2.2898
  614SOL    HW2 2455   1.926   0.499   1.383  0.2578 -1.8598 -0.3492
  614SOL     MW 2456   2.001   0.492   1.426  0.3281 -0.3969 -0.4844
  615SOL     OW 2457   2.399   0.715   0.297 -0.2463 -0.0395 -0.0030
  615SOL    HW1 2458   2.488   0.663   0.298  1.1628 -3.0688  2.1144
  615SOL    HW2 2459   2.359   0.669   0.221  0.0792 -0.2891 -0.3974
  615SOL     MW 2460   2.406   0.702   0.287 -0.0174 -0.4721  0.2244
  616SOL     OW 2461   2.493   0.448   1.615  0.0147 -0.2595 -0.1766
  616SOL    HW1 2462   2.579   0.405   1.594 -2.5349 -2.2314 -1.9182
  616SOL    HW2 2463   2.467   0.512   1.548 -2.1087  2.3596  1.5917
  616SOL     MW 2464   2.501   0.451   1.604 -0.6018 -0.1741 -0.1731
  617SOL     OW 2465   2.861   0.624   1.767  0.1347 -0.1868  1.0733
  617SOL    HW1 2466   2.774   0.632   1.812 -1.0600  1.0420 -0.6781
  617SOL    HW2 2467   2.880   0.531   1.759  1.7759 -0.9785  3.2512
  617SOL     MW 2468   2.852   0.613   1.772  0.1936 -0.1291  1.1296
  618SOL     OW 2469   2.732   0.339   2.019  0.3025 -0.4796 -0.1046
  618SOL    HW1 2470   2.695   0.431   1.993 -1.3737 -1.0897  0.9072
  618SOL    HW2 2471   2.803   0.358   2.085  1.9955 -0.5136  0.9218
  618SOL     MW 2472   2.736   0.354   2.024  0.3047 -0.5646  0.1643
  619SOL     OW 2473   2.633   0.712   0.085  0.2588  0.2779  0.9206
  619SOL    HW1 2474   2.686   0.796   0.109  1.7318  1.1097 -0.0857
  619SOL    HW2 2475   2.640   0.655   0.161  0.8985  1.5419  0.4345
  619SOL     MW 2476   2.641   0.716   0.098  0.5375  0.5544  0.7237
  620SOL     OW 2477   2.250   1.083   0.926 -0.1377  0.1396  0.4573
  620SOL    HW1 2478   2.302   1.023   0.871 -2.3773  0.2568 -0.7332
  620SOL    HW2 2479   2.162   1.064   0.887 -0.7229 -1.4779 -1.0922
  620SOL     MW 2480   2.246   1.073   0.913 -0.5104 -0.0584  0.0958
  621SOL     OW 2481   1.489   2.219   1.939 -0.2222 -0.4308 -0.3814
  621SOL    HW1 2482   1.469   2.129   1.961  2.5503  2.0676 -2.1921
  621SOL    HW2 2483   1.585   2.224   1.958 -0.5403  0.0877  1.4948
  621SOL     MW 2484   1.499   2.208   1.944  0.1016 -0.0328 -0.3728
  622SOL     OW 2485   2.637   0.258   0.293  0.6608  0.1045  0.2878
  622SOL    HW1 2486   2.733   0.285   0.281 -0.6893  2.2031 -2.5324
  622SOL    HW2 2487   2.643   0.170   0.326  1.9430  0.8641 -1.3901
  622SOL     MW 2488   2.650   0.250   0.296  0.6519  0.4816 -0.3057
  623SOL     OW 2489   2.418   2.747   0.885 -0.1635  0.8021  0.1065
  623SOL    HW1 2490   2.484   2.813   0.890 -2.9003 -1.5999  1.7836
  623SOL    HW2 2491   2.366   2.762   0.966 -4.7123  2.2796  0.2529
  623SOL     MW 2492   2.420   2.758   0.896 -1.1247  0.6801  0.3471
  624SOL     OW 2493   2.157   1.602   3.044  0.4204 -0.1435 -0.2947
  624SOL    HW1 2494   2.090   1.534   3.043  2.8092  0.8373  1.3322
  624SOL    HW2 2495   2.117   1.673   2.995  2.4365 -0.7786  2.7489
  624SOL     MW 2496   2.143   1.603   3.038  1.0016 -0.0979  0.3215
  625SOL     OW 2497   2.253   1.897   1.064  0.2465 -0.1192 -0.7281
  625SOL    HW1 2498   2.306   1.842   1.127  0.7623  1.1676 -0.9026
  625SOL    HW2 2499   2.279   1.885   0.975 -2.3029 -0.5892 -1.6381
  625SOL     MW 2500   2.264   1.888   1.061 -0.0218 -0.0114 -0.8712
  626SOL     OW 2501   0.176   1.807   2.446 -0.9614 -0.3989  0.1792
  626SOL    HW1 2502   0.156   1.726   2.497  1.9911 -2.8549 -0.2040
  626SOL    HW2 2503   0.123   1.880   2.491  0.6839  1.3424  1.8993
  626SOL     MW 2504   0.166   1.806   2.459 -0.3547 -0.4932  0.3556
  627SOL     OW 2505   2.528   0.811   2.556 -0.6543  0.4605 -0.1479
  627SOL    HW1 2506   2.441   0.843   2.579 -0.9209 -0.6280  0.2611
  627SOL    HW2 2507   2.513   0.766   2.467 -0.9246  0.4994  1.4701
  627SOL     MW 2508   2.514   0.809   2.548 -0.7251  0.3220  0.1195
  628SOL     OW 2509   2.229   1.363   1.338  0.2840  0.0630 -0.5110
  628SOL    HW1 2510   2.201   1.280   1.303 -0.5839 -0.9783  0.4458
  628SOL    HW2 2511   2.313   1.375   1.293  2.8791 -2.3122 -0.3203
  628SOL     MW 2512   2.237   1.354   1.327  0.5119 -0.3878 -0.3596
  629SOL     OW 2513   1.769   0.492   1.301 -0.4543  0.6938 -0.1564
  629SOL    HW1 2514   1.811   0.545   1.226  1.5640  1.7286 -0.8968
  629SOL    HW2 2515   1.696   0.460   1.249  0.3224 -0.2038  1.2486
  629SOL     MW 2516   1.765   0.495   1.284 -0.0855  0.7119 -0.0687
  630SOL     OW 2517   2.410   1.870   2.990 -0.6312  0.1529  0.2101
  630SOL    HW1 2518   2.429   1.968   2.969 -1.2298  3.1016 -0.4795
  630SOL    HW2 2519   2.316   1.874   3.009 -0.2466  0.1550 -2.1213
  630SOL     MW 2520   2.400   1.884   2.990 -0.6594  0.5422 -0.1885
  631SOL     OW 2521   2.068   1.689   1.534  0.3032  0.6487 -0.1973
  631SOL    HW1 2522   2.061   1.599   1.574 -3.0110  1.1914  2.2959
  631SOL    HW2 2523   1.989   1.737   1.550  3.7388  1.6271 -1.7178
  631SOL     MW 2524   2.056   1.683   1.542  0.3192  0.8494 -0.0690
  632SOL     OW 2525   0.267   1.947   1.500  0.2369 -0.1632  0.0861
  632SOL    HW1 2526   0.180   1.976   1.542  1.4888  0.6609  0.2016
  632SOL    HW2 2527   0.273   1.850   1.490 -2.3697  0.7406 -1.4248
  632SOL     MW 2528   0.257   1.938   1.504  0.0582  0.0648 -0.0980
  633SOL     OW 2529   2.632   0.543   0.284  0.1907 -0.2247  0.4360
  633SOL    HW1 2530   2.665   0.553   0.375  2.3737  0.0570 -0.6280
  633SOL    HW2 2531   2.609   0.445   0.276  0.9981  1.2000 -3.9884
  633SOL     MW 2532   2.634   0.532   0.295  0.5853  0.0005 -0.2882
  634SOL     OW 2533   2.676   3.045   0.616 -0.4320 -0.5075  0.2771
  634SOL    HW1 2534   2.692   3.143   0.626  0.5608 -1.9299 -1.1516
  634SOL    HW2 2535   2.676   3.031   0.520 -1.3800  0.3627 -0.0049
  634SOL     MW 2536   2.678   3.056   0.605 -0.4261 -0.5803  0.0514
  635SOL     OW 2537   2.622   0.123   1.871  0.1886 -0.2722  0.6462
  635SOL    HW1 2538   2.699   0.073   1.840  1.3886 -1.5557  1.4828
  635SOL    HW2 2539   2.673   0.196   1.921  1.8124 -2.0569  2.3751
  635SOL     MW 2540   2.639   0.126   1.874  0.5611 -0.6770  0.9847
  636SOL     OW 2541   2.758   1.593   0.879 -0.5437 -0.4113  0.2979
  636SOL    HW1 2542   2.667   1.578   0.851 -2.9520  3.0257  1.0415
  636SOL    HW2 2543   2.753   1.686   0.903  0.8964 -1.2148  0.2366
  636SOL     MW 2544   2.745   1.603   0.878 -0.6714 -0.0638  0.3879
  637SOL     OW 2545   2.877   1.540   0.639 -0.0115 -0.2195 -0.0236
  637SOL    HW1 2546   2.960   1.593   0.645  1.4154 -0.6690  0.6837
  637SOL    HW2 2547   2.842   1.537   0.728  2.0294 -0.3182 -0.1423
  637SOL     MW 2548   2.884   1.546   0.652  0.4460 -0.2919  0.0541
  638SOL     OW 2549   2.740   0.506   0.531  0.4105 -0.0960  0.6820
  638SOL    HW1 2550   2.836   0.510   0.519 -0.1340  0.1298 -2.1976
  638SOL    HW2 2551   2.737   0.540   0.620  0.7581 -1.4039 -0.9762
  638SOL     MW 2552   2.752   0.511   0.541  0.3845 -0.2388  0.0833
  639SOL     OW 2553   1.753   3.092   0.523  0.1354 -0.0613 -0.0765
  639SOL    HW1 2554   1.656   3.097   0.498  1.5415 -0.0041 -0.4532
  639SOL    HW2 2555   1.795   3.007   0.498 -0.0164 -0.3808 -0.3234
  639SOL     MW 2556   1.746   3.082   0.516  0.3009 -0.0959 -0.1588
  640SOL     OW 2557   0.356   1.345   0.084 -0.0327 -0.1547  0.4408
  640SOL    HW1 2558   0.387   1.349  -0.009  0.1314 -2.4803  1.7319
  640SOL    HW2 2559   0.361   1.248   0.107 -0.4381 -1.0482 -1.9681
  640SOL     MW 2560   0.361   1.333   0.075 -0.0645 -0.5795  0.2933
  641SOL     OW 2561   2.202   0.410   0.352 -1.2554  0.3162  0.5593
  641SOL    HW1 2562   2.264   0.427   0.282  0.3077  0.6135  1.6007
  641SOL    HW2 2563   2.214   0.317   0.369  0.0843 -2.5334 -0.5912
  641SOL     MW 2564   2.212   0.400   0.345 -0.8724 -0.0206  0.5449
  642SOL     OW 2565   0.086   0.026   0.505 -0.1339  0.3921 -0.0509
  642SOL    HW1 2566   0.041   0.100   0.478  2.2556 -1.7870  3.9270
  642SOL    HW2 2567   0.019  -0.033   0.548  0.0596 -1.5467  1.9399
  642SOL     MW 2568   0.071   0.028   0.507  0.2069 -0.1512  0.7366
  643SOL     OW 2569   2.059   0.325   1.698  0.2246 -0.1483 -0.4385
  643SOL    HW1 2570   1.987   0.291   1.749  1.9513  0.7893  0.2352
  643SOL    HW2 2571   2.110   0.252   1.665 -1.8845  1.0577  0.5456
  643SOL     MW 2572   2.056   0.311   1.700  0.1742  0.1345 -0.2198
  644SOL     OW 2573   2.675   1.873   0.986  0.0444  0.3044  0.1671
  644SOL    HW1 2574   2.675   1.818   1.060 -0.6142  3.4225  1.2364
  644SOL    HW2 2575   2.609   1.943   0.996  0.8909  1.1610 -1.1471
  644SOL     MW 2576   2.667   1.875   0.997  0.0692  0.8288  0.1348
  645SOL     OW 2577   2.837   0.821   0.730 -0.3031  0.4079 -0.7889
  645SOL    HW1 2578   2.916   0.776   0.733  1.3349  3.2631  0.3277
  645SOL    HW2 2579   2.769   0.771   0.768  0.5356  0.4805  2.6996
  645SOL     MW 2580   2.839   0.809   0.736  0.0237  0.7942 -0.1813
  646SOL     OW 2581   0.088   2.308   0.838  0.2786 -0.5416  0.5469
  646SOL    HW1 2582   0.111   2.217   0.835  3.1746  0.7760 -1.6629
  646SOL    HW2 2583   0.036   2.313   0.755  1.6705  1.6899 -0.3603
  646SOL     MW 2584   0.084   2.296   0.827  0.8443 -0.0733  0.1356
  647SOL     OW 2585   2.705   0.512   3.015  0.0766 -0.0419  0.1923
  647SOL    HW1 2586   2.639   0.451   3.043  1.1389 -0.8233 -0.1867
  647SOL    HW2 2587   2.667   0.590   3.057  0.9146  0.0224  0.5733
  647SOL     MW 2588   2.691   0.515   3.025  0.3273 -0.1365  0.1926
  648SOL     OW 2589   2.272   0.727   1.095  0.6965 -0.7187 -0.4382
  648SOL    HW1 2590   2.280   0.640   1.124 -2.7511 -0.5758 -0.0076
  648SOL    HW2 2591   2.252   0.779   1.173  0.5474  1.5186  0.1258
  648SOL     MW 2592   2.270   0.722   1.109  0.2220 -0.4047 -0.3070
  649SOL     OW 2593   2.426   2.734   1.251 -0.0406 -0.1074 -0.9785
  649SOL    HW1 2594   2.509   2.778   1.273  1.6123  0.1080 -1.6224
  649SOL    HW2 2595   2.450   2.637   1.246 -0.1605 -0.9104  4.8463
  649SOL     MW 2596   2.440   2.727   1.253  0.1617 -0.1850 -0.2949
  650SOL     OW 2597   2.766   0.200   0.652  0.0868  0.5219  0.3982
  650SOL    HW1 2598   2.759   0.290   0.682 -1.0426  1.1950  0.0071
  650SOL    HW2 2599   2.849   0.203   0.598  0.2595  1.1417 -0.2043
  650SOL     MW 2600   2.776   0.212   0.649 -0.0394  0.6925  0.2671
  651SOL     OW 2601   3.101   0.458   1.005  0.4599 -0.0147  0.4267
  651SOL    HW1 2602   3.145   0.472   0.919 -1.5320 -1.1189  0.4028
  651SOL    HW2 2603   3.021   0.511   0.997 -0.8447  0.1048 -2.3063
  651SOL     MW 2604   3.096   0.467   0.992  0.0249 -0.1446  0.0630
  652SOL     OW 2605   2.354   1.415   2.998 -1.0238 -0.4083 -0.1785
  652SOL    HW1 2606   2.429   1.445   2.948  0.6953 -0.7525  1.8792
  652SOL    HW2 2607   2.298   1.488   3.009  1.4296 -1.2128 -0.3554
  652SOL     MW 2608   2.357   1.429   2.993 -0.4733 -0.5599  0.0697
  653SOL     OW 2609   1.784   0.420   0.305  0.3582 -0.4887 -0.2863
  653SOL    HW1 2610   1.778   0.331   0.270 -1.4333 -2.2329  0.0869
  653SOL    HW2 2611   1.873   0.443   0.323  0.0636 -0.0969  0.1235
  653SOL     MW 2612   1.795   0.411   0.303  0.0830 -0.6672 -0.1830
  654SOL     OW 2613   2.421   0.958   0.749 -0.1780 -0.3600 -0.2883
  654SOL    HW1 2614   2.374   0.932   0.666 -0.4341  0.4949  0.0902
  654SOL    HW2 2615   2.478   0.877   0.767 -0.7109  0.2564  1.5331
  654SOL     MW 2616   2.422   0.944   0.741 -0.2821 -0.1659  0.0019
  655SOL     OW 2617   2.906   0.890   0.391  0.5233  0.1978  0.2433
  655SOL    HW1 2618   2.833   0.932   0.435 -0.7210  0.8242 -0.7591
  655SOL    HW2 2619   2.920   0.810   0.440 -1.5300 -1.7905 -0.8854
  655SOL     MW 2620   2.898   0.885   0.404  0.0882  0.0181 -0.0379
  656SOL     OW 2621   1.774   2.660   1.381  0.0834  0.1118  0.2027
  656SOL    HW1 2622   1.805   2.751   1.363  1.3699  0.2315  1.2734
  656SOL    HW2 2623   1.839   2.605   1.341 -1.1047 -0.4888  0.9033
  656SOL     MW 2624   1.787   2.664   1.373  0.0964  0.0483  0.4364
  657SOL     OW 2625   0.124   1.781   1.184 -0.0512  0.6855  0.6068
  657SOL    HW1 2626   0.196   1.825   1.143 -3.7578  1.6514 -0.3796
  657SOL    HW2 2627   0.151   1.691   1.209  1.5371  0.1984  0.5828
  657SOL     MW 2628   0.137   1.775   1.182 -0.3307  0.7486  0.4735
  658SOL     OW 2629   2.715   1.328   0.250  0.7215 -0.5129  0.1050
  658SOL    HW1 2630   2.685   1.249   0.296  1.2915  4.1030  0.7668
  658SOL    HW2 2631   2.722   1.398   0.316 -0.4879 -0.3526  0.8819
  658SOL     MW 2632   2.712   1.327   0.265  0.6372  0.1173  0.2948
  659SOL     OW 2633   2.189   1.546   0.999 -0.0581 -0.2591 -0.0105
  659SOL    HW1 2634   2.273   1.508   1.013  0.0544 -1.4913  1.1134
  659SOL    HW2 2635   2.147   1.538   1.085 -1.2039  2.2837  3.6135
  659SOL     MW 2636   2.195   1.540   1.012 -0.1944 -0.0861  0.6159
  660SOL     OW 2637   2.093   1.454   1.695 -0.3253  0.0355 -0.5168
  660SOL    HW1 2638   2.110   1.468   1.790  0.7799 -3.6621  2.7342
  660SOL    HW2 2639   2.001   1.421   1.685 -1.5371 -2.1173 -0.9979
  660SOL     MW 2640   2.083   1.451   1.706 -0.3394 -0.7364 -0.1514
  661SOL     OW 2641   2.435   0.979   0.218 -0.6108  0.5149  0.0285
  661SOL    HW1 2642   2.511   1.023   0.261 -0.0696  2.7578  2.4285
  661SOL    HW2 2643   2.423   0.899   0.272 -1.3439 -3.9285  2.1673
  661SOL     MW 2644   2.444   0.974   0.231 -0.6362  0.2246  0.6273
  662SOL     OW 2645   2.592   2.952   0.871 -0.5218 -0.2236  0.2670
  662SOL    HW1 2646   2.556   3.034   0.896  1.4341 -1.7120  1.2863
  662SOL    HW2 2647   2.626   2.976   0.780  2.6076  0.1425  0.5176
  662SOL     MW 2648   2.591   2.966   0.862  0.1492 -0.3717  0.4346
  663SOL     OW 2649   2.684   1.526   0.438 -0.2666  0.4958 -0.4057
  663SOL    HW1 2650   2.657   1.611   0.394 -0.7374  2.0714  0.8636
  663SOL    HW2 2651   2.756   1.552   0.498  1.2177 -0.7509  2.3013
  663SOL     MW 2652   2.690   1.541   0.440 -0.1329  0.5392  0.1189
  664SOL     OW 2653   2.538   1.543   1.612 -0.1706  0.9816 -0.5493
  664SOL    HW1 2654   2.541   1.608   1.544 -2.6629 -2.2487 -1.1417
  664SOL    HW2 2655   2.468   1.488   1.598  3.2346 -0.0955 -0.3173
  664SOL     MW 2656   2.529   1.544   1.601 -0.0501  0.4133 -0.5968
  665SOL     OW 2657   2.785   0.770   2.082  0.1425 -0.0238 -0.3879
  665SOL    HW1 2658   2.769   0.849   2.023  1.3045 -1.4069 -1.7573
  665SOL    HW2 2659   2.876   0.750   2.064  1.5534 -0.1602  1.9225
  665SOL     MW 2660   2.795   0.778   2.072  0.4820 -0.2243 -0.2638
  666SOL     OW 2661   2.769   3.041   1.708 -0.2695 -0.4299 -0.3063
  666SOL    HW1 2662   2.741   3.060   1.620 -0.0978  2.4350 -0.6849
  666SOL    HW2 2663   2.730   2.956   1.724 -0.3509 -0.7494  0.7547
  666SOL     MW 2664   2.760   3.032   1.699 -0.2576 -0.0941 -0.2163
  667SOL     OW 2665   2.007   2.693   1.759  0.2967 -0.0900  0.6996
  667SOL    HW1 2666   2.025   2.667   1.851  1.8098 -1.1277  0.0724
  667SOL    HW2 2667   2.074   2.756   1.729  0.7958  0.5114  0.1312
  667SOL     MW 2668   2.018   2.698   1.767  0.5622 -0.1476  0.5419
  668SOL     OW 2669   2.755   0.553   0.817  0.2196  0.3036  0.0690
  668SOL    HW1 2670   2.807   0.602   0.891  3.4527  0.5610  1.9074
  668SOL    HW2 2671   2.670   0.603   0.828 -0.6738 -3.4307 -0.7247
  668SOL     MW 2672   2.750   0.566   0.829  0.5283 -0.1552  0.2069
  669SOL     OW 2673   0.174   0.903   0.775  0.1330  0.9974 -0.5007
  669SOL    HW1 2674   0.155   0.986   0.814 -0.4810 -2.6616  0.0957
  669SOL    HW2 2675   0.175   0.853   0.857  2.3590  1.0348 -0.8735
  669SOL     MW 2676   0.172   0.907   0.791  0.3457  0.5196 -0.4712
  670SOL     OW 2677   2.898   0.326   0.237 -0.0782 -0.0982 -0.7390
  670SOL    HW1 2678   2.914   0.266   0.164 -0.8510  0.0697  0.8151
  670SOL    HW2 2679   2.908   0.416   0.196 -2.1839  0.3086 -2.2775
  670SOL     MW 2680   2.902   0.330   0.222 -0.4580 -0.0224 -0.7370
  671SOL     OW 2681   2.001   3.019   1.567 -0.0894 -0.0801  0.0319
  671SOL    HW1 2682   1.959   2.973   1.496 -0.4936  1.7409 -2.1509
  671SOL    HW2 2683   1.942   3.019   1.643 -0.0728  2.3612 -0.1165
  671SOL     MW 2684   1.988   3.013   1.568 -0.1405  0.4822 -0.2757
  672SOL     OW 2685   1.802   1.723   1.274 -0.1232  0.8498 -0.0013
  672SOL    HW1 2686   1.834   1.768   1.350  3.1268 -3.0174  0.6258
  672SOL    HW2 2687   1.871   1.742   1.210  0.0651  2.1130  0.1327
  672SOL     MW 2688   1.815   1.732   1.276  0.3304  0.5062  0.0991
  673SOL     OW 2689   2.756   1.049   0.633  0.4615  0.2245 -0.2067
  673SOL    HW1 2690   2.785   0.966   0.674  0.9272 -0.8920  0.2158
  673SOL    HW2 2691   2.831   1.109   0.634 -0.2048 -4.3210  2.7908
  673SOL     MW 2692   2.770   1.046   0.638  0.4351 -0.5225  0.2445
  674SOL     OW 2693   2.459   3.091   1.267  0.0323  0.3266 -0.0848
  674SOL    HW1 2694   2.398   3.099   1.192  1.5355  1.4421 -0.5047
  674SOL    HW2 2695   2.508   3.007   1.259  1.4289 -0.2425 -1.5452
  674SOL     MW 2696   2.458   3.081   1.256  0.4149  0.3987 -0.3329
  675SOL     OW 2697   2.930   0.931   1.038  0.6442  0.4232  0.0797
  675SOL    HW1 2698   3.005   0.934   1.094 -1.5195 -1.0915  0.6004
  675SOL    HW2 2699   2.946   1.008   0.975 -0.5452  0.2411  1.5155
  675SOL     MW 2700   2.942   0.942   1.037  0.2018  0.1993  0.3378
  676SOL     OW 2701   2.950   1.436   1.691 -0.2508  0.5657 -0.0025
  676SOL    HW1 2702   2.900   1.359   1.654 -1.7989  0.4976 -2.7418
  676SOL    HW2 2703   2.975   1.394   1.769  4.1712  1.0722  0.6911
  676SOL     MW 2704   2.947   1.420   1.696  0.1283  0.6235 -0.2724
  677SOL     OW 2705   2.376   0.551   2.042  0.6382  0.2481  0.2124
  677SOL    HW1 2706   2.334   0.501   1.966 -1.0657  1.5211 -0.3183
  677SOL    HW2 2707   2.343   0.645   2.031 -2.2688 -0.3468 -0.2554
  677SOL     MW 2708   2.366   0.557   2.031  0.0298  0.3376  0.0807
  678SOL     OW 2709   2.475   1.649   0.309 -0.4544 -0.1205 -0.1501
  678SOL    HW1 2710   2.393   1.669   0.359  0.7383  1.6383  1.2671
  678SOL    HW2 2711   2.469   1.568   0.253  0.4896 -0.2006 -3.6088
  678SOL     MW 2712   2.463   1.641   0.308 -0.1724  0.1010 -0.4194
  679SOL     OW 2713   2.223   0.453   1.273  0.2901 -0.4571 -0.4279
  679SOL    HW1 2714   2.258   0.365   1.288  0.7558 -1.6395 -1.5572
  679SOL    HW2 2715   2.151   0.462   1.342  2.7670  3.3449  2.4494
  679SOL     MW 2716   2.218   0.443   1.284  0.6784 -0.1115 -0.1973
  680SOL     OW 2717   2.317   0.165   1.486 -0.2599  0.0839 -0.3350
  680SOL    HW1 2718   2.230   0.150   1.460  1.0210  0.1922  0.9927
  680SOL    HW2 2719   2.358   0.077   1.463 -0.4245 -3.6817 -2.3569
  680SOL     MW 2720   2.311   0.152   1.480 -0.1126 -0.3986 -0.4266
  681SOL     OW 2721   0.230   0.550   1.506 -0.2328 -0.2066 -1.0971
  681SOL    HW1 2722   0.195   0.481   1.562  0.2925  2.2566 -1.5675
  681SOL    HW2 2723   0.215   0.516   1.412  1.1302 -3.5340 -1.7580
  681SOL     MW 2724   0.224   0.536   1.501  0.0163 -0.3206 -1.2464
  682SOL     OW 2725   0.157   2.861   1.530 -0.7350  0.4896 -0.5490
  682SOL    HW1 2726   0.223   2.911   1.576  1.3374 -0.5244 -0.6314
  682SOL    HW2 2727   0.076   2.905   1.558  0.2227 -1.4645  2.0669
  682SOL     MW 2728   0.155   2.874   1.540 -0.3352  0.0980 -0.2147
  683SOL     OW 2729   2.098   0.827   2.984 -0.4479  0.0654 -0.1166
  683SOL    HW1 2730   2.040   0.754   3.010  3.1770 -0.4991  0.3985
  683SOL    HW2 2731   2.039   0.899   3.008 -1.5745  0.1295  0.9515
  683SOL     MW 2732   2.083   0.827   2.991 -0.1183 -0.0006  0.0923
  684SOL     OW 2733   2.190   1.694   0.689  0.0381 -0.1967  0.1181
  684SOL    HW1 2734   2.182   1.708   0.589  0.3638  1.0396  0.2355
  684SOL    HW2 2735   2.156   1.607   0.713 -2.1708 -1.0134 -0.8119
  684SOL     MW 2736   2.184   1.684   0.679 -0.2104 -0.1413  0.0109
  685SOL     OW 2737   2.716   1.657   1.199  0.1758  0.0032 -0.2060
  685SOL    HW1 2738   2.809   1.649   1.231  0.7853 -2.4389  0.9233
  685SOL    HW2 2739   2.683   1.569   1.228 -0.2146 -0.7661 -0.3150
  685SOL     MW 2740   2.724   1.644   1.207  0.2047 -0.4205 -0.0714
  686SOL     OW 2741   2.873   0.722   1.504 -0.1346 -0.4160  0.6281
  686SOL    HW1 2742   2.877   0.687   1.598  2.0691  0.8605  1.9195
  686SOL    HW2 2743   2.970   0.730   1.488  3.5594  0.2572 -1.2991
  686SOL     MW 2744   2.887   0.718   1.515  0.6436 -0.1588  0.5442
  687SOL     OW 2745   2.135   0.142   1.177  0.1846 -0.3860 -0.1096
  687SOL    HW1 2746   2.202   0.121   1.109  0.8015  1.4984  0.2937
  687SOL    HW2 2747   2.069   0.203   1.129 -1.0070  0.7263 -0.5693
  687SOL     MW 2748   2.135   0.147   1.161  0.1088  0.0094 -0.1170
  688SOL     OW 2749   2.402   0.621   1.434 -0.4764 -0.4156 -0.4568
  688SOL    HW1 2750   2.353   0.568   1.377  0.9284  0.6204  0.8523
  688SOL    HW2 2751   2.337   0.648   1.499  1.9778 -1.4933  1.0670
  688SOL     MW 2752   2.387   0.617   1.435  0.0328 -0.4211 -0.0830
  689SOL     OW 2753   2.491   0.722   2.972 -0.5845  0.7422  0.0059
  689SOL    HW1 2754   2.442   0.799   2.942  0.3035 -0.3364 -0.6569
  689SOL    HW2 2755   2.558   0.762   3.026 -0.0418 -0.8700 -0.6844
  689SOL     MW 2756   2.493   0.738   2.975 -0.3957  0.3872 -0.1727
  690SOL     OW 2757   2.053   0.890   1.866 -0.2836 -0.2499  0.6947
  690SOL    HW1 2758   2.033   0.799   1.879 -0.7641  1.3248  0.2553
  690SOL    HW2 2759   2.065   0.901   1.769  0.4799 -1.4277  1.3876
  690SOL     MW 2760   2.052   0.879   1.855 -0.2463 -0.1975  0.7281
  691SOL     OW 2761   2.411   0.223   0.837 -0.0771 -0.1463  0.4507
  691SOL    HW1 2762   2.496   0.248   0.871 -1.9694 -1.6955 -0.1591
  691SOL    HW2 2763   2.355   0.293   0.864 -0.3149  0.8054 -2.4796
  691SOL     MW 2764   2.415   0.235   0.845 -0.3581 -0.2252 -0.0164
  692SOL     OW 2765   2.898   1.605   1.449 -0.7480  0.1509 -0.9817
  692SOL    HW1 2766   2.896   1.567   1.540  0.1442  0.2050 -0.0717
  692SOL    HW2 2767   2.908   1.698   1.459  2.8498 -2.6592 -1.2019
  692SOL     MW 2768   2.899   1.613   1.462 -0.1556 -0.2127 -0.8907
  693SOL     OW 2769   2.319   0.443   0.117  0.2253  0.5301 -0.4062
  693SOL    HW1 2770   2.243   0.388   0.097 -0.7606  0.3554 -0.1641
  693SOL    HW2 2771   2.293   0.530   0.083  2.0726  0.0673  0.7457
  693SOL     MW 2772   2.305   0.447   0.110  0.3389  0.4460 -0.2223
  694SOL     OW 2773   1.911   1.116   1.052 -0.0431 -0.2640 -0.0234
  694SOL    HW1 2774   1.986   1.130   1.117 -0.3267  0.2552 -1.9941
  694SOL    HW2 2775   1.855   1.053   1.099 -0.0074 -3.2721 -1.2318
  694SOL     MW 2776   1.913   1.110   1.067 -0.0758 -0.5924 -0.4428
  695SOL     OW 2777   3.007   1.397   1.268  0.3940 -0.7819  0.3778
  695SOL    HW1 2778   2.983   1.428   1.182 -0.7553 -0.6219  0.1861
  695SOL    HW2 2779   2.981   1.472   1.333 -1.0399 -1.6230  2.2365
  695SOL     MW 2780   3.001   1.411   1.265  0.0532 -0.8717  0.5978
  696SOL     OW 2781   2.099   1.432   0.781  0.1480  0.4841 -0.3920
  696SOL    HW1 2782   2.124   1.460   0.866  0.4941 -0.1172  1.0093
  696SOL    HW2 2783   2.068   1.339   0.798 -2.3559  1.3989 -0.8675
  696SOL     MW 2784   2.098   1.424   0.794 -0.1367  0.5255 -0.2699
  697SOL     OW 2785   2.857   0.989   2.251  0.0755 -0.5071  0.4016
  697SOL    HW1 2786   2.799   1.071   2.261 -2.2465  1.6541  3.7497
  697SOL    HW2 2787   2.812   0.921   2.196  0.2864  0.1279 -2.0617
  697SOL     MW 2788   2.843   0.991   2.245 -0.2030 -0.1381  0.5183
  698SOL     OW 2789   2.534   0.330   0.013  0.6891 -0.3807 -0.4319
  698SOL    HW1 2790   2.450   0.369   0.051  1.0143 -1.7203  1.8086
  698SOL    HW2 2791   2.564   0.271   0.085  1.8489 -2.8969  2.4810
  698SOL     MW 2792   2.527   0.328   0.027  0.8850 -0.8894  0.2481
  699SOL     OW 2793   1.884   1.619   2.083  0.1213  0.2127  0.4284
  699SOL    HW1 2794   1.847   1.539   2.112  4.8793  0.5966  1.3775
  699SOL    HW2 2795   1.974   1.601   2.064 -2.3871 -2.4070  0.3328
  699SOL     MW 2796   1.891   1.606   2.084  0.4181 -0.0823  0.5410
  700SOL     OW 2797   2.678   0.900   1.597  0.0163 -0.0830  0.0064
  700SOL    HW1 2798   2.728   0.982   1.576  3.3334  0.4794  1.7396
  700SOL    HW2 2799   2.719   0.834   1.537 -0.8546 -1.4357 -0.2056
  700SOL     MW 2800   2.690   0.902   1.586  0.3391 -0.1872  0.2071
  701SOL     OW 2801   1.707   1.170   2.491  0.0180 -0.0020  0.4158
  701SOL    HW1 2802   1.774   1.107   2.521 -1.8232 -0.7563  0.5190
  701SOL    HW2 2803   1.665   1.224   2.560  0.6850 -1.4711  1.2203
  701SOL     MW 2804   1.710   1.168   2.504 -0.1369 -0.2953  0.5356
  702SOL     OW 2805   2.143   0.416   0.841 -0.4151 -0.2489  0.2512
  702SOL    HW1 2806   2.122   0.331   0.797  0.3325 -3.6640  1.2197
  702SOL    HW2 2807   2.199   0.464   0.778 -2.3161 -0.9234  0.7658
  702SOL     MW 2808   2.148   0.411   0.827 -0.5673 -0.7885  0.4469
  703SOL     OW 2809   2.723   1.255   1.016  0.1301 -0.1206 -0.6032
  703SOL    HW1 2810   2.655   1.268   0.948  0.3718  1.8837  0.4707
  703SOL    HW2 2811   2.693   1.176   1.068 -0.4798  0.5335  0.5971
  703SOL     MW 2812   2.710   1.246   1.014  0.0815  0.2302 -0.3031
  704SOL     OW 2813   3.036   1.274   0.133 -0.1950  0.3299  0.4889
  704SOL    HW1 2814   2.952   1.243   0.103  2.2993 -0.1054 -0.8240
  704SOL    HW2 2815   3.034   1.259   0.230  0.0547 -1.6845  1.5750
  704SOL     MW 2816   3.024   1.268   0.142  0.1671  0.0067  0.4590
  705SOL     OW 2817   2.184   1.632   1.283 -0.6947 -0.3000 -0.5061
  705SOL    HW1 2818   2.141   1.667   1.366  0.2708  0.3916  1.1770
  705SOL    HW2 2819   2.194   1.543   1.305 -1.8161 -0.2577 -0.6604
  705SOL     MW 2820   2.180   1.625   1.297 -0.7152 -0.2032 -0.3044
  706SOL     OW 2821   2.930   1.265   0.638 -0.1097 -0.0729 -0.2597
  706SOL    HW1 2822   2.995   1.248   0.572 -1.5930  2.7388 -1.4457
  706SOL    HW2 2823   2.932   1.364   0.627  0.8327 -3.1066 -1.1880
  706SOL     MW 2824   2.939   1.276   0.628 -0.1811 -0.1022 -0.5386
  707SOL     OW 2825   2.332   0.039   1.030  0.0054  0.0214 -0.7966
  707SOL    HW1 2826   2.364   0.097   0.963  2.4252 -1.4668  1.8466
  707SOL    HW2 2827   2.295  -0.035   0.975  0.8307 -0.9691  0.4012
  707SOL     MW 2828   2.331   0.037   1.014  0.4336 -0.3056 -0.2898
  708SOL     OW 2829   2.430   1.403   0.192  0.3569  0.2667 -0.1975
  708SOL    HW1 2830   2.517   1.369   0.219  0.3503 -1.0204  1.3815
  708SOL    HW2 2831   2.438   1.417   0.095 -1.6644 -3.5182 -0.0103
  708SOL     MW 2832   2.442   1.400   0.182  0.0894 -0.4025  0.0355
  709SOL     OW 2833   1.746   1.635   0.219 -0.7299 -0.0750 -0.4047
  709SOL    HW1 2834   1.738   1.642   0.122 -1.2771 -2.8533 -1.4804
  709SOL    HW2 2835   1.657   1.634   0.242 -0.2829 -0.7800 -0.4759
  709SOL     MW 2836   1.733   1.636   0.209 -0.7431 -0.5346 -0.5560
  710SOL     OW 2837   2.153   1.148   1.187 -0.2051  0.9808 -1.0917
  710SOL    HW1 2838   2.203   1.120   1.110 -0.8064 -0.4451  1.3895
  710SOL    HW2 2839   2.188   1.078   1.242 -1.2392 -1.0042  3.0219
  710SOL     MW 2840   2.164   1.135   1.184 -0.4209  0.5308 -0.2216
  711SOL     OW 2841   2.335   0.086   1.769  0.0654  0.2638  0.7291
  711SOL    HW1 2842   2.430   0.101   1.798 -0.2175  0.7985 -1.7187
  711SOL    HW2 2843   2.330   0.127   1.684  0.6778 -0.4678  0.2972
  711SOL     MW 2844   2.347   0.093   1.762  0.1088  0.2378  0.3492
  712SOL     OW 2845   1.938   0.634   3.067 -0.5808  0.0055 -0.2681
  712SOL    HW1 2846   1.847   0.656   3.065  1.7194  1.5246  1.2840
  712SOL    HW2 2847   1.972   0.649   3.159  1.9240  0.2879 -0.7588
  712SOL     MW 2848   1.931   0.639   3.079  0.0532  0.2432 -0.1280
  713SOL     OW 2849   2.541   0.721   1.086 -0.6175 -0.4522 -0.0553
  713SOL    HW1 2850   2.562   0.646   1.135  0.4053  0.8369  0.5503
  713SOL    HW2 2851   2.456   0.748   1.116 -0.7606  1.4566  2.3845
  713SOL     MW 2852   2.532   0.715   1.096 -0.5014 -0.0303  0.3465
  714SOL     OW 2853   2.190   0.159   2.008  0.1419  0.6819 -0.1786
  714SOL    HW1 2854   2.249   0.128   2.082 -0.9433 -2.3852 -0.1185
  714SOL    HW2 2855   2.249   0.150   1.927  0.4831  0.7097 -1.7553
  714SOL     MW 2856   2.205   0.154   2.007  0.0437  0.2809 -0.3787
  715SOL     OW 2857   1.830   2.043   1.733  0.1353  0.2305 -0.0011
  715SOL    HW1 2858   1.917   2.078   1.727 -2.4302 -0.6957  0.6289
  715SOL    HW2 2859   1.825   1.959   1.787 -0.1099 -1.8107 -0.5764
  715SOL     MW 2860   1.841   2.036   1.739 -0.2355 -0.1610  0.0061
  716SOL     OW 2861   2.331   0.551   0.687 -0.1407 -0.1049 -0.8426
  716SOL    HW1 2862   2.367   0.473   0.645  0.0683  2.4136 -0.9308
  716SOL    HW2 2863   2.289   0.583   0.605  0.1356 -3.5443 -3.1675
  716SOL     MW 2864   2.331   0.545   0.671 -0.0767 -0.2264 -1.1610
  717SOL     OW 2865   2.808   1.650   2.885  0.1432 -0.0494  0.0671
  717SOL    HW1 2866   2.868   1.606   2.940 -0.2556 -2.1674 -1.9228
  717SOL    HW2 2867   2.773   1.738   2.921 -1.0328  0.2321  1.6838
  717SOL     MW 2868   2.811   1.656   2.897 -0.0646 -0.2917  0.0179
  718SOL     OW 2869   2.662   1.406   1.311 -0.2060 -0.1711 -0.1399
  718SOL    HW1 2870   2.656   1.442   1.397 -0.7412  1.5004 -1.2893
  718SOL    HW2 2871   2.747   1.360   1.299 -0.0842  0.4947 -0.1508
  718SOL     MW 2872   2.672   1.405   1.321 -0.2605  0.1373 -0.2930
  719SOL     OW 2873   2.172   1.236   0.568  0.1416 -0.0267 -0.0070
  719SOL    HW1 2874   2.244   1.254   0.505 -0.6420 -2.0487  1.3109
  719SOL    HW2 2875   2.198   1.262   0.660  1.6051 -1.0144  3.8356
  719SOL     MW 2876   2.185   1.242   0.571  0.2313 -0.4238  0.6738
  720SOL     OW 2877   2.794   1.166   0.046 -0.4386 -0.4616  0.2718
  720SOL    HW1 2878   2.805   1.079   0.088  0.1612 -0.6689 -0.5476
  720SOL    HW2 2879   2.761   1.226   0.118 -2.2662 -2.0681  0.0163
  720SOL     MW 2880   2.791   1.162   0.061 -0.6006 -0.7009  0.1300
  721SOL     OW 2881   2.492   0.880   1.425  0.1526 -0.3806  0.0365
  721SOL    HW1 2882   2.483   0.786   1.426 -0.9220  0.4250  0.9531
  721SOL    HW2 2883   2.547   0.893   1.499 -1.4722  1.2925 -2.2768
  721SOL     MW 2884   2.498   0.869   1.435 -0.2036 -0.0536 -0.1478
  722SOL     OW 2885   2.598   1.117   0.381  0.1954 -0.0559 -1.1575
  722SOL    HW1 2886   2.544   1.177   0.421  2.0225 -1.6359 -1.9223
  722SOL    HW2 2887   2.658   1.095   0.455 -0.2551  0.0907  0.2611
  722SOL     MW 2888   2.599   1.122   0.396  0.3770 -0.2450 -1.0712
  723SOL     OW 2889   2.326   1.361   1.598 -0.0444  0.6424 -0.2637
  723SOL    HW1 2890   2.301   1.343   1.508  0.2149 -2.4807 -0.6940
  723SOL    HW2 2891   2.250   1.408   1.639 -0.8672 -3.2645  3.5096
  723SOL     MW 2892   2.313   1.365   1.592 -0.1187 -0.2851  0.1774
  724SOL     OW 2893   2.463   0.328   0.575  0.1622 -0.4898  0.3576
  724SOL    HW1 2894   2.456   0.259   0.637  2.1934  2.5116  1.8314
  724SOL    HW2 2895   2.548   0.338   0.538 -1.5973  1.2449 -0.1891
  724SOL     MW 2896   2.473   0.321   0.578  0.1980  0.1351  0.4799
  725SOL     OW 2897   2.598   0.408   1.227  0.1721  0.0596 -0.2047
  725SOL    HW1 2898   2.681   0.450   1.248 -0.0865  1.3139  0.5248
  725SOL    HW2 2899   2.548   0.428   1.306  0.0688 -3.3166  2.1290
  725SOL     MW 2900   2.602   0.416   1.240  0.1244 -0.2204  0.1994
  726SOL     OW 2901   2.519   2.503   0.517 -0.1777 -0.0553  0.2766
  726SOL    HW1 2902   2.482   2.588   0.534  0.5730  0.8950  2.0892
  726SOL    HW2 2903   2.517   2.462   0.607 -0.0939  1.2741  1.2356
  726SOL     MW 2904   2.514   2.509   0.531 -0.0676  0.2455  0.6423
  727SOL     OW 2905   2.859   0.337   1.779 -0.2964 -0.1134 -0.1971
  727SOL    HW1 2906   2.785   0.308   1.727 -2.9224  1.8227  0.4793
  727SOL    HW2 2907   2.834   0.339   1.878  1.3398 -0.4152 -0.0367
  727SOL     MW 2908   2.846   0.334   1.786 -0.4270  0.1022 -0.0867
  728SOL     OW 2909   2.833   1.143   2.866 -0.0674  0.1542 -0.2914
  728SOL    HW1 2910   2.850   1.211   2.794 -0.1663 -0.2586  0.7184
  728SOL    HW2 2911   2.849   1.191   2.945  2.1330 -0.1970 -2.2834
  728SOL     MW 2912   2.838   1.158   2.867  0.2098  0.0534 -0.4210
  729SOL     OW 2913   2.461   1.467   1.162  0.2098 -0.0482  0.8421
  729SOL    HW1 2914   2.534   1.424   1.207 -0.2791 -1.5971 -1.6018
  729SOL    HW2 2915   2.497   1.495   1.076 -2.1170 -0.0908 -0.8789
  729SOL     MW 2916   2.475   1.465   1.157 -0.1617 -0.2582  0.2926
  730SOL     OW 2917   2.280   1.191   0.287 -0.6046 -0.2070  0.2798
  730SOL    HW1 2918   2.343   1.118   0.259  0.7268 -3.8291  0.1268
  730SOL    HW2 2919   2.322   1.272   0.254  2.6091 -0.3313 -2.5590
  730SOL     MW 2920   2.294   1.192   0.279 -0.0049 -0.7013 -0.1149
  731SOL     OW 2921   2.794   2.064   2.878 -0.0532  0.0245 -0.5004
  731SOL    HW1 2922   2.728   2.038   2.817 -0.0256 -0.1602 -1.8264
  731SOL    HW2 2923   2.882   2.050   2.842 -0.9864  0.5424  0.8870
  731SOL     MW 2924   2.797   2.059   2.865 -0.1727  0.0685 -0.4923
  732SOL     OW 2925   2.238   0.908   1.341  0.2260  0.5972 -0.0096
  732SOL    HW1 2926   2.196   0.935   1.420 -1.8525 -1.0955 -0.6545
  732SOL    HW2 2927   2.330   0.906   1.376  2.5724  1.4539 -0.2832
  732SOL     MW 2928   2.245   0.911   1.356  0.2614  0.4869 -0.1308
  733SOL     OW 2929   2.431   2.823   3.019  0.4134  0.2381  0.3600
  733SOL    HW1 2930   2.347   2.876   3.031 -0.2112 -0.7896  1.9664
  733SOL    HW2 2931   2.407   2.729   3.016 -1.2300  1.0157 -2.0523
  733SOL     MW 2932   2.416   2.818   3.020  0.1142  0.2051  0.2537
  734SOL     OW 2933   1.500   0.299   2.534  0.4212 -0.3111  0.3298
  734SOL    HW1 2934   1.468   0.255   2.615  1.9093 -0.3966  3.0253
  734SOL    HW2 2935   1.485   0.231   2.467 -1.9468 -2.0202 -0.2784
  734SOL     MW 2936   1.494   0.284   2.536  0.3051 -0.5479  0.6052
  735SOL     OW 2937   2.938   0.900   2.620  0.2085 -0.0279  0.9051
  735SOL    HW1 2938   2.922   0.804   2.618 -1.4033  0.8383 -1.7520
  735SOL    HW2 2939   2.989   0.928   2.697  1.4614  0.7330 -0.6868
  735SOL     MW 2940   2.942   0.891   2.630  0.1612  0.1867  0.3445
  736SOL     OW 2941   0.085   0.626   2.561 -0.0220  0.3273  0.6278
  736SOL    HW1 2942   0.096   0.680   2.480 -2.1414  0.4260 -0.0031
  736SOL    HW2 2943   0.068   0.538   2.526  1.4111  2.0790  0.9511
  736SOL     MW 2944   0.084   0.622   2.546 -0.1126  0.5715  0.5872
  737SOL     OW 2945   2.920   0.622   2.655  0.1763  0.6424 -0.0798
  737SOL    HW1 2946   2.879   0.585   2.576 -3.8024  0.8794 -1.0648
  737SOL    HW2 2947   3.012   0.623   2.629 -0.0437  3.2708 -1.8572
  737SOL     MW 2948   2.927   0.618   2.641 -0.3776  1.0205 -0.4443
  738SOL     OW 2949   0.205   0.595   1.925  0.0609  0.1176 -0.2533
  738SOL    HW1 2950   0.292   0.633   1.930  0.8794  0.0715  0.6589
  738SOL    HW2 2951   0.213   0.520   1.865  1.1394  0.6642 -1.6242
  738SOL     MW 2952   0.218   0.590   1.918  0.3112  0.1836 -0.3138
  739SOL     OW 2953   2.487   1.015   2.064  0.0389  0.2706 -0.0593
  739SOL    HW1 2954   2.473   0.922   2.030 -1.9694  0.3907 -1.5232
  739SOL    HW2 2955   2.507   1.067   1.984  2.8241 -0.4590  0.9935
  739SOL     MW 2956   2.488   1.009   2.049  0.1414  0.1902 -0.1135
  740SOL     OW 2957   0.175   1.768   2.915 -0.3885  0.8254  0.1789
  740SOL    HW1 2958   0.133   1.684   2.917  1.6151  0.1633 -0.1505
  740SOL    HW2 2959   0.260   1.753   2.959 -2.0174  0.3632  0.6898
  740SOL     MW 2960   0.180   1.755   2.921 -0.3391  0.6771  0.2028
  741SOL     OW 2961   2.187   1.211   2.696  0.4844 -0.8196  0.3189
  741SOL    HW1 2962   2.139   1.287   2.657  1.0939  0.3318  4.3832
  741SOL    HW2 2963   2.148   1.208   2.784 -0.0905 -0.3189  0.6768
  741SOL     MW 2964   2.176   1.221   2.703  0.4890 -0.6016  0.9024
  742SOL     OW 2965   1.678   1.250   2.210  0.7585  0.2456 -0.2685
  742SOL    HW1 2966   1.589   1.217   2.183 -0.4676 -0.4529  0.0795
  742SOL    HW2 2967   1.698   1.225   2.303 -1.0239  2.1314  1.7278
  742SOL     MW 2968   1.669   1.242   2.219  0.3616  0.4023  0.0408
  743SOL     OW 2969   2.480   1.257   2.727  0.1655 -0.3944 -0.2636
  743SOL    HW1 2970   2.387   1.254   2.740  2.5589  1.8060  0.2162
  743SOL    HW2 2971   2.532   1.201   2.784  2.1124 -0.5470  3.4838
  743SOL     MW 2972   2.475   1.249   2.736  0.7381 -0.1242  0.2941
  744SOL     OW 2973   2.765   0.928   1.861  0.6093 -0.1283 -0.3674
  744SOL    HW1 2974   2.719   1.007   1.873  0.4855 -2.7254 -1.1044
  744SOL    HW2 2975   2.744   0.892   1.774  1.5476  0.2143 -0.2159
  744SOL     MW 2976   2.756   0.934   1.851  0.7168 -0.4257 -0.4446
  745SOL     OW 2977   1.749   0.421   2.511 -0.1784  0.5475 -0.4441
  745SOL    HW1 2978   1.733   0.473   2.431  1.1751  0.1402 -0.3398
  745SOL    HW2 2979   1.659   0.393   2.533 -0.8942  3.4705 -1.8847
  745SOL     MW 2980   1.735   0.424   2.503 -0.0943  0.8794 -0.6204
  746SOL     OW 2981   1.605   1.475   1.650  0.5798 -0.5165 -0.0410
  746SOL    HW1 2982   1.703   1.477   1.637  0.6305  3.3290 -0.9419
  746SOL    HW2 2983   1.590   1.442   1.737  0.1306 -0.6779 -0.5244
  746SOL     MW 2984   1.616   1.471   1.660  0.5272 -0.0304 -0.2237
  747SOL     OW 2985   2.583   1.138   1.804 -0.1347 -0.0079 -0.2028
  747SOL    HW1 2986   2.487   1.121   1.812 -2.5945 -0.7003  2.1431
  747SOL    HW2 2987   2.593   1.226   1.846 -0.4000  0.3409  1.2930
  747SOL     MW 2988   2.572   1.147   1.810 -0.4942 -0.0532  0.3041
  748SOL     OW 2989   0.090   0.007   1.892  0.0655 -0.4928  0.5279
  748SOL    HW1 2990   0.170   0.055   1.874 -0.6284 -0.1085  1.7832
  748SOL    HW2 2991   0.074   0.031   1.978 -1.9634 -0.0652 -1.0816
  748SOL     MW 2992   0.098   0.016   1.901 -0.2938 -0.3857  0.4812
  749SOL     OW 2993   2.497   0.604   2.722 -0.3383  0.4445  0.2220
  749SOL    HW1 2994   2.509   0.678   2.659 -1.5308  0.6291 -0.3202
  749SOL    HW2 2995   2.497   0.637   2.816 -0.3592  2.7558 -0.6623
  749SOL     MW 2996   2.499   0.618   2.726 -0.4984  0.7738  0.0338
  750SOL     OW 2997   2.056   3.032   1.965  0.4693  0.2705 -0.1607
  750SOL    HW1 2998   2.093   3.119   1.978 -1.1530  2.0799  0.2000
  750SOL    HW2 2999   2.133   2.969   1.963  2.7121 -0.2218  0.8958
  750SOL     MW 3000   2.071   3.035   1.966  0.5512  0.4443  0.0263
  751SOL     OW 3001   0.053   0.415   2.360  0.3411 -0.7065  0.1946
  751SOL    HW1 3002   0.047   0.329   2.407  1.2604 -0.6529  1.4019
  751SOL    HW2 3003   0.139   0.408   2.324  2.1809 -0.9322  2.2976
  751SOL     MW 3004   0.063   0.403   2.361  0.7051 -0.7292  0.6314
  752SOL     OW 3005   2.133   0.749   2.721 -0.0777 -0.2869 -0.1087
  752SOL    HW1 3006   2.178   0.816   2.668 -0.4795  1.2158 -0.1518
  752SOL    HW2 3007   2.115   0.785   2.808 -0.4870 -0.1991 -0.4094
  752SOL     MW 3008   2.137   0.762   2.725 -0.1847 -0.0770 -0.1540
  753SOL     OW 3009   2.910   0.242   2.451  0.0277 -0.5019  0.2255
  753SOL    HW1 3010   2.873   0.176   2.388 -2.4418 -4.6555 -0.4172
  753SOL    HW2 3011   2.857   0.314   2.428  2.5058 -2.6782 -0.0493
  753SOL     MW 3012   2.898   0.243   2.440  0.0288 -1.3371  0.1044
  754SOL     OW 3013   2.275   2.981   2.593 -0.2146 -0.2587 -0.5471
  754SOL    HW1 3014   2.274   2.959   2.501 -2.3385 -0.6569 -2.5197
  754SOL    HW2 3015   2.341   2.930   2.650  0.2838 -1.4718  3.1146
  754SOL     MW 3016   2.284   2.971   2.588 -0.4291 -0.4713 -0.3243
  755SOL     OW 3017   2.738   1.516   2.465  0.6867 -0.3556 -0.4679
  755SOL    HW1 3018   2.731   1.432   2.513 -0.0288 -0.7000  2.7284
  755SOL    HW2 3019   2.795   1.564   2.528 -0.2615 -2.7471 -0.8386
  755SOL     MW 3020   2.744   1.511   2.480  0.4672 -0.7166 -0.0951
  756SOL     OW 3021   2.200   1.194   2.993 -0.2411  0.3669 -0.4565
  756SOL    HW1 3022   2.249   1.276   3.016 -3.4711  0.1388  1.3623
  756SOL    HW2 3023   2.267   1.129   3.012 -0.1892  0.5476 -1.1514
  756SOL     MW 3024   2.215   1.196   2.998 -0.6604  0.3607 -0.3082
  757SOL     OW 3025   2.098   0.926   1.594 -0.6650 -0.6441  0.1317
  757SOL    HW1 3026   2.136   0.836   1.591  0.4215  0.4495 -0.7067
  757SOL    HW2 3027   2.005   0.925   1.557  0.3364 -1.3606  1.5466
  757SOL     MW 3028   2.090   0.914   1.589 -0.3895 -0.5944  0.2078
  758SOL     OW 3029   2.221   1.776   2.654  0.5847  0.5703 -0.6218
  758SOL    HW1 3030   2.217   1.823   2.571 -2.4476 -1.3754 -0.4283
  758SOL    HW2 3031   2.327   1.762   2.662 -0.8167  1.2460 -1.6709
  758SOL     MW 3032   2.235   1.781   2.645 -0.0003  0.4028 -0.7347
  759SOL     OW 3033   1.582   1.352   2.665 -0.7069 -0.0354 -0.1266
  759SOL    HW1 3034   1.581   1.434   2.612 -0.6755 -0.4790 -1.0685
  759SOL    HW2 3035   1.631   1.377   2.743  0.4163  1.3485 -0.3041
  759SOL     MW 3036   1.589   1.366   2.668 -0.5546  0.0886 -0.2743
  760SOL     OW 3037   2.596   1.998   2.706 -0.4842  0.6973 -0.3696
  760SOL    HW1 3038   2.572   1.911   2.680  0.3830 -0.3539  1.6562
  760SOL    HW2 3039   2.594   2.062   2.632 -0.4129  1.0227  1.3566
  760SOL     MW 3040   2.592   1.995   2.693 -0.3604  0.6016  0.1254
  761SOL     OW 3041   2.186   0.369   2.434 -0.2990  0.2443 -0.1057
  761SOL    HW1 3042   2.124   0.300   2.419  1.8695  1.2283 -0.3638
  761SOL    HW2 3043   2.189   0.377   2.531  1.7489 -0.7698 -1.3415
  761SOL     MW 3044   2.178   0.361   2.445  0.2573  0.2403 -0.3028
  762SOL     OW 3045   0.078   0.191   2.135  0.2420  0.3095  0.5164
  762SOL    HW1 3046   0.049   0.144   2.212 -0.8076 -0.6789  2.3970
  762SOL    HW2 3047   0.000   0.245   2.121 -2.2453  0.8206 -1.2151
  762SOL     MW 3048   0.064   0.192   2.143 -0.2246  0.2465  0.5361
  763SOL     OW 3049   2.362   1.013   2.348 -0.6669  0.0175  0.7051
  763SOL    HW1 3050   2.393   1.006   2.259  0.0614 -1.9054 -0.2785
  763SOL    HW2 3051   2.412   1.099   2.368  0.2133 -1.3998 -0.2443
  763SOL     MW 3052   2.373   1.024   2.339 -0.4547 -0.4232  0.4501
  764SOL     OW 3053   0.454   0.243   2.804  0.4988 -0.4084  0.2366
  764SOL    HW1 3054   0.392   0.186   2.768  2.1620 -0.8013  2.9716
  764SOL    HW2 3055   0.420   0.331   2.801  0.9427  2.0067 -0.3032
  764SOL     MW 3056   0.441   0.247   2.799  0.7768 -0.1416  0.5263
  765SOL     OW 3057   2.770   0.039   2.335  0.2141 -0.1761  0.4653
  765SOL    HW1 3058   2.704   0.018   2.258  0.9106 -2.3655  0.1072
  765SOL    HW2 3059   2.798  -0.051   2.358 -1.5073 -0.7758 -0.8670
  765SOL     MW 3060   2.765   0.024   2.328  0.0789 -0.5441  0.2423
  766SOL     OW 3061   1.853   2.986   2.143  0.2313  0.0873  0.0695
  766SOL    HW1 3062   1.926   3.001   2.090 -1.2112  3.0909  1.9962
  766SOL    HW2 3063   1.799   2.917   2.102  0.2023 -1.9583 -0.0151
  766SOL     MW 3064   1.856   2.979   2.130  0.0372  0.2137  0.3125
  767SOL     OW 3065   2.622   0.585   1.955 -0.1993 -0.4059  0.9501
  767SOL    HW1 3066   2.687   0.638   1.999  0.6298 -0.7185  0.9565
  767SOL    HW2 3067   2.543   0.570   2.011 -0.2285 -0.3282  1.8492
  767SOL     MW 3068   2.620   0.590   1.968 -0.0937 -0.4369  1.0696
  768SOL     OW 3069  -0.000   1.543   2.942 -0.2578 -0.4086 -0.0322
  768SOL    HW1 3070   0.035   1.511   3.025  1.1606 -1.8494  0.1723
  768SOL    HW2 3071   0.014   1.481   2.876 -0.1123  3.1170  2.6201
  768SOL     MW 3072   0.006   1.531   2.944 -0.0515 -0.1335  0.3447
  769SOL     OW 3073   2.456   0.676   2.348 -0.0120  0.6497  0.0318
  769SOL    HW1 3074   2.370   0.633   2.331 -1.5799 -1.2599  1.9541
  769SOL    HW2 3075   2.512   0.603   2.334 -2.6840  0.0230  1.0311
  769SOL     MW 3076   2.452   0.660   2.344 -0.5714  0.3151  0.4173
  770SOL     OW 3077   0.091   1.604   2.610  0.0205  0.3883 -0.3418
  770SOL    HW1 3078  -0.008   1.623   2.622  1.2007 -0.6733  1.7390
  770SOL    HW2 3079   0.105   1.531   2.669  0.6716 -0.9611  0.0865
  770SOL     MW 3080   0.080   1.597   2.620  0.2621  0.0702 -0.0107
  771SOL     OW 3081   3.054   0.660   2.010  0.2648  0.4973  0.5025
  771SOL    HW1 3082   3.022   0.655   1.923  0.0244 -1.5074 -0.2255
  771SOL    HW2 3083   3.149   0.631   2.007 -2.3516 -0.0807  0.1720
  771SOL     MW 3084   3.062   0.655   1.998 -0.1121  0.1565  0.3629
  772SOL     OW 3085   3.097   0.021   2.328  0.4387 -0.4981 -0.4807
  772SOL    HW1 3086   3.031  -0.030   2.371 -0.1619  2.1396  0.7423
  772SOL    HW2 3087   3.168  -0.038   2.294 -0.4327  1.8310 -1.5835
  772SOL     MW 3088   3.098   0.007   2.329  0.2445  0.1572 -0.4649
  773SOL     OW 3089   2.455   2.841   2.724 -0.3792 -0.4328  0.0236
  773SOL    HW1 3090   2.437   2.758   2.684 -0.0219  0.1350  1.7856
  773SOL    HW2 3091   2.460   2.811   2.816 -1.0551  0.2165  0.2436
  773SOL     MW 3092   2.453   2.826   2.731 -0.4212 -0.2722  0.2851
  774SOL     OW 3093   2.300   1.108   1.734 -0.1608 -0.9019  0.9345
  774SOL    HW1 3094   2.311   1.182   1.675 -0.3972  0.9003  1.3879
  774SOL    HW2 3095   2.237   1.058   1.692 -0.8032 -0.5462 -0.4552
  774SOL     MW 3096   2.293   1.111   1.720 -0.2767 -0.6172  0.8109
  775SOL     OW 3097   2.263   2.885   2.325 -0.2275 -0.5821  0.3982
  775SOL    HW1 3098   2.302   2.964   2.287 -1.0371  0.0902  0.5469
  775SOL    HW2 3099   2.332   2.817   2.305  0.5844  2.0276  0.4142
  775SOL     MW 3100   2.277   2.886   2.318 -0.2272 -0.1491  0.4199
  776SOL     OW 3101   0.107   1.472   0.104  0.1817 -0.0025  0.0916
  776SOL    HW1 3102   0.183   1.417   0.126 -3.9142  3.0805 -2.7462
  776SOL    HW2 3103   0.040   1.400   0.108  0.1157  1.0292 -0.7926
  776SOL     MW 3104   0.109   1.455   0.107 -0.3674  0.5404 -0.3994
  777SOL     OW 3105   2.932   1.130   1.771 -0.2304  0.7896  0.0818
  777SOL    HW1 3106   2.847   1.169   1.757 -1.3438  1.7978  0.0787
  777SOL    HW2 3107   2.904   1.037   1.794 -1.0742 -0.6756 -0.9914
  777SOL     MW 3108   2.917   1.123   1.772 -0.4886  0.7293 -0.0602
  778SOL     OW 3109   2.881   0.420   2.831 -0.0415  0.3524 -0.0674
  778SOL    HW1 3110   2.817   0.447   2.905 -0.5224 -0.3528 -1.6723
  778SOL    HW2 3111   2.878   0.495   2.767 -1.4697  0.6183 -1.8153
  778SOL     MW 3112   2.872   0.433   2.833 -0.2934  0.2944 -0.5098
  779SOL     OW 3113   2.158   0.619   2.337  0.0782  0.2881 -0.0895
  779SOL    HW1 3114   2.133   0.662   2.410  5.5564 -3.6300 -2.3443
  779SOL    HW2 3115   2.163   0.530   2.368 -1.7121  1.4650  0.8619
  779SOL     MW 3116   2.155   0.613   2.351  0.5648 -0.0736 -0.2615
  780SOL     OW 3117   0.230   0.092   2.746 -0.2694  0.0039  0.0607
  780SOL    HW1 3118   0.164   0.146   2.789  1.3072  0.8011 -0.5565
  780SOL    HW2 3119   0.209   0.085   2.653 -1.5266  1.8929 -1.5926
  780SOL     MW 3120   0.219   0.098   2.739 -0.2272  0.3584 -0.2389
  781SOL     OW 3121   3.055   1.291   2.501  0.2519  0.2090  0.4557
  781SOL    HW1 3122   3.046   1.341   2.419 -0.8863  0.2240 -0.7128
  781SOL    HW2 3123   3.055   1.199   2.473  0.6984 -1.5068  2.5012
  781SOL     MW 3124   3.054   1.285   2.487  0.1606 -0.0154  0.5714
  782SOL     OW 3125   0.541   1.504   3.028 -0.3342  0.0395 -0.9031
  782SOL    HW1 3126   0.487   1.580   3.002 -1.1078  0.8923 -1.1030
  782SOL    HW2 3127   0.543   1.505   3.121  0.2109 -1.6623 -3.7937
  782SOL     MW 3128   0.534   1.514   3.037 -0.3643 -0.0725 -1.3109
  783SOL     OW 3129   2.781   0.496   2.455  0.0061 -0.1347  0.2117
  783SOL    HW1 3130   2.730   0.497   2.374 -0.6490  0.6024  1.5708
  783SOL    HW2 3131   2.713   0.462   2.515 -0.1015  1.8306  1.7062
  783SOL     MW 3132   2.765   0.491   2.452 -0.0945  0.2219  0.5882
  784SOL     OW 3133   0.273   0.935   2.889 -0.7638 -0.4152  0.6073
  784SOL    HW1 3134   0.229   0.996   2.953 -3.4958  2.1926  1.2000
  784SOL    HW2 3135   0.260   0.979   2.799 -0.3086  0.4129 -1.6909
  784SOL     MW 3136   0.266   0.949   2.886 -1.0642  0.0381  0.3823
  785SOL     OW 3137   0.447   0.523   2.178 -0.0183 -0.5861  0.3188
  785SOL    HW1 3138   0.472   0.565   2.091  0.9992 -2.4471  1.3638
  785SOL    HW2 3139   0.367   0.463   2.164  0.2942 -0.6087 -4.6369
  785SOL     MW 3140   0.440   0.520   2.165  0.1572 -0.8346 -0.1972
  786SOL     OW 3141   1.992   0.478   2.798 -0.8076  0.4692 -0.2129
  786SOL    HW1 3142   1.995   0.530   2.879  0.3538 -0.6100  4.8201
  786SOL    HW2 3143   2.082   0.444   2.770  1.3726 -4.2373 -1.4680
  786SOL     MW 3144   2.004   0.480   2.805 -0.3667 -0.2941  0.2855
  787SOL     OW 3145   2.445   0.126   2.946  0.4456 -0.3615 -0.6359
  787SOL    HW1 3146   2.508   0.069   2.896  1.2205 -0.4212 -1.3198
  787SOL    HW2 3147   2.491   0.206   2.979 -0.9844  2.6476  0.8418
  787SOL     MW 3148   2.459   0.129   2.944  0.3592  0.0276 -0.5312
  788SOL     OW 3149   2.856   2.876   2.352  0.1268 -0.2972 -0.0525
  788SOL    HW1 3150   2.829   2.825   2.279  1.8138 -3.8614 -0.8338
  788SOL    HW2 3151   2.921   2.820   2.397 -2.0527  1.8784 -1.8242
  788SOL     MW 3152   2.861   2.862   2.348  0.0618 -0.4804 -0.3894
  789SOL     OW 3153   0.092   0.259   2.943 -0.3104 -0.5747 -0.0900
  789SOL    HW1 3154   0.013   0.227   2.977  2.8161 -0.9896 -1.1888
  789SOL    HW2 3155   0.105   0.347   2.973 -0.8451 -2.8296 -0.1116
  789SOL     MW 3156   0.083   0.267   2.951  0.0316 -0.9270 -0.2379
  790SOL     OW 3157   3.082   1.024   2.434  0.6815 -0.1218 -0.1650
  790SOL    HW1 3158   3.012   0.969   2.487 -1.8859 -2.1438 -1.5504
  790SOL    HW2 3159   3.066   1.009   2.345  0.9472 -2.3705  1.9663
  790SOL     MW 3160   3.070   1.015   2.430  0.3778 -0.6853 -0.0666
  791SOL     OW 3161   2.657   0.361   2.683  0.2677 -0.0178 -0.4804
  791SOL    HW1 3162   2.607   0.440   2.705 -0.2385 -0.6896  0.6379
  791SOL    HW2 3163   2.727   0.376   2.746 -0.7134  0.6317 -1.1857
  791SOL     MW 3164   2.659   0.374   2.694  0.0714 -0.0207 -0.4259
  792SOL     OW 3165   2.438   0.219   2.363  0.5408 -0.1296 -0.2276
  792SOL    HW1 3166   2.372   0.281   2.386  0.3877 -1.7170  1.4818
  792SOL    HW2 3167   2.479   0.203   2.451 -0.8784 -1.0988  3.0594
  792SOL     MW 3168   2.435   0.225   2.377  0.3333 -0.4669  0.4316
  793SOL     OW 3169   1.799   1.044   1.953 -0.3995 -0.5786  0.3053
  793SOL    HW1 3170   1.782   1.066   1.860  1.3132  0.6543  2.5553
  793SOL    HW2 3171   1.883   1.000   1.951  2.1439 -0.7773 -0.9803
  793SOL     MW 3172   1.808   1.041   1.941  0.1621 -0.4422  0.4325
  794SOL     OW 3173   1.474   2.255   0.126 -0.4342 -0.3986 -0.4544
  794SOL    HW1 3174   1.484   2.327   0.058  2.0714 -0.0844 -0.4710
  794SOL    HW2 3175   1.510   2.294   0.211 -1.1514 -0.7422  1.2021
  794SOL     MW 3176   1.480   2.270   0.128 -0.1982 -0.4025 -0.2380
  795SOL     OW 3177   2.289   0.954   2.608 -0.4999  0.1457 -0.1580
  795SOL    HW1 3178   2.270   1.040   2.648 -0.9120  2.2383 -0.4015
  795SOL    HW2 3179   2.320   0.990   2.521  1.6607 -0.0632  1.0110
  795SOL     MW 3180   2.290   0.970   2.602 -0.2692  0.3943 -0.0359
  796SOL     OW 3181   0.267   0.656   2.761  0.5912  0.4983 -0.2619
  796SOL    HW1 3182   0.235   0.731   2.814  0.2503 -0.6864  0.6978
  796SOL    HW2 3183   0.207   0.638   2.685  1.8868 -0.0782  0.4925
  796SOL     MW 3184   0.254   0.664   2.758  0.7172  0.2659 -0.0358
  797SOL     OW 3185   2.600   0.130   2.555  0.0996  0.0069  0.6608
  797SOL    HW1 3186   2.625   0.206   2.596 -0.5833 -1.6151  0.3612
  797SOL    HW2 3187   2.662   0.115   2.484 -1.0395  2.3016  3.0987
  797SOL     MW 3188   2.611   0.138   2.551 -0.1408  0.0956  0.9429
  798SOL     OW 3189   2.349   0.023   2.189 -0.1248  0.5100  0.4599
  798SOL    HW1 3190   2.368   0.081   2.259  1.6784 -1.7854 -1.9457
  798SOL    HW2 3191   2.424  -0.017   2.150 -0.1361 -0.7022  0.4883
  798SOL     MW 3192   2.362   0.026   2.193  0.1116  0.0472  0.1463
  799SOL     OW 3193   2.454   2.946   0.185  0.1992  0.4568  0.2518
  799SOL    HW1 3194   2.463   2.893   0.103 -2.2931 -2.0227  0.6530
  799SOL    HW2 3195   2.375   2.997   0.165 -3.1401 -0.6224  0.1669
  799SOL     MW 3196   2.445   2.946   0.171 -0.5702 -0.0127  0.2935
  800SOL     OW 3197   1.852   3.054   1.785 -0.1523 -0.6778 -0.4901
  800SOL    HW1 3198   1.798   2.976   1.804 -0.4945 -0.3685 -1.2185
  800SOL    HW2 3199   1.924   3.044   1.849  0.0932  0.5248  0.0942
  800SOL     MW 3200   1.854   3.042   1.796 -0.1651 -0.4784 -0.5091
  801SOL     OW 3201   2.812   1.285   2.628  0.5337  0.4163 -0.5118
  801SOL    HW1 3202   2.756   1.210   2.603 -0.5563  2.7731  0.1423
  801SOL    HW2 3203   2.899   1.281   2.577 -1.9944  1.0157 -0.6307
  801SOL     MW 3204   2.816   1.275   2.618  0.0563  0.8063 -0.4412
  802SOL     OW 3205   2.555   1.521   2.816  0.1585 -0.3424  0.0439
  802SOL    HW1 3206   2.535   1.434   2.770 -1.3526 -1.7884 -0.4032
  802SOL    HW2 3207   2.648   1.540   2.815 -4.2916  0.6407 -0.3358
  802SOL     MW 3208   2.564   1.512   2.810 -0.6280 -0.4035 -0.0652
  803SOL     OW 3209   2.329   1.275   1.951 -0.0902 -0.2734 -0.7771
  803SOL    HW1 3210   2.281   1.259   2.030  0.1396 -1.0405 -1.1365
  803SOL    HW2 3211   2.306   1.208   1.889  0.9851 -0.8118  0.7560
  803SOL     MW 3212   2.319   1.265   1.953  0.0820 -0.4457 -0.6222
  804SOL     OW 3213   2.283   0.079   0.059 -0.4013 -0.1341  0.0242
  804SOL    HW1 3214   2.207   0.139   0.053 -0.8385 -0.3976  1.0511
  804SOL    HW2 3215   2.334   0.105  -0.023  1.3707 -3.9773 -0.0648
  804SOL     MW 3216   2.280   0.091   0.048 -0.2252 -0.6760  0.1479
  805SOL     OW 3217   2.664   1.023   2.563  0.4067 -0.2431  0.6809
  805SOL    HW1 3218   2.614   0.938   2.549  0.8530  0.6565 -0.0956
  805SOL    HW2 3219   2.747   0.981   2.588 -1.2292  0.4839 -0.7892
  805SOL     MW 3220   2.668   1.006   2.564  0.2497 -0.0285  0.3845
  806SOL     OW 3221   2.599   0.433   2.265  0.9566 -0.2530  0.2703
  806SOL    HW1 3222   2.548   0.349   2.284 -0.1683  1.2234 -1.0451
  806SOL    HW2 3223   2.623   0.420   2.173 -1.1631  0.5069  1.4655
  806SOL     MW 3224   2.596   0.420   2.255  0.5285  0.0421  0.2545
  807SOL     OW 3225   3.097   1.095   2.112 -0.0991 -0.4659  0.1577
  807SOL    HW1 3226   3.161   1.038   2.070  0.2468  1.1878 -1.6384
  807SOL    HW2 3227   3.023   1.036   2.130 -0.0093  3.7693  0.9234
  807SOL     MW 3228   3.095   1.080   2.109 -0.0416  0.3110  0.0217
  808SOL     OW 3229   2.613   3.079   2.766  0.3032  0.1384 -0.6698
  808SOL    HW1 3230   2.577   3.000   2.727  2.7695  3.2817 -2.1554
  808SOL    HW2 3231   2.610   3.138   2.693 -0.4225  0.5705  0.0078
  808SOL     MW 3232   2.608   3.076   2.751  0.5329  0.6102 -0.7764
  809SOL     OW 3233   2.546   1.233   2.400  0.1019 -0.1193 -0.2458
  809SOL    HW1 3234   2.585   1.181   2.462 -1.0323  2.7044 -0.6412
  809SOL    HW2 3235   2.620   1.247   2.337  0.7581  2.1127  1.6842
  809SOL     MW 3236   2.561   1.228   2.400  0.0388  0.5478 -0.0434
  810SOL     OW 3237   2.190   1.226   2.201 -0.3359 -0.7923  0.2414
  810SOL    HW1 3238   2.236   1.154   2.243 -1.8794 -0.2944  0.4799
  810SOL    HW2 3239   2.102   1.193   2.192  3.8626 -1.8360 -0.9058
  810SOL     MW 3240   2.185   1.212   2.205  0.0144 -0.8643  0.1215
  811SOL     OW 3241   1.553   0.078   2.286 -0.4019  0.6599 -0.2248
  811SOL    HW1 3242   1.633   0.028   2.311  4.2776 -3.2234 -1.0685
  811SOL    HW2 3243   1.550   0.083   2.191  1.3318 -0.1319  1.6230
  811SOL     MW 3244   1.563   0.072   2.277  0.4443  0.0430 -0.0924
  812SOL     OW 3245   1.437   2.795   2.039 -0.3991  0.1284 -0.2128
  812SOL    HW1 3246   1.532   2.793   2.014  0.4914  1.4683  2.0868
  812SOL    HW2 3247   1.435   2.768   2.131  0.9402  0.3610 -0.7050
  812SOL     MW 3248   1.449   2.791   2.048 -0.1049  0.3359  0.0257
  813SOL     OW 3249   1.809   0.738   2.205  0.8178  0.5136 -0.1394
  813SOL    HW1 3250   1.754   0.660   2.234  0.8259 -0.2197 -0.6061
  813SOL    HW2 3251   1.843   0.772   2.289 -1.9100 -1.6154  1.6956
  813SOL     MW 3252   1.807   0.732   2.220  0.4590  0.1359  0.0411
  814SOL     OW 3253   2.753   1.256   1.611 -0.1059 -0.1766 -0.5772
  814SOL    HW1 3254   2.679   1.222   1.659  1.7413 -0.5793 -0.1958
  814SOL    HW2 3255   2.742   1.205   1.533 -0.3850  0.1799 -1.8598
  814SOL     MW 3256   2.742   1.245   1.607  0.1010 -0.1827 -0.6961
  815SOL     OW 3257   2.495   1.657   2.402 -0.2619  0.0286  0.1724
  815SOL    HW1 3258   2.425   1.598   2.393 -1.0669  2.8300  0.4218
  815SOL    HW2 3259   2.569   1.595   2.389  0.7028 -0.1255 -2.9957
  815SOL     MW 3260   2.496   1.641   2.399 -0.2408  0.3779 -0.2127
  816SOL     OW 3261   0.751   0.665   2.734 -0.2523 -0.5283 -0.0182
  816SOL    HW1 3262   0.727   0.589   2.792  1.0571 -0.6101  2.1036
  816SOL    HW2 3263   0.682   0.663   2.668  0.1441  0.5645 -2.4500
  816SOL     MW 3264   0.738   0.654   2.733 -0.0273 -0.3949 -0.0591
  817SOL     OW 3265   3.050   1.148   1.378  0.1887 -0.2000  0.2334
  817SOL    HW1 3266   3.085   1.164   1.465 -3.6057 -1.8619 -0.3778
  817SOL    HW2 3267   3.050   1.228   1.328 -2.7601 -1.7620  1.3758
  817SOL     MW 3268   3.054   1.160   1.383 -0.7010 -0.6254  0.3035
  818SOL     OW 3269   1.898   1.037   2.717 -0.0643 -0.1348 -0.0419
  818SOL    HW1 3270   1.938   1.066   2.635 -0.5446  1.7445  0.6389
  818SOL    HW2 3271   1.943   0.960   2.746  3.1160  0.4865  1.9852
  818SOL     MW 3272   1.909   1.031   2.710  0.2920  0.1952  0.3154
  819SOL     OW 3273   1.908   0.203   2.423 -1.1243 -0.4435 -0.6604
  819SOL    HW1 3274   1.852   0.270   2.461  1.4173 -2.5844  2.4740
  819SOL    HW2 3275   1.940   0.153   2.505 -2.1947 -2.0962  0.1616
  819SOL     MW 3276   1.905   0.205   2.439 -0.9302 -0.9441 -0.1384
  820SOL     OW 3277   2.484   1.745   2.660  0.1334 -0.6079  0.1035
  820SOL    HW1 3278   2.507   1.675   2.723 -1.0031 -1.3397  1.9019
  820SOL    HW2 3279   2.485   1.702   2.576 -1.3265  4.2988  0.5071
  820SOL     MW 3280   2.487   1.730   2.658 -0.2092 -0.0571  0.3941
  821SOL     OW 3281   2.587   1.358   1.941 -0.3418  0.2787  0.2875
  821SOL    HW1 3282   2.607   1.446   1.900  2.4275 -2.4329 -2.3603
  821SOL    HW2 3283   2.491   1.341   1.944 -0.4385  0.9383  0.3779
  821SOL     MW 3284   2.577   1.367   1.936  0.0108  0.0080 -0.0499
  822SOL     OW 3285   2.849   2.705   1.447 -0.0479  0.0335 -0.2688
  822SOL    HW1 3286   2.858   2.735   1.541  3.6780  1.4885  1.7896
  822SOL    HW2 3287   2.797   2.770   1.400  0.2850  0.5040  0.0020
  822SOL     MW 3288   2.844   2.718   1.453  0.4876  0.2875  0.0385
  823SOL     OW 3289   2.274   0.464   1.771  0.0904  0.4411 -0.7192
  823SOL    HW1 3290   2.361   0.435   1.726  2.6046 -1.2026 -0.0726
  823SOL    HW2 3291   2.208   0.390   1.770  1.2425 -0.2335 -1.1939
  823SOL     MW 3292   2.277   0.450   1.765  0.5741  0.1352 -0.6965
  824SOL     OW 3293   2.081   1.412   2.511 -0.2818  0.2521 -0.0805
  824SOL    HW1 3294   2.169   1.426   2.474  2.5108 -1.1854 -3.0013
  824SOL    HW2 3295   2.044   1.482   2.571 -1.0984 -0.6156  0.3474
  824SOL     MW 3296   2.088   1.423   2.514 -0.0211 -0.0520 -0.4094
  825SOL     OW 3297   2.115   2.537   0.379  0.8616 -0.6633  0.2788
  825SOL    HW1 3298   2.065   2.471   0.327 -1.5554 -0.0682 -1.5248
  825SOL    HW2 3299   2.201   2.499   0.385 -0.3140  1.7296  2.1392
  825SOL     MW 3300   2.120   2.523   0.373  0.3876 -0.2691  0.2863
  826SOL     OW 3301   1.805   2.387   0.467 -1.0050 -0.2778  0.2762
  826SOL    HW1 3302   1.804   2.303   0.513  1.5785  0.5999 -0.4745
  826SOL    HW2 3303   1.808   2.442   0.542  1.6221 -0.9981 -3.0305
  826SOL     MW 3304   1.805   2.384   0.483 -0.3175 -0.2571 -0.2591
  827SOL     OW 3305   1.947   2.208   0.868 -0.4935  0.9821  0.7940
  827SOL    HW1 3306   1.890   2.232   0.796  1.4153 -1.8710  0.0855
  827SOL    HW2 3307   1.892   2.153   0.924  2.7665  2.5245  2.0939
  827SOL     MW 3308   1.932   2.204   0.866  0.1885  0.8092  0.8720
  828SOL     OW 3309   0.086   2.599   0.522  0.2270  0.0281  0.2141
  828SOL    HW1 3310   0.179   2.602   0.549  1.6909  2.3234  3.0050
  828SOL    HW2 3311   0.083   2.651   0.445  1.6742 -1.3170 -0.1372
  828SOL     MW 3312   0.098   2.606   0.515  0.6111  0.1535  0.5360
  829SOL     OW 3313   3.005   2.895   1.208  0.2378 -0.3678 -0.1201
  829SOL    HW1 3314   2.935   2.887   1.149 -0.5387 -0.2092 -1.7153
  829SOL    HW2 3315   3.063   2.816   1.199 -0.8369 -1.1790  1.0258
  829SOL     MW 3316   3.004   2.883   1.199 -0.0064 -0.4539 -0.1794
  830SOL     OW 3317   2.531   2.817   2.027  0.4844 -0.7671 -0.2621
  830SOL    HW1 3318   2.444   2.834   1.985 -1.1953 -0.0209 -2.8869
  830SOL    HW2 3319   2.593   2.787   1.964  0.0252  0.5086  2.2216
  830SOL     MW 3320   2.528   2.815   2.014  0.2022 -0.5003 -0.2807
  831SOL     OW 3321   2.462   2.432   1.210  0.4363  0.1397 -0.3705
  831SOL    HW1 3322   2.437   2.381   1.284  1.9040  1.6209  0.9115
  831SOL    HW2 3323   2.558   2.423   1.199  2.9047 -3.5195 -0.4834
  831SOL     MW 3324   2.471   2.424   1.218  0.9556 -0.1476 -0.2163
  832SOL     OW 3325   2.394   2.109   1.801  0.1095 -0.6160  0.4592
  832SOL    HW1 3326   2.404   2.196   1.850  0.3649  1.0171 -0.9539
  832SOL    HW2 3327   2.484   2.094   1.773 -2.9595  0.9310 -0.3402
  832SOL     MW 3328   2.407   2.119   1.804 -0.2618 -0.1964  0.1673
  833SOL     OW 3329   1.763   2.540   0.927  0.0373  0.5146 -0.1316
  833SOL    HW1 3330   1.698   2.478   0.936 -2.4868 -0.3160  3.2274
  833SOL    HW2 3331   1.743   2.629   0.964 -1.8420  0.8783  0.8729
  833SOL     MW 3332   1.752   2.544   0.933 -0.5437  0.4530  0.4441
  834SOL     OW 3333   2.278   2.350   0.598  0.4917 -0.3838  0.7003
  834SOL    HW1 3334   2.256   2.261   0.617 -2.1594 -1.0689 -4.4187
  834SOL    HW2 3335   2.361   2.352   0.564 -0.0862 -3.7062 -1.0218
  834SOL     MW 3336   2.286   2.339   0.596  0.0656 -0.9125 -0.2023
  835SOL     OW 3337   1.852   2.597   0.672  0.6137  0.0258 -0.2778
  835SOL    HW1 3338   1.834   2.561   0.758 -0.1219  1.1378 -0.3482
  835SOL    HW2 3339   1.906   2.670   0.698 -1.5965  2.2402  2.0056
  835SOL     MW 3340   1.856   2.602   0.687  0.2250  0.4647  0.0142
  836SOL     OW 3341   2.060   2.201   1.624 -0.3943 -0.1318  0.1932
  836SOL    HW1 3342   2.148   2.167   1.592  1.9645  0.2934  1.9680
  836SOL    HW2 3343   2.089   2.266   1.690 -0.7921 -1.1006 -0.3198
  836SOL     MW 3344   2.076   2.205   1.628 -0.1356 -0.2035  0.3597
  837SOL     OW 3345   2.070   0.186   0.703  0.2104  0.7086 -0.2908
  837SOL    HW1 3346   2.003   0.227   0.653  1.6374 -1.0876  3.5199
  837SOL    HW2 3347   2.116   0.144   0.629  0.6230  2.6251  1.7806
  837SOL     MW 3348   2.067   0.186   0.686  0.4531  0.7244  0.4853
  838SOL     OW 3349   2.862   2.078   0.964 -0.0044  0.2689  0.0914
  838SOL    HW1 3350   2.808   2.002   0.957  0.1976  0.7754  1.7671
  838SOL    HW2 3351   2.891   2.084   1.056 -1.1506  2.0334  0.7412
  838SOL     MW 3352   2.859   2.069   0.975 -0.1290  0.5685  0.3982
  839SOL     OW 3353   1.533   2.387   0.971  0.3139 -0.4342  0.5953
  839SOL    HW1 3354   1.505   2.457   1.026 -0.3638  3.6999 -2.3291
  839SOL    HW2 3355   1.569   2.322   1.028  1.2027  2.5424  0.3841
  839SOL     MW 3356   1.534   2.388   0.986  0.3418  0.5040  0.1816
  840SOL     OW 3357   2.274   2.125   2.434 -0.1464 -0.3662 -0.1370
  840SOL    HW1 3358   2.269   2.198   2.363  3.1300  0.2419 -3.1934
  840SOL    HW2 3359   2.344   2.167   2.484  2.9295 -0.1595  0.0073
  840SOL     MW 3360   2.283   2.140   2.431  0.6917 -0.2587 -0.5212
  841SOL     OW 3361   2.273   2.414   0.053 -0.2393 -0.4354 -0.1440
  841SOL    HW1 3362   2.271   2.478  -0.014  0.7321 -2.1789 -0.0705
  841SOL    HW2 3363   2.218   2.342   0.022  0.7466 -1.0943 -2.0656
  841SOL     MW 3364   2.265   2.413   0.040  0.0190 -0.7524 -0.3878
  842SOL     OW 3365   2.665   1.985   1.437  0.1719  0.0190 -0.2554
  842SOL    HW1 3366   2.630   1.899   1.456 -1.5275  2.0227 -2.4358
  842SOL    HW2 3367   2.617   1.998   1.355 -1.0827 -2.2271 -4.3371
  842SOL     MW 3368   2.654   1.975   1.429 -0.2179 -0.0130 -1.0817
  843SOL     OW 3369   2.659   2.764   1.782  0.2994 -0.2030 -0.1162
  843SOL    HW1 3370   2.748   2.724   1.781  0.7264 -0.3418 -1.2250
  843SOL    HW2 3371   2.600   2.692   1.750 -1.0537  0.1164  0.1289
  843SOL     MW 3372   2.663   2.749   1.778  0.1772 -0.1792 -0.2302
  844SOL     OW 3373   2.710   2.338   1.169  0.7109  0.0362  0.1804
  844SOL    HW1 3374   2.751   2.346   1.083 -1.4159 -2.3545 -2.2361
  844SOL    HW2 3375   2.771   2.372   1.239  0.6311 -1.8982 -3.2933
  844SOL     MW 3376   2.723   2.343   1.167  0.4198 -0.5344 -0.5968
  845SOL     OW 3377   2.846   2.599   0.325  0.0298  0.0185 -0.8588
  845SOL    HW1 3378   2.811   2.509   0.329  1.9523  2.2172  1.6491
  845SOL    HW2 3379   2.808   2.642   0.406  0.1176 -2.4404  2.7221
  845SOL     MW 3380   2.836   2.593   0.336  0.2950 -0.0159 -0.0554
  846SOL     OW 3381   1.518   2.800   0.847 -0.7345 -0.3761  0.5357
  846SOL    HW1 3382   1.597   2.841   0.815  1.0084 -1.1334  1.3471
  846SOL    HW2 3383   1.482   2.861   0.911  1.6180 -0.7618  0.0457
  846SOL     MW 3384   1.523   2.814   0.851 -0.1941 -0.5269  0.5781
  847SOL     OW 3385   2.481   1.889   0.151  0.0823 -0.3735 -0.3254
  847SOL    HW1 3386   2.466   1.802   0.193 -2.6852  2.3093 -0.8058
  847SOL    HW2 3387   2.452   1.863   0.061  1.3159  0.0938  0.2845
  847SOL     MW 3388   2.475   1.874   0.145 -0.1201  0.0421 -0.3083
  848SOL     OW 3389   2.553   2.116   1.196  0.6585  0.0919  0.5433
  848SOL    HW1 3390   2.612   2.195   1.190  0.4287  1.1856  0.2972
  848SOL    HW2 3391   2.534   2.086   1.108 -0.3532  0.4809  0.3398
  848SOL     MW 3392   2.558   2.123   1.184  0.4947  0.2875  0.4840
  849SOL     OW 3393   2.019   2.759   0.804 -0.8585 -0.5741 -0.1262
  849SOL    HW1 3394   2.033   2.747   0.899  1.1133  0.3164  1.6788
  849SOL    HW2 3395   2.097   2.725   0.756 -1.8313  0.5207  1.3433
  849SOL     MW 3396   2.031   2.753   0.811 -0.7267 -0.3122  0.3058
  850SOL     OW 3397   2.315   1.794   1.646  0.3539  0.0844 -0.0639
  850SOL    HW1 3398   2.228   1.762   1.623 -3.7610  1.3063  0.3238
  850SOL    HW2 3399   2.314   1.884   1.603  0.1122  0.7201  1.5346
  850SOL     MW 3400   2.304   1.802   1.637 -0.2209  0.3295  0.1982
  851SOL     OW 3401   2.373   2.353   0.317  0.1364  0.3863  0.6000
  851SOL    HW1 3402   2.339   2.388   0.233 -0.4658 -1.0435 -0.0860
  851SOL    HW2 3403   2.444   2.408   0.341  0.5345 -1.8771 -0.1733
  851SOL     MW 3404   2.378   2.365   0.309  0.1095 -0.1010  0.4075
  852SOL     OW 3405   2.330   2.080   0.317  0.1295 -0.4997 -0.2054
  852SOL    HW1 3406   2.365   2.168   0.328 -1.3090 -0.7677  1.3779
  852SOL    HW2 3407   2.370   2.030   0.246  0.3028  1.0470  1.1657
  852SOL     MW 3408   2.340   2.085   0.309 -0.0374 -0.3310  0.1844
  853SOL     OW 3409   2.460   2.357   1.911 -0.1389  0.2260  0.4672
  853SOL    HW1 3410   2.474   2.430   1.852  1.7985 -1.4011  3.4550
  853SOL    HW2 3411   2.537   2.352   1.967 -2.8066  0.4332  1.0085
  853SOL     MW 3412   2.472   2.366   1.911 -0.2353  0.0386  0.9328
  854SOL     OW 3413   2.858   2.234   0.727  0.4925 -0.0636 -0.2537
  854SOL    HW1 3414   2.769   2.217   0.693 -0.1800  1.1478 -0.9935
  854SOL    HW2 3415   2.871   2.170   0.800 -3.4626 -0.1373 -0.1151
  854SOL     MW 3416   2.848   2.224   0.732 -0.1181  0.0865 -0.3330
  855SOL     OW 3417   2.726   2.367   0.370  0.4217  0.1571  0.5207
  855SOL    HW1 3418   2.652   2.388   0.430  0.6403 -0.7257 -1.9695
  855SOL    HW2 3419   2.745   2.274   0.383  0.4191  0.6924 -0.2228
  855SOL     MW 3420   2.719   2.357   0.380  0.4502  0.1113  0.0941
  856SOL     OW 3421   2.108   1.885   0.206 -0.6564 -0.2768 -0.7955
  856SOL    HW1 3422   2.023   1.902   0.251  1.1810  1.9689  1.2661
  856SOL    HW2 3423   2.159   1.952   0.254 -1.4634  1.3566 -1.7679
  856SOL     MW 3424   2.104   1.896   0.218 -0.5205  0.2350 -0.6518
  857SOL     OW 3425   2.491   1.952   0.546  0.4261 -0.0455  0.3143
  857SOL    HW1 3426   2.430   1.989   0.480 -2.5829 -1.1676  0.2414
  857SOL    HW2 3427   2.452   1.941   0.630  1.0964  0.4695 -0.5258
  857SOL     MW 3428   2.478   1.955   0.548  0.1175 -0.1256  0.1939
  858SOL     OW 3429   2.889   2.660   1.793  0.1726  0.1707 -0.0466
  858SOL    HW1 3430   2.982   2.675   1.789 -1.0524 -0.0400  0.7390
  858SOL    HW2 3431   2.875   2.567   1.761 -1.9170 -0.6665  1.1433
  858SOL     MW 3432   2.899   2.650   1.788 -0.2647  0.0324  0.2140
  859SOL     OW 3433   1.979   2.710   1.069 -0.5091  1.2201 -0.3291
  859SOL    HW1 3434   1.966   2.617   1.037 -3.3463  1.3583 -0.3430
  859SOL    HW2 3435   2.075   2.713   1.091 -0.5962  0.3652  2.3761
  859SOL     MW 3436   1.990   2.698   1.067 -0.8950  1.1255  0.0260
  860SOL     OW 3437   2.652   2.654   0.159 -0.9046  0.1714  0.3228
  860SOL    HW1 3438   2.737   2.639   0.224  1.4706  1.3790 -1.1805
  860SOL    HW2 3439   2.677   2.731   0.101 -0.0885 -3.5102 -1.8974
  860SOL     MW 3440   2.667   2.662   0.160 -0.4836 -0.1550 -0.1685
  861SOL     OW 3441   1.639   2.204   1.132  0.0433  0.1440  0.4861
  861SOL    HW1 3442   1.640   2.267   1.207  1.0411  2.7324  1.1492
  861SOL    HW2 3443   1.574   2.136   1.155 -0.5369 -0.5900 -1.5914
  861SOL     MW 3444   1.631   2.203   1.145  0.0984  0.3886  0.2995
  862SOL     OW 3445   2.523   1.766   1.478  0.2971 -0.4800 -0.1295
  862SOL    HW1 3446   2.447   1.762   1.535  0.6403 -1.8977  0.3409
  862SOL    HW2 3447   2.496   1.756   1.384  4.1657 -1.2132  0.1600
  862SOL     MW 3448   2.509   1.764   1.473  0.8528 -0.7638 -0.0293
  863SOL     OW 3449   2.988   1.781   1.020  0.6002 -0.2317 -0.0055
  863SOL    HW1 3450   3.054   1.744   1.077 -2.6353 -0.7343 -0.0884
  863SOL    HW2 3451   2.962   1.865   1.052  1.2820  0.9447 -1.6758
  863SOL     MW 3452   2.993   1.787   1.031  0.2633 -0.1428 -0.2368
  864SOL     OW 3453   0.061   1.839   0.812 -0.5711  0.1785 -0.1527
  864SOL    HW1 3454   0.004   1.846   0.886 -0.5942  0.0827 -1.9039
  864SOL    HW2 3455   0.006   1.811   0.744  0.2017  0.6555  1.5402
  864SOL     MW 3456   0.046   1.836   0.813 -0.4722  0.2288 -0.1604
  865SOL     OW 3457   2.627   2.153   0.056  0.3975 -0.1430  0.7042
  865SOL    HW1 3458   2.590   2.089   0.116  0.2841  0.4340 -1.4973
  865SOL    HW2 3459   2.565   2.137  -0.014  1.4327  0.5069 -0.6745
  865SOL     MW 3460   2.614   2.143   0.055  0.5191  0.0189  0.2318
  866SOL     OW 3461   2.620   2.357   1.593 -0.2820  0.7529 -0.3649
  866SOL    HW1 3462   2.625   2.264   1.626  1.2888  0.2367  0.2766
  866SOL    HW2 3463   2.670   2.358   1.517 -1.4672 -0.5086  2.3338
  866SOL     MW 3464   2.627   2.345   1.587 -0.2311  0.5183  0.0758
  867SOL     OW 3465   0.080   2.694   1.752 -0.0766 -0.0590  0.1277
  867SOL    HW1 3466   0.129   2.739   1.819  1.1355 -0.5044 -1.8451
  867SOL    HW2 3467   0.073   2.754   1.672 -2.2700  0.0016  0.8212
  867SOL     MW 3468   0.086   2.708   1.750 -0.2060 -0.1097 -0.0411
  868SOL     OW 3469   2.737   2.690   0.574 -0.4326 -0.1495 -0.0591
  868SOL    HW1 3470   2.695   2.607   0.586  0.2886  1.9099 -1.6183
  868SOL    HW2 3471   2.672   2.756   0.547 -0.9455  2.6535 -0.9025
  868SOL     MW 3472   2.723   2.687   0.572 -0.4051  0.4920 -0.3761
  869SOL     OW 3473   2.101   2.414   1.006 -0.2375  0.5749 -0.3577
  869SOL    HW1 3474   2.195   2.390   1.006 -0.6128 -1.6311  0.2397
  869SOL    HW2 3475   2.055   2.360   0.944 -0.4587  0.4340  0.8208
  869SOL     MW 3476   2.108   2.404   0.998 -0.3162  0.2652 -0.1234
  870SOL     OW 3477   2.179   0.090   0.467  0.0828 -0.2441  0.1152
  870SOL    HW1 3478   2.251   0.141   0.415  1.8570  0.8088 -1.0398
  870SOL    HW2 3479   2.211  -0.000   0.482  0.4589  1.9202 -0.6885
  870SOL     MW 3480   2.193   0.085   0.462  0.3665  0.1804 -0.1433
  871SOL     OW 3481   2.476   2.097   0.902  0.4977  0.4431 -0.7815
  871SOL    HW1 3482   2.407   2.047   0.855 -0.7347 -0.8188 -2.0110
  871SOL    HW2 3483   2.426   2.168   0.946  1.0529 -0.6672 -1.8756
  871SOL     MW 3484   2.461   2.099   0.901  0.4084  0.1301 -1.0880
  872SOL     OW 3485   2.062   2.560   1.502 -0.0767  0.5843 -0.3253
  872SOL    HW1 3486   1.998   2.565   1.573  0.1623 -3.7370  1.5320
  872SOL    HW2 3487   2.024   2.490   1.455  3.5788 -0.0559  2.9772
  872SOL     MW 3488   2.048   2.552   1.505  0.4371 -0.0703  0.3555
  873SOL     OW 3489   2.850   2.114   1.895 -0.1215 -0.5557 -0.6438
  873SOL    HW1 3490   2.809   2.198   1.930 -2.4881 -1.0475 -0.2199
  873SOL    HW2 3491   2.930   2.136   1.846 -0.0821  0.5577  2.1082
  873SOL     MW 3492   2.855   2.128   1.893 -0.4285 -0.4737 -0.2248
  874SOL     OW 3493   2.337   1.429   2.350 -0.2809 -0.0685 -0.5028
  874SOL    HW1 3494   2.267   1.405   2.291 -0.1420 -0.4486 -0.3313
  874SOL    HW2 3495   2.408   1.362   2.339  2.0077  2.2215 -0.1722
  874SOL     MW 3496   2.337   1.417   2.341  0.0394  0.1835 -0.4365
  875SOL     OW 3497   2.364   2.329   0.977  0.0519 -0.0465 -0.0871
  875SOL    HW1 3498   2.403   2.376   0.904 -0.6861  0.3855  2.0584
  875SOL    HW2 3499   2.405   2.380   1.050 -1.2740  2.1572 -0.2333
  875SOL     MW 3500   2.375   2.342   0.977 -0.2204  0.3012  0.1767
  876SOL     OW 3501   3.061   2.246   1.283 -0.1154 -0.0114 -0.6601
  876SOL    HW1 3502   3.079   2.293   1.203 -2.0233  0.9190 -2.5699
  876SOL    HW2 3503   3.137   2.260   1.337  0.1395 -2.6376  1.0906
  876SOL     MW 3504   3.073   2.254   1.279 -0.3335 -0.2352 -0.6811
  877SOL     OW 3505   0.004   2.803   0.319  0.0584 -0.3944 -0.0291
  877SOL    HW1 3506   0.059   2.875   0.298 -0.7603 -2.0375 -0.7053
  877SOL    HW2 3507   0.015   2.748   0.242  0.2041 -0.5566 -1.0981
  877SOL     MW 3508   0.013   2.806   0.306 -0.0304 -0.6326 -0.2593
  878SOL     OW 3509   2.413   1.732   1.234  0.0212 -0.1875 -0.0282
  878SOL    HW1 3510   2.327   1.690   1.254 -1.3853  0.9975  1.3061
  878SOL    HW2 3511   2.461   1.668   1.188 -0.7282 -1.2385  1.3621
  878SOL     MW 3512   2.408   1.718   1.230 -0.2632 -0.1699  0.3313
  879SOL     OW 3513   2.773   2.408   0.899 -0.3230 -0.3801 -0.3282
  879SOL    HW1 3514   2.822   2.487   0.878  2.4248 -0.4264 -2.4479
  879SOL    HW2 3515   2.809   2.331   0.848 -1.6290 -2.4562 -1.1541
  879SOL     MW 3516   2.784   2.409   0.889 -0.1328 -0.6602 -0.7168
  880SOL     OW 3517   2.564   2.195   0.650 -0.4854  0.2528  0.0651
  880SOL    HW1 3518   2.554   2.173   0.748  0.6047 -1.5932  1.9382
  880SOL    HW2 3519   2.550   2.106   0.599  0.8387 -4.4766 -2.7319
  880SOL     MW 3520   2.561   2.180   0.656 -0.1669 -0.6147 -0.0568
  881SOL     OW 3521   2.998   2.742   0.692 -0.6101  0.2187 -0.0563
  881SOL    HW1 3522   2.921   2.728   0.642  1.5944 -0.3894 -2.3301
  881SOL    HW2 3523   3.084   2.703   0.654  2.1006  0.4400  1.8557
  881SOL     MW 3524   3.000   2.735   0.681  0.0384  0.1677 -0.1041
  882SOL     OW 3525   2.259   2.869   1.966  0.2779 -0.0798  0.6114
  882SOL    HW1 3526   2.245   2.885   1.871 -2.1897  0.6899 -0.7893
  882SOL    HW2 3527   2.219   2.783   1.990  1.5112 -1.1036  0.9654
  882SOL     MW 3528   2.252   2.860   1.957  0.1150 -0.1133  0.4733
  883SOL     OW 3529   2.364   2.209   1.355 -0.0142  0.6047 -0.1042
  883SOL    HW1 3530   2.441   2.164   1.300  1.9856 -0.9030  0.9712
  883SOL    HW2 3531   2.286   2.208   1.290 -1.4032 -0.0053 -0.5651
  883SOL     MW 3532   2.364   2.203   1.339  0.0663  0.3253 -0.0232
  884SOL     OW 3533   2.005   1.795   1.072  0.0727 -0.1162  0.5370
  884SOL    HW1 3534   1.946   1.868   1.073  0.2466 -0.7781  1.1407
  884SOL    HW2 3535   2.094   1.826   1.083  0.5119 -0.8501  0.2688
  884SOL     MW 3536   2.009   1.809   1.073  0.1536 -0.3003  0.5812
  885SOL     OW 3537   2.817   2.398   1.772 -0.4604 -0.1941 -0.1671
  885SOL    HW1 3538   2.888   2.331   1.745 -0.6012 -0.6623 -0.3697
  885SOL    HW2 3539   2.757   2.398   1.698  0.2001 -0.6728  0.7287
  885SOL     MW 3540   2.819   2.389   1.759 -0.3918 -0.3190 -0.0756
  886SOL     OW 3541   2.856   2.404   1.391  0.1718 -0.7195 -0.0027
  886SOL    HW1 3542   2.930   2.356   1.358  1.5749 -0.1007 -1.3510
  886SOL    HW2 3543   2.875   2.491   1.421 -2.0563 -0.3518  0.5802
  886SOL     MW 3544   2.868   2.409   1.390  0.0629 -0.5893 -0.1037
  887SOL     OW 3545   2.304   2.692   1.501  0.3655  0.0301 -0.2024
  887SOL    HW1 3546   2.344   2.723   1.418  2.5462  1.4814  0.1080
  887SOL    HW2 3547   2.219   2.649   1.489 -0.7788  2.0322 -1.3506
  887SOL     MW 3548   2.298   2.691   1.488  0.5023  0.4857 -0.3130
  888SOL     OW 3549   1.914   2.195   1.384  0.0052  0.1701  0.0081
  888SOL    HW1 3550   1.990   2.191   1.322  1.1258 -0.5716  1.9521
  888SOL    HW2 3551   1.954   2.215   1.471 -0.1242 -1.0378 -0.4443
  888SOL     MW 3552   1.930   2.197   1.387  0.1360 -0.0871  0.2049
  889SOL     OW 3553   2.345   2.003   2.035 -0.0999  0.3848 -0.2369
  889SOL    HW1 3554   2.429   1.996   2.086 -0.0714  0.1969  0.2480
  889SOL    HW2 3555   2.371   2.040   1.948 -0.8053  0.8256 -1.1225
  889SOL     MW 3556   2.360   2.007   2.030 -0.1892  0.4182 -0.2898
  890SOL     OW 3557   0.125   2.345   0.157 -0.3549 -0.2089 -0.4337
  890SOL    HW1 3558   0.078   2.433   0.163  0.2587  0.7051  2.7710
  890SOL    HW2 3559   0.079   2.288   0.223  1.9154 -1.5921 -2.6108
  890SOL     MW 3560   0.113   2.349   0.167  0.0256 -0.2708 -0.2981
  891SOL     OW 3561   3.000   1.990   1.227 -0.6072  0.1949 -0.2011
  891SOL    HW1 3562   3.066   1.924   1.234 -2.4374  2.2716 -0.2700
  891SOL    HW2 3563   3.019   2.079   1.257  2.4017 -0.7884  0.3048
  891SOL     MW 3564   3.011   1.993   1.231 -0.4517  0.3391 -0.1434
  892SOL     OW 3565   2.463   2.366   2.783 -0.2295  0.1178  0.2496
  892SOL    HW1 3566   2.475   2.295   2.840  3.5773  1.6758 -1.6398
  892SOL    HW2 3567   2.549   2.413   2.806 -0.5507 -1.8015  3.3459
  892SOL     MW 3568   2.476   2.363   2.793  0.2304  0.0701  0.4089
  893SOL     OW 3569   1.643   2.406   1.312  0.0313 -0.5629  0.4714
  893SOL    HW1 3570   1.552   2.397   1.343  1.0915  0.5739  0.4484
  893SOL    HW2 3571   1.679   2.487   1.349  0.5975 -1.2671  0.3111
  893SOL     MW 3572   1.636   2.416   1.321  0.2459 -0.5058  0.4472
  894SOL     OW 3573   2.733   1.829   0.456  0.2374 -0.5725  0.0074
  894SOL    HW1 3574   2.651   1.877   0.479 -1.9012  3.2508 -0.8522
  894SOL    HW2 3575   2.733   1.817   0.365  2.7209  2.0445  3.4253
  894SOL     MW 3576   2.722   1.834   0.447  0.2829  0.2773  0.3449
  895SOL     OW 3577   2.141   2.178   1.196  0.6945 -0.2611 -0.7977
  895SOL    HW1 3578   2.098   2.244   1.142 -0.1172  1.0909 -0.1862
  895SOL    HW2 3579   2.130   2.088   1.170  0.6088  1.3530 -2.6618
  895SOL     MW 3580   2.134   2.175   1.186  0.5761  0.1303 -0.9629
  896SOL     OW 3581   2.242   2.832   1.094 -0.0744 -0.4483 -0.2248
  896SOL    HW1 3582   2.309   2.805   1.163  1.1144 -0.4882 -0.5088
  896SOL    HW2 3583   2.196   2.907   1.144  0.7114 -0.3585 -0.6424
  896SOL     MW 3584   2.244   2.838   1.110  0.1861 -0.4417 -0.3174
  897SOL     OW 3585   3.095   3.028   3.059  0.1865 -0.3349  0.1402
  897SOL    HW1 3586   3.152   2.949   3.044  4.0048  0.5632  1.5901
  897SOL    HW2 3587   3.015   2.994   3.030 -1.7667  0.9740 -0.0343
  897SOL     MW 3588   3.092   3.013   3.053  0.4326 -0.0437  0.3084
  898SOL     OW 3589   2.027   0.168   1.440  0.1362 -0.3910 -0.2839
  898SOL    HW1 3590   2.015   0.079   1.478 -0.5184 -0.2800  0.6874
  898SOL    HW2 3591   2.036   0.157   1.344 -0.9406  0.5026 -2.7133
  898SOL     MW 3592   2.026   0.155   1.432 -0.0923 -0.2584 -0.4763
  899SOL     OW 3593   2.972   3.016   0.611 -0.4453  0.2755  0.1519
  899SOL    HW1 3594   2.999   2.927   0.642  0.7381 -2.3059  0.9174
  899SOL    HW2 3595   2.883   3.023   0.649 -1.7041  0.3954 -0.4648
  899SOL     MW 3596   2.964   3.005   0.620 -0.4552 -0.0492  0.1716
  900SOL     OW 3597   0.063   2.415   1.101  0.5341 -0.1400 -0.2105
  900SOL    HW1 3598   0.072   2.514   1.114 -1.2122  0.1160  0.8071
  900SOL    HW2 3599   0.063   2.388   1.008  0.4570  0.5028 -0.0104
  900SOL     MW 3600   0.064   2.425   1.091  0.2935 -0.0214 -0.0499
  901SOL     OW 3601   1.746   2.796   1.785  0.1601  0.5713  0.0896
  901SOL    HW1 3602   1.827   2.765   1.752 -4.0754  0.5896  2.2172
  901SOL    HW2 3603   1.695   2.811   1.706 -0.8478  1.2620  1.4199
  901SOL     MW 3604   1.750   2.794   1.770 -0.5317  0.6649  0.5458
  902SOL     OW 3605   2.654   2.100   1.696  0.4010  0.1718 -1.3175
  902SOL    HW1 3606   2.680   2.058   1.610 -1.3323 -1.1014  1.0262
  902SOL    HW2 3607   2.728   2.101   1.761 -1.0107 -0.7138  0.5630
  902SOL     MW 3608   2.667   2.094   1.693 -0.0140 -0.1130 -0.7602
  903SOL     OW 3609   1.548   2.612   0.636 -0.6051  0.1964  0.0153
  903SOL    HW1 3610   1.631   2.588   0.673 -2.3532 -2.5210  0.9381
  903SOL    HW2 3611   1.495   2.673   0.683  0.0308 -0.9353 -1.8894
  903SOL     MW 3612   1.552   2.617   0.647 -0.7518 -0.3115 -0.1143
  904SOL     OW 3613   2.484   2.543   1.710  0.3443 -0.4188  0.1200
  904SOL    HW1 3614   2.412   2.584   1.660 -1.2189 -0.6367  0.8470
  904SOL    HW2 3615   2.514   2.466   1.661 -0.7457  1.7130  1.7156
  904SOL     MW 3616   2.479   2.538   1.697 -0.0058 -0.1663  0.4264
  905SOL     OW 3617   2.319   2.486   2.092 -0.0528 -0.4279  0.2440
  905SOL    HW1 3618   2.367   2.428   2.032  1.4378 -1.0639 -1.1763
  905SOL    HW2 3619   2.274   2.440   2.172  0.4590  2.3998  0.0334
  905SOL     MW 3620   2.319   2.472   2.094  0.2114 -0.1387  0.0288
  906SOL     OW 3621   2.521   2.506   0.816 -0.5388  0.0484 -0.8322
  906SOL    HW1 3622   2.600   2.482   0.864  0.9653  0.7512  0.6060
  906SOL    HW2 3623   2.487   2.584   0.859  3.6616 -2.1194  3.6739
  906SOL     MW 3624   2.527   2.513   0.828  0.2139 -0.1449 -0.0479
  907SOL     OW 3625   2.659   2.877   1.272  0.4013  0.0357 -0.0586
  907SOL    HW1 3626   2.719   2.928   1.329  1.7998  3.3064 -1.7204
  907SOL    HW2 3627   2.690   2.865   1.179 -1.0428 -1.7596  1.1116
  907SOL     MW 3628   2.671   2.882   1.267  0.3953  0.2303 -0.1235
  908SOL     OW 3629   2.724   2.412   3.090  0.4092  0.4684 -0.2519
  908SOL    HW1 3630   2.673   2.338   3.131 -0.0034  0.3324  1.4654
  908SOL    HW2 3631   2.699   2.485   3.150 -0.2666 -0.1330 -0.9368
  908SOL     MW 3632   2.714   2.412   3.103  0.2656  0.3711 -0.1157
  909SOL     OW 3633   1.765   0.101   1.209  0.0876  0.5652  0.4325
  909SOL    HW1 3634   1.761   0.159   1.138  0.8477 -0.8321  0.9796
  909SOL    HW2 3635   1.749   0.144   1.291 -1.1539  0.8601  2.7003
  909SOL     MW 3636   1.762   0.115   1.211  0.0241  0.4198  0.8039
  910SOL     OW 3637   2.209   1.695   0.418 -0.1204 -0.5470  0.0217
  910SOL    HW1 3638   2.143   1.624   0.407  0.9871 -0.8351  1.3613
  910SOL    HW2 3639   2.200   1.757   0.343 -1.6852 -1.3296 -0.1478
  910SOL     MW 3640   2.199   1.694   0.406 -0.1807 -0.6883  0.1761
  911SOL     OW 3641   2.284   2.056   1.557  0.4494 -0.2615  0.0285
  911SOL    HW1 3642   2.332   2.077   1.638  1.2002 -0.9917 -1.8819
  911SOL    HW2 3643   2.320   2.118   1.483 -0.3725  0.2090 -0.8015
  911SOL     MW 3644   2.295   2.067   1.558  0.4400 -0.2958 -0.3331
  912SOL     OW 3645   2.910   1.892   1.464 -0.5270 -0.4646 -0.8138
  912SOL    HW1 3646   2.952   1.920   1.374  0.1475  0.6333  0.5834
  912SOL    HW2 3647   2.824   1.935   1.465  0.7654 -3.1197 -3.3608
  912SOL     MW 3648   2.904   1.902   1.452 -0.2675 -0.6701 -0.9655
  913SOL     OW 3649   2.639   3.082   0.338  0.3520 -0.2517 -1.0558
  913SOL    HW1 3650   2.722   3.048   0.313 -0.0667  2.4962 -1.6849
  913SOL    HW2 3651   2.578   3.025   0.284 -0.3500  0.8509 -0.4052
  913SOL     MW 3652   2.642   3.070   0.328  0.2041  0.2563 -1.0529
  914SOL     OW 3653   2.684   1.858   3.044 -0.1870 -0.0516 -0.1140
  914SOL    HW1 3654   2.719   1.945   3.037  0.0293  0.6241 -0.5033
  914SOL    HW2 3655   2.608   1.853   2.991  0.7911 -0.0382  1.0145
  914SOL     MW 3656   2.679   1.869   3.036 -0.0294  0.0393 -0.0165
  915SOL     OW 3657   1.776   0.161   0.204  0.1724  0.2346 -0.8128
  915SOL    HW1 3658   1.848   0.099   0.239  0.4175  1.2196 -2.6716
  915SOL    HW2 3659   1.691   0.113   0.208 -1.2766 -1.1535  1.0818
  915SOL     MW 3660   1.775   0.147   0.209  0.0136  0.1814 -0.8081
  916SOL     OW 3661   1.750   2.174   2.004 -0.7561  0.1313  0.7031
  916SOL    HW1 3662   1.817   2.240   1.984  0.0122 -0.0063  2.0935
  916SOL    HW2 3663   1.759   2.103   1.943 -0.5087  2.7290 -0.7651
  916SOL     MW 3664   1.760   2.173   1.993 -0.6221  0.4559  0.6928
  917SOL     OW 3665   2.513   2.208   2.549  0.3145  0.2412  0.4409
  917SOL    HW1 3666   2.501   2.264   2.625  1.3442  1.3743  0.7987
  917SOL    HW2 3667   2.579   2.261   2.509  2.0162  0.4980 -0.6969
  917SOL     MW 3668   2.520   2.222   2.554  0.6749  0.4245  0.3380
  918SOL     OW 3669   2.012   1.598   2.684  0.4298 -0.0765 -0.3143
  918SOL    HW1 3670   1.939   1.641   2.632  0.4950 -0.7526 -1.2852
  918SOL    HW2 3671   2.091   1.653   2.676  0.0915 -1.0857  0.2925
  918SOL     MW 3672   2.013   1.611   2.676  0.3937 -0.2989 -0.3624
  919SOL     OW 3673   3.052   2.415   2.279  0.2280 -0.0776 -0.7427
  919SOL    HW1 3674   2.998   2.336   2.268  1.5605 -0.2708  0.3058
  919SOL    HW2 3675   3.112   2.414   2.193 -1.7414 -1.6827 -2.9842
  919SOL     MW 3676   3.053   2.404   2.266  0.1439 -0.3149 -0.9001
  920SOL     OW 3677   2.689   2.850   3.055  0.1456 -0.1522 -0.5145
  920SOL    HW1 3678   2.593   2.853   3.032 -1.1714 -2.4068 -1.6267
  920SOL    HW2 3679   2.744   2.810   2.987  0.9247 -2.2908 -2.5390
  920SOL     MW 3680   2.683   2.845   3.043  0.0746 -0.7318 -0.9284
  921SOL     OW 3681   2.429   2.595   2.604 -0.4176 -0.1098  0.0848
  921SOL    HW1 3682   2.513   2.608   2.562 -1.1640 -2.0187  0.1303
  921SOL    HW2 3683   2.443   2.522   2.661 -0.5928 -1.4052  0.5576
  921SOL     MW 3684   2.442   2.587   2.606 -0.5392 -0.5326  0.1532
  922SOL     OW 3685   2.033   2.792   0.332  0.2735 -0.1800  0.0835
  922SOL    HW1 3686   1.977   2.787   0.254 -0.2109 -1.6134  1.1726
  922SOL    HW2 3687   2.065   2.700   0.352 -0.5819 -2.6436  1.2595
  922SOL     MW 3688   2.030   2.780   0.324  0.0967 -0.6942  0.3823
  923SOL     OW 3689   2.206   2.874   1.684 -0.1426 -0.4782 -0.6552
  923SOL    HW1 3690   2.237   2.814   1.616 -0.9780  2.1283 -1.1677
  923SOL    HW2 3691   2.140   2.924   1.639 -1.1064 -0.0971  1.3518
  923SOL     MW 3692   2.201   2.872   1.669 -0.3800 -0.0840 -0.4580
  924SOL     OW 3693   1.131   2.761   2.628 -0.4657 -0.0141 -0.5198
  924SOL    HW1 3694   1.225   2.756   2.624 -1.7635 -0.8726  0.2360
  924SOL    HW2 3695   1.100   2.708   2.696  0.2521 -2.0676  0.8988
  924SOL     MW 3696   1.139   2.754   2.636 -0.5422 -0.3983 -0.2329
  925SOL     OW 3697   3.032   0.225   2.693 -0.8244  0.2816  0.3740
  925SOL    HW1 3698   2.976   0.243   2.608  2.2470  1.4296 -2.0430
  925SOL    HW2 3699   3.002   0.287   2.753 -0.6660 -0.6008 -0.6367
  925SOL     MW 3700   3.020   0.235   2.689 -0.3983  0.3166 -0.0783
  926SOL     OW 3701   2.707   2.362   2.022  0.5082 -0.8188 -0.2750
  926SOL    HW1 3702   2.751   2.431   2.076  0.1717  1.0114  2.2371
  926SOL    HW2 3703   2.744   2.370   1.929  1.5862  1.0027 -2.2102
  926SOL     MW 3704   2.718   2.372   2.017  0.6060 -0.3370 -0.1989
  927SOL     OW 3705   2.353   0.187   0.296  0.0514 -0.5401 -0.3553
  927SOL    HW1 3706   2.449   0.197   0.302  1.4290  2.6818 -0.4692
  927SOL    HW2 3707   2.332   0.158   0.199  0.6216 -2.7410 -0.6261
  927SOL     MW 3708   2.363   0.185   0.284  0.3084 -0.4054 -0.4060
  928SOL     OW 3709   2.170   2.440   1.755  0.3499 -0.2027 -0.0047
  928SOL    HW1 3710   2.160   2.512   1.696 -0.9381 -1.1642  0.3870
  928SOL    HW2 3711   2.255   2.456   1.796  0.4241 -1.3937 -0.0986
  928SOL     MW 3712   2.180   2.452   1.753  0.1897 -0.4867  0.0346
  929SOL     OW 3713   2.729   2.355   2.479 -0.3049  0.3617  0.3741
  929SOL    HW1 3714   2.769   2.318   2.399 -2.3837 -0.6106 -1.3060
  929SOL    HW2 3715   2.811   2.354   2.534  1.3900  2.9635  2.2226
  929SOL     MW 3716   2.745   2.350   2.475 -0.3555  0.5767  0.3963
  930SOL     OW 3717   2.001   2.834   2.613 -0.3859  0.1252 -0.5153
  930SOL    HW1 3718   2.008   2.777   2.699 -0.2788 -1.0649 -0.1905
  930SOL    HW2 3719   2.082   2.881   2.612  0.9853  1.3308 -0.4830
  930SOL     MW 3720   2.013   2.833   2.624 -0.1909  0.1272 -0.4682
  931SOL     OW 3721   3.078   2.753   2.480  0.8166  0.2023 -0.3120
  931SOL    HW1 3722   3.113   2.760   2.571 -0.3601  1.4183  1.2588
  931SOL    HW2 3723   3.147   2.781   2.426 -1.4268 -1.4299  2.8684
  931SOL     MW 3724   3.092   2.758   2.485  0.3654  0.1473  0.3149
  932SOL     OW 3725   2.903   1.855   2.484 -0.1774  0.1675 -0.2667
  932SOL    HW1 3726   2.988   1.897   2.483 -0.3517  1.1172  0.8752
  932SOL    HW2 3727   2.855   1.897   2.412 -2.5926 -0.1422  0.1382
  932SOL     MW 3728   2.908   1.866   2.474 -0.5190  0.2519 -0.0626
  933SOL     OW 3729   2.036   2.779   2.211  0.4564 -0.1107  0.3952
  933SOL    HW1 3730   2.112   2.825   2.250 -3.6706  0.2030 -2.4829
  933SOL    HW2 3731   1.972   2.845   2.193 -2.1731 -2.2382  0.4916
  933SOL     MW 3732   2.038   2.794   2.214 -0.4351 -0.3500  0.0282
  934SOL     OW 3733   1.990   2.639   2.425 -0.1207 -0.7425  0.0057
  934SOL    HW1 3734   1.984   2.718   2.484  1.3490  1.2833  4.3137
  934SOL    HW2 3735   2.001   2.685   2.341  0.9010  2.2138  3.8515
  934SOL     MW 3736   1.991   2.656   2.422  0.2080 -0.0852  1.0815
  935SOL     OW 3737   2.680   1.585   1.838  0.0859 -0.0939 -0.7410
  935SOL    HW1 3738   2.769   1.570   1.805 -0.0030 -0.2663  0.6079
  935SOL    HW2 3739   2.615   1.593   1.764  2.3700  0.0155  3.6068
  935SOL     MW 3740   2.683   1.584   1.824  0.3755 -0.1022  0.0106
  936SOL     OW 3741   2.993   2.282   0.010  0.0896 -0.0386 -0.0317
  936SOL    HW1 3742   3.058   2.317   0.067 -0.7223  2.4665  1.7059
  936SOL    HW2 3743   2.918   2.343   0.017 -0.6720 -1.1842 -0.8891
  936SOL     MW 3744   2.991   2.295   0.018 -0.1180  0.1408  0.0844
  937SOL     OW 3745   2.019   2.155   2.688 -0.2027 -0.3597  0.5149
  937SOL    HW1 3746   2.107   2.110   2.704  3.0781 -1.8947 -0.3647
  937SOL    HW2 3747   1.986   2.129   2.600  1.8798  0.7689  1.4653
  937SOL     MW 3748   2.026   2.146   2.678  0.5050 -0.4133  0.5242
  938SOL     OW 3749   2.276   1.762   1.899  0.0694 -0.3476 -0.0654
  938SOL    HW1 3750   2.293   1.784   1.807  0.6803 -0.4703  1.0940
  938SOL    HW2 3751   2.285   1.844   1.947  1.7547 -1.3229 -1.6760
  938SOL     MW 3752   2.279   1.776   1.893  0.3724 -0.4925 -0.1249
  939SOL     OW 3753   2.792   1.970   2.260  0.2962 -0.0129 -0.1281
  939SOL    HW1 3754   2.819   1.927   2.178  0.6520 -0.6726  1.8735
  939SOL    HW2 3755   2.696   1.949   2.275  3.5546 -0.0937  0.9056
  939SOL     MW 3756   2.783   1.961   2.251  0.7731 -0.1106  0.2724
  940SOL     OW 3757   2.281   0.127   2.693 -0.5225  0.2626 -0.2703
  940SOL    HW1 3758   2.276   0.033   2.659 -0.3428  1.8215 -1.5228
  940SOL    HW2 3759   2.334   0.116   2.771  1.6364  2.8659 -1.2339
  940SOL     MW 3760   2.287   0.113   2.699 -0.2140  0.8118 -0.5627
  941SOL     OW 3761   0.150   2.420   2.063  0.1376 -0.1528 -0.2370
  941SOL    HW1 3762   0.231   2.379   2.051 -0.2580 -0.6747 -1.2796
  941SOL    HW2 3763   0.106   2.421   1.976  2.7738 -2.0938  0.4285
  941SOL     MW 3764   0.155   2.414   2.050  0.4332 -0.4778 -0.2867
  942SOL     OW 3765   2.845   2.232   2.262  0.4802 -0.1995 -0.4244
  942SOL    HW1 3766   2.793   2.266   2.188 -0.7219  1.5264 -0.0145
  942SOL    HW2 3767   2.851   2.127   2.262  0.7765 -2.1195 -0.5980
  942SOL     MW 3768   2.839   2.223   2.252  0.3607 -0.2251 -0.3932
  943SOL     OW 3769   0.230   2.115   2.292 -0.2057 -0.2702  0.2609
  943SOL    HW1 3770   0.217   2.176   2.364  1.5131 -0.2467  1.0424
  943SOL    HW2 3771   0.312   2.060   2.319  1.7179 -1.0351 -1.9182
  943SOL     MW 3772   0.239   2.116   2.305  0.2749 -0.3680  0.0765
  944SOL     OW 3773   2.101   2.636   2.010 -0.0122  0.2388 -0.5266
  944SOL    HW1 3774   2.179   2.579   2.030 -3.0461  0.0467  1.2649
  944SOL    HW2 3775   2.082   2.679   2.093 -1.2849  0.4992  0.4820
  944SOL     MW 3776   2.109   2.634   2.023 -0.5804  0.2478 -0.1571
  945SOL     OW 3777   2.795   2.703   2.852  0.2680  0.3701 -0.4289
  945SOL    HW1 3778   2.762   2.613   2.855 -0.2525  4.3732  1.4679
  945SOL    HW2 3779   2.785   2.727   2.759  0.1294  1.8546 -1.3917
  945SOL     MW 3780   2.789   2.694   2.840  0.1811  1.0941 -0.3057
  946SOL     OW 3781   2.437   2.679   2.234  0.0105 -0.3316 -0.6367
  946SOL    HW1 3782   2.495   2.734   2.182 -4.9720 -2.1163  4.0398
  946SOL    HW2 3783   2.406   2.607   2.180 -0.8973 -1.0163 -1.3170
  946SOL     MW 3784   2.441   2.677   2.220 -0.7666 -0.6574 -0.1094
  947SOL     OW 3785   1.986   3.105   0.265  0.5092  0.0534 -0.0359
  947SOL    HW1 3786   1.972   3.014   0.229 -0.3903 -2.9560 -1.6864
  947SOL    HW2 3787   2.038   3.099   0.344  0.8765  2.4580 -2.0409
  947SOL     MW 3788   1.991   3.092   0.271  0.4390 -0.0264 -0.5182
  948SOL     OW 3789   1.801   2.998   2.697  0.5337 -0.1910 -0.0390
  948SOL    HW1 3790   1.805   2.901   2.686 -0.1312 -2.5963 -0.0816
  948SOL    HW2 3791   1.792   3.022   2.608  0.9127  0.5471  0.0489
  948SOL     MW 3792   1.800   2.989   2.684  0.4960 -0.4110 -0.0330
  949SOL     OW 3793   2.524   1.961   2.322 -0.6472  0.3502 -0.4181
  949SOL    HW1 3794   2.511   1.877   2.370  0.7231 -0.7970  1.4146
  949SOL    HW2 3795   2.463   2.018   2.365  0.8178  0.2876  0.4055
  949SOL     MW 3796   2.515   1.957   2.334 -0.2731  0.1906 -0.0676
  950SOL     OW 3797   2.286   2.584   2.940 -0.2714 -0.1907 -0.1874
  950SOL    HW1 3798   2.331   2.518   2.891  0.0879  0.1854  1.2032
  950SOL    HW2 3799   2.193   2.603   2.899  2.3951  1.6486 -0.4783
  950SOL     MW 3800   2.280   2.578   2.928  0.1279  0.1016 -0.0423
  951SOL     OW 3801   3.072   2.203   2.841  0.0582  0.6376  0.2742
  951SOL    HW1 3802   3.026   2.227   2.926  0.7857 -1.5996 -0.9693
  951SOL    HW2 3803   3.096   2.111   2.851 -0.5775  0.9956 -0.0267
  951SOL     MW 3804   3.069   2.194   2.854  0.0703  0.3896  0.0704
  952SOL     OW 3805   3.056   1.649   2.096 -0.5266  0.0661 -0.1026
  952SOL    HW1 3806   2.992   1.713   2.063  0.5781  0.7609  1.3799
  952SOL    HW2 3807   3.095   1.712   2.157  0.2947  0.6339  1.9251
  952SOL     MW 3808   3.053   1.666   2.100 -0.2725  0.2327  0.3605
  953SOL     OW 3809   1.944   1.788   2.870  0.1478 -0.1482  0.1553
  953SOL    HW1 3810   1.870   1.751   2.914  1.1992 -0.1914  0.9892
  953SOL    HW2 3811   1.975   1.707   2.817  0.9668  4.0555 -0.1943
  953SOL     MW 3812   1.939   1.772   2.869  0.3946  0.4007  0.2192
  954SOL     OW 3813   2.465   2.123   2.914  0.5497  0.1431  0.5102
  954SOL    HW1 3814   2.371   2.114   2.877 -3.9324 -1.1569  1.0563
  954SOL    HW2 3815   2.519   2.081   2.844  3.1723 -3.5973 -0.8973
  954SOL     MW 3816   2.460   2.116   2.900  0.3044 -0.5219  0.3966
  955SOL     OW 3817   1.551   1.625   2.525 -0.2483 -0.5301  0.0405
  955SOL    HW1 3818   1.540   1.638   2.429  0.9507  3.7139 -1.6893
  955SOL    HW2 3819   1.647   1.645   2.545  2.2560  0.3166  1.4921
  955SOL     MW 3820   1.562   1.629   2.515  0.2403  0.1416  0.0038
  956SOL     OW 3821   2.716   2.448   2.831  0.1659  0.3314  0.3303
  956SOL    HW1 3822   2.726   2.414   2.928 -2.6347  0.7396 -1.1795
  956SOL    HW2 3823   2.793   2.423   2.780 -2.9093  1.9672 -2.5654
  956SOL     MW 3824   2.727   2.440   2.837 -0.6093  0.6011 -0.2510
  957SOL     OW 3825   2.242   2.926   0.458  0.6587 -0.0729  0.4656
  957SOL    HW1 3826   2.192   2.870   0.395  0.3491 -1.6701 -1.7416
  957SOL    HW2 3827   2.272   2.858   0.515  0.5175  0.6573 -0.3782
  957SOL     MW 3828   2.239   2.909   0.457  0.5992 -0.1873  0.0631
  958SOL     OW 3829   2.037   2.666   2.834  0.1199 -0.0391 -0.0330
  958SOL    HW1 3830   1.995   2.590   2.783 -0.9021  2.1133  0.4580
  958SOL    HW2 3831   1.989   2.672   2.920 -0.3613  0.5880 -1.3800
  958SOL     MW 3832   2.025   2.657   2.838 -0.0785  0.3276 -0.1459
  959SOL     OW 3833   2.510   2.796   0.434  0.2717 -0.0315  0.7586
  959SOL    HW1 3834   2.499   2.787   0.337  0.3215  0.4868 -0.6224
  959SOL    HW2 3835   2.431   2.842   0.463 -2.2100  2.6386 -0.1870
  959SOL     MW 3836   2.498   2.801   0.425 -0.0492  0.3892  0.4516
  960SOL     OW 3837   1.938   2.286   2.333  0.3437 -0.1821  0.2634
  960SOL    HW1 3838   1.922   2.196   2.368  0.8885  1.1937 -0.6951
  960SOL    HW2 3839   1.888   2.338   2.397 -0.2201  1.2756 -0.5878
  960SOL     MW 3840   1.929   2.281   2.346  0.3412  0.1917  0.0246
  961SOL     OW 3841   2.204   2.329   2.273  0.6756 -0.1378 -0.0090
  961SOL    HW1 3842   2.116   2.290   2.274  1.7781 -0.3233  2.4202
  961SOL    HW2 3843   2.211   2.377   2.352  0.4376  0.8773 -1.5634
  961SOL     MW 3844   2.194   2.330   2.284  0.7897 -0.0283  0.1064
  962SOL     OW 3845   2.234   2.007   2.751 -0.1828  0.3848  0.0623
  962SOL    HW1 3846   2.207   1.967   2.831 -2.8301  1.2227 -0.7418
  962SOL    HW2 3847   2.244   1.935   2.696 -1.4414 -0.8874  3.7406
  962SOL     MW 3848   2.232   1.992   2.754 -0.6981  0.3275  0.4415
  963SOL     OW 3849   1.783   2.479   2.132 -0.2283  0.2970 -0.0818
  963SOL    HW1 3850   1.836   2.427   2.189 -1.3352 -1.7847  0.1390
  963SOL    HW2 3851   1.826   2.456   2.047 -1.1925 -3.4272  0.7902
  963SOL     MW 3852   1.796   2.469   2.128 -0.5016 -0.4690  0.0624
  964SOL     OW 3853   1.831   1.977   2.728  0.2794 -0.0422 -0.4746
  964SOL    HW1 3854   1.904   2.038   2.718 -0.0263  1.4489  1.6927
  964SOL    HW2 3855   1.869   1.899   2.785 -0.5303  2.4775  0.4908
  964SOL     MW 3856   1.846   1.975   2.734  0.1323  0.4870 -0.0613
  965SOL     OW 3857   2.253   2.720   0.666 -0.1516 -0.1688  0.4967
  965SOL    HW1 3858   2.255   2.628   0.641  0.6765  0.7910  1.0932
  965SOL    HW2 3859   2.309   2.723   0.744 -2.9487 -1.0927  1.2297
  965SOL     MW 3860   2.261   2.708   0.673 -0.4114 -0.1641  0.6721
  966SOL     OW 3861   2.661   2.607   2.384  0.1304  0.2318 -0.1986
  966SOL    HW1 3862   2.581   2.601   2.333  0.7662 -2.5823  0.6375
  966SOL    HW2 3863   2.671   2.517   2.423  2.7855 -0.9171  1.8001
  966SOL     MW 3864   2.652   2.595   2.382  0.5646 -0.2911  0.1754
  967SOL     OW 3865   2.820   3.068   2.929  0.0872 -0.0733  0.2309
  967SOL    HW1 3866   2.779   3.007   2.993  1.8971  1.1004 -0.1955
  967SOL    HW2 3867   2.758   3.078   2.854  1.1985 -1.6820 -1.4523
  967SOL     MW 3868   2.806   3.062   2.928  0.4727 -0.1307 -0.0475
  968SOL     OW 3869   3.038   2.625   2.997  0.2248  0.3574  0.0576
  968SOL    HW1 3870   2.980   2.688   2.954 -1.6702  2.0054  1.5736
  968SOL    HW2 3871   3.072   2.575   2.919 -0.6865 -2.1747  1.4703
  968SOL     MW 3872   3.035   2.627   2.981 -0.1454  0.2408  0.4440
  969SOL     OW 3873   1.605   2.197   1.690 -0.1696  0.2575  0.4747
  969SOL    HW1 3874   1.680   2.138   1.696  0.0054  0.6805 -0.1721
  969SOL    HW2 3875   1.577   2.200   1.783  1.0220  0.5949 -1.3846
  969SOL     MW 3876   1.611   2.190   1.703  0.0107  0.3578  0.1440
  970SOL     OW 3877   1.781   1.827   1.910  0.1704  0.1351 -0.3350
  970SOL    HW1 3878   1.827   1.755   1.948 -2.6163  0.5992  1.6602
  970SOL    HW2 3879   1.694   1.786   1.921 -0.5013  1.4347  1.8775
  970SOL     MW 3880   1.776   1.812   1.916 -0.2859  0.3678  0.2202
  971SOL     OW 3881   1.768   3.072   2.406  0.3281 -0.2137  0.1325
  971SOL    HW1 3882   1.834   3.030   2.345  1.3603 -1.9324 -0.7481
  971SOL    HW2 3883   1.797   3.160   2.407  0.6366 -1.2104  1.0456
  971SOL     MW 3884   1.781   3.078   2.398  0.5050 -0.5720  0.1368
  972SOL     OW 3885   0.260   2.871   2.468 -0.1035 -0.4717 -0.5209
  972SOL    HW1 3886   0.330   2.810   2.467 -0.1781 -0.7463 -0.9508
  972SOL    HW2 3887   0.305   2.959   2.494 -0.0117  2.4423  2.0350
  972SOL     MW 3888   0.275   2.874   2.472 -0.1012 -0.1234 -0.2404
  973SOL     OW 3889   2.617   3.070   2.112  0.0375  0.2838 -0.1324
  973SOL    HW1 3890   2.604   2.976   2.083 -0.3258 -0.1524 -0.1038
  973SOL    HW2 3891   2.613   3.119   2.033 -0.4019 -0.9433  0.6144
  973SOL     MW 3892   2.615   3.064   2.098 -0.0684  0.0643 -0.0301
  974SOL     OW 3893   1.993   0.149   2.691 -0.5622 -0.0221 -0.7022
  974SOL    HW1 3894   2.091   0.143   2.682 -0.7296 -1.5204 -1.8126
  974SOL    HW2 3895   1.982   0.105   2.777 -1.8320 -2.0021  0.1099
  974SOL     MW 3896   2.004   0.143   2.701 -0.7518 -0.4810 -0.7415
  975SOL     OW 3897   2.204   2.482   2.498  0.2619  0.1475  0.2729
  975SOL    HW1 3898   2.288   2.522   2.520 -1.2129  1.3056 -0.0726
  975SOL    HW2 3899   2.145   2.556   2.469 -0.6403  1.0746 -0.0523
  975SOL     MW 3900   2.208   2.497   2.497 -0.0517  0.4226  0.1844
  976SOL     OW 3901   0.154   0.368   1.744  0.4785 -0.8376 -0.1350
  976SOL    HW1 3902   0.225   0.315   1.773 -2.7762  0.5855  0.0507
  976SOL    HW2 3903   0.099   0.294   1.706 -0.9861 -3.7016  1.2842
  976SOL     MW 3904   0.156   0.352   1.743 -0.1442 -1.0277  0.0768
  977SOL     OW 3905   1.692   2.705   2.485  0.0774  0.2734 -0.4935
  977SOL    HW1 3906   1.754   2.629   2.491  0.6632  0.5887  0.8499
  977SOL    HW2 3907   1.752   2.758   2.438 -1.0406 -1.5016 -1.5600
  977SOL     MW 3908   1.708   2.702   2.480  0.0072  0.0808 -0.4569
   3.10000   3.10000   3.10000
