977 TIP4P/2005f water molecules t=   0.48000 step= 480
 3908
    1SOL     OW    1   0.284   0.792   0.039 -1.1784  0.2856 -0.2360
    1SOL    HW1    2   0.256   0.831  -0.041 -0.2289 -2.0920  0.5257
    1SOL    HW2    3   0.255   0.701   0.036  1.1683  1.1146  0.5087
    1SOL     MW    4   0.276   0.785   0.028 -0.7435  0.0813 -0.0373
    2SOL     OW    5   0.277   3.060   1.177 -0.8124 -0.3638 -0.3046
    2SOL    HW1    6   0.333   3.118   1.124 -0.5275  0.9707 -0.4635
    2SOL    HW2    7   0.185   3.101   1.180  0.7870  3.3831 -2.7579
    2SOL     MW    8   0.272   3.073   1.171 -0.5638  0.3066 -0.6493
    3SOL     OW    9   2.678   0.388   0.930  0.6419  0.2247  0.1832
    3SOL    HW1   10   2.678   0.469   0.880  0.9085 -3.8348 -0.6345
    3SOL    HW2   11   2.637   0.416   1.017  0.2641 -1.2550 -1.7796
    3SOL     MW   12   2.673   0.403   0.935  0.6273 -0.5062 -0.1837
    4SOL     OW   13   3.032   1.749   0.592  0.3369  0.1545  0.4477
    4SOL    HW1   14   2.973   1.798   0.530 -1.6331  1.4620 -0.5305
    4SOL    HW2   15   3.076   1.698   0.526  0.3491  0.5331 -2.0894
    4SOL     MW   16   3.030   1.749   0.575  0.0786  0.3770 -0.0161
    5SOL     OW   17   1.751   1.506   0.594  0.0375  0.2654  0.0545
    5SOL    HW1   18   1.797   1.458   0.667  1.5201  2.5024 -1.1610
    5SOL    HW2   19   1.655   1.493   0.603 -1.8234  2.0217  0.7205
    5SOL     MW   20   1.745   1.498   0.605 -0.0124  0.7922 -0.0180
    6SOL     OW   21   0.862   1.376   0.685  0.1661  0.4566  0.3758
    6SOL    HW1   22   0.770   1.389   0.696 -0.0861 -2.0673 -2.4357
    6SOL    HW2   23   0.874   1.290   0.720  0.4901 -0.8312 -3.4768
    6SOL     MW   24   0.851   1.366   0.691  0.1756 -0.0463 -0.5035
    7SOL     OW   25   1.983   1.079   0.054  0.4692  0.0998 -0.3513
    7SOL    HW1   26   2.015   1.161   0.018  0.0212 -0.0134  2.7819
    7SOL    HW2   27   2.019   1.077   0.147 -2.7739 -0.2465  2.8860
    7SOL     MW   28   1.992   1.089   0.062 -0.0178  0.0391  0.4892
    8SOL     OW   29   0.965   1.350   1.013 -0.2578  0.4800 -0.0579
    8SOL    HW1   30   1.003   1.273   0.978  1.2780  0.9775 -0.3862
    8SOL    HW2   31   1.001   1.343   1.105  0.6464 -4.1082  2.4615
    8SOL     MW   32   0.975   1.339   1.021  0.0641 -0.0597  0.2312
    9SOL     OW   33   1.073   0.474   1.366  0.2623  0.1086  0.2757
    9SOL    HW1   34   1.005   0.426   1.321  0.7447  2.3542 -1.6411
    9SOL    HW2   35   1.090   0.434   1.451 -1.3068  2.3341 -0.5026
    9SOL     MW   36   1.066   0.463   1.371  0.1189  0.6985 -0.0799
   10SOL     OW   37   0.274   0.772   0.455 -0.5992 -0.2454 -0.1070
   10SOL    HW1   38   0.366   0.783   0.418  3.3179 -0.7547  0.0730
   10SOL    HW2   39   0.268   0.830   0.535  1.4036  1.0809  1.5224
   10SOL     MW   40   0.285   0.781   0.461  0.1818 -0.1376  0.1318
   11SOL     OW   41   0.796   1.086   1.625  0.3854  0.1583  0.2535
   11SOL    HW1   42   0.800   1.082   1.719 -2.7407  0.0912 -1.2428
   11SOL    HW2   43   0.745   1.014   1.583  2.6707  2.4357  0.1087
   11SOL     MW   44   0.790   1.076   1.632  0.2745  0.4499  0.0370
   12SOL     OW   45   0.039   1.083   0.866  0.2940 -0.1422 -0.3666
   12SOL    HW1   46   0.059   1.153   0.925 -2.6595 -3.7744  1.4220
   12SOL    HW2   47  -0.045   1.127   0.856  0.9893  1.3697  1.8280
   12SOL     MW   48   0.030   1.098   0.872 -0.0039 -0.4219  0.1589
   13SOL     OW   49   1.887   1.398   1.322 -0.1510  0.1442 -0.3257
   13SOL    HW1   50   1.912   1.379   1.235 -2.4811  0.0513  0.4194
   13SOL    HW2   51   1.873   1.498   1.327  0.0964  2.0271 -0.1896
   13SOL     MW   52   1.888   1.408   1.311 -0.4258  0.3804 -0.2094
   14SOL     OW   53   0.596   0.307   1.795 -0.2147 -0.2794  0.0088
   14SOL    HW1   54   0.599   0.227   1.737 -1.4417  1.2167 -1.3038
   14SOL    HW2   55   0.683   0.314   1.839 -0.2884 -0.0610  1.7769
   14SOL     MW   56   0.608   0.298   1.793 -0.3863 -0.0532  0.0689
   15SOL     OW   57   1.981   0.510   0.956 -0.1015 -0.1019 -0.2540
   15SOL    HW1   58   1.965   0.486   1.048 -0.9967  0.6643  2.7565
   15SOL    HW2   59   2.065   0.467   0.923  1.6198  2.2241  1.7526
   15SOL     MW   60   1.990   0.501   0.964  0.0075  0.3061  0.4079
   16SOL     OW   61   0.207   1.762   0.334  0.3583  0.7295 -0.0290
   16SOL    HW1   62   0.295   1.721   0.349 -0.5878 -1.4281  0.5020
   16SOL    HW2   63   0.198   1.834   0.397  2.1645 -3.2202  0.1650
   16SOL     MW   64   0.217   1.766   0.344  0.4718 -0.0763  0.0667
   17SOL     OW   65   1.015   0.815   1.500 -0.1696  0.1494 -0.3244
   17SOL    HW1   66   1.045   0.832   1.589  0.4078  1.4758 -2.5352
   17SOL    HW2   67   0.918   0.809   1.506 -1.2156 -1.5664 -1.4296
   17SOL     MW   68   1.006   0.816   1.513 -0.2314  0.0980 -0.7619
   18SOL     OW   69   0.080   1.561   0.456  0.3336  0.4268 -0.1389
   18SOL    HW1   70   0.115   1.621   0.387 -0.9964  1.4852  0.2058
   18SOL    HW2   71   0.049   1.488   0.402 -2.3593  1.7613  0.9487
   18SOL     MW   72   0.080   1.559   0.440 -0.1972  0.7426  0.0500
   19SOL     OW   73   0.082   1.326   0.983  0.1225 -0.5977 -0.3576
   19SOL    HW1   74   0.148   1.366   0.925  1.6689 -0.0802  0.3699
   19SOL    HW2   75   0.002   1.376   0.973  0.7758 -2.4994  1.3586
   19SOL     MW   76   0.080   1.338   0.974  0.4127 -0.7803 -0.0352
   20SOL     OW   77   0.441   2.134   1.310 -0.5620  0.2358 -0.4062
   20SOL    HW1   78   0.398   2.070   1.253  1.7983  1.4341 -0.4295
   20SOL    HW2   79   0.382   2.171   1.375  1.2247 -0.4221 -0.1314
   20SOL     MW   80   0.427   2.131   1.311 -0.0148  0.3071 -0.3730
   21SOL     OW   81   0.525   0.849   0.345  0.0720 -0.2844  0.2030
   21SOL    HW1   82   0.596   0.811   0.392 -1.5980 -1.3162  2.6272
   21SOL    HW2   83   0.536   0.826   0.251  0.9890  1.6386 -0.0763
   21SOL     MW   84   0.535   0.841   0.339 -0.0274 -0.1668  0.4860
   22SOL     OW   85   1.563   0.578   1.098  0.1864  0.3613  0.0036
   22SOL    HW1   86   1.621   0.528   1.031 -0.3202  0.2049  3.2245
   22SOL    HW2   87   1.485   0.613   1.051  0.3177 -0.7094  1.3406
   22SOL     MW   88   1.560   0.576   1.083  0.1369  0.1994  0.6050
   23SOL     OW   89   3.075   0.748   0.703 -0.4122  0.0209 -0.1484
   23SOL    HW1   90   3.138   0.677   0.706  0.6772  1.8484  0.3178
   23SOL    HW2   91   3.138   0.820   0.698  1.8387  0.7763  0.7458
   23SOL     MW   92   3.091   0.748   0.703  0.0285  0.3617  0.0311
   24SOL     OW   93   2.014   2.169   0.069  0.1214 -0.0110  0.0690
   24SOL    HW1   94   2.028   2.180   0.165  1.7790 -0.9910  0.5605
   24SOL    HW2   95   2.073   2.101   0.045 -4.3155 -0.9263 -2.1428
   24SOL     MW   96   2.023   2.162   0.079 -0.2453 -0.2610 -0.1579
   25SOL     OW   97   0.327   1.430   0.521  0.2347  0.0501 -0.2877
   25SOL    HW1   98   0.255   1.494   0.499 -1.5219  3.0450  0.5557
   25SOL    HW2   99   0.386   1.432   0.455 -1.7126 -0.2066  0.4205
   25SOL     MW  100   0.325   1.439   0.510 -0.2540  0.4114 -0.0830
   26SOL     OW  101   2.056   0.904   0.476 -0.4440  0.0561 -0.1735
   26SOL    HW1  102   1.980   0.964   0.467  1.7990 -3.6440 -0.9874
   26SOL    HW2  103   2.096   0.921   0.390  0.7751 -2.0954 -0.7571
   26SOL     MW  104   2.051   0.914   0.464  0.0128 -0.7160 -0.3579
   27SOL     OW  105   2.035   1.371   0.257  0.2142  0.2003 -0.0826
   27SOL    HW1  106   1.941   1.360   0.278 -0.0417 -1.2356 -1.2424
   27SOL    HW2  107   2.063   1.447   0.311  1.6286 -0.7720  0.9366
   27SOL     MW  108   2.026   1.379   0.267  0.3670 -0.1175 -0.1011
   28SOL     OW  109   0.366   1.038   1.960 -0.8241  0.3562  0.5889
   28SOL    HW1  110   0.378   0.947   1.937  3.2997 -0.1240  1.8120
   28SOL    HW2  111   0.296   1.014   2.015 -0.5290 -0.6723 -3.0424
   28SOL     MW  112   0.359   1.023   1.964 -0.2411  0.1572  0.2712
   29SOL     OW  113   0.271   1.415   0.808 -0.0264  0.0012  0.4831
   29SOL    HW1  114   0.267   1.512   0.813  0.1431 -0.4646 -1.8415
   29SOL    HW2  115   0.286   1.404   0.712 -2.1443 -0.9768  1.2461
   29SOL     MW  116   0.272   1.426   0.796 -0.2835 -0.1893  0.2771
   30SOL     OW  117   0.873   1.075   1.216  0.3048  0.7496 -0.1420
   30SOL    HW1  118   0.784   1.112   1.239 -2.6501  0.1095 -0.8620
   30SOL    HW2  119   0.927   1.084   1.296  1.5383  2.2567  1.1566
   30SOL     MW  120   0.868   1.081   1.229  0.0777  0.8640 -0.0657
   31SOL     OW  121   0.402   0.258   0.212 -0.0237 -0.9116 -0.8250
   31SOL    HW1  122   0.402   0.191   0.289 -1.0126 -0.9034  0.3577
   31SOL    HW2  123   0.391   0.203   0.135 -1.8134  3.1434 -1.0424
   31SOL     MW  124   0.400   0.242   0.212 -0.3903 -0.3755 -0.6976
   32SOL     OW  125   2.756   1.055   1.120  0.1020 -0.0974 -0.1953
   32SOL    HW1  126   2.718   0.969   1.090  1.7283  0.5718 -1.3225
   32SOL    HW2  127   2.848   1.037   1.136 -0.5345 -1.1768  1.0395
   32SOL     MW  128   2.763   1.041   1.118  0.2326 -0.1515 -0.1811
   33SOL     OW  129   1.762   1.359   0.360  0.6696  0.4548 -0.2543
   33SOL    HW1  130   1.763   1.264   0.378 -0.4805  0.4137 -1.6283
   33SOL    HW2  131   1.756   1.403   0.443  0.9823  1.3819 -1.9731
   33SOL     MW  132   1.761   1.352   0.374  0.5591  0.5717 -0.6624
   34SOL     OW  133   1.205   1.889   1.093  0.5665  0.2374  0.5179
   34SOL    HW1  134   1.118   1.905   1.129 -1.6134 -1.5018  1.8740
   34SOL    HW2  135   1.271   1.905   1.168 -1.2454  0.8969 -1.8946
   34SOL     MW  136   1.202   1.893   1.108  0.0398  0.0949  0.3785
   35SOL     OW  137   0.312   0.124   1.815  0.3598  0.3775  0.0869
   35SOL    HW1  138   0.380   0.130   1.880 -1.7447  0.1868 -0.9482
   35SOL    HW2  139   0.336   0.038   1.768  0.1796 -0.3015 -0.9890
   35SOL     MW  140   0.324   0.113   1.817  0.0584  0.2628 -0.1917
   36SOL     OW  141   1.870   1.955   0.518 -0.7580 -0.2173 -0.4065
   36SOL    HW1  142   1.869   1.937   0.418  0.9625 -0.1191 -2.8871
   36SOL    HW2  143   1.861   1.866   0.558 -0.6728 -4.0080  1.9483
   36SOL     MW  144   1.868   1.941   0.510 -0.5198 -0.7045 -0.4231
   37SOL     OW  145   1.747   2.067   1.001 -0.1566 -0.0763  0.4795
   37SOL    HW1  146   1.709   2.005   0.940  2.5441 -1.9729 -0.5762
   37SOL    HW2  147   1.682   2.108   1.071 -1.3431  1.5638  0.5869
   37SOL     MW  148   1.733   2.064   1.002  0.0432 -0.1101  0.3544
   38SOL     OW  149   2.827   0.924   0.175  0.2680  0.1349 -0.0266
   38SOL    HW1  150   2.873   0.906   0.257  0.1972 -0.0098  2.8583
   38SOL    HW2  151   2.888   0.897   0.108 -0.3063 -2.0233 -0.4740
   38SOL     MW  152   2.841   0.918   0.177  0.1829 -0.1689  0.2950
   39SOL     OW  153   1.439   0.627   0.800 -0.3163 -0.4118  0.1313
   39SOL    HW1  154   1.442   0.539   0.762  1.9197  1.0475 -2.7713
   39SOL    HW2  155   1.347   0.641   0.819 -0.0892 -1.7771 -1.2250
   39SOL     MW  156   1.427   0.617   0.797  0.0087 -0.3994 -0.4306
   40SOL     OW  157   1.252   1.884   0.254 -0.3595  0.0237  0.0475
   40SOL    HW1  158   1.277   1.792   0.278 -3.3978 -1.3698  0.2935
   40SOL    HW2  159   1.229   1.926   0.337 -1.7940 -0.5140  0.2012
   40SOL     MW  160   1.252   1.878   0.268 -0.9496 -0.2311  0.1002
   41SOL     OW  161   0.598   0.480   1.573 -0.1792  0.0797 -0.0716
   41SOL    HW1  162   0.689   0.497   1.557 -0.2030  0.8238  0.7806
   41SOL    HW2  163   0.595   0.421   1.645  1.3194  2.6166 -0.7684
   41SOL     MW  164   0.610   0.474   1.580  0.0154  0.5126 -0.0511
   42SOL     OW  165   1.299   3.014   1.992 -0.6846 -0.3357 -0.4084
   42SOL    HW1  166   1.212   3.017   2.032  2.3884 -1.3828  1.6259
   42SOL    HW2  167   1.343   2.931   2.006  0.3339  0.7262  2.2452
   42SOL     MW  168   1.294   3.003   1.999 -0.1448 -0.3337  0.2101
   43SOL     OW  169   1.541   0.179   1.707 -0.8514 -0.3632  0.4316
   43SOL    HW1  170   1.599   0.139   1.643  1.5513  0.0869  0.4050
   43SOL    HW2  171   1.447   0.136   1.712 -4.0575 -3.2546  0.7130
   43SOL     MW  172   1.536   0.168   1.699 -0.9574 -0.6853  0.4652
   44SOL     OW  173   1.286   0.733   1.087 -0.7771 -0.0020 -0.0434
   44SOL    HW1  174   1.303   0.821   1.051  1.6646  2.5714  1.2340
   44SOL    HW2  175   1.257   0.763   1.173  1.3748 -0.7615  1.2723
   44SOL     MW  176   1.285   0.748   1.093 -0.1710  0.2373  0.2987
   45SOL     OW  177   1.176   0.716   0.782 -0.7727  0.3255  0.3396
   45SOL    HW1  178   1.101   0.728   0.847  1.1920 -0.2024  0.5204
   45SOL    HW2  179   1.133   0.671   0.702 -0.3582  3.0299  0.2442
   45SOL     MW  180   1.160   0.711   0.780 -0.4588  0.6127  0.3508
   46SOL     OW  181   0.564   1.157   0.518  0.0344 -0.0841  0.3730
   46SOL    HW1  182   0.553   1.188   0.422 -2.1405 -0.5495 -2.1637
   46SOL    HW2  183   0.655   1.117   0.520 -0.0864  0.5210 -0.8303
   46SOL     MW  184   0.574   1.156   0.505 -0.2685 -0.0657 -0.1204
   47SOL     OW  185   0.192   1.912   1.819  0.4468 -0.2870 -0.4042
   47SOL    HW1  186   0.208   1.834   1.760  1.6260 -0.0199  0.5516
   47SOL    HW2  187   0.203   1.882   1.912  2.4190  0.9506  0.5316
   47SOL     MW  188   0.195   1.898   1.823  0.8626 -0.0885 -0.1546
   48SOL     OW  189   1.027   0.613   1.023  0.2805 -0.0371  0.0417
   48SOL    HW1  190   0.965   0.660   1.080 -2.7706 -0.9472 -1.3620
   48SOL    HW2  191   1.116   0.635   1.050 -2.9939  0.0300 -0.3390
   48SOL     MW  192   1.031   0.622   1.034 -0.5541 -0.1484 -0.1938
   49SOL     OW  193   1.808   0.775   1.572  0.1748  0.0364 -0.5103
   49SOL    HW1  194   1.769   0.751   1.657  0.4219 -3.1824  1.5942
   49SOL    HW2  195   1.830   0.682   1.545  0.5129 -2.6260  0.5630
   49SOL     MW  196   1.806   0.759   1.579  0.2520 -0.7396 -0.0910
   50SOL     OW  197   1.184   1.039   0.508 -0.5012  0.5249  0.4612
   50SOL    HW1  198   1.201   1.076   0.592 -3.9796 -0.2454 -0.1740
   50SOL    HW2  199   1.245   0.960   0.522  2.2072  0.4423  0.4542
   50SOL     MW  200   1.194   1.034   0.521 -0.6028  0.4124  0.3765
   51SOL     OW  201   0.332   2.878   0.960  0.3316  0.1405 -0.2763
   51SOL    HW1  202   0.427   2.871   0.985  0.3740  1.1869 -0.8784
   51SOL    HW2  203   0.293   2.922   1.039 -1.1628 -0.9068 -1.0370
   51SOL     MW  204   0.339   2.883   0.974  0.1400  0.1404 -0.4561
   52SOL     OW  205   0.791   1.770   0.383  0.0287  0.2776  0.1725
   52SOL    HW1  206   0.771   1.844   0.435  1.3697  0.2256 -2.5567
   52SOL    HW2  207   0.749   1.786   0.299  0.8756  2.9639 -0.8539
   52SOL     MW  208   0.783   1.782   0.379  0.3173  0.6251 -0.3230
   53SOL     OW  209   0.500   2.095   0.585  0.2878  0.8510  0.7858
   53SOL    HW1  210   0.424   2.059   0.524 -0.4026  1.6648 -0.9489
   53SOL    HW2  211   0.514   2.185   0.585 -1.0968  0.8074 -1.8053
   53SOL     MW  212   0.492   2.102   0.577  0.0140  0.9526  0.2151
   54SOL     OW  213   2.169   0.810   0.843  0.2168  0.1870 -0.2506
   54SOL    HW1  214   2.188   0.756   0.764  4.0030 -1.2616  1.4859
   54SOL    HW2  215   2.076   0.807   0.850 -0.0160 -0.5329  0.1652
   54SOL     MW  216   2.159   0.803   0.833  0.6856 -0.0991  0.0334
   55SOL     OW  217   0.549   1.493   1.572 -0.2465  0.0632  0.2294
   55SOL    HW1  218   0.489   1.523   1.501 -0.6835 -0.1174 -1.1425
   55SOL    HW2  219   0.611   1.432   1.535 -0.5217 -1.4510 -1.0997
   55SOL     MW  220   0.549   1.489   1.558 -0.3405 -0.1604 -0.1270
   56SOL     OW  221   0.548   0.791   0.086  0.1268 -0.1424 -0.0166
   56SOL    HW1  222   0.566   0.882   0.053  1.0882 -1.6041 -0.5683
   56SOL    HW2  223   0.455   0.791   0.076  2.6063 -0.7998 -0.4237
   56SOL     MW  224   0.538   0.803   0.080  0.5808 -0.4220 -0.1431
   57SOL     OW  225   1.264   1.225   1.225 -0.4546  0.2331 -0.2168
   57SOL    HW1  226   1.345   1.243   1.169  0.2733 -2.5966  1.4673
   57SOL    HW2  227   1.296   1.210   1.313  1.1332 -0.6687 -3.9359
   57SOL     MW  228   1.279   1.225   1.230 -0.1491 -0.2593 -0.4853
   58SOL     OW  229   0.614   1.115   1.299 -0.8523  0.1923 -0.3977
   58SOL    HW1  230   0.582   1.201   1.275 -2.5891  1.2145  0.3824
   58SOL    HW2  231   0.573   1.101   1.383  0.8694  1.8587 -1.4369
   58SOL     MW  232   0.604   1.125   1.307 -0.8542  0.5470 -0.4319
   59SOL     OW  233   1.591   1.622   0.362 -0.4448 -0.0566  0.3980
   59SOL    HW1  234   1.663   1.604   0.424  2.5077  1.6418  1.6136
   59SOL    HW2  235   1.523   1.672   0.410  0.4799 -0.0066  2.1551
   59SOL     MW  236   1.591   1.626   0.377  0.0668  0.1741  0.7902
   60SOL     OW  237   0.017   0.220   1.684  0.8129 -0.0807  0.2825
   60SOL    HW1  238  -0.077   0.231   1.686  0.9458 -1.5381 -0.1912
   60SOL    HW2  239   0.044   0.163   1.753  0.8083 -1.5687  0.1071
   60SOL     MW  240   0.008   0.214   1.693  0.8298 -0.4694  0.1968
   61SOL     OW  241   2.037   1.436  -0.001  0.1951 -0.1850  0.4785
   61SOL    HW1  242   2.052   1.422   0.097 -0.4486  0.8468  1.4913
   61SOL    HW2  243   2.111   1.396  -0.044  0.7744  2.1948 -0.4144
   61SOL     MW  244   2.049   1.429   0.006  0.1866  0.2652  0.4943
   62SOL     OW  245   0.665   1.665   0.622  0.3818  0.2077 -0.2054
   62SOL    HW1  246   0.713   1.652   0.537 -2.5068  0.9251  3.1925
   62SOL    HW2  247   0.625   1.577   0.638 -0.2703 -1.7027  1.3740
   62SOL     MW  248   0.666   1.652   0.613 -0.0854  0.0503  0.4513
   63SOL     OW  249   1.664   0.746   0.706 -0.2559 -0.0365  0.1354
   63SOL    HW1  250   1.651   0.782   0.617  0.3327 -0.2608  0.3798
   63SOL    HW2  251   1.581   0.725   0.749 -0.5215 -0.1705  1.5890
   63SOL     MW  252   1.652   0.748   0.700 -0.2132 -0.0838  0.3595
   64SOL     OW  253   0.260   1.690   0.778  0.0125  0.4878 -0.9759
   64SOL    HW1  254   0.337   1.744   0.783 -1.4325 -1.6812  1.9628
   64SOL    HW2  255   0.181   1.752   0.767  0.8108  1.1024 -1.1531
   64SOL     MW  256   0.260   1.705   0.777 -0.0728  0.2827 -0.6115
   65SOL     OW  257   1.565   2.312   0.352 -0.4022  0.0097  0.8230
   65SOL    HW1  258   1.657   2.302   0.365 -1.4105  1.2280  0.2664
   65SOL    HW2  259   1.547   2.348   0.437 -1.7882 -0.7752 -3.5028
   65SOL     MW  260   1.575   2.316   0.365 -0.7181  0.0669  0.1788
   66SOL     OW  261   0.344   0.521   0.505 -0.1306 -0.3559  0.1176
   66SOL    HW1  262   0.421   0.491   0.456 -0.8024  1.7293  2.2780
   66SOL    HW2  263   0.318   0.610   0.466 -4.6715  0.2878 -0.4346
   66SOL     MW  264   0.351   0.529   0.494 -0.8184  0.0041  0.3298
   67SOL     OW  265   1.471   0.102   2.036 -0.6050  0.0756  0.2171
   67SOL    HW1  266   1.527   0.105   1.956 -0.8714  0.0880 -0.2054
   67SOL    HW2  267   1.404   0.035   2.023  1.4055  1.9978  0.4918
   67SOL     MW  268   1.469   0.093   2.023 -0.3749  0.3309  0.1976
   68SOL     OW  269   0.633   0.075   2.960  0.0473  0.3282  0.1786
   68SOL    HW1  270   0.646   0.093   2.863  0.2311 -0.4852 -1.0312
   68SOL    HW2  271   0.664   0.159   3.002  0.1377  0.7986 -0.7673
   68SOL     MW  272   0.638   0.089   2.952  0.0835  0.2829 -0.1059
   69SOL     OW  273   1.016   0.216   1.952 -0.9423 -0.8133 -0.1061
   69SOL    HW1  274   1.102   0.236   1.993 -1.0449  0.7326  0.1703
   69SOL    HW2  275   0.990   0.133   1.987  1.4995  1.0937 -1.6461
   69SOL     MW  276   1.024   0.208   1.962 -0.6337 -0.3577 -0.2728
   70SOL     OW  277   0.572   1.789   1.121  0.0782 -0.0263  0.0307
   70SOL    HW1  278   0.584   1.702   1.167 -1.6733  0.0984  0.6400
   70SOL    HW2  279   0.652   1.809   1.082 -2.7322 -0.8932  0.3346
   70SOL     MW  280   0.584   1.780   1.122 -0.5237 -0.1242  0.1512
   71SOL     OW  281   1.724   0.624   1.318 -0.5017 -0.4279  0.1559
   71SOL    HW1  282   1.667   0.670   1.379  0.1572 -0.4064  3.1784
   71SOL    HW2  283   1.670   0.599   1.237 -1.4663  1.0631 -0.2082
   71SOL     MW  284   1.709   0.627   1.315 -0.5420 -0.2283  0.5066
   72SOL     OW  285   0.831   1.762   0.953 -0.0074 -0.2671  0.4626
   72SOL    HW1  286   0.783   1.817   0.878 -1.0115  0.2552 -1.2807
   72SOL    HW2  287   0.795   1.670   0.957 -1.1859  0.8372  0.0335
   72SOL     MW  288   0.820   1.757   0.943 -0.2954 -0.0525  0.1759
   73SOL     OW  289   1.207   0.719   1.345 -0.4168  0.0096 -0.1063
   73SOL    HW1  290   1.178   0.628   1.342  0.1609 -0.2740  0.7076
   73SOL    HW2  291   1.132   0.757   1.395 -0.2136  1.0966  0.2301
   73SOL     MW  292   1.193   0.712   1.351 -0.3138  0.1156  0.0454
   74SOL     OW  293   2.877   0.183   1.007  0.0764  0.5168 -0.5744
   74SOL    HW1  294   2.903   0.105   0.954  1.3949 -1.9095  0.7694
   74SOL    HW2  295   2.841   0.249   0.948  2.0320  1.1142  0.4517
   74SOL     MW  296   2.876   0.182   0.992  0.5084  0.2755 -0.2617
   75SOL     OW  297   1.597   1.336   0.126  0.1101  0.1153 -0.1019
   75SOL    HW1  298   1.654   1.363   0.198 -1.4645 -0.6140 -1.4171
   75SOL    HW2  299   1.652   1.264   0.082  2.8125 -0.1837  3.9232
   75SOL     MW  300   1.612   1.330   0.130  0.2589 -0.0204  0.2557
   76SOL     OW  301   2.996   0.646   0.467  0.5059 -0.3388 -0.3917
   76SOL    HW1  302   3.003   0.668   0.557  0.2773  0.3663 -2.0709
   76SOL    HW2  303   3.055   0.569   0.458  2.1515  0.9430 -2.5257
   76SOL     MW  304   3.005   0.639   0.477  0.6929 -0.0767 -0.8948
   77SOL     OW  305   0.830   0.486   0.446 -0.0940  0.9258 -0.2944
   77SOL    HW1  306   0.744   0.510   0.410 -0.3797  0.8602  0.8096
   77SOL    HW2  307   0.814   0.391   0.457  0.1245  2.9788  1.3149
   77SOL     MW  308   0.817   0.477   0.442 -0.1029  1.1880  0.0636
   78SOL     OW  309   0.737   0.798   1.222 -0.5292 -0.1222  0.2801
   78SOL    HW1  310   0.652   0.826   1.178  1.5231  2.6222 -0.3992
   78SOL    HW2  311   0.788   0.878   1.228 -0.4575 -1.3559  3.3178
   78SOL     MW  312   0.733   0.812   1.217 -0.2490  0.0772  0.5912
   79SOL     OW  313   1.918   1.699   0.607 -0.2615 -0.2868  0.3253
   79SOL    HW1  314   1.863   1.619   0.608 -1.3279 -3.0825  2.1919
   79SOL    HW2  315   1.962   1.700   0.691  0.3979  3.1057 -2.5366
   79SOL     MW  316   1.916   1.689   0.618 -0.3152 -0.2081  0.1940
   80SOL     OW  317   0.153   1.024   0.333 -0.1151  0.2011 -0.7661
   80SOL    HW1  318   0.062   0.990   0.353 -0.5248 -0.9455 -1.6610
   80SOL    HW2  319   0.200   0.942   0.347  1.1439 -2.2831 -0.6730
   80SOL     MW  320   0.147   1.009   0.338 -0.0031 -0.2780 -0.8719
   81SOL     OW  321   1.900   1.919   0.214  0.1452  0.4026 -0.6321
   81SOL    HW1  322   1.855   1.849   0.166 -1.1343 -1.6207  0.9198
   81SOL    HW2  323   1.818   1.970   0.242  0.1545 -0.2425 -1.4787
   81SOL     MW  324   1.883   1.916   0.211 -0.0224  0.0505 -0.5390
   82SOL     OW  325   0.801   1.052   0.518  0.0776  0.1282  0.6849
   82SOL    HW1  326   0.836   1.085   0.440 -1.8152  1.6328 -0.2489
   82SOL    HW2  327   0.788   0.963   0.499 -2.7309 -1.0762  1.8839
   82SOL     MW  328   0.804   1.044   0.505 -0.5427  0.1678  0.7199
   83SOL     OW  329   0.189   0.612   1.321  0.5743 -0.6128 -0.4513
   83SOL    HW1  330   0.167   0.699   1.339 -0.0183 -2.9505 -0.7999
   83SOL    HW2  331   0.232   0.573   1.402  2.2085  0.7894  1.9579
   83SOL     MW  332   0.192   0.618   1.334  0.7117 -0.7362 -0.1794
   84SOL     OW  333   0.076   0.227   0.909  0.1852 -0.5212 -0.4680
   84SOL    HW1  334  -0.002   0.276   0.872 -1.8158 -0.8107 -1.1111
   84SOL    HW2  335   0.040   0.189   0.991 -2.9144 -1.8525 -1.6096
   84SOL     MW  336   0.061   0.228   0.915 -0.4878 -0.7351 -0.7035
   85SOL     OW  337   0.438   0.444   0.750  0.3124  0.2325 -0.2813
   85SOL    HW1  338   0.417   0.482   0.658 -3.3460  1.9712 -0.4408
   85SOL    HW2  339   0.404   0.357   0.762  0.5883 -0.8818  3.9080
   85SOL     MW  340   0.431   0.437   0.740 -0.1339  0.3149  0.2504
   86SOL     OW  341   1.231   0.404   1.068  0.3259 -0.6326 -0.7404
   86SOL    HW1  342   1.156   0.434   1.014 -1.4722  0.6401  0.5197
   86SOL    HW2  343   1.231   0.452   1.148  1.2446 -0.6258 -0.2516
   86SOL     MW  344   1.221   0.414   1.072  0.2099 -0.4638 -0.5097
   87SOL     OW  345   1.190   1.494   1.212 -0.0778 -0.3480  0.0327
   87SOL    HW1  346   1.217   1.532   1.129 -1.0450 -1.9360  1.2226
   87SOL    HW2  347   1.217   1.403   1.207 -1.6018  1.7881  0.9904
   87SOL     MW  348   1.197   1.487   1.200 -0.4065 -0.2757  0.3161
   88SOL     OW  349   1.252   1.010   1.041 -0.4488 -0.1301  0.4651
   88SOL    HW1  350   1.349   1.018   1.032 -1.0977  0.2582  0.5371
   88SOL    HW2  351   1.233   1.083   1.102 -0.5087  2.7991 -1.0762
   88SOL     MW  352   1.262   1.020   1.048 -0.5423  0.3076  0.2712
   89SOL     OW  353   1.772   0.665   0.337 -0.2194  0.1689 -0.0804
   89SOL    HW1  354   1.821   0.583   0.321  2.5510 -1.4156  1.5293
   89SOL    HW2  355   1.825   0.731   0.286 -0.1759 -0.0822 -0.5001
   89SOL     MW  356   1.785   0.663   0.328  0.1519 -0.0733  0.0766
   90SOL     OW  357   0.699   1.194   2.790 -0.3128 -0.0365  0.7283
   90SOL    HW1  358   0.734   1.104   2.809 -1.5452 -0.7939 -3.6761
   90SOL    HW2  359   0.700   1.224   2.877 -0.8108 -2.8044 -2.4978
   90SOL     MW  360   0.703   1.186   2.804 -0.5411 -0.5016 -0.2784
   91SOL     OW  361   2.191   0.700   0.584  0.4359  0.3609 -0.5187
   91SOL    HW1  362   2.150   0.777   0.549  1.9948 -0.4748  1.1988
   91SOL    HW2  363   2.191   0.641   0.511 -1.3340  1.8684 -2.3766
   91SOL     MW  364   2.186   0.703   0.569  0.4081  0.4496 -0.5372
   92SOL     OW  365   1.638   0.865   0.447  0.4114 -0.1997 -0.3274
   92SOL    HW1  366   1.542   0.837   0.453  0.7605 -1.1093  0.1186
   92SOL    HW2  367   1.685   0.785   0.418  0.5963  0.6982  1.1145
   92SOL     MW  368   1.631   0.851   0.444  0.4819 -0.2013 -0.0783
   93SOL     OW  369   1.048   0.314   0.344 -0.3301 -0.0309  0.1123
   93SOL    HW1  370   0.986   0.387   0.350 -0.7852  0.3988  1.0256
   93SOL    HW2  371   1.081   0.314   0.253  0.2318 -0.7650 -1.7031
   93SOL     MW  372   1.044   0.324   0.333 -0.3160 -0.0711 -0.0067
   94SOL     OW  373   1.926   1.350   1.588 -0.0346 -0.5153 -0.4532
   94SOL    HW1  374   1.922   1.342   1.492 -3.0577  1.9632 -0.0899
   94SOL    HW2  375   1.912   1.254   1.619 -1.9239 -0.5729 -0.1759
   94SOL     MW  376   1.923   1.337   1.580 -0.6827 -0.1959 -0.3687
   95SOL     OW  377   0.728   1.510   0.934 -0.3725  0.0803  0.2838
   95SOL    HW1  378   0.804   1.447   0.931  0.7512  0.8046  0.2207
   95SOL    HW2  379   0.669   1.486   1.003 -2.5177 -0.7235  0.7034
   95SOL     MW  380   0.730   1.498   0.942 -0.5072  0.0698  0.3308
   96SOL     OW  381   1.214   1.801   1.591 -0.2384  0.3403  0.0721
   96SOL    HW1  382   1.125   1.800   1.584 -0.5068 -0.7385 -0.0138
   96SOL    HW2  383   1.252   1.751   1.522  0.2087 -0.3357  2.6202
   96SOL     MW  384   1.207   1.794   1.581 -0.2148  0.1087  0.3970
   97SOL     OW  385   1.201   1.423   0.770 -0.1080  0.1097 -0.5058
   97SOL    HW1  386   1.220   1.484   0.843  2.0945  0.5727  0.6492
   97SOL    HW2  387   1.104   1.412   0.763  0.9684  0.7050 -0.1308
   97SOL     MW  388   1.191   1.429   0.778  0.3247  0.2494 -0.3039
   98SOL     OW  389   1.494   1.299   1.069  0.3313 -0.4019 -0.2584
   98SOL    HW1  390   1.532   1.349   1.140 -0.2302  0.6442 -2.2460
   98SOL    HW2  391   1.533   1.333   0.990 -1.8979  2.0791 -0.4694
   98SOL     MW  392   1.504   1.310   1.068 -0.0369  0.0635 -0.5485
   99SOL     OW  393   1.480   0.366   1.297 -0.6779 -0.5786  0.1316
   99SOL    HW1  394   1.497   0.438   1.237  0.0929 -0.0306 -1.5622
   99SOL    HW2  395   1.499   0.388   1.386 -1.9957  2.8151  0.1084
   99SOL     MW  396   1.485   0.378   1.300 -0.7501 -0.0585 -0.0949
  100SOL     OW  397   1.004   1.093   1.460 -0.1378  0.3145  0.8735
  100SOL    HW1  398   0.923   1.101   1.516 -0.9086  0.9340 -0.7889
  100SOL    HW2  399   1.026   1.000   1.456 -2.8079  0.9197  2.0938
  100SOL     MW  400   0.996   1.082   1.467 -0.5918  0.4761  0.8152
  101SOL     OW  401   0.576   1.101   0.257 -0.0795 -0.4367 -0.1424
  101SOL    HW1  402   0.557   1.017   0.306  0.4190  0.7217 -0.0362
  101SOL    HW2  403   0.549   1.084   0.170 -1.8146 -1.7877  0.6969
  101SOL     MW  404   0.570   1.087   0.252 -0.2427 -0.4621 -0.0176
  102SOL     OW  405   2.947   0.640   0.987  1.0224  0.5528 -0.0503
  102SOL    HW1  406   3.018   0.677   0.944 -1.9910 -1.0250 -1.2151
  102SOL    HW2  407   2.978   0.600   1.068 -2.3033  1.2548  0.0302
  102SOL     MW  408   2.960   0.640   0.992  0.1861  0.4372 -0.1933
  103SOL     OW  409   1.664   0.374   1.856  0.1474 -0.2136 -0.2527
  103SOL    HW1  410   1.612   0.313   1.816  2.7531  0.0806  0.3042
  103SOL    HW2  411   1.731   0.327   1.904 -1.9856 -2.4227 -2.0290
  103SOL     MW  412   1.666   0.359   1.857  0.2098 -0.4663 -0.4136
  104SOL     OW  413   0.156   1.841   1.435  0.0783 -0.3753  0.6195
  104SOL    HW1  414   0.237   1.807   1.472 -2.3739  4.6534  2.0382
  104SOL    HW2  415   0.126   1.767   1.383 -0.5888 -2.0564 -0.8925
  104SOL     MW  416   0.163   1.827   1.433 -0.3333  0.0664  0.6072
  105SOL     OW  417   0.120   1.221   0.529 -0.0992  0.2977 -0.4675
  105SOL    HW1  418   0.147   1.138   0.476 -2.3044 -0.5652 -3.9644
  105SOL    HW2  419   0.195   1.284   0.532 -3.4497  1.9515 -1.0572
  105SOL     MW  420   0.134   1.218   0.522 -0.8322  0.4021 -1.0067
  106SOL     OW  421   0.849   0.304   0.960  0.2176  0.1672  0.6639
  106SOL    HW1  422   0.790   0.378   0.953 -1.9013 -2.5092 -1.2986
  106SOL    HW2  423   0.933   0.326   0.919 -0.5549 -0.7270  1.5253
  106SOL     MW  424   0.852   0.317   0.954 -0.1639 -0.3039  0.5187
  107SOL     OW  425   0.827   2.166   2.965 -0.5900 -0.3565  0.2155
  107SOL    HW1  426   0.787   2.084   2.926  0.8422  1.4372 -6.5767
  107SOL    HW2  427   0.857   2.148   3.055  1.3457  1.3813  0.3776
  107SOL     MW  428   0.825   2.153   2.972 -0.1457  0.1094 -0.6593
  108SOL     OW  429   1.341   1.622   1.428 -0.5819 -0.5035 -0.2106
  108SOL    HW1  430   1.281   1.577   1.363 -0.6624 -4.2782  1.6430
  108SOL    HW2  431   1.348   1.549   1.495 -0.9572  1.7660 -0.6528
  108SOL     MW  432   1.334   1.607   1.428 -0.6420 -0.7021 -0.0244
  109SOL     OW  433   1.971   0.776   0.173  0.7441  0.6387 -0.3374
  109SOL    HW1  434   2.010   0.765   0.086  4.2530 -2.8836 -2.4693
  109SOL    HW2  435   2.049   0.779   0.227  1.2468 -0.8385 -0.7753
  109SOL     MW  436   1.987   0.775   0.169  1.2734 -0.0210 -0.6765
  110SOL     OW  437   0.485   1.877   0.731 -0.1411  1.0903  0.5263
  110SOL    HW1  438   0.557   1.813   0.713  3.2281 -2.1691  2.6800
  110SOL    HW2  439   0.498   1.949   0.673 -0.2166  0.1354 -0.1216
  110SOL     MW  440   0.496   1.878   0.721  0.2935  0.5343  0.7249
  111SOL     OW  441   0.717   0.856   1.486  0.1125  0.7432 -0.1885
  111SOL    HW1  442   0.716   0.819   1.398  0.9695 -2.0102  0.3786
  111SOL    HW2  443   0.636   0.828   1.522  0.8529  0.8407  0.9113
  111SOL     MW  444   0.706   0.848   1.479  0.3232  0.3927  0.0314
  112SOL     OW  445   1.320   1.106   1.714 -0.1373 -0.0796 -0.0774
  112SOL    HW1  446   1.255   1.175   1.709  0.5950  0.7432 -3.7198
  112SOL    HW2  447   1.273   1.024   1.700 -2.9085 -0.8028 -1.4752
  112SOL     MW  448   1.305   1.104   1.711 -0.4063 -0.0665 -0.7424
  113SOL     OW  449   1.334   3.098   1.735 -0.5508  0.1425  0.0459
  113SOL    HW1  450   1.331   3.044   1.816 -2.9898 -0.0617 -0.8696
  113SOL    HW2  451   1.323   3.033   1.661  0.0976 -2.1330  0.1934
  113SOL     MW  452   1.332   3.083   1.736 -0.7871 -0.1847 -0.0554
  114SOL     OW  453   0.487   2.812   1.907 -0.3909 -0.0519  0.7062
  114SOL    HW1  454   0.451   2.862   1.978 -0.7303  1.5025 -1.6480
  114SOL    HW2  455   0.449   2.851   1.823  0.9106 -0.0512 -1.4853
  114SOL     MW  456   0.477   2.823   1.905 -0.2640  0.1533  0.1064
  115SOL     OW  457   0.481   0.839   1.121  0.3657 -0.1045 -0.1664
  115SOL    HW1  458   0.475   0.744   1.123 -0.6029 -2.5848 -0.8571
  115SOL    HW2  459   0.436   0.873   1.197  1.1275  1.6870 -2.5030
  115SOL     MW  460   0.474   0.831   1.132  0.3384 -0.1954 -0.5658
  116SOL     OW  461   0.779   1.059   0.968 -0.0669 -0.3546  0.2712
  116SOL    HW1  462   0.840   1.095   0.903  3.5768  0.5893  0.9576
  116SOL    HW2  463   0.829   1.076   1.051 -1.3884  0.0534  1.2147
  116SOL     MW  464   0.794   1.066   0.971  0.2395 -0.1762  0.4863
  117SOL     OW  465   1.226   1.122   0.764 -0.2229  0.3485 -0.1529
  117SOL    HW1  466   1.269   1.078   0.839  0.5055  1.3793 -0.9950
  117SOL    HW2  467   1.240   1.216   0.774 -0.2104 -2.2308  1.7214
  117SOL     MW  468   1.233   1.129   0.775 -0.1251  0.1442 -0.0167
  118SOL     OW  469   3.073   2.964   1.691  0.0203 -0.4623  0.5477
  118SOL    HW1  470   3.101   2.985   1.779  2.4649 -1.8589 -1.7381
  118SOL    HW2  471   2.982   2.978   1.695  3.0946  0.0478  0.7816
  118SOL     MW  472   3.065   2.969   1.703  0.7485 -0.5793  0.2770
  119SOL     OW  473   0.511   1.363   1.214 -0.7052  0.2336 -0.3094
  119SOL    HW1  474   0.487   1.347   1.126 -1.0869  1.2380 -1.7404
  119SOL    HW2  475   0.432   1.332   1.254  1.4927  1.7646 -1.7057
  119SOL     MW  476   0.497   1.357   1.208 -0.4656  0.5681 -0.6825
  120SOL     OW  477   0.172   0.713   0.951 -0.3431 -0.1323  0.6456
  120SOL    HW1  478   0.193   0.641   1.010  0.8628  1.6172 -0.0534
  120SOL    HW2  479   0.210   0.791   0.994  0.1260 -0.9401 -1.4740
  120SOL     MW  480   0.180   0.714   0.965 -0.1221 -0.0081  0.2737
  121SOL     OW  481   1.854   1.105   1.723  0.2493  0.3739 -0.3613
  121SOL    HW1  482   1.768   1.074   1.753 -0.5723 -0.6023 -0.6855
  121SOL    HW2  483   1.865   1.039   1.653  0.5624  2.1068 -0.0868
  121SOL     MW  484   1.844   1.092   1.717  0.1822  0.4737 -0.3679
  122SOL     OW  485   0.138   0.528   0.744  0.8443  0.6236 -0.0858
  122SOL    HW1  486   0.224   0.520   0.706 -0.2618 -0.3577 -0.9139
  122SOL    HW2  487   0.156   0.578   0.825  0.7463 -1.0798  0.9290
  122SOL     MW  488   0.152   0.533   0.750  0.6854  0.2694 -0.0611
  123SOL     OW  489   1.812   1.085   0.460  0.5004  0.2426  0.9495
  123SOL    HW1  490   1.728   1.036   0.458 -0.8152 -0.4795  0.2138
  123SOL    HW2  491   1.843   1.072   0.555  0.5846  0.8444  0.2074
  123SOL     MW  492   1.805   1.077   0.472  0.3379  0.2268  0.7545
  124SOL     OW  493   0.664   0.552   0.909 -0.1273  0.1566  0.6423
  124SOL    HW1  494   0.596   0.520   0.846 -1.5460  1.5657 -1.8707
  124SOL    HW2  495   0.676   0.642   0.888  0.5697  0.8482  0.9246
  124SOL     MW  496   0.657   0.560   0.898 -0.2225  0.4337  0.3480
  125SOL     OW  497   0.669   1.727   1.701 -0.3686  0.2571 -0.0908
  125SOL    HW1  498   0.637   1.647   1.649 -1.6368  0.6301 -2.1086
  125SOL    HW2  499   0.601   1.794   1.704 -1.0119  2.6203  1.3742
  125SOL     MW  500   0.656   1.726   1.694 -0.6208  0.6181 -0.1637
  126SOL     OW  501   2.087   1.605   1.954 -0.5175  0.1461 -0.2506
  126SOL    HW1  502   2.151   1.677   1.959  0.0012  0.9119  1.1335
  126SOL    HW2  503   2.122   1.521   1.976  0.3861 -1.3897  1.3060
  126SOL     MW  504   2.100   1.603   1.958 -0.3299  0.0445  0.1374
  127SOL     OW  505   0.617   0.757   1.870 -0.2223 -0.2814  0.2538
  127SOL    HW1  506   0.702   0.710   1.887  1.4865 -2.5909  0.9600
  127SOL    HW2  507   0.633   0.843   1.918 -0.7276 -1.5763 -0.3636
  127SOL     MW  508   0.630   0.762   1.878 -0.0635 -0.7570  0.2655
  128SOL     OW  509   1.849   0.791   2.888 -0.2286 -0.1849 -0.4946
  128SOL    HW1  510   1.851   0.738   2.808  0.5643  0.3288  0.4382
  128SOL    HW2  511   1.796   0.874   2.867 -2.4444 -0.3415  1.2100
  128SOL     MW  512   1.842   0.795   2.875 -0.4164 -0.1378 -0.1466
  129SOL     OW  513   1.536   0.980   0.178  0.4339  0.1097 -0.0068
  129SOL    HW1  514   1.478   0.915   0.159  2.2419  2.9559  0.9377
  129SOL    HW2  515   1.570   0.954   0.265  1.5021 -0.3146  0.3726
  129SOL     MW  516   1.533   0.968   0.187  0.8134  0.4293  0.1679
  130SOL     OW  517   0.742   1.420   0.401 -0.4329 -0.6312  0.2718
  130SOL    HW1  518   0.781   1.396   0.479 -0.0979  1.0854 -1.3238
  130SOL    HW2  519   0.809   1.460   0.343 -1.9347  2.8972 -2.8879
  130SOL     MW  520   0.756   1.422   0.404 -0.5868  0.0608 -0.3556
  131SOL     OW  521   3.029   0.828   0.025 -0.6436  0.0849 -0.0398
  131SOL    HW1  522   3.024   0.893  -0.053 -0.7279  1.5295 -2.8116
  131SOL    HW2  523   3.090   0.871   0.074  1.2036 -2.8700 -3.0959
  131SOL     MW  524   3.036   0.842   0.021 -0.4110 -0.1144 -0.8087
  132SOL     OW  525   2.780   0.145   1.252 -0.2795  0.0088 -0.2230
  132SOL    HW1  526   2.815   0.155   1.162  0.2884  1.6251 -0.4152
  132SOL    HW2  527   2.685   0.156   1.231 -0.2808 -0.7524 -1.8266
  132SOL     MW  528   2.772   0.148   1.237 -0.2047  0.1216 -0.4599
  133SOL     OW  529   1.090   0.118   1.707  0.0710 -0.2723  0.4881
  133SOL    HW1  530   1.175   0.084   1.731 -0.0052 -0.4870 -1.2922
  133SOL    HW2  531   1.047   0.143   1.790  1.6455  2.3134  1.1975
  133SOL     MW  532   1.095   0.117   1.721  0.2687  0.0405  0.3468
  134SOL     OW  533   1.388   2.515   1.432  0.5233  0.2150  0.0351
  134SOL    HW1  534   1.327   2.582   1.407  0.2228 -0.3902 -0.3802
  134SOL    HW2  535   1.444   2.538   1.509 -0.6896 -0.0742 -0.8397
  134SOL     MW  536   1.387   2.527   1.439  0.3236  0.0970 -0.1351
  135SOL     OW  537   3.014   0.991   2.907  0.5252  0.6164 -0.2137
  135SOL    HW1  538   3.085   1.055   2.904 -0.3398  0.8137 -1.5991
  135SOL    HW2  539   2.944   1.039   2.942  3.0214  0.1128 -2.1011
  135SOL     MW  540   3.014   1.006   2.911  0.7404  0.5760 -0.6455
  136SOL     OW  541   0.218   1.997   0.837  0.2070  0.4129 -0.5635
  136SOL    HW1  542   0.131   1.955   0.847 -0.7748  1.7480  0.8842
  136SOL    HW2  543   0.285   1.947   0.797  0.3509  2.5120  2.7328
  136SOL     MW  544   0.215   1.985   0.833  0.0964  0.8660  0.0624
  137SOL     OW  545   0.763   2.021   0.507  0.2609  0.1608 -0.0526
  137SOL    HW1  546   0.772   2.001   0.598 -0.0623 -0.7425 -0.4228
  137SOL    HW2  547   0.671   2.053   0.498  0.7845  0.9414 -0.7334
  137SOL     MW  548   0.752   2.022   0.518  0.2873  0.1446 -0.1912
  138SOL     OW  549   0.535   0.572   1.145  0.2470 -0.1400  0.5757
  138SOL    HW1  550   0.448   0.536   1.111 -1.0677 -0.8012  1.9450
  138SOL    HW2  551   0.599   0.564   1.076 -2.2185  1.2396  0.9816
  138SOL     MW  552   0.532   0.566   1.131 -0.2517 -0.0452  0.8100
  139SOL     OW  553   2.681   0.520   1.378 -0.4248  0.0508  0.1846
  139SOL    HW1  554   2.773   0.487   1.363  1.4145  4.1268 -1.1585
  139SOL    HW2  555   2.697   0.606   1.417  1.9488  2.1633  1.4267
  139SOL     MW  556   2.696   0.527   1.381  0.1311  0.8673  0.1713
  140SOL     OW  557   0.846   0.393   2.080  0.5064  0.3302 -0.4075
  140SOL    HW1  558   0.906   0.327   2.037 -2.3213 -1.7104  0.7845
  140SOL    HW2  559   0.878   0.404   2.170 -0.3306  0.9662  0.7525
  140SOL     MW  560   0.858   0.386   2.086  0.0229  0.1449 -0.0972
  141SOL     OW  561   1.031   0.584   1.750  0.3526  0.0641  0.1671
  141SOL    HW1  562   1.077   0.506   1.714 -2.5670  1.0642  1.2273
  141SOL    HW2  563   1.091   0.654   1.742  2.0021 -1.9645 -0.9667
  141SOL     MW  564   1.045   0.583   1.744  0.1850 -0.0716  0.1574
  142SOL     OW  565   0.955   1.126   0.748  0.0107 -0.8518  0.2791
  142SOL    HW1  566   0.911   1.088   0.663 -1.5018 -3.5300 -1.0065
  142SOL    HW2  567   1.046   1.120   0.728 -0.6455  1.6502  0.1882
  142SOL     MW  568   0.961   1.120   0.734 -0.2755 -0.8751  0.0975
  143SOL     OW  569   1.785   0.796   1.099 -0.1211 -0.5234 -0.0653
  143SOL    HW1  570   1.856   0.765   1.039 -0.6785 -1.9006 -0.7378
  143SOL    HW2  571   1.783   0.735   1.177 -1.3218 -1.8445  1.5712
  143SOL     MW  572   1.794   0.784   1.101 -0.3531 -0.8794  0.0619
  144SOL     OW  573   0.231   1.202   1.534  0.1101  0.8281  0.2833
  144SOL    HW1  574   0.324   1.181   1.549 -0.8898  1.8612  4.1819
  144SOL    HW2  575   0.211   1.252   1.611 -2.1921  1.1196 -0.3950
  144SOL     MW  576   0.241   1.205   1.546 -0.3256  1.0029  0.7082
  145SOL     OW  577   0.284   0.444   1.049  0.4534 -0.6127  0.7475
  145SOL    HW1  578   0.302   0.386   1.125  0.3259  2.8152 -1.3773
  145SOL    HW2  579   0.320   0.408   0.974 -0.0381 -1.3738 -2.4667
  145SOL     MW  580   0.291   0.432   1.049  0.3717 -0.2608  0.0431
  146SOL     OW  581   0.884   1.941   1.399 -0.5915  0.6971 -0.3071
  146SOL    HW1  582   0.910   1.965   1.305 -0.3724 -2.3925 -0.5659
  146SOL    HW2  583   0.781   1.923   1.408 -3.1375 -0.5460  0.2126
  146SOL     MW  584   0.874   1.942   1.388 -0.8985  0.1254 -0.2727
  147SOL     OW  585   0.398   0.446   2.941 -0.3330 -0.3095  0.6915
  147SOL    HW1  586   0.347   0.462   3.020  0.6859 -1.0499  2.8188
  147SOL    HW2  587   0.381   0.517   2.886 -1.6970 -1.6187  0.1663
  147SOL     MW  588   0.389   0.458   2.944 -0.3785 -0.5799  0.9029
  148SOL     OW  589   0.072   0.866   1.361 -0.1249  0.1792  0.6889
  148SOL    HW1  590   0.159   0.912   1.334  1.4456  2.9649  1.3351
  148SOL    HW2  591   0.053   0.877   1.451  0.8976 -1.8264 -0.7538
  148SOL     MW  592   0.081   0.873   1.369  0.2172  0.2821  0.5838
  149SOL     OW  593   1.392   1.144   1.465  0.0182 -0.0439 -0.0624
  149SOL    HW1  594   1.363   1.115   1.551  1.8082 -4.0557  0.5220
  149SOL    HW2  595   1.442   1.227   1.475 -2.1185 -0.6748  0.7797
  149SOL     MW  596   1.395   1.151   1.478 -0.0276 -0.6564  0.1259
  150SOL     OW  597   1.853   1.319   0.797  0.7674  0.6781 -0.4722
  150SOL    HW1  598   1.860   1.225   0.808 -1.1061  0.1963 -0.4457
  150SOL    HW2  599   1.929   1.354   0.838  0.5743 -1.1577 -0.6488
  150SOL     MW  600   1.864   1.311   0.804  0.4947  0.3723 -0.4920
  151SOL     OW  601   1.655   1.862   0.849  0.4171  0.3574  0.2746
  151SOL    HW1  602   1.625   1.846   0.759 -1.5412  1.9546  0.7906
  151SOL    HW2  603   1.592   1.817   0.915 -0.8861  1.5024 -3.1230
  151SOL     MW  604   1.643   1.854   0.846 -0.0132  0.7192 -0.1056
  152SOL     OW  605   0.780   1.336   1.479  0.1002 -0.1836 -0.0772
  152SOL    HW1  606   0.797   1.260   1.532  1.9161  1.6488 -5.0788
  152SOL    HW2  607   0.855   1.390   1.490  0.1852  0.5274 -1.1817
  152SOL     MW  608   0.792   1.333   1.487  0.3510  0.1519 -0.8828
  153SOL     OW  609   2.617   1.274   0.736 -0.2273 -0.1253  0.6138
  153SOL    HW1  610   2.710   1.245   0.736  1.5314 -1.3000  0.7310
  153SOL    HW2  611   2.558   1.201   0.732  0.1067  1.8775 -3.0456
  153SOL     MW  612   2.621   1.260   0.735  0.0488 -0.0160  0.1465
  154SOL     OW  613   0.369   1.722   1.683  0.3586 -0.0526  0.5927
  154SOL    HW1  614   0.411   1.694   1.603  2.0773 -0.9424 -0.7833
  154SOL    HW2  615   0.351   1.651   1.735  0.7167  0.3224 -2.1935
  154SOL     MW  616   0.372   1.709   1.679  0.6326 -0.1206  0.0435
  155SOL     OW  617   1.100   0.652   0.297 -0.4048 -0.1512 -0.1169
  155SOL    HW1  618   1.079   0.628   0.388 -2.2571 -0.3086  0.2096
  155SOL    HW2  619   1.078   0.750   0.308  0.2582 -0.4480  1.8761
  155SOL     MW  620   1.094   0.662   0.310 -0.5617 -0.2111  0.1891
  156SOL     OW  621   1.505   3.006   1.046  0.6253  0.0784  0.3350
  156SOL    HW1  622   1.521   3.089   1.094  2.5104  2.3074 -0.1374
  156SOL    HW2  623   1.514   2.938   1.107  0.5774 -0.8993  0.5634
  156SOL     MW  624   1.509   3.008   1.060  0.8677  0.2435  0.3028
  157SOL     OW  625   1.355   1.230   0.132  0.8589 -0.0852 -0.0192
  157SOL    HW1  626   1.369   1.135   0.123  1.5327  0.7164  0.2915
  157SOL    HW2  627   1.441   1.264   0.118 -0.0986 -1.2083 -0.2033
  157SOL     MW  628   1.368   1.222   0.129  0.8215 -0.1276 -0.0025
  158SOL     OW  629   0.473   1.612   2.228  0.0647 -0.4348 -0.1155
  158SOL    HW1  630   0.503   1.649   2.148  0.5272 -1.1615  0.4445
  158SOL    HW2  631   0.379   1.613   2.219 -0.0931 -1.7513  1.4806
  158SOL     MW  632   0.465   1.617   2.216  0.1049 -0.7044  0.1689
  159SOL     OW  633   1.328   1.685   0.459 -0.1139 -0.0883 -0.2071
  159SOL    HW1  634   1.297   1.599   0.436  1.4574  1.9785  1.6553
  159SOL    HW2  635   1.237   1.726   0.475  0.1763  1.0282 -0.2536
  159SOL     MW  636   1.312   1.679   0.458  0.1317  0.3317  0.0325
  160SOL     OW  637   0.478   1.119   1.559 -0.6365  0.7351  0.3200
  160SOL    HW1  638   0.479   1.042   1.622  1.3363  2.4207  0.6160
  160SOL    HW2  639   0.500   1.185   1.627  0.0389 -0.5348 -0.4250
  160SOL     MW  640   0.481   1.117   1.576 -0.2871  0.7899  0.2607
  161SOL     OW  641   0.544   2.146   2.657 -0.0621  0.3698 -0.6589
  161SOL    HW1  642   0.454   2.120   2.677 -0.1482  0.7029  0.7855
  161SOL    HW2  643   0.563   2.102   2.580  0.4025  1.0086  0.1274
  161SOL     MW  644   0.534   2.137   2.650 -0.0121  0.4980 -0.3645
  162SOL     OW  645   0.994   1.675   1.728  0.4555  0.0290 -0.1711
  162SOL    HW1  646   1.050   1.756   1.760  0.3974 -0.0726  0.3000
  162SOL    HW2  647   0.919   1.677   1.793 -0.9685  0.6938  4.2339
  162SOL     MW  648   0.992   1.686   1.741  0.2600  0.1033  0.4722
  163SOL     OW  649   2.119   0.141   0.977 -0.1670 -0.3147 -0.1361
  163SOL    HW1  650   2.085   0.162   0.885  2.1782 -2.8109  0.4933
  163SOL    HW2  651   2.063   0.071   1.012 -0.5562  0.6534 -0.0954
  163SOL     MW  652   2.107   0.134   0.969  0.0911 -0.5164 -0.0477
  164SOL     OW  653   0.285   0.221   0.725  0.3679 -0.1283  0.2075
  164SOL    HW1  654   0.208   0.214   0.784 -0.2064 -1.0311  1.6033
  164SOL    HW2  655   0.289   0.131   0.687 -1.6308 -0.5117 -1.2504
  164SOL     MW  656   0.275   0.209   0.728  0.0284 -0.2980  0.1993
  165SOL     OW  657   1.367   1.267   0.419 -0.0749  0.6738 -0.0530
  165SOL    HW1  658   1.307   1.191   0.422 -0.5650 -1.8663 -0.2471
  165SOL    HW2  659   1.392   1.277   0.325 -1.3973 -3.4330  1.1109
  165SOL     MW  660   1.362   1.258   0.407 -0.3140 -0.2032  0.0750
  166SOL     OW  661   0.517   1.025   0.927  0.5155 -0.5165  0.2211
  166SOL    HW1  662   0.518   0.939   0.979  1.9830 -0.1942  2.0927
  166SOL    HW2  663   0.602   1.054   0.951 -0.7029 -0.6731 -0.6249
  166SOL     MW  664   0.528   1.018   0.937  0.5484 -0.4946  0.3564
  167SOL     OW  665   0.850   1.172   0.271 -0.2919  0.4953 -0.8838
  167SOL    HW1  666   0.750   1.164   0.274 -1.5851 -1.4639 -0.7614
  167SOL    HW2  667   0.881   1.225   0.200 -2.6838 -2.9072  0.0696
  167SOL     MW  668   0.841   1.178   0.262 -0.7781 -0.2121 -0.7419
  168SOL     OW  669   1.705   1.719   2.908 -0.5274 -0.2812  0.2090
  168SOL    HW1  670   1.617   1.719   2.875 -0.4523 -0.9305  1.8165
  168SOL    HW2  671   1.721   1.638   2.944 -0.8242 -0.6062 -0.0503
  168SOL     MW  672   1.695   1.708   2.908 -0.5567 -0.4097  0.3869
  169SOL     OW  673   0.345   0.958   1.324  0.3227  0.1708 -0.3642
  169SOL    HW1  674   0.394   0.971   1.403  1.2158  1.0617 -2.6833
  169SOL    HW2  675   0.354   1.048   1.292  3.0985  0.9584 -1.3150
  169SOL     MW  676   0.352   0.972   1.330  0.8068  0.3922 -0.7957
  170SOL     OW  677   1.058   1.468   1.497 -0.2468 -0.1585  0.4965
  170SOL    HW1  678   1.008   1.551   1.510  0.2782 -1.5349 -2.1826
  170SOL    HW2  679   1.089   1.454   1.398  0.3785 -1.2239 -0.1444
  170SOL     MW  680   1.056   1.477   1.486 -0.0950 -0.4807  0.0585
  171SOL     OW  681   0.591   1.390   0.682 -0.6623  0.5600  0.1690
  171SOL    HW1  682   0.563   1.370   0.766 -0.9007  1.6397 -2.1324
  171SOL    HW2  683   0.584   1.306   0.633 -1.3863 -0.3817  2.6669
  171SOL     MW  684   0.586   1.376   0.687 -0.7893  0.5782  0.1949
  172SOL     OW  685   0.856   0.314   1.239  0.2161  0.0985  0.0746
  172SOL    HW1  686   0.846   0.321   1.138 -0.8185 -0.8564 -0.3700
  172SOL    HW2  687   0.769   0.333   1.283 -0.6784  0.7765  3.0735
  172SOL     MW  688   0.843   0.318   1.231 -0.0384  0.0620  0.4116
  173SOL     OW  689   0.474   1.701   0.373  0.0936 -0.4188  0.5227
  173SOL    HW1  690   0.466   1.602   0.365 -1.2115 -4.0935  0.2849
  173SOL    HW2  691   0.520   1.716   0.452 -1.4768  0.3898  0.9202
  173SOL     MW  692   0.479   1.690   0.382 -0.2858 -0.7970  0.5438
  174SOL     OW  693   1.994   0.912   1.438 -0.4289  0.0537  0.1922
  174SOL    HW1  694   1.922   0.861   1.488  0.0687 -0.6261  0.0650
  174SOL    HW2  695   1.938   0.960   1.377 -1.7120 -1.3581  2.8897
  174SOL     MW  696   1.977   0.912   1.436 -0.5325 -0.2222  0.5313
  175SOL     OW  697   0.485   1.425   0.311  0.5640 -0.4484  0.2645
  175SOL    HW1  698   0.493   1.417   0.217  0.5876 -0.3311  1.9035
  175SOL    HW2  699   0.574   1.419   0.342  1.6083  0.6882  1.5137
  175SOL     MW  700   0.498   1.423   0.303  0.7049 -0.2830  0.6456
  176SOL     OW  701   0.237   1.266   1.266 -0.0953  0.4436  0.6152
  176SOL    HW1  702   0.154   1.254   1.225 -1.4298 -2.0228  1.1517
  176SOL    HW2  703   0.232   1.250   1.366  0.7252 -1.3447 -1.8603
  176SOL     MW  704   0.226   1.262   1.274 -0.1631 -0.1178  0.3593
  177SOL     OW  705   0.590   0.342   1.337 -0.3672 -0.6421 -0.5168
  177SOL    HW1  706   0.581   0.434   1.323  1.5446 -2.4182 -2.1544
  177SOL    HW2  707   0.594   0.336   1.433  0.4966  3.0679 -3.0487
  177SOL     MW  708   0.589   0.354   1.348 -0.0010 -0.3869 -1.0669
  178SOL     OW  709   3.058   0.421   2.911 -0.1876 -0.3643  0.2600
  178SOL    HW1  710   3.007   0.462   2.985  1.5513  0.1048 -0.1775
  178SOL    HW2  711   2.985   0.410   2.843 -3.1450  0.1234  1.1666
  178SOL     MW  712   3.042   0.425   2.912 -0.3484 -0.2381  0.3219
  179SOL     OW  713   1.641   1.312   1.439 -0.3094  0.1162 -0.4947
  179SOL    HW1  714   1.632   1.331   1.535  0.3895  0.8918  2.2381
  179SOL    HW2  715   1.730   1.348   1.421  1.7407  2.8490 -2.1049
  179SOL     MW  716   1.652   1.319   1.449  0.0533  0.5791 -0.3466
  180SOL     OW  717   2.997   0.181   0.439  0.1580  0.0702 -0.1062
  180SOL    HW1  718   2.955   0.213   0.355  0.6587  0.5688 -0.3370
  180SOL    HW2  719   3.058   0.261   0.459 -1.0704  1.7517  0.1501
  180SOL     MW  720   3.000   0.196   0.431  0.0620  0.3579 -0.1028
  181SOL     OW  721   1.153   1.448   3.009  0.0322  0.1250  0.3795
  181SOL    HW1  722   1.226   1.446   3.071  0.1832 -2.2566 -0.6549
  181SOL    HW2  723   1.198   1.426   2.927  1.0706  1.6769 -1.1452
  181SOL     MW  724   1.169   1.445   3.006  0.1891  0.0155  0.0418
  182SOL     OW  725   0.476   0.854   1.662 -0.3914 -0.4573  0.1014
  182SOL    HW1  726   0.396   0.807   1.688  0.4599 -0.1583 -0.8272
  182SOL    HW2  727   0.537   0.826   1.733 -0.3416 -0.8086  0.4748
  182SOL     MW  728   0.474   0.844   1.675 -0.2725 -0.4642  0.0282
  183SOL     OW  729   1.554   1.481   1.261  0.0502 -0.4623 -0.7230
  183SOL    HW1  730   1.501   1.542   1.316 -2.9435 -1.1009 -1.1031
  183SOL    HW2  731   1.592   1.418   1.324  0.9921  0.9554  1.6521
  183SOL     MW  732   1.552   1.481   1.277 -0.2205 -0.3595 -0.4598
  184SOL     OW  733   0.857   0.641   1.935  0.3570 -0.9056  0.2187
  184SOL    HW1  734   0.918   0.621   1.861  1.0919  1.6813 -1.1366
  184SOL    HW2  735   0.839   0.566   1.980 -1.4011  1.7805 -1.0966
  184SOL     MW  736   0.863   0.629   1.931  0.2220 -0.2099 -0.1336
  185SOL     OW  737   1.186   0.942   1.991  0.7944 -0.2432 -0.1498
  185SOL    HW1  738   1.216   0.856   2.015  0.0646  0.5320  1.4376
  185SOL    HW2  739   1.249   1.002   2.011 -0.8400 -1.9101 -0.1267
  185SOL     MW  740   1.198   0.938   1.996  0.4825 -0.3609  0.0627
  186SOL     OW  741   0.413   1.658   1.413  0.2712 -0.4614 -0.1568
  186SOL    HW1  742   0.464   1.732   1.384 -3.0831  2.2648  0.4267
  186SOL    HW2  743   0.355   1.630   1.345  1.2959 -2.7078  1.1862
  186SOL     MW  744   0.412   1.664   1.400 -0.0362 -0.3981  0.0974
  187SOL     OW  745   1.476   0.734   1.477 -0.2483  0.4318  0.1642
  187SOL    HW1  746   1.458   0.758   1.570 -0.9030 -0.4861 -0.8746
  187SOL    HW2  747   1.390   0.733   1.430 -0.6838 -1.0694  2.2258
  187SOL     MW  748   1.462   0.737   1.483 -0.3922  0.1126  0.2991
  188SOL     OW  749   1.895   1.046   0.722 -0.5076 -0.0211  0.4001
  188SOL    HW1  750   1.886   0.969   0.780  0.0307  1.0098 -1.1215
  188SOL    HW2  751   1.984   1.038   0.695 -1.3105  2.8910 -1.7401
  188SOL     MW  752   1.906   1.034   0.726 -0.5425  0.4991 -0.0830
  189SOL     OW  753   0.682   0.829   0.805  0.3892  0.3929 -0.0256
  189SOL    HW1  754   0.601   0.859   0.757  1.1132  2.8988 -2.8814
  189SOL    HW2  755   0.708   0.909   0.846 -1.1424  1.5350  1.9692
  189SOL     MW  756   0.675   0.844   0.804  0.2827  0.8742 -0.1392
  190SOL     OW  757   1.866   0.240   2.013  0.2384 -0.7818  0.4989
  190SOL    HW1  758   1.835   0.159   1.988  3.0103  0.4879  0.9809
  190SOL    HW2  759   1.937   0.250   1.954  0.7706  1.5454  0.6465
  190SOL     MW  760   1.871   0.231   2.002  0.6743 -0.3073  0.5820
  191SOL     OW  761   1.520   0.981   1.313 -0.5248  0.1723 -0.5527
  191SOL    HW1  762   1.481   1.048   1.374 -0.3684  1.5571 -0.4398
  191SOL    HW2  763   1.522   0.906   1.373 -1.8282 -0.0003  0.3337
  191SOL     MW  764   1.515   0.980   1.329 -0.6762  0.3322 -0.4208
  192SOL     OW  765   0.697   1.990   2.835 -0.7877  0.2887  0.3981
  192SOL    HW1  766   0.674   2.052   2.761  0.0887 -3.7911  0.3943
  192SOL    HW2  767   0.629   1.920   2.825  1.3852 -0.3200  0.2094
  192SOL     MW  768   0.685   1.989   2.824 -0.3854 -0.3299  0.3727
  193SOL     OW  769   0.962   1.643   0.766  0.0616 -0.1586  0.1083
  193SOL    HW1  770   0.923   1.695   0.834 -1.8133  2.2553 -1.0420
  193SOL    HW2  771   0.917   1.558   0.764 -1.2862  0.3566 -1.0580
  193SOL     MW  772   0.951   1.639   0.775 -0.3636  0.2278 -0.1973
  194SOL     OW  773   0.469   1.302   0.931  0.5891  0.0684  0.4524
  194SOL    HW1  774   0.452   1.210   0.914  2.1318  2.6347 -0.0665
  194SOL    HW2  775   0.403   1.350   0.886  0.4411  0.2831 -0.4360
  194SOL     MW  776   0.458   1.296   0.923  0.7731  0.4353  0.2667
  195SOL     OW  777   1.297   1.101   2.978  0.2088 -0.5966 -0.8203
  195SOL    HW1  778   1.319   1.184   3.023  1.2120  0.3343  2.9503
  195SOL    HW2  779   1.210   1.077   3.005  0.4369  1.2553  0.4200
  195SOL     MW  780   1.288   1.109   2.988  0.3713 -0.2295 -0.1591
  196SOL     OW  781   2.197   1.074   0.623  0.3946  0.2534 -0.4316
  196SOL    HW1  782   2.169   1.015   0.551 -2.0734 -1.5964  2.4046
  196SOL    HW2  783   2.173   1.166   0.605 -0.4339  1.3801  2.1514
  196SOL     MW  784   2.190   1.079   0.611 -0.0403  0.1580  0.2834
  197SOL     OW  785   0.614   1.257   2.028  0.5243 -0.2548  0.0558
  197SOL    HW1  786   0.590   1.162   2.017  0.6497  2.5701  2.7159
  197SOL    HW2  787   0.596   1.280   1.941  1.3552 -2.5611  0.8009
  197SOL     MW  788   0.608   1.248   2.015  0.6505 -0.1864  0.5051
  198SOL     OW  789   2.939   1.476   1.009 -0.0774 -0.1057  0.4637
  198SOL    HW1  790   2.922   1.572   0.985 -0.0410  3.4558  1.1345
  198SOL    HW2  791   2.859   1.435   0.974  1.2325  1.8920 -0.0017
  198SOL     MW  792   2.926   1.484   1.002  0.1003  0.6278  0.4908
  199SOL     OW  793   0.503   1.302   1.752  0.0120 -0.0391 -0.0760
  199SOL    HW1  794   0.415   1.286   1.779  2.0961  0.0718  1.1264
  199SOL    HW2  795   0.504   1.391   1.703  0.6368  1.8684  1.7101
  199SOL     MW  796   0.492   1.312   1.749  0.3694  0.2272  0.3183
  200SOL     OW  797   1.895   3.102   1.335  0.0015 -0.2746 -0.0733
  200SOL    HW1  798   1.917   3.085   1.244 -0.5101 -0.6826  1.2920
  200SOL    HW2  799   1.802   3.084   1.357  1.5586  4.4980  2.8898
  200SOL     MW  800   1.886   3.097   1.326  0.1395  0.3013  0.4978
  201SOL     OW  801   1.080   0.293   0.815 -0.3445 -0.5453 -0.3963
  201SOL    HW1  802   1.061   0.202   0.801  1.4305 -1.6182  1.1446
  201SOL    HW2  803   1.084   0.328   0.729 -0.4920  2.8261 -2.8398
  201SOL     MW  804   1.078   0.285   0.802 -0.1298 -0.2420 -0.5154
  202SOL     OW  805   1.537   1.666   1.044  0.0352  0.2103  0.2780
  202SOL    HW1  806   1.572   1.599   0.978  1.4314  1.2377 -1.0113
  202SOL    HW2  807   1.561   1.627   1.129 -0.0724 -1.2374 -0.7602
  202SOL     MW  808   1.545   1.652   1.046  0.2052  0.1548 -0.0291
  203SOL     OW  809  -0.002   0.482   1.176 -0.0066 -0.1240 -0.4342
  203SOL    HW1  810   0.052   0.434   1.118 -1.9335  0.4270 -0.0636
  203SOL    HW2  811   0.066   0.532   1.231 -0.1618  0.9492 -1.0161
  203SOL     MW  812   0.014   0.482   1.176 -0.2813  0.0903 -0.4621
  204SOL     OW  813   1.055   1.779   0.522 -0.1409  0.2944  0.1343
  204SOL    HW1  814   1.042   1.715   0.591 -0.1028  1.7588 -0.3371
  204SOL    HW2  815   0.972   1.766   0.478 -0.4407  3.5320  1.1026
  204SOL     MW  816   1.042   1.769   0.525 -0.1754  0.9148  0.1998
  205SOL     OW  817   1.358   0.106   1.333 -0.3115 -0.1172  0.1026
  205SOL    HW1  818   1.321   0.128   1.251  2.2489 -0.2860  0.7092
  205SOL    HW2  819   1.406   0.187   1.347 -0.6981 -1.1232 -2.0082
  205SOL     MW  820   1.359   0.120   1.324 -0.0247 -0.2722 -0.0958
  206SOL     OW  821   0.420   3.089   1.416 -0.3149 -0.2332 -0.0873
  206SOL    HW1  822   0.364   3.078   1.342  1.5189  2.1008  2.2364
  206SOL    HW2  823   0.500   3.036   1.411  0.9401  1.7800 -0.7710
  206SOL     MW  824   0.424   3.080   1.406  0.0926  0.3404  0.1291
  207SOL     OW  825   0.941   1.503   0.218  0.5210 -0.3393 -0.5360
  207SOL    HW1  826   0.945   1.592   0.182  0.2258 -0.2883  1.1596
  207SOL    HW2  827   1.027   1.484   0.255 -2.7850  3.0425 -0.3659
  207SOL     MW  828   0.953   1.512   0.218  0.0459  0.1136 -0.2898
  208SOL     OW  829   0.693   1.592   1.254  0.0703 -0.2097  0.8943
  208SOL    HW1  830   0.757   1.602   1.325  2.0287  0.3751  3.4374
  208SOL    HW2  831   0.643   1.513   1.265  1.5188 -0.5306  0.0639
  208SOL     MW  832   0.695   1.583   1.265  0.5198 -0.1749  1.1203
  209SOL     OW  833   1.558   0.538   2.820  0.4407 -0.4590  0.1257
  209SOL    HW1  834   1.574   0.559   2.912 -0.2765  0.8395  0.5931
  209SOL    HW2  835   1.596   0.449   2.817 -1.8014  3.8947  1.7614
  209SOL     MW  836   1.565   0.529   2.832  0.0502  0.2867  0.4032
  210SOL     OW  837   1.610   1.455   0.879  0.3218 -0.0274  0.3895
  210SOL    HW1  838   1.699   1.420   0.887 -0.9033 -1.1620 -1.6646
  210SOL    HW2  839   1.571   1.410   0.801  0.3264 -2.8356 -1.0518
  210SOL     MW  840   1.617   1.445   0.870  0.1607 -0.5476 -0.0717
  211SOL     OW  841   1.721   0.440   0.930 -0.5282 -0.8827 -0.1490
  211SOL    HW1  842   1.687   0.457   0.843  1.1961 -1.2577  2.3500
  211SOL    HW2  843   1.814   0.445   0.920  0.3812 -1.8746 -0.9920
  211SOL     MW  844   1.729   0.443   0.917 -0.1807 -1.0630  0.0695
  212SOL     OW  845   0.233   1.135   0.087  0.0752  0.0719  0.1737
  212SOL    HW1  846   0.213   1.121   0.181  0.5659  1.4324 -0.1153
  212SOL    HW2  847   0.308   1.078   0.071 -0.7433 -0.4565  1.0749
  212SOL     MW  848   0.240   1.126   0.097  0.0319  0.1817  0.2545
  213SOL     OW  849   0.398   1.747   3.056  0.3120  0.5755 -0.2606
  213SOL    HW1  850   0.447   1.805   3.113  1.4925  0.9739 -2.4856
  213SOL    HW2  851   0.436   1.762   2.970 -1.5922  1.9669 -1.7104
  213SOL     MW  852   0.410   1.757   3.052  0.2165  0.8117 -0.7454
  214SOL     OW  853   0.639   0.268   2.247 -0.2290  0.5056 -0.2939
  214SOL    HW1  854   0.560   0.325   2.231 -5.3365 -0.4312  2.5362
  214SOL    HW2  855   0.705   0.304   2.194 -1.7910  1.0223  1.1613
  214SOL     MW  856   0.637   0.280   2.238 -1.1090  0.4501  0.2715
  215SOL     OW  857   0.466   0.714   2.608  0.0689 -0.6291 -0.3505
  215SOL    HW1  858   0.496   0.677   2.524 -0.5272 -0.2279 -0.7167
  215SOL    HW2  859   0.386   0.657   2.632 -1.6643 -0.4959  3.1335
  215SOL     MW  860   0.460   0.701   2.600 -0.2384 -0.5586  0.0608
  216SOL     OW  861   3.057   3.038   2.680 -0.6267  0.2239 -0.3194
  216SOL    HW1  862   3.006   3.006   2.757 -0.0710  3.0187 -0.4513
  216SOL    HW2  863   3.022   3.125   2.688 -2.0654 -2.0305  0.6711
  216SOL     MW  864   3.045   3.045   2.691 -0.7432  0.2952 -0.2061
  217SOL     OW  865   0.966   1.269   0.022  0.2527  0.3449  0.1051
  217SOL    HW1  866   1.029   1.199   0.005  0.0758  0.9490  1.3149
  217SOL    HW2  867   1.007   1.347   0.049 -1.4416 -1.5568 -1.9631
  217SOL     MW  868   0.980   1.270   0.023  0.0058  0.1737 -0.0081
  218SOL     OW  869   0.923   1.309   2.551 -0.3321  0.3768 -0.2346
  218SOL    HW1  870   0.942   1.223   2.594 -1.3993  1.9704  0.4493
  218SOL    HW2  871   0.999   1.354   2.570 -2.8089  0.7922 -2.2483
  218SOL     MW  872   0.936   1.304   2.559 -0.7997  0.6419 -0.4100
  219SOL     OW  873   1.051   0.456   2.521  0.0170  0.2581 -0.1104
  219SOL    HW1  874   1.136   0.500   2.516  2.0045 -0.3584  3.1398
  219SOL    HW2  875   0.988   0.530   2.532 -0.5334  0.7946 -0.7133
  219SOL     MW  876   1.054   0.472   2.521  0.2066  0.2476  0.2389
  220SOL     OW  877   1.789   0.442   2.179  0.7531 -0.1862  0.4315
  220SOL    HW1  878   1.726   0.488   2.122  2.6588  1.3105  1.4589
  220SOL    HW2  879   1.829   0.386   2.114 -2.7807  0.5323 -1.3562
  220SOL     MW  880   1.786   0.440   2.163  0.5383  0.1061  0.3312
  221SOL     OW  881   0.374   1.326   2.901 -0.5338  0.1640 -0.1545
  221SOL    HW1  882   0.415   1.253   2.856 -0.1957  0.2956 -0.5349
  221SOL    HW2  883   0.365   1.375   2.823  0.1895 -1.3479  0.7080
  221SOL     MW  884   0.378   1.323   2.885 -0.3938 -0.0181 -0.0909
  222SOL     OW  885   0.280   0.916   2.629 -0.2515 -0.2137 -0.4926
  222SOL    HW1  886   0.268   0.944   2.536 -0.7164  0.9060 -3.6610
  222SOL    HW2  887   0.348   0.847   2.623 -0.4035  2.3647 -1.4242
  222SOL     MW  888   0.288   0.910   2.616 -0.3329  0.2742 -1.0335
  223SOL     OW  889   0.027   2.036   2.604  0.1754  0.7736  0.2077
  223SOL    HW1  890   0.105   2.004   2.643  2.9977 -1.3556  1.0273
  223SOL    HW2  891   0.047   2.078   2.520  1.1332  1.5134 -2.4071
  223SOL     MW  892   0.040   2.038   2.598  0.6742  0.5903 -0.0292
  224SOL     OW  893   1.469   0.818   2.583  0.2292 -0.6741  0.0748
  224SOL    HW1  894   1.455   0.830   2.676 -1.2382  0.9927 -2.2708
  224SOL    HW2  895   1.504   0.898   2.550  2.1165  0.6360  0.7997
  224SOL     MW  896   1.472   0.830   2.591  0.2846 -0.2813 -0.1390
  225SOL     OW  897   2.983   1.506   2.274 -0.0779  0.2092  0.8585
  225SOL    HW1  898   3.010   1.587   2.229 -4.6290 -0.5260 -2.5088
  225SOL    HW2  899   2.924   1.540   2.341 -0.7932  1.7865  0.1249
  225SOL     MW  900   2.979   1.521   2.277 -0.7727  0.3203  0.3174
  226SOL     OW  901   0.403   1.439   2.607 -0.2005 -0.4219 -0.2598
  226SOL    HW1  902   0.495   1.440   2.638  0.1344 -0.5026 -0.5240
  226SOL    HW2  903   0.387   1.537   2.593  2.2082  0.2028  2.1746
  226SOL     MW  904   0.413   1.452   2.609  0.1615 -0.3501  0.0265
  227SOL     OW  905   0.437   1.062   2.813  0.2170 -0.3192 -0.6981
  227SOL    HW1  906   0.521   1.074   2.778 -0.4521  1.8701  0.5196
  227SOL    HW2  907   0.396   0.995   2.751  0.7595 -0.8487  1.1389
  227SOL     MW  908   0.442   1.055   2.800  0.2003 -0.1002 -0.2951
  228SOL     OW  909   0.651   0.987   1.997 -0.3833  0.8565 -0.1382
  228SOL    HW1  910   0.725   1.045   1.970 -0.6703  2.2757 -0.9232
  228SOL    HW2  911   0.645   0.977   2.099  1.3041  0.5038  0.7263
  228SOL     MW  912   0.660   0.994   2.007 -0.1985  0.9972 -0.1278
  229SOL     OW  913   0.181   0.533   3.097  0.1316  0.6356 -0.3003
  229SOL    HW1  914   0.142   0.497   3.017 -0.7194 -1.3548 -0.5111
  229SOL    HW2  915   0.160   0.465   3.165  2.9554  2.4341 -2.8585
  229SOL     MW  916   0.173   0.519   3.096  0.3919  0.6103 -0.6657
  230SOL     OW  917   1.770   1.376   2.032 -0.2125  0.6632 -0.4826
  230SOL    HW1  918   1.738   1.354   2.121 -0.8598 -0.9194  0.2949
  230SOL    HW2  919   1.817   1.293   2.021 -0.0275 -0.3986  0.9704
  230SOL     MW  920   1.772   1.362   2.042 -0.2735  0.3143 -0.1883
  231SOL     OW  921   2.770   1.321   2.200  0.5660  0.2591  0.4102
  231SOL    HW1  922   2.825   1.402   2.198 -2.7273  0.1922 -1.5307
  231SOL    HW2  923   2.704   1.341   2.131  0.6253  3.0459  1.2434
  231SOL     MW  924   2.768   1.334   2.190  0.1393  0.6179  0.2641
  232SOL     OW  925   2.277   0.866   2.137  0.2759 -0.0264  0.3949
  232SOL    HW1  926   2.210   0.894   2.073 -0.1108  0.2288  0.4608
  232SOL    HW2  927   2.221   0.862   2.214  0.7813  2.6223 -1.4123
  232SOL     MW  928   2.261   0.869   2.139  0.2916  0.3568  0.1651
  233SOL     OW  929   2.048   0.517   1.949 -0.3019 -0.1891  0.2264
  233SOL    HW1  930   2.076   0.559   1.871  1.4999  0.8852  3.1492
  233SOL    HW2  931   2.094   0.545   2.026  1.7595  0.5498 -0.8486
  233SOL     MW  932   2.058   0.527   1.949  0.2078  0.0502  0.4702
  234SOL     OW  933   0.271   1.012   2.367  0.2429 -0.4348  1.0901
  234SOL    HW1  934   0.181   1.047   2.344  1.9080  1.2383 -0.7582
  234SOL    HW2  935   0.335   1.083   2.380  3.8636 -1.4765 -0.1044
  234SOL     MW  936   0.268   1.026   2.366  0.9403 -0.3515  0.6886
  235SOL     OW  937   1.081   3.062   2.739  0.2550  0.1306  0.0097
  235SOL    HW1  938   1.131   3.013   2.805  0.9597  1.2743  0.2152
  235SOL    HW2  939   1.067   3.150   2.777  0.3341 -1.8381 -1.0070
  235SOL     MW  940   1.086   3.067   2.753  0.3584  0.0218 -0.0973
  236SOL     OW  941   2.949   0.544   0.019  0.4264 -0.1212 -0.2467
  236SOL    HW1  942   2.856   0.552  -0.015  0.2823 -1.4688  0.5430
  236SOL    HW2  943   2.984   0.631  -0.010  0.5218  0.9099 -0.6292
  236SOL     MW  944   2.941   0.557   0.011  0.4200 -0.1630 -0.1929
  237SOL     OW  945   1.794   0.960   2.153  0.7926  0.5484  0.3319
  237SOL    HW1  946   1.845   1.023   2.101  0.1177  1.5924 -1.9993
  237SOL    HW2  947   1.837   0.949   2.236  0.6602 -2.1081  2.1751
  237SOL     MW  948   1.806   0.967   2.157  0.6861  0.3356  0.2675
  238SOL     OW  949   1.065   1.761   2.970 -0.1940  0.5500 -0.0220
  238SOL    HW1  950   1.021   1.674   2.979 -0.2835  1.6234  1.2059
  238SOL    HW2  951   1.161   1.741   2.971 -0.2680  1.8073  0.7406
  238SOL     MW  952   1.072   1.747   2.971 -0.2156  0.8575  0.2406
  239SOL     OW  953   1.196   1.439   2.337  0.1717 -0.3110  0.8215
  239SOL    HW1  954   1.178   1.450   2.428  0.8222  0.6509  0.0175
  239SOL    HW2  955   1.208   1.348   2.310  3.1318  1.1194 -0.5434
  239SOL     MW  956   1.195   1.429   2.345  0.6481  0.0047  0.5353
  240SOL     OW  957   0.667   0.898   2.265  0.8215 -0.0180 -0.1833
  240SOL    HW1  958   0.679   0.962   2.344 -0.3573  2.7403  0.7583
  240SOL    HW2  959   0.757   0.853   2.249  5.2195  1.3971 -0.6438
  240SOL     MW  960   0.681   0.901   2.273  1.2462  0.5326 -0.1198
  241SOL     OW  961   0.616   0.336   3.042 -0.0185  0.0123  0.2342
  241SOL    HW1  962   0.643   0.409   3.103 -1.1065  1.6142  2.8779
  241SOL    HW2  963   0.528   0.372   3.016  0.4264  1.8580  1.1698
  241SOL     MW  964   0.608   0.351   3.047 -0.1033  0.4672  0.7065
  242SOL     OW  965   1.509   1.761   2.272  0.3951 -0.4199 -0.3733
  242SOL    HW1  966   1.463   1.821   2.328  0.3441 -0.7430 -1.8580
  242SOL    HW2  967   1.456   1.734   2.200  3.2452 -0.2111 -1.1452
  242SOL     MW  968   1.496   1.766   2.270  0.7644 -0.4350 -0.6710
  243SOL     OW  969   0.954   0.215   2.355  0.2340  0.2922  0.6366
  243SOL    HW1  970   1.047   0.183   2.335  1.8866 -2.0458  0.8585
  243SOL    HW2  971   0.963   0.298   2.404  3.0058 -1.2397 -1.8177
  243SOL     MW  972   0.968   0.222   2.359  0.8177 -0.2184  0.3421
  244SOL     OW  973   0.220   0.703   2.337  0.2627 -0.2388  0.6495
  244SOL    HW1  974   0.217   0.797   2.353 -0.1473  2.7599  1.3891
  244SOL    HW2  975   0.312   0.688   2.329 -1.6491  1.3830 -3.7653
  244SOL     MW  976   0.232   0.713   2.338 -0.0436  0.3708  0.1646
  245SOL     OW  977   1.250   0.235   2.349  0.3733 -0.1592 -0.1421
  245SOL    HW1  978   1.314   0.166   2.363  0.9426 -0.8043  0.1551
  245SOL    HW2  979   1.294   0.308   2.386 -0.7491  0.5340 -1.9720
  245SOL     MW  980   1.265   0.235   2.356  0.3003 -0.1528 -0.3443
  246SOL     OW  981   1.270   1.178   2.098  0.2074  0.2440  0.7715
  246SOL    HW1  982   1.198   1.155   2.158 -2.4391  1.5712 -1.1073
  246SOL    HW2  983   1.353   1.162   2.142 -2.7464 -0.8079 -0.1582
  246SOL     MW  984   1.271   1.173   2.112 -0.5315  0.2803  0.4009
  247SOL     OW  985   0.697   0.514   0.129  0.4153  0.7460 -0.4428
  247SOL    HW1  986   0.639   0.589   0.147  0.0904  0.1535  1.9756
  247SOL    HW2  987   0.781   0.559   0.113  1.4671 -1.1899 -1.2867
  247SOL     MW  988   0.701   0.530   0.130  0.5112  0.4124 -0.2350
  248SOL     OW  989   0.468   1.207   2.456  0.3987  0.4401 -0.5163
  248SOL    HW1  990   0.479   1.252   2.365  0.6128 -0.3442 -3.3429
  248SOL    HW2  991   0.436   1.277   2.508  2.8794  1.5921  1.1990
  248SOL     MW  992   0.465   1.222   2.451  0.7543  0.4886 -0.6629
  249SOL     OW  993   0.197   1.845   2.699  0.3096 -0.5686 -0.6337
  249SOL    HW1  994   0.148   1.776   2.659 -1.3462 -0.5145  0.7193
  249SOL    HW2  995   0.195   1.827   2.793  0.8556 -1.4640 -1.8585
  249SOL     MW  996   0.190   1.833   2.706  0.1632 -0.6796 -0.6168
  250SOL     OW  997   2.131   0.849   2.378 -0.0948 -0.2134  0.5654
  250SOL    HW1  998   2.171   0.762   2.397 -0.8471 -4.3792 -0.2398
  250SOL    HW2  999   2.166   0.915   2.434  0.0376 -1.3124 -1.3672
  250SOL     MW 1000   2.141   0.846   2.388 -0.1766 -0.9080  0.2041
  251SOL     OW 1001   0.229   0.817   2.054 -0.0804  0.4464  0.3134
  251SOL    HW1 1002   0.211   0.767   2.129  0.9560  1.2218 -1.0010
  251SOL    HW2 1003   0.216   0.767   1.970 -0.0740  1.3140  1.2892
  251SOL     MW 1004   0.225   0.804   2.053  0.0572  0.6632  0.2687
  252SOL     OW 1005   1.685   1.017   2.862 -0.2681  0.4678  0.2996
  252SOL    HW1 1006   1.709   1.041   2.953 -0.5362  1.3976 -0.7216
  252SOL    HW2 1007   1.750   1.068   2.806  0.0680 -0.5996 -0.7031
  252SOL     MW 1008   1.696   1.027   2.866 -0.2592  0.4496  0.0326
  253SOL     OW 1009   1.156   1.726   2.533 -0.1513 -0.2527  0.4180
  253SOL    HW1 1010   1.152   1.744   2.432  1.2567 -0.8859 -1.0248
  253SOL    HW2 1011   1.071   1.766   2.573 -1.9076  1.6131  0.0001
  253SOL     MW 1012   1.144   1.734   2.525 -0.1973 -0.0901  0.1725
  254SOL     OW 1013   1.023   1.081   2.227  0.0277 -0.1157  0.1012
  254SOL    HW1 1014   1.010   0.987   2.207 -0.9529 -1.8008 -0.0163
  254SOL    HW2 1015   0.936   1.116   2.229 -1.8347 -0.6407 -2.4389
  254SOL     MW 1016   1.010   1.073   2.225 -0.3474 -0.4073 -0.2494
  255SOL     OW 1017   0.829   2.439   2.171 -0.1532  0.4204 -0.5981
  255SOL    HW1 1018   0.756   2.403   2.218 -0.3120  0.9937 -2.0698
  255SOL    HW2 1019   0.892   2.446   2.241 -0.0391  3.7487 -2.5604
  255SOL     MW 1020   0.828   2.435   2.186 -0.1591  0.9352 -1.0512
  256SOL     OW 1021   1.165   2.834   2.895 -0.1994  0.4583 -0.2864
  256SOL    HW1 1022   1.127   2.798   2.817  2.6687  0.2878  1.3229
  256SOL    HW2 1023   1.258   2.827   2.862  2.1001 -3.0160 -1.1150
  256SOL     MW 1024   1.172   2.828   2.881  0.4824 -0.0226 -0.1834
  257SOL     OW 1025   0.172   1.902   0.098 -0.0516 -0.2223  0.0122
  257SOL    HW1 1026   0.163   1.848   0.175  1.2261  3.3737  2.3387
  257SOL    HW2 1027   0.169   1.842   0.020  0.1502  1.5470  1.2169
  257SOL     MW 1028   0.171   1.887   0.098  0.1436  0.4856  0.4781
  258SOL     OW 1029   0.705   1.042   2.468 -0.5000 -0.5735  0.0865
  258SOL    HW1 1030   0.748   1.094   2.394  3.2418  0.1130 -2.8217
  258SOL    HW2 1031   0.626   1.092   2.485  0.8253 -2.3403  0.8242
  258SOL     MW 1032   0.700   1.055   2.460  0.1685 -0.7160 -0.1999
  259SOL     OW 1033   0.757   0.516   2.375  0.1312 -0.0469 -0.4603
  259SOL    HW1 1034   0.674   0.558   2.356  1.3194  3.6333 -0.3618
  259SOL    HW2 1035   0.738   0.424   2.402  2.6855 -0.3561  0.8221
  259SOL     MW 1036   0.744   0.510   2.376  0.6250  0.3979 -0.2782
  260SOL     OW 1037   0.593   0.132   1.585 -0.2334  0.5086  0.5751
  260SOL    HW1 1038   0.523   0.109   1.522  1.0045  1.1022  0.7913
  260SOL    HW2 1039   0.679   0.130   1.538 -0.4987 -0.1679 -0.5808
  260SOL     MW 1040   0.595   0.129   1.570 -0.1051  0.4977  0.4511
  261SOL     OW 1041   1.190   0.681   2.069  0.3809 -0.0871 -0.3258
  261SOL    HW1 1042   1.190   0.694   2.165 -1.7614  1.7376 -0.3247
  261SOL    HW2 1043   1.268   0.627   2.043  0.1644 -0.4397 -0.9661
  261SOL     MW 1044   1.200   0.675   2.078  0.0697  0.1071 -0.4101
  262SOL     OW 1045   1.162   0.313   0.095  0.3637  0.1553  0.1582
  262SOL    HW1 1046   1.261   0.307   0.092  1.0044 -1.0931 -1.0532
  262SOL    HW2 1047   1.137   0.231   0.065  1.3843  1.6202  0.2713
  262SOL     MW 1048   1.172   0.301   0.090  0.5829  0.1838  0.0133
  263SOL     OW 1049   0.451   3.044   2.489 -0.4777  0.0241  0.3048
  263SOL    HW1 1050   0.390   3.112   2.521 -0.1078  0.7291  0.7907
  263SOL    HW2 1051   0.508   3.068   2.412 -0.3271  0.0433 -1.5066
  263SOL     MW 1052   0.450   3.056   2.483 -0.4090  0.1196  0.1299
  264SOL     OW 1053   1.531   1.303   1.921 -0.0529  0.2636  0.4455
  264SOL    HW1 1054   1.465   1.334   1.979  0.8948  0.8413 -0.9291
  264SOL    HW2 1055   1.620   1.328   1.952 -0.9062 -1.9528 -0.0723
  264SOL     MW 1056   1.534   1.310   1.932 -0.0404  0.0474  0.1958
  265SOL     OW 1057   0.651   2.698   2.250  0.0263  0.7966 -0.1428
  265SOL    HW1 1058   0.711   2.634   2.224 -2.6394  1.1179 -1.4912
  265SOL    HW2 1059   0.669   2.709   2.339 -4.1105  0.2863 -2.3205
  265SOL     MW 1060   0.661   2.691   2.258 -0.8712  0.7716 -0.6080
  266SOL     OW 1061   0.921   0.812   2.196  0.5474  0.1798 -0.3428
  266SOL    HW1 1062   0.926   0.768   2.116  1.0584  1.8187  0.7561
  266SOL    HW2 1063   0.955   0.758   2.268 -1.9704  0.2924 -2.0156
  266SOL     MW 1064   0.926   0.799   2.195  0.2826  0.4109 -0.4186
  267SOL     OW 1065   1.370   1.705   2.695 -0.1822 -0.7716  0.0281
  267SOL    HW1 1066   1.442   1.691   2.630 -1.4155  2.2423 -2.9913
  267SOL    HW2 1067   1.284   1.717   2.654  0.4657  0.3367 -0.7705
  267SOL     MW 1068   1.368   1.705   2.681 -0.2594 -0.2277 -0.4756
  268SOL     OW 1069   0.248   0.752   1.777  0.3546  0.2878  0.0598
  268SOL    HW1 1070   0.171   0.803   1.743 -3.9145  0.6484  0.1493
  268SOL    HW2 1071   0.265   0.694   1.701  2.8701  1.0353  1.5281
  268SOL     MW 1072   0.240   0.751   1.763  0.1233  0.4340  0.2654
  269SOL     OW 1073   1.365   1.916   2.440  0.3146  0.0004 -0.5725
  269SOL    HW1 1074   1.405   2.001   2.447 -0.0906 -1.1302 -0.1061
  269SOL    HW2 1075   1.296   1.922   2.515  1.5306 -0.2714 -0.3098
  269SOL     MW 1076   1.361   1.928   2.451  0.4216 -0.1846 -0.4763
  270SOL     OW 1077   1.168   0.370   1.605  0.0744 -0.2849 -0.0368
  270SOL    HW1 1078   1.146   0.283   1.636  1.5191  0.4457  1.6613
  270SOL    HW2 1079   1.257   0.368   1.580  1.1532 -2.0997  1.0087
  270SOL     MW 1080   1.177   0.358   1.606  0.4073 -0.4280  0.3252
  271SOL     OW 1081   0.839   3.044   2.394  0.6235  0.5795  0.3037
  271SOL    HW1 1082   0.895   2.988   2.454 -0.8875  1.4717  2.6901
  271SOL    HW2 1083   0.865   3.137   2.399  0.7548  2.6373  1.3275
  271SOL     MW 1084   0.850   3.049   2.402  0.4414  0.9687  0.7536
  272SOL     OW 1085   1.433   2.864   2.799  0.5580 -0.3637 -0.2210
  272SOL    HW1 1086   1.431   2.956   2.774 -0.1672  4.0684  0.6572
  272SOL    HW2 1087   1.479   2.862   2.882  0.7241  0.0209 -1.5784
  272SOL     MW 1088   1.439   2.876   2.806  0.4842  0.2718 -0.2843
  273SOL     OW 1089   1.425   0.883   2.868 -0.2497 -0.5609  0.2123
  273SOL    HW1 1090   1.512   0.905   2.872  1.1226 -1.6232 -1.2321
  273SOL    HW2 1091   1.374   0.962   2.893 -1.4978 -0.4610  0.3594
  273SOL     MW 1092   1.430   0.896   2.872 -0.2333 -0.6879  0.0411
  274SOL     OW 1093   1.367   0.756   0.227  0.4624 -0.0299  0.0515
  274SOL    HW1 1094   1.431   0.686   0.227  0.5366 -1.4683 -1.6403
  274SOL    HW2 1095   1.291   0.714   0.262  1.9248 -0.0543  0.1612
  274SOL     MW 1096   1.366   0.741   0.232  0.6652 -0.2229 -0.1572
  275SOL     OW 1097   1.715   0.674   1.809  0.6463  0.7105 -0.5139
  275SOL    HW1 1098   1.780   0.715   1.868 -0.1641 -1.0788 -1.8124
  275SOL    HW2 1099   1.716   0.579   1.821 -1.0235  1.9910  0.2831
  275SOL     MW 1100   1.724   0.667   1.819  0.3191  0.6434 -0.5801
  276SOL     OW 1101   0.208   1.257   1.799 -0.3143  0.3759  0.2702
  276SOL    HW1 1102   0.200   1.184   1.862  0.2664 -0.2226 -1.9555
  276SOL    HW2 1103   0.126   1.310   1.807  0.0557 -1.7902 -4.4400
  276SOL     MW 1104   0.196   1.255   1.808 -0.1889  0.0111 -0.6450
  277SOL     OW 1105   1.910   1.352   2.587 -0.9695 -0.0710 -0.3876
  277SOL    HW1 1106   1.996   1.371   2.562 -1.0714  2.3378 -2.5247
  277SOL    HW2 1107   1.903   1.258   2.611 -1.5295 -2.6060 -1.2705
  277SOL     MW 1108   1.920   1.342   2.587 -1.0568 -0.0877 -0.7861
  278SOL     OW 1109   1.423   0.721   1.741 -0.7091 -0.2439 -0.2799
  278SOL    HW1 1110   1.385   0.641   1.781  1.9295 -1.8702  1.6190
  278SOL    HW2 1111   1.512   0.717   1.779 -1.3220  0.2069  2.1322
  278SOL     MW 1112   1.430   0.710   1.752 -0.4419 -0.3990  0.2889
  279SOL     OW 1113   0.545   3.091   2.242  0.0577  0.1357 -0.0385
  279SOL    HW1 1114   0.635   3.054   2.230  1.6640  0.8324  1.8168
  279SOL    HW2 1115   0.554   3.187   2.242  2.0751  1.0132 -1.7456
  279SOL     MW 1116   0.558   3.099   2.241  0.5358  0.3434 -0.0189
  280SOL     OW 1117   1.505   1.135   2.210 -0.4594 -0.1640 -0.5708
  280SOL    HW1 1118   1.504   1.063   2.148  2.9713  0.4862 -0.7490
  280SOL    HW2 1119   1.504   1.092   2.290  0.0533  1.1159 -0.9444
  280SOL     MW 1120   1.505   1.120   2.212  0.0609  0.0907 -0.6436
  281SOL     OW 1121   1.274   1.326   2.803  0.2623 -0.7077 -0.7182
  281SOL    HW1 1122   1.367   1.346   2.818 -0.0243  0.2061 -0.6013
  281SOL    HW2 1123   1.246   1.246   2.850 -1.0405  0.0027 -0.7874
  281SOL     MW 1124   1.283   1.318   2.811  0.0526 -0.4934 -0.7119
  282SOL     OW 1125   1.138   1.297   1.698 -0.2930  0.0677 -0.2410
  282SOL    HW1 1126   1.107   1.327   1.610 -1.1388  1.4652  3.5233
  282SOL    HW2 1127   1.057   1.277   1.744  0.1293  3.8893  1.5871
  282SOL     MW 1128   1.123   1.298   1.692 -0.3489  0.7563  0.4969
  283SOL     OW 1129   0.684   1.264   0.003  0.0343  0.2002  0.0889
  283SOL    HW1 1130   0.780   1.258  -0.008  0.7655 -0.6761  1.7482
  283SOL    HW2 1131   0.658   1.350   0.020 -0.8199 -0.2984  0.6293
  283SOL     MW 1132   0.693   1.275   0.004  0.0180  0.0188  0.3791
  284SOL     OW 1133   0.498   0.656   2.342 -0.0157 -0.1363  0.9483
  284SOL    HW1 1134   0.528   0.724   2.281  1.7721 -1.2856  0.0696
  284SOL    HW2 1135   0.483   0.575   2.279  2.5539 -1.0409 -2.8631
  284SOL     MW 1136   0.500   0.654   2.326  0.5592 -0.4073  0.3295
  285SOL     OW 1137   0.816   0.941   2.850  0.4557  0.0775  0.7239
  285SOL    HW1 1138   0.860   0.996   2.778  1.1244  3.0308  0.8068
  285SOL    HW2 1139   0.783   0.866   2.806 -0.7641  2.6863 -0.0784
  285SOL     MW 1140   0.817   0.939   2.834  0.3830  0.8114  0.6290
  286SOL     OW 1141   1.140   1.466   2.623  0.1032  0.1235 -0.0749
  286SOL    HW1 1142   1.190   1.439   2.704  0.5177 -0.0894  2.9609
  286SOL    HW2 1143   1.136   1.563   2.609  1.3856 -1.0645  0.7968
  286SOL     MW 1144   1.146   1.475   2.632  0.3271 -0.0613  0.4406
  287SOL     OW 1145   0.999   0.898   0.325 -0.2727 -0.0095 -0.3864
  287SOL    HW1 1146   1.032   0.951   0.397 -1.3788 -1.4910 -0.3331
  287SOL    HW2 1147   0.958   0.957   0.267  1.2860 -0.9287 -0.3882
  287SOL     MW 1148   0.998   0.913   0.327 -0.2130 -0.3262 -0.3796
  288SOL     OW 1149   1.560   0.628   2.106  0.3103  0.2245 -0.0067
  288SOL    HW1 1150   1.550   0.633   2.204  1.4235 -1.2769 -0.2805
  288SOL    HW2 1151   1.530   0.716   2.083  0.6806 -1.1469 -2.2867
  288SOL     MW 1152   1.555   0.640   2.116  0.5060 -0.1545 -0.3436
  289SOL     OW 1153   0.939   1.050   2.631  0.0981  0.3707  0.2262
  289SOL    HW1 1154   1.012   1.004   2.582 -2.3949 -0.0643  3.3228
  289SOL    HW2 1155   0.858   1.032   2.581 -0.9434 -1.3893 -2.7976
  289SOL     MW 1156   0.938   1.042   2.618 -0.3683  0.0811  0.2358
  290SOL     OW 1157   0.864   0.554   1.542  0.1606 -0.5203  0.8328
  290SOL    HW1 1158   0.930   0.548   1.476 -0.3631  0.0504  1.0319
  290SOL    HW2 1159   0.926   0.564   1.616  1.8252  0.8384 -1.2143
  290SOL     MW 1160   0.881   0.555   1.543  0.3111 -0.2657  0.5889
  291SOL     OW 1161   0.134   0.339   0.165 -0.5625 -0.0984 -0.3927
  291SOL    HW1 1162   0.233   0.322   0.188  3.9194 -2.1619  0.8618
  291SOL    HW2 1163   0.114   0.286   0.089 -2.4640 -0.4133  1.4760
  291SOL     MW 1164   0.144   0.330   0.158 -0.2221 -0.4122  0.0194
  292SOL     OW 1165   0.981   0.524   0.063  0.0274  0.1654  0.0129
  292SOL    HW1 1166   1.030   0.595   0.107  2.0188 -0.3042  2.7686
  292SOL    HW2 1167   1.031   0.444   0.079 -1.9416 -2.3493 -2.7393
  292SOL     MW 1168   0.994   0.523   0.071  0.0303 -0.2284  0.0133
  293SOL     OW 1169   0.212   0.106   2.476  0.4324  0.5911 -0.0815
  293SOL    HW1 1170   0.157   0.068   2.406 -3.4510  0.0961  2.3482
  293SOL    HW2 1171   0.166   0.184   2.506 -0.4650  2.2351  1.7558
  293SOL     MW 1172   0.199   0.111   2.470 -0.1984  0.7427  0.4815
  294SOL     OW 1173   1.493   0.649   2.366  0.2557 -0.6997  0.5250
  294SOL    HW1 1174   1.485   0.703   2.442  0.2042 -0.0326  4.0999
  294SOL    HW2 1175   1.493   0.561   2.402  0.6005  0.7169 -1.0088
  294SOL     MW 1176   1.492   0.645   2.381  0.2944 -0.4247  0.7943
  295SOL     OW 1177   0.898   0.692   2.516  0.0201 -0.2875  0.3359
  295SOL    HW1 1178   0.846   0.628   2.473 -3.3577 -2.0567  0.7083
  295SOL    HW2 1179   0.843   0.726   2.587 -1.1829  0.2113  0.7225
  295SOL     MW 1180   0.884   0.688   2.520 -0.5843 -0.4551  0.4361
  296SOL     OW 1181   1.277   0.285   2.067  0.5445  0.4514 -0.1068
  296SOL    HW1 1182   1.355   0.228   2.044 -0.4757  3.0591  0.4417
  296SOL    HW2 1183   1.275   0.276   2.169  2.1675  0.7074  1.0748
  296SOL     MW 1184   1.287   0.277   2.077  0.6240  0.8292  0.1215
  297SOL     OW 1185   1.477   0.417   1.565  0.2881 -0.0125  0.7719
  297SOL    HW1 1186   1.509   0.497   1.606  0.9785 -1.3636  1.6879
  297SOL    HW2 1187   1.510   0.341   1.609  0.8801 -0.3949 -0.8202
  297SOL     MW 1188   1.486   0.418   1.576  0.4573 -0.2412  0.6827
  298SOL     OW 1189   1.525   0.903   2.056  0.5755 -0.7466 -0.1930
  298SOL    HW1 1190   1.531   0.935   1.965 -1.7606 -0.1077 -0.2834
  298SOL    HW2 1191   1.614   0.914   2.091  1.2461  0.2162 -2.1091
  298SOL     MW 1192   1.537   0.909   2.048  0.3557 -0.5353 -0.4578
  299SOL     OW 1193   0.511   1.042   3.094 -0.0811 -0.5312 -0.0586
  299SOL    HW1 1194   0.587   1.098   3.085 -0.3700 -0.9952  0.2397
  299SOL    HW2 1195   0.473   1.031   3.008  0.6248 -0.9486  3.0551
  299SOL     MW 1196   0.516   1.048   3.082 -0.0261 -0.6475  0.3916
  300SOL     OW 1197   1.274   1.167   2.506 -0.2299 -0.0265 -0.0293
  300SOL    HW1 1198   1.215   1.095   2.500  0.5823  2.2372  0.4603
  300SOL    HW2 1199   1.227   1.246   2.548 -1.1051  0.0210  0.2971
  300SOL     MW 1200   1.260   1.168   2.511 -0.2382  0.2784  0.0783
  301SOL     OW 1201   1.350   0.829   0.574  0.1814  0.6239  0.1643
  301SOL    HW1 1202   1.414   0.853   0.640  0.6273  2.7924 -0.4225
  301SOL    HW2 1203   1.293   0.763   0.610  0.4984 -3.4320 -2.5767
  301SOL     MW 1204   1.351   0.824   0.587  0.2820  0.3749 -0.2748
  302SOL     OW 1205   0.107   1.453   2.013  0.2276  0.3228  0.3749
  302SOL    HW1 1206   0.147   1.397   2.084  0.4121  0.8935 -0.6995
  302SOL    HW2 1207   0.059   1.521   2.054 -2.9121 -0.8641  1.4472
  302SOL     MW 1208   0.106   1.454   2.028 -0.1623  0.2415  0.3746
  303SOL     OW 1209   0.404   1.710   2.568 -0.3250 -0.2112  0.0100
  303SOL    HW1 1210   0.404   1.746   2.481 -1.8430 -0.3437 -0.3565
  303SOL    HW2 1211   0.340   1.758   2.620 -3.1355 -0.1262  0.6562
  303SOL     MW 1212   0.396   1.721   2.564 -0.8961 -0.2175  0.0469
  304SOL     OW 1213   0.642   2.068   2.392  0.1388 -0.1407  0.1690
  304SOL    HW1 1214   0.694   2.139   2.356 -0.7048 -0.7375 -1.1368
  304SOL    HW2 1215   0.712   1.998   2.396  0.3081 -1.9536 -0.4403
  304SOL     MW 1216   0.658   2.068   2.388  0.0499 -0.4586 -0.0837
  305SOL     OW 1217   1.079   0.570   0.577 -0.0949 -0.0900 -0.2022
  305SOL    HW1 1218   0.987   0.531   0.566 -2.2321 -2.2794 -1.1974
  305SOL    HW2 1219   1.134   0.491   0.585 -0.9160 -1.6723  1.7286
  305SOL     MW 1220   1.074   0.555   0.577 -0.4852 -0.5876 -0.0788
  306SOL     OW 1221   1.222   1.481   0.344 -0.0219 -0.3751 -0.5877
  306SOL    HW1 1222   1.256   1.402   0.382  0.7283  1.2194 -2.7870
  306SOL    HW2 1223   1.283   1.501   0.272  3.0001  1.9667  0.4696
  306SOL     MW 1224   1.235   1.474   0.339  0.4758  0.1442 -0.7384
  307SOL     OW 1225   1.381   0.508   1.920  0.1500 -0.5310 -0.1151
  307SOL    HW1 1226   1.360   0.412   1.947  1.9373 -1.7784 -0.8745
  307SOL    HW2 1227   1.459   0.521   1.978  0.6038 -0.9120 -0.5156
  307SOL     MW 1228   1.388   0.497   1.931  0.4457 -0.7458 -0.2682
  308SOL     OW 1229   2.151   0.644   2.657 -0.2394  0.2408 -0.1013
  308SOL    HW1 1230   2.219   0.585   2.704 -1.7090 -4.2813  0.5516
  308SOL    HW2 1231   2.161   0.739   2.689  0.4968 -0.9816  0.3299
  308SOL     MW 1232   2.161   0.649   2.667 -0.3362 -0.5171  0.0418
  309SOL     OW 1233   0.558   0.425   0.380 -0.9766 -0.8835  0.3438
  309SOL    HW1 1234   0.611   0.369   0.439 -0.6413 -0.1561 -0.2760
  309SOL    HW2 1235   0.500   0.373   0.323 -1.9527 -0.6309  1.0027
  309SOL     MW 1236   0.557   0.411   0.380 -1.0612 -0.7542  0.3490
  310SOL     OW 1237   0.469   0.536   1.931  0.0106  0.3390 -0.0435
  310SOL    HW1 1238   0.516   0.474   1.880  1.9709 -1.1204  2.8974
  310SOL    HW2 1239   0.520   0.618   1.911  0.1196  0.8144  0.0917
  310SOL     MW 1240   0.482   0.538   1.921  0.2836  0.2092  0.3624
  311SOL     OW 1241   1.911   0.782   1.962 -0.7285 -0.0179 -0.5314
  311SOL    HW1 1242   1.863   0.809   2.043  2.3771 -0.0443 -1.4810
  311SOL    HW2 1243   1.957   0.699   1.985  0.6060 -0.4112 -0.7356
  311SOL     MW 1244   1.911   0.775   1.976 -0.1427 -0.0733 -0.6836
  312SOL     OW 1245   1.719   2.500   0.021 -0.3182 -0.0126  0.4388
  312SOL    HW1 1246   1.763   2.485   0.108 -0.3588  0.7114  0.2138
  312SOL    HW2 1247   1.638   2.556   0.042 -0.5077 -0.4442 -1.8264
  312SOL     MW 1248   1.714   2.505   0.035 -0.3486  0.0260  0.1102
  313SOL     OW 1249   0.120   1.181   2.934 -0.3426 -0.3235  0.1477
  313SOL    HW1 1250   0.143   1.181   3.030 -1.0718 -0.8964  0.5224
  313SOL    HW2 1251   0.195   1.230   2.898  3.5152 -0.0953 -1.2397
  313SOL     MW 1252   0.133   1.188   2.942  0.0702 -0.3690  0.0141
  314SOL     OW 1253   2.133   2.987   2.997  0.2037 -0.5375  0.4746
  314SOL    HW1 1254   2.099   3.036   2.925 -2.3898  1.8300  1.5239
  314SOL    HW2 1255   2.189   3.048   3.040  2.0930 -1.6804  0.4092
  314SOL     MW 1256   2.136   3.002   2.993  0.1108 -0.3759  0.6044
  315SOL     OW 1257   1.512   1.906   3.053 -0.5549 -0.9503  0.4137
  315SOL    HW1 1258   1.464   1.983   3.085  1.9814  0.2810  0.4239
  315SOL    HW2 1259   1.577   1.936   2.978  1.7318  0.2203 -1.2958
  315SOL     MW 1260   1.514   1.920   3.047  0.0815 -0.6334  0.1895
  316SOL     OW 1261   1.253   0.628   2.710 -0.0476 -0.4191  0.5564
  316SOL    HW1 1262   1.344   0.650   2.708 -0.6271 -1.1769 -1.9562
  316SOL    HW2 1263   1.224   0.584   2.787  2.9680 -1.9130 -2.6448
  316SOL     MW 1264   1.262   0.625   2.720  0.2738 -0.7162 -0.1974
  317SOL     OW 1265   0.672   1.433   2.625  0.1776  0.2837 -0.3170
  317SOL    HW1 1266   0.736   1.360   2.621  2.4336  1.6672 -3.0280
  317SOL    HW2 1267   0.674   1.484   2.535  1.0413 -1.2823  1.7953
  317SOL     MW 1268   0.681   1.430   2.613  0.5892  0.2597 -0.3960
  318SOL     OW 1269   1.354   0.378   2.912 -0.0868  0.4474 -0.0345
  318SOL    HW1 1270   1.267   0.418   2.934  0.5736 -1.6709  1.6167
  318SOL    HW2 1271   1.404   0.446   2.866  1.9886  2.1429  1.9888
  318SOL     MW 1272   1.349   0.392   2.909  0.2742  0.3917  0.4503
  319SOL     OW 1273   0.826   0.483   2.818  0.1667  0.3511 -0.1890
  319SOL    HW1 1274   0.802   0.422   2.746  0.3152 -1.5936  0.1838
  319SOL    HW2 1275   0.819   0.441   2.903  2.7360  0.6244  1.0284
  319SOL     MW 1276   0.822   0.469   2.820  0.5252  0.1306  0.0208
  320SOL     OW 1277   1.050   1.353   1.991 -0.1868  0.0341 -0.8177
  320SOL    HW1 1278   1.127   1.319   2.023 -3.3974  2.0833  0.2551
  320SOL    HW2 1279   1.076   1.429   1.938  0.9248 -0.3557  1.2912
  320SOL     MW 1280   1.063   1.359   1.988 -0.4638  0.2531 -0.3979
  321SOL     OW 1281   1.050   0.994   3.066 -0.5684  0.5317  0.0541
  321SOL    HW1 1282   0.974   0.988   3.009 -0.3712 -0.4345  1.3872
  321SOL    HW2 1283   1.085   0.904   3.065 -1.1444 -0.8278 -0.8080
  321SOL     MW 1284   1.045   0.981   3.059 -0.6183  0.2249  0.1162
  322SOL     OW 1285   1.188   0.838   1.728  0.3142 -0.3871 -0.1318
  322SOL    HW1 1286   1.275   0.790   1.735  0.6449 -0.5422  2.6822
  322SOL    HW2 1287   1.172   0.857   1.825 -0.8338  0.2305  0.9473
  322SOL     MW 1288   1.197   0.834   1.741  0.2064 -0.3261  0.3818
  323SOL     OW 1289   1.176   1.531   1.841  0.5754  0.4343 -1.0534
  323SOL    HW1 1290   1.184   1.453   1.785  1.2143  0.9100  3.2211
  323SOL    HW2 1291   1.110   1.585   1.789 -2.2316  1.7570 -0.5982
  323SOL     MW 1292   1.169   1.528   1.827  0.2894  0.6716 -0.4294
  324SOL     OW 1293   1.515   1.075   2.489 -0.1269  0.1247  0.2713
  324SOL    HW1 1294   1.428   1.125   2.497 -2.1491  1.4218 -0.2893
  324SOL    HW2 1295   1.583   1.132   2.528 -0.7010 -0.6885 -4.9812
  324SOL     MW 1296   1.512   1.089   2.495 -0.4694  0.1885 -0.4957
  325SOL     OW 1297   1.091   0.494   2.903 -0.1450 -0.3295 -0.2162
  325SOL    HW1 1298   1.067   0.522   2.998 -2.0171 -0.6892  2.2231
  325SOL    HW2 1299   1.014   0.497   2.850  0.2239 -0.4461  0.0477
  325SOL     MW 1300   1.078   0.498   2.908 -0.3433 -0.3924  0.1405
  326SOL     OW 1301   0.477   1.349   2.240  0.2608  0.1559  0.3635
  326SOL    HW1 1302   0.530   1.319   2.162  2.0876  0.8160  1.4208
  326SOL    HW2 1303   0.476   1.445   2.237  0.7253 -0.1081 -0.0313
  326SOL     MW 1304   0.484   1.358   2.229  0.5631  0.2081  0.4509
  327SOL     OW 1305   1.853   0.907   2.446 -0.3667 -0.1217  1.0864
  327SOL    HW1 1306   1.828   0.841   2.517  1.4293  0.3061 -1.0199
  327SOL    HW2 1307   1.941   0.893   2.416 -3.0201  0.5272 -0.5509
  327SOL     MW 1308   1.861   0.896   2.452 -0.4798  0.0204  0.5925
  328SOL     OW 1309   0.189   1.314   2.198  0.1226  0.6376 -0.1773
  328SOL    HW1 1310   0.159   1.229   2.177 -0.1941 -0.6081  1.4225
  328SOL    HW2 1311   0.283   1.296   2.216 -0.8598  0.9021  1.2530
  328SOL     MW 1312   0.197   1.300   2.198 -0.0488  0.5082  0.2225
  329SOL     OW 1313   0.108   0.131   1.444 -0.4259 -0.2968  0.2538
  329SOL    HW1 1314   0.076   0.168   1.535 -0.8398 -0.1982  2.8830
  329SOL    HW2 1315   0.192   0.179   1.421  2.9066  2.7038 -1.2245
  329SOL     MW 1316   0.115   0.142   1.453 -0.0408  0.1121  0.4057
  330SOL     OW 1317   0.347   2.994   2.060  0.0306  0.3217  0.1290
  330SOL    HW1 1318   0.415   3.012   2.120  1.7081  0.3394  1.3510
  330SOL    HW2 1319   0.276   2.937   2.107 -1.9430  1.5326 -0.6678
  330SOL     MW 1320   0.346   2.989   2.074 -0.0085  0.4838  0.1851
  331SOL     OW 1321   0.777   1.215   2.279 -0.9211  0.0061  0.1615
  331SOL    HW1 1322   0.716   1.232   2.205 -0.6962  0.8171  1.2147
  331SOL    HW2 1323   0.821   1.296   2.313  0.6564  0.6499  1.9882
  331SOL     MW 1324   0.775   1.228   2.274 -0.6833  0.1980  0.5415
  332SOL     OW 1325   1.344   1.708   2.965 -0.1877 -0.6366  0.6216
  332SOL    HW1 1326   1.353   1.701   2.871  0.9892 -1.2942  1.4434
  332SOL    HW2 1327   1.401   1.791   2.988  2.6137 -2.5561  0.8027
  332SOL     MW 1328   1.353   1.718   2.956  0.3372 -0.9766  0.7539
  333SOL     OW 1329   1.723   1.471   3.008 -0.1093  0.0909  0.1392
  333SOL    HW1 1330   1.798   1.412   3.007 -0.6772 -0.4850 -0.0717
  333SOL    HW2 1331   1.689   1.450   3.097  1.6640  0.9578  2.1544
  333SOL     MW 1332   1.728   1.460   3.020  0.0497  0.1293  0.3772
  334SOL     OW 1333   1.324   3.065   2.627  0.2263 -0.4452 -0.1175
  334SOL    HW1 1334   1.231   3.083   2.654  2.7111  2.1859 -0.7673
  334SOL    HW2 1335   1.360   3.157   2.635  1.3916  1.9042  2.2634
  334SOL     MW 1336   1.316   3.080   2.632  0.7079  0.2119  0.1109
  335SOL     OW 1337   1.235   0.771   3.050 -0.2490  0.5559 -0.0641
  335SOL    HW1 1338   1.254   0.762   3.140 -3.0354 -0.3859  0.9774
  335SOL    HW2 1339   1.311   0.772   2.990 -1.5133 -0.5242  0.8338
  335SOL     MW 1340   1.247   0.770   3.054 -0.7835  0.2891  0.1918
  336SOL     OW 1341   0.884   1.114   1.916 -0.0189 -0.0663  0.0608
  336SOL    HW1 1342   0.926   1.201   1.942  0.3345 -1.7798 -0.2285
  336SOL    HW2 1343   0.956   1.056   1.946 -0.1676 -1.4762  0.7463
  336SOL     MW 1344   0.899   1.118   1.923  0.0081 -0.4784  0.1131
  337SOL     OW 1345   0.513   1.787   2.805  0.4030 -0.3790 -0.4613
  337SOL    HW1 1346   0.482   1.760   2.720  0.8198  2.7735  1.4359
  337SOL    HW2 1347   0.596   1.733   2.802 -0.6439  1.1287  1.6670
  337SOL     MW 1348   0.520   1.776   2.793  0.3199  0.2359  0.0698
  338SOL     OW 1349   1.125   0.846   2.539  0.0047  0.2323 -0.6814
  338SOL    HW1 1350   1.055   0.785   2.509 -0.9601 -1.8474  3.4527
  338SOL    HW2 1351   1.185   0.790   2.591 -0.0162 -1.6794 -0.2099
  338SOL     MW 1352   1.124   0.831   2.542 -0.1254 -0.2943 -0.0737
  339SOL     OW 1353   1.595   1.045   1.824 -0.3477 -0.6941 -0.4713
  339SOL    HW1 1354   1.519   1.048   1.770  1.0401 -0.6117 -0.0679
  339SOL    HW2 1355   1.584   1.128   1.870 -0.1597  0.5738  3.2972
  339SOL     MW 1356   1.584   1.056   1.823 -0.1398 -0.5160  0.0791
  340SOL     OW 1357   1.359   1.537   0.083  0.1565 -0.4377 -0.2815
  340SOL    HW1 1358   1.367   1.590   0.004 -2.4769 -2.4848 -0.2088
  340SOL    HW2 1359   1.443   1.501   0.088 -0.1841  0.3984 -0.4211
  340SOL     MW 1360   1.371   1.539   0.073 -0.2359 -0.5974 -0.2904
  341SOL     OW 1361   0.131   1.354   2.660  0.1203  0.2425  0.0469
  341SOL    HW1 1362   0.218   1.355   2.623 -1.1827 -0.1885 -1.8617
  341SOL    HW2 1363   0.088   1.302   2.595  0.9534  1.3757 -0.0328
  341SOL     MW 1364   0.137   1.347   2.647  0.0583  0.3351 -0.2154
  342SOL     OW 1365   1.442   0.313   0.063  0.2553 -0.1579 -0.1883
  342SOL    HW1 1366   1.463   0.397   0.106 -2.7657 -0.6919  0.8990
  342SOL    HW2 1367   1.444   0.330  -0.030  1.3871  0.4981  1.9981
  342SOL     MW 1368   1.445   0.326   0.056  0.0061 -0.1418  0.2437
  343SOL     OW 1369   0.228   0.285   2.233 -0.3386 -0.2233 -0.0524
  343SOL    HW1 1370   0.246   0.227   2.305  2.8843  0.7500 -0.2620
  343SOL    HW2 1371   0.174   0.226   2.172 -1.8341  0.3668 -1.5629
  343SOL     MW 1372   0.224   0.269   2.235 -0.1107 -0.0171 -0.2794
  344SOL     OW 1373   1.681   2.071   0.255  0.0436 -0.0481 -0.1673
  344SOL    HW1 1374   1.688   2.119   0.175  0.5327 -0.3716  1.9119
  344SOL    HW2 1375   1.606   2.005   0.243 -0.4764 -2.3301  0.4255
  344SOL     MW 1376   1.672   2.069   0.243  0.0395 -0.3919  0.1852
  345SOL     OW 1377   0.720   1.587   2.382  0.3772 -0.0084  0.1146
  345SOL    HW1 1378   0.631   1.583   2.350  2.3919 -1.3142 -0.3216
  345SOL    HW2 1379   0.776   1.557   2.302 -0.8525 -1.6549  0.8226
  345SOL     MW 1380   0.715   1.583   2.367  0.4808 -0.3979  0.1504
  346SOL     OW 1381   1.717   1.125   0.023  0.3348  0.7344  0.5394
  346SOL    HW1 1382   1.811   1.097   0.046  0.6253  1.6774  1.0882
  346SOL    HW2 1383   1.648   1.078   0.077 -2.3254 -0.5543 -2.4438
  346SOL     MW 1384   1.720   1.115   0.033  0.0221  0.6888  0.2182
  347SOL     OW 1385   1.241   0.709   2.336  0.3587  0.3326 -0.5142
  347SOL    HW1 1386   1.335   0.705   2.350 -2.0212 -0.8087  0.7550
  347SOL    HW2 1387   1.207   0.778   2.398  1.4497 -0.3795 -1.4344
  347SOL     MW 1388   1.249   0.718   2.346  0.1887  0.0880 -0.4681
  348SOL     OW 1389   1.312   2.598   1.890  0.1172 -0.3549  0.2140
  348SOL    HW1 1390   1.354   2.515   1.889 -0.9947  3.1811 -1.7144
  348SOL    HW2 1391   1.376   2.661   1.924  0.3185 -0.1331  1.4553
  348SOL     MW 1392   1.326   2.595   1.895 -0.0030  0.1409  0.1234
  349SOL     OW 1393   1.431   0.220   2.677  0.5598  0.7179  0.8177
  349SOL    HW1 1394   1.374   0.269   2.738 -0.8037 -2.3378  1.4170
  349SOL    HW2 1395   1.495   0.182   2.735  3.7177 -0.6910 -2.7677
  349SOL     MW 1396   1.432   0.221   2.693  0.7965  0.1288  0.4237
  350SOL     OW 1397   1.860   0.674   2.616  0.4223 -0.3289 -0.4202
  350SOL    HW1 1398   1.799   0.612   2.587 -0.7645  2.2809 -2.2453
  350SOL    HW2 1399   1.955   0.650   2.600  1.0385 -2.1775  0.1462
  350SOL     MW 1400   1.865   0.663   2.610  0.3470 -0.2285 -0.5863
  351SOL     OW 1401   0.087   0.953   1.627  0.1916 -0.0495  0.0140
  351SOL    HW1 1402   0.038   1.012   1.687  1.4526  2.1305  2.5779
  351SOL    HW2 1403   0.141   1.017   1.584  0.3212 -1.5290 -1.2297
  351SOL     MW 1404   0.088   0.969   1.630  0.3750  0.0429  0.1882
  352SOL     OW 1405   0.721   1.647   2.774  0.0687 -0.4145  0.2404
  352SOL    HW1 1406   0.786   1.623   2.838  4.9569 -1.3846 -2.5998
  352SOL    HW2 1407   0.719   1.567   2.718  0.1947  2.0767  0.0079
  352SOL     MW 1408   0.729   1.633   2.775  0.7303 -0.2138 -0.1650
  353SOL     OW 1409   2.988   2.438   2.724  0.5280  0.1916  0.2423
  353SOL    HW1 1410   3.075   2.407   2.689  0.6197  0.8828 -1.2528
  353SOL    HW2 1411   2.968   2.517   2.674  0.4547 -0.5462 -2.6889
  353SOL     MW 1412   2.997   2.444   2.713  0.5304  0.1854 -0.3417
  354SOL     OW 1413   0.415   2.410   0.845 -0.1253  0.5298 -0.1522
  354SOL    HW1 1414   0.408   2.360   0.925  2.0842  1.5170  1.4512
  354SOL    HW2 1415   0.333   2.371   0.809  0.1815  0.3321  1.4583
  354SOL     MW 1416   0.403   2.398   0.851  0.2067  0.6340  0.2719
  355SOL     OW 1417   0.068   2.171   0.392 -0.1579  0.2995  0.2347
  355SOL    HW1 1418  -0.022   2.148   0.352  0.0048 -2.6230 -0.3499
  355SOL    HW2 1419   0.050   2.225   0.465  1.3348 -0.8203  2.2983
  355SOL     MW 1420   0.054   2.175   0.396  0.0605 -0.2338  0.4298
  356SOL     OW 1421   0.855   2.947   1.020 -0.1378 -0.6445  0.2768
  356SOL    HW1 1422   0.891   2.940   0.926  1.9872 -3.0347 -1.2643
  356SOL    HW2 1423   0.783   2.886   1.028  1.7786  2.7840  0.4737
  356SOL     MW 1424   0.851   2.938   1.009  0.3954 -0.5075  0.0994
  357SOL     OW 1425   1.739   2.914   0.373  0.0550  0.5670  0.2782
  357SOL    HW1 1426   1.696   2.854   0.433  4.0769  0.6238 -0.7644
  357SOL    HW2 1427   1.827   2.875   0.364 -3.8051 -0.3632  0.9371
  357SOL     MW 1428   1.745   2.901   0.380  0.0763  0.4518  0.2275
  358SOL     OW 1429   0.451   0.133   1.056  0.1292 -0.3621 -0.2481
  358SOL    HW1 1430   0.534   0.080   1.053  1.6330 -0.7025 -2.1265
  358SOL    HW2 1431   0.432   0.136   0.966  0.6097 -0.1807 -0.4610
  358SOL     MW 1432   0.459   0.126   1.044  0.3910 -0.3831 -0.5240
  359SOL     OW 1433   0.975   2.873   1.821 -0.1083  0.1156 -0.0353
  359SOL    HW1 1434   0.955   2.782   1.853  0.0408 -0.4626 -0.8118
  359SOL    HW2 1435   0.991   2.845   1.730 -2.7704 -0.2394  3.0225
  359SOL     MW 1436   0.975   2.857   1.813 -0.4399 -0.0075  0.2657
  360SOL     OW 1437   0.625   2.782   1.003 -0.5832 -0.4305  0.1450
  360SOL    HW1 1438   0.625   2.736   0.920 -2.9486 -1.5993  0.1168
  360SOL    HW2 1439   0.618   2.705   1.057 -0.4494 -0.8992  3.4869
  360SOL     MW 1440   0.624   2.766   1.000 -0.8777 -0.6466  0.5822
  361SOL     OW 1441   0.183   2.722   1.352  0.1441 -0.7188 -0.0028
  361SOL    HW1 1442   0.161   2.816   1.386 -0.8353  2.4820 -0.2937
  361SOL    HW2 1443   0.273   2.694   1.370 -1.9056  1.6270 -0.7362
  361SOL     MW 1444   0.192   2.731   1.359 -0.2555  0.0130 -0.1380
  362SOL     OW 1445   1.492   2.407   0.599 -0.1015  1.0050 -0.0106
  362SOL    HW1 1446   1.480   2.321   0.651  0.1532  0.7033 -0.5659
  362SOL    HW2 1447   1.502   2.464   0.672 -2.9702  0.6745 -0.3147
  362SOL     MW 1448   1.492   2.404   0.616 -0.4464  0.9216 -0.1240
  363SOL     OW 1449   0.268   3.034   0.745  0.5260 -0.4688 -0.1696
  363SOL    HW1 1450   0.279   2.994   0.831 -0.4915  0.9132  3.4303
  363SOL    HW2 1451   0.176   3.054   0.741  1.3190 -2.5503 -0.5755
  363SOL     MW 1452   0.257   3.032   0.756  0.4964 -0.5611  0.2518
  364SOL     OW 1453   0.714   0.162   0.255  0.5955  0.1316  0.2785
  364SOL    HW1 1454   0.641   0.098   0.240 -1.4811 -1.1893  2.2916
  364SOL    HW2 1455   0.679   0.246   0.215  1.2584 -2.0405  1.0742
  364SOL     MW 1456   0.700   0.164   0.247  0.4090 -0.3293  0.6491
  365SOL     OW 1457   0.931   1.965   1.133 -0.4733 -0.3689 -0.3051
  365SOL    HW1 1458   0.897   2.035   1.076 -0.6645 -2.7595  0.4578
  365SOL    HW2 1459   0.895   1.885   1.092  0.9325  0.0663  1.7060
  365SOL     MW 1460   0.922   1.963   1.120 -0.3130 -0.6269  0.0609
  366SOL     OW 1461   2.871   2.601   1.004  0.3239 -0.0161 -0.1295
  366SOL    HW1 1462   2.944   2.591   1.073  2.4342  0.0007 -1.1744
  366SOL    HW2 1463   2.917   2.639   0.922 -1.0585 -2.2609  0.6889
  366SOL     MW 1464   2.886   2.605   1.002  0.4199 -0.3101 -0.1594
  367SOL     OW 1465   1.271   2.792   0.873 -0.0301 -0.3905 -0.0762
  367SOL    HW1 1466   1.188   2.840   0.893 -1.6771  0.6850  1.5367
  367SOL    HW2 1467   1.253   2.744   0.789  0.7350  3.9087  0.4620
  367SOL     MW 1468   1.258   2.792   0.865 -0.1465  0.3186  0.2076
  368SOL     OW 1469   1.677   0.473   0.670  0.2362  0.0378 -0.1514
  368SOL    HW1 1470   1.762   0.432   0.653  0.1219  0.3901 -0.0286
  368SOL    HW2 1471   1.699   0.566   0.663  0.6205 -1.9094  2.4191
  368SOL     MW 1472   1.691   0.480   0.667  0.2718 -0.1726  0.2039
  369SOL     OW 1473   0.129   2.482   1.703  0.6099 -0.5545 -0.4091
  369SOL    HW1 1474   0.213   2.467   1.745  0.2787 -0.2431  2.1582
  369SOL    HW2 1475   0.103   2.575   1.723 -1.0917 -0.0287  0.6682
  369SOL     MW 1476   0.137   2.492   1.711  0.3417 -0.4440  0.0718
  370SOL     OW 1477   0.684   0.062   0.988  0.1681  0.6814  0.6011
  370SOL    HW1 1478   0.734   0.138   1.013 -0.4110 -0.1452  0.3206
  370SOL    HW2 1479   0.741  -0.013   1.010 -1.2087 -0.3033 -2.8725
  370SOL     MW 1480   0.698   0.062   0.994 -0.0900  0.4424  0.1058
  371SOL     OW 1481   1.311   2.963   1.488 -0.1006  0.7422  0.2273
  371SOL    HW1 1482   1.294   2.893   1.423  1.1913  2.4031 -0.0652
  371SOL    HW2 1483   1.320   3.046   1.442 -0.3046 -0.5052  2.5728
  371SOL     MW 1484   1.310   2.965   1.474  0.0429  0.7968  0.4981
  372SOL     OW 1485   0.832   2.283   0.489 -0.4220  0.1308 -0.4924
  372SOL    HW1 1486   0.794   2.194   0.490  2.4894 -0.4580  0.9689
  372SOL    HW2 1487   0.818   2.321   0.399  1.4637  0.0913 -2.1391
  372SOL     MW 1488   0.825   2.276   0.477  0.2110  0.0479 -0.5169
  373SOL     OW 1489   2.839   3.011   1.395 -0.4072 -0.5754  0.0374
  373SOL    HW1 1490   2.911   2.989   1.337  0.2972  0.6221 -1.0860
  373SOL    HW2 1491   2.809   3.101   1.360  0.3582 -0.4054 -2.3158
  373SOL     MW 1492   2.844   3.020   1.383 -0.2132 -0.3950 -0.4213
  374SOL     OW 1493   1.529   0.511   0.259  0.4083 -0.4602 -0.0591
  374SOL    HW1 1494   1.621   0.550   0.273 -0.8430  1.1107  0.5786
  374SOL    HW2 1495   1.504   0.502   0.353 -5.1966 -0.5287 -3.0632
  374SOL     MW 1496   1.538   0.515   0.273 -0.4963 -0.2620 -0.3714
  375SOL     OW 1497   1.120   2.122   2.319 -0.0561  0.0347  0.0203
  375SOL    HW1 1498   1.117   2.105   2.413 -0.2995  0.1831 -3.6037
  375SOL    HW2 1499   1.175   2.052   2.291 -1.4227 -0.7806 -0.0525
  375SOL     MW 1500   1.127   2.111   2.328 -0.2685 -0.0533 -0.4675
  376SOL     OW 1501   0.682   2.545   0.087  0.1383 -0.1547 -0.8124
  376SOL    HW1 1502   0.734   2.465   0.111 -0.1314  1.9905  0.2570
  376SOL    HW2 1503   0.614   2.514   0.027 -2.1859 -1.8777 -1.8787
  376SOL     MW 1504   0.680   2.530   0.082 -0.2039 -0.0990 -0.8120
  377SOL     OW 1505   1.302   1.974   0.846  0.1736 -0.3055  0.0654
  377SOL    HW1 1506   1.226   1.964   0.785  1.9509  1.2130 -2.4846
  377SOL    HW2 1507   1.266   1.939   0.930 -0.2354 -1.6448 -2.2217
  377SOL     MW 1508   1.287   1.968   0.849  0.3542 -0.2819 -0.5728
  378SOL     OW 1509   1.025   2.777   1.558  0.4388  0.0224  0.2289
  378SOL    HW1 1510   0.954   2.710   1.575 -0.7663  0.7997 -1.7181
  378SOL    HW2 1511   0.984   2.855   1.511 -0.0005  1.8376 -0.0086
  378SOL     MW 1512   1.010   2.779   1.554  0.2218  0.3645 -0.0593
  379SOL     OW 1513   1.106   1.800   2.264  0.1728  0.0698 -0.0505
  379SOL    HW1 1514   1.016   1.802   2.246  0.5941 -0.3486 -1.4617
  379SOL    HW2 1515   1.143   1.720   2.219 -1.5352  0.3538 -3.0280
  379SOL     MW 1516   1.099   1.790   2.256  0.0031  0.0520 -0.6296
  380SOL     OW 1517   0.878   0.114   1.540  0.4133 -0.9654  0.2343
  380SOL    HW1 1518   0.906   0.056   1.467 -2.0978 -0.2688 -3.1141
  380SOL    HW2 1519   0.956   0.125   1.586 -0.0137  0.1992 -1.0063
  380SOL     MW 1520   0.892   0.108   1.536  0.0256 -0.7198 -0.3712
  381SOL     OW 1521   0.797   1.958   0.771 -0.2890  0.0919  0.0547
  381SOL    HW1 1522   0.897   1.959   0.759  0.5517  0.1810 -1.3881
  381SOL    HW2 1523   0.779   2.026   0.832 -0.9338 -2.1639  0.1402
  381SOL     MW 1524   0.808   1.967   0.778 -0.2631 -0.1940 -0.1244
  382SOL     OW 1525   0.730   0.064   0.717  0.2480  0.3771 -0.2844
  382SOL    HW1 1526   0.717   0.077   0.812  0.6611  0.9149  2.0621
  382SOL    HW2 1527   0.677  -0.018   0.703 -1.4237 -1.7502  1.1616
  382SOL     MW 1528   0.722   0.055   0.727  0.0819  0.1674  0.2160
  383SOL     OW 1529   0.418   0.048   0.374  0.3329  0.0011 -0.1781
  383SOL    HW1 1530   0.482  -0.018   0.336 -0.1031  2.5425 -0.0304
  383SOL    HW2 1531   0.339  -0.006   0.366  0.0569  2.7244 -1.8841
  383SOL     MW 1532   0.416   0.032   0.368  0.2390  0.6957 -0.3837
  384SOL     OW 1533   0.625   2.912   0.651  0.3141 -0.0503  0.2725
  384SOL    HW1 1534   0.642   2.829   0.687 -0.3697  3.7316  0.1015
  384SOL    HW2 1535   0.543   2.899   0.599  1.6038  0.6942 -2.0331
  384SOL     MW 1536   0.617   2.899   0.649  0.3940  0.5469 -0.0543
  385SOL     OW 1537   1.316   2.072   1.539 -0.2579 -0.1783 -0.7373
  385SOL    HW1 1538   1.388   2.090   1.598 -0.5309  0.3445 -0.0687
  385SOL    HW2 1539   1.276   1.988   1.565  0.3720  1.7086 -0.3722
  385SOL     MW 1540   1.321   2.063   1.550 -0.2108  0.1397 -0.6009
  386SOL     OW 1541   1.357   0.349   0.815 -0.0781 -0.7700  0.1801
  386SOL    HW1 1542   1.266   0.340   0.819  2.0904  0.1367 -1.5041
  386SOL    HW2 1543   1.384   0.378   0.904  2.0528  0.9915  0.1711
  386SOL     MW 1544   1.349   0.352   0.827  0.4892 -0.4179 -0.0433
  387SOL     OW 1545   0.833   2.209   1.475 -0.0037 -0.0744 -0.3305
  387SOL    HW1 1546   0.900   2.264   1.422 -0.4421  1.3044  1.4547
  387SOL    HW2 1547   0.861   2.111   1.467 -2.6224 -0.8405 -1.3722
  387SOL     MW 1548   0.845   2.204   1.467 -0.4070  0.0064 -0.2324
  388SOL     OW 1549   1.533   2.782   1.258  0.9296 -0.1978  0.5690
  388SOL    HW1 1550   1.449   2.745   1.229  0.4229 -1.4683  1.4819
  388SOL    HW2 1551   1.592   2.739   1.194  0.2203 -0.5731  1.1936
  388SOL     MW 1552   1.530   2.772   1.246  0.7692 -0.4149  0.7718
  389SOL     OW 1553   0.360   0.102   3.094  0.1139 -0.6859  0.0860
  389SOL    HW1 1554   0.437   0.079   3.041 -0.2458 -1.8043  1.0897
  389SOL    HW2 1555   0.282   0.095   3.030 -1.0960 -2.9342 -3.5593
  389SOL     MW 1556   0.360   0.098   3.079 -0.0932 -1.1301 -0.2626
  390SOL     OW 1557   1.336   0.018   0.625 -0.6581 -0.2866  0.3197
  390SOL    HW1 1558   1.412   0.063   0.594 -0.1475 -1.9982 -3.3984
  390SOL    HW2 1559   1.330   0.018   0.722  0.4035  2.3608  0.4972
  390SOL     MW 1560   1.345   0.024   0.634 -0.4507 -0.1632 -0.1474
  391SOL     OW 1561   0.294   2.263   1.504 -0.3921  0.0226  0.4805
  391SOL    HW1 1562   0.223   2.200   1.520 -0.0945 -0.8351  1.2716
  391SOL    HW2 1563   0.240   2.340   1.469  0.5385 -1.6312  0.1528
  391SOL     MW 1564   0.277   2.265   1.502 -0.2300 -0.3087  0.5417
  392SOL     OW 1565   1.992   2.210   0.367  0.5040 -0.6955  0.5181
  392SOL    HW1 1566   1.935   2.175   0.436 -2.1396  0.0753  1.6509
  392SOL    HW2 1567   2.072   2.235   0.407 -0.1651  3.4442  0.0661
  392SOL     MW 1568   1.995   2.209   0.381  0.0669 -0.0476  0.6080
  393SOL     OW 1569   0.238   2.988   2.808  0.0199  0.2221  0.1260
  393SOL    HW1 1570   0.289   3.064   2.796 -0.1248 -3.1288  0.6426
  393SOL    HW2 1571   0.147   3.011   2.771  0.5897 -0.5742 -1.4074
  393SOL     MW 1572   0.233   3.001   2.801  0.0760 -0.3251 -0.0082
  394SOL     OW 1573   0.869   1.683   1.469  0.0687  0.0579  0.2249
  394SOL    HW1 1574   0.822   1.704   1.549  0.5770  1.7065 -0.1217
  394SOL    HW2 1575   0.871   1.763   1.419 -0.6833 -0.4231 -0.7201
  394SOL     MW 1576   0.863   1.696   1.473  0.0366  0.2119  0.0545
  395SOL     OW 1577   0.955   2.854   2.611  0.8921 -0.3054  0.2019
  395SOL    HW1 1578   0.966   2.939   2.657 -0.4147  2.5308 -2.7551
  395SOL    HW2 1579   1.053   2.820   2.597  0.7217  0.4538  1.1694
  395SOL     MW 1580   0.970   2.861   2.615  0.6972  0.1690 -0.0606
  396SOL     OW 1581   0.815   1.843   2.367  0.7285 -0.2915  0.0431
  396SOL    HW1 1582   0.897   1.853   2.412  1.9072 -0.4219  1.1535
  396SOL    HW2 1583   0.784   1.756   2.389 -1.1814  2.3163  0.5086
  396SOL     MW 1584   0.822   1.833   2.376  0.6320  0.0353  0.2510
  397SOL     OW 1585   1.013   2.347   1.359  0.1677  0.3039  0.3234
  397SOL    HW1 1586   1.069   2.382   1.289  0.5232 -2.1058  1.2520
  397SOL    HW2 1587   1.083   2.326   1.424  3.6044 -0.4457 -1.6837
  397SOL     MW 1588   1.030   2.349   1.358  0.6680 -0.1129  0.1811
  398SOL     OW 1589   0.656   2.636   0.774 -0.0548 -0.4895  0.4304
  398SOL    HW1 1590   0.599   2.585   0.719 -0.0383 -3.8545 -0.1549
  398SOL    HW2 1591   0.739   2.586   0.747  0.1927 -1.1895 -3.8601
  398SOL     MW 1592   0.659   2.623   0.763 -0.0200 -1.0259 -0.2129
  399SOL     OW 1593   0.288   2.004   0.436 -0.0330 -0.2676 -0.0059
  399SOL    HW1 1594   0.212   2.062   0.411 -3.2015  0.8439  0.8670
  399SOL    HW2 1595   0.345   1.983   0.356 -1.7831  1.0507 -2.6344
  399SOL     MW 1596   0.286   2.009   0.422 -0.6819  0.0530 -0.2375
  400SOL     OW 1597   0.578   1.828   0.148 -0.1501 -0.2088  0.5591
  400SOL    HW1 1598   0.560   1.917   0.163 -2.2469 -0.9066 -0.0029
  400SOL    HW2 1599   0.533   1.779   0.219  1.2476  1.1159 -1.0183
  400SOL     MW 1600   0.570   1.833   0.160 -0.2423 -0.1261  0.2768
  401SOL     OW 1601   0.915   2.074   0.208 -0.3467  0.2765  0.1296
  401SOL    HW1 1602   0.909   1.986   0.190 -0.6051  1.6098 -1.5041
  401SOL    HW2 1603   1.003   2.088   0.244 -1.9892  0.4821 -0.3237
  401SOL     MW 1604   0.926   2.064   0.210 -0.5975  0.4796 -0.1458
  402SOL     OW 1605   0.683   2.941   1.693 -0.2647  0.4662 -0.2526
  402SOL    HW1 1606   0.749   2.913   1.761 -0.7817  1.7957 -0.6184
  402SOL    HW2 1607   0.724   3.022   1.655  0.1284  0.2517 -1.8441
  402SOL     MW 1608   0.697   2.948   1.697 -0.2810  0.6134 -0.5109
  403SOL     OW 1609   0.052   0.386   0.449  0.0518 -0.3612 -0.1424
  403SOL    HW1 1610   0.138   0.393   0.492  1.6419 -2.2263  0.7550
  403SOL    HW2 1611   0.072   0.398   0.355  0.1930 -1.2259  1.1710
  403SOL     MW 1612   0.066   0.388   0.442  0.2802 -0.7214  0.1493
  404SOL     OW 1613   0.990   2.876   0.800 -0.2485 -0.5778 -0.0514
  404SOL    HW1 1614   1.019   2.807   0.739 -2.7241  0.4657  1.2742
  404SOL    HW2 1615   1.010   2.960   0.755  0.7639 -0.2115 -1.1947
  404SOL     MW 1616   0.997   2.878   0.786 -0.4416 -0.3918 -0.0273
  405SOL     OW 1617   0.490   2.448   1.575  0.3303 -0.4180  0.3534
  405SOL    HW1 1618   0.482   2.523   1.511 -1.8795 -3.1656  2.2960
  405SOL    HW2 1619   0.412   2.391   1.542 -1.9122 -0.2739 -1.8433
  405SOL     MW 1620   0.479   2.451   1.562 -0.2572 -0.7615  0.3199
  406SOL     OW 1621   0.408   2.305   1.096 -0.2185 -0.0020  0.0731
  406SOL    HW1 1622   0.331   2.362   1.114 -1.0084  2.3503 -1.1699
  406SOL    HW2 1623   0.404   2.225   1.154 -0.0533 -4.4099 -1.0454
  406SOL     MW 1624   0.397   2.302   1.106 -0.3009 -0.2732 -0.2385
  407SOL     OW 1625   0.037   2.718   1.115 -0.5827  0.2718 -0.0313
  407SOL    HW1 1626   0.094   2.732   1.196  1.1501  1.5786 -2.3329
  407SOL    HW2 1627   0.089   2.676   1.053 -2.1098 -3.0939 -2.0124
  407SOL     MW 1628   0.051   2.714   1.117 -0.5555  0.0001 -0.5963
  408SOL     OW 1629   2.095   2.047   0.654  0.2562 -0.3336  0.3501
  408SOL    HW1 1630   2.056   2.086   0.729 -1.0646  0.3161 -0.1352
  408SOL    HW2 1631   2.028   1.993   0.613  2.6985  1.3314  2.1272
  408SOL     MW 1632   2.081   2.045   0.658  0.4042 -0.0282  0.5205
  409SOL     OW 1633   1.349   0.064   0.885  0.6033  0.3209  0.3513
  409SOL    HW1 1634   1.385   0.153   0.871  0.3259  3.5934  2.8328
  409SOL    HW2 1635   1.412   0.009   0.934 -2.6945 -1.4163 -0.5940
  409SOL     MW 1636   1.362   0.069   0.890  0.1316  0.5235  0.5540
  410SOL     OW 1637   1.106   2.442   1.133 -0.1705 -0.2711  0.1501
  410SOL    HW1 1638   1.014   2.441   1.100  1.3417 -0.1922  1.5510
  410SOL    HW2 1639   1.143   2.366   1.080  1.6216  1.0912  0.4603
  410SOL     MW 1640   1.099   2.432   1.122  0.2655 -0.0809  0.3759
  411SOL     OW 1641   1.953   0.072   2.858  0.4594 -0.1619  0.0450
  411SOL    HW1 1642   1.882   0.067   2.788 -3.2389 -2.1511 -0.1985
  411SOL    HW2 1643   1.910   0.061   2.941  0.6789 -1.9641  1.0457
  411SOL     MW 1644   1.938   0.070   2.860  0.0004 -0.6622  0.1449
  412SOL     OW 1645   1.084   2.208   0.596 -0.0527  0.2202  0.2838
  412SOL    HW1 1646   1.129   2.279   0.638  2.4000 -0.8796 -2.0106
  412SOL    HW2 1647   1.002   2.244   0.573  2.4563 -0.6363  2.0162
  412SOL     MW 1648   1.079   2.222   0.599  0.6020 -0.0379  0.2097
  413SOL     OW 1649   0.547   2.769   0.089 -0.3048 -0.1001 -0.0205
  413SOL    HW1 1650   0.597   2.686   0.105  2.6021  1.5720  1.0688
  413SOL    HW2 1651   0.567   2.800   0.001 -0.4409  0.1729 -0.6418
  413SOL     MW 1652   0.556   2.762   0.080  0.0608  0.1565  0.0412
  414SOL     OW 1653   1.968   3.025   1.086 -0.3129 -1.1942 -0.4922
  414SOL    HW1 1654   1.938   3.034   0.992  3.1179  0.5659  0.1035
  414SOL    HW2 1655   2.028   2.948   1.087  1.1445 -1.4194  0.8533
  414SOL     MW 1656   1.972   3.016   1.073  0.3321 -0.9917 -0.2361
  415SOL     OW 1657   1.705   2.657   1.076 -0.2990 -0.2462  0.0328
  415SOL    HW1 1658   1.662   2.601   1.144  0.4325  1.2359  2.2776
  415SOL    HW2 1659   1.797   2.666   1.110  1.1996  0.0614  0.9855
  415SOL     MW 1660   1.712   2.651   1.089 -0.0048 -0.0101  0.4546
  416SOL     OW 1661   0.602   1.914   1.370  0.6973 -0.2465 -0.4187
  416SOL    HW1 1662   0.547   1.989   1.346  2.0140  1.6817  0.9733
  416SOL    HW2 1663   0.618   1.868   1.285 -0.1339 -1.8336 -2.0203
  416SOL     MW 1664   0.597   1.918   1.356  0.7613 -0.2015 -0.4463
  417SOL     OW 1665   1.013   3.054   2.045  0.0557  0.2262 -0.1627
  417SOL    HW1 1666   0.936   3.015   2.085 -0.1275 -0.4084  0.6199
  417SOL    HW2 1667   1.010   3.005   1.964 -2.2996  1.3045  1.4301
  417SOL     MW 1668   1.002   3.043   2.039 -0.2793  0.2847  0.1507
  418SOL     OW 1669   0.645   2.983   0.228 -0.7135 -0.3736 -0.4551
  418SOL    HW1 1670   0.716   3.005   0.166  0.6759 -0.3096 -0.1992
  418SOL    HW2 1671   0.614   2.894   0.207 -1.2215  1.9534  2.4899
  418SOL     MW 1672   0.651   2.975   0.217 -0.5972 -0.0581 -0.0327
  419SOL     OW 1673   0.436   2.647   1.380  0.1490 -0.2307  0.0470
  419SOL    HW1 1674   0.491   2.725   1.403  1.1990  0.5463  1.8198
  419SOL    HW2 1675   0.485   2.616   1.303  0.1138 -1.1801  0.0069
  419SOL     MW 1676   0.450   2.653   1.373  0.2829 -0.2535  0.2756
  420SOL     OW 1677   0.766   2.137   0.991 -0.2126 -0.3969  0.0847
  420SOL    HW1 1678   0.718   2.177   1.065 -2.7696 -0.0220  0.0252
  420SOL    HW2 1679   0.812   2.214   0.963  0.1212 -0.0306 -0.5355
  420SOL     MW 1680   0.766   2.153   0.997 -0.5059 -0.2991 -0.0050
  421SOL     OW 1681   2.941   0.065   0.039  0.0036 -0.0120 -0.2057
  421SOL    HW1 1682   2.930   0.044  -0.057  0.2900 -0.2310 -1.6119
  421SOL    HW2 1683   2.950  -0.018   0.084 -1.4036  1.8582 -1.8122
  421SOL     MW 1684   2.940   0.052   0.032 -0.1443  0.2058 -0.6032
  422SOL     OW 1685   0.838   2.456   0.970 -0.4629  0.3929  0.6926
  422SOL    HW1 1686   0.772   2.509   1.013 -1.2882 -1.7887  1.0687
  422SOL    HW2 1687   0.830   2.464   0.874  0.1285 -1.6184 -0.9245
  422SOL     MW 1688   0.828   2.464   0.963 -0.4937 -0.1603  0.5289
  423SOL     OW 1689   1.525   0.162   0.506 -0.1180  0.1005 -0.4185
  423SOL    HW1 1690   1.538   0.139   0.411  1.1963 -0.8704  1.6933
  423SOL    HW2 1691   1.486   0.247   0.498  1.4544 -0.2767  1.8475
  423SOL     MW 1692   1.522   0.170   0.492  0.2629 -0.0774  0.1591
  424SOL     OW 1693   0.685   2.266   1.252 -0.2897 -0.5429  0.1820
  424SOL    HW1 1694   0.599   2.230   1.266  4.5052  0.1011  0.6584
  424SOL    HW2 1695   0.732   2.242   1.332  3.8060  0.4085 -2.5822
  424SOL     MW 1696   0.680   2.258   1.265  0.8834 -0.3324 -0.1198
  425SOL     OW 1697   1.723   2.826   1.929 -0.0650 -0.1680 -0.3930
  425SOL    HW1 1698   1.752   2.859   1.843 -2.5892  2.6392  1.1589
  425SOL    HW2 1699   1.774   2.749   1.962 -0.7572 -0.7968 -0.2264
  425SOL     MW 1700   1.734   2.820   1.922 -0.4893  0.1194 -0.1663
  426SOL     OW 1701   0.800   1.682   1.933  0.7187  0.2719 -0.1049
  426SOL    HW1 1702   0.742   1.682   1.858 -4.0447 -1.2425  2.7088
  426SOL    HW2 1703   0.778   1.763   1.972  0.6945  0.1696  0.0272
  426SOL     MW 1704   0.789   1.692   1.929  0.0870  0.0586  0.2838
  427SOL     OW 1705   0.331   1.553   1.889 -0.6173 -0.2643  0.2281
  427SOL    HW1 1706   0.392   1.619   1.927  1.0831 -3.6134 -1.3713
  427SOL    HW2 1707   0.268   1.509   1.951 -1.5205  0.8824  1.1860
  427SOL     MW 1708   0.331   1.556   1.902 -0.5121 -0.5549  0.1435
  428SOL     OW 1709   0.565   2.536   1.152 -0.1723  0.0993 -0.3972
  428SOL    HW1 1710   0.639   2.532   1.213  1.5615  2.0341 -3.3404
  428SOL    HW2 1711   0.527   2.446   1.148  1.5250  0.6963 -1.3440
  428SOL     MW 1712   0.570   2.523   1.159  0.2804  0.4333 -0.9104
  429SOL     OW 1713   1.346   2.615   1.079  0.0667 -0.2217  0.3175
  429SOL    HW1 1714   1.269   2.561   1.110 -0.9241 -1.9723 -0.8422
  429SOL    HW2 1715   1.310   2.684   1.017 -0.3249  2.3645  0.7291
  429SOL     MW 1716   1.331   2.617   1.075 -0.1157 -0.1115  0.2188
  430SOL     OW 1717   1.127   2.685   0.648 -0.5268  0.1879 -0.4256
  430SOL    HW1 1718   1.128   2.588   0.663  0.0324  0.1094  0.5016
  430SOL    HW2 1719   1.081   2.702   0.567 -0.5580  0.6596 -0.0273
  430SOL     MW 1720   1.121   2.674   0.639 -0.4572  0.2398 -0.2507
  431SOL     OW 1721   0.343   1.958   1.128 -0.0069 -0.3142 -0.3190
  431SOL    HW1 1722   0.403   1.889   1.103  0.2020 -3.0541 -1.5865
  431SOL    HW2 1723   0.311   1.992   1.048  1.1210  1.8346  0.9890
  431SOL     MW 1724   0.347   1.953   1.114  0.1695 -0.3922 -0.3136
  432SOL     OW 1725   0.041   0.081   1.175  0.3241  0.1066  0.2658
  432SOL    HW1 1726   0.043   0.105   1.272  0.9934 -1.9650 -0.6281
  432SOL    HW2 1727  -0.002  -0.012   1.173 -0.8782  0.6717 -0.6555
  432SOL     MW 1728   0.035   0.072   1.187  0.2538 -0.0922  0.0263
  433SOL     OW 1729   0.617   2.894   1.428 -0.1641  0.2934 -0.2063
  433SOL    HW1 1730   0.611   2.900   1.524 -0.9006 -2.5530 -1.7742
  433SOL    HW2 1731   0.714   2.898   1.408 -1.8120  0.9855  0.5639
  433SOL     MW 1732   0.629   2.895   1.438 -0.4787  0.0092 -0.3115
  434SOL     OW 1733   1.548   2.830   1.545  0.6439 -0.5242 -0.4113
  434SOL    HW1 1734   1.476   2.893   1.540 -0.8920  0.2727 -1.3071
  434SOL    HW2 1735   1.556   2.805   1.456 -2.0300  1.6233  0.2852
  434SOL     MW 1736   1.540   2.835   1.532  0.0885 -0.1357 -0.4376
  435SOL     OW 1737   2.865   1.754   0.198 -0.2823  0.1355 -0.3182
  435SOL    HW1 1738   2.938   1.807   0.169  1.3207  1.8107 -2.2482
  435SOL    HW2 1739   2.828   1.710   0.125  1.9873 -1.2058  0.4942
  435SOL     MW 1740   2.870   1.755   0.185  0.2287  0.1796 -0.4657
  436SOL     OW 1741   1.395   2.747   0.314  0.0774 -0.1993  0.3744
  436SOL    HW1 1742   1.441   2.695   0.381 -0.3970 -0.0922  1.1320
  436SOL    HW2 1743   1.360   2.825   0.355 -0.0689 -1.1949 -2.1402
  436SOL     MW 1744   1.396   2.750   0.328 -0.0045 -0.3165  0.1426
  437SOL     OW 1745   0.892   2.930   1.366  0.0617 -0.3532 -0.4381
  437SOL    HW1 1746   0.910   3.023   1.335  1.5659  0.7741 -0.6063
  437SOL    HW2 1747   0.942   2.877   1.307 -0.3071  0.3470 -0.0968
  437SOL     MW 1748   0.901   2.935   1.354  0.2115 -0.1121 -0.4153
  438SOL     OW 1749   0.900   2.627   1.964  0.0435 -0.0191 -0.6501
  438SOL    HW1 1750   0.856   2.586   2.039  1.6187  1.7499  3.1066
  438SOL    HW2 1751   0.855   2.595   1.886 -0.1357  2.2530 -0.2074
  438SOL     MW 1752   0.888   2.617   1.964  0.2277  0.5141 -0.0960
  439SOL     OW 1753   1.155   2.178   0.330 -0.1035  0.0214  0.2328
  439SOL    HW1 1754   1.110   2.166   0.416 -3.5630 -2.2726  0.1454
  439SOL    HW2 1755   1.113   2.262   0.301 -0.1899  1.7990  0.7716
  439SOL     MW 1756   1.144   2.188   0.337 -0.5713 -0.0467  0.2924
  440SOL     OW 1757   1.604   2.954   3.033  0.1273 -1.0883  0.1603
  440SOL    HW1 1758   1.570   2.966   3.122 -0.6741  0.5733 -1.7177
  440SOL    HW2 1759   1.649   2.866   3.036 -0.9602  0.4367 -1.5188
  440SOL     MW 1760   1.606   2.944   3.045 -0.1219 -0.6679 -0.3091
  441SOL     OW 1761   0.344   2.582   0.523 -0.0121  0.0592  0.0389
  441SOL    HW1 1762   0.336   2.549   0.432 -1.0604  0.2337 -1.3206
  441SOL    HW2 1763   0.344   2.682   0.532  3.4623  0.0323 -2.6014
  441SOL     MW 1764   0.343   2.591   0.512  0.3080  0.0786 -0.4888
  442SOL     OW 1765   3.062   2.301   0.639 -0.7425 -0.5220  0.0668
  442SOL    HW1 1766   3.054   2.384   0.595 -0.7949  0.3130  1.6786
  442SOL    HW2 1767   2.989   2.304   0.702 -1.2275 -1.6445 -1.0128
  442SOL     MW 1768   3.052   2.312   0.642 -0.8134 -0.5600  0.1370
  443SOL     OW 1769   1.350   1.738   1.821 -0.2137 -0.2453  0.2539
  443SOL    HW1 1770   1.317   1.791   1.742 -0.3464  2.6476 -1.0400
  443SOL    HW2 1771   1.306   1.654   1.823 -0.0801  0.6989  2.1123
  443SOL     MW 1772   1.340   1.734   1.811 -0.2136  0.2609  0.3284
  444SOL     OW 1773   0.841   2.579   1.548  0.6505  0.3362 -0.1569
  444SOL    HW1 1774   0.882   2.492   1.550  0.8431 -3.2717 -0.6827
  444SOL    HW2 1775   0.776   2.576   1.624 -0.9784  1.3508  0.3515
  444SOL     MW 1776   0.838   2.567   1.558  0.4610 -0.0059 -0.1592
  445SOL     OW 1777   0.975   0.058   1.277 -0.4090 -0.5688  0.3563
  445SOL    HW1 1778   0.924   0.132   1.242 -0.7482  2.3399  2.4834
  445SOL    HW2 1779   1.060   0.059   1.236 -2.5470 -0.6238 -1.6219
  445SOL     MW 1780   0.979   0.068   1.267 -0.7358 -0.1922  0.3759
  446SOL     OW 1781   2.724   2.841   1.049 -0.6899 -0.9298  0.0582
  446SOL    HW1 1782   2.661   2.863   0.978 -2.3972 -0.3204  0.2079
  446SOL    HW2 1783   2.762   2.755   1.029  0.3146 -0.9527 -0.6921
  446SOL     MW 1784   2.720   2.833   1.037 -0.7826 -0.8524 -0.0210
  447SOL     OW 1785   3.046   2.021   1.711  0.0406  0.3013  0.1343
  447SOL    HW1 1786   3.102   1.944   1.737  0.2670  2.7019 -0.8723
  447SOL    HW2 1787   2.975   1.980   1.658 -0.4747 -0.0980 -1.5672
  447SOL     MW 1788   3.044   2.006   1.707  0.0025  0.5654 -0.2230
  448SOL     OW 1789   1.683   2.329   1.668 -0.5052  0.1527 -0.3548
  448SOL    HW1 1790   1.617   2.258   1.678  0.7930  2.2810  1.0283
  448SOL    HW2 1791   1.644   2.423   1.682  2.7584 -0.4983 -0.5774
  448SOL     MW 1792   1.669   2.332   1.671  0.0967  0.3476 -0.2016
  449SOL     OW 1793   0.823   2.974   0.450 -0.5168 -0.1929  0.0512
  449SOL    HW1 1794   0.763   2.976   0.373 -1.4912  1.9691  0.8095
  449SOL    HW2 1795   0.766   2.951   0.522 -1.5925 -0.9757 -0.6235
  449SOL     MW 1796   0.808   2.971   0.450 -0.7873 -0.0109  0.0622
  450SOL     OW 1797   1.231   2.418   0.686  0.1125 -0.2808 -0.1034
  450SOL    HW1 1798   1.244   2.398   0.776  0.0179 -1.4397  0.9066
  450SOL    HW2 1799   1.320   2.438   0.655  0.3279  1.2664  2.4645
  450SOL     MW 1800   1.245   2.418   0.693  0.1285 -0.2296  0.3687
  451SOL     OW 1801   0.588   2.035   1.657 -0.2293 -0.0487 -0.1432
  451SOL    HW1 1802   0.662   2.102   1.683  3.3467 -0.6425  1.9066
  451SOL    HW2 1803   0.572   2.046   1.566 -1.9705  1.2688  0.3466
  451SOL     MW 1804   0.596   2.045   1.648  0.0128  0.0468  0.1919
  452SOL     OW 1805   0.281   2.741   0.142 -0.2659 -0.1257 -0.3502
  452SOL    HW1 1806   0.374   2.751   0.132  1.8359 -2.3879  1.3734
  452SOL    HW2 1807   0.249   2.698   0.056  0.7818  0.6408 -0.5685
  452SOL     MW 1808   0.289   2.737   0.129  0.1496 -0.3230 -0.1516
  453SOL     OW 1809   0.405   2.971   1.699  0.0196 -0.1816  0.5971
  453SOL    HW1 1810   0.499   2.987   1.689 -0.0173 -1.7827  0.0350
  453SOL    HW2 1811   0.368   2.983   1.606  3.8779  2.1366 -0.2896
  453SOL     MW 1812   0.413   2.975   1.685  0.5238 -0.0869  0.4059
  454SOL     OW 1813   1.044   2.793   1.140 -0.2918 -0.1695  1.2769
  454SOL    HW1 1814   1.001   2.709   1.141 -1.8852 -1.2249  1.3099
  454SOL    HW2 1815   0.984   2.846   1.086 -0.1833 -0.3319 -1.7220
  454SOL     MW 1816   1.030   2.789   1.133 -0.4877 -0.3302  0.8856
  455SOL     OW 1817   1.551   2.973   0.202 -0.2402 -0.2495  0.2516
  455SOL    HW1 1818   1.637   2.956   0.239 -0.9311  0.0175  0.4631
  455SOL    HW2 1819   1.498   2.898   0.226 -0.8267 -0.9153 -0.8451
  455SOL     MW 1820   1.555   2.961   0.210 -0.4087 -0.3021  0.1348
  456SOL     OW 1821   2.911   0.351   1.344 -0.4413  0.6590 -0.3120
  456SOL    HW1 1822   2.857   0.282   1.295  0.1624 -2.0529 -4.4035
  456SOL    HW2 1823   2.989   0.377   1.287 -1.8533  1.2694 -0.4760
  456SOL     MW 1824   2.914   0.345   1.330 -0.5479  0.3817 -0.8734
  457SOL     OW 1825   0.860   1.548   2.996  0.6634  0.0579 -0.2292
  457SOL    HW1 1826   0.790   1.543   3.066  0.6741  0.8676  0.0579
  457SOL    HW2 1827   0.932   1.481   3.003 -0.6926  2.0025  2.5064
  457SOL     MW 1828   0.860   1.539   3.007  0.4859  0.4213  0.1696
  458SOL     OW 1829   1.474   1.401   0.635  0.0891 -0.0757 -0.3354
  458SOL    HW1 1830   1.387   1.429   0.654 -0.8104  0.4407 -1.4881
  458SOL    HW2 1831   1.455   1.342   0.564  0.5040  3.0744  2.0451
  458SOL     MW 1832   1.460   1.397   0.628  0.0252  0.4081 -0.1734
  459SOL     OW 1833   1.549   0.137   0.242  0.0357  0.3784  0.2697
  459SOL    HW1 1834   1.540   0.041   0.221 -0.9062  1.0844 -0.4592
  459SOL    HW2 1835   1.496   0.197   0.183  0.9015 -0.4525  2.2898
  459SOL     MW 1836   1.541   0.132   0.232  0.0257  0.3619  0.4401
  460SOL     OW 1837   1.727   2.155   0.617  0.2484  0.0109 -0.0377
  460SOL    HW1 1838   1.657   2.108   0.664  1.2933 -2.9450  3.7492
  460SOL    HW2 1839   1.794   2.080   0.601 -2.7634 -2.1799  0.0980
  460SOL     MW 1840   1.727   2.139   0.621 -0.0111 -0.6682  0.4798
  461SOL     OW 1841   0.558   2.431   0.623  0.1531  0.5783  0.1856
  461SOL    HW1 1842   0.496   2.481   0.571  1.2594 -0.2431 -2.4981
  461SOL    HW2 1843   0.523   2.401   0.712  2.8780 -0.2916  1.4224
  461SOL     MW 1844   0.545   2.434   0.628  0.6586  0.3552 -0.0053
  462SOL     OW 1845   0.328   0.257   1.264 -0.8282 -0.3855 -0.2326
  462SOL    HW1 1846   0.367   0.207   1.201 -0.6708 -0.8460 -0.3399
  462SOL    HW2 1847   0.412   0.277   1.315 -2.2000  0.9708  0.5736
  462SOL     MW 1848   0.344   0.253   1.263 -0.9884 -0.2673 -0.1404
  463SOL     OW 1849   1.005   0.045   0.713 -0.5266  0.2280 -0.6550
  463SOL    HW1 1850   1.039   0.037   0.624  1.3552 -1.2826  0.4658
  463SOL    HW2 1851   0.907   0.059   0.701 -0.3978  0.4867  0.3835
  463SOL     MW 1852   0.997   0.046   0.700 -0.2613  0.0628 -0.3701
  464SOL     OW 1853   0.743   2.938   2.159 -0.5581 -0.4745 -0.0036
  464SOL    HW1 1854   0.695   2.856   2.186 -1.0226  2.3243 -0.7847
  464SOL    HW2 1855   0.789   2.979   2.232 -0.1101  2.3639  2.1455
  464SOL     MW 1856   0.742   2.933   2.172 -0.5603  0.2692  0.1769
  465SOL     OW 1857   0.743   0.243   0.507 -0.4159  0.6187  0.2549
  465SOL    HW1 1858   0.706   0.190   0.582 -0.2352  1.6895  0.8508
  465SOL    HW2 1859   0.736   0.202   0.421  0.5511 -1.1940  1.4579
  465SOL     MW 1860   0.737   0.231   0.505 -0.2644  0.5208  0.4923
  466SOL     OW 1861   1.056   1.962   0.724  0.2135  0.1299 -0.1131
  466SOL    HW1 1862   1.034   1.891   0.659  0.9111  0.1222 -0.2985
  466SOL    HW2 1863   1.069   2.043   0.671 -0.2113  0.6504  0.6059
  466SOL     MW 1864   1.055   1.963   0.708  0.2495  0.1975 -0.0427
  467SOL     OW 1865   1.225   2.268   0.961  0.1748 -0.2031 -0.4379
  467SOL    HW1 1866   1.320   2.296   0.973  0.4001 -1.4879 -0.5842
  467SOL    HW2 1867   1.216   2.175   0.974  2.1168 -2.7383  0.2777
  467SOL     MW 1868   1.236   2.259   0.964  0.4608 -0.7071 -0.3628
  468SOL     OW 1869   0.343   2.614   2.004  0.5711 -0.4260  0.0808
  468SOL    HW1 1870   0.366   2.526   1.981  4.1223  0.5591  0.9095
  468SOL    HW2 1871   0.392   2.678   1.955 -2.6866 -1.9579 -1.0302
  468SOL     MW 1872   0.352   2.611   1.995  0.6098 -0.4982  0.0435
  469SOL     OW 1873   0.396   2.128   1.824 -0.1121  0.3105 -0.2832
  469SOL    HW1 1874   0.326   2.062   1.800  0.8397  1.5185 -0.0483
  469SOL    HW2 1875   0.479   2.093   1.791 -2.2215  1.2470 -2.1077
  469SOL     MW 1876   0.398   2.115   1.817 -0.2648  0.5934 -0.4929
  470SOL     OW 1877   3.047   2.541   0.168 -0.6420  0.0847 -0.2648
  470SOL    HW1 1878   2.965   2.502   0.209  0.0018 -0.4514  1.6132
  470SOL    HW2 1879   3.037   2.537   0.074  2.3477  2.3106 -0.7335
  470SOL     MW 1880   3.035   2.536   0.161 -0.1626  0.3076 -0.0789
  471SOL     OW 1881   1.218   2.743   1.344  0.7659 -0.0870 -0.2103
  471SOL    HW1 1882   1.147   2.765   1.408  0.4255 -1.1561  3.1528
  471SOL    HW2 1883   1.179   2.781   1.259 -2.7833 -0.4802  1.6796
  471SOL     MW 1884   1.203   2.751   1.341  0.2527 -0.2799  0.4828
  472SOL     OW 1885   2.908   2.104   0.328 -0.4292 -0.6379 -0.1775
  472SOL    HW1 1886   2.919   2.074   0.234 -1.2544  3.0210  1.7343
  472SOL    HW2 1887   2.900   2.020   0.381  0.6074  0.8841 -0.2693
  472SOL     MW 1888   2.908   2.089   0.323 -0.4013  0.0457  0.0626
  473SOL     OW 1889   0.779   2.541   1.302 -0.3853  0.2212 -0.8539
  473SOL    HW1 1890   0.822   2.458   1.303  0.1683  0.4869  1.2351
  473SOL    HW2 1891   0.804   2.566   1.396  3.3082 -1.6616  0.3773
  473SOL     MW 1892   0.788   2.534   1.314  0.1751  0.0079 -0.4158
  474SOL     OW 1893   0.785   2.225   1.738 -0.5728  0.5042 -0.2747
  474SOL    HW1 1894   0.880   2.201   1.768  1.6240 -1.8236  0.5472
  474SOL    HW2 1895   0.812   2.242   1.641  0.1448  0.8096 -0.7216
  474SOL     MW 1896   0.801   2.224   1.729 -0.1883  0.2373 -0.2252
  475SOL     OW 1897   1.633   3.069   1.433 -0.0066  0.3170  0.2324
  475SOL    HW1 1898   1.552   3.097   1.389 -2.5076  1.7805  0.2833
  475SOL    HW2 1899   1.621   2.977   1.461  0.2218 -0.4490 -1.2307
  475SOL     MW 1900   1.621   3.061   1.431 -0.3064  0.4090  0.0460
  476SOL     OW 1901   1.462   2.598   0.807  0.2279 -0.1916  0.1511
  476SOL    HW1 1902   1.424   2.579   0.898 -2.3597 -0.6431 -0.9511
  476SOL    HW2 1903   1.504   2.686   0.818 -0.2750 -0.2897 -3.6068
  476SOL     MW 1904   1.462   2.607   0.820 -0.1798 -0.2641 -0.4902
  477SOL     OW 1905   0.882   2.507   0.659 -0.4450 -0.1981  0.6272
  477SOL    HW1 1906   0.880   2.568   0.593 -1.0462  0.2662  0.2893
  477SOL    HW2 1907   0.834   2.434   0.618 -1.9559  2.5043 -2.6767
  477SOL     MW 1908   0.875   2.505   0.645 -0.7236  0.2197  0.1467
  478SOL     OW 1909   0.238   2.613   0.908  0.1576  0.2846 -0.2276
  478SOL    HW1 1910   0.293   2.700   0.929  0.1842  2.2903  0.5195
  478SOL    HW2 1911   0.294   2.549   0.864 -1.0389 -0.5740  0.0381
  478SOL     MW 1912   0.253   2.616   0.905  0.0033  0.4359 -0.0939
  479SOL     OW 1913   1.394   1.945   1.299  0.1536 -0.2743 -0.2968
  479SOL    HW1 1914   1.371   2.008   1.371 -0.9561  3.4379  1.4171
  479SOL    HW2 1915   1.462   1.891   1.337  0.6147  0.6446  0.1828
  479SOL     MW 1916   1.400   1.946   1.314  0.0680  0.3367 -0.0074
  480SOL     OW 1917   1.847   2.380   1.294  0.1438  0.4607  0.1859
  480SOL    HW1 1918   1.873   2.292   1.322  0.8837 -0.4235  1.7793
  480SOL    HW2 1919   1.894   2.392   1.208 -0.3757  0.5814 -0.6437
  480SOL     MW 1920   1.856   2.370   1.286  0.1729  0.3600  0.2867
  481SOL     OW 1921   1.212   0.119   1.108  0.0391  0.1709 -0.2014
  481SOL    HW1 1922   1.259   0.080   1.031  0.8765 -2.0071 -1.7224
  481SOL    HW2 1923   1.230   0.213   1.094  0.4023 -0.5188  1.8145
  481SOL     MW 1924   1.221   0.127   1.096  0.1975 -0.2075 -0.1361
  482SOL     OW 1925   1.041   0.040   0.425  0.5043 -0.3382  0.1996
  482SOL    HW1 1926   0.952   0.005   0.413  0.7669  1.4381 -0.5614
  482SOL    HW2 1927   1.033   0.131   0.398  0.4375  0.5584  2.6020
  482SOL     MW 1928   1.028   0.047   0.420  0.5302  0.0145  0.4162
  483SOL     OW 1929   0.356   2.850   0.556  0.1352  0.0295 -0.3487
  483SOL    HW1 1930   0.307   2.891   0.483  4.3281  2.4927  2.1988
  483SOL    HW2 1931   0.322   2.887   0.638  3.1914 -0.0261  2.6595
  483SOL     MW 1932   0.345   2.860   0.557  1.0916  0.3471  0.3843
  484SOL     OW 1933   1.672   1.856   1.454 -0.2200 -0.5570 -0.1852
  484SOL    HW1 1934   1.718   1.932   1.421  0.7555  2.5505 -0.6065
  484SOL    HW2 1935   1.691   1.870   1.547  1.3065 -0.2410 -0.1173
  484SOL     MW 1936   1.680   1.868   1.462  0.1101 -0.1053 -0.2318
  485SOL     OW 1937   0.561   2.306   0.359 -0.4503 -0.1020  0.0201
  485SOL    HW1 1938   0.526   2.357   0.431  1.9436 -3.1836  4.0732
  485SOL    HW2 1939   0.570   2.366   0.290  2.4626 -1.0933 -3.1889
  485SOL     MW 1940   0.558   2.321   0.359  0.2499 -0.6394  0.1315
  486SOL     OW 1941   0.111   2.465   1.434 -0.3066  0.4591 -0.0299
  486SOL    HW1 1942   0.100   2.560   1.403 -0.1732 -1.5813 -0.1477
  486SOL    HW2 1943   0.099   2.476   1.530  0.0739  0.3682 -2.2779
  486SOL     MW 1944   0.108   2.479   1.443 -0.2388  0.1779 -0.3420
  487SOL     OW 1945   1.276   1.615   0.962 -0.5072  0.3680  0.3314
  487SOL    HW1 1946   1.233   1.692   0.993  0.5929  0.7525 -1.0924
  487SOL    HW2 1947   1.365   1.635   0.990 -0.7769  1.2655  0.9023
  487SOL     MW 1948   1.282   1.628   0.970 -0.3977  0.5372  0.2188
  488SOL     OW 1949   1.523   1.867   0.589  0.1220  0.3925 -0.5217
  488SOL    HW1 1950   1.494   1.922   0.514  2.2561  0.5260 -0.4555
  488SOL    HW2 1951   1.452   1.805   0.600  0.9432  1.7838  0.3006
  488SOL     MW 1952   1.510   1.866   0.580  0.5119  0.5937 -0.4045
  489SOL     OW 1953   0.739   0.775   0.505  0.4808  0.0590 -0.1253
  489SOL    HW1 1954   0.793   0.695   0.508 -0.3104  0.1584 -2.5140
  489SOL    HW2 1955   0.701   0.770   0.589  1.6752 -2.7376 -1.3612
  489SOL     MW 1956   0.741   0.764   0.517  0.5340 -0.2969 -0.6035
  490SOL     OW 1957   1.402   2.074   0.417  0.0466  0.3250 -0.5360
  490SOL    HW1 1958   1.474   2.134   0.393 -0.2285  0.8852 -0.6334
  490SOL    HW2 1959   1.323   2.114   0.380  0.9951  0.5351 -0.8490
  490SOL     MW 1960   1.401   2.087   0.409  0.1355  0.4266 -0.5901
  491SOL     OW 1961   1.253   2.965   0.396 -0.4117 -0.3446 -0.4321
  491SOL    HW1 1962   1.276   3.005   0.481 -0.7279 -1.1848 -0.2920
  491SOL    HW2 1963   1.167   3.003   0.385 -3.0144  1.7177 -1.2318
  491SOL     MW 1964   1.245   2.975   0.406 -0.7968 -0.1833 -0.5191
  492SOL     OW 1965   1.439   2.144   0.690  0.1893 -0.6031  0.3593
  492SOL    HW1 1966   1.435   2.111   0.602  1.1381 -0.7907  0.8648
  492SOL    HW2 1967   1.402   2.079   0.753 -0.0943 -1.0571  2.0707
  492SOL     MW 1968   1.434   2.131   0.687  0.2771 -0.6877  0.6518
  493SOL     OW 1969   0.212   2.993   0.387 -0.5921 -0.0119 -0.3144
  493SOL    HW1 1970   0.152   3.019   0.462 -2.4648 -2.7755  0.3401
  493SOL    HW2 1971   0.162   2.993   0.301  2.1633 -0.3591 -2.3356
  493SOL     MW 1972   0.197   2.996   0.386 -0.4756 -0.4223 -0.4947
  494SOL     OW 1973   0.392   2.409   1.817 -0.1531  0.3114  0.0800
  494SOL    HW1 1974   0.388   2.310   1.804  0.3922  0.8615  1.8833
  494SOL    HW2 1975   0.440   2.427   1.734  0.9912 -1.6565 -1.8622
  494SOL     MW 1976   0.398   2.399   1.804  0.0699  0.1243  0.0617
  495SOL     OW 1977   2.915   1.658   2.727  0.0393 -0.1099 -0.1166
  495SOL    HW1 1978   2.864   1.738   2.744 -0.6469 -3.1476  0.2999
  495SOL    HW2 1979   2.900   1.597   2.799  0.3774  0.0990  2.7808
  495SOL     MW 1980   2.906   1.661   2.738 -0.0067 -0.4832  0.3206
  496SOL     OW 1981   2.755   2.259   2.710 -0.0894 -0.0705 -0.0098
  496SOL    HW1 1982   2.746   2.169   2.736  0.1274 -1.7856 -2.0548
  496SOL    HW2 1983   2.850   2.278   2.716  2.0421  1.3429  0.0259
  496SOL     MW 1984   2.766   2.250   2.714  0.2205 -0.1103 -0.2749
  497SOL     OW 1985   1.501   2.329   2.536  0.3774  0.6249 -0.3872
  497SOL    HW1 1986   1.517   2.258   2.463  0.3373 -1.7816 -1.3647
  497SOL    HW2 1987   1.468   2.279   2.611 -1.0628 -1.5464 -0.8623
  497SOL     MW 1988   1.499   2.313   2.536  0.1821  0.0209 -0.5789
  498SOL     OW 1989   1.521   2.801   2.277  0.4947 -0.1385 -0.4240
  498SOL    HW1 1990   1.538   2.707   2.267 -0.0336  0.9144 -1.9474
  498SOL    HW2 1991   1.594   2.822   2.336  3.0325  0.9500  0.2534
  498SOL     MW 1992   1.533   2.791   2.284  0.7599  0.1441 -0.5357
  499SOL     OW 1993   0.932   0.146   0.062 -0.0928 -0.0518 -0.7218
  499SOL    HW1 1994   0.867   0.165   0.132 -1.2126  1.1828 -3.5881
  499SOL    HW2 1995   0.914   0.055   0.034 -3.6306 -0.6402  1.6193
  499SOL     MW 1996   0.921   0.136   0.068 -0.7073  0.0335 -0.7911
  500SOL     OW 1997   1.030   2.501   2.758  0.2066 -0.7102  0.4889
  500SOL    HW1 1998   1.092   2.486   2.831  1.8045  2.2185  0.4463
  500SOL    HW2 1999   0.968   2.566   2.801 -0.4798  0.4444 -1.2400
  500SOL     MW 2000   1.030   2.508   2.773  0.3269 -0.1714  0.2552
  501SOL     OW 2001   1.721   2.220   0.018 -0.0631 -0.2305  0.1051
  501SOL    HW1 2002   1.712   2.315  -0.003  0.3925  0.3923  0.4277
  501SOL    HW2 2003   1.812   2.192   0.029 -0.1126 -1.2695 -0.7168
  501SOL     MW 2004   1.732   2.229   0.017 -0.0095 -0.2854  0.0392
  502SOL     OW 2005   0.184   2.700   2.973 -1.0937  0.2033 -0.4061
  502SOL    HW1 2006   0.104   2.666   2.936 -0.3309  1.6001 -0.4187
  502SOL    HW2 2007   0.210   2.775   2.918  0.9986 -0.2781 -0.4403
  502SOL     MW 2008   0.177   2.705   2.961 -0.7170  0.3241 -0.4123
  503SOL     OW 2009   1.135   2.597   2.118  0.3729  0.2453 -0.5148
  503SOL    HW1 2010   1.195   2.632   2.058 -0.0827 -1.4691  1.0929
  503SOL    HW2 2011   1.050   2.609   2.077 -0.4799  0.0625  1.6203
  503SOL     MW 2012   1.132   2.603   2.104  0.2003 -0.0050 -0.0210
  504SOL     OW 2013   0.095   2.612   2.112 -0.1978  0.0284 -0.2686
  504SOL    HW1 2014   0.178   2.617   2.067 -1.8578  1.6631 -3.0833
  504SOL    HW2 2015   0.098   2.533   2.158 -1.1584  0.7334 -0.2929
  504SOL     MW 2016   0.106   2.602   2.112 -0.5436  0.3371 -0.6432
  505SOL     OW 2017   1.621   2.681   2.717  0.3295 -0.7716 -0.3872
  505SOL    HW1 2018   1.675   2.714   2.642  1.5473  1.9831 -3.6538
  505SOL    HW2 2019   1.560   2.752   2.724  1.9294 -0.9439 -0.8765
  505SOL     MW 2020   1.620   2.694   2.708  0.7013 -0.4309 -0.8828
  506SOL     OW 2021   1.597   0.029   2.813  0.1209 -0.0522  0.2562
  506SOL    HW1 2022   1.605  -0.034   2.888  0.8530  1.2434 -3.4086
  506SOL    HW2 2023   1.661  -0.005   2.750 -0.6083 -0.4953 -3.4037
  506SOL     MW 2024   1.606   0.017   2.814  0.1213  0.0602 -0.7102
  507SOL     OW 2025   0.867   2.697   2.846  0.1857 -0.1223  0.0400
  507SOL    HW1 2026   0.907   2.742   2.771  1.4824 -1.5308  0.7208
  507SOL    HW2 2027   0.776   2.666   2.827 -1.7282  0.3295 -1.2327
  507SOL     MW 2028   0.860   2.699   2.834  0.1043 -0.2485 -0.0381
  508SOL     OW 2029   1.136   2.068   2.595 -0.1161  0.0367 -0.0848
  508SOL    HW1 2030   1.205   2.123   2.642  1.4974  1.6119  0.6401
  508SOL    HW2 2031   1.058   2.093   2.645 -1.6264 -0.5559  0.5702
  508SOL     MW 2032   1.135   2.079   2.608 -0.1025  0.1663  0.0973
  509SOL     OW 2033   0.619   2.566   2.831 -0.4217 -0.0339  0.7207
  509SOL    HW1 2034   0.613   2.516   2.748  0.3999  2.1291 -1.3887
  509SOL    HW2 2035   0.556   2.634   2.822 -1.8724 -3.7683 -1.1650
  509SOL     MW 2036   0.610   2.569   2.819 -0.5047 -0.2412  0.1936
  510SOL     OW 2037   1.521   2.579   1.669 -0.3846 -0.1039  0.4738
  510SOL    HW1 2038   1.532   2.672   1.643 -0.7792  3.0573  0.7513
  510SOL    HW2 2039   1.444   2.574   1.725  0.2373  1.7455 -1.3096
  510SOL     MW 2040   1.513   2.591   1.673 -0.3546  0.5572  0.2751
  511SOL     OW 2041   0.338   2.524   2.519 -0.6068  0.5013 -0.1757
  511SOL    HW1 2042   0.428   2.485   2.530 -0.0043 -0.7027  0.3441
  511SOL    HW2 2043   0.326   2.536   2.422  0.3246  0.4035  1.0486
  511SOL     MW 2044   0.348   2.520   2.508 -0.4044  0.3296  0.0544
  512SOL     OW 2045   1.037   2.005   2.854  0.2891 -0.4549  0.1614
  512SOL    HW1 2046   0.963   2.040   2.902  2.0519 -0.5090  0.8448
  512SOL    HW2 2047   1.029   1.915   2.882 -0.9187 -0.0107 -0.6827
  512SOL     MW 2048   1.026   1.998   2.864  0.3624 -0.4034  0.1402
  513SOL     OW 2049   1.584   2.541   2.158  0.8300 -0.1599 -0.0895
  513SOL    HW1 2050   1.669   2.570   2.117 -4.6924 -1.2368 -0.6975
  513SOL    HW2 2051   1.599   2.463   2.216  1.5237 -1.4584  1.6487
  513SOL     MW 2052   1.598   2.534   2.160  0.1929 -0.4733  0.0596
  514SOL     OW 2053   0.168   2.361   2.649 -0.1297  0.3076 -0.0913
  514SOL    HW1 2054   0.217   2.439   2.609  2.3828  0.7573  2.6873
  514SOL    HW2 2055   0.196   2.343   2.739  0.9257 -1.2094 -1.9822
  514SOL     MW 2056   0.178   2.369   2.656  0.3411  0.1667  0.0258
  515SOL     OW 2057   1.103   1.927   1.836 -0.2497 -0.1462  0.3321
  515SOL    HW1 2058   1.082   2.028   1.825  1.6798  1.1563  0.6946
  515SOL    HW2 2059   1.166   1.925   1.905 -0.0271  0.8359  0.0362
  515SOL     MW 2060   1.109   1.940   1.844  0.0342  0.1553  0.3409
  516SOL     OW 2061   1.349   2.559   2.944  0.3916 -0.5475 -0.0445
  516SOL    HW1 2062   1.359   2.552   2.850 -0.3305  1.3209 -0.5882
  516SOL    HW2 2063   1.274   2.501   2.968  0.0906 -3.4168  2.5621
  516SOL     MW 2064   1.340   2.551   2.935  0.2566 -0.6796  0.2276
  517SOL     OW 2065   0.610   2.372   2.294  0.7147 -0.0043 -0.0229
  517SOL    HW1 2066   0.535   2.411   2.333  0.8744 -0.2919  3.5713
  517SOL    HW2 2067   0.569   2.346   2.214 -1.1635 -1.1659  0.2015
  517SOL     MW 2068   0.595   2.374   2.289  0.4880 -0.1955  0.4809
  518SOL     OW 2069   1.787   0.047   3.094 -0.2797 -0.5460 -0.0303
  518SOL    HW1 2070   1.775   0.110   3.163 -1.1424  0.6605  2.0293
  518SOL    HW2 2071   1.715  -0.011   3.113 -2.6929  1.0001  0.1759
  518SOL     MW 2072   1.776   0.048   3.105 -0.7119 -0.1828  0.2686
  519SOL     OW 2073   0.742   2.498   1.791  0.3604  0.2694  0.0589
  519SOL    HW1 2074   0.772   2.411   1.767 -0.0674 -2.0782  1.9188
  519SOL    HW2 2075   0.651   2.483   1.801  1.1268  1.4610 -0.1141
  519SOL     MW 2076   0.734   2.485   1.789  0.4051  0.1169  0.2815
  520SOL     OW 2077   1.244   2.159   2.938 -0.3871  0.5981  0.0523
  520SOL    HW1 2078   1.163   2.109   2.912  2.2225 -0.5113 -3.2397
  520SOL    HW2 2079   1.279   2.122   3.021  1.2566  0.0649 -2.7692
  520SOL     MW 2080   1.238   2.148   2.945  0.1741  0.3814 -0.7543
  521SOL     OW 2081   1.795   2.074   2.233 -0.2783  0.5090  0.0414
  521SOL    HW1 2082   1.800   2.101   2.142  0.7644  0.6955  1.0739
  521SOL    HW2 2083   1.797   1.979   2.243  0.2026  1.6450 -0.8410
  521SOL     MW 2084   1.796   2.065   2.222 -0.0773  0.6835  0.0612
  522SOL     OW 2085   2.885   2.537   2.236  0.0001  0.2995  0.0642
  522SOL    HW1 2086   2.973   2.516   2.235 -0.6025 -0.5588  1.7019
  522SOL    HW2 2087   2.882   2.635   2.237  0.9888 -2.1361  0.2146
  522SOL     MW 2088   2.896   2.547   2.236  0.0510 -0.1351  0.3001
  523SOL     OW 2089   0.830   1.522   2.146  0.4112  0.2158  0.1228
  523SOL    HW1 2090   0.812   1.577   2.072 -0.5681 -0.7763 -0.8430
  523SOL    HW2 2091   0.833   1.438   2.106  0.6606 -0.2286  0.0590
  523SOL     MW 2092   0.828   1.518   2.131  0.3149  0.0263 -0.0130
  524SOL     OW 2093   0.595   2.341   2.979 -0.5701  0.0886 -0.1963
  524SOL    HW1 2094   0.602   2.404   2.906  0.1431  1.9153 -0.5586
  524SOL    HW2 2095   0.677   2.285   2.975  1.9534 -1.9176 -1.6316
  524SOL     MW 2096   0.607   2.342   2.969 -0.1430  0.0649 -0.4335
  525SOL     OW 2097   0.451   2.222   2.121  0.1410 -0.1645  0.0754
  525SOL    HW1 2098   0.423   2.137   2.139 -2.7875 -0.2987  0.5534
  525SOL    HW2 2099   0.519   2.211   2.048  0.4760  1.1030 -0.8043
  525SOL     MW 2100   0.457   2.210   2.113 -0.2012 -0.0150  0.0224
  526SOL     OW 2101   0.711   2.167   1.987  0.7003  0.0906 -0.5513
  526SOL    HW1 2102   0.744   2.190   1.907 -1.8876 -1.3318  1.8176
  526SOL    HW2 2103   0.787   2.172   2.046 -0.3402  1.5654 -1.5807
  526SOL     MW 2104   0.725   2.170   1.984  0.2216  0.0975 -0.3746
  527SOL     OW 2105   1.275   1.901   2.035  0.0089 -0.3183  0.2315
  527SOL    HW1 2106   1.238   1.882   2.123  0.6948 -0.7872  1.4347
  527SOL    HW2 2107   1.289   1.819   1.989 -2.0640  0.1700  2.4671
  527SOL     MW 2108   1.272   1.887   2.040 -0.1741 -0.3157  0.6852
  528SOL     OW 2109   0.662   2.908   2.948  0.5446  0.2849 -0.2754
  528SOL    HW1 2110   0.654   3.002   2.930 -1.3420 -1.0773  0.8856
  528SOL    HW2 2111   0.634   2.864   2.869  0.6542  4.8809 -2.9682
  528SOL     MW 2112   0.657   2.914   2.935  0.3102  0.7116 -0.4775
  529SOL     OW 2113   1.047   2.202   1.834 -0.9621  0.5188  0.3394
  529SOL    HW1 2114   1.053   2.253   1.914 -1.2977  2.4651 -0.7705
  529SOL    HW2 2115   1.069   2.266   1.766 -3.2117 -0.0128  1.1607
  529SOL     MW 2116   1.051   2.217   1.835 -1.3032  0.7054  0.3013
  530SOL     OW 2117   1.141   2.412   3.004 -0.0371  0.5296  0.1804
  530SOL    HW1 2118   1.150   2.415   3.099 -3.4588  0.2453 -1.7953
  530SOL    HW2 2119   1.175   2.329   2.975 -1.2959  1.6759  0.7711
  530SOL     MW 2120   1.147   2.402   3.012 -0.6547  0.6433 -0.0023
  531SOL     OW 2121   0.933   1.836   2.655 -0.2506  0.5535  0.5799
  531SOL    HW1 2122   0.961   1.910   2.706  0.4550  0.1852 -0.4665
  531SOL    HW2 2123   0.858   1.797   2.692  0.5125  2.2562 -3.2608
  531SOL     MW 2124   0.927   1.841   2.666 -0.0568  0.7295 -0.0649
  532SOL     OW 2125   1.677   0.305   2.852  0.6028  0.1828 -0.1167
  532SOL    HW1 2126   1.674   0.209   2.852 -0.5247 -2.3784 -0.3634
  532SOL    HW2 2127   1.758   0.327   2.900  0.7063  0.1814 -0.2594
  532SOL     MW 2128   1.687   0.295   2.858  0.4677 -0.1553 -0.1681
  533SOL     OW 2129   1.776   2.706   2.958 -0.1314 -0.2275  0.7250
  533SOL    HW1 2130   1.785   2.621   3.012 -2.3160 -0.4264 -0.5532
  533SOL    HW2 2131   1.709   2.682   2.890 -3.0610 -0.0433  1.5738
  533SOL     MW 2132   1.768   2.692   2.956 -0.8062 -0.2294  0.6684
  534SOL     OW 2133   1.727   2.471   2.469  0.1209 -0.2006 -0.3183
  534SOL    HW1 2134   1.654   2.425   2.510 -2.4144 -2.1072 -1.1705
  534SOL    HW2 2135   1.799   2.458   2.535 -0.8567 -1.5179 -0.0351
  534SOL     MW 2136   1.727   2.463   2.483 -0.3426 -0.6260 -0.3934
  535SOL     OW 2137   1.823   2.333   1.901  0.5945 -0.4458  0.3210
  535SOL    HW1 2138   1.740   2.331   1.847  2.5319  1.4343 -0.0345
  535SOL    HW2 2139   1.890   2.359   1.840 -1.3904  0.5780  1.5854
  535SOL     MW 2140   1.821   2.336   1.886  0.5882 -0.0627  0.4409
  536SOL     OW 2141   0.451   1.820   2.011 -0.3103  0.2195  0.1379
  536SOL    HW1 2142   0.449   1.835   1.916  4.3496  0.4891  1.4465
  536SOL    HW2 2143   0.532   1.860   2.040  1.2409  0.4498 -0.0840
  536SOL     MW 2144   0.462   1.827   2.002  0.5092  0.2854  0.2813
  537SOL     OW 2145   1.071   0.201   2.919  0.5466  0.1344  0.4270
  537SOL    HW1 2146   1.022   0.182   3.004  2.1285  2.6452  0.1827
  537SOL    HW2 2147   1.084   0.296   2.906  2.1092  2.6841 -0.8683
  537SOL     MW 2148   1.066   0.211   2.929  0.9615  0.8021  0.2238
  538SOL     OW 2149   1.287   0.063   2.983 -0.5519  0.0604 -0.4174
  538SOL    HW1 2150   1.211   0.122   2.953 -0.6827 -0.7673  0.0499
  538SOL    HW2 2151   1.368   0.103   2.952  1.2071 -0.2721 -1.1768
  538SOL     MW 2152   1.288   0.076   2.975 -0.3371 -0.0927 -0.4559
  539SOL     OW 2153   0.744   2.692   2.519  0.0224 -0.5128 -0.0781
  539SOL    HW1 2154   0.813   2.747   2.552  0.5988 -3.4296 -0.8073
  539SOL    HW2 2155   0.771   2.606   2.499  1.0478  1.1988 -1.9885
  539SOL     MW 2156   0.756   2.688   2.521  0.2337 -0.6718 -0.4264
  540SOL     OW 2157   0.318   2.261   2.866 -0.0685 -0.0906  0.8317
  540SOL    HW1 2158   0.407   2.296   2.874 -0.8546 -3.2963  1.0772
  540SOL    HW2 2159   0.294   2.234   2.953 -0.6724  1.4912  1.4112
  540SOL     MW 2160   0.327   2.262   2.878 -0.2519 -0.3049  0.9406
  541SOL     OW 2161   0.162   2.850   2.225 -0.4159  0.0535 -0.3098
  541SOL    HW1 2162   0.135   2.759   2.211 -0.0326 -0.2190 -1.4968
  541SOL    HW2 2163   0.233   2.848   2.287 -2.9861 -1.4272  2.8464
  541SOL     MW 2164   0.168   2.838   2.231 -0.7044 -0.1778 -0.0500
  542SOL     OW 2165   0.916   2.261   2.686  0.3428 -0.2581 -0.3688
  542SOL    HW1 2166   0.866   2.268   2.761 -0.2298 -1.0443 -0.9036
  542SOL    HW2 2167   0.974   2.341   2.693  0.8941 -0.2982  0.5168
  542SOL     MW 2168   0.917   2.272   2.697  0.3400 -0.3671 -0.3225
  543SOL     OW 2169   1.385   2.549   2.654 -0.8347  0.1052 -0.2496
  543SOL    HW1 2170   1.408   2.467   2.601  1.5194 -1.4094 -1.0415
  543SOL    HW2 2171   1.470   2.596   2.662  1.2588 -2.2020 -0.2980
  543SOL     MW 2172   1.399   2.544   2.648 -0.2479 -0.3990 -0.3604
  544SOL     OW 2173   0.655   0.180   2.712 -0.5870  0.4422  0.8801
  544SOL    HW1 2174   0.575   0.208   2.742 -1.1457 -1.1687  1.5136
  544SOL    HW2 2175   0.630   0.117   2.648 -0.1155 -0.4121 -0.1612
  544SOL     MW 2176   0.641   0.176   2.708 -0.5985  0.1169  0.8263
  545SOL     OW 2177   1.535   2.153   2.333  0.3286 -0.4127 -0.7461
  545SOL    HW1 2178   1.506   2.180   2.242 -1.7198  2.0634  0.7576
  545SOL    HW2 2179   1.621   2.108   2.323 -2.0518  0.2754  3.2750
  545SOL     MW 2180   1.543   2.150   2.320 -0.2557  0.0048 -0.0172
  546SOL     OW 2181   3.012   1.986   0.089 -0.1760  0.1738  0.2634
  546SOL    HW1 2182   2.995   2.070   0.049  1.2501 -2.0345  2.7124
  546SOL    HW2 2183   3.103   1.967   0.084  0.5545  0.8103  2.6270
  546SOL     MW 2184   3.022   1.995   0.083  0.1086 -0.0336  0.8984
  547SOL     OW 2185   0.162   3.013   0.096  0.6373  0.3639  0.5287
  547SOL    HW1 2186   0.231   3.079   0.097 -0.9229  1.2421  3.1389
  547SOL    HW2 2187   0.208   2.930   0.075  0.5483 -1.3038 -0.6457
  547SOL     MW 2188   0.178   3.011   0.093  0.4197  0.2597  0.7181
  548SOL     OW 2189   0.295   2.481   0.269  0.1025  0.6847  0.0149
  548SOL    HW1 2190   0.295   2.566   0.221  0.3011  0.2546 -1.6435
  548SOL    HW2 2191   0.227   2.419   0.228 -1.1443 -3.1026  1.4327
  548SOL     MW 2192   0.286   2.484   0.257 -0.0358  0.1282 -0.0168
  549SOL     OW 2193   0.716   1.908   2.116 -0.3855  0.0959 -0.5749
  549SOL    HW1 2194   0.723   1.992   2.079 -0.5261  1.5350 -0.2692
  549SOL    HW2 2195   0.758   1.912   2.200 -2.0095 -0.2066 -1.3970
  549SOL     MW 2196   0.722   1.919   2.122 -0.6183  0.2459 -0.6430
  550SOL     OW 2197   1.816   1.755   2.586  0.1517  0.0570  0.1435
  550SOL    HW1 2198   1.856   1.779   2.503  1.2177 -0.6803  0.0796
  550SOL    HW2 2199   1.821   1.838   2.633 -0.8703  0.3642 -0.3960
  550SOL     MW 2200   1.822   1.769   2.582  0.1575  0.0002  0.0639
  551SOL     OW 2201   0.853   2.341   0.209  0.1419 -0.2475  0.0429
  551SOL    HW1 2202   0.945   2.363   0.195  2.4582 -0.4921 -0.3244
  551SOL    HW2 2203   0.850   2.246   0.189  2.0162 -1.9378  0.5599
  551SOL     MW 2204   0.864   2.332   0.205  0.6948 -0.5028  0.0627
  552SOL     OW 2205   1.797   1.822   2.294 -0.4870  0.0940 -0.4882
  552SOL    HW1 2206   1.704   1.795   2.294 -3.6739 -0.1106  2.1781
  552SOL    HW2 2207   1.828   1.749   2.227 -1.5811  0.8905  2.5297
  552SOL     MW 2208   1.789   1.809   2.285 -1.0518  0.1721  0.2617
  553SOL     OW 2209   1.218   2.325   1.539  0.1836 -0.1773 -0.4257
  553SOL    HW1 2210   1.259   2.242   1.538 -1.0675 -0.7874  0.2200
  553SOL    HW2 2211   1.281   2.385   1.505 -0.8849  1.9186  2.9821
  553SOL     MW 2212   1.231   2.322   1.534 -0.1225  0.0187  0.1091
  554SOL     OW 2213   0.564   2.843   2.676 -0.0083  0.0445 -0.2587
  554SOL    HW1 2214   0.534   2.923   2.638  1.7793 -0.0781 -2.2699
  554SOL    HW2 2215   0.625   2.806   2.618 -1.3683  2.2702 -1.2111
  554SOL     MW 2216   0.568   2.849   2.664  0.0481  0.3220 -0.6497
  555SOL     OW 2217   0.574   2.407   2.588 -0.2350  0.4951  0.0543
  555SOL    HW1 2218   0.535   2.319   2.604 -0.4255  2.9865 -1.0886
  555SOL    HW2 2219   0.645   2.382   2.527 -0.5076 -2.2192 -4.3130
  555SOL     MW 2220   0.578   2.392   2.582 -0.2961  0.4657 -0.6727
  556SOL     OW 2221   0.990   1.807   0.128 -0.3053 -0.0482  0.2563
  556SOL    HW1 2222   1.026   1.818   0.041 -0.4093 -0.4721  1.7093
  556SOL    HW2 2223   1.062   1.824   0.190 -0.0240 -1.0263  1.3780
  556SOL     MW 2224   1.004   1.811   0.125 -0.2819 -0.2332  0.5960
  557SOL     OW 2225   0.907   2.677   0.445 -0.2992  0.3898  0.0855
  557SOL    HW1 2226   0.974   2.684   0.376 -0.2599 -2.2261 -2.5722
  557SOL    HW2 2227   0.881   2.770   0.452 -0.3048 -1.6510  1.7905
  557SOL     MW 2228   0.912   2.690   0.437 -0.2948 -0.2246 -0.0402
  558SOL     OW 2229   0.267   2.169   0.019  0.3996  0.7513 -0.1389
  558SOL    HW1 2230   0.195   2.102   0.027 -2.4839  0.0871  1.8141
  558SOL    HW2 2231   0.215   2.244   0.055 -2.2151  2.5006 -0.2852
  558SOL     MW 2232   0.251   2.170   0.025 -0.3259  0.8945  0.0995
  559SOL     OW 2233   1.188   2.330   2.087  0.2113  0.0492  0.9787
  559SOL    HW1 2234   1.183   2.416   2.121 -2.4386 -0.6820 -1.6211
  559SOL    HW2 2235   1.175   2.270   2.161  0.5781 -0.7779 -1.8202
  559SOL     MW 2236   1.186   2.334   2.101 -0.0900 -0.1564  0.2664
  560SOL     OW 2237   2.004   2.798   0.016  0.0731  0.3098  0.1653
  560SOL    HW1 2238   2.041   2.873  -0.026  0.4643 -2.3081  0.9419
  560SOL    HW2 2239   1.922   2.782  -0.027 -1.2447 -0.7063  0.5912
  560SOL     MW 2240   1.998   2.806   0.005 -0.0491 -0.1697  0.3239
  561SOL     OW 2241   0.444   2.077   0.213 -0.1575  0.0585  0.4189
  561SOL    HW1 2242   0.369   2.096   0.148 -1.8673  2.3831 -4.1681
  561SOL    HW2 2243   0.478   2.158   0.251  1.8000  1.2668  3.0822
  561SOL     MW 2244   0.439   2.090   0.210 -0.1248  0.5246  0.1651
  562SOL     OW 2245   0.904   2.169   2.164 -0.1263  0.1180 -0.1689
  562SOL    HW1 2246   0.911   2.261   2.164  0.3177 -2.2983  0.5940
  562SOL    HW2 2247   0.990   2.149   2.208 -1.7310  1.4931 -1.3713
  562SOL     MW 2248   0.917   2.178   2.170 -0.2795 -0.0194 -0.2269
  563SOL     OW 2249   1.219   0.258   0.563  0.6591  0.8008  0.5676
  563SOL    HW1 2250   1.158   0.256   0.488 -0.3366  2.0572 -0.7928
  563SOL    HW2 2251   1.254   0.167   0.579 -0.8221 -1.6534 -0.8742
  563SOL     MW 2252   1.216   0.246   0.555  0.3323  0.6427  0.1978
  564SOL     OW 2253   1.068   2.562   2.388  0.6946 -0.2442 -0.4366
  564SOL    HW1 2254   1.110   2.581   2.303 -0.2578 -0.3760 -2.3204
  564SOL    HW2 2255   1.107   2.611   2.461 -0.9508  0.2403  2.5117
  564SOL     MW 2256   1.079   2.571   2.386  0.3518 -0.1976 -0.2962
  565SOL     OW 2257   2.899   2.671   2.587 -0.4884  0.5606 -0.8015
  565SOL    HW1 2258   2.971   2.722   2.553  0.3187  0.4756  1.2118
  565SOL    HW2 2259   2.833   2.678   2.521  3.0337 -0.3465  3.4476
  565SOL     MW 2260   2.900   2.678   2.574  0.0828  0.4297  0.0247
  566SOL     OW 2261   2.256   1.913   2.353 -0.3556 -0.5313  0.4735
  566SOL    HW1 2262   2.274   1.939   2.260  0.2093 -0.3772 -0.3719
  566SOL    HW2 2263   2.294   1.984   2.405  0.5246  0.0492  0.6970
  566SOL     MW 2264   2.263   1.926   2.348 -0.1649 -0.4344  0.3915
  567SOL     OW 2265   1.177   2.865   0.047 -0.5445  0.0997 -0.3939
  567SOL    HW1 2266   1.235   2.945   0.052  1.4145  0.2890 -0.9365
  567SOL    HW2 2267   1.164   2.843  -0.050 -1.0731  1.5872 -0.7995
  567SOL     MW 2268   1.183   2.873   0.035 -0.3558  0.3209 -0.5190
  568SOL     OW 2269   1.653   2.112   2.853 -0.0482 -0.5112  0.5107
  568SOL    HW1 2270   1.685   2.181   2.911  1.5457 -1.2368 -0.2230
  568SOL    HW2 2271   1.727   2.087   2.803 -1.2810  3.8196  0.0065
  568SOL     MW 2272   1.667   2.118   2.854 -0.0005 -0.0355  0.3473
  569SOL     OW 2273   0.214   2.179   2.426  0.3674  0.0724  0.0863
  569SOL    HW1 2274   0.180   2.249   2.372 -1.6272  0.4157  0.5643
  569SOL    HW2 2275   0.206   2.224   2.514  1.0709 -0.7331 -1.2101
  569SOL     MW 2276   0.208   2.194   2.431  0.1970  0.0114 -0.0217
  570SOL     OW 2277   1.442   0.408   0.512 -0.2469 -0.4177  0.4052
  570SOL    HW1 2278   1.360   0.362   0.530  0.5319  0.2511 -0.4912
  570SOL    HW2 2279   1.510   0.414   0.583  1.2405  3.6593  1.2265
  570SOL     MW 2280   1.440   0.403   0.523  0.0521  0.2084  0.3953
  571SOL     OW 2281   1.488   2.401   1.920 -0.2225  0.0608  0.2284
  571SOL    HW1 2282   1.502   2.456   1.999 -2.3983  1.1100  0.3318
  571SOL    HW2 2283   1.464   2.314   1.951  1.8972 -0.2904  1.4304
  571SOL     MW 2284   1.486   2.397   1.935 -0.2299  0.1529  0.4006
  572SOL     OW 2285   0.935   2.647   0.050  0.0813  0.4810  0.8034
  572SOL    HW1 2286   0.947   2.660  -0.042 -0.7640 -0.2657  0.4985
  572SOL    HW2 2287   0.842   2.617   0.064  0.6201  1.2548  1.5815
  572SOL     MW 2288   0.924   2.644   0.039  0.0409  0.4845  0.8659
  573SOL     OW 2289   1.133   2.413   0.171  0.4481 -0.1137 -0.0640
  573SOL    HW1 2290   1.222   2.399   0.184 -2.2325 -3.0369 -2.6281
  573SOL    HW2 2291   1.115   2.496   0.213  1.3274  0.5506  2.0430
  573SOL     MW 2292   1.143   2.422   0.179  0.2105 -0.4117 -0.1243
  574SOL     OW 2293   1.122   2.673   0.287 -0.2768 -0.5332  0.2910
  574SOL    HW1 2294   1.207   2.701   0.305 -1.8214  1.1016  2.2600
  574SOL    HW2 2295   1.104   2.701   0.196 -1.6181 -2.7162  1.5809
  574SOL     MW 2296   1.131   2.680   0.278 -0.6576 -0.6055  0.7210
  575SOL     OW 2297   3.057   2.282   1.829  0.4158 -0.1033 -0.4035
  575SOL    HW1 2298   3.078   2.197   1.782 -0.4952 -0.3115  0.6363
  575SOL    HW2 2299   3.101   2.349   1.774  0.9778 -1.1051 -2.1822
  575SOL     MW 2300   3.065   2.280   1.815  0.3698 -0.2629 -0.5010
  576SOL     OW 2301   2.816   1.824   2.059  0.2823  0.5373 -0.5950
  576SOL    HW1 2302   2.804   1.907   2.017 -2.5467  1.6972  2.6398
  576SOL    HW2 2303   2.733   1.790   2.035  0.3627 -1.3378 -0.0777
  576SOL     MW 2304   2.804   1.831   2.051 -0.0803  0.4430 -0.1000
  577SOL     OW 2305   2.088   0.305   0.053 -0.2768  0.7202 -0.5955
  577SOL    HW1 2306   2.027   0.335  -0.018  0.3318  0.6385 -1.4448
  577SOL    HW2 2307   2.026   0.254   0.110 -3.4865 -2.1035  0.3317
  577SOL     MW 2308   2.071   0.302   0.051 -0.6200  0.3369 -0.5853
  578SOL     OW 2309   2.036   2.047   2.414  0.1673 -0.6328  0.1001
  578SOL    HW1 2310   1.980   2.062   2.337 -2.3278  2.3729 -0.7989
  578SOL    HW2 2311   2.103   1.978   2.388  0.4258 -1.1317  0.9887
  578SOL     MW 2312   2.038   2.040   2.401 -0.1278 -0.3020  0.0987
  579SOL     OW 2313   0.858   2.417   2.458 -0.1609  0.0699  0.4040
  579SOL    HW1 2314   0.885   2.336   2.506  0.3843 -1.6710 -1.4310
  579SOL    HW2 2315   0.948   2.462   2.452  1.3877  0.3456  1.1363
  579SOL     MW 2316   0.874   2.412   2.464  0.1154 -0.1234  0.2585
  580SOL     OW 2317   0.874   2.984   0.011 -0.4221  0.0766 -0.2137
  580SOL    HW1 2318   0.957   2.944   0.007  2.0282 -1.7150  0.5243
  580SOL    HW2 2319   0.822   2.943  -0.062 -1.5434 -0.1346  0.4439
  580SOL     MW 2320   0.878   2.973   0.001 -0.2468 -0.1877 -0.0296
  581SOL     OW 2321   1.064   2.462   1.694  0.0243 -0.3371 -0.1583
  581SOL    HW1 2322   1.115   2.496   1.768 -1.3228 -4.2662  3.8590
  581SOL    HW2 2323   1.126   2.430   1.633 -1.1726 -1.9641 -0.0176
  581SOL     MW 2324   1.079   2.463   1.696 -0.3114 -1.0702  0.3903
  582SOL     OW 2325   0.019   2.834   2.479 -0.1593 -0.4007 -0.2909
  582SOL    HW1 2326  -0.002   2.911   2.533 -2.8823  0.9499  0.0321
  582SOL    HW2 2327   0.117   2.813   2.494 -0.9048 -0.2624 -2.6843
  582SOL     MW 2328   0.029   2.842   2.488 -0.6169 -0.2043 -0.5640
  583SOL     OW 2329   1.931   2.452   2.641 -0.4661 -0.0112 -0.1339
  583SOL    HW1 2330   2.016   2.494   2.616 -1.1549 -1.6327 -2.8479
  583SOL    HW2 2331   1.948   2.363   2.658  0.4538  0.3149  2.2862
  583SOL     MW 2332   1.944   2.446   2.640 -0.4356 -0.1822 -0.1727
  584SOL     OW 2333   0.188   1.890   2.091  0.3468  0.5871 -0.0113
  584SOL    HW1 2334   0.274   1.854   2.085 -0.2418 -1.2017 -0.4807
  584SOL    HW2 2335   0.207   1.961   2.152  1.3766 -0.2703 -2.8753
  584SOL     MW 2336   0.202   1.894   2.098  0.4050  0.2379 -0.4511
  585SOL     OW 2337   1.481   2.641   0.082 -0.2080  0.5923  0.0002
  585SOL    HW1 2338   1.407   2.636   0.027 -0.4523 -0.9042  2.7472
  585SOL    HW2 2339   1.452   2.685   0.159  0.8452  1.4049  2.9475
  585SOL     MW 2340   1.468   2.646   0.085 -0.1012  0.5021  0.7515
  586SOL     OW 2341   1.273   2.934   2.397  0.4699 -1.5280 -0.2206
  586SOL    HW1 2342   1.354   2.889   2.367  0.7380 -1.9849  1.1618
  586SOL    HW2 2343   1.301   2.980   2.474  1.2369  0.9217  0.6661
  586SOL     MW 2344   1.287   2.934   2.403  0.6065 -1.2651  0.0788
  587SOL     OW 2345   1.259   1.619   2.122  0.4339  0.0405 -0.3962
  587SOL    HW1 2346   1.238   1.544   2.181 -0.2228 -2.2112 -2.3152
  587SOL    HW2 2347   1.203   1.602   2.042  1.7868  2.1730  0.4136
  587SOL     MW 2348   1.249   1.607   2.119  0.5258  0.0248 -0.5426
  588SOL     OW 2349   1.416   2.159   2.735 -0.1786  0.1274  0.4538
  588SOL    HW1 2350   1.505   2.134   2.769 -0.2055 -0.8572  1.9850
  588SOL    HW2 2351   1.349   2.138   2.806  1.2313 -0.4646 -1.0288
  588SOL     MW 2352   1.419   2.153   2.749  0.0039 -0.0806  0.4602
  589SOL     OW 2353   1.354   2.090   0.072  0.3997  0.2508 -0.2374
  589SOL    HW1 2354   1.377   2.178   0.111 -1.9076  0.5311  0.7880
  589SOL    HW2 2355   1.334   2.028   0.145 -1.3819  0.3230 -1.1947
  589SOL     MW 2356   1.354   2.093   0.087 -0.1398  0.2973 -0.2284
  590SOL     OW 2357   0.392   2.578   2.271  0.1705  0.1068 -0.2320
  590SOL    HW1 2358   0.373   2.564   2.178  3.3549  0.0433 -0.6424
  590SOL    HW2 2359   0.467   2.639   2.270  1.3570 -1.3391 -0.0945
  590SOL     MW 2360   0.400   2.584   2.259  0.7472 -0.0923 -0.2680
  591SOL     OW 2361   2.302   0.713   0.024 -0.3244 -0.1071  0.0763
  591SOL    HW1 2362   2.227   0.757  -0.017 -1.1846  0.1510 -0.3619
  591SOL    HW2 2363   2.379   0.745  -0.028 -1.2693 -0.1598  1.4775
  591SOL     MW 2364   2.302   0.723   0.011 -0.5625 -0.0800  0.2034
  592SOL     OW 2365   1.870   3.031   0.816  0.0366  0.2191 -0.2334
  592SOL    HW1 2366   1.837   3.109   0.780  2.2320  0.9634  0.4488
  592SOL    HW2 2367   1.898   2.965   0.753  1.0905 -0.3576 -0.1210
  592SOL     MW 2368   1.869   3.032   0.803  0.4653  0.2412 -0.1286
  593SOL     OW 2369   1.908   0.754   0.836 -0.4378  0.2310  0.0440
  593SOL    HW1 2370   1.822   0.763   0.792 -0.4411 -0.7857  1.9769
  593SOL    HW2 2371   1.926   0.661   0.852 -1.1746 -1.3444  2.1897
  593SOL     MW 2372   1.899   0.743   0.832 -0.5355 -0.1110  0.5822
  594SOL     OW 2373   2.740   1.124   1.395 -0.4455  0.2829  0.3237
  594SOL    HW1 2374   2.831   1.159   1.391 -1.4582  0.4165  2.7932
  594SOL    HW2 2375   2.724   1.100   1.305 -0.6566 -0.5668  3.5739
  594SOL     MW 2376   2.750   1.126   1.383 -0.6069  0.1884  1.0783
  595SOL     OW 2377   0.451   0.949   0.677  0.0033  0.0590 -0.4210
  595SOL    HW1 2378   0.494   1.008   0.613  1.4978 -0.6976 -1.0402
  595SOL    HW2 2379   0.462   0.989   0.768  0.6308 -1.8995 -0.0200
  595SOL     MW 2380   0.458   0.962   0.680  0.2833 -0.2992 -0.4498
  596SOL     OW 2381   2.429   1.385   0.563  0.4690 -0.1552 -0.4671
  596SOL    HW1 2382   2.467   1.454   0.511 -1.4683  0.4918  3.7824
  596SOL    HW2 2383   2.495   1.354   0.623 -0.5069 -3.2528 -0.1548
  596SOL     MW 2384   2.443   1.390   0.564  0.0846 -0.4786  0.1348
  597SOL     OW 2385   2.188   0.675   1.703  0.1904  0.1020 -0.8079
  597SOL    HW1 2386   2.254   0.610   1.739 -1.4604  1.5476 -0.1666
  597SOL    HW2 2387   2.117   0.626   1.649 -1.6766  0.9228  1.6179
  597SOL     MW 2388   2.187   0.660   1.701 -0.2738  0.4010 -0.4033
  598SOL     OW 2389   2.597   1.024   2.872 -0.0330 -0.3469 -0.3016
  598SOL    HW1 2390   2.638   0.974   2.806 -1.2779  3.1463  1.7369
  598SOL    HW2 2391   2.674   1.073   2.890  1.8679 -0.5727  1.9078
  598SOL     MW 2392   2.613   1.024   2.866  0.0535  0.0842  0.2588
  599SOL     OW 2393   2.924   0.321   2.070 -0.5748  0.1577  0.2122
  599SOL    HW1 2394   2.886   0.359   2.154  1.1233  0.4616 -1.1173
  599SOL    HW2 2395   2.959   0.405   2.030  0.2584  0.1859 -0.0840
  599SOL     MW 2396   2.923   0.337   2.076 -0.2409  0.2015 -0.0023
  600SOL     OW 2397   1.892   1.714   0.894  0.0314 -0.2995 -0.4931
  600SOL    HW1 2398   1.914   1.765   0.971 -0.2132 -0.2735 -1.1309
  600SOL    HW2 2399   1.804   1.744   0.872 -0.1997  1.0799  1.0774
  600SOL     MW 2400   1.883   1.725   0.901 -0.0314 -0.1141 -0.3700
  601SOL     OW 2401   2.522   0.799   0.827 -0.6202  0.2952 -0.0756
  601SOL    HW1 2402   2.547   0.790   0.923  0.2754  3.3814 -1.7284
  601SOL    HW2 2403   2.441   0.747   0.813 -0.0608 -1.7036 -1.2859
  601SOL     MW 2404   2.515   0.791   0.838 -0.4282  0.4387 -0.4533
  602SOL     OW 2405   2.325   1.931   0.733 -0.4912  0.1630  0.8773
  602SOL    HW1 2406   2.273   1.885   0.803 -0.3112  2.3501  1.3833
  602SOL    HW2 2407   2.254   1.973   0.685  0.2382 -0.8533  3.2802
  602SOL     MW 2408   2.309   1.930   0.736 -0.3712  0.3175  1.2611
  603SOL     OW 2409   3.068   1.388   1.795  0.6602 -0.6565 -0.2607
  603SOL    HW1 2410   3.107   1.409   1.883  1.2350  1.7842  1.3529
  603SOL    HW2 2411   3.035   1.296   1.793 -1.0150  0.7403  1.1230
  603SOL     MW 2412   3.069   1.378   1.806  0.5150 -0.1502  0.1348
  604SOL     OW 2413   2.112   1.577   0.447 -0.1877 -0.0340 -0.3727
  604SOL    HW1 2414   2.129   1.502   0.497  0.7160  2.8626  1.6493
  604SOL    HW2 2415   2.059   1.630   0.507  1.2719 -1.6778  1.4625
  604SOL     MW 2416   2.107   1.574   0.461  0.1241  0.1313  0.1363
  605SOL     OW 2417   2.695   1.557   0.843  0.5159 -0.3447 -0.3681
  605SOL    HW1 2418   2.622   1.618   0.832  2.3423  2.9471  1.9763
  605SOL    HW2 2419   2.672   1.481   0.785  1.1455  0.8134 -0.4656
  605SOL     MW 2420   2.682   1.555   0.834  0.8399  0.2424 -0.0716
  606SOL     OW 2421   2.564   1.780   1.858  0.1287  0.2555 -0.7622
  606SOL    HW1 2422   2.469   1.770   1.880  0.3807  0.2878 -0.1182
  606SOL    HW2 2423   2.593   1.696   1.821  1.7779  0.8514 -3.0444
  606SOL     MW 2424   2.555   1.767   1.856  0.3796  0.3384 -0.9784
  607SOL     OW 2425   2.340   1.030   2.961  0.7928 -0.5654 -0.1769
  607SOL    HW1 2426   2.434   1.011   2.937 -0.9346  0.7214 -0.3312
  607SOL    HW2 2427   2.347   1.024   3.053  0.1566 -0.4889 -2.9970
  607SOL     MW 2428   2.353   1.026   2.970  0.4809 -0.3856 -0.5694
  608SOL     OW 2429   1.874   0.325   0.558 -0.3655 -0.6594 -0.4647
  608SOL    HW1 2430   1.880   0.363   0.470  1.3352 -1.2463 -2.9814
  608SOL    HW2 2431   1.824   0.245   0.540 -0.5762  3.0437  1.5569
  608SOL     MW 2432   1.868   0.320   0.544 -0.1689 -0.2482 -0.5300
  609SOL     OW 2433   2.153   1.954   3.068 -0.7751  0.0962  0.4837
  609SOL    HW1 2434   2.067   1.914   3.050 -0.7592  1.1344 -0.4667
  609SOL    HW2 2435   2.170   1.943   3.164 -1.7392 -0.1334 -0.3530
  609SOL     MW 2436   2.144   1.947   3.078 -0.9002  0.2029  0.2479
  610SOL     OW 2437   1.813   1.036   1.244 -1.2011 -0.4500 -0.2593
  610SOL    HW1 2438   1.797   0.962   1.181 -1.1257 -1.1207 -1.2497
  610SOL    HW2 2439   1.727   1.044   1.275  0.3970  0.4024  0.8963
  610SOL     MW 2440   1.800   1.027   1.240 -0.9803 -0.4260 -0.2375
  611SOL     OW 2441   2.437   1.675   0.754 -0.1551  0.1563 -0.1601
  611SOL    HW1 2442   2.407   1.762   0.753  1.1847 -1.0685  0.5890
  611SOL    HW2 2443   2.474   1.676   0.663  1.9549 -1.2534 -0.7206
  611SOL     MW 2444   2.438   1.686   0.742  0.3001 -0.1913 -0.1352
  612SOL     OW 2445   2.778   2.848   0.440  0.0932  0.0786  0.2844
  612SOL    HW1 2446   2.820   2.886   0.517  1.4983 -0.2903 -1.3216
  612SOL    HW2 2447   2.853   2.842   0.379 -0.3900 -0.7707 -1.0117
  612SOL     MW 2448   2.793   2.852   0.442  0.2148 -0.0821 -0.0985
  613SOL     OW 2449   1.514   1.036   1.011 -0.3948  0.0178 -0.6988
  613SOL    HW1 2450   1.510   1.131   1.025 -2.0315  0.9356  0.0225
  613SOL    HW2 2451   1.533   1.001   1.096  1.7361  0.6134  0.0666
  613SOL     MW 2452   1.516   1.044   1.024 -0.3296  0.2175 -0.5026
  614SOL     OW 2453   2.015   0.558   1.539 -0.7261  0.3498  0.4354
  614SOL    HW1 2454   2.022   0.480   1.597  1.4816 -1.0665 -0.5570
  614SOL    HW2 2455   2.023   0.532   1.448  1.0387  1.2576 -0.2466
  614SOL     MW 2456   2.017   0.545   1.535 -0.2020  0.2827  0.2145
  615SOL     OW 2457   2.234   0.822   0.265  0.8386 -0.6761  0.4506
  615SOL    HW1 2458   2.295   0.782   0.324 -2.5793  0.4556  1.6971
  615SOL    HW2 2459   2.256   0.789   0.181 -1.1400 -0.7383  0.3261
  615SOL     MW 2460   2.245   0.812   0.261  0.1266 -0.5350  0.5986
  616SOL     OW 2461   2.582   0.344   1.601 -0.2145  0.2803  0.1776
  616SOL    HW1 2462   2.520   0.310   1.536 -3.6004  0.3563  1.2320
  616SOL    HW2 2463   2.599   0.432   1.569  1.7469 -1.3734  0.8913
  616SOL     MW 2464   2.576   0.351   1.588 -0.4024  0.0722  0.4109
  617SOL     OW 2465   2.835   0.551   1.682  0.4641 -0.3223 -0.0360
  617SOL    HW1 2466   2.767   0.540   1.749  0.3961 -3.4974  2.6823
  617SOL    HW2 2467   2.861   0.460   1.650  0.2358  0.4357 -4.8880
  617SOL     MW 2468   2.829   0.538   1.686  0.4250 -0.6412 -0.3175
  618SOL     OW 2469   2.684   0.361   1.942  0.0794  0.0611  0.7906
  618SOL    HW1 2470   2.663   0.456   1.960  2.1812  0.9573 -0.5593
  618SOL    HW2 2471   2.770   0.349   1.986 -0.0452 -0.2077  0.9945
  618SOL     MW 2472   2.693   0.372   1.950  0.3403  0.1439  0.6394
  619SOL     OW 2473   2.631   0.737   0.145 -0.0355 -0.4853 -0.2084
  619SOL    HW1 2474   2.689   0.806   0.175  0.4674 -0.8510 -0.5460
  619SOL    HW2 2475   2.576   0.710   0.218  3.2422  2.7653 -1.4415
  619SOL     MW 2476   2.631   0.742   0.158  0.4633 -0.1047 -0.4156
  620SOL     OW 2477   2.323   1.068   0.992  0.5728 -0.1030  0.0596
  620SOL    HW1 2478   2.326   1.096   0.899 -0.9560 -1.4834 -0.8947
  620SOL    HW2 2479   2.308   0.973   0.981 -1.8322 -0.3796  3.1999
  620SOL     MW 2480   2.321   1.059   0.978  0.0537 -0.3216  0.3480
  621SOL     OW 2481   1.463   2.103   1.986  0.3474  0.8312 -0.2224
  621SOL    HW1 2482   1.399   2.039   2.006 -1.0169 -0.4871  0.8830
  621SOL    HW2 2483   1.547   2.062   2.005  0.5138 -2.4607  0.2310
  621SOL     MW 2484   1.465   2.089   1.991  0.1894  0.2229 -0.0167
  622SOL     OW 2485   2.658   0.180   0.251  0.4109  0.3097  0.4657
  622SOL    HW1 2486   2.737   0.241   0.249  0.2267 -0.9373 -0.4165
  622SOL    HW2 2487   2.702   0.113   0.195 -0.8502 -1.9213 -0.6186
  622SOL     MW 2488   2.674   0.179   0.243  0.2202 -0.1492  0.2063
  623SOL     OW 2489   2.325   2.738   0.925 -0.4820 -0.0180 -0.1581
  623SOL    HW1 2490   2.394   2.811   0.914  0.7959  1.1945 -0.9206
  623SOL    HW2 2491   2.264   2.774   0.994 -0.5296  0.9962  0.8028
  623SOL     MW 2492   2.326   2.753   0.933 -0.3196  0.2758 -0.1319
  624SOL     OW 2493   2.215   1.693   3.012  0.0742 -0.5807 -0.5727
  624SOL    HW1 2494   2.140   1.638   3.023  1.9769 -1.1170  1.1823
  624SOL    HW2 2495   2.179   1.783   3.039 -0.8104 -0.1060 -1.6235
  624SOL     MW 2496   2.200   1.698   3.017  0.2086 -0.5888 -0.4798
  625SOL     OW 2497   2.164   1.984   1.099  0.6566 -0.0519  0.4597
  625SOL    HW1 2498   2.236   1.932   1.140  0.9382  2.4675 -0.7335
  625SOL    HW2 2499   2.191   2.014   1.016 -0.3794  2.0949  1.1318
  625SOL     MW 2500   2.177   1.981   1.094  0.5571  0.5637  0.3910
  626SOL     OW 2501   0.168   1.632   2.317  0.1767  0.2899  0.4059
  626SOL    HW1 2502   0.137   1.548   2.335  2.2188  1.9797 -0.0872
  626SOL    HW2 2503   0.124   1.695   2.374 -1.7189 -1.2762 -0.7720
  626SOL     MW 2504   0.158   1.629   2.327  0.1960  0.3062  0.1854
  627SOL     OW 2505   2.506   0.822   2.622 -0.0467 -0.0648  0.3930
  627SOL    HW1 2506   2.433   0.884   2.601  1.5239  2.1491 -1.1196
  627SOL    HW2 2507   2.490   0.746   2.558  2.6925 -2.2986  0.1333
  627SOL     MW 2508   2.494   0.820   2.610  0.5219 -0.0674  0.1591
  628SOL     OW 2509   2.254   1.351   1.360 -0.2923  0.5814 -0.0462
  628SOL    HW1 2510   2.220   1.277   1.321  0.6551  0.9308  0.2791
  628SOL    HW2 2511   2.345   1.328   1.382 -1.3622  0.2623  3.6136
  628SOL     MW 2512   2.262   1.338   1.357 -0.3085  0.5854  0.4796
  629SOL     OW 2513   2.000   0.543   1.255 -0.2382  0.5693 -0.1436
  629SOL    HW1 2514   2.037   0.624   1.214 -0.2080  1.4547  0.0479
  629SOL    HW2 2515   1.916   0.574   1.287  0.0702  2.0287 -1.7059
  629SOL     MW 2516   1.994   0.558   1.254 -0.1935  0.8787 -0.3244
  630SOL     OW 2517   2.493   1.852   3.028 -0.5125 -0.1898  0.8797
  630SOL    HW1 2518   2.499   1.913   2.955 -1.0764 -1.9353 -0.1896
  630SOL    HW2 2519   2.430   1.789   3.009  4.2607  1.2681  0.6682
  630SOL     MW 2520   2.485   1.852   3.016  0.0428 -0.2278  0.7107
  631SOL     OW 2521   1.980   1.814   1.602 -0.3630  0.5593 -0.1273
  631SOL    HW1 2522   1.991   1.722   1.631 -2.8110  0.4495  0.6257
  631SOL    HW2 2523   1.943   1.805   1.516  2.6237  0.9709 -0.1688
  631SOL     MW 2524   1.976   1.801   1.595 -0.2919  0.5991 -0.0334
  632SOL     OW 2525   0.099   2.087   1.495  0.0816 -0.1102  0.0438
  632SOL    HW1 2526   0.057   2.085   1.576  3.2882  1.6680 -1.2414
  632SOL    HW2 2527   0.126   1.998   1.481  2.1604 -1.6946 -1.4806
  632SOL     MW 2528   0.097   2.075   1.504  0.7789 -0.0846 -0.3269
  633SOL     OW 2529   2.472   0.685   0.392  0.2305  0.2455 -0.0670
  633SOL    HW1 2530   2.549   0.648   0.436  1.4424  0.5156 -0.7784
  633SOL    HW2 2531   2.433   0.598   0.372  1.1010 -1.7080 -2.4862
  633SOL     MW 2532   2.477   0.669   0.395  0.5052  0.0234 -0.4801
  634SOL     OW 2533   2.621   3.085   0.703  0.1765 -0.6210  0.0990
  634SOL    HW1 2534   2.650   3.176   0.712 -0.6022  1.4274 -0.9682
  634SOL    HW2 2535   2.599   3.071   0.609  1.2559 -2.1855 -2.7782
  634SOL     MW 2536   2.622   3.095   0.692  0.2162 -0.5572 -0.4214
  635SOL     OW 2537   2.588   0.125   1.847  0.2193 -0.0360  0.1077
  635SOL    HW1 2538   2.641   0.102   1.769  2.8037  1.0514 -1.0142
  635SOL    HW2 2539   2.618   0.214   1.875 -0.1066 -0.0548 -0.6030
  635SOL     MW 2540   2.599   0.134   1.840  0.5173  0.1050 -0.1341
  636SOL     OW 2541   2.920   1.746   0.969 -0.3175  0.6762  0.9986
  636SOL    HW1 2542   2.833   1.763   1.001 -1.4233 -0.0870  0.7664
  636SOL    HW2 2543   2.983   1.768   1.038  0.0605  2.6682 -0.6803
  636SOL     MW 2544   2.917   1.751   0.982 -0.4135  0.8383  0.7464
  637SOL     OW 2545   2.924   1.523   0.659 -0.3443  0.0397  0.4101
  637SOL    HW1 2546   2.977   1.603   0.630  0.2454 -0.3717 -0.2125
  637SOL    HW2 2547   2.869   1.562   0.724 -0.8575 -1.4701 -1.6818
  637SOL     MW 2548   2.924   1.539   0.664 -0.3342 -0.2138  0.0519
  638SOL     OW 2549   2.720   0.580   0.508  0.2527 -0.3761  0.2007
  638SOL    HW1 2550   2.818   0.594   0.493  1.3337  0.3649 -0.4285
  638SOL    HW2 2551   2.708   0.602   0.603  1.6609 -1.8967  2.3099
  638SOL     MW 2552   2.731   0.585   0.518  0.5812 -0.4789  0.3960
  639SOL     OW 2553   1.777   0.064   0.500 -0.1047  0.2455  0.1984
  639SOL    HW1 2554   1.691   0.075   0.534 -0.1090  1.8917  1.1737
  639SOL    HW2 2555   1.764  -0.017   0.453 -0.5489  1.4568 -0.8883
  639SOL     MW 2556   1.764   0.055   0.498 -0.1639  0.6225  0.1837
  640SOL     OW 2557   0.348   1.376   0.071 -0.3024 -0.0481  0.0003
  640SOL    HW1 2558   0.347   1.390  -0.025  1.3045  1.2754  0.1088
  640SOL    HW2 2559   0.301   1.295   0.080 -0.3834 -1.9440 -1.7430
  640SOL     MW 2560   0.342   1.367   0.060 -0.1011 -0.1236 -0.2154
  641SOL     OW 2561   2.210   0.453   0.381 -0.3277 -0.1528  0.2109
  641SOL    HW1 2562   2.243   0.449   0.292 -0.1923  1.5837  2.5087
  641SOL    HW2 2563   2.243   0.371   0.414  0.6818  2.6174  0.7060
  641SOL     MW 2564   2.219   0.441   0.373 -0.1767  0.4418  0.5794
  642SOL     OW 2565   0.044   3.096   0.574 -0.0152  0.1267  0.4463
  642SOL    HW1 2566  -0.007   3.164   0.525 -0.5076  1.8999 -1.2546
  642SOL    HW2 2567  -0.033   3.045   0.600  1.7991  0.7177 -0.1019
  642SOL     MW 2568   0.027   3.098   0.571  0.1592  0.4386  0.1495
  643SOL     OW 2569   2.065   0.331   1.702  0.3926 -0.1845  0.3779
  643SOL    HW1 2570   2.071   0.319   1.796 -2.4018  0.1803  0.2791
  643SOL    HW2 2571   2.111   0.267   1.646  2.4792  1.7099 -1.8942
  643SOL     MW 2572   2.072   0.321   1.707  0.2992  0.1136  0.0651
  644SOL     OW 2573   2.719   1.940   1.072  0.1295  0.4782  0.0362
  644SOL    HW1 2574   2.684   1.866   1.121  2.8668 -3.8094  0.3994
  644SOL    HW2 2575   2.642   1.994   1.049 -0.6385 -0.5400 -1.6855
  644SOL     MW 2576   2.704   1.937   1.075  0.3893 -0.2218 -0.1430
  645SOL     OW 2577   2.833   0.881   0.669  0.3252 -0.1477  0.4838
  645SOL    HW1 2578   2.911   0.854   0.718 -1.2284 -1.6432 -1.2690
  645SOL    HW2 2579   2.770   0.813   0.686 -0.6687 -0.2440 -0.0208
  645SOL     MW 2580   2.835   0.869   0.677 -0.0109 -0.3577  0.1860
  646SOL     OW 2581   0.201   2.266   0.814 -0.0468 -0.0192 -0.2004
  646SOL    HW1 2582   0.210   2.164   0.820  1.5454 -1.1510  0.4769
  646SOL    HW2 2583   0.121   2.271   0.749 -0.8783 -2.7444  0.2891
  646SOL     MW 2584   0.192   2.253   0.806  0.0536 -0.5281 -0.0464
  647SOL     OW 2585   2.712   0.504   2.988  0.3898 -0.0481  0.1731
  647SOL    HW1 2586   2.657   0.426   3.016  0.4829  1.5256  0.3331
  647SOL    HW2 2587   2.650   0.570   2.959 -2.5624  1.8694 -1.6641
  647SOL     MW 2588   2.697   0.502   2.988  0.0125  0.4125 -0.0482
  648SOL     OW 2589   2.142   0.749   1.133 -0.5925  0.1451 -0.3334
  648SOL    HW1 2590   2.163   0.785   1.044 -0.2525 -0.6193 -1.7076
  648SOL    HW2 2591   2.186   0.801   1.196 -0.0698 -1.3008 -0.5546
  648SOL     MW 2592   2.151   0.760   1.129 -0.4787 -0.1466 -0.5439
  649SOL     OW 2593   2.381   2.769   1.274 -0.5762  0.1768  0.2517
  649SOL    HW1 2594   2.463   2.820   1.280 -0.1655  1.9102  1.1722
  649SOL    HW2 2595   2.397   2.701   1.213  0.2342  1.1364  0.6891
  649SOL     MW 2596   2.394   2.767   1.267 -0.4151  0.5321  0.4309
  650SOL     OW 2597   2.828   0.193   0.668  0.0043 -0.4115  0.1763
  650SOL    HW1 2598   2.863   0.260   0.725  0.6404 -2.3668 -1.0009
  650SOL    HW2 2599   2.883   0.202   0.587 -0.1383  2.6889 -1.6186
  650SOL     MW 2600   2.840   0.203   0.665  0.0694 -0.2604 -0.2159
  651SOL     OW 2601   2.984   0.403   0.800 -0.0052  0.1097 -0.1781
  651SOL    HW1 2602   3.071   0.444   0.773 -1.6464  1.3310 -2.0970
  651SOL    HW2 2603   2.932   0.468   0.849 -0.0897  0.7664 -0.8059
  651SOL     MW 2604   2.989   0.417   0.803 -0.2329  0.3575 -0.5141
  652SOL     OW 2605   2.387   1.472   3.019  0.1603  0.8185  0.2712
  652SOL    HW1 2606   2.455   1.486   2.958 -0.0308  0.8974  1.1397
  652SOL    HW2 2607   2.338   1.559   3.009 -0.8370  0.1201  1.4068
  652SOL     MW 2608   2.390   1.485   3.009  0.0035  0.7368  0.5356
  653SOL     OW 2609   1.911   0.437   0.334 -0.2036  0.0528  0.2161
  653SOL    HW1 2610   1.888   0.365   0.269 -2.0085 -1.3015 -0.6847
  653SOL    HW2 2611   2.004   0.438   0.362 -2.3018 -1.1225  3.2405
  653SOL     MW 2612   1.921   0.428   0.329 -0.7185 -0.2809  0.4963
  654SOL     OW 2613   2.454   1.046   0.702 -0.1523  0.4971 -0.2887
  654SOL    HW1 2614   2.361   1.038   0.679  0.2829  0.3488  1.5837
  654SOL    HW2 2615   2.482   0.966   0.749  2.0155  1.2996  2.3732
  654SOL     MW 2616   2.446   1.035   0.705  0.1912  0.5834  0.3096
  655SOL     OW 2617   3.003   0.928   0.387 -0.3533  0.0027 -0.2392
  655SOL    HW1 2618   2.937   0.975   0.444 -4.2378 -2.4032 -0.6360
  655SOL    HW2 2619   3.002   0.835   0.424  0.1582 -1.4580  0.2807
  655SOL     MW 2620   2.995   0.922   0.399 -0.7983 -0.5074 -0.2230
  656SOL     OW 2621   1.968   2.671   1.205  0.4031 -0.0456 -0.2733
  656SOL    HW1 2622   1.960   2.754   1.248 -0.7467  0.8978  1.4490
  656SOL    HW2 2623   1.998   2.614   1.273 -0.2712  3.2788  2.1817
  656SOL     MW 2624   1.971   2.674   1.219  0.1624  0.5175  0.2778
  657SOL     OW 2625   0.195   1.578   1.267 -0.1115  0.0196  0.4241
  657SOL    HW1 2626   0.134   1.641   1.222  0.6551  1.3383 -1.7820
  657SOL    HW2 2627   0.187   1.498   1.215  1.3411  0.6363 -0.7753
  657SOL     MW 2628   0.186   1.576   1.254  0.1813  0.2750 -0.0252
  658SOL     OW 2629   2.690   1.373   0.207 -0.2857 -0.5318 -0.3993
  658SOL    HW1 2630   2.646   1.316   0.276 -0.1043 -1.7507 -1.1938
  658SOL    HW2 2631   2.753   1.437   0.255  2.8609 -0.5479 -2.1650
  658SOL     MW 2632   2.693   1.374   0.222  0.1534 -0.6947 -0.7371
  659SOL     OW 2633   2.292   1.534   1.033  0.1068 -0.0542  0.3300
  659SOL    HW1 2634   2.391   1.519   1.041 -4.3591 -0.7410 -1.1347
  659SOL    HW2 2635   2.260   1.533   1.123  2.7562  2.0054 -0.6104
  659SOL     MW 2636   2.301   1.532   1.046 -0.1329  0.1270  0.0127
  660SOL     OW 2637   2.035   1.575   1.684 -0.2319 -0.0218  0.4710
  660SOL    HW1 2638   2.056   1.582   1.782  0.2264  0.2684 -0.2075
  660SOL    HW2 2639   1.970   1.508   1.674  1.6175  0.8472 -0.1175
  660SOL     MW 2640   2.029   1.567   1.695  0.0726  0.1311  0.3038
  661SOL     OW 2641   2.380   1.077   0.198 -0.3454 -0.7907  0.7985
  661SOL    HW1 2642   2.440   1.143   0.244  2.7777 -0.0235  0.7002
  661SOL    HW2 2643   2.362   0.999   0.254 -2.5807 -0.9864  0.0794
  661SOL     MW 2644   2.386   1.076   0.211 -0.2283 -0.7153  0.6906
  662SOL     OW 2645   2.499   2.929   0.890 -0.0227 -0.0122  0.2012
  662SOL    HW1 2646   2.445   2.998   0.928  2.8214  0.0911 -0.8736
  662SOL    HW2 2647   2.532   2.976   0.812  0.8704 -0.2620 -0.0726
  662SOL     MW 2648   2.496   2.944   0.885  0.4704 -0.0316  0.0233
  663SOL     OW 2649   2.842   1.524   0.369 -0.0997 -0.5133 -0.4830
  663SOL    HW1 2650   2.907   1.587   0.337  0.1662 -2.3906 -0.8946
  663SOL    HW2 2651   2.873   1.492   0.454  0.5555  0.2082  3.1600
  663SOL     MW 2652   2.855   1.528   0.376  0.0219 -0.6658 -0.0566
  664SOL     OW 2653   2.461   1.560   1.571  0.0275 -0.0312 -0.1427
  664SOL    HW1 2654   2.428   1.654   1.565  1.0796 -0.0949 -0.8608
  664SOL    HW2 2655   2.386   1.509   1.601  1.2268  0.7568  1.0413
  664SOL     MW 2656   2.447   1.566   1.574  0.3245  0.0643 -0.0812
  665SOL     OW 2657   2.846   0.800   2.081 -0.0574 -0.0185 -0.1219
  665SOL    HW1 2658   2.837   0.838   1.996 -0.7495 -0.9030 -1.7188
  665SOL    HW2 2659   2.916   0.742   2.060 -3.5745  0.2832 -0.2699
  665SOL     MW 2660   2.854   0.797   2.067 -0.6127 -0.0954 -0.3521
  666SOL     OW 2661   2.763   3.045   1.683 -0.7497  0.0298 -0.1770
  666SOL    HW1 2662   2.772   3.053   1.589  0.4769 -2.5538 -0.1998
  666SOL    HW2 2663   2.714   2.957   1.702 -0.9018 -1.0024  4.2692
  666SOL     MW 2664   2.758   3.035   1.673 -0.6080 -0.4473  0.4066
  667SOL     OW 2665   1.985   2.694   1.657  0.3338 -0.3975  0.5270
  667SOL    HW1 2666   1.991   2.617   1.714  1.3220  0.0399 -0.9589
  667SOL    HW2 2667   2.071   2.734   1.665 -2.5847  1.1696  1.2032
  667SOL     MW 2668   1.997   2.689   1.666  0.0791 -0.1330  0.4202
  668SOL     OW 2669   2.752   0.640   0.813 -0.3077 -0.4004 -0.2794
  668SOL    HW1 2670   2.817   0.667   0.886  1.4290  3.3266  0.7070
  668SOL    HW2 2671   2.662   0.684   0.829 -0.0838 -1.1106 -0.2994
  668SOL     MW 2672   2.749   0.649   0.825 -0.0490 -0.0024 -0.1519
  669SOL     OW 2673   0.193   0.939   0.658  0.2796  0.4940 -0.0083
  669SOL    HW1 2674   0.146   1.005   0.710 -4.2399 -2.3251 -1.4393
  669SOL    HW2 2675   0.281   0.959   0.699  2.2167  1.1031  1.2337
  669SOL     MW 2676   0.198   0.951   0.671 -0.0611  0.2024 -0.0332
  670SOL     OW 2677   2.893   0.290   0.197 -0.8284  0.2173  0.3058
  670SOL    HW1 2678   2.899   0.223   0.123 -0.6821 -0.0011 -1.8145
  670SOL    HW2 2679   2.948   0.362   0.165 -1.2052  1.1689  2.5386
  670SOL     MW 2680   2.901   0.291   0.183 -0.8588  0.3140  0.3206
  671SOL     OW 2681   2.150   3.021   1.572 -0.4111 -0.0260 -0.3652
  671SOL    HW1 2682   2.114   3.008   1.480 -1.0759  1.5934  0.3775
  671SOL    HW2 2683   2.109   3.103   1.607  1.7991  0.0385 -1.8735
  671SOL     MW 2684   2.140   3.030   1.565 -0.2072  0.1961 -0.4662
  672SOL     OW 2685   1.851   1.694   1.316 -0.4476 -0.0681 -0.1850
  672SOL    HW1 2686   1.771   1.737   1.358  2.2611  0.1504  2.2316
  672SOL    HW2 2687   1.873   1.766   1.253  0.5060  0.9205  1.9642
  672SOL     MW 2688   1.843   1.709   1.313  0.0356  0.0912  0.4174
  673SOL     OW 2689   2.784   1.108   0.493 -0.1098 -0.1921 -0.1458
  673SOL    HW1 2690   2.774   1.039   0.557  0.4400 -0.6992 -0.7464
  673SOL    HW2 2691   2.861   1.162   0.517  1.0162  2.2188  2.6163
  673SOL     MW 2692   2.793   1.106   0.504  0.1113  0.0591  0.1394
  674SOL     OW 2693   2.517   0.113   1.213  0.0200  0.0307 -0.2259
  674SOL    HW1 2694   2.472   0.103   1.129  1.8818  0.3027 -0.3594
  674SOL    HW2 2695   2.516   0.021   1.251  0.6029  3.3995  2.2691
  674SOL     MW 2696   2.511   0.100   1.207  0.3425  0.5111  0.0857
  675SOL     OW 2697   3.025   0.956   1.102 -0.3224 -0.7768 -0.0400
  675SOL    HW1 2698   3.075   0.890   1.152  1.2011  1.9996  0.7520
  675SOL    HW2 2699   3.074   0.976   1.023  1.2625 -0.8033  0.3930
  675SOL     MW 2700   3.038   0.950   1.098  0.0877 -0.4140  0.1216
  676SOL     OW 2701   2.885   1.505   1.628  0.6414  0.2264  0.2274
  676SOL    HW1 2702   2.822   1.429   1.611  0.3556  2.2544 -2.0368
  676SOL    HW2 2703   2.960   1.471   1.671 -3.4028 -2.4720  0.1990
  676SOL     MW 2704   2.886   1.490   1.632  0.0701  0.1380 -0.0751
  677SOL     OW 2705   2.449   0.736   1.908  0.1897 -0.5307  0.6921
  677SOL    HW1 2706   2.419   0.647   1.879 -0.5630  1.3930  0.3992
  677SOL    HW2 2707   2.393   0.754   1.982  2.6349  1.0441 -2.5204
  677SOL     MW 2708   2.438   0.727   1.914  0.4130 -0.0691  0.2296
  678SOL     OW 2709   2.541   1.589   0.419  0.1338  0.5034 -0.9071
  678SOL    HW1 2710   2.451   1.631   0.428  2.2261 -0.4741  2.0579
  678SOL    HW2 2711   2.549   1.577   0.327 -2.2007  1.5502 -1.2675
  678SOL     MW 2712   2.530   1.593   0.408  0.1018  0.5125 -0.5634
  679SOL     OW 2713   2.319   0.504   1.142 -0.6403 -0.2099  0.7744
  679SOL    HW1 2714   2.279   0.430   1.191 -0.6884 -0.5032  0.3515
  679SOL    HW2 2715   2.254   0.577   1.144  0.7633  1.4792 -1.9713
  679SOL     MW 2716   2.305   0.504   1.149 -0.4614 -0.0257  0.3563
  680SOL     OW 2717   2.392   0.260   1.419 -0.7002 -0.4424 -0.8563
  680SOL    HW1 2718   2.318   0.207   1.429  5.4519 -0.0179 -2.1236
  680SOL    HW2 2719   2.431   0.217   1.338 -1.8862 -1.6200 -0.1084
  680SOL     MW 2720   2.387   0.248   1.410 -0.0450 -0.5418 -0.9248
  681SOL     OW 2721   0.331   0.582   1.554  0.6778  0.1380 -0.5296
  681SOL    HW1 2722   0.289   0.505   1.604 -2.7932  1.4725  2.6057
  681SOL    HW2 2723   0.430   0.572   1.551  2.3741  1.5335  1.5062
  681SOL     MW 2724   0.338   0.571   1.561  0.4437  0.4982  0.1527
  682SOL     OW 2725   0.122   2.947   1.477  0.2752 -0.1703 -0.2453
  682SOL    HW1 2726   0.156   3.034   1.466  1.9333  0.7299 -0.7172
  682SOL    HW2 2727   0.052   2.969   1.539 -1.7040 -3.3638 -1.6771
  682SOL     MW 2728   0.118   2.962   1.484  0.2328 -0.4728 -0.4965
  683SOL     OW 2729   2.078   0.849   3.031 -0.0187  0.6928  0.6076
  683SOL    HW1 2730   1.998   0.809   2.990  2.0750 -0.3219  0.3077
  683SOL    HW2 2731   2.051   0.930   3.080 -0.0002  4.4004 -0.1982
  683SOL     MW 2732   2.064   0.854   3.032  0.2600  1.0481  0.4617
  684SOL     OW 2733   2.199   1.760   0.907  0.3450  0.7176 -0.1191
  684SOL    HW1 2734   2.108   1.744   0.911 -0.9991 -1.4590  0.3946
  684SOL    HW2 2735   2.238   1.676   0.934 -1.3741 -1.4908 -1.5255
  684SOL     MW 2736   2.192   1.747   0.911 -0.0592  0.1390 -0.2369
  685SOL     OW 2737   2.614   1.741   1.255  0.6945  0.1665 -0.4528
  685SOL    HW1 2738   2.678   1.727   1.327 -1.7087  0.8565  2.6968
  685SOL    HW2 2739   2.588   1.653   1.220 -0.9752 -0.0211 -1.4136
  685SOL     MW 2740   2.619   1.727   1.260  0.1571  0.2328 -0.1640
  686SOL     OW 2741   2.863   0.701   1.461  0.1567  0.2085 -0.0356
  686SOL    HW1 2742   2.844   0.630   1.529 -2.6950  1.5716  0.2741
  686SOL    HW2 2743   2.950   0.697   1.432 -2.6640 -0.4109 -2.2279
  686SOL     MW 2744   2.872   0.691   1.466 -0.5917  0.3066 -0.2840
  687SOL     OW 2745   2.149   0.295   1.222  0.2847 -0.2646 -0.0390
  687SOL    HW1 2746   2.167   0.240   1.142 -0.2153  0.8500 -0.6976
  687SOL    HW2 2747   2.082   0.352   1.186 -1.7595 -0.7420 -1.1319
  687SOL     MW 2748   2.142   0.296   1.206 -0.0510 -0.1805 -0.2701
  688SOL     OW 2749   2.370   0.610   1.473 -0.2161  0.2368  0.0225
  688SOL    HW1 2750   2.354   0.516   1.457 -3.1430  0.3890  1.1954
  688SOL    HW2 2751   2.324   0.634   1.551  0.4415 -0.5453  1.8613
  688SOL     MW 2752   2.362   0.601   1.481 -0.5155  0.1537  0.4198
  689SOL     OW 2753   2.552   0.745   2.986 -0.0039 -0.2089  0.1784
  689SOL    HW1 2754   2.578   0.834   2.959  0.3553  0.0787  1.3156
  689SOL    HW2 2755   2.580   0.729   3.079 -1.0240 -0.6258 -2.6779
  689SOL     MW 2756   2.559   0.754   2.995 -0.0911 -0.2259 -0.0484
  690SOL     OW 2757   2.117   0.952   1.911 -0.0110 -0.0865 -0.4775
  690SOL    HW1 2758   2.035   0.904   1.922  1.4775 -0.6906  0.5226
  690SOL    HW2 2759   2.143   0.955   1.817  0.0794 -1.1861 -1.6714
  690SOL     MW 2760   2.110   0.946   1.900  0.1973 -0.3113 -0.5030
  691SOL     OW 2761   2.439   0.272   0.838  0.0721 -0.0864 -0.2159
  691SOL    HW1 2762   2.516   0.331   0.872 -1.0245  0.8481 -0.2499
  691SOL    HW2 2763   2.359   0.320   0.849 -1.6651  1.7291  0.6143
  691SOL     MW 2764   2.439   0.286   0.844 -0.3018  0.2764 -0.1108
  692SOL     OW 2765   2.809   1.716   1.448  0.2897 -0.2697  0.5141
  692SOL    HW1 2766   2.833   1.660   1.512  1.1027 -0.3864 -0.3173
  692SOL    HW2 2767   2.814   1.809   1.480  3.0684  2.6098  4.0385
  692SOL     MW 2768   2.813   1.721   1.460  0.7636  0.0948  0.8694
  693SOL     OW 2769   2.333   0.443   0.112  0.0942 -0.1096  0.0330
  693SOL    HW1 2770   2.254   0.397   0.107 -0.1963 -1.2507  2.8692
  693SOL    HW2 2771   2.316   0.537   0.100 -0.3129 -2.8255 -1.1881
  693SOL     MW 2772   2.321   0.449   0.110  0.0021 -0.6185  0.2461
  694SOL     OW 2773   1.938   1.290   1.085 -0.1324 -0.0271  0.1938
  694SOL    HW1 2774   2.011   1.244   1.126  0.3562 -0.3192 -0.0276
  694SOL    HW2 2775   1.864   1.236   1.103  0.5993  0.6687  0.8540
  694SOL     MW 2776   1.938   1.277   1.093  0.0286  0.0262  0.2517
  695SOL     OW 2777   2.966   1.442   1.310  0.3011 -0.2242 -0.3931
  695SOL    HW1 2778   2.950   1.452   1.219  1.1388  3.0907  0.2967
  695SOL    HW2 2779   2.939   1.526   1.339  0.1043 -0.6742  2.3166
  695SOL     MW 2780   2.960   1.454   1.302  0.3856  0.1538  0.0554
  696SOL     OW 2781   2.106   1.391   0.892 -0.3456  0.0182  0.0755
  696SOL    HW1 2782   2.164   1.458   0.930  1.7176  0.8983  1.2075
  696SOL    HW2 2783   2.045   1.363   0.965  0.2352 -0.3338  1.7545
  696SOL     MW 2784   2.105   1.396   0.907  0.0032  0.0879  0.4464
  697SOL     OW 2785   2.930   1.095   2.152 -0.1003  0.0981 -0.6212
  697SOL    HW1 2786   2.887   1.180   2.159  1.7657  3.1924 -1.0032
  697SOL    HW2 2787   2.866   1.030   2.141 -0.8574  0.2300 -0.3444
  697SOL     MW 2788   2.916   1.097   2.151  0.0460  0.5238 -0.6351
  698SOL     OW 2789   2.562   0.285   0.026  0.1982  0.0681 -0.2928
  698SOL    HW1 2790   2.492   0.341   0.052  3.3313  0.1863 -1.9904
  698SOL    HW2 2791   2.595   0.244   0.116  0.8818 -3.2627 -1.2323
  698SOL     MW 2792   2.557   0.287   0.041  0.7018 -0.3558 -0.6408
  699SOL     OW 2793   1.847   1.646   2.058 -0.4612 -0.2551 -0.1432
  699SOL    HW1 2794   1.823   1.554   2.068 -0.3802  0.6214  0.8108
  699SOL    HW2 2795   1.939   1.641   2.021 -1.0797  1.7096 -1.2514
  699SOL     MW 2796   1.856   1.633   2.054 -0.5321  0.1198 -0.1635
  700SOL     OW 2797   2.723   0.906   1.566  0.5092 -0.1693  0.1001
  700SOL    HW1 2798   2.720   0.990   1.517  0.3995  1.5910  2.1464
  700SOL    HW2 2799   2.773   0.840   1.514  0.7437  0.7145  3.1134
  700SOL     MW 2800   2.730   0.908   1.553  0.5257  0.1796  0.7676
  701SOL     OW 2801   1.663   1.277   2.594  0.3111  0.5117 -0.1521
  701SOL    HW1 2802   1.733   1.334   2.572 -0.6050 -1.2743  0.3904
  701SOL    HW2 2803   1.604   1.325   2.657 -1.6231  1.4238 -1.7052
  701SOL     MW 2804   1.664   1.291   2.599 -0.0649  0.3964 -0.2855
  702SOL     OW 2805   2.194   0.403   0.828 -0.6520 -0.4217  0.5736
  702SOL    HW1 2806   2.170   0.334   0.765 -2.3214 -0.9863  0.6496
  702SOL    HW2 2807   2.252   0.475   0.795 -1.3742  0.3179 -0.2225
  702SOL     MW 2808   2.199   0.403   0.815 -0.9675 -0.3986  0.4786
  703SOL     OW 2809   2.676   1.294   1.000 -0.0550 -0.1320  0.6438
  703SOL    HW1 2810   2.620   1.279   0.927 -2.1123 -0.0091  0.9459
  703SOL    HW2 2811   2.696   1.200   1.023 -0.5764 -2.8569 -1.2639
  703SOL     MW 2812   2.671   1.280   0.994 -0.3953 -0.4753  0.4319
  704SOL     OW 2813   3.095   1.333   0.290 -0.3060 -0.5057 -0.1665
  704SOL    HW1 2814   3.023   1.288   0.239 -0.5523  2.5789 -0.6203
  704SOL    HW2 2815   3.133   1.263   0.345  1.5494  0.3397  3.9376
  704SOL     MW 2816   3.091   1.318   0.291 -0.0937  0.0128  0.3151
  705SOL     OW 2817   2.159   1.621   1.249  0.4787 -0.3778  0.3636
  705SOL    HW1 2818   2.055   1.623   1.236  2.7028 -2.1449 -0.5804
  705SOL    HW2 2819   2.181   1.553   1.307  1.0112  0.5724 -0.8816
  705SOL     MW 2820   2.148   1.612   1.255  0.8424 -0.4856  0.0748
  706SOL     OW 2821   2.970   1.266   0.657 -0.4457 -0.1785  1.0147
  706SOL    HW1 2822   3.048   1.249   0.613 -2.7280 -0.4579  0.1144
  706SOL    HW2 2823   2.970   1.364   0.667 -0.1789  1.2694  0.6871
  706SOL     MW 2824   2.980   1.277   0.653 -0.7116 -0.0243  0.8527
  707SOL     OW 2825   2.384   0.047   0.978  0.0875 -0.1125  0.0847
  707SOL    HW1 2826   2.412   0.113   0.907 -0.6309  0.3818  0.9898
  707SOL    HW2 2827   2.293   0.074   0.983  0.8399 -0.1874  0.3090
  707SOL     MW 2828   2.376   0.059   0.969  0.0920 -0.0572  0.2337
  708SOL     OW 2829   2.543   1.587   0.122  0.2678  0.1429  0.2836
  708SOL    HW1 2830   2.593   1.505   0.147  0.8483 -0.4201 -0.9564
  708SOL    HW2 2831   2.463   1.555   0.087 -0.9182 -1.4704 -1.7350
  708SOL     MW 2832   2.539   1.572   0.121  0.1879 -0.1442 -0.1463
  709SOL     OW 2833   1.706   1.750   0.123  0.6826 -0.1604  0.5402
  709SOL    HW1 2834   1.645   1.781   0.055 -1.9521 -3.3155 -2.8577
  709SOL    HW2 2835   1.666   1.709   0.198  0.3997  2.0257 -1.6653
  709SOL     MW 2836   1.693   1.748   0.124  0.2977 -0.2883 -0.1991
  710SOL     OW 2837   2.147   1.148   1.189 -0.7096 -0.1542  0.2223
  710SOL    HW1 2838   2.216   1.127   1.120  1.1942 -1.7781  1.3893
  710SOL    HW2 2839   2.139   1.066   1.242 -1.6970 -0.4918 -1.6537
  710SOL     MW 2840   2.155   1.134   1.187 -0.5887 -0.4130  0.1287
  711SOL     OW 2841   2.323   0.118   1.731 -0.0830 -0.0731  0.4198
  711SOL    HW1 2842   2.416   0.110   1.765 -3.8763  0.3639 -0.1460
  711SOL    HW2 2843   2.341   0.103   1.641  1.1347  0.5370  2.1242
  711SOL     MW 2844   2.337   0.115   1.723 -0.4228  0.0650  0.5700
  712SOL     OW 2845   1.732   0.613   3.080  1.2589 -0.0438 -0.0092
  712SOL    HW1 2846   1.740   0.678   3.009 -0.4362 -0.8077  0.1692
  712SOL    HW2 2847   1.764   0.649   3.155  2.4164  0.9881 -2.7142
  712SOL     MW 2848   1.738   0.627   3.080  1.1879 -0.0085 -0.3426
  713SOL     OW 2849   2.587   0.790   1.094  0.1472  0.5634 -0.0343
  713SOL    HW1 2850   2.593   0.691   1.115  1.1258 -2.6770 -1.2791
  713SOL    HW2 2851   2.544   0.826   1.171 -0.0048  0.8378 -2.4501
  713SOL     MW 2852   2.582   0.782   1.107  0.2563  0.1721 -0.5173
  714SOL     OW 2853   2.167   0.202   1.950 -0.5526  0.4853 -0.0303
  714SOL    HW1 2854   2.221   0.178   2.026 -3.2023  0.6124  1.1630
  714SOL    HW2 2855   2.220   0.182   1.866  1.6890  0.9616 -0.7858
  714SOL     MW 2856   2.181   0.196   1.949 -0.6064  0.5649  0.0275
  715SOL     OW 2857   1.760   1.904   1.707  0.2386 -0.1407  0.4370
  715SOL    HW1 2858   1.849   1.886   1.663 -0.7842  3.4070  2.5754
  715SOL    HW2 2859   1.744   1.823   1.758  3.9692 -1.5185 -0.5683
  715SOL     MW 2860   1.769   1.891   1.708  0.5959  0.1456  0.5865
  716SOL     OW 2861   2.378   0.574   0.722  0.6578 -0.3820  0.3576
  716SOL    HW1 2862   2.428   0.503   0.676 -0.0544  0.4509  2.2193
  716SOL    HW2 2863   2.329   0.618   0.652 -0.2965  0.1839  0.1950
  716SOL     MW 2864   2.378   0.570   0.706  0.4379 -0.1974  0.5818
  717SOL     OW 2865   2.866   1.463   2.911 -0.1399  0.4605 -0.5916
  717SOL    HW1 2866   2.960   1.455   2.934 -2.3442 -2.3874 -1.1677
  717SOL    HW2 2867   2.821   1.510   2.979  1.1142  0.4937  0.2267
  717SOL     MW 2868   2.873   1.468   2.923 -0.2653  0.0892 -0.5596
  718SOL     OW 2869   2.530   1.322   1.395  0.0661  0.1352 -0.1426
  718SOL    HW1 2870   2.530   1.401   1.455  0.7736  0.0456 -2.0965
  718SOL    HW2 2871   2.610   1.276   1.416  1.8889  2.1045 -1.2265
  718SOL     MW 2872   2.541   1.327   1.406  0.4000  0.3832 -0.5434
  719SOL     OW 2873   2.172   1.361   0.616 -0.0469 -1.0756 -0.9137
  719SOL    HW1 2874   2.270   1.361   0.610  1.4624 -1.2526 -1.6615
  719SOL    HW2 2875   2.153   1.351   0.709 -3.1008  0.8557 -1.4262
  719SOL     MW 2876   2.183   1.360   0.627 -0.2507 -0.8441 -1.0800
  720SOL     OW 2877   2.890   1.193   0.127 -0.1907  0.0423  0.4709
  720SOL    HW1 2878   2.867   1.104   0.150 -0.1539 -1.2408 -1.8302
  720SOL    HW2 2879   2.809   1.235   0.147 -1.4033 -0.2632 -1.2442
  720SOL     MW 2880   2.876   1.187   0.133 -0.3459 -0.1673 -0.0590
  721SOL     OW 2881   2.520   0.837   1.362 -0.0761  0.3409 -0.7951
  721SOL    HW1 2882   2.487   0.746   1.387 -0.8370 -2.0529  2.9883
  721SOL    HW2 2883   2.594   0.863   1.425  0.6381 -0.9223  2.0201
  721SOL     MW 2884   2.525   0.828   1.374 -0.0823 -0.1416  0.0755
  722SOL     OW 2885   2.538   1.216   0.390 -0.0384  0.1230 -0.5691
  722SOL    HW1 2886   2.486   1.251   0.468 -1.2262 -0.0351  2.0635
  722SOL    HW2 2887   2.616   1.181   0.432 -2.0897  2.8595  2.4498
  722SOL     MW 2888   2.541   1.216   0.406 -0.4658  0.4632  0.1766
  723SOL     OW 2889   2.239   1.383   1.634 -0.9166 -0.4219  0.0051
  723SOL    HW1 2890   2.232   1.359   1.541  0.8479 -1.5510  1.5193
  723SOL    HW2 2891   2.171   1.450   1.641  2.8640  0.9209 -1.4984
  723SOL     MW 2892   2.229   1.389   1.623 -0.1850 -0.3937  0.0065
  724SOL     OW 2893   2.481   0.368   0.557  0.4074 -0.1645 -0.4164
  724SOL    HW1 2894   2.486   0.306   0.624  0.0920  0.8684 -2.1986
  724SOL    HW2 2895   2.573   0.393   0.547 -0.9849  1.1471  3.1982
  724SOL     MW 2896   2.494   0.363   0.564  0.1821  0.1449 -0.1746
  725SOL     OW 2897   2.584   0.535   1.147  0.2257 -0.0328 -0.2080
  725SOL    HW1 2898   2.607   0.513   1.240  0.2969 -1.6700  3.6905
  725SOL    HW2 2899   2.487   0.537   1.140  1.0710  0.4686 -1.1944
  725SOL     MW 2900   2.574   0.532   1.158  0.3466 -0.1827  0.1762
  726SOL     OW 2901   2.559   2.430   0.521  0.1044 -0.2544  0.8951
  726SOL    HW1 2902   2.501   2.487   0.472 -1.7026  1.7522  0.5354
  726SOL    HW2 2903   2.508   2.394   0.597 -0.2745  0.2341 -2.5351
  726SOL     MW 2904   2.545   2.432   0.525 -0.1840  0.0748  0.3951
  727SOL     OW 2905   2.861   0.286   1.606  0.5932  0.1786 -0.1467
  727SOL    HW1 2906   2.887   0.278   1.507  2.2091 -0.2159 -2.4786
  727SOL    HW2 2907   2.766   0.297   1.611  0.6487 -2.6961  1.4416
  727SOL     MW 2908   2.852   0.287   1.594  0.8137 -0.2527 -0.2448
  728SOL     OW 2909   2.822   1.158   2.964 -0.0385 -0.2446  0.3042
  728SOL    HW1 2910   2.835   1.236   2.909 -2.1364 -2.3637  0.6815
  728SOL    HW2 2911   2.839   1.182   3.059  4.3556  1.9564 -1.6166
  728SOL     MW 2912   2.826   1.171   2.969  0.2645 -0.2338  0.1006
  729SOL     OW 2913   2.545   1.472   1.158  0.5349 -0.1261  0.0789
  729SOL    HW1 2914   2.533   1.421   1.242 -1.1840  0.9606 -3.0568
  729SOL    HW2 2915   2.611   1.424   1.105  2.5708  2.0108  0.3639
  729SOL     MW 2916   2.552   1.459   1.162  0.5767  0.2992 -0.2972
  730SOL     OW 2917   2.120   1.120   0.287 -0.1469 -0.1790 -0.3551
  730SOL    HW1 2918   2.217   1.121   0.272  0.1009  1.3323  2.6324
  730SOL    HW2 2919   2.091   1.212   0.284 -1.2146  1.6884 -0.4941
  730SOL     MW 2920   2.129   1.132   0.285 -0.2551  0.2668  0.0208
  731SOL     OW 2921   2.802   1.857   2.904  0.2391 -0.1601  0.0260
  731SOL    HW1 2922   2.739   1.915   2.865  1.2069  1.6842 -0.4829
  731SOL    HW2 2923   2.881   1.912   2.904  1.0233 -1.0574 -0.8303
  731SOL     MW 2924   2.804   1.872   2.899  0.4703 -0.0352 -0.1541
  732SOL     OW 2925   2.262   0.932   1.344 -0.4186  0.3740 -0.2868
  732SOL    HW1 2926   2.207   0.910   1.416  0.8595 -0.8692  0.0886
  732SOL    HW2 2927   2.342   0.929   1.397 -0.3763 -1.0509  2.2830
  732SOL     MW 2928   2.265   0.929   1.361 -0.2444  0.0220  0.1018
  733SOL     OW 2929   2.353   2.830   3.078 -0.3370 -0.0859 -0.1639
  733SOL    HW1 2930   2.268   2.865   3.057 -0.3153 -0.1420  0.8024
  733SOL    HW2 2931   2.328   2.736   3.069 -0.5772 -0.7573  0.9419
  733SOL     MW 2932   2.339   2.822   3.074 -0.3658 -0.1819  0.1095
  734SOL     OW 2933   1.498   0.385   2.449 -0.1268 -0.1395 -0.1899
  734SOL    HW1 2934   1.493   0.337   2.532 -0.0101 -0.3288  0.6215
  734SOL    HW2 2935   1.517   0.311   2.395 -1.4098  1.8968  2.8166
  734SOL     MW 2936   1.500   0.369   2.453 -0.2807  0.1042  0.3139
  735SOL     OW 2937   3.033   0.990   2.638 -0.5921 -0.0529 -0.3836
  735SOL    HW1 2938   3.030   0.892   2.636  0.2974 -0.2779 -1.7131
  735SOL    HW2 2939   3.052   1.010   2.727  1.4489  0.9655 -2.0327
  735SOL     MW 2940   3.035   0.979   2.650 -0.2054  0.0518 -0.7766
  736SOL     OW 2941   0.071   0.597   2.549  0.1934 -0.1163  0.7067
  736SOL    HW1 2942   0.121   0.646   2.481  0.6259  1.5357  1.1524
  736SOL    HW2 2943   0.064   0.508   2.507 -0.1724  0.0550  0.8077
  736SOL     MW 2944   0.077   0.591   2.534  0.2022  0.1243  0.7788
  737SOL     OW 2945   2.917   0.703   2.615 -0.2485 -0.3654 -0.1725
  737SOL    HW1 2946   2.848   0.688   2.547  0.2096  1.9635 -1.6710
  737SOL    HW2 2947   2.994   0.663   2.578 -1.8046 -0.4108  1.5819
  737SOL     MW 2948   2.918   0.696   2.601 -0.3934 -0.0641 -0.1388
  738SOL     OW 2949   0.162   0.534   1.987 -0.3501  0.3216 -0.1246
  738SOL    HW1 2950   0.246   0.571   1.965  1.7534 -2.8430  0.6695
  738SOL    HW2 2951   0.170   0.453   1.932  1.5811  0.8161 -1.3844
  738SOL     MW 2952   0.174   0.528   1.977  0.1822 -0.0307 -0.1860
  739SOL     OW 2953   2.539   0.946   2.158 -0.7004 -0.2315 -0.4299
  739SOL    HW1 2954   2.449   0.906   2.161 -0.6038  0.4882  0.0513
  739SOL    HW2 2955   2.549   0.988   2.073  0.6748  0.7621  0.1872
  739SOL     MW 2956   2.528   0.947   2.147 -0.5062 -0.0055 -0.2850
  740SOL     OW 2957   0.148   1.773   2.963 -0.9640  0.5199 -0.0145
  740SOL    HW1 2958   0.101   1.692   2.940 -0.2503 -0.5944 -0.6998
  740SOL    HW2 2959   0.229   1.738   3.007 -1.0714 -0.8189 -2.5696
  740SOL     MW 2960   0.153   1.757   2.966 -0.8840  0.1963 -0.4421
  741SOL     OW 2961   2.213   1.201   2.706  0.2980  0.3327 -0.0545
  741SOL    HW1 2962   2.204   1.278   2.643  2.1831  0.8388  0.5007
  741SOL    HW2 2963   2.203   1.226   2.799  2.1287 -1.4151 -0.7491
  741SOL     MW 2964   2.210   1.214   2.710  0.7882  0.1689 -0.0729
  742SOL     OW 2965   1.656   1.362   2.280  0.0456  0.4010 -0.1184
  742SOL    HW1 2966   1.620   1.273   2.279 -1.3290  2.1167 -1.8406
  742SOL    HW2 2967   1.631   1.400   2.367 -0.0304  0.9812  2.4887
  742SOL     MW 2968   1.648   1.355   2.291 -0.1458  0.7039 -0.0016
  743SOL     OW 2969   2.501   1.233   2.691 -0.4122 -0.1105  0.2647
  743SOL    HW1 2970   2.413   1.214   2.719  1.4849 -0.7182 -0.1575
  743SOL    HW2 2971   2.538   1.148   2.731  0.7122  0.2923 -0.7833
  743SOL     MW 2972   2.494   1.219   2.700 -0.0136 -0.1375  0.0707
  744SOL     OW 2973   2.793   0.984   1.835 -0.2862  0.5735  0.0357
  744SOL    HW1 2974   2.713   1.032   1.863 -1.3809  0.2456  0.2613
  744SOL    HW2 2975   2.774   0.930   1.759  1.5132  0.6922 -1.5343
  744SOL     MW 2976   2.780   0.983   1.829 -0.1932  0.5459 -0.1417
  745SOL     OW 2977   1.770   0.429   2.468  0.4236  0.0184 -0.4690
  745SOL    HW1 2978   1.808   0.427   2.380 -0.7251  0.0838 -0.7764
  745SOL    HW2 2979   1.677   0.433   2.458 -0.2524  1.1304 -1.0566
  745SOL     MW 2980   1.763   0.429   2.455  0.1829  0.1738 -0.5871
  746SOL     OW 2981   1.511   1.468   1.690 -0.2613  0.1486  0.0782
  746SOL    HW1 2982   1.537   1.557   1.713  0.7256  0.3421  1.1265
  746SOL    HW2 2983   1.510   1.429   1.773 -1.8408  1.5731 -1.9280
  746SOL     MW 2984   1.515   1.475   1.704 -0.3395  0.3620 -0.0482
  747SOL     OW 2985   2.566   1.104   1.921  0.3045  0.6269  0.0888
  747SOL    HW1 2986   2.489   1.098   1.857  0.5230  2.4219 -1.1955
  747SOL    HW2 2987   2.554   1.185   1.967  1.1389 -1.4412  0.5348
  747SOL     MW 2988   2.555   1.114   1.919  0.4434  0.5909 -0.0218
  748SOL     OW 2989   0.087   3.063   1.913 -0.7783 -0.4959 -0.4036
  748SOL    HW1 2990   0.181   3.072   1.904 -1.5863 -1.2423 -0.7958
  748SOL    HW2 2991   0.061   3.135   1.963  1.6479 -0.0818 -0.6110
  748SOL     MW 2992   0.096   3.074   1.918 -0.5648 -0.5398 -0.4827
  749SOL     OW 2993   2.418   0.611   2.775  0.9356 -0.3457 -0.1422
  749SOL    HW1 2994   2.450   0.685   2.719 -1.4483  1.9786  0.8656
  749SOL    HW2 2995   2.459   0.637   2.862  0.3907  1.7524  3.7552
  749SOL     MW 2996   2.428   0.624   2.779  0.5492  0.2378  0.5050
  750SOL     OW 2997   2.075   3.045   1.938 -0.3761  0.6707  0.1876
  750SOL    HW1 2998   2.098   3.138   1.952 -1.1840 -2.7703 -1.0391
  750SOL    HW2 2999   2.148   2.997   1.962 -1.0037 -0.4402 -0.8295
  750SOL     MW 3000   2.088   3.051   1.943 -0.5655  0.0701 -0.1084
  751SOL     OW 3001   3.079   0.366   2.377  0.4041  0.4096 -0.1601
  751SOL    HW1 3002   2.999   0.404   2.347  1.1656 -0.2371  1.5695
  751SOL    HW2 3003   3.143   0.368   2.304  1.6189  1.2003 -1.7021
  751SOL     MW 3004   3.077   0.371   2.364  0.6648  0.4286 -0.1353
  752SOL     OW 3005   2.154   0.893   2.778 -0.6122 -0.0223  0.6708
  752SOL    HW1 3006   2.229   0.945   2.797 -2.3764  1.0298 -0.9260
  752SOL    HW2 3007   2.125   0.880   2.871  2.1722  0.6975  0.3440
  752SOL     MW 3008   2.160   0.898   2.793 -0.4776  0.2115  0.4170
  753SOL     OW 3009   2.820   0.427   2.308  0.1051  0.2497  0.1588
  753SOL    HW1 3010   2.765   0.356   2.335 -0.5280  1.0075 -0.0583
  753SOL    HW2 3011   2.776   0.509   2.334 -0.0270  2.2893  2.7274
  753SOL     MW 3012   2.807   0.429   2.315  0.0041  0.6188  0.4691
  754SOL     OW 3013   2.295   2.970   2.639 -0.5801  0.2968 -0.6448
  754SOL    HW1 3014   2.316   2.973   2.542  0.4086  3.1100 -1.3914
  754SOL    HW2 3015   2.368   2.929   2.685  0.0044  0.1593  0.8033
  754SOL     MW 3016   2.307   2.965   2.632 -0.3725  0.6498 -0.5523
  755SOL     OW 3017   2.795   1.585   2.487  0.1727 -0.1787 -0.3941
  755SOL    HW1 3018   2.768   1.499   2.518  0.6114  0.5334  0.7172
  755SOL    HW2 3019   2.846   1.632   2.555  2.0141 -0.8323  0.6935
  755SOL     MW 3020   2.798   1.580   2.500  0.4735 -0.1710 -0.1040
  756SOL     OW 3021   2.223   1.266   2.998  0.1485 -0.1435 -0.3967
  756SOL    HW1 3022   2.302   1.335   2.993  1.9659  3.6993  1.7859
  756SOL    HW2 3023   2.267   1.179   3.007  1.9593 -0.2396 -2.3662
  756SOL     MW 3024   2.240   1.263   2.998  0.6272  0.3509 -0.3686
  757SOL     OW 3025   2.196   0.959   1.653  0.3189 -0.4636 -0.0908
  757SOL    HW1 3026   2.192   0.860   1.652 -1.3803 -2.5519  1.4765
  757SOL    HW2 3027   2.119   0.986   1.597 -0.7207  1.9667 -2.0222
  757SOL     MW 3028   2.186   0.949   1.646 -0.0424 -0.4185 -0.1388
  758SOL     OW 3029   2.249   1.827   2.625  0.6113 -0.5810 -0.3430
  758SOL    HW1 3030   2.250   1.838   2.525 -0.3346  1.2332  0.1074
  758SOL    HW2 3031   2.333   1.787   2.642  0.8577  0.4986  0.0552
  758SOL     MW 3032   2.261   1.823   2.614  0.5190 -0.1992 -0.2310
  759SOL     OW 3033   1.533   1.431   2.773  0.1064 -0.5276 -0.2842
  759SOL    HW1 3034   1.541   1.508   2.723  1.5863 -1.7946 -2.1091
  759SOL    HW2 3035   1.619   1.427   2.826  1.3748 -2.2493  0.5647
  759SOL     MW 3036   1.546   1.441   2.773  0.4690 -0.9219 -0.4130
  760SOL     OW 3037   2.639   1.978   2.710 -0.0551  0.3382 -0.4474
  760SOL    HW1 3038   2.567   1.915   2.697  0.6891  2.8799  0.1497
  760SOL    HW2 3039   2.722   1.940   2.685 -2.4654  0.3620 -0.6040
  760SOL     MW 3040   2.641   1.965   2.705 -0.2749  0.6767 -0.3893
  761SOL     OW 3041   2.190   0.447   2.455 -0.1644  0.2261 -0.2302
  761SOL    HW1 3042   2.108   0.403   2.457 -1.2174 -2.3188  1.4875
  761SOL    HW2 3043   2.182   0.509   2.524 -3.8976  0.2914  1.9888
  761SOL     MW 3044   2.178   0.449   2.464 -0.7959 -0.1010  0.2892
  762SOL     OW 3045   0.031   0.159   2.098  0.2040  0.3606 -0.1254
  762SOL    HW1 3046  -0.005   0.115   2.175 -1.3206 -0.8008 -0.4719
  762SOL    HW2 3047  -0.038   0.224   2.078  1.2738 -0.1557 -3.3760
  762SOL     MW 3048   0.017   0.162   2.105  0.1440  0.1393 -0.6000
  763SOL     OW 3049   2.439   1.152   2.344 -0.4217  0.5246  0.7817
  763SOL    HW1 3050   2.490   1.094   2.288 -0.0904 -2.2252  1.9906
  763SOL    HW2 3051   2.495   1.208   2.392 -0.8842  1.0436 -1.0043
  763SOL     MW 3052   2.453   1.152   2.343 -0.4390  0.2303  0.7055
  764SOL     OW 3053   0.346   0.174   2.774 -0.8590  0.1649 -0.1557
  764SOL    HW1 3054   0.261   0.198   2.736  1.3515  2.7801 -0.1633
  764SOL    HW2 3055   0.347   0.227   2.854  0.3951 -1.7747 -1.6411
  764SOL     MW 3056   0.335   0.184   2.780 -0.4018  0.2540 -0.3527
  765SOL     OW 3057   2.727   0.160   2.337  0.6421  0.3853  0.1526
  765SOL    HW1 3058   2.704   0.134   2.248  0.8002 -1.0419 -0.7192
  765SOL    HW2 3059   2.796   0.098   2.362  0.7659  1.2412  2.4774
  765SOL     MW 3060   2.733   0.148   2.329  0.6793  0.3099  0.3443
  766SOL     OW 3061   1.851   3.016   2.112 -0.0683 -0.5671 -0.2919
  766SOL    HW1 3062   1.911   3.032   2.041  0.2465  0.7456 -0.7459
  766SOL    HW2 3063   1.790   2.946   2.081 -3.4254  2.0064 -0.8921
  766SOL     MW 3064   1.851   3.009   2.099 -0.4697 -0.0543 -0.4310
  767SOL     OW 3065   2.685   0.619   1.948  0.5580 -0.1690  0.0984
  767SOL    HW1 3066   2.753   0.668   1.987  0.0481  0.3756 -1.3605
  767SOL    HW2 3067   2.605   0.674   1.957  1.1977  0.8993  2.4278
  767SOL     MW 3068   2.684   0.632   1.954  0.5751  0.0438  0.2132
  768SOL     OW 3069   0.030   1.448   2.975  0.3147  0.0402 -0.3993
  768SOL    HW1 3070   0.060   1.471   3.064 -0.8342  0.5189 -1.3103
  768SOL    HW2 3071   0.070   1.361   2.952  0.5614  1.2315 -0.1990
  768SOL     MW 3072   0.039   1.440   2.984  0.1956  0.2605 -0.4931
  769SOL     OW 3073   2.378   0.670   2.440  0.1640 -0.3658 -0.4255
  769SOL    HW1 3074   2.390   0.579   2.464  3.6805 -1.9254  1.7112
  769SOL    HW2 3075   2.431   0.680   2.364  3.0998 -2.4220  3.1018
  769SOL     MW 3076   2.386   0.659   2.433  1.0153 -0.8428  0.3218
  770SOL     OW 3077   0.059   1.607   2.646  0.2930  0.1220 -0.0594
  770SOL    HW1 3078  -0.027   1.637   2.671 -0.7537  0.9941 -1.4457
  770SOL    HW2 3079   0.074   1.514   2.674 -0.2389  1.4860  0.6084
  770SOL     MW 3080   0.050   1.599   2.653  0.0847  0.4170 -0.1542
  771SOL     OW 3081   2.992   0.560   1.958 -0.2846 -0.1079  0.2393
  771SOL    HW1 3082   2.985   0.556   1.867  0.0355  0.0370 -0.2591
  771SOL    HW2 3083   3.084   0.572   1.969  0.3195  1.3468  2.3220
  771SOL     MW 3084   3.003   0.561   1.948 -0.1627  0.1031  0.4484
  772SOL     OW 3085   0.011   3.087   2.314 -0.0604 -0.4166  0.0717
  772SOL    HW1 3086  -0.061   3.069   2.373  0.7529 -0.3772 -0.8668
  772SOL    HW2 3087   0.049   3.003   2.284 -0.1781 -1.5128  2.4636
  772SOL     MW 3088   0.007   3.073   2.318  0.0314 -0.5560  0.2635
  773SOL     OW 3089   2.479   2.848   2.811 -0.1414 -0.1669 -0.1731
  773SOL    HW1 3090   2.490   2.754   2.777  1.2375 -2.0212 -2.8050
  773SOL    HW2 3091   2.451   2.843   2.905  0.0405 -0.7904  2.1004
  773SOL     MW 3092   2.477   2.835   2.819  0.0645 -0.4938 -0.2204
  774SOL     OW 3093   2.294   1.187   1.828 -0.2647 -0.1983 -0.0977
  774SOL    HW1 3094   2.249   1.244   1.763 -1.5951 -1.3351  0.4461
  774SOL    HW2 3095   2.253   1.100   1.826 -2.1666 -3.4162 -1.4100
  774SOL     MW 3096   2.283   1.183   1.819 -0.6912 -0.7729 -0.1991
  775SOL     OW 3097   2.282   2.955   2.336  0.2120  0.3209 -0.1058
  775SOL    HW1 3098   2.308   3.026   2.277  2.0203  0.8972 -0.5529
  775SOL    HW2 3099   2.342   2.882   2.316 -0.7338  1.2018  3.1364
  775SOL     MW 3100   2.293   2.955   2.325  0.3258  0.5132  0.2630
  776SOL     OW 3101   0.109   1.535   0.120 -0.2970 -0.0411  0.2269
  776SOL    HW1 3102   0.200   1.503   0.099  0.7776 -2.0752  0.0256
  776SOL    HW2 3103   0.065   1.467   0.174  1.7421 -2.4807 -3.3381
  776SOL     MW 3104   0.115   1.522   0.125  0.1138 -0.6313 -0.2700
  777SOL     OW 3105   3.003   1.118   1.735  0.7091  0.4117 -0.2295
  777SOL    HW1 3106   2.979   1.164   1.654  4.0991  0.4976  0.9589
  777SOL    HW2 3107   2.937   1.062   1.772 -0.8617  0.3056 -2.0906
  777SOL     MW 3108   2.991   1.117   1.729  0.9491  0.4090 -0.3183
  778SOL     OW 3109   2.798   0.422   2.712 -0.2080  0.0425 -0.5484
  778SOL    HW1 3110   2.762   0.442   2.800  1.3592 -2.7349 -2.8295
  778SOL    HW2 3111   2.855   0.498   2.695 -1.4994  2.0158  0.0823
  778SOL     MW 3112   2.801   0.435   2.721 -0.1716 -0.0636 -0.7661
  779SOL     OW 3113   2.235   0.563   2.162  0.1162  0.2658  0.6087
  779SOL    HW1 3114   2.145   0.581   2.185  1.4820  1.8958 -1.2305
  779SOL    HW2 3115   2.258   0.482   2.216  1.1279  0.2161  1.0641
  779SOL     MW 3116   2.227   0.555   2.172  0.4299  0.4743  0.4261
  780SOL     OW 3117   0.117   0.299   2.681  0.2053  0.4013  0.4231
  780SOL    HW1 3118   0.040   0.263   2.642  1.1165 -1.6401 -1.9450
  780SOL    HW2 3119   0.097   0.340   2.760 -0.3761  3.3576 -3.1457
  780SOL     MW 3120   0.104   0.300   2.686  0.2488  0.5220 -0.3602
  781SOL     OW 3121   3.039   1.317   2.460  0.5643  0.1561 -0.3738
  781SOL    HW1 3122   3.033   1.395   2.402 -0.9558 -0.5332 -0.5370
  781SOL    HW2 3123   3.062   1.251   2.399 -0.5215  0.4119 -1.3876
  781SOL     MW 3124   3.041   1.319   2.444  0.2205  0.0989 -0.5291
  782SOL     OW 3125   0.617   1.566   0.051  0.5111  0.5101 -0.4710
  782SOL    HW1 3126   0.525   1.551   0.011  3.7557 -0.9456  0.7189
  782SOL    HW2 3127   0.609   1.660   0.074 -3.1440  1.8035 -0.4743
  782SOL     MW 3128   0.604   1.576   0.049  0.4570  0.4887 -0.3145
  783SOL     OW 3129   2.711   0.623   2.445  0.1539  0.2111  0.4766
  783SOL    HW1 3130   2.663   0.675   2.380  1.6603  0.6852  2.7481
  783SOL    HW2 3131   2.639   0.568   2.480 -2.1815  0.2309 -0.7214
  783SOL     MW 3132   2.696   0.623   2.441  0.0445  0.2762  0.6182
  784SOL     OW 3133   0.173   0.862   2.875 -0.8677  0.1571  0.0242
  784SOL    HW1 3134   0.081   0.896   2.873  0.6936 -2.1905 -0.1011
  784SOL    HW2 3135   0.207   0.888   2.785  0.2321 -0.3607 -0.1434
  784SOL     MW 3136   0.165   0.870   2.863 -0.5166 -0.2210 -0.0145
  785SOL     OW 3137   0.439   0.451   2.187 -0.1506  0.4098 -0.9646
  785SOL    HW1 3138   0.442   0.461   2.090  5.6071 -0.0755 -0.2827
  785SOL    HW2 3139   0.360   0.401   2.197  0.0546  1.2781 -1.1633
  785SOL     MW 3140   0.429   0.446   2.175  0.6361  0.4603 -0.9009
  786SOL     OW 3141   1.901   0.392   2.966  0.0297 -0.3105 -0.1409
  786SOL    HW1 3142   1.869   0.470   3.004 -2.6106  1.0423 -2.0691
  786SOL    HW2 3143   1.958   0.415   2.895  2.1751 -3.0036  1.5800
  786SOL     MW 3144   1.904   0.405   2.962 -0.0356 -0.4874 -0.1682
  787SOL     OW 3145   2.472   0.091   2.937  0.0749 -0.2855 -0.0522
  787SOL    HW1 3146   2.538   0.041   2.878  2.4210  1.8679 -3.3617
  787SOL    HW2 3147   2.528   0.127   3.007 -0.8038 -0.8770  1.8622
  787SOL     MW 3148   2.488   0.089   2.939  0.2685 -0.0794 -0.2363
  788SOL     OW 3149   2.860   3.048   2.424  0.5996  0.2539  0.0176
  788SOL    HW1 3150   2.877   3.051   2.518  0.9763  1.0151  0.6517
  788SOL    HW2 3151   2.852   2.955   2.393 -1.8667 -2.3706  2.2827
  788SOL     MW 3152   2.862   3.036   2.432  0.3239  0.0080  0.4001
  789SOL     OW 3153   0.086   0.189   3.033 -0.2897  0.1976 -0.1671
  789SOL    HW1 3154   0.020   0.146   3.088 -2.6946  1.8406  1.4226
  789SOL    HW2 3155   0.033   0.264   2.997  1.1839  0.0003 -2.2683
  789SOL     MW 3156   0.071   0.194   3.036 -0.4126  0.3884 -0.2345
  790SOL     OW 3157   3.098   1.039   2.364 -0.1961 -0.2508 -0.1531
  790SOL    HW1 3158   3.056   1.019   2.448 -0.8133  1.7245 -0.2351
  790SOL    HW2 3159   3.028   1.037   2.297 -2.9809  0.3355 -1.8866
  790SOL     MW 3160   3.083   1.036   2.366 -0.6449  0.0872 -0.3926
  791SOL     OW 3161   2.547   0.446   2.581  0.3967 -0.5434 -0.4398
  791SOL    HW1 3162   2.500   0.458   2.674  1.3554  1.4745  3.0570
  791SOL    HW2 3163   2.637   0.414   2.599  2.0911 -0.6305  0.0045
  791SOL     MW 3164   2.553   0.443   2.596  0.7467 -0.2887  0.0802
  792SOL     OW 3165   2.331   0.211   2.427  0.2281 -0.2954  0.0455
  792SOL    HW1 3166   2.283   0.299   2.437 -2.9685 -0.0190 -0.2815
  792SOL    HW2 3167   2.329   0.163   2.509 -1.4890 -1.3313  0.1333
  792SOL     MW 3168   2.325   0.217   2.439 -0.4202 -0.3956  0.0139
  793SOL     OW 3169   1.912   1.155   1.990  0.7627  0.7278  0.1013
  793SOL    HW1 3170   1.901   1.142   1.892 -0.0931  0.8111 -1.3726
  793SOL    HW2 3171   1.999   1.108   1.987  2.4536  3.1515 -3.2597
  793SOL     MW 3172   1.922   1.147   1.977  0.8729  1.0585 -0.5366
  794SOL     OW 3173   1.407   2.364   0.129  0.1546  0.5554  0.1783
  794SOL    HW1 3174   1.448   2.436   0.078  2.8367  1.5619 -3.0231
  794SOL    HW2 3175   1.462   2.356   0.206 -0.5311  1.4205  0.4716
  794SOL     MW 3176   1.419   2.372   0.132  0.4180  0.8024 -0.2054
  795SOL     OW 3177   2.309   1.004   2.556  0.3258  0.1080 -0.2760
  795SOL    HW1 3178   2.262   1.069   2.614 -2.0747 -0.7669  0.7730
  795SOL    HW2 3179   2.359   1.060   2.497  2.5686  1.5205  0.7954
  795SOL     MW 3180   2.310   1.020   2.556  0.3050  0.1789  0.0038
  796SOL     OW 3181   0.252   0.623   2.750 -0.1548 -0.2763 -0.0782
  796SOL    HW1 3182   0.223   0.701   2.795 -3.1078  0.3138 -0.4160
  796SOL    HW2 3183   0.176   0.597   2.695  1.1565 -0.1718 -1.6358
  796SOL     MW 3184   0.238   0.630   2.749 -0.3714 -0.1847 -0.3283
  797SOL     OW 3185   2.616   0.137   2.574 -0.1458  0.3151  0.0654
  797SOL    HW1 3186   2.532   0.176   2.582  4.0640 -2.8836  2.7356
  797SOL    HW2 3187   2.633   0.133   2.474 -1.0062 -1.0058 -0.3488
  797SOL     MW 3188   2.607   0.142   2.562  0.2961 -0.2812  0.3631
  798SOL     OW 3189   2.354   0.095   2.149 -0.2082 -0.2702 -0.5223
  798SOL    HW1 3190   2.342   0.128   2.241  1.3727 -0.4182 -2.5419
  798SOL    HW2 3191   2.446   0.079   2.127 -0.1299 -0.5730  1.8742
  798SOL     MW 3192   2.364   0.098   2.159  0.0107 -0.3297 -0.4726
  799SOL     OW 3193   2.557   2.957   0.121  0.2592 -0.2521 -0.2466
  799SOL    HW1 3194   2.473   2.942   0.086  0.8877 -3.2250  0.1653
  799SOL    HW2 3195   2.540   2.971   0.216 -0.0102  1.6516 -0.6483
  799SOL     MW 3196   2.544   2.957   0.129  0.3066 -0.3932 -0.2452
  800SOL     OW 3197   1.931   0.053   1.737 -0.1024 -0.6131 -0.4186
  800SOL    HW1 3198   1.875  -0.007   1.688  0.1771  0.4718 -0.5786
  800SOL    HW2 3199   1.998  -0.005   1.770  2.6200 -0.0555 -1.7442
  800SOL     MW 3200   1.932   0.037   1.735  0.2937 -0.3964 -0.6146
  801SOL     OW 3201   2.815   1.242   2.598 -0.0295  0.2187  0.4304
  801SOL    HW1 3202   2.811   1.147   2.603  3.8514 -0.9332  2.4409
  801SOL    HW2 3203   2.900   1.264   2.553 -1.2262 -0.5895 -0.2819
  801SOL     MW 3204   2.826   1.232   2.593  0.3247 -0.0400  0.6017
  802SOL     OW 3205   2.597   1.483   2.798 -0.1676  0.0476  0.6280
  802SOL    HW1 3206   2.577   1.398   2.760  2.6004  0.9438  0.0471
  802SOL    HW2 3207   2.692   1.473   2.813  2.4018 -1.2282 -1.5559
  802SOL     MW 3208   2.607   1.470   2.795  0.5366 -0.0025  0.2632
  803SOL     OW 3209   2.232   1.351   2.032  0.0238  0.1367  0.0848
  803SOL    HW1 3210   2.227   1.325   2.123 -0.1115  3.9608  2.2200
  803SOL    HW2 3211   2.255   1.282   1.965 -0.7100 -1.4567  0.6273
  803SOL     MW 3212   2.234   1.338   2.035 -0.0908  0.4310  0.4381
  804SOL     OW 3213   2.260   0.079   0.056 -0.2426  0.1682 -0.1514
  804SOL    HW1 3214   2.197   0.153   0.064 -0.9212  0.7143 -0.9356
  804SOL    HW2 3215   2.332   0.114   0.000 -1.5893 -0.6708  1.7500
  804SOL     MW 3216   2.262   0.094   0.050 -0.5098  0.1296 -0.0040
  805SOL     OW 3217   2.754   0.947   2.593 -0.2892 -0.0437 -0.0117
  805SOL    HW1 3218   2.679   0.889   2.589  0.6165  0.1424 -0.0549
  805SOL    HW2 3219   2.825   0.890   2.608 -0.9684 -0.8700 -0.0231
  805SOL     MW 3220   2.753   0.932   2.595 -0.2593 -0.1282 -0.0189
  806SOL     OW 3221   2.505   0.650   2.215  0.1595 -0.7053  0.6191
  806SOL    HW1 3222   2.414   0.625   2.188  0.6598 -0.6853  1.6118
  806SOL    HW2 3223   2.518   0.733   2.175 -0.6350 -2.8451  1.5207
  806SOL     MW 3224   2.494   0.658   2.206  0.1207 -0.9850  0.8691
  807SOL     OW 3225   0.069   1.077   2.050  0.7310  0.1119 -0.2704
  807SOL    HW1 3226   0.078   0.980   2.040  2.1559  1.8663  3.0474
  807SOL    HW2 3227  -0.029   1.084   2.076  1.4168 -0.0842 -0.5184
  807SOL     MW 3228   0.057   1.065   2.052  1.0095  0.3175  0.1346
  808SOL     OW 3229   2.653   3.072   2.777 -0.3578  0.0911 -0.1020
  808SOL    HW1 3230   2.602   2.993   2.758 -1.4250 -1.0769  0.1324
  808SOL    HW2 3231   2.641   3.130   2.700 -1.2834 -0.4134  2.6163
  808SOL     MW 3232   2.645   3.069   2.765 -0.6208 -0.1296  0.2876
  809SOL     OW 3233   2.605   1.374   2.437 -0.7857  0.3678  0.4721
  809SOL    HW1 3234   2.637   1.332   2.513  0.1054  3.9488  0.9956
  809SOL    HW2 3235   2.669   1.348   2.363  0.8932  1.5672 -0.0347
  809SOL     MW 3236   2.617   1.365   2.437 -0.4466  0.9985  0.4743
  810SOL     OW 3237   2.231   1.315   2.300  0.2410 -0.1449 -0.1716
  810SOL    HW1 3238   2.310   1.272   2.325 -2.4562 -0.2490 -0.6705
  810SOL    HW2 3239   2.174   1.318   2.376  0.8694 -0.7628  1.5056
  810SOL     MW 3240   2.234   1.310   2.313 -0.0319 -0.2401 -0.0162
  811SOL     OW 3241   1.525   0.137   2.322 -0.2367  0.2249  0.0251
  811SOL    HW1 3242   1.614   0.098   2.337  2.1871  1.8188  0.1798
  811SOL    HW2 3243   1.512   0.139   2.229 -0.6682  0.3585  0.8956
  811SOL     MW 3244   1.535   0.132   2.312  0.0261  0.4529  0.1604
  812SOL     OW 3245   1.471   2.784   2.008 -0.2616 -0.2395  0.1812
  812SOL    HW1 3246   1.556   2.803   1.965 -2.0006 -1.0197  0.4108
  812SOL    HW2 3247   1.491   2.782   2.103  0.9449 -1.6420 -2.2956
  812SOL     MW 3248   1.485   2.786   2.014 -0.3319 -0.5275 -0.1153
  813SOL     OW 3249   1.981   0.610   2.236 -0.4963  0.2961  0.2609
  813SOL    HW1 3250   1.908   0.554   2.206 -3.2972 -1.3953 -0.2874
  813SOL    HW2 3251   1.947   0.643   2.314 -1.9894 -0.5101 -1.0574
  813SOL     MW 3252   1.967   0.607   2.243 -1.0629 -0.0335  0.0146
  814SOL     OW 3253   2.702   1.262   1.644 -0.3422 -0.2947 -0.3906
  814SOL    HW1 3254   2.637   1.230   1.700  0.3921  0.5574 -2.1703
  814SOL    HW2 3255   2.706   1.195   1.568 -1.5016 -1.2626 -0.5110
  814SOL     MW 3256   2.694   1.249   1.641 -0.3983 -0.3099 -0.6413
  815SOL     OW 3257   2.580   1.742   2.412 -0.4580 -0.1518  0.5571
  815SOL    HW1 3258   2.499   1.685   2.423  1.3398 -1.4234 -1.0754
  815SOL    HW2 3259   2.660   1.691   2.393  2.4898 -0.2610 -0.3804
  815SOL     MW 3260   2.580   1.728   2.411  0.1681 -0.3340  0.2180
  816SOL     OW 3261   0.726   0.715   2.722  0.0757 -0.8985 -0.5243
  816SOL    HW1 3262   0.761   0.629   2.762  3.1918 -1.8351 -1.9301
  816SOL    HW2 3263   0.627   0.688   2.719 -2.4460  0.3394  0.6831
  816SOL     MW 3264   0.718   0.700   2.727  0.1541 -0.8587 -0.5505
  817SOL     OW 3265   2.993   1.206   1.451  0.3770  0.0793 -0.1016
  817SOL    HW1 3266   3.081   1.178   1.448  2.5957  0.7812 -0.8239
  817SOL    HW2 3267   2.984   1.290   1.395  0.9780  1.0295  0.7513
  817SOL     MW 3268   3.003   1.213   1.443  0.7491  0.2973 -0.0844
  818SOL     OW 3269   1.908   1.054   2.682 -0.0962 -0.7856  0.3814
  818SOL    HW1 3270   1.877   1.027   2.596  0.6995  1.2120  1.4204
  818SOL    HW2 3271   1.989   1.001   2.697 -0.2282 -1.2060 -0.3396
  818SOL     MW 3272   1.915   1.043   2.673 -0.0086 -0.5775  0.4233
  819SOL     OW 3273   1.994   0.273   2.517  0.1615 -0.1198 -0.1106
  819SOL    HW1 3274   1.911   0.328   2.535 -1.3022 -0.2415  0.0439
  819SOL    HW2 3275   2.038   0.259   2.602 -0.8634 -1.3348 -0.7221
  819SOL     MW 3276   1.989   0.279   2.530 -0.1669 -0.2961 -0.1709
  820SOL     OW 3277   2.520   1.718   2.668 -0.1827  0.3193 -0.3880
  820SOL    HW1 3278   2.563   1.642   2.708  1.6791  2.3805 -2.5090
  820SOL    HW2 3279   2.559   1.728   2.576  0.5796  0.6825  0.0969
  820SOL     MW 3280   2.531   1.710   2.661  0.1635  0.6392 -0.6039
  821SOL     OW 3281   2.570   1.364   2.006  0.7543  0.2238 -0.2713
  821SOL    HW1 3282   2.587   1.410   1.924 -3.1192 -3.8081  2.8214
  821SOL    HW2 3283   2.480   1.383   2.043 -0.5435  0.6992 -1.1007
  821SOL     MW 3284   2.560   1.373   2.000  0.0720 -0.2455  0.0273
  822SOL     OW 3285   2.805   2.671   1.411 -0.3850 -0.3147 -0.4834
  822SOL    HW1 3286   2.829   2.665   1.508 -2.3149 -0.7523  0.8065
  822SOL    HW2 3287   2.788   2.761   1.400 -2.8096 -0.4469 -2.1941
  822SOL     MW 3288   2.806   2.682   1.422 -0.9595 -0.3899 -0.5389
  823SOL     OW 3289   2.380   0.482   1.799 -0.4369 -0.1638 -0.9889
  823SOL    HW1 3290   2.431   0.448   1.732 -0.2149  0.3189  2.9846
  823SOL    HW2 3291   2.374   0.421   1.877  1.8514 -2.6980 -1.6609
  823SOL     MW 3292   2.386   0.470   1.801 -0.1057 -0.4345 -0.5533
  824SOL     OW 3293   2.177   1.421   2.567 -0.6446  0.1788 -0.7512
  824SOL    HW1 3294   2.244   1.476   2.523  0.5400 -1.3819 -1.6267
  824SOL    HW2 3295   2.131   1.480   2.623  0.0069 -0.9701  0.4952
  824SOL     MW 3296   2.180   1.436   2.569 -0.4023 -0.1787 -0.7023
  825SOL     OW 3297   1.889   2.518   0.279 -0.9027  0.7575 -0.1159
  825SOL    HW1 3298   1.862   2.472   0.354 -1.6684  1.9790 -3.0525
  825SOL    HW2 3299   1.956   2.465   0.235 -0.7156 -0.5640 -0.0665
  825SOL     MW 3300   1.894   2.505   0.283 -0.9790  0.7443 -0.4968
  826SOL     OW 3301   1.817   2.397   0.510  0.5211 -0.2182  0.5621
  826SOL    HW1 3302   1.779   2.322   0.557  1.3432 -0.5416 -0.9521
  826SOL    HW2 3303   1.802   2.472   0.568  2.4485 -1.9995 -0.0515
  826SOL     MW 3304   1.810   2.397   0.524  0.8838 -0.4959  0.2814
  827SOL     OW 3305   1.922   2.192   0.827  0.3497 -0.1168  1.1284
  827SOL    HW1 3306   1.845   2.197   0.770 -0.1356 -1.3391  4.3140
  827SOL    HW2 3307   1.878   2.130   0.893  0.2931  0.1054  0.6936
  827SOL     MW 3308   1.906   2.185   0.828  0.2782 -0.2487  1.4914
  828SOL     OW 3309   0.045   2.565   0.571  0.1424  0.4280  0.0825
  828SOL    HW1 3310   0.138   2.576   0.557 -1.1025  0.0758 -0.3158
  828SOL    HW2 3311   0.017   2.615   0.497 -0.6044 -2.0293 -0.4206
  828SOL     MW 3312   0.054   2.573   0.559 -0.1204  0.0573 -0.0364
  829SOL     OW 3313   2.986   2.951   1.157  0.3646  0.5811 -0.0140
  829SOL    HW1 3314   2.903   2.942   1.105 -0.4843  1.0590 -0.5471
  829SOL    HW2 3315   3.039   2.875   1.127  0.2302  1.1511  0.1092
  829SOL     MW 3316   2.982   2.939   1.146  0.2349  0.7193 -0.0681
  830SOL     OW 3317   2.576   2.812   2.026 -0.2445  0.1647  0.4594
  830SOL    HW1 3318   2.480   2.793   1.997 -3.2095  1.4312 -2.2991
  830SOL    HW2 3319   2.631   2.788   1.953  0.7817 -0.0596 -1.6637
  830SOL     MW 3320   2.571   2.807   2.013 -0.5003  0.3022 -0.1846
  831SOL     OW 3321   2.366   2.487   1.213  0.3384  0.5803  0.1468
  831SOL    HW1 3322   2.332   2.441   1.286  1.0429 -2.6620 -0.1836
  831SOL    HW2 3323   2.449   2.451   1.180 -1.4026  1.0556  0.8832
  831SOL     MW 3324   2.372   2.476   1.218  0.2016  0.2152  0.2003
  832SOL     OW 3325   2.360   2.194   1.911  0.0731 -0.4795  0.1712
  832SOL    HW1 3326   2.390   2.275   1.949 -2.1658  2.5400  0.1507
  832SOL    HW2 3327   2.445   2.158   1.884  0.5659  3.7107  1.6547
  832SOL     MW 3328   2.375   2.200   1.912 -0.1572  0.4717  0.3642
  833SOL     OW 3329   1.725   2.457   0.884  0.4817 -0.0343  0.7993
  833SOL    HW1 3330   1.637   2.426   0.878 -0.9649  2.6265  2.3972
  833SOL    HW2 3331   1.716   2.531   0.933  0.6793 -3.6874 -1.2256
  833SOL     MW 3332   1.712   2.462   0.890  0.3169 -0.1652  0.7430
  834SOL     OW 3333   2.112   2.456   0.588  0.4213 -0.0308  0.6960
  834SOL    HW1 3334   2.025   2.431   0.547 -3.1735  0.9949 -0.7998
  834SOL    HW2 3335   2.170   2.418   0.510 -0.6476 -0.2389  1.0585
  834SOL     MW 3336   2.108   2.448   0.572 -0.1940  0.0771  0.5464
  835SOL     OW 3337   1.760   2.607   0.653  0.0415  0.3483  0.6580
  835SOL    HW1 3338   1.742   2.551   0.738 -0.5000 -1.3867  2.1658
  835SOL    HW2 3339   1.826   2.660   0.687 -2.3371  0.6123 -2.4333
  835SOL     MW 3340   1.767   2.607   0.669 -0.3437  0.1542  0.4491
  836SOL     OW 3341   1.930   2.215   1.625 -0.3491  0.1895  0.3703
  836SOL    HW1 3342   2.018   2.251   1.631 -0.6831 -0.4395 -1.7167
  836SOL    HW2 3343   1.870   2.289   1.616 -1.3910 -0.3115 -0.5079
  836SOL     MW 3344   1.934   2.229   1.624 -0.5306  0.0404 -0.0210
  837SOL     OW 3345   2.089   0.207   0.679 -0.0329 -0.4875  0.1680
  837SOL    HW1 3346   2.007   0.243   0.641 -2.8702 -3.3829  0.0489
  837SOL    HW2 3347   2.121   0.153   0.606 -2.6545  0.2020 -0.6956
  837SOL     MW 3348   2.082   0.204   0.664 -0.7531 -0.7785  0.0383
  838SOL     OW 3349   2.937   2.052   0.912 -0.2489  0.4118  0.1959
  838SOL    HW1 3350   2.876   2.013   0.975 -1.1879 -0.0960 -1.2773
  838SOL    HW2 3351   2.993   1.979   0.894 -1.9120 -0.8391 -1.0843
  838SOL     MW 3352   2.937   2.037   0.918 -0.5922  0.1797 -0.1674
  839SOL     OW 3353   1.477   2.346   0.981  0.1256 -0.1772 -0.3676
  839SOL    HW1 3354   1.488   2.384   1.071  0.5145  4.1105 -2.9966
  839SOL    HW2 3355   1.505   2.251   0.983 -0.1188 -3.3575 -1.7618
  839SOL     MW 3356   1.482   2.338   0.993  0.1447 -0.0311 -0.8984
  840SOL     OW 3357   2.363   2.161   2.439 -0.0579  0.0694 -0.2264
  840SOL    HW1 3358   2.282   2.204   2.401  3.4829  0.6655 -1.9194
  840SOL    HW2 3359   2.392   2.218   2.508 -1.8647 -1.8499  2.2240
  840SOL     MW 3360   2.356   2.174   2.443  0.1709 -0.1052 -0.1265
  841SOL     OW 3361   2.118   2.429   0.134 -0.2745 -0.1858  0.1532
  841SOL    HW1 3362   2.167   2.481   0.068  2.7501  0.0896  0.4046
  841SOL    HW2 3363   2.090   2.355   0.080  0.5997  2.2678 -0.5944
  841SOL     MW 3364   2.120   2.426   0.118  0.2399  0.1743  0.0877
  842SOL     OW 3365   2.596   2.083   1.538 -0.4812 -0.1693 -0.4074
  842SOL    HW1 3366   2.557   2.003   1.565 -3.0241  1.9445  1.4470
  842SOL    HW2 3367   2.557   2.087   1.453  0.0115  0.6510  1.1399
  842SOL     MW 3368   2.585   2.073   1.530 -0.7517  0.2178  0.0414
  843SOL     OW 3369   2.670   2.773   1.756 -0.3362 -0.1109 -0.4425
  843SOL    HW1 3370   2.759   2.728   1.732  1.4534 -1.8708 -0.6463
  843SOL    HW2 3371   2.604   2.696   1.749 -0.6718 -4.2998  0.9522
  843SOL     MW 3372   2.673   2.757   1.752 -0.1443 -0.8958 -0.2854
  844SOL     OW 3373   2.581   2.321   1.149  0.0285 -0.0973 -0.3042
  844SOL    HW1 3374   2.621   2.362   1.070  3.4299  0.0765  2.4002
  844SOL    HW2 3375   2.644   2.347   1.213 -0.7156  0.5710 -0.8885
  844SOL     MW 3376   2.595   2.330   1.147  0.3791  0.0138 -0.0245
  845SOL     OW 3377   2.824   2.445   0.296 -0.0469 -0.0803  0.1759
  845SOL    HW1 3378   2.770   2.364   0.291 -0.7054  0.3796 -0.5704
  845SOL    HW2 3379   2.830   2.476   0.384  0.7997  2.8139 -0.9512
  845SOL     MW 3380   2.818   2.438   0.307 -0.0221  0.3622 -0.0713
  846SOL     OW 3381   1.540   2.901   0.752 -0.1207  0.5113 -0.3625
  846SOL    HW1 3382   1.584   2.963   0.808  1.1558  1.2010 -1.0922
  846SOL    HW2 3383   1.443   2.906   0.774 -2.4464 -0.4416  1.1339
  846SOL     MW 3384   1.533   2.910   0.762 -0.2591  0.4766 -0.2613
  847SOL     OW 3385   2.600   1.931   0.173 -0.0415 -0.2937 -0.1321
  847SOL    HW1 3386   2.673   1.868   0.175 -1.3619  1.9811  0.3218
  847SOL    HW2 3387   2.535   1.889   0.112  2.2487 -1.9088  0.4529
  847SOL     MW 3388   2.601   1.917   0.165  0.0865 -0.2067  0.0050
  848SOL     OW 3389   2.459   2.141   1.303 -0.7355 -0.4455 -0.1530
  848SOL    HW1 3390   2.498   2.193   1.235 -2.7885 -0.3716 -2.0363
  848SOL    HW2 3391   2.448   2.052   1.279 -1.0756 -0.5003  0.8352
  848SOL     MW 3392   2.463   2.136   1.291 -1.0513 -0.4430 -0.2711
  849SOL     OW 3393   1.983   2.787   0.744 -0.1246 -0.1888 -0.1429
  849SOL    HW1 3394   2.012   2.743   0.821  0.0831  0.1746 -2.4862
  849SOL    HW2 3395   2.066   2.760   0.689 -0.1505  3.3824 -0.7630
  849SOL     MW 3396   1.998   2.778   0.747 -0.1006  0.3303 -0.5339
  850SOL     OW 3397   2.220   1.945   1.680 -0.1115  0.3629 -0.4150
  850SOL    HW1 3398   2.130   1.905   1.658 -2.0335 -1.1522  2.4477
  850SOL    HW2 3399   2.198   2.040   1.664 -1.6740 -0.8983 -0.1173
  850SOL     MW 3400   2.205   1.952   1.675 -0.5712 -0.0034  0.0020
  851SOL     OW 3401   2.254   2.387   0.369 -0.0986  0.8174 -0.2057
  851SOL    HW1 3402   2.194   2.425   0.298  1.6501 -0.6855  1.8389
  851SOL    HW2 3403   2.338   2.434   0.357  1.1259  1.3407  2.5391
  851SOL     MW 3404   2.257   2.398   0.358  0.2937  0.6882  0.4262
  852SOL     OW 3405   2.308   2.172   0.178  0.4266 -0.5517 -0.3201
  852SOL    HW1 3406   2.310   2.251   0.240  0.0544  0.9687 -0.4746
  852SOL    HW2 3407   2.398   2.166   0.135 -0.4618 -1.6095  1.5601
  852SOL     MW 3408   2.320   2.182   0.180  0.2603 -0.4907 -0.0924
  853SOL     OW 3409   2.470   2.447   1.982 -0.0010  0.2903 -0.2321
  853SOL    HW1 3410   2.490   2.487   1.898 -2.0725 -0.5936 -2.3806
  853SOL    HW2 3411   2.562   2.434   2.014  0.5157  0.9446  1.5474
  853SOL     MW 3412   2.485   2.451   1.975 -0.2062  0.2600 -0.2808
  854SOL     OW 3413   2.840   2.277   0.793 -0.3625  0.1222  0.0542
  854SOL    HW1 3414   2.768   2.267   0.733 -0.0098 -0.8268 -0.5837
  854SOL    HW2 3415   2.860   2.185   0.818  1.7830  0.3656 -0.9659
  854SOL     MW 3416   2.833   2.263   0.788 -0.0329  0.0291 -0.1646
  855SOL     OW 3417   2.662   2.224   0.320  0.2029 -0.3137 -0.1806
  855SOL    HW1 3418   2.633   2.277   0.398 -0.9359 -1.1224  3.2130
  855SOL    HW2 3419   2.742   2.181   0.337 -0.2107  1.2680 -0.0655
  855SOL     MW 3420   2.669   2.226   0.332 -0.0020 -0.2117  0.2824
  856SOL     OW 3421   2.185   1.938   0.225  0.3512 -0.5387  0.3775
  856SOL    HW1 3422   2.090   1.953   0.233 -0.5449 -1.4884 -2.3961
  856SOL    HW2 3423   2.235   2.020   0.220  0.4675 -1.2751  1.3808
  856SOL     MW 3424   2.179   1.951   0.225  0.2483 -0.7611  0.1440
  857SOL     OW 3425   2.587   2.007   0.491 -0.0128  0.5282 -0.0292
  857SOL    HW1 3426   2.590   2.075   0.416  2.1368  4.2974 -0.8790
  857SOL    HW2 3427   2.536   1.942   0.458  0.0082  1.6320  0.4365
  857SOL     MW 3428   2.581   2.008   0.477  0.2736  1.1711 -0.0799
  858SOL     OW 3429   2.896   2.644   1.675 -0.3957  0.0687 -0.1345
  858SOL    HW1 3430   2.965   2.705   1.713 -2.0234  1.4734  0.3572
  858SOL    HW2 3431   2.903   2.558   1.717  0.3954  0.7506 -2.4592
  858SOL     MW 3432   2.906   2.641   1.685 -0.5061  0.3440 -0.3763
  859SOL     OW 3433   2.123   2.490   0.858 -0.0605 -0.0200  0.1831
  859SOL    HW1 3434   2.095   2.464   0.768  1.6912 -0.4666  0.8478
  859SOL    HW2 3435   2.216   2.454   0.863  1.3997  1.3487 -0.3590
  859SOL     MW 3436   2.132   2.482   0.847  0.3633  0.1017  0.1993
  860SOL     OW 3437   2.658   2.578   0.134  0.0863  0.1723 -0.2189
  860SOL    HW1 3438   2.730   2.532   0.183  3.1160  1.3831 -2.0138
  860SOL    HW2 3439   2.698   2.651   0.080  0.7095 -0.3815 -0.3707
  860SOL     MW 3440   2.673   2.582   0.133  0.5683  0.2590 -0.4758
  861SOL     OW 3441   1.564   2.137   1.221 -0.1461 -0.0795 -0.3306
  861SOL    HW1 3442   1.579   2.201   1.281 -1.4428  0.2973 -2.8394
  861SOL    HW2 3443   1.514   2.062   1.257  0.5489 -0.0142 -0.0047
  861SOL     MW 3444   1.559   2.135   1.234 -0.2255 -0.0212 -0.6186
  862SOL     OW 3445   2.399   1.887   1.507  0.2685 -0.5601  0.4857
  862SOL    HW1 3446   2.320   1.919   1.558  2.3182  1.4589  0.1631
  862SOL    HW2 3447   2.384   1.862   1.412  0.8249 -2.5725 -0.4456
  862SOL     MW 3448   2.387   1.888   1.501  0.6123 -0.5593  0.3202
  863SOL     OW 3449   0.023   1.781   1.191  0.1018  1.0710 -0.2453
  863SOL    HW1 3450   0.104   1.833   1.179  2.1816 -0.2368 -1.4175
  863SOL    HW2 3451  -0.029   1.835   1.248 -0.7519 -2.8068 -1.0687
  863SOL     MW 3452   0.027   1.795   1.197  0.2636  0.3868 -0.5086
  864SOL     OW 3453   0.015   1.837   0.830 -0.1065 -0.0245 -0.1144
  864SOL    HW1 3454  -0.050   1.800   0.893  0.7732 -1.0049  0.5727
  864SOL    HW2 3455  -0.026   1.826   0.748  1.6878  0.6811  0.4779
  864SOL     MW 3456   0.001   1.831   0.828  0.2463 -0.0608  0.0544
  865SOL     OW 3457   2.540   2.168   0.056  0.5108  0.2438 -0.1574
  865SOL    HW1 3458   2.588   2.113   0.113 -0.0425  0.7440 -4.8829
  865SOL    HW2 3459   2.535   2.124  -0.031 -2.5096 -0.2047  1.2537
  865SOL     MW 3460   2.546   2.155   0.052  0.0393  0.2506 -0.5947
  866SOL     OW 3461   2.629   2.337   1.612  0.3877  0.1242 -0.0769
  866SOL    HW1 3462   2.613   2.237   1.601 -3.1024 -1.7938  1.4401
  866SOL    HW2 3463   2.671   2.347   1.524 -2.1416  0.9121 -1.5927
  866SOL     MW 3464   2.633   2.325   1.599 -0.4065 -0.0249 -0.0768
  867SOL     OW 3465   0.035   2.714   1.821  0.1435 -0.5816  0.4934
  867SOL    HW1 3466   0.075   2.695   1.902  0.7621  2.2378 -0.7246
  867SOL    HW2 3467   0.064   2.805   1.796  1.0905  0.6455 -0.6468
  867SOL     MW 3468   0.044   2.724   1.828  0.3501 -0.0477  0.1823
  868SOL     OW 3469   2.796   2.588   0.571  0.3135  0.3479 -0.1124
  868SOL    HW1 3470   2.711   2.539   0.580 -0.1050 -1.8107 -2.3050
  868SOL    HW2 3471   2.778   2.673   0.525 -0.0361 -2.7373 -2.7242
  868SOL     MW 3472   2.783   2.593   0.566  0.2122 -0.3440 -0.7463
  869SOL     OW 3473   1.989   2.349   1.048  0.1840  0.6422  0.3901
  869SOL    HW1 3474   2.058   2.395   1.004  2.2334 -1.6903  1.3442
  869SOL    HW2 3475   1.948   2.313   0.971 -2.2079  0.2115 -2.0144
  869SOL     MW 3476   1.992   2.350   1.032  0.1388  0.2776  0.1987
  870SOL     OW 3477   2.183   3.100   0.469 -0.1043  0.0118  0.0731
  870SOL    HW1 3478   2.256   3.117   0.403 -0.8351  0.9766  0.4493
  870SOL    HW2 3479   2.168   3.007   0.468 -0.2696 -0.3974 -1.2979
  870SOL     MW 3480   2.191   3.090   0.460 -0.2225  0.0851 -0.0582
  871SOL     OW 3481   2.488   2.072   0.932  0.7447  0.5219 -0.3749
  871SOL    HW1 3482   2.437   2.019   0.872  0.6148 -0.2323 -2.0685
  871SOL    HW2 3483   2.434   2.148   0.959  2.4050 -0.9922  1.0639
  871SOL     MW 3484   2.474   2.075   0.928  0.9466  0.2227 -0.4085
  872SOL     OW 3485   2.050   2.524   1.427  0.2992 -0.0592 -0.1791
  872SOL    HW1 3486   2.026   2.591   1.492  1.2312  0.1763  3.6283
  872SOL    HW2 3487   1.978   2.466   1.403 -1.2339  0.3372 -2.0663
  872SOL     MW 3488   2.037   2.525   1.432  0.2199  0.0242  0.0743
  873SOL     OW 3489   2.834   2.082   1.959  0.1896 -0.8441 -0.2018
  873SOL    HW1 3490   2.861   2.137   2.031  0.8233 -0.4305 -0.3250
  873SOL    HW2 3491   2.896   2.108   1.896  0.8868  2.2845  0.5180
  873SOL     MW 3492   2.846   2.093   1.960  0.3652 -0.3768 -0.1231
  874SOL     OW 3493   2.390   1.554   2.447 -0.3670  0.6429 -0.0233
  874SOL    HW1 3494   2.372   1.535   2.358 -1.4729 -0.9365  1.7469
  874SOL    HW2 3495   2.457   1.480   2.464  1.5067 -2.9447  0.8463
  874SOL     MW 3496   2.396   1.542   2.437 -0.2657 -0.0388  0.3250
  875SOL     OW 3497   2.304   2.267   1.000 -0.9218  0.5580  0.8730
  875SOL    HW1 3498   2.341   2.338   0.947 -2.1661  1.7005  1.3695
  875SOL    HW2 3499   2.297   2.294   1.089 -1.0517  0.2006 -1.4917
  875SOL     MW 3500   2.308   2.280   1.005 -1.1031  0.6616  0.6265
  876SOL     OW 3501   3.017   2.347   1.262  0.5175 -0.1710 -0.3779
  876SOL    HW1 3502   3.075   2.342   1.194 -1.2478  1.5036  0.0318
  876SOL    HW2 3503   3.076   2.377   1.330 -1.0416  1.9661 -0.7024
  876SOL     MW 3504   3.032   2.350   1.262  0.0789  0.3320 -0.3667
  877SOL     OW 3505   3.058   2.730   0.375  0.1113  0.2482  0.6535
  877SOL    HW1 3506   3.100   2.811   0.344  2.4013  0.1398  1.3527
  877SOL    HW2 3507   3.030   2.686   0.294 -1.4342  3.8143 -0.8634
  877SOL     MW 3508   3.060   2.735   0.360  0.2095  0.7044  0.5456
  878SOL     OW 3509   2.357   1.844   1.251  0.1988 -0.1696  0.2466
  878SOL    HW1 3510   2.313   1.763   1.230  0.0451  2.3245 -3.5849
  878SOL    HW2 3511   2.449   1.822   1.251  1.5933  3.3624  3.7604
  878SOL     MW 3512   2.363   1.831   1.248  0.3625  0.6255  0.2047
  879SOL     OW 3513   2.678   2.448   0.916  0.1553  0.6254  0.0803
  879SOL    HW1 3514   2.740   2.506   0.961 -1.5836 -2.8936  1.2488
  879SOL    HW2 3515   2.745   2.397   0.860  2.2694 -1.7710 -0.4705
  879SOL     MW 3516   2.695   2.449   0.914  0.2048 -0.1551  0.1618
  880SOL     OW 3517   2.583   2.189   0.687 -0.5080 -0.1676  0.3534
  880SOL    HW1 3518   2.553   2.146   0.768  0.0754  1.7535 -0.3311
  880SOL    HW2 3519   2.571   2.123   0.621  1.0910 -1.7828  1.2205
  880SOL     MW 3520   2.577   2.174   0.689 -0.2201 -0.1273  0.3775
  881SOL     OW 3521   2.959   2.691   0.756 -0.0268 -0.0723  0.3484
  881SOL    HW1 3522   2.908   2.646   0.686 -2.1781 -0.5546 -0.2734
  881SOL    HW2 3523   3.048   2.667   0.738 -0.3228  0.8473  1.2355
  881SOL     MW 3524   2.964   2.682   0.745 -0.3497 -0.0146  0.3834
  882SOL     OW 3525   2.307   2.806   1.962  0.0130  0.2208  0.2092
  882SOL    HW1 3526   2.270   2.806   1.875 -1.8888  0.6969 -0.5033
  882SOL    HW2 3527   2.254   2.733   1.987 -0.2825  0.6214 -1.0718
  882SOL     MW 3528   2.295   2.797   1.954 -0.2769  0.3364 -0.0538
  883SOL     OW 3529   2.291   2.325   1.421 -0.1922 -0.3344  0.4668
  883SOL    HW1 3530   2.347   2.260   1.375  0.7255  0.0477 -0.3930
  883SOL    HW2 3531   2.203   2.313   1.377  1.0952  0.7816 -2.4800
  883SOL     MW 3532   2.287   2.315   1.409  0.0987 -0.1367 -0.0355
  884SOL     OW 3533   1.918   1.873   1.123  0.8925 -0.0791  0.2402
  884SOL    HW1 3534   1.850   1.941   1.096  0.5597  2.0848 -0.1547
  884SOL    HW2 3535   2.007   1.918   1.120 -0.5413  0.3231  0.9469
  884SOL     MW 3536   1.921   1.888   1.119  0.6594  0.2594  0.2813
  885SOL     OW 3537   2.807   2.401   1.831  0.4276 -0.0404 -0.3444
  885SOL    HW1 3538   2.891   2.358   1.834 -3.2117  0.8234  0.7336
  885SOL    HW2 3539   2.752   2.366   1.754 -0.7703 -0.0187 -1.8651
  885SOL     MW 3540   2.811   2.391   1.821 -0.2106  0.0764 -0.4028
  886SOL     OW 3541   2.751   2.376   1.373  0.0916 -0.2350  0.8225
  886SOL    HW1 3542   2.844   2.353   1.352  0.4894  3.5596  1.0273
  886SOL    HW2 3543   2.757   2.469   1.379 -0.1771 -0.1423  2.7111
  886SOL     MW 3544   2.764   2.385   1.371  0.1086  0.2779  1.0987
  887SOL     OW 3545   2.319   2.638   1.517  0.5966 -0.1193 -0.0855
  887SOL    HW1 3546   2.330   2.664   1.423 -2.0796 -1.4787  1.9340
  887SOL    HW2 3547   2.275   2.552   1.505  0.9401 -0.5452  0.4205
  887SOL     MW 3548   2.315   2.630   1.503  0.2888 -0.3548  0.2477
  888SOL     OW 3549   1.872   2.055   1.421  0.2401  0.1250 -0.0920
  888SOL    HW1 3550   1.926   2.072   1.348  1.6210 -2.6931  0.9841
  888SOL    HW2 3551   1.909   2.096   1.499  1.0886 -1.5714  0.5227
  888SOL     MW 3552   1.884   2.062   1.422  0.5342 -0.4707  0.1311
  889SOL     OW 3553   2.346   2.009   2.102  0.0353 -0.3160  0.6958
  889SOL    HW1 3554   2.432   2.025   2.150  1.4374  2.0761 -1.1746
  889SOL    HW2 3555   2.339   2.077   2.033  0.4823 -1.4458  0.5711
  889SOL     MW 3556   2.356   2.020   2.099  0.2793 -0.1495  0.4326
  890SOL     OW 3557   0.100   2.327   0.169  0.4961  0.0708  0.2957
  890SOL    HW1 3558   0.051   2.409   0.180  1.6718  1.7047  2.6845
  890SOL    HW2 3559   0.092   2.274   0.253 -2.1152  2.1489 -0.4242
  890SOL     MW 3560   0.092   2.331   0.181  0.3067  0.5606  0.5159
  891SOL     OW 3561   3.003   2.022   1.304 -0.8600  0.0421 -0.2940
  891SOL    HW1 3562   3.075   2.069   1.353  1.1920 -0.1733  1.0501
  891SOL    HW2 3563   2.975   2.081   1.240  0.9105 -1.4099  0.1135
  891SOL     MW 3564   3.009   2.036   1.302 -0.3557 -0.1779 -0.0629
  892SOL     OW 3565   2.383   2.360   2.933  0.4461 -0.0411 -0.4829
  892SOL    HW1 3566   2.404   2.276   2.974  0.7088 -2.7124 -1.0907
  892SOL    HW2 3567   2.469   2.399   2.907 -1.5887  1.6357  1.7735
  892SOL     MW 3568   2.397   2.354   2.935  0.2123 -0.1723 -0.2654
  893SOL     OW 3569   1.586   2.444   1.233 -0.2046 -0.5261  0.6795
  893SOL    HW1 3570   1.531   2.464   1.312 -0.3252 -2.0770  0.7355
  893SOL    HW2 3571   1.665   2.417   1.273 -1.6464  0.5901 -1.9330
  893SOL     MW 3572   1.589   2.443   1.248 -0.4107 -0.5835  0.3422
  894SOL     OW 3573   2.852   1.881   0.454  0.0570 -0.7036 -0.2707
  894SOL    HW1 3574   2.775   1.903   0.500 -1.5160  2.6840 -0.3836
  894SOL    HW2 3575   2.817   1.825   0.380  2.2401 -0.6820 -0.4026
  894SOL     MW 3576   2.837   1.877   0.450  0.1375 -0.2538 -0.3030
  895SOL     OW 3577   2.088   2.203   1.247  0.2708  0.3802 -0.1868
  895SOL    HW1 3578   2.044   2.255   1.175  3.5130 -1.6022  0.6375
  895SOL    HW2 3579   2.127   2.133   1.190  0.9997 -0.2722  0.9495
  895SOL     MW 3580   2.087   2.200   1.230  0.7947  0.0326  0.0719
  896SOL     OW 3581   2.163   2.842   1.115 -0.3239 -0.0833  0.0653
  896SOL    HW1 3582   2.240   2.826   1.165  1.7534  0.6935 -0.3468
  896SOL    HW2 3583   2.113   2.756   1.125 -0.5618  1.0593 -0.2550
  896SOL     MW 3584   2.166   2.829   1.123 -0.0812  0.1699 -0.0313
  897SOL     OW 3585   2.983   2.913   0.141 -0.0982 -0.5931 -0.4136
  897SOL    HW1 3586   3.056   2.927   0.079 -0.0492 -2.5523 -1.6188
  897SOL    HW2 3587   2.903   2.873   0.096  1.5333  2.5131 -0.9135
  897SOL     MW 3588   2.982   2.910   0.127  0.1235 -0.4418 -0.6386
  898SOL     OW 3589   2.085   0.194   1.459 -0.1522 -0.3036 -0.2201
  898SOL    HW1 3590   2.001   0.149   1.456  2.2088 -0.5947 -1.4481
  898SOL    HW2 3591   2.096   0.225   1.366  2.6141 -1.3054 -0.9305
  898SOL     MW 3592   2.075   0.192   1.446  0.5243 -0.4742 -0.4759
  899SOL     OW 3593   2.901   2.956   0.667 -0.5838 -0.6870 -0.3744
  899SOL    HW1 3594   2.910   2.869   0.710  1.5383 -0.1650  1.2478
  899SOL    HW2 3595   2.820   3.002   0.696 -1.5907  0.1448 -0.4342
  899SOL     MW 3596   2.892   2.951   0.677 -0.4367 -0.5084 -0.1683
  900SOL     OW 3597   0.135   2.413   1.050 -0.3586  0.0319 -0.5791
  900SOL    HW1 3598   0.155   2.505   1.023  0.6137  0.6443 -1.9184
  900SOL    HW2 3599   0.161   2.375   0.961  0.2044 -0.3363 -1.1636
  900SOL     MW 3600   0.141   2.420   1.035 -0.1560  0.0641 -0.8329
  901SOL     OW 3601   1.795   2.898   1.675  0.0581  0.1950 -0.2186
  901SOL    HW1 3602   1.861   2.826   1.667  0.4506  1.6700  2.6779
  901SOL    HW2 3603   1.723   2.862   1.628 -0.4741 -0.4021  0.0916
  901SOL     MW 3604   1.794   2.883   1.667  0.0397  0.3109  0.2045
  902SOL     OW 3605   2.586   2.049   1.859  0.2799 -0.1846  0.1604
  902SOL    HW1 3606   2.595   1.955   1.848  1.7767  2.0523 -0.1767
  902SOL    HW2 3607   2.673   2.082   1.877  0.5733 -3.1922  1.2225
  902SOL     MW 3608   2.599   2.041   1.860  0.5161 -0.2863  0.2561
  903SOL     OW 3609   1.586   2.745   0.526  0.0040  0.1403 -0.8277
  903SOL    HW1 3610   1.645   2.680   0.572  1.6914  1.3479  2.9867
  903SOL    HW2 3611   1.576   2.807   0.593 -0.1763 -3.9792 -2.8601
  903SOL     MW 3612   1.593   2.745   0.541  0.2028 -0.2439 -0.5926
  904SOL     OW 3613   2.490   2.558   1.716 -0.0190 -0.0168 -0.5899
  904SOL    HW1 3614   2.432   2.599   1.655  1.4476  1.5878  1.4230
  904SOL    HW2 3615   2.528   2.487   1.667  1.2662  2.6033 -0.0375
  904SOL     MW 3616   2.487   2.554   1.702  0.3440  0.5406 -0.2514
  905SOL     OW 3617   2.313   2.506   2.207 -0.4160 -0.3420  0.1533
  905SOL    HW1 3618   2.347   2.474   2.127 -0.9621  0.4856  0.8676
  905SOL    HW2 3619   2.271   2.433   2.259  1.7917 -0.3039  0.0231
  905SOL     MW 3620   2.312   2.492   2.203 -0.1968 -0.2278  0.2304
  906SOL     OW 3621   2.413   2.461   0.833 -0.5267  0.3375  0.1853
  906SOL    HW1 3622   2.509   2.449   0.851 -0.8642 -1.6543 -0.5921
  906SOL    HW2 3623   2.404   2.553   0.855 -1.8467 -0.2235 -1.9231
  906SOL     MW 3624   2.425   2.471   0.838 -0.7454  0.0006 -0.1955
  907SOL     OW 3625   2.612   2.934   1.279 -0.8291 -0.2158  0.2376
  907SOL    HW1 3626   2.683   2.946   1.341 -0.8823 -2.0644  0.2645
  907SOL    HW2 3627   2.654   2.901   1.201  1.5921 -1.3038 -0.9470
  907SOL     MW 3628   2.627   2.931   1.277 -0.5167 -0.6033  0.0849
  908SOL     OW 3629   2.713   2.357   3.087  0.3434 -0.1666  0.1782
  908SOL    HW1 3630   2.651   2.290   3.113  1.2961  3.7600  3.3205
  908SOL    HW2 3631   2.682   2.432   3.131  1.5877  1.6695  1.8164
  908SOL     MW 3632   2.700   2.358   3.096  0.6333  0.5937  0.8090
  909SOL     OW 3633   1.572   0.186   1.109 -0.1463  0.0815  0.2405
  909SOL    HW1 3634   1.658   0.216   1.080  0.4195  0.7071 -1.3884
  909SOL    HW2 3635   1.550   0.245   1.179  0.8770 -2.3049 -0.2893
  909SOL     MW 3636   1.581   0.197   1.114  0.0634 -0.1508 -0.0443
  910SOL     OW 3637   2.309   1.759   0.391 -0.3400 -0.4347 -0.4238
  910SOL    HW1 3638   2.231   1.708   0.411  0.0770  3.2559  0.8748
  910SOL    HW2 3639   2.282   1.831   0.328  1.8852  1.9539 -1.5628
  910SOL     MW 3640   2.295   1.762   0.385  0.0086  0.3674 -0.4028
  911SOL     OW 3641   2.207   2.275   1.692  0.3787 -0.1617  0.2205
  911SOL    HW1 3642   2.271   2.250   1.756 -0.0980  0.3852 -2.0666
  911SOL    HW2 3643   2.264   2.289   1.616  1.8187 -0.3823 -0.6106
  911SOL     MW 3644   2.223   2.274   1.691  0.5058 -0.1187 -0.1909
  912SOL     OW 3645   2.835   1.971   1.518 -0.4756 -1.2426 -0.2669
  912SOL    HW1 3646   2.865   2.011   1.436 -0.7106 -0.1217 -3.1572
  912SOL    HW2 3647   2.747   2.016   1.534 -1.1255  2.1157 -1.1651
  912SOL     MW 3648   2.827   1.982   1.509 -0.5924 -0.6516 -0.7668
  913SOL     OW 3649   2.526   2.968   0.432  0.2097 -0.0459 -0.0500
  913SOL    HW1 3650   2.598   2.903   0.433  1.7937  1.3041  0.8952
  913SOL    HW2 3651   2.445   2.918   0.438 -0.5382  0.4506  0.5179
  913SOL     MW 3652   2.525   2.953   0.433  0.3200  0.1977  0.1497
  914SOL     OW 3653   2.751   1.658   3.082 -0.6284 -0.7508 -0.4283
  914SOL    HW1 3654   2.758   1.737   3.030 -2.0425 -2.1352  1.7357
  914SOL    HW2 3655   2.671   1.655   3.125  2.8613  2.5697 -1.0483
  914SOL     MW 3656   2.741   1.668   3.081 -0.3545 -0.4954 -0.2246
  915SOL     OW 3657   1.831   0.219   0.189  0.2511  0.7271 -0.3519
  915SOL    HW1 3658   1.870   0.140   0.228  0.1896  0.1278  2.0871
  915SOL    HW2 3659   1.740   0.216   0.223 -0.6111  1.2763 -2.5019
  915SOL     MW 3660   1.824   0.208   0.199  0.1292  0.7205 -0.3138
  916SOL     OW 3661   1.749   2.067   1.944 -0.6113  0.0943 -0.6126
  916SOL    HW1 3662   1.799   2.153   1.933 -2.2993  2.0008  1.6781
  916SOL    HW2 3663   1.758   2.025   1.860 -0.0997 -1.4367  0.3442
  916SOL     MW 3664   1.757   2.073   1.932 -0.7665  0.1439 -0.1841
  917SOL     OW 3665   2.444   2.318   2.657  0.5235 -0.0536 -0.5405
  917SOL    HW1 3666   2.408   2.284   2.737 -0.8207  0.2434 -1.9670
  917SOL    HW2 3667   2.395   2.394   2.629  0.8024  0.4192 -0.8617
  917SOL     MW 3668   2.433   2.324   2.664  0.3829  0.0479 -0.7711
  918SOL     OW 3669   2.054   1.639   2.704  0.0636  0.1934  0.0258
  918SOL    HW1 3670   1.973   1.661   2.653  0.8207 -0.8222  2.0821
  918SOL    HW2 3671   2.129   1.705   2.679  1.9196  1.0221 -2.3901
  918SOL     MW 3672   2.053   1.650   2.694  0.4084  0.1687 -0.0216
  919SOL     OW 3673   0.047   2.376   2.257  0.5688  0.4491  0.3825
  919SOL    HW1 3674  -0.030   2.316   2.233  0.3964 -1.3757  1.0998
  919SOL    HW2 3675   0.104   2.344   2.189  1.2130 -0.1473  1.3806
  919SOL     MW 3676   0.045   2.364   2.245  0.6310  0.1296  0.6088
  920SOL     OW 3677   2.752   2.809   3.099 -0.2732 -0.3370  0.1080
  920SOL    HW1 3678   2.692   2.876   3.134  0.4190 -2.3943 -0.7755
  920SOL    HW2 3679   2.734   2.793   3.007  0.7417 -2.5973 -2.1182
  920SOL     MW 3680   2.741   2.816   3.092 -0.0480 -0.9066 -0.3023
  921SOL     OW 3681   2.460   2.614   2.650  0.3238  0.4868 -0.0768
  921SOL    HW1 3682   2.508   2.627   2.572 -1.8091  0.4867  2.8094
  921SOL    HW2 3683   2.516   2.543   2.696 -0.1312 -1.7757  0.9523
  921SOL     MW 3684   2.474   2.606   2.646 -0.0176  0.1883  0.4397
  922SOL     OW 3685   2.006   2.785   0.313 -0.4486 -0.5144  0.2883
  922SOL    HW1 3686   2.008   2.783   0.215 -0.7391 -0.6890 -4.0507
  922SOL    HW2 3687   1.956   2.705   0.327  0.7921  1.6401 -1.3221
  922SOL     MW 3688   1.999   2.774   0.302 -0.3232 -0.2531 -0.4967
  923SOL     OW 3689   2.222   2.807   1.696 -0.1849 -0.0854  0.2162
  923SOL    HW1 3690   2.282   2.760   1.630  0.8829  0.3090 -0.4816
  923SOL    HW2 3691   2.202   2.898   1.659 -1.1874  0.0007  0.0750
  923SOL     MW 3692   2.227   2.813   1.682 -0.1763 -0.0220  0.1055
  924SOL     OW 3693   1.191   2.738   2.585  0.8121  0.1804 -0.0007
  924SOL    HW1 3694   1.230   2.804   2.528 -1.3732  1.5152  2.7912
  924SOL    HW2 3695   1.257   2.673   2.611  0.1074  0.3198  3.0896
  924SOL     MW 3696   1.204   2.738   2.581  0.4308  0.3749  0.7754
  925SOL     OW 3697   2.960   0.179   2.600 -0.2301 -0.2001 -0.4594
  925SOL    HW1 3698   2.981   0.222   2.523  1.2041  0.2577  1.2435
  925SOL    HW2 3699   2.882   0.219   2.637 -2.0496 -1.9607  3.0889
  925SOL     MW 3700   2.952   0.190   2.595 -0.2809 -0.3720  0.2334
  926SOL     OW 3701   2.715   2.404   2.076  0.0296  0.4471  0.0341
  926SOL    HW1 3702   2.748   2.461   2.144  0.0299  0.7375 -0.2019
  926SOL    HW2 3703   2.763   2.433   2.000 -0.3095 -0.2943  0.6771
  926SOL     MW 3704   2.726   2.415   2.075 -0.0151  0.3876  0.0878
  927SOL     OW 3705   2.375   0.141   0.304  0.1164  0.4011 -0.1029
  927SOL    HW1 3706   2.461   0.165   0.323 -2.3795  0.5962 -1.2409
  927SOL    HW2 3707   2.379   0.084   0.224  0.7247 -0.7915  2.3820
  927SOL     MW 3708   2.387   0.137   0.296 -0.1327  0.2695  0.0748
  928SOL     OW 3709   2.082   2.484   1.802  0.1446 -0.1834  0.2807
  928SOL    HW1 3710   2.129   2.415   1.757 -0.5609 -0.2766 -0.6463
  928SOL    HW2 3711   2.135   2.518   1.877 -0.5103 -1.2534  0.8932
  928SOL     MW 3712   2.095   2.479   1.806 -0.0349 -0.3368  0.2392
  929SOL     OW 3713   2.709   2.371   2.451 -0.6218  0.0160 -0.2014
  929SOL    HW1 3714   2.807   2.358   2.463  0.0527 -0.3040 -1.7469
  929SOL    HW2 3715   2.679   2.328   2.536 -0.6350  0.5750  0.2987
  929SOL     MW 3716   2.718   2.364   2.464 -0.5346  0.0475 -0.3394
  930SOL     OW 3717   2.021   2.922   2.673 -0.2331 -0.0142 -0.6886
  930SOL    HW1 3718   2.023   2.850   2.741 -2.6013 -0.0814  2.3502
  930SOL    HW2 3719   2.111   2.947   2.673 -2.4304  0.8301 -1.5693
  930SOL     MW 3720   2.033   2.916   2.682 -0.8355  0.0884 -0.4039
  931SOL     OW 3721   2.930   2.800   2.249  0.1451 -0.4277 -0.0938
  931SOL    HW1 3722   2.985   2.811   2.326  0.5260 -0.1099 -1.2995
  931SOL    HW2 3723   2.990   2.825   2.174  0.8443  2.7094  3.2736
  931SOL     MW 3724   2.945   2.805   2.250  0.2876  0.0281  0.1914
  932SOL     OW 3725   2.848   1.901   2.579  0.5798 -0.1831 -0.1798
  932SOL    HW1 3726   2.937   1.918   2.597  1.7128  1.7605 -1.0258
  932SOL    HW2 3727   2.848   1.933   2.489  0.6953  1.6450 -1.1560
  932SOL     MW 3728   2.860   1.908   2.570  0.7445  0.3145 -0.4202
  933SOL     OW 3729   2.055   2.862   2.200  0.1820  0.3067  0.5939
  933SOL    HW1 3730   2.122   2.920   2.242 -0.2785  1.8315  0.7928
  933SOL    HW2 3731   1.981   2.919   2.168  1.0114  1.3939  1.9232
  933SOL     MW 3732   2.054   2.877   2.201  0.2307  0.6513  0.7956
  934SOL     OW 3733   2.025   2.754   2.467 -0.3834  0.0841 -0.2479
  934SOL    HW1 3734   2.046   2.828   2.530 -3.0492  0.5063 -1.2979
  934SOL    HW2 3735   2.050   2.779   2.378  0.0054 -1.8566 -1.4526
  934SOL     MW 3736   2.031   2.767   2.463 -0.6838 -0.1162 -0.5454
  935SOL     OW 3737   2.630   1.520   1.799 -0.0285  0.0945  0.9361
  935SOL    HW1 3738   2.720   1.521   1.761  0.2890  2.0888 -1.8901
  935SOL    HW2 3739   2.581   1.512   1.718  0.4155  0.9320 -1.2169
  935SOL     MW 3740   2.636   1.519   1.783  0.0720  0.4682  0.2791
  936SOL     OW 3741   2.993   2.248   3.087  0.3234 -0.0128  0.1469
  936SOL    HW1 3742   3.062   2.288   3.138 -1.3664  2.4004  1.7518
  936SOL    HW2 3743   2.907   2.294   3.102 -0.7775  2.4469 -0.3546
  936SOL     MW 3744   2.991   2.260   3.096 -0.0448  0.6301  0.2925
  937SOL     OW 3745   2.044   2.170   2.656  0.8397 -0.1741  1.0980
  937SOL    HW1 3746   2.122   2.152   2.703 -2.2279  1.1381 -3.4651
  937SOL    HW2 3747   2.045   2.122   2.568 -1.2029  0.3243  2.1055
  937SOL     MW 3748   2.054   2.161   2.651  0.1655  0.0648  0.6289
  938SOL     OW 3749   2.289   1.816   1.909  0.3293  0.1209  0.4692
  938SOL    HW1 3750   2.265   1.858   1.820 -0.8490  1.0805 -1.4915
  938SOL    HW2 3751   2.311   1.884   1.974 -0.5515 -0.1822  2.5010
  938SOL     MW 3752   2.289   1.830   1.906  0.0576  0.2075  0.4786
  939SOL     OW 3753   2.815   2.001   2.305  0.1034 -0.0036  0.0763
  939SOL    HW1 3754   2.831   1.925   2.250  0.1993  0.3904  0.7393
  939SOL    HW2 3755   2.718   2.016   2.307  0.7677  1.3855 -1.4057
  939SOL     MW 3756   2.804   1.993   2.298  0.2037  0.2316 -0.0318
  940SOL     OW 3757   2.324   0.133   2.731 -0.1730  0.2596  0.3571
  940SOL    HW1 3758   2.289   0.041   2.702  0.1631  0.2981 -2.6027
  940SOL    HW2 3759   2.393   0.123   2.796  1.9025 -1.3812 -0.8289
  940SOL     MW 3760   2.328   0.120   2.736  0.1452  0.0482 -0.1899
  941SOL     OW 3761   0.232   2.338   2.047  0.2224 -0.4728 -0.4945
  941SOL    HW1 3762   0.307   2.278   2.077 -3.1707  1.4554 -1.6788
  941SOL    HW2 3763   0.201   2.302   1.962  3.9614  2.2023  0.9872
  941SOL     MW 3764   0.238   2.325   2.040  0.2681  0.1346 -0.4553
  942SOL     OW 3765   2.898   2.222   2.182  0.5905 -0.2500  0.1287
  942SOL    HW1 3766   2.829   2.280   2.174  0.3685  0.5649 -0.8549
  942SOL    HW2 3767   2.856   2.154   2.233  2.6268  1.1739 -0.0269
  942SOL     MW 3768   2.884   2.221   2.188  0.8299  0.0454 -0.0216
  943SOL     OW 3769   0.396   2.002   2.291  0.4003 -0.7962 -0.6671
  943SOL    HW1 3770   0.335   2.062   2.346  0.7163  1.1621  2.0873
  943SOL    HW2 3771   0.485   2.029   2.309  0.0275  0.9465  0.0543
  943SOL     MW 3772   0.399   2.013   2.301  0.3928 -0.3079 -0.2085
  944SOL     OW 3773   2.113   2.619   2.074 -0.4124 -0.2516  0.8166
  944SOL    HW1 3774   2.177   2.583   2.138  1.6723  0.4682 -0.1780
  944SOL    HW2 3775   2.108   2.706   2.111  0.5715  0.7831  0.8933
  944SOL     MW 3776   2.121   2.626   2.087 -0.0075 -0.0201  0.6955
  945SOL     OW 3777   2.781   2.718   2.828 -0.2324  0.5075  0.2495
  945SOL    HW1 3778   2.729   2.635   2.814  1.9912 -3.7590  1.0014
  945SOL    HW2 3779   2.817   2.738   2.739 -0.0501 -0.9810  0.5674
  945SOL     MW 3780   2.779   2.709   2.814  0.0850 -0.2518  0.3906
  946SOL     OW 3781   2.436   2.744   2.262  0.3372 -0.0312  0.2291
  946SOL    HW1 3782   2.495   2.758   2.189  1.2167 -2.8582  0.5821
  946SOL    HW2 3783   2.383   2.671   2.239  1.4533 -0.5237  1.4491
  946SOL     MW 3784   2.437   2.736   2.249  0.6005 -0.4692  0.4367
  947SOL     OW 3785   2.022   0.036   0.242 -0.3351  0.6426 -0.5236
  947SOL    HW1 3786   2.040  -0.011   0.165 -1.5418  3.8051  1.2035
  947SOL    HW2 3787   2.072  -0.005   0.325  0.7373 -1.7451 -1.6138
  947SOL     MW 3788   2.031   0.025   0.243 -0.3528  0.7448 -0.4396
  948SOL     OW 3789   1.796   3.081   2.635  0.0735 -0.3169  0.4340
  948SOL    HW1 3790   1.870   3.017   2.658 -0.5639  0.9192  0.5359
  948SOL    HW2 3791   1.784   3.085   2.536 -1.6410  1.1352  1.2738
  948SOL     MW 3792   1.804   3.073   2.625 -0.2368  0.0378  0.5582
  949SOL     OW 3793   2.549   2.012   2.284 -0.4743 -0.7377 -0.5939
  949SOL    HW1 3794   2.535   1.919   2.321 -4.8665 -3.5195  0.6435
  949SOL    HW2 3795   2.492   2.068   2.338 -0.4914 -1.9305  1.5711
  949SOL     MW 3796   2.540   2.007   2.296 -1.0561 -1.2621 -0.1450
  950SOL     OW 3797   2.225   2.568   3.017  0.9744 -0.1345 -0.3679
  950SOL    HW1 3798   2.260   2.475   3.000 -1.1554 -2.9513  1.2663
  950SOL    HW2 3799   2.149   2.585   2.963  2.4618 -0.2805  3.2757
  950SOL     MW 3800   2.219   2.558   3.007  0.8896 -0.5254  0.3285
  951SOL     OW 3801   2.959   2.060   2.845  0.1413  0.0216 -0.4473
  951SOL    HW1 3802   3.001   2.126   2.900 -3.4055 -0.9020  1.4848
  951SOL    HW2 3803   3.008   2.070   2.767 -0.3081  2.4179 -0.7901
  951SOL     MW 3804   2.971   2.070   2.842 -0.3860  0.2159 -0.2376
  952SOL     OW 3805   3.075   1.693   2.097  0.2541 -0.3586  0.3632
  952SOL    HW1 3806   2.997   1.740   2.069  0.0197 -0.8193  0.6588
  952SOL    HW2 3807   3.152   1.756   2.106  0.2249  0.5493  1.9281
  952SOL     MW 3808   3.075   1.708   2.094  0.2194 -0.2996  0.6086
  953SOL     OW 3809   1.966   1.801   2.932  0.2392  0.3244  0.4676
  953SOL    HW1 3810   1.886   1.751   2.961 -0.2480  0.3156  1.9717
  953SOL    HW2 3811   2.008   1.758   2.861  1.4918 -0.0632  0.6209
  953SOL     MW 3812   1.961   1.789   2.927  0.3402  0.2721  0.6863
  954SOL     OW 3813   2.483   2.108   2.903  0.4824 -0.1410 -0.2302
  954SOL    HW1 3814   2.397   2.080   2.880  0.4296  2.0556 -1.4594
  954SOL    HW2 3815   2.533   2.098   2.826 -1.6587  0.4098 -1.7382
  954SOL     MW 3816   2.478   2.103   2.890  0.1929  0.2215 -0.5914
  955SOL     OW 3817   1.574   1.627   2.526  0.4009  0.2644 -0.1560
  955SOL    HW1 3818   1.537   1.636   2.442  0.8631  1.0768 -1.9107
  955SOL    HW2 3819   1.656   1.668   2.536 -2.6997 -1.7863 -0.0093
  955SOL     MW 3820   1.580   1.634   2.516  0.0528  0.1010 -0.3682
  956SOL     OW 3821   2.630   2.477   2.847  0.2994 -0.0219 -0.3162
  956SOL    HW1 3822   2.663   2.450   2.932  1.3173  1.2294 -3.0964
  956SOL    HW2 3823   2.674   2.417   2.788 -1.9979 -1.8344 -1.4089
  956SOL     MW 3824   2.640   2.465   2.850  0.1306 -0.0959 -0.8272
  957SOL     OW 3825   2.285   2.802   0.387 -0.3178  0.6130 -0.0742
  957SOL    HW1 3826   2.199   2.799   0.352 -1.0676  0.5707  2.2467
  957SOL    HW2 3827   2.273   2.747   0.463 -0.8708 -0.6989  0.5322
  957SOL     MW 3828   2.272   2.794   0.392 -0.4897  0.4343  0.3120
  958SOL     OW 3829   2.014   2.678   2.809 -0.1424 -0.1016  0.3366
  958SOL    HW1 3830   1.973   2.604   2.753 -0.3393  1.8429  1.2674
  958SOL    HW2 3831   1.939   2.702   2.867  0.3354 -0.5618 -0.1055
  958SOL     MW 3832   1.999   2.672   2.809 -0.1054  0.0942  0.4011
  959SOL     OW 3833   2.432   2.581   0.304  0.3113  0.0650  0.0717
  959SOL    HW1 3834   2.493   2.603   0.232  3.2843  0.3933 -2.7137
  959SOL    HW2 3835   2.374   2.658   0.315 -1.7686  1.3655 -0.5388
  959SOL     MW 3836   2.432   2.594   0.296  0.4291  0.2799 -0.3763
  960SOL     OW 3837   1.902   2.324   2.291 -0.0259 -0.4701 -0.2712
  960SOL    HW1 3838   1.852   2.247   2.273 -0.4083 -2.6995  0.2579
  960SOL    HW2 3839   1.839   2.387   2.329 -2.4281 -0.5892 -3.0510
  960SOL     MW 3840   1.887   2.322   2.294 -0.3933 -0.7800 -0.5682
  961SOL     OW 3841   2.169   2.327   2.359 -0.0638 -0.6521  0.0187
  961SOL    HW1 3842   2.073   2.327   2.346 -5.0632  0.0993 -2.7665
  961SOL    HW2 3843   2.182   2.387   2.430  0.9751 -0.0428 -1.5505
  961SOL     MW 3844   2.158   2.335   2.367 -0.5864 -0.4726 -0.5558
  962SOL     OW 3845   2.227   2.034   2.814 -0.2745 -0.5514 -0.4181
  962SOL    HW1 3846   2.199   2.012   2.905 -0.0567  1.4747 -1.1161
  962SOL    HW2 3847   2.213   1.962   2.758  1.1669 -0.7864  0.2381
  962SOL     MW 3848   2.221   2.022   2.819 -0.0556 -0.3151 -0.4236
  963SOL     OW 3849   1.839   2.588   2.045  0.8238 -0.1731 -0.3587
  963SOL    HW1 3850   1.931   2.599   2.044 -1.4311 -0.3207 -0.8292
  963SOL    HW2 3851   1.836   2.502   2.003 -1.9340  3.7746  0.4353
  963SOL     MW 3852   1.851   2.578   2.040  0.1624  0.3283 -0.3160
  964SOL     OW 3853   1.871   1.984   2.747  0.0363 -0.7694  0.4663
  964SOL    HW1 3854   1.941   2.051   2.717 -1.0103  0.7394 -1.3242
  964SOL    HW2 3855   1.900   1.922   2.813 -0.6992  4.3937 -1.9004
  964SOL     MW 3856   1.884   1.985   2.752 -0.1988  0.1109 -0.0822
  965SOL     OW 3857   2.218   2.709   0.632  0.7988  0.5770  0.4849
  965SOL    HW1 3858   2.202   2.618   0.622 -1.5759  1.1513  0.0579
  965SOL    HW2 3859   2.255   2.728   0.719 -0.1147  0.7757  0.8171
  965SOL     MW 3860   2.221   2.700   0.642  0.3650  0.6790  0.4724
  966SOL     OW 3861   2.639   2.648   2.437 -0.8881 -0.0484 -0.1395
  966SOL    HW1 3862   2.592   2.682   2.364  0.0740 -1.3778  0.4037
  966SOL    HW2 3863   2.660   2.555   2.403  0.2321 -1.1482  2.0700
  966SOL     MW 3864   2.635   2.640   2.423 -0.6134 -0.3689  0.2237
  967SOL     OW 3865   2.884   3.033   2.901  0.8662  0.3148  0.3772
  967SOL    HW1 3866   2.883   2.938   2.912  1.1032  1.4802 -0.8305
  967SOL    HW2 3867   2.798   3.049   2.855  2.5425 -1.5106 -3.1286
  967SOL     MW 3868   2.873   3.023   2.896  1.1186  0.2277 -0.2447
  968SOL     OW 3869   3.048   2.593   2.932  0.3173  0.0879 -0.4281
  968SOL    HW1 3870   2.958   2.610   2.935  1.8770 -1.5479  0.1475
  968SOL    HW2 3871   3.036   2.518   2.866 -0.8260  1.4806  0.0034
  968SOL     MW 3872   3.035   2.585   2.924  0.3722  0.0558 -0.2952
  969SOL     OW 3873   1.516   2.126   1.719 -0.1787  0.4965 -0.1823
  969SOL    HW1 3874   1.590   2.072   1.701  2.5624  0.2780 -1.0317
  969SOL    HW2 3875   1.484   2.099   1.806  0.4770 -0.9421  0.6868
  969SOL     MW 3876   1.521   2.116   1.728  0.2695  0.2779 -0.1797
  970SOL     OW 3877   1.670   1.687   1.843  0.6722 -0.8006 -0.2634
  970SOL    HW1 3878   1.731   1.681   1.915 -0.2713  0.5006 -1.6153
  970SOL    HW2 3879   1.592   1.693   1.893  0.8576  1.5455  0.3485
  970SOL     MW 3880   1.668   1.687   1.859  0.5721 -0.3194 -0.3610
  971SOL     OW 3881   1.801   0.037   2.368 -0.4857 -0.3534  0.3248
  971SOL    HW1 3882   1.844   0.003   2.288  3.6330 -4.7189 -3.0814
  971SOL    HW2 3883   1.863   0.098   2.398 -0.5647 -3.2356  2.2944
  971SOL     MW 3884   1.815   0.041   2.362  0.0473 -1.3097  0.1352
  972SOL     OW 3885   0.283   2.801   2.516  0.0336  0.0213 -0.5536
  972SOL    HW1 3886   0.325   2.718   2.532 -1.3917 -0.9296  1.2110
  972SOL    HW2 3887   0.354   2.854   2.557 -0.0461  0.2956  0.2138
  972SOL     MW 3888   0.298   2.797   2.524 -0.1650 -0.0679 -0.2195
  973SOL     OW 3889   2.627   0.024   2.083 -0.6898  0.2925 -0.0318
  973SOL    HW1 3890   2.599  -0.068   2.093  0.3892 -0.3653  2.3336
  973SOL    HW2 3891   2.628   0.043   1.990 -0.1739 -1.0621  3.2178
  973SOL     MW 3892   2.624   0.015   2.072 -0.4794  0.0270  0.7091
  974SOL     OW 3893   2.104   0.279   2.791 -0.5209 -0.0757 -0.0067
  974SOL    HW1 3894   2.187   0.234   2.780  0.1097 -0.3852  0.9417
  974SOL    HW2 3895   2.054   0.204   2.828  4.1084 -0.5780 -0.7558
  974SOL     MW 3896   2.108   0.263   2.794  0.1731 -0.1828  0.0196
  975SOL     OW 3897   2.198   2.555   2.527 -0.6451  0.3486 -0.1426
  975SOL    HW1 3898   2.279   2.589   2.561  1.1235  1.2793 -0.0488
  975SOL    HW2 3899   2.143   2.630   2.503  0.2663  0.6292  0.3709
  975SOL     MW 3900   2.202   2.569   2.528 -0.2915  0.5084 -0.0625
  976SOL     OW 3901   0.236   0.391   1.706  0.7917  0.7703  0.2989
  976SOL    HW1 3902   0.302   0.313   1.714  2.0063  0.3548  0.8067
  976SOL    HW2 3903   0.149   0.358   1.709  0.7635 -2.7508  0.8961
  976SOL     MW 3904   0.233   0.376   1.707  0.9482  0.2509  0.4447
  977SOL     OW 3905   1.725   2.737   2.461  0.2977  0.0475  0.0209
  977SOL    HW1 3906   1.723   2.639   2.454  0.4797  2.3416  0.2152
  977SOL    HW2 3907   1.817   2.752   2.482  0.7688 -0.0706 -2.0926
  977SOL     MW 3908   1.737   2.726   2.463  0.3839  0.3346 -0.2323
   3.10000   3.10000   3.10000
