977 TIP4P/2005f water molecules t=   1.59000 step= 1590
 3908
    1SOL     OW    1   0.404   0.819   0.101 -0.0277 -0.2903  0.4095
    1SOL    HW1    2   0.358   0.821   0.020  1.7938 -2.4211  1.4388
    1SOL    HW2    3   0.417   0.727   0.130 -1.6570 -1.5535 -2.3024
    1SOL     MW    4   0.400   0.807   0.094 -0.0023 -0.7381  0.1875
    2SOL     OW    5   0.325   3.021   1.067  0.1436 -0.5865 -0.2400
    2SOL    HW1    6   0.364   3.105   1.030 -1.8109 -0.1248 -1.2480
    2SOL    HW2    7   0.242   3.052   1.103  0.3180  0.8512 -2.1322
    2SOL     MW    8   0.319   3.036   1.067 -0.0913 -0.3359 -0.6226
    3SOL     OW    9   2.630   0.341   0.964 -0.0884  0.4000 -0.0285
    3SOL    HW1   10   2.702   0.389   0.944 -3.9714 -0.8876  0.5658
    3SOL    HW2   11   2.628   0.363   1.057  2.4734 -0.1622  0.0931
    3SOL     MW   12   2.639   0.350   0.974 -0.2627  0.1559  0.0659
    4SOL     OW   13   2.996   1.709   0.528 -0.0958 -0.5656  0.1962
    4SOL    HW1   14   2.939   1.774   0.491  2.5178 -0.7666 -0.9692
    4SOL    HW2   15   3.059   1.687   0.454  1.6930 -0.5935  0.0895
    4SOL     MW   16   2.997   1.715   0.513  0.4851 -0.5958  0.0284
    5SOL     OW   17   1.644   1.406   0.634 -0.3939  0.1735  0.5674
    5SOL    HW1   18   1.672   1.378   0.715 -1.5529 -0.1169  1.4504
    5SOL    HW2   19   1.563   1.447   0.660  0.2985 -1.7158  0.7222
    5SOL     MW   20   1.637   1.408   0.648 -0.4555 -0.1141  0.7043
    6SOL     OW   21   0.794   1.439   0.594  0.2423 -0.3673 -0.5732
    6SOL    HW1   22   0.695   1.445   0.586 -0.4154  1.0138  0.7680
    6SOL    HW2   23   0.804   1.360   0.641  0.8739  1.8175  0.8012
    6SOL     MW   24   0.782   1.429   0.599  0.2389  0.1032 -0.2149
    7SOL     OW   25   1.929   1.042   0.024 -0.3446  0.3206 -0.1228
    7SOL    HW1   26   1.936   1.135   0.008  0.0510 -1.9614  3.0180
    7SOL    HW2   27   1.928   1.041   0.124 -0.4682  0.9536  0.7901
    7SOL     MW   28   1.930   1.054   0.035 -0.3087  0.1030  0.4120
    8SOL     OW   29   0.786   1.475   1.126 -0.2042 -0.1592 -0.8343
    8SOL    HW1   30   0.871   1.515   1.119  0.0561  1.1579  2.4221
    8SOL    HW2   31   0.783   1.399   1.184  1.5709 -0.5184 -0.6387
    8SOL     MW   32   0.797   1.470   1.133  0.0643 -0.0329 -0.3789
    9SOL     OW   33   0.977   0.474   1.346 -0.4756 -0.2289  0.7261
    9SOL    HW1   34   0.919   0.398   1.320 -0.2234 -3.2840 -0.7975
    9SOL    HW2   35   1.024   0.433   1.420 -2.9925 -0.5086 -1.0404
    9SOL     MW   36   0.976   0.459   1.352 -0.7744 -0.6689  0.2920
   10SOL     OW   37   0.283   0.868   0.482 -0.1092  0.2552 -0.3187
   10SOL    HW1   38   0.379   0.878   0.459 -0.2229  1.0984 -1.6773
   10SOL    HW2   39   0.259   0.902   0.568  2.9414  0.6180  0.2713
   10SOL     MW   40   0.293   0.874   0.490  0.2783  0.4143 -0.4201
   11SOL     OW   41   0.769   1.132   1.510 -0.0338 -0.2205 -0.8381
   11SOL    HW1   42   0.836   1.136   1.580 -3.2195  1.9716  0.5871
   11SOL    HW2   43   0.797   1.057   1.454 -3.3556  1.7264 -2.2528
   11SOL     MW   44   0.781   1.123   1.512 -0.8924  0.3256 -0.8367
   12SOL     OW   45   3.067   1.102   0.874  0.3432  0.0143 -0.2423
   12SOL    HW1   46   3.112   1.182   0.903 -1.5006  0.2219  2.7763
   12SOL    HW2   47   3.015   1.139   0.798  1.3383 -1.2924 -0.0517
   12SOL     MW   48   3.066   1.118   0.868  0.2312 -0.1308  0.1811
   13SOL     OW   49   1.812   1.428   1.274 -0.8338 -0.1571  0.1614
   13SOL    HW1   50   1.832   1.370   1.206 -2.6055 -0.7210 -0.4523
   13SOL    HW2   51   1.874   1.506   1.266  2.6192 -0.9424  2.4214
   13SOL     MW   52   1.822   1.431   1.264 -0.6120 -0.3351  0.3786
   14SOL     OW   53   0.516   0.355   1.802  0.1574  0.0923 -0.7172
   14SOL    HW1   54   0.455   0.281   1.803  0.4969  2.5107 -0.7095
   14SOL    HW2   55   0.506   0.400   1.716 -1.4915 -3.5606 -0.5654
   14SOL     MW   56   0.507   0.351   1.791 -0.0154 -0.0706 -0.6962
   15SOL     OW   57   1.994   0.410   1.027  0.1892  0.4655 -0.6657
   15SOL    HW1   58   2.001   0.496   1.068  0.5852  0.3384 -0.7135
   15SOL    HW2   59   2.039   0.433   0.943  3.2282  0.4923 -1.4277
   15SOL     MW   60   2.001   0.424   1.021  0.6424  0.4523 -0.7725
   16SOL     OW   61   0.289   1.821   0.284  0.5976 -0.0473  0.2524
   16SOL    HW1   62   0.371   1.801   0.329  2.5494  1.0266  0.6217
   16SOL    HW2   63   0.293   1.917   0.286  1.4139 -1.4690 -0.0476
   16SOL     MW   64   0.300   1.831   0.291  0.9628 -0.0932  0.2615
   17SOL     OW   65   1.107   0.899   1.431 -0.2878 -0.5167  0.0610
   17SOL    HW1   66   1.129   0.890   1.525  2.7065 -0.6662  2.2139
   17SOL    HW2   67   1.012   0.893   1.422  0.9458 -1.4562  1.5425
   17SOL     MW   68   1.097   0.897   1.442  0.2700 -0.6604  0.5405
   18SOL     OW   69   0.116   1.640   0.342 -1.0036  0.3243  0.5390
   18SOL    HW1   70   0.189   1.709   0.336 -0.4205  3.1282 -0.8687
   18SOL    HW2   71   0.103   1.605   0.256  0.0412 -0.4637 -2.9382
   18SOL     MW   72   0.124   1.645   0.330 -0.7888  0.5903 -0.1055
   19SOL     OW   73   0.083   1.326   0.957 -0.3309 -0.3052 -0.0084
   19SOL    HW1   74   0.138   1.331   0.874  0.3253 -1.7966  3.1081
   19SOL    HW2   75   0.001   1.374   0.946 -3.3516 -0.0693  2.4442
   19SOL     MW   76   0.079   1.333   0.944 -0.6428 -0.4708  0.7264
   20SOL     OW   77   0.440   2.111   1.277 -0.0121  0.0605  0.1005
   20SOL    HW1   78   0.387   2.040   1.229  0.1220 -2.1778 -0.0060
   20SOL    HW2   79   0.416   2.124   1.371  1.0105  1.4652 -1.2366
   20SOL     MW   80   0.430   2.104   1.283  0.1405 -0.0495 -0.0900
   21SOL     OW   81   0.565   0.855   0.428  0.3759  0.0629  0.0135
   21SOL    HW1   82   0.617   0.835   0.512  2.0549 -1.4486  1.7160
   21SOL    HW2   83   0.625   0.887   0.353 -1.1776 -2.0949 -1.5257
   21SOL     MW   84   0.580   0.857   0.429  0.3925 -0.4212  0.0351
   22SOL     OW   85   1.537   0.712   1.012 -0.3532  0.1976  0.3267
   22SOL    HW1   86   1.546   0.675   0.928  0.4787  0.1508  0.9676
   22SOL    HW2   87   1.452   0.747   1.012  0.6165  0.8460  0.1008
   22SOL     MW   88   1.527   0.712   1.001 -0.1155  0.2770  0.3815
   23SOL     OW   89   3.086   0.788   0.708  0.2531  0.7870  0.9214
   23SOL    HW1   90   3.129   0.708   0.748 -1.4883 -1.0818 -1.7020
   23SOL    HW2   91   3.150   0.858   0.709 -0.5661  1.1110  0.9312
   23SOL     MW   92   3.100   0.787   0.714 -0.0847  0.5832  0.5765
   24SOL     OW   93   2.088   2.199   0.029 -0.1303  0.7506  0.4192
   24SOL    HW1   94   2.093   2.204   0.124 -2.2061 -1.0047 -1.1696
   24SOL    HW2   95   2.074   2.105   0.005  1.1099 -1.6190  3.3311
   24SOL     MW   96   2.087   2.187   0.038 -0.2406  0.2064  0.5938
   25SOL     OW   97   0.181   1.400   0.432 -0.1958  0.3252  0.0258
   25SOL    HW1   98   0.158   1.493   0.427  0.9313 -1.3799  0.2436
   25SOL    HW2   99   0.234   1.378   0.360 -3.6425  1.1210 -1.7366
   25SOL     MW  100   0.185   1.409   0.422 -0.5018  0.2052 -0.1780
   26SOL     OW  101   1.987   1.023   0.304 -0.2828  0.3977 -0.4812
   26SOL    HW1  102   1.952   1.072   0.383  0.4154 -2.9095  1.9888
   26SOL    HW2  103   2.073   1.066   0.284 -0.5740 -2.0286 -0.0965
   26SOL     MW  104   1.994   1.035   0.312 -0.2291 -0.3588 -0.1046
   27SOL     OW  105   1.887   1.354   0.153 -0.3691  0.3728 -1.0085
   27SOL    HW1  106   1.819   1.422   0.168 -1.1544  2.1939 -1.8084
   27SOL    HW2  107   1.942   1.372   0.228 -0.0312  1.9311 -0.2540
   27SOL     MW  108   1.885   1.366   0.165 -0.4281  0.8187 -1.0145
   28SOL     OW  109   0.427   0.923   2.003  0.2203  0.0646  0.1240
   28SOL    HW1  110   0.485   0.908   2.078 -0.2362  2.7147  0.5017
   28SOL    HW2  111   0.347   0.913   2.043  0.6062  0.8585 -1.6101
   28SOL     MW  112   0.424   0.920   2.018  0.2110  0.5190 -0.0549
   29SOL     OW  113   0.226   1.392   0.722 -0.1507  0.1372  0.3692
   29SOL    HW1  114   0.233   1.492   0.739  2.8127 -1.4202 -2.3059
   29SOL    HW2  115   0.193   1.372   0.635 -1.4302 -0.5736  0.8926
   29SOL     MW  116   0.223   1.403   0.712  0.0715 -0.1621  0.0853
   30SOL     OW  117   0.774   1.215   1.246 -0.2762 -0.6418 -0.5282
   30SOL    HW1  118   0.683   1.206   1.272 -0.5956  1.2819 -0.2236
   30SOL    HW2  119   0.820   1.210   1.328 -3.3362 -0.0747  2.9238
   30SOL     MW  120   0.768   1.213   1.260 -0.7221 -0.3132 -0.0325
   31SOL     OW  121   0.492   0.303   0.186  0.0552  0.3026 -0.0038
   31SOL    HW1  122   0.516   0.251   0.260  1.5209  1.2501  0.2659
   31SOL    HW2  123   0.498   0.255   0.102 -1.1668  0.3026  1.4005
   31SOL     MW  124   0.496   0.290   0.185  0.0874  0.4276  0.2171
   32SOL     OW  125   2.733   0.983   1.096  0.2039 -0.3782 -0.1331
   32SOL    HW1  126   2.691   0.896   1.091  0.3734 -4.5593  1.0453
   32SOL    HW2  127   2.830   0.966   1.085 -1.8006  1.4066 -0.1849
   32SOL     MW  128   2.740   0.970   1.094 -0.0382 -0.6944  0.0155
   33SOL     OW  129   1.666   1.258   0.399 -0.1947 -0.7252 -0.4801
   33SOL    HW1  130   1.751   1.221   0.410  0.2494  1.5472 -1.9496
   33SOL    HW2  131   1.652   1.324   0.472 -0.5134  1.0472 -1.7480
   33SOL     MW  132   1.676   1.262   0.410 -0.1781 -0.1915 -0.8412
   34SOL     OW  133   1.177   1.934   1.158 -0.7834  0.2745 -0.4804
   34SOL    HW1  134   1.088   1.976   1.172 -0.1359  1.6254 -1.3569
   34SOL    HW2  135   1.229   1.966   1.237 -0.5289  1.3973  2.3648
   34SOL     MW  136   1.172   1.944   1.170 -0.6644  0.6009 -0.2207
   35SOL     OW  137   0.347   0.151   1.812 -0.4396 -0.2335 -0.2331
   35SOL    HW1  138   0.376   0.098   1.887 -2.3455  0.8047  1.7432
   35SOL    HW2  139   0.339   0.091   1.739 -3.6638  1.5461 -1.8871
   35SOL     MW  140   0.350   0.136   1.812 -1.1165  0.1383 -0.1906
   36SOL     OW  141   1.928   1.969   0.577  0.0115  0.1243  0.4095
   36SOL    HW1  142   1.891   1.947   0.495  1.1967  3.7833 -0.0573
   36SOL    HW2  143   1.953   1.889   0.626 -1.1619  0.7662 -0.3938
   36SOL     MW  144   1.926   1.956   0.573  0.0131  0.6917  0.2419
   37SOL     OW  145   1.813   2.053   1.008 -0.2203 -0.3082 -0.5862
   37SOL    HW1  146   1.756   2.010   0.944 -2.1396  4.3689 -2.0555
   37SOL    HW2  147   1.755   2.086   1.074 -1.7529 -1.8402  1.1128
   37SOL     MW  148   1.798   2.051   1.008 -0.6757  0.1068 -0.5559
   38SOL     OW  149   2.861   0.958   0.149  0.1388 -0.0299 -0.6159
   38SOL    HW1  150   2.877   0.946   0.245 -0.6079  0.9939 -0.2058
   38SOL    HW2  151   2.938   0.929   0.109 -1.9635  0.1215  0.0356
   38SOL     MW  152   2.873   0.953   0.157 -0.2371  0.1251 -0.4758
   39SOL     OW  153   1.493   0.631   0.744  0.0556  0.7731  0.0809
   39SOL    HW1  154   1.471   0.544   0.778  3.9013  0.6360 -1.4482
   39SOL    HW2  155   1.419   0.684   0.747  1.4114  0.2368 -0.2389
   39SOL     MW  156   1.481   0.627   0.749  0.7419  0.6843 -0.1630
   40SOL     OW  157   1.253   1.859   0.246  0.1054 -0.3090 -0.2532
   40SOL    HW1  158   1.317   1.798   0.286  1.7927  0.2199  2.7954
   40SOL    HW2  159   1.245   1.931   0.311 -0.1177  0.3685 -0.1245
   40SOL     MW  160   1.260   1.861   0.260  0.2986 -0.1498  0.1660
   41SOL     OW  161   0.525   0.575   1.586 -0.3386  0.2447 -0.7433
   41SOL    HW1  162   0.604   0.607   1.548 -3.2312  0.4880  0.3544
   41SOL    HW2  163   0.460   0.636   1.570  2.1876  1.6274 -0.8074
   41SOL     MW  164   0.526   0.587   1.579 -0.3869  0.4593 -0.6070
   42SOL     OW  165   1.239   2.977   1.954 -0.0402  0.2706  0.5857
   42SOL    HW1  166   1.149   2.986   1.992 -2.4688 -1.2307 -0.7634
   42SOL    HW2  167   1.290   2.905   1.990  0.5816  1.9134 -0.7501
   42SOL     MW  168   1.234   2.968   1.963 -0.2786  0.2892  0.2315
   43SOL     OW  169   1.465   0.124   1.705 -0.4300 -0.4118  0.8954
   43SOL    HW1  170   1.517   0.115   1.623 -1.2816 -1.7866 -1.3574
   43SOL    HW2  171   1.409   0.051   1.688  3.4158 -2.2939  0.1457
   43SOL     MW  172   1.464   0.113   1.692 -0.0349 -0.8415  0.4993
   44SOL     OW  173   1.254   0.795   1.064  0.3703  0.0336 -0.3289
   44SOL    HW1  174   1.244   0.892   1.060  0.5923 -0.5320 -1.5511
   44SOL    HW2  175   1.232   0.756   1.151 -1.7205  0.5216 -0.0718
   44SOL     MW  176   1.250   0.803   1.075  0.1237  0.0233 -0.4563
   45SOL     OW  177   1.281   0.823   0.754  0.0844  0.3652 -0.3939
   45SOL    HW1  178   1.252   0.827   0.845 -0.2073  1.2301  0.4597
   45SOL    HW2  179   1.217   0.802   0.687  0.4024  1.3232  1.7630
   45SOL     MW  180   1.268   0.821   0.757  0.0879  0.6057  0.0033
   46SOL     OW  181   0.473   1.091   0.659 -0.2965  0.3734  0.4784
   46SOL    HW1  182   0.511   1.112   0.575 -2.5194  2.2714  0.3418
   46SOL    HW2  183   0.517   1.148   0.720 -1.2451 -0.6425 -1.6561
   46SOL     MW  184   0.484   1.102   0.656 -0.7149  0.4898  0.1787
   47SOL     OW  185   0.125   2.050   1.879 -0.8119  0.5324 -0.0766
   47SOL    HW1  186   0.085   1.981   1.827 -1.1981 -0.5684 -0.7295
   47SOL    HW2  187   0.087   2.044   1.972 -0.5192 -1.0484 -1.0346
   47SOL     MW  188   0.115   2.040   1.884 -0.8242  0.1786 -0.2892
   48SOL     OW  189   1.189   0.511   1.025  0.4405  0.1921 -0.2487
   48SOL    HW1  190   1.131   0.490   0.949  2.6326  0.6184 -0.1030
   48SOL    HW2  191   1.188   0.607   1.034 -3.3388 -0.6336  0.0040
   48SOL     MW  192   1.182   0.521   1.016  0.2311  0.1394 -0.1961
   49SOL     OW  193   1.661   0.668   1.549 -0.0451  0.3302  0.0135
   49SOL    HW1  194   1.713   0.628   1.623 -0.3747  0.8056 -0.1316
   49SOL    HW2  195   1.687   0.614   1.472 -1.2606 -0.8649 -0.4025
   49SOL     MW  196   1.671   0.656   1.548 -0.2490  0.2353 -0.0605
   50SOL     OW  197   1.268   1.239   0.596 -0.0119  0.5642 -0.0232
   50SOL    HW1  198   1.226   1.248   0.676  2.1913  0.7356 -5.0396
   50SOL    HW2  199   1.339   1.175   0.613  2.2569 -0.9020  0.9232
   50SOL     MW  200   1.272   1.232   0.609  0.5782  0.3934 -0.5602
   51SOL     OW  201   0.307   2.893   0.835 -0.0682  0.4240 -0.3396
   51SOL    HW1  202   0.395   2.867   0.815 -0.8034  0.8780  2.2111
   51SOL    HW2  203   0.302   2.933   0.918  1.9343 -0.4211 -1.0686
   51SOL     MW  204   0.318   2.895   0.843  0.0990  0.3724 -0.0993
   52SOL     OW  205   0.814   1.796   0.470 -0.2512  0.2124 -0.0313
   52SOL    HW1  206   0.777   1.886   0.492 -0.1186  0.4347  0.7392
   52SOL    HW2  207   0.840   1.794   0.375 -0.7874 -0.6902 -0.5811
   52SOL     MW  208   0.813   1.808   0.461 -0.3044  0.1226 -0.0022
   53SOL     OW  209   0.458   2.141   0.501  0.6564  0.1285  0.5503
   53SOL    HW1  210   0.379   2.130   0.443  1.1881 -1.6462 -2.3521
   53SOL    HW2  211   0.434   2.226   0.538  0.9500 -0.3998 -1.4925
   53SOL     MW  212   0.444   2.151   0.498  0.7653 -0.1754 -0.1022
   54SOL     OW  213   2.028   0.971   0.727 -0.1173 -0.1778  0.1945
   54SOL    HW1  214   2.101   0.942   0.674 -2.0313  0.1136  1.6790
   54SOL    HW2  215   1.997   0.883   0.754  0.5516 -0.5482 -0.8549
   54SOL     MW  216   2.034   0.955   0.723 -0.2816 -0.1882  0.2519
   55SOL     OW  217   0.446   1.512   1.678 -0.1209  0.3515 -0.0085
   55SOL    HW1  218   0.398   1.546   1.605 -1.6587 -0.3892  2.4172
   55SOL    HW2  219   0.504   1.441   1.649  1.1985 -0.1305 -0.8412
   55SOL     MW  220   0.448   1.507   1.664 -0.1497  0.1902  0.2017
   56SOL     OW  221   0.650   0.897   0.158  0.4553  0.0675 -0.4008
   56SOL    HW1  222   0.642   0.970   0.096  1.7962  2.8332  0.5349
   56SOL    HW2  223   0.565   0.854   0.161 -0.9900 -0.1331 -1.1695
   56SOL     MW  224   0.638   0.901   0.150  0.4415  0.4060 -0.3788
   57SOL     OW  225   1.093   1.273   1.120  0.2324  0.1390  0.0563
   57SOL    HW1  226   1.185   1.310   1.134  0.3505  2.0044  2.4857
   57SOL    HW2  227   1.075   1.234   1.208  1.6619  0.9980  1.8487
   57SOL     MW  228   1.103   1.272   1.134  0.4366  0.4984  0.6133
   58SOL     OW  229   0.434   1.255   1.296 -0.7802  0.4586  0.0439
   58SOL    HW1  230   0.426   1.346   1.285 -0.0960 -1.0980  2.5258
   58SOL    HW2  231   0.460   1.255   1.389  1.0754  0.4025 -2.8113
   58SOL     MW  232   0.436   1.267   1.307 -0.4451  0.2458 -0.0054
   59SOL     OW  233   1.431   1.699   0.405 -0.3687 -0.2679 -0.1860
   59SOL    HW1  234   1.485   1.737   0.478 -1.4638  1.2571  0.6719
   59SOL    HW2  235   1.348   1.656   0.438 -2.1227  0.4382  2.3675
   59SOL     MW  236   1.427   1.698   0.419 -0.7446  0.0264  0.2641
   60SOL     OW  237   3.075   0.185   1.646  0.0190 -0.2704 -0.5015
   60SOL    HW1  238   3.003   0.246   1.681 -0.4476 -0.5279  0.7859
   60SOL    HW2  239   3.112   0.135   1.714 -0.9154 -3.0222  2.0618
   60SOL     MW  240   3.070   0.187   1.660 -0.1659 -0.6674  0.0066
   61SOL     OW  241   1.941   1.382   3.001 -0.5601 -0.2781  0.1644
   61SOL    HW1  242   1.919   1.373   3.098 -1.0426 -0.3325  1.5897
   61SOL    HW2  243   2.005   1.314   2.992  0.0506  2.5930  2.0983
   61SOL     MW  244   1.947   1.372   3.012 -0.5432  0.0936  0.6076
   62SOL     OW  245   0.598   1.711   0.602 -0.0810 -0.1389  0.6082
   62SOL    HW1  246   0.678   1.724   0.546  1.4811 -0.0405  1.2847
   62SOL    HW2  247   0.558   1.624   0.578 -1.0840  0.7278 -1.0494
   62SOL     MW  248   0.603   1.701   0.591 -0.0072 -0.0116  0.4787
   63SOL     OW  249   1.731   0.698   0.647 -0.2013  0.3329 -0.0606
   63SOL    HW1  250   1.700   0.782   0.614  2.8419  0.2043  0.4341
   63SOL    HW2  251   1.647   0.659   0.685  0.2733 -0.5570 -1.6884
   63SOL     MW  252   1.716   0.704   0.648  0.2629  0.1985 -0.2101
   64SOL     OW  253   0.241   1.652   0.746  0.4783  0.7407 -0.2938
   64SOL    HW1  254   0.311   1.715   0.752  0.8274 -1.4406  0.0505
   64SOL    HW2  255   0.160   1.704   0.748 -3.8747 -1.8324  1.1174
   64SOL     MW  256   0.240   1.667   0.747 -0.0499  0.1134 -0.0622
   65SOL     OW  257   1.480   2.317   0.363 -0.2500  0.0424  0.2732
   65SOL    HW1  258   1.574   2.320   0.369 -0.5346 -1.7348  0.5303
   65SOL    HW2  259   1.437   2.358   0.442 -3.2585  0.2871  1.3240
   65SOL     MW  260   1.487   2.322   0.374 -0.6844 -0.1598  0.4458
   66SOL     OW  261   0.355   0.603   0.488  0.0093 -0.6069 -0.1069
   66SOL    HW1  262   0.419   0.618   0.418  0.8803 -0.5337 -1.7642
   66SOL    HW2  263   0.325   0.698   0.501 -0.4812 -1.2045  0.6883
   66SOL     MW  264   0.359   0.617   0.480  0.0595 -0.6761 -0.2206
   67SOL     OW  265   1.478   0.044   2.004 -0.3250 -0.1392  0.0829
   67SOL    HW1  266   1.509   0.092   1.922  1.4508 -1.3254 -0.8202
   67SOL    HW2  267   1.431  -0.028   1.968 -1.4667 -1.7527  1.1684
   67SOL     MW  268   1.476   0.041   1.989 -0.2413 -0.5086  0.1070
   68SOL     OW  269   0.779  -0.003   2.977 -0.2796  1.0392 -0.8423
   68SOL    HW1  270   0.778   0.022   2.885 -0.3835  1.4947 -0.2518
   68SOL    HW2  271   0.855   0.051   3.014 -0.6141  1.8031  0.0961
   68SOL     MW  272   0.789   0.008   2.969 -0.3375  1.2001 -0.6406
   69SOL     OW  273   1.022   0.230   1.940  0.7869 -0.0050 -0.2876
   69SOL    HW1  274   1.089   0.256   2.002 -0.3367  0.8398  0.0221
   69SOL    HW2  275   0.984   0.152   1.982 -0.2158 -1.6399  1.7389
   69SOL     MW  276   1.026   0.223   1.954  0.5064 -0.1093  0.0206
   70SOL     OW  277   0.496   1.755   1.073  0.2948  0.0742 -0.2949
   70SOL    HW1  278   0.586   1.793   1.090  1.4759  1.3910  3.6423
   70SOL    HW2  279   0.523   1.690   1.007  0.2809 -3.8112  1.8903
   70SOL     MW  280   0.511   1.751   1.067  0.4488 -0.2647  0.5129
   71SOL     OW  281   1.521   0.542   1.242  0.5301  0.1597  0.6186
   71SOL    HW1  282   1.472   0.601   1.306  1.1762  0.6746  1.0644
   71SOL    HW2  283   1.503   0.588   1.159 -0.7722 -2.2299  1.0897
   71SOL     MW  284   1.512   0.556   1.240  0.4435 -0.0877  0.7396
   72SOL     OW  285   0.755   1.835   1.005  0.1134 -0.7722  0.0325
   72SOL    HW1  286   0.761   1.909   0.943 -1.0836 -0.3400 -0.8725
   72SOL    HW2  287   0.809   1.759   0.973  0.7855 -0.9219 -1.3623
   72SOL     MW  288   0.762   1.835   0.993  0.0441 -0.7349 -0.2710
   73SOL     OW  289   1.188   0.667   1.291 -0.6586  0.0361 -0.3428
   73SOL    HW1  290   1.121   0.589   1.274 -3.7364 -1.1629 -1.6516
   73SOL    HW2  291   1.147   0.744   1.336  0.3356  1.3163 -0.9038
   73SOL     MW  292   1.174   0.667   1.295 -0.9336  0.0468 -0.5895
   74SOL     OW  293   2.836   0.120   1.002 -0.6469 -0.5764 -0.6337
   74SOL    HW1  294   2.902   0.184   0.969  1.1677  1.1686  0.5700
   74SOL    HW2  295   2.755   0.139   0.958 -2.2436 -1.2748 -1.3076
   74SOL     MW  296   2.834   0.131   0.992 -0.6182 -0.4383 -0.5638
   75SOL     OW  297   1.564   1.345   0.152 -0.3857 -0.0466 -0.0296
   75SOL    HW1  298   1.635   1.305   0.100  0.4477 -0.0509  0.3551
   75SOL    HW2  299   1.590   1.329   0.250  1.6237 -0.4071  1.4757
   75SOL     MW  300   1.577   1.337   0.158 -0.0106 -0.0948  0.2198
   76SOL     OW  301   2.987   0.649   0.491  0.1523 -0.0594 -0.7406
   76SOL    HW1  302   3.035   0.677   0.570 -1.2288 -1.7262  2.2442
   76SOL    HW2  303   3.053   0.580   0.465 -1.8447 -1.2820  1.2445
   76SOL     MW  304   3.002   0.644   0.498 -0.2934 -0.4406 -0.0849
   77SOL     OW  305   0.870   0.615   0.424 -0.2142  0.2930 -0.0129
   77SOL    HW1  306   0.842   0.630   0.334 -1.1082  1.5250  0.2272
   77SOL    HW2  307   0.862   0.522   0.442 -0.6028 -0.0425  2.7340
   77SOL     MW  308   0.865   0.605   0.415 -0.3834  0.4113  0.3812
   78SOL     OW  309   0.753   0.852   1.104  0.1587  0.7405  0.2860
   78SOL    HW1  310   0.747   0.915   1.030  1.7118  0.1554  2.9716
   78SOL    HW2  311   0.664   0.833   1.143 -0.4764 -1.9922  1.5691
   78SOL     MW  312   0.741   0.858   1.099  0.2798  0.3027  0.8096
   79SOL     OW  313   1.869   1.553   0.572  0.5619 -0.3928  0.0965
   79SOL    HW1  314   1.791   1.503   0.587 -1.6193 -2.3007 -1.5837
   79SOL    HW2  315   1.904   1.557   0.658 -1.3873 -1.6744 -1.7638
   79SOL     MW  316   1.863   1.547   0.585  0.0170 -0.8136 -0.3707
   80SOL     OW  317   0.090   0.988   0.329  1.1406  0.7293 -0.7144
   80SOL    HW1  318   0.006   0.947   0.368 -1.2000  1.5126  0.0946
   80SOL    HW2  319   0.149   0.922   0.367 -2.7499 -0.5154  1.1422
   80SOL     MW  320   0.087   0.974   0.339  0.3185  0.6684 -0.3627
   81SOL     OW  321   1.806   1.866   0.337 -0.3433  0.2471 -0.3269
   81SOL    HW1  322   1.806   1.780   0.304 -0.7817  1.8651  2.3276
   81SOL    HW2  323   1.757   1.917   0.266 -0.5066 -1.0180  0.7572
   81SOL     MW  324   1.800   1.861   0.323 -0.4227  0.2937  0.1663
   82SOL     OW  325   0.903   1.046   0.514  0.2341  0.5643 -0.3640
   82SOL    HW1  326   0.850   1.074   0.441 -1.5698 -0.4423  1.1294
   82SOL    HW2  327   0.859   0.964   0.538  4.2990 -0.8952 -1.3660
   82SOL     MW  328   0.890   1.039   0.507  0.5325  0.2389 -0.2991
   83SOL     OW  329   0.030   0.783   1.545 -0.3055  0.1530 -0.0855
   83SOL    HW1  330   0.023   0.831   1.459  0.6393  1.7817  2.4604
   83SOL    HW2  331   0.092   0.714   1.542 -3.1161  1.5154  1.0004
   83SOL     MW  332   0.037   0.780   1.533 -0.5517  0.5477  0.3937
   84SOL     OW  333   0.046   0.200   0.912 -0.1962 -0.1899 -0.1123
   84SOL    HW1  334   0.022   0.289   0.937  0.9916 -0.1319  1.5776
   84SOL    HW2  335   0.058   0.139   0.986  0.1314 -1.8144  0.4378
   84SOL     MW  336   0.044   0.203   0.925  0.0037 -0.3966  0.1832
   85SOL     OW  337   0.393   0.462   0.728 -0.1670  0.3164  0.4361
   85SOL    HW1  338   0.410   0.492   0.638  2.0801 -1.7729  0.0091
   85SOL    HW2  339   0.372   0.369   0.726 -0.7858  2.2750 -0.1441
   85SOL     MW  340   0.393   0.453   0.716  0.0479  0.2992  0.3032
   86SOL     OW  341   1.229   0.272   1.168  0.1312  0.0778  0.6823
   86SOL    HW1  342   1.187   0.355   1.137  1.6984  0.1712 -2.2869
   86SOL    HW2  343   1.305   0.298   1.218  0.0686  0.1237 -1.2694
   86SOL     MW  344   1.233   0.286   1.170  0.3297  0.0961  0.0331
   87SOL     OW  345   1.048   1.526   1.212  0.0779  0.6300 -0.1739
   87SOL    HW1  346   1.110   1.580   1.164  1.1121 -3.2406 -0.3772
   87SOL    HW2  347   1.066   1.434   1.186  1.1772 -1.4290 -1.0161
   87SOL     MW  348   1.059   1.521   1.203  0.3594 -0.1523 -0.3118
   88SOL     OW  349   1.256   1.066   1.023 -0.5465  0.0457 -0.2345
   88SOL    HW1  350   1.350   1.093   1.023  2.0991 -0.2335 -2.5530
   88SOL    HW2  351   1.209   1.120   1.086  0.5120  0.9490  2.3033
   88SOL     MW  352   1.262   1.077   1.031 -0.0578  0.1280 -0.2056
   89SOL     OW  353   1.742   0.713   0.270  0.3533 -0.2691 -0.4367
   89SOL    HW1  354   1.716   0.620   0.278 -1.4275 -0.0267  0.5613
   89SOL    HW2  355   1.825   0.728   0.313  0.3130 -2.1462 -0.3383
   89SOL     MW  356   1.749   0.702   0.277  0.1130 -0.4848 -0.2920
   90SOL     OW  357   0.836   1.215   2.896 -0.3081  0.1468 -0.1005
   90SOL    HW1  358   0.907   1.153   2.912  0.9778  2.7981 -1.4458
   90SOL    HW2  359   0.848   1.296   2.943  0.4768 -0.6358  0.4184
   90SOL     MW  360   0.847   1.217   2.904 -0.0348  0.3934 -0.2095
   91SOL     OW  361   2.181   0.626   0.452 -0.2133 -0.2607  0.3783
   91SOL    HW1  362   2.264   0.662   0.418  3.1039  2.0855  0.8337
   91SOL    HW2  363   2.172   0.536   0.423 -0.8161  2.2944 -0.4945
   91SOL     MW  364   2.191   0.619   0.444  0.1448  0.3860  0.3232
   92SOL     OW  365   1.644   0.960   0.560 -0.2150  0.0710 -0.2852
   92SOL    HW1  366   1.575   0.990   0.618  0.0672  1.0845 -0.8968
   92SOL    HW2  367   1.603   0.973   0.477  2.1414 -2.5134 -0.6565
   92SOL     MW  368   1.629   0.966   0.557  0.1332 -0.1363 -0.4149
   93SOL     OW  369   1.074   0.251   0.352 -0.5179  0.3977 -0.0130
   93SOL    HW1  370   0.977   0.256   0.357  0.4145  1.4535  1.2061
   93SOL    HW2  371   1.087   0.294   0.263 -1.2713  1.0247 -2.7700
   93SOL     MW  372   1.063   0.258   0.341 -0.4943  0.6197 -0.2159
   94SOL     OW  373   1.848   1.381   1.582  0.9711  0.7620  0.4219
   94SOL    HW1  374   1.864   1.400   1.487  2.0988  1.2273 -1.1721
   94SOL    HW2  375   1.829   1.286   1.583  1.0676 -0.6876  1.3910
   94SOL     MW  376   1.847   1.371   1.570  1.1326  0.6321  0.3394
   95SOL     OW  377   0.600   1.552   0.920 -0.4039 -0.0342 -0.2673
   95SOL    HW1  378   0.658   1.506   0.988 -0.1497  1.0382 -4.2796
   95SOL    HW2  379   0.539   1.489   0.883 -0.6343  1.7138  2.8375
   95SOL     MW  380   0.600   1.537   0.924 -0.4008  0.3379 -0.3870
   96SOL     OW  381   1.321   1.846   1.649 -0.3691 -0.1152 -0.1196
   96SOL    HW1  382   1.256   1.848   1.716  0.6995  0.9442 -0.8566
   96SOL    HW2  383   1.317   1.755   1.615  0.3917 -0.6187 -1.7234
   96SOL     MW  384   1.312   1.834   1.653 -0.1278 -0.0419 -0.4284
   97SOL     OW  385   1.074   1.498   0.913 -0.2140  0.7238 -0.9252
   97SOL    HW1  386   1.136   1.566   0.941  2.4848  0.1391 -2.1199
   97SOL    HW2  387   0.987   1.543   0.909 -0.5221  2.0996  1.1863
   97SOL     MW  388   1.071   1.513   0.916  0.1014  0.8282 -0.8043
   98SOL     OW  389   1.349   1.385   1.182 -0.5902  0.1285  0.0181
   98SOL    HW1  390   1.403   1.395   1.258  0.9939  1.4530  1.2032
   98SOL    HW2  391   1.404   1.423   1.110  1.1330  1.1464  0.2468
   98SOL     MW  392   1.363   1.392   1.182 -0.1539  0.4376  0.2047
   99SOL     OW  393   1.481   0.278   1.284  0.7340  0.5756  0.6240
   99SOL    HW1  394   1.491   0.380   1.279  2.8069 -1.8030  0.1490
   99SOL    HW2  395   1.478   0.251   1.376 -3.3922  0.1939 -3.0372
   99SOL     MW  396   1.482   0.288   1.296  0.4631  0.2114  0.0782
  100SOL     OW  397   1.068   1.153   1.364  0.2711 -0.0609  0.2935
  100SOL    HW1  398   1.086   1.215   1.436 -0.9365  1.8081 -1.3451
  100SOL    HW2  399   1.107   1.072   1.396 -0.1841 -1.4582  1.4986
  100SOL     MW  400   1.075   1.150   1.377  0.0517  0.0013  0.2363
  101SOL     OW  401   0.538   1.210   0.411  0.6412 -0.0634  0.4162
  101SOL    HW1  402   0.452   1.175   0.374 -3.3807  2.3592  1.3414
  101SOL    HW2  403   0.616   1.169   0.362  1.2309  2.1822 -2.2814
  101SOL     MW  404   0.537   1.200   0.400  0.1884  0.5525  0.1823
  102SOL     OW  405   2.912   0.658   1.110  0.1553 -0.0657  0.2648
  102SOL    HW1  406   2.944   0.749   1.111 -1.7612  0.9244  1.7166
  102SOL    HW2  407   2.894   0.634   1.206 -1.1963 -2.4188  2.9840
  102SOL     MW  408   2.914   0.667   1.122 -0.2759 -0.2456  0.8151
  103SOL     OW  409   1.864   0.251   1.831  0.2284 -0.2591 -0.5094
  103SOL    HW1  410   1.863   0.154   1.818 -0.4504  0.9194  1.3970
  103SOL    HW2  411   1.855   0.251   1.930  0.0369  0.8560  0.2493
  103SOL     MW  412   1.863   0.238   1.843  0.1136  0.0435 -0.1577
  104SOL     OW  413   0.092   1.510   1.654  0.1692 -0.5149  0.2136
  104SOL    HW1  414   0.147   1.443   1.709 -0.2239 -0.4755 -0.9242
  104SOL    HW2  415  -0.007   1.492   1.668  2.5746  1.3165  0.7312
  104SOL     MW  416   0.087   1.499   1.663  0.4347 -0.2681  0.1318
  105SOL     OW  417   3.060   1.235   0.402  0.3639  0.0536 -0.0585
  105SOL    HW1  418   3.094   1.150   0.383 -1.0556  1.3611  0.7389
  105SOL    HW2  419   3.137   1.288   0.407  0.2520 -1.1869 -0.6192
  105SOL     MW  420   3.075   1.231   0.400  0.1618  0.0625 -0.0273
  106SOL     OW  421   0.789   0.378   0.855  0.3824 -0.1608 -0.3936
  106SOL    HW1  422   0.726   0.443   0.883 -0.4442  0.3575 -1.9516
  106SOL    HW2  423   0.859   0.416   0.808 -0.1280 -2.1300  0.7661
  106SOL     MW  424   0.790   0.391   0.853  0.2060 -0.3522 -0.4462
  107SOL     OW  425   0.809   2.163   2.880 -0.9327 -0.0499  0.2144
  107SOL    HW1  426   0.722   2.157   2.848 -0.6589  3.0758  0.7649
  107SOL    HW2  427   0.803   2.139   2.976  2.2273  1.0596  1.2821
  107SOL     MW  428   0.797   2.159   2.888 -0.4796  0.5089  0.4279
  108SOL     OW  429   1.351   1.569   1.643  0.4310 -0.4814 -0.3477
  108SOL    HW1  430   1.288   1.542   1.563 -0.9300  1.3287  2.4887
  108SOL    HW2  431   1.419   1.503   1.639  3.7686 -0.0454  1.8425
  108SOL     MW  432   1.351   1.557   1.632  0.6918 -0.1851  0.3155
  109SOL     OW  433   2.053   0.758   0.245  0.2856  0.0880  0.0846
  109SOL    HW1  434   2.039   0.852   0.277  0.1563  2.6329  1.5460
  109SOL    HW2  435   2.088   0.703   0.319  2.4533 -1.4583  0.2045
  109SOL     MW  436   2.056   0.763   0.259  0.5545  0.2197  0.2932
  110SOL     OW  437   0.421   1.969   0.716  0.0393 -0.7102  0.7300
  110SOL    HW1  438   0.506   1.935   0.736 -0.9299  0.4107  0.7474
  110SOL    HW2  439   0.427   2.033   0.647  0.0639 -0.7568 -3.0922
  110SOL     MW  440   0.433   1.973   0.710 -0.0853 -0.5684  0.2280
  111SOL     OW  441   0.847   0.891   1.360  0.1542 -0.1804 -0.3444
  111SOL    HW1  442   0.841   0.876   1.263  2.1818 -1.1029 -0.7123
  111SOL    HW2  443   0.823   0.797   1.398 -0.5072 -1.7359  0.3920
  111SOL     MW  444   0.843   0.876   1.352  0.3345 -0.5073 -0.2958
  112SOL     OW  445   1.371   1.072   1.604 -0.1501  0.0014 -0.3483
  112SOL    HW1  446   1.293   1.133   1.620 -1.0737 -1.2144  0.8850
  112SOL    HW2  447   1.331   0.988   1.622 -0.4517  0.4197 -2.3108
  112SOL     MW  448   1.356   1.069   1.608 -0.3117 -0.1038 -0.4445
  113SOL     OW  449   1.243   3.033   1.687 -0.7622 -0.2561 -0.4236
  113SOL    HW1  450   1.233   3.003   1.777  2.0918 -0.1342  0.4872
  113SOL    HW2  451   1.207   2.962   1.637 -0.3931 -0.6289  1.5091
  113SOL     MW  452   1.237   3.020   1.692 -0.3369 -0.2892 -0.0484
  114SOL     OW  453   0.260   2.902   1.882 -0.0041  0.1888 -0.7446
  114SOL    HW1  454   0.320   2.962   1.915 -1.5828 -2.5806 -1.3711
  114SOL    HW2  455   0.176   2.938   1.904 -2.2017 -0.2112  0.5036
  114SOL     MW  456   0.257   2.914   1.889 -0.5023 -0.2294 -0.6625
  115SOL     OW  457   0.469   0.814   1.177  0.8291  0.2993 -0.4863
  115SOL    HW1  458   0.467   0.719   1.204  0.5808  1.4985  0.7930
  115SOL    HW2  459   0.419   0.858   1.242 -0.4584  0.0966  2.0753
  115SOL     MW  460   0.462   0.807   1.189  0.6265  0.4308  0.0205
  116SOL     OW  461   0.776   1.108   0.960 -0.1262  0.3910 -0.1749
  116SOL    HW1  462   0.816   1.146   0.875 -1.9727  0.6513 -2.3988
  116SOL    HW2  463   0.824   1.158   1.035 -1.5340 -1.5124  2.0255
  116SOL     MW  464   0.787   1.119   0.959 -0.5556  0.1742 -0.1780
  117SOL     OW  465   1.131   1.240   0.827  0.1064 -0.0294  0.1143
  117SOL    HW1  466   1.147   1.172   0.892 -1.5654  1.5326 -0.6014
  117SOL    HW2  467   1.122   1.332   0.864  1.9500  2.4500  0.1857
  117SOL     MW  468   1.132   1.243   0.841  0.1291  0.5038  0.0293
  118SOL     OW  469   3.031   2.960   1.737  0.5984  0.0147  0.3466
  118SOL    HW1  470   3.088   3.030   1.780  0.5535  0.3697  0.0270
  118SOL    HW2  471   2.945   2.998   1.730 -0.1334  3.2885 -0.9324
  118SOL     MW  472   3.027   2.974   1.742  0.4959  0.4935  0.1357
  119SOL     OW  473   0.401   1.557   1.234 -0.5004  0.1034  0.3272
  119SOL    HW1  474   0.431   1.626   1.171  1.4469  0.3907  0.7503
  119SOL    HW2  475   0.323   1.519   1.197  1.3978 -1.7282  2.1355
  119SOL     MW  476   0.395   1.561   1.220  0.0070 -0.1004  0.6216
  120SOL     OW  477   0.262   0.804   0.996 -0.1873  0.1265 -0.0951
  120SOL    HW1  478   0.297   0.760   1.073  0.4418 -2.4373 -0.4839
  120SOL    HW2  479   0.337   0.837   0.942  0.5498 -2.0533  1.4809
  120SOL     MW  480   0.277   0.802   0.999 -0.0071 -0.4993  0.0615
  121SOL     OW  481   1.796   1.109   1.616 -0.4242  0.1047 -0.0496
  121SOL    HW1  482   1.733   1.105   1.544  2.4221  1.4142  0.7571
  121SOL    HW2  483   1.852   1.027   1.605  0.0858 -0.9960  3.2049
  121SOL     MW  484   1.795   1.098   1.605  0.0186  0.1322  0.4862
  122SOL     OW  485   0.144   0.588   0.837 -0.6985  0.4089  0.3264
  122SOL    HW1  486   0.207   0.525   0.808 -3.5820  1.2146  3.7402
  122SOL    HW2  487   0.196   0.663   0.868  0.9095  2.7763  1.1191
  122SOL     MW  488   0.159   0.590   0.837 -0.8668  0.8276  0.8814
  123SOL     OW  489   1.861   1.118   0.519  0.2681 -0.0459  0.6619
  123SOL    HW1  490   1.771   1.080   0.534 -0.7887  1.3234 -0.1394
  123SOL    HW2  491   1.913   1.052   0.560 -0.0769 -1.2225 -4.2881
  123SOL     MW  492   1.856   1.105   0.527  0.0831 -0.0204 -0.0969
  124SOL     OW  493   0.533   0.511   0.953 -0.0257 -1.2977  0.0284
  124SOL    HW1  494   0.487   0.508   0.867  0.4932 -0.8025  0.4424
  124SOL    HW2  495   0.581   0.594   0.954 -0.0038 -1.2987 -1.3504
  124SOL     MW  496   0.534   0.522   0.942  0.0456 -1.2325 -0.0988
  125SOL     OW  497   0.698   1.725   1.797 -0.1998 -0.1879  0.6775
  125SOL    HW1  498   0.685   1.662   1.726 -1.1059  2.7878 -2.5336
  125SOL    HW2  499   0.664   1.803   1.747 -2.1314  1.4964  0.1490
  125SOL     MW  500   0.692   1.727   1.781 -0.5742  0.4270  0.1841
  126SOL     OW  501   2.173   1.537   1.941  0.1728 -0.1362 -0.2035
  126SOL    HW1  502   2.254   1.587   1.923 -1.7088 -1.1381  2.5791
  126SOL    HW2  503   2.204   1.444   1.938  0.5434 -1.3936 -2.0921
  126SOL     MW  504   2.188   1.531   1.938 -0.0266 -0.4343 -0.0856
  127SOL     OW  505   0.537   0.827   1.774 -0.6557 -0.4525  0.1271
  127SOL    HW1  506   0.629   0.810   1.766  1.1750  1.5304 -0.7596
  127SOL    HW2  507   0.520   0.872   1.859  0.9309 -1.0105  0.6906
  127SOL     MW  508   0.547   0.831   1.784 -0.2048 -0.2645  0.0845
  128SOL     OW  509   1.741   0.695   2.876  0.0813  0.5155  0.2862
  128SOL    HW1  510   1.781   0.665   2.785  2.1900 -1.6643 -3.6852
  128SOL    HW2  511   1.723   0.790   2.871  1.4569  1.6655  2.3615
  128SOL     MW  512   1.744   0.704   2.863  0.5410  0.3796  0.0360
  129SOL     OW  513   1.576   0.931   0.191  0.0499 -0.2437 -0.0432
  129SOL    HW1  514   1.538   0.842   0.170  1.2488 -0.1345  0.0829
  129SOL    HW2  515   1.656   0.898   0.238 -0.8150 -0.9219  1.1418
  129SOL     MW  516   1.581   0.915   0.195  0.0940 -0.3188  0.1298
  130SOL     OW  517   0.839   1.444   0.321 -0.4236  0.0277  0.4681
  130SOL    HW1  518   0.833   1.472   0.418 -0.2344 -0.3555 -1.2799
  130SOL    HW2  519   0.929   1.469   0.302  2.5440 -0.4618  1.1643
  130SOL     MW  520   0.850   1.451   0.332 -0.0071 -0.0875  0.3293
  131SOL     OW  521   0.011   0.776   0.054  0.4896 -0.1504  0.0729
  131SOL    HW1  522   0.012   0.835  -0.018  0.1201 -0.1433  1.1444
  131SOL    HW2  523   0.105   0.751   0.061  3.1079  0.8344  0.9874
  131SOL     MW  524   0.023   0.780   0.046  0.7863 -0.0196  0.3349
  132SOL     OW  525   2.751   0.112   1.264 -0.2617 -0.2186  0.1049
  132SOL    HW1  526   2.787   0.134   1.179  2.7899 -1.1557 -1.5137
  132SOL    HW2  527   2.654   0.078   1.249 -1.8094 -1.6775  0.7792
  132SOL     MW  528   2.743   0.111   1.251 -0.0633 -0.5347 -0.0197
  133SOL     OW  529   1.027   0.115   1.648  0.6308  0.6805 -0.3731
  133SOL    HW1  530   1.099   0.043   1.656  1.2393 -1.1528  0.3652
  133SOL    HW2  531   0.998   0.133   1.737  0.9037  1.0461 -0.6561
  133SOL     MW  532   1.032   0.108   1.661  0.7471  0.4869 -0.3130
  134SOL     OW  533   1.416   2.428   1.484  0.0709  0.1560  0.3286
  134SOL    HW1  534   1.346   2.495   1.465 -0.9218 -0.0225  1.4660
  134SOL    HW2  535   1.455   2.429   1.573 -0.2425 -1.7496 -1.4258
  134SOL     MW  536   1.412   2.437   1.493 -0.1015 -0.1190  0.2472
  135SOL     OW  537   2.989   0.990   2.973 -0.3610  0.0131  0.3584
  135SOL    HW1  538   3.071   1.037   2.997 -0.8139  1.9524  1.8123
  135SOL    HW2  539   2.948   1.068   2.932 -0.4743  1.6830  0.4915
  135SOL     MW  540   2.994   1.006   2.971 -0.4357  0.4893  0.5678
  136SOL     OW  541   0.208   1.988   0.876 -0.2926 -0.4239 -0.2687
  136SOL    HW1  542   0.139   1.959   0.817  2.0498  1.7285  1.0650
  136SOL    HW2  543   0.288   1.974   0.825 -1.1117  0.2045 -0.3062
  136SOL     MW  544   0.210   1.982   0.862 -0.0916 -0.0570 -0.0977
  137SOL     OW  545   0.708   2.026   0.562  0.2356  0.0261 -0.3890
  137SOL    HW1  546   0.708   2.005   0.656 -0.2538 -0.5768 -0.2305
  137SOL    HW2  547   0.617   2.041   0.528  2.0373 -0.1272  1.2664
  137SOL     MW  548   0.696   2.026   0.570  0.4088 -0.0737 -0.1497
  138SOL     OW  549   0.446   0.547   1.230  0.6155 -0.0105  0.3115
  138SOL    HW1  550   0.369   0.500   1.245 -1.2112  1.5861  0.2024
  138SOL    HW2  551   0.469   0.529   1.139 -0.7186 -1.7164 -0.1763
  138SOL     MW  552   0.439   0.539   1.220  0.1985 -0.0249  0.2327
  139SOL     OW  553   2.826   0.571   1.340  0.5112 -0.0240 -0.2250
  139SOL    HW1  554   2.890   0.496   1.339  1.1184  1.3841 -1.1674
  139SOL    HW2  555   2.824   0.595   1.434  0.6387 -1.2415 -1.0509
  139SOL     MW  556   2.834   0.564   1.353  0.6081  0.0011 -0.4583
  140SOL     OW  557   0.898   0.472   1.963 -0.1165 -0.5319  0.0040
  140SOL    HW1  558   0.943   0.389   1.953  0.4237 -1.6700  0.6657
  140SOL    HW2  559   0.840   0.469   2.039 -0.4737 -0.2290 -0.5273
  140SOL     MW  560   0.896   0.461   1.972 -0.0924 -0.6421  0.0212
  141SOL     OW  561   1.010   0.650   1.633  0.2096 -0.4823 -0.2378
  141SOL    HW1  562   1.048   0.560   1.633 -0.0659 -1.9271 -2.3373
  141SOL    HW2  563   1.077   0.704   1.669 -2.5023 -1.8885  0.0483
  141SOL     MW  564   1.024   0.645   1.638 -0.1846 -0.8585 -0.4771
  142SOL     OW  565   0.872   1.207   0.722 -0.3523 -0.0944  0.1490
  142SOL    HW1  566   0.890   1.153   0.641  1.1784 -1.8905  0.4912
  142SOL    HW2  567   0.961   1.204   0.759  1.3903  2.5220  1.7538
  142SOL     MW  568   0.886   1.199   0.717  0.0796  0.0138  0.4059
  143SOL     OW  569   1.844   0.657   1.060 -0.3429  0.0164 -0.5556
  143SOL    HW1  570   1.905   0.686   0.986  0.3131  0.2331  2.0293
  143SOL    HW2  571   1.758   0.635   1.019 -2.0264 -0.9424  2.6705
  143SOL     MW  572   1.841   0.658   1.045 -0.4785 -0.0815  0.2111
  144SOL     OW  573   0.270   1.326   1.751 -0.1250  0.3051  0.1657
  144SOL    HW1  574   0.329   1.403   1.738 -1.7419 -0.5755 -1.1205
  144SOL    HW2  575   0.329   1.258   1.799 -2.2962 -2.1605  0.1840
  144SOL     MW  576   0.285   1.328   1.756 -0.6248 -0.1364 -0.0016
  145SOL     OW  577   0.159   0.452   1.254 -0.4152  0.0346 -0.1900
  145SOL    HW1  578   0.187   0.357   1.278  1.0906  0.1427  0.3169
  145SOL    HW2  579   0.163   0.452   1.158 -0.9701 -0.0014 -1.2688
  145SOL     MW  580   0.163   0.439   1.245 -0.2898  0.0441 -0.2654
  146SOL     OW  581   0.822   1.902   1.422  0.2440  0.1868  0.5204
  146SOL    HW1  582   0.835   1.949   1.338 -0.5957 -1.8044  0.5921
  146SOL    HW2  583   0.731   1.879   1.430  0.6890  0.0343 -0.0346
  146SOL     MW  584   0.811   1.905   1.412  0.1919 -0.0960  0.4566
  147SOL     OW  585   0.442   0.467   2.907 -0.0146 -0.1016  0.1166
  147SOL    HW1  586   0.376   0.483   2.973  0.0087 -0.9953 -0.0668
  147SOL    HW2  587   0.434   0.537   2.844  0.3988  0.7110  3.0477
  147SOL     MW  588   0.432   0.479   2.908  0.0430 -0.1123  0.4791
  148SOL     OW  589   0.067   0.929   1.309  0.0843 -0.4489  0.2260
  148SOL    HW1  590   0.145   0.973   1.323 -0.0196  0.3823  3.2193
  148SOL    HW2  591   0.007   0.999   1.335 -0.9574 -3.8937  0.7342
  148SOL     MW  592   0.069   0.944   1.314 -0.0668 -0.7938  0.6880
  149SOL     OW  593   1.583   1.171   1.437  0.1783 -0.2142 -0.8565
  149SOL    HW1  594   1.515   1.134   1.505 -1.9929 -2.5883  1.8704
  149SOL    HW2  595   1.564   1.263   1.422 -0.9616 -0.0555 -0.8807
  149SOL     MW  596   1.572   1.178   1.444 -0.2586 -0.5065 -0.4999
  150SOL     OW  597   1.733   1.395   0.892  0.0150  0.4792  0.0782
  150SOL    HW1  598   1.800   1.325   0.872 -0.0312  0.4701 -0.9517
  150SOL    HW2  599   1.784   1.476   0.886  3.5064 -3.8271 -2.7490
  150SOL     MW  600   1.749   1.396   0.889  0.4696 -0.0901 -0.4307
  151SOL     OW  601   1.678   1.885   0.816  0.1003  0.8023  0.3061
  151SOL    HW1  602   1.638   1.875   0.727  2.0689  0.3621  1.2449
  151SOL    HW2  603   1.611   1.853   0.873 -0.0195  0.7854 -1.0141
  151SOL     MW  604   1.664   1.879   0.812  0.3442  0.7420  0.2557
  152SOL     OW  605   0.699   1.416   1.581 -0.2664 -0.8476 -0.3537
  152SOL    HW1  606   0.706   1.480   1.503 -3.4438 -1.5185 -1.8218
  152SOL    HW2  607   0.688   1.334   1.534 -1.0088  2.1663  0.8875
  152SOL     MW  608   0.699   1.413   1.564 -0.7836 -0.5385 -0.3836
  153SOL     OW  609   2.565   1.199   0.737 -0.2470 -0.1397 -0.4902
  153SOL    HW1  610   2.646   1.178   0.687 -2.2899 -1.0991 -0.3775
  153SOL    HW2  611   2.525   1.105   0.750  1.3803 -0.5299 -0.0967
  153SOL     MW  612   2.570   1.184   0.732 -0.3018 -0.3178 -0.4235
  154SOL     OW  613   0.095   1.780   1.762  0.3282  0.0860  0.5510
  154SOL    HW1  614   0.090   1.689   1.738 -0.2658 -1.2313 -1.5981
  154SOL    HW2  615   0.176   1.780   1.816 -0.8580  1.4490 -2.8946
  154SOL     MW  616   0.105   1.768   1.766  0.0933  0.0920 -0.1872
  155SOL     OW  617   1.222   0.734   0.298  0.1394 -0.2017 -0.3186
  155SOL    HW1  618   1.178   0.710   0.389 -1.3553 -0.2894 -1.3976
  155SOL    HW2  619   1.220   0.830   0.307 -2.3349 -0.7759  1.6513
  155SOL     MW  620   1.216   0.744   0.312 -0.3843 -0.2890 -0.2011
  156SOL     OW  621   1.532   3.079   1.102 -0.1613  0.2097 -0.4939
  156SOL    HW1  622   1.608   3.127   1.130  1.9832 -3.9107 -2.4953
  156SOL    HW2  623   1.561   2.991   1.079  0.1061 -0.7463 -0.3448
  156SOL     MW  624   1.546   3.074   1.102  0.1569 -0.4601 -0.7383
  157SOL     OW  625   1.378   1.155   0.120 -0.9202  0.6428 -0.0261
  157SOL    HW1  626   1.410   1.069   0.156 -4.2776  2.2674  0.5944
  157SOL    HW2  627   1.442   1.222   0.146 -1.0915 -1.6059 -0.7145
  157SOL     MW  628   1.391   1.152   0.128 -1.3858  0.5605 -0.0350
  158SOL     OW  629   0.445   1.681   2.262 -0.1736 -0.4562 -0.2087
  158SOL    HW1  630   0.458   1.741   2.188 -0.8091 -0.0489 -0.5799
  158SOL    HW2  631   0.378   1.722   2.318 -0.4301 -0.7058  1.1492
  158SOL     MW  632   0.438   1.695   2.260 -0.2913 -0.4354 -0.0785
  159SOL     OW  633   1.198   1.623   0.498 -0.2778  0.3567  0.2502
  159SOL    HW1  634   1.140   1.577   0.434 -0.2476 -1.4785 -0.8999
  159SOL    HW2  635   1.140   1.691   0.539 -1.0068  0.9448  1.5343
  159SOL     MW  636   1.183   1.626   0.495 -0.3700  0.1922  0.2679
  160SOL     OW  637   0.497   1.182   1.545  0.2936 -0.5909  0.6276
  160SOL    HW1  638   0.452   1.105   1.591 -0.0573  0.4083  0.4908
  160SOL    HW2  639   0.590   1.153   1.545 -1.1225 -0.6576 -2.0900
  160SOL     MW  640   0.504   1.168   1.551  0.0605 -0.4679  0.2510
  161SOL     OW  641   0.426   2.253   2.642 -0.0730 -0.2305  0.5899
  161SOL    HW1  642   0.350   2.300   2.659 -1.3161  2.7838 -0.6417
  161SOL    HW2  643   0.410   2.171   2.583 -0.9474 -2.0214 -0.4070
  161SOL     MW  644   0.413   2.248   2.636 -0.3524 -0.0691  0.2959
  162SOL     OW  645   1.074   1.807   1.783  0.0525 -0.0536 -0.7454
  162SOL    HW1  646   1.041   1.894   1.772 -0.0726  0.1096  0.9495
  162SOL    HW2  647   1.014   1.769   1.847  0.9188  1.4249 -1.2216
  162SOL     MW  648   1.062   1.813   1.790  0.1503  0.1630 -0.5846
  163SOL     OW  649   2.131   3.093   0.858 -0.1102  0.3306  0.0558
  163SOL    HW1  650   2.117   3.159   0.785 -1.3847 -1.8081 -0.2750
  163SOL    HW2  651   2.100   3.004   0.822 -0.7582 -2.1712 -1.7268
  163SOL     MW  652   2.125   3.090   0.844 -0.3639 -0.2817 -0.2230
  164SOL     OW  653   0.307   0.215   0.797  0.2520  0.0017  0.2631
  164SOL    HW1  654   0.216   0.211   0.825  0.7377 -1.3814  1.2022
  164SOL    HW2  655   0.313   0.149   0.730 -1.0777  2.6267  0.0595
  164SOL     MW  656   0.296   0.206   0.792  0.1407  0.1656  0.3601
  165SOL     OW  657   1.200   1.296   0.332  0.4358 -0.1245  0.4751
  165SOL    HW1  658   1.217   1.271   0.427  2.2212 -0.6660 -0.8533
  165SOL    HW2  659   1.235   1.220   0.281 -1.1575 -3.1720 -0.2997
  165SOL     MW  660   1.207   1.283   0.338  0.4611 -0.5981  0.1976
  166SOL     OW  661   0.486   1.108   1.034 -0.3245 -0.2039 -0.1772
  166SOL    HW1  662   0.450   1.137   1.114 -0.7374  1.1546  0.0327
  166SOL    HW2  663   0.583   1.130   1.028 -1.2152  1.3360 -0.1121
  166SOL     MW  664   0.494   1.115   1.044 -0.4965  0.1785 -0.1409
  167SOL     OW  665   0.793   1.155   0.287  0.3675  0.1617  0.6943
  167SOL    HW1  666   0.819   1.249   0.308  2.6195 -0.1230  1.4667
  167SOL    HW2  667   0.873   1.118   0.239 -0.2662 -1.8886 -2.1214
  167SOL     MW  668   0.807   1.162   0.284  0.5810 -0.1464  0.4247
  168SOL     OW  669   1.721   1.620   3.048  0.2474 -0.1075  0.0166
  168SOL    HW1  670   1.649   1.677   3.021 -1.6098 -0.1765  0.9881
  168SOL    HW2  671   1.695   1.539   3.003 -1.5090  0.4206  0.9319
  168SOL     MW  672   1.708   1.617   3.039 -0.2294 -0.0469  0.2656
  169SOL     OW  673   0.335   1.005   1.370 -0.1599  0.8306 -0.3532
  169SOL    HW1  674   0.355   0.987   1.467  0.9304  2.4381 -0.1775
  169SOL    HW2  675   0.355   1.096   1.349  3.2192  0.8634 -2.4558
  169SOL     MW  676   0.340   1.015   1.380  0.4298  1.0470 -0.6075
  170SOL     OW  677   1.170   1.516   1.472  0.1328 -0.7565  0.5702
  170SOL    HW1  678   1.114   1.585   1.514  0.2666  2.6923 -2.9864
  170SOL    HW2  679   1.125   1.493   1.389 -0.8504 -1.2017  0.4617
  170SOL     MW  680   1.157   1.522   1.466  0.0207 -0.3602  0.0866
  171SOL     OW  681   0.521   1.477   0.499 -0.0861  0.1110  0.7998
  171SOL    HW1  682   0.461   1.419   0.556 -4.2209 -1.9117  1.9305
  171SOL    HW2  683   0.547   1.423   0.421  1.0555 -1.2242 -1.8380
  171SOL     MW  684   0.516   1.462   0.496 -0.4811 -0.3320  0.6010
  172SOL     OW  685   0.746   0.278   1.266 -0.3891  1.0032  0.6067
  172SOL    HW1  686   0.743   0.220   1.184 -0.4106 -0.8518 -0.8685
  172SOL    HW2  687   0.786   0.217   1.328 -0.1563  0.8167  2.7962
  172SOL     MW  688   0.751   0.263   1.263 -0.3612  0.7338  0.7010
  173SOL     OW  689   0.557   1.724   0.326  0.2223  0.1807 -0.5299
  173SOL    HW1  690   0.606   1.651   0.295 -3.5168  3.2438  0.6467
  173SOL    HW2  691   0.550   1.717   0.421  2.1141 -0.7470  1.0667
  173SOL     MW  692   0.562   1.714   0.335 -0.0215  0.4625 -0.1640
  174SOL     OW  693   1.863   0.863   1.505  0.0054 -0.7006 -0.4697
  174SOL    HW1  694   1.783   0.818   1.542 -1.5249  1.8608  1.3235
  174SOL    HW2  695   1.836   0.871   1.408  0.6227  4.3497 -1.1066
  174SOL     MW  696   1.849   0.858   1.497 -0.1150  0.3037 -0.3171
  175SOL     OW  697   0.577   1.498   0.151 -0.0026 -0.3202  0.2275
  175SOL    HW1  698   0.487   1.467   0.135  1.2986 -1.0296  0.0429
  175SOL    HW2  699   0.637   1.420   0.132  2.5186 -0.3379 -1.6060
  175SOL     MW  700   0.573   1.484   0.146  0.5017 -0.4161 -0.0388
  176SOL     OW  701   0.135   1.487   1.187 -0.5404  0.3018  0.5276
  176SOL    HW1  702   0.120   1.424   1.115 -1.4296 -2.2167 -2.4797
  176SOL    HW2  703   0.051   1.491   1.236 -1.4726  1.6135 -0.3363
  176SOL     MW  704   0.122   1.480   1.184 -0.7807  0.1425  0.0168
  177SOL     OW  705   0.541   0.324   1.441 -0.0371 -0.0378 -0.6715
  177SOL    HW1  706   0.618   0.307   1.386  0.4973 -0.2589 -2.8905
  177SOL    HW2  707   0.543   0.418   1.464 -0.3779 -0.4282 -0.1404
  177SOL     MW  708   0.552   0.334   1.437 -0.0116 -0.1185 -0.8942
  178SOL     OW  709   3.094   0.490   3.000 -0.4978  0.1195  0.0941
  178SOL    HW1  710   3.036   0.502   3.083  0.5132 -0.5764  3.1685
  178SOL    HW2  711   3.029   0.498   2.933 -0.2610 -3.5972 -0.2432
  178SOL     MW  712   3.078   0.493   3.002 -0.3332 -0.4627  0.4552
  179SOL     OW  713   1.563   1.465   1.343  0.2081  0.1044 -0.7671
  179SOL    HW1  714   1.574   1.465   1.441 -0.0335  0.5181 -2.8411
  179SOL    HW2  715   1.649   1.454   1.302 -1.3603  0.5744 -1.7007
  179SOL     MW  716   1.576   1.464   1.351 -0.0307  0.2210 -1.1640
  180SOL     OW  717   3.067   0.296   0.448  0.8789 -0.4102 -0.1770
  180SOL    HW1  718   3.006   0.311   0.381  1.6984  0.0608  2.6312
  180SOL    HW2  719   3.132   0.362   0.424  0.9814  2.5427 -0.7276
  180SOL     MW  720   3.068   0.307   0.436  1.0005  0.0415  0.1209
  181SOL     OW  721   1.110   1.286   3.092  0.1462  0.1412  0.0491
  181SOL    HW1  722   1.178   1.343   3.133 -2.1615 -1.3141  0.3923
  181SOL    HW2  723   1.144   1.228   3.026 -3.0039  1.1160 -3.6495
  181SOL     MW  724   1.124   1.286   3.088 -0.5739  0.0778 -0.3936
  182SOL     OW  725   0.378   0.974   1.640  0.3105 -0.0776  0.4399
  182SOL    HW1  726   0.295   0.940   1.684  0.6332 -2.4540 -2.7744
  182SOL    HW2  727   0.433   0.912   1.688 -1.5437 -2.4211  0.4241
  182SOL     MW  728   0.374   0.961   1.652  0.1084 -0.7003  0.0137
  183SOL     OW  729   1.551   1.729   1.270  0.8499  0.3849  0.6529
  183SOL    HW1  730   1.644   1.741   1.280 -1.7251 -0.2177  0.5175
  183SOL    HW2  731   1.528   1.642   1.308  1.5319  1.3879  1.1403
  183SOL     MW  732   1.560   1.719   1.277  0.6002  0.4377  0.6993
  184SOL     OW  733   0.792   0.724   1.791  0.4562 -0.0084 -0.3859
  184SOL    HW1  734   0.865   0.694   1.740  0.3433 -1.9118 -0.5774
  184SOL    HW2  735   0.799   0.673   1.867 -1.3012  0.2178 -1.9392
  184SOL     MW  736   0.803   0.713   1.794  0.2094 -0.2297 -0.6161
  185SOL     OW  737   1.088   0.962   1.873  0.5797  0.2444 -0.7267
  185SOL    HW1  738   1.043   0.887   1.916  0.9712  2.7150  1.5249
  185SOL    HW2  739   1.134   0.995   1.954  0.0525 -1.4911  1.3613
  185SOL     MW  740   1.089   0.956   1.889  0.5618  0.3414 -0.1541
  186SOL     OW  741   0.298   1.630   1.486 -0.2150 -0.2834 -0.0793
  186SOL    HW1  742   0.320   1.600   1.400 -2.4912 -0.9679  0.5746
  186SOL    HW2  743   0.226   1.580   1.525 -0.0626 -3.4856 -1.7566
  186SOL     MW  744   0.291   1.620   1.480 -0.4952 -0.7962 -0.2143
  187SOL     OW  745   1.437   0.765   1.387 -0.2738 -0.3244  0.0398
  187SOL    HW1  746   1.487   0.742   1.466 -0.5584  1.6160  0.4744
  187SOL    HW2  747   1.343   0.756   1.398 -0.6067  0.8793 -0.8497
  187SOL     MW  748   1.431   0.761   1.399 -0.3552  0.0904 -0.0202
  188SOL     OW  749   1.908   1.205   0.838 -0.4465  0.1591  0.3181
  188SOL    HW1  750   1.884   1.178   0.929 -4.1198 -1.5691  1.3856
  188SOL    HW2  751   1.929   1.121   0.798  2.3434 -1.5961 -0.4767
  188SOL     MW  752   1.908   1.191   0.845 -0.5631 -0.3005  0.3541
  189SOL     OW  753   0.674   0.732   0.877 -0.1334 -0.2080 -0.2161
  189SOL    HW1  754   0.595   0.784   0.880  3.2286  1.1114  1.2955
  189SOL    HW2  755   0.738   0.764   0.945  1.1633  1.5017 -1.6139
  189SOL     MW  756   0.672   0.743   0.886  0.4812  0.1917 -0.2011
  190SOL     OW  757   1.865   0.283   2.103 -0.1564  0.2056  0.0871
  190SOL    HW1  758   1.859   0.262   2.202  1.9281  1.9912  1.3208
  190SOL    HW2  759   1.951   0.337   2.104  1.5480 -1.9567  3.2141
  190SOL     MW  760   1.876   0.287   2.116  0.3435  0.1559  0.6625
  191SOL     OW  761   1.530   0.980   1.238  0.2972 -0.2267 -0.2509
  191SOL    HW1  762   1.553   1.046   1.306  2.2093 -0.2501  1.4529
  191SOL    HW2  763   1.492   0.905   1.286 -0.3657  0.3864  2.3396
  191SOL     MW  764   1.528   0.979   1.253  0.4620 -0.1489  0.3156
  192SOL     OW  765   0.532   2.181   2.874  0.5314  0.3657  0.0465
  192SOL    HW1  766   0.480   2.205   2.798 -1.2044 -0.5950 -0.8666
  192SOL    HW2  767   0.530   2.088   2.858  1.5663 -1.0210  1.7957
  192SOL     MW  768   0.525   2.172   2.862  0.4389  0.0560  0.1568
  193SOL     OW  769   0.857   1.628   0.788 -0.2506  0.4102  0.2716
  193SOL    HW1  770   0.760   1.626   0.802 -3.0872  2.6576  1.4512
  193SOL    HW2  771   0.875   1.558   0.715  1.1468  0.5399  3.6864
  193SOL     MW  772   0.846   1.618   0.780 -0.4405  0.7238  0.8778
  194SOL     OW  773   0.487   1.322   0.804 -0.4598  0.3086  0.0402
  194SOL    HW1  774   0.487   1.278   0.892 -0.6908  0.7969  0.9141
  194SOL    HW2  775   0.396   1.330   0.781  1.1567 -2.0647 -2.9933
  194SOL     MW  776   0.475   1.317   0.813 -0.2770  0.0599 -0.2447
  195SOL     OW  777   1.300   1.096   2.971 -0.3661 -0.1170  0.8938
  195SOL    HW1  778   1.332   1.116   3.058 -1.9431  0.2096  2.3178
  195SOL    HW2  779   1.243   1.022   2.980  0.9531 -0.2885 -0.4224
  195SOL     MW  780   1.297   1.089   2.984 -0.4001 -0.0965  0.9080
  196SOL     OW  781   2.268   1.015   0.585  0.1721  0.4793  0.4942
  196SOL    HW1  782   2.300   1.025   0.492  1.2066  0.6618 -2.3620
  196SOL    HW2  783   2.245   1.108   0.605 -2.4395  1.2312 -0.8468
  196SOL     MW  784   2.269   1.029   0.576 -0.0360  0.6026 -0.0596
  197SOL     OW  785   0.637   1.331   2.210  0.1470  0.9908 -0.2781
  197SOL    HW1  786   0.665   1.266   2.149 -0.7355  3.4534  0.1488
  197SOL    HW2  787   0.690   1.408   2.183  2.8425 -0.9875  1.4813
  197SOL     MW  788   0.647   1.332   2.199  0.3862  1.0547  0.0104
  198SOL     OW  789   2.926   1.428   0.986  0.7517  0.2490 -0.2614
  198SOL    HW1  790   2.876   1.503   0.957  1.1703 -0.3151  0.4520
  198SOL    HW2  791   2.877   1.346   0.961 -1.1188  1.9519 -3.7137
  198SOL     MW  792   2.913   1.427   0.979  0.5602  0.3993 -0.6228
  199SOL     OW  793   0.714   1.312   1.838 -0.8077  0.1657 -1.0444
  199SOL    HW1  794   0.620   1.293   1.854 -1.3491 -2.0997  1.5450
  199SOL    HW2  795   0.715   1.366   1.757 -1.2659  1.7278 -2.0794
  199SOL     MW  796   0.702   1.316   1.830 -0.9396  0.0729 -0.8393
  200SOL     OW  797   1.849   2.921   1.340  0.1428 -0.4250  0.1351
  200SOL    HW1  798   1.901   2.968   1.266 -0.6965 -0.1915 -2.3001
  200SOL    HW2  799   1.759   2.964   1.339 -5.1408  3.0781 -0.8306
  200SOL     MW  800   1.844   2.933   1.330 -0.6650  0.0680 -0.3136
  201SOL     OW  801   1.149   0.334   0.795  0.7972  0.1846  0.6140
  201SOL    HW1  802   1.139   0.238   0.807  0.8753 -0.4376 -1.8579
  201SOL    HW2  803   1.242   0.346   0.808 -0.3603 -2.3640 -1.3483
  201SOL     MW  804   1.160   0.323   0.798  0.6548 -0.2338  0.0290
  202SOL     OW  805   1.497   1.772   0.994  0.3042 -0.3783 -0.3569
  202SOL    HW1  806   1.502   1.675   0.988 -0.9597  0.6488  1.5397
  202SOL    HW2  807   1.521   1.783   1.086 -0.5121  0.1744 -3.9235
  202SOL     MW  808   1.501   1.761   1.006  0.0297 -0.1699 -0.5773
  203SOL     OW  809   2.997   0.350   1.331  0.3636 -0.1119 -0.5616
  203SOL    HW1  810   3.038   0.270   1.351 -0.6624 -0.5787 -0.8144
  203SOL    HW2  811   3.059   0.378   1.266  0.5737  3.3134 -0.9607
  203SOL     MW  812   3.011   0.343   1.325  0.2560  0.2785 -0.6476
  204SOL     OW  813   1.011   1.785   0.636 -0.0424  0.1675  0.3872
  204SOL    HW1  814   0.981   1.731   0.708 -0.5860 -1.7358  0.3003
  204SOL    HW2  815   0.931   1.791   0.580  1.3257 -0.4114 -0.7242
  204SOL     MW  816   0.996   1.779   0.638  0.0663 -0.1600  0.2291
  205SOL     OW  817   1.395   3.039   1.322 -0.4054  0.3210 -0.1785
  205SOL    HW1  818   1.430   3.057   1.233  0.4396 -0.2803 -1.2849
  205SOL    HW2  819   1.326   3.104   1.343  0.0432  0.1781 -1.2305
  205SOL     MW  820   1.390   3.050   1.313 -0.2347  0.2228 -0.4633
  206SOL     OW  821   0.404   2.988   1.343 -0.0122 -1.0074  0.0167
  206SOL    HW1  822   0.395   3.019   1.252 -1.3906  2.9260  0.6805
  206SOL    HW2  823   0.495   2.972   1.359 -0.8409  1.9465 -0.3088
  206SOL     MW  824   0.415   2.990   1.333 -0.3034 -0.0987  0.0613
  207SOL     OW  825   0.871   1.771   0.215 -0.1803  0.6727  0.0347
  207SOL    HW1  826   0.916   1.840   0.175 -0.3426  0.0057  0.3264
  207SOL    HW2  827   0.924   1.689   0.216 -0.9758 -1.5666 -0.0597
  207SOL     MW  828   0.884   1.769   0.210 -0.3067  0.2892  0.0607
  208SOL     OW  829   0.789   1.581   1.393 -0.4170 -0.5999 -0.3158
  208SOL    HW1  830   0.875   1.595   1.426  1.0904  1.0059  1.6273
  208SOL    HW2  831   0.807   1.585   1.299 -0.5630 -2.4318  2.2079
  208SOL     MW  832   0.802   1.583   1.385 -0.2373 -0.6298  0.2736
  209SOL     OW  833   1.537   0.528   2.848 -0.2623  0.0604  0.0717
  209SOL    HW1  834   1.604   0.595   2.871 -0.7361  0.4055 -1.4550
  209SOL    HW2  835   1.591   0.447   2.838  2.1114 -0.2866 -1.7077
  209SOL     MW  836   1.553   0.526   2.850 -0.0116  0.0601 -0.3645
  210SOL     OW  837   1.476   1.479   0.955 -0.6670 -0.6327 -0.4741
  210SOL    HW1  838   1.561   1.441   0.935  1.0155  0.1135  2.1214
  210SOL    HW2  839   1.427   1.482   0.871  0.0774  0.6222 -0.5577
  210SOL     MW  840   1.481   1.474   0.941 -0.3468 -0.3686 -0.1427
  211SOL     OW  841   1.744   0.342   0.966 -0.1487  0.2800 -0.3157
  211SOL    HW1  842   1.730   0.372   0.876 -1.9170  2.2720 -0.0187
  211SOL    HW2  843   1.840   0.354   0.993 -1.5139  0.8317  0.9901
  211SOL     MW  844   1.755   0.347   0.958 -0.5621  0.6156 -0.1042
  212SOL     OW  845   0.313   1.122   0.261 -0.0174  0.3113 -0.6689
  212SOL    HW1  846   0.238   1.065   0.290  1.2532  0.4393  0.0713
  212SOL    HW2  847   0.354   1.066   0.201  0.9486  0.5613  0.4050
  212SOL     MW  848   0.308   1.107   0.257  0.2777  0.3611 -0.4295
  213SOL     OW  849   0.367   1.862   3.031  0.0106  0.5245  0.0774
  213SOL    HW1  850   0.407   1.872   3.123  0.1599 -1.6083 -0.2463
  213SOL    HW2  851   0.431   1.908   2.968  1.1630  0.2272 -1.0254
  213SOL     MW  852   0.381   1.870   3.035  0.1823  0.2039 -0.1108
  214SOL     OW  853   0.599   0.298   2.120 -0.0979 -0.2014 -0.2378
  214SOL    HW1  854   0.540   0.387   2.128 -3.3457  2.8617  2.4035
  214SOL    HW2  855   0.615   0.278   2.031  1.4014 -0.0903  0.6596
  214SOL     MW  856   0.593   0.307   2.109 -0.3286  0.2174  0.2291
  215SOL     OW  857   0.491   0.549   2.526  0.0442 -0.1349 -0.4182
  215SOL    HW1  858   0.495   0.591   2.444  0.9570 -2.3120  1.4466
  215SOL    HW2  859   0.422   0.604   2.561  1.1318  1.5321  0.6193
  215SOL     MW  860   0.483   0.562   2.520  0.3082 -0.2022 -0.0353
  216SOL     OW  861   2.927   3.070   2.722 -0.1917  0.3132 -0.2283
  216SOL    HW1  862   2.852   3.054   2.779 -1.3081  0.9788  0.6212
  216SOL    HW2  863   2.942   3.173   2.722 -1.3135  2.0663  0.1575
  216SOL     MW  864   2.919   3.082   2.730 -0.4870  0.6324 -0.0653
  217SOL     OW  865   1.031   1.071   0.147 -0.6207 -0.2151  0.0402
  217SOL    HW1  866   1.048   1.008   0.077 -0.0590  2.7384  1.7715
  217SOL    HW2  867   1.076   1.149   0.106  0.4685  1.0557 -0.3113
  217SOL     MW  868   1.039   1.073   0.133 -0.4029  0.3423  0.2223
  218SOL     OW  869   0.865   1.362   2.653  0.3192  0.1427 -0.2436
  218SOL    HW1  870   0.880   1.285   2.710 -2.4698 -2.4115 -0.5282
  218SOL    HW2  871   0.950   1.411   2.648  0.1083  0.2620 -0.6746
  218SOL     MW  872   0.878   1.359   2.660 -0.0766 -0.1786 -0.3380
  219SOL     OW  873   1.038   0.408   2.622  0.0405 -0.3615  0.1920
  219SOL    HW1  874   1.105   0.476   2.642 -1.0719 -0.3313 -2.5929
  219SOL    HW2  875   0.958   0.465   2.608 -0.0332  0.9744 -2.0514
  219SOL     MW  876   1.036   0.425   2.623 -0.1160 -0.1812 -0.4715
  220SOL     OW  877   1.726   0.517   2.182 -0.0311  0.0855 -0.3061
  220SOL    HW1  878   1.635   0.517   2.146  0.3077  0.2020 -4.4633
  220SOL    HW2  879   1.766   0.440   2.134  1.8649 -0.5621  3.4623
  220SOL     MW  880   1.719   0.507   2.171  0.2637  0.0154 -0.3574
  221SOL     OW  881   0.344   1.324   2.940  0.2691  0.1697 -0.5076
  221SOL    HW1  882   0.411   1.265   2.916 -0.8549  0.5804  0.0572
  221SOL    HW2  883   0.372   1.399   2.894 -0.7183  2.0116  1.2961
  221SOL     MW  884   0.356   1.326   2.930 -0.0095  0.4669 -0.1951
  222SOL     OW  885   0.506   0.971   2.682  0.1237 -0.2751 -0.2933
  222SOL    HW1  886   0.419   1.007   2.670  1.7373  0.0399  4.4628
  222SOL    HW2  887   0.500   0.872   2.681  0.0051 -0.4853 -0.8587
  222SOL     MW  888   0.494   0.962   2.680  0.3210 -0.2613  0.2596
  223SOL     OW  889   0.018   2.048   2.544  0.0050  0.0893 -0.8274
  223SOL    HW1  890  -0.018   2.100   2.614  1.1909  1.0984  1.1419
  223SOL    HW2  891   0.065   2.124   2.502  3.2142  1.6867 -0.2606
  223SOL     MW  892   0.019   2.065   2.548  0.5849  0.4332 -0.4928
  224SOL     OW  893   1.443   0.717   2.465  0.4290  0.0948  0.2536
  224SOL    HW1  894   1.500   0.727   2.538 -1.3719 -0.8566 -1.2930
  224SOL    HW2  895   1.433   0.813   2.448 -1.0865  0.7397 -2.0296
  224SOL     MW  896   1.450   0.731   2.472 -0.0086  0.0544 -0.2517
  225SOL     OW  897   2.937   1.448   2.296 -0.6167  0.3896  0.7561
  225SOL    HW1  898   2.985   1.525   2.259 -0.1468 -0.3937  1.0796
  225SOL    HW2  899   2.866   1.482   2.351 -0.7981 -2.9994 -1.6422
  225SOL     MW  900   2.934   1.462   2.299 -0.5787 -0.1609  0.4824
  226SOL     OW  901   0.421   1.481   2.716  0.3092  0.0606  0.2904
  226SOL    HW1  902   0.511   1.509   2.691 -0.3859 -1.8437 -3.5104
  226SOL    HW2  903   0.362   1.541   2.683  2.1723 -0.8460  0.1745
  226SOL     MW  904   0.425   1.492   2.708  0.4633 -0.3102 -0.2264
  227SOL     OW  905   0.557   1.139   2.921 -0.5813  0.5490  0.5094
  227SOL    HW1  906   0.650   1.162   2.916 -2.5226 -1.6562  3.3732
  227SOL    HW2  907   0.533   1.078   2.852  0.5389 -0.2402 -0.3764
  227SOL     MW  908   0.566   1.134   2.911 -0.6896  0.1539  0.7704
  228SOL     OW  909   0.753   1.130   2.043 -0.2195  0.0206  0.0662
  228SOL    HW1  910   0.762   1.199   1.974  0.4234 -1.9433  0.5791
  228SOL    HW2  911   0.838   1.137   2.086 -0.7624 -1.0150  0.3983
  228SOL     MW  912   0.766   1.140   2.039 -0.2063 -0.3751  0.1777
  229SOL     OW  913   0.245   0.573   3.083  0.5777 -0.2234 -0.2410
  229SOL    HW1  914   0.157   0.577   3.031 -2.1368  0.5553  1.8407
  229SOL    HW2  915   0.215   0.505   3.149  1.1665 -2.6257  0.2550
  229SOL     MW  916   0.229   0.564   3.085  0.2972 -0.4376  0.0991
  230SOL     OW  917   1.794   1.376   2.018 -0.4191 -0.2647  0.2168
  230SOL    HW1  918   1.761   1.331   2.093  2.8195  0.5405  0.0912
  230SOL    HW2  919   1.863   1.326   1.969  3.3818  1.3616  0.3882
  230SOL     MW  920   1.799   1.363   2.021  0.5097  0.0561  0.2228
  231SOL     OW  921   2.721   1.243   2.265 -0.2403 -1.0365  0.3506
  231SOL    HW1  922   2.778   1.322   2.269 -2.3776  2.8814  2.3104
  231SOL    HW2  923   2.670   1.263   2.190  2.3987  1.6024  1.0656
  231SOL     MW  924   2.722   1.256   2.255 -0.1741 -0.1714  0.7035
  232SOL     OW  925   2.303   0.812   1.951 -0.0516  0.4816 -0.4967
  232SOL    HW1  926   2.229   0.828   1.887 -1.0793  0.7885 -0.9125
  232SOL    HW2  927   2.264   0.814   2.039 -0.1877 -0.2735 -1.5785
  232SOL     MW  928   2.288   0.814   1.954 -0.2051  0.4224 -0.6943
  233SOL     OW  929   2.108   0.435   2.084 -0.2655 -0.1036 -0.1625
  233SOL    HW1  930   2.168   0.362   2.055  1.5087 -1.6672  0.2150
  233SOL    HW2  931   2.144   0.469   2.162 -2.9194 -2.0718 -2.9609
  233SOL     MW  932   2.121   0.429   2.090 -0.3816 -0.5696 -0.4819
  234SOL     OW  933   0.239   1.035   2.635 -0.6203 -0.3253  0.8247
  234SOL    HW1  934   0.163   1.024   2.583  0.2974  0.8927  0.5210
  234SOL    HW2  935   0.262   1.128   2.602 -0.9059 -0.9747 -1.4527
  234SOL     MW  936   0.232   1.046   2.624 -0.5369 -0.2503  0.4841
  235SOL     OW  937   1.094   3.006   2.824  0.8714  0.4304 -0.0085
  235SOL    HW1  938   1.096   3.003   2.920 -0.0686  1.3706  0.8297
  235SOL    HW2  939   1.104   3.104   2.813  4.0254 -0.9956  0.7359
  235SOL     MW  940   1.095   3.018   2.835  1.1635  0.3663  0.2003
  236SOL     OW  941   2.956   0.613   0.203  0.0218  0.1538  0.7119
  236SOL    HW1  942   2.960   0.640   0.291  0.9088 -0.4113  0.8590
  236SOL    HW2  943   3.012   0.663   0.145 -0.5256  0.5978  1.7976
  236SOL     MW  944   2.964   0.623   0.207  0.0666  0.1378  0.8746
  237SOL     OW  945   1.950   1.062   2.136 -0.4366 -0.0149  0.1572
  237SOL    HW1  946   1.883   1.126   2.155 -0.9543  0.6079  2.7768
  237SOL    HW2  947   1.903   0.986   2.126 -2.2425  2.8446 -2.5752
  237SOL     MW  948   1.935   1.061   2.137 -0.7432  0.4446  0.1423
  238SOL     OW  949   1.096   1.754   2.957 -0.1198 -0.8112 -0.5240
  238SOL    HW1  950   1.044   1.676   2.952  1.2558  1.3804 -0.1061
  238SOL    HW2  951   1.184   1.709   2.961  0.8437 -0.2132 -0.3733
  238SOL     MW  952   1.101   1.738   2.957  0.1888 -0.4431 -0.4490
  239SOL     OW  953   1.169   1.289   2.286  0.1809  0.0479  0.5005
  239SOL    HW1  954   1.085   1.250   2.267  1.4192 -0.3337  1.7719
  239SOL    HW2  955   1.178   1.244   2.375 -1.1618  0.6861  2.8358
  239SOL     MW  956   1.159   1.278   2.295  0.1671  0.0817  0.9764
  240SOL     OW  957   0.587   0.891   2.209 -0.0735 -0.2681 -0.1273
  240SOL    HW1  958   0.595   0.936   2.304 -1.7407  2.8366  1.6633
  240SOL    HW2  959   0.678   0.861   2.188 -0.4495 -0.1763 -0.5877
  240SOL     MW  960   0.600   0.893   2.219 -0.3431  0.1536  0.0482
  241SOL     OW  961   0.671   0.451   3.068 -0.3373  0.0289  0.2511
  241SOL    HW1  962   0.686   0.532   3.113  0.2082 -1.6426 -2.1062
  241SOL    HW2  963   0.587   0.464   3.024 -1.6546 -0.3048  0.8422
  241SOL     MW  964   0.662   0.463   3.068 -0.4391 -0.2357  0.0180
  242SOL     OW  965   1.499   1.682   2.312  0.5703 -0.5245  0.1392
  242SOL    HW1  966   1.433   1.746   2.323 -0.0587  0.1728  0.4002
  242SOL    HW2  967   1.450   1.611   2.261  1.2289 -0.5636  1.6783
  242SOL     MW  968   1.484   1.681   2.307  0.5742 -0.4377  0.3767
  243SOL     OW  969   1.048   0.326   2.353 -0.2916 -0.3298  0.1311
  243SOL    HW1  970   1.135   0.282   2.333  0.5498  0.5642 -1.1266
  243SOL    HW2  971   1.056   0.365   2.435  1.5272  2.8483 -1.5181
  243SOL     MW  972   1.061   0.325   2.361  0.0594  0.2075 -0.2524
  244SOL     OW  973   0.111   0.748   2.388  0.1907 -0.5177 -0.1126
  244SOL    HW1  974   0.095   0.840   2.397  0.5257  1.5453  2.3702
  244SOL    HW2  975   0.196   0.746   2.349 -0.0658  0.1535 -0.8553
  244SOL     MW  976   0.120   0.760   2.384  0.2010 -0.1569  0.1170
  245SOL     OW  977   1.284   0.196   2.378  0.5436 -0.6083  0.2980
  245SOL    HW1  978   1.360   0.139   2.346  0.4615 -2.9218  2.4265
  245SOL    HW2  979   1.267   0.175   2.474 -1.1320 -1.6082  1.1617
  245SOL     MW  980   1.292   0.186   2.386  0.3117 -1.0455  0.6928
  246SOL     OW  981   1.230   1.092   2.070 -0.1907  0.1715  0.7860
  246SOL    HW1  982   1.165   1.117   2.133  2.4769 -0.1276  0.9491
  246SOL    HW2  983   1.321   1.089   2.116  2.3141  0.5888 -0.4244
  246SOL     MW  984   1.234   1.095   2.085  0.4918  0.1871  0.6478
  247SOL     OW  985   0.760   0.650   0.131  0.1713 -0.0401 -0.2669
  247SOL    HW1  986   0.752   0.746   0.120  2.2802  1.5426  1.0794
  247SOL    HW2  987   0.845   0.623   0.096 -1.6214  0.1794  0.5828
  247SOL     MW  988   0.770   0.659   0.125  0.2130  0.1977  0.0228
  248SOL     OW  989   0.307   1.279   2.541 -0.1961  0.3834 -0.3458
  248SOL    HW1  990   0.288   1.337   2.462 -1.8249  0.5556 -1.4531
  248SOL    HW2  991   0.370   1.330   2.602 -1.5381 -1.9672  0.8600
  248SOL     MW  992   0.313   1.293   2.539 -0.5881  0.0960 -0.3328
  249SOL     OW  993   2.985   1.940   2.805  0.0041 -0.1315 -0.4047
  249SOL    HW1  994   2.951   1.873   2.748 -0.9918 -0.0471  1.0162
  249SOL    HW2  995   3.062   1.901   2.844 -0.2280 -0.1119  0.6126
  249SOL     MW  996   2.991   1.926   2.803 -0.1579 -0.1178 -0.0830
  250SOL     OW  997   2.192   0.809   2.196  0.3026  0.2005 -0.0113
  250SOL    HW1  998   2.158   0.725   2.234 -0.0899 -7.2699 -0.7223
  250SOL    HW2  999   2.207   0.865   2.273  1.5115  0.7269 -1.0091
  250SOL     MW 1000   2.189   0.805   2.212  0.4103 -0.7157 -0.2367
  251SOL     OW 1001   0.134   0.884   2.028 -0.1343 -0.2028  0.0058
  251SOL    HW1 1002   0.089   0.802   2.045 -1.4377 -2.5452  0.2835
  251SOL    HW2 1003   0.143   0.890   1.931 -0.2014 -2.1692  0.7717
  251SOL     MW 1004   0.130   0.874   2.017 -0.3151 -0.7713  0.1435
  252SOL     OW 1005   1.672   0.981   2.830 -0.1151 -0.2229  0.6494
  252SOL    HW1 1006   1.659   1.026   2.916 -2.0804  4.5973 -0.2303
  252SOL    HW2 1007   1.768   0.990   2.806  2.7481 -1.5759 -0.4592
  252SOL     MW 1008   1.683   0.988   2.838  0.0034  0.2346  0.3870
  253SOL     OW 1009   1.177   1.707   2.468  0.4526  0.3505  0.0405
  253SOL    HW1 1010   1.131   1.676   2.392 -1.9639 -0.1882  0.9156
  253SOL    HW2 1011   1.103   1.753   2.510  1.2259 -1.2400 -5.2316
  253SOL     MW 1012   1.161   1.709   2.463  0.2358  0.0695 -0.5396
  254SOL     OW 1013   0.964   1.132   2.228  0.2042  0.0534 -0.0384
  254SOL    HW1 1014   0.932   1.042   2.201 -0.4591 -1.5326 -1.6832
  254SOL    HW2 1015   0.903   1.147   2.301 -2.9827 -3.2711 -1.0701
  254SOL     MW 1016   0.952   1.122   2.234 -0.3038 -0.5945 -0.3915
  255SOL     OW 1017   0.830   2.556   2.122 -0.0703 -0.0584 -0.1075
  255SOL    HW1 1018   0.747   2.507   2.138 -1.8647 -0.7665 -0.4792
  255SOL    HW2 1019   0.908   2.528   2.162  2.0095 -2.0508 -1.5042
  255SOL     MW 1020   0.829   2.546   2.130 -0.0326 -0.4147 -0.3408
  256SOL     OW 1021   1.216   2.767   3.003  0.1527  0.1948 -0.1474
  256SOL    HW1 1022   1.171   2.683   3.000 -0.0076 -1.8013  1.9960
  256SOL    HW2 1023   1.287   2.761   2.938  1.0606 -0.3592 -2.9913
  256SOL     MW 1024   1.219   2.755   2.994  0.2514 -0.1417 -0.2398
  257SOL     OW 1025   0.040   1.874   0.101 -0.6930  0.1346  0.0257
  257SOL    HW1 1026   0.104   1.839   0.166 -0.1350 -1.3548  2.8093
  257SOL    HW2 1027   0.070   1.880   0.012  1.6395  0.9817  0.9913
  257SOL     MW 1028   0.053   1.870   0.098 -0.3117  0.0499  0.5204
  258SOL     OW 1029   0.645   1.001   2.447  0.2894  0.2578  0.7072
  258SOL    HW1 1030   0.682   1.088   2.458 -3.9855 -0.8784 -1.2601
  258SOL    HW2 1031   0.588   0.987   2.520 -1.8297 -0.0161 -0.5385
  258SOL     MW 1032   0.642   1.011   2.458 -0.5542  0.0717  0.2833
  259SOL     OW 1033   0.828   0.509   2.272  0.2923 -0.0031 -0.4269
  259SOL    HW1 1034   0.761   0.442   2.267  2.3476  0.7779  1.2908
  259SOL    HW2 1035   0.905   0.457   2.295 -1.2707 -1.9772  1.1392
  259SOL     MW 1036   0.829   0.493   2.274  0.3573 -0.1605  0.0064
  260SOL     OW 1037   0.641   0.111   1.565  0.1750  0.5994  0.2705
  260SOL    HW1 1038   0.627   0.193   1.528  0.5748 -0.6406  1.3327
  260SOL    HW2 1039   0.721   0.076   1.535 -0.9805  1.4162 -0.2367
  260SOL     MW 1040   0.649   0.117   1.556  0.0753  0.5436  0.3437
  261SOL     OW 1041   1.018   0.704   1.994  0.3892 -0.3466 -0.0103
  261SOL    HW1 1042   1.070   0.690   2.073  0.7653 -1.9457  2.5966
  261SOL    HW2 1043   0.982   0.617   1.980  0.3492 -0.0739 -2.9667
  261SOL     MW 1044   1.020   0.691   2.003  0.4335 -0.5216 -0.0564
  262SOL     OW 1045   1.155   0.368   0.107  0.3151  1.0453 -0.3949
  262SOL    HW1 1046   1.244   0.332   0.118  0.9740 -1.1713 -1.7236
  262SOL    HW2 1047   1.116   0.328   0.027 -3.3421  0.8371 -1.5043
  262SOL     MW 1048   1.162   0.358   0.098 -0.0805  0.7254 -0.7166
  263SOL     OW 1049   0.368   0.016   2.501  0.3994  0.5767  0.3836
  263SOL    HW1 1050   0.288   0.071   2.518  0.1915 -1.8254  1.4639
  263SOL    HW2 1051   0.426   0.048   2.428 -2.1366 -0.2558 -1.0308
  263SOL     MW 1052   0.365   0.028   2.494  0.0374  0.1499  0.3395
  264SOL     OW 1053   1.539   1.426   1.934 -0.2986  0.5517 -0.0596
  264SOL    HW1 1054   1.513   1.336   1.913  2.6505 -0.4127  1.2166
  264SOL    HW2 1055   1.634   1.415   1.955 -2.6638  2.0096  0.7973
  264SOL     MW 1056   1.548   1.412   1.934 -0.2215  0.6168  0.2219
  265SOL     OW 1057   0.730   2.811   2.281 -0.0540  0.2815 -0.1928
  265SOL    HW1 1058   0.798   2.749   2.252  0.4745 -0.8257 -2.2392
  265SOL    HW2 1059   0.723   2.808   2.376 -1.1791  2.7637 -0.1127
  265SOL     MW 1060   0.738   2.803   2.290 -0.1327  0.4629 -0.4522
  266SOL     OW 1061   0.873   0.888   2.124 -0.6971  0.2059  0.8982
  266SOL    HW1 1062   0.818   0.928   2.057 -3.8569 -0.7051  0.7613
  266SOL    HW2 1063   0.906   0.810   2.092  0.2833  1.4648  0.2129
  266SOL     MW 1064   0.870   0.883   2.111 -0.9846  0.2518  0.7897
  267SOL     OW 1065   1.371   1.676   2.651 -0.2498 -0.1651  0.1007
  267SOL    HW1 1066   1.426   1.637   2.588 -0.1756  1.0280  2.4563
  267SOL    HW2 1067   1.286   1.669   2.607  0.5401 -0.0430 -0.3474
  267SOL     MW 1068   1.367   1.670   2.637 -0.1358  0.0084  0.3524
  268SOL     OW 1069   0.159   0.892   1.778 -0.0420  0.0775  0.2921
  268SOL    HW1 1070   0.142   0.971   1.723  0.4297  2.4233  1.7775
  268SOL    HW2 1071   0.128   0.826   1.717  0.2424 -0.5868  2.3384
  268SOL     MW 1072   0.153   0.894   1.763  0.0577  0.2994  0.7581
  269SOL     OW 1073   1.314   1.885   2.297 -0.7115  0.0916  0.1563
  269SOL    HW1 1074   1.318   1.979   2.326  1.2558 -0.6067 -0.5428
  269SOL    HW2 1075   1.239   1.842   2.348 -1.8178 -0.7074  1.0441
  269SOL     MW 1076   1.305   1.892   2.308 -0.5979 -0.1060  0.1812
  270SOL     OW 1077   1.120   0.374   1.562 -0.0768 -0.5738 -0.1926
  270SOL    HW1 1078   1.081   0.293   1.595 -0.1826 -1.7394  1.1830
  270SOL    HW2 1079   1.207   0.383   1.601  0.0702 -0.7213 -0.8205
  270SOL     MW 1080   1.126   0.365   1.571 -0.0713 -0.7470 -0.0940
  271SOL     OW 1081   0.885   0.123   2.476  0.5604  0.3426  0.1631
  271SOL    HW1 1082   0.924   0.050   2.521 -1.2758  1.4844  0.9809
  271SOL    HW2 1083   0.958   0.177   2.444 -1.2571  0.4321  3.0141
  271SOL     MW 1084   0.900   0.120   2.478  0.0784  0.5051  0.6472
  272SOL     OW 1085   1.455   2.796   2.825  0.4968 -0.2960 -0.3172
  272SOL    HW1 1086   1.421   2.792   2.737 -1.5121 -1.9350  1.2157
  272SOL    HW2 1087   1.494   2.883   2.838 -1.7626 -1.6995  0.0154
  272SOL     MW 1088   1.456   2.807   2.815 -0.0663 -0.6974 -0.0711
  273SOL     OW 1089   1.407   0.801   2.757  0.2289  0.2352  0.4809
  273SOL    HW1 1090   1.490   0.805   2.803 -0.7926 -2.1147 -1.7568
  273SOL    HW2 1091   1.406   0.883   2.701  2.7933  1.0635 -1.0733
  273SOL     MW 1092   1.418   0.813   2.756  0.4325  0.0344 -0.0194
  274SOL     OW 1093   1.455   0.691   0.159  0.0019 -0.5158 -0.1660
  274SOL    HW1 1094   1.513   0.637   0.213  1.1782 -3.0364 -3.0350
  274SOL    HW2 1095   1.372   0.694   0.211  0.0582 -1.2538 -1.5509
  274SOL     MW 1096   1.452   0.684   0.173  0.1645 -0.9457 -0.7272
  275SOL     OW 1097   1.799   0.542   1.748  0.1086  0.1191 -0.3258
  275SOL    HW1 1098   1.857   0.568   1.823  0.5529  1.4426  1.2271
  275SOL    HW2 1099   1.803   0.450   1.756  1.6359  0.9451  1.4583
  275SOL     MW 1100   1.807   0.534   1.759  0.3687  0.4027  0.1145
  276SOL     OW 1101   0.453   1.204   1.911 -0.1482  0.2004 -0.1012
  276SOL    HW1 1102   0.447   1.110   1.933 -4.2247 -1.1700  0.1957
  276SOL    HW2 1103   0.390   1.233   1.981 -1.8435 -3.1588  2.1937
  276SOL     MW 1104   0.444   1.196   1.923 -0.9098 -0.4236  0.2407
  277SOL     OW 1105   1.981   1.087   2.436 -0.5205  0.2827 -0.0180
  277SOL    HW1 1106   2.028   1.163   2.469  0.8234 -1.6106  0.8833
  277SOL    HW2 1107   1.999   1.078   2.342 -0.1463  2.0495  0.6449
  277SOL     MW 1108   1.990   1.096   2.428 -0.2938  0.2660  0.1883
  278SOL     OW 1109   1.450   0.646   1.702 -0.3239 -0.7080 -0.3269
  278SOL    HW1 1110   1.444   0.578   1.783  0.0457  0.6566  3.0427
  278SOL    HW2 1111   1.532   0.637   1.649  0.3220 -0.2759  3.2161
  278SOL     MW 1112   1.460   0.636   1.705 -0.1899 -0.4709  0.5852
  279SOL     OW 1113   0.525   0.076   2.297 -0.2788  0.2923  0.4203
  279SOL    HW1 1114   0.608   0.025   2.293 -0.9995 -3.9958  0.2806
  279SOL    HW2 1115   0.556   0.160   2.256 -1.9783  1.0189 -0.4192
  279SOL     MW 1116   0.540   0.081   2.291 -0.5981 -0.1776  0.2911
  280SOL     OW 1117   1.472   1.088   2.204  0.4748 -0.6163  0.3383
  280SOL    HW1 1118   1.510   1.004   2.168 -1.2395 -3.9615 -0.0665
  280SOL    HW2 1119   1.451   1.075   2.301 -1.4462 -0.5309  0.0284
  280SOL     MW 1120   1.474   1.075   2.212 -0.0048 -1.0464  0.2440
  281SOL     OW 1121   1.323   1.145   2.700 -0.3111  0.2817  0.8087
  281SOL    HW1 1122   1.402   1.206   2.705 -1.9920  0.3793  1.6163
  281SOL    HW2 1123   1.303   1.133   2.792  1.6385  0.2868  1.7209
  281SOL     MW 1124   1.331   1.152   2.713 -0.2756  0.2952  1.0356
  282SOL     OW 1125   1.190   1.270   1.590  0.0800  0.0484 -0.2336
  282SOL    HW1 1126   1.180   1.359   1.566  1.6144 -1.2505 -0.5926
  282SOL    HW2 1127   1.114   1.252   1.655 -0.9335  0.2469  3.6959
  282SOL     MW 1128   1.179   1.279   1.595  0.1487 -0.0968  0.2375
  283SOL     OW 1129   0.834   1.405   0.014 -0.1595  0.2343 -0.2112
  283SOL    HW1 1130   0.918   1.399   0.055 -1.3409 -1.7317  0.1308
  283SOL    HW2 1131   0.823   1.503   0.009 -2.9855 -0.5994  0.7544
  283SOL     MW 1132   0.844   1.417   0.019 -0.6883 -0.1351 -0.0387
  284SOL     OW 1133   0.399   0.695   2.328 -0.2362 -0.2718  0.5869
  284SOL    HW1 1134   0.456   0.759   2.272 -1.0014  0.4585 -3.9323
  284SOL    HW2 1135   0.394   0.619   2.262  0.5179 -0.7808 -1.4640
  284SOL     MW 1136   0.406   0.694   2.312 -0.2377 -0.2426 -0.2799
  285SOL     OW 1137   0.887   0.840   2.877  0.2091 -0.3802  0.3472
  285SOL    HW1 1138   0.900   0.903   2.810 -1.2701  0.0331  1.9419
  285SOL    HW2 1139   0.802   0.792   2.859 -0.2428 -0.7816 -2.4943
  285SOL     MW 1140   0.878   0.842   2.866 -0.0457 -0.3786  0.1827
  286SOL     OW 1141   1.126   1.457   2.602 -0.5121  0.4080  0.4421
  286SOL    HW1 1142   1.124   1.367   2.572 -0.4444  2.3152  3.3753
  286SOL    HW2 1143   1.172   1.509   2.535  4.3043  0.8341  1.0308
  286SOL     MW 1144   1.132   1.452   2.589  0.1323  0.7159  0.9068
  287SOL     OW 1145   1.188   1.016   0.370 -0.2419 -0.5207  0.4228
  287SOL    HW1 1146   1.138   1.040   0.450  1.3059 -1.7273 -0.1228
  287SOL    HW2 1147   1.128   1.020   0.291  2.3564 -1.0253 -2.3363
  287SOL     MW 1148   1.174   1.019   0.371  0.3051 -0.7465 -0.0132
  288SOL     OW 1149   1.459   0.617   2.124  0.1260  0.1970  0.3614
  288SOL    HW1 1150   1.412   0.603   2.210 -0.6138 -1.4525  4.5372
  288SOL    HW2 1151   1.485   0.711   2.104 -0.7316 -1.5486  1.4793
  288SOL     MW 1152   1.456   0.628   2.133 -0.0848 -0.2510  1.0599
  289SOL     OW 1153   0.928   0.948   2.597 -0.2701 -0.0908  0.0182
  289SOL    HW1 1154   0.981   0.877   2.568 -0.4459 -1.5513 -0.7068
  289SOL    HW2 1155   0.863   0.960   2.526 -0.9689 -0.5203 -0.4381
  289SOL     MW 1156   0.927   0.940   2.584 -0.3855 -0.3402 -0.1376
  290SOL     OW 1157   0.801   0.651   1.459 -0.4323  0.2098  0.0951
  290SOL    HW1 1158   0.835   0.586   1.397 -1.9662  1.4128 -1.2212
  290SOL    HW2 1159   0.873   0.661   1.524  0.6765  0.7484  0.1656
  290SOL     MW 1160   0.815   0.644   1.460 -0.4884  0.4396 -0.0692
  291SOL     OW 1161   0.218   0.340   0.150  0.8471 -0.5461 -0.4045
  291SOL    HW1 1162   0.311   0.321   0.178  0.5657  0.1747 -0.6023
  291SOL    HW2 1163   0.193   0.253   0.119 -0.3467 -0.9297  1.9995
  291SOL     MW 1164   0.227   0.326   0.150  0.6524 -0.5016 -0.1134
  292SOL     OW 1165   1.039   0.637   0.098 -0.2439 -0.3164  0.1685
  292SOL    HW1 1166   1.086   0.686   0.165 -2.8345 -0.9998 -0.5249
  292SOL    HW2 1167   1.090   0.552   0.095 -1.6580 -0.4165  1.7131
  292SOL     MW 1168   1.052   0.632   0.107 -0.7723 -0.4198  0.2808
  293SOL     OW 1169   0.097   0.107   2.556  0.1079 -0.4150 -0.1152
  293SOL    HW1 1170   0.073   0.053   2.482  0.2482 -0.7134  0.4825
  293SOL    HW2 1171   0.015   0.124   2.601 -1.2784  1.0428  0.7636
  293SOL     MW 1172   0.083   0.102   2.552 -0.0565 -0.2620  0.0797
  294SOL     OW 1173   1.319   0.482   2.346  0.3287 -0.8826 -0.2544
  294SOL    HW1 1174   1.345   0.559   2.395  0.9494  1.0875 -2.4113
  294SOL    HW2 1175   1.370   0.414   2.391  1.9078  0.7882  0.1698
  294SOL     MW 1176   1.329   0.483   2.358  0.6190 -0.4022 -0.4830
  295SOL     OW 1177   0.836   0.602   2.544  0.6563  0.5896  0.0751
  295SOL    HW1 1178   0.808   0.576   2.457 -0.9577  2.1740 -0.6802
  295SOL    HW2 1179   0.760   0.645   2.592 -0.9354  1.1778  0.6594
  295SOL     MW 1180   0.822   0.604   2.539  0.2333  0.8762  0.0525
  296SOL     OW 1181   1.263   0.254   2.055  0.2086  0.7945  0.0363
  296SOL    HW1 1182   1.317   0.184   2.019  0.0699  0.4231  0.3660
  296SOL    HW2 1183   1.296   0.270   2.140  1.1943  0.3084  0.4701
  296SOL     MW 1184   1.274   0.247   2.062  0.3204  0.6814  0.1370
  297SOL     OW 1185   1.400   0.379   1.602 -0.9061  0.3122  0.3659
  297SOL    HW1 1186   1.440   0.451   1.647 -1.2604 -0.3452 -1.3045
  297SOL    HW2 1187   1.402   0.307   1.665 -0.7269 -1.6258 -0.2200
  297SOL     MW 1188   1.406   0.379   1.617 -0.9292 -0.0302  0.0682
  298SOL     OW 1189   1.586   0.883   2.097  0.2384  0.3036  0.4610
  298SOL    HW1 1190   1.609   0.926   2.014 -0.8869 -1.5457 -2.4066
  298SOL    HW2 1191   1.671   0.872   2.140 -0.9322 -1.5790 -1.1590
  298SOL     MW 1192   1.600   0.887   2.092 -0.0645 -0.1888 -0.1311
  299SOL     OW 1193   0.578   1.182   0.085  0.0025  0.1763  0.0607
  299SOL    HW1 1194   0.570   1.165  -0.008  2.2410  0.5465 -1.1632
  299SOL    HW2 1195   0.669   1.212   0.089  1.3915 -1.0048 -2.2758
  299SOL     MW 1196   0.589   1.184   0.073  0.4811  0.0693 -0.4091
  300SOL     OW 1197   1.101   1.177   2.560 -0.3209 -0.6877 -0.3612
  300SOL    HW1 1198   1.039   1.104   2.563 -1.8020  2.0647  1.2806
  300SOL    HW2 1199   1.181   1.149   2.614  0.2746 -3.6631  1.5664
  300SOL     MW 1200   1.103   1.164   2.567 -0.4377 -0.7172  0.1098
  301SOL     OW 1201   1.451   1.062   0.747  0.4069  0.3750  0.4541
  301SOL    HW1 1202   1.479   1.095   0.834  1.9734 -0.6811  0.0325
  301SOL    HW2 1203   1.380   0.995   0.757 -0.8267 -2.1013 -0.2976
  301SOL     MW 1204   1.445   1.058   0.760  0.4508 -0.0910  0.2993
  302SOL     OW 1205   0.171   1.565   2.037  0.1655  0.6026 -0.0893
  302SOL    HW1 1206   0.181   1.464   2.029 -2.1225  0.4107 -0.7333
  302SOL    HW2 1207   0.076   1.570   2.044  0.0638  0.3662 -1.2434
  302SOL     MW 1208   0.160   1.553   2.037 -0.1498  0.5461 -0.3265
  303SOL     OW 1209   0.339   1.772   2.654 -0.4010 -0.1548 -0.2172
  303SOL    HW1 1210   0.300   1.803   2.577 -1.8302  2.5795  1.7012
  303SOL    HW2 1211   0.281   1.802   2.723 -0.8556  2.2242  1.1918
  303SOL     MW 1212   0.327   1.780   2.653 -0.6495  0.5199  0.2218
  304SOL     OW 1213   0.485   2.051   2.436 -0.1200 -0.1463  0.9730
  304SOL    HW1 1214   0.533   2.110   2.370  1.9654 -1.5233 -1.5355
  304SOL    HW2 1215   0.556   1.985   2.447  2.1765  1.1632 -0.0317
  304SOL     MW 1216   0.501   2.050   2.428  0.4582 -0.1552  0.5094
  305SOL     OW 1217   1.122   0.677   0.535  0.2535 -0.1909 -0.2119
  305SOL    HW1 1218   1.029   0.674   0.514  2.4909  2.0786  0.1749
  305SOL    HW2 1219   1.148   0.586   0.529  2.7105  0.3004  0.6256
  305SOL     MW 1220   1.113   0.664   0.532  0.8729  0.1733 -0.0504
  306SOL     OW 1221   1.080   1.520   0.268  0.8029 -0.1131  0.1586
  306SOL    HW1 1222   1.111   1.432   0.294 -0.8256 -1.4874  2.0481
  306SOL    HW2 1223   1.124   1.545   0.185 -1.5996  0.7960 -1.4199
  306SOL     MW 1224   1.090   1.511   0.261  0.2710 -0.1745  0.1996
  307SOL     OW 1225   1.390   0.464   1.911  0.3071  0.4744 -0.1860
  307SOL    HW1 1226   1.339   0.396   1.959  1.9587 -1.1412  1.0294
  307SOL    HW2 1227   1.416   0.517   1.989  2.8697 -1.0112 -0.3670
  307SOL     MW 1228   1.386   0.462   1.928  0.8631  0.0652 -0.0495
  308SOL     OW 1229   2.206   0.495   2.682 -0.0320  0.3776  0.3577
  308SOL    HW1 1230   2.295   0.535   2.694 -0.1538 -0.6762 -1.2328
  308SOL    HW2 1231   2.148   0.572   2.697 -0.5921 -2.3581 -0.3605
  308SOL     MW 1232   2.210   0.511   2.685 -0.1220 -0.1224  0.0531
  309SOL     OW 1233   0.509   0.572   0.241  0.0527 -0.4053  0.1396
  309SOL    HW1 1234   0.594   0.614   0.217  0.6341 -1.2058 -2.4088
  309SOL    HW2 1235   0.520   0.478   0.223 -3.0943  0.6794  0.3276
  309SOL     MW 1236   0.522   0.565   0.235 -0.2858 -0.3678 -0.1718
  310SOL     OW 1237   0.434   0.594   1.880 -0.2518 -0.7781 -0.0026
  310SOL    HW1 1238   0.468   0.502   1.862  1.3648  1.5164 -0.6146
  310SOL    HW2 1239   0.491   0.650   1.819  0.3291  0.3515 -0.9767
  310SOL     MW 1240   0.446   0.589   1.870  0.0382 -0.3263 -0.2119
  311SOL     OW 1241   1.961   0.621   1.953  0.4260 -0.2781 -0.0383
  311SOL    HW1 1242   1.926   0.661   2.036 -0.5904 -0.2336  2.1472
  311SOL    HW2 1243   2.022   0.551   1.994  0.9338 -0.9822  2.3666
  311SOL     MW 1244   1.964   0.617   1.969  0.3589 -0.3652  0.5674
  312SOL     OW 1245   1.734   2.446   0.107 -0.2761 -0.0864 -0.1363
  312SOL    HW1 1246   1.786   2.439   0.184  0.2007 -0.9319 -0.8272
  312SOL    HW2 1247   1.666   2.514   0.130  0.5725  1.6779 -0.3120
  312SOL     MW 1248   1.732   2.454   0.120 -0.1012  0.0349 -0.2506
  313SOL     OW 1249   0.134   1.119   3.034  0.2846  0.0261 -0.1142
  313SOL    HW1 1250   0.084   1.158   3.111  0.1157 -0.7573  0.2413
  313SOL    HW2 1251   0.165   1.195   2.977  0.9964 -0.2529 -0.8764
  313SOL     MW 1252   0.131   1.134   3.036  0.3562 -0.1140 -0.1679
  314SOL     OW 1253   2.161   2.945   0.025 -0.1742 -0.3746  0.0805
  314SOL    HW1 1254   2.113   2.964  -0.049  2.7888  1.0698  3.8966
  314SOL    HW2 1255   2.223   3.024   0.026 -1.4663  0.4035 -2.0695
  314SOL     MW 1256   2.163   2.958   0.016  0.0463 -0.0813  0.3003
  315SOL     OW 1257   1.541   1.825   2.965  0.0700  0.5851 -0.0890
  315SOL    HW1 1258   1.504   1.897   3.023 -0.0714 -0.4770  0.7607
  315SOL    HW2 1259   1.583   1.882   2.902  0.1426  0.5884 -1.3554
  315SOL     MW 1260   1.542   1.842   2.964  0.0609  0.4454 -0.1440
  316SOL     OW 1261   1.199   0.638   2.699 -0.1335  0.6807 -0.5013
  316SOL    HW1 1262   1.269   0.704   2.729 -2.9239  2.1507  0.5554
  316SOL    HW2 1263   1.155   0.603   2.785  0.0111  0.0660 -0.1632
  316SOL     MW 1264   1.203   0.642   2.714 -0.4826  0.7936 -0.3173
  317SOL     OW 1265   0.661   1.595   2.636  0.1794 -0.1664 -0.1061
  317SOL    HW1 1266   0.724   1.528   2.631  0.2936 -2.8615  0.6585
  317SOL    HW2 1267   0.650   1.627   2.542 -2.4466  1.0392  0.4461
  317SOL     MW 1268   0.668   1.590   2.623 -0.1520 -0.3629  0.0676
  318SOL     OW 1269   1.322   0.385   2.965 -0.1083 -0.2590 -0.1013
  318SOL    HW1 1270   1.239   0.434   2.965  2.4318  0.5954 -1.5760
  318SOL    HW2 1271   1.380   0.452   2.914  3.2687 -1.7741 -0.1919
  318SOL     MW 1272   1.319   0.400   2.958  0.6724 -0.3461 -0.3078
  319SOL     OW 1273   0.798   0.425   2.816 -0.8100  0.1038 -0.0059
  319SOL    HW1 1274   0.794   0.348   2.766  1.7268  1.6336  0.4680
  319SOL    HW2 1275   0.760   0.403   2.897  0.3420  2.9504 -2.9930
  319SOL     MW 1276   0.793   0.412   2.820 -0.3233  0.6812 -0.3375
  320SOL     OW 1277   1.055   1.368   1.962  0.0177 -0.4992  0.0363
  320SOL    HW1 1278   1.108   1.319   2.019  0.8945  2.9913 -0.0936
  320SOL    HW2 1279   1.117   1.439   1.939  0.6957 -2.1593 -0.2163
  320SOL     MW 1280   1.070   1.371   1.966  0.2228 -0.2577 -0.0142
  321SOL     OW 1281   1.098   0.909   3.045 -0.7525  0.2322  0.1664
  321SOL    HW1 1282   1.023   0.889   2.988 -1.0131  1.3122  1.5911
  321SOL    HW2 1283   1.163   0.833   3.032  1.3767  1.0519  1.0223
  321SOL     MW 1284   1.097   0.896   3.036 -0.5060  0.4829  0.4673
  322SOL     OW 1285   1.250   0.841   1.667  0.4856  0.6361 -0.4527
  322SOL    HW1 1286   1.318   0.790   1.707 -1.6444  0.2236 -0.3249
  322SOL    HW2 1287   1.210   0.883   1.741  0.9364  0.5856  0.1685
  322SOL     MW 1288   1.254   0.840   1.682  0.2641  0.5750 -0.3539
  323SOL     OW 1289   1.242   1.582   1.887  0.0597 -0.7586  0.1891
  323SOL    HW1 1290   1.280   1.564   1.801 -1.2797  1.2684 -0.3311
  323SOL    HW2 1291   1.206   1.671   1.876  1.2977  0.9938  4.1325
  323SOL     MW 1292   1.242   1.591   1.874  0.0463 -0.2599  0.6408
  324SOL     OW 1293   1.449   0.991   2.464  0.4480  0.1690 -0.2542
  324SOL    HW1 1294   1.392   1.038   2.531 -0.5451  4.6700  3.6775
  324SOL    HW2 1295   1.536   1.036   2.479 -0.3447 -0.5447  2.3172
  324SOL     MW 1296   1.453   1.003   2.475  0.2124  0.6687  0.6038
  325SOL     OW 1297   1.054   0.527   2.921 -0.1946  0.3023 -0.2012
  325SOL    HW1 1298   1.039   0.595   2.983 -2.6597  0.7922 -0.5678
  325SOL    HW2 1299   0.969   0.504   2.890  0.5403  1.1027 -2.7062
  325SOL     MW 1300   1.041   0.533   2.925 -0.4229  0.4725 -0.5801
  326SOL     OW 1301   0.332   1.391   2.279  0.0348  0.2185  0.4630
  326SOL    HW1 1302   0.421   1.373   2.248  2.5119  0.6388  1.3716
  326SOL    HW2 1303   0.328   1.483   2.273  3.1745 -0.1520 -0.7265
  326SOL     MW 1304   0.343   1.401   2.274  0.7759  0.2250  0.4259
  327SOL     OW 1305   1.957   0.816   2.426  0.2186 -0.0134 -0.4413
  327SOL    HW1 1306   1.904   0.786   2.504  0.0651  0.3172  0.8775
  327SOL    HW2 1307   1.975   0.908   2.429 -2.6849  0.0510  1.4515
  327SOL     MW 1308   1.953   0.824   2.437 -0.1847  0.0387 -0.0175
  328SOL     OW 1309   0.194   1.306   2.040  0.2935  0.1491  0.1167
  328SOL    HW1 1310   0.129   1.239   2.036  1.5837  0.3526 -1.5561
  328SOL    HW2 1311   0.219   1.322   2.130 -0.5930  2.3298  0.8667
  328SOL     MW 1312   0.189   1.299   2.051  0.3468  0.4637 -0.0051
  329SOL     OW 1313   0.036   0.113   1.396 -0.3097 -0.1133  0.2843
  329SOL    HW1 1314  -0.000   0.136   1.483  0.3517 -1.8674  3.1527
  329SOL    HW2 1315   0.133   0.145   1.388 -0.8393  1.2451  0.9856
  329SOL     MW 1316   0.044   0.120   1.407 -0.2923 -0.1655  0.7553
  330SOL     OW 1317   0.390   3.090   2.044  0.0962  0.5006 -0.3047
  330SOL    HW1 1318   0.454   3.110   2.115 -1.1697  0.4772  1.3236
  330SOL    HW2 1319   0.323   3.026   2.081  1.4439 -2.1695 -1.0105
  330SOL     MW 1320   0.390   3.084   2.058  0.1070  0.1452 -0.1830
  331SOL     OW 1321   0.776   1.233   2.427 -0.1559  0.2697 -0.6720
  331SOL    HW1 1322   0.735   1.297   2.365  2.5174  0.9575  2.3991
  331SOL    HW2 1323   0.808   1.279   2.507  0.1886 -0.4973 -1.1230
  331SOL     MW 1324   0.775   1.248   2.430  0.2423  0.2592 -0.3263
  332SOL     OW 1325   1.331   1.636   2.930 -0.3077 -0.0792  0.5020
  332SOL    HW1 1326   1.331   1.627   2.836  1.5230 -2.2843 -0.3725
  332SOL    HW2 1327   1.392   1.714   2.936  2.5945 -0.9434 -0.6109
  332SOL     MW 1328   1.339   1.645   2.918  0.3168 -0.4842  0.2398
  333SOL     OW 1329   1.687   1.359   2.934 -0.3347 -1.2139  0.3838
  333SOL    HW1 1330   1.789   1.360   2.952  1.8300 -1.7916 -0.1134
  333SOL    HW2 1331   1.642   1.283   2.968  1.8470  0.6791  1.1249
  333SOL     MW 1332   1.695   1.349   2.941  0.2388 -1.0404  0.4160
  334SOL     OW 1333   1.298   3.083   2.626  0.4052  1.1221 -0.4505
  334SOL    HW1 1334   1.239   3.047   2.691 -1.8750  3.5236  0.7570
  334SOL    HW2 1335   1.358   3.148   2.669  0.0718 -0.7450 -3.1537
  334SOL     MW 1336   1.298   3.087   2.640  0.0603  1.1926 -0.6479
  335SOL     OW 1337   1.289   0.695   3.027  0.4673 -0.2399 -0.1239
  335SOL    HW1 1338   1.332   0.670   3.099 -1.2029 -0.8815 -1.7294
  335SOL    HW2 1339   1.347   0.736   2.957  1.8273  0.6820  0.0374
  335SOL     MW 1340   1.302   0.697   3.027  0.4264 -0.2029 -0.3145
  336SOL     OW 1341   0.975   1.153   1.714 -0.2413 -0.0802 -0.0959
  336SOL    HW1 1342   0.921   1.216   1.779  2.1586  3.4378  1.6005
  336SOL    HW2 1343   1.015   1.080   1.762  0.6854 -1.0114 -2.1546
  336SOL     MW 1344   0.973   1.152   1.729  0.1976  0.2611 -0.1437
  337SOL     OW 1345   0.558   1.909   2.842 -0.2816  0.5084 -0.3590
  337SOL    HW1 1346   0.522   1.860   2.768  0.1415  0.9121 -1.3319
  337SOL    HW2 1347   0.654   1.878   2.845  1.2387  1.0466 -0.5694
  337SOL     MW 1348   0.566   1.898   2.833 -0.0252  0.6327 -0.5151
  338SOL     OW 1349   1.063   0.739   2.508  0.0294 -0.2425  0.1212
  338SOL    HW1 1350   0.986   0.677   2.524  0.8097 -0.2060 -0.2193
  338SOL    HW2 1351   1.128   0.705   2.577 -1.4121 -0.4207 -1.9160
  338SOL     MW 1352   1.062   0.726   2.519 -0.0578 -0.2612 -0.1925
  339SOL     OW 1353   1.435   1.187   1.840 -0.0456  0.7688  0.3975
  339SOL    HW1 1354   1.435   1.117   1.774  0.8093 -0.8424  1.3560
  339SOL    HW2 1355   1.376   1.151   1.909  0.4427 -0.2366  0.4354
  339SOL     MW 1356   1.427   1.173   1.840  0.1316  0.4236  0.5290
  340SOL     OW 1357   1.250   1.507   0.063 -0.2336  0.1361  0.0377
  340SOL    HW1 1358   1.303   1.516  -0.015  0.1489 -0.3121 -0.1275
  340SOL    HW2 1359   1.311   1.506   0.141  1.2942  1.1186  3.1129
  340SOL     MW 1360   1.265   1.508   0.063  0.0184  0.2066  0.4216
  341SOL     OW 1361   0.101   1.367   2.821  1.0628  0.3656  0.3679
  341SOL    HW1 1362   0.194   1.345   2.838  0.7703 -1.8636  0.6802
  341SOL    HW2 1363   0.081   1.325   2.732 -0.5627  2.3057  0.4053
  341SOL     MW 1364   0.111   1.358   2.811  0.8097  0.3274  0.4140
  342SOL     OW 1365   1.418   0.297   0.120  0.7481  0.0937 -0.2061
  342SOL    HW1 1366   1.474   0.350   0.172 -1.1095 -0.8092  0.4999
  342SOL    HW2 1367   1.417   0.336   0.030 -2.5381 -0.7390 -0.3315
  342SOL     MW 1368   1.425   0.309   0.115  0.0694 -0.1353 -0.1295
  343SOL     OW 1369   0.249   0.276   2.196 -1.0341 -0.2803 -0.7428
  343SOL    HW1 1370   0.313   0.225   2.145  1.1470 -1.9429 -1.5379
  343SOL    HW2 1371   0.171   0.231   2.169 -1.1463  3.5527 -0.8222
  343SOL     MW 1372   0.247   0.263   2.186 -0.7611  0.0060 -0.8581
  344SOL     OW 1373   1.702   2.001   0.114 -0.6510 -0.3870 -0.0486
  344SOL    HW1 1374   1.730   2.079   0.061  2.8847  0.2170 -3.2100
  344SOL    HW2 1375   1.619   1.984   0.089  0.3483 -1.4933  1.5963
  344SOL     MW 1376   1.695   2.009   0.104 -0.0526 -0.4533 -0.2487
  345SOL     OW 1377   0.687   1.591   2.362 -0.0923 -0.2404 -0.4594
  345SOL    HW1 1378   0.610   1.612   2.304  1.0257  2.1262 -0.2107
  345SOL    HW2 1379   0.765   1.584   2.304 -0.1735 -1.9987  0.6626
  345SOL     MW 1380   0.687   1.593   2.346  0.0445 -0.1602 -0.2786
  346SOL     OW 1381   1.670   1.105   3.089 -0.2556  0.2986  0.2281
  346SOL    HW1 1382   1.758   1.072   3.083 -0.7068  3.8209 -2.6940
  346SOL    HW2 1383   1.637   1.047   3.150  1.7794  0.7849 -0.9825
  346SOL     MW 1384   1.677   1.093   3.097 -0.0466  0.8275 -0.3172
  347SOL     OW 1385   1.150   0.678   2.241  0.0246 -0.5806 -0.3768
  347SOL    HW1 1386   1.185   0.592   2.272 -1.4905  0.7902  1.5240
  347SOL    HW2 1387   1.117   0.725   2.316 -0.0403  1.2131 -1.7035
  347SOL     MW 1388   1.150   0.673   2.255 -0.1839 -0.1631 -0.3011
  348SOL     OW 1389   1.340   2.536   1.924 -0.0959  0.2127 -0.4335
  348SOL    HW1 1390   1.332   2.477   2.000 -0.1485  0.1772 -2.2563
  348SOL    HW2 1391   1.332   2.629   1.958 -0.7419  0.3956 -2.1652
  348SOL     MW 1392   1.338   2.541   1.938 -0.1881  0.2322 -0.9025
  349SOL     OW 1393   1.440   0.171   2.767  0.4502 -0.3287  0.0394
  349SOL    HW1 1394   1.384   0.238   2.815  0.3070  1.3054  2.5563
  349SOL    HW2 1395   1.494   0.113   2.825 -0.4232 -3.0105  2.2306
  349SOL     MW 1396   1.440   0.172   2.781  0.3160 -0.4669  0.6606
  350SOL     OW 1397   1.844   0.658   2.623  0.1527 -0.1060  0.0034
  350SOL    HW1 1398   1.826   0.577   2.567  0.8980 -2.7102  0.8409
  350SOL    HW2 1399   1.933   0.667   2.661 -1.6686  0.5567 -1.6511
  350SOL     MW 1400   1.853   0.649   2.621  0.0107 -0.3622 -0.1044
  351SOL     OW 1401   0.095   1.123   1.632  0.4733 -0.0186 -0.2539
  351SOL    HW1 1402   0.012   1.140   1.682 -0.5731  0.9305 -1.8794
  351SOL    HW2 1403   0.152   1.185   1.674 -0.1413 -4.3152  1.0047
  351SOL     MW 1404   0.091   1.133   1.644  0.2541 -0.4603 -0.3023
  352SOL     OW 1405   0.811   1.779   2.797 -0.9574  0.5568  0.2669
  352SOL    HW1 1406   0.821   1.756   2.896  1.0836 -1.4479  1.1330
  352SOL    HW2 1407   0.755   1.707   2.762  0.0447 -1.9999 -1.3087
  352SOL     MW 1408   0.805   1.767   2.805 -0.5559 -0.0450  0.1733
  353SOL     OW 1409   0.021   2.558   2.696 -0.2697 -0.1025 -0.3623
  353SOL    HW1 1410   0.110   2.539   2.665 -0.3891 -0.8612  0.6054
  353SOL    HW2 1411  -0.005   2.648   2.677 -2.6633 -1.0929 -1.7965
  353SOL     MW 1412   0.029   2.567   2.690 -0.6012 -0.3333 -0.4238
  354SOL     OW 1413   0.357   2.442   0.889 -0.0078  0.2560  0.0834
  354SOL    HW1 1414   0.370   2.426   0.985 -2.4934  2.1341  0.7934
  354SOL    HW2 1415   0.292   2.374   0.847 -3.6946 -1.9924 -2.4023
  354SOL     MW 1416   0.350   2.431   0.896 -0.8222  0.2071 -0.1509
  355SOL     OW 1417   3.079   2.177   0.362  0.5747 -0.2393  0.3586
  355SOL    HW1 1418   2.987   2.153   0.368 -2.0903  0.4466  0.9084
  355SOL    HW2 1419   3.088   2.226   0.452  1.3365  1.7544  0.6137
  355SOL     MW 1420   3.068   2.180   0.375  0.3236  0.1142  0.4648
  356SOL     OW 1421   0.781   2.881   1.032  0.2088  0.6982  0.8591
  356SOL    HW1 1422   0.851   2.865   0.975 -1.0633 -0.8800  2.1368
  356SOL    HW2 1423   0.702   2.865   0.977 -1.9542  2.2538  1.4308
  356SOL     MW 1424   0.780   2.877   1.018 -0.2444  0.6952  1.1031
  357SOL     OW 1425   1.829   2.813   0.481  0.2512  0.3555 -0.0523
  357SOL    HW1 1426   1.831   2.764   0.563 -0.1256 -0.9292 -0.5458
  357SOL    HW2 1427   1.919   2.795   0.450  1.7169 -0.7225  0.2588
  357SOL     MW 1428   1.841   2.804   0.488  0.3949  0.0437 -0.0764
  358SOL     OW 1429   0.417   0.164   1.043 -0.4875  0.0101 -0.1385
  358SOL    HW1 1430   0.504   0.194   1.032  0.3526 -1.0673  0.4203
  358SOL    HW2 1431   0.376   0.187   0.957 -0.1462  0.3725 -0.6864
  358SOL     MW 1432   0.423   0.171   1.030 -0.3316 -0.0842 -0.1371
  359SOL     OW 1433   0.892   2.990   1.829  0.1613 -0.2164  0.2683
  359SOL    HW1 1434   0.882   2.902   1.867  0.2928 -4.7795 -0.7151
  359SOL    HW2 1435   0.889   2.983   1.731  1.5873  2.2687  1.2452
  359SOL     MW 1436   0.890   2.977   1.821  0.3668 -0.4906  0.2674
  360SOL     OW 1437   0.559   2.779   0.882  0.0069  0.1740 -0.2820
  360SOL    HW1 1438   0.606   2.744   0.804 -0.6554  1.4580 -0.3514
  360SOL    HW2 1439   0.558   2.712   0.948 -0.3414 -0.3382 -1.3267
  360SOL     MW 1440   0.565   2.766   0.881 -0.1264  0.2759 -0.4290
  361SOL     OW 1441   0.239   2.642   1.388  0.4589  0.3392 -0.2374
  361SOL    HW1 1442   0.184   2.714   1.426 -1.9512  1.2066 -1.9374
  361SOL    HW2 1443   0.303   2.695   1.347 -1.2779 -0.8121  2.4153
  361SOL     MW 1444   0.240   2.659   1.387 -0.0882  0.3018 -0.1117
  362SOL     OW 1445   1.390   2.406   0.613 -0.1242  0.4522 -0.1769
  362SOL    HW1 1446   1.426   2.339   0.669 -0.2744 -1.4491 -1.3513
  362SOL    HW2 1447   1.440   2.485   0.642 -1.1197 -0.3054  1.4279
  362SOL     MW 1448   1.401   2.408   0.624 -0.2754  0.1014 -0.1201
  363SOL     OW 1449   0.329   3.090   0.631  0.4086 -0.3187  1.1235
  363SOL    HW1 1450   0.330   3.031   0.708  1.8941  0.4123  0.2405
  363SOL    HW2 1451   0.234   3.097   0.607  1.8601  2.8063 -3.6493
  363SOL     MW 1452   0.316   3.083   0.638  0.7961  0.1901  0.3773
  364SOL     OW 1453   0.794   0.260   0.128  0.0761 -0.0667  0.2316
  364SOL    HW1 1454   0.725   0.190   0.149 -0.0987 -1.3184  0.5275
  364SOL    HW2 1455   0.756   0.324   0.063  0.5907  0.6923  0.7954
  364SOL     MW 1456   0.780   0.259   0.122  0.1210 -0.1317  0.3451
  365SOL     OW 1457   0.905   2.029   1.173  0.0466 -0.3188  0.8217
  365SOL    HW1 1458   0.878   2.113   1.133 -0.7909 -0.9604 -2.7351
  365SOL    HW2 1459   0.849   1.958   1.129  0.9596  2.1471  4.8369
  365SOL     MW 1460   0.894   2.031   1.162  0.0566 -0.0781  0.8822
  366SOL     OW 1461   2.957   2.640   0.958 -0.0659 -0.0451  0.6887
  366SOL    HW1 1462   3.038   2.649   1.003 -0.3504  2.0516  1.0813
  366SOL    HW2 1463   2.967   2.665   0.863 -0.9326  1.9835 -0.9035
  366SOL     MW 1464   2.969   2.644   0.952 -0.2178  0.4992  0.5304
  367SOL     OW 1465   1.206   2.960   0.934 -0.4488 -0.4285  0.9178
  367SOL    HW1 1466   1.250   3.020   0.875 -0.7220  0.0756 -1.5911
  367SOL    HW2 1467   1.138   2.917   0.877 -2.2290 -1.0528 -2.6199
  367SOL     MW 1468   1.203   2.962   0.919 -0.7197 -0.4443  0.1200
  368SOL     OW 1469   1.752   0.414   0.696  0.3059  0.1019 -0.7636
  368SOL    HW1 1470   1.788   0.352   0.638 -2.0617 -0.8399 -0.0594
  368SOL    HW2 1471   1.755   0.499   0.651 -1.8696  1.3484  0.7538
  368SOL     MW 1472   1.757   0.417   0.683 -0.2935  0.1421 -0.4705
  369SOL     OW 1473   0.152   2.387   1.763 -0.2658  0.0879  0.3035
  369SOL    HW1 1474   0.254   2.387   1.748  1.9323  1.5985  2.6601
  369SOL    HW2 1475   0.134   2.484   1.761 -2.0449 -2.6766 -0.1827
  369SOL     MW 1476   0.163   2.399   1.761 -0.2105 -0.0775  0.5503
  370SOL     OW 1477   0.734   0.139   0.998  0.1158 -0.5368  0.3842
  370SOL    HW1 1478   0.759   0.220   0.953 -2.4257  0.5649 -0.8428
  370SOL    HW2 1479   0.806   0.089   1.019  0.1139  0.6894  0.3965
  370SOL     MW 1480   0.747   0.143   0.995 -0.2198 -0.2297  0.2240
  371SOL     OW 1481   1.239   2.815   1.498  0.1490  0.5533  0.0559
  371SOL    HW1 1482   1.204   2.728   1.496  1.1545  0.4364 -1.0359
  371SOL    HW2 1483   1.233   2.848   1.410  1.0640  1.0374 -1.0515
  371SOL     MW 1484   1.234   2.808   1.486  0.4024  0.6017 -0.2343
  372SOL     OW 1485   0.785   2.325   0.512 -0.0802  0.4283  0.1668
  372SOL    HW1 1486   0.761   2.240   0.548  0.3348 -0.6526 -1.3003
  372SOL    HW2 1487   0.826   2.298   0.431 -4.6657 -1.6882 -1.2720
  372SOL     MW 1488   0.787   2.310   0.506 -0.6304  0.0064 -0.2166
  373SOL     OW 1489   2.844   3.011   1.410 -0.1676 -0.0015  0.3488
  373SOL    HW1 1490   2.937   3.007   1.392 -1.7848 -2.1734  2.1926
  373SOL    HW2 1491   2.813   3.093   1.369 -0.1803 -0.1200  0.2794
  373SOL     MW 1492   2.852   3.022   1.402 -0.3827 -0.3037  0.5829
  374SOL     OW 1493   1.603   0.462   0.295 -0.2215  0.5458 -0.0440
  374SOL    HW1 1494   1.689   0.428   0.279 -0.9165 -2.4478 -1.4972
  374SOL    HW2 1495   1.572   0.410   0.369 -0.1398 -2.2728  0.2051
  374SOL     MW 1496   1.610   0.450   0.303 -0.3024 -0.2211 -0.2029
  375SOL     OW 1497   0.947   2.170   2.309  0.7009 -0.3020 -0.4456
  375SOL    HW1 1498   1.007   2.145   2.384  0.8600  0.5349 -2.3897
  375SOL    HW2 1499   0.932   2.090   2.256  3.4155  1.9830  1.2748
  375SOL     MW 1500   0.953   2.156   2.312  1.0801  0.1099 -0.4751
  376SOL     OW 1501   0.741   2.519   0.050  0.7881 -0.3683  0.3638
  376SOL    HW1 1502   0.701   2.436   0.089  0.1550 -0.3208 -1.5122
  376SOL    HW2 1503   0.759   2.496  -0.040  1.2415  1.0810  1.0107
  376SOL     MW 1504   0.738   2.505   0.043  0.7644 -0.1708  0.2016
  377SOL     OW 1505   1.301   2.067   0.905  0.2838 -0.6643 -0.0929
  377SOL    HW1 1506   1.233   2.040   0.846 -1.2698  1.0173 -0.1607
  377SOL    HW2 1507   1.276   2.030   0.989 -0.2899  1.1071  0.3167
  377SOL     MW 1508   1.289   2.058   0.908  0.0031 -0.2087 -0.0478
  378SOL     OW 1509   0.927   2.862   1.547 -0.5809  0.0507 -0.1024
  378SOL    HW1 1510   0.972   2.777   1.578  1.5669  0.8092 -1.2138
  378SOL    HW2 1511   0.991   2.881   1.472 -1.7494 -4.2529 -2.4686
  378SOL     MW 1512   0.941   2.853   1.541 -0.4517 -0.4170 -0.5613
  379SOL     OW 1513   1.126   1.643   2.204  0.0232 -0.3949  0.6440
  379SOL    HW1 1514   1.068   1.600   2.146  2.9724  0.1717 -1.9237
  379SOL    HW2 1515   1.211   1.600   2.185 -1.4121  0.5736  0.5165
  379SOL     MW 1516   1.129   1.632   2.194  0.2229 -0.1924  0.2884
  380SOL     OW 1517   0.893   0.076   1.425 -0.3599  0.3195  0.3506
  380SOL    HW1 1518   0.950   0.014   1.372  0.6447 -0.2690 -2.3727
  380SOL    HW2 1519   0.941   0.092   1.508 -0.3018  1.9175  1.2754
  380SOL     MW 1520   0.907   0.070   1.429 -0.2197  0.4527  0.1133
  381SOL     OW 1521   0.812   2.043   0.839  0.7239  0.4442  0.1000
  381SOL    HW1 1522   0.904   2.040   0.811  1.0038  0.9242 -1.5663
  381SOL    HW2 1523   0.804   2.113   0.913  2.0237  0.6596 -2.0726
  381SOL     MW 1524   0.823   2.052   0.845  0.9323  0.5360 -0.4065
  382SOL     OW 1525   0.810   0.145   0.637  0.5022  0.1968 -0.4512
  382SOL    HW1 1526   0.785   0.185   0.720  0.1417  1.8312  0.5180
  382SOL    HW2 1527   0.773   0.055   0.639  0.8738 -1.0960 -0.1369
  382SOL     MW 1528   0.802   0.139   0.648  0.5037  0.2419 -0.2818
  383SOL     OW 1529   0.587   0.062   0.307  0.2062  0.1392  0.3923
  383SOL    HW1 1530   0.642  -0.003   0.261  1.1908 -0.7581 -0.2220
  383SOL    HW2 1531   0.507   0.012   0.333  0.3188 -1.7797  1.9434
  383SOL     MW 1532   0.584   0.047   0.304  0.3510 -0.2324  0.5159
  384SOL     OW 1533   0.748   2.964   0.654 -0.2286 -0.2175  0.9782
  384SOL    HW1 1534   0.825   2.939   0.718  1.8664 -0.2588 -1.3327
  384SOL    HW2 1535   0.685   2.890   0.663  1.6824  0.0316 -1.0148
  384SOL     MW 1536   0.750   2.951   0.664  0.2999 -0.1901  0.4103
  385SOL     OW 1537   1.409   2.102   1.547 -0.4250  0.2675 -0.0182
  385SOL    HW1 1538   1.490   2.134   1.593 -0.2587 -1.7046 -0.6224
  385SOL    HW2 1539   1.393   2.008   1.562 -1.1765  2.6103  0.6920
  385SOL     MW 1540   1.417   2.094   1.555 -0.5022  0.3164 -0.0042
  386SOL     OW 1541   1.419   0.370   0.879  0.1099  0.5849  0.7840
  386SOL    HW1 1542   1.405   0.369   0.974  2.0378  0.8126  1.3979
  386SOL    HW2 1543   1.480   0.296   0.872 -1.4332 -1.1652 -1.1118
  386SOL     MW 1544   1.426   0.360   0.891  0.1606  0.3840  0.6149
  387SOL     OW 1545   0.803   2.128   1.547  0.1369  0.7946  0.5923
  387SOL    HW1 1546   0.893   2.166   1.531  0.1498 -2.7818  0.9261
  387SOL    HW2 1547   0.806   2.037   1.512  0.4451 -0.1822 -0.0455
  387SOL     MW 1548   0.815   2.121   1.541  0.1792  0.1938  0.5522
  388SOL     OW 1549   1.466   2.772   1.316  0.5646  0.3808  0.1791
  388SOL    HW1 1550   1.433   2.866   1.305 -3.0246 -1.9343  1.5193
  388SOL    HW2 1551   1.386   2.723   1.297 -2.4971  0.7444  0.6059
  388SOL     MW 1552   1.451   2.778   1.312 -0.3130  0.1233  0.4123
  389SOL     OW 1553   0.540   0.142   3.054 -0.2691  0.2788  0.0314
  389SOL    HW1 1554   0.602   0.076   3.039 -1.9101  1.3929  2.8164
  389SOL    HW2 1555   0.534   0.185   2.970 -0.1030 -3.2119  0.7192
  389SOL     MW 1556   0.547   0.139   3.041 -0.4637 -0.0348  0.4896
  390SOL     OW 1557   1.351   0.031   0.748  0.6880  0.2174 -0.2460
  390SOL    HW1 1558   1.392   0.021   0.664 -0.7999  0.2431  2.1371
  390SOL    HW2 1559   1.425   0.065   0.792  1.6616  1.8698  1.2711
  390SOL     MW 1560   1.366   0.034   0.743  0.6202  0.4388  0.2686
  391SOL     OW 1561   0.361   2.179   1.516 -0.1394  0.4865  0.3492
  391SOL    HW1 1562   0.297   2.110   1.541  1.1302  0.5487 -0.0256
  391SOL    HW2 1563   0.303   2.254   1.504 -0.9348  0.3589 -1.1711
  391SOL     MW 1564   0.345   2.180   1.518 -0.0768  0.4779  0.0991
  392SOL     OW 1565   2.039   2.229   0.308 -0.2562  0.0009 -0.1048
  392SOL    HW1 1566   2.064   2.307   0.355  1.0431 -2.4158  1.4993
  392SOL    HW2 1567   1.947   2.220   0.318 -2.1355  2.8206 -0.1404
  392SOL     MW 1568   2.030   2.238   0.315 -0.3327  0.0541  0.1022
  393SOL     OW 1569   0.256   2.965   2.862 -0.0610  0.2517  0.1975
  393SOL    HW1 1570   0.334   2.918   2.822 -0.1986  0.6733  0.2683
  393SOL    HW2 1571   0.261   3.063   2.841  1.6247  2.8866  2.0232
  393SOL     MW 1572   0.267   2.972   2.854  0.1433  0.6550  0.4478
  394SOL     OW 1573   1.012   1.736   1.521  0.1580  1.4239  0.0705
  394SOL    HW1 1574   1.048   1.777   1.596 -0.1083  2.1147  1.7799
  394SOL    HW2 1575   0.947   1.798   1.481 -1.7707  0.0323  0.4580
  394SOL     MW 1576   1.008   1.749   1.526 -0.1316  1.3314  0.3472
  395SOL     OW 1577   0.942   2.977   2.587 -0.4589 -0.1781  0.8222
  395SOL    HW1 1578   0.978   3.003   2.666 -0.2308  1.0822 -0.0762
  395SOL    HW2 1579   0.995   2.896   2.564  0.6520 -0.4546  1.3460
  395SOL     MW 1580   0.954   2.969   2.594 -0.2823 -0.0483  0.7728
  396SOL     OW 1581   0.722   1.872   2.432  0.2543  0.6576 -0.2466
  396SOL    HW1 1582   0.802   1.853   2.479  0.1858  3.6791  0.3039
  396SOL    HW2 1583   0.683   1.785   2.423 -1.4663  1.4499  2.5223
  396SOL     MW 1584   0.728   1.858   2.437  0.0183  1.1608  0.1914
  397SOL     OW 1585   0.964   2.308   1.391  0.0982 -0.0275 -0.7059
  397SOL    HW1 1586   1.002   2.344   1.310 -1.2242  0.1603  0.5973
  397SOL    HW2 1587   1.047   2.287   1.439  0.9609 -2.9853  2.8301
  397SOL     MW 1588   0.980   2.310   1.387  0.0375 -0.3929 -0.0674
  398SOL     OW 1589   0.602   2.726   0.617 -0.0448  0.1030  0.8083
  398SOL    HW1 1590   0.540   2.716   0.548  1.8979  1.0862 -2.1850
  398SOL    HW2 1591   0.678   2.671   0.595 -0.0740  0.3325 -0.0065
  398SOL     MW 1592   0.604   2.718   0.605  0.2077  0.2630  0.3059
  399SOL     OW 1593   0.264   2.102   0.334  0.7132  0.2862 -0.0908
  399SOL    HW1 1594   0.172   2.109   0.325  0.0175 -0.8176 -0.4078
  399SOL    HW2 1595   0.305   2.131   0.249 -0.9561 -0.6451  0.0304
  399SOL     MW 1596   0.257   2.107   0.322  0.4012  0.0177 -0.1166
  400SOL     OW 1597   0.579   1.911   0.105  0.3500 -0.5787  0.4275
  400SOL    HW1 1598   0.538   1.996   0.102  0.9059 -1.4951  1.2820
  400SOL    HW2 1599   0.567   1.868   0.188  0.6850 -1.1842  2.6236
  400SOL     MW 1600   0.572   1.917   0.116  0.4676 -0.7795  0.8300
  401SOL     OW 1601   0.796   2.063   0.042 -0.2040  0.4937 -0.2567
  401SOL    HW1 1602   0.887   2.038   0.062  0.5548 -1.8229 -1.9877
  401SOL    HW2 1603   0.740   1.989   0.057 -0.4103  0.3991 -0.1468
  401SOL     MW 1604   0.800   2.050   0.047 -0.1311  0.1756 -0.4706
  402SOL     OW 1605   0.539   3.018   1.697 -0.0100 -0.1016  0.1422
  402SOL    HW1 1606   0.548   3.021   1.794  0.0622  2.6345 -0.7861
  402SOL    HW2 1607   0.575   3.100   1.660  0.2012 -0.2700  1.6457
  402SOL     MW 1608   0.545   3.029   1.705  0.0274  0.2372  0.2181
  403SOL     OW 1609   0.113   0.520   0.377  0.5231  0.2621  0.8171
  403SOL    HW1 1610   0.196   0.544   0.432  1.7267  0.0632 -0.7650
  403SOL    HW2 1611   0.147   0.490   0.298 -1.1112  0.9866 -0.3617
  403SOL     MW 1612   0.129   0.519   0.374  0.4663  0.3314  0.4529
  404SOL     OW 1613   0.965   2.915   0.803 -0.5730  0.3126  0.8935
  404SOL    HW1 1614   1.010   2.847   0.749 -0.1062  1.8037 -0.7768
  404SOL    HW2 1615   1.003   3.006   0.773  1.7356  0.0382  0.0371
  404SOL     MW 1616   0.976   2.918   0.792 -0.2068  0.4731  0.5601
  405SOL     OW 1617   0.446   2.475   1.519  0.1019 -0.1893 -0.5634
  405SOL    HW1 1618   0.421   2.552   1.469 -2.7986  0.2487 -1.9388
  405SOL    HW2 1619   0.488   2.418   1.460  0.6419  0.3080  3.6691
  405SOL     MW 1620   0.448   2.478   1.504 -0.2096 -0.0659 -0.1864
  406SOL     OW 1621   0.381   2.388   1.165  0.5693 -0.4923  0.1097
  406SOL    HW1 1622   0.286   2.367   1.166  2.5587 -0.1715 -1.1309
  406SOL    HW2 1623   0.424   2.302   1.182  0.9668 -0.2012  0.6384
  406SOL     MW 1624   0.374   2.374   1.168  0.8843 -0.4115  0.0158
  407SOL     OW 1625   0.053   2.656   1.169 -0.3714 -0.2553 -0.1017
  407SOL    HW1 1626   0.113   2.653   1.246 -1.3618  0.8410  0.3688
  407SOL    HW2 1627   0.122   2.653   1.098 -0.5504  0.2069 -1.3171
  407SOL     MW 1628   0.070   2.655   1.170 -0.5257 -0.0497 -0.2000
  408SOL     OW 1629   2.118   2.118   0.752  0.2542  0.3391 -0.0664
  408SOL    HW1 1630   2.058   2.183   0.798 -2.7476 -2.2415 -1.4241
  408SOL    HW2 1631   2.053   2.079   0.698 -0.7160  3.8845 -1.1059
  408SOL     MW 1632   2.102   2.121   0.751 -0.2698  0.4664 -0.3827
  409SOL     OW 1633   1.567   0.147   0.881  0.6820 -0.5133 -0.2376
  409SOL    HW1 1634   1.644   0.202   0.902 -2.9842  1.7241 -0.1819
  409SOL    HW2 1635   1.547   0.094   0.961  2.5838  0.3856  3.2184
  409SOL     MW 1636   1.575   0.147   0.895  0.4492 -0.0995  0.2257
  410SOL     OW 1637   1.052   2.437   1.161  0.5381 -0.7462  0.1445
  410SOL    HW1 1638   1.029   2.516   1.110 -0.4067 -0.6852 -1.3236
  410SOL    HW2 1639   1.130   2.394   1.123  0.1410 -0.0371  1.2246
  410SOL     MW 1640   1.059   2.442   1.149  0.3610 -0.6446  0.0933
  411SOL     OW 1641   2.011   2.997   2.871 -0.1360 -0.1400  0.5603
  411SOL    HW1 1642   1.998   2.944   2.795  0.9970 -0.4462  1.0481
  411SOL    HW2 1643   2.003   3.088   2.842  1.5268 -0.1166 -2.6669
  411SOL     MW 1644   2.008   3.002   2.857  0.2329 -0.1773  0.1989
  412SOL     OW 1645   1.056   2.263   0.606 -0.3976 -0.6115 -0.0027
  412SOL    HW1 1646   1.089   2.339   0.654 -2.2253  0.2719 -2.0652
  412SOL    HW2 1647   0.971   2.297   0.580  0.7304 -0.7661  0.0529
  412SOL     MW 1648   1.049   2.277   0.609 -0.4900 -0.5154 -0.2675
  413SOL     OW 1649   0.593   2.765   0.082 -0.2898  0.2242  0.2182
  413SOL    HW1 1650   0.648   2.691   0.059  0.1228 -3.1172 -1.1917
  413SOL    HW2 1651   0.607   2.818  -0.001 -1.0069 -2.4897  2.0145
  413SOL     MW 1652   0.602   2.762   0.068 -0.3300 -0.5748  0.2692
  414SOL     OW 1653   1.995   3.040   1.146  0.0165  0.1830 -0.7589
  414SOL    HW1 1654   2.054   3.112   1.137 -0.2955  1.2368 -0.6155
  414SOL    HW2 1655   1.942   3.030   1.066 -0.7224 -0.4777 -0.8347
  414SOL     MW 1656   1.996   3.048   1.134 -0.1221  0.2349 -0.7500
  415SOL     OW 1657   1.629   2.825   1.113 -0.3018  0.4923  0.6893
  415SOL    HW1 1658   1.592   2.799   1.199 -0.7145 -0.6501 -0.4993
  415SOL    HW2 1659   1.717   2.793   1.102  0.5855  3.3875 -0.2399
  415SOL     MW 1660   1.636   2.817   1.123 -0.2392  0.7236  0.4098
  416SOL     OW 1661   0.605   1.762   1.492  0.1281 -0.4096  0.5142
  416SOL    HW1 1662   0.526   1.710   1.487 -2.1740 -3.2183 -0.3022
  416SOL    HW2 1663   0.667   1.702   1.452 -1.6256 -0.8432  1.5223
  416SOL     MW 1664   0.603   1.747   1.486 -0.4070 -0.8374  0.5395
  417SOL     OW 1665   0.981   3.056   2.094  0.1890  0.7759  0.2113
  417SOL    HW1 1666   0.911   3.079   2.156 -0.8917  1.5666 -1.7074
  417SOL    HW2 1667   0.934   3.024   2.013 -0.4328 -0.6564 -0.8995
  417SOL     MW 1668   0.965   3.055   2.092 -0.0357  0.6913 -0.1884
  418SOL     OW 1669   0.750   2.992   0.165  0.5029  0.5126  0.2801
  418SOL    HW1 1670   0.814   2.985   0.093 -0.6102 -3.2927 -1.0042
  418SOL    HW2 1671   0.689   2.921   0.144  1.9857 -1.4973  0.7315
  418SOL     MW 1672   0.750   2.982   0.153  0.5517 -0.2546  0.1702
  419SOL     OW 1673   0.546   2.696   1.342 -0.0671 -0.3975 -0.0006
  419SOL    HW1 1674   0.582   2.774   1.382  1.9447  0.8265 -2.4078
  419SOL    HW2 1675   0.609   2.634   1.371  0.1393 -0.4448  0.4482
  419SOL     MW 1676   0.559   2.698   1.351  0.2256 -0.2423 -0.2590
  420SOL     OW 1677   0.762   2.229   1.036 -0.0129 -0.2173 -0.5274
  420SOL    HW1 1678   0.711   2.247   1.116  1.3074 -0.1195  1.1815
  420SOL    HW2 1679   0.802   2.319   1.013  0.1452  0.3279  0.2062
  420SOL     MW 1680   0.761   2.243   1.044  0.1822 -0.1325 -0.2051
  421SOL     OW 1681   2.925   0.165   0.013 -0.2856 -0.1470  0.3753
  421SOL    HW1 1682   2.854   0.153  -0.048 -1.5895  1.2918  3.0066
  421SOL    HW2 1683   2.956   0.073   0.032  1.4433 -0.4938 -0.4319
  421SOL     MW 1684   2.920   0.151   0.007 -0.2295 -0.0029  0.6160
  422SOL     OW 1685   0.829   2.528   0.985  0.2899  0.3871 -0.0683
  422SOL    HW1 1686   0.749   2.557   1.031 -0.7493 -0.8345  0.2213
  422SOL    HW2 1687   0.815   2.539   0.894  2.1035  1.6257  0.3047
  422SOL     MW 1688   0.817   2.533   0.979  0.3920  0.3894  0.0191
  423SOL     OW 1689   1.445   0.063   0.483  0.1913  0.1252  0.0764
  423SOL    HW1 1690   1.462   0.062   0.392  0.1066  0.8860  2.1651
  423SOL    HW2 1691   1.432   0.155   0.486 -1.1480 -1.9455  0.0445
  423SOL     MW 1692   1.446   0.075   0.471  0.0034 -0.0476  0.3478
  424SOL     OW 1693   0.648   2.297   1.361 -0.3031 -0.1825  0.1965
  424SOL    HW1 1694   0.588   2.223   1.333 -0.3850 -0.7477  0.2255
  424SOL    HW2 1695   0.707   2.259   1.429  0.9180  0.0700  0.3275
  424SOL     MW 1696   0.648   2.283   1.366 -0.1528 -0.2237  0.2176
  425SOL     OW 1697   1.675   2.781   2.059 -0.0124  0.3020  0.1941
  425SOL    HW1 1698   1.695   2.798   1.964 -2.3904  0.8081 -2.1296
  425SOL    HW2 1699   1.721   2.695   2.086 -0.6742  0.0918 -3.8500
  425SOL     MW 1700   1.684   2.772   2.050 -0.4135  0.3411 -0.6460
  426SOL     OW 1701   0.913   1.741   1.997 -0.1091 -0.1690  0.1290
  426SOL    HW1 1702   0.826   1.721   1.953 -2.1120 -1.8541  1.6856
  426SOL    HW2 1703   0.887   1.811   2.059  0.6296 -0.1961 -3.6832
  426SOL     MW 1704   0.898   1.748   1.999 -0.2759 -0.3949 -0.1686
  427SOL     OW 1705   0.352   1.698   1.877  0.1963 -0.2600  0.0441
  427SOL    HW1 1706   0.400   1.634   1.818 -0.8326 -0.3331  0.4570
  427SOL    HW2 1707   0.276   1.647   1.927 -2.8732 -0.8190  3.0614
  427SOL     MW 1708   0.349   1.683   1.875 -0.3444 -0.3434  0.4967
  428SOL     OW 1709   0.580   2.579   1.085 -0.0887  0.0728  0.3604
  428SOL    HW1 1710   0.507   2.513   1.089 -0.1008  2.3240  1.5520
  428SOL    HW2 1711   0.561   2.624   1.172  1.5312 -0.8358 -1.3828
  428SOL     MW 1712   0.568   2.577   1.097  0.1235  0.2499  0.2876
  429SOL     OW 1713   1.183   2.741   1.121  0.2281  0.0483 -0.3588
  429SOL    HW1 1714   1.088   2.735   1.132 -1.8471 -0.7096 -0.1929
  429SOL    HW2 1715   1.201   2.813   1.057 -0.2982 -1.7793 -3.7880
  429SOL     MW 1716   1.173   2.750   1.114 -0.1151 -0.2928 -0.7893
  430SOL     OW 1717   1.159   2.751   0.686  0.0190  0.4634 -0.1114
  430SOL    HW1 1718   1.167   2.660   0.723 -1.0131 -1.4607 -1.3403
  430SOL    HW2 1719   1.130   2.734   0.589 -0.8490  1.1582  2.2995
  430SOL     MW 1720   1.156   2.736   0.679 -0.2317  0.3012  0.0445
  431SOL     OW 1721   0.292   1.924   1.130 -0.2849  0.1254 -0.4190
  431SOL    HW1 1722   0.363   1.854   1.114  2.5884 -1.2505 -0.2269
  431SOL    HW2 1723   0.253   1.939   1.040 -1.5784  3.0041 -0.6371
  431SOL     MW 1724   0.296   1.917   1.116 -0.0765  0.3237 -0.4225
  432SOL     OW 1725   0.081   0.021   1.133  0.4366 -0.4121  0.2133
  432SOL    HW1 1726   0.072   0.047   1.225 -1.0999  0.0021  0.0300
  432SOL    HW2 1727   0.021  -0.057   1.124 -0.9695  2.8870 -0.4365
  432SOL     MW 1728   0.072   0.014   1.144  0.0484  0.0778  0.1034
  433SOL     OW 1729   0.664   2.925   1.472  0.0277  0.4829  0.0869
  433SOL    HW1 1730   0.633   2.948   1.560  1.7403 -2.5535 -0.6666
  433SOL    HW2 1731   0.764   2.904   1.488 -2.3343 -1.6691 -0.3807
  433SOL     MW 1732   0.673   2.925   1.485 -0.0580 -0.2017 -0.0742
  434SOL     OW 1733   1.496   2.847   1.575 -0.6923 -0.1719  0.4600
  434SOL    HW1 1734   1.399   2.859   1.564  0.5386  2.6196 -0.8690
  434SOL    HW2 1735   1.520   2.792   1.498 -0.9234 -2.2441  0.7206
  434SOL     MW 1736   1.486   2.841   1.563 -0.5604 -0.0770  0.3190
  435SOL     OW 1737   2.761   1.782   0.208  0.0963 -0.1894 -0.2945
  435SOL    HW1 1738   2.792   1.832   0.142  0.9010  0.6835  2.7146
  435SOL    HW2 1739   2.669   1.799   0.212  0.7253  0.8619 -1.3560
  435SOL     MW 1740   2.753   1.791   0.200  0.2855  0.0645 -0.0375
  436SOL     OW 1741   1.368   2.692   0.320 -0.4022  0.0018  0.2178
  436SOL    HW1 1742   1.385   2.642   0.401 -2.7056  0.1789  0.0227
  436SOL    HW2 1743   1.330   2.775   0.353  0.2911  0.0039  1.9069
  436SOL     MW 1744   1.365   2.696   0.335 -0.6147  0.0254  0.4149
  437SOL     OW 1745   1.063   2.984   1.298  0.0315 -0.2512 -0.3864
  437SOL    HW1 1746   1.054   3.046   1.222  3.1295  0.0807  0.8913
  437SOL    HW2 1747   1.017   2.910   1.259 -0.5930  1.6926  0.3420
  437SOL     MW 1748   1.056   2.982   1.283  0.3578  0.0491 -0.1217
  438SOL     OW 1749   0.896   2.730   1.923  0.4838  0.0915 -0.3292
  438SOL    HW1 1750   0.874   2.654   1.980 -0.6002  0.8895 -0.7573
  438SOL    HW2 1751   0.885   2.691   1.833 -1.9670  2.4870 -0.6606
  438SOL     MW 1752   0.891   2.715   1.918  0.0175  0.5129 -0.4294
  439SOL     OW 1753   1.192   2.086   0.415  0.4716  0.0595 -0.0407
  439SOL    HW1 1754   1.126   2.106   0.478  2.4453 -0.1827  0.2865
  439SOL    HW2 1755   1.181   2.157   0.346  0.7694 -1.8093 -0.2599
  439SOL     MW 1756   1.182   2.098   0.414  0.7713 -0.2190 -0.0265
  440SOL     OW 1757   1.778   2.970   3.070  0.1868  0.1289 -0.5638
  440SOL    HW1 1758   1.791   2.929   3.155 -0.8923  1.3206 -0.3663
  440SOL    HW2 1759   1.859   2.976   3.027  0.7410 -0.0884  0.6161
  440SOL     MW 1760   1.790   2.965   3.075  0.1176  0.2574 -0.3821
  441SOL     OW 1761   0.346   2.663   0.442  0.6943 -0.1686 -0.6348
  441SOL    HW1 1762   0.325   2.606   0.361 -0.5105  1.5472 -0.5981
  441SOL    HW2 1763   0.360   2.755   0.418  0.7754  0.2066 -0.4877
  441SOL     MW 1764   0.345   2.668   0.428  0.5460  0.1073 -0.6106
  442SOL     OW 1765   3.098   2.292   0.616  0.3505  0.2530  0.0013
  442SOL    HW1 1766   3.111   2.381   0.632  1.7442 -2.4999  1.3865
  442SOL    HW2 1767   3.006   2.271   0.647 -1.3890  1.2027 -0.4876
  442SOL     MW 1768   3.087   2.301   0.622  0.3049  0.0151  0.1196
  443SOL     OW 1769   1.498   1.783   1.903 -0.0743  0.5876  0.3287
  443SOL    HW1 1770   1.457   1.811   1.817 -1.0315 -1.2601  1.2133
  443SOL    HW2 1771   1.477   1.692   1.917  0.0379 -0.2709 -2.0098
  443SOL     MW 1772   1.490   1.775   1.893 -0.1858  0.2305  0.1369
  444SOL     OW 1773   1.004   2.607   1.627 -0.0873 -0.1154  0.5651
  444SOL    HW1 1774   1.056   2.538   1.676  1.8020 -0.9714  0.7796
  444SOL    HW2 1775   0.914   2.599   1.658 -0.9799  1.9819  1.0698
  444SOL     MW 1776   0.999   2.597   1.637  0.0442  0.0484  0.6600
  445SOL     OW 1777   1.233   0.136   1.428  0.7811 -0.5094 -0.1748
  445SOL    HW1 1778   1.217   0.216   1.481 -2.3266  1.4616 -1.4196
  445SOL    HW2 1779   1.181   0.153   1.351  1.3502  0.1211 -1.2174
  445SOL     MW 1780   1.224   0.149   1.425  0.4462 -0.1662 -0.4766
  446SOL     OW 1781   2.785   2.846   1.034  0.0818 -0.2650  0.2654
  446SOL    HW1 1782   2.722   2.878   0.973  4.3919  0.0084 -1.1064
  446SOL    HW2 1783   2.833   2.772   1.005 -2.0029 -0.6521  0.0630
  446SOL     MW 1784   2.783   2.840   1.022  0.3754 -0.2800  0.0577
  447SOL     OW 1785   0.027   1.955   1.585 -0.1231  0.1335 -0.2478
  447SOL    HW1 1786   0.045   1.881   1.645  0.3005 -0.5491 -0.1088
  447SOL    HW2 1787  -0.042   1.928   1.516 -2.8435 -1.3290 -2.6314
  447SOL     MW 1788   0.020   1.942   1.584 -0.4261 -0.1495 -0.5439
  448SOL     OW 1789   1.780   2.417   1.665 -0.3239 -0.6276 -0.0154
  448SOL    HW1 1790   1.715   2.346   1.676  1.0927  1.1574  0.3540
  448SOL    HW2 1791   1.729   2.503   1.664  1.9169 -0.4375  0.1683
  448SOL     MW 1792   1.765   2.419   1.666  0.1587 -0.3670  0.0576
  449SOL     OW 1793   0.882   2.934   0.390 -0.2253 -0.3042 -0.2542
  449SOL    HW1 1794   0.821   2.950   0.316  1.3794 -0.5811  0.1744
  449SOL    HW2 1795   0.837   2.959   0.475  0.8390 -0.9064 -0.3736
  449SOL     MW 1796   0.868   2.939   0.392  0.1269 -0.4202 -0.2134
  450SOL     OW 1797   1.182   2.478   0.782  0.3629  0.1952 -0.0555
  450SOL    HW1 1798   1.223   2.449   0.861 -2.1736 -0.8469  2.6262
  450SOL    HW2 1799   1.250   2.463   0.713  0.1944  0.5531  0.3650
  450SOL     MW 1800   1.197   2.472   0.783  0.0060  0.1049  0.3538
  451SOL     OW 1801   0.533   1.969   1.704 -0.5603 -0.5920 -0.2054
  451SOL    HW1 1802   0.588   2.039   1.669  2.9410 -1.1662 -2.8824
  451SOL    HW2 1803   0.474   1.959   1.631 -0.1982 -1.7112 -1.9873
  451SOL     MW 1804   0.533   1.977   1.690 -0.0505 -0.8154 -0.7937
  452SOL     OW 1805   0.356   2.624   0.042  0.2595 -0.9419 -0.1812
  452SOL    HW1 1806   0.427   2.684   0.055 -0.1604  1.8113 -1.3552
  452SOL    HW2 1807   0.284   2.679   0.054 -1.5966 -0.6715  0.0522
  452SOL     MW 1808   0.356   2.639   0.045 -0.0408 -0.5430 -0.3053
  453SOL     OW 1809   0.300   3.088   1.601 -0.1248 -0.0381 -0.2335
  453SOL    HW1 1810   0.369   3.033   1.644  2.3802 -0.6993 -0.6903
  453SOL    HW2 1811   0.329   3.082   1.510  0.1511 -0.5036 -2.7177
  453SOL     MW 1812   0.313   3.080   1.595  0.2421 -0.1867 -0.6216
  454SOL     OW 1813   0.917   2.761   1.242 -0.1031  0.4583 -0.3488
  454SOL    HW1 1814   0.869   2.693   1.297 -3.5824 -1.0557  0.9139
  454SOL    HW2 1815   0.841   2.796   1.195 -1.0810 -0.7069 -0.5909
  454SOL     MW 1816   0.901   2.756   1.243 -0.6912  0.1048 -0.2141
  455SOL     OW 1817   1.703   2.871   0.243  0.8056  0.1735 -0.2770
  455SOL    HW1 1818   1.756   2.834   0.318 -1.2970  0.4276 -0.2115
  455SOL    HW2 1819   1.648   2.793   0.225  0.5255 -0.8086  2.4125
  455SOL     MW 1820   1.703   2.856   0.250  0.4912  0.0775  0.0865
  456SOL     OW 1821   2.754   0.284   1.483 -0.2014 -0.2177 -0.2459
  456SOL    HW1 1822   2.759   0.210   1.420 -0.7745 -2.2032 -1.2359
  456SOL    HW2 1823   2.829   0.341   1.453  1.3063  1.7170 -2.2177
  456SOL     MW 1824   2.765   0.282   1.471 -0.0781 -0.2244 -0.6367
  457SOL     OW 1825   0.785   1.661   3.053  0.1175  0.6610  0.1130
  457SOL    HW1 1826   0.698   1.646   3.010 -1.7726  1.8763  1.3181
  457SOL    HW2 1827   0.759   1.709   3.129  2.1650 -1.8741 -0.2408
  457SOL     MW 1828   0.770   1.665   3.057  0.1383  0.4869  0.2253
  458SOL     OW 1829   1.373   1.513   0.696  0.2633 -0.2440  0.6626
  458SOL    HW1 1830   1.320   1.569   0.628 -0.0708 -1.4273 -0.3546
  458SOL    HW2 1831   1.338   1.427   0.677 -2.4454 -3.2719 -0.6979
  458SOL     MW 1832   1.361   1.509   0.685 -0.1382 -0.7996  0.3489
  459SOL     OW 1833   1.565   0.030   0.231  0.1649 -0.1876  0.5760
  459SOL    HW1 1834   1.602  -0.057   0.229  0.0521  1.4868  2.1391
  459SOL    HW2 1835   1.513   0.030   0.146  2.3752 -0.7459  0.1178
  459SOL     MW 1836   1.563   0.018   0.219  0.4417 -0.0404  0.7218
  460SOL     OW 1837   1.783   2.219   0.659  0.1299  0.5468 -0.5288
  460SOL    HW1 1838   1.699   2.192   0.703  1.9130  0.8292  1.0418
  460SOL    HW2 1839   1.822   2.133   0.637  1.0883 -0.2209 -0.1993
  460SOL     MW 1840   1.777   2.204   0.662  0.4916  0.4828 -0.2781
  461SOL     OW 1841   0.460   2.436   0.637 -0.4987  0.2369 -0.1006
  461SOL    HW1 1842   0.447   2.521   0.594  1.7953 -0.8759  0.1379
  461SOL    HW2 1843   0.432   2.455   0.725  0.8319  1.9914  1.8245
  461SOL     MW 1844   0.455   2.450   0.643 -0.0205  0.3215  0.1849
  462SOL     OW 1845   0.292   0.196   1.307 -0.1925  0.3215  0.2352
  462SOL    HW1 1846   0.334   0.159   1.231 -0.1801 -0.3759  1.1253
  462SOL    HW2 1847   0.353   0.219   1.376  2.3824 -1.2240 -1.0719
  462SOL     MW 1848   0.305   0.194   1.306  0.1489  0.0256  0.1802
  463SOL     OW 1849   1.062   0.047   0.726 -0.2153  0.0890  0.0231
  463SOL    HW1 1850   1.132   0.048   0.657  1.0091 -1.4667  2.2291
  463SOL    HW2 1851   0.994   0.109   0.688 -0.5338 -0.2159  1.9016
  463SOL     MW 1852   1.063   0.055   0.712 -0.0958 -0.1565  0.5620
  464SOL     OW 1853   0.788   0.003   2.260  0.3774  0.0506  0.3047
  464SOL    HW1 1854   0.776  -0.089   2.273 -0.8523  3.3569  0.4236
  464SOL    HW2 1855   0.826   0.038   2.339 -0.4565  0.5423 -0.9920
  464SOL     MW 1856   0.792  -0.004   2.272  0.1052  0.5517  0.1493
  465SOL     OW 1857   0.796   0.317   0.410 -0.6685 -0.0917 -0.1494
  465SOL    HW1 1858   0.751   0.252   0.472 -2.0602 -0.6797  0.1587
  465SOL    HW2 1859   0.773   0.290   0.314  0.5512 -5.0565  3.0977
  465SOL     MW 1860   0.787   0.305   0.405 -0.6912 -0.8243  0.3197
  466SOL     OW 1861   1.085   2.021   0.751  0.2125 -0.1740  0.7064
  466SOL    HW1 1862   1.055   1.946   0.701  0.2440 -1.0960 -0.3862
  466SOL    HW2 1863   1.066   2.105   0.695  0.0708  1.0443  0.2551
  466SOL     MW 1864   1.079   2.022   0.737  0.1980 -0.1349  0.5027
  467SOL     OW 1865   1.268   2.324   1.003 -0.0533 -0.2583 -0.1313
  467SOL    HW1 1866   1.363   2.338   1.013  0.5368  1.8427  0.7723
  467SOL    HW2 1867   1.267   2.239   0.956 -0.7836 -1.3267 -1.2060
  467SOL     MW 1868   1.280   2.315   0.998 -0.0718 -0.1221 -0.1539
  468SOL     OW 1869   0.468   2.656   1.884  0.5788  0.1228  0.5032
  468SOL    HW1 1870   0.434   2.582   1.834  0.9347  0.2036 -0.2126
  468SOL    HW2 1871   0.408   2.733   1.869  1.7300 -1.1946  3.0415
  468SOL     MW 1872   0.456   2.656   1.875  0.7776 -0.0403  0.7437
  469SOL     OW 1873   0.387   2.133   1.878  0.4386  0.3307 -0.1403
  469SOL    HW1 1874   0.294   2.093   1.868 -1.0523 -0.4073  1.3150
  469SOL    HW2 1875   0.442   2.070   1.828 -3.2958 -2.3539  0.7949
  469SOL     MW 1876   0.382   2.119   1.870 -0.2508 -0.1208  0.1751
  470SOL     OW 1877   3.063   2.592   0.141 -0.1393  0.0866 -0.2638
  470SOL    HW1 1878   2.971   2.591   0.186 -0.3621  0.6812 -0.3584
  470SOL    HW2 1879   3.045   2.617   0.049 -0.8895  1.4285 -2.8142
  470SOL     MW 1880   3.049   2.595   0.135 -0.2677  0.3421 -0.6128
  471SOL     OW 1881   1.175   2.546   1.426 -0.0520  0.3453 -0.2599
  471SOL    HW1 1882   1.114   2.561   1.496  2.0431  0.7492  1.4784
  471SOL    HW2 1883   1.118   2.490   1.371 -1.7245  2.9309 -0.4709
  471SOL     MW 1884   1.159   2.541   1.428  0.0038  0.7398 -0.0584
  472SOL     OW 1885   2.822   2.101   0.357  0.4016 -0.0434 -0.1450
  472SOL    HW1 1886   2.837   2.069   0.267 -2.0905  0.0944 -0.0852
  472SOL    HW2 1887   2.826   2.024   0.409  2.1269 -0.0944 -0.9318
  472SOL     MW 1888   2.824   2.087   0.352  0.3004 -0.0320 -0.2409
  473SOL     OW 1889   0.809   2.550   1.386  0.1678  0.0206  0.3634
  473SOL    HW1 1890   0.813   2.454   1.371  1.9414 -1.7162  0.5029
  473SOL    HW2 1891   0.833   2.555   1.477 -0.9652 -0.1568 -1.1636
  473SOL     MW 1892   0.813   2.538   1.396  0.2523 -0.2320  0.1803
  474SOL     OW 1893   0.712   2.284   1.732 -0.3317  0.1385  0.5107
  474SOL    HW1 1894   0.799   2.310   1.776  0.7753 -1.2849  1.1963
  474SOL    HW2 1895   0.743   2.220   1.663 -3.0354  3.4550 -0.9352
  474SOL     MW 1896   0.728   2.279   1.729 -0.5424  0.3883  0.4104
  475SOL     OW 1897   1.598   3.089   1.493  0.3856  0.0627  0.3059
  475SOL    HW1 1898   1.539   3.084   1.416 -1.1428  1.0989  1.0997
  475SOL    HW2 1899   1.582   3.008   1.542  2.8165  0.5473  2.2464
  475SOL     MW 1900   1.588   3.078   1.489  0.5047  0.2633  0.6667
  476SOL     OW 1901   1.424   2.586   1.088  0.0386 -0.2381  0.1133
  476SOL    HW1 1902   1.343   2.630   1.054  0.8341  0.1715 -0.6830
  476SOL    HW2 1903   1.476   2.666   1.107 -2.6061 -1.9228  0.4123
  476SOL     MW 1904   1.420   2.603   1.086 -0.2054 -0.4064  0.0477
  477SOL     OW 1905   0.830   2.572   0.658  0.3819 -0.2956 -0.0892
  477SOL    HW1 1906   0.905   2.615   0.617  0.5544 -0.4031 -0.7101
  477SOL    HW2 1907   0.807   2.498   0.611  0.5602  2.5569  1.7117
  477SOL     MW 1908   0.837   2.568   0.647  0.4282  0.0666  0.0665
  478SOL     OW 1909   0.168   2.659   0.910  0.6035 -0.7147  0.5035
  478SOL    HW1 1910   0.216   2.736   0.884  1.8222 -1.6649 -0.2096
  478SOL    HW2 1911   0.233   2.588   0.886  2.4962  0.1945 -0.0220
  478SOL     MW 1912   0.183   2.660   0.903  1.0140 -0.7201  0.3400
  479SOL     OW 1913   1.433   1.984   1.288 -0.2167 -0.2468  0.0112
  479SOL    HW1 1914   1.440   2.025   1.370  0.1334 -0.3569 -1.8360
  479SOL    HW2 1915   1.466   1.891   1.293  1.6288  0.6196 -0.4751
  479SOL     MW 1916   1.438   1.977   1.300  0.0730 -0.1470 -0.2967
  480SOL     OW 1917   2.017   2.441   1.312 -0.1735 -0.1518 -0.1080
  480SOL    HW1 1918   2.026   2.345   1.317  0.8190 -1.9553 -2.4154
  480SOL    HW2 1919   2.035   2.464   1.220  2.3413  0.2410 -0.7966
  480SOL     MW 1920   2.021   2.432   1.301  0.2893 -0.3379 -0.5033
  481SOL     OW 1921   1.033   0.042   1.075 -0.3746  0.2807 -0.4258
  481SOL    HW1 1922   1.078  -0.026   1.021  0.9781 -1.2147  0.2692
  481SOL    HW2 1923   1.091   0.122   1.082  2.0190 -0.3282 -3.0440
  481SOL     MW 1924   1.046   0.043   1.068  0.1197  0.0031 -0.6796
  482SOL     OW 1925   1.094   3.073   0.279  0.0125 -0.0428  0.2453
  482SOL    HW1 1926   1.013   3.043   0.322 -2.5840  0.1178 -1.7327
  482SOL    HW2 1927   1.102   3.169   0.303 -1.5214 -1.1632 -0.8141
  482SOL     MW 1928   1.085   3.082   0.288 -0.5325 -0.1694 -0.1555
  483SOL     OW 1929   0.436   2.950   0.401 -0.0808  0.5405  0.2742
  483SOL    HW1 1930   0.343   2.967   0.369 -3.4847 -0.1919 -0.2643
  483SOL    HW2 1931   0.427   2.977   0.492  0.7958 -0.0503  1.0959
  483SOL     MW 1932   0.423   2.956   0.409 -0.4143  0.3659  0.3115
  484SOL     OW 1933   1.878   1.926   1.495 -0.0143  0.0792  0.4279
  484SOL    HW1 1934   1.888   2.003   1.441 -1.9567  1.7906  0.9697
  484SOL    HW2 1935   1.816   1.958   1.561 -1.5649 -1.8555 -0.6734
  484SOL     MW 1936   1.871   1.940   1.496 -0.4752  0.0497  0.3540
  485SOL     OW 1937   0.568   2.306   0.262  0.4267  0.3480 -0.1603
  485SOL    HW1 1938   0.614   2.286   0.341 -2.1840  2.4940 -1.2399
  485SOL    HW2 1939   0.482   2.348   0.288  0.3655 -1.1865 -1.6133
  485SOL     MW 1940   0.562   2.309   0.276  0.0741  0.4287 -0.4944
  486SOL     OW 1941   0.168   2.391   1.500  0.3919  0.6330 -0.5893
  486SOL    HW1 1942   0.213   2.474   1.472  1.1867  0.1249  0.0174
  486SOL    HW2 1943   0.154   2.397   1.598 -0.4356 -1.2381  1.4354
  486SOL     MW 1944   0.172   2.402   1.510  0.3876  0.3191 -0.2421
  487SOL     OW 1945   1.225   1.683   1.050 -0.4748  0.1157  0.1061
  487SOL    HW1 1946   1.213   1.775   1.083  1.9902  1.7672 -2.4694
  487SOL    HW2 1947   1.303   1.684   0.996  0.0130  2.7020  0.9938
  487SOL     MW 1948   1.234   1.695   1.047 -0.0852  0.6748 -0.1166
  488SOL     OW 1949   1.605   1.825   0.561  0.1363 -0.0555  0.4299
  488SOL    HW1 1950   1.665   1.795   0.496 -1.3288  1.7485  1.9573
  488SOL    HW2 1951   1.558   1.892   0.509  0.7321 -0.7864  1.4445
  488SOL     MW 1952   1.607   1.830   0.545  0.0216  0.0861  0.7653
  489SOL     OW 1953   0.763   0.824   0.618 -0.1800  0.6184  0.5117
  489SOL    HW1 1954   0.798   0.744   0.576 -2.5897 -0.7477 -0.1293
  489SOL    HW2 1955   0.727   0.790   0.701 -0.0010  1.4452 -1.8690
  489SOL     MW 1956   0.763   0.809   0.623 -0.4743  0.5472  0.1131
  490SOL     OW 1957   1.469   2.060   0.466  0.4786 -0.2438  0.2618
  490SOL    HW1 1958   1.481   2.136   0.414  2.3294 -2.6438  0.8453
  490SOL    HW2 1959   1.369   2.061   0.486  0.6196  1.2281  0.6785
  490SOL     MW 1960   1.457   2.070   0.462  0.7414 -0.3663  0.3937
  491SOL     OW 1961   1.296   2.924   0.430  0.6083  0.3506  0.4561
  491SOL    HW1 1962   1.347   2.986   0.475  1.1250 -3.3931 -0.5523
  491SOL    HW2 1963   1.218   2.972   0.392 -1.4800 -0.0501 -0.0802
  491SOL     MW 1964   1.292   2.939   0.431  0.4009 -0.1962  0.2523
  492SOL     OW 1965   1.482   2.194   0.740 -0.3541  0.0164  0.0108
  492SOL    HW1 1966   1.465   2.149   0.660  0.6584 -0.2966  1.6784
  492SOL    HW2 1967   1.456   2.140   0.816  0.4573  0.1840  2.8609
  492SOL     MW 1968   1.476   2.181   0.739 -0.1135 -0.0028  0.6069
  493SOL     OW 1969   0.174   3.049   0.354 -0.2638 -0.0693 -0.4847
  493SOL    HW1 1970   0.114   3.077   0.427 -0.1403  1.3666  0.9543
  493SOL    HW2 1971   0.182   3.120   0.292 -0.7979 -0.2641  2.0733
  493SOL     MW 1972   0.167   3.062   0.355 -0.3180  0.0945  0.0427
  494SOL     OW 1973   0.411   2.411   1.779  0.1852 -0.4873  0.0075
  494SOL    HW1 1974   0.441   2.321   1.796  3.8608  0.0741  0.8938
  494SOL    HW2 1975   0.426   2.424   1.680 -0.0722 -0.0082 -1.0150
  494SOL     MW 1976   0.417   2.401   1.768  0.6362 -0.3500 -0.0105
  495SOL     OW 1977   2.878   1.664   2.592  0.1670  0.6724 -0.1083
  495SOL    HW1 1978   2.869   1.755   2.571 -1.2196  1.5387 -1.4992
  495SOL    HW2 1979   2.829   1.643   2.673  1.1692 -1.2891  0.0527
  495SOL     MW 1980   2.870   1.674   2.600  0.1163  0.5279 -0.2705
  496SOL     OW 1981   2.914   2.393   2.710  0.0118  0.2294  0.1632
  496SOL    HW1 1982   2.963   2.317   2.755 -1.2713 -0.9299 -2.2165
  496SOL    HW2 1983   2.986   2.452   2.690  0.6574 -0.0307 -0.1353
  496SOL     MW 1984   2.930   2.391   2.714 -0.0723  0.0421 -0.1902
  497SOL     OW 1985   1.639   2.191   2.623 -0.3072 -0.1869  0.6025
  497SOL    HW1 1986   1.576   2.134   2.575  0.4423 -2.5325 -0.6254
  497SOL    HW2 1987   1.637   2.155   2.713 -1.0764 -2.0071  1.1005
  497SOL     MW 1988   1.630   2.179   2.628 -0.3098 -0.7365  0.5062
  498SOL     OW 1989   1.442   2.720   2.346 -0.2121 -0.2141 -0.0999
  498SOL    HW1 1990   1.445   2.624   2.346  1.0493  2.5326  0.4689
  498SOL    HW2 1991   1.539   2.745   2.358  1.4120  0.8006 -2.4142
  498SOL     MW 1992   1.455   2.710   2.348  0.1686  0.2822 -0.3302
  499SOL     OW 1993   1.000   0.143   3.086  0.5962 -0.3932 -0.3841
  499SOL    HW1 1994   0.944   0.174   3.163 -3.5425 -1.2183  2.7161
  499SOL    HW2 1995   1.039   0.062   3.104 -1.7071  0.2420  1.2430
  499SOL     MW 1996   0.998   0.136   3.099 -0.2537 -0.4182  0.2396
  500SOL     OW 1997   1.099   2.520   2.766  0.3935  0.1871 -0.5063
  500SOL    HW1 1998   1.168   2.461   2.802  0.6783 -0.7547 -1.5643
  500SOL    HW2 1999   1.026   2.516   2.831  1.2755 -0.3911  0.1452
  500SOL     MW 2000   1.099   2.512   2.779  0.5475 -0.0134 -0.5599
  501SOL     OW 2001   1.792   2.204   3.070 -0.0545  0.3842  0.3355
  501SOL    HW1 2002   1.752   2.282   3.113  0.1919 -3.4985  0.4452
  501SOL    HW2 2003   1.890   2.206   3.086 -0.2325 -0.4903 -0.5193
  501SOL     MW 2004   1.800   2.215   3.077 -0.0455 -0.2434  0.2372
  502SOL     OW 2005   0.145   2.800   3.083 -0.0004  0.6870  0.0516
  502SOL    HW1 2006   0.087   2.748   3.023  0.0541  0.7271  1.1190
  502SOL    HW2 2007   0.188   2.857   3.018 -2.8576 -3.2448  0.1280
  502SOL     MW 2008   0.143   2.801   3.066 -0.3702  0.1735  0.2025
  503SOL     OW 2009   1.035   2.799   2.183 -0.1937  0.3011  0.1730
  503SOL    HW1 2010   1.040   2.783   2.092 -3.0157  0.6209  2.0182
  503SOL    HW2 2011   1.034   2.895   2.168 -0.7569  2.7744  0.4807
  503SOL     MW 2012   1.035   2.810   2.169 -0.6404  0.6696  0.4570
  504SOL     OW 2013   0.068   2.684   2.106 -0.2661  0.6939 -0.0664
  504SOL    HW1 2014   0.131   2.620   2.064 -0.1462  1.4386  1.5715
  504SOL    HW2 2015   0.041   2.627   2.174  0.6050 -2.7502 -0.3626
  504SOL     MW 2016   0.073   2.668   2.109 -0.1353  0.3378  0.1106
  505SOL     OW 2017   1.695   2.689   2.681  0.1051  0.0563 -0.1895
  505SOL    HW1 2018   1.685   2.684   2.587 -2.4433 -1.3259  2.3253
  505SOL    HW2 2019   1.615   2.728   2.720 -0.8509  1.6500 -1.5255
  505SOL     MW 2020   1.683   2.694   2.674 -0.3572  0.0842 -0.0340
  506SOL     OW 2021   1.620   3.044   2.833  0.2354 -0.1751  0.0856
  506SOL    HW1 2022   1.663   3.034   2.919  1.9832 -0.2482  0.0042
  506SOL    HW2 2023   1.687   3.051   2.761 -0.1474  0.8079  0.6027
  506SOL     MW 2024   1.634   3.043   2.835  0.4155 -0.0550  0.1431
  507SOL     OW 2025   0.878   2.733   2.864  0.0336  0.0003  0.1321
  507SOL    HW1 2026   0.919   2.755   2.783  2.5683 -2.0231 -3.8063
  507SOL    HW2 2027   0.789   2.762   2.853  2.4317  2.6739  1.6144
  507SOL     MW 2028   0.872   2.740   2.852  0.6844  0.0861 -0.1919
  508SOL     OW 2029   1.130   2.086   2.522  0.0531  0.1322  0.2908
  508SOL    HW1 2030   1.218   2.066   2.551  1.5912  0.3235 -2.1339
  508SOL    HW2 2031   1.100   2.146   2.596 -1.2385 -1.1880  0.2368
  508SOL     MW 2032   1.138   2.091   2.535  0.0857 -0.0167 -0.0362
  509SOL     OW 2033   0.589   2.530   2.848 -0.1402  0.5634  1.0295
  509SOL    HW1 2034   0.588   2.513   2.755  2.4169  2.8761  2.6660
  509SOL    HW2 2035   0.508   2.511   2.885  1.0717 -2.3718  1.4336
  509SOL     MW 2036   0.578   2.525   2.841  0.3571  0.4813  1.2987
  510SOL     OW 2037   1.522   2.552   1.708 -0.7042  0.3126 -0.0137
  510SOL    HW1 2038   1.507   2.637   1.672  0.3981 -2.6100  1.5203
  510SOL    HW2 2039   1.467   2.560   1.784  2.0085 -0.2315 -0.7925
  510SOL     MW 2040   1.513   2.564   1.713 -0.2009 -0.1448  0.0859
  511SOL     OW 2041   0.444   2.644   2.447 -0.4886 -0.2408 -0.4275
  511SOL    HW1 2042   0.517   2.593   2.483 -3.9333 -2.0648  0.8162
  511SOL    HW2 2043   0.462   2.657   2.358 -2.8352  0.4540  2.8286
  511SOL     MW 2044   0.456   2.639   2.440 -1.2527 -0.3898  0.1662
  512SOL     OW 2045   1.048   2.013   2.866  0.2304 -0.0828  0.1559
  512SOL    HW1 2046   0.958   2.049   2.872 -0.6778 -0.9416  0.9184
  512SOL    HW2 2047   1.046   1.918   2.887 -0.7227 -0.5625 -2.6257
  512SOL     MW 2048   1.036   2.005   2.869 -0.0152 -0.2594 -0.1105
  513SOL     OW 2049   1.505   2.433   2.358 -0.2812 -0.3173  0.6195
  513SOL    HW1 2050   1.593   2.416   2.398 -1.5525 -2.1012  2.2037
  513SOL    HW2 2051   1.470   2.348   2.380 -0.7377  0.7413  1.0206
  513SOL     MW 2052   1.512   2.419   2.367 -0.5092 -0.4130  0.8814
  514SOL     OW 2053   0.259   2.481   2.587  0.3981 -0.5230  0.1537
  514SOL    HW1 2054   0.295   2.541   2.523  1.5846 -0.9458  3.5317
  514SOL    HW2 2055   0.288   2.502   2.674  0.2605 -0.1661 -0.5841
  514SOL     MW 2056   0.267   2.491   2.590  0.5365 -0.5317  0.5021
  515SOL     OW 2057   1.050   2.076   1.825 -0.1614 -0.1616  0.9917
  515SOL    HW1 2058   0.993   2.154   1.839 -1.6983 -0.3476  1.5384
  515SOL    HW2 2059   1.093   2.062   1.904 -0.9641 -0.7375  0.3978
  515SOL     MW 2060   1.048   2.084   1.838 -0.4701 -0.2621  0.9855
  516SOL     OW 2061   1.470   2.496   3.031  0.6917  0.4023 -0.1877
  516SOL    HW1 2062   1.522   2.454   2.956 -1.1896 -1.1532  1.0096
  516SOL    HW2 2063   1.378   2.470   3.017  2.1142 -1.1692 -1.0977
  516SOL     MW 2064   1.464   2.487   3.019  0.6312 -0.0103 -0.1498
  517SOL     OW 2065   0.608   2.417   2.137 -0.1687 -0.0812 -0.2911
  517SOL    HW1 2066   0.565   2.499   2.154 -0.2848  2.2897  0.1996
  517SOL    HW2 2067   0.540   2.366   2.099  1.0617 -1.3640 -0.4071
  517SOL     MW 2068   0.594   2.421   2.135 -0.0217  0.0624 -0.2417
  518SOL     OW 2069   1.923   0.145   2.956  0.0811 -0.3965 -0.3602
  518SOL    HW1 2070   1.880   0.219   2.911 -2.5562  0.3799  0.5173
  518SOL    HW2 2071   1.866   0.121   3.029 -0.6182 -0.3439 -2.9817
  518SOL     MW 2072   1.910   0.152   2.960 -0.3591 -0.2871 -0.5903
  519SOL     OW 2073   0.735   2.580   1.713  0.3860  0.2334  0.3466
  519SOL    HW1 2074   0.705   2.495   1.689  1.5712 -1.1903 -2.3867
  519SOL    HW2 2075   0.659   2.619   1.751 -0.3987  2.1098  1.8117
  519SOL     MW 2076   0.721   2.574   1.715  0.4388  0.2931  0.1792
  520SOL     OW 2077   1.266   2.148   2.939 -0.4500  0.0501  0.3230
  520SOL    HW1 2078   1.192   2.090   2.913  2.2195 -0.0924 -2.9986
  520SOL    HW2 2079   1.297   2.094   3.011 -0.0990 -3.0579  0.7550
  520SOL     MW 2080   1.260   2.133   2.945 -0.0514 -0.3788 -0.0583
  521SOL     OW 2081   1.720   2.057   2.299 -0.1673  0.4270 -0.6511
  521SOL    HW1 2082   1.767   2.095   2.225 -0.6158 -2.1368 -0.6312
  521SOL    HW2 2083   1.722   1.960   2.290  0.8683  0.4551 -0.1688
  521SOL     MW 2084   1.727   2.049   2.288 -0.0899  0.0924 -0.5848
  522SOL     OW 2085   2.839   2.561   2.166 -0.3160  0.4394  0.2988
  522SOL    HW1 2086   2.925   2.515   2.183  2.7133  1.0476  0.4269
  522SOL    HW2 2087   2.802   2.584   2.253 -0.5594 -0.4753 -0.1147
  522SOL     MW 2088   2.846   2.558   2.180  0.0516  0.3990  0.2611
  523SOL     OW 2089   0.847   1.509   2.132 -0.2326 -0.0767 -0.0457
  523SOL    HW1 2090   0.857   1.600   2.104 -1.4090 -0.9498  1.8956
  523SOL    HW2 2091   0.898   1.459   2.073 -0.8937  2.4561  0.8343
  523SOL     MW 2092   0.855   1.515   2.121 -0.4751  0.1423  0.3266
  524SOL     OW 2093   0.888   2.440   2.905  0.3178  0.0022  0.4718
  524SOL    HW1 2094   0.825   2.497   2.862  2.9312  0.9551  1.5324
  524SOL    HW2 2095   0.861   2.350   2.890 -1.8477  1.4137  0.6990
  524SOL     MW 2096   0.876   2.436   2.898  0.3769  0.3142  0.6417
  525SOL     OW 2097   0.388   2.258   2.106 -1.3115 -0.0613 -0.6350
  525SOL    HW1 2098   0.384   2.193   2.179 -1.1284 -0.4673  1.8205
  525SOL    HW2 2099   0.379   2.206   2.022  0.7276 -1.0355  0.9733
  525SOL     MW 2100   0.386   2.242   2.105 -1.0183 -0.2434 -0.0988
  526SOL     OW 2101   0.709   2.095   1.982  0.1543  0.2155  0.0957
  526SOL    HW1 2102   0.724   2.151   1.909  0.2535  0.1401  0.2341
  526SOL    HW2 2103   0.670   2.156   2.040 -0.9251 -2.3827 -1.6066
  526SOL     MW 2104   0.706   2.110   1.980  0.0250 -0.1373 -0.1106
  527SOL     OW 2105   1.323   1.968   2.021  0.3750  0.0304  0.1872
  527SOL    HW1 2106   1.287   1.933   2.104 -0.6248 -0.1688  1.3437
  527SOL    HW2 2107   1.369   1.888   1.995  1.8264 -1.1205 -2.3320
  527SOL     MW 2108   1.324   1.953   2.029  0.4346 -0.1477  0.0074
  528SOL     OW 2109   0.627   2.876   2.952  0.0158 -0.0782  0.5462
  528SOL    HW1 2110   0.687   2.948   2.957 -2.0267 -0.1668  1.2997
  528SOL    HW2 2111   0.572   2.892   2.871  0.5652  0.0909  0.3832
  528SOL     MW 2112   0.628   2.888   2.942 -0.1812 -0.0676  0.6241
  529SOL     OW 2113   0.918   2.336   1.884 -0.4495 -0.7557  0.3947
  529SOL    HW1 2114   0.923   2.367   1.974  0.4743  0.2297 -3.1084
  529SOL    HW2 2115   1.007   2.362   1.852 -1.7645 -1.6431  2.4928
  529SOL     MW 2116   0.930   2.343   1.892 -0.5011 -0.7428  0.2093
  530SOL     OW 2117   1.220   2.394   3.020  0.4165 -0.3993 -0.1951
  530SOL    HW1 2118   1.137   2.409   3.062 -2.0156  1.7829  1.1066
  530SOL    HW2 2119   1.236   2.299   2.990 -0.2486 -0.0383 -1.3397
  530SOL     MW 2120   1.211   2.383   3.022  0.0078 -0.0637 -0.1744
  531SOL     OW 2121   0.974   1.864   2.578 -0.1386  0.2815 -0.3429
  531SOL    HW1 2122   1.022   1.947   2.592  0.2845 -1.5869 -0.6297
  531SOL    HW2 2123   0.945   1.829   2.661 -3.7100 -3.9166  2.2889
  531SOL     MW 2124   0.977   1.870   2.591 -0.5540 -0.5189 -0.0335
  532SOL     OW 2125   1.746   0.331   2.815  0.6589 -0.2834 -0.3296
  532SOL    HW1 2126   1.758   0.262   2.747 -1.0119  1.1669 -2.8037
  532SOL    HW2 2127   1.829   0.384   2.821  3.8503 -0.4161  0.2602
  532SOL     MW 2128   1.759   0.329   2.807  0.8595 -0.1096 -0.5782
  533SOL     OW 2129   1.827   2.681   3.017 -0.3535  0.2700  0.5675
  533SOL    HW1 2130   1.772   2.597   3.017 -0.4282 -1.7310 -0.8392
  533SOL    HW2 2131   1.759   2.748   3.016 -2.7169  1.3343  0.1446
  533SOL     MW 2132   1.811   2.679   3.017 -0.6752  0.1464  0.3261
  534SOL     OW 2133   1.760   2.423   2.499  0.0338  0.0518 -0.6334
  534SOL    HW1 2134   1.713   2.357   2.555  0.1089 -2.7867  0.4090
  534SOL    HW2 2135   1.831   2.449   2.553 -0.9100  0.5673  0.2338
  534SOL     MW 2136   1.763   2.418   2.514 -0.0808 -0.2547 -0.3814
  535SOL     OW 2137   1.908   2.395   1.916 -0.0739 -0.2035 -0.1577
  535SOL    HW1 2138   1.855   2.402   1.831 -1.6177  0.8716  0.4757
  535SOL    HW2 2139   1.997   2.405   1.880 -1.6298  0.3927 -1.3292
  535SOL     MW 2140   1.913   2.397   1.900 -0.4829  0.0170 -0.2287
  536SOL     OW 2141   0.574   1.805   2.060  0.4639  0.2691 -0.2447
  536SOL    HW1 2142   0.563   1.754   1.979  0.2478 -0.5996 -1.6735
  536SOL    HW2 2143   0.601   1.888   2.034 -1.1109 -0.9669  1.3368
  536SOL     MW 2144   0.576   1.809   2.046  0.2276 -0.0086 -0.2246
  537SOL     OW 2145   1.088   0.171   2.785 -0.1611 -0.3940 -0.4087
  537SOL    HW1 2146   1.053   0.204   2.868  1.6393 -0.1645 -0.8661
  537SOL    HW2 2147   1.088   0.249   2.734  0.9249 -1.5010 -0.2586
  537SOL     MW 2148   1.083   0.185   2.789  0.2198 -0.5097 -0.4492
  538SOL     OW 2149   1.458   0.047   3.074  0.4128  0.2165  0.4344
  538SOL    HW1 2150   1.437   0.130   3.114 -0.3283 -0.5071  0.0262
  538SOL    HW2 2151   1.374  -0.010   3.075 -0.0462 -0.3311  1.2323
  538SOL     MW 2152   1.444   0.051   3.079  0.2544  0.0488  0.4858
  539SOL     OW 2153   0.707   2.807   2.584 -0.6208 -0.0585  0.4404
  539SOL    HW1 2154   0.756   2.891   2.595  2.3527  0.8804 -1.4142
  539SOL    HW2 2155   0.770   2.735   2.583  2.7220 -0.8152 -3.0643
  539SOL     MW 2156   0.722   2.808   2.585  0.2126 -0.0345 -0.2667
  540SOL     OW 2157   0.325   2.495   2.892 -1.0060 -0.2258  0.1020
  540SOL    HW1 2158   0.345   2.543   2.973 -2.9260  0.2880  0.5103
  540SOL    HW2 2159   0.291   2.412   2.937  0.2059 -0.8034 -0.4233
  540SOL     MW 2160   0.323   2.490   2.908 -1.0994 -0.2342  0.0866
  541SOL     OW 2161   0.193   2.921   2.159 -0.3656 -0.3282 -0.3872
  541SOL    HW1 2162   0.156   2.832   2.134  0.8775 -1.4473 -3.1240
  541SOL    HW2 2163   0.246   2.911   2.240  0.2160 -0.0945  2.2062
  541SOL     MW 2164   0.195   2.908   2.166 -0.1248 -0.4450 -0.4061
  542SOL     OW 2165   1.013   2.272   2.685 -0.6001 -0.2870 -0.4082
  542SOL    HW1 2166   0.963   2.232   2.757  1.8287 -1.2697  0.5078
  542SOL    HW2 2167   1.023   2.368   2.705 -1.3483  1.1405 -1.2528
  542SOL     MW 2168   1.008   2.279   2.697 -0.3784 -0.2283 -0.3988
  543SOL     OW 2169   1.679   2.423   2.841 -0.8368  0.3433  0.5826
  543SOL    HW1 2170   1.647   2.362   2.773 -2.6899 -1.5925 -1.2185
  543SOL    HW2 2171   1.725   2.494   2.791 -0.6051  2.4712 -0.2096
  543SOL     MW 2172   1.681   2.424   2.825 -1.0507  0.3687  0.2404
  544SOL     OW 2173   0.776   0.155   2.740  0.1842 -0.0136 -0.5048
  544SOL    HW1 2174   0.683   0.188   2.725 -0.5931  1.4912 -1.2132
  544SOL    HW2 2175   0.826   0.144   2.657  2.5626 -0.2985 -0.0007
  544SOL     MW 2176   0.770   0.158   2.727  0.3955  0.1474 -0.5317
  545SOL     OW 2177   1.444   2.146   2.326  0.2804 -0.4893 -0.3940
  545SOL    HW1 2178   1.416   2.169   2.240 -0.3876 -1.7384 -0.6491
  545SOL    HW2 2179   1.543   2.116   2.312  1.3150 -2.0007 -1.7114
  545SOL     MW 2180   1.453   2.145   2.313  0.3287 -0.8535 -0.6015
  546SOL     OW 2181   2.889   2.009   0.120  0.2343 -0.3792 -0.1466
  546SOL    HW1 2182   2.916   2.080   0.064 -1.5921 -0.8552  0.7037
  546SOL    HW2 2183   2.972   1.965   0.140 -1.1979  1.6436 -1.9710
  546SOL     MW 2184   2.904   2.012   0.116 -0.1956 -0.1751 -0.2751
  547SOL     OW 2185   0.212   0.061   0.102  0.2946 -0.3362  0.0437
  547SOL    HW1 2186   0.278   0.048   0.040 -0.6007 -1.0951  3.9793
  547SOL    HW2 2187   0.130   0.033   0.059  1.7111 -1.1400 -1.2320
  547SOL     MW 2188   0.210   0.056   0.088  0.3634 -0.5424  0.3947
  548SOL     OW 2189   0.311   2.443   0.241  0.1134 -0.3252 -0.4204
  548SOL    HW1 2190   0.332   2.499   0.165 -1.7212 -0.5083  1.9245
  548SOL    HW2 2191   0.226   2.401   0.213 -3.7951 -3.0004 -0.5287
  548SOL     MW 2192   0.302   2.445   0.227 -0.6444 -0.7023 -0.1253
  549SOL     OW 2193   0.851   1.952   2.168  0.1432 -0.0832 -0.7627
  549SOL    HW1 2194   0.797   2.011   2.108  2.2220  3.1384 -1.4214
  549SOL    HW2 2195   0.790   1.901   2.221 -2.7231 -1.2036  1.1956
  549SOL     MW 2196   0.836   1.953   2.167  0.0393  0.1940 -0.5912
  550SOL     OW 2197   1.856   1.744   2.542  0.7164  0.4746  0.0115
  550SOL    HW1 2198   1.848   1.781   2.451  1.2007  2.1926 -2.4780
  550SOL    HW2 2199   1.837   1.814   2.608 -0.1720  1.0830  0.9776
  550SOL     MW 2200   1.852   1.758   2.538  0.6631  0.7815 -0.1895
  551SOL     OW 2201   0.877   2.227   0.259 -0.4595 -0.4533 -0.2887
  551SOL    HW1 2202   0.950   2.261   0.217 -1.8855 -3.1778 -1.2790
  551SOL    HW2 2203   0.816   2.212   0.183 -0.6960  1.5523  2.8417
  551SOL     MW 2204   0.879   2.230   0.243 -0.6788 -0.5482 -0.0064
  552SOL     OW 2205   1.759   1.792   2.259  0.1548 -0.2259  0.0842
  552SOL    HW1 2206   1.668   1.768   2.247  0.6550 -0.0134 -0.7088
  552SOL    HW2 2207   1.805   1.709   2.216 -3.4903 -3.0599 -2.4275
  552SOL     MW 2208   1.753   1.778   2.252 -0.2602 -0.5718 -0.3518
  553SOL     OW 2209   1.187   2.255   1.541 -0.3592  0.8245 -0.3349
  553SOL    HW1 2210   1.243   2.183   1.577  0.7171 -2.3212  0.7423
  553SOL    HW2 2211   1.259   2.309   1.498  1.3310  2.8843  0.9469
  553SOL     MW 2212   1.204   2.253   1.540  0.0058  0.6812 -0.0236
  554SOL     OW 2213   0.474   2.911   2.698 -0.1795 -0.0517 -0.2575
  554SOL    HW1 2214   0.438   2.976   2.639  0.3067 -1.0886 -2.4057
  554SOL    HW2 2215   0.544   2.870   2.647 -1.4740  1.2704 -0.1284
  554SOL     MW 2216   0.478   2.914   2.684 -0.2861 -0.0141 -0.5239
  555SOL     OW 2217   0.603   2.455   2.583  0.1864 -0.3691 -0.4707
  555SOL    HW1 2218   0.550   2.376   2.599 -2.1383  1.8371  1.5673
  555SOL    HW2 2219   0.695   2.440   2.557 -0.9651 -0.1388  2.5269
  555SOL     MW 2220   0.608   2.442   2.582 -0.2722 -0.0476  0.1937
  556SOL     OW 2221   1.065   1.921   0.074 -0.4375  0.1365 -0.1436
  556SOL    HW1 2222   1.074   1.878  -0.009 -1.2930 -0.1180  2.9500
  556SOL    HW2 2223   1.142   1.887   0.125  1.2421  1.2429 -1.5284
  556SOL     MW 2224   1.076   1.911   0.069 -0.3288  0.2489  0.0819
  557SOL     OW 2225   1.030   2.715   0.468  0.0913  0.4289 -0.0821
  557SOL    HW1 2226   1.088   2.663   0.405  1.2651  2.5032  0.2498
  557SOL    HW2 2227   0.993   2.790   0.416  4.1465 -1.1197 -0.7290
  557SOL     MW 2228   1.033   2.718   0.453  0.7812  0.4983 -0.1236
  558SOL     OW 2229   0.186   2.248   3.017 -0.4882 -0.1810  0.0964
  558SOL    HW1 2230   0.137   2.189   2.962  0.3884  1.5934  0.2607
  558SOL    HW2 2231   0.159   2.216   3.101  0.0330 -0.1280  2.4804
  558SOL     MW 2232   0.176   2.236   3.021 -0.3038  0.0601  0.4326
  559SOL     OW 2233   1.047   2.389   2.168 -0.6903 -0.1567 -0.8910
  559SOL    HW1 2234   1.140   2.377   2.169  1.5239  0.6942 -0.8381
  559SOL    HW2 2235   1.012   2.320   2.225  1.6344 -1.4597  0.4839
  559SOL     MW 2236   1.054   2.378   2.175 -0.0914 -0.2163 -0.7027
  560SOL     OW 2237   1.989   2.757   0.147  0.6895 -0.8685 -0.2778
  560SOL    HW1 2238   2.065   2.801   0.108  1.0148  0.4594  0.7880
  560SOL    HW2 2239   1.937   2.719   0.078  3.3220 -1.4487  0.2888
  560SOL     MW 2240   1.992   2.758   0.133  1.0797 -0.7698 -0.0624
  561SOL     OW 2241   0.431   2.131   0.099  1.0122 -0.2549  0.1714
  561SOL    HW1 2242   0.432   2.166   0.007  0.0319  0.4161  0.4885
  561SOL    HW2 2243   0.501   2.178   0.153  0.2722  2.3121  1.4689
  561SOL     MW 2244   0.441   2.142   0.094  0.7852  0.1723  0.3845
  562SOL     OW 2245   0.676   2.182   2.283  0.0610  0.2212  0.6358
  562SOL    HW1 2246   0.659   2.265   2.247 -0.8702 -3.5306  0.2184
  562SOL    HW2 2247   0.768   2.179   2.319  4.1691 -2.7861  0.1941
  562SOL     MW 2248   0.686   2.192   2.283  0.4801 -0.6706  0.5224
  563SOL     OW 2249   1.224   0.410   0.534  0.0047 -0.3977  0.8499
  563SOL    HW1 2250   1.178   0.353   0.468  1.1040  2.6734 -2.0707
  563SOL    HW2 2251   1.213   0.375   0.627  0.0257  1.5510 -2.2243
  563SOL     MW 2252   1.217   0.398   0.538  0.1525  0.2646  0.0590
  564SOL     OW 2253   1.045   2.599   2.365 -0.2692  0.4716 -0.2032
  564SOL    HW1 2254   1.063   2.661   2.287  1.1609 -2.3879 -0.4953
  564SOL    HW2 2255   1.087   2.637   2.443  0.8687 -0.0894  1.3782
  564SOL     MW 2256   1.053   2.612   2.365  0.0696  0.0203 -0.0331
  565SOL     OW 2257   2.765   2.831   2.553  0.1857  0.1104  0.1895
  565SOL    HW1 2258   2.744   2.919   2.528  0.0618 -0.6151 -0.7589
  565SOL    HW2 2259   2.729   2.768   2.496 -0.6771  0.6767  4.2320
  565SOL     MW 2260   2.758   2.835   2.542  0.0555  0.0894  0.5978
  566SOL     OW 2261   2.182   1.934   2.303  0.0664  0.2135  0.0970
  566SOL    HW1 2262   2.199   1.924   2.210  0.8431  0.5720 -0.4940
  566SOL    HW2 2263   2.260   1.981   2.339  1.8576  1.1449  1.7619
  566SOL     MW 2264   2.194   1.939   2.296  0.4052  0.3837  0.2387
  567SOL     OW 2265   1.211   3.022   0.004  0.0160  0.2303 -0.6635
  567SOL    HW1 2266   1.197   3.015   0.098  1.9434 -1.6641  1.2119
  567SOL    HW2 2267   1.217   2.932  -0.027 -0.9792 -0.2345  3.1811
  567SOL     MW 2268   1.210   3.009   0.012  0.1390 -0.0810  0.0912
  568SOL     OW 2269   1.651   2.108   2.871  0.4517 -0.0224 -0.1660
  568SOL    HW1 2270   1.695   2.157   2.940  3.3487 -0.2034 -1.2251
  568SOL    HW2 2271   1.718   2.044   2.851 -0.6084  1.5194  3.1884
  568SOL     MW 2272   1.665   2.106   2.877  0.6940  0.1571  0.1369
  569SOL     OW 2273   0.115   2.293   2.463 -0.3166 -0.0428  0.1610
  569SOL    HW1 2274   0.057   2.328   2.392 -4.8932 -0.7593  2.0649
  569SOL    HW2 2275   0.160   2.368   2.508 -0.1745  0.0591  0.2419
  569SOL     MW 2276   0.113   2.308   2.459 -0.9017 -0.1239  0.4229
  570SOL     OW 2277   1.492   0.346   0.536  0.1855 -0.5973  0.0080
  570SOL    HW1 2278   1.408   0.386   0.542  0.6718 -0.6826  0.1831
  570SOL    HW2 2279   1.552   0.369   0.606  1.6894 -0.4074 -1.1765
  570SOL     MW 2280   1.489   0.354   0.546  0.4481 -0.5835 -0.1252
  571SOL     OW 2281   1.336   2.366   2.127  0.2794 -0.1226  0.2298
  571SOL    HW1 2282   1.397   2.417   2.176 -0.5599  0.7836 -2.7133
  571SOL    HW2 2283   1.389   2.308   2.072  2.0092 -1.4996 -0.4360
  571SOL     MW 2284   1.351   2.365   2.126  0.3969 -0.1847 -0.2464
  572SOL     OW 2285   1.016   2.562   0.067  0.3347  0.0434  0.3926
  572SOL    HW1 2286   0.998   2.651   0.067  0.9025  1.0157 -0.1528
  572SOL    HW2 2287   0.924   2.521   0.063  0.4741 -3.1130  0.6941
  572SOL     MW 2288   1.001   2.568   0.066  0.4280 -0.2447  0.3604
  573SOL     OW 2289   1.171   2.283   0.232 -0.3764  0.3782  0.3186
  573SOL    HW1 2290   1.247   2.249   0.181  2.0558  0.3393 -0.0105
  573SOL    HW2 2291   1.204   2.362   0.272  0.4817  0.2509 -0.0088
  573SOL     MW 2292   1.185   2.289   0.231  0.0577  0.3563  0.2320
  574SOL     OW 2293   1.160   2.535   0.308 -0.3174 -0.5304 -0.3874
  574SOL    HW1 2294   1.236   2.586   0.284  0.3078  2.6864 -1.4112
  574SOL    HW2 2295   1.123   2.526   0.220  0.0774 -3.6859  1.4910
  574SOL     MW 2296   1.165   2.540   0.293 -0.1829 -0.5223 -0.2746
  575SOL     OW 2297   3.057   2.202   1.667  0.3299  0.1329 -0.1914
  575SOL    HW1 2298   3.060   2.108   1.637 -0.2208  0.7816 -1.9911
  575SOL    HW2 2299   3.124   2.201   1.739  0.0135 -1.0173 -2.5159
  575SOL     MW 2300   3.067   2.190   1.673  0.2155  0.0668 -0.7355
  576SOL     OW 2301   2.827   1.840   2.015 -0.3894  0.2585 -0.1916
  576SOL    HW1 2302   2.851   1.920   1.960  2.2452  2.9399 -0.4669
  576SOL    HW2 2303   2.750   1.807   1.961 -2.0864 -0.8619 -0.6530
  576SOL     MW 2304   2.820   1.846   2.001 -0.2657  0.4645 -0.2888
  577SOL     OW 2305   2.107   0.239   0.030  0.3307 -0.5156 -0.5135
  577SOL    HW1 2306   2.053   0.208  -0.047  2.6683  2.7402  0.0414
  577SOL    HW2 2307   2.078   0.197   0.107  0.2794  2.3343 -1.4767
  577SOL     MW 2308   2.096   0.229   0.030  0.6324  0.2900 -0.5674
  578SOL     OW 2309   1.995   2.103   2.403  0.0069 -0.0163  0.1225
  578SOL    HW1 2310   1.909   2.076   2.369 -0.0878  2.8225  0.4173
  578SOL    HW2 2311   2.055   2.034   2.365  1.1980  2.8405  0.6187
  578SOL     MW 2312   1.991   2.090   2.393  0.1516  0.7352  0.2269
  579SOL     OW 2313   0.893   2.427   2.500 -0.2059  0.1214  0.0948
  579SOL    HW1 2314   0.937   2.338   2.526  1.8638 -1.5188  0.6368
  579SOL    HW2 2315   0.953   2.487   2.447  1.9925 -0.5005  0.2882
  579SOL     MW 2316   0.907   2.423   2.496  0.3572 -0.1770  0.1918
  580SOL     OW 2317   0.961   2.841   3.096 -0.0964 -0.3270 -0.2320
  580SOL    HW1 2318   1.057   2.835   3.083  0.6722 -0.3436  0.2865
  580SOL    HW2 2319   0.923   2.817   3.009 -1.0582 -0.6836  0.4206
  580SOL     MW 2320   0.969   2.837   3.083 -0.1219 -0.3762 -0.0775
  581SOL     OW 2321   1.141   2.431   1.758  0.2524  0.2044  0.5660
  581SOL    HW1 2322   1.226   2.447   1.795 -1.8968  0.0599 -1.8000
  581SOL    HW2 2323   1.153   2.349   1.704  0.1511 -3.3720  0.2222
  581SOL     MW 2324   1.154   2.422   1.756 -0.0445 -0.2865  0.2084
  582SOL     OW 2325   0.020   2.875   2.731 -0.2992 -0.2173 -0.4337
  582SOL    HW1 2326  -0.034   2.959   2.732  0.7683  1.2932  0.4276
  582SOL    HW2 2327   0.093   2.889   2.794 -1.1731 -4.0225  0.1563
  582SOL     MW 2328   0.023   2.888   2.739 -0.2737 -0.5201 -0.2422
  583SOL     OW 2329   1.994   2.424   2.685 -0.3042  0.1487  0.0930
  583SOL    HW1 2330   2.056   2.404   2.622 -1.1813 -0.5110  0.2764
  583SOL    HW2 2331   1.961   2.337   2.709  1.9176  0.0614  0.6783
  583SOL     MW 2332   1.998   2.410   2.680 -0.1268  0.0501  0.1944
  584SOL     OW 2333   0.103   1.903   2.189  0.3377 -0.2029  0.2677
  584SOL    HW1 2334   0.094   1.870   2.283  1.2507  0.0865  0.4623
  584SOL    HW2 2335   0.167   1.978   2.203 -1.0740  1.2428 -0.1865
  584SOL     MW 2336   0.110   1.908   2.204  0.2719  0.0261  0.2334
  585SOL     OW 2337   1.558   2.644   0.136 -0.3962 -0.1420 -0.5475
  585SOL    HW1 2338   1.532   2.607   0.052 -0.5888 -2.0566  2.7725
  585SOL    HW2 2339   1.487   2.636   0.195 -0.2669  0.5020 -0.9220
  585SOL     MW 2340   1.545   2.638   0.132 -0.4045 -0.3097 -0.1589
  586SOL     OW 2341   1.345   2.812   2.575 -0.7809 -0.4726  0.4121
  586SOL    HW1 2342   1.375   2.777   2.481  1.4559 -0.3956 -0.3223
  586SOL    HW2 2343   1.339   2.905   2.555  3.2114  0.9636  0.7430
  586SOL     MW 2344   1.348   2.820   2.560  0.0410 -0.2730  0.3588
  587SOL     OW 2345   1.359   1.497   2.183 -0.4082  0.2332 -0.4887
  587SOL    HW1 2346   1.327   1.407   2.211  0.8873  0.1117  0.2443
  587SOL    HW2 2347   1.396   1.485   2.095  1.7996  1.5295 -0.3186
  587SOL     MW 2348   1.360   1.484   2.175  0.0541  0.3882 -0.3695
  588SOL     OW 2349   1.385   1.979   2.629 -0.0938 -0.0105  0.0023
  588SOL    HW1 2350   1.405   1.882   2.635  1.1277 -0.0548  1.4929
  588SOL    HW2 2351   1.379   2.016   2.716 -1.4523  1.6247 -0.9143
  588SOL     MW 2352   1.387   1.971   2.641 -0.1119  0.1994  0.0781
  589SOL     OW 2353   1.422   1.988   0.065  0.2403  0.0468  0.4996
  589SOL    HW1 2354   1.443   2.078   0.086 -1.1972  0.7395 -0.9028
  589SOL    HW2 2355   1.350   1.960   0.120  2.0850 -0.0465  0.2968
  589SOL     MW 2356   1.415   1.996   0.075  0.2941  0.1259  0.2878
  590SOL     OW 2357   0.501   2.676   2.162  0.0951 -0.1621 -0.3030
  590SOL    HW1 2358   0.477   2.684   2.068  3.5641  0.7249 -0.5943
  590SOL    HW2 2359   0.591   2.703   2.169 -0.4618 -1.3585 -0.6744
  590SOL     MW 2360   0.510   2.680   2.151  0.4793 -0.2029 -0.3904
  591SOL     OW 2361   2.249   0.670   0.092 -0.5069 -0.5115  0.5744
  591SOL    HW1 2362   2.184   0.724   0.129  1.1797 -1.1715  2.2763
  591SOL    HW2 2363   2.262   0.699   0.005 -0.0909 -1.5465  1.0228
  591SOL     MW 2364   2.242   0.681   0.085 -0.2295 -0.7352  0.8581
  592SOL     OW 2365   1.696   2.960   0.804 -0.3201  0.3938  0.4170
  592SOL    HW1 2366   1.700   3.014   0.723 -1.5646  2.2858 -0.8081
  592SOL    HW2 2367   1.787   2.946   0.823  1.4062  1.8361 -1.4693
  592SOL     MW 2368   1.709   2.966   0.796 -0.2565  0.8337  0.0065
  593SOL     OW 2369   1.997   0.700   0.776  0.3038  0.7105 -0.1385
  593SOL    HW1 2370   1.918   0.693   0.721  0.9208  0.4656  0.6024
  593SOL    HW2 2371   2.039   0.616   0.760 -1.7868  0.9383 -1.9093
  593SOL     MW 2372   1.992   0.688   0.767  0.1094  0.7083 -0.2744
  594SOL     OW 2373   2.714   1.061   1.391 -0.1155 -0.4626  0.3034
  594SOL    HW1 2374   2.788   1.017   1.355 -2.2131  3.1667 -2.5265
  594SOL    HW2 2375   2.659   1.062   1.311 -0.3328 -1.8015 -0.7623
  594SOL     MW 2376   2.716   1.056   1.376 -0.4210 -0.1604 -0.2106
  595SOL     OW 2377   0.480   0.911   0.861  0.5382  0.5331 -0.2268
  595SOL    HW1 2378   0.478   0.945   0.771 -2.4408  0.7434  2.2337
  595SOL    HW2 2379   0.482   0.993   0.919 -1.7928 -0.6341  0.5658
  595SOL     MW 2380   0.480   0.926   0.857 -0.1624  0.4069  0.2024
  596SOL     OW 2381   2.458   1.342   0.524  0.0445  0.4356 -0.0182
  596SOL    HW1 2382   2.509   1.423   0.525  1.1789 -0.9604  0.3615
  596SOL    HW2 2383   2.491   1.282   0.591  0.8677 -1.4397 -0.4067
  596SOL     MW 2384   2.469   1.345   0.533  0.3028  0.0040 -0.0194
  597SOL     OW 2385   2.217   0.637   1.574  0.4734 -0.3451  0.0262
  597SOL    HW1 2386   2.220   0.587   1.652 -0.3733 -0.5716 -2.4717
  597SOL    HW2 2387   2.148   0.588   1.514 -1.2311 -1.9710 -1.3762
  597SOL     MW 2388   2.208   0.624   1.577  0.1368 -0.5895 -0.4884
  598SOL     OW 2389   2.594   1.057   2.857 -0.3515  0.0987  0.0320
  598SOL    HW1 2390   2.631   0.971   2.831  3.0190  1.8907 -0.7729
  598SOL    HW2 2391   2.674   1.103   2.889  0.3169 -0.0624 -0.0774
  598SOL     MW 2392   2.609   1.051   2.858  0.1814  0.3139 -0.0886
  599SOL     OW 2393   3.034   0.428   2.206  0.7693 -0.2894  1.1259
  599SOL    HW1 2394   3.088   0.428   2.279  0.6816 -1.4524 -3.8574
  599SOL    HW2 2395   3.056   0.514   2.165  0.9658  1.1327  1.6698
  599SOL     MW 2396   3.044   0.439   2.210  0.7837 -0.2552  0.5402
  600SOL     OW 2397   1.849   1.654   0.867 -0.0323  0.4204 -0.7165
  600SOL    HW1 2398   1.909   1.689   0.935 -0.3272 -0.1057 -0.6267
  600SOL    HW2 2399   1.797   1.723   0.826 -0.4337 -0.6911 -0.1671
  600SOL     MW 2400   1.850   1.668   0.870 -0.1242  0.2043 -0.6322
  601SOL     OW 2401   2.545   0.712   0.818  0.4081  0.4316  0.2476
  601SOL    HW1 2402   2.513   0.692   0.906 -0.2336  0.4163 -1.2646
  601SOL    HW2 2403   2.466   0.681   0.763 -1.5044 -1.1706 -1.0143
  601SOL     MW 2404   2.530   0.705   0.822  0.0711  0.2181 -0.1184
  602SOL     OW 2405   2.303   1.921   0.752 -0.0563 -0.8885 -0.1820
  602SOL    HW1 2406   2.271   1.845   0.695 -2.9835  1.8069 -0.0660
  602SOL    HW2 2407   2.223   1.977   0.732  0.7904 -1.0839 -1.4298
  602SOL     MW 2408   2.288   1.918   0.742 -0.3308 -0.5586 -0.3314
  603SOL     OW 2409   2.960   1.378   1.981  0.1302 -0.2983  0.4130
  603SOL    HW1 2410   2.945   1.399   2.072 -2.8653  2.6836  0.3930
  603SOL    HW2 2411   3.016   1.299   1.966  3.2765 -0.1876 -2.0948
  603SOL     MW 2412   2.966   1.371   1.991  0.1501  0.1098  0.0795
  604SOL     OW 2413   2.019   1.386   0.408  0.4298 -0.1452  0.1333
  604SOL    HW1 2414   2.080   1.327   0.459  3.1598  1.1495  2.0732
  604SOL    HW2 2415   1.961   1.429   0.473 -0.2994 -1.9487  2.5169
  604SOL     MW 2416   2.019   1.384   0.423  0.6938 -0.2123  0.7038
  605SOL     OW 2417   2.435   1.465   0.835 -0.3828  0.2335  0.4271
  605SOL    HW1 2418   2.453   1.520   0.754 -3.0918  1.3703 -1.4875
  605SOL    HW2 2419   2.457   1.378   0.809 -1.5814 -0.4384 -0.0942
  605SOL     MW 2420   2.441   1.461   0.821 -0.8984  0.2949  0.1057
  606SOL     OW 2421   2.610   1.809   1.871  0.3579 -0.3622 -0.4266
  606SOL    HW1 2422   2.526   1.769   1.906  0.4603 -1.4137  1.7597
  606SOL    HW2 2423   2.634   1.732   1.820 -3.0121  3.1290 -0.0068
  606SOL     MW 2424   2.602   1.793   1.869 -0.0732 -0.0403 -0.0828
  607SOL     OW 2425   2.405   1.022   3.068 -0.3482 -0.3837  0.0089
  607SOL    HW1 2426   2.491   1.041   3.029  0.1062  1.7214  0.6219
  607SOL    HW2 2427   2.425   1.009   3.159  1.5562 -1.7497 -1.8066
  607SOL     MW 2428   2.419   1.023   3.075 -0.0370 -0.2862 -0.1497
  608SOL     OW 2429   1.858   0.211   0.532  0.3837 -0.1765  0.1246
  608SOL    HW1 2430   1.868   0.236   0.440  0.3924 -2.5253  1.9602
  608SOL    HW2 2431   1.807   0.118   0.538 -2.7513 -0.3111 -1.3009
  608SOL     MW 2432   1.852   0.202   0.521 -0.0288 -0.5042  0.1787
  609SOL     OW 2433   2.129   1.894   3.084  0.2848 -0.1773  0.0312
  609SOL    HW1 2434   2.049   1.847   3.066 -1.4551 -0.0278  1.4298
  609SOL    HW2 2435   2.134   1.888   3.177 -1.3313 -1.6394 -0.9590
  609SOL     MW 2436   2.119   1.887   3.094 -0.1580 -0.3505  0.0850
  610SOL     OW 2437   1.810   0.911   1.232  0.3378 -0.1753 -0.1006
  610SOL    HW1 2438   1.830   0.856   1.153  2.4841  1.1752 -1.5055
  610SOL    HW2 2439   1.715   0.902   1.245  0.1054 -1.9903 -0.5066
  610SOL     MW 2440   1.800   0.903   1.223  0.5903 -0.2366 -0.3395
  611SOL     OW 2441   2.503   1.628   0.631 -0.1127  0.3467 -0.0402
  611SOL    HW1 2442   2.581   1.642   0.579 -0.6373 -0.2514 -0.4337
  611SOL    HW2 2443   2.427   1.651   0.587  1.2894 -2.6289  0.5774
  611SOL     MW 2444   2.503   1.632   0.619  0.0031 -0.1248 -0.0107
  612SOL     OW 2445   2.954   2.966   0.315 -0.4794  0.2889  0.1915
  612SOL    HW1 2446   2.942   2.997   0.401  2.7211 -0.8955 -2.7992
  612SOL    HW2 2447   3.039   2.915   0.325 -0.9397  0.7726 -2.2814
  612SOL     MW 2448   2.964   2.963   0.328 -0.1179  0.1965 -0.5293
  613SOL     OW 2449   1.521   1.150   1.010 -0.2438  0.4640  0.0755
  613SOL    HW1 2450   1.519   1.234   1.049 -0.0038  0.2925 -0.4800
  613SOL    HW2 2451   1.536   1.097   1.087 -0.6058  0.7636 -0.7621
  613SOL     MW 2452   1.523   1.154   1.025 -0.2599  0.4809 -0.1083
  614SOL     OW 2453   2.019   0.480   1.395 -0.3973  0.0369 -0.4406
  614SOL    HW1 2454   2.004   0.403   1.446 -0.8491  0.6183  0.7682
  614SOL    HW2 2455   1.934   0.525   1.381  0.7730  1.3915  1.3037
  614SOL     MW 2456   2.006   0.475   1.400 -0.3025  0.2923 -0.0510
  615SOL     OW 2457   2.409   0.721   0.327 -0.1453 -0.0710 -0.2202
  615SOL    HW1 2458   2.479   0.666   0.364 -0.6525  0.4143 -3.3493
  615SOL    HW2 2459   2.404   0.681   0.235  1.0784 -1.3953 -3.1961
  615SOL     MW 2460   2.417   0.708   0.320 -0.0508 -0.1817 -1.0257
  616SOL     OW 2461   2.517   0.417   1.607  0.5528 -0.7463  0.2816
  616SOL    HW1 2462   2.583   0.357   1.578  0.3456  0.7058 -0.1658
  616SOL    HW2 2463   2.519   0.483   1.533  2.8331  0.4457 -0.0778
  616SOL     MW 2464   2.526   0.418   1.594  0.8264 -0.3974  0.1751
  617SOL     OW 2465   2.884   0.558   1.867  0.3412 -0.4269 -0.3867
  617SOL    HW1 2466   2.804   0.555   1.916  0.2190 -3.5312 -1.1770
  617SOL    HW2 2467   2.886   0.476   1.821  1.4316 -0.3937  1.8718
  617SOL     MW 2468   2.874   0.546   1.867  0.4689 -0.8321 -0.1930
  618SOL     OW 2469   2.763   0.267   1.996  0.2250 -0.6275 -0.3547
  618SOL    HW1 2470   2.715   0.337   2.050 -0.3806  0.5287  1.8499
  618SOL    HW2 2471   2.851   0.276   2.023 -1.7004  0.5406 -2.1256
  618SOL     MW 2472   2.768   0.278   2.007 -0.1089 -0.3208 -0.2975
  619SOL     OW 2473   2.679   0.734   0.076  0.4916 -0.1549  0.1167
  619SOL    HW1 2474   2.734   0.812   0.084 -3.1253  0.2601 -0.4405
  619SOL    HW2 2475   2.685   0.694   0.162  0.4299  1.7652 -1.3435
  619SOL     MW 2476   2.687   0.739   0.089  0.0062  0.1532 -0.1495
  620SOL     OW 2477   2.213   1.061   0.918 -0.1676 -0.2799 -0.5040
  620SOL    HW1 2478   2.301   1.029   0.915 -0.4047  1.1361  2.7368
  620SOL    HW2 2479   2.171   1.030   0.838  1.1362 -1.6424 -1.9796
  620SOL     MW 2480   2.219   1.053   0.907 -0.0268 -0.2728 -0.2711
  621SOL     OW 2481   1.469   2.202   1.960  0.0137 -0.1128 -0.0085
  621SOL    HW1 2482   1.418   2.121   1.989 -0.0871 -1.3808 -0.0637
  621SOL    HW2 2483   1.564   2.197   1.995  1.5333  1.5657  1.3005
  621SOL     MW 2484   1.475   2.190   1.968  0.2009 -0.0586  0.1570
  622SOL     OW 2485   2.654   0.236   0.276 -0.4461 -0.4344 -0.0067
  622SOL    HW1 2486   2.731   0.294   0.252  2.4234  1.0096 -0.0749
  622SOL    HW2 2487   2.685   0.145   0.271 -1.0077  0.0344 -1.8114
  622SOL     MW 2488   2.669   0.231   0.272 -0.1416 -0.1820 -0.2538
  623SOL     OW 2489   2.398   2.758   0.890 -0.6859 -0.1573 -0.0375
  623SOL    HW1 2490   2.460   2.826   0.901  0.9030 -0.6747 -0.9154
  623SOL    HW2 2491   2.340   2.765   0.975  0.6884 -0.2645  0.6333
  623SOL     MW 2492   2.398   2.768   0.902 -0.2950 -0.2397 -0.0648
  624SOL     OW 2493   2.162   1.562   3.048  0.0055 -0.6517  0.3147
  624SOL    HW1 2494   2.091   1.491   3.041 -2.8073 -0.0107  1.9989
  624SOL    HW2 2495   2.117   1.637   3.013 -1.1146  1.8172 -0.5374
  624SOL     MW 2496   2.147   1.562   3.042 -0.5134 -0.2414  0.4245
  625SOL     OW 2497   2.220   1.895   1.035  0.1371 -0.6680 -0.5507
  625SOL    HW1 2498   2.250   1.826   1.092 -3.8558  0.4999  0.0903
  625SOL    HW2 2499   2.250   1.871   0.949 -1.2288 -0.3291 -0.5090
  625SOL     MW 2500   2.228   1.883   1.031 -0.5699 -0.4692 -0.4606
  626SOL     OW 2501   0.127   1.795   2.453  0.3611  0.6235  0.0632
  626SOL    HW1 2502   0.111   1.721   2.507  2.1946  1.2695  0.2416
  626SOL    HW2 2503   0.103   1.869   2.502 -0.9071 -1.0220 -0.2180
  626SOL     MW 2504   0.122   1.795   2.466  0.4357  0.4916  0.0497
  627SOL     OW 2505   2.522   0.839   2.555  0.2647  0.4557 -0.4320
  627SOL    HW1 2506   2.432   0.869   2.569  0.2024 -3.0517 -2.4846
  627SOL    HW2 2507   2.516   0.779   2.479  4.2053 -1.4475  0.9841
  627SOL     MW 2508   2.510   0.835   2.547  0.7764 -0.2582 -0.5160
  628SOL     OW 2509   2.291   1.354   1.312  0.3359 -0.3599 -0.2212
  628SOL    HW1 2510   2.236   1.293   1.266  4.0195  0.8801 -0.7094
  628SOL    HW2 2511   2.367   1.372   1.256  0.6835  2.2092  0.8802
  628SOL     MW 2512   2.294   1.348   1.298  0.8678  0.1426 -0.1403
  629SOL     OW 2513   1.769   0.573   1.312  0.2235  0.2002  0.0282
  629SOL    HW1 2514   1.818   0.619   1.244  1.0893 -0.5077 -1.0530
  629SOL    HW2 2515   1.678   0.560   1.278  0.8253  0.0594  1.7511
  629SOL     MW 2516   1.764   0.578   1.299  0.4171  0.0882  0.1129
  630SOL     OW 2517   2.423   1.886   3.027  0.1986  0.5538  0.6607
  630SOL    HW1 2518   2.426   1.973   2.983  2.4266 -2.0983 -0.9399
  630SOL    HW2 2519   2.331   1.855   3.035  1.5254 -0.8314 -0.2126
  630SOL     MW 2520   2.411   1.893   3.023  0.6676  0.0211  0.3343
  631SOL     OW 2521   2.110   1.765   1.506  0.1170  0.3373 -0.2338
  631SOL    HW1 2522   2.105   1.695   1.567  1.0681 -0.4810 -2.6036
  631SOL    HW2 2523   2.059   1.839   1.537  1.1981  2.6377 -0.5410
  631SOL     MW 2524   2.103   1.765   1.518  0.3851  0.5329 -0.5870
  632SOL     OW 2525   0.288   1.899   1.539  0.2523 -0.4972  0.4237
  632SOL    HW1 2526   0.196   1.926   1.563  3.4163 -3.4107  0.5766
  632SOL    HW2 2527   0.279   1.804   1.542  1.8881  1.5764 -0.7180
  632SOL     MW 2528   0.275   1.890   1.543  0.8856 -0.6080  0.2933
  633SOL     OW 2529   2.625   0.540   0.398 -0.4049 -0.1235  0.3505
  633SOL    HW1 2530   2.671   0.528   0.481  1.3297  1.9675  0.6206
  633SOL    HW2 2531   2.613   0.453   0.354  2.0660  0.9015  0.9365
  633SOL     MW 2532   2.629   0.527   0.404  0.1500  0.2876  0.4635
  634SOL     OW 2533   2.622  -0.002   0.647 -0.1933 -0.0422 -0.0098
  634SOL    HW1 2534   2.663   0.088   0.648 -1.3042  1.3877  0.7975
  634SOL    HW2 2535   2.636  -0.035   0.557 -0.9673 -0.2664  0.2165
  634SOL     MW 2536   2.629   0.005   0.635 -0.4420  0.1168  0.1266
  635SOL     OW 2537   2.630   0.046   1.898  0.2662 -0.0468 -0.5982
  635SOL    HW1 2538   2.683   0.013   1.821 -2.1179  2.2843  0.0647
  635SOL    HW2 2539   2.679   0.117   1.940 -1.1380 -1.5177 -0.1328
  635SOL     MW 2540   2.644   0.051   1.893 -0.2336  0.0667 -0.4493
  636SOL     OW 2541   2.724   1.688   0.808 -0.0389  0.8277 -0.4648
  636SOL    HW1 2542   2.634   1.687   0.769 -1.7557 -1.1052 -1.1835
  636SOL    HW2 2543   2.735   1.778   0.831 -0.3568  0.2435 -0.6822
  636SOL     MW 2544   2.714   1.700   0.806 -0.3074  0.4956 -0.5883
  637SOL     OW 2545   2.862   1.503   0.659  0.0707  0.0198 -0.1173
  637SOL    HW1 2546   2.918   1.568   0.611 -0.6444 -0.1683 -0.9451
  637SOL    HW2 2547   2.820   1.559   0.727 -1.7065  1.5078  0.4461
  637SOL     MW 2548   2.864   1.519   0.662 -0.2581  0.1913 -0.1522
  638SOL     OW 2549   2.793   0.500   0.619 -0.1838  0.4527  0.0789
  638SOL    HW1 2550   2.869   0.549   0.578 -2.1272  1.7245  1.1804
  638SOL    HW2 2551   2.793   0.538   0.705  1.5981 -0.7256 -0.2086
  638SOL     MW 2552   2.803   0.512   0.625 -0.2051  0.4650  0.1863
  639SOL     OW 2553   1.715   3.072   0.561 -0.3056 -0.0372 -0.2587
  639SOL    HW1 2554   1.637   3.108   0.518 -0.8080  0.2909 -0.4915
  639SOL    HW2 2555   1.725   2.986   0.527 -3.0275 -1.5238  0.3278
  639SOL     MW 2556   1.706   3.065   0.551 -0.7310 -0.1900 -0.2121
  640SOL     OW 2557   0.312   1.369   0.102 -0.5333 -0.1225  0.4168
  640SOL    HW1 2558   0.326   1.366   0.003 -1.2583  0.2929 -2.8015
  640SOL    HW2 2559   0.323   1.278   0.129  0.0346  3.0257  1.7178
  640SOL     MW 2560   0.315   1.357   0.093 -0.5540  0.3477  0.1638
  641SOL     OW 2561   2.140   0.355   0.398  0.6524 -0.8592  0.2553
  641SOL    HW1 2562   2.221   0.306   0.413  3.5451  0.2964  0.5412
  641SOL    HW2 2563   2.080   0.309   0.455  4.4242 -1.5942 -0.0344
  641SOL     MW 2564   2.143   0.343   0.407  1.5317 -0.8037  0.2548
  642SOL     OW 2565   0.049   0.045   0.574 -0.2640  0.3119 -0.2272
  642SOL    HW1 2566   0.018   0.127   0.524 -0.4082 -3.1214 -0.8697
  642SOL    HW2 2567  -0.038   0.015   0.598 -0.3400  1.7623  0.3092
  642SOL     MW 2568   0.033   0.052   0.570 -0.2930  0.0503 -0.2412
  643SOL     OW 2569   2.069   0.312   1.663  0.0584 -0.1672 -0.2422
  643SOL    HW1 2570   1.996   0.300   1.725 -1.6837 -0.4004 -0.7138
  643SOL    HW2 2571   2.076   0.231   1.615  1.3309 -1.1037 -0.6248
  643SOL     MW 2572   2.060   0.300   1.665 -0.0036 -0.3216 -0.3549
  644SOL     OW 2573   2.678   1.898   1.008  0.2168  0.2301 -0.1190
  644SOL    HW1 2574   2.663   1.815   1.059 -1.6335  1.1612  0.7286
  644SOL    HW2 2575   2.591   1.927   0.973  0.9898 -0.7853 -0.0869
  644SOL     MW 2576   2.665   1.891   1.010  0.0747  0.2190 -0.0029
  645SOL     OW 2577   2.768   0.862   0.709 -0.3547  0.2985  0.5129
  645SOL    HW1 2578   2.846   0.817   0.735 -2.7258  0.4639 -1.0016
  645SOL    HW2 2579   2.697   0.796   0.736  1.4842 -2.1789 -0.4813
  645SOL     MW 2580   2.769   0.848   0.716 -0.4249 -0.0065  0.1819
  646SOL     OW 2581   0.174   2.251   0.828  0.4655 -0.4325  0.7256
  646SOL    HW1 2582   0.181   2.153   0.854  0.1493 -1.8504 -2.7224
  646SOL    HW2 2583   0.105   2.251   0.758  0.1515  0.4874  0.9020
  646SOL     MW 2584   0.166   2.238   0.822  0.3824 -0.4982  0.2940
  647SOL     OW 2585   2.734   0.503   3.025  0.3979 -0.0371 -0.1771
  647SOL    HW1 2586   2.673   0.428   3.041 -1.7976 -1.5150  0.3649
  647SOL    HW2 2587   2.705   0.583   3.072 -1.6751  1.6637  1.2380
  647SOL     MW 2588   2.722   0.504   3.033 -0.1653 -0.0077  0.0812
  648SOL     OW 2589   2.258   0.673   1.113 -0.1913 -0.3008  0.0818
  648SOL    HW1 2590   2.227   0.590   1.148  3.0960  2.3959  1.2228
  648SOL    HW2 2591   2.266   0.733   1.187  2.1232 -0.0862 -1.0099
  648SOL     MW 2592   2.255   0.670   1.127  0.5478  0.0834  0.0883
  649SOL     OW 2593   2.444   2.703   1.249  0.3903  0.2172 -0.3639
  649SOL    HW1 2594   2.528   2.749   1.272  0.6641 -1.2115 -0.6584
  649SOL    HW2 2595   2.467   2.613   1.227  0.3580  1.7047  3.4425
  649SOL     MW 2596   2.458   2.697   1.249  0.4222  0.2250  0.0995
  650SOL     OW 2597   2.777   0.228   0.621  0.2551  0.0343 -0.5458
  650SOL    HW1 2598   2.792   0.321   0.647  3.6020 -0.6980 -1.0617
  650SOL    HW2 2599   2.831   0.221   0.541 -0.4813 -0.3646 -1.9786
  650SOL     MW 2600   2.786   0.240   0.614  0.5995 -0.1149 -0.8029
  651SOL     OW 2601   3.075   0.455   1.002  0.4894  0.1467  0.0699
  651SOL    HW1 2602   3.133   0.506   0.938 -0.4922 -1.0806 -2.0596
  651SOL    HW2 2603   3.040   0.518   1.061 -0.5494 -0.2711  0.2733
  651SOL     MW 2604   3.078   0.470   1.001  0.2228 -0.0703 -0.1842
  652SOL     OW 2605   2.376   1.417   3.009  0.6942  0.4302 -0.2116
  652SOL    HW1 2606   2.429   1.433   2.928  1.7309  1.1254  0.5099
  652SOL    HW2 2607   2.294   1.468   3.002  1.2856 -1.2707 -1.9074
  652SOL     MW 2608   2.372   1.426   2.998  0.9090  0.2975 -0.3402
  653SOL     OW 2609   1.859   0.348   0.271 -0.0846 -0.0090  0.1135
  653SOL    HW1 2610   1.837   0.277   0.204  0.2602 -0.2186 -0.3454
  653SOL    HW2 2611   1.948   0.372   0.248  0.3072 -1.3258 -1.0522
  653SOL     MW 2612   1.868   0.342   0.259  0.0126 -0.2104 -0.1008
  654SOL     OW 2613   2.467   0.964   0.773 -0.4995  0.6663 -0.2516
  654SOL    HW1 2614   2.400   0.975   0.702 -0.9625 -0.4403  0.8381
  654SOL    HW2 2615   2.489   0.874   0.787 -0.6913 -1.3032 -1.2964
  654SOL     MW 2616   2.461   0.954   0.765 -0.5859  0.2604 -0.2457
  655SOL     OW 2617   2.936   0.930   0.414 -0.9529  0.1158 -0.5349
  655SOL    HW1 2618   2.879   0.980   0.472 -0.2951  0.1530  2.2331
  655SOL    HW2 2619   2.929   0.836   0.442 -0.6272 -0.9644 -0.5184
  655SOL     MW 2620   2.927   0.924   0.425 -0.8232 -0.0218 -0.1675
  656SOL     OW 2621   1.825   2.652   1.407  0.1249  0.6421 -0.1985
  656SOL    HW1 2622   1.835   2.739   1.365  0.5475  0.3144 -1.1742
  656SOL    HW2 2623   1.869   2.588   1.354  0.4424  0.1251  2.0335
  656SOL     MW 2624   1.832   2.655   1.395  0.2226  0.5307 -0.0327
  657SOL     OW 2625   0.065   1.804   1.234 -0.1842 -0.0180 -0.7549
  657SOL    HW1 2626   0.136   1.844   1.180  2.8018  0.4119  0.8770
  657SOL    HW2 2627   0.088   1.829   1.320  0.4203 -0.4942 -1.2524
  657SOL     MW 2628   0.077   1.813   1.238  0.2895 -0.0241 -0.6052
  658SOL     OW 2629   2.738   1.359   0.248  0.1153  0.4036  0.0516
  658SOL    HW1 2630   2.695   1.271   0.267 -0.9145 -1.7230  1.0891
  658SOL    HW2 2631   2.721   1.416   0.324  1.2395 -0.6081 -1.7531
  658SOL     MW 2632   2.730   1.355   0.260  0.1277 -0.0105 -0.0496
  659SOL     OW 2633   2.184   1.491   1.027 -0.2174 -0.5891 -0.1984
  659SOL    HW1 2634   2.238   1.413   1.056  1.9510 -1.0205 -0.4673
  659SOL    HW2 2635   2.138   1.521   1.103  0.4389  1.7279  1.3106
  659SOL     MW 2636   2.185   1.485   1.041  0.1553 -0.3403 -0.0348
  660SOL     OW 2637   2.075   1.501   1.672 -0.3687 -0.1740 -0.5508
  660SOL    HW1 2638   2.090   1.511   1.767  3.5327  1.6409  0.8110
  660SOL    HW2 2639   1.989   1.459   1.654 -1.2139 -0.1560  1.0576
  660SOL     MW 2640   2.066   1.496   1.682  0.0346  0.0679 -0.1589
  661SOL     OW 2641   2.403   0.984   0.242  0.4422 -0.4039  0.2131
  661SOL    HW1 2642   2.479   1.030   0.287 -1.3656  0.7218 -2.9435
  661SOL    HW2 2643   2.396   0.890   0.285  0.8311  0.3576  2.8318
  661SOL     MW 2644   2.412   0.977   0.253  0.2550 -0.1549  0.1421
  662SOL     OW 2645   2.584   2.973   0.885 -0.0408 -0.1463 -0.4382
  662SOL    HW1 2646   2.512   3.028   0.931 -0.3146  0.2525  0.7962
  662SOL    HW2 2647   2.598   3.016   0.794 -0.1393  2.2753  0.1197
  662SOL     MW 2648   2.576   2.986   0.879 -0.0900  0.2258 -0.2017
  663SOL     OW 2649   2.689   1.514   0.453  0.6800  0.5948 -0.3331
  663SOL    HW1 2650   2.724   1.591   0.408 -0.4897 -1.9357 -0.1444
  663SOL    HW2 2651   2.753   1.484   0.514 -2.5323  2.2832 -0.1365
  663SOL     MW 2652   2.702   1.520   0.455  0.1019  0.4837 -0.2823
  664SOL     OW 2653   2.539   1.494   1.532 -0.1980  0.1027 -0.4129
  664SOL    HW1 2654   2.537   1.575   1.484 -1.4685 -1.3916 -2.6947
  664SOL    HW2 2655   2.456   1.451   1.560  0.7824 -2.2615  3.0573
  664SOL     MW 2656   2.528   1.499   1.529 -0.2363 -0.4064 -0.2561
  665SOL     OW 2657   2.849   0.815   2.103  0.2217  0.1041  0.3146
  665SOL    HW1 2658   2.836   0.863   2.019  0.9876 -1.1211 -1.2437
  665SOL    HW2 2659   2.933   0.768   2.095 -0.0194  1.8018 -0.3437
  665SOL     MW 2660   2.859   0.815   2.091  0.2909  0.1665  0.0221
  666SOL     OW 2661   2.758   3.021   1.674  0.1166 -0.1243  0.0912
  666SOL    HW1 2662   2.776   3.029   1.581  0.7562  0.2136 -0.0308
  666SOL    HW2 2663   2.705   2.944   1.693 -2.3216  0.7375 -0.2612
  666SOL     MW 2664   2.754   3.011   1.664 -0.1207  0.0340  0.0286
  667SOL     OW 2665   1.981   2.706   1.721 -0.2656  0.6075 -0.2011
  667SOL    HW1 2666   2.008   2.691   1.812  0.3375 -1.2415  0.2259
  667SOL    HW2 2667   2.066   2.742   1.689 -1.2109 -1.5885 -1.9423
  667SOL     MW 2668   1.996   2.709   1.729 -0.3107  0.0738 -0.3745
  668SOL     OW 2669   2.764   0.572   0.873  0.1608 -0.1360  0.1514
  668SOL    HW1 2670   2.826   0.619   0.939  1.3505 -0.9093  2.5774
  668SOL    HW2 2671   2.684   0.627   0.872  2.8710 -1.0936  2.2083
  668SOL     MW 2672   2.762   0.586   0.881  0.6753 -0.3644  0.7428
  669SOL     OW 2673   0.202   0.983   0.727  0.5309  0.4195  0.2634
  669SOL    HW1 2674   0.133   1.022   0.782  0.7103 -1.5989 -1.0301
  669SOL    HW2 2675   0.287   1.029   0.725  0.6602 -0.7339 -2.4802
  669SOL     MW 2676   0.204   0.994   0.734  0.5716  0.0010 -0.2692
  670SOL     OW 2677   2.918   0.346   0.210 -0.1767  0.0134 -0.3059
  670SOL    HW1 2678   2.953   0.289   0.138  2.7123 -1.7754  0.6377
  670SOL    HW2 2679   2.920   0.437   0.182  0.9812 -0.2537  2.0157
  670SOL     MW 2680   2.923   0.350   0.197  0.3573 -0.2578  0.1249
  671SOL     OW 2681   2.010   3.005   1.536 -0.6804  0.2678 -0.2036
  671SOL    HW1 2682   1.953   2.967   1.466  3.8277 -1.2071 -1.5514
  671SOL    HW2 2683   1.951   3.036   1.609 -0.2157  0.3535 -1.0558
  671SOL     MW 2684   1.994   3.004   1.537 -0.0243  0.0845 -0.4939
  672SOL     OW 2685   1.829   1.734   1.307  0.1351  0.0144 -0.0579
  672SOL    HW1 2686   1.860   1.791   1.380 -0.8663  0.4447 -3.4849
  672SOL    HW2 2687   1.873   1.758   1.225 -2.7313 -2.3102 -0.3620
  672SOL     MW 2688   1.839   1.745   1.306 -0.3752 -0.2355 -0.5502
  673SOL     OW 2689   2.774   1.113   0.569  0.4292 -0.4423 -0.6507
  673SOL    HW1 2690   2.763   1.032   0.608 -1.8301  0.1216 -3.4559
  673SOL    HW2 2691   2.848   1.157   0.613  2.0710  0.5319  0.2765
  673SOL     MW 2692   2.782   1.108   0.580  0.3477 -0.2394 -0.8985
  674SOL     OW 2693   2.484   0.013   1.209  0.2990 -0.3932  0.1694
  674SOL    HW1 2694   2.435   0.023   1.128  1.0782 -0.9288  1.9569
  674SOL    HW2 2695   2.523  -0.074   1.208  0.4237 -2.1466  2.0746
  674SOL     MW 2696   2.483   0.003   1.198  0.4183 -0.6952  0.6566
  675SOL     OW 2697   2.987   0.907   1.059  0.0146 -0.7057  0.8577
  675SOL    HW1 2698   3.062   0.935   1.113  2.6937 -0.8934 -1.5859
  675SOL    HW2 2699   3.010   0.949   0.979  2.4002  0.2385  2.6748
  675SOL     MW 2700   3.000   0.916   1.055  0.6829 -0.6059  0.7750
  676SOL     OW 2701   2.916   1.449   1.715 -0.3763  0.3314 -0.3952
  676SOL    HW1 2702   2.880   1.373   1.667  1.5924  3.4049 -1.2393
  676SOL    HW2 2703   2.943   1.429   1.812  1.3300  2.0676  0.7150
  676SOL     MW 2704   2.915   1.436   1.722  0.1086  0.9660 -0.3601
  677SOL     OW 2705   2.404   0.579   2.011  0.3530  0.1274 -0.7262
  677SOL    HW1 2706   2.364   0.514   1.957 -1.2584 -1.5858  0.2418
  677SOL    HW2 2707   2.360   0.660   1.968 -2.9828 -2.0079 -0.4750
  677SOL     MW 2708   2.393   0.581   1.999 -0.2998 -0.3804 -0.5653
  678SOL     OW 2709   2.402   1.644   0.276 -0.7554 -0.1501  0.7789
  678SOL    HW1 2710   2.316   1.642   0.314 -0.5157  1.9074  0.0249
  678SOL    HW2 2711   2.399   1.558   0.224  1.2804  0.0825 -1.9495
  678SOL     MW 2712   2.390   1.633   0.274 -0.4551  0.1520  0.3194
  679SOL     OW 2713   2.241   0.417   1.249  0.1598  0.0485  0.5270
  679SOL    HW1 2714   2.244   0.320   1.242  2.0048  0.6149 -0.8327
  679SOL    HW2 2715   2.167   0.441   1.308  0.9699 -2.7291 -0.6554
  679SOL     MW 2716   2.232   0.407   1.256  0.5101 -0.2432  0.1916
  680SOL     OW 2717   2.400   0.108   1.479  0.4773  0.0074  0.1507
  680SOL    HW1 2718   2.309   0.118   1.486  0.9657  1.3530 -0.3284
  680SOL    HW2 2719   2.421   0.032   1.421  2.0302 -4.6752  1.8600
  680SOL     MW 2720   2.391   0.099   1.473  0.7466 -0.4329  0.3130
  681SOL     OW 2721   0.242   0.590   1.500  0.8048  0.1994 -0.3918
  681SOL    HW1 2722   0.215   0.514   1.563  4.4434 -0.8945  3.7012
  681SOL    HW2 2723   0.217   0.569   1.413 -0.1808 -1.4935  0.6536
  681SOL     MW 2724   0.235   0.577   1.497  1.1548 -0.1683  0.2861
  682SOL     OW 2725   0.083   2.918   1.523 -0.3931 -0.3408  0.7072
  682SOL    HW1 2726   0.149   2.982   1.533 -2.3103 -1.6852  0.6931
  682SOL    HW2 2727   0.023   2.920   1.596 -1.5154 -0.8474  0.3921
  682SOL     MW 2728   0.083   2.927   1.534 -0.7941 -0.5850  0.6638
  683SOL     OW 2729   2.057   0.833   2.998  0.4710 -0.2680  0.1174
  683SOL    HW1 2730   2.008   0.754   3.021  0.9217  2.8051  1.7068
  683SOL    HW2 2731   2.012   0.903   3.052 -0.9900  0.4230 -1.5954
  683SOL     MW 2732   2.045   0.832   3.008  0.3377  0.2287  0.1011
  684SOL     OW 2733   2.120   1.736   0.652 -0.2073  0.1560 -0.2340
  684SOL    HW1 2734   2.112   1.710   0.557  0.7791  1.6852  2.0272
  684SOL    HW2 2735   2.067   1.671   0.691 -0.8582  0.4227 -2.1785
  684SOL     MW 2736   2.112   1.724   0.645 -0.1630  0.3929 -0.1922
  685SOL     OW 2737   2.687   1.683   1.160 -0.2983  0.1080  0.2304
  685SOL    HW1 2738   2.695   1.686   1.254 -0.1980 -0.7733 -1.5239
  685SOL    HW2 2739   2.612   1.616   1.157 -0.3264 -1.3368 -1.9232
  685SOL     MW 2740   2.678   1.675   1.172 -0.2888 -0.1989 -0.2852
  686SOL     OW 2741   2.908   0.628   1.593 -0.2866 -0.2265  0.2425
  686SOL    HW1 2742   2.901   0.611   1.683  3.3065  1.7107 -2.5489
  686SOL    HW2 2743   2.980   0.687   1.582 -0.7621  2.2388 -0.1230
  686SOL     MW 2744   2.916   0.633   1.603  0.1247  0.3544 -0.1740
  687SOL     OW 2745   2.162   0.176   1.115 -0.0503  0.0204 -0.2488
  687SOL    HW1 2746   2.235   0.153   1.058 -0.8425  0.5992 -3.7485
  687SOL    HW2 2747   2.128   0.265   1.081 -2.8428 -0.0823  1.6220
  687SOL     MW 2748   2.167   0.184   1.103 -0.5233  0.0832 -0.4637
  688SOL     OW 2749   2.416   0.590   1.410 -0.3285  0.4174  0.0259
  688SOL    HW1 2750   2.393   0.522   1.345  1.2440  0.5492 -0.6100
  688SOL    HW2 2751   2.337   0.613   1.467  0.9693  0.2852 -1.8927
  688SOL     MW 2752   2.403   0.584   1.409  0.0502  0.4174 -0.3112
  689SOL     OW 2753   2.503   0.783   2.975  0.3844  0.0630  0.5278
  689SOL    HW1 2754   2.446   0.855   2.992  0.3417  0.0871  1.5737
  689SOL    HW2 2755   2.555   0.773   3.056 -0.0779 -1.4998 -0.3817
  689SOL     MW 2756   2.502   0.791   2.988  0.3178 -0.1400  0.5458
  690SOL     OW 2757   2.049   0.864   1.867  0.2273 -0.2681 -0.8238
  690SOL    HW1 2758   2.003   0.785   1.882  0.6222  1.1145 -0.7798
  690SOL    HW2 2759   2.070   0.866   1.774 -0.8847 -1.5126  0.4610
  690SOL     MW 2760   2.046   0.854   1.856  0.1327 -0.2498 -0.6485
  691SOL     OW 2761   2.375   0.278   0.864  0.6303  0.5573  0.1764
  691SOL    HW1 2762   2.453   0.327   0.908  3.7825  3.7131  0.0676
  691SOL    HW2 2763   2.307   0.344   0.856 -0.0150  0.6062 -1.9294
  691SOL     MW 2764   2.376   0.293   0.869  0.9611  0.9801 -0.1158
  692SOL     OW 2765   2.888   1.597   1.433 -0.0250  0.0072  0.2171
  692SOL    HW1 2766   2.916   1.601   1.521 -2.2956  0.4955 -0.2536
  692SOL    HW2 2767   2.906   1.687   1.401  0.6690  0.5502  0.6259
  692SOL     MW 2768   2.894   1.610   1.440 -0.2330  0.1433  0.2089
  693SOL     OW 2769   2.348   0.431   0.059 -0.2612  0.6253 -0.2411
  693SOL    HW1 2770   2.279   0.379   0.096  0.3428  0.2794  1.8643
  693SOL    HW2 2771   2.304   0.521   0.066  1.2688  0.2838  2.3046
  693SOL     MW 2772   2.333   0.436   0.065  0.0204  0.5346  0.3726
  694SOL     OW 2773   1.866   1.183   1.117 -0.1682  0.7880  0.8245
  694SOL    HW1 2774   1.966   1.186   1.125  3.8917  1.7298 -0.7343
  694SOL    HW2 2775   1.837   1.100   1.168 -0.8372  0.7985 -0.7432
  694SOL     MW 2776   1.876   1.172   1.124  0.2792  0.9137  0.4119
  695SOL     OW 2777   2.965   1.388   1.270  0.2511  0.4207  0.0796
  695SOL    HW1 2778   2.935   1.414   1.187 -2.4402 -0.6601 -1.6349
  695SOL    HW2 2779   2.944   1.459   1.335  0.2674  0.4169 -1.6260
  695SOL     MW 2780   2.958   1.400   1.268 -0.1018  0.2776 -0.3716
  696SOL     OW 2781   2.090   1.446   0.762 -0.3416  0.1567  0.0925
  696SOL    HW1 2782   2.143   1.462   0.838 -0.6528  1.5321 -1.5419
  696SOL    HW2 2783   2.017   1.393   0.792 -0.9688 -1.3757 -0.4501
  696SOL     MW 2784   2.087   1.441   0.776 -0.4654  0.1360 -0.1947
  697SOL     OW 2785   2.921   1.052   2.268  0.1513  0.8183 -0.4495
  697SOL    HW1 2786   2.833   1.097   2.288 -4.3415  1.3072  0.1035
  697SOL    HW2 2787   2.893   0.975   2.216 -0.0500  3.0891 -2.5295
  697SOL     MW 2788   2.905   1.048   2.264 -0.4680  1.1824 -0.6509
  698SOL     OW 2789   2.554   0.292   3.064  0.5046 -0.0660 -0.8970
  698SOL    HW1 2790   2.475   0.348   3.084  0.6741  1.1169 -0.1248
  698SOL    HW2 2791   2.591   0.271   3.146 -0.6875  1.5056 -1.5055
  698SOL     MW 2792   2.548   0.297   3.078  0.3697  0.2974 -0.8754
  699SOL     OW 2793   1.892   1.614   2.078 -0.2617 -0.3222  0.2749
  699SOL    HW1 2794   1.879   1.517   2.061 -0.4960  0.4756 -2.0944
  699SOL    HW2 2795   1.988   1.616   2.058 -1.4617  3.4641 -0.9383
  699SOL     MW 2796   1.903   1.601   2.073 -0.4509  0.2826 -0.1978
  700SOL     OW 2797   2.696   0.818   1.563 -0.2491 -0.1160  0.1932
  700SOL    HW1 2798   2.713   0.910   1.554  0.0144 -2.4326  0.2630
  700SOL    HW2 2799   2.783   0.777   1.573 -0.4100  0.1143 -4.0426
  700SOL     MW 2800   2.710   0.825   1.563 -0.2356 -0.3912 -0.3565
  701SOL     OW 2801   1.679   1.158   2.514 -0.2314 -0.1587 -0.0687
  701SOL    HW1 2802   1.763   1.121   2.538  1.4101 -0.6138 -1.5544
  701SOL    HW2 2803   1.668   1.226   2.577  1.2598 -4.0526  0.2917
  701SOL     MW 2804   1.688   1.162   2.525  0.1819 -0.7325 -0.2172
  702SOL     OW 2805   2.155   0.416   0.806 -0.4851  0.1880 -0.9189
  702SOL    HW1 2806   2.133   0.340   0.751  2.0078 -0.7778  0.6545
  702SOL    HW2 2807   2.215   0.468   0.750 -0.3729 -0.8313 -0.4872
  702SOL     MW 2808   2.160   0.413   0.792 -0.1414 -0.0739 -0.6543
  703SOL     OW 2809   2.729   1.218   0.959  0.0773 -0.1197 -0.0524
  703SOL    HW1 2810   2.682   1.205   0.874 -0.4587  0.9563 -0.3396
  703SOL    HW2 2811   2.731   1.138   1.010 -2.7290 -0.1237  0.5728
  703SOL     MW 2812   2.723   1.206   0.954 -0.3637  0.0217 -0.0078
  704SOL     OW 2813   3.055   1.222   0.112  0.2620 -0.3663  0.6260
  704SOL    HW1 2814   2.963   1.242   0.075  0.3710  0.0683 -2.0269
  704SOL    HW2 2815   3.038   1.236   0.207  1.3175  2.2991 -0.7558
  704SOL     MW 2816   3.041   1.226   0.119  0.4156  0.0427  0.0936
  705SOL     OW 2817   2.082   1.580   1.292 -0.3020  0.1583  0.6869
  705SOL    HW1 2818   2.070   1.655   1.350 -1.5637 -3.7601 -0.6495
  705SOL    HW2 2819   2.143   1.525   1.339 -2.5916  1.8532  2.4255
  705SOL     MW 2820   2.088   1.583   1.306 -0.7706 -0.1350  0.7400
  706SOL     OW 2821   2.970   1.264   0.673  0.3891 -0.4498 -0.3015
  706SOL    HW1 2822   3.021   1.262   0.587  1.1459  0.8557 -1.1775
  706SOL    HW2 2823   2.928   1.353   0.670  2.0680 -0.9675  0.0961
  706SOL     MW 2824   2.971   1.275   0.661  0.7105 -0.3459 -0.3646
  707SOL     OW 2825   2.365   0.034   0.979  0.5459  0.1061  0.0190
  707SOL    HW1 2826   2.397   0.121   0.945  0.4867  2.8860  0.1110
  707SOL    HW2 2827   2.273   0.020   0.942 -2.0694 -2.0449  0.7170
  707SOL     MW 2828   2.357   0.044   0.970  0.1930  0.1891  0.1233
  708SOL     OW 2829   2.449   1.389   0.176 -0.5535 -0.0194  0.2446
  708SOL    HW1 2830   2.541   1.366   0.162 -0.4385 -0.2517 -2.2718
  708SOL    HW2 2831   2.423   1.382   0.081 -2.1183 -2.3245  0.3799
  708SOL     MW 2832   2.458   1.385   0.161 -0.7448 -0.3542 -0.0696
  709SOL     OW 2833   1.717   1.601   0.224  0.3245 -0.2377  0.0392
  709SOL    HW1 2834   1.737   1.613   0.131  1.7900 -0.5218 -0.4147
  709SOL    HW2 2835   1.624   1.599   0.234  3.7595  1.2533  1.5639
  709SOL     MW 2836   1.708   1.602   0.213  0.9711 -0.0785  0.1805
  710SOL     OW 2837   2.148   1.185   1.161  0.1154 -0.4274  0.5005
  710SOL    HW1 2838   2.157   1.139   1.075  3.9869  0.4522  3.1117
  710SOL    HW2 2839   2.152   1.116   1.224  0.4352  0.5271  0.6067
  710SOL     MW 2840   2.150   1.170   1.158  0.6684 -0.1854  0.8590
  711SOL     OW 2841   2.385   0.184   1.775  0.6118  0.1297 -0.2992
  711SOL    HW1 2842   2.461   0.137   1.814  2.0108  0.4175  0.5254
  711SOL    HW2 2843   2.382   0.158   1.682 -1.6384 -1.9619 -1.9286
  711SOL     MW 2844   2.395   0.174   1.768  0.4995 -0.1083 -0.4054
  712SOL     OW 2845   1.901   0.615   0.008  0.0831 -0.3449  0.7228
  712SOL    HW1 2846   1.831   0.660  -0.042  0.9801 -0.7186 -0.2949
  712SOL    HW2 2847   1.933   0.679   0.073 -1.4828 -0.9431 -1.2269
  712SOL     MW 2848   1.896   0.629   0.010 -0.0052 -0.4731  0.3313
  713SOL     OW 2849   2.528   0.701   1.086 -0.2032 -0.2356  0.1315
  713SOL    HW1 2850   2.551   0.674   1.179 -0.3335  0.0613  1.3812
  713SOL    HW2 2851   2.430   0.683   1.085 -2.1944  2.5956 -0.6697
  713SOL     MW 2852   2.518   0.695   1.098 -0.4831  0.1771  0.1906
  714SOL     OW 2853   2.229   0.199   2.009 -0.1233  0.5111 -0.4310
  714SOL    HW1 2854   2.287   0.155   2.069 -1.8509 -1.5972 -1.9646
  714SOL    HW2 2855   2.281   0.208   1.927 -1.0581  0.5048 -1.2540
  714SOL     MW 2856   2.243   0.194   2.006 -0.4746  0.2321 -0.7419
  715SOL     OW 2857   1.802   2.050   1.776 -0.0960 -0.0455  0.3659
  715SOL    HW1 2858   1.889   2.072   1.750 -0.4319  1.6419 -0.8147
  715SOL    HW2 2859   1.801   1.960   1.824 -1.6511 -0.4122 -0.7322
  715SOL     MW 2860   1.813   2.041   1.779 -0.3455  0.1288  0.0653
  716SOL     OW 2861   2.353   0.540   0.661 -0.5656  0.2799 -0.0734
  716SOL    HW1 2862   2.408   0.465   0.631 -0.7252 -0.3785  1.7704
  716SOL    HW2 2863   2.289   0.560   0.587 -0.0436 -2.5882  2.1496
  716SOL     MW 2864   2.352   0.532   0.647 -0.5178 -0.1854  0.4632
  717SOL     OW 2865   2.820   1.568   2.869  0.5146 -0.4146  0.0147
  717SOL    HW1 2866   2.904   1.575   2.907 -2.0264  0.4014 -0.0820
  717SOL    HW2 2867   2.792   1.650   2.896 -0.9559 -0.4833 -1.9155
  717SOL     MW 2868   2.827   1.580   2.878 -0.0147 -0.3160 -0.2527
  718SOL     OW 2869   2.657   1.356   1.315  0.0452 -0.3943  0.1771
  718SOL    HW1 2870   2.644   1.379   1.405 -1.5053  1.1031 -1.0004
  718SOL    HW2 2871   2.735   1.306   1.313  1.0444  0.6531  0.6554
  718SOL     MW 2872   2.666   1.353   1.327 -0.0275 -0.0585  0.0849
  719SOL     OW 2873   2.195   1.273   0.583 -0.5615 -0.1739 -0.0345
  719SOL    HW1 2874   2.271   1.319   0.564 -1.2874  0.8702 -0.7869
  719SOL    HW2 2875   2.157   1.341   0.647 -3.0823  2.0225  0.7807
  719SOL     MW 2876   2.200   1.288   0.589 -0.9899  0.2536 -0.0262
  720SOL     OW 2877   2.799   1.210   0.031  0.2000  0.2229 -0.1136
  720SOL    HW1 2878   2.821   1.128   0.083 -2.0556 -0.5031 -0.1284
  720SOL    HW2 2879   2.781   1.273   0.103  0.0165 -0.6790  0.0832
  720SOL     MW 2880   2.800   1.207   0.047 -0.1218  0.0081 -0.0896
  721SOL     OW 2881   2.469   0.848   1.351 -0.0553  0.0293  0.0689
  721SOL    HW1 2882   2.441   0.760   1.366 -1.8503  0.3958 -0.2809
  721SOL    HW2 2883   2.537   0.861   1.420  0.4460 -0.7190 -3.9157
  721SOL     MW 2884   2.474   0.838   1.362 -0.2260 -0.0211 -0.5030
  722SOL     OW 2885   2.594   1.139   0.363  0.7883 -0.4239  0.6585
  722SOL    HW1 2886   2.529   1.209   0.392 -0.2728 -3.0834 -1.6911
  722SOL    HW2 2887   2.653   1.122   0.437 -0.3079  0.3172 -3.0435
  722SOL     MW 2888   2.593   1.146   0.376  0.5037 -0.6770 -0.1399
  723SOL     OW 2889   2.299   1.348   1.590 -0.5338  0.7048 -0.5056
  723SOL    HW1 2890   2.280   1.335   1.493 -0.0675  0.4009 -0.9829
  723SOL    HW2 2891   2.228   1.406   1.624 -0.7320  3.9727  1.6398
  723SOL     MW 2892   2.287   1.354   1.581 -0.4984  1.0959 -0.2855
  724SOL     OW 2893   2.486   0.310   0.611  0.0472 -0.3134  0.1352
  724SOL    HW1 2894   2.472   0.276   0.702  1.6463 -1.3790  0.4291
  724SOL    HW2 2895   2.575   0.288   0.589  0.7217  0.2072 -1.6443
  724SOL     MW 2896   2.496   0.303   0.620  0.3472 -0.3853 -0.0608
  725SOL     OW 2897   2.629   0.415   1.243 -0.0387 -0.2516 -0.0420
  725SOL    HW1 2898   2.699   0.477   1.273  1.8920  1.8490 -2.0069
  725SOL    HW2 2899   2.639   0.345   1.308  2.9517  2.1573  0.7485
  725SOL     MW 2900   2.639   0.414   1.256  0.6106  0.3434 -0.1969
  726SOL     OW 2901   2.520   2.509   0.494 -0.1745 -0.3996 -0.3502
  726SOL    HW1 2902   2.488   2.596   0.475 -0.7798  0.0718  1.8980
  726SOL    HW2 2903   2.526   2.509   0.589  1.4470 -1.3116  0.5839
  726SOL     MW 2904   2.517   2.520   0.504 -0.0404 -0.4578  0.0697
  727SOL     OW 2905   2.850   0.311   1.748  0.6858 -0.3715 -0.1258
  727SOL    HW1 2906   2.799   0.311   1.665  1.5001  0.9156  1.1958
  727SOL    HW2 2907   2.789   0.288   1.816 -2.0163  0.0079  0.6412
  727SOL     MW 2908   2.836   0.308   1.746  0.4367 -0.1516  0.1498
  728SOL     OW 2909   2.833   1.185   2.850  0.1994  0.1553 -0.1993
  728SOL    HW1 2910   2.812   1.243   2.780  0.4906  0.6168 -0.2083
  728SOL    HW2 2911   2.832   1.240   2.931  0.5960 -1.0652 -0.4150
  728SOL     MW 2912   2.830   1.200   2.851  0.2901  0.0551 -0.2290
  729SOL     OW 2913   2.504   1.493   1.114  0.2505  0.3195 -0.8610
  729SOL    HW1 2914   2.577   1.439   1.138 -2.1459 -0.7343 -0.3224
  729SOL    HW2 2915   2.494   1.495   1.017 -0.3798  1.1251  0.0313
  729SOL     MW 2916   2.512   1.486   1.105 -0.1489  0.2867 -0.6722
  730SOL     OW 2917   2.196   1.170   0.236 -0.3687  0.5091 -0.8955
  730SOL    HW1 2918   2.261   1.099   0.208 -0.1539 -0.9695  3.3365
  730SOL    HW2 2919   2.245   1.256   0.237 -0.4927 -0.4658 -1.4013
  730SOL     MW 2920   2.211   1.172   0.233 -0.3567  0.1854 -0.4039
  731SOL     OW 2921   2.750   2.103   2.872 -0.3536 -0.0065 -0.0283
  731SOL    HW1 2922   2.701   2.054   2.801  1.4570  0.0696 -0.6848
  731SOL    HW2 2923   2.839   2.094   2.836 -0.0368 -0.9419  0.0702
  731SOL     MW 2924   2.755   2.096   2.858 -0.0729 -0.1199 -0.1019
  732SOL     OW 2925   2.214   0.975   1.367  0.0405  0.2607  0.2348
  732SOL    HW1 2926   2.201   0.931   1.448  0.1739 -0.9285  1.3076
  732SOL    HW2 2927   2.308   0.989   1.344 -0.5962  0.0257 -0.1673
  732SOL     MW 2928   2.225   0.971   1.374 -0.0259  0.0728  0.3233
  733SOL     OW 2929   2.396   2.812   3.027 -0.4954  0.5535  0.0331
  733SOL    HW1 2930   2.315   2.851   3.063  0.8131  0.1276 -0.7150
  733SOL    HW2 2931   2.372   2.717   3.032 -1.1817  0.6339 -1.7043
  733SOL     MW 2932   2.382   2.804   3.032 -0.4133  0.5079 -0.2948
  734SOL     OW 2933   1.574   0.251   2.538  0.3630  0.1433  0.0724
  734SOL    HW1 2934   1.529   0.223   2.618  2.8009 -0.6833  1.7542
  734SOL    HW2 2935   1.552   0.189   2.467  2.0692 -1.6181  1.1194
  734SOL     MW 2936   1.565   0.239   2.539  0.9098 -0.1982  0.4325
  735SOL     OW 2937   3.003   0.956   2.694  0.1170  0.2445  0.0863
  735SOL    HW1 2938   2.987   0.859   2.678  1.8617 -0.4576 -0.8921
  735SOL    HW2 2939   3.007   0.957   2.789  0.6236 -2.6011 -0.0300
  735SOL     MW 2940   3.002   0.944   2.705  0.4140 -0.2236 -0.0581
  736SOL     OW 2941   0.123   0.606   2.610 -0.0644 -0.0951 -0.0530
  736SOL    HW1 2942   0.125   0.665   2.530  0.0173 -0.5950 -1.4445
  736SOL    HW2 2943   0.132   0.515   2.574  0.7088 -0.8845  1.1585
  736SOL     MW 2944   0.124   0.602   2.595  0.0484 -0.2652 -0.0767
  737SOL     OW 2945   2.965   0.682   2.606  0.5505 -0.2442  0.1282
  737SOL    HW1 2946   2.916   0.631   2.534  0.5124 -1.4473 -1.6680
  737SOL    HW2 2947   3.057   0.669   2.590 -1.5656 -0.9785 -1.1967
  737SOL     MW 2948   2.971   0.674   2.595  0.2662 -0.4999 -0.2836
  738SOL     OW 2949   0.173   0.539   1.885 -0.8432 -0.1664  0.2375
  738SOL    HW1 2950   0.264   0.586   1.880  0.3826 -0.2775  1.9198
  738SOL    HW2 2951   0.173   0.483   1.804  1.4889 -1.3186 -0.8815
  738SOL     MW 2952   0.185   0.538   1.873 -0.3738 -0.3331  0.3118
  739SOL     OW 2953   2.469   1.006   2.075  0.4860  0.3764 -0.2830
  739SOL    HW1 2954   2.455   0.913   2.044 -2.2397 -1.0038 -0.3219
  739SOL    HW2 2955   2.531   1.040   2.009  2.6656 -1.5495 -1.4060
  739SOL     MW 2956   2.475   0.998   2.062  0.4140 -0.0598 -0.4363
  740SOL     OW 2957   0.104   1.865   2.939 -0.7904  0.3000 -0.4612
  740SOL    HW1 2958   0.079   1.773   2.936 -0.9953  1.0723 -0.9369
  740SOL    HW2 2959   0.197   1.866   2.975 -0.4100  1.3736 -2.3631
  740SOL     MW 2960   0.113   1.853   2.943 -0.7672  0.5435 -0.7749
  741SOL     OW 2961   2.264   1.183   2.720  0.0097 -0.5111 -0.0152
  741SOL    HW1 2962   2.226   1.250   2.667 -1.5015 -0.7739  1.7474
  741SOL    HW2 2963   2.218   1.171   2.802 -0.4749 -1.2834  2.3254
  741SOL     MW 2964   2.253   1.191   2.724 -0.2536 -0.6477  0.5262
  742SOL     OW 2965   1.697   1.241   2.224 -0.4181 -0.4660  0.2013
  742SOL    HW1 2966   1.614   1.192   2.213 -0.3139 -0.8915 -1.6650
  742SOL    HW2 2967   1.689   1.272   2.315 -1.4351 -2.2548  1.8174
  742SOL     MW 2968   1.685   1.238   2.235 -0.5386 -0.7582  0.1683
  743SOL     OW 2969   2.534   1.249   2.686  0.1325  0.0958  0.0502
  743SOL    HW1 2970   2.441   1.233   2.704  0.8741  2.8231  0.2747
  743SOL    HW2 2971   2.557   1.167   2.727  0.3951  3.0752 -0.1044
  743SOL     MW 2972   2.524   1.236   2.694  0.2650  0.8487  0.0594
  744SOL     OW 2973   2.781   0.944   1.862 -0.2777 -0.5206 -0.0544
  744SOL    HW1 2974   2.714   1.013   1.872  1.7186  2.1678  0.3652
  744SOL    HW2 2975   2.734   0.895   1.795 -1.6135  0.9670 -0.6925
  744SOL     MW 2976   2.766   0.947   1.854 -0.1906  0.0304 -0.0832
  745SOL     OW 2977   1.691   0.506   2.464 -0.1943  0.3329 -0.1986
  745SOL    HW1 2978   1.693   0.493   2.368  3.1816  0.0060 -0.3844
  745SOL    HW2 2979   1.636   0.441   2.514 -1.2829  1.7107  0.1352
  745SOL     MW 2980   1.684   0.495   2.458  0.1075  0.4715 -0.1791
  746SOL     OW 2981   1.585   1.434   1.637  0.2328 -0.0985  0.1536
  746SOL    HW1 2982   1.673   1.409   1.619 -2.8538 -0.2017 -0.1778
  746SOL    HW2 2983   1.573   1.426   1.731 -1.6633  0.6849 -1.0035
  746SOL     MW 2984   1.595   1.430   1.647 -0.4246 -0.0088 -0.0428
  747SOL     OW 2985   2.605   1.161   1.821  0.1043  0.4156 -0.3716
  747SOL    HW1 2986   2.517   1.131   1.788 -1.0038 -0.1171 -1.0645
  747SOL    HW2 2987   2.590   1.240   1.878  2.0580 -1.2333  2.7341
  747SOL     MW 2988   2.591   1.167   1.824  0.2158  0.1278 -0.0533
  748SOL     OW 2989   0.086   0.024   1.876  0.3379  0.7586 -0.8483
  748SOL    HW1 2990   0.170   0.075   1.870 -1.9466  0.4524 -1.7066
  748SOL    HW2 2991   0.042   0.047   1.962 -1.4567  1.2113  0.5778
  748SOL     MW 2992   0.091   0.034   1.886 -0.2003  0.7779 -0.7734
  749SOL     OW 2993   2.464   0.608   2.731 -0.1435 -0.2512 -0.1557
  749SOL    HW1 2994   2.501   0.676   2.673 -0.0197  2.5256  0.6332
  749SOL    HW2 2995   2.502   0.639   2.811  1.1030 -1.7193  1.6134
  749SOL     MW 2996   2.474   0.621   2.734  0.0373 -0.0785  0.1818
  750SOL     OW 2997   2.049   3.082   1.982 -0.1744 -0.4261 -0.1745
  750SOL    HW1 2998   2.102   3.155   2.010  0.7128 -1.9830 -0.9392
  750SOL    HW2 2999   2.110   3.011   2.004  1.9112  0.3714  0.6083
  750SOL     MW 3000   2.064   3.082   1.989  0.2178 -0.5263 -0.1721
  751SOL     OW 3001   0.120   0.354   2.453  0.1097 -0.8382  0.9872
  751SOL    HW1 3002   0.095   0.273   2.498  0.3251 -1.3447  1.7301
  751SOL    HW2 3003   0.187   0.331   2.390  0.5770 -1.2511 -1.7615
  751SOL     MW 3004   0.125   0.340   2.451  0.1998 -0.9595  0.7225
  752SOL     OW 3005   2.087   0.753   2.728  0.1384 -0.0802 -0.0550
  752SOL    HW1 3006   2.154   0.806   2.679  0.5370  0.6480 -1.4855
  752SOL    HW2 3007   2.100   0.769   2.822 -1.2315 -0.2165  1.5437
  752SOL     MW 3008   2.098   0.762   2.734  0.0102 -0.0021 -0.0328
  753SOL     OW 3009   2.898   0.214   2.411 -0.2096 -0.2908 -0.6064
  753SOL    HW1 3010   2.848   0.138   2.378  2.0650  0.5680  0.7699
  753SOL    HW2 3011   2.859   0.292   2.379  1.0915  0.2773 -0.7384
  753SOL     MW 3012   2.886   0.214   2.402  0.2622 -0.1026 -0.4422
  754SOL     OW 3013   2.223   2.979   2.574 -0.2351 -0.3844 -0.2554
  754SOL    HW1 3014   2.261   2.960   2.484  0.2654  0.3635 -0.9775
  754SOL    HW2 3015   2.298   2.939   2.631 -2.7660 -0.9658 -1.1225
  754SOL     MW 3016   2.238   2.971   2.569 -0.5030 -0.3624 -0.4651
  755SOL     OW 3017   2.698   1.520   2.458  0.0725 -0.2735 -0.3110
  755SOL    HW1 3018   2.712   1.443   2.509 -2.2902  1.3834 -1.7754
  755SOL    HW2 3019   2.749   1.592   2.505  0.6391  0.0034 -2.9099
  755SOL     MW 3020   2.707   1.519   2.471 -0.1645 -0.0183 -0.8471
  756SOL     OW 3021   2.164   1.216   3.008  0.3618 -0.2417 -0.4056
  756SOL    HW1 3022   2.252   1.265   3.007 -1.3800  0.9007  0.9694
  756SOL    HW2 3023   2.178   1.161   3.088  0.2120  1.1424  2.8900
  756SOL     MW 3024   2.177   1.215   3.019  0.1122  0.0916  0.2107
  757SOL     OW 3025   2.131   0.889   1.608  0.9763  0.0560  0.1163
  757SOL    HW1 3026   2.163   0.800   1.606  0.7781  1.3073 -0.1235
  757SOL    HW2 3027   2.045   0.891   1.554 -0.0015  0.4128  0.0004
  757SOL     MW 3028   2.124   0.878   1.601  0.8211  0.2682  0.0693
  758SOL     OW 3029   2.229   1.846   2.619 -0.2104  0.3587  0.4362
  758SOL    HW1 3030   2.191   1.860   2.525 -1.0421  1.0371 -2.4882
  758SOL    HW2 3031   2.321   1.817   2.622 -1.2194  0.0020  3.5144
  758SOL     MW 3032   2.236   1.844   2.607 -0.4532  0.4012  0.4565
  759SOL     OW 3033   1.567   1.331   2.694 -0.4824 -0.8979  0.0111
  759SOL    HW1 3034   1.567   1.419   2.647  2.5796  0.1043 -2.6215
  759SOL    HW2 3035   1.621   1.344   2.774  2.0332 -1.6324 -1.5631
  759SOL     MW 3036   1.574   1.344   2.698  0.2535 -0.8626 -0.5439
  760SOL     OW 3037   2.549   1.987   2.711 -0.6054  0.3119  0.2431
  760SOL    HW1 3038   2.569   1.901   2.675  0.0701  2.0820 -2.1424
  760SOL    HW2 3039   2.541   2.047   2.631  0.6704 -2.8001  0.1751
  760SOL     MW 3040   2.551   1.984   2.696 -0.3480  0.1349 -0.0806
  761SOL     OW 3041   2.131   0.341   2.459  0.0141  0.2862  0.9429
  761SOL    HW1 3042   2.101   0.249   2.471 -2.7970 -0.8396 -0.3191
  761SOL    HW2 3043   2.164   0.374   2.543 -1.2563 -0.8788 -0.4575
  761SOL     MW 3044   2.132   0.333   2.472 -0.5244 -0.0161  0.5916
  762SOL     OW 3045   3.095   0.164   2.112  0.0633  0.0204  0.2775
  762SOL    HW1 3046   3.102   0.095   2.183 -1.8023 -3.7088  0.0783
  762SOL    HW2 3047   3.086   0.251   2.143  0.6844 -1.7630 -2.0588
  762SOL     MW 3048   3.095   0.166   2.125 -0.1009 -0.7069 -0.0570
  763SOL     OW 3049   2.343   1.024   2.348 -0.4232  0.3518  0.4004
  763SOL    HW1 3050   2.383   0.996   2.264 -0.4049  1.5470 -0.3204
  763SOL    HW2 3051   2.392   1.111   2.370  1.0549  2.2444  1.2794
  763SOL     MW 3052   2.355   1.032   2.339 -0.2258  0.7592  0.4212
  764SOL     OW 3053   0.527   0.235   2.793  0.2363  0.3190  0.2533
  764SOL    HW1 3054   0.436   0.207   2.772 -2.6342 -0.6269 -0.1076
  764SOL    HW2 3055   0.505   0.318   2.834 -2.4194  0.0867  1.1808
  764SOL     MW 3056   0.512   0.242   2.796 -0.4928  0.1635  0.3281
  765SOL     OW 3057   2.750   3.094   2.357 -0.2533 -0.1131 -0.2355
  765SOL    HW1 3058   2.688   3.076   2.281  2.2105 -0.3832 -0.6274
  765SOL    HW2 3059   2.815   3.023   2.343  1.1960  1.4077  2.6768
  765SOL     MW 3060   2.751   3.082   2.345  0.2630  0.0519  0.0971
  766SOL     OW 3061   1.857   2.970   2.166 -0.5481 -0.0982  0.1159
  766SOL    HW1 3062   1.900   3.020   2.098  1.6949  1.4702  0.1136
  766SOL    HW2 3063   1.782   2.923   2.121 -0.4498  2.4652 -1.5844
  766SOL     MW 3064   1.853   2.970   2.151 -0.2392  0.4470 -0.1087
  767SOL     OW 3065   2.687   0.566   2.071  0.3455  0.6164  0.6712
  767SOL    HW1 3066   2.709   0.655   2.101 -2.5890  0.1747  1.1460
  767SOL    HW2 3067   2.592   0.580   2.039 -0.4033  0.6545  1.2218
  767SOL     MW 3068   2.677   0.580   2.071 -0.1405  0.5631  0.8065
  768SOL     OW 3069   3.092   1.599   2.934  0.1388 -0.3059 -1.0692
  768SOL    HW1 3070   3.109   1.592   3.030  1.0897 -0.2218  0.5727
  768SOL    HW2 3071   3.119   1.519   2.908 -2.3005 -2.1457 -0.4992
  768SOL     MW 3072   3.098   1.588   2.943 -0.0576 -0.5375 -0.7774
  769SOL     OW 3073   2.443   0.703   2.332 -0.0624 -0.0810  0.3986
  769SOL    HW1 3074   2.355   0.669   2.330  0.6630 -3.7486 -1.8113
  769SOL    HW2 3075   2.433   0.780   2.277 -0.4106  2.4640  2.1574
  769SOL     MW 3076   2.430   0.709   2.324 -0.0126 -0.2291  0.3391
  770SOL     OW 3077   0.042   1.588   2.610 -0.6436  0.0361  0.1048
  770SOL    HW1 3078  -0.052   1.573   2.608  2.7648  1.9932 -1.6012
  770SOL    HW2 3079   0.076   1.518   2.673  0.2466  0.3147  1.4487
  770SOL     MW 3080   0.034   1.576   2.618 -0.0764  0.3311  0.0570
  771SOL     OW 3081   3.083   0.648   2.037  0.0494 -0.2189  0.0157
  771SOL    HW1 3082   3.004   0.632   1.985 -0.9910  3.3167 -0.3587
  771SOL    HW2 3083   3.161   0.601   1.987  1.4254 -1.5324  2.0134
  771SOL     MW 3084   3.083   0.640   2.024  0.0937  0.0743  0.2299
  772SOL     OW 3085   0.049   3.085   2.307  0.7959  0.2826  0.3031
  772SOL    HW1 3086  -0.026   3.031   2.305  0.1091  0.7486 -1.0953
  772SOL    HW2 3087   0.103   3.047   2.237 -1.1853 -1.7059 -2.0564
  772SOL     MW 3088   0.046   3.073   2.297  0.4439  0.0818 -0.1928
  773SOL     OW 3089   2.392   2.862   2.759 -0.2091  0.1041  0.3280
  773SOL    HW1 3090   2.415   2.783   2.703  1.1457 -0.2352 -1.0894
  773SOL    HW2 3091   2.373   2.839   2.848 -1.3562  2.0073 -0.7039
  773SOL     MW 3092   2.392   2.848   2.763 -0.1817  0.3104  0.0048
  774SOL     OW 3093   2.320   1.095   1.735  0.5159 -0.2852  0.1952
  774SOL    HW1 3094   2.296   1.174   1.686 -1.5221 -0.7459 -1.2029
  774SOL    HW2 3095   2.290   1.021   1.689 -0.2338 -1.2052 -0.3997
  774SOL     MW 3096   2.313   1.095   1.723  0.1481 -0.4674 -0.0677
  775SOL     OW 3097   2.296   2.904   2.333  0.3279  0.2597  0.6978
  775SOL    HW1 3098   2.305   2.986   2.279  0.8758  1.4535  1.6841
  775SOL    HW2 3099   2.358   2.837   2.309  0.5533  0.6034 -0.2548
  775SOL     MW 3100   2.306   2.906   2.323  0.4299  0.4626  0.7023
  776SOL     OW 3101   0.067   1.489   0.096 -0.0704 -0.1469  0.0815
  776SOL    HW1 3102   0.154   1.449   0.107 -2.0252  1.0219 -0.4036
  776SOL    HW2 3103  -0.001   1.417   0.097 -0.9550 -2.6560  2.7347
  776SOL     MW 3104   0.069   1.474   0.098 -0.4450 -0.3238  0.3675
  777SOL     OW 3105   2.952   1.117   1.747 -0.0965 -1.0156  0.4291
  777SOL    HW1 3106   2.891   1.142   1.680  1.9842 -1.2925 -0.0229
  777SOL    HW2 3107   2.911   1.051   1.799 -1.1896  0.3750  1.3565
  777SOL     MW 3108   2.938   1.112   1.745  0.0338 -0.8687  0.4918
  778SOL     OW 3109   2.892   0.496   2.810 -0.3850  0.5617 -0.7092
  778SOL    HW1 3110   2.840   0.518   2.894  0.6999  0.2728 -1.8325
  778SOL    HW2 3111   2.926   0.575   2.770  2.3042 -1.3721  1.3716
  778SOL     MW 3112   2.889   0.509   2.816  0.1130  0.2684 -0.5828
  779SOL     OW 3113   2.165   0.587   2.346  0.0321 -0.0181  0.1011
  779SOL    HW1 3114   2.093   0.646   2.386 -0.2994 -0.6178  0.2552
  779SOL    HW2 3115   2.156   0.500   2.384  1.1719  0.3270 -4.5247
  779SOL     MW 3116   2.155   0.583   2.356  0.1388 -0.0517 -0.4889
  780SOL     OW 3117   0.261   0.137   2.796  0.0165 -0.1248 -0.2750
  780SOL    HW1 3118   0.189   0.163   2.859  1.7197  1.3411  0.6312
  780SOL    HW2 3119   0.217   0.108   2.716  1.2231  0.8898 -1.5521
  780SOL     MW 3120   0.246   0.136   2.794  0.4004  0.2025 -0.3239
  781SOL     OW 3121   3.063   1.288   2.517 -0.0799 -0.0355 -0.0670
  781SOL    HW1 3122   3.045   1.353   2.448  1.6718  0.3438 -0.8230
  781SOL    HW2 3123   3.099   1.209   2.471  2.8537  0.9090 -0.3520
  781SOL     MW 3124   3.066   1.286   2.502  0.5383  0.1392 -0.2043
  782SOL     OW 3125   0.519   1.622   3.003  0.2300  0.3509  0.1368
  782SOL    HW1 3126   0.478   1.706   3.022 -1.4195  1.9251 -0.4001
  782SOL    HW2 3127   0.529   1.580   3.094 -0.9963 -2.9887  3.2875
  782SOL     MW 3128   0.515   1.627   3.017 -0.1494  0.1180  0.4817
  783SOL     OW 3129   2.799   0.516   2.466 -0.0714  0.7315  0.0782
  783SOL    HW1 3130   2.751   0.481   2.385  0.2383 -1.6744  1.7428
  783SOL    HW2 3131   2.765   0.457   2.538  1.5859 -1.1081 -2.3167
  783SOL     MW 3132   2.788   0.504   2.465  0.1881  0.1714 -0.0181
  784SOL     OW 3133   0.249   0.921   2.892  0.2909  0.0835 -0.2667
  784SOL    HW1 3134   0.225   0.993   2.961 -0.2751 -1.1452 -2.7003
  784SOL    HW2 3135   0.238   0.971   2.807  2.6032  1.0934 -0.7744
  784SOL     MW 3136   0.244   0.937   2.890  0.5213  0.0546 -0.6548
  785SOL     OW 3137   0.423   0.499   2.140 -0.3962 -0.2340 -0.3175
  785SOL    HW1 3138   0.426   0.553   2.053 -2.6488  1.2705 -0.9641
  785SOL    HW2 3139   0.350   0.436   2.141 -1.4933 -0.4152  0.0541
  785SOL     MW 3140   0.414   0.498   2.128 -0.8382 -0.0594 -0.3538
  786SOL     OW 3141   1.978   0.453   2.844 -0.8129 -0.7159 -0.2731
  786SOL    HW1 3142   1.982   0.468   2.937  0.0452  0.7482  2.2594
  786SOL    HW2 3143   2.067   0.459   2.827 -1.5885  1.0856  0.4620
  786SOL     MW 3144   1.990   0.456   2.854 -0.8020 -0.2851  0.1580
  787SOL     OW 3145   2.423   0.131   2.882 -0.2912  0.5859  0.2046
  787SOL    HW1 3146   2.479   0.051   2.849 -0.5544  1.2324 -1.0533
  787SOL    HW2 3147   2.482   0.191   2.936 -1.4035 -1.6122 -0.5089
  787SOL     MW 3148   2.438   0.129   2.884 -0.4727  0.3812 -0.0555
  788SOL     OW 3149   2.944   2.903   2.282  0.1651  0.5555 -0.5974
  788SOL    HW1 3150   2.946   2.849   2.199 -1.9870  2.1432 -0.4311
  788SOL    HW2 3151   2.980   2.844   2.345 -1.4385 -1.9842 -2.3641
  788SOL     MW 3152   2.949   2.888   2.279 -0.3304  0.4299 -0.8085
  789SOL     OW 3153   0.066   0.220   2.981 -0.4229  0.2409  0.5078
  789SOL    HW1 3154  -0.014   0.202   3.036 -0.4929 -0.4842 -1.6414
  789SOL    HW2 3155   0.064   0.316   2.981  1.0347  2.2339 -0.2085
  789SOL     MW 3156   0.055   0.230   2.988 -0.2399  0.4082  0.1297
  790SOL     OW 3157   0.029   1.015   2.438  0.0646  0.6254  0.5468
  790SOL    HW1 3158  -0.029   1.008   2.511 -0.7439 -1.6189 -1.7334
  790SOL    HW2 3159  -0.035   1.029   2.368  1.6311 -1.8354 -0.6654
  790SOL     MW 3160   0.013   1.016   2.438  0.1646  0.0046  0.0860
  791SOL     OW 3161   2.687   0.386   2.670 -0.4568 -0.1158 -0.2329
  791SOL    HW1 3162   2.608   0.436   2.690  2.2689 -1.7322  0.1296
  791SOL    HW2 3163   2.755   0.415   2.732 -0.6199 -0.8834 -2.6278
  791SOL     MW 3164   2.686   0.396   2.681 -0.1187 -0.4303 -0.5011
  792SOL     OW 3165   2.421   0.236   2.378 -0.1736 -0.2247  0.6636
  792SOL    HW1 3166   2.338   0.278   2.415 -1.1244  1.5029  0.8966
  792SOL    HW2 3167   2.479   0.196   2.453  0.5029  1.1867  1.4161
  792SOL     MW 3168   2.418   0.236   2.392 -0.2098  0.1894  0.7936
  793SOL     OW 3169   1.759   1.008   1.904  0.1200 -0.1178 -0.3060
  793SOL    HW1 3170   1.759   1.064   1.818 -0.3561  3.5453 -0.4845
  793SOL    HW2 3171   1.841   0.957   1.897 -0.2475  1.0408 -0.7695
  793SOL     MW 3172   1.770   1.009   1.892  0.0087  0.5184 -0.3907
  794SOL     OW 3173   1.419   2.268   0.106  0.2561  0.6266  0.3445
  794SOL    HW1 3174   1.417   2.353   0.064  1.1406  0.2407  2.4067
  794SOL    HW2 3175   1.449   2.291   0.193  0.5956  2.3052  1.7190
  794SOL     MW 3176   1.423   2.282   0.112  0.4176  0.7972  0.7980
  795SOL     OW 3177   2.241   0.936   2.599  0.6328 -0.0545  0.6025
  795SOL    HW1 3178   2.240   1.013   2.658  0.2674 -0.5134  2.0037
  795SOL    HW2 3179   2.259   0.973   2.514  0.0994  2.1062 -0.0810
  795SOL     MW 3180   2.244   0.951   2.596  0.5142  0.1701  0.6972
  796SOL     OW 3181   0.348   0.683   2.731 -0.0188 -0.1119  0.2462
  796SOL    HW1 3182   0.313   0.758   2.780  1.7771 -0.6714 -0.0765
  796SOL    HW2 3183   0.264   0.651   2.688  2.2808 -0.9400  1.6479
  796SOL     MW 3184   0.333   0.689   2.732  0.5215 -0.2950  0.3886
  797SOL     OW 3185   2.580   0.111   2.557 -0.2460  0.0973 -0.4925
  797SOL    HW1 3186   2.625   0.172   2.616  0.0025  1.1764  3.8025
  797SOL    HW2 3187   2.645   0.069   2.497  0.2173  2.4292 -1.0641
  797SOL     MW 3188   2.594   0.114   2.557 -0.1521  0.5473 -0.0012
  798SOL     OW 3189   2.332   0.034   2.205  0.4125 -0.4467  0.1892
  798SOL    HW1 3190   2.377   0.096   2.273 -2.2955 -1.4701  1.4646
  798SOL    HW2 3191   2.411   0.007   2.149  0.8548 -0.4990 -2.0293
  798SOL     MW 3192   2.349   0.039   2.207  0.1136 -0.5886  0.0648
  799SOL     OW 3193   2.477   2.906   0.191  0.2250 -0.2697  0.1543
  799SOL    HW1 3194   2.478   2.851   0.112 -0.3358 -1.8892 -0.9872
  799SOL    HW2 3195   2.414   2.975   0.181  3.2080  1.0955  1.2979
  799SOL     MW 3196   2.469   2.908   0.179  0.5446 -0.3032  0.1546
  800SOL     OW 3197   1.877   3.068   1.773  0.5514  0.5403 -0.0663
  800SOL    HW1 3198   1.817   2.995   1.784  0.9550 -0.8450 -0.7905
  800SOL    HW2 3199   1.940   3.059   1.847 -0.4592 -1.6416  1.8099
  800SOL     MW 3200   1.877   3.057   1.784  0.4713  0.0696  0.0857
  801SOL     OW 3201   2.806   1.320   2.619 -0.3818 -0.4778 -0.4090
  801SOL    HW1 3202   2.761   1.233   2.597 -0.7320  0.0134  1.9662
  801SOL    HW2 3203   2.895   1.302   2.588  1.0384  0.8673  0.3043
  801SOL     MW 3204   2.812   1.306   2.612 -0.2406 -0.2355 -0.0015
  802SOL     OW 3205   2.562   1.486   2.816 -0.6436 -0.6189 -0.5903
  802SOL    HW1 3206   2.591   1.422   2.748 -0.0267  0.2190 -2.2591
  802SOL    HW2 3207   2.651   1.508   2.848  3.1786 -0.2503  1.3742
  802SOL     MW 3208   2.578   1.480   2.811 -0.0579 -0.4597 -0.5513
  803SOL     OW 3209   2.331   1.279   1.941 -0.1761  0.5222  0.7836
  803SOL    HW1 3210   2.297   1.242   2.020 -2.5208  0.4636 -0.7452
  803SOL    HW2 3211   2.317   1.213   1.877  0.2371  1.0391 -1.9502
  803SOL     MW 3212   2.325   1.266   1.943 -0.4310  0.5827  0.2212
  804SOL     OW 3213   2.316   0.068   0.030  0.3846  0.3489  0.1604
  804SOL    HW1 3214   2.240   0.127   0.032  3.1858  0.3318  0.2428
  804SOL    HW2 3215   2.357   0.084  -0.057  0.2939 -0.1089  0.3192
  804SOL     MW 3216   2.312   0.078   0.019  0.7422  0.2862  0.1922
  805SOL     OW 3217   2.730   1.041   2.550  0.4336  0.0831 -0.6089
  805SOL    HW1 3218   2.655   0.977   2.553 -0.3373 -0.3190 -0.2753
  805SOL    HW2 3219   2.802   0.993   2.593  0.2745 -2.2780  1.7373
  805SOL     MW 3220   2.730   1.026   2.556  0.3109 -0.2814 -0.2553
  806SOL     OW 3221   2.639   0.408   2.275  0.0541 -0.3329  0.2559
  806SOL    HW1 3222   2.546   0.373   2.280 -0.3370  0.1948  1.7389
  806SOL    HW2 3223   2.636   0.480   2.207  2.7000  1.4805  2.1569
  806SOL     MW 3224   2.626   0.413   2.267  0.3516 -0.0240  0.7024
  807SOL     OW 3225   3.080   1.126   2.049 -0.6267  0.2391 -0.5694
  807SOL    HW1 3226   3.119   1.039   2.038  0.2060 -0.1117  0.8209
  807SOL    HW2 3227   3.010   1.111   2.115 -0.6662 -1.2667 -0.4789
  807SOL     MW 3228   3.076   1.113   2.056 -0.5221 -0.0059 -0.3740
  808SOL     OW 3229   2.589   3.054   2.772 -0.4643  0.3771  0.2175
  808SOL    HW1 3230   2.533   2.976   2.760  0.9657 -1.9571  1.7871
  808SOL    HW2 3231   2.580   3.105   2.685 -0.8883 -2.5104  1.1453
  808SOL     MW 3232   2.581   3.050   2.759 -0.3316 -0.3118  0.5470
  809SOL     OW 3233   2.488   1.235   2.417  0.2369 -0.0271  0.1263
  809SOL    HW1 3234   2.523   1.233   2.515  3.1982 -1.5505  1.1086
  809SOL    HW2 3235   2.565   1.228   2.357 -1.7998  1.9380 -3.9010
  809SOL     MW 3236   2.503   1.234   2.422  0.3589  0.0312 -0.2754
  810SOL     OW 3237   2.190   1.198   2.190  0.2246  0.4167  0.1368
  810SOL    HW1 3238   2.250   1.128   2.233  3.1726 -0.5064 -1.7167
  810SOL    HW2 3239   2.113   1.149   2.159  1.3978  0.3024 -3.5550
  810SOL     MW 3240   2.188   1.182   2.192  0.7684  0.2798 -0.5948
  811SOL     OW 3241   1.507   0.095   2.260 -0.9663  0.1118 -0.6987
  811SOL    HW1 3242   1.587   0.040   2.296 -3.4716 -0.5050  1.3270
  811SOL    HW2 3243   1.512   0.070   2.158 -3.3938  2.2973 -0.9731
  811SOL     MW 3244   1.519   0.084   2.251 -1.6171  0.3188 -0.4676
  812SOL     OW 3245   1.391   2.778   2.067  0.0283 -0.6219  0.1492
  812SOL    HW1 3246   1.486   2.761   2.062  2.4982  0.1642  3.2417
  812SOL    HW2 3247   1.382   2.757   2.160 -2.8057 -1.1193  0.0705
  812SOL     MW 3248   1.402   2.773   2.078 -0.0197 -0.5838  0.5468
  813SOL     OW 3249   1.825   0.808   2.187 -0.4499 -0.0232  0.0051
  813SOL    HW1 3250   1.795   0.720   2.195  1.2308 -0.8965  1.0683
  813SOL    HW2 3251   1.857   0.818   2.281 -0.6973  2.9978 -1.7560
  813SOL     MW 3252   1.825   0.798   2.200 -0.2608  0.2602 -0.0870
  814SOL     OW 3253   2.743   1.234   1.602  0.3004 -0.8497  0.4647
  814SOL    HW1 3254   2.695   1.208   1.687 -0.3620 -0.3689 -1.4889
  814SOL    HW2 3255   2.711   1.184   1.525 -0.9480 -0.7673 -0.6307
  814SOL     MW 3256   2.732   1.224   1.603  0.0483 -0.7754  0.0624
  815SOL     OW 3257   2.451   1.651   2.362 -0.5397 -1.2690 -0.1520
  815SOL    HW1 3258   2.396   1.581   2.330  2.7235 -0.6573  2.1962
  815SOL    HW2 3259   2.537   1.606   2.355 -2.0534 -0.4497  1.2522
  815SOL     MW 3260   2.455   1.636   2.357 -0.3089 -1.0802  0.3431
  816SOL     OW 3261   0.646   0.624   2.762 -0.5300  0.4948 -0.3079
  816SOL    HW1 3262   0.713   0.551   2.774 -2.7083  0.4897 -0.9513
  816SOL    HW2 3263   0.578   0.603   2.690 -0.6015  4.4477 -1.8069
  816SOL     MW 3264   0.646   0.611   2.754 -0.8268  1.0157 -0.5906
  817SOL     OW 3265   3.041   1.137   1.400  0.2352  0.5011 -0.1662
  817SOL    HW1 3266   3.088   1.146   1.485 -2.4479 -1.8011  0.5446
  817SOL    HW2 3267   3.050   1.221   1.351  0.1463 -1.6987 -1.0870
  817SOL     MW 3268   3.048   1.149   1.404 -0.1306 -0.0929 -0.1939
  818SOL     OW 3269   1.939   0.992   2.714  0.3162  0.0908 -0.5673
  818SOL    HW1 3270   1.978   1.005   2.625  1.9992  0.0865 -1.9853
  818SOL    HW2 3271   1.973   0.902   2.738 -2.5205 -1.4154 -2.8870
  818SOL     MW 3272   1.949   0.982   2.705  0.1640 -0.1085 -1.0604
  819SOL     OW 3273   1.830   0.236   2.354  0.1336  0.3706 -0.2825
  819SOL    HW1 3274   1.762   0.298   2.389 -2.3873  0.6721 -0.2106
  819SOL    HW2 3275   1.895   0.215   2.425  2.1883 -1.2291 -0.5642
  819SOL     MW 3276   1.830   0.241   2.368  0.0721  0.1993 -0.3102
  820SOL     OW 3277   2.489   1.712   2.640 -0.2050  0.2219 -0.2313
  820SOL    HW1 3278   2.516   1.635   2.690 -1.1035 -0.9683 -0.0542
  820SOL    HW2 3279   2.489   1.671   2.551 -1.5345 -4.9855 -1.5672
  820SOL     MW 3280   2.493   1.697   2.635 -0.4990 -0.6222 -0.3842
  821SOL     OW 3281   2.580   1.349   2.012 -0.2534 -0.2585  0.6454
  821SOL    HW1 3282   2.597   1.415   1.946 -1.0879 -2.4013 -0.8524
  821SOL    HW2 3283   2.488   1.324   1.996 -0.1044 -1.3139  0.6103
  821SOL     MW 3284   2.570   1.354   2.001 -0.3438 -0.6805  0.4432
  822SOL     OW 3285   2.860   2.684   1.400  0.1329  0.3878 -0.0549
  822SOL    HW1 3286   2.820   2.741   1.461  1.5126  0.6515 -2.9296
  822SOL    HW2 3287   2.878   2.736   1.320  0.8745 -1.5123  0.3526
  822SOL     MW 3288   2.857   2.698   1.398  0.4128  0.1719 -0.3804
  823SOL     OW 3289   2.274   0.468   1.757  0.1525  0.3808  0.1587
  823SOL    HW1 3290   2.356   0.437   1.715 -1.0293 -1.3897 -0.1599
  823SOL    HW2 3291   2.219   0.401   1.723  1.3125  1.8342 -2.4644
  823SOL     MW 3292   2.278   0.455   1.747  0.1496  0.3390 -0.2294
  824SOL     OW 3293   2.116   1.351   2.529 -0.0722 -0.2225  0.7215
  824SOL    HW1 3294   2.173   1.377   2.444 -2.1190  1.6783 -1.7644
  824SOL    HW2 3295   2.107   1.439   2.569  0.9433  2.4297 -1.1789
  824SOL     MW 3296   2.122   1.366   2.523 -0.2082  0.3782  0.1428
  825SOL     OW 3297   2.185   2.438   0.419  0.3623 -0.7438 -0.7652
  825SOL    HW1 3298   2.255   2.396   0.363 -0.3220 -3.0691  3.2069
  825SOL    HW2 3299   2.204   2.435   0.514 -0.5739  0.6072 -1.8599
  825SOL     MW 3300   2.197   2.432   0.424  0.1485 -0.8723 -0.3856
  826SOL     OW 3301   1.749   2.339   0.398 -0.3527 -0.2065 -0.4166
  826SOL    HW1 3302   1.751   2.293   0.485  1.2222 -1.2111  1.5846
  826SOL    HW2 3303   1.749   2.430   0.427 -2.2149 -3.0254  0.4975
  826SOL     MW 3304   1.749   2.345   0.414 -0.3906 -0.7110 -0.0320
  827SOL     OW 3305   1.948   2.285   0.909 -0.1820  0.5107  0.3031
  827SOL    HW1 3306   1.887   2.292   0.836 -0.7584 -0.4543  0.5917
  827SOL    HW2 3307   1.900   2.213   0.952 -2.7386 -0.5973 -4.4504
  827SOL     MW 3308   1.933   2.276   0.905 -0.5954  0.2372 -0.2860
  828SOL     OW 3309   0.081   2.624   0.573 -0.4840 -0.2687 -0.0737
  828SOL    HW1 3310   0.171   2.617   0.597  0.2899 -0.5436 -1.4245
  828SOL    HW2 3311   0.081   2.664   0.482  0.8534  2.0071 -0.6579
  828SOL     MW 3312   0.093   2.628   0.564 -0.2055 -0.0047 -0.3290
  829SOL     OW 3313   3.009   2.900   1.189 -0.1731 -0.2245  0.0482
  829SOL    HW1 3314   2.939   2.893   1.130  1.1518  2.0616  1.1021
  829SOL    HW2 3315   3.066   2.831   1.176 -1.5392  0.2577 -0.7689
  829SOL     MW 3316   3.008   2.890   1.180 -0.1785  0.1407  0.0794
  830SOL     OW 3317   2.548   2.781   2.001 -0.2447 -0.0750 -0.2655
  830SOL    HW1 3318   2.456   2.797   1.973  4.7471  0.3425 -0.1964
  830SOL    HW2 3319   2.591   2.777   1.912  0.0448  0.0662 -0.2436
  830SOL     MW 3320   2.542   2.783   1.986  0.4521 -0.0013 -0.2535
  831SOL     OW 3321   2.486   2.455   1.179 -0.1320 -0.1900 -0.1897
  831SOL    HW1 3322   2.452   2.388   1.232  0.0398 -0.8264 -0.4771
  831SOL    HW2 3323   2.582   2.437   1.159 -0.3692  0.1178  1.8225
  831SOL     MW 3324   2.494   2.444   1.183 -0.1406 -0.2333  0.0378
  832SOL     OW 3325   2.421   2.130   1.843 -0.2590  0.3414  0.7028
  832SOL    HW1 3326   2.456   2.215   1.867  1.9392 -2.4439  0.8529
  832SOL    HW2 3327   2.487   2.061   1.869  1.1179  0.8199  1.7504
  832SOL     MW 3328   2.434   2.132   1.850  0.2127  0.0371  0.8608
  833SOL     OW 3329   1.679   2.608   0.901 -0.5864 -0.2742  0.0237
  833SOL    HW1 3330   1.659   2.518   0.943  0.9960  1.3989 -3.7573
  833SOL    HW2 3331   1.596   2.657   0.913 -0.0659  0.7230 -1.1575
  833SOL     MW 3332   1.665   2.603   0.908 -0.3089  0.0781 -0.6310
  834SOL     OW 3333   2.256   2.355   0.674 -0.0391 -0.6688  0.6972
  834SOL    HW1 3334   2.231   2.266   0.691 -0.1922  2.8586  4.8394
  834SOL    HW2 3335   2.348   2.348   0.665  0.7528 -0.6820  0.0251
  834SOL     MW 3336   2.265   2.342   0.675  0.0452 -0.2051  1.1550
  835SOL     OW 3337   1.757   2.548   0.631 -0.9894 -0.1637 -0.2238
  835SOL    HW1 3338   1.724   2.539   0.722  1.0618 -3.3510 -1.3731
  835SOL    HW2 3339   1.842   2.504   0.616  0.4400  0.6784 -1.6487
  835SOL     MW 3340   1.764   2.541   0.641 -0.5302 -0.4731 -0.5634
  836SOL     OW 3341   2.040   2.131   1.667  0.3245 -0.5219  0.1930
  836SOL    HW1 3342   2.130   2.110   1.647 -0.4454  1.2846  0.7423
  836SOL    HW2 3343   2.044   2.226   1.684 -3.9044  0.3697  0.6908
  836SOL     MW 3344   2.053   2.140   1.667 -0.3351 -0.1659  0.3312
  837SOL     OW 3345   2.116   0.198   0.651 -0.1811  0.6253 -0.3102
  837SOL    HW1 3346   2.027   0.167   0.628 -0.1411 -2.2711 -2.3482
  837SOL    HW2 3347   2.170   0.141   0.587 -2.6483 -0.7520 -1.6904
  837SOL     MW 3348   2.111   0.186   0.640 -0.5013  0.0614 -0.7612
  838SOL     OW 3349   2.863   2.082   0.917 -0.2737 -0.2499 -0.5072
  838SOL    HW1 3350   2.798   2.010   0.934  0.1028 -2.4568 -0.4858
  838SOL    HW2 3351   2.906   2.086   1.002  0.8422  0.0769  0.1514
  838SOL     MW 3352   2.860   2.073   0.930 -0.0768 -0.4980 -0.4175
  839SOL     OW 3353   1.573   2.360   1.025 -0.0313  0.7383  0.5753
  839SOL    HW1 3354   1.520   2.422   1.089  0.8235 -1.0820  2.0982
  839SOL    HW2 3355   1.593   2.278   1.079  0.3570 -4.5897  0.5315
  839SOL     MW 3356   1.569   2.357   1.041  0.1327 -0.2049  0.7704
  840SOL     OW 3357   2.389   2.085   2.402  0.7948  0.3092 -0.3231
  840SOL    HW1 3358   2.311   2.140   2.374 -1.7863  0.3927 -0.8095
  840SOL    HW2 3359   2.435   2.142   2.467  0.5533 -0.8381  0.9068
  840SOL     MW 3360   2.385   2.100   2.407  0.4224  0.1688 -0.2251
  841SOL     OW 3361   2.324   2.376   0.075 -0.1260 -0.8731  0.2786
  841SOL    HW1 3362   2.337   2.456   0.020  0.7770 -0.3427 -0.0471
  841SOL    HW2 3363   2.257   2.330   0.024 -0.4708 -3.3774  1.6539
  841SOL     MW 3364   2.317   2.380   0.061 -0.0524 -1.1335  0.4171
  842SOL     OW 3365   2.673   1.943   1.410 -0.2931 -0.5721  0.2334
  842SOL    HW1 3366   2.609   1.874   1.402 -2.6516 -0.5288  2.9678
  842SOL    HW2 3367   2.663   2.011   1.337 -0.8095 -0.2102 -1.8121
  842SOL     MW 3368   2.663   1.943   1.399 -0.6724 -0.5186  0.3243
  843SOL     OW 3369   2.630   2.773   1.746  0.1695  0.2887  0.1139
  843SOL    HW1 3370   2.723   2.752   1.754 -1.9137 -1.6963 -1.8176
  843SOL    HW2 3371   2.583   2.693   1.724  0.9187  0.0538 -3.4807
  843SOL     MW 3372   2.636   2.760   1.745 -0.0065 -0.0042 -0.6152
  844SOL     OW 3373   2.733   2.339   1.133 -0.2934  0.0831 -0.5143
  844SOL    HW1 3374   2.777   2.368   1.058 -3.0444 -1.7058 -1.3678
  844SOL    HW2 3375   2.779   2.360   1.212 -0.5416 -1.9694 -1.6031
  844SOL     MW 3376   2.745   2.346   1.133 -0.6891 -0.4237 -0.7705
  845SOL     OW 3377   2.846   2.562   0.276  0.1084  0.0186 -0.0137
  845SOL    HW1 3378   2.830   2.475   0.313 -1.7647 -1.4407  1.9478
  845SOL    HW2 3379   2.841   2.625   0.348 -1.3523 -0.5238  0.3604
  845SOL     MW 3380   2.843   2.559   0.291 -0.3315 -0.2455  0.2944
  846SOL     OW 3381   1.448   2.827   0.792  0.0883 -0.7479 -0.2954
  846SOL    HW1 3382   1.514   2.899   0.808  0.6774  0.7864 -2.7649
  846SOL    HW2 3383   1.362   2.864   0.776 -1.4868 -0.9612 -0.7136
  846SOL     MW 3384   1.445   2.841   0.792 -0.0418 -0.5736 -0.6764
  847SOL     OW 3385   2.495   1.872   0.197 -0.5202  0.0713 -0.1135
  847SOL    HW1 3386   2.459   1.789   0.223 -1.8604  0.1406  1.9132
  847SOL    HW2 3387   2.478   1.884   0.104 -0.3382  0.2465  2.2170
  847SOL     MW 3388   2.488   1.863   0.188 -0.6730  0.1036  0.4614
  848SOL     OW 3389   2.617   2.095   1.190  1.1330  0.1055 -0.0739
  848SOL    HW1 3390   2.656   2.173   1.166  0.7462 -0.5399  2.7690
  848SOL    HW2 3391   2.652   2.028   1.128 -2.4153 -2.6513 -2.0017
  848SOL     MW 3392   2.627   2.096   1.179  0.6138 -0.3434  0.0469
  849SOL     OW 3393   1.982   2.850   0.801 -0.4073  0.1443 -0.1432
  849SOL    HW1 3394   1.950   2.815   0.890 -0.6736 -0.4163 -0.1902
  849SOL    HW2 3395   2.036   2.776   0.770  1.1884  0.1425  0.7220
  849SOL     MW 3396   1.985   2.836   0.809 -0.2319  0.0701 -0.0353
  850SOL     OW 3397   2.340   1.838   1.652 -0.1674  0.2157 -0.1794
  850SOL    HW1 3398   2.247   1.815   1.639 -1.9768 -0.3389  1.5469
  850SOL    HW2 3399   2.350   1.929   1.620  1.4609  1.1831 -2.4797
  850SOL     MW 3400   2.329   1.847   1.646 -0.1913  0.2702 -0.2551
  851SOL     OW 3401   2.407   2.275   0.313  0.2495 -0.4117  0.5220
  851SOL    HW1 3402   2.394   2.292   0.221  0.8927 -0.2225  1.8097
  851SOL    HW2 3403   2.463   2.345   0.342  0.7937  1.7624  1.7038
  851SOL     MW 3404   2.413   2.286   0.304  0.4062 -0.0999  0.8478
  852SOL     OW 3405   2.314   2.003   0.341  0.2793 -0.5175 -0.2198
  852SOL    HW1 3406   2.332   2.097   0.349  0.1631 -1.9800  0.7804
  852SOL    HW2 3407   2.384   1.971   0.287 -2.5930  0.0239 -0.4267
  852SOL     MW 3408   2.326   2.011   0.335 -0.1150 -0.6390 -0.1151
  853SOL     OW 3409   2.517   2.387   1.926 -0.3112 -0.0301  0.2854
  853SOL    HW1 3410   2.495   2.460   1.867 -1.0839  1.4793 -1.3683
  853SOL    HW2 3411   2.612   2.382   1.938  0.8908 -1.2095 -0.7406
  853SOL     MW 3412   2.526   2.396   1.920 -0.2546  0.0134 -0.0681
  854SOL     OW 3413   2.851   2.262   0.722  0.1388 -0.3716  0.1264
  854SOL    HW1 3414   2.766   2.265   0.675 -0.0934 -0.2788 -1.0803
  854SOL    HW2 3415   2.842   2.191   0.792  1.0888 -1.0734 -0.9998
  854SOL     MW 3416   2.839   2.253   0.725  0.2335 -0.4520 -0.1814
  855SOL     OW 3417   2.775   2.356   0.447 -0.1792  0.0844  0.3549
  855SOL    HW1 3418   2.689   2.393   0.443  1.2104  1.1700 -0.9864
  855SOL    HW2 3419   2.772   2.265   0.410 -1.2389 -0.9528 -1.3803
  855SOL     MW 3420   2.764   2.349   0.441 -0.1357  0.0908 -0.0510
  856SOL     OW 3421   2.076   1.897   0.260 -0.6803  0.3967  0.6269
  856SOL    HW1 3422   1.991   1.923   0.291 -1.0915 -0.6729 -0.0381
  856SOL    HW2 3423   2.143   1.953   0.305  1.8543 -1.5095 -0.9097
  856SOL     MW 3424   2.074   1.908   0.270 -0.4002  0.0041  0.3364
  857SOL     OW 3425   2.520   1.951   0.534 -0.0658 -0.2800  0.3975
  857SOL    HW1 3426   2.448   1.963   0.472 -0.6238 -3.4620  0.5371
  857SOL    HW2 3427   2.465   1.931   0.607 -0.4938  0.3941 -2.2489
  857SOL     MW 3428   2.503   1.950   0.536 -0.1959 -0.6109  0.0667
  858SOL     OW 3429   2.885   2.659   1.790 -0.0153  0.5514  0.2137
  858SOL    HW1 3430   2.965   2.706   1.768 -1.1668  0.4407 -3.7241
  858SOL    HW2 3431   2.882   2.580   1.737 -0.1732 -0.0286 -1.6153
  858SOL     MW 3432   2.895   2.655   1.780 -0.1880  0.4603 -0.5472
  859SOL     OW 3433   1.911   2.732   1.016 -0.3189 -0.1919 -0.3693
  859SOL    HW1 3434   1.831   2.708   0.964 -2.7570 -1.3656 -0.2755
  859SOL    HW2 3435   1.965   2.653   1.040 -2.6694 -4.1295 -0.1920
  859SOL     MW 3436   1.908   2.719   1.012 -0.9507 -0.8663 -0.3335
  860SOL     OW 3437   2.600   2.652   0.164 -0.1534 -0.0785  0.0292
  860SOL    HW1 3438   2.681   2.637   0.220  1.3929  2.1173  1.9028
  860SOL    HW2 3439   2.636   2.685   0.086 -1.3878  1.0351  0.8920
  860SOL     MW 3440   2.615   2.654   0.161 -0.1123  0.3581  0.3902
  861SOL     OW 3441   1.649   2.163   1.200  0.0035 -0.1783 -0.1626
  861SOL    HW1 3442   1.680   2.209   1.280 -0.3035 -1.3128  0.6448
  861SOL    HW2 3443   1.578   2.109   1.232 -1.5191  0.9521 -0.4720
  861SOL     MW 3444   1.644   2.162   1.215 -0.2379 -0.1788 -0.0969
  862SOL     OW 3445   2.504   1.730   1.425 -0.5619  0.3371 -0.3320
  862SOL    HW1 3446   2.449   1.784   1.481 -1.8604 -1.9223 -0.0805
  862SOL    HW2 3447   2.455   1.726   1.345  0.5181  3.2854  1.9068
  862SOL     MW 3448   2.490   1.736   1.422 -0.5908  0.4280 -0.0035
  863SOL     OW 3449   3.011   1.713   0.968  0.2216 -0.0646 -0.5010
  863SOL    HW1 3450   3.038   1.651   1.033 -0.9618  0.0913  0.4272
  863SOL    HW2 3451   2.982   1.790   1.012 -0.9507 -2.6889  1.8848
  863SOL     MW 3452   3.011   1.715   0.982 -0.0892 -0.3903 -0.0638
  864SOL     OW 3453   0.009   1.822   0.746 -0.2137 -0.3558  0.1513
  864SOL    HW1 3454  -0.027   1.767   0.815  1.5758 -1.7448 -0.7055
  864SOL    HW2 3455  -0.031   1.790   0.663 -0.0450  0.0882  0.8019
  864SOL     MW 3456  -0.001   1.811   0.744  0.0447 -0.4805  0.1241
  865SOL     OW 3457   2.611   2.185   0.083 -0.7731 -0.4694  0.3580
  865SOL    HW1 3458   2.635   2.126   0.155  1.3080 -0.0120  2.5045
  865SOL    HW2 3459   2.558   2.131   0.026 -0.1316  0.9426 -1.6716
  865SOL     MW 3460   2.607   2.171   0.085 -0.4139 -0.2227  0.3734
  866SOL     OW 3461   2.660   2.391   1.525  0.6346  0.1395 -0.5500
  866SOL    HW1 3462   2.643   2.299   1.553 -1.1183 -1.0356  1.9004
  866SOL    HW2 3463   2.725   2.396   1.458  1.7536 -0.0010  1.9977
  866SOL     MW 3464   2.666   2.380   1.519  0.5509 -0.0340  0.1095
  867SOL     OW 3465   0.115   2.650   1.755 -0.1709 -0.4389 -0.1142
  867SOL    HW1 3466   0.147   2.693   1.837  1.6502  1.2030 -1.9980
  867SOL    HW2 3467   0.117   2.718   1.689 -0.9182 -2.0906  2.6092
  867SOL     MW 3468   0.120   2.665   1.757 -0.0292 -0.4402 -0.0035
  868SOL     OW 3469   2.764   2.693   0.515  0.0142  0.5673 -0.0853
  868SOL    HW1 3470   2.730   2.612   0.566 -2.0720  1.6948 -0.9376
  868SOL    HW2 3471   2.686   2.736   0.481 -2.3097 -1.5955  1.3171
  868SOL     MW 3472   2.749   2.688   0.517 -0.5677  0.4307 -0.0127
  869SOL     OW 3473   2.064   2.499   1.035  0.1441  0.0945  0.2155
  869SOL    HW1 3474   2.156   2.515   1.019 -0.3163  4.0301  1.3936
  869SOL    HW2 3475   2.035   2.419   0.993 -1.5092  0.5466 -2.0803
  869SOL     MW 3476   2.073   2.490   1.027 -0.1348  0.6734  0.0680
  870SOL     OW 3477   2.196   0.020   0.460  0.2996 -0.3974  0.4817
  870SOL    HW1 3478   2.270   0.059   0.409  2.0945 -1.7283 -0.7244
  870SOL    HW2 3479   2.227  -0.064   0.484 -2.9258  2.7534 -0.5002
  870SOL     MW 3480   2.210   0.014   0.457  0.1109 -0.1573  0.1930
  871SOL     OW 3481   2.474   2.095   0.855 -0.7203  0.2315  0.1545
  871SOL    HW1 3482   2.396   2.047   0.818  0.6189  0.3260 -0.5872
  871SOL    HW2 3483   2.437   2.176   0.896  2.7182  1.1571  1.1217
  871SOL     MW 3484   2.459   2.099   0.855 -0.0900  0.3661  0.1843
  872SOL     OW 3485   2.121   2.568   1.534  0.3463  0.1860  0.1729
  872SOL    HW1 3486   2.047   2.612   1.579  0.6361  1.3088  1.6453
  872SOL    HW2 3487   2.081   2.523   1.458 -0.9325 -1.9633 -0.1732
  872SOL     MW 3488   2.106   2.568   1.530  0.2158  0.0506  0.3215
  873SOL     OW 3489   2.847   2.088   1.822  0.0284 -0.0294  0.3968
  873SOL    HW1 3490   2.826   2.164   1.873  2.3640 -0.6442 -2.0176
  873SOL    HW2 3491   2.927   2.123   1.776 -0.4012  1.9680 -1.0695
  873SOL     MW 3492   2.855   2.102   1.822  0.2798  0.1530 -0.1152
  874SOL     OW 3493   2.289   1.419   2.334 -0.0162  0.3487 -0.3914
  874SOL    HW1 3494   2.241   1.374   2.266 -1.7537  1.6864 -1.1138
  874SOL    HW2 3495   2.356   1.353   2.363  1.8131 -1.5603  1.5198
  874SOL     MW 3496   2.292   1.405   2.329 -0.0041  0.2733 -0.2346
  875SOL     OW 3497   2.346   2.346   0.965  0.1047  0.2377 -0.5778
  875SOL    HW1 3498   2.360   2.397   0.886  0.6265 -0.0866 -2.4602
  875SOL    HW2 3499   2.387   2.396   1.043 -1.9377 -0.6145  0.3371
  875SOL     MW 3500   2.353   2.359   0.965 -0.0959  0.0825 -0.7054
  876SOL     OW 3501   3.086   2.255   1.335  0.4376  0.1817  0.8397
  876SOL    HW1 3502   3.134   2.271   1.252 -1.9612  0.2902 -0.7669
  876SOL    HW2 3503   3.147   2.298   1.400  0.2086  1.5700 -1.3605
  876SOL     MW 3504   3.101   2.263   1.333  0.0909  0.3792  0.3375
  877SOL     OW 3505   0.053   2.771   0.330  0.2495 -0.5675  0.1152
  877SOL    HW1 3506   0.120   2.832   0.324 -1.5175 -1.1676 -0.9259
  877SOL    HW2 3507   0.031   2.730   0.247  0.4427  1.0895  1.4620
  877SOL     MW 3508   0.059   2.774   0.318  0.0418 -0.4280  0.1555
  878SOL     OW 3509   2.316   1.695   1.203 -0.4388  0.3468  0.1102
  878SOL    HW1 3510   2.227   1.649   1.220 -0.5086  0.5144  1.8819
  878SOL    HW2 3511   2.373   1.631   1.151  0.9216 -0.8460  2.1753
  878SOL     MW 3512   2.312   1.681   1.198 -0.2685  0.2116  0.6165
  879SOL     OW 3513   2.748   2.456   0.874 -0.1764  0.3555  0.9495
  879SOL    HW1 3514   2.830   2.494   0.891 -2.0949 -0.1226  0.1143
  879SOL    HW2 3515   2.784   2.386   0.817 -0.9583  1.0372  0.8066
  879SOL     MW 3516   2.764   2.452   0.869 -0.5327  0.3824  0.8204
  880SOL     OW 3517   2.585   2.210   0.631  0.1368  0.8449 -0.0522
  880SOL    HW1 3518   2.550   2.182   0.718  2.6431  2.2877  2.1999
  880SOL    HW2 3519   2.602   2.129   0.570  2.2725 -3.3375 -0.4595
  880SOL     MW 3520   2.583   2.195   0.634  0.7493  0.4834  0.1912
  881SOL     OW 3521   2.944   2.762   0.713  0.1034  0.0865 -0.4607
  881SOL    HW1 3522   2.879   2.767   0.650  0.5367 -1.8437 -0.3941
  881SOL    HW2 3523   3.030   2.744   0.673 -1.3008 -2.2538  1.9362
  881SOL     MW 3524   2.947   2.761   0.699 -0.0247 -0.4770 -0.1356
  882SOL     OW 3525   2.294   2.866   1.936 -0.5846  0.4009  0.0612
  882SOL    HW1 3526   2.302   2.888   1.842 -1.2785 -0.8742  1.4693
  882SOL    HW2 3527   2.233   2.793   1.942  0.7751  0.4199  0.9258
  882SOL     MW 3528   2.287   2.859   1.925 -0.4968  0.2352  0.3611
  883SOL     OW 3529   2.413   2.224   1.315  0.8692 -0.3289  0.2002
  883SOL    HW1 3530   2.491   2.184   1.275 -1.0040  0.7525  1.9394
  883SOL    HW2 3531   2.335   2.182   1.268 -0.2188 -1.4405 -2.0133
  883SOL     MW 3532   2.413   2.213   1.304  0.4785 -0.3329  0.1376
  884SOL     OW 3533   1.950   1.814   1.074 -0.1521  0.1580  0.3061
  884SOL    HW1 3534   1.892   1.885   1.045 -0.4765  0.6737 -1.6704
  884SOL    HW2 3535   2.036   1.852   1.064 -2.7803  0.6215  1.1448
  884SOL     MW 3536   1.953   1.828   1.069 -0.5417  0.2872  0.1560
  885SOL     OW 3537   2.862   2.401   1.710  0.9410 -0.5076 -0.4421
  885SOL    HW1 3538   2.927   2.336   1.678 -2.1071  0.2470 -0.6011
  885SOL    HW2 3539   2.796   2.410   1.643  1.1939 -0.8992 -1.0655
  885SOL     MW 3540   2.862   2.393   1.697  0.5722 -0.4597 -0.5453
  886SOL     OW 3541   2.856   2.397   1.364 -0.0842  0.1247 -0.5851
  886SOL    HW1 3542   2.947   2.362   1.348 -2.9829 -1.0392 -2.1623
  886SOL    HW2 3543   2.880   2.498   1.374  0.3989 -0.0579  1.0969
  886SOL     MW 3544   2.871   2.406   1.363 -0.4029 -0.0530 -0.5713
  887SOL     OW 3545   2.360   2.700   1.510  0.3915 -0.3958  0.2912
  887SOL    HW1 3546   2.407   2.709   1.429 -1.9839  1.3504  1.2594
  887SOL    HW2 3547   2.281   2.648   1.489  1.8667  0.5374  2.5281
  887SOL     MW 3548   2.356   2.694   1.497  0.2728 -0.0423  0.7141
  888SOL     OW 3549   2.049   2.173   1.348  0.3197  0.0076  0.4642
  888SOL    HW1 3550   2.103   2.170   1.265  0.4224 -1.2781  0.4026
  888SOL    HW2 3551   2.109   2.164   1.422  1.1556  2.3182  3.5978
  888SOL     MW 3552   2.064   2.172   1.347  0.4435  0.1428  0.8695
  889SOL     OW 3553   2.286   1.918   2.043 -0.1957 -0.5170 -0.7675
  889SOL    HW1 3554   2.362   1.917   2.105 -2.0236  1.2237 -0.7273
  889SOL    HW2 3555   2.290   1.991   1.984 -1.2326  0.1090 -0.7895
  889SOL     MW 3556   2.297   1.927   2.043 -0.5737 -0.2047 -0.7651
  890SOL     OW 3557   0.037   2.345   0.168 -0.0526  0.2694 -0.3215
  890SOL    HW1 3558   0.001   2.437   0.169 -1.9231 -2.2447  1.0167
  890SOL    HW2 3559   0.009   2.311   0.256 -1.8144  2.7926  2.7867
  890SOL     MW 3560   0.029   2.352   0.180 -0.5319  0.2706  0.2651
  891SOL     OW 3561   2.984   2.049   1.164  0.6148 -0.1383 -0.4609
  891SOL    HW1 3562   3.058   1.990   1.143 -0.4860  0.7516 -0.5391
  891SOL    HW2 3563   3.008   2.104   1.236 -3.4723 -1.4976  0.5326
  891SOL     MW 3564   2.997   2.048   1.170 -0.0697 -0.2003 -0.3401
  892SOL     OW 3565   2.491   2.403   2.838  0.7076 -0.1175 -0.0982
  892SOL    HW1 3566   2.492   2.321   2.889 -3.7296  0.6438  0.0147
  892SOL    HW2 3567   2.582   2.447   2.849 -2.2654  1.7716 -1.5954
  892SOL     MW 3568   2.503   2.398   2.846 -0.2701  0.2322 -0.2809
  893SOL     OW 3569   1.675   2.380   1.372  0.1628 -0.0627  0.5321
  893SOL    HW1 3570   1.603   2.423   1.410 -1.1169 -0.8731  1.4079
  893SOL    HW2 3571   1.749   2.421   1.415 -0.5973  1.6777  0.2168
  893SOL     MW 3572   1.675   2.391   1.383 -0.1063  0.0600  0.6061
  894SOL     OW 3573   2.767   1.852   0.478 -0.4059  0.6038 -0.0807
  894SOL    HW1 3574   2.675   1.895   0.504 -2.6515  2.2533  1.4272
  894SOL    HW2 3575   2.751   1.824   0.386 -2.8375  0.8376 -2.1092
  894SOL     MW 3576   2.753   1.854   0.469 -1.0230  0.8523 -0.1494
  895SOL     OW 3577   2.193   2.189   1.132  0.3851  0.0067 -0.8941
  895SOL    HW1 3578   2.240   2.243   1.070  0.2593 -1.3055 -0.3157
  895SOL    HW2 3579   2.176   2.116   1.074 -0.6559  3.2440 -0.2075
  895SOL     MW 3580   2.197   2.187   1.116  0.2312  0.2607 -0.7272
  896SOL     OW 3581   2.216   2.758   1.083  0.2459 -0.1199 -0.2521
  896SOL    HW1 3582   2.260   2.729   1.165 -2.9975 -1.4630  2.9946
  896SOL    HW2 3583   2.134   2.807   1.104 -2.0155 -1.0291 -2.8100
  896SOL     MW 3584   2.211   2.760   1.097 -0.4804 -0.4171 -0.1613
  897SOL     OW 3585   3.061   3.009   3.095 -0.2443  0.3064  0.3370
  897SOL    HW1 3586   3.118   2.936   3.107  0.9824  0.7609  0.4057
  897SOL    HW2 3587   2.992   2.982   3.036 -2.6154 -0.6233 -1.1932
  897SOL     MW 3588   3.060   2.996   3.089 -0.3953  0.2437  0.1442
  898SOL     OW 3589   2.099   0.146   1.437  1.0733 -0.2431  0.5930
  898SOL    HW1 3590   2.057   0.059   1.452 -0.0492 -0.0073  0.5101
  898SOL    HW2 3591   2.090   0.165   1.340 -0.4960 -0.3728  1.4033
  898SOL     MW 3592   2.092   0.137   1.426  0.7181 -0.2291  0.6890
  899SOL     OW 3593   2.893   3.025   0.599 -0.7022  0.6630 -0.0395
  899SOL    HW1 3594   2.910   2.943   0.652  0.0276 -2.2915 -0.3734
  899SOL    HW2 3595   2.809   3.052   0.631  0.6501  1.5427 -0.1997
  899SOL     MW 3596   2.884   3.018   0.611 -0.4275  0.3893 -0.1047
  900SOL     OW 3597   0.090   2.352   1.092  0.2045  0.0317 -0.3500
  900SOL    HW1 3598   0.038   2.428   1.068 -3.9530 -2.0242  0.3959
  900SOL    HW2 3599   0.113   2.311   1.009  1.3397  0.8868  0.1556
  900SOL     MW 3600   0.086   2.357   1.078 -0.1943 -0.1267 -0.1849
  901SOL     OW 3601   1.744   2.838   1.805  0.2593  0.6434  0.2422
  901SOL    HW1 3602   1.836   2.809   1.783  3.2882  1.3844 -1.8091
  901SOL    HW2 3603   1.682   2.826   1.733  0.9280 -0.0364 -1.5171
  901SOL     MW 3604   1.748   2.832   1.792  0.7471  0.6514 -0.2606
  902SOL     OW 3605   2.643   2.136   1.597 -0.2317 -0.4624 -0.3201
  902SOL    HW1 3606   2.647   2.057   1.536 -0.4943 -1.7768 -1.3268
  902SOL    HW2 3607   2.686   2.102   1.677  1.2110 -0.4031 -1.0438
  902SOL     MW 3608   2.650   2.121   1.600 -0.0760 -0.6280 -0.5484
  903SOL     OW 3609   1.492   2.649   0.573 -0.0736  0.1817 -0.1662
  903SOL    HW1 3610   1.586   2.667   0.562 -0.1682  0.0513 -1.2405
  903SOL    HW2 3611   1.462   2.721   0.639  3.1144  2.5979 -2.1680
  903SOL     MW 3612   1.501   2.661   0.581  0.3346  0.4833 -0.5720
  904SOL     OW 3613   2.480   2.548   1.699 -0.0257  0.1220  0.0715
  904SOL    HW1 3614   2.406   2.599   1.650  0.5735 -0.3541 -1.1910
  904SOL    HW2 3615   2.528   2.497   1.631 -0.9529  0.9265 -0.2454
  904SOL     MW 3616   2.477   2.548   1.684 -0.0690  0.1653 -0.1369
  905SOL     OW 3617   2.312   2.445   2.091 -0.3414 -0.2181 -0.1771
  905SOL    HW1 3618   2.390   2.410   2.049 -2.2310 -1.1879 -0.0612
  905SOL    HW2 3619   2.311   2.376   2.166  0.3522  0.5202 -1.1551
  905SOL     MW 3620   2.322   2.431   2.095 -0.4992 -0.2487 -0.2908
  906SOL     OW 3621   2.511   2.516   0.768 -0.5956 -0.0715 -0.3851
  906SOL    HW1 3622   2.601   2.500   0.793  1.3746  2.1530 -4.1234
  906SOL    HW2 3623   2.489   2.598   0.813  1.1818  1.8280 -1.4139
  906SOL     MW 3624   2.520   2.525   0.777 -0.1012  0.4726 -1.0140
  907SOL     OW 3625   2.654   2.870   1.280 -0.7276  0.3406 -0.1213
  907SOL    HW1 3626   2.724   2.923   1.326  4.5706 -0.2540 -0.3733
  907SOL    HW2 3627   2.695   2.855   1.198  0.6912 -4.1212 -0.1407
  907SOL     MW 3628   2.669   2.875   1.275  0.1587 -0.3266 -0.1571
  908SOL     OW 3629   2.718   2.436   0.034  0.2780 -0.2203  0.0482
  908SOL    HW1 3630   2.675   2.349   0.040  1.2483  0.1194  3.4081
  908SOL    HW2 3631   2.665   2.486   0.090 -1.8833  0.6245  0.5832
  908SOL     MW 3632   2.706   2.431   0.042  0.1208 -0.0640  0.5621
  909SOL     OW 3633   1.711   0.138   1.265 -0.5677 -0.2126  0.7129
  909SOL    HW1 3634   1.646   0.203   1.264  0.2033 -0.1549  0.4277
  909SOL    HW2 3635   1.717   0.096   1.352  2.3698 -0.9501  0.3326
  909SOL     MW 3636   1.703   0.141   1.277 -0.0784 -0.3023  0.6251
  910SOL     OW 3637   2.135   1.652   0.393  0.2114 -0.5819  0.0126
  910SOL    HW1 3638   2.083   1.573   0.366 -0.5620 -0.4866  0.4174
  910SOL    HW2 3639   2.094   1.719   0.335  0.4022 -2.1629 -0.5501
  910SOL     MW 3640   2.123   1.650   0.382  0.1345 -0.7779 -0.0083
  911SOL     OW 3641   2.327   2.128   1.569  0.4144  0.1500 -0.0357
  911SOL    HW1 3642   2.382   2.145   1.652  1.2781  0.6899  2.2948
  911SOL    HW2 3643   2.380   2.170   1.495  1.0801 -0.8685  0.3444
  911SOL     MW 3644   2.341   2.136   1.570  0.6162  0.0869  0.3220
  912SOL     OW 3645   2.935   1.863   1.393 -0.3675 -0.0436 -0.0580
  912SOL    HW1 3646   2.955   1.882   1.303 -0.7246  0.6061  5.2332
  912SOL    HW2 3647   2.844   1.886   1.402 -2.2450  0.4636 -0.9794
  912SOL     MW 3648   2.926   1.868   1.383 -0.6623  0.1090  0.5186
  913SOL     OW 3649   2.703   3.068   0.265  0.3346  0.5827  0.1196
  913SOL    HW1 3650   2.791   3.024   0.269 -0.2375 -1.7340 -0.4213
  913SOL    HW2 3651   2.638   3.002   0.252  0.0368 -0.8668 -2.1880
  913SOL     MW 3652   2.706   3.054   0.264  0.2198  0.0858 -0.2562
  914SOL     OW 3653   2.703   1.818   2.934  0.2269 -0.0281 -0.1160
  914SOL    HW1 3654   2.734   1.907   2.961  0.1001  1.4934  0.9454
  914SOL    HW2 3655   2.607   1.809   2.961  0.5408  0.1297 -1.8690
  914SOL     MW 3656   2.694   1.828   2.941  0.2516  0.1934 -0.2073
  915SOL     OW 3657   1.801   0.133   0.120  0.0173 -0.5812 -0.6085
  915SOL    HW1 3658   1.859   0.072   0.158 -0.0327  0.5629 -2.1000
  915SOL    HW2 3659   1.714   0.084   0.114 -0.2280 -2.8109 -0.9249
  915SOL     MW 3660   1.797   0.119   0.124 -0.0217 -0.7245 -0.8471
  916SOL     OW 3661   1.742   2.189   2.005  0.4527 -0.3025 -0.3536
  916SOL    HW1 3662   1.809   2.256   1.982 -0.7063 -0.2921 -0.8519
  916SOL    HW2 3663   1.757   2.131   1.931  0.8415  1.2759 -0.4860
  916SOL     MW 3664   1.753   2.191   1.992  0.3511 -0.0929 -0.4368
  917SOL     OW 3665   2.516   2.256   2.595 -0.2493 -0.9184 -0.2271
  917SOL    HW1 3666   2.495   2.298   2.678  1.7403  1.6605  0.4585
  917SOL    HW2 3667   2.599   2.289   2.576 -0.6392 -1.7728  1.5668
  917SOL     MW 3668   2.524   2.266   2.603 -0.0383 -0.6909  0.1001
  918SOL     OW 3669   2.076   1.590   2.626  0.5242 -0.0628 -0.3711
  918SOL    HW1 3670   1.996   1.631   2.595 -0.4052  1.1594  0.2838
  918SOL    HW2 3671   2.141   1.663   2.630  2.8017  0.4971  1.2366
  918SOL     MW 3672   2.074   1.605   2.622  0.7021  0.1723 -0.0726
  919SOL     OW 3673   3.089   2.417   2.251  0.4045 -0.0039  0.1949
  919SOL    HW1 3674   3.031   2.346   2.244  1.4509 -2.3193  0.5021
  919SOL    HW2 3675   3.143   2.407   2.172 -1.0481 -2.3654 -0.1921
  919SOL     MW 3676   3.088   2.407   2.240  0.3509 -0.6210  0.1844
  920SOL     OW 3677   2.666   2.772   3.034 -0.2472 -0.6787  0.1931
  920SOL    HW1 3678   2.574   2.797   3.017  2.3020 -2.2758 -1.9134
  920SOL    HW2 3679   2.699   2.761   2.946 -0.0906  0.4729  0.3909
  920SOL     MW 3680   2.658   2.774   3.020  0.1098 -0.7374 -0.0587
  921SOL     OW 3681   2.478   2.635   2.626  0.4491  0.2449 -0.1756
  921SOL    HW1 3682   2.563   2.629   2.583  0.1873 -3.3415 -0.2127
  921SOL    HW2 3683   2.483   2.571   2.696 -1.0104  1.7103  0.4210
  921SOL     MW 3684   2.490   2.626   2.630  0.2220 -0.0350 -0.1017
  922SOL     OW 3685   2.095   2.706   0.401 -0.0845 -0.4193  0.2844
  922SOL    HW1 3686   2.054   2.709   0.315  0.9570 -0.0932  3.3184
  922SOL    HW2 3687   2.169   2.636   0.401  2.0164  0.0393 -1.5564
  922SOL     MW 3688   2.099   2.697   0.389  0.3301 -0.3157  0.4418
  923SOL     OW 3689   2.202   2.863   1.658 -0.2226  0.6897  0.0230
  923SOL    HW1 3690   2.279   2.838   1.610  1.5530  1.9105  0.8968
  923SOL    HW2 3691   2.143   2.920   1.608 -0.9102  0.2187  0.3621
  923SOL     MW 3692   2.204   2.867   1.645 -0.0790  0.7886  0.1830
  924SOL     OW 3693   1.083   2.739   2.609  0.4229  0.0676 -0.1700
  924SOL    HW1 3694   1.180   2.765   2.606 -2.5444  0.5647  1.7241
  924SOL    HW2 3695   1.085   2.664   2.669 -0.7588 -0.7525  1.6677
  924SOL     MW 3696   1.096   2.732   2.616 -0.1245  0.0250  0.3224
  925SOL     OW 3697   2.973   0.248   2.678  0.0680 -0.0078 -0.2108
  925SOL    HW1 3698   2.940   0.249   2.584 -0.9972  0.2029  0.8545
  925SOL    HW2 3699   2.981   0.343   2.702  2.1290 -2.7474  0.3953
  925SOL     MW 3700   2.969   0.261   2.669  0.1994 -0.3415  0.0098
  926SOL     OW 3701   2.793   2.352   1.980  0.3798  0.0587 -0.5564
  926SOL    HW1 3702   2.807   2.439   2.026  0.8321 -3.1950 -0.5184
  926SOL    HW2 3703   2.822   2.375   1.891  0.9449 -0.1525  0.3331
  926SOL     MW 3704   2.799   2.366   1.974  0.5140 -0.3984 -0.4340
  927SOL     OW 3705   2.380   0.156   0.292 -0.3009  0.0696 -0.1181
  927SOL    HW1 3706   2.474   0.160   0.306  0.0467 -0.6516 -2.2284
  927SOL    HW2 3707   2.372   0.144   0.200  2.3275 -1.2423 -1.0225
  927SOL     MW 3708   2.391   0.155   0.282  0.0917 -0.1986 -0.5159
  928SOL     OW 3709   2.131   2.378   1.741 -0.2701 -0.5699  0.6228
  928SOL    HW1 3710   2.120   2.455   1.684  1.6500  0.3882  3.2891
  928SOL    HW2 3711   2.223   2.355   1.754 -0.2412 -4.2286  2.8277
  928SOL     MW 3712   2.141   2.385   1.736 -0.0129 -0.9262  1.2655
  929SOL     OW 3713   2.765   2.354   2.481  0.3619  0.1800  0.3898
  929SOL    HW1 3714   2.791   2.305   2.412  1.3535  0.4744  2.8890
  929SOL    HW2 3715   2.837   2.351   2.546  1.8252 -2.5861  0.0236
  929SOL     MW 3716   2.778   2.347   2.481  0.6858 -0.1461  0.6712
  930SOL     OW 3717   2.043   2.803   2.667  0.3198  0.1311  0.3277
  930SOL    HW1 3718   2.049   2.750   2.749  2.4899  0.8894 -0.4850
  930SOL    HW2 3719   2.128   2.844   2.643  3.8989 -1.5603 -1.4739
  930SOL     MW 3720   2.055   2.802   2.675  1.0784  0.0080 -0.0172
  931SOL     OW 3721   0.031   2.776   2.474  0.0409  0.1192  0.2737
  931SOL    HW1 3722   0.028   2.818   2.556  1.1992 -1.2600 -3.8551
  931SOL    HW2 3723   0.109   2.816   2.441  2.1865 -0.7573 -0.2228
  931SOL     MW 3724   0.041   2.787   2.481  0.4768 -0.1784 -0.3366
  932SOL     OW 3725   2.841   1.928   2.519 -0.1844  0.8367  0.2574
  932SOL    HW1 3726   2.934   1.945   2.508 -0.3067  0.1905 -1.0433
  932SOL    HW2 3727   2.804   1.936   2.428  0.8523  0.6451 -0.0118
  932SOL     MW 3728   2.848   1.931   2.506 -0.0637  0.7261  0.0502
  933SOL     OW 3729   2.062   2.796   2.216 -0.0098 -0.1243 -0.0015
  933SOL    HW1 3730   2.140   2.837   2.248  2.1112  2.5892 -0.4564
  933SOL    HW2 3731   1.992   2.859   2.208  2.1263 -1.9571  0.7341
  933SOL     MW 3732   2.063   2.810   2.219  0.5519 -0.0081  0.0355
  934SOL     OW 3733   2.010   2.644   2.436  0.1819  0.5568 -0.5648
  934SOL    HW1 3734   2.014   2.710   2.508 -0.0448 -4.7666 -0.9844
  934SOL    HW2 3735   2.019   2.680   2.346  0.7422 -1.0948  1.6237
  934SOL     MW 3736   2.012   2.657   2.434  0.2259 -0.3635 -0.3314
  935SOL     OW 3737   2.641   1.509   1.790 -0.1432 -0.6762 -0.3778
  935SOL    HW1 3738   2.729   1.495   1.763 -3.6977 -1.7609 -3.5902
  935SOL    HW2 3739   2.606   1.497   1.702  1.4723  1.2150 -2.5204
  935SOL     MW 3740   2.648   1.505   1.775 -0.3990 -0.5698 -1.0843
  936SOL     OW 3741   2.947   2.245   3.085  0.0922 -0.0818  0.1668
  936SOL    HW1 3742   3.006   2.290   3.145 -0.7238  0.0700 -0.9568
  936SOL    HW2 3743   2.869   2.305   3.084  0.4687 -1.3734  0.8731
  936SOL     MW 3744   2.944   2.259   3.093  0.0342 -0.2322  0.1118
  937SOL     OW 3745   1.981   2.158   2.689  0.0863 -0.4133 -0.9476
  937SOL    HW1 3746   2.074   2.149   2.707  0.1226  1.7431  0.4142
  937SOL    HW2 3747   1.967   2.151   2.596 -1.2238  1.7958  0.3013
  937SOL     MW 3748   1.992   2.156   2.679 -0.0817  0.1627 -0.6031
  938SOL     OW 3749   2.360   1.711   1.896  0.3246  0.3218 -0.9153
  938SOL    HW1 3750   2.345   1.749   1.808  0.2275  1.5973 -1.1674
  938SOL    HW2 3751   2.303   1.762   1.960  1.6720 -1.7873  0.5973
  938SOL     MW 3752   2.351   1.723   1.893  0.4896  0.2118 -0.7490
  939SOL     OW 3753   2.769   1.957   2.249  0.2652 -0.3157  0.1597
  939SOL    HW1 3754   2.801   1.917   2.165  1.6759 -1.4590  0.8157
  939SOL    HW2 3755   2.680   1.929   2.247  1.6403 -2.0171  1.8386
  939SOL     MW 3756   2.761   1.948   2.238  0.6328 -0.6910  0.4678
  940SOL     OW 3757   2.220   0.133   2.680 -0.6050  0.0188  0.3781
  940SOL    HW1 3758   2.232   0.048   2.638 -0.2649 -0.2348 -1.1887
  940SOL    HW2 3759   2.288   0.149   2.745  1.8094 -2.0504  0.0859
  940SOL     MW 3760   2.231   0.124   2.683 -0.2416 -0.2876  0.1328
  941SOL     OW 3761   0.183   2.446   2.030 -0.2934 -0.0870 -0.0685
  941SOL    HW1 3762   0.250   2.387   2.056  1.3597 -2.0801  2.6935
  941SOL    HW2 3763   0.159   2.430   1.940  0.9372  2.1988 -1.5759
  941SOL     MW 3764   0.188   2.436   2.022  0.0871 -0.0484  0.0971
  942SOL     OW 3765   2.878   2.221   2.218  0.0852  0.3660 -0.3801
  942SOL    HW1 3766   2.838   2.271   2.148 -0.7947  1.7143 -1.9316
  942SOL    HW2 3767   2.838   2.135   2.221  2.7302 -0.3290 -2.4835
  942SOL     MW 3768   2.867   2.216   2.209  0.3181  0.4522 -0.8623
  943SOL     OW 3769   0.262   2.122   2.303  1.1339  0.0690 -0.2161
  943SOL    HW1 3770   0.226   2.211   2.337 -1.2569 -0.0560 -1.0803
  943SOL    HW2 3771   0.336   2.092   2.362 -0.5987  0.3354  0.0228
  943SOL     MW 3772   0.267   2.130   2.315  0.5898  0.0877 -0.2986
  944SOL     OW 3773   2.120   2.648   1.976  0.6453 -0.4390 -0.1454
  944SOL    HW1 3774   2.164   2.567   1.997  2.0899 -0.9934  2.1828
  944SOL    HW2 3775   2.092   2.686   2.055  1.7710  0.4539 -1.2264
  944SOL     MW 3776   2.122   2.642   1.989  0.9844 -0.3944  0.0192
  945SOL     OW 3777   2.816   2.755   2.815 -0.4604  0.3767  0.1228
  945SOL    HW1 3778   2.801   2.665   2.809  3.0090  3.0796 -1.0701
  945SOL    HW2 3779   2.798   2.796   2.728  0.0695 -1.9831  1.2449
  945SOL     MW 3780   2.812   2.749   2.803  0.0672  0.4219  0.1134
  946SOL     OW 3781   2.455   2.644   2.235  0.2591 -0.0623  0.5374
  946SOL    HW1 3782   2.513   2.666   2.166  0.5909  3.6201 -1.9004
  946SOL    HW2 3783   2.398   2.578   2.188  1.8119 -0.2285 -2.6804
  946SOL     MW 3784   2.455   2.638   2.219  0.5078  0.4016 -0.2088
  947SOL     OW 3785   2.045   0.056   0.239  0.2614 -0.6104 -0.2164
  947SOL    HW1 3786   2.085  -0.022   0.188  0.2306 -1.2404 -0.9626
  947SOL    HW2 3787   2.064   0.045   0.331 -0.0711  0.2283 -2.4772
  947SOL     MW 3788   2.053   0.044   0.244  0.2134 -0.5828 -0.6131
  948SOL     OW 3789   1.804   3.004   2.642 -0.6287 -0.0258 -0.5557
  948SOL    HW1 3790   1.811   2.909   2.638 -1.0175  1.7596 -1.4389
  948SOL    HW2 3791   1.762   3.037   2.562  1.9304 -0.1448 -1.9003
  948SOL     MW 3792   1.800   2.996   2.631 -0.3424  0.1941 -0.8496
  949SOL     OW 3793   2.485   1.900   2.224 -0.3150 -0.1125 -0.5641
  949SOL    HW1 3794   2.495   1.811   2.266  0.4669  1.6442 -2.1230
  949SOL    HW2 3795   2.456   1.964   2.294 -0.7678 -0.7197  0.3393
  949SOL     MW 3796   2.483   1.897   2.238 -0.2716  0.0392 -0.6506
  950SOL     OW 3797   2.301   2.568   2.989  0.5923 -0.1214  0.5324
  950SOL    HW1 3798   2.357   2.529   2.922  1.5812 -1.0590  0.3747
  950SOL    HW2 3799   2.226   2.596   2.940 -0.7719  0.4233 -0.6872
  950SOL     MW 3800   2.298   2.567   2.974  0.5428 -0.1732  0.3507
  951SOL     OW 3801   3.054   2.185   2.849 -0.2851  0.3311 -0.0775
  951SOL    HW1 3802   3.011   2.206   2.937  2.3277 -2.3335  5.0197
  951SOL    HW2 3803   3.052   2.088   2.852 -0.8289  0.2238  2.2374
  951SOL     MW 3804   3.048   2.175   2.861 -0.0121 -0.0346  0.9005
  952SOL     OW 3805   3.031   1.693   2.132 -0.0274  0.2703 -0.0265
  952SOL    HW1 3806   2.968   1.743   2.076  3.4387  0.1366 -3.7490
  952SOL    HW2 3807   3.082   1.759   2.177  2.5969  1.0562 -0.3876
  952SOL     MW 3808   3.029   1.708   2.131  0.7762  0.3564 -0.5653
  953SOL     OW 3809   1.969   1.717   2.913 -0.3153 -0.0936  0.4381
  953SOL    HW1 3810   1.893   1.667   2.936  1.9710 -2.3318 -0.5764
  953SOL    HW2 3811   1.989   1.669   2.831 -2.3969  1.3898 -0.7350
  953SOL     MW 3812   1.962   1.704   2.905 -0.2883 -0.1932  0.1495
  954SOL     OW 3813   2.450   2.131   2.926 -1.0996 -0.3946 -0.4484
  954SOL    HW1 3814   2.362   2.133   2.889 -1.1516  2.2197  2.1091
  954SOL    HW2 3815   2.503   2.081   2.869  2.6975 -0.0570 -0.1942
  954SOL     MW 3816   2.446   2.125   2.914 -0.6055 -0.0051 -0.0774
  955SOL     OW 3817   1.584   1.549   2.538  0.0934 -0.7920 -0.1116
  955SOL    HW1 3818   1.574   1.587   2.443 -1.2297  0.2896 -1.3856
  955SOL    HW2 3819   1.653   1.602   2.574 -2.0828 -2.0237 -0.6219
  955SOL     MW 3820   1.592   1.561   2.530 -0.3683 -0.8118 -0.3470
  956SOL     OW 3821   2.732   2.520   2.868  0.4305  0.0717 -0.7889
  956SOL    HW1 3822   2.754   2.493   2.954 -0.7305  0.5664 -0.5443
  956SOL    HW2 3823   2.797   2.478   2.808  2.9643 -0.1594 -0.4975
  956SOL     MW 3824   2.744   2.511   2.872  0.6116  0.1065 -0.7182
  957SOL     OW 3825   2.270   2.856   0.551  0.3553 -0.6991  0.6824
  957SOL    HW1 3826   2.199   2.824   0.489 -0.0429 -0.6159  0.6780
  957SOL    HW2 3827   2.255   2.811   0.640 -0.9266  2.9795  0.8291
  957SOL     MW 3828   2.258   2.846   0.554  0.1336 -0.2028  0.7012
  958SOL     OW 3829   2.066   2.621   2.873 -0.3869 -0.7747 -0.2734
  958SOL    HW1 3830   2.052   2.539   2.829  0.9182 -2.3293  0.6958
  958SOL    HW2 3831   1.997   2.634   2.939  2.5876 -1.0159 -0.6575
  958SOL     MW 3832   2.055   2.612   2.876  0.1778 -1.0116 -0.1962
  959SOL     OW 3833   2.519   2.816   0.448  0.1255 -0.0225  0.1782
  959SOL    HW1 3834   2.523   2.843   0.353  2.6906 -0.7031  0.2425
  959SOL    HW2 3835   2.427   2.835   0.477  0.4367  0.6000 -2.2115
  959SOL     MW 3836   2.507   2.822   0.439  0.5050 -0.0301 -0.1286
  960SOL     OW 3837   1.924   2.340   2.295 -0.3222  0.2747 -0.3545
  960SOL    HW1 3838   1.954   2.259   2.342  1.2729  1.3759  0.6907
  960SOL    HW2 3839   1.849   2.374   2.345 -2.0983 -1.5300 -1.4109
  960SOL     MW 3840   1.918   2.334   2.307 -0.3461  0.1819 -0.3560
  961SOL     OW 3841   2.227   2.280   2.309  0.6971  0.6910  0.2128
  961SOL    HW1 3842   2.136   2.293   2.280 -0.3119 -2.3170 -0.1037
  961SOL    HW2 3843   2.239   2.343   2.378 -3.9055 -1.8162  0.0616
  961SOL     MW 3844   2.216   2.290   2.314 -0.0433 -0.0367  0.1511
  962SOL     OW 3845   2.213   2.056   2.834 -0.0120 -0.4098  0.1085
  962SOL    HW1 3846   2.184   2.004   2.910 -2.8739 -0.9283 -0.4114
  962SOL    HW2 3847   2.236   1.990   2.763 -0.3110 -3.7531 -4.6820
  962SOL     MW 3848   2.212   2.041   2.835 -0.4291 -0.9193 -0.5921
  963SOL     OW 3849   1.847   2.573   2.110  0.5915  0.2634 -0.4175
  963SOL    HW1 3850   1.871   2.517   2.182  1.2878  3.0344 -0.8187
  963SOL    HW2 3851   1.873   2.514   2.028  0.2883  1.4312 -1.5259
  963SOL     MW 3852   1.854   2.558   2.109  0.6434  0.7831 -0.6167
  964SOL     OW 3853   1.836   1.913   2.785 -0.2632 -0.8972  0.0100
  964SOL    HW1 3854   1.889   1.993   2.764 -0.3922  1.0239  0.5232
  964SOL    HW2 3855   1.884   1.842   2.836 -0.0358  2.2076  0.2780
  964SOL     MW 3856   1.850   1.914   2.789 -0.2502 -0.2341  0.1131
  965SOL     OW 3857   2.203   2.617   0.739 -0.0951  0.0773  1.0422
  965SOL    HW1 3858   2.229   2.528   0.717 -2.9169  0.3217 -1.5409
  965SOL    HW2 3859   2.275   2.651   0.789 -0.8134 -2.2982  0.9103
  965SOL     MW 3860   2.216   2.610   0.743 -0.5622 -0.2039  0.6840
  966SOL     OW 3861   2.667   2.604   2.417 -0.2700 -0.0012  0.0016
  966SOL    HW1 3862   2.578   2.598   2.384  2.6642 -0.0516  2.8607
  966SOL    HW2 3863   2.699   2.514   2.426 -2.6004  1.1006  0.6114
  966SOL     MW 3864   2.660   2.592   2.414 -0.1903  0.1375  0.4593
  967SOL     OW 3865   2.794   3.019   2.963 -0.6071 -0.0330  0.5776
  967SOL    HW1 3866   2.776   2.936   2.997  2.2265  1.2397 -1.2436
  967SOL    HW2 3867   2.718   3.029   2.901 -1.2924  2.3498 -1.4095
  967SOL     MW 3868   2.782   3.009   2.960 -0.3236  0.4493  0.0751
  968SOL     OW 3869   3.062   2.658   2.962 -0.0684  0.4502 -0.5663
  968SOL    HW1 3870   2.983   2.689   2.925 -0.1632 -1.7549 -0.1540
  968SOL    HW2 3871   3.104   2.609   2.894  0.3670 -0.8018  0.0962
  968SOL     MW 3872   3.057   2.656   2.948 -0.0234 -0.0059 -0.4245
  969SOL     OW 3873   1.605   2.214   1.705 -0.1343 -0.2173  0.4577
  969SOL    HW1 3874   1.683   2.155   1.725  0.3954  1.1637  1.6952
  969SOL    HW2 3875   1.560   2.230   1.788 -1.3921 -1.1562  3.1598
  969SOL     MW 3876   1.609   2.208   1.719 -0.2304 -0.1590  0.9775
  970SOL     OW 3877   1.801   1.833   1.925 -0.4943  0.0576  0.1060
  970SOL    HW1 3878   1.835   1.779   1.997 -0.0389  1.9415 -0.7848
  970SOL    HW2 3879   1.717   1.791   1.895  1.0867 -1.0320 -2.6778
  970SOL     MW 3880   1.794   1.821   1.930 -0.2256  0.1624 -0.3788
  971SOL     OW 3881   1.729   3.097   2.368  0.2506 -0.0014  0.0316
  971SOL    HW1 3882   1.774   3.048   2.295 -0.4244  2.6116  1.7180
  971SOL    HW2 3883   1.766   3.182   2.373 -1.6907 -1.1877  1.7964
  971SOL     MW 3884   1.740   3.102   2.359 -0.0946  0.1868  0.4869
  972SOL     OW 3885   0.321   2.868   2.399  0.1683  0.8986 -0.5643
  972SOL    HW1 3886   0.361   2.797   2.448 -0.4672 -0.5735  1.0405
  972SOL    HW2 3887   0.342   2.948   2.448 -0.2129  0.2946 -1.2222
  972SOL     MW 3888   0.329   2.869   2.412  0.0341  0.6247 -0.4394
  973SOL     OW 3889   2.564   3.034   2.127 -0.1539 -0.8109  0.2169
  973SOL    HW1 3890   2.558   2.945   2.089 -3.2002  0.2380  0.7351
  973SOL    HW2 3891   2.597   3.087   2.052  1.7751  2.9775 -0.5122
  973SOL     MW 3892   2.567   3.029   2.112 -0.3013 -0.1727  0.1890
  974SOL     OW 3893   1.941   0.149   2.596  0.1873  0.5134 -0.1300
  974SOL    HW1 3894   2.023   0.155   2.642 -0.6444  1.4751 -0.8430
  974SOL    HW2 3895   1.922   0.055   2.596  1.6863 -1.5396 -1.7364
  974SOL     MW 3896   1.949   0.138   2.602  0.2754  0.3694 -0.4360
  975SOL     OW 3897   2.229   2.482   2.491  0.2793 -0.0374  0.0596
  975SOL    HW1 3898   2.293   2.515   2.555  0.7002 -2.7006 -0.2314
  975SOL    HW2 3899   2.150   2.547   2.485 -1.5117  0.4283 -1.9872
  975SOL     MW 3900   2.227   2.495   2.499  0.0986 -0.3274 -0.2488
  976SOL     OW 3901   0.193   0.360   1.666  0.6570 -0.4224 -0.6272
  976SOL    HW1 3902   0.248   0.282   1.673 -0.8246  0.9014 -0.2538
  976SOL    HW2 3903   0.106   0.320   1.666  0.8750  1.2312 -1.1266
  976SOL     MW 3904   0.189   0.345   1.667  0.4903 -0.0296 -0.6439
  977SOL     OW 3905   1.720   2.754   2.392  0.7904  0.4168 -0.1460
  977SOL    HW1 3906   1.738   2.662   2.381 -0.8520 -0.4827  0.4208
  977SOL    HW2 3907   1.807   2.789   2.365  0.5181  2.7169 -2.5049
  977SOL     MW 3908   1.734   2.747   2.387  0.5377  0.6016 -0.3825
   3.10000   3.10000   3.10000
