977 TIP4P/2005f water molecules t=   1.37000 step= 1370
 3908
    1SOL     OW    1   0.378   0.856   0.029  0.1101  0.3438 -0.0568
    1SOL    HW1    2   0.366   0.868  -0.069  2.4198  2.3632 -1.4033
    1SOL    HW2    3   0.325   0.776   0.045  0.6799  0.4973 -2.6639
    1SOL     MW    4   0.369   0.847   0.018  0.4900  0.6305 -0.5784
    2SOL     OW    5   0.339   3.033   1.144 -0.2228 -0.1599 -0.4648
    2SOL    HW1    6   0.403   3.101   1.108 -1.6353  2.7568  0.0627
    2SOL    HW2    7   0.251   3.076   1.135  1.3520  0.1620  0.2025
    2SOL     MW    8   0.336   3.048   1.138 -0.2014  0.2674 -0.3072
    3SOL     OW    9   2.618   0.342   0.949  0.7444  0.2080 -0.6527
    3SOL    HW1   10   2.668   0.401   0.896 -1.7952 -2.1669  3.1147
    3SOL    HW2   11   2.605   0.381   1.039 -0.3090 -0.1968  5.4369
    3SOL     MW   12   2.623   0.355   0.954  0.2703 -0.1588  0.6478
    4SOL     OW   13   3.057   1.738   0.584 -0.1900 -0.1330 -0.0209
    4SOL    HW1   14   3.019   1.814   0.540  0.4617 -1.3477  0.1339
    4SOL    HW2   15   3.099   1.680   0.517  2.0887 -0.2790  0.6299
    4SOL     MW   16   3.058   1.741   0.570  0.1967 -0.3126  0.0854
    5SOL     OW   17   1.644   1.519   0.607 -0.3654 -0.5192  0.8745
    5SOL    HW1   18   1.650   1.468   0.685 -0.3267 -1.1624 -1.3178
    5SOL    HW2   19   1.540   1.512   0.592 -4.6037  0.3746  2.2656
    5SOL     MW   20   1.631   1.511   0.615 -0.9195 -0.4861  0.7688
    6SOL     OW   21   0.809   1.391   0.582 -1.0976 -0.0613  0.1122
    6SOL    HW1   22   0.713   1.382   0.571 -2.0934 -1.0102  1.3219
    6SOL    HW2   23   0.817   1.311   0.638 -0.6313  0.0602 -1.4420
    6SOL     MW   24   0.797   1.379   0.588 -1.1675 -0.1704  0.0668
    7SOL     OW   25   1.998   1.052   0.011 -0.1416 -0.0726  0.2241
    7SOL    HW1   26   2.051   1.105  -0.042 -0.0199  2.3437 -0.7125
    7SOL    HW2   27   2.042   1.062   0.097  2.0044  1.5841  1.8132
    7SOL     MW   28   2.011   1.060   0.016  0.1576  0.4648  0.3102
    8SOL     OW   29   0.790   1.534   1.180 -0.7035 -0.2737 -0.3308
    8SOL    HW1   30   0.886   1.547   1.182  1.0840 -1.6220  2.5142
    8SOL    HW2   31   0.791   1.439   1.187 -0.0586  1.5248 -0.8687
    8SOL     MW   32   0.803   1.523   1.181 -0.3826 -0.2143 -0.0264
    9SOL     OW   33   1.036   0.507   1.344  0.3989 -0.1508  0.5230
    9SOL    HW1   34   0.998   0.433   1.291  2.4119 -0.8876  1.0585
    9SOL    HW2   35   1.068   0.468   1.429  0.3811 -2.8627 -0.3865
    9SOL     MW   36   1.035   0.492   1.348  0.6622 -0.6058  0.4736
   10SOL     OW   37   0.247   0.793   0.530 -0.2069  0.4268 -0.1704
   10SOL    HW1   38   0.330   0.830   0.497  0.7761 -0.6091  0.8842
   10SOL    HW2   39   0.247   0.836   0.618 -1.0321 -0.2832  0.9936
   10SOL     MW   40   0.258   0.803   0.537 -0.1861  0.1964  0.1224
   11SOL     OW   41   0.743   1.152   1.586  0.2078  0.3703 -0.1106
   11SOL    HW1   42   0.786   1.111   1.661  0.9170 -2.4368 -0.4269
   11SOL    HW2   43   0.763   1.086   1.521  1.6242  2.0487  2.7061
   11SOL     MW   44   0.751   1.138   1.587  0.4882  0.2214  0.2193
   12SOL     OW   45   3.039   1.142   0.867 -0.1852  0.0464 -0.1244
   12SOL    HW1   46   3.097   1.207   0.912  0.0697 -1.1066  0.7180
   12SOL    HW2   47   3.013   1.188   0.789  0.7167  0.0521 -4.0780
   12SOL     MW   48   3.044   1.157   0.863 -0.0326 -0.1050 -0.5349
   13SOL     OW   49   1.841   1.429   1.307 -0.6817  0.1725 -0.3983
   13SOL    HW1   50   1.882   1.398   1.230 -1.3263  0.8015 -3.4490
   13SOL    HW2   51   1.861   1.526   1.311  0.9403  0.3016  1.4380
   13SOL     MW   52   1.849   1.438   1.298 -0.5528  0.2725 -0.5586
   14SOL     OW   53   0.557   0.304   1.845  0.2333 -0.2441 -0.5906
   14SOL    HW1   54   0.494   0.246   1.813  0.5500  1.1251 -1.3375
   14SOL    HW2   55   0.587   0.339   1.766 -1.9576  0.3246 -0.5048
   14SOL     MW   56   0.553   0.301   1.831 -0.0140  0.0116 -0.6779
   15SOL     OW   57   1.984   0.333   1.054  0.0054 -0.2232  0.3797
   15SOL    HW1   58   1.984   0.407   1.112  0.3476 -0.5044  0.8794
   15SOL    HW2   59   2.050   0.362   0.988 -1.0821 -0.1383 -1.4865
   15SOL     MW   60   1.993   0.347   1.053 -0.0929 -0.2491  0.1994
   16SOL     OW   61   0.240   1.825   0.302  0.4393  0.2471 -0.2528
   16SOL    HW1   62   0.337   1.819   0.276  1.7270 -0.3389  1.4035
   16SOL    HW2   63   0.221   1.917   0.315 -0.2981  0.0559 -0.1429
   16SOL     MW   64   0.250   1.836   0.300  0.5119  0.1446 -0.0198
   17SOL     OW   65   1.048   0.885   1.421  0.2949 -0.3163  0.0078
   17SOL    HW1   66   1.094   0.871   1.510  0.2772 -1.5173 -0.1527
   17SOL    HW2   67   0.952   0.871   1.428  1.2887 -0.8547 -0.9059
   17SOL     MW   68   1.041   0.882   1.434  0.4237 -0.5458 -0.1340
   18SOL     OW   69   0.129   1.588   0.359  0.5069 -0.1089  0.0791
   18SOL    HW1   70   0.169   1.678   0.344  0.1876  1.4259 -0.7336
   18SOL    HW2   71   0.095   1.555   0.276  0.1472 -4.6738 -0.3894
   18SOL     MW   72   0.130   1.595   0.346  0.4173 -0.5087 -0.0899
   19SOL     OW   73   0.107   1.370   0.956 -0.2372  0.6173 -0.3652
   19SOL    HW1   74   0.149   1.393   0.874 -2.7317 -0.2913  0.2175
   19SOL    HW2   75   0.019   1.410   0.963  2.0895 -0.2389  0.3367
   19SOL     MW   76   0.101   1.378   0.946 -0.2594  0.3845 -0.1957
   20SOL     OW   77   0.415   2.171   1.198  0.0801  0.3015 -0.0412
   20SOL    HW1   78   0.409   2.097   1.141  0.7474 -0.0936 -0.4728
   20SOL    HW2   79   0.369   2.148   1.280 -0.4597  0.9100  0.1547
   20SOL     MW   80   0.408   2.158   1.201  0.0969  0.3297 -0.0723
   21SOL     OW   81   0.491   0.884   0.399  0.4203  0.3441 -0.2032
   21SOL    HW1   82   0.578   0.865   0.434 -0.1515  0.8019  0.6928
   21SOL    HW2   83   0.512   0.872   0.308 -1.8980  0.6234  0.7714
   21SOL     MW   84   0.505   0.880   0.391  0.0390  0.4414  0.0436
   22SOL     OW   85   1.531   0.704   0.952  0.0767  0.3993 -0.4858
   22SOL    HW1   86   1.511   0.646   0.881 -0.3052 -1.3047 -1.0234
   22SOL    HW2   87   1.443   0.738   0.975  1.5395  0.6127 -0.5861
   22SOL     MW   88   1.517   0.701   0.946  0.2193  0.2026 -0.5700
   23SOL     OW   89   3.081   0.701   0.680  0.4792  0.2120  0.2815
   23SOL    HW1   90   3.130   0.623   0.705  0.5163  1.6600  1.3530
   23SOL    HW2   91   3.152   0.767   0.692  1.0385  1.2686  1.7172
   23SOL     MW   92   3.097   0.699   0.685  0.5579  0.5425  0.6123
   24SOL     OW   93   2.052   2.209   3.079  0.3420 -0.3698 -0.5069
   24SOL    HW1   94   2.063   2.224   3.174  1.1049  0.2994  1.0022
   24SOL    HW2   95   2.081   2.120   3.049  1.4791 -1.4275  0.1829
   24SOL     MW   96   2.057   2.199   3.088  0.5927 -0.4211 -0.2168
   25SOL     OW   97   0.248   1.343   0.427  0.0061 -0.2321 -0.4802
   25SOL    HW1   98   0.248   1.443   0.420 -0.4973 -1.0938 -1.4994
   25SOL    HW2   99   0.333   1.311   0.439  0.1210  1.9322  1.4556
   25SOL     MW  100   0.259   1.352   0.428 -0.0452 -0.0602 -0.3593
   26SOL     OW  101   2.060   1.034   0.280 -0.0740 -0.2499 -0.0975
   26SOL    HW1  102   1.983   1.074   0.317 -1.2746 -1.6357 -2.4560
   26SOL    HW2  103   2.124   1.099   0.286 -0.6827 -0.7255 -1.9814
   26SOL     MW  104   2.058   1.048   0.285 -0.3127 -0.4955 -0.6573
   27SOL     OW  105   1.920   1.425   0.218 -0.9317 -0.3057  0.1744
   27SOL    HW1  106   1.863   1.503   0.222 -1.9794 -0.6800  0.6375
   27SOL    HW2  107   1.964   1.430   0.306 -0.6860  0.0158  1.0074
   27SOL     MW  108   1.919   1.436   0.230 -1.0375 -0.3126  0.3454
   28SOL     OW  109   0.455   1.008   2.003  0.6014  0.0922  0.4069
   28SOL    HW1  110   0.497   0.996   2.092  2.5375 -1.3469 -2.6461
   28SOL    HW2  111   0.371   0.962   2.019 -0.0268 -1.4950 -1.3034
   28SOL     MW  112   0.449   1.000   2.017  0.7740 -0.3071 -0.2216
   29SOL     OW  113   0.250   1.425   0.718  0.2127 -0.5144 -0.4583
   29SOL    HW1  114   0.271   1.525   0.723 -2.2388  1.1933  0.3524
   29SOL    HW2  115   0.246   1.408   0.623 -3.5523 -0.5626 -3.3904
   29SOL     MW  116   0.252   1.436   0.706 -0.6075 -0.2954 -0.7382
   30SOL     OW  117   0.835   1.266   1.232 -0.2983 -0.1930 -0.1993
   30SOL    HW1  118   0.759   1.230   1.270  0.0780 -0.0767  0.2028
   30SOL    HW2  119   0.912   1.260   1.296 -2.6276  1.4428 -0.3225
   30SOL     MW  120   0.835   1.260   1.246 -0.5560  0.0382 -0.1625
   31SOL     OW  121   0.432   0.267   0.190  0.6493  0.5749 -0.2215
   31SOL    HW1  122   0.442   0.180   0.229 -1.4779  0.8955  1.9453
   31SOL    HW2  123   0.457   0.253   0.097 -1.0609  0.0600  0.6996
   31SOL     MW  124   0.436   0.253   0.183  0.1430  0.5493  0.1859
   32SOL     OW  125   2.677   0.989   1.128  0.0953 -0.4859 -0.1098
   32SOL    HW1  126   2.617   0.924   1.137  0.4287  1.0545  0.2134
   32SOL    HW2  127   2.744   0.956   1.070 -1.5417  0.7422  0.0244
   32SOL     MW  128   2.678   0.976   1.121 -0.0767 -0.1206 -0.0495
   33SOL     OW  129   1.618   1.330   0.376  0.1164 -0.3358 -0.1825
   33SOL    HW1  130   1.696   1.280   0.395 -0.7608  1.5015 -1.5405
   33SOL    HW2  131   1.614   1.399   0.444  0.6054  0.5736  1.1672
   33SOL     MW  132   1.628   1.333   0.388  0.0652  0.0266 -0.1836
   34SOL     OW  133   1.252   1.943   1.124 -0.5134 -0.0059  0.2328
   34SOL    HW1  134   1.183   1.993   1.153  2.2849  1.3798 -0.3162
   34SOL    HW2  135   1.326   1.964   1.177  0.4779  1.8785 -0.7379
   34SOL     MW  136   1.253   1.952   1.135 -0.0134  0.4255  0.0323
   35SOL     OW  137   0.344   0.122   1.811 -0.5811  0.1647  0.1579
   35SOL    HW1  138   0.377   0.055   1.872 -1.0815  0.6268  0.8245
   35SOL    HW2  139   0.341   0.081   1.720  1.4019 -2.5735  0.4232
   35SOL     MW  140   0.348   0.108   1.807 -0.3855 -0.1356  0.2808
   36SOL     OW  141   1.946   1.913   0.574  0.1534  0.4542  0.1923
   36SOL    HW1  142   1.928   1.893   0.483  1.1407 -0.6996  0.8361
   36SOL    HW2  143   1.931   1.832   0.626  0.7138 -1.0202  2.0231
   36SOL     MW  144   1.941   1.900   0.569  0.3576  0.1074  0.5188
   37SOL     OW  145   1.808   2.001   0.983  0.0445 -0.3720  0.2749
   37SOL    HW1  146   1.763   1.959   0.912 -3.2078  2.9293  2.9349
   37SOL    HW2  147   1.737   2.047   1.020  1.8439 -0.6628  0.1758
   37SOL     MW  148   1.793   2.002   0.979 -0.1472  0.0252  0.6128
   38SOL     OW  149   2.807   0.925   0.124 -0.0644 -0.9342  0.5476
   38SOL    HW1  150   2.823   0.934   0.220 -1.3373  1.8245 -1.8194
   38SOL    HW2  151   2.886   0.880   0.090 -1.1498  1.0090 -0.6382
   38SOL     MW  152   2.820   0.920   0.132 -0.3755 -0.3138  0.0789
   39SOL     OW  153   1.460   0.550   0.748  0.0166 -0.4802  0.1561
   39SOL    HW1  154   1.418   0.467   0.772 -0.1931 -1.3423 -0.9628
   39SOL    HW2  155   1.386   0.610   0.736 -0.0016  0.7242  0.9091
   39SOL     MW  156   1.445   0.547   0.750 -0.0135 -0.4350  0.1078
   40SOL     OW  157   1.248   1.875   0.209  0.3905  0.0854  0.5018
   40SOL    HW1  158   1.293   1.802   0.257  0.4078 -1.7338 -1.1830
   40SOL    HW2  159   1.225   1.933   0.281  1.4667 -1.0185  0.0790
   40SOL     MW  160   1.251   1.873   0.225  0.5347 -0.3002  0.2237
   41SOL     OW  161   0.575   0.493   1.632  0.3268  0.3249 -0.1204
   41SOL    HW1  162   0.654   0.544   1.620  2.3417  1.8294 -0.5456
   41SOL    HW2  163   0.499   0.560   1.647 -1.3953  2.2086  0.2660
   41SOL     MW  164   0.575   0.508   1.633  0.3654  0.7719 -0.1255
   42SOL     OW  165   1.290   3.006   1.944 -0.2431 -0.1267 -0.2669
   42SOL    HW1  166   1.208   3.027   1.985 -0.4982  0.2466  1.6446
   42SOL    HW2  167   1.322   2.921   1.974 -0.0605  0.2133  0.2972
   42SOL     MW  168   1.283   2.997   1.954 -0.2527 -0.0325  0.0597
   43SOL     OW  169   1.458   0.135   1.649  0.1397  0.2830  0.4975
   43SOL    HW1  170   1.506   0.079   1.586 -1.8164  2.4181 -1.1834
   43SOL    HW2  171   1.388   0.076   1.678  3.1194 -0.6442 -0.6271
   43SOL     MW  172   1.455   0.120   1.645  0.2748  0.4424  0.1273
   44SOL     OW  173   1.294   0.763   1.060  0.5422 -0.5084  0.1320
   44SOL    HW1  174   1.273   0.858   1.048 -0.0174  0.8156 -2.8678
   44SOL    HW2  175   1.291   0.743   1.156 -0.5946 -2.7440  1.4025
   44SOL     MW  176   1.291   0.773   1.071  0.3183 -0.6287 -0.0962
   45SOL     OW  177   1.265   0.758   0.759 -0.2303 -0.0129  0.4161
   45SOL    HW1  178   1.220   0.773   0.841  1.1494  0.8746  0.8543
   45SOL    HW2  179   1.203   0.724   0.684  1.9063 -0.3321  1.2487
   45SOL     MW  180   1.251   0.756   0.760  0.2336  0.0621  0.5838
   46SOL     OW  181   0.548   1.096   0.604 -0.6029  0.1408  0.3535
   46SOL    HW1  182   0.507   1.105   0.522 -0.1194  1.3084  2.0661
   46SOL    HW2  183   0.643   1.105   0.593 -0.7023  0.5446  1.2298
   46SOL     MW  184   0.556   1.098   0.592 -0.5522  0.3481  0.6951
   47SOL     OW  185   0.198   1.957   1.954 -0.0403  0.4788  0.0661
   47SOL    HW1  186   0.249   1.874   1.939 -1.7859 -1.5577 -1.6534
   47SOL    HW2  187   0.139   1.949   2.031 -1.5062 -0.1533  0.8233
   47SOL     MW  188   0.197   1.945   1.962 -0.4641  0.1267 -0.0609
   48SOL     OW  189   1.122   0.511   1.030  0.1940  0.2527 -0.0932
   48SOL    HW1  190   1.027   0.506   1.009  1.1083 -1.2575  0.8819
   48SOL    HW2  191   1.140   0.602   1.042  2.0563  0.7349  0.0054
   48SOL     MW  192   1.112   0.523   1.029  0.5603  0.1171  0.0485
   49SOL     OW  193   1.711   0.642   1.522 -0.1423 -0.5460 -0.1766
   49SOL    HW1  194   1.713   0.588   1.602 -1.5036  0.3011  0.2809
   49SOL    HW2  195   1.733   0.581   1.452 -0.3200 -0.3022  0.6699
   49SOL     MW  196   1.714   0.627   1.523 -0.3453 -0.4020 -0.0045
   50SOL     OW  197   1.257   1.148   0.565  0.3342  0.3253  0.3269
   50SOL    HW1  198   1.186   1.168   0.631 -0.3961 -0.0689  1.8707
   50SOL    HW2  199   1.322   1.100   0.623  0.8670 -0.8816 -1.9738
   50SOL     MW  200   1.256   1.144   0.581  0.3081  0.1140  0.2270
   51SOL     OW  201   0.317   2.934   0.900  0.7036  0.1246 -0.5088
   51SOL    HW1  202   0.408   2.908   0.894 -2.0946 -1.8185  0.4207
   51SOL    HW2  203   0.314   2.984   0.982 -0.0388  0.2367  0.8999
   51SOL     MW  204   0.328   2.937   0.910  0.2364 -0.1170 -0.2003
   52SOL     OW  205   0.789   1.798   0.469 -0.0554  0.4488  0.2452
   52SOL    HW1  206   0.768   1.892   0.477 -0.7547  1.2565 -2.4373
   52SOL    HW2  207   0.841   1.774   0.392  0.3207 -0.2392 -0.3324
   52SOL     MW  208   0.793   1.807   0.459 -0.0981  0.4646 -0.1849
   53SOL     OW  209   0.428   2.135   0.511  0.1474  0.6735  0.1491
   53SOL    HW1  210   0.362   2.126   0.446  1.5828 -0.8870  2.6759
   53SOL    HW2  211   0.434   2.230   0.530  0.9737  0.7017 -0.9723
   53SOL     MW  212   0.421   2.146   0.505  0.4458  0.4713  0.3345
   54SOL     OW  213   2.083   0.932   0.768 -0.4062 -0.2559  0.3252
   54SOL    HW1  214   2.100   0.921   0.672  0.1265 -0.6449  1.0903
   54SOL    HW2  215   2.037   0.850   0.794  1.1101 -1.2041 -0.4826
   54SOL     MW  216   2.079   0.919   0.759 -0.1359 -0.4323  0.3196
   55SOL     OW  217   0.531   1.581   1.657 -0.3052 -0.6463 -0.2546
   55SOL    HW1  218   0.466   1.616   1.591 -2.2500  0.8007  0.3380
   55SOL    HW2  219   0.559   1.493   1.656 -0.3441 -0.7480 -2.0410
   55SOL     MW  220   0.526   1.574   1.648 -0.5669 -0.4688 -0.4121
   56SOL     OW  221   0.607   0.872   0.143  0.1332  0.1683  0.1995
   56SOL    HW1  222   0.634   0.959   0.118 -1.1160 -0.7340 -1.1848
   56SOL    HW2  223   0.521   0.860   0.100 -0.9509 -2.8682  1.1331
   56SOL     MW  224   0.599   0.882   0.134 -0.1747 -0.3514  0.1400
   57SOL     OW  225   1.191   1.214   1.176 -0.0134  0.3808 -0.3239
   57SOL    HW1  226   1.280   1.247   1.181  1.8568 -1.3968  1.4672
   57SOL    HW2  227   1.170   1.188   1.266  0.7173  0.0539  1.6704
   57SOL     MW  228   1.200   1.215   1.189  0.3298  0.1031  0.1755
   58SOL     OW  229   0.520   1.235   1.287  0.0781  0.8315 -0.2733
   58SOL    HW1  230   0.523   1.331   1.283 -1.0740  2.5942  0.7360
   58SOL    HW2  231   0.509   1.228   1.382  1.8153 -2.5375 -1.3665
   58SOL     MW  232   0.519   1.247   1.299  0.1553  0.6196 -0.2844
   59SOL     OW  233   1.512   1.690   0.324 -0.0494  0.1298  0.5651
   59SOL    HW1  234   1.545   1.739   0.402  0.6445  2.1150  1.2595
   59SOL    HW2  235   1.449   1.629   0.366 -0.4054 -1.0404 -0.2811
   59SOL     MW  236   1.508   1.688   0.340 -0.0048  0.2373  0.5451
   60SOL     OW  237   3.079   0.203   1.699 -0.1200 -0.7624  0.4517
   60SOL    HW1  238   2.980   0.222   1.709 -4.0492 -0.4603 -0.8665
   60SOL    HW2  239   3.110   0.143   1.764 -0.0257 -3.7752  1.9220
   60SOL     MW  240   3.070   0.197   1.709 -0.6260 -1.1200  0.4718
   61SOL     OW  241   1.977   1.391   3.038  0.1417  0.1919 -0.8468
   61SOL    HW1  242   1.954   1.371   3.134  2.8590 -1.0848  1.0190
   61SOL    HW2  243   2.065   1.350   3.033 -3.6112 -0.7547 -2.0250
   61SOL     MW  244   1.986   1.383   3.050  0.0050 -0.1015 -0.7561
   62SOL     OW  245   0.550   1.715   0.526 -0.0225  0.1868  0.3918
   62SOL    HW1  246   0.638   1.742   0.510  1.5261  2.0072 -0.6591
   62SOL    HW2  247   0.535   1.621   0.515 -1.6990 -1.2268 -0.6530
   62SOL     MW  248   0.560   1.706   0.523 -0.0394  0.2405  0.1153
   63SOL     OW  249   1.709   0.646   0.679  0.3138 -0.0574 -0.3502
   63SOL    HW1  250   1.692   0.740   0.673  0.6558 -0.4088 -0.9334
   63SOL    HW2  251   1.622   0.603   0.693  0.3618 -1.4737  1.7169
   63SOL     MW  252   1.695   0.653   0.680  0.3652 -0.2906 -0.1544
   64SOL     OW  253   0.300   1.683   0.760 -0.4069 -0.0030 -0.1329
   64SOL    HW1  254   0.357   1.761   0.762 -0.2360 -1.5403  0.4501
   64SOL    HW2  255   0.211   1.720   0.776 -1.1109 -0.6566  1.8897
   64SOL     MW  256   0.295   1.699   0.762 -0.4772 -0.2921  0.2108
   65SOL     OW  257   1.574   2.329   0.400 -0.1854 -0.3652 -0.2158
   65SOL    HW1  258   1.668   2.322   0.422  0.6142 -0.6105 -2.0101
   65SOL    HW2  259   1.527   2.342   0.486 -0.0574  1.4754  1.3366
   65SOL     MW  260   1.580   2.330   0.414 -0.0630 -0.1547 -0.2477
   66SOL     OW  261   0.338   0.532   0.464  0.3227  0.2689 -0.3118
   66SOL    HW1  262   0.362   0.535   0.371 -0.6562 -1.2473 -0.3967
   66SOL    HW2  263   0.291   0.617   0.491 -1.3270  0.5523 -0.6433
   66SOL     MW  264   0.335   0.544   0.455 -0.0241  0.1062 -0.3668
   67SOL     OW  265   1.458   0.144   1.993  0.0726 -0.2297 -0.0600
   67SOL    HW1  266   1.498   0.185   1.914  1.4189  1.1901 -1.1987
   67SOL    HW2  267   1.448   0.053   1.972 -0.9181 -0.7138  0.7783
   67SOL     MW  268   1.462   0.137   1.979  0.1195 -0.1062 -0.0996
   68SOL     OW  269   0.791   0.031   2.948 -0.1334 -0.4682  0.3140
   68SOL    HW1  270   0.786   0.107   2.887 -0.3077  1.8708  1.4500
   68SOL    HW2  271   0.867   0.058   3.001  3.6289 -0.6623 -0.3961
   68SOL     MW  272   0.800   0.045   2.947  0.3400 -0.1852  0.3702
   69SOL     OW  273   0.954   0.203   1.954 -0.0105  0.0901 -0.0874
   69SOL    HW1  274   1.052   0.213   1.952  0.1647 -0.7196  0.9283
   69SOL    HW2  275   0.940   0.123   2.006  1.4819  1.1702 -0.2615
   69SOL     MW  276   0.965   0.194   1.961  0.2095  0.1258  0.0237
   70SOL     OW  277   0.497   1.706   1.097 -0.6892  0.1661 -0.7455
   70SOL    HW1  278   0.531   1.777   1.152 -1.2003  0.4802  1.4015
   70SOL    HW2  279   0.565   1.690   1.028 -0.0892 -1.8241 -0.0990
   70SOL     MW  280   0.511   1.713   1.095 -0.6774 -0.0550 -0.3769
   71SOL     OW  281   1.551   0.533   1.158 -0.1288 -0.2078  0.4606
   71SOL    HW1  282   1.538   0.586   1.234 -1.5915  2.1092 -2.0485
   71SOL    HW2  283   1.537   0.592   1.087  0.3662 -0.9095  0.6308
   71SOL     MW  284   1.548   0.547   1.159 -0.2565  0.0053  0.1520
   72SOL     OW  285   0.788   1.858   0.992 -0.0708  0.6953  0.2220
   72SOL    HW1  286   0.758   1.935   0.943  0.0113 -1.7041 -1.5962
   72SOL    HW2  287   0.746   1.781   0.949  0.0172 -0.6483 -0.3852
   72SOL     MW  288   0.778   1.858   0.980 -0.0483  0.2015 -0.0980
   73SOL     OW  289   1.235   0.682   1.313  0.1592 -0.5394  0.0686
   73SOL    HW1  290   1.163   0.624   1.314 -0.4808 -0.4583  0.2898
   73SOL    HW2  291   1.197   0.766   1.346  2.9556  1.8248  2.7810
   73SOL     MW  292   1.220   0.686   1.318  0.4438 -0.2167  0.4557
   74SOL     OW  293   2.868   0.256   1.085  0.3954 -0.3020 -0.2655
   74SOL    HW1  294   2.933   0.327   1.091 -0.7058 -1.6125 -3.7040
   74SOL    HW2  295   2.796   0.287   1.032 -0.1708  0.2251 -2.3542
   74SOL     MW  296   2.867   0.269   1.079  0.1754 -0.4054 -0.9947
   75SOL     OW  297   1.578   1.340   0.112  0.0422 -0.5278  0.4086
   75SOL    HW1  298   1.646   1.277   0.077 -0.6321  0.4203  0.2649
   75SOL    HW2  299   1.596   1.338   0.210 -0.1200 -1.8983 -0.7819
   75SOL     MW  300   1.590   1.331   0.120 -0.0682 -0.5836  0.2325
   76SOL     OW  301   2.970   0.601   0.452  0.0590 -0.3707  0.1985
   76SOL    HW1  302   3.020   0.638   0.528 -0.5318  1.0915  0.7599
   76SOL    HW2  303   3.039   0.557   0.404 -1.2074 -0.6652 -0.2251
   76SOL     MW  304   2.986   0.600   0.456 -0.1861 -0.2166  0.2167
   77SOL     OW  305   0.872   0.539   0.449  1.0312 -0.3511 -0.6049
   77SOL    HW1  306   0.837   0.559   0.361 -2.1980 -0.6387  1.0112
   77SOL    HW2  307   0.878   0.441   0.460  0.1281  0.3617 -0.5232
   77SOL     MW  308   0.868   0.529   0.439  0.4860 -0.2950 -0.3809
   78SOL     OW  309   0.762   0.844   1.164  0.2622  0.4514 -0.3524
   78SOL    HW1  310   0.800   0.925   1.128  4.6116  0.9873 -1.7515
   78SOL    HW2  311   0.663   0.836   1.140 -0.6768  0.3479 -0.9314
   78SOL     MW  312   0.754   0.853   1.156  0.7121  0.5085 -0.6134
   79SOL     OW  313   1.905   1.635   0.628 -0.0604  0.3317  0.1061
   79SOL    HW1  314   1.820   1.611   0.590  1.0871  1.5988  1.0518
   79SOL    HW2  315   1.889   1.642   0.726  2.1351  2.4573 -0.1881
   79SOL     MW  316   1.892   1.633   0.636  0.3807  0.7794  0.1921
   80SOL     OW  317   0.084   0.958   0.360  0.1912  0.1704  0.1574
   80SOL    HW1  318  -0.000   0.912   0.351  0.7923  0.1136 -0.4592
   80SOL    HW2  319   0.145   0.899   0.401  0.5795 -2.2320 -0.7032
   80SOL     MW  320   0.081   0.944   0.364  0.3218 -0.1541 -0.0375
   81SOL     OW  321   1.862   1.880   0.322  0.1431 -0.3625  0.1490
   81SOL    HW1  322   1.846   1.788   0.271 -1.3165 -2.5510 -1.3072
   81SOL    HW2  323   1.802   1.946   0.275  0.9748  0.1991  0.9633
   81SOL     MW  324   1.852   1.876   0.309  0.0603 -0.5772  0.0643
   82SOL     OW  325   0.846   1.030   0.506  0.5177  0.2978  0.4016
   82SOL    HW1  326   0.833   1.055   0.411  3.3158  2.7974  0.5481
   82SOL    HW2  327   0.810   0.938   0.507 -2.6122 -0.9447 -1.8197
   82SOL     MW  328   0.840   1.021   0.493  0.4739  0.4637  0.1278
   83SOL     OW  329   0.043   0.746   1.509 -0.0643 -0.0328 -0.1293
   83SOL    HW1  330   0.054   0.774   1.418 -0.6685 -0.1258  0.4305
   83SOL    HW2  331   0.108   0.674   1.526  0.1930 -1.5367  3.8683
   83SOL     MW  332   0.053   0.740   1.499 -0.1101 -0.2435  0.4720
   84SOL     OW  333   0.045   0.200   0.900  0.5667 -0.1145 -0.1891
   84SOL    HW1  334  -0.001   0.276   0.941 -0.0356  3.3073 -1.7297
   84SOL    HW2  335   0.037   0.124   0.961 -2.4862  0.7990  2.9086
   84SOL     MW  336   0.038   0.200   0.914  0.0844  0.4575  0.0163
   85SOL     OW  337   0.411   0.445   0.720 -0.0300 -0.1307  0.1681
   85SOL    HW1  338   0.386   0.457   0.634 -0.2282 -0.8425  2.3307
   85SOL    HW2  339   0.370   0.359   0.752 -0.4809  0.2550  1.6482
   85SOL     MW  340   0.402   0.435   0.713 -0.1156 -0.1737  0.6487
   86SOL     OW  341   1.194   0.246   1.122 -0.3584 -0.4989 -0.0760
   86SOL    HW1  342   1.160   0.335   1.122  0.3723  1.1261 -3.5501
   86SOL    HW2  343   1.282   0.240   1.154 -3.8731  1.2135  1.7333
   86SOL     MW  344   1.201   0.257   1.126 -0.7257 -0.0586 -0.2957
   87SOL     OW  345   1.097   1.481   1.209 -0.4394 -0.0359 -0.1492
   87SOL    HW1  346   1.146   1.536   1.145 -2.1443 -1.2230 -0.1395
   87SOL    HW2  347   1.106   1.395   1.181 -3.7142  1.6230 -0.0622
   87SOL     MW  348   1.105   1.477   1.197 -1.0964  0.0264 -0.1364
   88SOL     OW  349   1.221   1.002   0.997  0.1738  0.1201 -0.1304
   88SOL    HW1  350   1.307   1.037   0.966  0.3405  0.3249 -0.9287
   88SOL    HW2  351   1.200   1.069   1.068  2.1037  2.8368  1.4606
   88SOL     MW  352   1.229   1.015   1.002  0.4504  0.5056 -0.0258
   89SOL     OW  353   1.737   0.731   0.357 -0.3398  0.0625  0.9123
   89SOL    HW1  354   1.738   0.647   0.404 -0.7006  0.3498  1.5728
   89SOL    HW2  355   1.827   0.747   0.332  0.2816  0.1925  1.0754
   89SOL     MW  356   1.749   0.722   0.360 -0.3054  0.1175  1.0209
   90SOL     OW  357   0.816   1.159   2.885  0.4082  0.3420  0.1761
   90SOL    HW1  358   0.899   1.109   2.885  0.8461 -0.9536  0.0088
   90SOL    HW2  359   0.815   1.228   2.957  0.2457 -0.9749  1.2817
   90SOL     MW  360   0.827   1.162   2.895  0.4446 -0.0027  0.2999
   91SOL     OW  361   2.172   0.653   0.490  0.1190 -0.4393 -0.7268
   91SOL    HW1  362   2.244   0.710   0.449  2.0829  0.4331 -0.7109
   91SOL    HW2  363   2.195   0.564   0.449  0.0881 -2.6411 -2.4981
   91SOL     MW  364   2.185   0.649   0.479  0.3740 -0.6147 -0.9584
   92SOL     OW  365   1.682   0.903   0.580 -0.8101  0.1409 -0.6253
   92SOL    HW1  366   1.591   0.924   0.609 -0.3527  2.3175  0.0993
   92SOL    HW2  367   1.683   0.839   0.504 -2.1494  1.1133 -0.7843
   92SOL     MW  368   1.670   0.897   0.574 -0.9264  0.5564 -0.5507
   93SOL     OW  369   1.128   0.162   0.433  0.0003  0.1192  0.1426
   93SOL    HW1  370   1.045   0.210   0.423 -0.4305  2.0590  2.4597
   93SOL    HW2  371   1.183   0.201   0.366 -1.8872  0.3062 -1.8205
   93SOL     MW  372   1.124   0.174   0.423 -0.3056  0.3998  0.1893
   94SOL     OW  373   1.863   1.368   1.591 -0.2476 -0.5392 -0.0011
   94SOL    HW1  374   1.868   1.387   1.494  0.3490 -0.9555  1.9121
   94SOL    HW2  375   1.828   1.280   1.600 -0.1666  1.2037  2.0292
   94SOL     MW  376   1.859   1.359   1.579 -0.1582 -0.3642  0.5192
   95SOL     OW  377   0.691   1.597   0.930 -0.3528 -0.5097 -0.1678
   95SOL    HW1  378   0.734   1.580   1.016 -1.2641  0.2634 -0.3567
   95SOL    HW2  379   0.630   1.523   0.927 -0.6133  0.3672 -1.3407
   95SOL     MW  380   0.688   1.585   0.941 -0.5074 -0.2920 -0.3475
   96SOL     OW  381   1.327   1.875   1.725  0.0337 -0.1359 -0.1500
   96SOL    HW1  382   1.240   1.885   1.769 -0.3765 -0.9631 -2.5731
   96SOL    HW2  383   1.319   1.792   1.684  1.5204  0.5743  1.0295
   96SOL     MW  384   1.314   1.866   1.726  0.1757 -0.1514 -0.3141
   97SOL     OW  385   1.110   1.464   0.843  0.3220 -0.0348  0.0737
   97SOL    HW1  386   1.127   1.528   0.912 -2.1370 -0.6318  0.1688
   97SOL    HW2  387   1.027   1.495   0.803  1.8959 -2.2261 -0.9993
   97SOL     MW  388   1.102   1.477   0.847  0.2052 -0.4027 -0.0554
   98SOL     OW  389   1.453   1.315   1.160 -0.5712  0.3720 -0.0610
   98SOL    HW1  390   1.492   1.361   1.230 -2.5407  0.8526 -0.7636
   98SOL    HW2  391   1.453   1.378   1.082 -0.1715  0.9380  2.7236
   98SOL     MW  392   1.458   1.330   1.159 -0.7783  0.5101  0.2137
   99SOL     OW  393   1.466   0.283   1.251  0.1674  0.0653  0.0147
   99SOL    HW1  394   1.507   0.365   1.224  0.0005 -0.1933 -0.5403
   99SOL    HW2  395   1.404   0.310   1.324  1.9280  0.5076 -0.9021
   99SOL     MW  396   1.464   0.297   1.257  0.3777  0.0896 -0.1795
  100SOL     OW  397   1.042   1.158   1.406 -0.6201  0.1248  0.1125
  100SOL    HW1  398   1.082   1.206   1.479 -0.5914  0.7883  1.1634
  100SOL    HW2  399   1.049   1.065   1.419  1.6385  0.5966  0.0028
  100SOL     MW  400   1.048   1.152   1.417 -0.3183  0.2746  0.2367
  101SOL     OW  401   0.496   1.210   0.358  0.5110 -0.3441  0.4142
  101SOL    HW1  402   0.421   1.182   0.305  1.1571 -0.7275  0.5484
  101SOL    HW2  403   0.582   1.185   0.321  3.5787  0.1663  0.3059
  101SOL     MW  404   0.498   1.203   0.346  1.0010 -0.3274  0.4176
  102SOL     OW  405   2.903   0.642   0.999 -0.0230  0.1331  0.4892
  102SOL    HW1  406   2.910   0.735   1.000  0.1540 -0.3093  2.3430
  102SOL    HW2  407   2.898   0.625   1.099  1.0677  0.2591 -1.5844
  102SOL     MW  408   2.904   0.652   1.013  0.1443  0.0913  0.4602
  103SOL     OW  409   1.828   0.255   1.877  0.2450 -0.8587 -0.9994
  103SOL    HW1  410   1.809   0.170   1.847 -1.4593 -0.5586  0.2040
  103SOL    HW2  411   1.816   0.253   1.970  0.5390  0.3131 -1.9394
  103SOL     MW  412   1.824   0.244   1.885  0.0590 -0.6645 -0.9647
  104SOL     OW  413   0.098   1.512   1.585 -0.1151 -0.1670  0.0254
  104SOL    HW1  414   0.176   1.472   1.613 -1.3863  1.8961 -1.7382
  104SOL    HW2  415   0.027   1.465   1.622 -2.0232  2.0540 -0.9191
  104SOL     MW  416   0.099   1.500   1.594 -0.5345  0.3982 -0.3319
  105SOL     OW  417   0.004   1.208   0.422  0.0900  0.4320 -0.1031
  105SOL    HW1  418   0.040   1.121   0.444 -0.6522 -1.7267  2.1640
  105SOL    HW2  419   0.077   1.263   0.411 -0.1771 -2.0367 -1.0655
  105SOL     MW  420   0.018   1.204   0.423 -0.0432 -0.1785  0.0690
  106SOL     OW  421   0.799   0.419   0.910 -0.5141 -0.0743 -0.3066
  106SOL    HW1  422   0.713   0.459   0.911 -0.5157  0.0767 -0.9534
  106SOL    HW2  423   0.839   0.431   0.823 -0.7707  1.5899  0.2543
  106SOL     MW  424   0.793   0.426   0.899 -0.5481  0.1652 -0.3179
  107SOL     OW  425   0.803   2.117   2.909  0.0315 -0.2592  0.0030
  107SOL    HW1  426   0.712   2.100   2.873  1.0944 -1.1922  1.1613
  107SOL    HW2  427   0.816   2.088   2.997 -1.6902  3.7344 -0.2118
  107SOL     MW  428   0.792   2.111   2.916 -0.0554  0.1446  0.1275
  108SOL     OW  429   1.353   1.625   1.642  0.5485 -0.1311 -0.0347
  108SOL    HW1  430   1.295   1.575   1.584 -3.3027 -6.1143  0.3347
  108SOL    HW2  431   1.431   1.571   1.654 -0.3827  1.8768 -2.1702
  108SOL     MW  432   1.356   1.611   1.636 -0.0825 -0.6556 -0.2677
  109SOL     OW  433   1.987   0.756   0.253  0.6510 -0.4473 -0.1130
  109SOL    HW1  434   2.016   0.847   0.252 -1.1604 -0.4131 -2.3792
  109SOL    HW2  435   2.053   0.714   0.309  1.5688 -1.7623 -1.9239
  109SOL     MW  436   1.999   0.762   0.260  0.5331 -0.6163 -0.6509
  110SOL     OW  437   0.414   1.928   0.666 -0.0117  0.2823  0.4806
  110SOL    HW1  438   0.466   1.864   0.612 -1.6418 -0.2368  3.8360
  110SOL    HW2  439   0.403   2.009   0.611  0.5837  2.1255  0.5806
  110SOL     MW  440   0.419   1.930   0.651 -0.1482  0.4570  0.9365
  111SOL     OW  441   0.779   0.882   1.445  0.0734  0.4510 -0.0166
  111SOL    HW1  442   0.787   0.871   1.347 -0.0595  1.1246  1.6484
  111SOL    HW2  443   0.768   0.794   1.481 -0.1442  0.1553  0.8462
  111SOL     MW  444   0.779   0.869   1.437  0.0271  0.5009  0.3169
  112SOL     OW  445   1.331   1.071   1.619  0.3349  0.3202  0.0507
  112SOL    HW1  446   1.264   1.138   1.620 -3.2796  0.0237 -0.3161
  112SOL    HW2  447   1.289   0.986   1.614 -2.2392  0.8248  0.2865
  112SOL     MW  448   1.317   1.069   1.618 -0.4816  0.3476  0.0334
  113SOL     OW  449   1.255   3.082   1.689 -0.2813  0.1586 -0.5073
  113SOL    HW1  450   1.267   3.044   1.782 -0.5622 -1.2406  1.0739
  113SOL    HW2  451   1.271   3.008   1.627  4.1294  0.6458 -0.4252
  113SOL     MW  452   1.259   3.067   1.693  0.2636  0.0383 -0.2878
  114SOL     OW  453   0.260   2.868   1.876 -0.3163 -0.1439 -0.2333
  114SOL    HW1  454   0.333   2.919   1.919  0.8046  1.3712  2.1203
  114SOL    HW2  455   0.190   2.923   1.877  1.3011 -3.9962 -2.9314
  114SOL     MW  456   0.261   2.882   1.882  0.0450 -0.4523 -0.2788
  115SOL     OW  457   0.454   0.807   1.143 -0.3111 -0.1510 -0.5042
  115SOL    HW1  458   0.477   0.733   1.203 -0.3700  1.4273  1.9804
  115SOL    HW2  459   0.421   0.881   1.204  1.1544  0.1326  3.6803
  115SOL     MW  460   0.453   0.807   1.159 -0.1255  0.0946  0.3757
  116SOL     OW  461   0.819   1.073   0.982 -0.1053  0.6259  0.3131
  116SOL    HW1  462   0.814   1.095   0.887  1.5595 -0.9569 -1.7054
  116SOL    HW2  463   0.846   1.149   1.026 -1.3917 -1.2718 -1.2372
  116SOL     MW  464   0.822   1.086   0.975 -0.0553  0.1667 -0.1578
  117SOL     OW  465   1.104   1.188   0.807 -0.0678 -0.4771  0.3269
  117SOL    HW1  466   1.105   1.133   0.884  1.2962  1.2076 -2.4175
  117SOL    HW2  467   1.127   1.280   0.839  0.9573 -1.3018 -1.6350
  117SOL     MW  468   1.107   1.192   0.821  0.2474 -0.3636 -0.2941
  118SOL     OW  469   3.040   2.968   1.686 -0.4541  0.3693  0.0630
  118SOL    HW1  470   3.110   3.017   1.731  1.2604  1.6341  0.1833
  118SOL    HW2  471   2.961   2.987   1.743 -0.8132  1.9364  3.1266
  118SOL     MW  472   3.039   2.977   1.700 -0.2752  0.7430  0.4831
  119SOL     OW  473   0.423   1.490   1.270 -0.4512 -0.3790 -0.2425
  119SOL    HW1  474   0.444   1.555   1.198 -0.3157  1.9648  3.3051
  119SOL    HW2  475   0.329   1.470   1.253 -1.8496 -0.0491 -1.4840
  119SOL     MW  476   0.414   1.496   1.258 -0.6178 -0.0262  0.0618
  120SOL     OW  477   0.199   0.747   1.024 -0.5112  0.5169 -0.0546
  120SOL    HW1  478   0.122   0.796   1.059  2.0010  2.9484  2.5851
  120SOL    HW2  479   0.284   0.777   1.060 -1.9646 -2.1070 -0.8344
  120SOL     MW  480   0.200   0.758   1.033 -0.3715  0.4915  0.1908
  121SOL     OW  481   1.759   1.102   1.674  0.1706  0.6606  0.2091
  121SOL    HW1  482   1.683   1.052   1.678  1.5934  0.3152 -2.7497
  121SOL    HW2  483   1.815   1.046   1.613  2.6782 -0.7448  1.3810
  121SOL     MW  484   1.756   1.088   1.667  0.6892  0.4296 -0.0267
  122SOL     OW  485   0.192   0.559   0.835 -0.0990  0.5591 -0.1524
  122SOL    HW1  486   0.283   0.536   0.811 -0.5285 -0.4370 -1.6205
  122SOL    HW2  487   0.197   0.634   0.891  0.2465  1.3875 -3.5219
  122SOL     MW  488   0.205   0.566   0.839 -0.1101  0.5369 -0.7907
  123SOL     OW  489   1.843   1.101   0.459 -0.4887 -0.3395  0.8214
  123SOL    HW1  490   1.790   1.031   0.496  0.0963  0.7541 -0.5557
  123SOL    HW2  491   1.888   1.140   0.531  2.2534 -1.8190 -3.0240
  123SOL     MW  492   1.842   1.097   0.474 -0.0497 -0.3904  0.1324
  124SOL     OW  493   0.526   0.563   0.917 -0.8577  0.1781  0.2161
  124SOL    HW1  494   0.493   0.520   0.836 -0.9137  1.2251 -2.3939
  124SOL    HW2  495   0.567   0.645   0.885  0.7222 -2.5000 -0.9486
  124SOL     MW  496   0.527   0.569   0.902 -0.6566 -0.0371 -0.2820
  125SOL     OW  497   0.735   1.775   1.708  0.5895  0.0308  0.2252
  125SOL    HW1  498   0.664   1.709   1.707  1.3171  0.1709 -1.2846
  125SOL    HW2  499   0.677   1.857   1.704 -2.8757  0.6564 -2.7199
  125SOL     MW  500   0.718   1.777   1.707  0.2283  0.1318 -0.3626
  126SOL     OW  501   2.141   1.550   1.967  0.4373 -0.6223 -0.5832
  126SOL    HW1  502   2.179   1.640   1.947 -1.8952 -0.3114  0.1134
  126SOL    HW2  503   2.220   1.499   1.992  1.9784  0.2827 -0.7549
  126SOL     MW  504   2.156   1.555   1.968  0.3329 -0.4619 -0.5139
  127SOL     OW  505   0.579   0.853   1.797  0.3687  0.4288 -0.3863
  127SOL    HW1  506   0.668   0.842   1.831  0.4257  0.1940 -2.0206
  127SOL    HW2  507   0.529   0.906   1.866 -0.5028 -0.3169  1.5557
  127SOL     MW  508   0.584   0.859   1.811  0.2612  0.2994 -0.3457
  128SOL     OW  509   1.678   0.723   2.910 -0.3603 -0.0034 -0.3188
  128SOL    HW1  510   1.721   0.714   2.821  2.0932 -3.4620 -0.3331
  128SOL    HW2  511   1.663   0.817   2.923  2.1717  0.8584  1.0308
  128SOL     MW  512   1.682   0.734   2.900  0.2975 -0.3460 -0.1426
  129SOL     OW  513   1.630   0.936   0.150 -0.1124  0.6217 -0.0064
  129SOL    HW1  514   1.544   0.895   0.135 -1.4627 -0.7460 -0.6309
  129SOL    HW2  515   1.663   0.876   0.215  0.5413 -1.0613  1.5400
  129SOL     MW  516   1.623   0.923   0.156 -0.2043  0.2192  0.1153
  130SOL     OW  517   0.809   1.369   0.319 -0.1142 -0.0081 -0.4439
  130SOL    HW1  518   0.816   1.375   0.419 -1.0895 -1.2714 -0.1579
  130SOL    HW2  519   0.856   1.446   0.283 -0.3658  0.8032  1.6152
  130SOL     MW  520   0.816   1.380   0.327 -0.2761 -0.0678 -0.1345
  131SOL     OW  521   3.043   0.829   3.092  0.3466 -0.2993  0.0617
  131SOL    HW1  522   3.045   0.848   2.992  1.1678 -1.8951 -2.7898
  131SOL    HW2  523   3.139   0.823   3.113 -0.3970  2.4205  1.2528
  131SOL     MW  524   3.056   0.830   3.081  0.3568 -0.1510 -0.1574
  132SOL     OW  525   2.731   0.146   1.304  0.5004  0.0479 -0.1557
  132SOL    HW1  526   2.779   0.166   1.224 -1.1816 -0.4040 -1.7383
  132SOL    HW2  527   2.650   0.106   1.283  1.3153  0.8603  3.8357
  132SOL     MW  528   2.726   0.143   1.291  0.3860  0.0954  0.1621
  133SOL     OW  529   1.051   0.156   1.696  0.6564  0.8203  0.1578
  133SOL    HW1  530   1.114   0.081   1.691 -0.0908  0.8005 -0.4533
  133SOL    HW2  531   1.007   0.154   1.783 -3.1056 -2.3052 -2.2349
  133SOL     MW  532   1.054   0.146   1.707  0.0615  0.4053 -0.2385
  134SOL     OW  533   1.412   2.465   1.425  0.0515 -0.7029  0.1975
  134SOL    HW1  534   1.348   2.528   1.400 -1.9100 -0.6007 -1.1580
  134SOL    HW2  535   1.447   2.487   1.511 -0.2004 -2.3473 -0.1594
  134SOL     MW  536   1.408   2.476   1.433 -0.2405 -0.9064 -0.0285
  135SOL     OW  537   3.044   0.980   2.857  0.2738  0.3770  0.6026
  135SOL    HW1  538   3.102   1.022   2.920 -1.2131 -1.5333 -1.9575
  135SOL    HW2  539   2.964   1.032   2.870  2.1366  1.3613  3.7990
  135SOL     MW  540   3.041   0.993   2.867  0.3234  0.2548  0.6865
  136SOL     OW  541   0.217   2.068   0.848  0.2484 -0.4343  0.3093
  136SOL    HW1  542   0.143   2.001   0.836 -3.4742  0.5381  1.2463
  136SOL    HW2  543   0.268   2.038   0.778 -0.5363  2.7227  2.2079
  136SOL     MW  544   0.214   2.055   0.837 -0.3463  0.1106  0.6834
  137SOL     OW  545   0.695   2.058   0.563 -0.1396  0.3287  0.1552
  137SOL    HW1  546   0.704   2.078   0.661  0.4886 -0.5295 -1.0290
  137SOL    HW2  547   0.610   2.095   0.540  1.3050  0.9314 -0.7182
  137SOL     MW  548   0.685   2.066   0.573  0.1339  0.2949 -0.1162
  138SOL     OW  549   0.497   0.529   1.195 -0.7087 -0.8030 -0.2211
  138SOL    HW1  550   0.406   0.506   1.189  1.3885  1.6458  2.7053
  138SOL    HW2  551   0.524   0.563   1.105 -0.9950  1.8219 -0.4514
  138SOL     MW  552   0.488   0.530   1.182 -0.4697 -0.1336  0.1346
  139SOL     OW  553   2.856   0.544   1.265 -0.7733  0.3701  0.1434
  139SOL    HW1  554   2.915   0.484   1.306  1.4884  1.9359  1.3134
  139SOL    HW2  555   2.831   0.602   1.339 -1.4347  0.3386  0.5665
  139SOL     MW  556   2.860   0.543   1.280 -0.5622  0.5725  0.3536
  140SOL     OW  557   0.927   0.472   2.009 -0.5202 -0.4053 -0.2839
  140SOL    HW1  558   0.920   0.376   1.982 -2.4345  0.1634  0.1033
  140SOL    HW2  559   0.894   0.475   2.104 -0.9616 -0.2637 -0.1252
  140SOL     MW  560   0.922   0.460   2.018 -0.8310 -0.3116 -0.2119
  141SOL     OW  561   0.984   0.632   1.689 -0.3378  0.0929 -0.4555
  141SOL    HW1  562   1.035   0.551   1.666 -2.6831  1.0129 -0.1693
  141SOL    HW2  563   1.045   0.701   1.688  1.9174 -0.6987  1.1807
  141SOL     MW  564   0.999   0.630   1.685 -0.3497  0.1098 -0.2018
  142SOL     OW  565   0.828   1.174   0.736 -0.2378  0.1052  0.2115
  142SOL    HW1  566   0.842   1.117   0.657  0.8963  1.4164  0.1848
  142SOL    HW2  567   0.912   1.194   0.772  1.6676 -1.6244 -2.1933
  142SOL     MW  568   0.841   1.169   0.731  0.1632  0.0500 -0.1093
  143SOL     OW  569   1.821   0.673   1.089  0.1449 -0.1756  0.1219
  143SOL    HW1  570   1.872   0.686   1.007 -0.2122  2.0268  0.7968
  143SOL    HW2  571   1.735   0.698   1.052  0.9749  1.4965 -0.5537
  143SOL     MW  572   1.816   0.678   1.074  0.2073  0.3356  0.1218
  144SOL     OW  573   0.288   1.365   1.715  0.2768  0.0076  0.7255
  144SOL    HW1  574   0.355   1.333   1.651  0.9991  1.6972 -1.6654
  144SOL    HW2  575   0.319   1.315   1.797 -0.4559 -0.4130  1.1278
  144SOL     MW  576   0.301   1.354   1.717  0.2755  0.1750  0.4632
  145SOL     OW  577   0.175   0.491   1.236 -0.3452 -0.3831  0.3805
  145SOL    HW1  578   0.200   0.397   1.236 -0.0269  1.4311  0.8327
  145SOL    HW2  579   0.131   0.525   1.155 -2.3233  1.2764  0.2715
  145SOL     MW  580   0.173   0.483   1.226 -0.5642  0.0752  0.4257
  146SOL     OW  581   0.881   1.953   1.390  0.5579 -0.4700 -0.3541
  146SOL    HW1  582   0.923   1.993   1.317  0.5539  0.8876  0.6332
  146SOL    HW2  583   0.797   1.937   1.352  2.9425 -1.0456 -0.0612
  146SOL     MW  584   0.876   1.956   1.375  0.8720 -0.3668 -0.1852
  147SOL     OW  585   0.409   0.517   2.952  0.5478  0.0492 -0.1722
  147SOL    HW1  586   0.390   0.579   3.018 -2.8821 -0.0796 -0.3869
  147SOL    HW2  587   0.350   0.542   2.880  1.8389 -0.4161 -0.3900
  147SOL     MW  588   0.399   0.529   2.951  0.2656 -0.0292 -0.2292
  148SOL     OW  589   0.058   0.869   1.233 -0.4188 -0.2650 -0.5649
  148SOL    HW1  590   0.154   0.898   1.255  3.5130 -0.4186 -1.8468
  148SOL    HW2  591   0.011   0.952   1.237 -3.0844  0.1887 -0.3981
  148SOL     MW  592   0.064   0.884   1.237 -0.2517 -0.2254 -0.7120
  149SOL     OW  593   1.563   1.158   1.408  0.7124  0.1771  0.4271
  149SOL    HW1  594   1.502   1.134   1.479  0.8523  0.2343 -0.2813
  149SOL    HW2  595   1.572   1.254   1.403 -0.6973  0.1017  2.9329
  149SOL     MW  596   1.556   1.167   1.417  0.5448  0.1747  0.6642
  150SOL     OW  597   1.720   1.383   0.846 -0.6117 -0.5827  0.0504
  150SOL    HW1  598   1.774   1.306   0.865  1.0688  0.3765  1.2242
  150SOL    HW2  599   1.762   1.459   0.890 -1.1379  1.8734  2.0536
  150SOL     MW  600   1.733   1.383   0.854 -0.4594 -0.1321  0.4696
  151SOL     OW  601   1.681   1.843   0.806  0.3563  0.2878  0.0810
  151SOL    HW1  602   1.670   1.843   0.711  1.9393  2.1821  0.9521
  151SOL    HW2  603   1.597   1.817   0.837 -0.1349  0.0283 -0.7494
  151SOL     MW  604   1.668   1.840   0.797  0.5003  0.5035  0.0864
  152SOL     OW  605   0.778   1.420   1.640 -0.1376 -0.0275 -0.2365
  152SOL    HW1  606   0.748   1.459   1.559  0.2169 -1.5540 -1.7073
  152SOL    HW2  607   0.774   1.320   1.626  0.0495 -0.5852 -1.2369
  152SOL     MW  608   0.773   1.412   1.628 -0.0661 -0.3025 -0.5626
  153SOL     OW  609   2.566   1.228   0.769 -0.1606 -0.0985 -0.1455
  153SOL    HW1  610   2.637   1.183   0.722 -0.4971  0.1406  0.3620
  153SOL    HW2  611   2.509   1.150   0.791 -3.5076 -0.1402  3.1496
  153SOL     MW  612   2.568   1.212   0.766 -0.6466 -0.0725  0.3562
  154SOL     OW  613   0.121   1.751   1.715 -0.0532  0.4721  0.4828
  154SOL    HW1  614   0.107   1.668   1.664  0.0969  0.1399 -1.7123
  154SOL    HW2  615   0.200   1.720   1.753  0.5736 -2.9925 -1.7170
  154SOL     MW  616   0.130   1.736   1.714  0.0493 -0.0289 -0.0971
  155SOL     OW  617   1.173   0.727   0.318  0.2811  0.7439  0.0627
  155SOL    HW1  618   1.171   0.698   0.414 -0.9571  0.4344  2.5503
  155SOL    HW2  619   1.148   0.819   0.325 -0.6341  0.7649 -1.1251
  155SOL     MW  620   1.170   0.736   0.332 -0.0030  0.7058  0.2342
  156SOL     OW  621   1.570   3.034   1.091 -0.0100  0.4069  0.6467
  156SOL    HW1  622   1.653   3.086   1.099 -0.5585  1.9204  0.3180
  156SOL    HW2  623   1.601   2.945   1.064  1.8171  2.1399 -1.0606
  156SOL     MW  624   1.585   3.029   1.089  0.1587  0.8353  0.3781
  157SOL     OW  625   1.370   1.140   0.121 -0.0130  0.5410 -0.5198
  157SOL    HW1  626   1.308   1.084   0.185  1.0603 -3.1632 -0.2350
  157SOL    HW2  627   1.461   1.136   0.147 -0.5270 -1.0146  1.0995
  157SOL     MW  628   1.374   1.132   0.133  0.0608 -0.1530 -0.2686
  158SOL     OW  629   0.409   1.646   2.318  1.0540  0.3858  0.0827
  158SOL    HW1  630   0.420   1.696   2.239 -1.7926 -0.7172  0.3607
  158SOL    HW2  631   0.357   1.702   2.377 -0.1764 -0.9718  0.9679
  158SOL     MW  632   0.404   1.660   2.316  0.5161  0.0611  0.2361
  159SOL     OW  633   1.240   1.675   0.466  0.2493 -0.6298  0.1322
  159SOL    HW1  634   1.211   1.628   0.388 -0.4110 -1.7441  0.0175
  159SOL    HW2  635   1.164   1.698   0.513  0.8876 -0.2388 -0.6348
  159SOL     MW  636   1.226   1.672   0.462  0.2464 -0.7252  0.0159
  160SOL     OW  637   0.481   1.240   1.566  0.0813  0.0870  0.0565
  160SOL    HW1  638   0.439   1.152   1.574  0.1852  1.7230 -1.1997
  160SOL    HW2  639   0.576   1.211   1.573  2.4136 -1.2695 -1.4876
  160SOL     MW  640   0.488   1.224   1.568  0.4028  0.1239 -0.3130
  161SOL     OW  641   0.459   2.184   2.563  0.4109 -0.5621  0.3725
  161SOL    HW1  642   0.361   2.193   2.570 -3.5228  0.9521 -1.1800
  161SOL    HW2  643   0.467   2.156   2.474 -1.5580  0.0009 -1.9893
  161SOL     MW  644   0.447   2.181   2.552 -0.3679 -0.2881 -0.1439
  162SOL     OW  645   1.068   1.835   1.843 -0.4598  0.0542  0.0367
  162SOL    HW1  646   1.090   1.934   1.851 -3.3203  1.6662  1.5724
  162SOL    HW2  647   0.983   1.811   1.884 -1.0563 -1.6258 -0.7170
  162SOL     MW  648   1.059   1.845   1.849 -0.9159  0.0453  0.1398
  163SOL     OW  649   2.046   3.043   0.904  0.1937  0.1760  0.1974
  163SOL    HW1  650   2.043   3.103   0.834 -1.5842 -0.1190  0.8693
  163SOL    HW2  651   2.054   2.950   0.861 -0.8705 -0.5068 -2.7591
  163SOL     MW  652   2.047   3.039   0.889 -0.1813  0.0470 -0.1040
  164SOL     OW  653   0.298   0.222   0.809 -0.3465 -0.1552 -0.1294
  164SOL    HW1  654   0.202   0.211   0.845 -1.1468 -1.7521 -1.6999
  164SOL    HW2  655   0.312   0.150   0.746  0.7090 -1.2937  0.7593
  164SOL     MW  656   0.287   0.211   0.805 -0.3128 -0.5161 -0.2194
  165SOL     OW  657   1.220   1.323   0.339 -0.4915  0.0524  0.1773
  165SOL    HW1  658   1.232   1.259   0.410  0.4001  2.3440 -1.3247
  165SOL    HW2  659   1.246   1.270   0.261  0.4882  1.9837  0.1548
  165SOL     MW  660   1.225   1.307   0.338 -0.2446  0.6096 -0.0238
  166SOL     OW  661   0.548   1.137   1.018  0.4429 -0.4560  0.0633
  166SOL    HW1  662   0.516   1.195   1.095 -1.2594 -0.2365  1.0923
  166SOL    HW2  663   0.643   1.115   1.030  2.3825 -0.8901 -0.4707
  166SOL     MW  664   0.556   1.141   1.029  0.4742 -0.4843  0.1286
  167SOL     OW  665   0.822   1.113   0.237 -0.1034  0.0860 -0.0583
  167SOL    HW1  666   0.805   1.213   0.240 -0.1050 -1.8541  2.3916
  167SOL    HW2  667   0.898   1.117   0.178 -0.2504 -0.6020  1.9420
  167SOL     MW  668   0.830   1.127   0.230 -0.1230 -0.2607  0.5288
  168SOL     OW  669   1.747   1.644   3.024  0.0501 -0.2486 -0.3900
  168SOL    HW1  670   1.667   1.697   3.031 -0.8224 -0.7483 -0.2385
  168SOL    HW2  671   1.715   1.558   2.984 -4.4598  0.9852  0.1952
  168SOL     MW  672   1.732   1.639   3.020 -0.6600 -0.1517 -0.2928
  169SOL     OW  673   0.330   0.982   1.322 -0.4052 -0.5016  0.0834
  169SOL    HW1  674   0.349   0.983   1.414 -0.7419  1.0675  0.2923
  169SOL    HW2  675   0.322   1.077   1.303 -0.4084  0.2986  1.2850
  169SOL     MW  676   0.332   0.995   1.331 -0.4500 -0.1890  0.2695
  170SOL     OW  677   1.135   1.515   1.493  0.4816 -0.4780 -0.0866
  170SOL    HW1  678   1.060   1.566   1.504 -1.1951 -0.1103  0.6746
  170SOL    HW2  679   1.150   1.511   1.399 -2.3347 -0.1722  0.7645
  170SOL     MW  680   1.127   1.522   1.482 -0.1112 -0.3891  0.1261
  171SOL     OW  681   0.548   1.420   0.528  0.1665 -0.0883 -0.0179
  171SOL    HW1  682   0.521   1.395   0.611 -1.8362 -1.6411 -3.4008
  171SOL    HW2  683   0.534   1.340   0.479 -0.1103 -0.0250  1.5286
  171SOL     MW  684   0.542   1.406   0.532 -0.1343 -0.2848 -0.2602
  172SOL     OW  685   0.875   0.295   1.268 -0.3335 -0.0507 -0.2774
  172SOL    HW1  686   0.791   0.335   1.271 -2.7053 -2.6949 -1.1879
  172SOL    HW2  687   0.877   0.241   1.346  1.4756  2.3823 -2.7773
  172SOL     MW  688   0.864   0.293   1.279 -0.4077 -0.0785 -0.7274
  173SOL     OW  689   0.499   1.790   0.262 -0.1618  0.8371 -0.0782
  173SOL    HW1  690   0.495   1.696   0.231  1.6080  1.6431 -2.3133
  173SOL    HW2  691   0.506   1.781   0.357  3.3378 -0.0161 -1.9574
  173SOL     MW  692   0.500   1.776   0.270  0.5335  0.8309 -0.6211
  174SOL     OW  693   1.830   0.895   1.500 -0.3063  0.0925 -0.5314
  174SOL    HW1  694   1.805   0.809   1.527  1.5746  0.6766 -0.3876
  174SOL    HW2  695   1.808   0.906   1.407  1.2601  0.3786 -0.5181
  174SOL     MW  696   1.824   0.885   1.491  0.1486  0.2073 -0.5107
  175SOL     OW  697   0.505   1.521   0.224  0.1561  0.1518 -0.7448
  175SOL    HW1  698   0.432   1.467   0.201 -2.1353  1.0900 -0.5363
  175SOL    HW2  699   0.550   1.477   0.304  3.4805 -2.6429 -2.2762
  175SOL     MW  700   0.502   1.508   0.232  0.2924 -0.0932 -0.9194
  176SOL     OW  701   0.155   1.493   1.204  0.3836 -0.3996  0.5657
  176SOL    HW1  702   0.139   1.439   1.124 -2.2759  1.2321  2.4216
  176SOL    HW2  703   0.069   1.471   1.247  0.6433 -3.1130 -3.2773
  176SOL     MW  704   0.142   1.483   1.199  0.0670 -0.5423  0.3035
  177SOL     OW  705   0.556   0.327   1.397  0.2044 -0.3685  1.2599
  177SOL    HW1  706   0.529   0.396   1.336  0.5038 -0.9769  2.3399
  177SOL    HW2  707   0.577   0.381   1.475  0.4735 -0.1767 -1.3233
  177SOL     MW  708   0.555   0.343   1.399  0.2794 -0.4235  1.0616
  178SOL     OW  709   3.095   0.521   2.973  0.2359 -0.0552  0.1172
  178SOL    HW1  710   3.065   0.518   3.066 -0.9628 -2.5065  3.8857
  178SOL    HW2  711   3.012   0.491   2.924 -2.0262  1.3261  0.5508
  178SOL     MW  712   3.080   0.517   2.978 -0.2207 -0.1964  0.6716
  179SOL     OW  713   1.566   1.445   1.386  0.7842 -0.1515 -0.1844
  179SOL    HW1  714   1.565   1.448   1.478 -1.3946  1.4619 -0.1533
  179SOL    HW2  715   1.655   1.461   1.351  0.6590  1.0045 -1.9923
  179SOL     MW  716   1.578   1.448   1.393  0.4802  0.2139 -0.4188
  180SOL     OW  717   3.000   0.249   0.493 -0.5741  0.5349 -0.0941
  180SOL    HW1  718   2.972   0.241   0.401 -1.5399 -1.9439 -2.1262
  180SOL    HW2  719   3.065   0.324   0.490 -1.3501  1.3776  0.6897
  180SOL     MW  720   3.005   0.258   0.480 -0.8039  0.3190 -0.2588
  181SOL     OW  721   1.149   1.340   3.067  0.0030 -0.1268  0.2088
  181SOL    HW1  722   1.226   1.398   3.083 -0.0773 -0.2786  2.3523
  181SOL    HW2  723   1.186   1.280   3.000  1.5883 -0.7550 -1.5444
  181SOL     MW  724   1.164   1.340   3.060  0.2016 -0.2297  0.2603
  182SOL     OW  725   0.389   0.998   1.597 -0.7555  0.6876  0.4907
  182SOL    HW1  726   0.317   0.944   1.623  0.2151 -0.2764  1.7613
  182SOL    HW2  727   0.472   0.962   1.630  1.5425 -0.4060 -0.4564
  182SOL     MW  728   0.391   0.986   1.604 -0.3242  0.4161  0.5333
  183SOL     OW  729   1.537   1.704   1.232 -0.3737 -0.0933  0.8964
  183SOL    HW1  730   1.636   1.710   1.227  1.7175 -1.8925  0.4821
  183SOL    HW2  731   1.512   1.644   1.300  2.8721 -1.1390  1.2021
  183SOL     MW  732   1.547   1.697   1.240  0.3305 -0.4687  0.8820
  184SOL     OW  733   0.819   0.723   1.886 -0.4947 -0.2179 -0.1094
  184SOL    HW1  734   0.883   0.718   1.817  1.3408  1.6428 -0.4331
  184SOL    HW2  735   0.841   0.647   1.940  1.1673  1.3647 -0.0827
  184SOL     MW  736   0.830   0.712   1.884 -0.0332  0.2364 -0.1486
  185SOL     OW  737   1.111   0.954   1.899  0.0557 -0.2532 -0.4454
  185SOL    HW1  738   1.126   0.868   1.938 -0.1862  0.7510 -0.7120
  185SOL    HW2  739   1.152   1.015   1.957 -0.0691 -2.5045 -2.3560
  185SOL     MW  740   1.119   0.951   1.912  0.0073 -0.4177 -0.7326
  186SOL     OW  741   0.351   1.683   1.449 -0.2010 -0.2746  0.2400
  186SOL    HW1  742   0.400   1.607   1.410 -0.9286  0.1455  4.5965
  186SOL    HW2  743   0.261   1.674   1.416 -4.0305 -0.9519  0.3877
  186SOL     MW  744   0.346   1.672   1.440 -0.8023 -0.3085  0.8343
  187SOL     OW  745   1.492   0.731   1.363  0.0242  0.2233 -0.1401
  187SOL    HW1  746   1.540   0.702   1.438  0.8012  3.3661  0.4508
  187SOL    HW2  747   1.404   0.696   1.377 -2.4285  4.4109  2.6977
  187SOL     MW  748   1.486   0.722   1.375 -0.1969  1.1905  0.3123
  188SOL     OW  749   1.923   1.165   0.770  0.1473  0.3461  0.1167
  188SOL    HW1  750   1.908   1.154   0.861  1.9691  1.0414 -3.7394
  188SOL    HW2  751   1.983   1.088   0.756  2.3998  1.3374  1.3772
  188SOL     MW  752   1.929   1.153   0.780  0.6849  0.5686 -0.2257
  189SOL     OW  753   0.683   0.770   0.842 -0.1981  0.0181 -0.4066
  189SOL    HW1  754   0.608   0.831   0.839  2.8996 -2.3378  0.3870
  189SOL    HW2  755   0.724   0.803   0.921 -1.7097 -0.9006  1.9131
  189SOL     MW  756   0.679   0.783   0.852  0.0112 -0.4139  0.0042
  190SOL     OW  757   1.839   0.297   2.143  0.2550  0.4540 -0.2684
  190SOL    HW1  758   1.852   0.249   2.225  0.9988 -0.7831  0.1204
  190SOL    HW2  759   1.916   0.352   2.127 -1.9838 -1.2270  2.4306
  190SOL     MW  760   1.851   0.298   2.152  0.0578  0.0690  0.1390
  191SOL     OW  761   1.530   0.969   1.218 -0.2764  0.3228  0.4632
  191SOL    HW1  762   1.519   1.027   1.295  0.5829 -1.8170  0.3324
  191SOL    HW2  763   1.511   0.880   1.248 -0.1043  0.1538  0.5095
  191SOL     MW  764   1.526   0.965   1.232 -0.1403  0.0182  0.4520
  192SOL     OW  765   0.569   2.111   2.807 -0.4087  0.2302  0.1270
  192SOL    HW1  766   0.539   2.161   2.735  1.3555  0.7117  2.0650
  192SOL    HW2  767   0.537   2.021   2.790 -2.5967  2.0271 -0.3072
  192SOL     MW  768   0.561   2.105   2.795 -0.4646  0.5308  0.3254
  193SOL     OW  769   0.880   1.593   0.734 -0.5167  1.2443  0.8373
  193SOL    HW1  770   0.831   1.596   0.813 -0.5183  0.2972 -2.2505
  193SOL    HW2  771   0.845   1.525   0.668 -0.9080 -3.9909 -0.5285
  193SOL     MW  772   0.869   1.584   0.736 -0.5685  0.4286  0.2497
  194SOL     OW  773   0.504   1.364   0.854  0.5464 -0.6424 -0.8272
  194SOL    HW1  774   0.523   1.282   0.907 -1.9679 -0.6710  1.7722
  194SOL    HW2  775   0.409   1.369   0.827 -1.4705 -2.3474 -2.9575
  194SOL     MW  776   0.494   1.354   0.857 -0.0514 -0.8711 -0.7653
  195SOL     OW  777   1.271   1.125   2.962  0.2044 -0.5292 -0.3122
  195SOL    HW1  778   1.336   1.123   3.033 -0.5055  2.3399 -0.2259
  195SOL    HW2  779   1.219   1.048   2.963 -0.5921 -1.3498  0.6305
  195SOL     MW  780   1.273   1.115   2.971  0.0057 -0.2590 -0.1765
  196SOL     OW  781   2.210   0.963   0.524  0.7297  0.0557 -0.1369
  196SOL    HW1  782   2.188   0.960   0.426 -0.2153 -0.9451 -0.5844
  196SOL    HW2  783   2.203   1.059   0.537 -2.0953 -0.1830 -0.5201
  196SOL     MW  784   2.206   0.975   0.513  0.2323 -0.1078 -0.2465
  197SOL     OW  785   0.615   1.310   2.214  0.1702 -0.2900  0.7815
  197SOL    HW1  786   0.617   1.224   2.159 -1.5561 -3.1061 -0.3551
  197SOL    HW2  787   0.684   1.357   2.166 -0.4978  0.1660  0.3321
  197SOL     MW  788   0.624   1.305   2.200 -0.1457 -0.6014  0.5722
  198SOL     OW  789   2.928   1.414   1.011  0.1859  0.1557  0.4255
  198SOL    HW1  790   2.882   1.487   0.965  1.8023  2.2585  1.4733
  198SOL    HW2  791   2.860   1.345   1.023 -2.9521 -1.1347 -2.0304
  198SOL     MW  792   2.913   1.415   1.006 -0.0149  0.2629  0.2397
  199SOL     OW  793   0.741   1.354   1.939  0.3272 -0.0737 -0.3101
  199SOL    HW1  794   0.652   1.384   1.939  1.9825  0.1895  0.2158
  199SOL    HW2  795   0.784   1.406   1.876 -0.0875 -1.2050  1.0336
  199SOL     MW  796   0.735   1.365   1.931  0.4909 -0.1882 -0.0634
  200SOL     OW  797   1.854   2.909   1.370 -0.2373  0.0150 -0.1214
  200SOL    HW1  798   1.879   2.931   1.281  1.5101  4.1671 -1.7463
  200SOL    HW2  799   1.775   2.955   1.408  1.1248 -0.7602 -1.9010
  200SOL     MW  800   1.847   2.918   1.363  0.1730  0.4606 -0.5706
  201SOL     OW  801   1.000   0.363   0.739  0.8829 -0.0044 -0.4314
  201SOL    HW1  802   0.997   0.268   0.730  0.4079 -0.8088 -0.1190
  201SOL    HW2  803   1.046   0.382   0.814 -0.8786 -1.4530 -1.4107
  201SOL     MW  804   1.006   0.353   0.747  0.5878 -0.3017 -0.5194
  202SOL     OW  805   1.493   1.744   0.962 -0.0673  0.1861  0.0286
  202SOL    HW1  806   1.494   1.645   0.954 -3.5169 -0.6476  0.9632
  202SOL    HW2  807   1.494   1.760   1.052 -1.2323  1.3471 -2.9250
  202SOL     MW  808   1.494   1.733   0.973 -0.6762  0.2293 -0.2378
  203SOL     OW  809   2.978   0.408   1.487 -0.2094 -0.7506  0.0383
  203SOL    HW1  810   3.017   0.322   1.478 -1.1208 -0.7937 -0.2360
  203SOL    HW2  811   3.037   0.476   1.510 -3.2169  1.9159  0.4266
  203SOL     MW  812   2.991   0.405   1.489 -0.7265 -0.4044  0.0533
  204SOL     OW  813   1.019   1.808   0.634  0.1015  0.5452  0.2385
  204SOL    HW1  814   0.988   1.727   0.683 -0.6910 -2.2748  0.8363
  204SOL    HW2  815   0.947   1.819   0.570  0.8662 -2.3143 -0.2239
  204SOL     MW  816   1.005   1.799   0.632  0.0978 -0.2042  0.2564
  205SOL     OW  817   1.361   3.059   1.325 -0.2220 -0.1126  0.1403
  205SOL    HW1  818   1.402   3.078   1.240  0.4251  0.3548 -0.6651
  205SOL    HW2  819   1.301   3.133   1.344 -0.7251 -0.6924  1.9276
  205SOL     MW  820   1.359   3.072   1.316 -0.2030 -0.1274  0.2699
  206SOL     OW  821   0.478   3.079   1.392 -0.2285 -0.2715 -0.1384
  206SOL    HW1  822   0.435   3.049   1.311 -1.6925  1.5423 -0.7823
  206SOL    HW2  823   0.541   3.008   1.416  1.6843 -0.8579 -1.8674
  206SOL     MW  824   0.481   3.065   1.384 -0.1693 -0.1096 -0.4514
  207SOL     OW  825   0.898   1.660   0.239 -0.2831  0.7145 -0.4134
  207SOL    HW1  826   0.907   1.729   0.180  1.6449  1.4001  0.0939
  207SOL    HW2  827   0.983   1.617   0.248 -1.3782  1.7095  0.1160
  207SOL     MW  828   0.910   1.663   0.232 -0.1732  0.9362 -0.2766
  208SOL     OW  829   0.694   1.669   1.410  1.0149 -0.4128  0.7534
  208SOL    HW1  830   0.779   1.691   1.446 -0.1962 -0.6620 -2.3086
  208SOL    HW2  831   0.711   1.627   1.326  0.6257 -3.2015 -0.1632
  208SOL     MW  832   0.708   1.666   1.403  0.8038 -0.8136  0.2284
  209SOL     OW  833   1.520   0.508   2.776  0.1786 -0.4578  0.2292
  209SOL    HW1  834   1.558   0.581   2.821  0.7363 -0.5539  1.0714
  209SOL    HW2  835   1.576   0.432   2.790 -0.2785 -1.6747 -0.2069
  209SOL     MW  836   1.533   0.508   2.784  0.1919 -0.6310  0.2828
  210SOL     OW  837   1.475   1.470   0.933  0.3313  1.3394  0.1192
  210SOL    HW1  838   1.568   1.435   0.912  0.8525  2.6945 -0.4569
  210SOL    HW2  839   1.423   1.448   0.858  1.3944 -1.1084  1.1862
  210SOL     MW  840   1.480   1.463   0.920  0.5403  1.1953  0.1840
  211SOL     OW  841   1.723   0.296   1.003  0.2928  0.4048 -0.1904
  211SOL    HW1  842   1.707   0.322   0.914  1.3520  0.7650 -0.6680
  211SOL    HW2  843   1.813   0.323   1.015  1.3734 -0.4498  1.5232
  211SOL     MW  844   1.733   0.303   0.993  0.5751  0.3396 -0.0273
  212SOL     OW  845   0.282   1.086   0.206 -0.6387  0.1511  0.6007
  212SOL    HW1  846   0.209   1.049   0.259 -1.5813  1.9696 -0.4167
  212SOL    HW2  847   0.313   1.018   0.142 -2.5607 -4.9109  0.0371
  212SOL     MW  848   0.276   1.072   0.204 -1.0167 -0.2768  0.3921
  213SOL     OW  849   0.485   1.752   2.996 -0.4182  0.3912  0.0746
  213SOL    HW1  850   0.510   1.824   3.058 -0.1077 -2.7280 -0.2261
  213SOL    HW2  851   0.516   1.786   2.915 -0.5280  0.9913  2.7136
  213SOL     MW  852   0.493   1.766   2.994 -0.3917  0.0588  0.3831
  214SOL     OW  853   0.626   0.335   2.128 -0.3584 -0.7777  0.5097
  214SOL    HW1  854   0.558   0.399   2.138 -0.5734  3.0444 -1.6018
  214SOL    HW2  855   0.629   0.324   2.034  1.8631  1.0000 -1.1137
  214SOL     MW  856   0.618   0.342   2.117 -0.0937 -0.0389  0.0169
  215SOL     OW  857   0.507   0.651   2.636  0.7641  0.3698 -0.4103
  215SOL    HW1  858   0.493   0.662   2.540  2.1852  0.5722 -2.3308
  215SOL    HW2  859   0.421   0.654   2.670  1.4723  0.1641  1.2538
  215SOL     MW  860   0.494   0.653   2.628  1.0450  0.3694 -0.4441
  216SOL     OW  861   3.003   3.034   2.714 -0.2568  0.2986 -0.4093
  216SOL    HW1  862   2.926   3.041   2.770 -1.1403  0.6142 -1.1859
  216SOL    HW2  863   3.030   3.121   2.697  1.6100  0.8438  1.2897
  216SOL     MW  864   2.997   3.046   2.719 -0.1271  0.4122 -0.2876
  217SOL     OW  865   1.052   1.100   0.096  0.1931 -0.1934  0.2542
  217SOL    HW1  866   1.051   1.028   0.027  0.9923 -0.1191 -1.0606
  217SOL    HW2  867   1.120   1.156   0.055 -1.6931 -1.3170 -0.1602
  217SOL     MW  868   1.061   1.098   0.081  0.0497 -0.3318  0.0261
  218SOL     OW  869   0.862   1.349   2.701 -0.5379  0.3222  0.0565
  218SOL    HW1  870   0.863   1.284   2.772 -0.8317 -0.2472  0.5793
  218SOL    HW2  871   0.941   1.398   2.709  1.0309 -1.1053  0.5434
  218SOL     MW  872   0.873   1.347   2.712 -0.3697  0.0587  0.1897
  219SOL     OW  873   1.113   0.340   2.612 -0.5878  0.4672 -0.0380
  219SOL    HW1  874   1.193   0.393   2.645 -4.1698  0.2769  0.3555
  219SOL    HW2  875   1.047   0.407   2.602 -2.2605 -0.4117  1.8967
  219SOL     MW  876   1.115   0.356   2.615 -1.2811  0.3261  0.2692
  220SOL     OW  877   1.656   0.494   2.254 -0.1229  0.6976 -0.2062
  220SOL    HW1  878   1.596   0.531   2.185 -1.8254  0.8444 -0.5286
  220SOL    HW2  879   1.708   0.430   2.202  1.0408  1.4285 -0.5387
  220SOL     MW  880   1.655   0.490   2.238 -0.1940  0.8134 -0.2926
  221SOL     OW  881   0.344   1.281   2.894 -0.1667  0.1008  0.2840
  221SOL    HW1  882   0.411   1.218   2.871  0.4659 -0.1287  0.1384
  221SOL    HW2  883   0.369   1.369   2.857 -0.5069 -1.2211 -0.5075
  221SOL     MW  884   0.356   1.285   2.886 -0.1281 -0.1039  0.1603
  222SOL     OW  885   0.506   0.928   2.653  0.2750 -0.4063  0.6157
  222SOL    HW1  886   0.436   0.965   2.606  2.5719 -1.9029  1.7929
  222SOL    HW2  887   0.493   0.833   2.668  0.4818 -4.3220 -1.6964
  222SOL     MW  888   0.495   0.920   2.649  0.6054 -1.1204  0.4659
  223SOL     OW  889   0.059   2.001   2.563 -0.8955 -0.1000  0.6856
  223SOL    HW1  890   0.020   1.974   2.650  0.9454 -3.4795  0.1000
  223SOL    HW2  891   0.083   2.088   2.576 -0.0322 -2.7127  1.4298
  223SOL     MW  892   0.057   2.009   2.576 -0.5387 -0.8906  0.7065
  224SOL     OW  893   1.481   0.746   2.483 -0.9181 -1.0574 -0.3652
  224SOL    HW1  894   1.431   0.764   2.563 -0.2736 -1.3215  2.0451
  224SOL    HW2  895   1.489   0.832   2.445  0.2324 -3.7956 -0.3266
  224SOL     MW  896   1.476   0.760   2.489 -0.6813 -1.4535 -0.0421
  225SOL     OW  897   2.941   1.445   2.260  0.2128  0.0011  0.6284
  225SOL    HW1  898   3.008   1.485   2.204  1.1587  0.0099 -0.6529
  225SOL    HW2  899   2.897   1.510   2.308 -0.2143 -0.6688 -0.2883
  225SOL     MW  900   2.944   1.459   2.259  0.2812 -0.0861  0.3384
  226SOL     OW  901   0.386   1.527   2.713 -0.5309 -0.4705  0.4441
  226SOL    HW1  902   0.478   1.543   2.713  0.0178  0.8338  2.4675
  226SOL    HW2  903   0.345   1.610   2.720  0.2495  1.2735  1.0935
  226SOL     MW  904   0.393   1.540   2.714 -0.3556 -0.0683  0.7968
  227SOL     OW  905   0.559   1.115   2.834  0.2756 -0.4859 -0.5186
  227SOL    HW1  906   0.653   1.134   2.842 -2.1699  1.0463  2.5464
  227SOL    HW2  907   0.542   1.030   2.794  2.6425 -0.6729  1.6372
  227SOL     MW  908   0.569   1.106   2.830  0.2652 -0.3084  0.1702
  228SOL     OW  909   0.737   1.104   2.051 -0.0717 -0.6876  0.1890
  228SOL    HW1  910   0.751   1.189   2.000 -1.2478  1.4701 -0.5841
  228SOL    HW2  911   0.795   1.112   2.125 -0.3402 -0.3975  0.3151
  228SOL     MW  912   0.746   1.116   2.054 -0.2623 -0.3646  0.1037
  229SOL     OW  913   0.189   0.656   0.015  0.4855 -0.3095 -0.0326
  229SOL    HW1  914   0.130   0.631  -0.055  0.2214 -0.6306  1.0440
  229SOL    HW2  915   0.210   0.576   0.066  1.2697 -2.1966  2.6212
  229SOL     MW  916   0.184   0.642   0.013  0.5541 -0.6008  0.4596
  230SOL     OW  917   1.801   1.363   2.022  0.0113  0.4891 -0.0056
  230SOL    HW1  918   1.733   1.338   2.093  1.9652 -0.3234 -1.7028
  230SOL    HW2  919   1.854   1.287   2.001  1.0439 -0.3910 -1.3103
  230SOL     MW  920   1.799   1.350   2.029  0.4054  0.2658 -0.4017
  231SOL     OW  921   2.739   1.242   2.170 -0.1085 -0.4491  0.4485
  231SOL    HW1  922   2.801   1.317   2.188 -0.4039  2.7696 -0.9274
  231SOL    HW2  923   2.708   1.280   2.081  1.4682  0.1223 -0.4679
  231SOL     MW  924   2.743   1.257   2.160  0.0606  0.0510  0.1460
  232SOL     OW  925   2.282   0.824   1.996 -0.0482 -0.5444  0.2081
  232SOL    HW1  926   2.229   0.847   1.924 -0.0810 -2.1377 -0.9016
  232SOL    HW2  927   2.235   0.829   2.078  2.2369  4.5854 -0.7594
  232SOL     MW  928   2.269   0.828   1.998  0.2490 -0.0778 -0.0660
  233SOL     OW  929   2.066   0.444   2.074  0.2775  0.3442 -0.0132
  233SOL    HW1  930   2.130   0.371   2.058 -0.3348  2.3208  0.6283
  233SOL    HW2  931   2.098   0.485   2.158  0.0516  1.4026  1.6077
  233SOL     MW  932   2.079   0.440   2.083  0.1669  0.7446  0.2853
  234SOL     OW  933   0.259   1.050   2.632  0.1514 -0.5774  0.9292
  234SOL    HW1  934   0.173   1.049   2.589 -0.9295  0.2745  1.3847
  234SOL    HW2  935   0.292   1.142   2.615  1.8448  0.6847  0.0638
  234SOL     MW  936   0.252   1.062   2.624  0.2322 -0.2985  0.8751
  235SOL     OW  937   1.048   3.039   2.798 -0.5486 -0.1893  0.7156
  235SOL    HW1  938   1.077   3.021   2.892 -0.8459 -1.6934  2.7257
  235SOL    HW2  939   1.040   3.136   2.809  2.0949 -1.0813 -2.4036
  235SOL     MW  940   1.051   3.049   2.812 -0.2391 -0.5055  0.5693
  236SOL     OW  941   2.959   0.593   0.136 -0.0924 -0.3542 -0.2627
  236SOL    HW1  942   2.873   0.625   0.158 -0.7205  0.2864  0.6159
  236SOL    HW2  943   3.001   0.660   0.079 -0.8429 -1.0801 -0.1438
  236SOL     MW  944   2.953   0.606   0.131 -0.2743 -0.3654 -0.1311
  237SOL     OW  945   1.961   1.098   2.201 -0.4013 -0.6486  0.2441
  237SOL    HW1  946   1.887   1.081   2.147  2.7846  0.4366  0.3663
  237SOL    HW2  947   2.021   1.021   2.189 -2.4786 -0.7810  2.0290
  237SOL     MW  948   1.959   1.086   2.192 -0.2551 -0.5229  0.4957
  238SOL     OW  949   1.107   1.779   2.959  0.0326  0.4154  0.2843
  238SOL    HW1  950   1.051   1.756   2.883  0.2261 -0.6990 -1.4626
  238SOL    HW2  951   1.189   1.729   2.945  1.2851  0.5134  1.2116
  238SOL     MW  952   1.110   1.769   2.947  0.2234  0.2813  0.1762
  239SOL     OW  953   1.207   1.363   2.309 -0.3236 -0.8161 -0.6449
  239SOL    HW1  954   1.128   1.386   2.358 -2.3619  0.2424 -1.0866
  239SOL    HW2  955   1.232   1.282   2.363  0.3189 -2.4012  0.3929
  239SOL     MW  956   1.200   1.356   2.322 -0.5077 -0.8856 -0.5663
  240SOL     OW  957   0.612   0.914   2.259 -0.3060 -0.2470 -0.6862
  240SOL    HW1  958   0.637   0.934   2.357 -0.6352  0.9541  1.0793
  240SOL    HW2  959   0.701   0.887   2.228  1.5125  0.2303  0.8294
  240SOL     MW  960   0.627   0.913   2.268 -0.1095 -0.0256 -0.2533
  241SOL     OW  961   0.658   0.443   0.003 -0.1950  0.4683 -0.7622
  241SOL    HW1  962   0.696   0.520   0.053  2.4423 -0.0914 -1.6988
  241SOL    HW2  963   0.586   0.475  -0.055  1.8337 -0.0288  1.1551
  241SOL     MW  964   0.654   0.457   0.002  0.4206  0.3289 -0.6328
  242SOL     OW  965   1.494   1.725   2.257  0.1235  0.3241 -0.4561
  242SOL    HW1  966   1.427   1.794   2.271 -0.1861 -1.3075 -0.8133
  242SOL    HW2  967   1.437   1.652   2.240  0.9634  0.9561 -0.9882
  242SOL     MW  968   1.477   1.724   2.256  0.1935  0.1922 -0.5734
  243SOL     OW  969   0.987   0.245   2.389 -0.0270  0.1308  0.1071
  243SOL    HW1  970   1.074   0.217   2.346  1.6556 -0.4896 -1.8659
  243SOL    HW2  971   1.017   0.274   2.473 -2.9319 -0.3187  1.5558
  243SOL     MW  972   1.003   0.245   2.394 -0.1883 -0.0103  0.0379
  244SOL     OW  973   0.131   0.806   2.350 -0.0781  0.0788  0.2617
  244SOL    HW1  974   0.126   0.900   2.322 -1.2223  1.1313 -1.8729
  244SOL    HW2  975   0.228   0.795   2.345 -1.4320 -0.4157 -1.7624
  244SOL     MW  976   0.143   0.817   2.345 -0.4077  0.1524 -0.2870
  245SOL     OW  977   1.269   0.186   2.297 -0.2451 -0.1483  0.1380
  245SOL    HW1  978   1.356   0.145   2.297  0.0688  4.6519 -1.9393
  245SOL    HW2  979   1.292   0.264   2.349 -1.8440 -0.4606 -0.9635
  245SOL     MW  980   1.284   0.191   2.304 -0.4147  0.4438 -0.2814
  246SOL     OW  981   1.180   1.136   2.079  0.2397  0.1009 -0.6079
  246SOL    HW1  982   1.107   1.125   2.149 -0.0525  0.3845 -0.9098
  246SOL    HW2  983   1.270   1.121   2.123  1.3993  0.1993 -0.7564
  246SOL     MW  984   1.182   1.132   2.094  0.3541  0.1513 -0.6673
  247SOL     OW  985   0.772   0.632   0.182  0.4891  0.3094 -0.6605
  247SOL    HW1  986   0.732   0.715   0.167 -0.1654 -0.0313  2.8749
  247SOL    HW2  987   0.867   0.652   0.163 -0.0153  2.7075  0.6908
  247SOL     MW  988   0.779   0.646   0.177  0.3362  0.5809 -0.0158
  248SOL     OW  989   0.341   1.295   2.578  0.1265  0.1367  0.0301
  248SOL    HW1  990   0.362   1.333   2.489  1.0500 -0.1462 -0.0400
  248SOL    HW2  991   0.344   1.370   2.634 -0.0461 -1.5438  0.0155
  248SOL     MW  992   0.344   1.310   2.574  0.2256 -0.1223  0.0189
  249SOL     OW  993   3.078   1.907   2.799 -0.8099  0.2449  0.4126
  249SOL    HW1  994   3.022   1.831   2.799  2.0399 -0.7057  1.7520
  249SOL    HW2  995   3.157   1.889   2.851 -1.0969  2.1415 -1.5130
  249SOL     MW  996   3.081   1.895   2.806 -0.4718  0.3697  0.3353
  250SOL     OW  997   2.146   0.914   2.248 -0.3763 -0.6824 -0.5911
  250SOL    HW1  998   2.103   0.843   2.299 -0.7386 -0.7811 -0.5824
  250SOL    HW2  999   2.236   0.936   2.274  0.6284  0.1097 -2.8164
  250SOL     MW 1000   2.152   0.908   2.258 -0.2915 -0.5909 -0.8835
  251SOL     OW 1001   0.188   0.915   1.997 -0.5152  0.0578  0.5333
  251SOL    HW1 1002   0.208   0.823   2.019 -2.1850  1.7671 -0.1008
  251SOL    HW2 1003   0.156   0.905   1.908  1.4079 -1.1374  1.8216
  251SOL     MW 1004   0.187   0.902   1.988 -0.4818  0.1256  0.6196
  252SOL     OW 1005   1.665   1.019   2.880 -0.1161  0.0808 -1.0866
  252SOL    HW1 1006   1.696   1.069   2.957 -2.1612  2.4556  0.0746
  252SOL    HW2 1007   1.729   1.035   2.816 -1.8290 -0.3190 -1.6764
  252SOL     MW 1008   1.678   1.028   2.882 -0.6119  0.3414 -1.0112
  253SOL     OW 1009   1.122   1.700   2.447  0.0582 -0.0588 -0.6367
  253SOL    HW1 1010   1.122   1.719   2.344 -3.4204 -0.0374 -2.6608
  253SOL    HW2 1011   1.054   1.766   2.481 -0.3507 -2.2161  0.5721
  253SOL     MW 1012   1.113   1.711   2.438 -0.4547 -0.3406 -0.7443
  254SOL     OW 1013   0.959   1.121   2.256 -0.3538  0.5364  0.1888
  254SOL    HW1 1014   0.949   1.023   2.247  0.7742  0.8044  3.8943
  254SOL    HW2 1015   0.884   1.151   2.304  0.5380 -0.5097  0.1164
  254SOL     MW 1016   0.948   1.112   2.261 -0.0873  0.4337  0.6682
  255SOL     OW 1017   0.861   2.514   2.148  0.8656  0.5456 -0.8692
  255SOL    HW1 1018   0.769   2.474   2.159 -2.5009 -1.4837  1.5325
  255SOL    HW2 1019   0.920   2.438   2.138 -0.1309  1.6399 -1.7290
  255SOL     MW 1020   0.857   2.499   2.148  0.2899  0.4222 -0.6657
  256SOL     OW 1021   1.225   2.762   2.969 -0.1580 -0.4192 -0.1501
  256SOL    HW1 1022   1.174   2.696   2.917 -0.1385 -0.0698 -1.4712
  256SOL    HW2 1023   1.314   2.754   2.932  1.3374 -0.7564 -1.0303
  256SOL     MW 1024   1.230   2.753   2.957  0.0419 -0.4176 -0.4405
  257SOL     OW 1025   0.044   1.909   3.094 -0.5487  0.0681 -0.0114
  257SOL    HW1 1026   0.097   1.920   3.176 -0.0795 -0.4740  4.1793
  257SOL    HW2 1027   0.089   1.841   3.041  1.0936  1.2715  0.9907
  257SOL     MW 1028   0.057   1.901   3.098 -0.2701  0.1554  0.6737
  258SOL     OW 1029   0.716   0.987   2.525 -0.7629  0.1672 -0.6814
  258SOL    HW1 1030   0.715   1.082   2.514 -4.0346  1.5639  1.7026
  258SOL    HW2 1031   0.646   0.954   2.589  2.5023  1.6312 -0.4415
  258SOL     MW 1032   0.706   0.995   2.532 -0.7638  0.5446 -0.3352
  259SOL     OW 1033   0.838   0.463   2.264 -0.6625  1.0628  0.0153
  259SOL    HW1 1034   0.757   0.414   2.266 -0.6543  1.4018 -0.3301
  259SOL    HW2 1035   0.905   0.403   2.302 -1.8531 -0.3966 -0.1296
  259SOL     MW 1036   0.836   0.449   2.269 -0.8185  0.9150 -0.0494
  260SOL     OW 1037   0.661   0.113   1.623 -0.0057  0.1035 -0.3720
  260SOL    HW1 1038   0.599   0.147   1.555 -1.9939  1.1607 -0.7542
  260SOL    HW2 1039   0.742   0.145   1.583 -0.7940 -0.0454 -0.9309
  260SOL     MW 1040   0.663   0.122   1.609 -0.3720  0.2233 -0.4962
  261SOL     OW 1041   1.113   0.682   1.997  0.1122 -0.2870 -0.5638
  261SOL    HW1 1042   1.132   0.693   2.090  1.4052 -0.6277 -3.8340
  261SOL    HW2 1043   1.041   0.612   1.994 -2.9086 -1.2917  0.5183
  261SOL     MW 1044   1.106   0.674   2.009 -0.1158 -0.4645 -0.8525
  262SOL     OW 1045   1.101   0.345   0.176  0.0197 -0.1397 -0.1355
  262SOL    HW1 1046   1.196   0.368   0.153 -2.8289 -0.0310 -1.2292
  262SOL    HW2 1047   1.074   0.261   0.139  0.7317 -0.0030  1.2879
  262SOL     MW 1048   1.110   0.337   0.168 -0.2622 -0.1073 -0.0920
  263SOL     OW 1049   0.361   0.041   2.479 -0.5132 -0.1241 -0.2621
  263SOL    HW1 1050   0.278   0.097   2.474 -1.1446  2.2717  1.4654
  263SOL    HW2 1051   0.407   0.047   2.397 -1.4905 -0.8646 -0.1244
  263SOL     MW 1052   0.356   0.049   2.468 -0.7255  0.0943 -0.0160
  264SOL     OW 1053   1.555   1.361   1.887 -0.1735 -0.1528  0.4178
  264SOL    HW1 1054   1.543   1.269   1.865 -0.1201 -1.0948  1.6446
  264SOL    HW2 1055   1.640   1.363   1.935  0.3837  0.8005  1.8543
  264SOL     MW 1056   1.565   1.349   1.890 -0.0930 -0.1513  0.7692
  265SOL     OW 1057   0.764   2.759   2.299 -0.6206  0.5583  0.4637
  265SOL    HW1 1058   0.820   2.688   2.266  0.4542 -0.8953  1.7594
  265SOL    HW2 1059   0.770   2.739   2.396  1.4146  2.4921  2.0954
  265SOL     MW 1060   0.772   2.747   2.307 -0.2103  0.6216  0.8499
  266SOL     OW 1061   0.907   0.837   2.167  0.2221  0.3716 -0.0736
  266SOL    HW1 1062   0.937   0.811   2.081 -2.8628 -5.2180 -0.4733
  266SOL    HW2 1063   0.982   0.808   2.214 -1.3431 -4.7831 -3.1243
  266SOL     MW 1064   0.921   0.830   2.162 -0.3914 -1.0460 -0.5288
  267SOL     OW 1065   1.333   1.762   2.637 -0.0424  0.1140 -0.1401
  267SOL    HW1 1066   1.421   1.720   2.622 -1.5198 -1.9854  0.7168
  267SOL    HW2 1067   1.295   1.765   2.552  1.0546  1.5219  1.2000
  267SOL     MW 1068   1.340   1.757   2.623 -0.0926  0.0227  0.1497
  268SOL     OW 1069   0.137   0.926   1.689 -0.0486 -0.0138  0.0816
  268SOL    HW1 1070   0.095   1.010   1.652 -0.3793  0.3964  0.7990
  268SOL    HW2 1071   0.112   0.865   1.625  0.7229 -0.9097  1.2637
  268SOL     MW 1072   0.128   0.929   1.676  0.0096 -0.0779  0.3322
  269SOL     OW 1073   1.359   1.953   2.298  0.0261 -0.1899 -0.4995
  269SOL    HW1 1074   1.405   2.029   2.330  1.0879  1.9479 -2.5313
  269SOL    HW2 1075   1.275   1.949   2.341  2.5844 -2.1063 -0.5001
  269SOL     MW 1076   1.354   1.963   2.308  0.5037 -0.1607 -0.7676
  270SOL     OW 1077   1.137   0.428   1.594 -0.2073 -0.4237 -0.5502
  270SOL    HW1 1078   1.115   0.343   1.642  0.4581 -1.2387 -0.8419
  270SOL    HW2 1079   1.231   0.416   1.574 -1.0438 -0.8079  1.0670
  270SOL     MW 1080   1.147   0.416   1.598 -0.2299 -0.5820 -0.3753
  271SOL     OW 1081   0.782   0.066   2.463  0.6836  0.2292 -0.7037
  271SOL    HW1 1082   0.840  -0.003   2.489 -1.7554 -0.8692 -0.1892
  271SOL    HW2 1083   0.833   0.149   2.437 -1.3403  3.3802 -2.3259
  271SOL     MW 1084   0.796   0.068   2.463  0.0948  0.5000 -0.8498
  272SOL     OW 1085   1.455   2.830   2.867 -0.7230  0.0953 -0.1196
  272SOL    HW1 1086   1.449   2.835   2.770  1.3763  0.0431  2.0208
  272SOL    HW2 1087   1.494   2.913   2.901  0.4924  0.5537  3.7517
  272SOL     MW 1088   1.460   2.841   2.859 -0.2857  0.1489  0.6735
  273SOL     OW 1089   1.432   0.904   2.767 -0.2823 -0.1875 -0.4114
  273SOL    HW1 1090   1.512   0.928   2.806 -1.5716 -0.6459 -2.8872
  273SOL    HW2 1091   1.412   0.996   2.743  1.8078  0.7575  1.4842
  273SOL     MW 1092   1.440   0.920   2.769 -0.1767 -0.1233 -0.4880
  274SOL     OW 1093   1.402   0.774   0.153  0.1130 -0.0482  0.6118
  274SOL    HW1 1094   1.468   0.726   0.200  1.5768  0.5818  1.5981
  274SOL    HW2 1095   1.325   0.755   0.212  0.1451 -0.2903 -0.5743
  274SOL     MW 1096   1.400   0.765   0.167  0.3104  0.0030  0.5854
  275SOL     OW 1097   1.714   0.517   1.766  0.5547 -0.1141  0.6559
  275SOL    HW1 1098   1.784   0.563   1.814  1.0096 -0.3563 -0.9732
  275SOL    HW2 1099   1.721   0.432   1.803 -0.4275  1.6521  0.7641
  275SOL     MW 1100   1.724   0.512   1.777  0.4852  0.0870  0.4552
  276SOL     OW 1101   0.436   1.262   1.925  0.6395 -0.2932 -0.6205
  276SOL    HW1 1102   0.449   1.172   1.969 -0.7498  0.8420  0.2706
  276SOL    HW2 1103   0.360   1.285   1.984 -0.1731 -3.1143 -0.7030
  276SOL     MW 1104   0.428   1.253   1.939  0.3490 -0.5156 -0.5138
  277SOL     OW 1105   1.977   1.112   2.471 -0.2269 -0.7181 -0.6821
  277SOL    HW1 1106   2.030   1.188   2.492 -0.7280 -1.6862  0.3027
  277SOL    HW2 1107   1.974   1.104   2.375 -1.0603 -0.5071 -0.5046
  277SOL     MW 1108   1.984   1.121   2.461 -0.4030 -0.8180 -0.5288
  278SOL     OW 1109   1.366   0.671   1.741  0.2002  0.2145  0.6862
  278SOL    HW1 1110   1.339   0.590   1.794 -2.9131 -2.6167  0.2191
  278SOL    HW2 1111   1.445   0.695   1.778  0.3945 -1.9040  0.0862
  278SOL     MW 1112   1.373   0.663   1.753 -0.1849 -0.4386  0.5454
  279SOL     OW 1113   0.555   0.095   2.253  0.2936  0.2847  0.6834
  279SOL    HW1 1114   0.615   0.021   2.250  0.0934  0.9117  2.8721
  279SOL    HW2 1115   0.608   0.171   2.238  0.1575 -0.6368 -0.4501
  279SOL     MW 1116   0.570   0.095   2.251  0.2492  0.2459  0.8226
  280SOL     OW 1117   1.443   1.067   2.159  0.5667  0.9898 -0.0898
  280SOL    HW1 1118   1.488   0.985   2.125 -2.0066  2.4502 -1.8514
  280SOL    HW2 1119   1.435   1.062   2.260  0.4261  1.3050  1.7535
  280SOL     MW 1120   1.448   1.055   2.168  0.2086  1.2241 -0.0790
  281SOL     OW 1121   1.403   1.165   2.697 -0.1195 -0.4410  0.0404
  281SOL    HW1 1122   1.471   1.230   2.686  1.0285 -3.3829  3.1707
  281SOL    HW2 1123   1.384   1.169   2.791  1.9361 -1.2427 -1.4824
  281SOL     MW 1124   1.410   1.174   2.708  0.3032 -0.9350  0.2525
  282SOL     OW 1125   1.149   1.269   1.632  0.4385  0.4209 -0.3799
  282SOL    HW1 1126   1.144   1.362   1.602  2.3849 -0.2173  0.4572
  282SOL    HW2 1127   1.069   1.257   1.682  2.0719 -0.5302  0.6837
  282SOL     MW 1128   1.138   1.280   1.635  0.9108  0.2112 -0.1291
  283SOL     OW 1129   0.846   1.304   0.016  0.3664 -0.1807  0.1833
  283SOL    HW1 1130   0.940   1.296   0.022  2.0108  1.8284 -1.1466
  283SOL    HW2 1131   0.844   1.391  -0.023  0.3167 -2.0239  1.7636
  283SOL     MW 1132   0.858   1.314   0.012  0.5768 -0.1588  0.2163
  284SOL     OW 1133   0.419   0.749   2.370  0.0960 -0.6438 -0.1627
  284SOL    HW1 1134   0.491   0.798   2.324 -2.7242  0.8049 -2.0866
  284SOL    HW2 1135   0.414   0.675   2.308 -1.4501  1.3073 -0.5102
  284SOL     MW 1136   0.427   0.746   2.356 -0.4801 -0.1952 -0.4624
  285SOL     OW 1137   0.901   0.887   2.809 -0.2405 -0.4308  0.1502
  285SOL    HW1 1138   0.936   0.930   2.728  0.9894 -0.5961  1.3361
  285SOL    HW2 1139   0.830   0.832   2.791 -0.8516  0.6546  1.2027
  285SOL     MW 1140   0.896   0.885   2.796 -0.1589 -0.3094  0.4455
  286SOL     OW 1141   1.127   1.485   2.613 -0.0110 -0.0483  0.2460
  286SOL    HW1 1142   1.222   1.486   2.610  2.3525  1.0140 -1.7925
  286SOL    HW2 1143   1.102   1.539   2.540 -0.9408  1.6042 -0.4590
  286SOL     MW 1144   1.136   1.492   2.603  0.1782  0.3099 -0.1160
  287SOL     OW 1145   1.226   1.029   0.306  0.0367  0.0025  0.1962
  287SOL    HW1 1146   1.231   1.069   0.393 -2.4899 -2.0655 -1.4708
  287SOL    HW2 1147   1.143   1.048   0.261 -2.8802 -1.7647 -1.3519
  287SOL     MW 1148   1.215   1.037   0.312 -0.6816 -0.5035 -0.2280
  288SOL     OW 1149   1.469   0.603   2.056 -0.2350  0.0612  0.3949
  288SOL    HW1 1150   1.427   0.585   2.143 -0.7329 -1.9555 -3.7111
  288SOL    HW2 1151   1.486   0.691   2.039 -3.9267 -2.8367 -0.7215
  288SOL     MW 1152   1.466   0.612   2.065 -0.7878 -0.5872 -0.2941
  289SOL     OW 1153   0.998   0.988   2.590 -0.8051  0.6061  0.2178
  289SOL    HW1 1154   1.062   0.912   2.575 -0.2049 -1.0395  0.0912
  289SOL    HW2 1155   0.920   0.984   2.541  1.1185  3.2533 -0.2939
  289SOL     MW 1156   0.996   0.978   2.582 -0.4721  0.7383  0.1336
  290SOL     OW 1157   0.808   0.598   1.493  0.0914 -0.1363 -0.0113
  290SOL    HW1 1158   0.859   0.601   1.411 -0.0528 -2.4098 -0.4914
  290SOL    HW2 1159   0.874   0.612   1.561 -1.8230  1.8161  0.8033
  290SOL     MW 1160   0.823   0.600   1.491 -0.1802 -0.1787  0.0328
  291SOL     OW 1161   0.203   0.384   0.124 -0.0966 -0.1177 -0.1970
  291SOL    HW1 1162   0.278   0.322   0.145  1.7439 -0.4343  0.4216
  291SOL    HW2 1163   0.132   0.322   0.101 -2.2278  2.0222  2.4916
  291SOL     MW 1164   0.204   0.368   0.124 -0.1350  0.1229  0.2394
  292SOL     OW 1165   1.035   0.598   0.127 -0.1713 -0.4016  0.3786
  292SOL    HW1 1166   1.078   0.637   0.206  1.0287 -0.2731  2.4152
  292SOL    HW2 1167   1.035   0.504   0.138 -1.8842  2.8080  0.5151
  292SOL     MW 1168   1.040   0.591   0.139 -0.2390  0.0388  0.6653
  293SOL     OW 1169   0.130   0.189   2.494 -0.2161 -0.2484  0.2171
  293SOL    HW1 1170   0.084   0.136   2.425 -0.7537 -1.1484  0.8564
  293SOL    HW2 1171   0.068   0.195   2.567 -0.9226 -2.1931  1.6275
  293SOL     MW 1172   0.116   0.183   2.495 -0.3802 -0.6237  0.4875
  294SOL     OW 1173   1.361   0.581   2.314 -0.1896  0.2742  0.2486
  294SOL    HW1 1174   1.403   0.646   2.375 -0.5869  2.1149 -2.0833
  294SOL    HW2 1175   1.399   0.503   2.359  1.4027  1.6072  0.4753
  294SOL     MW 1176   1.372   0.579   2.328 -0.0319  0.6929 -0.0291
  295SOL     OW 1177   0.910   0.538   2.557 -0.5916  0.1883  0.3211
  295SOL    HW1 1178   0.880   0.560   2.468  2.0704 -0.4255  1.2976
  295SOL    HW2 1179   0.846   0.574   2.619 -1.3323 -1.0180 -3.1340
  295SOL     MW 1180   0.898   0.545   2.553 -0.3381 -0.0518 -0.0059
  296SOL     OW 1181   1.216   0.238   2.026 -0.0290 -0.2552 -0.1776
  296SOL    HW1 1182   1.293   0.181   2.002 -0.7759  0.8576 -0.7679
  296SOL    HW2 1183   1.213   0.220   2.118  2.0873 -1.0025 -1.4104
  296SOL     MW 1184   1.226   0.228   2.035  0.1517 -0.2070 -0.4181
  297SOL     OW 1185   1.416   0.383   1.542 -0.5536 -0.4236 -0.0860
  297SOL    HW1 1186   1.451   0.445   1.600  1.3056 -0.0953  0.7415
  297SOL    HW2 1187   1.434   0.295   1.570  0.2220 -0.4694 -2.5113
  297SOL     MW 1188   1.423   0.380   1.553 -0.2060 -0.3863 -0.2968
  298SOL     OW 1189   1.606   0.853   2.067  0.3303  0.0412  0.6033
  298SOL    HW1 1190   1.656   0.902   2.004 -0.1802  0.7036 -0.2594
  298SOL    HW2 1191   1.674   0.818   2.122  0.9330  1.2567 -0.8137
  298SOL     MW 1192   1.622   0.855   2.066  0.3425  0.2889  0.3025
  299SOL     OW 1193   0.602   1.123   0.006 -0.5061  0.2596  0.4468
  299SOL    HW1 1194   0.565   1.124  -0.090  0.9670  1.4564 -1.4610
  299SOL    HW2 1195   0.696   1.149  -0.004 -0.9416 -1.7846  0.9852
  299SOL     MW 1196   0.610   1.127  -0.008 -0.3692  0.1478  0.2661
  300SOL     OW 1197   1.214   1.130   2.461 -0.8922  0.0577  0.3751
  300SOL    HW1 1198   1.134   1.104   2.501  0.8794  0.8682  0.6574
  300SOL    HW2 1199   1.266   1.157   2.536 -0.3188 -1.0556 -0.0466
  300SOL     MW 1200   1.211   1.130   2.476 -0.5828  0.0177  0.3567
  301SOL     OW 1201   1.434   0.958   0.674  0.0985  0.2923  0.2867
  301SOL    HW1 1202   1.473   0.992   0.753  0.0938  0.7468  0.0980
  301SOL    HW2 1203   1.388   0.882   0.697  1.5051  1.5642  0.0889
  301SOL     MW 1204   1.433   0.953   0.687  0.2834  0.5201  0.2357
  302SOL     OW 1205   0.217   1.551   2.035  0.0608 -0.3164 -0.0276
  302SOL    HW1 1206   0.206   1.478   2.094  0.4234 -0.4719  0.0462
  302SOL    HW2 1207   0.138   1.600   2.054  0.6115  0.6436  1.3754
  302SOL     MW 1208   0.206   1.548   2.045  0.1813 -0.2103  0.1672
  303SOL     OW 1209   0.349   1.780   2.701 -0.0929  0.0571 -0.1693
  303SOL    HW1 1210   0.298   1.802   2.625 -2.3737  0.9891 -1.2809
  303SOL    HW2 1211   0.296   1.774   2.781 -2.0824  0.7671 -0.3464
  303SOL     MW 1212   0.335   1.782   2.701 -0.6563  0.2737 -0.3394
  304SOL     OW 1213   0.491   2.053   2.323 -0.0414  0.3891  0.4626
  304SOL    HW1 1214   0.583   2.095   2.320 -0.4816 -1.7393  1.9816
  304SOL    HW2 1215   0.515   1.965   2.357  0.4299 -2.6517 -1.4136
  304SOL     MW 1216   0.507   2.047   2.327 -0.0373 -0.2930  0.4155
  305SOL     OW 1217   1.109   0.655   0.569  0.0156  0.5128  0.2371
  305SOL    HW1 1218   1.020   0.626   0.548 -1.3198  1.0876 -1.0587
  305SOL    HW2 1219   1.165   0.571   0.570  0.5697  1.4739  1.5406
  305SOL     MW 1220   1.105   0.640   0.566 -0.0875  0.7155  0.2381
  306SOL     OW 1221   1.148   1.557   0.225 -0.4098 -0.1477 -0.5890
  306SOL    HW1 1222   1.178   1.467   0.263 -1.9291 -2.4808  0.4873
  306SOL    HW2 1223   1.199   1.583   0.146  1.3701 -0.1369  0.6646
  306SOL     MW 1224   1.159   1.548   0.220 -0.3754 -0.4541 -0.2816
  307SOL     OW 1225   1.330   0.451   1.882  0.2169  0.0823  0.2370
  307SOL    HW1 1226   1.274   0.385   1.919 -0.4848 -0.1802  0.8852
  307SOL    HW2 1227   1.384   0.490   1.955 -0.5288  0.6676  2.1016
  307SOL     MW 1228   1.330   0.448   1.897  0.0259  0.1249  0.5685
  308SOL     OW 1229   2.240   0.501   2.672 -0.0610 -0.0008 -0.0270
  308SOL    HW1 1230   2.331   0.497   2.707 -2.6144 -2.6637  0.9821
  308SOL    HW2 1231   2.211   0.596   2.689  1.3038 -0.8832  1.0022
  308SOL     MW 1232   2.248   0.513   2.679 -0.2179 -0.4686  0.2419
  309SOL     OW 1233   0.474   0.554   0.223 -0.1748 -0.1791  0.2011
  309SOL    HW1 1234   0.538   0.571   0.292  2.6689  0.8658 -1.7812
  309SOL    HW2 1235   0.480   0.462   0.200 -2.3658  0.5110  1.0721
  309SOL     MW 1236   0.483   0.544   0.229 -0.0887  0.0498  0.0545
  310SOL     OW 1237   0.477   0.596   1.901  0.2974  0.1663  0.3950
  310SOL    HW1 1238   0.530   0.536   1.862  0.2389  4.2680  2.0094
  310SOL    HW2 1239   0.518   0.679   1.865 -0.7069  1.6636  0.9716
  310SOL     MW 1240   0.490   0.599   1.891  0.1572  0.9050  0.6841
  311SOL     OW 1241   1.917   0.654   1.932  0.5831  0.1490 -0.5480
  311SOL    HW1 1242   1.898   0.687   2.023 -0.3244 -3.9156 -0.3001
  311SOL    HW2 1243   1.961   0.574   1.962  0.9651  1.6293  2.3067
  311SOL     MW 1244   1.920   0.647   1.948  0.5138 -0.1920 -0.1386
  312SOL     OW 1245   1.809   2.469   0.175 -0.4040 -0.0344 -0.2111
  312SOL    HW1 1246   1.837   2.424   0.252 -0.2776  0.5277 -0.2223
  312SOL    HW2 1247   1.726   2.518   0.190  0.1032  1.6547 -0.9111
  312SOL     MW 1248   1.802   2.469   0.187 -0.3204  0.2626 -0.3049
  313SOL     OW 1249   0.104   1.121   3.028  0.4301  0.8092  0.3318
  313SOL    HW1 1250   0.049   1.155   3.098 -1.8904 -0.7162 -2.8454
  313SOL    HW2 1251   0.167   1.192   3.017 -0.9383 -2.4367 -0.1647
  313SOL     MW 1252   0.105   1.135   3.036 -0.0566  0.1796 -0.1529
  314SOL     OW 1253   2.176   2.965   3.003  0.1196 -0.1380  0.4011
  314SOL    HW1 1254   2.116   2.992   2.930  1.8236 -0.0624  4.2285
  314SOL    HW2 1255   2.190   3.034   3.064  0.5626 -3.7202 -0.3852
  314SOL     MW 1256   2.170   2.978   3.001  0.4029 -0.6006  0.8023
  315SOL     OW 1257   1.540   1.815   2.984 -0.2584  0.1440 -0.5910
  315SOL    HW1 1258   1.492   1.849   3.066  2.2320 -0.2912 -1.5426
  315SOL    HW2 1259   1.563   1.899   2.939  2.9900 -3.1595  0.2408
  315SOL     MW 1260   1.536   1.830   2.989  0.4988 -0.3493 -0.6068
  316SOL     OW 1261   1.245   0.555   2.714 -0.4513  0.3465 -0.1326
  316SOL    HW1 1262   1.341   0.539   2.725  1.2073 -1.1842  0.8854
  316SOL    HW2 1263   1.209   0.560   2.802  0.5891  0.4707 -1.4701
  316SOL     MW 1264   1.253   0.554   2.727 -0.0952  0.1610 -0.1747
  317SOL     OW 1265   0.681   1.555   2.642  0.7525  0.3923 -0.6565
  317SOL    HW1 1266   0.733   1.476   2.663  0.1967 -2.4290 -0.5193
  317SOL    HW2 1267   0.691   1.551   2.549 -1.1627 -1.7477  1.0769
  317SOL     MW 1268   0.689   1.544   2.633  0.4265 -0.2623 -0.4097
  318SOL     OW 1269   1.356   0.350   2.943  0.2608  0.1723  0.3620
  318SOL    HW1 1270   1.262   0.371   2.938 -0.5927  3.5409 -0.4803
  318SOL    HW2 1271   1.409   0.426   2.912 -2.2434 -1.0572 -0.9077
  318SOL     MW 1272   1.351   0.363   2.938 -0.1822  0.4545  0.0833
  319SOL     OW 1273   0.867   0.336   2.920  0.1559  0.4810  0.1986
  319SOL    HW1 1274   0.829   0.345   2.835 -0.0377 -3.5218  1.2122
  319SOL    HW2 1275   0.798   0.371   2.986  1.9335  0.8370  3.7158
  319SOL     MW 1276   0.853   0.342   2.918  0.3649 -0.0001  0.7964
  320SOL     OW 1277   1.076   1.377   2.002  0.1580 -0.1320  0.0266
  320SOL    HW1 1278   1.130   1.307   2.043 -0.0081 -0.0599 -0.2681
  320SOL    HW2 1279   1.149   1.427   1.960  0.7964  0.7104  1.4353
  320SOL     MW 1280   1.093   1.374   2.002  0.2203 -0.0113  0.1736
  321SOL     OW 1281   1.086   0.914   2.977 -0.0566  0.0892 -0.2832
  321SOL    HW1 1282   1.016   0.883   2.914  2.1308 -0.6024  1.4236
  321SOL    HW2 1283   1.136   0.831   2.983 -0.9892 -0.5195 -3.1130
  321SOL     MW 1284   1.084   0.899   2.969  0.1090 -0.0824 -0.4314
  322SOL     OW 1285   1.169   0.851   1.663  0.4246 -0.2605  0.0736
  322SOL    HW1 1286   1.232   0.783   1.691 -1.9778  1.6852  2.8897
  322SOL    HW2 1287   1.164   0.900   1.749 -0.6508 -2.4851  0.4796
  322SOL     MW 1288   1.177   0.849   1.678 -0.0342 -0.2973  0.4987
  323SOL     OW 1289   1.240   1.603   1.896 -0.1737  0.5306  0.3507
  323SOL    HW1 1290   1.288   1.616   1.813 -0.0805  1.8408  0.1473
  323SOL    HW2 1291   1.164   1.665   1.892  1.3704 -0.3409 -0.4066
  323SOL     MW 1292   1.236   1.613   1.884  0.0423  0.5885  0.2240
  324SOL     OW 1293   1.482   1.010   2.413  0.5870  0.0252 -0.4226
  324SOL    HW1 1294   1.424   1.024   2.482  0.8242  1.8001  0.6507
  324SOL    HW2 1295   1.557   1.059   2.446  1.2155  0.1530  1.6804
  324SOL     MW 1296   1.484   1.018   2.426  0.7012  0.2763 -0.0036
  325SOL     OW 1297   1.101   0.485   2.956 -0.2690 -0.3456  0.2366
  325SOL    HW1 1298   1.081   0.543   3.029 -1.5867  2.3298  0.2419
  325SOL    HW2 1299   1.025   0.425   2.939  1.4554  0.4488 -0.0907
  325SOL     MW 1300   1.088   0.485   2.963 -0.2153  0.1122  0.1941
  326SOL     OW 1301   0.364   1.385   2.301 -0.7932  0.0503 -0.4339
  326SOL    HW1 1302   0.431   1.368   2.229  1.4542 -1.1934 -2.6117
  326SOL    HW2 1303   0.363   1.485   2.306  0.5028 -1.5448 -0.9274
  326SOL     MW 1304   0.373   1.396   2.292 -0.3257 -0.3242 -0.7864
  327SOL     OW 1305   1.915   0.774   2.450  0.3065  0.0829  0.5735
  327SOL    HW1 1306   1.872   0.727   2.526 -0.8664  0.9682  0.1373
  327SOL    HW2 1307   1.935   0.866   2.472 -0.8492 -0.9978 -2.1482
  327SOL     MW 1308   1.912   0.780   2.463 -0.0007  0.0571  0.1568
  328SOL     OW 1309   0.206   1.258   2.087  0.3625 -0.1612 -0.8241
  328SOL    HW1 1310   0.137   1.190   2.094 -0.5146 -0.3297  0.0492
  328SOL    HW2 1311   0.222   1.281   2.179  0.8384  2.3130  0.0738
  328SOL     MW 1312   0.199   1.252   2.100  0.3095  0.1430 -0.5904
  329SOL     OW 1313   0.040   0.173   1.367  0.7144  0.0034 -0.5538
  329SOL    HW1 1314   0.036   0.128   1.452  0.8503  1.5023 -0.1797
  329SOL    HW2 1315   0.133   0.163   1.361 -0.6021 -2.1641  0.4815
  329SOL     MW 1316   0.051   0.166   1.377  0.5587 -0.0848 -0.3679
  330SOL     OW 1317   0.395   3.055   2.038 -0.0088  0.8133 -0.2254
  330SOL    HW1 1318   0.451   3.097   2.104  0.7041 -2.2079  0.3785
  330SOL    HW2 1319   0.307   3.043   2.074  3.1802 -1.9802  0.6550
  330SOL     MW 1320   0.391   3.059   2.051  0.5060  0.0461 -0.0296
  331SOL     OW 1321   0.782   1.249   2.431 -0.1593 -0.4675  0.3056
  331SOL    HW1 1322   0.716   1.298   2.377 -3.3427 -4.5459  0.6347
  331SOL    HW2 1323   0.806   1.311   2.499 -1.1863  0.7905  1.7344
  331SOL     MW 1324   0.776   1.263   2.433 -0.7148 -0.8396  0.5375
  332SOL     OW 1325   1.347   1.660   2.904  0.1438  0.4206 -0.0102
  332SOL    HW1 1326   1.316   1.680   2.815 -2.8447 -0.2040  1.6588
  332SOL    HW2 1327   1.414   1.728   2.919  0.6571 -0.1178  1.4015
  332SOL     MW 1328   1.352   1.672   2.894 -0.1828  0.2671  0.3962
  333SOL     OW 1329   1.734   1.412   2.897 -0.3559  0.5451 -0.2049
  333SOL    HW1 1330   1.831   1.420   2.926  2.9256  1.3819 -0.1594
  333SOL    HW2 1331   1.700   1.338   2.948 -0.1998 -0.7297  2.1473
  333SOL     MW 1332   1.742   1.403   2.908  0.0977  0.4873  0.1114
  334SOL     OW 1333   1.267   3.059   2.586  0.5600 -0.1806  0.6988
  334SOL    HW1 1334   1.177   3.061   2.625 -0.2139 -1.3740  0.8085
  334SOL    HW2 1335   1.313   3.140   2.626 -0.7879  2.2248  1.3381
  334SOL     MW 1336   1.261   3.070   2.597  0.2800 -0.0207  0.7976
  335SOL     OW 1337   1.327   0.727   2.988 -0.3027 -0.4199  0.1603
  335SOL    HW1 1338   1.350   0.758   3.077  1.5810  2.0862  2.0978
  335SOL    HW2 1339   1.349   0.795   2.914 -0.2558  3.8893 -0.9501
  335SOL     MW 1340   1.333   0.740   2.990 -0.0480  0.4793  0.2694
  336SOL     OW 1341   0.952   1.174   1.807 -0.3770  0.3291 -0.5411
  336SOL    HW1 1342   0.946   1.224   1.893  0.4407  1.7538 -2.9606
  336SOL    HW2 1343   1.011   1.102   1.826 -0.4104  0.9185 -0.5591
  336SOL     MW 1344   0.959   1.171   1.821 -0.2735  0.5948 -0.8627
  337SOL     OW 1345   0.602   1.840   2.764 -0.5015 -0.1899 -0.0452
  337SOL    HW1 1346   0.534   1.795   2.708  0.3556 -0.4299 -1.0988
  337SOL    HW2 1347   0.683   1.786   2.775 -0.3065  2.3580 -0.5364
  337SOL     MW 1348   0.604   1.827   2.758 -0.3627  0.1146 -0.2490
  338SOL     OW 1349   1.113   0.736   2.562 -0.5840 -0.4177  0.3424
  338SOL    HW1 1350   1.028   0.685   2.570 -0.7010  1.0997  0.3201
  338SOL    HW2 1351   1.167   0.678   2.609 -2.7250  1.0874 -0.6355
  338SOL     MW 1352   1.109   0.722   2.569 -0.8819 -0.0189  0.2105
  339SOL     OW 1353   1.497   1.069   1.858 -0.4068  0.3007  0.4236
  339SOL    HW1 1354   1.444   1.075   1.778 -1.2236  1.5906  0.2809
  339SOL    HW2 1355   1.433   1.078   1.928 -1.1122  1.8914 -0.5916
  339SOL     MW 1356   1.481   1.071   1.857 -0.6076  0.6808  0.2708
  340SOL     OW 1357   1.376   1.493   0.025  0.3141  0.0771 -0.0505
  340SOL    HW1 1358   1.389   1.556  -0.046  0.8427  1.0170 -0.0737
  340SOL    HW2 1359   1.455   1.456   0.057 -2.6935 -3.6231 -1.3822
  340SOL     MW 1360   1.388   1.497   0.020 -0.0130 -0.2871 -0.2293
  341SOL     OW 1361   0.075   1.346   2.743 -1.1871  0.1139 -0.1395
  341SOL    HW1 1362   0.155   1.298   2.754 -0.5625  3.2683  1.9471
  341SOL    HW2 1363   0.034   1.318   2.665  2.9787 -0.1669 -0.2403
  341SOL     MW 1364   0.080   1.336   2.734 -0.5551  0.4930  0.1225
  342SOL     OW 1365   1.364   0.361   0.147  0.4469 -0.2672 -0.6274
  342SOL    HW1 1366   1.422   0.428   0.197  1.2251  2.6712  1.1251
  342SOL    HW2 1367   1.379   0.368   0.054 -1.3640 -0.3910 -0.2557
  342SOL     MW 1368   1.373   0.371   0.141  0.3107  0.1041 -0.3471
  343SOL     OW 1369   0.302   0.303   2.225  0.2531 -0.1125  0.0318
  343SOL    HW1 1370   0.382   0.249   2.209 -0.4534  0.5252 -1.2870
  343SOL    HW2 1371   0.235   0.248   2.181 -2.1512 -1.1504  1.9015
  343SOL     MW 1372   0.304   0.289   2.217 -0.1574 -0.1653  0.1045
  344SOL     OW 1373   1.674   2.051   0.192  0.5459  0.2146 -0.3271
  344SOL    HW1 1374   1.694   2.104   0.114  1.0519 -1.4447 -1.3889
  344SOL    HW2 1375   1.594   2.005   0.161 -4.1925 -2.1074  0.6272
  344SOL     MW 1376   1.666   2.052   0.178 -0.0125 -0.3107 -0.3413
  345SOL     OW 1377   0.696   1.558   2.358 -0.0917  0.1869  0.3023
  345SOL    HW1 1378   0.604   1.555   2.323 -1.9118  2.0609 -2.0191
  345SOL    HW2 1379   0.760   1.552   2.284 -1.5368  1.9901  1.2866
  345SOL     MW 1380   0.692   1.557   2.344 -0.5225  0.6721  0.1259
  346SOL     OW 1381   1.738   1.137   0.015 -0.3498 -0.6065  0.0740
  346SOL    HW1 1382   1.833   1.114   0.021 -2.6014 -1.2118  0.6562
  346SOL    HW2 1383   1.702   1.067   0.078 -2.4846  0.1848 -0.8183
  346SOL     MW 1384   1.745   1.124   0.024 -0.9285 -0.5819  0.0331
  347SOL     OW 1385   1.151   0.734   2.289  0.0364  0.7452 -0.3947
  347SOL    HW1 1386   1.227   0.673   2.293  1.3775 -1.5064 -1.2944
  347SOL    HW2 1387   1.129   0.745   2.376 -1.8211 -1.3447 -0.4816
  347SOL     MW 1388   1.158   0.727   2.301 -0.0317  0.1724 -0.5249
  348SOL     OW 1389   1.328   2.564   1.899  0.3998 -0.6034  0.5801
  348SOL    HW1 1390   1.326   2.497   1.970 -0.5679 -1.7204  1.8763
  348SOL    HW2 1391   1.374   2.644   1.941  0.5500  0.5704 -0.4421
  348SOL     MW 1392   1.334   2.566   1.914  0.2919 -0.5959  0.6162
  349SOL     OW 1393   1.401   0.155   2.718  0.0425 -0.5778  0.0294
  349SOL    HW1 1394   1.353   0.190   2.798 -1.4698 -0.9562  0.3170
  349SOL    HW2 1395   1.468   0.090   2.750 -2.5633 -1.4987  0.1318
  349SOL     MW 1396   1.404   0.151   2.733 -0.5008 -0.7492  0.0809
  350SOL     OW 1397   1.804   0.660   2.667  0.0501  0.2752  0.2732
  350SOL    HW1 1398   1.761   0.569   2.633  0.7642 -1.4154  1.4875
  350SOL    HW2 1399   1.879   0.630   2.720 -1.5773  1.0202 -2.6725
  350SOL     MW 1400   1.808   0.644   2.670 -0.0704  0.1504  0.0448
  351SOL     OW 1401   0.080   1.198   1.636 -0.2665  0.0900  0.4401
  351SOL    HW1 1402   0.026   1.193   1.712 -0.5702  3.0772 -1.7286
  351SOL    HW2 1403   0.161   1.249   1.673 -0.6039 -0.4433  0.6120
  351SOL     MW 1404   0.083   1.204   1.651 -0.3511  0.4138  0.1766
  352SOL     OW 1405   0.844   1.719   2.792 -0.2950  0.6292  0.6984
  352SOL    HW1 1406   0.822   1.676   2.880  1.4928  1.4957 -1.6698
  352SOL    HW2 1407   0.795   1.663   2.729 -0.0736 -2.0623  0.8579
  352SOL     MW 1408   0.835   1.706   2.795 -0.0299  0.3884  0.4070
  353SOL     OW 1409   0.037   2.530   2.766 -0.1409  0.5267  0.2987
  353SOL    HW1 1410   0.115   2.497   2.713  0.5599  2.5294 -0.2428
  353SOL    HW2 1411   0.040   2.618   2.735 -0.0569  0.8024  0.9186
  353SOL     MW 1412   0.048   2.537   2.755 -0.0374  0.8273  0.3091
  354SOL     OW 1413   0.310   2.443   0.811  0.2384 -0.0989  0.1885
  354SOL    HW1 1414   0.350   2.437   0.898 -0.5153  2.7102 -2.1730
  354SOL    HW2 1415   0.226   2.405   0.819  0.0616  2.5984  0.0026
  354SOL     MW 1416   0.304   2.437   0.824  0.1157  0.6276 -0.1476
  355SOL     OW 1417   3.079   2.234   0.348  0.3433  0.6788  0.2941
  355SOL    HW1 1418   2.995   2.177   0.351 -1.7554 -2.0969 -0.2205
  355SOL    HW2 1419   3.083   2.269   0.442  3.7978 -0.9476  1.3441
  355SOL     MW 1420   3.068   2.231   0.361  0.5222  0.0980  0.3647
  356SOL     OW 1421   0.829   2.743   0.937 -0.4806 -0.3552  0.0657
  356SOL    HW1 1422   0.874   2.798   0.873  1.4206 -0.4328 -0.4327
  356SOL    HW2 1423   0.736   2.780   0.923 -0.1054  1.8169 -2.2121
  356SOL     MW 1424   0.823   2.755   0.927 -0.1802 -0.0789 -0.3006
  357SOL     OW 1425   1.785   2.837   0.443 -0.0416 -0.6940  0.6401
  357SOL    HW1 1426   1.812   2.806   0.527  0.6368  0.0224  0.9890
  357SOL    HW2 1427   1.869   2.846   0.398  0.9070  2.6661  0.5353
  357SOL     MW 1428   1.800   2.834   0.448  0.1731 -0.1561  0.6723
  358SOL     OW 1429   0.478   0.148   1.008  0.1357  0.2059 -0.0802
  358SOL    HW1 1430   0.570   0.135   0.971  2.3001  1.9637 -0.4713
  358SOL    HW2 1431   0.427   0.181   0.930  1.1446 -1.9363 -1.7251
  358SOL     MW 1432   0.484   0.151   0.993  0.5544  0.1552 -0.3489
  359SOL     OW 1433   0.808   2.901   1.865  0.2026 -0.0099  0.4854
  359SOL    HW1 1434   0.799   2.808   1.886 -1.3132 -1.7321  0.3922
  359SOL    HW2 1435   0.837   2.904   1.774 -0.2723  2.7732 -0.0973
  359SOL     MW 1436   0.811   2.889   1.856 -0.0601  0.1301  0.3962
  360SOL     OW 1437   0.566   2.796   0.871 -0.3007 -0.3548 -0.1629
  360SOL    HW1 1438   0.570   2.753   0.784  0.3292  0.9519  0.0859
  360SOL    HW2 1439   0.532   2.735   0.940 -2.1558 -0.7514 -0.1610
  360SOL     MW 1440   0.562   2.782   0.869 -0.4624 -0.2347 -0.1298
  361SOL     OW 1441   0.237   2.621   1.355 -0.3524 -0.2691  0.4914
  361SOL    HW1 1442   0.223   2.698   1.407 -1.7361 -0.5685 -0.2183
  361SOL    HW2 1443   0.332   2.627   1.328 -2.6838  1.3501  1.1217
  361SOL     MW 1444   0.248   2.632   1.358 -0.8426 -0.0950  0.4809
  362SOL     OW 1445   1.440   2.372   0.626 -0.0756 -0.5933 -0.3828
  362SOL    HW1 1446   1.472   2.310   0.687 -0.4139 -0.0673 -2.6594
  362SOL    HW2 1447   1.492   2.455   0.650 -1.0631 -0.5893  0.8156
  362SOL     MW 1448   1.451   2.375   0.637 -0.2505 -0.5234 -0.5251
  363SOL     OW 1449   0.306   3.060   0.671  0.2767 -0.2466  0.1521
  363SOL    HW1 1450   0.301   3.020   0.761 -0.5157 -2.0478  2.2681
  363SOL    HW2 1451   0.215   3.070   0.639  0.1788  1.0078  0.9076
  363SOL     MW 1452   0.294   3.056   0.679  0.1592 -0.3187  0.5309
  364SOL     OW 1453   0.726   0.245   0.192  0.4413  0.0026 -0.3464
  364SOL    HW1 1454   0.668   0.173   0.225 -1.3629 -0.1715  1.7040
  364SOL    HW2 1455   0.675   0.297   0.126  0.9932  0.1278 -2.3246
  364SOL     MW 1456   0.712   0.242   0.188  0.2761 -0.0038 -0.3369
  365SOL     OW 1457   0.969   2.014   1.149 -0.6094  0.5823 -0.6417
  365SOL    HW1 1458   0.919   2.088   1.121  0.8653 -1.9118 -1.3006
  365SOL    HW2 1459   0.934   1.935   1.109  0.1084  2.3891 -0.1312
  365SOL     MW 1460   0.958   2.013   1.140 -0.3201  0.4916 -0.6613
  366SOL     OW 1461   2.936   2.644   0.930 -0.6258 -0.8701 -0.0898
  366SOL    HW1 1462   3.007   2.676   0.988  0.0292 -0.1927  0.9206
  366SOL    HW2 1463   2.970   2.672   0.840  0.0805  0.2740  1.7090
  366SOL     MW 1464   2.950   2.652   0.926 -0.4462 -0.6298  0.2808
  367SOL     OW 1465   1.235   2.921   0.869  0.0806  0.7731  0.1805
  367SOL    HW1 1466   1.270   2.984   0.808 -0.7579  0.9910  1.8653
  367SOL    HW2 1467   1.215   2.843   0.822  0.0266  1.7163  0.4714
  367SOL     MW 1468   1.237   2.919   0.855 -0.0371  0.9263  0.4412
  368SOL     OW 1469   1.683   0.348   0.734  0.1948  0.4327 -0.0502
  368SOL    HW1 1470   1.736   0.293   0.681 -1.4255  1.1429  0.1381
  368SOL    HW2 1471   1.725   0.436   0.733  2.8216 -0.8959 -3.2541
  368SOL     MW 1472   1.695   0.353   0.727  0.3276  0.3511 -0.4481
  369SOL     OW 1473   0.123   2.431   1.764 -0.3609  0.0391 -0.2283
  369SOL    HW1 1474   0.217   2.428   1.756 -1.0378  1.0374  0.2324
  369SOL    HW2 1475   0.115   2.529   1.761 -2.4616  0.0555  2.1803
  369SOL     MW 1476   0.134   2.444   1.762 -0.7274  0.1730  0.1503
  370SOL     OW 1477   0.743   0.148   0.935 -0.2082  0.0215  0.4345
  370SOL    HW1 1478   0.755   0.242   0.946 -1.1751  0.2844  0.3816
  370SOL    HW2 1479   0.816   0.099   0.987  0.4370 -2.9978  2.1171
  370SOL     MW 1480   0.754   0.154   0.944 -0.2506 -0.3422  0.6496
  371SOL     OW 1481   1.298   2.874   1.493  0.2468 -0.4881  0.2754
  371SOL    HW1 1482   1.262   2.799   1.447  0.4129 -1.2629  1.2096
  371SOL    HW2 1483   1.303   2.949   1.422 -2.3817 -1.5107 -2.4229
  371SOL     MW 1484   1.294   2.874   1.477 -0.0781 -0.7252  0.0427
  372SOL     OW 1485   0.812   2.300   0.489 -0.0291 -0.3722  0.2240
  372SOL    HW1 1486   0.761   2.222   0.479 -0.4904  1.3722  0.4024
  372SOL    HW2 1487   0.822   2.325   0.390 -0.4752 -0.8817 -0.9604
  372SOL     MW 1488   0.807   2.293   0.475 -0.1488 -0.2093  0.0913
  373SOL     OW 1489   2.836   3.033   1.438  0.4996  0.5824 -0.3364
  373SOL    HW1 1490   2.904   2.990   1.387 -0.9742 -1.0718 -3.7540
  373SOL    HW2 1491   2.806   3.113   1.383  1.1482  0.9889 -3.0911
  373SOL     MW 1492   2.841   3.038   1.424  0.3908  0.4178 -1.1508
  374SOL     OW 1493   1.517   0.527   0.297  0.2760 -0.8833 -0.2668
  374SOL    HW1 1494   1.615   0.526   0.286  2.4331  0.8291  1.8405
  374SOL    HW2 1495   1.499   0.470   0.373 -2.2727 -1.1629  1.7226
  374SOL     MW 1496   1.527   0.519   0.305  0.2244 -0.6942  0.2737
  375SOL     OW 1497   0.983   2.101   2.296 -0.0075 -0.1586  1.0415
  375SOL    HW1 1498   1.030   2.095   2.375 -2.2337  1.5312 -1.7516
  375SOL    HW2 1499   0.951   2.020   2.261 -1.9785  0.2609 -2.0867
  375SOL     MW 1500   0.985   2.089   2.301 -0.5612  0.1197  0.2603
  376SOL     OW 1501   0.709   2.493   0.063 -0.2539 -0.0112  0.8184
  376SOL    HW1 1502   0.677   2.416   0.118 -1.6921 -0.7456 -2.3790
  376SOL    HW2 1503   0.718   2.436  -0.022 -0.7357 -1.4964 -1.2144
  376SOL     MW 1504   0.706   2.475   0.059 -0.5072 -0.3041  0.1283
  377SOL     OW 1505   1.259   2.075   0.863  0.1318  0.5234  0.2598
  377SOL    HW1 1506   1.171   2.040   0.837  1.1433  0.0112  0.1493
  377SOL    HW2 1507   1.288   2.015   0.936  1.2741 -1.1146  2.1968
  377SOL     MW 1508   1.252   2.062   0.869  0.4160  0.2397  0.5008
  378SOL     OW 1509   0.911   2.859   1.631  0.1394  0.1008 -0.1420
  378SOL    HW1 1510   0.876   2.768   1.639  2.3492 -3.0558 -0.4122
  378SOL    HW2 1511   0.922   2.878   1.542 -1.1088 -0.3398 -0.1818
  378SOL     MW 1512   0.908   2.850   1.620  0.2663 -0.3738 -0.1829
  379SOL     OW 1513   1.140   1.670   2.165  0.2476 -0.2090 -0.2285
  379SOL    HW1 1514   1.063   1.663   2.109  0.0386 -1.0882  1.2359
  379SOL    HW2 1515   1.206   1.617   2.112  0.7647 -2.5945 -0.6954
  379SOL     MW 1516   1.139   1.662   2.151  0.2883 -0.6397 -0.0969
  380SOL     OW 1517   0.892   0.128   1.480  0.1557 -0.8008 -0.2960
  380SOL    HW1 1518   0.888   0.037   1.447 -2.7267  2.7394 -0.5626
  380SOL    HW2 1519   0.954   0.130   1.555 -0.7930 -0.5020 -3.4882
  380SOL     MW 1520   0.900   0.116   1.485 -0.3498 -0.2943 -0.7524
  381SOL     OW 1521   0.721   2.077   0.822  0.0394  0.3612  0.1544
  381SOL    HW1 1522   0.815   2.053   0.834 -0.0962 -1.2377  0.7254
  381SOL    HW2 1523   0.700   2.133   0.890 -1.9712 -0.3395  0.4502
  381SOL     MW 1524   0.730   2.081   0.832 -0.2438  0.0578  0.2687
  382SOL     OW 1525   0.703   0.146   0.627  0.3124 -0.0484 -0.3307
  382SOL    HW1 1526   0.681   0.138   0.721 -1.4285  0.4536 -0.7780
  382SOL    HW2 1527   0.704   0.059   0.591 -1.3229  0.0225  1.5969
  382SOL     MW 1528   0.700   0.133   0.635 -0.1331  0.0272 -0.1354
  383SOL     OW 1529   0.564   0.038   0.271 -0.0179  0.2825 -0.1987
  383SOL    HW1 1530   0.568  -0.036   0.208 -0.4595  0.4376 -0.6018
  383SOL    HW2 1531   0.545  -0.015   0.348  0.3120  2.4366  0.4989
  383SOL     MW 1532   0.562   0.021   0.273 -0.0327  0.5872 -0.1599
  384SOL     OW 1533   0.749   2.967   0.572 -0.3523  0.1098  0.5586
  384SOL    HW1 1534   0.814   2.968   0.644  2.3592  0.3160  2.6543
  384SOL    HW2 1535   0.688   2.892   0.590  1.2010  2.7987 -0.1160
  384SOL     MW 1536   0.749   2.958   0.584  0.2104  0.4918  0.7461
  385SOL     OW 1537   1.432   2.047   1.528  0.5715 -0.3266  0.4994
  385SOL    HW1 1538   1.500   2.095   1.573 -0.3020 -0.7990 -1.0180
  385SOL    HW2 1539   1.417   1.986   1.604  0.3832  0.4262  0.1548
  385SOL     MW 1540   1.439   2.046   1.544  0.4314 -0.2896  0.2537
  386SOL     OW 1541   1.294   0.356   0.852  0.5248 -0.3540 -0.2507
  386SOL    HW1 1542   1.252   0.408   0.925  0.5911  0.2152  0.8669
  386SOL    HW2 1543   1.309   0.269   0.891  3.9059 -1.6104 -1.7985
  386SOL     MW 1544   1.290   0.352   0.867  0.9796 -0.4447 -0.3074
  387SOL     OW 1545   0.825   2.186   1.511 -0.0183 -0.5392 -0.3966
  387SOL    HW1 1546   0.901   2.251   1.488  1.1624  2.3326 -1.1232
  387SOL    HW2 1547   0.846   2.094   1.483  1.6337 -2.0259  1.0428
  387SOL     MW 1548   0.838   2.183   1.504  0.3555 -0.3564 -0.3026
  388SOL     OW 1549   1.503   2.763   1.251  0.4656 -0.6989 -0.1520
  388SOL    HW1 1550   1.432   2.829   1.270  0.2611  2.2988  4.8134
  388SOL    HW2 1551   1.461   2.702   1.186 -1.4068 -1.8728 -1.9085
  388SOL     MW 1552   1.488   2.764   1.245  0.1915 -0.4582  0.2714
  389SOL     OW 1553   0.525   0.174   3.044  0.9088 -0.1670  0.4011
  389SOL    HW1 1554   0.610   0.128   3.033 -0.8872 -0.6907 -4.4110
  389SOL    HW2 1555   0.498   0.179   2.947 -1.4196 -1.2098 -1.8521
  389SOL     MW 1556   0.532   0.169   3.029  0.3646 -0.3737 -0.5311
  390SOL     OW 1557   1.316   0.032   0.720 -0.3656 -0.1151 -0.0495
  390SOL    HW1 1558   1.380   0.014   0.647 -0.4083 -2.4931 -2.7841
  390SOL    HW2 1559   1.363   0.097   0.769  1.7972 -0.9618  1.1527
  390SOL     MW 1560   1.331   0.038   0.716 -0.0859 -0.5406 -0.2517
  391SOL     OW 1561   0.393   2.181   1.493  0.2417  0.2234  0.7896
  391SOL    HW1 1562   0.354   2.094   1.510  0.5048 -0.2675 -0.7589
  391SOL    HW2 1563   0.314   2.232   1.493 -0.1159  1.4215 -0.8906
  391SOL     MW 1564   0.377   2.176   1.495  0.2292  0.3167  0.3636
  392SOL     OW 1565   2.080   2.228   0.319  0.1628  0.1653  0.0584
  392SOL    HW1 1566   2.176   2.202   0.326 -0.4359 -0.3683 -0.8587
  392SOL    HW2 1567   2.052   2.246   0.405 -0.4173 -0.2806 -0.3367
  392SOL     MW 1568   2.089   2.227   0.331  0.0072  0.0361 -0.1147
  393SOL     OW 1569   0.287   2.909   2.803  0.5236  0.2119  0.4571
  393SOL    HW1 1570   0.360   2.882   2.743  0.4233 -2.0898  0.0536
  393SOL    HW2 1571   0.275   2.999   2.778 -1.8927 -1.0367 -2.4260
  393SOL     MW 1572   0.295   2.917   2.792  0.1915 -0.2565  0.0235
  394SOL     OW 1573   0.939   1.721   1.533  0.1715 -0.5605 -0.0352
  394SOL    HW1 1574   0.894   1.741   1.611  0.2218  0.2498 -2.3343
  394SOL    HW2 1575   0.954   1.807   1.492  2.1891 -4.6423 -3.4809
  394SOL     MW 1576   0.935   1.735   1.538  0.4444 -0.9921 -0.7931
  395SOL     OW 1577   0.962   2.969   2.552  0.2968  0.2059 -0.5642
  395SOL    HW1 1578   0.980   2.985   2.646 -0.3469  0.6354 -0.3029
  395SOL    HW2 1579   1.025   2.898   2.527  1.2527  0.7827  1.2292
  395SOL     MW 1580   0.972   2.962   2.561  0.3380  0.3387 -0.2931
  396SOL     OW 1581   0.704   1.829   2.420  0.2470  0.1050  0.1104
  396SOL    HW1 1582   0.784   1.826   2.469 -2.1128 -2.2477  2.4215
  396SOL    HW2 1583   0.680   1.740   2.383 -0.0764 -1.2222 -0.8348
  396SOL     MW 1584   0.711   1.817   2.421 -0.1070 -0.3805  0.2906
  397SOL     OW 1585   1.038   2.335   1.442 -0.1558 -0.6766  0.1339
  397SOL    HW1 1586   1.049   2.343   1.343 -0.4903  1.7151 -1.7458
  397SOL    HW2 1587   1.130   2.313   1.474  1.9608  1.4348 -2.7262
  397SOL     MW 1588   1.052   2.333   1.433  0.0793 -0.0824 -0.4914
  398SOL     OW 1589   0.628   2.725   0.619  0.1741  0.6696 -0.1849
  398SOL    HW1 1590   0.545   2.706   0.580 -0.4759  2.7779 -1.4598
  398SOL    HW2 1591   0.674   2.643   0.634  1.6200  0.6392  0.5027
  398SOL     MW 1592   0.623   2.712   0.616  0.2791  0.9438 -0.2624
  399SOL     OW 1593   0.206   2.092   0.329 -0.2851 -0.5839  0.2737
  399SOL    HW1 1594   0.118   2.134   0.344  2.6695 -1.4073 -0.1936
  399SOL    HW2 1595   0.217   2.111   0.236 -3.0574 -0.0160 -0.9709
  399SOL     MW 1596   0.196   2.100   0.319 -0.2611 -0.6176  0.0478
  400SOL     OW 1597   0.563   1.974   0.038 -0.0589  0.1808  0.9143
  400SOL    HW1 1598   0.483   2.017   0.032  0.4970  1.5476  0.2250
  400SOL    HW2 1599   0.562   1.923   0.117 -0.9488 -0.0910  0.6561
  400SOL     MW 1600   0.552   1.973   0.048 -0.1030  0.3253  0.7893
  401SOL     OW 1601   0.816   2.097   0.080  0.0744  0.1177 -0.2198
  401SOL    HW1 1602   0.886   2.034   0.093 -2.0073 -2.0840 -0.2735
  401SOL    HW2 1603   0.731   2.049   0.077  0.5090 -1.2348 -1.5959
  401SOL     MW 1604   0.814   2.082   0.081 -0.1429 -0.3513 -0.4085
  402SOL     OW 1605   0.575   2.972   1.733 -0.2673 -0.4236 -0.3339
  402SOL    HW1 1606   0.632   2.948   1.812 -0.6293  1.1278 -0.1714
  402SOL    HW2 1607   0.616   3.050   1.700 -2.5400 -1.4104 -0.0637
  402SOL     MW 1608   0.588   2.979   1.739 -0.6149 -0.3491 -0.2768
  403SOL     OW 1609   0.108   0.425   0.404  0.1609  0.6262 -0.6714
  403SOL    HW1 1610   0.192   0.456   0.439  0.6134  4.1501  0.6579
  403SOL    HW2 1611   0.142   0.372   0.329  0.7309  0.6968  0.1562
  403SOL     MW 1612   0.124   0.422   0.398  0.2958  1.1005 -0.3868
  404SOL     OW 1613   0.951   2.917   0.759  0.1223 -0.2044 -0.0962
  404SOL    HW1 1614   1.010   2.850   0.730  1.3678 -1.9552  2.2236
  404SOL    HW2 1615   0.988   3.005   0.737  2.2691  0.5720  0.1700
  404SOL     MW 1616   0.964   2.920   0.752  0.5699 -0.3329  0.2450
  405SOL     OW 1617   0.512   2.440   1.523  0.1319  0.1936 -0.0601
  405SOL    HW1 1618   0.505   2.516   1.463 -1.7164  2.4226  2.0463
  405SOL    HW2 1619   0.523   2.354   1.474  0.4685  2.7080 -1.2420
  405SOL     MW 1620   0.513   2.439   1.508 -0.0675  0.8194  0.0619
  406SOL     OW 1621   0.326   2.411   1.093 -0.0011 -0.0179  0.2108
  406SOL    HW1 1622   0.235   2.414   1.118 -0.4610 -1.0899  1.5620
  406SOL    HW2 1623   0.350   2.323   1.128 -0.5084 -2.0699 -0.9913
  406SOL     MW 1624   0.317   2.400   1.101 -0.1287 -0.4301  0.2305
  407SOL     OW 1625   0.066   2.689   1.155  0.9062 -0.2022 -0.5759
  407SOL    HW1 1626   0.134   2.682   1.229  2.7941  0.6905  1.5831
  407SOL    HW2 1627   0.117   2.708   1.077 -1.8131  2.1957  0.4591
  407SOL     MW 1628   0.082   2.691   1.155  0.7965  0.2320 -0.1545
  408SOL     OW 1629   2.126   2.091   0.657 -0.3557 -0.2022  0.5989
  408SOL    HW1 1630   2.092   2.132   0.740 -0.6767 -0.8142 -0.6482
  408SOL    HW2 1631   2.054   2.041   0.615  2.6546 -1.3802  0.5615
  408SOL     MW 1632   2.112   2.090   0.663 -0.0009 -0.4384  0.4294
  409SOL     OW 1633   1.448   0.153   0.958 -0.0004 -0.0099 -0.3077
  409SOL    HW1 1634   1.517   0.200   0.997 -0.9104 -1.3711 -2.3686
  409SOL    HW2 1635   1.466   0.063   0.985  0.9110  1.1897  1.1034
  409SOL     MW 1636   1.460   0.148   0.966 -0.0002 -0.0312 -0.3934
  410SOL     OW 1637   1.072   2.406   1.182 -0.5643 -0.1606  0.1852
  410SOL    HW1 1638   1.012   2.446   1.117  0.6619  0.5364  0.6718
  410SOL    HW2 1639   1.156   2.383   1.140  3.0617 -0.5140  2.5988
  410SOL     MW 1640   1.075   2.408   1.168  0.0759 -0.1153  0.5679
  411SOL     OW 1641   1.926   0.003   2.906  0.3435 -0.5015  0.1383
  411SOL    HW1 1642   1.848  -0.036   2.870 -0.1187  1.4546  0.8439
  411SOL    HW2 1643   1.902   0.083   2.953  0.9407 -0.1711 -1.7007
  411SOL     MW 1644   1.912   0.008   2.908  0.3614 -0.1998 -0.0113
  412SOL     OW 1645   1.027   2.222   0.622  0.1565  0.1583  0.2361
  412SOL    HW1 1646   1.055   2.308   0.644 -0.8549 -1.5241 -2.3260
  412SOL    HW2 1647   0.946   2.242   0.577 -1.2235 -1.0039 -1.1213
  412SOL     MW 1648   1.020   2.236   0.619 -0.1590 -0.2170 -0.2810
  413SOL     OW 1649   0.560   2.725   0.036  0.4873  0.1275 -0.1624
  413SOL    HW1 1650   0.617   2.634   0.055 -1.2368 -4.3730 -1.1773
  413SOL    HW2 1651   0.586   2.773  -0.041  2.3638 -0.1454 -0.4060
  413SOL     MW 1652   0.571   2.719   0.029  0.5074 -0.5023 -0.3284
  414SOL     OW 1653   2.034   2.998   1.169 -0.0611 -0.2908  0.5063
  414SOL    HW1 1654   2.080   3.082   1.204  2.9457 -1.4019  0.1478
  414SOL    HW2 1655   2.020   3.006   1.073  2.1113 -0.6439 -0.0049
  414SOL     MW 1656   2.039   3.010   1.161  0.6222 -0.4840  0.3916
  415SOL     OW 1657   1.758   2.796   1.077 -0.3088  0.0571  0.0756
  415SOL    HW1 1658   1.702   2.787   1.153 -0.8284  1.2451 -1.3868
  415SOL    HW2 1659   1.844   2.752   1.089 -2.0412 -2.1544  0.6341
  415SOL     MW 1660   1.762   2.789   1.089 -0.6059 -0.0780 -0.0436
  416SOL     OW 1661   0.570   1.923   1.377 -0.1678 -1.1064  0.8495
  416SOL    HW1 1662   0.476   1.938   1.380 -1.8949  0.3224 -0.0970
  416SOL    HW2 1663   0.576   1.827   1.404 -3.0383  1.0468 -0.8653
  416SOL     MW 1664   0.558   1.912   1.381 -0.7744 -0.6338  0.4984
  417SOL     OW 1665   0.987   2.988   2.044 -0.2762  0.0860 -0.3350
  417SOL    HW1 1666   0.913   3.007   2.094  0.4966  2.2237 -0.6989
  417SOL    HW2 1667   0.940   2.950   1.970 -1.1703  2.7819  1.1369
  417SOL     MW 1668   0.971   2.985   2.041 -0.2922  0.7238 -0.1888
  418SOL     OW 1669   0.693   2.916   0.165  0.1369  0.5827 -0.1438
  418SOL    HW1 1670   0.770   2.887   0.112  0.2091 -2.2752  0.2097
  418SOL    HW2 1671   0.633   2.842   0.145 -0.7078  1.3452 -2.2562
  418SOL     MW 1672   0.696   2.903   0.155  0.0350  0.3062 -0.3758
  419SOL     OW 1673   0.508   2.634   1.339 -0.0507  0.0727  0.2867
  419SOL    HW1 1674   0.534   2.709   1.394  0.3952  1.2789 -1.3242
  419SOL    HW2 1675   0.578   2.601   1.280  3.5948  1.3401  2.2990
  419SOL     MW 1676   0.521   2.640   1.338  0.4891  0.3991  0.3397
  420SOL     OW 1677   0.793   2.211   1.074  0.0465  0.3141 -0.0808
  420SOL    HW1 1678   0.754   2.247   1.156  1.2647 -0.1886  0.8555
  420SOL    HW2 1679   0.835   2.286   1.025  1.8870 -1.8050  0.6103
  420SOL     MW 1680   0.793   2.226   1.078  0.4501 -0.0318  0.1339
  421SOL     OW 1681   2.976   0.188   3.074 -0.0389 -0.4645 -0.2817
  421SOL    HW1 1682   2.893   0.175   3.023  0.4384 -1.0142 -0.2294
  421SOL    HW2 1683   3.008   0.101   3.092  0.6464 -0.2286  1.5585
  421SOL     MW 1684   2.969   0.175   3.069  0.1145 -0.5059 -0.0320
  422SOL     OW 1685   0.820   2.486   0.941 -0.4799 -0.2744 -0.2451
  422SOL    HW1 1686   0.830   2.578   0.952 -0.6464 -0.7860  1.5187
  422SOL    HW2 1687   0.831   2.478   0.844 -0.4528  1.7898 -1.3339
  422SOL     MW 1688   0.822   2.497   0.930 -0.4983 -0.0695 -0.1561
  423SOL     OW 1689   1.493   0.058   0.479  0.3734 -0.3475 -0.1250
  423SOL    HW1 1690   1.511   0.056   0.383  1.7520 -0.0157  0.3078
  423SOL    HW2 1691   1.480   0.158   0.496 -1.1139 -0.4685 -4.0398
  423SOL     MW 1692   1.493   0.071   0.468  0.3591 -0.3197 -0.5844
  424SOL     OW 1693   0.672   2.288   1.301 -0.2166  0.4133  0.0403
  424SOL    HW1 1694   0.597   2.232   1.271 -0.9365 -1.2058 -1.9800
  424SOL    HW2 1695   0.701   2.243   1.381 -0.6876  0.1860 -0.4217
  424SOL     MW 1696   0.666   2.274   1.307 -0.3737  0.1697 -0.2872
  425SOL     OW 1697   1.732   2.746   2.056 -0.2888  0.1589  0.2712
  425SOL    HW1 1698   1.739   2.752   1.959  0.4970  0.9545  1.0939
  425SOL    HW2 1699   1.754   2.651   2.083  2.1918 -3.6026  0.9097
  425SOL     MW 1700   1.735   2.734   2.047  0.1422 -0.2324  0.4640
  426SOL     OW 1701   0.838   1.704   1.976  0.0284  0.4037  0.3270
  426SOL    HW1 1702   0.782   1.733   1.900  0.7653  1.1537  2.7751
  426SOL    HW2 1703   0.815   1.771   2.051 -0.8315  3.8640  0.3016
  426SOL     MW 1704   0.828   1.716   1.976  0.0121  0.9592  0.6466
  427SOL     OW 1705   0.361   1.679   1.854 -0.3701 -0.0270  0.0004
  427SOL    HW1 1706   0.423   1.645   1.798 -1.7484 -1.6969  0.8958
  427SOL    HW2 1707   0.321   1.602   1.895 -1.2243  0.8262  1.1356
  427SOL     MW 1708   0.364   1.664   1.852 -0.6647 -0.1348  0.2683
  428SOL     OW 1709   0.578   2.583   1.061  0.1977  0.1024  0.5455
  428SOL    HW1 1710   0.653   2.570   1.009 -2.0775  1.2942 -0.2418
  428SOL    HW2 1711   0.522   2.501   1.059  0.6718  0.9747  1.7371
  428SOL     MW 1712   0.580   2.571   1.054 -0.0399  0.3747  0.5989
  429SOL     OW 1713   1.230   2.825   1.131 -0.2111 -0.0912  0.1739
  429SOL    HW1 1714   1.139   2.795   1.141  1.4040 -4.2809  0.8888
  429SOL    HW2 1715   1.234   2.855   1.041 -1.3497  2.0700  1.4355
  429SOL     MW 1716   1.219   2.825   1.120 -0.1482 -0.3588  0.4347
  430SOL     OW 1717   1.160   2.728   0.694 -0.1042 -0.3972 -0.0793
  430SOL    HW1 1718   1.177   2.635   0.710 -2.1769  0.7120 -0.4772
  430SOL    HW2 1719   1.114   2.711   0.606  1.0732 -0.4798 -1.5812
  430SOL     MW 1720   1.156   2.713   0.684 -0.2223 -0.2617 -0.3299
  431SOL     OW 1721   0.335   1.936   1.062  0.5367 -0.7831  0.2634
  431SOL    HW1 1722   0.401   1.872   1.046 -0.4017 -2.4274  0.7638
  431SOL    HW2 1723   0.309   1.977   0.978 -3.0758  0.0691  2.0426
  431SOL     MW 1724   0.340   1.933   1.049 -0.0637 -0.8876  0.5642
  432SOL     OW 1725   0.062   0.033   1.121 -0.4476 -0.2919 -0.8069
  432SOL    HW1 1726   0.040   0.089   1.200 -2.1545 -2.4939  1.4684
  432SOL    HW2 1727   0.015  -0.045   1.140  0.7938 -0.4429 -1.5257
  432SOL     MW 1728   0.053   0.030   1.134 -0.5091 -0.6023 -0.6015
  433SOL     OW 1729   0.637   2.860   1.484  0.2953  0.1321  0.1778
  433SOL    HW1 1730   0.608   2.901   1.570  1.3306  3.4390 -1.4325
  433SOL    HW2 1731   0.737   2.874   1.490  1.4056 -1.1602  0.7002
  433SOL     MW 1732   0.647   2.867   1.496  0.5784  0.3979  0.0343
  434SOL     OW 1733   1.553   2.806   1.596 -0.6499  0.2362 -0.1325
  434SOL    HW1 1734   1.462   2.828   1.577  0.7156  1.8386  2.5413
  434SOL    HW2 1735   1.587   2.776   1.513 -3.5647 -0.2161 -0.9358
  434SOL     MW 1736   1.546   2.805   1.583 -0.8543  0.3879  0.1143
  435SOL     OW 1737   2.744   1.763   0.186 -0.5563 -0.1296  0.6658
  435SOL    HW1 1738   2.803   1.833   0.190 -0.1443 -0.3409  0.1714
  435SOL    HW2 1739   2.705   1.772   0.101  0.4603  0.0947 -2.9576
  435SOL     MW 1740   2.746   1.774   0.175 -0.3678 -0.1279  0.1225
  436SOL     OW 1741   1.382   2.680   0.374  0.4068 -0.2064 -0.4202
  436SOL    HW1 1742   1.414   2.667   0.464 -0.1316  0.4336 -0.9535
  436SOL    HW2 1743   1.379   2.781   0.365 -0.2227  1.2045  3.2653
  436SOL     MW 1744   1.386   2.692   0.385  0.2527  0.0642 -0.0043
  437SOL     OW 1745   0.940   2.964   1.362  0.9193 -0.2881  0.2476
  437SOL    HW1 1746   1.001   3.017   1.310 -0.6238 -0.6962 -2.6225
  437SOL    HW2 1747   0.950   2.890   1.302  0.9811 -1.4092 -0.1753
  437SOL     MW 1748   0.949   2.961   1.347  0.7238 -0.4898 -0.1869
  438SOL     OW 1749   0.804   2.627   1.917  0.2323  0.5522  0.3395
  438SOL    HW1 1750   0.841   2.588   1.996  0.3200  1.6081 -1.7758
  438SOL    HW2 1751   0.747   2.563   1.875 -1.6101  2.4140  0.0347
  438SOL     MW 1752   0.802   2.613   1.922  0.0008  0.9371  0.0202
  439SOL     OW 1753   1.181   2.088   0.405 -0.8592  0.3000  0.2186
  439SOL    HW1 1754   1.128   2.105   0.480  0.3661 -0.8317  0.5483
  439SOL    HW2 1755   1.171   2.170   0.351 -0.6366 -1.0849 -2.2930
  439SOL     MW 1756   1.172   2.101   0.408 -0.6681 -0.0320 -0.0693
  440SOL     OW 1757   1.664   2.962   3.085 -0.4507  0.0521 -0.1599
  440SOL    HW1 1758   1.625   2.926   3.166 -0.7324  0.9411 -0.9898
  440SOL    HW2 1759   1.752   2.921   3.095 -1.9186 -1.8215  1.3585
  440SOL     MW 1760   1.671   2.952   3.097 -0.6816 -0.0778 -0.0690
  441SOL     OW 1761   0.376   2.667   0.515 -0.1221 -0.0178  0.5827
  441SOL    HW1 1762   0.339   2.624   0.431  0.6028 -3.5423 -0.5255
  441SOL    HW2 1763   0.365   2.758   0.502 -1.0545 -2.3230 -0.1564
  441SOL     MW 1764   0.369   2.674   0.502 -0.1495 -0.7870  0.3389
  442SOL     OW 1765   3.081   2.344   0.591  0.1924 -0.1476 -0.7241
  442SOL    HW1 1766   3.070   2.423   0.548 -0.8328 -0.8889 -0.4060
  442SOL    HW2 1767   2.993   2.335   0.639  0.4812  1.1851  1.0365
  442SOL     MW 1768   3.068   2.354   0.592  0.0953 -0.0696 -0.4498
  443SOL     OW 1769   1.504   1.745   1.994  0.4883 -0.1565 -0.0722
  443SOL    HW1 1770   1.429   1.706   1.951  1.0563 -1.0256  4.2455
  443SOL    HW2 1771   1.491   1.699   2.072 -0.5370  0.0855 -0.2960
  443SOL     MW 1772   1.493   1.734   1.998  0.4280 -0.2392  0.4679
  444SOL     OW 1773   0.881   2.581   1.586  0.7831  0.7036  0.2884
  444SOL    HW1 1774   0.966   2.543   1.617  0.5807 -0.7839  0.7354
  444SOL    HW2 1775   0.818   2.524   1.636 -4.0732  1.2920 -2.2365
  444SOL     MW 1776   0.884   2.568   1.596  0.1157  0.5850  0.0142
  445SOL     OW 1777   1.160   0.129   1.373  0.7403  0.0849  0.4388
  445SOL    HW1 1778   1.095   0.153   1.443 -1.3623  2.5145  1.2403
  445SOL    HW2 1779   1.138   0.169   1.288 -0.4092  3.9054  1.4528
  445SOL     MW 1780   1.149   0.137   1.371  0.3112  0.9095  0.6784
  446SOL     OW 1781   2.794   2.855   1.039  0.1053  0.2043 -0.0105
  446SOL    HW1 1782   2.737   2.895   0.969 -1.3601  1.8735 -1.5432
  446SOL    HW2 1783   2.835   2.772   1.006  0.7443  0.0489  1.2548
  446SOL     MW 1784   2.792   2.849   1.026 -0.0037  0.4040 -0.0458
  447SOL     OW 1785   0.028   2.000   1.631 -0.4270  0.0276 -0.1851
  447SOL    HW1 1786   0.060   1.919   1.682 -2.1998 -4.7560 -1.1261
  447SOL    HW2 1787  -0.059   1.970   1.585 -1.9102  1.7752  1.5923
  447SOL     MW 1788   0.021   1.986   1.632 -0.8566 -0.3730 -0.0747
  448SOL     OW 1789   1.750   2.411   1.677  0.6798 -0.1230  0.6153
  448SOL    HW1 1790   1.709   2.327   1.661 -1.7064  0.3617 -0.7229
  448SOL    HW2 1791   1.676   2.476   1.661 -0.9403  0.4553 -0.4394
  448SOL     MW 1792   1.735   2.409   1.673  0.1512  0.0172  0.2996
  449SOL     OW 1793   0.880   2.872   0.354  0.6295  0.3127  0.3046
  449SOL    HW1 1794   0.828   2.883   0.269 -0.0520 -0.9108  0.9281
  449SOL    HW2 1795   0.815   2.897   0.428  1.6003  0.6326 -1.8631
  449SOL     MW 1796   0.864   2.877   0.352  0.6677  0.1935  0.1009
  450SOL     OW 1797   1.211   2.454   0.742 -0.0051  0.2263 -0.1116
  450SOL    HW1 1798   1.214   2.418   0.831 -0.0131  2.2157  0.4054
  450SOL    HW2 1799   1.292   2.422   0.699  3.5382  0.5383 -1.0192
  450SOL     MW 1800   1.222   2.445   0.748  0.4613  0.5300 -0.1631
  451SOL     OW 1801   0.574   2.016   1.669  0.7891  0.3637  0.1008
  451SOL    HW1 1802   0.654   2.063   1.693  0.8366  2.6278 -0.0172
  451SOL    HW2 1803   0.557   2.047   1.578 -1.7400 -0.5966  1.2274
  451SOL     MW 1804   0.582   2.026   1.660  0.4617  0.5357  0.2339
  452SOL     OW 1805   0.315   2.648   0.056  0.2654 -0.2922 -0.3606
  452SOL    HW1 1806   0.405   2.678   0.054 -0.3546 -0.4202  2.3079
  452SOL    HW2 1807   0.253   2.723   0.035 -0.7035  0.0011 -2.1901
  452SOL     MW 1808   0.319   2.662   0.053  0.0557 -0.2704 -0.2499
  453SOL     OW 1809   0.324   3.050   1.591 -0.0668  0.2561  0.0616
  453SOL    HW1 1810   0.386   2.990   1.629  0.3637  0.3898 -0.2651
  453SOL    HW2 1811   0.380   3.076   1.507  2.0428  1.4780 -0.9102
  453SOL     MW 1812   0.339   3.046   1.585  0.2684  0.4350 -0.1097
  454SOL     OW 1813   0.958   2.722   1.164 -0.0922  0.2040 -0.1486
  454SOL    HW1 1814   0.900   2.675   1.218  2.8834  1.8508  1.6587
  454SOL    HW2 1815   0.911   2.746   1.080 -1.1037 -2.5709 -3.9762
  454SOL     MW 1816   0.944   2.719   1.160  0.1669  0.0552 -0.4152
  455SOL     OW 1817   1.626   2.849   0.222  0.5284  0.5811  0.2749
  455SOL    HW1 1818   1.680   2.846   0.300 -0.3797 -1.7283 -2.2500
  455SOL    HW2 1819   1.603   2.758   0.199  1.6015  0.7739  0.6110
  455SOL     MW 1820   1.630   2.837   0.229  0.5501  0.3018 -0.0139
  456SOL     OW 1821   2.742   0.308   1.533 -0.2331  0.1535  0.0252
  456SOL    HW1 1822   2.734   0.231   1.471 -1.0139 -0.2150 -1.7089
  456SOL    HW2 1823   2.826   0.360   1.506 -0.4312 -0.4056 -0.7737
  456SOL     MW 1824   2.752   0.305   1.521 -0.3623  0.0311 -0.3090
  457SOL     OW 1825   0.824   1.583   3.024 -0.5756  0.2448 -0.4875
  457SOL    HW1 1826   0.731   1.557   3.052 -1.0304 -0.1537 -2.2931
  457SOL    HW2 1827   0.879   1.596   3.097 -0.9338 -3.2692 -1.0209
  457SOL     MW 1828   0.819   1.581   3.037 -0.6829 -0.2714 -0.7961
  458SOL     OW 1829   1.381   1.447   0.621 -0.1683  0.5213  0.7342
  458SOL    HW1 1830   1.315   1.501   0.572 -1.5945 -0.8627 -0.8171
  458SOL    HW2 1831   1.357   1.354   0.609 -0.1396 -0.8651  0.3613
  458SOL     MW 1832   1.369   1.442   0.613 -0.3527  0.1558  0.4803
  459SOL     OW 1833   1.537   0.028   0.207  0.3772  0.0865  0.1209
  459SOL    HW1 1834   1.536  -0.066   0.222 -0.8294 -0.7572  0.4141
  459SOL    HW2 1835   1.505   0.036   0.113  0.4415 -1.7686 -0.9667
  459SOL     MW 1836   1.532   0.017   0.196  0.2265 -0.2696  0.0161
  460SOL     OW 1837   1.752   2.142   0.639 -0.0716 -0.1493 -0.1062
  460SOL    HW1 1838   1.680   2.122   0.700  1.4539  1.6031  1.4635
  460SOL    HW2 1839   1.792   2.055   0.621  2.7359  0.5483 -0.2392
  460SOL     MW 1840   1.748   2.128   0.645  0.5001  0.1740  0.0833
  461SOL     OW 1841   0.452   2.392   0.581  0.4342  0.0433  0.6962
  461SOL    HW1 1842   0.417   2.455   0.517 -3.4038  0.3397 -1.0670
  461SOL    HW2 1843   0.399   2.406   0.665 -1.5497 -2.8510 -1.7355
  461SOL     MW 1844   0.440   2.402   0.584 -0.3339 -0.2995  0.1427
  462SOL     OW 1845   0.328   0.254   1.229 -0.3831  0.1460 -0.1700
  462SOL    HW1 1846   0.385   0.239   1.147 -0.1710 -1.1499 -0.8999
  462SOL    HW2 1847   0.390   0.238   1.306  1.2907 -2.7104  1.6558
  462SOL     MW 1848   0.344   0.250   1.229 -0.1343 -0.4018 -0.0254
  463SOL     OW 1849   0.996   0.081   0.667  0.3327 -0.1301 -0.2194
  463SOL    HW1 1850   1.060   0.122   0.612 -1.2861  2.4524 -0.2232
  463SOL    HW2 1851   0.912   0.093   0.620  1.6912 -1.0069  2.4510
  463SOL     MW 1852   0.993   0.088   0.653  0.2983  0.0949  0.1324
  464SOL     OW 1853   0.772   3.024   2.206  0.1101 -0.1971  0.0953
  464SOL    HW1 1854   0.747   2.938   2.239  0.6257  0.0557  2.6814
  464SOL    HW2 1855   0.787   3.076   2.285  0.1179 -1.0316  2.0721
  464SOL     MW 1856   0.771   3.020   2.221  0.1792 -0.2739  0.6973
  465SOL     OW 1857   0.874   0.260   0.438  0.6862  0.2751 -0.0932
  465SOL    HW1 1858   0.808   0.228   0.504 -0.4940  0.5640 -2.2301
  465SOL    HW2 1859   0.823   0.260   0.356 -0.6623 -2.8912 -2.0404
  465SOL     MW 1860   0.859   0.256   0.436  0.3526 -0.1046 -0.6321
  466SOL     OW 1861   0.977   2.026   0.801  0.2335 -0.1471  0.2951
  466SOL    HW1 1862   0.978   1.948   0.747  1.2676 -1.3524 -0.9319
  466SOL    HW2 1863   0.995   2.097   0.734 -2.2164  2.0977 -0.3330
  466SOL     MW 1864   0.980   2.025   0.785  0.0467 -0.0100  0.0504
  467SOL     OW 1865   1.263   2.337   0.976  0.1398  0.4289  0.8874
  467SOL    HW1 1866   1.358   2.354   0.970  0.3905  2.0999  0.8227
  467SOL    HW2 1867   1.255   2.245   0.935  2.8372 -1.4437  0.1819
  467SOL     MW 1868   1.274   2.327   0.969  0.5288  0.4023  0.7858
  468SOL     OW 1869   0.482   2.664   1.925  0.4187 -0.0494 -0.0886
  468SOL    HW1 1870   0.460   2.575   1.897 -0.4315  1.6754  0.8575
  468SOL    HW2 1871   0.422   2.722   1.883  1.3220  0.2230 -3.2918
  468SOL     MW 1872   0.471   2.660   1.916  0.4257  0.2141 -0.3864
  469SOL     OW 1873   0.392   2.135   1.827 -0.2061 -0.2974  0.2758
  469SOL    HW1 1874   0.319   2.079   1.855 -0.6165 -1.0163 -1.5803
  469SOL    HW2 1875   0.451   2.079   1.766  1.0396 -0.0893 -3.2404
  469SOL     MW 1876   0.390   2.120   1.823 -0.0959 -0.3648 -0.4330
  470SOL     OW 1877   3.051   2.576   0.152  0.4393  0.0234  0.0689
  470SOL    HW1 1878   2.960   2.579   0.198 -1.4711 -2.0093 -0.4949
  470SOL    HW2 1879   3.036   2.585   0.054  2.3084 -0.3576 -1.8213
  470SOL     MW 1880   3.037   2.578   0.145  0.4339 -0.2951 -0.2549
  471SOL     OW 1881   1.168   2.629   1.399  0.2470 -0.5203 -0.1234
  471SOL    HW1 1882   1.145   2.591   1.485  2.0337  0.1248 -0.7469
  471SOL    HW2 1883   1.090   2.624   1.343  1.4993  0.8264 -1.6439
  471SOL     MW 1884   1.155   2.623   1.403  0.6479 -0.2575 -0.4063
  472SOL     OW 1885   2.807   2.104   0.360 -0.8780  0.3021  0.3592
  472SOL    HW1 1886   2.826   2.070   0.275  2.2481 -2.7962  1.1046
  472SOL    HW2 1887   2.793   2.023   0.416 -2.0998 -1.8374  1.5485
  472SOL     MW 1888   2.808   2.089   0.356 -0.6267 -0.3890  0.6145
  473SOL     OW 1889   0.771   2.562   1.321 -0.4425 -0.3589  0.1068
  473SOL    HW1 1890   0.762   2.467   1.310  4.6662  0.9133 -1.6637
  473SOL    HW2 1891   0.796   2.571   1.413 -0.2311 -3.1169 -0.4937
  473SOL     MW 1892   0.773   2.550   1.332  0.2594 -0.5550 -0.2060
  474SOL     OW 1893   0.793   2.208   1.773 -1.3214  0.9924 -0.0928
  474SOL    HW1 1894   0.881   2.252   1.791 -0.2539  0.6547  1.2692
  474SOL    HW2 1895   0.799   2.189   1.678 -2.3974 -1.6208 -0.5918
  474SOL     MW 1896   0.805   2.211   1.763 -1.3225  0.6031  0.0211
  475SOL     OW 1897   1.636   3.024   1.472 -0.0713 -0.3616 -0.2325
  475SOL    HW1 1898   1.574   2.997   1.411  1.9764  0.4053  0.2093
  475SOL    HW2 1899   1.623   2.963   1.549  0.1271 -1.4867 -0.0029
  475SOL     MW 1900   1.626   3.012   1.474  0.2251 -0.4088 -0.1439
  476SOL     OW 1901   1.385   2.613   1.049  0.1681  0.0099  0.3004
  476SOL    HW1 1902   1.311   2.665   1.089 -2.3418 -0.7082 -0.2432
  476SOL    HW2 1903   1.418   2.664   0.977 -0.0180 -0.3352 -2.6063
  476SOL     MW 1904   1.379   2.626   1.045 -0.1877 -0.1304 -0.1548
  477SOL     OW 1905   0.815   2.509   0.675 -0.1161  0.3276  0.5757
  477SOL    HW1 1906   0.880   2.559   0.617 -0.9526 -0.1833  0.6506
  477SOL    HW2 1907   0.798   2.425   0.635  0.3717 -1.3023  0.3177
  477SOL     MW 1908   0.821   2.505   0.662 -0.1621  0.0451  0.5515
  478SOL     OW 1909   0.173   2.702   0.911 -0.1115 -0.3892  0.3260
  478SOL    HW1 1910   0.212   2.790   0.884 -1.4632  0.2166 -0.4890
  478SOL    HW2 1911   0.226   2.622   0.903  0.2817 -1.0207 -2.1621
  478SOL     MW 1912   0.185   2.703   0.907 -0.2380 -0.3926 -0.1098
  479SOL     OW 1913   1.471   2.020   1.264 -0.0104  0.2463  0.1460
  479SOL    HW1 1914   1.442   2.034   1.359  0.8360 -1.5154  2.1975
  479SOL    HW2 1915   1.503   1.934   1.272 -2.0004 -0.7022  0.5258
  479SOL     MW 1916   1.471   2.011   1.278 -0.1613 -0.1113  0.4667
  480SOL     OW 1917   1.935   2.458   1.256 -0.5778  0.4453 -0.5818
  480SOL    HW1 1918   1.875   2.396   1.295  2.3150  1.6919  2.0692
  480SOL    HW2 1919   1.989   2.399   1.203  0.2093 -1.5072  1.1223
  480SOL     MW 1920   1.934   2.442   1.254 -0.0923  0.3522 -0.0072
  481SOL     OW 1921   1.052  -0.000   1.077  0.1919  0.0701  0.3717
  481SOL    HW1 1922   1.104  -0.039   1.008  0.1359  2.3250  0.4567
  481SOL    HW2 1923   1.091   0.083   1.087 -0.7278  1.2072 -0.4194
  481SOL     MW 1924   1.064   0.006   1.069  0.0632  0.5177  0.2785
  482SOL     OW 1925   1.091   3.050   0.260 -0.2212  0.3069  0.0682
  482SOL    HW1 1926   1.020   2.985   0.264 -0.7669 -2.9596 -1.8571
  482SOL    HW2 1927   1.083   3.106   0.338  0.3839 -0.0821 -0.3386
  482SOL     MW 1928   1.080   3.049   0.271 -0.2133 -0.1754 -0.2395
  483SOL     OW 1929   0.398   2.957   0.442 -0.6164 -0.1323  0.2221
  483SOL    HW1 1930   0.335   2.959   0.369 -0.8065  1.1903  0.2322
  483SOL    HW2 1931   0.369   3.012   0.516 -2.1596 -0.4499  0.0215
  483SOL     MW 1932   0.386   2.964   0.442 -0.8451  0.0003  0.1969
  484SOL     OW 1933   1.838   1.903   1.493  0.4624 -0.3830  0.6568
  484SOL    HW1 1934   1.860   1.981   1.435 -0.5098  2.5459  0.3854
  484SOL    HW2 1935   1.818   1.949   1.576  0.7668 -0.4051  0.0538
  484SOL     MW 1936   1.838   1.920   1.496  0.3743  0.0005  0.5414
  485SOL     OW 1937   0.483   2.343   0.190  0.6449  0.4366 -0.5055
  485SOL    HW1 1938   0.517   2.326   0.276 -1.4470 -1.4502  2.5335
  485SOL    HW2 1939   0.415   2.414   0.209 -0.3082  1.3137  0.3494
  485SOL     MW 1940   0.479   2.350   0.204  0.2431  0.3034  0.0083
  486SOL     OW 1941   0.185   2.363   1.495  0.0418 -0.1628  0.3932
  486SOL    HW1 1942   0.218   2.445   1.462 -1.8622 -1.4762 -0.2832
  486SOL    HW2 1943   0.134   2.393   1.568  0.7805  2.3403  0.4820
  486SOL     MW 1944   0.182   2.378   1.500 -0.1119 -0.0058  0.3157
  487SOL     OW 1945   1.210   1.668   1.028 -0.0109  0.1751  0.5698
  487SOL    HW1 1946   1.187   1.763   1.053  0.6636  1.8827  0.8861
  487SOL    HW2 1947   1.300   1.667   0.991  0.3268 -0.1643 -1.3003
  487SOL     MW 1948   1.219   1.681   1.026  0.1227  0.3557  0.3648
  488SOL     OW 1949   1.636   1.862   0.503 -0.8833 -0.4023 -0.9755
  488SOL    HW1 1950   1.715   1.877   0.454 -3.1060 -1.0008  1.1991
  488SOL    HW2 1951   1.583   1.946   0.490 -1.1164  2.1550 -0.2815
  488SOL     MW 1952   1.640   1.875   0.495 -1.2074 -0.1439 -0.5970
  489SOL     OW 1953   0.752   0.778   0.566 -0.0465  0.1271  0.1412
  489SOL    HW1 1954   0.789   0.697   0.524  1.0905 -0.1877 -0.4926
  489SOL    HW2 1955   0.776   0.778   0.660  2.5143 -0.3472  2.0937
  489SOL     MW 1956   0.760   0.767   0.573  0.4414  0.0230  0.3152
  490SOL     OW 1957   1.454   2.074   0.479 -0.1710  0.2513 -0.0426
  490SOL    HW1 1958   1.487   2.129   0.401  0.8071  1.1026 -2.9975
  490SOL    HW2 1959   1.361   2.087   0.466  1.0336 -0.9187  1.7527
  490SOL     MW 1960   1.446   2.083   0.467  0.1170  0.2093 -0.1956
  491SOL     OW 1961   1.346   2.950   0.350 -0.6365  0.7377  0.1643
  491SOL    HW1 1962   1.377   3.024   0.409  3.0913  2.9727 -1.5454
  491SOL    HW2 1963   1.251   2.968   0.338  1.5299  1.6427 -2.7407
  491SOL     MW 1964   1.338   2.962   0.356  0.1412  1.1520 -0.4445
  492SOL     OW 1965   1.496   2.124   0.735 -0.3434  0.7950 -0.2100
  492SOL    HW1 1966   1.479   2.100   0.642  0.0669  1.2535  1.7842
  492SOL    HW2 1967   1.413   2.099   0.784 -0.8716  2.3263  2.2119
  492SOL     MW 1968   1.483   2.118   0.730 -0.3590  1.0576  0.3727
  493SOL     OW 1969   0.194   2.997   0.275 -0.0898  0.4714  0.1827
  493SOL    HW1 1970   0.160   3.052   0.346 -0.9474 -1.5640  1.4683
  493SOL    HW2 1971   0.194   3.054   0.194 -0.2516 -0.5480 -1.3040
  493SOL     MW 1972   0.189   3.012   0.274 -0.2243  0.0684  0.1562
  494SOL     OW 1973   0.391   2.387   1.777  0.0154  0.0551 -0.1850
  494SOL    HW1 1974   0.397   2.291   1.798  0.1095  2.1427  2.4479
  494SOL    HW2 1975   0.405   2.399   1.684 -1.5351  0.5799  2.6740
  494SOL     MW 1976   0.394   2.376   1.767 -0.1768  0.3998  0.5396
  495SOL     OW 1977   2.925   1.638   2.642  0.3872  0.2090  0.3137
  495SOL    HW1 1978   2.915   1.714   2.585  1.1147 -1.2461 -1.3122
  495SOL    HW2 1979   2.873   1.654   2.721  1.0754 -1.0792 -2.0711
  495SOL     MW 1980   2.917   1.650   2.645  0.5740 -0.1530 -0.2155
  496SOL     OW 1981   2.938   2.345   2.675 -0.4769  0.3280 -0.4992
  496SOL    HW1 1982   2.975   2.277   2.722  0.6615 -0.8527  0.5508
  496SOL    HW2 1983   2.985   2.420   2.717  0.4474  0.2604  1.1376
  496SOL     MW 1984   2.949   2.346   2.686 -0.2048  0.1633 -0.1447
  497SOL     OW 1985   1.547   2.283   2.660  0.9234 -0.2163  0.1751
  497SOL    HW1 1986   1.503   2.225   2.595  0.9898 -1.2418  0.7430
  497SOL    HW2 1987   1.539   2.224   2.736 -0.7629 -0.1512  0.5095
  497SOL     MW 1988   1.540   2.268   2.661  0.7096 -0.3430  0.2941
  498SOL     OW 1989   1.485   2.732   2.324 -0.1613 -0.6778 -0.3094
  498SOL    HW1 1990   1.470   2.657   2.272 -2.6270  2.9783  1.6429
  498SOL    HW2 1991   1.576   2.731   2.359  1.4761 -0.5375 -0.6673
  498SOL     MW 1992   1.495   2.722   2.322 -0.2706 -0.1769 -0.0990
  499SOL     OW 1993   0.944   0.129   0.074  0.4349  0.6565 -0.1404
  499SOL    HW1 1994   0.868   0.164   0.118  3.2642  0.9185 -4.8746
  499SOL    HW2 1995   0.980   0.073   0.136  0.2616  1.5747 -1.5729
  499SOL     MW 1996   0.939   0.126   0.088  0.7853  0.8122 -0.9540
  500SOL     OW 1997   1.084   2.562   2.813 -0.0087 -0.2115  0.2274
  500SOL    HW1 1998   1.084   2.511   2.894  2.1784  0.1496 -1.8070
  500SOL    HW2 1999   1.010   2.618   2.830  1.0072  1.5302  1.1836
  500SOL     MW 2000   1.074   2.562   2.826  0.4139  0.0660  0.0851
  501SOL     OW 2001   1.771   2.191   3.060 -0.3196 -0.4820 -0.7149
  501SOL    HW1 2002   1.728   2.275   3.060  4.0151 -3.0155  2.4736
  501SOL    HW2 2003   1.868   2.205   3.062 -0.3178 -3.0307  0.1933
  501SOL     MW 2004   1.778   2.204   3.060  0.2526 -1.1525 -0.1744
  502SOL     OW 2005   0.150   2.823   3.021 -0.0465 -0.4099  0.7740
  502SOL    HW1 2006   0.100   2.747   2.987  0.5285  0.6699 -1.4088
  502SOL    HW2 2007   0.220   2.841   2.955  0.5039  0.1881 -0.9554
  502SOL     MW 2008   0.153   2.816   3.008  0.1020 -0.1885  0.2578
  503SOL     OW 2009   1.134   2.772   2.133 -0.0607  0.4353 -0.1972
  503SOL    HW1 2010   1.112   2.698   2.082  1.4006 -2.6032  1.8886
  503SOL    HW2 2011   1.062   2.834   2.125 -0.5645 -0.1617  0.5491
  503SOL     MW 2012   1.121   2.770   2.125  0.0656 -0.0444  0.1765
  504SOL     OW 2013   0.104   2.698   2.132  0.2574 -0.5364  0.2619
  504SOL    HW1 2014   0.141   2.612   2.106  0.9181  0.3603  0.7677
  504SOL    HW2 2015   0.014   2.682   2.138  0.1831  1.3418 -0.8718
  504SOL     MW 2016   0.097   2.685   2.129  0.3348 -0.1703  0.1790
  505SOL     OW 2017   1.707   2.710   2.795 -0.0055 -0.1255 -0.2840
  505SOL    HW1 2018   1.696   2.724   2.701 -1.0693 -1.6037 -2.5083
  505SOL    HW2 2019   1.626   2.729   2.846 -3.0621 -0.1855 -2.1495
  505SOL     MW 2020   1.695   2.714   2.790 -0.5492 -0.3284 -0.8236
  506SOL     OW 2021   1.575   3.084   2.843  0.4190 -0.2556 -0.1562
  506SOL    HW1 2022   1.599   3.066   2.934  2.3800 -1.1814 -0.9178
  506SOL    HW2 2023   1.635   3.031   2.788  0.7293 -0.7662  1.9302
  506SOL     MW 2024   1.586   3.074   2.848  0.7186 -0.4451  0.0186
  507SOL     OW 2025   0.891   2.768   2.867 -0.8647  0.1174  0.1155
  507SOL    HW1 2026   0.946   2.830   2.820  0.1999  5.1529 -2.2447
  507SOL    HW2 2027   0.803   2.807   2.846  0.0919  1.9924 -1.2464
  507SOL     MW 2028   0.887   2.781   2.858 -0.5980  1.0291 -0.3756
  508SOL     OW 2029   1.149   2.095   2.522 -0.1605 -0.2726  0.2568
  508SOL    HW1 2030   1.226   2.070   2.573  0.4202  1.0622 -1.0706
  508SOL    HW2 2031   1.143   2.185   2.547  1.6779  3.1312 -0.5328
  508SOL     MW 2032   1.159   2.104   2.532  0.1587  0.3526 -0.0225
  509SOL     OW 2033   0.686   2.582   2.743 -0.6290  0.3502  0.2621
  509SOL    HW1 2034   0.653   2.555   2.662  3.0261  1.1765  1.9742
  509SOL    HW2 2035   0.619   2.559   2.806 -1.5548 -0.5775  0.8873
  509SOL     MW 2036   0.673   2.575   2.741 -0.2689  0.3369  0.5704
  510SOL     OW 2037   1.516   2.557   1.687  0.6500  0.6339 -0.1969
  510SOL    HW1 2038   1.511   2.648   1.682 -3.3995 -0.7252  1.4791
  510SOL    HW2 2039   1.465   2.545   1.770  0.1809 -0.2335  1.3815
  510SOL     MW 2040   1.509   2.568   1.697  0.0538  0.3401  0.2325
  511SOL     OW 2041   0.413   2.652   2.443  0.3631 -0.2794  0.1300
  511SOL    HW1 2042   0.467   2.581   2.441  1.2388  1.0937 -0.0745
  511SOL    HW2 2043   0.414   2.669   2.348  2.8240 -0.2406 -3.4974
  511SOL     MW 2044   0.420   2.645   2.430  0.8033 -0.0931 -0.3756
  512SOL     OW 2045   1.056   2.021   2.817  0.5657 -0.2287 -0.1937
  512SOL    HW1 2046   0.965   2.035   2.847  0.8644 -0.2219 -0.4983
  512SOL    HW2 2047   1.088   1.935   2.851  0.5750 -0.3913  1.1357
  512SOL     MW 2048   1.048   2.011   2.825  0.6063 -0.2492 -0.0585
  513SOL     OW 2049   1.525   2.428   2.283  0.4117  0.2925 -0.3093
  513SOL    HW1 2050   1.599   2.436   2.226 -0.0632  1.5220  1.9287
  513SOL    HW2 2051   1.579   2.458   2.355 -0.3365  0.4165 -1.6758
  513SOL     MW 2052   1.542   2.433   2.285  0.2504  0.4711 -0.1943
  514SOL     OW 2053   0.282   2.496   2.613 -0.3673  0.2548 -0.0622
  514SOL    HW1 2054   0.305   2.564   2.546  0.5587  1.3502 -1.1793
  514SOL    HW2 2055   0.346   2.516   2.684 -1.6983 -0.3106  3.6310
  514SOL     MW 2056   0.294   2.508   2.614 -0.4207  0.3247  0.2777
  515SOL     OW 2057   1.153   2.090   1.877 -0.2106  1.0781 -1.2064
  515SOL    HW1 2058   1.138   2.183   1.867 -0.7986  0.5618 -0.2521
  515SOL    HW2 2059   1.237   2.076   1.919 -0.7459  1.8408  1.4831
  515SOL     MW 2060   1.162   2.100   1.882 -0.3588  1.1106 -0.7256
  516SOL     OW 2061   1.463   2.474   3.080  0.4076 -0.8807 -0.2331
  516SOL    HW1 2062   1.509   2.467   3.001  0.5366  0.0593 -0.8339
  516SOL    HW2 2063   1.370   2.470   3.044  0.5133 -2.6959 -1.0989
  516SOL     MW 2064   1.457   2.472   3.065  0.4386 -0.9962 -0.4266
  517SOL     OW 2065   0.597   2.479   2.142 -0.0147  0.2765  0.0247
  517SOL    HW1 2066   0.553   2.547   2.088 -0.5297  0.7273  1.5050
  517SOL    HW2 2067   0.532   2.399   2.134 -0.6203 -1.2932  0.1392
  517SOL     MW 2068   0.582   2.478   2.134 -0.1625  0.1289  0.2351
  518SOL     OW 2069   1.840   0.221   3.048  0.4980 -0.4122 -0.5811
  518SOL    HW1 2070   1.800   0.279   2.981  0.2338  1.6730 -0.6734
  518SOL    HW2 2071   1.774   0.186   3.107 -0.4139  0.3601  1.2939
  518SOL     MW 2072   1.826   0.224   3.047  0.3428 -0.0352 -0.3459
  519SOL     OW 2073   0.711   2.441   1.723 -0.2061  0.6587 -0.1703
  519SOL    HW1 2074   0.728   2.341   1.731 -1.3281  1.1137 -0.3231
  519SOL    HW2 2075   0.642   2.436   1.660 -0.1940  1.1344  2.9328
  519SOL     MW 2076   0.704   2.427   1.716 -0.3526  0.7815  0.2189
  520SOL     OW 2077   1.276   2.126   2.926 -0.0803 -0.5568 -0.6705
  520SOL    HW1 2078   1.180   2.099   2.900  0.8704 -3.8832 -0.5905
  520SOL    HW2 2079   1.299   2.076   3.004  0.7496  2.1771 -1.5609
  520SOL     MW 2080   1.266   2.116   2.933  0.1547 -0.6350 -0.7774
  521SOL     OW 2081   1.703   2.062   2.243  0.0811 -0.4187  1.0501
  521SOL    HW1 2082   1.727   2.092   2.155  1.7304  1.6076  0.9347
  521SOL    HW2 2083   1.699   1.965   2.241 -0.8414  0.7071  2.0340
  521SOL     MW 2084   1.706   2.053   2.231  0.1770 -0.0028  1.1647
  522SOL     OW 2085   2.837   2.559   2.185  0.1480 -0.3019 -0.8234
  522SOL    HW1 2086   2.907   2.517   2.232  1.1361  0.9994 -0.6667
  522SOL    HW2 2087   2.783   2.597   2.248  0.6827 -0.1534 -3.7593
  522SOL     MW 2088   2.839   2.558   2.200  0.3489 -0.1106 -1.1901
  523SOL     OW 2089   0.857   1.499   2.157 -0.1706  0.3563  0.1315
  523SOL    HW1 2090   0.825   1.560   2.091 -0.6708 -1.2946 -0.6376
  523SOL    HW2 2091   0.924   1.450   2.108  1.3443 -0.1846 -0.9353
  523SOL     MW 2092   0.862   1.500   2.142 -0.0368  0.0671 -0.1107
  524SOL     OW 2093   0.728   2.388   2.917  0.7007 -0.1149  0.0075
  524SOL    HW1 2094   0.766   2.443   2.847  2.2187 -0.3294 -2.0072
  524SOL    HW2 2095   0.756   2.296   2.908  2.5476 -1.3206  1.0750
  524SOL     MW 2096   0.737   2.383   2.907  1.1447 -0.3023 -0.1175
  525SOL     OW 2097   0.406   2.280   2.074  0.4950 -0.6039  0.1726
  525SOL    HW1 2098   0.379   2.202   2.130  1.4618 -0.4832  0.1496
  525SOL    HW2 2099   0.417   2.247   1.987 -2.0822  1.1223 -0.9696
  525SOL     MW 2100   0.404   2.265   2.070  0.2825 -0.3602  0.0188
  526SOL     OW 2101   0.656   2.099   2.034  0.0010  0.0390  0.1703
  526SOL    HW1 2102   0.692   2.161   1.967  0.8378  0.3890 -2.0504
  526SOL    HW2 2103   0.631   2.150   2.106  0.4289 -1.8136  0.8820
  526SOL     MW 2104   0.658   2.114   2.035  0.1679 -0.1592 -0.0288
  527SOL     OW 2105   1.372   2.013   2.017  0.0982 -0.2897  0.0968
  527SOL    HW1 2106   1.337   2.001   2.107 -1.3649  0.4489  1.7376
  527SOL    HW2 2107   1.368   1.927   1.980 -0.6838  1.3178  0.5621
  527SOL     MW 2108   1.367   2.000   2.024 -0.1980  0.0198  0.3747
  528SOL     OW 2109   0.622   2.882   2.935  0.0714 -0.5781  0.2881
  528SOL    HW1 2110   0.671   2.958   2.940  2.0106 -3.5245 -1.4953
  528SOL    HW2 2111   0.573   2.896   2.853 -0.4108 -0.0613  1.3173
  528SOL     MW 2112   0.622   2.894   2.925  0.2637 -0.8987  0.1886
  529SOL     OW 2113   1.010   2.333   1.871 -0.3128  0.1483  0.2494
  529SOL    HW1 2114   1.025   2.334   1.971  0.8089  1.6524  2.4467
  529SOL    HW2 2115   1.016   2.416   1.835 -0.3067 -0.3012 -1.2040
  529SOL     MW 2116   1.013   2.344   1.879 -0.1640  0.2875  0.3476
  530SOL     OW 2117   1.204   2.406   3.024 -0.2414  0.7567  0.3004
  530SOL    HW1 2118   1.180   2.410   3.122  0.5221  1.1985  1.6455
  530SOL    HW2 2119   1.239   2.317   3.005  1.6817  0.0901  2.3091
  530SOL     MW 2120   1.206   2.395   3.034  0.1131  0.7270  0.7429
  531SOL     OW 2121   0.944   1.891   2.573  0.4478 -0.0857 -0.0024
  531SOL    HW1 2122   0.981   1.968   2.617 -1.3609 -2.4654 -2.9437
  531SOL    HW2 2123   0.918   1.829   2.649  0.1210  0.6128 -0.0694
  531SOL     MW 2124   0.946   1.893   2.589  0.1660 -0.3075 -0.3993
  532SOL     OW 2125   1.741   0.313   2.789 -0.1343  0.2748 -0.1116
  532SOL    HW1 2126   1.734   0.218   2.784 -2.2611  1.3041 -0.5849
  532SOL    HW2 2127   1.832   0.332   2.779  0.6729  1.9085 -0.1473
  532SOL     MW 2128   1.752   0.303   2.787 -0.3084  0.6262 -0.1788
  533SOL     OW 2129   1.879   2.624   3.069 -0.1077 -0.0571 -0.3843
  533SOL    HW1 2130   1.862   2.551   3.140  1.7300  0.4583 -0.7087
  533SOL    HW2 2131   1.798   2.625   3.012 -1.9546  0.3671  1.4668
  533SOL     MW 2132   1.866   2.614   3.071 -0.1089  0.0669 -0.1829
  534SOL     OW 2133   1.773   2.433   2.512  0.1731  0.0065 -0.1876
  534SOL    HW1 2134   1.720   2.378   2.571 -0.0677  0.7917  2.0016
  534SOL    HW2 2135   1.855   2.448   2.566 -1.9353  1.3125  1.5268
  534SOL     MW 2136   1.777   2.428   2.527 -0.1368  0.2824  0.3275
  535SOL     OW 2137   1.926   2.368   1.893 -0.4592  0.6397  0.0932
  535SOL    HW1 2138   1.879   2.383   1.809 -0.8211  3.0322 -2.0029
  535SOL    HW2 2139   2.021   2.387   1.881  0.8842 -1.5869  0.5857
  535SOL     MW 2140   1.932   2.373   1.880 -0.3297  0.6616 -0.1184
  536SOL     OW 2141   0.462   1.834   2.077  0.2179 -0.0334 -0.1901
  536SOL    HW1 2142   0.426   1.773   2.012 -0.0932 -0.6350 -1.2437
  536SOL    HW2 2143   0.484   1.920   2.036  1.3572 -0.2732 -0.0198
  536SOL     MW 2144   0.460   1.837   2.063  0.3272 -0.1444 -0.3066
  537SOL     OW 2145   1.097   0.210   2.855 -0.1770 -0.0938 -0.0683
  537SOL    HW1 2146   1.024   0.245   2.901  0.2888 -0.2419  1.3988
  537SOL    HW2 2147   1.100   0.248   2.765 -0.8133 -1.3467 -0.0390
  537SOL     MW 2148   1.088   0.220   2.849 -0.1995 -0.2787  0.1291
  538SOL     OW 2149   1.382   0.045   3.068  0.2594  0.3760 -0.2914
  538SOL    HW1 2150   1.358   0.134   3.072  1.3754 -1.5097 -0.4907
  538SOL    HW2 2151   1.336   0.014   2.988 -0.5948 -0.1612  1.1280
  538SOL     MW 2152   1.372   0.052   3.058  0.2940  0.0563 -0.1304
  539SOL     OW 2153   0.769   2.767   2.564 -0.2705  0.0511  0.5816
  539SOL    HW1 2154   0.841   2.829   2.561 -0.6523 -0.4415  1.2606
  539SOL    HW2 2155   0.791   2.703   2.633  1.8932  1.8052 -0.9880
  539SOL     MW 2156   0.782   2.767   2.573 -0.0354  0.2175  0.4641
  540SOL     OW 2157   0.385   2.521   2.912 -0.3545  0.4556  0.1681
  540SOL    HW1 2158   0.345   2.569   2.985  0.0630  1.1546  0.2865
  540SOL    HW2 2159   0.351   2.437   2.922  0.2340 -0.0344 -0.3738
  540SOL     MW 2160   0.375   2.516   2.923 -0.2218  0.4832  0.1122
  541SOL     OW 2161   0.197   2.950   2.214 -0.2919  0.1087  0.1551
  541SOL    HW1 2162   0.181   2.867   2.166  0.9314  3.4236 -0.5078
  541SOL    HW2 2163   0.222   2.923   2.303 -1.4837  2.5744 -2.0717
  541SOL     MW 2164   0.198   2.935   2.219 -0.2878  0.8714 -0.2261
  542SOL     OW 2165   1.075   2.320   2.680  0.2863  0.0129  0.3417
  542SOL    HW1 2166   1.090   2.252   2.745 -0.1558  0.4037  0.2841
  542SOL    HW2 2167   1.095   2.403   2.721 -1.0463 -1.8007 -0.1165
  542SOL     MW 2168   1.080   2.322   2.694  0.0522 -0.1748  0.2736
  543SOL     OW 2169   1.670   2.458   2.841  0.2876 -0.1548 -0.2620
  543SOL    HW1 2170   1.621   2.412   2.776 -0.0755 -0.4854  1.5205
  543SOL    HW2 2171   1.685   2.552   2.817 -2.8848  0.8067 -2.9423
  543SOL     MW 2172   1.666   2.465   2.829 -0.1789 -0.0716 -0.3805
  544SOL     OW 2173   0.707   0.215   2.715  0.1853 -0.7172 -0.3356
  544SOL    HW1 2174   0.620   0.243   2.743  1.1092 -0.9701 -1.2325
  544SOL    HW2 2175   0.712   0.168   2.632 -0.7914 -0.6264 -1.3051
  544SOL     MW 2176   0.696   0.212   2.708  0.1783 -0.7386 -0.5819
  545SOL     OW 2177   1.497   2.180   2.384 -0.5066 -0.0884  0.7135
  545SOL    HW1 2178   1.481   2.265   2.340 -2.1706  0.5616 -1.7392
  545SOL    HW2 2179   1.585   2.137   2.344 -0.7407 -2.6011  0.8146
  545SOL     MW 2180   1.507   2.186   2.373 -0.7570 -0.3341  0.4032
  546SOL     OW 2181   2.905   2.013   0.093 -0.7988 -0.2498 -0.4802
  546SOL    HW1 2182   2.893   2.080   0.030 -0.6822 -0.7393  1.3688
  546SOL    HW2 2183   2.989   1.975   0.061 -1.2410 -0.8270 -0.3804
  546SOL     MW 2184   2.914   2.017   0.080 -0.8417 -0.3905 -0.2231
  547SOL     OW 2185   0.162   0.096   0.074 -0.3570 -0.2869  0.6482
  547SOL    HW1 2186   0.211   0.152   0.022 -0.2936  0.8877  1.3453
  547SOL    HW2 2187   0.113   0.039   0.012  1.6554  0.0971  0.5311
  547SOL     MW 2188   0.162   0.096   0.059 -0.0831 -0.0812  0.7247
  548SOL     OW 2189   0.309   2.513   0.298 -0.2186 -0.4373 -0.0581
  548SOL    HW1 2190   0.299   2.576   0.218  1.6119  2.7069 -1.3800
  548SOL    HW2 2191   0.233   2.459   0.282 -0.7359 -1.9777  0.8070
  548SOL     MW 2192   0.298   2.514   0.286 -0.0453 -0.2257 -0.1184
  549SOL     OW 2193   0.809   1.882   2.182  0.6250  0.0750  0.5776
  549SOL    HW1 2194   0.755   1.963   2.161 -2.0890 -0.2206 -0.1142
  549SOL    HW2 2195   0.778   1.858   2.272 -1.2199 -1.2774  1.2357
  549SOL     MW 2196   0.798   1.890   2.191  0.0235 -0.1425  0.5731
  550SOL     OW 2197   1.805   1.717   2.529 -0.1563 -0.7200  0.2420
  550SOL    HW1 2198   1.806   1.733   2.437  0.5650  0.4220  0.5421
  550SOL    HW2 2199   1.800   1.804   2.573  1.5546  1.0244 -0.9905
  550SOL     MW 2200   1.804   1.730   2.523  0.1646 -0.3391  0.1190
  551SOL     OW 2201   0.919   2.326   0.209 -0.0961  0.4667 -0.2150
  551SOL    HW1 2202   1.012   2.336   0.189 -2.1992 -1.1070 -0.0670
  551SOL    HW2 2203   0.887   2.244   0.177 -0.0775  2.0293  3.2391
  551SOL     MW 2204   0.927   2.317   0.202 -0.3711  0.4652  0.2603
  552SOL     OW 2205   1.766   1.770   2.258  0.3310  0.7936 -0.3751
  552SOL    HW1 2206   1.668   1.757   2.239 -1.9506  0.5805  0.8123
  552SOL    HW2 2207   1.820   1.713   2.208 -2.0707 -2.9867  2.2562
  552SOL     MW 2208   1.761   1.761   2.249 -0.2869  0.2667  0.1288
  553SOL     OW 2209   1.275   2.276   1.548  0.0516 -0.0735 -0.5714
  553SOL    HW1 2210   1.318   2.193   1.557 -1.1242 -0.3965  0.7466
  553SOL    HW2 2211   1.319   2.340   1.497 -1.7575 -2.1148 -0.1818
  553SOL     MW 2212   1.287   2.273   1.542 -0.3422 -0.3855 -0.3461
  554SOL     OW 2213   0.531   2.951   2.642 -0.2010 -0.2042  0.1828
  554SOL    HW1 2214   0.518   3.026   2.589  0.5397 -2.1307  1.0046
  554SOL    HW2 2215   0.617   2.910   2.621  1.2242  0.8120 -2.6289
  554SOL     MW 2216   0.541   2.955   2.632  0.0848 -0.3243 -0.0797
  555SOL     OW 2217   0.627   2.433   2.502 -0.2117 -0.2255 -0.0025
  555SOL    HW1 2218   0.594   2.354   2.543  2.4241 -0.8044  1.1286
  555SOL    HW2 2219   0.728   2.437   2.514  2.6818  1.0601  0.3961
  555SOL     MW 2220   0.636   2.423   2.509  0.5179 -0.1323  0.1993
  556SOL     OW 2221   0.995   1.887   0.094  0.4500  0.2533  0.1011
  556SOL    HW1 2222   1.020   1.870  -0.000  2.1541 -2.3318  0.5654
  556SOL    HW2 2223   1.079   1.885   0.133 -1.9503  0.7691 -1.6872
  556SOL     MW 2224   1.010   1.885   0.087  0.3581 -0.0198 -0.0736
  557SOL     OW 2225   0.960   2.624   0.504 -0.0170 -0.1930 -0.0260
  557SOL    HW1 2226   1.033   2.579   0.455 -0.5674  2.4853  1.7547
  557SOL    HW2 2227   0.950   2.705   0.457  0.3580 -1.0768  2.1959
  557SOL     MW 2228   0.968   2.629   0.491 -0.0401  0.0437  0.5021
  558SOL     OW 2229   0.204   2.306   2.995 -0.0121 -0.3086 -0.4815
  558SOL    HW1 2230   0.139   2.304   2.925 -0.3319  0.1711  1.0211
  558SOL    HW2 2231   0.171   2.357   3.063 -2.0910  0.7214 -0.6006
  558SOL     MW 2232   0.191   2.312   2.995 -0.3286 -0.1094 -0.2990
  559SOL     OW 2233   1.076   2.333   2.129 -0.5428 -0.1218  0.3145
  559SOL    HW1 2234   1.172   2.343   2.134 -0.2897 -2.6763 -3.0677
  559SOL    HW2 2235   1.038   2.264   2.183 -1.8553  2.6468  2.2187
  559SOL     MW 2236   1.084   2.325   2.137 -0.6825 -0.0935  0.1195
  560SOL     OW 2237   1.948   2.899   0.063 -0.3677  0.2716  0.4934
  560SOL    HW1 2238   2.026   2.919   0.013 -1.0266 -0.9853  0.3514
  560SOL    HW2 2239   1.925   2.812   0.030  0.1477 -1.7935  1.9053
  560SOL     MW 2240   1.955   2.890   0.052 -0.3866 -0.1667  0.6610
  561SOL     OW 2241   0.328   2.134   0.083  0.2972  0.1417  0.2150
  561SOL    HW1 2242   0.275   2.162   0.007 -2.3235 -2.1137  1.2465
  561SOL    HW2 2243   0.387   2.208   0.114 -0.3253  0.3985  2.3332
  561SOL     MW 2244   0.329   2.147   0.077 -0.1307 -0.1220  0.6306
  562SOL     OW 2245   0.696   2.230   2.290 -0.0700 -0.0672 -0.3084
  562SOL    HW1 2246   0.688   2.304   2.345  0.1098 -0.2871  0.2198
  562SOL    HW2 2247   0.781   2.193   2.327  1.1937 -2.5652 -1.1777
  562SOL     MW 2248   0.706   2.235   2.302  0.1205 -0.4258 -0.3534
  563SOL     OW 2249   1.243   0.417   0.567 -0.3675  0.4455 -0.3474
  563SOL    HW1 2250   1.196   0.355   0.513  0.0917  0.1484 -0.8299
  563SOL    HW2 2251   1.230   0.392   0.656  1.4168  2.5090 -0.2663
  563SOL     MW 2252   1.235   0.405   0.572 -0.0715  0.6786 -0.4003
  564SOL     OW 2253   1.155   2.623   2.373 -0.2892  0.2781 -0.0841
  564SOL    HW1 2254   1.145   2.680   2.298  1.2351 -0.2859  4.9683
  564SOL    HW2 2255   1.150   2.684   2.445 -1.6947  0.8401  2.1124
  564SOL     MW 2256   1.153   2.638   2.372 -0.2735  0.2779  0.8723
  565SOL     OW 2257   2.735   2.743   2.615 -0.3368  0.0059 -0.1456
  565SOL    HW1 2258   2.773   2.809   2.560  0.7940 -0.8646 -0.5221
  565SOL    HW2 2259   2.695   2.688   2.552  1.8667  0.3881 -0.4542
  565SOL     MW 2260   2.734   2.745   2.599  0.1032 -0.0585 -0.2360
  566SOL     OW 2261   2.123   1.856   2.432 -0.0944  0.1890 -0.0233
  566SOL    HW1 2262   2.141   1.832   2.342  0.4528  1.5425 -0.2947
  566SOL    HW2 2263   2.152   1.950   2.436 -0.2843  2.5927 -2.0362
  566SOL     MW 2264   2.129   1.865   2.421 -0.0472  0.6847 -0.3247
  567SOL     OW 2265   1.135   2.991   3.042  0.1363  0.7028 -0.4607
  567SOL    HW1 2266   1.180   3.029   3.116  1.1320  0.5549  0.7382
  567SOL    HW2 2267   1.176   2.906   3.027 -1.0588  3.9376  0.7731
  567SOL     MW 2268   1.146   2.985   3.050  0.1100  1.1101 -0.1397
  568SOL     OW 2269   1.622   2.070   2.897 -0.0981 -0.5155 -0.1463
  568SOL    HW1 2270   1.692   2.099   2.953  0.0888 -0.1823  1.6761
  568SOL    HW2 2271   1.666   2.037   2.815  0.5787 -0.1370 -2.7351
  568SOL     MW 2272   1.637   2.069   2.893  0.0159 -0.4216 -0.2474
  569SOL     OW 2273   0.172   2.287   2.509 -0.2037  0.7243 -0.2918
  569SOL    HW1 2274   0.094   2.328   2.472 -0.6878  1.5654  1.8987
  569SOL    HW2 2275   0.230   2.360   2.543  2.7699 -0.6210 -1.7447
  569SOL     MW 2276   0.170   2.302   2.509  0.1247  0.6578 -0.1945
  570SOL     OW 2277   1.504   0.348   0.539  0.3523 -0.0308 -0.4951
  570SOL    HW1 2278   1.423   0.396   0.563 -0.9720  1.2778  2.5269
  570SOL    HW2 2279   1.564   0.349   0.614  0.4883  2.6238 -0.9652
  570SOL     MW 2280   1.501   0.354   0.552  0.1955  0.4921 -0.1584
  571SOL     OW 2281   1.335   2.376   2.099 -0.0876 -0.2050  0.4763
  571SOL    HW1 2282   1.409   2.404   2.156  0.9989 -1.1413  0.3034
  571SOL    HW2 2283   1.387   2.309   2.048  1.8370 -0.2218 -1.6771
  571SOL     MW 2284   1.352   2.371   2.100  0.3097 -0.3308  0.1694
  572SOL     OW 2285   1.019   2.575   0.091 -1.2334 -0.6461 -0.0799
  572SOL    HW1 2286   1.010   2.669   0.061 -0.2472  0.0257 -0.3728
  572SOL    HW2 2287   0.936   2.533   0.085  2.1661 -0.2181  0.6856
  572SOL     MW 2288   1.007   2.582   0.086 -0.6547 -0.5010 -0.0176
  573SOL     OW 2289   1.204   2.311   0.195 -0.3717  0.4923 -0.0901
  573SOL    HW1 2290   1.297   2.288   0.190  0.2678  0.8108 -1.0651
  573SOL    HW2 2291   1.182   2.391   0.251 -0.6787 -4.3151  1.7500
  573SOL     MW 2292   1.213   2.319   0.201 -0.3279 -0.1000  0.0241
  574SOL     OW 2293   1.167   2.552   0.316 -0.5916 -0.2824 -0.6978
  574SOL    HW1 2294   1.253   2.607   0.338  1.4737 -0.2983 -0.7367
  574SOL    HW2 2295   1.121   2.594   0.242 -2.2944 -1.3178 -0.4251
  574SOL     MW 2296   1.172   2.565   0.309 -0.5437 -0.4211 -0.6669
  575SOL     OW 2297   3.040   2.219   1.748 -0.0926 -0.0813  0.0368
  575SOL    HW1 2298   3.067   2.135   1.701  0.4431  0.8751 -4.0113
  575SOL    HW2 2299   3.106   2.283   1.737 -0.8393 -2.6144 -1.0724
  575SOL     MW 2300   3.052   2.216   1.740 -0.1205 -0.2893 -0.6437
  576SOL     OW 2301   2.833   1.823   2.018  0.1763 -0.0631  0.0076
  576SOL    HW1 2302   2.871   1.900   1.975  2.0040  1.1430  0.7990
  576SOL    HW2 2303   2.738   1.820   2.011  3.5758  1.1800 -1.9632
  576SOL     MW 2304   2.825   1.833   2.012  0.8660  0.2600 -0.1480
  577SOL     OW 2305   2.079   0.235   0.109  0.0733 -0.2454  0.1562
  577SOL    HW1 2306   1.993   0.227   0.065  2.0972  1.0788 -2.1228
  577SOL    HW2 2307   2.053   0.173   0.182 -0.0589 -1.0286 -0.5181
  577SOL     MW 2308   2.064   0.225   0.113  0.3229 -0.1740 -0.2334
  578SOL     OW 2309   1.925   2.040   2.410 -0.5646 -0.4103  0.1622
  578SOL    HW1 2310   1.844   2.022   2.361  2.4501 -0.3413  1.6449
  578SOL    HW2 2311   1.966   1.955   2.413  0.7838  1.6258 -0.4763
  578SOL     MW 2312   1.920   2.026   2.404  0.0111 -0.1325  0.2736
  579SOL     OW 2313   0.931   2.428   2.459 -0.6034 -0.0040  0.1368
  579SOL    HW1 2314   0.989   2.383   2.529 -0.4531 -2.3759  1.4259
  579SOL    HW2 2315   0.982   2.476   2.405 -0.5243 -2.1799  0.2968
  579SOL     MW 2316   0.945   2.428   2.461 -0.5731 -0.6040  0.3280
  580SOL     OW 2317   0.934   2.842   0.030  0.7205  0.4568 -0.0383
  580SOL    HW1 2318   1.004   2.895  -0.005 -0.2270 -0.4298 -0.5214
  580SOL    HW2 2319   0.894   2.806  -0.049  0.4429 -0.4753 -0.6734
  580SOL     MW 2320   0.938   2.844   0.015  0.5588  0.2168 -0.1859
  581SOL     OW 2321   1.150   2.497   1.678  0.0302  0.2302  0.2503
  581SOL    HW1 2322   1.205   2.514   1.749  0.3315 -0.5405 -1.4778
  581SOL    HW2 2323   1.145   2.400   1.659 -1.3748 -0.7763 -2.7117
  581SOL     MW 2324   1.157   2.487   1.685 -0.1154 -0.0043 -0.3686
  582SOL     OW 2325   0.031   2.814   2.721  0.3968 -0.1752  0.6872
  582SOL    HW1 2326  -0.004   2.910   2.723  0.4460  0.1883  1.2684
  582SOL    HW2 2327   0.121   2.827   2.749  0.7095  0.9958 -0.5200
  582SOL     MW 2328   0.038   2.829   2.725  0.4446  0.0273  0.6046
  583SOL     OW 2329   1.998   2.435   2.688  0.1857 -0.3042  0.1980
  583SOL    HW1 2330   2.071   2.442   2.625 -0.8032  0.0640  1.2463
  583SOL    HW2 2331   1.987   2.346   2.706  3.0109  3.1030  1.1685
  583SOL     MW 2332   2.006   2.425   2.682  0.4280  0.1939  0.4643
  584SOL     OW 2333   0.055   1.899   2.222 -0.1890 -0.0112  0.1234
  584SOL    HW1 2334   0.094   1.860   2.301 -0.3401  0.0443  3.3631
  584SOL    HW2 2335   0.083   1.989   2.232  0.7699 -1.2777  2.4278
  584SOL     MW 2336   0.064   1.905   2.233 -0.0824 -0.1710  0.8549
  585SOL     OW 2337   1.567   2.587   0.186  0.3616  0.4592 -0.7111
  585SOL    HW1 2338   1.523   2.546   0.109 -1.4894  0.1262 -3.2000
  585SOL    HW2 2339   1.504   2.604   0.258 -0.0009  0.2268  2.9641
  585SOL     MW 2340   1.553   2.584   0.185  0.0695  0.3846 -0.5546
  586SOL     OW 2341   1.412   2.817   2.589 -0.6484  0.0488  0.0751
  586SOL    HW1 2342   1.446   2.783   2.508 -0.1920 -1.8876 -1.0775
  586SOL    HW2 2343   1.364   2.892   2.562 -0.5362  1.6849 -1.1950
  586SOL     MW 2344   1.410   2.823   2.575 -0.5734  0.0091 -0.2446
  587SOL     OW 2345   1.375   1.515   2.152 -0.1762 -0.3505 -0.1897
  587SOL    HW1 2346   1.326   1.459   2.214 -0.3740 -0.6670  0.7189
  587SOL    HW2 2347   1.428   1.461   2.093  1.3219 -0.3117 -1.0680
  587SOL     MW 2348   1.375   1.500   2.152 -0.0046 -0.3871 -0.1857
  588SOL     OW 2349   1.360   2.034   2.686  0.2454 -0.2433 -0.4948
  588SOL    HW1 2350   1.348   1.942   2.690 -1.5687  0.3575  0.8893
  588SOL    HW2 2351   1.353   2.068   2.777 -0.4996 -2.4037  1.3718
  588SOL     MW 2352   1.357   2.026   2.698 -0.0922 -0.4491 -0.0659
  589SOL     OW 2353   1.397   2.015   0.050  0.2998 -0.3113 -0.1899
  589SOL    HW1 2354   1.425   2.099   0.085 -0.2359  0.6923 -2.0712
  589SOL    HW2 2355   1.338   1.970   0.116  1.4761  1.8610 -0.5096
  589SOL     MW 2356   1.393   2.020   0.063  0.3843  0.1078 -0.4803
  590SOL     OW 2357   0.491   2.773   2.193  0.0257 -0.2864 -0.4450
  590SOL    HW1 2358   0.484   2.747   2.099 -2.0736  0.4558 -1.1454
  590SOL    HW2 2359   0.578   2.756   2.230 -0.1882  1.3678  1.0413
  590SOL     MW 2360   0.501   2.768   2.185 -0.2795  0.0298 -0.3413
  591SOL     OW 2361   2.267   0.676   0.029 -0.4313 -0.1901  0.5809
  591SOL    HW1 2362   2.212   0.747   0.005  0.1919 -1.0645 -2.9782
  591SOL    HW2 2363   2.334   0.675  -0.043 -1.8643  3.3830 -2.2379
  591SOL     MW 2364   2.269   0.686   0.016 -0.5382  0.1660 -0.2606
  592SOL     OW 2365   1.745   2.944   0.743 -0.1422 -0.2698 -0.0531
  592SOL    HW1 2366   1.743   3.008   0.672 -1.5701 -0.6529 -1.3390
  592SOL    HW2 2367   1.794   2.983   0.815  0.0685 -0.4545  2.1415
  592SOL     MW 2368   1.751   2.958   0.743 -0.3028 -0.3447  0.0668
  593SOL     OW 2369   1.955   0.680   0.845  0.1894  0.3979 -0.4344
  593SOL    HW1 2370   1.910   0.671   0.761 -0.2710  2.2590 -1.7527
  593SOL    HW2 2371   2.005   0.600   0.843 -0.0813 -0.2885 -1.4497
  593SOL     MW 2372   1.956   0.668   0.834  0.0929  0.5529 -0.7423
  594SOL     OW 2373   2.785   1.107   1.408 -0.0550 -0.4859  0.0109
  594SOL    HW1 2374   2.875   1.110   1.391  0.6222  0.1500 -0.4427
  594SOL    HW2 2375   2.749   1.044   1.344 -0.1185 -0.5916  0.2547
  594SOL     MW 2376   2.792   1.099   1.398  0.0260 -0.4160 -0.0168
  595SOL     OW 2377   0.470   0.935   0.831 -0.1013 -0.3600 -0.2598
  595SOL    HW1 2378   0.489   0.955   0.737 -1.0591 -0.1790  0.0887
  595SOL    HW2 2379   0.491   1.022   0.876 -1.0538 -1.3884  1.3642
  595SOL     MW 2380   0.475   0.949   0.824 -0.3533 -0.4718  0.0005
  596SOL     OW 2381   2.472   1.326   0.519  0.3948 -0.2749 -0.3785
  596SOL    HW1 2382   2.523   1.400   0.496  0.2383 -1.0154 -2.4100
  596SOL    HW2 2383   2.485   1.315   0.610 -2.5936 -1.1416 -2.2049
  596SOL     MW 2384   2.480   1.334   0.528 -0.0202 -0.4870 -0.8875
  597SOL     OW 2385   2.164   0.666   1.610  0.6216  0.0942  0.2526
  597SOL    HW1 2386   2.165   0.604   1.681 -1.9387 -0.9470  0.2661
  597SOL    HW2 2387   2.091   0.628   1.553 -2.6838 -2.3128 -1.1074
  597SOL     MW 2388   2.155   0.653   1.612 -0.1523 -0.3607  0.0750
  598SOL     OW 2389   2.574   1.050   2.851  0.2544  0.4488  0.2340
  598SOL    HW1 2390   2.572   0.960   2.829 -1.0703 -0.2850  3.3417
  598SOL    HW2 2391   2.665   1.069   2.875  1.1994  0.3512 -0.8578
  598SOL     MW 2392   2.585   1.041   2.851  0.2043  0.3391  0.5000
  599SOL     OW 2393   2.984   0.416   2.137  0.0722  0.4477  0.9281
  599SOL    HW1 2394   3.037   0.412   2.214  0.5325  1.3029 -0.8240
  599SOL    HW2 2395   3.007   0.497   2.090  0.0751  1.1564  2.9095
  599SOL     MW 2396   2.994   0.426   2.141  0.1333  0.6540  0.9583
  600SOL     OW 2397   1.841   1.626   0.900  0.7499 -0.0841  0.0651
  600SOL    HW1 2398   1.902   1.676   0.955 -0.2662 -0.8677  1.6579
  600SOL    HW2 2399   1.773   1.688   0.878 -0.0276 -0.7059 -1.2353
  600SOL     MW 2400   1.840   1.641   0.904  0.5132 -0.2695  0.1037
  601SOL     OW 2401   2.534   0.722   0.809  0.3938 -0.1257 -0.0578
  601SOL    HW1 2402   2.522   0.722   0.907 -0.3359  1.2658  0.6331
  601SOL    HW2 2403   2.454   0.670   0.777 -3.0979 -1.8931  1.8567
  601SOL     MW 2404   2.522   0.715   0.817 -0.1632 -0.1753  0.2859
  602SOL     OW 2405   2.313   1.933   0.768  0.1495 -0.1810 -0.1011
  602SOL    HW1 2406   2.284   1.841   0.747 -1.9182 -0.6237 -2.1670
  602SOL    HW2 2407   2.236   1.986   0.737 -4.0045  0.3084  3.9910
  602SOL     MW 2408   2.299   1.928   0.761 -0.6714 -0.1749  0.1662
  603SOL     OW 2409   2.990   1.382   1.965 -0.9018 -0.2911  0.7995
  603SOL    HW1 2410   3.069   1.427   1.979  0.3870 -2.7539 -0.0081
  603SOL    HW2 2411   3.005   1.294   1.998  2.4950  0.4949 -3.3429
  603SOL     MW 2412   3.003   1.376   1.971 -0.2836 -0.5124  0.1464
  604SOL     OW 2413   2.031   1.473   0.455 -0.5475 -0.1313 -0.6378
  604SOL    HW1 2414   2.085   1.391   0.489 -2.5181 -3.6729  0.2056
  604SOL    HW2 2415   2.000   1.519   0.532  2.6354 -1.1718  0.9787
  604SOL     MW 2416   2.034   1.469   0.470 -0.3876 -0.7358 -0.3133
  605SOL     OW 2417   2.515   1.478   0.889 -0.4663  0.4249  0.1831
  605SOL    HW1 2418   2.522   1.551   0.825  0.8885 -2.1145  1.7252
  605SOL    HW2 2419   2.526   1.402   0.835 -2.1823  1.7842 -3.0236
  605SOL     MW 2420   2.518   1.478   0.874 -0.5139  0.2692 -0.0366
  606SOL     OW 2421   2.554   1.806   1.980  0.3965  0.3089 -0.4928
  606SOL    HW1 2422   2.464   1.782   1.968  1.2819  1.1249 -0.4664
  606SOL    HW2 2423   2.592   1.725   1.944 -1.2749  1.2782 -2.8838
  606SOL     MW 2424   2.547   1.792   1.974  0.2928  0.5444 -0.8048
  607SOL     OW 2425   2.372   0.969   3.030 -0.2207  0.5532  0.0261
  607SOL    HW1 2426   2.439   1.017   2.986 -0.1403  0.9712 -2.1771
  607SOL    HW2 2427   2.404   0.958   3.122 -2.8041  1.5652  2.2865
  607SOL     MW 2428   2.385   0.974   3.036 -0.5510  0.7419  0.0337
  608SOL     OW 2429   1.841   0.253   0.535 -0.1003  0.2047 -0.1806
  608SOL    HW1 2430   1.847   0.317   0.468  1.2358  1.4951 -0.4818
  608SOL    HW2 2431   1.808   0.173   0.503  0.9628 -2.7836 -0.6185
  608SOL     MW 2432   1.837   0.251   0.522  0.2162 -0.0193 -0.2781
  609SOL     OW 2433   2.134   1.920   3.023  0.0568  0.3608  0.1975
  609SOL    HW1 2434   2.063   1.861   2.980  1.3800 -2.3897 -1.0639
  609SOL    HW2 2435   2.144   1.898   3.119 -0.0814  0.4362  1.7261
  609SOL     MW 2436   2.126   1.909   3.030  0.2132  0.0078  0.2327
  610SOL     OW 2437   1.797   0.947   1.236 -0.5932  0.1473 -0.1104
  610SOL    HW1 2438   1.804   0.860   1.193  0.4113 -0.0515 -1.8790
  610SOL    HW2 2439   1.702   0.968   1.239  2.1895 -1.1238  2.3402
  610SOL     MW 2440   1.786   0.938   1.231 -0.0935 -0.0466 -0.0204
  611SOL     OW 2441   2.478   1.658   0.693 -0.3937  0.0476  0.2855
  611SOL    HW1 2442   2.535   1.667   0.618 -0.8128  0.4814 -2.5553
  611SOL    HW2 2443   2.387   1.658   0.660 -1.0667 -0.9602  0.5917
  611SOL     MW 2444   2.473   1.659   0.679 -0.5378 -0.0282 -0.0489
  612SOL     OW 2445   2.848   2.947   0.378  0.3225  0.1102 -0.8160
  612SOL    HW1 2446   2.904   2.959   0.460  1.0074  0.0480  1.6768
  612SOL    HW2 2447   2.918   2.908   0.329  0.6367  2.3409  1.6919
  612SOL     MW 2448   2.865   2.943   0.382  0.4543  0.3963 -0.1562
  613SOL     OW 2449   1.479   1.041   0.941  0.5339  0.1892  0.4194
  613SOL    HW1 2450   1.510   1.126   0.960  0.9910 -0.4420  1.4875
  613SOL    HW2 2451   1.506   0.996   1.018 -1.5020 -1.9288 -2.2666
  613SOL     MW 2452   1.487   1.046   0.954  0.3256 -0.1736  0.2059
  614SOL     OW 2453   2.003   0.510   1.468 -0.2084  0.2163 -0.8879
  614SOL    HW1 2454   2.002   0.434   1.537  1.4914 -2.3412 -2.8453
  614SOL    HW2 2455   1.922   0.499   1.413  1.3692 -0.3070 -2.3780
  614SOL     MW 2456   1.992   0.498   1.470  0.2240 -0.1902 -1.3428
  615SOL     OW 2457   2.387   0.723   0.292  0.5647  0.1411  0.2464
  615SOL    HW1 2458   2.451   0.657   0.325  2.0302 -2.5501  0.4927
  615SOL    HW2 2459   2.355   0.691   0.201 -1.3993  0.6810 -1.2553
  615SOL     MW 2460   2.391   0.710   0.284  0.4989 -0.1427  0.0808
  616SOL     OW 2461   2.502   0.453   1.638 -0.0862  0.0838 -0.6143
  616SOL    HW1 2462   2.536   0.373   1.593 -0.7991 -0.5173 -3.1610
  616SOL    HW2 2463   2.478   0.509   1.568  1.1677 -0.4303  0.8019
  616SOL     MW 2464   2.503   0.449   1.623 -0.0148 -0.0633 -0.7635
  617SOL     OW 2465   2.847   0.615   1.726  0.4497  0.4099  0.4592
  617SOL    HW1 2466   2.759   0.629   1.764 -1.6509  1.2461  0.4693
  617SOL    HW2 2467   2.855   0.522   1.731 -1.9996  1.5909  3.0692
  617SOL     MW 2468   2.837   0.605   1.732 -0.1506  0.6761  0.8049
  618SOL     OW 2469   2.723   0.374   2.020 -0.0988 -0.2536 -0.0335
  618SOL    HW1 2470   2.708   0.458   1.976  0.2011 -3.7898  0.9666
  618SOL    HW2 2471   2.785   0.394   2.090 -0.6233 -1.0148  1.1341
  618SOL     MW 2472   2.730   0.387   2.023 -0.1284 -0.8206  0.2525
  619SOL     OW 2473   2.639   0.704   0.074 -0.5406 -0.3020  0.3136
  619SOL    HW1 2474   2.656   0.802   0.082 -0.0644  1.0466 -2.1384
  619SOL    HW2 2475   2.606   0.665   0.153  1.2812  2.4230  0.1209
  619SOL     MW 2476   2.637   0.712   0.086 -0.2374  0.2355 -0.0353
  620SOL     OW 2477   2.251   1.088   0.930 -0.0099 -0.1188 -0.5154
  620SOL    HW1 2478   2.322   1.053   0.872  2.5909  2.4607  1.5479
  620SOL    HW2 2479   2.171   1.053   0.897  0.4101 -0.9125  0.0066
  620SOL     MW 2480   2.250   1.078   0.918  0.3887  0.1168 -0.1743
  621SOL     OW 2481   1.513   2.234   1.948 -0.9305 -0.2150  0.3372
  621SOL    HW1 2482   1.473   2.152   1.971 -2.9750 -0.5371 -0.6003
  621SOL    HW2 2483   1.609   2.226   1.960 -0.3683 -0.9692 -2.2686
  621SOL     MW 2484   1.520   2.222   1.952 -1.1261 -0.3570 -0.1303
  622SOL     OW 2485   2.621   0.246   0.276 -0.3008  0.2312  0.5102
  622SOL    HW1 2486   2.716   0.271   0.292  0.8749 -1.5086  0.1831
  622SOL    HW2 2487   2.615   0.163   0.322  0.1142  0.3104 -0.3518
  622SOL     MW 2488   2.633   0.238   0.284 -0.0910  0.0121  0.3533
  623SOL     OW 2489   2.437   2.740   0.876 -0.0428 -0.3292  0.2716
  623SOL    HW1 2490   2.506   2.802   0.871 -2.8358 -1.3281 -0.0162
  623SOL    HW2 2491   2.367   2.777   0.921  0.3753 -0.1934 -2.2650
  623SOL     MW 2492   2.437   2.753   0.882 -0.3561 -0.4431 -0.1010
  624SOL     OW 2493   2.132   1.607   3.039  0.1675 -0.4935  0.6176
  624SOL    HW1 2494   2.074   1.533   3.053  0.0386  2.9067 -3.4803
  624SOL    HW2 2495   2.082   1.661   2.978  0.7261  2.6855 -1.6584
  624SOL     MW 2496   2.118   1.605   3.032  0.2242  0.3746 -0.2234
  625SOL     OW 2497   2.243   1.912   1.099  0.5949 -0.6737 -0.3653
  625SOL    HW1 2498   2.328   1.872   1.131  1.4821 -0.1315 -1.7750
  625SOL    HW2 2499   2.270   1.927   1.008 -0.3232 -1.6183  0.2630
  625SOL     MW 2500   2.258   1.909   1.091  0.5908 -0.7268 -0.4684
  626SOL     OW 2501   0.216   1.801   2.449 -0.4522  0.5633 -0.5260
  626SOL    HW1 2502   0.166   1.734   2.494 -1.6429  2.6597 -0.0807
  626SOL    HW2 2503   0.165   1.883   2.477 -3.3111 -1.2500 -2.7052
  626SOL     MW 2504   0.203   1.803   2.458 -0.9865  0.6007 -0.7548
  627SOL     OW 2505   2.537   0.787   2.568  0.0081  0.3257 -0.1904
  627SOL    HW1 2506   2.460   0.836   2.590  0.0458 -0.7100 -0.5583
  627SOL    HW2 2507   2.535   0.775   2.474 -1.0018  0.5858  1.4021
  627SOL     MW 2508   2.527   0.792   2.559 -0.1201  0.2234 -0.0288
  628SOL     OW 2509   2.237   1.364   1.339 -0.5648  0.3269  0.6851
  628SOL    HW1 2510   2.201   1.284   1.306 -1.4481 -0.6673  1.4341
  628SOL    HW2 2511   2.296   1.387   1.268  1.5855  0.0348 -0.5310
  628SOL     MW 2512   2.240   1.356   1.325 -0.3976  0.1572  0.6235
  629SOL     OW 2513   1.795   0.467   1.287 -0.9204  0.3446  0.5258
  629SOL    HW1 2514   1.808   0.539   1.218  1.3122  0.3699 -2.9697
  629SOL    HW2 2515   1.725   0.409   1.254 -1.1105 -1.0935 -0.0552
  629SOL     MW 2516   1.788   0.469   1.274 -0.6509  0.1582 -0.0120
  630SOL     OW 2517   2.424   1.860   2.989  0.0839  0.0661 -0.0889
  630SOL    HW1 2518   2.421   1.959   2.965 -0.0631  1.7708 -1.9973
  630SOL    HW2 2519   2.335   1.820   2.985  0.3286 -0.4710  1.5926
  630SOL     MW 2520   2.412   1.868   2.985  0.0968  0.2202 -0.1188
  631SOL     OW 2521   2.061   1.667   1.540  0.3478 -0.4841 -0.0386
  631SOL    HW1 2522   2.071   1.597   1.612 -0.7879  0.1417  1.1602
  631SOL    HW2 2523   1.994   1.739   1.567 -0.8168  0.6590 -3.8591
  631SOL     MW 2524   2.053   1.667   1.553  0.0443 -0.2507 -0.3845
  632SOL     OW 2525   0.251   1.944   1.494  0.1205 -0.1391  0.3897
  632SOL    HW1 2526   0.165   1.944   1.552 -0.1166  0.1216 -0.8777
  632SOL    HW2 2527   0.272   1.847   1.492 -0.3956 -0.5631  0.1249
  632SOL     MW 2528   0.243   1.931   1.502  0.0211 -0.1606  0.1876
  633SOL     OW 2529   2.611   0.536   0.286  1.1212  0.3230 -0.1475
  633SOL    HW1 2530   2.631   0.514   0.378 -2.9830  0.5275 -0.9896
  633SOL    HW2 2531   2.565   0.454   0.256 -2.7880 -0.8296  0.8353
  633SOL     MW 2532   2.608   0.522   0.294  0.0639  0.1979 -0.1289
  634SOL     OW 2533   2.694   3.047   0.628 -0.4336  0.4258 -0.4617
  634SOL    HW1 2534   2.710   3.139   0.620 -0.5145 -2.4379  0.7512
  634SOL    HW2 2535   2.663   3.024   0.538 -0.4077 -0.6181 -0.7791
  634SOL     MW 2536   2.692   3.056   0.615 -0.4408 -0.0898 -0.3435
  635SOL     OW 2537   2.592   0.127   1.850  0.6672  0.0009  0.1692
  635SOL    HW1 2538   2.661   0.073   1.809  1.1288 -0.3225 -1.3448
  635SOL    HW2 2539   2.624   0.205   1.892  0.6427  3.2255  1.0348
  635SOL     MW 2540   2.605   0.130   1.850  0.7249  0.3837  0.0837
  636SOL     OW 2541   2.774   1.617   0.871 -0.4578 -0.3301 -0.0481
  636SOL    HW1 2542   2.696   1.581   0.910  2.9010  0.2524  2.0176
  636SOL    HW2 2543   2.774   1.712   0.893  0.0446  1.1676 -2.9460
  636SOL     MW 2544   2.763   1.625   0.879  0.0517 -0.0556 -0.1579
  637SOL     OW 2545   2.886   1.538   0.632 -0.1801  0.4853  0.2519
  637SOL    HW1 2546   2.927   1.626   0.617  1.3951  1.0029 -0.9865
  637SOL    HW2 2547   2.840   1.555   0.714  0.9988 -1.8770 -0.0739
  637SOL     MW 2548   2.885   1.552   0.641  0.1832  0.2419  0.0455
  638SOL     OW 2549   2.711   0.510   0.535  0.3795 -0.0488 -0.4844
  638SOL    HW1 2550   2.803   0.511   0.504  0.4872  0.9119  0.1779
  638SOL    HW2 2551   2.704   0.489   0.631  0.1222 -1.4798  0.6804
  638SOL     MW 2552   2.722   0.507   0.543  0.3598 -0.1109 -0.2433
  639SOL     OW 2553   1.764   3.097   0.532 -0.2500  0.0860 -0.0337
  639SOL    HW1 2554   1.665   3.094   0.528  1.4504 -1.8182  2.2023
  639SOL    HW2 2555   1.780   3.003   0.500 -0.9217 -1.5798  0.5176
  639SOL     MW 2556   1.753   3.085   0.528 -0.1143 -0.3850  0.3341
  640SOL     OW 2557   0.336   1.341   0.076  0.5645  0.3888 -0.4985
  640SOL    HW1 2558   0.377   1.303  -0.005  2.2961  0.6430 -0.2324
  640SOL    HW2 2559   0.292   1.268   0.124  0.3114  1.4416  3.2813
  640SOL     MW 2560   0.336   1.326   0.072  0.7596  0.5612  0.0353
  641SOL     OW 2561   2.218   0.429   0.379 -0.0648 -0.2262 -0.4701
  641SOL    HW1 2562   2.223   0.432   0.285 -1.0412  1.0745 -2.3457
  641SOL    HW2 2563   2.261   0.350   0.394  0.6902  1.3162 -3.4659
  641SOL     MW 2564   2.224   0.419   0.369 -0.0940  0.1489 -1.1128
  642SOL     OW 2565   0.087   0.035   0.492  0.1724 -0.1645  0.0635
  642SOL    HW1 2566   0.029   0.109   0.531  1.1082 -1.7041 -0.1372
  642SOL    HW2 2567   0.023  -0.034   0.515 -2.6836 -0.0831  0.9603
  642SOL     MW 2568   0.071   0.036   0.500 -0.0810 -0.3569  0.1553
  643SOL     OW 2569   2.042   0.321   1.706  0.4978  0.1145  0.2124
  643SOL    HW1 2570   1.979   0.308   1.775  2.4788  0.6039 -0.8008
  643SOL    HW2 2571   2.005   0.261   1.636 -0.6275  0.9314 -1.7313
  643SOL     MW 2572   2.029   0.311   1.706  0.6107  0.2868 -0.1777
  644SOL     OW 2573   2.679   1.837   0.985 -0.1915  0.3191  0.1214
  644SOL    HW1 2574   2.661   1.780   1.059  1.4588  1.5224 -1.4411
  644SOL    HW2 2575   2.599   1.875   0.960  0.5129  0.7339 -0.6632
  644SOL     MW 2576   2.666   1.834   0.991  0.1192  0.5326 -0.1883
  645SOL     OW 2577   2.848   0.809   0.757  0.1514 -0.3536 -0.0670
  645SOL    HW1 2578   2.934   0.785   0.735 -1.8022  0.4755 -0.6253
  645SOL    HW2 2579   2.804   0.727   0.734 -1.5416  1.9458 -0.9595
  645SOL     MW 2580   2.854   0.795   0.751 -0.3297  0.0591 -0.2584
  646SOL     OW 2581   0.064   2.314   0.830 -0.0128 -0.0673 -0.2797
  646SOL    HW1 2582   0.116   2.233   0.829  0.8419  0.9605 -2.1211
  646SOL    HW2 2583   0.028   2.335   0.738  0.0669 -0.3428 -1.1332
  646SOL     MW 2584   0.066   2.306   0.818  0.1105  0.0320 -0.6353
  647SOL     OW 2585   2.707   0.500   2.996  0.0285  0.1295  0.1596
  647SOL    HW1 2586   2.642   0.437   3.021 -1.0958  1.6449  1.2830
  647SOL    HW2 2587   2.716   0.559   3.070  0.5086  0.2079  0.2769
  647SOL     MW 2588   2.700   0.500   3.009 -0.0565  0.3398  0.3233
  648SOL     OW 2589   2.258   0.744   1.125  0.0716 -0.2083 -0.5108
  648SOL    HW1 2590   2.169   0.706   1.119 -0.4629 -0.4554  2.0780
  648SOL    HW2 2591   2.255   0.797   1.202 -0.0328  1.1900 -1.6988
  648SOL     MW 2592   2.246   0.746   1.134 -0.0127 -0.0564 -0.3260
  649SOL     OW 2593   2.418   2.717   1.290  0.3359  0.5938 -0.7276
  649SOL    HW1 2594   2.500   2.764   1.297 -0.6992  2.3394 -2.8286
  649SOL    HW2 2595   2.435   2.619   1.287  0.4446 -2.0023  1.3483
  649SOL     MW 2596   2.431   2.710   1.291  0.2137  0.4816 -0.7309
  650SOL     OW 2597   2.771   0.207   0.637  0.0084 -0.8151  0.1725
  650SOL    HW1 2598   2.767   0.235   0.727 -2.9192  2.2199 -1.4612
  650SOL    HW2 2599   2.860   0.234   0.603 -0.0233  0.4067 -0.1942
  650SOL     MW 2600   2.782   0.214   0.644 -0.3820 -0.2535 -0.0914
  651SOL     OW 2601   0.006   0.452   0.997 -0.0898  0.2162 -0.0807
  651SOL    HW1 2602   0.081   0.474   0.935 -0.4300 -1.0331  1.2191
  651SOL    HW2 2603  -0.057   0.521   0.984 -2.6556 -2.1206  0.6319
  651SOL     MW 2604   0.008   0.464   0.987 -0.4733 -0.2569  0.1848
  652SOL     OW 2605   2.385   1.450   3.016 -0.4299 -0.4169 -0.6830
  652SOL    HW1 2606   2.454   1.476   2.957  0.4566 -2.0410  1.2257
  652SOL    HW2 2607   2.328   1.522   3.014  2.6847 -2.4926 -0.3706
  652SOL     MW 2608   2.387   1.463   3.008  0.0980 -0.9051 -0.3899
  653SOL     OW 2609   1.808   0.428   0.321 -0.5664  0.0493 -0.0118
  653SOL    HW1 2610   1.768   0.346   0.288 -0.7948 -1.3707 -2.2918
  653SOL    HW2 2611   1.854   0.454   0.241 -0.4215 -1.1368 -0.4595
  653SOL     MW 2612   1.809   0.421   0.306 -0.5774 -0.2946 -0.3717
  654SOL     OW 2613   2.434   0.977   0.746 -0.1714 -0.4332  0.3558
  654SOL    HW1 2614   2.377   0.963   0.666  0.0186 -0.0457 -1.6454
  654SOL    HW2 2615   2.467   0.883   0.779 -2.1248 -1.0313 -0.8706
  654SOL     MW 2616   2.431   0.963   0.740 -0.4040 -0.4610 -0.0700
  655SOL     OW 2617   2.884   0.869   0.392  0.1277  0.4839  0.0356
  655SOL    HW1 2618   2.890   0.911   0.476  2.0370  0.5699 -2.0294
  655SOL    HW2 2619   2.879   0.777   0.411 -0.6359  2.2164  0.1626
  655SOL     MW 2620   2.884   0.862   0.406  0.2789  0.7239 -0.2201
  656SOL     OW 2621   1.779   2.641   1.374 -0.3315 -0.1398 -0.0321
  656SOL    HW1 2622   1.798   2.731   1.349  0.4157  0.2981  0.2430
  656SOL    HW2 2623   1.842   2.591   1.324 -0.9253  1.3736 -0.1648
  656SOL     MW 2624   1.790   2.647   1.364 -0.3112  0.1177 -0.0133
  657SOL     OW 2625   0.115   1.749   1.154  0.1857  0.4207  0.4393
  657SOL    HW1 2626   0.194   1.782   1.112 -1.4734  0.1090  2.9311
  657SOL    HW2 2627   0.130   1.656   1.164  0.9741  0.1323  0.4599
  657SOL     MW 2628   0.127   1.741   1.150  0.0708  0.3415  0.7708
  658SOL     OW 2629   2.670   1.321   0.236  0.6788  0.3102  0.4929
  658SOL    HW1 2630   2.656   1.250   0.299  2.1414  2.1823 -1.7175
  658SOL    HW2 2631   2.686   1.393   0.300 -0.4169  2.3403 -1.1068
  658SOL     MW 2632   2.670   1.321   0.253  0.7272  0.8251 -0.0098
  659SOL     OW 2633   2.205   1.553   1.002 -0.2464 -0.0627 -0.1161
  659SOL    HW1 2634   2.296   1.565   0.974 -0.6935 -0.4889  1.9109
  659SOL    HW2 2635   2.179   1.624   1.053  0.5817 -3.3465 -0.6238
  659SOL     MW 2636   2.214   1.564   1.005 -0.1962 -0.5522  0.0844
  660SOL     OW 2637   2.099   1.462   1.707  0.3907  0.1422 -0.4921
  660SOL    HW1 2638   2.094   1.475   1.803 -2.2561  0.3589  2.0469
  660SOL    HW2 2639   2.015   1.416   1.682 -2.0466  0.9569 -1.1369
  660SOL     MW 2640   2.087   1.458   1.716 -0.2801  0.2783 -0.2421
  661SOL     OW 2641   2.468   0.973   0.201 -0.8966 -0.1573 -0.1206
  661SOL    HW1 2642   2.526   1.020   0.264 -0.1007 -0.2835  3.4891
  661SOL    HW2 2643   2.463   0.881   0.235  3.1050 -3.8312  0.6393
  661SOL     MW 2644   2.475   0.967   0.214 -0.2636 -0.6587  0.4559
  662SOL     OW 2645   2.600   2.967   0.853  0.1573 -0.2198 -0.0960
  662SOL    HW1 2646   2.546   3.045   0.880 -1.0174  0.4215 -0.2892
  662SOL    HW2 2647   2.622   2.984   0.758 -0.4669  2.4206  0.3241
  662SOL     MW 2648   2.596   2.979   0.844 -0.0800  0.2132 -0.0660
  663SOL     OW 2649   2.685   1.492   0.453  0.3077  0.3170 -0.5452
  663SOL    HW1 2650   2.644   1.578   0.434 -1.0504  3.7213  1.8463
  663SOL    HW2 2651   2.762   1.511   0.512 -0.2856  1.8569  2.8747
  663SOL     MW 2652   2.690   1.506   0.458  0.0503  0.9693  0.2216
  664SOL     OW 2653   2.553   1.500   1.626 -0.6650  0.6177 -0.1217
  664SOL    HW1 2654   2.535   1.567   1.565 -0.1655  0.7031  2.8275
  664SOL    HW2 2655   2.484   1.443   1.618  3.1107  0.0601  2.2856
  664SOL     MW 2656   2.542   1.501   1.617 -0.1009  0.5554  0.5850
  665SOL     OW 2657   2.775   0.771   2.103  0.1426 -0.0080 -0.5917
  665SOL    HW1 2658   2.773   0.821   2.017  1.6239  0.7468 -0.1500
  665SOL    HW2 2659   2.858   0.726   2.109 -1.5898 -0.0664  2.6799
  665SOL     MW 2660   2.785   0.772   2.092  0.1095  0.0839 -0.1018
  666SOL     OW 2661   2.773   3.052   1.715 -0.0278  0.0421  0.0575
  666SOL    HW1 2662   2.807   3.068   1.625  1.1629 -4.3449  0.7011
  666SOL    HW2 2663   2.710   2.980   1.708  1.1790 -0.0990 -1.6773
  666SOL     MW 2664   2.769   3.045   1.702  0.2885 -0.5553 -0.0865
  667SOL     OW 2665   1.997   2.705   1.724 -0.4242 -0.0605  0.7250
  667SOL    HW1 2666   2.016   2.660   1.806  2.2999 -3.7351 -0.8304
  667SOL    HW2 2667   2.068   2.770   1.720  0.9924  1.3267  0.6413
  667SOL     MW 2668   2.009   2.708   1.734  0.1221 -0.3623  0.5088
  668SOL     OW 2669   2.730   0.529   0.806  0.2545  0.1366  0.4855
  668SOL    HW1 2670   2.780   0.569   0.886  1.8735  1.1919 -0.2273
  668SOL    HW2 2671   2.653   0.587   0.789  3.6710  0.8456 -0.7338
  668SOL     MW 2672   2.726   0.542   0.814  0.9189  0.3694  0.2306
  669SOL     OW 2673   0.147   0.879   0.787  0.3391 -0.4615  0.4027
  669SOL    HW1 2674   0.156   0.976   0.778  0.8395  1.7318 -2.9528
  669SOL    HW2 2675   0.182   0.840   0.867  1.9772  1.5638 -0.0171
  669SOL     MW 2676   0.153   0.887   0.796  0.6212  0.0951 -0.0954
  670SOL     OW 2677   2.903   0.321   0.246  0.1134  0.2630  0.6763
  670SOL    HW1 2678   2.926   0.256   0.174 -0.1450 -1.2223  1.0884
  670SOL    HW2 2679   2.914   0.406   0.202  1.8629  0.6529 -1.3355
  670SOL     MW 2680   2.908   0.323   0.231  0.3101  0.1184  0.4652
  671SOL     OW 2681   2.006   3.026   1.563  0.0332 -0.2604 -0.0189
  671SOL    HW1 2682   1.963   2.969   1.501 -0.9942 -2.3551  0.6743
  671SOL    HW2 2683   1.945   3.045   1.637 -0.2988 -1.9832 -0.2450
  671SOL     MW 2684   1.992   3.021   1.564 -0.1461 -0.7641  0.0428
  672SOL     OW 2685   1.824   1.693   1.275 -0.6679  0.2114  0.1108
  672SOL    HW1 2686   1.831   1.741   1.356  0.4729 -2.9926 -0.9129
  672SOL    HW2 2687   1.873   1.739   1.207 -1.2445  0.8374 -0.7487
  672SOL     MW 2688   1.832   1.705   1.277 -0.5935 -0.1287 -0.1377
  673SOL     OW 2689   2.743   1.070   0.634 -0.0323 -0.2264 -0.4106
  673SOL    HW1 2690   2.748   0.989   0.680 -1.4834 -0.7890  0.0325
  673SOL    HW2 2691   2.818   1.123   0.648 -2.1577 -1.7195 -4.0796
  673SOL     MW 2692   2.753   1.066   0.642 -0.5042 -0.4976 -0.8362
  674SOL     OW 2693   2.462   3.087   1.288 -0.2651 -0.2694 -0.2840
  674SOL    HW1 2694   2.418   3.078   1.201  1.0891  0.4623 -2.3048
  674SOL    HW2 2695   2.518   3.010   1.293  0.8160 -0.5397 -1.2944
  674SOL     MW 2696   2.464   3.076   1.277  0.0562 -0.2085 -0.6839
  675SOL     OW 2697   2.935   0.908   1.026 -0.5947  0.2911  0.2943
  675SOL    HW1 2698   3.020   0.886   1.072  0.3137  1.9101 -0.5874
  675SOL    HW2 2699   2.956   0.987   0.968  0.2616  0.3770 -1.7740
  675SOL     MW 2700   2.949   0.915   1.025 -0.3619  0.5161 -0.0949
  676SOL     OW 2701   2.955   1.416   1.702 -0.1647  0.2262 -0.0678
  676SOL    HW1 2702   2.869   1.380   1.659 -1.7099 -2.1745 -0.0020
  676SOL    HW2 2703   2.964   1.387   1.794  2.1656 -3.3752 -2.6061
  676SOL     MW 2704   2.945   1.407   1.709 -0.0611 -0.5657 -0.3940
  677SOL     OW 2705   2.351   0.542   2.032  0.0035 -0.4073 -0.4080
  677SOL    HW1 2706   2.315   0.523   1.939  2.2974 -0.6748  1.1675
  677SOL    HW2 2707   2.351   0.640   2.035  0.0450  1.0627  0.0353
  677SOL     MW 2708   2.346   0.553   2.020  0.3116 -0.2486 -0.1417
  678SOL     OW 2709   2.465   1.661   0.321  0.6202 -0.1683 -0.2785
  678SOL    HW1 2710   2.374   1.666   0.351 -0.2848 -1.0139 -2.1543
  678SOL    HW2 2711   2.449   1.588   0.263 -2.3823 -0.7855 -0.7985
  678SOL     MW 2712   2.451   1.652   0.317  0.1047 -0.3613 -0.5946
  679SOL     OW 2713   2.229   0.475   1.289  0.1742 -0.3586 -0.5530
  679SOL    HW1 2714   2.220   0.385   1.265 -2.4339 -0.3048  2.6731
  679SOL    HW2 2715   2.158   0.494   1.351  1.2798  0.0404  0.9391
  679SOL     MW 2716   2.218   0.466   1.294 -0.0241 -0.2988  0.0695
  680SOL     OW 2717   2.320   0.168   1.497 -0.0465 -0.1163  0.2422
  680SOL    HW1 2718   2.223   0.182   1.506 -0.1530 -1.6996  1.0774
  680SOL    HW2 2719   2.343   0.109   1.433  1.7193  2.8314 -2.3519
  680SOL     MW 2720   2.311   0.162   1.490  0.1724  0.0637  0.0101
  681SOL     OW 2721   0.242   0.561   1.560 -0.3181 -0.3891 -0.7439
  681SOL    HW1 2722   0.196   0.513   1.637  0.4615  1.7608 -1.0768
  681SOL    HW2 2723   0.275   0.493   1.502 -1.7699 -2.2478 -1.4300
  681SOL     MW 2724   0.240   0.545   1.563 -0.4068 -0.3507 -0.8783
  682SOL     OW 2725   0.168   2.829   1.542  0.4178  0.5968  0.1931
  682SOL    HW1 2726   0.237   2.895   1.553 -0.0493  2.2181  1.1188
  682SOL    HW2 2727   0.086   2.885   1.542 -1.8753 -1.4039  2.1101
  682SOL     MW 2728   0.166   2.845   1.544  0.0536  0.5467  0.5682
  683SOL     OW 2729   2.092   0.838   2.978  0.7262 -0.3525  0.1143
  683SOL    HW1 2730   2.036   0.762   2.993 -1.8523  1.7504 -0.8684
  683SOL    HW2 2731   2.055   0.920   3.018  0.0054  2.7889  0.0007
  683SOL     MW 2732   2.080   0.839   2.985  0.2909  0.3394 -0.0304
  684SOL     OW 2733   2.193   1.693   0.693 -0.3538  0.0002  0.1711
  684SOL    HW1 2734   2.180   1.717   0.595  0.2135  1.7895  0.1304
  684SOL    HW2 2735   2.111   1.650   0.712  0.4190  0.3222 -0.4364
  684SOL     MW 2736   2.180   1.690   0.683 -0.1770  0.2787  0.0856
  685SOL     OW 2737   2.710   1.669   1.200  0.2000 -0.1783 -0.1076
  685SOL    HW1 2738   2.765   1.718   1.254  0.0049  0.8029 -3.1315
  685SOL    HW2 2739   2.693   1.585   1.244 -0.5999 -1.0771  1.4725
  685SOL     MW 2740   2.715   1.664   1.213  0.0687 -0.1674 -0.2981
  686SOL     OW 2741   2.861   0.732   1.478  0.0705  0.1860  0.6767
  686SOL    HW1 2742   2.857   0.674   1.562 -0.7894 -2.7213 -0.8901
  686SOL    HW2 2743   2.953   0.762   1.470  3.4058 -0.1064 -0.8235
  686SOL     MW 2744   2.872   0.728   1.488  0.3971 -0.2362  0.2720
  687SOL     OW 2745   2.134   0.159   1.208 -0.3217 -0.4234 -0.9815
  687SOL    HW1 2746   2.204   0.142   1.143 -0.4730  1.3884  0.3489
  687SOL    HW2 2747   2.057   0.197   1.155  1.3204  0.4265 -0.8940
  687SOL     MW 2748   2.133   0.162   1.193 -0.1250 -0.0722 -0.7945
  688SOL     OW 2749   2.397   0.627   1.433  0.2666 -0.0354 -0.0869
  688SOL    HW1 2750   2.364   0.579   1.358 -1.7454  1.0632  3.2925
  688SOL    HW2 2751   2.319   0.631   1.487  1.4970  1.7033  0.0856
  688SOL     MW 2752   2.382   0.621   1.430  0.1635  0.3389  0.3817
  689SOL     OW 2753   2.460   0.718   2.937  1.2446 -0.1963  0.7545
  689SOL    HW1 2754   2.425   0.795   2.989  2.0584  0.8458  0.9857
  689SOL    HW2 2755   2.546   0.701   2.972 -0.5697 -1.8815 -0.8441
  689SOL     MW 2756   2.467   0.726   2.948  1.1126 -0.2811  0.5741
  690SOL     OW 2757   2.054   0.907   1.844  0.2495 -0.4147  0.2139
  690SOL    HW1 2758   2.021   0.819   1.848 -1.4165  2.2073 -0.1324
  690SOL    HW2 2759   2.087   0.922   1.752  1.1142 -0.7927 -0.2682
  690SOL     MW 2760   2.054   0.898   1.832  0.1438 -0.1187  0.1046
  691SOL     OW 2761   2.409   0.228   0.838  0.4245 -0.0292  0.0694
  691SOL    HW1 2762   2.487   0.264   0.880 -2.0071  1.1406  0.5154
  691SOL    HW2 2763   2.339   0.293   0.844  2.8867  0.6124 -2.7669
  691SOL     MW 2764   2.410   0.241   0.844  0.4285  0.2098 -0.2460
  692SOL     OW 2765   2.922   1.608   1.486 -0.1756 -0.0986 -0.5132
  692SOL    HW1 2766   2.935   1.559   1.565  0.6942 -1.8195 -1.1653
  692SOL    HW2 2767   2.968   1.695   1.501 -1.7734 -0.0217 -1.3313
  692SOL     MW 2768   2.930   1.613   1.498 -0.2717 -0.3155 -0.7072
  693SOL     OW 2769   2.276   0.423   0.096  1.3041  0.6765  0.5131
  693SOL    HW1 2770   2.193   0.378   0.095  1.0605  1.7246  3.3922
  693SOL    HW2 2771   2.264   0.509   0.053  0.7180 -0.3824 -0.2412
  693SOL     MW 2772   2.264   0.429   0.090  1.1946  0.6751  0.7935
  694SOL     OW 2773   1.921   1.145   1.064 -0.4441 -0.7179 -0.2359
  694SOL    HW1 2774   2.014   1.155   1.105  0.4742 -0.1575  0.9359
  694SOL    HW2 2775   1.870   1.097   1.127  1.8147 -0.6597 -0.2766
  694SOL     MW 2776   1.926   1.140   1.078 -0.0249 -0.6363 -0.0867
  695SOL     OW 2777   2.987   1.431   1.290  0.2770 -0.2896 -0.8580
  695SOL    HW1 2778   2.943   1.444   1.204  0.0949 -1.6241 -1.5974
  695SOL    HW2 2779   2.946   1.501   1.354 -1.6483  0.4699 -0.7192
  695SOL     MW 2780   2.976   1.442   1.287 -0.0011 -0.3655 -0.9372
  696SOL     OW 2781   2.097   1.401   0.776  0.1327  0.7705  0.2839
  696SOL    HW1 2782   2.120   1.434   0.862  0.7060  1.0295  3.1970
  696SOL    HW2 2783   2.033   1.325   0.781 -2.7058 -0.9042  0.4158
  696SOL     MW 2784   2.092   1.395   0.788 -0.1661  0.5837  0.6857
  697SOL     OW 2785   2.873   1.009   2.230 -0.3806 -0.4136  0.5286
  697SOL    HW1 2786   2.830   1.097   2.229 -4.1950  0.9982 -1.3357
  697SOL    HW2 2787   2.816   0.964   2.167  0.6126 -1.6324 -1.1431
  697SOL     MW 2788   2.860   1.014   2.222 -0.7528 -0.3881  0.0621
  698SOL     OW 2789   2.530   0.337   0.020 -0.4432  0.2833  0.1403
  698SOL    HW1 2790   2.445   0.368   0.056  0.4100  0.7766 -1.6413
  698SOL    HW2 2791   2.562   0.276   0.080  2.7178 -0.1742 -2.1069
  698SOL     MW 2792   2.523   0.333   0.032  0.0864  0.2880 -0.3912
  699SOL     OW 2793   1.896   1.624   2.053 -0.4041 -0.3426  0.3104
  699SOL    HW1 2794   1.874   1.531   2.059 -2.5254  3.7823  2.7607
  699SOL    HW2 2795   1.983   1.606   2.006  0.0118  1.8390  1.6983
  699SOL     MW 2796   1.905   1.609   2.047 -0.6291  0.4895  0.8168
  700SOL     OW 2797   2.703   0.909   1.603 -0.7890 -0.2515  0.2688
  700SOL    HW1 2798   2.745   0.982   1.563 -1.2887 -0.2190 -2.9061
  700SOL    HW2 2799   2.738   0.838   1.545  1.2563  0.3071 -0.2198
  700SOL     MW 2800   2.713   0.909   1.590 -0.5851 -0.1735 -0.2146
  701SOL     OW 2801   1.694   1.181   2.475 -0.0049 -0.1293 -0.1173
  701SOL    HW1 2802   1.790   1.157   2.473  1.8421  0.0606 -1.6722
  701SOL    HW2 2803   1.692   1.232   2.561 -0.3052 -1.2232  0.3854
  701SOL     MW 2804   1.706   1.184   2.486  0.1992 -0.2486 -0.2561
  702SOL     OW 2805   2.152   0.417   0.830  0.3366  0.5209  0.0561
  702SOL    HW1 2806   2.127   0.346   0.777  0.3132  0.1627 -0.2312
  702SOL    HW2 2807   2.221   0.469   0.786 -0.1277  0.0334 -0.2516
  702SOL     MW 2808   2.158   0.415   0.817  0.2723  0.4093 -0.0224
  703SOL     OW 2809   2.706   1.242   1.038  0.6261  0.4232 -0.0798
  703SOL    HW1 2810   2.650   1.261   0.961  0.5985 -2.0218 -3.1584
  703SOL    HW2 2811   2.668   1.160   1.077 -1.1830 -0.8331  0.4233
  703SOL     MW 2812   2.694   1.234   1.033  0.3837 -0.0652 -0.4196
  704SOL     OW 2813   3.054   1.249   0.128 -0.8022  0.5576 -0.4257
  704SOL    HW1 2814   2.962   1.247   0.107  1.0697  1.0444  0.0260
  704SOL    HW2 2815   3.065   1.221   0.218 -1.8607  1.0884  1.7674
  704SOL     MW 2816   3.043   1.245   0.137 -0.6949  0.6918 -0.0767
  705SOL     OW 2817   2.185   1.628   1.310  0.0209 -0.0958 -0.2858
  705SOL    HW1 2818   2.150   1.628   1.402 -0.7587  1.4945  1.4378
  705SOL    HW2 2819   2.209   1.540   1.288 -0.3243 -0.9256  2.9586
  705SOL     MW 2820   2.183   1.616   1.319 -0.1275  0.0046  0.3697
  706SOL     OW 2821   2.934   1.267   0.644 -0.0069  0.1053  0.2689
  706SOL    HW1 2822   2.992   1.245   0.577 -2.3308 -0.3825 -1.0863
  706SOL    HW2 2823   2.929   1.365   0.657 -1.1040 -1.4589  0.3499
  706SOL     MW 2824   2.941   1.277   0.637 -0.4583 -0.1654  0.1008
  707SOL     OW 2825   2.325   0.038   1.029  0.2075  0.1104  0.3758
  707SOL    HW1 2826   2.349   0.108   0.968  1.3280 -4.3301 -0.3358
  707SOL    HW2 2827   2.262  -0.023   0.987 -1.8494 -0.3686 -0.1190
  707SOL     MW 2828   2.320   0.039   1.016  0.0839 -0.5387  0.2166
  708SOL     OW 2829   2.430   1.416   0.186 -0.0383 -0.3593  0.4674
  708SOL    HW1 2830   2.517   1.380   0.211  1.5712  0.3726 -1.2223
  708SOL    HW2 2831   2.438   1.419   0.087 -0.4315 -3.5952 -0.6034
  708SOL     MW 2832   2.443   1.411   0.176  0.1222 -0.6897  0.1032
  709SOL     OW 2833   1.772   1.660   0.228  0.2468 -0.1491  0.4076
  709SOL    HW1 2834   1.764   1.646   0.133 -1.6446 -1.3936 -0.7053
  709SOL    HW2 2835   1.686   1.669   0.268 -1.0859  0.1707  0.7243
  709SOL     MW 2836   1.760   1.659   0.221 -0.1786 -0.2711  0.3025
  710SOL     OW 2837   2.170   1.109   1.210 -0.3645  0.3947 -0.2451
  710SOL    HW1 2838   2.222   1.084   1.128  2.9905 -0.6543  1.8323
  710SOL    HW2 2839   2.169   1.035   1.269  0.5473 -0.7181  2.3073
  710SOL     MW 2840   2.177   1.096   1.207  0.1984  0.1095  0.3658
  711SOL     OW 2841   2.336   0.085   1.756 -0.0510 -0.0826 -0.3577
  711SOL    HW1 2842   2.430   0.105   1.789  1.5896  0.0469  0.9092
  711SOL    HW2 2843   2.335   0.113   1.665 -1.5148 -1.9262  0.5468
  711SOL     MW 2844   2.348   0.091   1.749 -0.0277 -0.3088 -0.0712
  712SOL     OW 2845   1.939   0.627   3.078  0.3229 -0.0659 -0.3348
  712SOL    HW1 2846   1.848   0.651   3.046  0.6111  0.1770 -0.8753
  712SOL    HW2 2847   1.952   0.674   3.160 -0.2560  0.7407  1.2978
  712SOL     MW 2848   1.929   0.636   3.084  0.2846  0.0726 -0.1907
  713SOL     OW 2849   2.554   0.740   1.083  0.2462 -0.3736 -0.2404
  713SOL    HW1 2850   2.599   0.667   1.129 -0.6301 -0.9953  0.7873
  713SOL    HW2 2851   2.465   0.741   1.114 -0.2988  2.5626  3.3657
  713SOL     MW 2852   2.548   0.731   1.093  0.0586 -0.0682  0.3710
  714SOL     OW 2853   2.187   0.143   2.005 -0.3297  0.0560  0.5318
  714SOL    HW1 2854   2.256   0.106   2.069  2.1641 -1.0197 -1.4615
  714SOL    HW2 2855   2.230   0.150   1.916  0.8100  1.3550 -1.0594
  714SOL     MW 2856   2.202   0.139   2.002  0.1497  0.0855  0.0588
  715SOL     OW 2857   1.836   2.030   1.739 -0.2162  0.2458 -0.2331
  715SOL    HW1 2858   1.929   2.059   1.725 -2.2909  1.3548 -0.9675
  715SOL    HW2 2859   1.842   1.948   1.793  1.6813 -1.6956 -0.7803
  715SOL     MW 2860   1.849   2.023   1.744 -0.2396  0.1360 -0.4022
  716SOL     OW 2861   2.353   0.565   0.713 -0.1180 -0.2790 -0.0197
  716SOL    HW1 2862   2.411   0.503   0.675 -0.1646  0.7406  2.4556
  716SOL    HW2 2863   2.296   0.608   0.652 -2.5429 -0.4508  0.5607
  716SOL     MW 2864   2.353   0.563   0.700 -0.4441 -0.1671  0.3835
  717SOL     OW 2865   2.812   1.651   2.891 -0.4581  0.3933  0.2006
  717SOL    HW1 2866   2.894   1.633   2.935 -1.8148  1.0631 -2.0260
  717SOL    HW2 2867   2.786   1.732   2.946  1.4595  2.7966  0.6927
  717SOL     MW 2868   2.819   1.659   2.904 -0.3841  0.7988 -0.0282
  718SOL     OW 2869   2.682   1.416   1.336 -0.2938 -0.2226 -0.3289
  718SOL    HW1 2870   2.686   1.402   1.431 -0.4323 -1.9760 -1.1687
  718SOL    HW2 2871   2.725   1.339   1.305  0.8052  0.2526 -2.1877
  718SOL     MW 2872   2.688   1.404   1.345 -0.1671 -0.3913 -0.6849
  719SOL     OW 2873   2.169   1.259   0.547  0.0804 -0.3724  0.2248
  719SOL    HW1 2874   2.266   1.264   0.517  0.5888 -1.4587 -0.4383
  719SOL    HW2 2875   2.168   1.288   0.637 -0.1696 -0.1036  1.8138
  719SOL     MW 2876   2.182   1.263   0.555  0.1145 -0.4803  0.3470
  720SOL     OW 2877   2.803   1.193   0.040  0.2899 -0.5807 -0.1243
  720SOL    HW1 2878   2.795   1.103   0.069 -2.1234 -0.5849 -0.7320
  720SOL    HW2 2879   2.762   1.256   0.103  1.5900  0.6500 -0.1704
  720SOL     MW 2880   2.796   1.189   0.052  0.1430 -0.4189 -0.2105
  721SOL     OW 2881   2.479   0.886   1.411  0.2547  0.1036  0.4370
  721SOL    HW1 2882   2.458   0.792   1.409 -1.1547  0.8917 -2.0853
  721SOL    HW2 2883   2.539   0.906   1.481 -0.9136 -4.6048  0.2624
  721SOL     MW 2884   2.484   0.876   1.420 -0.0854 -0.4136  0.0812
  722SOL     OW 2885   2.596   1.118   0.420  0.1230  0.2354  0.2018
  722SOL    HW1 2886   2.543   1.194   0.465 -2.2233  3.8269  1.8167
  722SOL    HW2 2887   2.665   1.099   0.488  1.3422 -0.7484  0.8532
  722SOL     MW 2888   2.598   1.126   0.435 -0.0257  0.5795  0.5008
  723SOL     OW 2889   2.327   1.363   1.586 -0.1535 -1.1000  0.6786
  723SOL    HW1 2890   2.297   1.358   1.493  0.6150  3.0906 -0.6851
  723SOL    HW2 2891   2.265   1.423   1.632  0.5834  0.7153 -1.1619
  723SOL     MW 2892   2.315   1.370   1.580  0.0451 -0.3076  0.2558
  724SOL     OW 2893   2.455   0.351   0.560  0.1212 -0.3922 -0.0080
  724SOL    HW1 2894   2.464   0.280   0.625 -2.1113 -0.1382  0.5398
  724SOL    HW2 2895   2.540   0.340   0.516  0.3965 -2.0861  0.8889
  724SOL     MW 2896   2.467   0.341   0.563 -0.1370 -0.5822  0.1826
  725SOL     OW 2897   2.586   0.436   1.219  0.0891 -0.9613  0.4159
  725SOL    HW1 2898   2.673   0.448   1.260  0.6185  1.6334  1.5285
  725SOL    HW2 2899   2.522   0.420   1.287  0.4610  1.3724 -0.0058
  725SOL     MW 2900   2.589   0.435   1.234  0.2080 -0.3110  0.5071
  726SOL     OW 2901   2.531   2.502   0.515 -0.3830 -0.3896 -0.1577
  726SOL    HW1 2902   2.518   2.590   0.482  3.3520 -1.8470 -0.6850
  726SOL    HW2 2903   2.476   2.482   0.590 -0.4851  2.4998  2.2124
  726SOL     MW 2904   2.522   2.511   0.521  0.0964 -0.2007  0.0855
  727SOL     OW 2905   2.870   0.344   1.780  0.1774 -0.3377 -0.1097
  727SOL    HW1 2906   2.799   0.349   1.715  1.0201 -1.3205  0.3634
  727SOL    HW2 2907   2.823   0.360   1.869 -0.3138  0.4695  0.6246
  727SOL     MW 2908   2.854   0.347   1.783  0.2237 -0.3608  0.0496
  728SOL     OW 2909   2.833   1.143   2.884  0.0769  0.3791 -0.1235
  728SOL    HW1 2910   2.830   1.205   2.806  1.5152 -0.3568 -0.0427
  728SOL    HW2 2911   2.816   1.187   2.965  0.6670 -3.1336  0.0482
  728SOL     MW 2912   2.830   1.157   2.884  0.3445 -0.1814 -0.0902
  729SOL     OW 2913   2.436   1.460   1.164  0.3151  0.2717 -0.5209
  729SOL    HW1 2914   2.514   1.423   1.205  1.6056  1.3160 -3.2364
  729SOL    HW2 2915   2.459   1.471   1.072 -0.1071  2.0197 -0.8015
  729SOL     MW 2916   2.450   1.457   1.157  0.4296  0.6401 -0.9162
  730SOL     OW 2917   2.281   1.192   0.280 -0.0240  0.6413  0.1544
  730SOL    HW1 2918   2.330   1.110   0.287 -1.5283 -5.3646  0.8855
  730SOL    HW2 2919   2.343   1.263   0.280  3.0374 -0.0947 -0.0324
  730SOL     MW 2920   2.296   1.190   0.281  0.1815 -0.2482  0.2262
  731SOL     OW 2921   2.801   2.063   2.902 -0.1891  0.1574 -0.4077
  731SOL    HW1 2922   2.754   2.045   2.824 -0.2395 -1.2472 -0.9330
  731SOL    HW2 2923   2.887   2.086   2.873  2.1394 -0.6137  0.4457
  731SOL     MW 2924   2.806   2.064   2.888  0.1115 -0.1297 -0.3644
  732SOL     OW 2925   2.217   0.889   1.338  0.2439  0.1396 -0.1606
  732SOL    HW1 2926   2.163   0.918   1.414  0.6606 -0.4540 -0.6839
  732SOL    HW2 2927   2.317   0.891   1.368  2.8388  2.1126  0.2823
  732SOL     MW 2928   2.223   0.893   1.352  0.6413  0.3216 -0.1712
  733SOL     OW 2929   2.404   2.822   2.997  0.4483 -0.0901  0.3089
  733SOL    HW1 2930   2.321   2.877   2.991 -0.5581 -0.3093  3.6993
  733SOL    HW2 2931   2.368   2.735   2.967  1.5212  1.1565 -0.7281
  733SOL     MW 2932   2.388   2.818   2.992  0.4571  0.0455  0.6194
  734SOL     OW 2933   1.481   0.304   2.493  0.5458  0.2626  0.9815
  734SOL    HW1 2934   1.443   0.264   2.571  0.1441 -2.4115  1.6167
  734SOL    HW2 2935   1.499   0.237   2.430  0.8300  0.2589  1.6323
  734SOL     MW 2936   1.479   0.290   2.495  0.5303 -0.0907  1.1512
  735SOL     OW 2937   2.918   0.891   2.612  0.3670  0.2855 -0.2284
  735SOL    HW1 2938   2.899   0.799   2.624 -0.2688  1.5661  0.6191
  735SOL    HW2 2939   2.949   0.904   2.700 -0.8288 -2.1392 -0.8240
  735SOL     MW 2940   2.920   0.881   2.625  0.1254  0.1345 -0.1952
  736SOL     OW 2941   0.083   0.611   2.540  0.0440 -0.5237 -0.4597
  736SOL    HW1 2942   0.091   0.679   2.473  0.2667  0.3621  0.7896
  736SOL    HW2 2943   0.057   0.534   2.489 -0.2287  0.7822  1.8705
  736SOL     MW 2944   0.081   0.610   2.524  0.0374 -0.2346  0.0126
  737SOL     OW 2945   2.934   0.601   2.653 -0.2455  0.1680  0.6215
  737SOL    HW1 2946   2.874   0.579   2.581 -1.3052  0.8531 -1.0251
  737SOL    HW2 2947   3.024   0.601   2.616 -1.6746 -1.6004 -2.4791
  737SOL     MW 2948   2.938   0.598   2.639 -0.5739  0.0251 -0.0048
  738SOL     OW 2949   0.202   0.585   1.935 -0.0932  0.0292 -0.2041
  738SOL    HW1 2950   0.296   0.594   1.936 -0.0242  1.7680 -0.1049
  738SOL    HW2 2951   0.189   0.510   1.876  1.2520  0.5613 -1.9349
  738SOL     MW 2952   0.213   0.576   1.928  0.0934  0.3288 -0.4193
  739SOL     OW 2953   2.485   0.998   2.073 -0.0910  0.4344  0.2696
  739SOL    HW1 2954   2.429   0.930   2.030  2.5306 -3.9691 -1.7077
  739SOL    HW2 2955   2.480   1.079   2.025 -1.0336  2.0810 -1.9914
  739SOL     MW 2956   2.477   1.000   2.061  0.1305  0.0707 -0.2896
  740SOL     OW 2957   0.199   1.742   2.917 -0.3196  0.0672 -0.4161
  740SOL    HW1 2958   0.123   1.682   2.925 -3.2554 -0.7730 -0.2230
  740SOL    HW2 2959   0.271   1.713   2.974 -0.4924 -0.5226  0.1325
  740SOL     MW 2960   0.198   1.730   2.926 -0.7297 -0.1215 -0.3183
  741SOL     OW 2961   2.188   1.226   2.680 -0.8813  0.7753 -0.1700
  741SOL    HW1 2962   2.148   1.288   2.617  0.1035 -0.2036 -1.0774
  741SOL    HW2 2963   2.137   1.218   2.759  1.5804  0.2335  0.5036
  741SOL     MW 2964   2.176   1.233   2.682 -0.4266  0.5747 -0.2008
  742SOL     OW 2965   1.652   1.240   2.227  0.5538 -0.1470  0.2923
  742SOL    HW1 2966   1.574   1.185   2.203 -1.1495  0.4240 -1.2188
  742SOL    HW2 2967   1.654   1.227   2.324 -0.3426  0.2712  0.5810
  742SOL     MW 2968   1.642   1.231   2.237  0.2108 -0.0165  0.1310
  743SOL     OW 2969   2.451   1.291   2.724  0.6995 -0.5967  0.1655
  743SOL    HW1 2970   2.354   1.268   2.721 -0.1127 -0.0895 -2.1216
  743SOL    HW2 2971   2.481   1.218   2.768 -2.3114 -2.9713  1.2425
  743SOL     MW 2972   2.442   1.279   2.730  0.1951 -0.8431  0.0058
  744SOL     OW 2973   2.738   0.935   1.880 -0.1757  0.3812 -0.4210
  744SOL    HW1 2974   2.656   0.986   1.884  1.1354 -1.6632  0.3472
  744SOL    HW2 2975   2.730   0.914   1.785  1.2814 -0.6880 -0.2271
  744SOL     MW 2976   2.726   0.939   1.868  0.1895 -0.0296 -0.2940
  745SOL     OW 2977   1.748   0.413   2.509  0.0511 -0.4028  0.2708
  745SOL    HW1 2978   1.717   0.437   2.420 -0.4022 -0.1327  1.1476
  745SOL    HW2 2979   1.666   0.378   2.548  0.5216  2.1495  3.1180
  745SOL     MW 2980   1.733   0.411   2.502  0.0534 -0.0304  0.7621
  746SOL     OW 2981   1.592   1.478   1.663 -0.2491 -0.0318  0.1277
  746SOL    HW1 2982   1.680   1.511   1.657  2.9512 -2.9764 -0.2363
  746SOL    HW2 2983   1.585   1.429   1.746  1.2365  2.0272  0.8331
  746SOL     MW 2984   1.603   1.476   1.673  0.3691 -0.1487  0.1728
  747SOL     OW 2985   2.573   1.133   1.794  0.8635 -0.3286  0.0978
  747SOL    HW1 2986   2.483   1.107   1.783 -0.6311 -1.1862  2.2296
  747SOL    HW2 2987   2.578   1.219   1.842  0.5069  0.1677  1.1646
  747SOL     MW 2988   2.562   1.141   1.799  0.6192 -0.3763  0.5199
  748SOL     OW 2989   0.104   0.032   1.882 -0.1400 -0.4107  0.4563
  748SOL    HW1 2990   0.185   0.084   1.866  0.2176  0.6840 -1.3160
  748SOL    HW2 2991   0.074   0.065   1.964 -0.3269  0.4948 -0.7523
  748SOL     MW 2992   0.111   0.043   1.891 -0.1175 -0.1468  0.0630
  749SOL     OW 2993   2.505   0.561   2.721  0.3690  0.4321 -0.1152
  749SOL    HW1 2994   2.512   0.631   2.653 -0.7130  0.6625 -0.8513
  749SOL    HW2 2995   2.475   0.619   2.796 -0.2211  0.4166  0.5219
  749SOL     MW 2996   2.502   0.578   2.722  0.1484  0.4605 -0.1282
  750SOL     OW 2997   2.041   3.025   1.974 -0.2030  0.2342 -0.3528
  750SOL    HW1 2998   2.099   3.107   1.972 -0.0060  1.3998 -0.8090
  750SOL    HW2 2999   2.110   2.954   1.978  1.8816 -1.0549  0.0727
  750SOL     MW 3000   2.058   3.027   1.974  0.0981  0.2179 -0.3569
  751SOL     OW 3001   0.055   0.434   2.357 -0.3530  0.4354  0.2392
  751SOL    HW1 3002   0.046   0.347   2.394 -1.0828 -0.6181  1.7196
  751SOL    HW2 3003   0.147   0.440   2.338 -2.8243  1.0421 -0.9359
  751SOL     MW 3004   0.066   0.423   2.359 -0.7754  0.3765  0.2794
  752SOL     OW 3005   2.136   0.764   2.719  0.0555 -0.2005  0.2108
  752SOL    HW1 3006   2.187   0.829   2.672 -1.2627  0.3875 -0.5972
  752SOL    HW2 3007   2.120   0.806   2.805 -3.3301 -0.6705 -0.1925
  752SOL     MW 3008   2.141   0.778   2.724 -0.5651 -0.1849  0.0510
  753SOL     OW 3009   2.914   0.276   2.449 -0.4009  0.0908 -0.1956
  753SOL    HW1 3010   2.885   0.206   2.400 -2.4475 -1.1075  0.9627
  753SOL    HW2 3011   2.862   0.355   2.441 -0.1130 -1.4476  1.1238
  753SOL     MW 3012   2.903   0.278   2.442 -0.6329 -0.2703  0.1313
  754SOL     OW 3013   2.261   2.972   2.595  0.2560  0.8335  0.1142
  754SOL    HW1 3014   2.264   2.942   2.509  2.2619 -0.6616  2.4218
  754SOL    HW2 3015   2.336   2.918   2.630  2.0618 -2.9542 -1.1932
  754SOL     MW 3016   2.271   2.961   2.588  0.7589  0.1365  0.2462
  755SOL     OW 3017   2.728   1.532   2.491 -0.2005 -0.0695 -0.4983
  755SOL    HW1 3018   2.702   1.454   2.537 -2.6245  1.5228 -2.2203
  755SOL    HW2 3019   2.810   1.567   2.537 -0.3261  0.3161 -0.0768
  755SOL     MW 3020   2.735   1.526   2.503 -0.5369  0.1915 -0.6698
  756SOL     OW 3021   2.218   1.199   3.008 -0.1960 -0.5980  0.0413
  756SOL    HW1 3022   2.288   1.265   3.023  1.1481 -0.9562 -0.5739
  756SOL    HW2 3023   2.259   1.109   3.012  0.7340 -2.1888 -1.7737
  756SOL     MW 3024   2.233   1.196   3.010  0.1040 -0.8551 -0.2794
  757SOL     OW 3025   2.124   0.944   1.580 -0.2611  0.2251  0.2929
  757SOL    HW1 3026   2.148   0.851   1.592  0.2032  0.8719  1.9075
  757SOL    HW2 3027   2.028   0.933   1.560  0.4025 -0.7705  0.1982
  757SOL     MW 3028   2.114   0.930   1.579 -0.1123  0.1791  0.4935
  758SOL     OW 3029   2.209   1.730   2.658  0.0779  0.3957 -0.0517
  758SOL    HW1 3030   2.187   1.786   2.586 -1.6753  1.4431  1.9675
  758SOL    HW2 3031   2.302   1.708   2.670 -2.7208  2.1402  0.3866
  758SOL     MW 3032   2.219   1.734   2.650 -0.5227  0.7640  0.2725
  759SOL     OW 3033   1.618   1.358   2.664 -0.4995 -0.2136  0.1585
  759SOL    HW1 3034   1.576   1.431   2.620 -2.5644  0.9394  0.9890
  759SOL    HW2 3035   1.661   1.390   2.745 -0.5721 -1.2115  0.9308
  759SOL     MW 3036   1.618   1.372   2.669 -0.7815 -0.1931  0.3700
  760SOL     OW 3037   2.617   1.981   2.716 -0.2454 -0.0585  0.0341
  760SOL    HW1 3038   2.586   1.896   2.688 -0.0632 -0.8322 -1.6726
  760SOL    HW2 3039   2.586   2.037   2.640 -2.3958 -1.0872 -1.7609
  760SOL     MW 3040   2.609   1.977   2.702 -0.5051 -0.2963 -0.4279
  761SOL     OW 3041   2.190   0.354   2.441 -0.0354 -0.1600 -0.2117
  761SOL    HW1 3042   2.106   0.305   2.444  1.8654 -0.2573  0.7979
  761SOL    HW2 3043   2.196   0.391   2.528  1.1351 -0.8972 -1.0917
  761SOL     MW 3044   2.180   0.353   2.453  0.3699 -0.2701 -0.1946
  762SOL     OW 3045   0.054   0.178   2.100  0.8850 -0.0665  0.1100
  762SOL    HW1 3046   0.039   0.125   2.175 -1.8727 -0.4374  2.1828
  762SOL    HW2 3047  -0.011   0.246   2.094  0.4359  1.7516  2.0853
  762SOL     MW 3048   0.043   0.180   2.109  0.4619  0.1244  0.6441
  763SOL     OW 3049   2.378   1.038   2.306  0.1428 -0.4765  0.7878
  763SOL    HW1 3050   2.405   1.022   2.214  1.4981 -1.9898 -0.1975
  763SOL    HW2 3051   2.432   1.114   2.347  0.1327 -0.1634  1.0464
  763SOL     MW 3052   2.389   1.046   2.299  0.3203 -0.6349  0.6920
  764SOL     OW 3053   0.440   0.271   2.784 -0.0455 -0.6103  0.1817
  764SOL    HW1 3054   0.379   0.208   2.762 -1.2395  1.2432 -0.1716
  764SOL    HW2 3055   0.397   0.348   2.809  0.7163 -2.4000 -0.4324
  764SOL     MW 3056   0.426   0.273   2.784 -0.1025 -0.6019  0.0541
  765SOL     OW 3057   2.761   0.053   2.322 -0.0930 -0.6246  0.0139
  765SOL    HW1 3058   2.707   0.043   2.236 -0.4131  1.1300  0.5583
  765SOL    HW2 3059   2.787  -0.035   2.351  0.9156  1.8221  1.8950
  765SOL     MW 3060   2.758   0.040   2.314 -0.0021 -0.0703  0.3339
  766SOL     OW 3061   1.834   2.979   2.161  0.7909  0.2787 -0.5164
  766SOL    HW1 3062   1.904   3.002   2.103  1.9336 -1.5382  0.1249
  766SOL    HW2 3063   1.780   2.911   2.112 -0.2419 -1.8549 -1.8073
  766SOL     MW 3064   1.836   2.973   2.147  0.8054 -0.2425 -0.6022
  767SOL     OW 3065   2.646   0.606   1.910 -0.1938 -0.4865  0.8324
  767SOL    HW1 3066   2.677   0.671   1.970 -0.9887 -1.3438  2.0257
  767SOL    HW2 3067   2.553   0.605   1.933 -1.3714 -1.2202 -2.0962
  767SOL     MW 3068   2.638   0.615   1.921 -0.4540 -0.6964  0.6035
  768SOL     OW 3069   0.003   1.554   2.952  0.2931 -0.0761 -0.4052
  768SOL    HW1 3070   0.048   1.521   3.028 -0.2082 -1.1208  2.3768
  768SOL    HW2 3071   0.028   1.488   2.890 -1.9745  2.0608  0.4346
  768SOL     MW 3072   0.012   1.541   2.954 -0.0722  0.0680  0.0727
  769SOL     OW 3073   2.454   0.649   2.329  0.4836 -0.2804  0.0438
  769SOL    HW1 3074   2.368   0.627   2.342  1.0066  2.1410  1.3299
  769SOL    HW2 3075   2.494   0.582   2.277 -0.2990  0.5995  1.4280
  769SOL     MW 3076   2.448   0.637   2.324  0.4493  0.1552  0.3961
  770SOL     OW 3077   0.101   1.594   2.615 -0.4916 -0.2852  0.2350
  770SOL    HW1 3078   0.003   1.591   2.604  1.1360  1.4389  0.8500
  770SOL    HW2 3079   0.119   1.505   2.635 -0.6245  1.2072 -0.6209
  770SOL     MW 3080   0.090   1.582   2.616 -0.2944  0.1392  0.2032
  771SOL     OW 3081   3.036   0.647   1.979  0.7954  0.1892  0.4302
  771SOL    HW1 3082   3.003   0.651   1.892  1.1491  0.0322  3.2228
  771SOL    HW2 3083   3.125   0.613   1.963 -0.7094  1.1803  1.2896
  771SOL     MW 3084   3.043   0.643   1.965  0.6435  0.2993  0.9120
  772SOL     OW 3085   3.083   0.011   2.336  0.1722  0.3708  0.2842
  772SOL    HW1 3086   2.993  -0.021   2.331  0.7113 -0.1126  1.2249
  772SOL    HW2 3087   3.129  -0.066   2.304 -1.3923  1.6517  1.3916
  772SOL     MW 3088   3.077  -0.004   2.331  0.0369  0.4760  0.5544
  773SOL     OW 3089   2.471   2.845   2.740  0.0808 -0.0346 -0.4019
  773SOL    HW1 3090   2.502   2.762   2.705 -0.6227  1.9790 -0.5657
  773SOL    HW2 3091   2.452   2.838   2.835 -0.7089  1.0705 -0.2079
  773SOL     MW 3092   2.472   2.833   2.748 -0.1162  0.3769 -0.3979
  774SOL     OW 3093   2.314   1.128   1.708 -0.5456  0.3162 -0.1865
  774SOL    HW1 3094   2.316   1.223   1.675  2.2218  1.4746 -1.8516
  774SOL    HW2 3095   2.252   1.083   1.653  2.9902  1.7670  0.7550
  774SOL     MW 3096   2.306   1.135   1.697  0.2861  0.6605 -0.2820
  775SOL     OW 3097   2.273   2.902   2.313 -0.0541 -0.3575 -0.2260
  775SOL    HW1 3098   2.316   2.980   2.273 -0.9538  2.4778  1.2221
  775SOL    HW2 3099   2.327   2.822   2.296  0.5600 -1.3214  1.1453
  775SOL     MW 3100   2.286   2.902   2.305 -0.0918 -0.1106  0.1460
  776SOL     OW 3101   0.108   1.476   0.097  0.5631 -0.4041  0.0105
  776SOL    HW1 3102   0.190   1.437   0.089 -3.5515  0.9150  3.8464
  776SOL    HW2 3103   0.035   1.411   0.097 -0.6599 -0.3296  2.0744
  776SOL     MW 3104   0.109   1.462   0.096 -0.1412 -0.2202  0.7890
  777SOL     OW 3105   2.955   1.091   1.774 -0.1396  0.5418 -0.1982
  777SOL    HW1 3106   2.897   1.137   1.717  1.3295  1.5285  0.0630
  777SOL    HW2 3107   2.900   1.035   1.828 -3.3397  0.5476  1.6614
  777SOL     MW 3108   2.940   1.090   1.773 -0.3680  0.6728  0.0816
  778SOL     OW 3109   2.896   0.407   2.839 -0.7424  0.2760  0.2201
  778SOL    HW1 3110   2.833   0.439   2.904  2.3189  0.5824  0.0779
  778SOL    HW2 3111   2.907   0.484   2.775  1.6285  0.9213  1.6653
  778SOL     MW 3112   2.889   0.421   2.839 -0.0257  0.4015  0.3920
  779SOL     OW 3113   2.148   0.618   2.338  0.2167  0.2376  0.4377
  779SOL    HW1 3114   2.082   0.655   2.399  0.4044 -3.3752 -5.5142
  779SOL    HW2 3115   2.163   0.538   2.381  0.0739  0.8761 -0.9704
  779SOL     MW 3116   2.141   0.612   2.351  0.2226 -0.1548 -0.5334
  780SOL     OW 3117   0.233   0.081   2.771  0.1560  0.0897 -0.8494
  780SOL    HW1 3118   0.186   0.144   2.827  0.2577 -1.0458  1.1066
  780SOL    HW2 3119   0.228   0.114   2.685  1.3422  0.1701  0.3141
  780SOL     MW 3120   0.226   0.093   2.767  0.3259 -0.0495 -0.4378
  781SOL     OW 3121   3.035   1.291   2.488  0.5726 -0.1283  0.2328
  781SOL    HW1 3122   3.027   1.348   2.412 -0.2522 -1.0508 -2.0745
  781SOL    HW2 3123   3.032   1.200   2.458  0.1661 -1.1260  0.3255
  781SOL     MW 3124   3.034   1.286   2.474  0.4101 -0.3817 -0.0594
  782SOL     OW 3125   0.571   1.514   3.053 -0.7681 -0.2479 -0.0049
  782SOL    HW1 3126   0.521   1.593   3.031 -3.6398  0.7950  2.2711
  782SOL    HW2 3127   0.557   1.505   3.143  1.7057  0.1134 -1.9883
  782SOL     MW 3128   0.563   1.523   3.062 -0.8206 -0.0626  0.0337
  783SOL     OW 3129   2.767   0.496   2.451  1.0179 -0.2713 -0.2769
  783SOL    HW1 3130   2.706   0.496   2.375  0.2984 -1.1368  0.6612
  783SOL    HW2 3131   2.728   0.443   2.521  1.0009  0.3840 -0.1927
  783SOL     MW 3132   2.753   0.489   2.450  0.9207 -0.2991 -0.1420
  784SOL     OW 3133   0.301   0.936   2.882 -0.2475  0.4357 -0.1710
  784SOL    HW1 3134   0.216   0.958   2.908  1.1684 -2.2480  0.3801
  784SOL    HW2 3135   0.308   0.994   2.797 -0.0796 -0.6301 -1.8651
  784SOL     MW 3136   0.290   0.946   2.874 -0.0386 -0.0590 -0.3218
  785SOL     OW 3137   0.439   0.555   2.179  0.0769 -0.2983 -0.1347
  785SOL    HW1 3138   0.474   0.582   2.087 -0.0715  2.0199  1.4830
  785SOL    HW2 3139   0.385   0.473   2.177  1.4810 -0.8219  1.1830
  785SOL     MW 3140   0.437   0.548   2.166  0.2426 -0.0615  0.2526
  786SOL     OW 3141   1.988   0.470   2.820  0.1168  0.0297 -0.1092
  786SOL    HW1 3142   2.022   0.461   2.905  0.2982  0.7462 -3.6978
  786SOL    HW2 3143   2.073   0.470   2.770  4.7878  0.6374 -2.0951
  786SOL     MW 3144   2.004   0.469   2.825  0.7570  0.2044 -0.8447
  787SOL     OW 3145   2.434   0.140   2.943 -0.2349 -0.5998 -0.0159
  787SOL    HW1 3146   2.500   0.073   2.913  3.8859  1.3803  0.7703
  787SOL    HW2 3147   2.485   0.216   2.973  0.3303 -0.3252  2.5284
  787SOL     MW 3148   2.450   0.141   2.943  0.3834 -0.3023  0.4236
  788SOL     OW 3149   2.859   2.901   2.367  0.0659 -0.8735 -0.3421
  788SOL    HW1 3150   2.826   2.823   2.322  1.0847  1.7527  0.2852
  788SOL    HW2 3151   2.942   2.876   2.404 -2.3570  2.0022 -1.9241
  788SOL     MW 3152   2.866   2.888   2.366 -0.1193 -0.1475 -0.4681
  789SOL     OW 3153   0.108   0.276   2.950 -0.6034  0.3180  0.0285
  789SOL    HW1 3154   0.025   0.247   2.980  2.0925 -1.0497  0.9129
  789SOL    HW2 3155   0.081   0.371   2.956 -1.0335 -1.4606  0.4283
  789SOL     MW 3156   0.093   0.285   2.955 -0.3045 -0.0971  0.1979
  790SOL     OW 3157   3.067   1.032   2.421  0.2075 -0.0526  0.0722
  790SOL    HW1 3158   3.025   0.962   2.481  1.2927  0.6905  2.8983
  790SOL    HW2 3159   3.023   1.019   2.337  0.9444  2.3017  3.1174
  790SOL     MW 3160   3.056   1.021   2.418  0.4479  0.3561  0.8469
  791SOL     OW 3161   2.662   0.357   2.685 -0.7650  0.6992  0.5668
  791SOL    HW1 3162   2.604   0.438   2.696 -0.8286  2.2449 -0.2223
  791SOL    HW2 3163   2.732   0.354   2.750 -0.6177 -0.0403  0.6077
  791SOL     MW 3164   2.663   0.368   2.695 -0.7539  0.8055  0.4681
  792SOL     OW 3165   2.404   0.232   2.349  0.4326  0.1972  0.1966
  792SOL    HW1 3166   2.329   0.284   2.377 -1.2118 -4.0387  2.6281
  792SOL    HW2 3167   2.461   0.220   2.427  3.2006 -1.0225  2.9643
  792SOL     MW 3168   2.401   0.238   2.363  0.5808 -0.5226  0.8826
  793SOL     OW 3169   1.821   1.058   1.937 -0.3077 -0.3289 -0.3479
  793SOL    HW1 3170   1.758   1.099   1.871 -3.0337  2.6903  1.6615
  793SOL    HW2 3171   1.893   1.031   1.885 -3.5463  1.0017 -0.6457
  793SOL     MW 3172   1.822   1.060   1.921 -1.0946  0.2450 -0.1221
  794SOL     OW 3173   1.471   2.248   0.151  0.5956  0.2908 -0.8924
  794SOL    HW1 3174   1.464   2.326   0.090 -0.3667 -0.6445 -0.2190
  794SOL    HW2 3175   1.524   2.277   0.229  0.0519 -1.1177  1.2194
  794SOL     MW 3176   1.477   2.262   0.153  0.3969 -0.0184 -0.5249
  795SOL     OW 3177   2.311   0.946   2.610 -0.0198  0.0042  0.3622
  795SOL    HW1 3178   2.280   1.030   2.639 -3.3639 -0.6651 -0.3611
  795SOL    HW2 3179   2.323   0.950   2.513 -2.8635 -1.1036 -2.8243
  795SOL     MW 3180   2.308   0.958   2.601 -0.8362 -0.2303 -0.1537
  796SOL     OW 3181   0.252   0.646   2.770  0.0237 -0.0807  0.1669
  796SOL    HW1 3182   0.226   0.731   2.804 -1.1633  1.3098 -1.5410
  796SOL    HW2 3183   0.183   0.636   2.701 -0.1379  0.3195  0.9404
  796SOL     MW 3184   0.239   0.656   2.765 -0.1542  0.1556  0.0436
  797SOL     OW 3185   2.606   0.124   2.530  0.2150  0.0267 -0.1966
  797SOL    HW1 3186   2.627   0.204   2.565 -1.2523  1.5007  1.9083
  797SOL    HW2 3187   2.650   0.102   2.446  0.3380  0.9167  1.1824
  797SOL     MW 3188   2.614   0.131   2.524  0.0376  0.3386  0.2630
  798SOL     OW 3189   2.361   0.018   2.185 -0.2611 -0.3179  0.1620
  798SOL    HW1 3190   2.389   0.097   2.231 -2.3705  0.6190 -1.6282
  798SOL    HW2 3191   2.448  -0.001   2.147  1.1362 -2.2960 -0.5180
  798SOL     MW 3192   2.376   0.026   2.186 -0.3550 -0.4553 -0.1639
  799SOL     OW 3193   2.454   2.940   0.172 -0.0117 -0.0015  0.1206
  799SOL    HW1 3194   2.426   2.865   0.123  0.5057 -0.0169 -0.5492
  799SOL    HW2 3195   2.394   3.009   0.153  1.4146  0.4322  2.1957
  799SOL     MW 3196   2.442   2.939   0.163  0.2448  0.0537  0.3060
  800SOL     OW 3197   1.845   3.073   1.793  0.4669  0.0852  0.4816
  800SOL    HW1 3198   1.781   3.002   1.801  0.8782 -1.9496 -2.1255
  800SOL    HW2 3199   1.913   3.059   1.865  0.3692 -3.0187 -0.1038
  800SOL     MW 3200   1.846   3.062   1.804  0.5083 -0.5928  0.0604
  801SOL     OW 3201   2.793   1.268   2.641  0.2602 -0.2596 -0.3259
  801SOL    HW1 3202   2.759   1.177   2.627  1.2623  1.0378 -0.0287
  801SOL    HW2 3203   2.875   1.272   2.584 -1.3051 -1.4131  1.9083
  801SOL     MW 3204   2.799   1.257   2.632  0.1859 -0.2406  0.0081
  802SOL     OW 3205   2.555   1.538   2.809 -0.0327 -0.2613  0.0576
  802SOL    HW1 3206   2.554   1.445   2.784  2.0463 -2.3664  1.1382
  802SOL    HW2 3207   2.655   1.554   2.819 -1.5868  0.2546  1.3510
  802SOL     MW 3208   2.568   1.528   2.807  0.0366 -0.4710  0.3708
  803SOL     OW 3209   2.323   1.302   1.972  0.0204 -0.7070  0.0747
  803SOL    HW1 3210   2.276   1.289   2.052 -2.1983 -0.3692 -0.5884
  803SOL    HW2 3211   2.295   1.227   1.922  2.4441 -1.6777  2.3592
  803SOL     MW 3212   2.313   1.291   1.976  0.0475 -0.7905  0.2886
  804SOL     OW 3213   2.306   0.061   0.072 -0.1756  0.9194 -0.5216
  804SOL    HW1 3214   2.226   0.114   0.091 -0.1804  1.1333 -1.4724
  804SOL    HW2 3215   2.349   0.088  -0.013 -1.4897  1.1666  0.4525
  804SOL     MW 3216   2.301   0.071   0.063 -0.3496  0.9802 -0.5185
  805SOL     OW 3217   2.686   1.047   2.541 -0.7684 -0.0764  0.5147
  805SOL    HW1 3218   2.625   0.982   2.570 -0.6928 -0.3494 -1.6293
  805SOL    HW2 3219   2.774   1.006   2.529 -0.1317  0.7826 -1.2803
  805SOL     MW 3220   2.690   1.033   2.543 -0.6744  0.0009 -0.0050
  806SOL     OW 3221   2.569   0.423   2.247  0.1051  0.7704  0.2913
  806SOL    HW1 3222   2.505   0.349   2.271 -0.5315  2.6607  0.8204
  806SOL    HW2 3223   2.609   0.403   2.159  1.6113 -2.2818  1.3084
  806SOL     MW 3224   2.566   0.411   2.239  0.2199  0.6171  0.4953
  807SOL     OW 3225   3.093   1.110   2.103  0.3701 -0.1491  0.2427
  807SOL    HW1 3226   3.132   1.038   2.059 -1.6487 -0.1744  1.8763
  807SOL    HW2 3227   3.006   1.069   2.142  2.1016 -1.9209  2.2793
  807SOL     MW 3228   3.086   1.095   2.102  0.3322 -0.3862  0.7269
  808SOL     OW 3229   2.582   3.081   2.788  0.0651 -0.7483 -0.2303
  808SOL    HW1 3230   2.532   3.002   2.768  2.3785 -0.6348  0.7596
  808SOL    HW2 3231   2.584   3.129   2.710  0.7032  0.9356  0.3799
  808SOL     MW 3232   2.576   3.077   2.775  0.4545 -0.5112 -0.0191
  809SOL     OW 3233   2.540   1.225   2.401  0.0137 -0.4396  0.2359
  809SOL    HW1 3234   2.575   1.159   2.451 -0.7472  1.9810 -0.2744
  809SOL    HW2 3235   2.614   1.235   2.339  1.1985  1.1910  1.1289
  809SOL     MW 3236   2.554   1.218   2.399  0.0696  0.0949  0.2864
  810SOL     OW 3237   2.199   1.252   2.202 -0.2735 -0.2292 -0.5799
  810SOL    HW1 3238   2.260   1.184   2.232 -0.0112  1.1225  0.1159
  810SOL    HW2 3239   2.112   1.208   2.187  2.0251  1.3406 -0.6512
  810SOL     MW 3240   2.196   1.237   2.204  0.0644  0.1562 -0.4975
  811SOL     OW 3241   1.527   0.080   2.291  0.6182 -0.5333 -0.3348
  811SOL    HW1 3242   1.609   0.047   2.339  2.7163 -0.7631  5.3658
  811SOL    HW2 3243   1.545   0.075   2.194  1.0024 -0.3248 -2.6090
  811SOL     MW 3244   1.540   0.075   2.285  0.9457 -0.5361  0.1172
  812SOL     OW 3245   1.453   2.781   2.047 -0.0547  0.2937  0.1826
  812SOL    HW1 3246   1.548   2.782   2.070  1.2841  0.5444  0.1518
  812SOL    HW2 3247   1.406   2.778   2.133 -1.8596  0.1403 -1.3675
  812SOL     MW 3248   1.459   2.780   2.062 -0.1162  0.3066 -0.0260
  813SOL     OW 3249   1.794   0.710   2.213 -0.0921  0.2773  0.3708
  813SOL    HW1 3250   1.743   0.628   2.240 -1.8423  1.3363 -4.1965
  813SOL    HW2 3251   1.811   0.761   2.293 -1.2235  1.9999 -2.0573
  813SOL     MW 3252   1.789   0.706   2.227 -0.4723  0.6443 -0.5522
  814SOL     OW 3253   2.751   1.258   1.625 -0.0231  0.4598 -0.1873
  814SOL    HW1 3254   2.692   1.206   1.686  3.4637 -1.9872  0.7266
  814SOL    HW2 3255   2.746   1.222   1.538 -2.6033 -1.7070 -0.4897
  814SOL     MW 3256   2.743   1.247   1.622  0.0965 -0.1490 -0.1066
  815SOL     OW 3257   2.506   1.658   2.396 -0.1845 -0.3166  0.4033
  815SOL    HW1 3258   2.430   1.604   2.388  3.4375 -0.4821 -1.4621
  815SOL    HW2 3259   2.582   1.599   2.420  0.0437 -3.3362 -1.1452
  815SOL     MW 3260   2.506   1.643   2.398  0.3235 -0.7369 -0.0471
  816SOL     OW 3261   0.756   0.656   2.739  0.2744  0.3805 -0.6593
  816SOL    HW1 3262   0.752   0.627   2.827 -2.8714  0.7628 -0.9639
  816SOL    HW2 3263   0.664   0.653   2.706 -1.1735  0.2046  0.9338
  816SOL     MW 3264   0.743   0.651   2.746 -0.3317  0.4077 -0.4893
  817SOL     OW 3265   3.052   1.159   1.371 -0.0352 -0.2712  0.0912
  817SOL    HW1 3266   3.096   1.173   1.457  0.7074  0.6671 -1.9825
  817SOL    HW2 3267   3.056   1.250   1.343 -0.5748 -1.3982  1.2776
  817SOL     MW 3268   3.058   1.173   1.379 -0.0084 -0.2961 -0.0259
  818SOL     OW 3269   1.908   1.033   2.724  0.1316  0.2493 -0.3828
  818SOL    HW1 3270   1.925   1.068   2.637 -1.2700 -1.2829 -1.7627
  818SOL    HW2 3271   1.922   0.939   2.710 -3.9566  1.1326  1.3098
  818SOL     MW 3272   1.912   1.025   2.711 -0.5927  0.1637 -0.3416
  819SOL     OW 3273   1.960   0.235   2.461 -0.8991 -0.2009 -0.7016
  819SOL    HW1 3274   1.886   0.285   2.493 -0.2131 -1.6095 -3.9844
  819SOL    HW2 3275   2.002   0.194   2.542  0.3777 -2.1635 -2.2734
  819SOL     MW 3276   1.956   0.236   2.476 -0.6401 -0.6457 -1.3421
  820SOL     OW 3277   2.482   1.751   2.652  0.1930  0.3911  0.1373
  820SOL    HW1 3278   2.502   1.678   2.711  0.3707 -3.2377 -3.0007
  820SOL    HW2 3279   2.502   1.720   2.567 -0.8132  1.0389  2.7527
  820SOL     MW 3280   2.487   1.737   2.649  0.0837 -0.0023  0.0683
  821SOL     OW 3281   2.599   1.352   1.966 -0.1656  0.1459 -0.6020
  821SOL    HW1 3282   2.609   1.431   1.909 -0.3935 -0.9131 -1.5543
  821SOL    HW2 3283   2.503   1.340   1.971  0.4179  1.9160 -0.3983
  821SOL     MW 3284   2.588   1.360   1.959 -0.1187  0.2397 -0.7008
  822SOL     OW 3285   2.845   2.687   1.455  0.3823  0.4318 -0.0380
  822SOL    HW1 3286   2.838   2.710   1.544 -4.1185 -1.1130 -2.2506
  822SOL    HW2 3287   2.801   2.756   1.411 -0.0174  0.0641 -1.7660
  822SOL     MW 3288   2.838   2.699   1.461 -0.2643  0.1794 -0.5579
  823SOL     OW 3289   2.268   0.456   1.807  0.2393  0.0578  0.0877
  823SOL    HW1 3290   2.359   0.439   1.769  2.8429  0.7622  2.4313
  823SOL    HW2 3291   2.211   0.374   1.797 -1.0942  1.9181  1.9054
  823SOL     MW 3292   2.273   0.443   1.801  0.4069  0.3962  0.6367
  824SOL     OW 3293   2.092   1.398   2.513  0.2674 -0.4185  0.5818
  824SOL    HW1 3294   2.154   1.422   2.450 -1.9700  1.9177 -0.8941
  824SOL    HW2 3295   2.062   1.483   2.542  1.3149  0.9285  1.2321
  824SOL     MW 3296   2.096   1.413   2.508  0.1104  0.0675  0.4728
  825SOL     OW 3297   2.089   2.548   0.363  0.3158  0.1546  0.2137
  825SOL    HW1 3298   2.026   2.483   0.382  2.9534 -0.4186 -0.7935
  825SOL    HW2 3299   2.167   2.492   0.342  1.6744 -2.5119  2.0557
  825SOL     MW 3300   2.091   2.532   0.363  0.8430 -0.2729  0.3238
  826SOL     OW 3301   1.852   2.391   0.472 -1.1108  0.2198 -0.2826
  826SOL    HW1 3302   1.820   2.306   0.507 -0.9507  1.1402  2.1891
  826SOL    HW2 3303   1.838   2.464   0.537  1.8362 -2.7957 -0.3263
  826SOL     MW 3304   1.846   2.390   0.485 -0.7009 -0.0567  0.0377
  827SOL     OW 3305   1.961   2.170   0.838  0.2175  0.3385  0.1274
  827SOL    HW1 3306   1.876   2.190   0.794 -0.5952 -1.8799  2.0594
  827SOL    HW2 3307   1.939   2.113   0.914  0.5382  2.1705 -0.4388
  827SOL     MW 3308   1.947   2.165   0.843  0.1526  0.2875  0.3076
  828SOL     OW 3309   0.055   2.613   0.508  0.5609 -0.5384  0.1892
  828SOL    HW1 3310   0.143   2.624   0.534 -0.1448  0.5171  1.0827
  828SOL    HW2 3311   0.044   2.671   0.431 -0.3715 -0.6834  0.6981
  828SOL     MW 3312   0.065   2.622   0.501  0.3447 -0.4182  0.3743
  829SOL     OW 3313   3.004   2.920   1.208 -0.0105 -0.3657 -0.0213
  829SOL    HW1 3314   2.938   2.906   1.144 -1.7281 -0.4177  0.4636
  829SOL    HW2 3315   3.053   2.833   1.208  1.3740 -2.0263  1.0299
  829SOL     MW 3316   3.002   2.906   1.200 -0.0545 -0.5916  0.1814
  830SOL     OW 3317   2.512   2.847   2.027  0.4487 -0.2543  0.0413
  830SOL    HW1 3318   2.426   2.848   1.975 -1.0154 -0.5223 -3.3509
  830SOL    HW2 3319   2.572   2.816   1.960 -0.4097  0.4096  2.1263
  830SOL     MW 3320   2.508   2.843   2.012  0.1423 -0.2021 -0.1312
  831SOL     OW 3321   2.424   2.438   1.228  0.5064 -0.5187 -0.2697
  831SOL    HW1 3322   2.410   2.381   1.303 -0.6024  3.5911  0.1580
  831SOL    HW2 3323   2.519   2.434   1.210  2.4437 -0.1845 -2.6047
  831SOL     MW 3324   2.435   2.430   1.235  0.6157  0.0676 -0.5214
  832SOL     OW 3325   2.391   2.125   1.790  0.5540 -0.1030 -0.3065
  832SOL    HW1 3326   2.388   2.216   1.826 -0.4723  0.6231  0.8526
  832SOL    HW2 3327   2.481   2.104   1.777 -0.7042  0.7687  0.3065
  832SOL     MW 3328   2.402   2.134   1.793  0.2526  0.1078 -0.0727
  833SOL     OW 3329   1.769   2.519   0.925 -0.1351  0.6230  0.1035
  833SOL    HW1 3330   1.683   2.470   0.949 -4.2775 -2.5392 -1.8920
  833SOL    HW2 3331   1.789   2.563   1.007  3.6072  3.9702  0.7439
  833SOL     MW 3332   1.760   2.518   0.939 -0.1879  0.6474 -0.0753
  834SOL     OW 3333   2.255   2.388   0.582  0.5357 -0.9568  0.1941
  834SOL    HW1 3334   2.212   2.304   0.599  2.8806 -0.4108  2.1213
  834SOL    HW2 3335   2.307   2.368   0.502 -0.6696  0.3863  2.3529
  834SOL     MW 3336   2.256   2.375   0.574  0.6861 -0.7075  0.7332
  835SOL     OW 3337   1.828   2.587   0.671 -0.4947  0.4589  0.0503
  835SOL    HW1 3338   1.817   2.542   0.759 -1.3407 -1.0921  0.1882
  835SOL    HW2 3339   1.867   2.667   0.702  1.8756 -2.8640 -1.4466
  835SOL     MW 3340   1.832   2.591   0.687 -0.2936 -0.1841 -0.1290
  836SOL     OW 3341   2.053   2.208   1.621  0.6426 -0.0081  0.0581
  836SOL    HW1 3342   2.130   2.149   1.601  0.3409 -0.8708  0.4644
  836SOL    HW2 3343   2.088   2.285   1.671  0.1636  3.2239 -3.4714
  836SOL     MW 3344   2.068   2.210   1.625  0.5396  0.3045 -0.3540
  837SOL     OW 3345   2.051   0.160   0.704  0.5683  0.2124 -0.5942
  837SOL    HW1 3346   1.978   0.208   0.658 -0.1807 -2.1426  2.0683
  837SOL    HW2 3347   2.088   0.109   0.633 -0.2734  1.9411  1.1128
  837SOL     MW 3348   2.046   0.160   0.689  0.3584  0.1298 -0.0177
  838SOL     OW 3349   2.865   2.062   0.955  0.1028  0.2021  0.3503
  838SOL    HW1 3350   2.814   1.985   0.976 -0.9161  2.3706 -0.4719
  838SOL    HW2 3351   2.949   2.048   0.990 -0.5721 -0.6875  0.3345
  838SOL     MW 3352   2.869   2.050   0.963 -0.1207  0.3709  0.2398
  839SOL     OW 3353   1.531   2.399   0.952  0.1636 -0.3593  0.0640
  839SOL    HW1 3354   1.505   2.475   1.001 -2.1640 -0.6822  1.3517
  839SOL    HW2 3355   1.548   2.325   1.011 -2.9030 -0.2680  0.9500
  839SOL     MW 3356   1.529   2.399   0.966 -0.5481 -0.3899  0.3508
  840SOL     OW 3357   2.263   2.109   2.432  0.2543  0.6664  0.4575
  840SOL    HW1 3358   2.250   2.171   2.352  0.0701  2.6901 -2.9410
  840SOL    HW2 3359   2.323   2.153   2.491  2.9868  0.4598  0.4796
  840SOL     MW 3360   2.269   2.123   2.429  0.5905  0.9061  0.0120
  841SOL     OW 3361   2.275   2.430   0.061  0.3400 -0.2353  0.0969
  841SOL    HW1 3362   2.294   2.489  -0.007 -0.4272 -2.3803  1.6612
  841SOL    HW2 3363   2.193   2.392   0.034  0.3369  0.0921  1.9829
  841SOL     MW 3364   2.266   2.432   0.048  0.2383 -0.4751  0.5521
  842SOL     OW 3365   2.664   2.005   1.469 -0.2980 -0.4084 -0.7456
  842SOL    HW1 3366   2.606   1.933   1.483 -1.4798 -1.8427 -0.0446
  842SOL    HW2 3367   2.644   2.035   1.386  3.9092  1.0701  2.2822
  842SOL     MW 3368   2.654   2.000   1.460  0.1011 -0.4026 -0.2536
  843SOL     OW 3369   2.629   2.785   1.789  0.4642 -0.2857  0.0280
  843SOL    HW1 3370   2.715   2.742   1.785  0.2259 -1.0648 -1.9154
  843SOL    HW2 3371   2.564   2.721   1.755 -1.4206 -1.7800  0.5592
  843SOL     MW 3372   2.632   2.771   1.784  0.1841 -0.5857 -0.1583
  844SOL     OW 3373   2.686   2.345   1.177  0.7954 -0.1234  0.0411
  844SOL    HW1 3374   2.724   2.380   1.097 -1.2960 -0.7366 -0.7193
  844SOL    HW2 3375   2.745   2.377   1.252  0.6411  1.1858 -3.5399
  844SOL     MW 3376   2.699   2.354   1.176  0.4991 -0.0316 -0.5317
  845SOL     OW 3377   2.860   2.589   0.352 -0.3293  0.4617 -0.3256
  845SOL    HW1 3378   2.804   2.517   0.349  0.8713  2.5490  0.1250
  845SOL    HW2 3379   2.829   2.635   0.428  1.7330 -0.6052  1.4822
  845SOL     MW 3380   2.849   2.585   0.362  0.1012  0.5963 -0.0276
  846SOL     OW 3381   1.512   2.806   0.835  0.3811  0.1989  0.3249
  846SOL    HW1 3382   1.587   2.863   0.810  2.7707  0.4108  0.4430
  846SOL    HW2 3383   1.440   2.839   0.781 -1.3287 -0.3338 -1.6833
  846SOL     MW 3384   1.513   2.818   0.825  0.4708  0.1566  0.0755
  847SOL     OW 3385   2.465   1.905   0.184  0.3086 -0.3834 -0.3670
  847SOL    HW1 3386   2.499   1.826   0.232 -1.2836  0.8628 -0.1049
  847SOL    HW2 3387   2.437   1.887   0.091  1.2460 -0.3234 -1.1253
  847SOL     MW 3388   2.465   1.893   0.178  0.2222 -0.2111 -0.4324
  848SOL     OW 3389   2.546   2.101   1.178 -0.4540  0.1520 -0.6555
  848SOL    HW1 3390   2.599   2.181   1.164  0.5782  0.4965  0.0496
  848SOL    HW2 3391   2.527   2.077   1.087 -1.4491  1.0549 -0.6954
  848SOL     MW 3392   2.551   2.108   1.164 -0.4491  0.3166 -0.5678
  849SOL     OW 3393   2.048   2.801   0.802 -0.2424 -0.7285  0.0873
  849SOL    HW1 3394   2.068   2.765   0.887 -2.0334  0.4492  0.9782
  849SOL    HW2 3395   2.112   2.756   0.741  0.8306  0.4116  0.3329
  849SOL     MW 3396   2.059   2.790   0.805 -0.3371 -0.4227  0.2372
  850SOL     OW 3397   2.280   1.799   1.632  1.1661  0.0865  0.0719
  850SOL    HW1 3398   2.197   1.762   1.614 -0.0433 -1.1784  0.3003
  850SOL    HW2 3399   2.282   1.888   1.584  1.6807  0.3727  0.0824
  850SOL     MW 3400   2.269   1.806   1.623  1.0744 -0.0426  0.1034
  851SOL     OW 3401   2.376   2.353   0.291 -0.3931 -0.2411  0.0635
  851SOL    HW1 3402   2.332   2.377   0.208  0.6988  2.8741 -0.4954
  851SOL    HW2 3403   2.467   2.381   0.269 -1.1394  2.7380  0.0054
  851SOL     MW 3404   2.382   2.360   0.277 -0.3475  0.5630 -0.0179
  852SOL     OW 3405   2.341   2.081   0.327 -0.0601 -0.2572 -0.3749
  852SOL    HW1 3406   2.389   2.162   0.310  0.4685  0.5577  1.3452
  852SOL    HW2 3407   2.402   2.025   0.275 -1.0431  1.5240 -1.4642
  852SOL     MW 3408   2.355   2.085   0.318 -0.1200  0.0853 -0.2917
  853SOL     OW 3409   2.461   2.367   1.887  0.3066 -0.6540  0.1910
  853SOL    HW1 3410   2.472   2.440   1.827 -0.8363 -2.1974  1.4434
  853SOL    HW2 3411   2.545   2.372   1.932 -0.9522 -3.1964 -0.4545
  853SOL     MW 3412   2.473   2.377   1.885 -0.0103 -1.1930  0.2711
  854SOL     OW 3413   2.846   2.235   0.730  0.0452 -0.4601 -0.0889
  854SOL    HW1 3414   2.760   2.228   0.682  0.8592  1.2371 -1.4703
  854SOL    HW2 3415   2.849   2.155   0.786 -0.0259  0.8809  0.7540
  854SOL     MW 3416   2.835   2.224   0.731  0.1432 -0.0592 -0.1599
  855SOL     OW 3417   2.701   2.359   0.354  0.5358 -0.0010  0.2753
  855SOL    HW1 3418   2.646   2.376   0.436 -1.6770 -0.7413  0.2483
  855SOL    HW2 3419   2.737   2.271   0.362 -0.8583  0.4852  0.2927
  855SOL     MW 3420   2.699   2.350   0.366  0.0599 -0.0346  0.2741
  856SOL     OW 3421   2.140   1.902   0.241 -0.3256 -0.5801  0.1435
  856SOL    HW1 3422   2.051   1.920   0.276 -1.3481 -2.0971 -3.2320
  856SOL    HW2 3423   2.207   1.963   0.273 -0.1512  2.0987 -4.7273
  856SOL     MW 3424   2.137   1.912   0.249 -0.4375 -0.4268 -0.9445
  857SOL     OW 3425   2.470   1.956   0.528  0.2264 -0.2464  0.3076
  857SOL    HW1 3426   2.410   2.004   0.467  0.0021  0.1900 -1.0792
  857SOL    HW2 3427   2.427   1.967   0.616  1.9329 -0.1240  0.4866
  857SOL     MW 3428   2.456   1.964   0.532  0.4219 -0.1726  0.1482
  858SOL     OW 3429   2.908   2.670   1.789 -0.0203 -0.3465  0.2661
  858SOL    HW1 3430   3.007   2.677   1.793 -0.5837 -1.8182 -1.8143
  858SOL    HW2 3431   2.892   2.575   1.774 -0.7856 -0.8928 -0.6674
  858SOL     MW 3432   2.919   2.658   1.787 -0.1956 -0.6128 -0.1315
  859SOL     OW 3433   2.044   2.655   1.064 -1.8025  0.7354  0.3915
  859SOL    HW1 3434   2.072   2.562   1.071  1.5803 -0.1276  2.2837
  859SOL    HW2 3435   2.120   2.708   1.100 -0.3493  0.0544 -0.3209
  859SOL     MW 3436   2.058   2.650   1.069 -1.1644  0.5317  0.5472
  860SOL     OW 3437   2.678   2.645   0.136 -0.3194  0.2475  0.3394
  860SOL    HW1 3438   2.725   2.663   0.226  0.2055 -1.3864 -0.3024
  860SOL    HW2 3439   2.680   2.734   0.088  0.7067  0.5288  0.7363
  860SOL     MW 3440   2.685   2.659   0.142 -0.1147  0.0690  0.3071
  861SOL     OW 3441   1.633   2.177   1.113  0.1963  0.2278  0.2109
  861SOL    HW1 3442   1.645   2.237   1.185 -1.2351  2.0601  0.4241
  861SOL    HW2 3443   1.570   2.116   1.156 -2.0141  1.6044  0.9111
  861SOL     MW 3444   1.626   2.177   1.128 -0.2842  0.6512  0.3314
  862SOL     OW 3445   2.511   1.774   1.482  0.2178  0.2268 -0.0186
  862SOL    HW1 3446   2.428   1.771   1.528 -3.0265 -0.3521 -2.1827
  862SOL    HW2 3447   2.484   1.772   1.390 -0.1340 -1.5077  0.5390
  862SOL     MW 3448   2.496   1.773   1.476 -0.2567 -0.0784 -0.2306
  863SOL     OW 3449   2.982   1.781   1.031  0.1221  0.2272 -0.0091
  863SOL    HW1 3450   3.055   1.743   1.076 -0.8050  1.1939 -0.7885
  863SOL    HW2 3451   2.955   1.853   1.088 -1.2857 -0.6955 -2.0336
  863SOL     MW 3452   2.988   1.786   1.044 -0.1860  0.2330 -0.3790
  864SOL     OW 3453   0.066   1.833   0.826  0.0177 -0.1450 -0.1044
  864SOL    HW1 3454   0.009   1.827   0.900 -1.5296  2.1079 -3.5942
  864SOL    HW2 3455   0.019   1.801   0.751  4.3738  3.1049 -0.9809
  864SOL     MW 3456   0.053   1.828   0.826  0.3883  0.5811 -0.6805
  865SOL     OW 3457   2.594   2.156   0.033  0.9633  0.2452  0.4373
  865SOL    HW1 3458   2.597   2.066   0.067 -0.8790 -2.1541  0.0209
  865SOL    HW2 3459   2.535   2.169  -0.043  0.5791 -0.7013 -0.4978
  865SOL     MW 3460   2.587   2.146   0.028  0.6695 -0.1963  0.2590
  866SOL     OW 3461   2.646   2.332   1.593 -0.7453  0.0501 -0.1041
  866SOL    HW1 3462   2.648   2.239   1.619  0.3309 -0.2277  1.3888
  866SOL    HW2 3463   2.703   2.339   1.515 -0.4782  1.1697  2.7347
  866SOL     MW 3464   2.654   2.321   1.586 -0.5681  0.1612  0.4675
  867SOL     OW 3465   0.082   2.684   1.751  0.1209  0.1985 -0.4259
  867SOL    HW1 3466   0.127   2.723   1.828  0.4769 -2.4940 -0.2159
  867SOL    HW2 3467   0.096   2.749   1.675 -3.2729  3.0637 -0.1271
  867SOL     MW 3468   0.090   2.698   1.751 -0.2799  0.2213 -0.3587
  868SOL     OW 3469   2.758   2.694   0.583 -0.1835  0.0948 -0.0534
  868SOL    HW1 3470   2.686   2.625   0.588 -0.3158 -2.6879 -1.0487
  868SOL    HW2 3471   2.710   2.769   0.558 -0.7141 -1.1098 -1.1142
  868SOL     MW 3472   2.742   2.695   0.581 -0.2710 -0.4313 -0.3247
  869SOL     OW 3473   2.096   2.379   1.025  0.3350  0.9523 -0.5896
  869SOL    HW1 3474   2.173   2.373   0.967  0.5210  1.3679 -1.5528
  869SOL    HW2 3475   2.023   2.367   0.965  0.8254 -0.8014  0.9023
  869SOL     MW 3476   2.097   2.377   1.010  0.4242  0.7758 -0.5199
  870SOL     OW 3477   2.169   0.076   0.477  0.1664  0.0660  0.0238
  870SOL    HW1 3478   2.248   0.118   0.433  0.0376  2.0970 -2.6020
  870SOL    HW2 3479   2.195  -0.017   0.473  1.8664  2.8555  0.5123
  870SOL     MW 3480   2.183   0.069   0.471  0.3737  0.7020 -0.2582
  871SOL     OW 3481   2.459   2.078   0.933  0.3753  0.3218  0.6694
  871SOL    HW1 3482   2.399   2.041   0.865  1.3202  1.0371 -3.2614
  871SOL    HW2 3483   2.422   2.163   0.960  1.4129 -0.0125 -2.2598
  871SOL     MW 3484   2.446   2.084   0.927  0.6369  0.3721 -0.2357
  872SOL     OW 3485   2.059   2.534   1.505  0.0269  0.4623  0.0643
  872SOL    HW1 3486   1.991   2.571   1.558  1.8327  1.5309 -0.5100
  872SOL    HW2 3487   2.019   2.481   1.432  0.7626  2.2922  0.2978
  872SOL     MW 3488   2.045   2.532   1.503  0.3622  0.8447  0.0193
  873SOL     OW 3489   2.846   2.114   1.939  0.2523  0.4120 -1.0448
  873SOL    HW1 3490   2.839   2.164   2.014 -1.1340 -0.1391 -0.8335
  873SOL    HW2 3491   2.917   2.158   1.891 -1.2436  2.1748 -1.5331
  873SOL     MW 3492   2.855   2.126   1.942 -0.1280  0.5719 -1.0814
  874SOL     OW 3493   2.339   1.427   2.381 -0.2404  0.1139 -0.7343
  874SOL    HW1 3494   2.306   1.380   2.305  2.9463 -2.0288  0.2390
  874SOL    HW2 3495   2.409   1.369   2.409  2.3607  1.1327 -0.0107
  874SOL     MW 3496   2.344   1.413   2.375  0.5232 -0.0344 -0.5105
  875SOL     OW 3497   2.364   2.341   0.972  0.1450 -0.3117  0.0734
  875SOL    HW1 3498   2.420   2.370   0.901 -1.8164  0.3760 -0.0274
  875SOL    HW2 3499   2.390   2.387   1.054 -1.0660  0.6159  1.4782
  875SOL     MW 3500   2.375   2.351   0.974 -0.2736 -0.0986  0.2454
  876SOL     OW 3501   3.072   2.258   1.335 -0.5469 -0.1768 -1.1254
  876SOL    HW1 3502   3.101   2.293   1.254  4.9835 -0.0580  0.0647
  876SOL    HW2 3503   3.146   2.269   1.393 -0.5126 -2.6997 -1.9509
  876SOL     MW 3504   3.085   2.264   1.332  0.1873 -0.4940 -1.0773
  877SOL     OW 3505   0.010   2.811   0.322  0.2250  0.4430 -0.0166
  877SOL    HW1 3506   0.082   2.868   0.304 -0.2453  0.4427  0.9865
  877SOL    HW2 3507  -0.003   2.756   0.248 -0.6798 -0.3724  0.1711
  877SOL     MW 3508   0.018   2.811   0.310  0.0436  0.3354  0.1405
  878SOL     OW 3509   2.431   1.761   1.223 -0.1674 -0.2320  0.0305
  878SOL    HW1 3510   2.349   1.713   1.247 -0.6538 -1.7471 -0.1866
  878SOL    HW2 3511   2.485   1.694   1.179 -2.7328 -0.3364  1.7391
  878SOL     MW 3512   2.427   1.745   1.220 -0.5700 -0.4457  0.2273
  879SOL     OW 3513   2.768   2.435   0.938  0.2359  0.2946 -0.3709
  879SOL    HW1 3514   2.818   2.517   0.927  1.5405  1.0482 -3.6586
  879SOL    HW2 3515   2.828   2.375   0.887  1.3739 -1.5818 -3.1790
  879SOL     MW 3516   2.782   2.438   0.929  0.5582  0.1464 -1.1752
  880SOL     OW 3517   2.591   2.192   0.662 -0.2562  0.6299 -0.2119
  880SOL    HW1 3518   2.565   2.177   0.751 -1.5722 -0.2556  1.3831
  880SOL    HW2 3519   2.545   2.121   0.611 -1.9453 -4.4588 -2.8605
  880SOL     MW 3520   2.582   2.181   0.667 -0.6527 -0.1584 -0.3509
  881SOL     OW 3521   3.002   2.738   0.690 -0.1603  0.0168  0.0156
  881SOL    HW1 3522   2.929   2.708   0.634  2.6908  1.3555 -2.5001
  881SOL    HW2 3523   3.078   2.698   0.636  4.0270 -0.7762  0.3392
  881SOL     MW 3524   3.002   2.729   0.675  0.7683  0.0888 -0.2736
  882SOL     OW 3525   2.262   2.853   1.952 -0.1079  0.6171 -0.3066
  882SOL    HW1 3526   2.260   2.859   1.851 -0.4116 -1.0901 -0.9780
  882SOL    HW2 3527   2.217   2.767   1.980  2.2115 -1.5312  1.1899
  882SOL     MW 3528   2.256   2.842   1.942  0.1580  0.1084 -0.1977
  883SOL     OW 3529   2.353   2.202   1.354  0.4480 -0.0011 -0.0682
  883SOL    HW1 3530   2.429   2.170   1.297 -2.9089  1.4358  0.4049
  883SOL    HW2 3531   2.274   2.202   1.293  1.9286 -0.3268 -0.9411
  883SOL     MW 3532   2.353   2.198   1.338  0.2004  0.1455 -0.1210
  884SOL     OW 3533   1.976   1.799   1.055  0.7388 -0.0873 -0.0963
  884SOL    HW1 3534   1.913   1.870   1.038  0.5475  0.1515  1.0096
  884SOL    HW2 3535   2.051   1.840   1.092  0.8086 -0.8615 -1.2214
  884SOL     MW 3536   1.977   1.814   1.057  0.7227 -0.1579 -0.0988
  885SOL     OW 3537   2.835   2.396   1.784 -0.4062  0.0990 -0.3494
  885SOL    HW1 3538   2.910   2.336   1.749  0.7582  0.1108 -0.4127
  885SOL    HW2 3539   2.763   2.394   1.720  1.2240  0.9684  1.2143
  885SOL     MW 3540   2.836   2.388   1.771 -0.0375  0.2153 -0.1515
  886SOL     OW 3541   2.841   2.428   1.392  0.4311 -0.1979 -0.2588
  886SOL    HW1 3542   2.927   2.403   1.385  0.5821  0.8499  1.1766
  886SOL    HW2 3543   2.845   2.515   1.430 -0.7274 -1.1414  1.8268
  886SOL     MW 3544   2.853   2.436   1.396  0.2982 -0.1841  0.2057
  887SOL     OW 3545   2.292   2.676   1.529  0.2442  0.1990 -0.5158
  887SOL    HW1 3546   2.317   2.725   1.449  0.9415  0.5409 -2.2518
  887SOL    HW2 3547   2.209   2.636   1.501 -1.0092  1.7570 -1.9727
  887SOL     MW 3548   2.285   2.677   1.514  0.1708  0.4496 -0.9371
  888SOL     OW 3549   1.903   2.178   1.391  0.7189  0.5869 -0.5359
  888SOL    HW1 3550   1.976   2.169   1.325  0.7077 -1.0619 -0.6396
  888SOL    HW2 3551   1.952   2.195   1.476 -0.9527 -0.0769  0.2590
  888SOL     MW 3552   1.919   2.179   1.393  0.4969  0.2818 -0.4447
  889SOL     OW 3553   2.348   1.989   2.055 -0.2074 -0.3154 -0.5403
  889SOL    HW1 3554   2.437   1.962   2.066  1.2617  1.2135  1.1273
  889SOL    HW2 3555   2.351   2.051   1.981  0.9579  1.2927  0.3560
  889SOL     MW 3556   2.360   1.994   2.047  0.1402  0.0985 -0.2020
  890SOL     OW 3557   0.128   2.376   0.154  0.4507 -0.7778  0.3593
  890SOL    HW1 3558   0.059   2.450   0.165 -0.7163 -1.9938 -0.4063
  890SOL    HW2 3559   0.102   2.307   0.219  2.5098  0.1493 -0.3428
  890SOL     MW 3560   0.115   2.377   0.164  0.5684 -0.8159  0.1656
  891SOL     OW 3561   3.028   1.976   1.233 -0.3745  0.0256 -0.2134
  891SOL    HW1 3562   3.111   1.919   1.229 -2.4535 -1.0437 -2.8043
  891SOL    HW2 3563   3.068   2.062   1.257 -3.2565  1.7187  0.9172
  891SOL     MW 3564   3.045   1.980   1.235 -1.0290  0.1079 -0.4061
  892SOL     OW 3565   2.463   2.376   2.761  0.3983 -0.5305  0.7171
  892SOL    HW1 3566   2.458   2.289   2.799 -0.5532  1.6287 -2.6503
  892SOL    HW2 3567   2.550   2.403   2.784 -1.4762  1.1051  0.4987
  892SOL     MW 3568   2.474   2.368   2.769  0.0254 -0.0298  0.2440
  893SOL     OW 3569   1.650   2.430   1.269  0.3633 -0.1770  1.1356
  893SOL    HW1 3570   1.558   2.427   1.304 -0.1582  0.2682  0.3643
  893SOL    HW2 3571   1.671   2.514   1.312 -0.6613  0.5284  1.2915
  893SOL     MW 3572   1.641   2.441   1.280  0.1593 -0.0252  1.0544
  894SOL     OW 3573   2.729   1.858   0.469  0.3822 -0.7196 -0.2108
  894SOL    HW1 3574   2.643   1.888   0.495 -2.5766  0.5996  1.4077
  894SOL    HW2 3575   2.709   1.805   0.397  1.0339 -0.0264 -2.4335
  894SOL     MW 3576   2.715   1.855   0.463  0.0778 -0.4541 -0.2905
  895SOL     OW 3577   2.119   2.181   1.227 -0.2795  0.1295  0.0902
  895SOL    HW1 3578   2.117   2.244   1.155  1.6248  0.7011  1.1840
  895SOL    HW2 3579   2.141   2.104   1.171 -0.4081 -0.0740  0.3674
  895SOL     MW 3580   2.121   2.179   1.210 -0.0452  0.1781  0.2711
  896SOL     OW 3581   2.239   2.846   1.101 -0.3906  0.1449  0.2328
  896SOL    HW1 3582   2.298   2.814   1.173  0.9284  2.9264  1.2397
  896SOL    HW2 3583   2.157   2.883   1.141  2.1523  1.5249 -3.1137
  896SOL     MW 3584   2.236   2.846   1.116  0.1190  0.6939 -0.0759
  897SOL     OW 3585   3.074   3.029   3.052  0.2081  0.4909  0.2424
  897SOL    HW1 3586   3.129   2.944   3.058 -0.7815 -0.6712 -1.6101
  897SOL    HW2 3587   3.030   3.038   2.966  0.9881 -3.2600  1.2622
  897SOL     MW 3588   3.075   3.019   3.041  0.1804 -0.1573  0.1325
  898SOL     OW 3589   2.037   0.179   1.460 -0.3293 -0.0866 -0.5551
  898SOL    HW1 3590   2.027   0.085   1.489  0.6109 -0.9765 -1.9328
  898SOL    HW2 3591   2.057   0.174   1.368 -2.1552 -0.0237 -1.5511
  898SOL     MW 3592   2.038   0.166   1.452 -0.4461 -0.1957 -0.8682
  899SOL     OW 3593   2.972   2.989   0.612  0.1993  0.7023 -0.1820
  899SOL    HW1 3594   2.999   2.897   0.643  0.4382 -1.6628  0.6366
  899SOL    HW2 3595   2.883   3.003   0.648 -0.4219  0.5646  0.6158
  899SOL     MW 3596   2.963   2.979   0.621  0.1489  0.3721  0.0313
  900SOL     OW 3597   0.035   2.416   1.097  0.4824 -0.0828 -0.1376
  900SOL    HW1 3598   0.036   2.515   1.093 -0.6381  1.2623  1.7237
  900SOL    HW2 3599   0.020   2.390   1.004  0.1686  1.9194 -0.6599
  900SOL     MW 3600   0.033   2.426   1.084  0.2931  0.3588  0.0391
  901SOL     OW 3601   1.750   2.782   1.790  0.0182 -0.3108 -0.4638
  901SOL    HW1 3602   1.836   2.758   1.766  0.7113  0.5103 -0.0086
  901SOL    HW2 3603   1.689   2.777   1.715  1.2184  2.1637 -1.2729
  901SOL     MW 3604   1.754   2.778   1.777  0.2680  0.1240 -0.5105
  902SOL     OW 3605   2.648   2.091   1.739 -0.3964  0.4061 -0.8107
  902SOL    HW1 3606   2.681   2.024   1.672  0.8305 -2.3962  0.5223
  902SOL    HW2 3607   2.716   2.088   1.806 -1.0623 -0.6608 -0.8529
  902SOL     MW 3608   2.661   2.082   1.739 -0.3224 -0.1044 -0.6404
  903SOL     OW 3609   1.572   2.623   0.638  0.2195 -0.1943 -0.0106
  903SOL    HW1 3610   1.667   2.615   0.655  0.8117 -4.0146  2.1564
  903SOL    HW2 3611   1.566   2.682   0.713  2.2185  0.4203 -0.7107
  903SOL     MW 3612   1.583   2.629   0.650  0.5614 -0.6173  0.1829
  904SOL     OW 3613   2.471   2.569   1.690  0.1361 -0.4845  0.3988
  904SOL    HW1 3614   2.393   2.603   1.642 -2.1764 -1.5743  1.3326
  904SOL    HW2 3615   2.495   2.496   1.636  0.8936  2.1426  1.8211
  904SOL     MW 3616   2.463   2.564   1.676 -0.0690 -0.2817  0.7096
  905SOL     OW 3617   2.325   2.493   2.098 -0.1342  0.1717 -0.1421
  905SOL    HW1 3618   2.347   2.438   2.028 -2.7995  0.3011 -3.3914
  905SOL    HW2 3619   2.264   2.434   2.147  0.0539 -0.8334 -2.8155
  905SOL     MW 3620   2.320   2.478   2.095 -0.4610  0.0561 -0.9235
  906SOL     OW 3621   2.535   2.480   0.823 -0.0626  0.9177  0.5285
  906SOL    HW1 3622   2.621   2.464   0.864  1.2071 -2.5007 -3.0909
  906SOL    HW2 3623   2.508   2.565   0.851 -2.5758 -1.6430 -0.8585
  906SOL     MW 3624   2.543   2.489   0.832 -0.2267  0.1288 -0.1320
  907SOL     OW 3625   2.655   2.881   1.291 -0.3133 -0.1237 -0.4396
  907SOL    HW1 3626   2.729   2.931   1.331  1.8039  0.7961 -1.1457
  907SOL    HW2 3627   2.693   2.867   1.200 -1.8546 -2.3932  0.1953
  907SOL     MW 3628   2.670   2.886   1.284 -0.2373 -0.3018 -0.4490
  908SOL     OW 3629   2.719   2.398   0.010 -0.3018  0.3899 -0.1994
  908SOL    HW1 3630   2.663   2.322   0.037  0.5512 -2.2785 -1.3912
  908SOL    HW2 3631   2.703   2.483   0.058 -1.6547 -0.3330  0.4468
  908SOL     MW 3632   2.709   2.400   0.020 -0.3678 -0.0575 -0.2714
  909SOL     OW 3633   1.769   0.090   1.177 -0.3875  0.0145  0.4696
  909SOL    HW1 3634   1.754   0.165   1.123 -0.5646 -1.2885  1.6141
  909SOL    HW2 3635   1.749   0.128   1.263  1.1784 -1.6832 -0.7195
  909SOL     MW 3636   1.764   0.105   1.181 -0.2042 -0.3814  0.4637
  910SOL     OW 3637   2.218   1.707   0.408 -0.2320  0.2655 -0.1669
  910SOL    HW1 3638   2.159   1.633   0.381  1.2621 -0.7005  0.2551
  910SOL    HW2 3639   2.200   1.775   0.339 -0.2047 -0.7486 -0.3207
  910SOL     MW 3640   2.208   1.706   0.395 -0.0313  0.0043 -0.1316
  911SOL     OW 3641   2.267   2.054   1.570  0.2696  0.1786 -0.1937
  911SOL    HW1 3642   2.308   2.085   1.649  0.9383 -0.6262 -0.6968
  911SOL    HW2 3643   2.310   2.103   1.495 -0.9798 -1.3947  1.1282
  911SOL     MW 3644   2.278   2.065   1.571  0.1930 -0.1351 -0.0857
  912SOL     OW 3645   2.926   1.904   1.491  0.0861  0.1553 -0.0750
  912SOL    HW1 3646   2.973   1.928   1.404  2.4706  0.3641  2.7123
  912SOL    HW2 3647   2.842   1.953   1.479  1.6349 -1.2843 -0.5063
  912SOL     MW 3648   2.921   1.914   1.478  0.6051 -0.0071  0.2358
  913SOL     OW 3649   2.616   3.087   0.366  0.6622  0.2009  0.0378
  913SOL    HW1 3650   2.704   3.047   0.360  1.7146 -1.9695  1.8568
  913SOL    HW2 3651   2.555   3.033   0.307 -0.2104 -3.4845 -0.0195
  913SOL     MW 3652   2.619   3.075   0.357  0.6859 -0.5717  0.2702
  914SOL     OW 3653   2.687   1.833   3.023 -0.4041  0.4059  0.3148
  914SOL    HW1 3654   2.720   1.916   2.994  1.9765 -1.0439 -0.1755
  914SOL    HW2 3655   2.599   1.819   2.986  1.6550  1.2317  0.5518
  914SOL     MW 3656   2.680   1.842   3.014  0.1817  0.3236  0.2814
  915SOL     OW 3657   1.762   0.182   0.230  0.5664 -0.7347 -0.1310
  915SOL    HW1 3658   1.824   0.106   0.252 -0.2425  1.0844 -1.3065
  915SOL    HW2 3659   1.676   0.137   0.217 -0.9776 -1.6890 -0.5142
  915SOL     MW 3660   1.759   0.166   0.231  0.2559 -0.6206 -0.3366
  916SOL     OW 3661   1.780   2.156   1.988 -0.5598  0.4469  0.0299
  916SOL    HW1 3662   1.843   2.226   1.964 -0.6455  1.1166  0.6379
  916SOL    HW2 3663   1.784   2.102   1.906  1.7900 -1.3955  1.1037
  916SOL     MW 3664   1.789   2.158   1.974 -0.2610  0.2922  0.2518
  917SOL     OW 3665   2.502   2.201   2.549  0.0032  0.0760 -0.3171
  917SOL    HW1 3666   2.480   2.259   2.620 -1.1131  0.3693  0.3252
  917SOL    HW2 3667   2.584   2.233   2.514  2.0059  0.7063 -0.0935
  917SOL     MW 3668   2.510   2.213   2.554  0.1201  0.1978 -0.2028
  918SOL     OW 3669   1.983   1.592   2.695  0.5776  0.5005  0.1258
  918SOL    HW1 3670   1.923   1.639   2.634  2.8339  2.8309 -1.1197
  918SOL    HW2 3671   2.070   1.623   2.673  2.2744  1.2844 -0.6280
  918SOL     MW 3672   1.987   1.602   2.684  1.0992  0.9114 -0.1380
  919SOL     OW 3673   3.060   2.408   2.314 -0.4049  0.1906 -0.4494
  919SOL    HW1 3674   2.998   2.333   2.319  0.5226  0.8404  1.4724
  919SOL    HW2 3675   3.112   2.409   2.227  1.6849  0.0150 -3.5333
  919SOL     MW 3676   3.058   2.398   2.303 -0.0068  0.2532 -0.6027
  920SOL     OW 3677   2.699   2.866   3.076 -0.3676  0.0067 -0.0411
  920SOL    HW1 3678   2.613   2.886   3.043 -0.6907 -1.2278 -1.5585
  920SOL    HW2 3679   2.747   2.835   2.999  2.6470  0.0584 -1.4907
  920SOL     MW 3680   2.694   2.864   3.062 -0.0125 -0.1494 -0.4326
  921SOL     OW 3681   2.459   2.602   2.596 -0.4263  0.0021  0.2750
  921SOL    HW1 3682   2.501   2.596   2.510  0.3539  0.3535  0.3048
  921SOL    HW2 3683   2.462   2.523   2.642 -0.9706  2.2596  0.5963
  921SOL     MW 3684   2.465   2.591   2.591 -0.3952  0.3463  0.3213
  922SOL     OW 3685   2.019   2.807   0.312  0.0968 -0.0658  0.7160
  922SOL    HW1 3686   1.990   2.811   0.219  1.6291 -1.1971 -0.2078
  922SOL    HW2 3687   2.020   2.706   0.327  0.7778 -0.9542  0.9318
  922SOL     MW 3688   2.016   2.794   0.302  0.3888 -0.3323  0.6226
  923SOL     OW 3689   2.210   2.879   1.694  0.2374  0.0514  0.3603
  923SOL    HW1 3690   2.241   2.812   1.630 -0.6818  0.5088  0.3268
  923SOL    HW2 3691   2.158   2.947   1.654 -0.1819 -0.3298  2.8393
  923SOL     MW 3692   2.207   2.879   1.680  0.0608  0.0615  0.6830
  924SOL     OW 3693   1.144   2.763   2.633 -0.0472 -0.1321  0.4209
  924SOL    HW1 3694   1.238   2.784   2.633 -0.3945  3.4657  0.4431
  924SOL    HW2 3695   1.147   2.682   2.675 -0.1296  1.3838 -0.6232
  924SOL     MW 3696   1.157   2.755   2.638 -0.1039  0.5426  0.2861
  925SOL     OW 3697   3.043   0.216   2.686  0.2299  0.1263  0.1631
  925SOL    HW1 3698   2.985   0.230   2.604  1.2471  2.0777 -0.1758
  925SOL    HW2 3699   3.001   0.280   2.748  0.6370 -1.0277 -2.0303
  925SOL     MW 3700   3.030   0.226   2.684  0.4178  0.2315 -0.1710
  926SOL     OW 3701   2.704   2.391   2.027 -0.4479 -0.1547  0.1287
  926SOL    HW1 3702   2.768   2.461   2.066  2.3133  0.2634  1.2568
  926SOL    HW2 3703   2.747   2.372   1.938  1.5645 -1.4584 -0.9421
  926SOL     MW 3704   2.718   2.398   2.021  0.1819 -0.2716  0.1363
  927SOL     OW 3705   2.363   0.184   0.310  0.0260  0.2979 -0.3778
  927SOL    HW1 3706   2.457   0.194   0.311 -0.6935  1.7486  0.9007
  927SOL    HW2 3707   2.343   0.136   0.222 -0.3095 -1.1030 -0.7316
  927SOL     MW 3708   2.373   0.179   0.298 -0.1132  0.3045 -0.2558
  928SOL     OW 3709   2.150   2.442   1.754  0.5114 -0.1764  0.4580
  928SOL    HW1 3710   2.099   2.464   1.673  0.7490  0.1505  2.4917
  928SOL    HW2 3711   2.221   2.503   1.748 -1.7111  1.7162 -1.8214
  928SOL     MW 3712   2.153   2.453   1.742  0.2495  0.1164  0.4256
  929SOL     OW 3713   2.722   2.344   2.473  0.0276 -0.0654 -0.2855
  929SOL    HW1 3714   2.751   2.289   2.394  2.9280  0.4157  1.4263
  929SOL    HW2 3715   2.799   2.344   2.537  4.0968  1.5432 -0.9249
  929SOL     MW 3716   2.736   2.337   2.471  0.9472  0.2103 -0.1440
  930SOL     OW 3717   2.025   2.831   2.637 -0.2920 -0.2025 -0.4732
  930SOL    HW1 3718   2.031   2.775   2.722 -0.6453  1.6793 -1.0641
  930SOL    HW2 3719   2.111   2.870   2.628 -1.4302 -0.0119  0.3013
  930SOL     MW 3720   2.037   2.829   2.647 -0.4888  0.0709 -0.4490
  931SOL     OW 3721   3.048   2.750   2.474  0.2068  0.1379  0.1207
  931SOL    HW1 3722   3.073   2.778   2.562 -1.3728  0.9754  0.5906
  931SOL    HW2 3723   3.128   2.695   2.445  3.9198  0.1120  1.0604
  931SOL     MW 3724   3.062   2.746   2.482  0.4883  0.2450  0.3067
  932SOL     OW 3725   2.915   1.855   2.488 -0.1431 -0.4221  0.1502
  932SOL    HW1 3726   2.972   1.928   2.509 -2.5843  0.9357 -0.4364
  932SOL    HW2 3727   2.867   1.888   2.415 -0.0995 -0.4868  0.6634
  932SOL     MW 3728   2.916   1.869   2.481 -0.4594 -0.2515  0.1405
  933SOL     OW 3729   2.038   2.816   2.205 -0.2037 -0.3071  0.1525
  933SOL    HW1 3730   2.118   2.860   2.224 -0.9888 -3.5511 -2.6064
  933SOL    HW2 3731   1.967   2.879   2.203 -1.5882  1.2577 -2.8365
  933SOL     MW 3732   2.039   2.830   2.207 -0.4900 -0.5287 -0.6059
  934SOL     OW 3733   1.994   2.647   2.431 -0.1679 -0.3513 -0.5559
  934SOL    HW1 3734   1.992   2.713   2.506 -1.0320  0.1943  3.5234
  934SOL    HW2 3735   2.010   2.694   2.349  1.0160 -0.6133  1.0814
  934SOL     MW 3736   1.996   2.662   2.430 -0.1257 -0.3139  0.1983
  935SOL     OW 3737   2.671   1.598   1.857 -0.1848 -0.2288 -0.5627
  935SOL    HW1 3738   2.764   1.600   1.847  0.6557 -1.5149  1.8735
  935SOL    HW2 3739   2.642   1.596   1.772  1.7264  2.3218 -0.4185
  935SOL     MW 3740   2.679   1.598   1.844  0.1783 -0.0620 -0.2222
  936SOL     OW 3741   2.988   2.273   3.095  0.3782  0.2696  0.6291
  936SOL    HW1 3742   3.035   2.304   3.170 -0.3150 -1.8073 -2.3825
  936SOL    HW2 3743   2.903   2.317   3.095  0.3802  2.1386  0.4247
  936SOL     MW 3744   2.983   2.283   3.105  0.2870  0.2422  0.2048
  937SOL     OW 3745   2.013   2.166   2.654 -0.0982  0.2417  0.5363
  937SOL    HW1 3746   2.104   2.154   2.673  2.4536  0.7736  4.2447
  937SOL    HW2 3747   2.005   2.124   2.563  1.3686 -0.9478 -0.9304
  937SOL     MW 3748   2.024   2.159   2.645  0.4320  0.1549  0.8321
  938SOL     OW 3749   2.276   1.773   1.921 -0.1649 -0.0126 -0.2245
  938SOL    HW1 3750   2.281   1.793   1.828 -0.4656 -1.5716  0.3841
  938SOL    HW2 3751   2.281   1.859   1.965  2.6332 -1.0258 -0.5376
  938SOL     MW 3752   2.277   1.787   1.914  0.1646 -0.3520 -0.1855
  939SOL     OW 3753   2.789   1.963   2.259 -0.3511  0.3462 -0.0789
  939SOL    HW1 3754   2.796   1.909   2.181 -2.1135 -0.0749  1.9402
  939SOL    HW2 3755   2.697   1.960   2.271  3.1100 -1.5028  1.3381
  939SOL     MW 3756   2.778   1.956   2.251 -0.1270  0.0467  0.3744
  940SOL     OW 3757   2.293   0.134   2.720 -0.2489 -0.3783 -0.3713
  940SOL    HW1 3758   2.298   0.046   2.677 -0.1333  0.9902  1.8579
  940SOL    HW2 3759   2.354   0.139   2.796  0.2728 -1.8295 -2.1543
  940SOL     MW 3760   2.302   0.123   2.724 -0.1648 -0.3892 -0.3124
  941SOL     OW 3761   0.142   2.425   2.075  0.3201 -0.0898 -0.2522
  941SOL    HW1 3762   0.216   2.372   2.098 -3.2993  2.7974  1.0239
  941SOL    HW2 3763   0.139   2.415   1.977 -1.0268  1.2872 -1.6485
  941SOL     MW 3764   0.151   2.417   2.065 -0.3351  0.4728 -0.2680
  942SOL     OW 3765   2.833   2.236   2.244  0.0983  0.0912  0.9960
  942SOL    HW1 3766   2.774   2.269   2.178 -0.2260 -1.6167  2.6473
  942SOL    HW2 3767   2.819   2.135   2.235  1.3536  0.9848 -2.7988
  942SOL     MW 3768   2.823   2.227   2.234  0.2211 -0.0162  0.7132
  943SOL     OW 3769   0.227   2.134   2.274  0.0605 -0.1565  0.3468
  943SOL    HW1 3770   0.202   2.190   2.347  0.6932 -1.2690  0.4688
  943SOL    HW2 3771   0.309   2.080   2.298  1.4163 -1.2677  0.9810
  943SOL     MW 3772   0.235   2.134   2.287  0.3228 -0.4499  0.4465
  944SOL     OW 3773   2.109   2.632   1.991  0.1365 -0.4241  0.6455
  944SOL    HW1 3774   2.179   2.570   2.020 -1.4743 -0.1602 -0.4847
  944SOL    HW2 3775   2.077   2.679   2.067 -0.2928  1.3034  2.3834
  944SOL     MW 3776   2.114   2.630   2.005 -0.1327 -0.1613  0.7257
  945SOL     OW 3777   2.789   2.677   2.892  0.1697  0.0774 -0.5734
  945SOL    HW1 3778   2.758   2.591   2.887 -0.1394  2.6927 -3.1065
  945SOL    HW2 3779   2.784   2.706   2.800 -0.7518  2.0545 -2.2418
  945SOL     MW 3780   2.784   2.669   2.879  0.0073  0.6833 -1.1277
  946SOL     OW 3781   2.448   2.699   2.256  0.1001 -0.0101 -0.0244
  946SOL    HW1 3782   2.481   2.756   2.196  1.4467 -2.2412  0.0121
  946SOL    HW2 3783   2.406   2.641   2.195 -3.1307 -1.4520 -0.5224
  946SOL     MW 3784   2.447   2.699   2.240 -0.1485 -0.4947 -0.0853
  947SOL     OW 3785   1.971   0.010   0.268  0.0944 -0.3919 -0.1166
  947SOL    HW1 3786   1.967  -0.076   0.241 -0.4240  0.0239  2.4087
  947SOL    HW2 3787   2.042   0.012   0.338 -1.1339 -1.9682  1.2047
  947SOL     MW 3788   1.980  -0.001   0.273 -0.1361 -0.5450  0.3909
  948SOL     OW 3789   1.783   3.009   2.681 -0.4303  0.2177  0.9971
  948SOL    HW1 3790   1.858   2.955   2.674  0.4521 -1.4654  0.6797
  948SOL    HW2 3791   1.747   3.025   2.595  2.2836 -1.3083  1.1825
  948SOL     MW 3792   1.788   3.004   2.669  0.0442 -0.2057  0.9797
  949SOL     OW 3793   2.526   1.939   2.338  0.4782  0.7404 -0.2422
  949SOL    HW1 3794   2.518   1.845   2.345 -1.1085 -0.1213 -2.3624
  949SOL    HW2 3795   2.442   1.980   2.361 -0.1305  0.8974  0.3204
  949SOL     MW 3796   2.514   1.932   2.342  0.1885  0.6474 -0.4477
  950SOL     OW 3797   2.293   2.587   2.938 -0.2562  0.0247  0.3190
  950SOL    HW1 3798   2.324   2.524   2.871 -2.2161  1.2225 -0.3144
  950SOL    HW2 3799   2.197   2.589   2.917  2.0522  0.3740  0.5102
  950SOL     MW 3800   2.285   2.579   2.926 -0.2103  0.2288  0.2607
  951SOL     OW 3801   3.065   2.173   2.854  0.3935  0.4950 -0.3174
  951SOL    HW1 3802   3.054   2.182   2.952 -2.5993  1.0420 -2.4562
  951SOL    HW2 3803   3.086   2.080   2.842 -0.9399 -0.2168 -0.9676
  951SOL     MW 3804   3.067   2.162   2.865 -0.1773  0.4733 -0.6854
  952SOL     OW 3805   3.074   1.651   2.107 -0.0134 -0.2776 -0.3233
  952SOL    HW1 3806   2.997   1.674   2.054 -1.8017 -1.8259 -0.6659
  952SOL    HW2 3807   3.098   1.722   2.165 -0.8284  1.9571 -0.9154
  952SOL     MW 3808   3.067   1.663   2.108 -0.3569 -0.1871 -0.4466
  953SOL     OW 3809   1.939   1.766   2.901 -0.1798  0.3873 -1.1131
  953SOL    HW1 3810   1.864   1.738   2.951 -0.0308 -0.8866 -1.9069
  953SOL    HW2 3811   1.959   1.705   2.835 -0.6975  2.4854 -0.6103
  953SOL     MW 3812   1.932   1.754   2.899 -0.2284  0.4961 -1.1515
  954SOL     OW 3813   2.442   2.123   2.889 -0.6016 -0.0056  0.5855
  954SOL    HW1 3814   2.363   2.073   2.838  3.5192 -1.4785 -2.5699
  954SOL    HW2 3815   2.518   2.084   2.842  0.7064 -0.6457 -1.3269
  954SOL     MW 3816   2.442   2.111   2.876  0.1147 -0.2844 -0.0831
  955SOL     OW 3817   1.542   1.625   2.530  0.2091  0.3583 -0.2772
  955SOL    HW1 3818   1.532   1.682   2.456  1.6765 -1.7678 -0.7824
  955SOL    HW2 3819   1.640   1.646   2.556  2.7907  0.3650  1.5903
  955SOL     MW 3820   1.554   1.635   2.524  0.7433  0.0786 -0.0975
  956SOL     OW 3821   2.723   2.418   2.827 -0.0928  0.7001  0.0842
  956SOL    HW1 3822   2.743   2.396   2.913  0.2494 -0.3730 -5.4769
  956SOL    HW2 3823   2.786   2.382   2.767  0.3491  1.1286  1.9038
  956SOL     MW 3824   2.734   2.411   2.830  0.0106  0.6151 -0.4094
  957SOL     OW 3825   2.220   2.916   0.458 -0.1707  0.2723 -0.0236
  957SOL    HW1 3826   2.151   2.875   0.406  0.8140  1.3774 -4.9568
  957SOL    HW2 3827   2.255   2.854   0.524  2.7107  4.2521  0.2916
  957SOL     MW 3828   2.216   2.902   0.460  0.3394  0.9432 -0.6329
  958SOL     OW 3829   2.046   2.653   2.842 -0.5154  0.1992 -0.4749
  958SOL    HW1 3830   2.017   2.574   2.799  0.8177  1.9943  2.8028
  958SOL    HW2 3831   1.990   2.658   2.920  1.4448  1.3351 -2.3449
  958SOL     MW 3832   2.035   2.643   2.846 -0.0809  0.5859 -0.2892
  959SOL     OW 3833   2.504   2.776   0.412 -0.1685  0.7339  0.3232
  959SOL    HW1 3834   2.525   2.800   0.324  1.8571  0.5106 -1.0627
  959SOL    HW2 3835   2.414   2.790   0.420  1.3431  1.0403  1.5006
  959SOL     MW 3836   2.495   2.781   0.401  0.2982  0.7449  0.2957
  960SOL     OW 3837   1.903   2.310   2.318  0.8639 -0.5396  0.2888
  960SOL    HW1 3838   1.902   2.218   2.346  1.6751  1.4696  0.6360
  960SOL    HW2 3839   1.862   2.363   2.387 -0.9119 -1.1776 -0.0988
  960SOL     MW 3840   1.897   2.305   2.331  0.7366 -0.3587  0.2835
  961SOL     OW 3841   2.173   2.334   2.268  0.1257  0.1264  0.2216
  961SOL    HW1 3842   2.078   2.316   2.274  1.5197 -1.4259  0.9569
  961SOL    HW2 3843   2.196   2.362   2.354  3.6279 -0.2906  0.0820
  961SOL     MW 3844   2.164   2.336   2.280  0.7717 -0.1334  0.3002
  962SOL     OW 3845   2.240   2.022   2.774  0.9347 -0.2684 -0.1875
  962SOL    HW1 3846   2.178   2.010   2.848  0.7090  1.3260 -0.3826
  962SOL    HW2 3847   2.256   1.928   2.754 -1.7046  3.2302 -3.0300
  962SOL     MW 3848   2.234   2.008   2.781  0.5567  0.4036 -0.5883
  963SOL     OW 3849   1.798   2.482   2.144 -0.1486 -0.0178 -0.0830
  963SOL    HW1 3850   1.851   2.432   2.204 -1.0593  0.4246 -0.8142
  963SOL    HW2 3851   1.848   2.471   2.063 -1.3983 -2.6673 -0.2639
  963SOL     MW 3852   1.811   2.474   2.141 -0.4336 -0.3090 -0.2033
  964SOL     OW 3853   1.812   1.963   2.730  0.4448  0.3023  0.4862
  964SOL    HW1 3854   1.888   2.012   2.708 -1.5564 -0.5062  0.6224
  964SOL    HW2 3855   1.847   1.908   2.803 -0.0444  2.6433 -1.2932
  964SOL     MW 3856   1.826   1.962   2.737  0.1162  0.5045  0.2694
  965SOL     OW 3857   2.271   2.717   0.644 -0.3867  0.3024  0.2654
  965SOL    HW1 3858   2.251   2.631   0.605 -0.9767  0.5325  0.5409
  965SOL    HW2 3859   2.343   2.716   0.707 -1.2512 -0.5136 -0.0608
  965SOL     MW 3860   2.278   2.705   0.647 -0.5786  0.2251  0.2587
  966SOL     OW 3861   2.659   2.600   2.388 -0.0768  0.5411 -0.2607
  966SOL    HW1 3862   2.577   2.618   2.332 -1.9340 -0.4986 -0.7597
  966SOL    HW2 3863   2.673   2.506   2.414 -1.7393 -1.2328  1.9957
  966SOL     MW 3864   2.650   2.590   2.384 -0.5412  0.1699 -0.0288
  967SOL     OW 3865   2.819   3.066   2.936  0.3188 -0.0624 -0.0333
  967SOL    HW1 3866   2.784   3.027   3.021 -0.9441 -0.6732 -1.3296
  967SOL    HW2 3867   2.737   3.075   2.890 -1.8150  0.6975  2.2837
  967SOL     MW 3868   2.803   3.062   2.941 -0.1293 -0.0427  0.1014
  968SOL     OW 3869   3.026   2.619   2.998  0.3244 -0.1055  0.2525
  968SOL    HW1 3870   2.943   2.656   2.964  0.2263 -1.4013 -2.8969
  968SOL    HW2 3871   3.076   2.573   2.923 -0.3690  1.2320 -0.3191
  968SOL     MW 3872   3.022   2.618   2.984  0.2200 -0.1000 -0.2384
  969SOL     OW 3873   1.612   2.183   1.678 -0.2582  0.0931 -0.1210
  969SOL    HW1 3874   1.680   2.117   1.686  0.8047  1.1310  1.6781
  969SOL    HW2 3875   1.575   2.204   1.767  0.9500  2.3618  0.2984
  969SOL     MW 3876   1.617   2.177   1.691  0.0414  0.5294  0.1717
  970SOL     OW 3877   1.784   1.828   1.913  0.0333 -0.4997  0.0313
  970SOL    HW1 3878   1.825   1.757   1.962  0.3943  3.2292  1.0284
  970SOL    HW2 3879   1.690   1.821   1.921 -0.8383  2.8420  0.1427
  970SOL     MW 3880   1.777   1.818   1.920 -0.0341  0.4332  0.1775
  971SOL     OW 3881   1.777   3.085   2.407 -0.4614 -0.0013 -0.0161
  971SOL    HW1 3882   1.798   3.019   2.335 -0.7870 -2.4073 -2.0874
  971SOL    HW2 3883   1.850   3.147   2.408 -0.0735 -2.8117 -0.0451
  971SOL     MW 3884   1.789   3.084   2.398 -0.4532 -0.6895 -0.2932
  972SOL     OW 3885   0.262   2.883   2.482  0.1058 -0.4678 -0.0363
  972SOL    HW1 3886   0.334   2.820   2.477  0.1925  1.7972 -0.9809
  972SOL    HW2 3887   0.301   2.976   2.487  1.6739  1.9503  0.3538
  972SOL     MW 3888   0.277   2.887   2.482  0.3242  0.1501 -0.1095
  973SOL     OW 3889   2.615   3.081   2.101 -0.1472 -0.6470  0.4750
  973SOL    HW1 3890   2.584   2.988   2.077  0.7111 -0.0159  1.2255
  973SOL    HW2 3891   2.598   3.129   2.020  1.9807 -2.9783  1.5087
  973SOL     MW 3892   2.608   3.075   2.087  0.2468 -0.8714  0.7104
  974SOL     OW 3893   2.034   0.165   2.710 -0.5653 -0.2279 -0.2191
  974SOL    HW1 3894   2.133   0.154   2.724 -1.4189 -2.5177 -1.1972
  974SOL    HW2 3895   1.992   0.110   2.775 -0.3408 -0.9158  1.5763
  974SOL     MW 3896   2.042   0.156   2.720 -0.6483 -0.6208 -0.1112
  975SOL     OW 3897   2.196   2.485   2.495  0.0332 -0.2570 -0.0777
  975SOL    HW1 3898   2.271   2.536   2.527  0.2655 -2.0277 -0.4099
  975SOL    HW2 3899   2.126   2.549   2.458  0.5371 -0.8239 -4.3751
  975SOL     MW 3900   2.196   2.500   2.495  0.1304 -0.5654 -0.6885
  976SOL     OW 3901   0.158   0.403   1.751 -0.0578 -0.0352 -0.2521
  976SOL    HW1 3902   0.246   0.354   1.760 -1.1293 -0.3623 -0.2655
  976SOL    HW2 3903   0.090   0.345   1.711 -2.6629 -2.4133  0.1273
  976SOL     MW 3904   0.161   0.389   1.747 -0.5429 -0.3921 -0.2038
  977SOL     OW 3905   1.699   2.696   2.508 -0.7558  0.2953 -0.6516
  977SOL    HW1 3906   1.718   2.597   2.513  2.2235 -0.1455 -0.0902
  977SOL    HW2 3907   1.774   2.737   2.460  1.7506  1.1284  1.9586
  977SOL     MW 3908   1.712   2.688   2.502 -0.0321  0.3471 -0.2331
   3.10000   3.10000   3.10000
