977 TIP4P/2005f water molecules t=   1.24000 step= 1240
 3908
    1SOL     OW    1   0.413   0.804   0.014 -0.5351  0.5394  0.2418
    1SOL    HW1    2   0.415   0.832  -0.075  1.1135 -0.8604  0.6751
    1SOL    HW2    3   0.346   0.739   0.020 -2.5077 -0.2208  1.4934
    1SOL     MW    4   0.404   0.799   0.003 -0.5779  0.2544  0.4641
    2SOL     OW    5   0.353   3.042   1.187 -0.1240 -0.1909  0.1368
    2SOL    HW1    6   0.401   3.104   1.134  0.4432  0.4342  2.9023
    2SOL    HW2    7   0.261   3.073   1.194  0.6885 -0.7779  0.7552
    2SOL     MW    8   0.348   3.054   1.181  0.0581 -0.1858  0.5833
    3SOL     OW    9   2.582   0.339   0.977  0.0830 -0.6152 -0.3127
    3SOL    HW1   10   2.604   0.407   0.916  0.2645  2.1684 -2.3174
    3SOL    HW2   11   2.548   0.388   1.065  0.3507 -0.8279 -0.9683
    3SOL     MW   12   2.580   0.354   0.981  0.1423 -0.2760 -0.6637
    4SOL     OW   13   3.052   1.739   0.552  0.3573  0.0932  0.1859
    4SOL    HW1   14   2.993   1.788   0.493  2.7766  1.4919 -0.9786
    4SOL    HW2   15   3.097   1.691   0.481  2.5555 -1.1041  0.1767
    4SOL     MW   16   3.050   1.739   0.535  0.9665  0.1198  0.0310
    5SOL     OW   17   1.667   1.514   0.543 -0.4333 -0.0526  1.0473
    5SOL    HW1   18   1.672   1.457   0.622  2.4011 -1.1469 -1.8421
    5SOL    HW2   19   1.581   1.556   0.530 -1.6682  0.0060 -1.8495
    5SOL     MW   20   1.656   1.512   0.552 -0.2223 -0.1892  0.2839
    6SOL     OW   21   0.828   1.381   0.573  0.1332 -0.1195 -0.3450
    6SOL    HW1   22   0.733   1.375   0.586  0.5519 -0.7059  0.5127
    6SOL    HW2   23   0.882   1.313   0.617  0.3332  0.7623  0.9561
    6SOL     MW   24   0.823   1.372   0.581  0.2148 -0.0805 -0.0601
    7SOL     OW   25   2.064   1.044   0.003 -0.0318  0.4747  0.1986
    7SOL    HW1   26   2.123   1.098  -0.054 -1.1106  0.9036  0.6794
    7SOL    HW2   27   2.083   1.075   0.090 -0.6749  0.0567  0.5665
    7SOL     MW   28   2.074   1.055   0.007 -0.2590  0.4762  0.3106
    8SOL     OW   29   0.882   1.500   1.200 -0.4050  0.7490 -0.1729
    8SOL    HW1   30   0.977   1.509   1.208 -1.9557  2.1108  2.3845
    8SOL    HW2   31   0.860   1.408   1.208 -0.7013  3.0350 -0.9520
    8SOL     MW   32   0.891   1.489   1.202 -0.6487  1.2303  0.0617
    9SOL     OW   33   1.005   0.505   1.393  0.2923  0.3448 -0.5329
    9SOL    HW1   34   0.962   0.432   1.343  0.6463  1.2677  1.3700
    9SOL    HW2   35   1.039   0.464   1.471  2.4898 -2.9607 -1.4139
    9SOL     MW   36   1.004   0.490   1.397  0.6289  0.0304 -0.3981
   10SOL     OW   37   0.246   0.814   0.515  0.0696  0.0435  0.3943
   10SOL    HW1   38   0.335   0.851   0.496  0.5079 -2.1905  0.8085
   10SOL    HW2   39   0.215   0.839   0.601  0.1324  1.5406 -1.7015
   10SOL     MW   40   0.254   0.822   0.524  0.1357 -0.0537  0.1724
   11SOL     OW   41   0.776   1.105   1.618 -0.5436 -0.1199 -0.2663
   11SOL    HW1   42   0.835   1.120   1.695  1.2956  1.3403  0.8573
   11SOL    HW2   43   0.797   1.035   1.556 -1.9556 -2.2674 -2.2415
   11SOL     MW   44   0.786   1.098   1.620 -0.4872 -0.2106 -0.3786
   12SOL     OW   45   3.079   1.083   0.867 -0.1615  0.1543 -0.2649
   12SOL    HW1   46   3.118   1.133   0.938 -0.2582  1.2830  0.0966
   12SOL    HW2   47   3.043   1.155   0.809  2.4725 -0.1495  1.3709
   12SOL     MW   48   3.079   1.099   0.869  0.1733  0.2631 -0.0014
   13SOL     OW   49   1.843   1.404   1.334 -0.2360  0.3962 -0.0358
   13SOL    HW1   50   1.893   1.355   1.268  3.1288  1.2305 -2.3011
   13SOL    HW2   51   1.869   1.495   1.319 -0.5525  0.5344  0.4994
   13SOL     MW   52   1.853   1.410   1.323  0.1662  0.5245 -0.2641
   14SOL     OW   53   0.559   0.318   1.860 -0.0848 -0.1230  0.4773
   14SOL    HW1   54   0.507   0.236   1.877 -0.4365  1.6357  0.8638
   14SOL    HW2   55   0.575   0.318   1.767 -1.7882 -1.3402  0.4558
   14SOL     MW   56   0.554   0.307   1.850 -0.3560 -0.0516  0.5255
   15SOL     OW   57   1.969   0.328   1.046  0.2622  0.1872  0.0579
   15SOL    HW1   58   1.934   0.394   1.112  1.0003 -0.6638  0.5690
   15SOL    HW2   59   2.037   0.370   0.994 -1.5144  0.6703 -2.0152
   15SOL     MW   60   1.974   0.342   1.048  0.1252  0.1387 -0.1482
   16SOL     OW   61   0.219   1.825   0.306  0.2237  0.2634  0.2417
   16SOL    HW1   62   0.313   1.800   0.309 -0.1071  2.4318  2.5394
   16SOL    HW2   63   0.217   1.922   0.322  0.9108  0.2591  0.6958
   16SOL     MW   64   0.231   1.835   0.308  0.2707  0.5489  0.6047
   17SOL     OW   65   1.017   0.931   1.444 -0.2045 -0.1623 -0.7322
   17SOL    HW1   66   1.070   0.897   1.520 -0.6246 -0.9800  1.6762
   17SOL    HW2   67   0.927   0.903   1.461  0.3079  0.0969  0.2723
   17SOL     MW   68   1.012   0.923   1.456 -0.1923 -0.2360 -0.2819
   18SOL     OW   69   0.083   1.600   0.363 -0.2300  0.0760  0.0646
   18SOL    HW1   70   0.135   1.679   0.332  0.5243 -1.5428 -3.6019
   18SOL    HW2   71   0.070   1.556   0.279  1.1550  1.5571  2.1056
   18SOL     MW   72   0.088   1.605   0.348  0.0523  0.0578 -0.1499
   19SOL     OW   73   0.093   1.309   0.997 -0.1544  0.3433 -0.5262
   19SOL    HW1   74   0.152   1.331   0.923  0.5072  2.1344  1.5236
   19SOL    HW2   75   0.004   1.341   0.978 -0.7160  1.4207 -3.1064
   19SOL     MW   76   0.089   1.316   0.984 -0.1412  0.7218 -0.5962
   20SOL     OW   77   0.436   2.170   1.168 -0.1663 -0.0198  0.1555
   20SOL    HW1   78   0.396   2.094   1.128  0.8505 -1.7365  0.9852
   20SOL    HW2   79   0.389   2.181   1.256 -0.1303  0.4481 -0.1784
   20SOL     MW   80   0.425   2.162   1.175 -0.0274 -0.1846  0.2209
   21SOL     OW   81   0.487   0.864   0.414  0.6491 -0.5255 -0.3270
   21SOL    HW1   82   0.555   0.829   0.473 -1.0546 -1.9283  1.2851
   21SOL    HW2   83   0.520   0.866   0.320  0.1588 -1.2942 -1.5274
   21SOL     MW   84   0.500   0.860   0.409  0.3596 -0.8120 -0.2727
   22SOL     OW   85   1.529   0.701   1.010 -0.0277  0.2497 -0.4983
   22SOL    HW1   86   1.485   0.654   0.939  1.7092  1.7803  0.5255
   22SOL    HW2   87   1.523   0.790   0.986 -1.6337 -0.8952 -0.8583
   22SOL     MW   88   1.523   0.707   0.997 -0.0104  0.3006 -0.4107
   23SOL     OW   89   3.066   0.666   0.700  0.5643 -0.0460 -0.0430
   23SOL    HW1   90   3.127   0.597   0.715  0.0868 -1.7056  0.4217
   23SOL    HW2   91   3.113   0.747   0.713  0.6253 -0.3425 -0.5492
   23SOL     MW   92   3.080   0.668   0.704  0.5094 -0.3041 -0.0485
   24SOL     OW   93   2.031   2.216   0.033  0.3532 -0.1672  0.1194
   24SOL    HW1   94   2.038   2.207   0.130 -0.8852 -0.7984  2.1927
   24SOL    HW2   95   2.081   2.139   0.001  1.4318  1.4183  1.7096
   24SOL     MW   96   2.038   2.205   0.042  0.3321 -0.0413  0.6027
   25SOL     OW   97   0.197   1.402   0.523  0.2844 -0.7079 -0.1954
   25SOL    HW1   98   0.149   1.467   0.472 -1.7668  1.5398  1.4355
   25SOL    HW2   99   0.285   1.403   0.495  1.8280  0.9689 -2.3279
   25SOL     MW  100   0.202   1.411   0.513  0.2174 -0.1901 -0.2616
   26SOL     OW  101   2.060   1.070   0.282 -0.2699 -0.1031 -0.2740
   26SOL    HW1  102   1.998   1.119   0.342  1.6009  2.6203 -1.4999
   26SOL    HW2  103   2.138   1.134   0.276 -0.6769 -2.1909  1.4873
   26SOL     MW  104   2.062   1.085   0.289 -0.0768 -0.0193 -0.2034
   27SOL     OW  105   1.972   1.464   0.206 -0.1101 -0.1378 -0.3578
   27SOL    HW1  106   1.913   1.532   0.239  0.0438  0.6834  1.1280
   27SOL    HW2  107   2.031   1.453   0.280 -2.7353 -1.0484  1.4238
   27SOL     MW  108   1.972   1.471   0.220 -0.4362 -0.1496  0.0733
   28SOL     OW  109   0.442   1.014   1.970  0.2387 -0.2673  0.3889
   28SOL    HW1  110   0.508   1.022   2.039 -2.1103  1.7281 -1.6845
   28SOL    HW2  111   0.355   0.998   2.011 -2.2873 -0.6372  1.4048
   28SOL     MW  112   0.439   1.013   1.984 -0.4045 -0.0528  0.2494
   29SOL     OW  113   0.234   1.430   0.795  0.2592 -0.2394 -0.9439
   29SOL    HW1  114   0.241   1.526   0.801  1.8241 -0.9712 -1.4749
   29SOL    HW2  115   0.231   1.410   0.702  1.8454  0.4004  1.9266
   29SOL     MW  116   0.234   1.440   0.783  0.6750 -0.2516 -0.6353
   30SOL     OW  117   0.809   1.242   1.230  0.8322  0.3858  0.4994
   30SOL    HW1  118   0.725   1.232   1.278 -1.8265 -0.5718 -0.2112
   30SOL    HW2  119   0.880   1.215   1.298  1.4664 -0.0069  2.1435
   30SOL     MW  120   0.807   1.237   1.245  0.5651  0.2077  0.6226
   31SOL     OW  121   0.401   0.262   0.175  0.3623  0.4800  0.3695
   31SOL    HW1  122   0.418   0.189   0.240  0.1789  0.0285  1.4085
   31SOL    HW2  123   0.385   0.213   0.092 -1.6252  0.1661  1.4943
   31SOL     MW  124   0.401   0.246   0.172  0.0759  0.3790  0.6550
   32SOL     OW  125   2.756   0.980   1.172 -0.2997 -0.2445 -0.3003
   32SOL    HW1  126   2.694   0.900   1.154 -0.8957 -0.5407  1.9901
   32SOL    HW2  127   2.846   0.940   1.171 -0.0539 -1.1201 -0.4911
   32SOL     MW  128   2.759   0.964   1.169 -0.3459 -0.3991 -0.0233
   33SOL     OW  129   1.653   1.299   0.353 -0.3473  0.3503  0.2797
   33SOL    HW1  130   1.724   1.249   0.390 -0.5952 -0.5246 -0.8293
   33SOL    HW2  131   1.653   1.376   0.413 -0.4660  0.2953 -0.4803
   33SOL     MW  132   1.662   1.303   0.366 -0.3957  0.2276  0.0331
   34SOL     OW  133   1.235   1.914   1.118  0.3354 -0.3052 -0.1505
   34SOL    HW1  134   1.165   1.958   1.163 -1.0710 -2.0222 -1.3573
   34SOL    HW2  135   1.311   1.938   1.169  0.0120 -0.5917 -1.0169
   34SOL     MW  136   1.236   1.923   1.131  0.1072 -0.5695 -0.4240
   35SOL     OW  137   0.350   0.113   1.851 -0.1879 -0.4228 -0.3150
   35SOL    HW1  138   0.362   0.055   1.928  1.2490  2.4739  0.8472
   35SOL    HW2  139   0.408   0.080   1.785 -1.1408 -1.7125 -0.2239
   35SOL     MW  140   0.359   0.101   1.852 -0.1241 -0.2108 -0.1497
   36SOL     OW  141   1.980   1.922   0.565  0.0736 -0.1353  0.3213
   36SOL    HW1  142   1.950   1.905   0.477 -0.5738  0.0311 -0.0171
   36SOL    HW2  143   1.987   1.831   0.597  0.8786  0.6893  2.5307
   36SOL     MW  144   1.977   1.908   0.558  0.0944 -0.0046  0.5682
   37SOL     OW  145   1.791   2.023   0.959 -0.0655 -0.4573  0.1389
   37SOL    HW1  146   1.739   1.970   0.903 -1.1957 -1.0339 -1.2502
   37SOL    HW2  147   1.742   2.095   0.992  0.9628 -0.8955 -2.2087
   37SOL     MW  148   1.778   2.026   0.956 -0.0789 -0.5912 -0.3541
   38SOL     OW  149   2.822   0.960   0.124  0.0670 -0.0417  0.0518
   38SOL    HW1  150   2.836   0.947   0.219  0.5009 -2.0232 -0.9613
   38SOL    HW2  151   2.899   0.918   0.087 -0.2798  2.5751  1.3970
   38SOL     MW  152   2.834   0.953   0.132  0.0785  0.0421  0.0956
   39SOL     OW  153   1.443   0.588   0.772  0.6794 -0.7382 -0.4170
   39SOL    HW1  154   1.399   0.507   0.791 -0.4124  0.8130  1.1626
   39SOL    HW2  155   1.375   0.637   0.727 -0.3767  1.2836 -0.3117
   39SOL     MW  156   1.428   0.584   0.769  0.3960 -0.2668 -0.1947
   40SOL     OW  157   1.172   1.901   0.266  0.2450 -0.2814 -0.6033
   40SOL    HW1  158   1.187   1.811   0.298  1.7248 -0.3206 -1.3956
   40SOL    HW2  159   1.197   1.964   0.334  2.2745 -1.0217 -0.2788
   40SOL     MW  160   1.177   1.898   0.279  0.7080 -0.3843 -0.6650
   41SOL     OW  161   0.555   0.483   1.582  0.5219 -0.4641  0.0386
   41SOL    HW1  162   0.633   0.533   1.570  0.3400 -0.3268 -1.6300
   41SOL    HW2  163   0.483   0.554   1.605 -0.3931  0.0843 -0.1267
   41SOL     MW  164   0.556   0.499   1.584  0.3771 -0.3736 -0.2034
   42SOL     OW  165   1.292   3.007   1.998  1.0242 -0.1242 -0.1427
   42SOL    HW1  166   1.201   3.003   2.034 -1.1830  1.3971 -0.2327
   42SOL    HW2  167   1.334   2.931   2.044  0.8396 -0.9706  1.0234
   42SOL     MW  168   1.286   2.996   2.009  0.7086 -0.0352 -0.0007
   43SOL     OW  169   1.485   0.147   1.649  0.1708  0.6438 -0.7362
   43SOL    HW1  170   1.537   0.093   1.596 -0.3475  1.4515 -0.9615
   43SOL    HW2  171   1.408   0.100   1.679 -1.4985 -1.8643 -0.3711
   43SOL     MW  172   1.482   0.134   1.646 -0.1178  0.4194 -0.7177
   44SOL     OW  173   1.197   0.779   1.014  0.8018 -0.0909  0.5871
   44SOL    HW1  174   1.183   0.878   1.009  3.1910  0.9047 -0.6212
   44SOL    HW2  175   1.218   0.751   1.107 -0.6665 -0.3644 -0.0495
   44SOL     MW  176   1.198   0.788   1.025  0.9233  0.0043  0.3437
   45SOL     OW  177   1.218   0.755   0.693 -0.1815  0.1236  0.4994
   45SOL    HW1  178   1.172   0.748   0.774  1.2852 -0.2186  1.0238
   45SOL    HW2  179   1.157   0.701   0.642 -0.3127  1.0368  0.8354
   45SOL     MW  180   1.204   0.747   0.697 -0.0053  0.1989  0.6129
   46SOL     OW  181   0.549   1.108   0.577  0.0841 -0.0885 -0.0584
   46SOL    HW1  182   0.501   1.072   0.505 -1.2616 -3.5837  2.1334
   46SOL    HW2  183   0.633   1.078   0.549  0.3790 -0.1626 -0.2967
   46SOL     MW  184   0.554   1.099   0.564 -0.0545 -0.5594  0.1993
   47SOL     OW  185   0.214   1.956   1.969  0.0194 -0.5708  0.3029
   47SOL    HW1  186   0.296   1.931   2.014  1.6971 -0.8118 -1.0302
   47SOL    HW2  187   0.154   1.951   2.047 -0.8673 -0.9105 -0.4682
   47SOL     MW  188   0.217   1.952   1.985  0.1238 -0.6474  0.0253
   48SOL     OW  189   1.084   0.515   1.049 -0.5313 -0.2132 -0.5696
   48SOL    HW1  190   0.992   0.490   1.041  1.2773  1.6281  2.8552
   48SOL    HW2  191   1.087   0.613   1.038 -1.9234  1.3404 -3.7912
   48SOL     MW  192   1.072   0.525   1.047 -0.4763  0.2348 -0.5428
   49SOL     OW  193   1.744   0.638   1.525  0.4730 -0.1983 -0.5242
   49SOL    HW1  194   1.714   0.599   1.608  0.1370 -0.2183  0.8710
   49SOL    HW2  195   1.833   0.605   1.524 -0.0885 -0.3651 -0.5310
   49SOL     MW  196   1.752   0.628   1.536  0.3546 -0.2229 -0.3410
   50SOL     OW  197   1.270   1.128   0.537 -0.9893  0.2184  0.1750
   50SOL    HW1  198   1.218   1.145   0.614  1.0381  1.1839 -0.1802
   50SOL    HW2  199   1.341   1.075   0.577  1.7909  0.1032 -1.1110
   50SOL     MW  200   1.273   1.123   0.553 -0.3550  0.3306 -0.0415
   51SOL     OW  201   0.330   2.928   0.914  0.0218  0.0838  0.0274
   51SOL    HW1  202   0.419   2.892   0.894  0.4702  0.7883 -0.5415
   51SOL    HW2  203   0.324   2.964   1.002  0.8402  0.1586 -0.0746
   51SOL     MW  204   0.341   2.928   0.923  0.1889  0.1866 -0.0611
   52SOL     OW  205   0.809   1.781   0.442 -0.5653  0.4267  0.4031
   52SOL    HW1  206   0.781   1.877   0.442 -0.4340  0.2219  1.6261
   52SOL    HW2  207   0.853   1.763   0.357 -0.0924 -0.3293  0.3134
   52SOL     MW  208   0.811   1.791   0.431 -0.4856  0.2999  0.5526
   53SOL     OW  209   0.435   2.142   0.461  0.3144  0.2643  0.0828
   53SOL    HW1  210   0.354   2.120   0.415 -0.9221 -0.2090 -2.7165
   53SOL    HW2  211   0.424   2.233   0.502  2.8478  1.0697 -0.5195
   53SOL     MW  212   0.423   2.151   0.460  0.4855  0.3082 -0.3660
   54SOL     OW  213   2.038   0.926   0.779  0.6423  0.1972 -0.0044
   54SOL    HW1  214   2.091   0.911   0.699  0.8875  1.4980 -1.3421
   54SOL    HW2  215   2.019   0.838   0.817  1.7715  0.7614 -0.2187
   54SOL     MW  216   2.043   0.912   0.774  0.8236  0.4433 -0.2091
   55SOL     OW  217   0.538   1.578   1.658 -0.5176  0.2187  0.0551
   55SOL    HW1  218   0.466   1.580   1.592 -3.9306  1.2982  1.9249
   55SOL    HW2  219   0.607   1.528   1.615  1.8647  2.4043 -0.5978
   55SOL     MW  220   0.538   1.571   1.644 -0.6536  0.6495  0.2157
   56SOL     OW  221   0.629   0.844   0.176  0.1340  0.2587  0.1021
   56SOL    HW1  222   0.637   0.933   0.136 -1.1775 -0.8798 -2.5925
   56SOL    HW2  223   0.557   0.809   0.129  0.7793  0.4484  2.9474
   56SOL     MW  224   0.620   0.851   0.165  0.0461  0.1335  0.1220
   57SOL     OW  225   1.189   1.253   1.144  0.7356 -0.1142  0.5127
   57SOL    HW1  226   1.280   1.259   1.162 -0.1016  0.2609 -0.5371
   57SOL    HW2  227   1.143   1.215   1.228 -1.5823 -0.7140  2.3099
   57SOL     MW  228   1.195   1.249   1.157  0.3193 -0.1439  0.6113
   58SOL     OW  229   0.531   1.228   1.302 -0.4586 -0.1393 -0.5629
   58SOL    HW1  230   0.510   1.321   1.278 -3.4576  0.8354  1.6201
   58SOL    HW2  231   0.533   1.213   1.401  1.7363  1.0001 -0.0239
   58SOL     MW  232   0.528   1.238   1.312 -0.5647  0.1396 -0.2037
   59SOL     OW  233   1.506   1.713   0.347  0.6059 -0.0016 -0.3619
   59SOL    HW1  234   1.572   1.767   0.397 -3.0046  1.7890 -0.6900
   59SOL    HW2  235   1.418   1.719   0.392 -0.8311  0.8504 -0.8551
   59SOL     MW  236   1.503   1.721   0.359 -0.0601  0.3471 -0.4703
   60SOL     OW  237   0.021   0.222   1.676 -1.1141 -0.5713 -0.0271
   60SOL    HW1  238  -0.056   0.267   1.724  2.0415 -2.2199 -0.9305
   60SOL    HW2  239   0.034   0.139   1.724  0.5929  1.1634  2.4044
   60SOL     MW  240   0.013   0.217   1.689 -0.4725 -0.5599  0.1745
   61SOL     OW  241   2.008   1.368   3.057 -0.1528 -0.2967  0.5211
   61SOL    HW1  242   1.978   1.405   3.139  0.0622 -1.6627 -1.2872
   61SOL    HW2  243   2.081   1.314   3.076  2.1514 -0.2503 -0.7519
   61SOL     MW  244   2.013   1.366   3.070  0.1796 -0.4708  0.1146
   62SOL     OW  245   0.558   1.685   0.506 -0.3185  0.1434 -0.0164
   62SOL    HW1  246   0.653   1.713   0.486  3.4779 -0.6378  2.5175
   62SOL    HW2  247   0.575   1.597   0.553  1.2180  1.2811 -2.0150
   62SOL     MW  248   0.573   1.677   0.509  0.3851  0.1904  0.0543
   63SOL     OW  249   1.722   0.632   0.715  0.1184 -0.7328  0.1000
   63SOL    HW1  250   1.744   0.702   0.655 -0.8712  0.1136  0.8225
   63SOL    HW2  251   1.640   0.663   0.757  0.1733 -0.7672 -0.3596
   63SOL     MW  252   1.714   0.645   0.713 -0.0049 -0.6256  0.1347
   64SOL     OW  253   0.264   1.703   0.832  0.7113 -0.3287 -0.6523
   64SOL    HW1  254   0.325   1.751   0.782  0.8098 -0.9875  0.8557
   64SOL    HW2  255   0.184   1.753   0.861  1.2609  0.3900 -0.2953
   64SOL     MW  256   0.261   1.716   0.829  0.7968 -0.3208 -0.4062
   65SOL     OW  257   1.581   2.314   0.447 -0.2094 -0.1415 -0.3176
   65SOL    HW1  258   1.665   2.277   0.474 -0.8739 -0.8473  1.2843
   65SOL    HW2  259   1.542   2.344   0.531  3.4613 -0.8038  0.5235
   65SOL     MW  260   1.587   2.313   0.461  0.1872 -0.3220  0.0047
   66SOL     OW  261   0.321   0.542   0.483  0.2773 -0.1848 -0.6700
   66SOL    HW1  262   0.382   0.547   0.413 -2.0306  3.3371 -1.0087
   66SOL    HW2  263   0.288   0.633   0.482  0.7500 -0.4094 -0.5780
   66SOL     MW  264   0.325   0.555   0.473  0.0351  0.2502 -0.7025
   67SOL     OW  265   1.461   0.127   1.993 -0.4164 -0.2661  0.2725
   67SOL    HW1  266   1.482   0.134   1.900  0.6124 -1.1581 -1.6288
   67SOL    HW2  267   1.407   0.049   2.009  1.5862 -0.3727 -1.6450
   67SOL     MW  268   1.457   0.118   1.983 -0.0164 -0.3979 -0.2313
   68SOL     OW  269   0.709   0.082   2.971  0.8558 -0.3314 -0.3238
   68SOL    HW1  270   0.732   0.135   2.894  1.7044 -1.8238 -1.6123
   68SOL    HW2  271   0.777   0.069   3.032  0.4364 -0.1372 -4.9982
   68SOL     MW  272   0.721   0.088   2.969  0.9124 -0.5027 -1.1105
   69SOL     OW  273   0.967   0.190   1.996 -0.4880 -0.0569 -0.1244
   69SOL    HW1  274   1.053   0.222   2.027  0.1465 -2.0565  1.6428
   69SOL    HW2  275   0.974   0.093   2.009 -3.4903  0.7497 -2.3551
   69SOL     MW  276   0.979   0.181   2.002 -0.8004 -0.2143 -0.1856
   70SOL     OW  277   0.555   1.745   1.135 -0.1963 -0.8394 -0.2412
   70SOL    HW1  278   0.609   1.723   1.216  0.6948  1.4819 -2.3248
   70SOL    HW2  279   0.615   1.795   1.078 -0.5044 -0.1755 -0.6069
   70SOL     MW  280   0.570   1.748   1.138 -0.1194 -0.4455 -0.5644
   71SOL     OW  281   1.594   0.502   1.193 -0.4081  0.5564 -0.4782
   71SOL    HW1  282   1.559   0.545   1.268 -0.1627 -2.2035 -0.7270
   71SOL    HW2  283   1.577   0.569   1.127 -0.4600  0.7470  1.7004
   71SOL     MW  284   1.587   0.516   1.195 -0.3826  0.2174 -0.2236
   72SOL     OW  285   0.809   1.837   1.027  0.3416  0.1614 -0.2871
   72SOL    HW1  286   0.824   1.880   0.945  0.3771  0.6561 -0.4070
   72SOL    HW2  287   0.783   1.745   1.000 -0.6360  0.3384  1.4908
   72SOL     MW  288   0.808   1.831   1.013  0.2173  0.2500 -0.0684
   73SOL     OW  289   1.192   0.725   1.290  0.3024 -0.1357  0.0608
   73SOL    HW1  290   1.140   0.643   1.291 -0.1802  2.0540  2.5901
   73SOL    HW2  291   1.140   0.803   1.304 -1.5207 -0.3984  0.1354
   73SOL     MW  292   1.178   0.725   1.292 -0.0018  0.1185  0.4044
   74SOL     OW  293   2.787   0.249   1.134  0.1657  0.5913 -0.1476
   74SOL    HW1  294   2.878   0.276   1.111  1.5489  1.0705  3.0135
   74SOL    HW2  295   2.721   0.288   1.075  1.3610 -0.8161  0.3758
   74SOL     MW  296   2.790   0.258   1.123  0.5059  0.4688  0.3385
   75SOL     OW  297   1.570   1.401   0.113  0.6765 -0.2285  0.2321
   75SOL    HW1  298   1.648   1.390   0.056  0.0285 -3.5899 -1.6115
   75SOL    HW2  299   1.595   1.368   0.201 -1.2135  0.7003 -1.3845
   75SOL     MW  300   1.583   1.395   0.117  0.3416 -0.5495 -0.2244
   76SOL     OW  301   2.979   0.578   0.460  0.2514 -0.4890 -0.6671
   76SOL    HW1  302   3.002   0.596   0.554  1.4088 -1.9200 -0.1584
   76SOL    HW2  303   3.045   0.512   0.429 -0.4646 -1.4338  0.1895
   76SOL     MW  304   2.990   0.572   0.468  0.3096 -0.8024 -0.4870
   77SOL     OW  305   0.802   0.553   0.480  0.3514 -0.3066 -0.0222
   77SOL    HW1  306   0.782   0.578   0.387 -1.0677 -1.0868 -0.7191
   77SOL    HW2  307   0.784   0.456   0.478  0.3271  0.6783 -1.0293
   77SOL     MW  308   0.797   0.543   0.467  0.1610 -0.2796 -0.2470
   78SOL     OW  309   0.748   0.847   1.184 -0.1669 -0.2631 -0.3679
   78SOL    HW1  310   0.790   0.931   1.147  1.0054 -0.7187  1.9804
   78SOL    HW2  311   0.657   0.848   1.153 -1.9100  1.5412 -1.2977
   78SOL     MW  312   0.742   0.858   1.175 -0.2422 -0.0851 -0.1807
   79SOL     OW  313   1.914   1.656   0.637  0.0001 -0.0855 -0.1346
   79SOL    HW1  314   1.832   1.625   0.595 -1.0371 -0.4732  0.2618
   79SOL    HW2  315   1.901   1.632   0.728 -0.4730  0.7366  1.1369
   79SOL     MW  316   1.902   1.649   0.644 -0.1991 -0.0282  0.0855
   80SOL     OW  317   0.070   0.932   0.353 -0.2544 -0.0404  0.4557
   80SOL    HW1  318  -0.019   0.909   0.383  1.8470 -4.1442 -0.9863
   80SOL    HW2  319   0.129   0.893   0.420 -0.5964  0.4123 -0.4181
   80SOL     MW  320   0.066   0.923   0.366 -0.0223 -0.5221  0.1501
   81SOL     OW  321   1.856   1.897   0.313  0.4805 -0.2083 -0.2644
   81SOL    HW1  322   1.813   1.814   0.280  1.8702  1.3457  0.6993
   81SOL    HW2  323   1.812   1.961   0.263 -0.9251 -2.4973 -0.0394
   81SOL     MW  324   1.845   1.894   0.302  0.4784 -0.3053 -0.1076
   82SOL     OW  325   0.840   0.998   0.522  0.0761  0.5534 -0.6490
   82SOL    HW1  326   0.841   1.017   0.429  0.5595  0.2564  0.6442
   82SOL    HW2  327   0.807   0.912   0.545 -2.2896 -0.3376  1.4930
   82SOL     MW  328   0.835   0.989   0.513 -0.1722  0.3967 -0.1958
   83SOL     OW  329   0.055   0.740   1.477 -0.4597  0.2417  0.4327
   83SOL    HW1  330   0.088   0.800   1.409  0.6191 -1.3837  0.8357
   83SOL    HW2  331   0.123   0.679   1.498 -0.1547  2.4115 -0.8048
   83SOL     MW  332   0.068   0.740   1.470 -0.2771  0.3135  0.3226
   84SOL     OW  333   0.062   0.174   0.932 -0.4907 -0.0304 -0.7613
   84SOL    HW1  334   0.045   0.264   0.974  2.4679  0.2252  2.1213
   84SOL    HW2  335   0.022   0.108   0.991 -0.6095  1.0246 -1.3056
   84SOL     MW  336   0.055   0.177   0.945 -0.1160  0.1425 -0.4528
   85SOL     OW  337   0.440   0.449   0.736  0.3172  0.2583 -0.3775
   85SOL    HW1  338   0.424   0.472   0.646  1.6085  0.1353  1.5455
   85SOL    HW2  339   0.390   0.371   0.751 -2.3704 -0.7441 -0.7018
   85SOL     MW  340   0.431   0.442   0.726  0.1330  0.1098 -0.1666
   86SOL     OW  341   1.177   0.257   1.125  0.6423 -0.3131  0.0329
   86SOL    HW1  342   1.138   0.348   1.118  0.6980  1.4910 -2.1875
   86SOL    HW2  343   1.237   0.278   1.198  1.3590  0.3446  0.5886
   86SOL     MW  344   1.180   0.272   1.134  0.7442  0.0117 -0.1868
   87SOL     OW  345   1.156   1.517   1.238  0.2410 -0.4993 -0.7659
   87SOL    HW1  346   1.170   1.571   1.158 -0.8762 -0.8567 -3.0038
   87SOL    HW2  347   1.176   1.429   1.205 -2.8582  1.3286  1.7898
   87SOL     MW  348   1.161   1.512   1.223 -0.3153 -0.3052 -0.7240
   88SOL     OW  349   1.182   1.031   0.972 -0.1101 -0.4630 -0.0772
   88SOL    HW1  350   1.273   1.036   0.948  2.2217 -2.4204 -0.8394
   88SOL    HW2  351   1.163   1.105   1.034 -0.9609 -0.7572 -1.5277
   88SOL     MW  352   1.192   1.041   0.977  0.0853 -0.7600 -0.3691
   89SOL     OW  353   1.771   0.754   0.334 -0.3472  0.0183  0.3769
   89SOL    HW1  354   1.775   0.658   0.341 -1.1740 -0.5915  1.2078
   89SOL    HW2  355   1.867   0.776   0.317  1.7727 -1.0800  1.2534
   89SOL     MW  356   1.784   0.745   0.332 -0.1766 -0.2071  0.6022
   90SOL     OW  357   0.831   1.137   2.816  0.1984  0.9378  0.2334
   90SOL    HW1  358   0.857   1.045   2.833  0.1639  3.0702  2.1976
   90SOL    HW2  359   0.836   1.177   2.906 -0.2632  0.2702  0.2696
   90SOL     MW  360   0.835   1.130   2.830  0.1329  1.1311  0.4973
   91SOL     OW  361   2.157   0.694   0.497  0.1872  0.0450  0.3999
   91SOL    HW1  362   2.208   0.737   0.429 -1.2548 -2.6794  1.1659
   91SOL    HW2  363   2.175   0.594   0.474 -1.3714  1.8907 -0.4754
   91SOL     MW  364   2.166   0.686   0.485 -0.2087 -0.0709  0.3855
   92SOL     OW  365   1.754   0.902   0.573 -0.0076 -0.5945 -0.5182
   92SOL    HW1  366   1.664   0.923   0.599  2.2775 -0.0609  0.6804
   92SOL    HW2  367   1.748   0.848   0.490 -0.9801 -0.4067  0.0278
   92SOL     MW  368   1.742   0.898   0.565  0.1656 -0.4993 -0.2880
   93SOL     OW  369   1.058   0.177   0.425  0.4900  0.1785  0.2556
   93SOL    HW1  370   0.968   0.212   0.453  0.0310  0.5044  2.6110
   93SOL    HW2  371   1.078   0.225   0.343 -0.6653  1.4981  0.0347
   93SOL     MW  372   1.049   0.188   0.418  0.2770  0.3956  0.5373
   94SOL     OW  373   1.841   1.373   1.644 -0.6643 -0.5798 -0.0630
   94SOL    HW1  374   1.850   1.366   1.545 -0.2757  0.1732  2.3051
   94SOL    HW2  375   1.807   1.285   1.670  0.2262 -1.4404 -2.1360
   94SOL     MW  376   1.837   1.360   1.634 -0.4955 -0.5940 -0.0240
   95SOL     OW  377   0.757   1.581   0.975 -0.7122  0.0095 -0.3807
   95SOL    HW1  378   0.793   1.523   1.042 -2.7439  0.9174  0.1006
   95SOL    HW2  379   0.662   1.574   0.968 -0.4564  3.1014 -0.9640
   95SOL     MW  380   0.749   1.572   0.983 -0.9465  0.5372 -0.3942
   96SOL     OW  381   1.316   1.888   1.716  0.3139 -0.3812 -0.0551
   96SOL    HW1  382   1.226   1.872   1.755  1.0476  0.8570 -1.3871
   96SOL    HW2  383   1.331   1.798   1.684 -2.2852  2.8109  1.3384
   96SOL     MW  384   1.306   1.874   1.717  0.0678  0.2033 -0.0470
   97SOL     OW  385   1.136   1.450   0.878  0.2262  0.1668  0.2786
   97SOL    HW1  386   1.172   1.519   0.934 -0.0660 -0.6158  1.3233
   97SOL    HW2  387   1.061   1.501   0.836  3.0267 -2.0068 -1.1758
   97SOL     MW  388   1.131   1.465   0.880  0.5571 -0.2232  0.2245
   98SOL     OW  389   1.481   1.275   1.101 -0.3697  0.1089  0.2299
   98SOL    HW1  390   1.518   1.329   1.173  0.6759 -1.3572  1.4609
   98SOL    HW2  391   1.484   1.338   1.024 -0.0922  0.7560  2.0156
   98SOL     MW  392   1.486   1.290   1.101 -0.1952  0.0008  0.6279
   99SOL     OW  393   1.427   0.277   1.300  0.2718 -0.1780 -0.6346
   99SOL    HW1  394   1.473   0.335   1.243  0.1999  1.5715  0.5906
   99SOL    HW2  395   1.427   0.326   1.384  4.4793 -3.9091 -1.0981
   99SOL     MW  396   1.433   0.291   1.304  0.8175 -0.4394 -0.5341
  100SOL     OW  397   1.051   1.192   1.374 -0.0559 -0.4408  0.2062
  100SOL    HW1  398   1.066   1.235   1.458  1.8843 -1.3873  0.7123
  100SOL    HW2  399   1.054   1.099   1.407  1.0963 -1.0007  0.1907
  100SOL     MW  400   1.053   1.185   1.389  0.3521 -0.6396  0.2710
  101SOL     OW  401   0.468   1.199   0.325 -0.1373  0.4529  0.5434
  101SOL    HW1  402   0.404   1.166   0.266 -0.7157 -0.4997  3.6716
  101SOL    HW2  403   0.548   1.170   0.279  1.1091 -2.6786 -1.2521
  101SOL     MW  404   0.470   1.191   0.311 -0.0492 -0.0860  0.7192
  102SOL     OW  405   2.901   0.642   0.976 -0.1618 -0.2338  0.2494
  102SOL    HW1  406   2.946   0.729   0.967 -1.6797 -1.8304 -1.0412
  102SOL    HW2  407   2.883   0.623   1.070 -0.8983 -2.2416  0.4514
  102SOL     MW  408   2.905   0.651   0.987 -0.4592 -0.7094  0.1057
  103SOL     OW  409   1.738   0.249   1.877  0.9535  0.4605  0.0217
  103SOL    HW1  410   1.782   0.166   1.845 -1.3413  1.2198 -0.2251
  103SOL    HW2  411   1.704   0.219   1.968  0.6232 -0.4874  0.9552
  103SOL     MW  412   1.739   0.234   1.885  0.6071  0.4356  0.1123
  104SOL     OW  413   0.152   1.522   1.565 -0.4790 -0.2353 -0.1589
  104SOL    HW1  414   0.191   1.453   1.611  0.3068  0.6886 -0.0390
  104SOL    HW2  415   0.057   1.507   1.576 -1.5138 -1.6992  1.3852
  104SOL     MW  416   0.145   1.511   1.572 -0.5119 -0.3066  0.0606
  105SOL     OW  417   0.037   1.187   0.416 -0.2193  0.2174 -0.1089
  105SOL    HW1  418   0.066   1.087   0.405  0.5402 -2.3160 -0.5141
  105SOL    HW2  419   0.119   1.232   0.457 -0.8512  0.6040  2.2598
  105SOL     MW  420   0.052   1.180   0.420 -0.2025 -0.0659  0.1502
  106SOL     OW  421   0.835   0.401   1.013  0.7617  0.0030  0.1660
  106SOL    HW1  422   0.749   0.447   1.007  0.2876 -1.2119 -1.3978
  106SOL    HW2  423   0.882   0.397   0.922 -0.5845  1.1152 -1.5149
  106SOL     MW  424   0.830   0.406   1.000  0.5215 -0.0106 -0.2621
  107SOL     OW  425   0.801   2.141   2.916 -0.0064  0.0390 -0.0170
  107SOL    HW1  426   0.729   2.120   2.856  0.5100 -1.8375  2.0836
  107SOL    HW2  427   0.803   2.090   3.000 -0.9374  0.3090  0.2332
  107SOL     MW  428   0.792   2.132   2.919 -0.0611 -0.1730  0.2932
  108SOL     OW  429   1.325   1.641   1.636 -0.3177  0.2588  0.0248
  108SOL    HW1  430   1.228   1.620   1.599 -0.0328  0.4064  1.8237
  108SOL    HW2  431   1.386   1.572   1.614  3.0119  1.4917  0.3601
  108SOL     MW  432   1.320   1.629   1.628  0.1592  0.4409  0.3064
  109SOL     OW  433   2.021   0.753   0.272 -0.1093 -0.0213 -0.1552
  109SOL    HW1  434   2.043   0.849   0.262 -1.7156 -0.0959  0.9482
  109SOL    HW2  435   2.059   0.724   0.356 -0.5882  2.9273 -0.1075
  109SOL     MW  436   2.029   0.762   0.282 -0.3844  0.3579 -0.0034
  110SOL     OW  437   0.407   1.927   0.631 -0.0145  0.2087  0.4281
  110SOL    HW1  438   0.408   1.848   0.569  1.4321 -0.4062 -1.5791
  110SOL    HW2  439   0.419   1.999   0.569  1.4094 -2.5224  0.5743
  110SOL     MW  440   0.409   1.926   0.615  0.3642 -0.2328  0.1826
  111SOL     OW  441   0.752   0.872   1.459  0.3085  0.2244 -0.2261
  111SOL    HW1  442   0.749   0.846   1.367  1.6565  1.4943 -0.0813
  111SOL    HW2  443   0.759   0.787   1.497 -2.8727 -0.4956 -1.8254
  111SOL     MW  444   0.752   0.857   1.452  0.0666  0.2969 -0.4180
  112SOL     OW  445   1.315   1.085   1.633 -0.0843 -0.1415 -0.1182
  112SOL    HW1  446   1.253   1.156   1.627  0.8812 -0.5508 -2.8299
  112SOL    HW2  447   1.260   1.003   1.633 -0.2957 -0.0790 -1.1446
  112SOL     MW  448   1.300   1.084   1.632  0.0152 -0.1873 -0.6114
  113SOL     OW  449   1.247   3.054   1.734 -0.4715 -0.4359 -0.2216
  113SOL    HW1  450   1.288   3.016   1.810  0.2710 -0.0732 -0.0374
  113SOL    HW2  451   1.261   2.990   1.660  0.5323 -0.1233 -1.7830
  113SOL     MW  452   1.254   3.041   1.734 -0.2411 -0.3468 -0.4033
  114SOL     OW  453   0.240   2.875   1.870  0.0524 -0.3790 -0.0650
  114SOL    HW1  454   0.305   2.915   1.921 -2.3538  0.4729 -1.0145
  114SOL    HW2  455   0.191   2.953   1.844 -1.0140  3.5144 -0.5529
  114SOL     MW  456   0.242   2.891   1.873 -0.4058  0.2471 -0.2546
  115SOL     OW  457   0.483   0.863   1.115 -0.3587 -0.2624  0.5092
  115SOL    HW1  458   0.476   0.782   1.156 -2.1716 -0.3167 -1.9132
  115SOL    HW2  459   0.437   0.916   1.182 -0.5197  0.5714  0.3344
  115SOL     MW  460   0.476   0.859   1.130 -0.6191 -0.1595  0.1666
  116SOL     OW  461   0.782   1.075   1.010 -0.2571 -1.0940 -0.1554
  116SOL    HW1  462   0.833   1.085   0.928  1.0236 -0.0794  0.7489
  116SOL    HW2  463   0.807   1.146   1.075  2.3446 -0.3323  1.9895
  116SOL     MW  464   0.792   1.086   1.008  0.2551 -0.8596  0.2469
  117SOL     OW  465   1.141   1.207   0.767 -0.1437  0.2030  0.4176
  117SOL    HW1  466   1.162   1.152   0.842 -1.9727 -0.8992 -1.6988
  117SOL    HW2  467   1.128   1.290   0.811 -1.0068  2.5154  0.7833
  117SOL     MW  468   1.142   1.211   0.783 -0.4989  0.3626  0.1866
  118SOL     OW  469   3.038   2.971   1.649  0.6605 -0.1124 -0.0309
  118SOL    HW1  470   3.074   3.009   1.731 -1.7863 -1.2528  0.0260
  118SOL    HW2  471   2.942   3.001   1.649 -1.2634 -1.4661  1.4078
  118SOL     MW  472   3.030   2.980   1.660  0.0838 -0.4415  0.1664
  119SOL     OW  473   0.452   1.470   1.219 -0.5317 -0.4007  0.4495
  119SOL    HW1  474   0.490   1.530   1.153 -1.3705  0.7783 -2.2928
  119SOL    HW2  475   0.355   1.464   1.202 -0.7917 -2.0479 -0.9731
  119SOL     MW  476   0.444   1.477   1.208 -0.6767 -0.4625 -0.1000
  120SOL     OW  477   0.265   0.714   0.973  0.0077 -0.5217  0.9214
  120SOL    HW1  478   0.239   0.653   1.041 -1.6401  1.6354  0.3058
  120SOL    HW2  479   0.333   0.767   1.019  0.1532 -0.7359  1.6776
  120SOL     MW  480   0.270   0.713   0.988 -0.1905 -0.2654  0.9399
  121SOL     OW  481   1.787   1.112   1.685 -0.0356  1.0123 -0.2285
  121SOL    HW1  482   1.696   1.077   1.674 -2.6839 -2.3036  0.9649
  121SOL    HW2  483   1.829   1.096   1.602 -2.3929 -0.3892  1.5609
  121SOL     MW  484   1.781   1.106   1.672 -0.6960  0.3899  0.1651
  122SOL     OW  485   0.180   0.518   0.834  0.1207  0.6588 -0.2484
  122SOL    HW1  486   0.267   0.494   0.806 -0.4148  2.0748  0.5046
  122SOL    HW2  487   0.199   0.605   0.869  0.0523 -1.5311 -0.9052
  122SOL     MW  488   0.194   0.526   0.835  0.0410  0.5567 -0.2357
  123SOL     OW  489   1.851   1.159   0.473 -0.0474  0.0237 -0.4332
  123SOL    HW1  490   1.832   1.067   0.509  1.0301 -0.5212  0.2998
  123SOL    HW2  491   1.863   1.207   0.554 -1.7549 -0.7658 -1.4806
  123SOL     MW  492   1.850   1.153   0.488 -0.1305 -0.1524 -0.4747
  124SOL     OW  493   0.623   0.560   0.934 -0.5237  0.0408 -0.3571
  124SOL    HW1  494   0.575   0.509   0.871  0.8517 -3.0416  0.6250
  124SOL    HW2  495   0.662   0.637   0.884 -0.4113  1.0700  1.0828
  124SOL     MW  496   0.622   0.563   0.919 -0.3274 -0.2301 -0.0375
  125SOL     OW  497   0.705   1.774   1.740  0.2911  0.4537  0.2064
  125SOL    HW1  498   0.648   1.703   1.703  1.3684 -0.6860 -0.3132
  125SOL    HW2  499   0.655   1.850   1.737  1.3148 -1.6526  2.2023
  125SOL     MW  500   0.691   1.775   1.735  0.5683  0.0254  0.4012
  126SOL     OW  501   2.120   1.593   1.986  0.5701 -0.4875  0.2148
  126SOL    HW1  502   2.168   1.677   1.968 -0.2657 -0.8099 -0.6605
  126SOL    HW2  503   2.187   1.543   2.028  2.5698  0.0855 -0.7928
  126SOL     MW  504   2.135   1.597   1.989  0.7237 -0.4544 -0.0337
  127SOL     OW  505   0.571   0.803   1.815 -0.1136 -0.1190 -0.1968
  127SOL    HW1  506   0.657   0.783   1.859 -1.2620  0.7559  1.9539
  127SOL    HW2  507   0.534   0.873   1.872  0.6766  1.3153  0.4762
  127SOL     MW  508   0.578   0.810   1.828 -0.1609  0.1857  0.1758
  128SOL     OW  509   1.740   0.709   2.901 -0.0475 -0.1733  0.5559
  128SOL    HW1  510   1.774   0.709   2.812  0.4372  0.0890  2.2765
  128SOL    HW2  511   1.723   0.802   2.926 -0.0847  0.7252 -1.8164
  128SOL     MW  512   1.742   0.722   2.892  0.0115 -0.0201  0.4699
  129SOL     OW  513   1.636   0.912   0.133  0.3034  0.3496 -0.2934
  129SOL    HW1  514   1.551   0.867   0.117  2.7595 -2.7595  0.1230
  129SOL    HW2  515   1.684   0.875   0.203 -0.2815  1.7617  0.6031
  129SOL     MW  516   1.631   0.902   0.140  0.5503  0.1257 -0.1202
  130SOL     OW  517   0.797   1.373   0.283  0.6327  0.2824 -0.4468
  130SOL    HW1  518   0.794   1.383   0.377  0.1543 -3.6622  0.7937
  130SOL    HW2  519   0.837   1.453   0.251 -1.6634 -0.6117  1.3137
  130SOL     MW  520   0.802   1.385   0.291  0.2667 -0.3560 -0.0509
  131SOL     OW  521   3.041   0.850   0.012 -0.0394 -0.3374 -0.3100
  131SOL    HW1  522   3.024   0.877  -0.081 -3.2452  1.2153 -1.3899
  131SOL    HW2  523   3.126   0.816   0.023  2.2231  0.4268 -2.1143
  131SOL     MW  524   3.050   0.849   0.001 -0.1639 -0.0317 -0.6906
  132SOL     OW  525   2.699   0.134   1.351  0.4264  0.4726 -0.0222
  132SOL    HW1  526   2.727   0.164   1.266  1.8301  0.4748 -0.2092
  132SOL    HW2  527   2.612   0.096   1.327  1.0985  0.4097 -0.9669
  132SOL     MW  528   2.691   0.133   1.337  0.7003  0.4646 -0.1715
  133SOL     OW  529   1.061   0.165   1.700 -0.5771 -0.2179 -0.0795
  133SOL    HW1  530   1.127   0.098   1.733  1.1354  0.9928  1.7899
  133SOL    HW2  531   1.019   0.193   1.781 -1.3374 -1.9578 -0.5701
  133SOL     MW  532   1.064   0.160   1.715 -0.4515 -0.2877  0.1024
  134SOL     OW  533   1.410   2.515   1.387  0.2958  0.1784  0.0337
  134SOL    HW1  534   1.330   2.568   1.408 -0.2973 -1.2005 -1.6603
  134SOL    HW2  535   1.445   2.509   1.473  0.8029  0.0702  1.8892
  134SOL     MW  536   1.404   2.521   1.401  0.2844 -0.0178  0.0550
  135SOL     OW  537   2.998   0.968   2.865  0.2124 -0.1839 -0.1243
  135SOL    HW1  538   3.083   1.029   2.867  3.3585 -0.0559 -0.2613
  135SOL    HW2  539   2.924   1.028   2.873 -0.5192 -2.2916 -1.3256
  135SOL     MW  540   3.000   0.984   2.866  0.5310 -0.4451 -0.3009
  136SOL     OW  541   0.215   2.032   0.785  0.0040  0.0080  0.1740
  136SOL    HW1  542   0.143   1.969   0.762  0.2646  2.4180 -1.7227
  136SOL    HW2  543   0.292   1.998   0.729 -0.1972 -2.2847 -2.3055
  136SOL     MW  544   0.216   2.019   0.774  0.0119  0.0235 -0.4034
  137SOL     OW  545   0.691   2.022   0.495 -0.0746  0.0715 -0.0849
  137SOL    HW1  546   0.726   2.016   0.584  1.2255  2.0419  0.8495
  137SOL    HW2  547   0.595   2.038   0.499  0.1944  3.2753  0.1507
  137SOL     MW  548   0.683   2.023   0.507  0.1324  0.7542  0.0695
  138SOL     OW  549   0.499   0.591   1.179 -0.3101 -0.3672  0.5285
  138SOL    HW1  550   0.404   0.576   1.164 -1.7864 -0.0522 -1.0322
  138SOL    HW2  551   0.537   0.586   1.092 -1.6808 -1.2045 -0.7031
  138SOL     MW  552   0.492   0.588   1.166 -0.6858 -0.4361  0.1601
  139SOL     OW  553   2.867   0.558   1.237  0.0099 -0.3050  0.0894
  139SOL    HW1  554   2.928   0.496   1.287 -3.3301 -1.1678  0.5558
  139SOL    HW2  555   2.864   0.627   1.305  1.5232 -0.1876  0.7016
  139SOL     MW  556   2.875   0.559   1.252 -0.2311 -0.4034  0.2317
  140SOL     OW  557   0.966   0.505   2.027  0.1889  0.3927 -0.7979
  140SOL    HW1  558   0.977   0.417   1.992 -1.6732  1.3646  1.6159
  140SOL    HW2  559   0.947   0.483   2.120  2.1260  0.9969  3.3645
  140SOL     MW  560   0.965   0.490   2.035  0.1988  0.6006  0.0698
  141SOL     OW  561   1.013   0.645   1.706 -0.2058  0.2658 -0.5495
  141SOL    HW1  562   1.059   0.570   1.666 -1.5443 -2.3291 -0.4746
  141SOL    HW2  563   1.067   0.718   1.685 -1.0962 -2.0288  0.4114
  141SOL     MW  564   1.026   0.644   1.698 -0.4999 -0.3793 -0.4128
  142SOL     OW  565   0.873   1.121   0.764 -0.5429  0.2169 -0.4837
  142SOL    HW1  566   0.849   1.060   0.686  1.1669 -0.0946 -0.3066
  142SOL    HW2  567   0.969   1.121   0.765  0.9846 -1.1225  0.9878
  142SOL     MW  568   0.882   1.113   0.754 -0.1158 -0.0009 -0.2662
  143SOL     OW  569   1.808   0.720   1.074 -0.5429 -0.1315  0.8779
  143SOL    HW1  570   1.875   0.687   1.009  0.5207 -3.8204  1.7702
  143SOL    HW2  571   1.725   0.729   1.033 -0.4909  0.7547  0.7739
  143SOL     MW  572   1.806   0.717   1.060 -0.3957 -0.5013  0.9819
  144SOL     OW  573   0.273   1.308   1.689 -0.4853  0.6760  0.1723
  144SOL    HW1  574   0.350   1.264   1.646  0.3897  0.4459  1.2422
  144SOL    HW2  575   0.289   1.290   1.787  2.6058 -0.4493  0.6846
  144SOL     MW  576   0.285   1.300   1.696  0.0380  0.4972  0.3811
  145SOL     OW  577   0.234   0.506   1.178  0.4481  0.5178  0.2657
  145SOL    HW1  578   0.270   0.424   1.208 -1.5618 -0.3779 -2.2696
  145SOL    HW2  579   0.157   0.478   1.140  1.3853 -1.7996 -2.5943
  145SOL     MW  580   0.228   0.491   1.177  0.3066  0.0939 -0.4462
  146SOL     OW  581   0.843   1.994   1.409  0.1747 -0.0000 -0.1747
  146SOL    HW1  582   0.890   1.996   1.322  2.3199  0.3165 -2.9239
  146SOL    HW2  583   0.747   1.993   1.394  1.3399 -0.3167  0.9506
  146SOL     MW  584   0.836   1.994   1.395  0.6115 -0.0001 -0.3889
  147SOL     OW  585   0.361   0.488   2.990  0.3734  0.3748 -0.2411
  147SOL    HW1  586   0.303   0.485   3.061 -0.5264 -0.5324 -2.3193
  147SOL    HW2  587   0.318   0.549   2.927  0.1226  0.0002 -0.8842
  147SOL     MW  588   0.348   0.495   2.991  0.2215  0.2057 -0.6001
  148SOL     OW  589   0.086   0.959   1.309 -0.5254  0.0115 -0.0756
  148SOL    HW1  590   0.171   0.962   1.346  2.1545  3.7431 -0.1410
  148SOL    HW2  591   0.053   1.051   1.310  1.4442 -0.7632  0.4173
  148SOL     MW  592   0.093   0.972   1.314  0.0880  0.4016 -0.0192
  149SOL     OW  593   1.469   1.092   1.384  0.4569  0.4487  0.4354
  149SOL    HW1  594   1.399   1.087   1.450  0.2385 -2.0140  1.3921
  149SOL    HW2  595   1.496   1.184   1.377  1.1788 -0.8354 -1.5377
  149SOL     MW  596   1.463   1.103   1.392  0.5233 -0.0457  0.3013
  150SOL     OW  597   1.735   1.371   0.774 -0.3622  0.1933  0.1377
  150SOL    HW1  598   1.774   1.294   0.812 -0.5782  1.8618  0.6589
  150SOL    HW2  599   1.763   1.446   0.818 -2.5662  0.3054 -2.3289
  150SOL     MW  600   1.744   1.371   0.785 -0.6815  0.4283 -0.1190
  151SOL     OW  601   1.663   1.815   0.793 -0.2028  0.7489  0.1972
  151SOL    HW1  602   1.646   1.819   0.696 -0.8785  1.1092 -2.0067
  151SOL    HW2  603   1.599   1.757   0.826  1.4503  1.0171 -1.4553
  151SOL     MW  604   1.652   1.808   0.785 -0.0738  0.8318 -0.3116
  152SOL     OW  605   0.797   1.444   1.628 -0.1495  0.0025  0.3580
  152SOL    HW1  606   0.737   1.426   1.699  0.0347  3.3047  1.3090
  152SOL    HW2  607   0.834   1.358   1.597 -0.3431 -0.8027  1.5488
  152SOL     MW  608   0.794   1.430   1.633 -0.1507  0.3320  0.6406
  153SOL     OW  609   2.593   1.219   0.803 -0.2874  0.1711  0.0728
  153SOL    HW1  610   2.667   1.196   0.745 -0.2478 -2.7136 -0.3149
  153SOL    HW2  611   2.539   1.149   0.774  1.5096  0.8857 -0.1959
  153SOL     MW  612   2.596   1.207   0.792 -0.0450 -0.1152 -0.0138
  154SOL     OW  613   0.154   1.754   1.712  0.1016 -0.3597  0.2455
  154SOL    HW1  614   0.158   1.672   1.670 -2.1444 -0.9286 -0.7851
  154SOL    HW2  615   0.235   1.759   1.766 -1.5262  1.2140  0.8229
  154SOL     MW  616   0.166   1.744   1.714 -0.4095 -0.2271  0.1857
  155SOL     OW  617   1.159   0.684   0.274  0.0631  0.3121 -0.1348
  155SOL    HW1  618   1.138   0.647   0.358 -1.6239 -2.3261 -0.3506
  155SOL    HW2  619   1.151   0.782   0.282 -0.2975  1.2537  0.6239
  155SOL     MW  620   1.155   0.692   0.286 -0.2071  0.0882 -0.0632
  156SOL     OW  621   1.547   3.002   1.072  0.5506 -0.2406 -0.3659
  156SOL    HW1  622   1.628   3.046   1.095  1.3683 -2.0906 -2.9180
  156SOL    HW2  623   1.561   2.921   1.116  0.5961 -0.3640  0.0558
  156SOL     MW  624   1.560   2.997   1.081  0.6645 -0.5010 -0.6470
  157SOL     OW  625   1.415   1.178   0.101 -0.3474 -0.9480  0.1151
  157SOL    HW1  626   1.471   1.125   0.146 -3.5765 -1.0850  0.3036
  157SOL    HW2  627   1.468   1.262   0.079 -1.6875  1.3675 -1.8424
  157SOL     MW  628   1.429   1.182   0.104 -0.9503 -0.6606 -0.1183
  158SOL     OW  629   0.400   1.624   2.261 -0.3779 -0.1581  0.5721
  158SOL    HW1  630   0.434   1.690   2.201 -0.4885 -0.8162  0.0338
  158SOL    HW2  631   0.345   1.675   2.318 -0.1687  0.0087 -2.5878
  158SOL     MW  632   0.397   1.639   2.261 -0.3649 -0.2229  0.0841
  159SOL     OW  633   1.279   1.711   0.475 -0.6013 -0.0601  0.1017
  159SOL    HW1  634   1.240   1.660   0.406 -0.4353 -0.6717 -0.2915
  159SOL    HW2  635   1.209   1.748   0.531  1.6270  0.2255 -0.6991
  159SOL     MW  636   1.265   1.709   0.473 -0.2854 -0.1031 -0.0558
  160SOL     OW  637   0.505   1.152   1.573 -0.0938  0.7218 -0.3565
  160SOL    HW1  638   0.496   1.054   1.581  1.6616  0.1509  0.0431
  160SOL    HW2  639   0.593   1.161   1.607  0.3502  1.5278 -0.4298
  160SOL     MW  640   0.516   1.141   1.578  0.1964  0.7528 -0.3134
  161SOL     OW  641   0.475   2.241   2.534 -0.0339 -0.5859 -0.4673
  161SOL    HW1  642   0.383   2.279   2.549 -1.9103  1.3157 -0.4390
  161SOL    HW2  643   0.469   2.177   2.462 -0.9491 -0.4993 -3.1546
  161SOL     MW  644   0.462   2.237   2.526 -0.4022 -0.3236 -0.8181
  162SOL     OW  645   1.089   1.789   1.860 -0.4669 -0.5956 -0.7721
  162SOL    HW1  646   1.083   1.863   1.921 -0.6894  3.1932  0.3741
  162SOL    HW2  647   1.009   1.746   1.887  0.1103 -1.4007  2.9199
  162SOL     MW  648   1.078   1.793   1.872 -0.4201 -0.2019 -0.1338
  163SOL     OW  649   2.088   3.026   0.885 -0.8108  0.8030  0.3173
  163SOL    HW1  650   2.058   3.097   0.828 -0.1671 -1.5891  2.8111
  163SOL    HW2  651   2.081   2.945   0.830 -1.8397 -2.7255  0.3895
  163SOL     MW  652   2.083   3.025   0.870 -0.8616  0.0218  0.6558
  164SOL     OW  653   0.306   0.219   0.808 -0.2480 -0.4682  0.0522
  164SOL    HW1  654   0.214   0.205   0.848 -0.2225  0.1860  0.0063
  164SOL    HW2  655   0.311   0.155   0.739  1.2303  2.2535  0.4921
  164SOL     MW  656   0.294   0.208   0.804 -0.0496 -0.0228  0.1042
  165SOL     OW  657   1.302   1.301   0.343 -0.8256 -0.0137 -0.1805
  165SOL    HW1  658   1.295   1.220   0.406 -0.0720 -0.2742  0.7480
  165SOL    HW2  659   1.328   1.261   0.257  1.5452 -2.5408  1.4357
  165SOL     MW  660   1.304   1.285   0.340 -0.4133 -0.3815  0.1552
  166SOL     OW  661   0.539   1.206   0.993 -0.3749 -0.2346  0.6189
  166SOL    HW1  662   0.535   1.183   1.085  4.4578 -0.3436 -1.6360
  166SOL    HW2  663   0.619   1.162   0.962  1.5171 -0.3410 -1.2113
  166SOL     MW  664   0.549   1.198   1.001  0.5124 -0.2630  0.0799
  167SOL     OW  665   0.815   1.100   0.256 -0.0436  0.2258 -0.2251
  167SOL    HW1  666   0.793   1.198   0.251  0.2864 -1.4569 -2.3013
  167SOL    HW2  667   0.909   1.082   0.226  1.6910 -0.0420 -0.0358
  167SOL     MW  668   0.825   1.111   0.252  0.2288 -0.0315 -0.4741
  168SOL     OW  669   1.724   1.653   3.027 -0.1974 -0.0590 -0.1341
  168SOL    HW1  670   1.652   1.710   3.023  5.3134 -1.2594  1.2517
  168SOL    HW2  671   1.714   1.566   2.986 -0.2662 -1.3324 -1.3321
  168SOL     MW  672   1.714   1.649   3.021  0.5206 -0.3854 -0.1093
  169SOL     OW  673   0.368   0.997   1.341 -0.1196 -0.1182 -0.2588
  169SOL    HW1  674   0.408   0.961   1.423 -1.8267 -0.9118  0.4151
  169SOL    HW2  675   0.391   1.090   1.334 -0.4675 -0.9321  0.2487
  169SOL     MW  676   0.376   1.005   1.351 -0.3907 -0.3303 -0.1029
  170SOL     OW  677   1.098   1.545   1.504  0.0452  0.3246 -0.2203
  170SOL    HW1  678   1.025   1.601   1.528 -1.1863 -1.3696  1.8959
  170SOL    HW2  679   1.105   1.552   1.406  2.8117  1.5371 -2.6788
  170SOL     MW  680   1.089   1.554   1.494  0.2477  0.2610 -0.2655
  171SOL     OW  681   0.562   1.381   0.602  0.1078  0.3640 -0.8148
  171SOL    HW1  682   0.551   1.365   0.695 -0.6183 -0.3290  0.2059
  171SOL    HW2  683   0.555   1.301   0.549 -0.9669  2.5778 -2.1295
  171SOL     MW  684   0.560   1.369   0.607 -0.1298  0.5647 -0.8536
  172SOL     OW  685   0.874   0.308   1.273 -0.2402 -0.1722 -0.5398
  172SOL    HW1  686   0.861   0.316   1.179 -4.5030  2.6161  1.7920
  172SOL    HW2  687   0.785   0.302   1.320  0.1394 -0.1559  2.9837
  172SOL     MW  688   0.861   0.308   1.266 -0.7525  0.1978  0.2327
  173SOL     OW  689   0.469   1.762   0.268  0.3560  0.4988 -1.0411
  173SOL    HW1  690   0.444   1.674   0.235 -1.2050 -0.2297  0.0517
  173SOL    HW2  691   0.515   1.737   0.356 -0.3485 -2.6279 -0.3966
  173SOL     MW  692   0.472   1.747   0.275  0.0571 -0.0099 -0.8119
  174SOL     OW  693   1.840   0.908   1.493 -0.0267 -0.3592 -0.1053
  174SOL    HW1  694   1.802   0.821   1.494 -0.0117 -0.7727 -0.6556
  174SOL    HW2  695   1.842   0.924   1.399  1.9237 -0.9398 -1.9280
  174SOL     MW  696   1.835   0.899   1.480  0.2326 -0.4904 -0.4184
  175SOL     OW  697   0.475   1.507   0.207 -0.1569  0.0987  0.8086
  175SOL    HW1  698   0.398   1.456   0.172  0.3050  3.1488  0.7145
  175SOL    HW2  699   0.524   1.435   0.260 -1.5879 -1.8167 -1.5668
  175SOL     MW  700   0.471   1.491   0.210 -0.2848  0.2484  0.4828
  176SOL     OW  701   0.188   1.469   1.200  0.4815  0.2134  0.4367
  176SOL    HW1  702   0.168   1.412   1.125  0.6669 -3.1339 -5.0628
  176SOL    HW2  703   0.105   1.482   1.245  0.8886  1.2185  1.4888
  176SOL     MW  704   0.175   1.463   1.196  0.5597 -0.0956 -0.1501
  177SOL     OW  705   0.578   0.346   1.316 -0.2932  0.0899  0.4299
  177SOL    HW1  706   0.556   0.423   1.257 -0.5369 -2.7520  1.6266
  177SOL    HW2  707   0.589   0.383   1.405  0.0503  0.2935  1.0774
  177SOL     MW  708   0.576   0.361   1.320 -0.2800 -0.2582  0.6732
  178SOL     OW  709   3.059   0.540   2.972 -0.2347 -0.4813  0.5469
  178SOL    HW1  710   2.992   0.552   3.040  4.0203 -2.8520  1.9672
  178SOL    HW2  711   3.011   0.528   2.889 -1.8679 -0.9035 -0.7869
  178SOL     MW  712   3.044   0.540   2.970  0.1112 -0.8498  0.5583
  179SOL     OW  713   1.584   1.410   1.330 -0.4019  0.4716  0.5380
  179SOL    HW1  714   1.578   1.448   1.416  4.6055 -1.6504 -2.6331
  179SOL    HW2  715   1.678   1.389   1.331 -0.3651  0.8822 -1.9441
  179SOL     MW  716   1.596   1.412   1.342  0.2637  0.2458 -0.2079
  180SOL     OW  717   2.980   0.220   0.450 -0.1085 -0.1292  0.2899
  180SOL    HW1  718   2.961   0.250   0.357  2.0237  0.4983  0.2227
  180SOL    HW2  719   3.063   0.276   0.461  1.7639 -2.4416 -0.3175
  180SOL     MW  720   2.988   0.231   0.439  0.4199 -0.3515  0.2009
  181SOL     OW  721   1.121   1.340   3.057  0.0831 -0.0271  0.0916
  181SOL    HW1  722   1.183   1.400   3.097 -0.8776  1.4226  0.4219
  181SOL    HW2  723   1.177   1.280   3.011 -1.5089  2.0124 -2.1908
  181SOL     MW  724   1.137   1.340   3.057 -0.2537  0.4333 -0.1659
  182SOL     OW  725   0.453   0.893   1.576 -0.6001  0.5142 -0.0538
  182SOL    HW1  726   0.385   0.869   1.642 -1.3287  3.7300 -0.5732
  182SOL    HW2  727   0.524   0.839   1.619 -0.2615  0.8478 -0.2422
  182SOL     MW  728   0.453   0.883   1.591 -0.6515  0.9825 -0.1472
  183SOL     OW  729   1.595   1.717   1.217  0.0865  0.5676  0.6059
  183SOL    HW1  730   1.686   1.716   1.245  1.2527 -0.4509 -1.7283
  183SOL    HW2  731   1.552   1.645   1.261 -1.5735  1.9647 -1.7334
  183SOL     MW  732   1.602   1.707   1.227  0.0214  0.6176 -0.0107
  184SOL     OW  733   0.816   0.728   1.944 -0.0680  0.0069 -0.4266
  184SOL    HW1  734   0.891   0.717   1.879 -0.0794 -0.4158 -0.5299
  184SOL    HW2  735   0.822   0.644   1.990 -1.7044  2.0208 -0.6727
  184SOL     MW  736   0.827   0.715   1.941 -0.2854  0.2168 -0.4727
  185SOL     OW  737   1.124   0.984   1.925  0.0468 -0.1208 -0.1213
  185SOL    HW1  738   1.128   0.898   1.972 -3.9496 -1.5419  0.6651
  185SOL    HW2  739   1.152   1.050   1.983 -2.2969  0.3726 -0.0949
  185SOL     MW  740   1.128   0.982   1.939 -0.7897 -0.2432 -0.0141
  186SOL     OW  741   0.352   1.654   1.445  0.5424  0.6803  0.3666
  186SOL    HW1  742   0.371   1.602   1.368 -0.8804 -0.6933  1.0336
  186SOL    HW2  743   0.270   1.605   1.476  1.0281  0.6322 -0.9334
  186SOL     MW  744   0.344   1.640   1.439  0.4188  0.4927  0.2831
  187SOL     OW  745   1.504   0.740   1.351  0.0738 -0.0058 -0.2719
  187SOL    HW1  746   1.570   0.745   1.419 -0.2928 -1.7150 -0.4300
  187SOL    HW2  747   1.414   0.719   1.381 -0.7332  0.5944  2.2156
  187SOL     MW  748   1.501   0.738   1.364 -0.0810 -0.1521  0.0354
  188SOL     OW  749   1.894   1.169   0.852  0.3513  0.0277 -0.7777
  188SOL    HW1  750   1.883   1.154   0.944  0.6148  0.5128  0.8463
  188SOL    HW2  751   1.907   1.083   0.814 -1.1636 -1.2744 -0.7653
  188SOL     MW  752   1.894   1.156   0.859  0.1862 -0.0801 -0.5618
  189SOL     OW  753   0.689   0.812   0.859  0.4467 -0.7029 -0.6668
  189SOL    HW1  754   0.593   0.846   0.840  0.9594  3.9002 -0.0342
  189SOL    HW2  755   0.729   0.888   0.900 -2.1036  1.6583 -0.3314
  189SOL     MW  756   0.682   0.826   0.862  0.1779  0.2160 -0.5391
  190SOL     OW  757   1.883   0.234   2.178 -0.2264  0.0234  0.3108
  190SOL    HW1  758   1.892   0.239   2.270 -2.3427  1.0440  0.5055
  190SOL    HW2  759   1.959   0.286   2.153 -2.7809 -1.1844 -0.1520
  190SOL     MW  760   1.894   0.242   2.187 -0.8426 -0.0013  0.2754
  191SOL     OW  761   1.564   0.952   1.188 -0.4808 -0.4648  0.2763
  191SOL    HW1  762   1.526   1.007   1.255  0.0577 -1.3262 -0.4766
  191SOL    HW2  763   1.550   0.867   1.228  4.6669  0.4935 -0.6286
  191SOL     MW  764   1.557   0.948   1.202  0.2694 -0.4520  0.0575
  192SOL     OW  765   0.574   2.121   2.765  0.0346 -0.1182  0.2986
  192SOL    HW1  766   0.542   2.161   2.683 -0.1978  1.5810  0.2387
  192SOL    HW2  767   0.530   2.038   2.769 -3.5367 -0.4537  0.4630
  192SOL     MW  768   0.564   2.115   2.755 -0.4673  0.0618  0.3124
  193SOL     OW  769   0.924   1.574   0.754 -0.6515  0.6792  0.5769
  193SOL    HW1  770   0.862   1.563   0.823 -0.1639  0.9419 -2.3390
  193SOL    HW2  771   0.876   1.515   0.686 -1.7759 -0.7470 -0.8191
  193SOL     MW  772   0.910   1.565   0.754 -0.7355  0.5257  0.0080
  194SOL     OW  773   0.499   1.446   0.903 -0.4978 -0.2155 -0.0520
  194SOL    HW1  774   0.507   1.351   0.927  2.2583 -1.4375  1.3752
  194SOL    HW2  775   0.403   1.452   0.887  0.4820  1.6309 -1.8665
  194SOL     MW  776   0.487   1.434   0.904 -0.0049 -0.1331 -0.1031
  195SOL     OW  777   1.296   1.158   2.954 -0.1007 -0.2612 -0.4725
  195SOL    HW1  778   1.338   1.161   3.044  2.8423 -0.5719 -0.2595
  195SOL    HW2  779   1.240   1.082   2.970  0.5867  3.2402  0.6387
  195SOL     MW  780   1.294   1.148   2.968  0.3783  0.1598 -0.2978
  196SOL     OW  781   2.210   0.989   0.537 -0.1481  0.3221 -0.5281
  196SOL    HW1  782   2.151   0.968   0.463  1.0513 -0.4019  2.3318
  196SOL    HW2  783   2.194   1.080   0.556  2.2842  0.1080 -1.5886
  196SOL     MW  784   2.200   0.998   0.530  0.3310  0.1983 -0.2907
  197SOL     OW  785   0.664   1.363   2.152 -0.6112 -0.3200  0.3627
  197SOL    HW1  786   0.680   1.262   2.129  0.5944 -1.0178  0.0760
  197SOL    HW2  787   0.653   1.402   2.065 -0.2865 -3.6008 -1.5187
  197SOL     MW  788   0.665   1.354   2.137 -0.4093 -0.8450  0.0767
  198SOL     OW  789   2.920   1.399   1.042  0.1834 -0.2888 -0.7792
  198SOL    HW1  790   2.886   1.477   1.001 -0.3894 -0.2678 -2.6879
  198SOL    HW2  791   2.844   1.345   1.059  0.2244  1.5622 -0.3279
  198SOL     MW  792   2.906   1.402   1.039  0.1132 -0.0418 -0.9715
  199SOL     OW  793   0.597   1.398   1.862  0.8580 -0.6442  0.4046
  199SOL    HW1  794   0.525   1.344   1.901  1.6272 -2.7014  0.2695
  199SOL    HW2  795   0.561   1.459   1.795  1.7148  1.4633 -1.6273
  199SOL     MW  796   0.583   1.399   1.859  1.0725 -0.6376  0.1187
  200SOL     OW  797   1.858   2.914   1.380  0.2416  0.3475 -0.2639
  200SOL    HW1  798   1.916   2.916   1.298  0.2790 -0.6958 -0.0294
  200SOL    HW2  799   1.803   2.994   1.366 -2.1054  2.4939  0.9256
  200SOL     MW  800   1.859   2.925   1.367 -0.0631  0.4931 -0.0760
  201SOL     OW  801   0.978   0.374   0.792 -0.1928 -0.3294 -0.7802
  201SOL    HW1  802   0.972   0.284   0.756 -1.5117  1.2318  1.5907
  201SOL    HW2  803   1.068   0.385   0.825  2.7086 -1.1911  0.0870
  201SOL     MW  804   0.989   0.364   0.792  0.0160 -0.2371 -0.3529
  202SOL     OW  805   1.499   1.607   0.905 -0.3539  0.9475  0.2874
  202SOL    HW1  806   1.483   1.517   0.885 -1.0510  1.0022  1.8065
  202SOL    HW2  807   1.557   1.606   0.982  0.4361  2.4711 -0.0390
  202SOL     MW  808   1.505   1.595   0.913 -0.3417  1.1557  0.4448
  203SOL     OW  809   3.022   0.461   1.427  0.3052  0.0103  0.5627
  203SOL    HW1  810   3.080   0.384   1.419 -2.0474  0.2294 -0.2790
  203SOL    HW2  811   3.082   0.533   1.427 -0.4918  0.3444 -0.2192
  203SOL     MW  812   3.037   0.461   1.426 -0.1104  0.0833  0.3485
  204SOL     OW  813   1.027   1.783   0.599  0.1106  0.5284  0.1784
  204SOL    HW1  814   1.005   1.705   0.652 -2.3820  0.3549  1.9379
  204SOL    HW2  815   0.960   1.774   0.529  0.1601  0.1881 -0.1259
  204SOL     MW  816   1.016   1.772   0.597 -0.2117  0.4606  0.3704
  205SOL     OW  817   1.411   3.090   1.296 -0.1759  0.0919 -0.0040
  205SOL    HW1  818   1.455   3.054   1.217 -0.6600  1.6224 -3.6622
  205SOL    HW2  819   1.411   3.188   1.287 -2.5812  0.7905  1.5623
  205SOL     MW  820   1.417   3.098   1.285 -0.5571  0.3860 -0.2800
  206SOL     OW  821   0.494   3.094   1.420  0.2726  0.3403  0.2775
  206SOL    HW1  822   0.435   3.095   1.343  2.0048  0.7495  0.5264
  206SOL    HW2  823   0.544   3.014   1.411 -1.1688 -0.1266 -1.7003
  206SOL     MW  824   0.493   3.084   1.409  0.3110  0.3327  0.0494
  207SOL     OW  825   0.920   1.615   0.229 -0.5974 -0.2778  0.2920
  207SOL    HW1  826   0.927   1.693   0.177 -0.1279  1.2480 -1.5450
  207SOL    HW2  827   1.011   1.597   0.261  0.2293  1.7419  0.7622
  207SOL     MW  828   0.933   1.623   0.226 -0.4264  0.1900  0.1117
  208SOL     OW  829   0.727   1.674   1.330 -0.4146  0.5270  0.9526
  208SOL    HW1  830   0.799   1.695   1.393  0.6851  1.2488 -0.1257
  208SOL    HW2  831   0.773   1.605   1.285 -3.5706  4.1759 -0.4594
  208SOL     MW  832   0.742   1.667   1.333 -0.6859  1.1036  0.6240
  209SOL     OW  833   1.555   0.503   2.852  0.0965  1.1153 -1.0932
  209SOL    HW1  834   1.609   0.584   2.873  0.4261 -0.4425  1.8497
  209SOL    HW2  835   1.630   0.439   2.829 -0.8218 -1.2738 -1.5860
  209SOL     MW  836   1.572   0.505   2.851  0.0188  0.5946 -0.7700
  210SOL     OW  837   1.463   1.351   0.834  0.1822  0.5504  0.9090
  210SOL    HW1  838   1.557   1.359   0.798 -0.7004  3.7799  3.2467
  210SOL    HW2  839   1.400   1.375   0.766 -2.0906 -0.7736  0.0784
  210SOL     MW  840   1.467   1.355   0.820 -0.2341  0.8018  1.1078
  211SOL     OW  841   1.721   0.262   1.001  0.0986  0.5517  0.6357
  211SOL    HW1  842   1.704   0.293   0.912  1.9111 -0.7370 -1.3231
  211SOL    HW2  843   1.809   0.296   1.023  1.5199  0.4855 -0.8549
  211SOL     MW  844   1.730   0.270   0.992  0.5253  0.3729  0.1805
  212SOL     OW  845   0.271   1.056   0.187  0.6890 -0.1323 -0.3686
  212SOL    HW1  846   0.182   1.025   0.201  1.8529  2.6842  1.9193
  212SOL    HW2  847   0.315   0.979   0.154  1.5352  0.0846 -0.6007
  212SOL     MW  848   0.265   1.042   0.185  0.9542  0.2679 -0.0974
  213SOL     OW  849   0.501   1.745   2.994 -0.0093 -0.3597 -0.0364
  213SOL    HW1  850   0.520   1.818   3.059 -0.3306  0.5219  2.0686
  213SOL    HW2  851   0.557   1.762   2.917 -3.2762  1.3429 -0.1138
  213SOL     MW  852   0.511   1.757   2.992 -0.4827 -0.0187  0.2311
  214SOL     OW  853   0.650   0.373   2.174 -0.4368 -0.6117 -0.0762
  214SOL    HW1  854   0.583   0.447   2.187  0.8687 -0.0945 -2.8549
  214SOL    HW2  855   0.655   0.346   2.085  1.4021  3.4574 -0.6034
  214SOL     MW  856   0.642   0.379   2.164 -0.0219 -0.0066 -0.5124
  215SOL     OW  857   0.498   0.693   2.639  0.0543 -0.5605 -0.0774
  215SOL    HW1  858   0.487   0.684   2.548 -3.7743  0.1943  2.2505
  215SOL    HW2  859   0.415   0.660   2.669 -0.2492  1.1241 -2.7795
  215SOL     MW  860   0.486   0.687   2.631 -0.4909 -0.2387 -0.1267
  216SOL     OW  861   2.989   2.999   2.745  0.1088  0.5122  0.2702
  216SOL    HW1  862   2.917   2.996   2.802  2.4340  0.2901 -0.4923
  216SOL    HW2  863   3.012   3.089   2.727 -0.7919 -1.6825 -1.1194
  216SOL     MW  864   2.982   3.011   2.750  0.2968  0.1933 -0.0137
  217SOL     OW  865   1.062   1.115   0.128 -0.7380  0.1735 -0.4912
  217SOL    HW1  866   1.079   1.052   0.058 -0.2261  0.3214  1.3848
  217SOL    HW2  867   1.047   1.201   0.093  1.4884  2.6397 -1.2817
  217SOL     MW  868   1.062   1.118   0.114 -0.3767  0.5184 -0.3480
  218SOL     OW  869   0.906   1.344   2.638 -0.2351 -0.2306  0.4952
  218SOL    HW1  870   0.909   1.261   2.691 -1.5889 -0.2653  1.0713
  218SOL    HW2  871   0.996   1.378   2.641 -0.7944 -0.1958  1.2402
  218SOL     MW  872   0.918   1.338   2.645 -0.4875 -0.2306  0.6695
  219SOL     OW  873   1.130   0.350   2.596 -0.2233 -0.3006  0.0914
  219SOL    HW1  874   1.202   0.406   2.644  1.4054  1.8942  0.6642
  219SOL    HW2  875   1.064   0.411   2.583  0.9596 -1.7715 -0.7796
  219SOL     MW  876   1.131   0.365   2.601  0.1476 -0.2051  0.0521
  220SOL     OW  877   1.693   0.455   2.214 -0.6752  0.3697 -0.0089
  220SOL    HW1  878   1.632   0.475   2.145 -0.7604 -0.3298  1.8619
  220SOL    HW2  879   1.743   0.376   2.191 -1.6428 -0.5073  0.5559
  220SOL     MW  880   1.692   0.447   2.202 -0.8141  0.1617  0.3125
  221SOL     OW  881   0.345   1.317   2.916  0.0092  0.2633  0.1166
  221SOL    HW1  882   0.395   1.240   2.890 -0.1908  1.6612 -3.2143
  221SOL    HW2  883   0.380   1.391   2.864 -0.3432  1.2945 -2.1028
  221SOL     MW  884   0.356   1.317   2.905 -0.0637  0.5838 -0.6157
  222SOL     OW  885   0.462   0.959   2.640 -0.0069 -0.3614 -0.7020
  222SOL    HW1  886   0.390   0.998   2.588  0.7434  1.7125 -0.9918
  222SOL    HW2  887   0.462   0.870   2.608  2.7727  0.1811  2.2617
  222SOL     MW  888   0.453   0.952   2.629  0.4588 -0.0162 -0.3492
  223SOL     OW  889   0.097   2.021   2.527 -0.3136 -0.4121 -0.0086
  223SOL    HW1  890   0.101   1.984   2.616  0.0832 -0.7767 -1.6413
  223SOL    HW2  891   0.119   2.117   2.527 -1.5238 -0.4902  0.5291
  223SOL     MW  892   0.101   2.028   2.539 -0.4209 -0.4705 -0.1531
  224SOL     OW  893   1.554   0.726   2.519 -0.3024 -0.1655  0.0287
  224SOL    HW1  894   1.538   0.737   2.610 -0.1411  2.3111 -0.3265
  224SOL    HW2  895   1.572   0.817   2.486 -1.4133  1.3320 -0.4535
  224SOL     MW  896   1.554   0.740   2.527 -0.4277  0.3588 -0.0818
  225SOL     OW  897   2.929   1.475   2.299 -0.5473  0.3143 -0.1301
  225SOL    HW1  898   2.962   1.553   2.258 -0.3850  0.4870  2.1229
  225SOL    HW2  899   2.865   1.505   2.369 -4.0017 -1.0650  0.4002
  225SOL     MW  900   2.925   1.489   2.303 -0.9817  0.1551  0.2371
  226SOL     OW  901   0.417   1.529   2.759  0.0250 -0.2684 -0.3018
  226SOL    HW1  902   0.494   1.502   2.701  1.1655 -0.2018  0.3296
  226SOL    HW2  903   0.395   1.622   2.736 -3.0952 -2.0614  1.7692
  226SOL     MW  904   0.425   1.538   2.748 -0.2362 -0.4962  0.0547
  227SOL     OW  905   0.537   1.137   2.841  0.0335 -0.2778 -0.2054
  227SOL    HW1  906   0.632   1.146   2.826 -0.5182  3.0500 -4.0290
  227SOL    HW2  907   0.518   1.076   2.774  2.7598 -0.6072  1.7920
  227SOL     MW  908   0.547   1.130   2.830  0.3205  0.1178 -0.4464
  228SOL     OW  909   0.738   1.125   2.052  0.1843  0.3208  0.4339
  228SOL    HW1  910   0.780   1.149   1.969 -1.2295  1.6310  1.2639
  228SOL    HW2  911   0.802   1.127   2.123  0.8094  1.4445  1.5859
  228SOL     MW  912   0.752   1.129   2.050  0.0803  0.6419  0.6954
  229SOL     OW  913   0.138   0.665   0.064  0.1309 -0.0288 -0.1326
  229SOL    HW1  914   0.084   0.637  -0.010  0.0349 -0.4403 -0.8700
  229SOL    HW2  915   0.153   0.581   0.106 -1.4452  1.8826  0.2623
  229SOL     MW  916   0.133   0.650   0.059 -0.0897  0.1691 -0.1778
  230SOL     OW  917   1.750   1.331   2.023  0.9900  0.0128 -0.4731
  230SOL    HW1  918   1.688   1.303   2.089  1.6115  1.7461  0.8492
  230SOL    HW2  919   1.797   1.249   2.013  2.6730 -0.1513  0.0545
  230SOL     MW  920   1.748   1.316   2.030  1.2941  0.2198 -0.2291
  231SOL     OW  921   2.763   1.261   2.175 -0.5443  0.3230 -0.2524
  231SOL    HW1  922   2.817   1.333   2.194  2.4869 -3.8675  1.4100
  231SOL    HW2  923   2.704   1.280   2.103 -0.1046 -1.4471  0.1154
  231SOL     MW  924   2.763   1.273   2.168 -0.0864 -0.4634  0.0154
  232SOL     OW  925   2.246   0.858   2.032  0.3606  0.0569  0.0247
  232SOL    HW1  926   2.169   0.858   1.978 -0.3334 -1.1331  1.6787
  232SOL    HW2  927   2.201   0.875   2.121 -0.8522 -1.2544  3.3085
  232SOL     MW  928   2.230   0.860   2.037  0.1090 -0.2731  0.6762
  233SOL     OW  929   2.060   0.414   2.056  0.0347 -0.3985  0.3132
  233SOL    HW1  930   2.063   0.342   1.992 -1.5339 -2.7840 -1.6518
  233SOL    HW2  931   2.139   0.468   2.057  2.0808  0.5841 -1.4830
  233SOL     MW  932   2.070   0.411   2.048  0.0977 -0.5836 -0.1831
  234SOL     OW  933   0.194   1.033   2.522 -0.1976  0.1957  0.4536
  234SOL    HW1  934   0.103   1.053   2.489  1.1358  0.8973 -0.7359
  234SOL    HW2  935   0.235   1.121   2.537 -1.8931  0.8217  3.0572
  234SOL     MW  936   0.188   1.047   2.520 -0.2454  0.3709  0.6402
  235SOL     OW  937   1.136   3.047   2.792 -0.1512 -0.5017  0.3895
  235SOL    HW1  938   1.116   2.995   2.867 -0.8498  1.7038  1.1168
  235SOL    HW2  939   1.130   3.137   2.831 -0.0986 -1.0033 -0.0821
  235SOL     MW  940   1.132   3.052   2.807 -0.2365 -0.2769  0.4233
  236SOL     OW  941   2.916   0.581   0.088  0.2539  0.2898 -0.4838
  236SOL    HW1  942   2.827   0.624   0.086 -1.3064 -0.6950 -1.4249
  236SOL    HW2  943   2.977   0.646   0.113 -0.4996 -0.0481  0.3290
  236SOL     MW  944   2.912   0.595   0.091 -0.0514  0.1153 -0.5007
  237SOL     OW  945   2.011   1.137   2.232 -0.2777 -0.7064 -0.0614
  237SOL    HW1  946   1.963   1.163   2.158 -0.6085  1.6141  2.9244
  237SOL    HW2  947   2.042   1.043   2.225 -2.3847  1.1641 -1.6989
  237SOL     MW  948   2.008   1.128   2.221 -0.5993 -0.1534  0.1165
  238SOL     OW  949   1.092   1.773   2.955 -0.5981 -0.3418 -0.4294
  238SOL    HW1  950   1.043   1.698   2.990  0.0890  0.1172  1.4852
  238SOL    HW2  951   1.184   1.749   2.943 -0.8073  2.2793  0.7453
  238SOL     MW  952   1.097   1.760   2.958 -0.5351  0.0646 -0.0218
  239SOL     OW  953   1.256   1.444   2.373 -0.1883 -0.2544 -0.4717
  239SOL    HW1  954   1.192   1.468   2.442  0.2885 -0.1154  2.7177
  239SOL    HW2  955   1.261   1.349   2.372 -2.9447 -2.4002  1.4162
  239SOL     MW  956   1.248   1.434   2.382 -0.4890 -0.5192  0.1982
  240SOL     OW  957   0.622   0.918   2.308  0.1624 -0.2552 -0.0522
  240SOL    HW1  958   0.651   0.956   2.388 -1.3874  1.2558  2.2975
  240SOL    HW2  959   0.700   0.871   2.269  0.0298  2.5149 -3.0227
  240SOL     MW  960   0.636   0.917   2.314 -0.0596  0.3096 -0.1341
  241SOL     OW  961   0.686   0.412   0.020 -0.1838  0.1656 -0.0178
  241SOL    HW1  962   0.717   0.501   0.054  1.1070  3.2534 -0.8299
  241SOL    HW2  963   0.594   0.413   0.017  1.1898 -3.8638 -0.5632
  241SOL     MW  964   0.678   0.424   0.024  0.1677  0.0414 -0.1969
  242SOL     OW  965   1.490   1.726   2.304  0.0755 -0.3818 -0.5200
  242SOL    HW1  966   1.428   1.799   2.284 -1.9600  0.5307  5.7038
  242SOL    HW2  967   1.460   1.652   2.246 -0.2274 -2.5257 -0.2224
  242SOL     MW  968   1.478   1.725   2.294 -0.2331 -0.5443  0.3404
  243SOL     OW  969   0.985   0.174   2.443 -0.3633  0.0064 -0.5917
  243SOL    HW1  970   1.054   0.134   2.390  0.4169 -1.1193  1.7303
  243SOL    HW2  971   1.042   0.225   2.509  1.8305 -0.0669 -3.2476
  243SOL     MW  972   1.002   0.175   2.445  0.0291 -0.1518 -0.6357
  244SOL     OW  973   0.168   0.821   2.342 -0.3660 -0.0713 -0.3490
  244SOL    HW1  974   0.175   0.908   2.388 -1.9500 -0.2843  1.8930
  244SOL    HW2  975   0.256   0.784   2.345  0.2147  0.7919 -0.0526
  244SOL     MW  976   0.180   0.828   2.348 -0.4984  0.0145 -0.0141
  245SOL     OW  977   1.237   0.182   2.300 -0.4022  0.2290  0.6150
  245SOL    HW1  978   1.276   0.103   2.325  0.0677  1.4739 -3.9353
  245SOL    HW2  979   1.282   0.252   2.345  1.3147  1.3367  1.0366
  245SOL     MW  980   1.248   0.181   2.309 -0.1137  0.5394  0.0703
  246SOL     OW  981   1.215   1.157   2.110 -0.9426  0.0401  0.1686
  246SOL    HW1  982   1.147   1.123   2.171  0.1385 -1.6003 -1.3275
  246SOL    HW2  983   1.289   1.097   2.121  1.9185  0.6303  3.2128
  246SOL     MW  984   1.216   1.144   2.119 -0.4225 -0.0985  0.3729
  247SOL     OW  985   0.762   0.596   0.209  0.3344  0.3407 -0.1861
  247SOL    HW1  986   0.744   0.687   0.199  0.3255 -0.0328 -0.7988
  247SOL    HW2  987   0.852   0.578   0.163  2.6051 -0.8262  0.8315
  247SOL     MW  988   0.772   0.606   0.202  0.6329  0.1375 -0.1327
  248SOL     OW  989   0.324   1.288   2.571 -0.0589  0.0595  0.0345
  248SOL    HW1  990   0.371   1.320   2.489 -0.4666 -0.3270  0.9269
  248SOL    HW2  991   0.332   1.367   2.630  0.6556  1.2811 -2.3647
  248SOL     MW  992   0.332   1.303   2.568 -0.0184  0.1697 -0.1643
  249SOL     OW  993   0.081   1.850   2.740 -0.6328 -0.0080  0.5967
  249SOL    HW1  994   0.062   1.778   2.682 -1.5819  3.0417 -0.5008
  249SOL    HW2  995   0.131   1.807   2.809  1.0024  0.9692  1.2640
  249SOL     MW  996   0.085   1.835   2.741 -0.5423  0.5233  0.5400
  250SOL     OW  997   2.144   0.918   2.262 -0.3125 -0.3956 -0.4419
  250SOL    HW1  998   2.137   0.820   2.265 -2.5648 -0.1826 -2.1006
  250SOL    HW2  999   2.236   0.931   2.296 -0.0946  2.6074  2.0004
  250SOL     MW 1000   2.155   0.907   2.267 -0.5809  0.0287 -0.3385
  251SOL     OW 1001   0.153   0.904   1.951  0.1958 -0.3135 -0.0115
  251SOL    HW1 1002   0.138   0.820   1.991 -1.1436 -3.1111 -0.4422
  251SOL    HW2 1003   0.153   0.897   1.856 -0.4468  0.0813  3.5657
  251SOL     MW 1004   0.151   0.892   1.944 -0.0657 -0.6305  0.4036
  252SOL     OW 1005   1.720   0.975   2.948 -0.6201  0.0057 -0.1155
  252SOL    HW1 1006   1.727   1.031   3.026  0.2633 -1.1552 -1.1307
  252SOL    HW2 1007   1.797   0.988   2.891  1.9804 -1.1617 -0.2285
  252SOL     MW 1008   1.731   0.984   2.951 -0.1604 -0.3015 -0.2644
  253SOL     OW 1009   1.128   1.731   2.509 -0.0880 -0.0067 -0.9289
  253SOL    HW1 1010   1.115   1.695   2.414 -1.1905 -1.2489  0.9648
  253SOL    HW2 1011   1.049   1.791   2.531  0.5411  0.2266  0.4562
  253SOL     MW 1012   1.116   1.734   2.499 -0.1505 -0.1398 -0.4963
  254SOL     OW 1013   0.990   1.092   2.233 -0.6316  0.8160  0.1497
  254SOL    HW1 1014   1.030   1.023   2.285 -2.0325 -0.3820  0.1210
  254SOL    HW2 1015   0.933   1.141   2.295  0.5090 -2.0899 -0.9447
  254SOL     MW 1016   0.988   1.090   2.248 -0.6660  0.2745  0.0015
  255SOL     OW 1017   0.837   2.512   2.147 -0.1154 -0.4275 -0.3710
  255SOL    HW1 1018   0.747   2.479   2.124 -1.3987  1.3518 -1.7913
  255SOL    HW2 1019   0.909   2.448   2.145  1.2135  2.1243  1.1659
  255SOL     MW 1020   0.835   2.500   2.143 -0.1094  0.1439 -0.3556
  256SOL     OW 1021   1.278   2.731   2.963 -0.6432  0.1069  0.1334
  256SOL    HW1 1022   1.230   2.669   2.912  0.3216  1.8159  0.4035
  256SOL    HW2 1023   1.362   2.739   2.917  3.1083 -0.6841  0.6306
  256SOL     MW 1024   1.283   2.724   2.950 -0.0209  0.2281  0.2346
  257SOL     OW 1025   0.149   1.953   0.022 -0.8454 -0.0259 -0.5762
  257SOL    HW1 1026   0.189   1.941   0.106  0.1590  0.1955  2.5591
  257SOL    HW2 1027   0.181   1.883  -0.031  0.4731 -0.0372  0.3982
  257SOL     MW 1028   0.159   1.942   0.026 -0.5389  0.0018 -0.0340
  258SOL     OW 1029   0.811   0.995   2.522 -0.1414  0.2144 -0.1646
  258SOL    HW1 1030   0.807   1.093   2.502  0.8046  0.1054 -1.1650
  258SOL    HW2 1031   0.768   0.995   2.602 -1.9796 -0.6708 -4.7123
  258SOL     MW 1032   0.805   1.008   2.530 -0.2591  0.0832 -0.8966
  259SOL     OW 1033   0.899   0.404   2.291 -0.4525 -0.0316 -0.4366
  259SOL    HW1 1034   0.802   0.387   2.277 -1.3921  2.1613  0.6812
  259SOL    HW2 1035   0.930   0.324   2.343 -1.9554 -0.5988  0.8192
  259SOL     MW 1036   0.890   0.391   2.296 -0.7747  0.1829 -0.1234
  260SOL     OW 1037   0.609   0.148   1.617  0.1750 -0.3055 -0.2752
  260SOL    HW1 1038   0.559   0.116   1.544  2.6086  0.2051 -1.1792
  260SOL    HW2 1039   0.704   0.139   1.597  2.0638  0.0825 -0.9553
  260SOL     MW 1040   0.615   0.143   1.605  0.7453 -0.1870 -0.4842
  261SOL     OW 1041   1.167   0.722   2.031 -0.5234 -0.3264 -0.1374
  261SOL    HW1 1042   1.177   0.697   2.128 -0.6265 -0.1817  2.3451
  261SOL    HW2 1043   1.092   0.666   2.009  1.1910 -0.1939  1.0548
  261SOL     MW 1044   1.158   0.711   2.041 -0.3108 -0.2898  0.3474
  262SOL     OW 1045   1.063   0.316   0.173  0.3452  0.5666  0.2591
  262SOL    HW1 1046   1.155   0.332   0.155 -0.3009 -1.2404  1.3150
  262SOL    HW2 1047   1.048   0.238   0.121 -0.7009  1.4308  1.8337
  262SOL     MW 1048   1.073   0.308   0.164  0.1220  0.4422  0.6062
  263SOL     OW 1049   0.458   0.042   2.469  0.1934 -0.2553  0.2483
  263SOL    HW1 1050   0.379   0.094   2.485  0.7385 -0.3766  0.0619
  263SOL    HW2 1051   0.507   0.081   2.395  0.2717  2.2578  0.6753
  263SOL     MW 1052   0.454   0.054   2.461  0.2757  0.0603  0.2800
  264SOL     OW 1053   1.534   1.337   1.852  0.2406 -0.1937  0.7366
  264SOL    HW1 1054   1.530   1.241   1.855  3.0495 -0.8760  1.6680
  264SOL    HW2 1055   1.609   1.356   1.904  1.3087 -0.4886  0.3316
  264SOL     MW 1056   1.543   1.327   1.859  0.7521 -0.3226  0.8060
  265SOL     OW 1057   0.798   2.792   2.236 -0.5482 -0.5454  0.2546
  265SOL    HW1 1058   0.814   2.701   2.208  2.4982  0.7190 -1.4706
  265SOL    HW2 1059   0.748   2.786   2.317 -0.6054  0.6670  1.8589
  265SOL     MW 1060   0.793   2.779   2.243 -0.1538 -0.2186  0.2386
  266SOL     OW 1061   0.852   0.802   2.206  0.2599  0.5848  0.2405
  266SOL    HW1 1062   0.859   0.790   2.108  1.5075 -0.2846 -1.0025
  266SOL    HW2 1063   0.889   0.726   2.244  1.1217  0.4773 -1.6644
  266SOL     MW 1064   0.857   0.790   2.198  0.5382  0.4559 -0.1748
  267SOL     OW 1065   1.346   1.785   2.655 -0.3113 -0.3485 -0.5149
  267SOL    HW1 1066   1.420   1.727   2.633  0.7943  0.7466 -1.0968
  267SOL    HW2 1067   1.267   1.778   2.607  1.6224  0.9967  2.4664
  267SOL     MW 1068   1.345   1.777   2.646  0.0897 -0.0265 -0.1983
  268SOL     OW 1069   0.183   0.896   1.655 -0.2885  0.2804  0.2503
  268SOL    HW1 1070   0.173   0.988   1.620  2.6589 -0.1382  0.9239
  268SOL    HW2 1071   0.130   0.830   1.603  2.0164 -0.8704 -1.9666
  268SOL     MW 1072   0.175   0.900   1.643  0.4045  0.0733  0.0467
  269SOL     OW 1073   1.346   1.993   2.318 -0.1861 -0.0803 -0.2590
  269SOL    HW1 1074   1.415   2.041   2.357 -2.0742 -0.9984  0.3372
  269SOL    HW2 1075   1.267   2.020   2.356 -2.7059  0.1399  0.3546
  269SOL     MW 1076   1.345   2.003   2.328 -0.7677 -0.1724 -0.0994
  270SOL     OW 1077   1.150   0.397   1.586 -0.0453  0.1952  0.0153
  270SOL    HW1 1078   1.116   0.316   1.625  1.6691  0.5721 -2.3628
  270SOL    HW2 1079   1.248   0.393   1.577  1.6834  3.3074 -0.5501
  270SOL     MW 1080   1.159   0.386   1.590  0.4090  0.6555 -0.3731
  271SOL     OW 1081   0.753   0.018   2.533  0.2292  0.6261 -0.8539
  271SOL    HW1 1082   0.816  -0.040   2.582 -0.2779  2.9929 -0.6999
  271SOL    HW2 1083   0.814   0.095   2.503  1.1309  2.9231  0.7455
  271SOL     MW 1084   0.769   0.021   2.536  0.2813  1.2415 -0.6225
  272SOL     OW 1085   1.506   2.807   2.826 -0.4371  0.0586  0.4073
  272SOL    HW1 1086   1.469   2.823   2.735 -3.6519  1.7956  1.1698
  272SOL    HW2 1087   1.526   2.897   2.842  0.5942 -0.3252 -0.0865
  272SOL     MW 1088   1.504   2.821   2.816 -0.7252  0.2371  0.4428
  273SOL     OW 1089   1.482   0.913   2.793 -0.1880 -0.1644  0.2109
  273SOL    HW1 1090   1.562   0.922   2.843 -1.8758  1.0493  1.2181
  273SOL    HW2 1091   1.431   0.993   2.785  0.1464  0.6359 -0.7260
  273SOL     MW 1092   1.486   0.925   2.799 -0.3666  0.1014  0.2201
  274SOL     OW 1093   1.418   0.741   0.120 -0.2063  0.4058  0.4087
  274SOL    HW1 1094   1.446   0.663   0.173 -3.1618 -0.6643 -0.1272
  274SOL    HW2 1095   1.329   0.752   0.143  0.5091  0.1594 -1.7029
  274SOL     MW 1096   1.410   0.732   0.130 -0.5019  0.2321  0.0593
  275SOL     OW 1097   1.688   0.540   1.769  0.4548 -0.1756  0.0751
  275SOL    HW1 1098   1.767   0.555   1.824  1.6533 -0.1806 -0.5139
  275SOL    HW2 1099   1.661   0.450   1.779  0.9343 -1.4281 -0.8286
  275SOL     MW 1100   1.695   0.530   1.777  0.6762 -0.3415 -0.1218
  276SOL     OW 1101   0.360   1.278   1.961  0.9239  0.9207 -0.0799
  276SOL    HW1 1102   0.374   1.184   1.957  2.3603  0.2257 -1.9319
  276SOL    HW2 1103   0.300   1.311   2.027  3.2566  1.1190  1.2121
  276SOL     MW 1104   0.353   1.270   1.969  1.4212  0.8552 -0.1538
  277SOL     OW 1105   1.961   1.147   2.495  0.0378  0.0181 -0.6997
  277SOL    HW1 1106   1.970   1.239   2.522 -1.2788  1.4143  0.2375
  277SOL    HW2 1107   1.986   1.149   2.401 -1.1493  2.2810 -0.0652
  277SOL     MW 1108   1.965   1.159   2.486 -0.2925  0.5009 -0.4923
  278SOL     OW 1109   1.370   0.665   1.664 -0.1455  0.0520 -0.1284
  278SOL    HW1 1110   1.345   0.595   1.734  1.4157 -1.3232  2.5884
  278SOL    HW2 1111   1.464   0.673   1.680 -2.4521  1.1971 -0.0294
  278SOL     MW 1112   1.379   0.657   1.676 -0.2438  0.0217  0.2431
  279SOL     OW 1113   0.558   0.117   2.223 -0.3579  0.1053 -0.5609
  279SOL    HW1 1114   0.649   0.083   2.222 -0.1378  0.0127  1.4682
  279SOL    HW2 1115   0.586   0.210   2.205 -0.3430  2.0806  1.1172
  279SOL     MW 1116   0.574   0.125   2.220 -0.3269  0.3537 -0.0718
  280SOL     OW 1117   1.428   0.976   2.151 -0.6833  0.1364  0.0798
  280SOL    HW1 1118   1.506   0.929   2.109  1.3027  1.2766  3.7129
  280SOL    HW2 1119   1.456   0.970   2.242  1.0422  0.6670 -1.8646
  280SOL     MW 1120   1.442   0.969   2.158 -0.1936  0.3569  0.3026
  281SOL     OW 1121   1.364   1.275   2.711  0.1365 -1.2389 -0.0753
  281SOL    HW1 1122   1.457   1.310   2.710  0.1729  1.8696 -2.4863
  281SOL    HW2 1123   1.343   1.252   2.804 -1.9013 -0.4026 -1.5779
  281SOL     MW 1124   1.374   1.276   2.723 -0.1275 -0.7184 -0.5916
  282SOL     OW 1125   1.116   1.266   1.635  0.8137 -1.0082  0.0652
  282SOL    HW1 1126   1.132   1.358   1.629 -2.4066 -0.9841  1.2273
  282SOL    HW2 1127   1.051   1.243   1.705 -0.2219 -0.5474 -1.1750
  282SOL     MW 1128   1.109   1.275   1.643  0.2522 -0.9442  0.0549
  283SOL     OW 1129   0.825   1.261   3.050 -0.0916  0.0225  0.5803
  283SOL    HW1 1130   0.906   1.317   3.058  2.2359  2.4365 -0.4803
  283SOL    HW2 1131   0.750   1.316   3.080  0.4224  3.7426  0.1718
  283SOL     MW 1132   0.826   1.275   3.055  0.2833  0.8319  0.3865
  284SOL     OW 1133   0.428   0.743   2.367  0.1382  0.6986  0.2823
  284SOL    HW1 1134   0.496   0.813   2.351 -0.8918 -1.2217 -0.1108
  284SOL    HW2 1135   0.449   0.669   2.302 -1.2023  0.8754 -0.6455
  284SOL     MW 1136   0.440   0.742   2.356 -0.1746  0.4686  0.1080
  285SOL     OW 1137   0.910   0.871   2.826 -0.5631  0.3264 -0.4129
  285SOL    HW1 1138   0.975   0.868   2.752 -0.6898 -1.0193  0.3401
  285SOL    HW2 1139   0.861   0.789   2.813  0.5841  2.3157 -0.7010
  285SOL     MW 1140   0.912   0.860   2.815 -0.4285  0.4113 -0.3516
  286SOL     OW 1141   1.138   1.493   2.630 -0.5978 -0.5623 -0.6883
  286SOL    HW1 1142   1.227   1.465   2.630 -1.6419 -1.2707 -0.2880
  286SOL    HW2 1143   1.138   1.587   2.603 -0.9239 -2.2392  0.5159
  286SOL     MW 1144   1.150   1.501   2.627 -0.7786 -0.8770 -0.4766
  287SOL     OW 1145   1.166   0.985   0.326  0.5921  0.4909  0.3622
  287SOL    HW1 1146   1.176   1.038   0.407 -0.1870  1.8393  0.9467
  287SOL    HW2 1147   1.145   1.058   0.256  2.2132  0.6168  0.5619
  287SOL     MW 1148   1.165   1.002   0.327  0.7032  0.6854  0.4657
  288SOL     OW 1149   1.497   0.572   2.059 -0.1951  0.1787 -0.3229
  288SOL    HW1 1150   1.452   0.610   2.132 -0.6128  0.0189  0.7211
  288SOL    HW2 1151   1.525   0.659   2.025  0.3752 -0.5017 -0.6993
  288SOL     MW 1152   1.495   0.588   2.064 -0.1750  0.0679 -0.2348
  289SOL     OW 1153   1.088   0.976   2.567 -0.1768  0.0275 -0.4561
  289SOL    HW1 1154   1.122   0.883   2.572  0.1925 -1.2040  0.3273
  289SOL    HW2 1155   0.996   0.965   2.546  1.7457 -0.9721  1.5798
  289SOL     MW 1156   1.080   0.962   2.565  0.1256 -0.2669 -0.0841
  290SOL     OW 1157   0.796   0.604   1.545 -0.1114  0.0141 -0.1353
  290SOL    HW1 1158   0.847   0.579   1.466 -0.5780 -2.9716 -0.7580
  290SOL    HW2 1159   0.860   0.613   1.619  0.8712 -2.8931  1.7668
  290SOL     MW 1160   0.812   0.602   1.544 -0.0433 -0.7634  0.0335
  291SOL     OW 1161   0.169   0.395   0.122 -0.1347  0.6649  0.5980
  291SOL    HW1 1162   0.242   0.337   0.143 -0.0183 -0.6400 -1.7943
  291SOL    HW2 1163   0.150   0.365   0.032 -0.3011 -1.7588  2.6350
  291SOL     MW 1164   0.176   0.383   0.113 -0.1413  0.1730  0.5511
  292SOL     OW 1165   0.991   0.578   0.092  0.1608  0.4393  0.4852
  292SOL    HW1 1166   1.056   0.615   0.153  0.6605  1.4849  2.4219
  292SOL    HW2 1167   1.011   0.482   0.091 -1.9640  2.0186 -5.0342
  292SOL     MW 1168   1.002   0.570   0.100 -0.0536  0.7857  0.0125
  293SOL     OW 1169   0.170   0.139   2.455 -0.9342  0.5542  0.0019
  293SOL    HW1 1170   0.124   0.073   2.403 -1.0415 -2.0469  0.1650
  293SOL    HW2 1171   0.096   0.174   2.506 -0.3554 -0.4196  0.6254
  293SOL     MW 1172   0.154   0.135   2.455 -0.8720  0.0825  0.1057
  294SOL     OW 1173   1.417   0.585   2.340 -0.6691 -0.5947  0.2246
  294SOL    HW1 1174   1.472   0.639   2.404  4.4957  1.2409 -2.9038
  294SOL    HW2 1175   1.420   0.493   2.356 -1.1784 -0.8737 -1.0936
  294SOL     MW 1176   1.425   0.580   2.350 -0.0549 -0.3893 -0.3621
  295SOL     OW 1177   0.933   0.531   2.528  0.7591  0.0614  0.1016
  295SOL    HW1 1178   0.930   0.510   2.434  0.9154 -0.3548 -0.1750
  295SOL    HW2 1179   0.841   0.532   2.555 -2.5572 -1.5065  0.1624
  295SOL     MW 1180   0.921   0.529   2.519  0.3422 -0.2004  0.0731
  296SOL     OW 1181   1.232   0.276   2.032 -0.1783 -0.2501  0.3709
  296SOL    HW1 1182   1.322   0.253   2.009 -0.3851  0.4883  0.1044
  296SOL    HW2 1183   1.233   0.247   2.124 -1.1948  2.4036 -1.4891
  296SOL     MW 1184   1.244   0.269   2.041 -0.3397  0.1975  0.0903
  297SOL     OW 1185   1.444   0.408   1.539  0.1178 -0.1652  0.2468
  297SOL    HW1 1186   1.434   0.475   1.603 -2.1458  0.7330  2.1752
  297SOL    HW2 1187   1.486   0.340   1.592  0.4032 -1.2682  0.3442
  297SOL     MW 1188   1.448   0.408   1.555 -0.1432 -0.1922  0.5141
  298SOL     OW 1189   1.640   0.848   2.011  0.0495 -0.0378 -0.1394
  298SOL    HW1 1190   1.688   0.924   1.983 -2.1937  2.2656  0.4595
  298SOL    HW2 1191   1.683   0.812   2.090  0.0065 -1.1838  4.3582
  298SOL     MW 1192   1.652   0.853   2.018 -0.2521  0.1149  0.5331
  299SOL     OW 1193   0.599   1.109   0.036  0.8030  0.4479 -0.3489
  299SOL    HW1 1194   0.583   1.121  -0.060 -1.7312 -3.0972  1.7620
  299SOL    HW2 1195   0.689   1.136   0.042  0.1341 -0.7160  1.5716
  299SOL     MW 1196   0.609   1.114   0.024  0.3804 -0.1734  0.1830
  300SOL     OW 1197   1.253   1.183   2.478 -0.8526  0.2417  0.3078
  300SOL    HW1 1198   1.174   1.139   2.507 -0.1026 -1.1676 -2.7587
  300SOL    HW2 1199   1.289   1.226   2.553  0.7520 -0.8879 -0.3764
  300SOL     MW 1200   1.247   1.183   2.492 -0.5419 -0.0933 -0.1870
  301SOL     OW 1201   1.464   0.981   0.658 -0.5508 -0.0513  0.2827
  301SOL    HW1 1202   1.456   1.002   0.750  2.7353 -1.3374  0.0620
  301SOL    HW2 1203   1.404   0.903   0.654 -0.6006  2.1318 -2.0116
  301SOL     MW 1204   1.455   0.973   0.670 -0.1238  0.0670 -0.0491
  302SOL     OW 1205   0.162   1.584   1.990  0.7929 -0.7527  0.3916
  302SOL    HW1 1206   0.184   1.533   2.069  1.0487 -1.0048 -0.4832
  302SOL    HW2 1207   0.099   1.657   2.007 -0.2194 -0.9484 -2.4955
  302SOL     MW 1208   0.156   1.587   2.002  0.6931 -0.8118 -0.1047
  303SOL     OW 1209   0.389   1.783   2.686 -0.1988  0.5056  0.5104
  303SOL    HW1 1210   0.356   1.763   2.597  2.6222 -2.8242 -0.2604
  303SOL    HW2 1211   0.321   1.835   2.729  1.8047 -1.5467  1.7546
  303SOL     MW 1212   0.376   1.787   2.680  0.4377 -0.2045  0.5729
  304SOL     OW 1213   0.510   2.049   2.343 -0.5011 -0.1546  0.1875
  304SOL    HW1 1214   0.580   2.110   2.297 -0.0637  1.5221 -2.2053
  304SOL    HW2 1215   0.552   1.975   2.385 -2.2652  0.8845  0.7841
  304SOL     MW 1216   0.525   2.047   2.343 -0.6761  0.2037 -0.0495
  305SOL     OW 1217   1.091   0.565   0.516 -0.3329  0.4981  0.7589
  305SOL    HW1 1218   0.996   0.566   0.502  1.5606 -0.9425 -1.1377
  305SOL    HW2 1219   1.108   0.472   0.533  0.9550  0.3562 -0.2569
  305SOL     MW 1220   1.081   0.553   0.516  0.0869  0.2893  0.3746
  306SOL     OW 1221   1.183   1.551   0.281  0.2706  0.4163 -0.1743
  306SOL    HW1 1222   1.203   1.460   0.319  1.2277  1.9068 -0.0737
  306SOL    HW2 1223   1.219   1.555   0.195 -0.1593  1.0602 -0.1028
  306SOL     MW 1224   1.191   1.540   0.275  0.3401  0.6979 -0.1516
  307SOL     OW 1225   1.346   0.479   1.847 -0.0791 -0.5340  0.2868
  307SOL    HW1 1226   1.285   0.431   1.905 -2.4185 -0.8120  1.7187
  307SOL    HW2 1227   1.402   0.516   1.919  2.1292  1.3521  0.3509
  307SOL     MW 1228   1.345   0.477   1.864 -0.0964 -0.3218  0.4842
  308SOL     OW 1229   2.196   0.517   2.719 -0.2096 -0.1924 -0.2342
  308SOL    HW1 1230   2.295   0.519   2.725  2.6461 -1.5252 -0.7015
  308SOL    HW2 1231   2.182   0.613   2.705  1.7888  1.3649  1.1910
  308SOL     MW 1232   2.207   0.530   2.718  0.4309 -0.1628 -0.1078
  309SOL     OW 1233   0.473   0.507   0.252 -0.6625  0.0170 -0.5861
  309SOL    HW1 1234   0.558   0.531   0.214  2.5074 -2.7293  1.2257
  309SOL    HW2 1235   0.454   0.418   0.219  1.3070 -1.0963  1.3032
  309SOL     MW 1236   0.481   0.498   0.243  0.0156 -0.4922 -0.0978
  310SOL     OW 1237   0.424   0.583   1.914  0.1585 -0.4414 -0.0654
  310SOL    HW1 1238   0.465   0.496   1.888 -0.8538  3.0090 -3.1058
  310SOL    HW2 1239   0.474   0.653   1.872 -1.3178  2.1001 -0.9073
  310SOL     MW 1240   0.436   0.581   1.905 -0.1699  0.3491 -0.5777
  311SOL     OW 1241   1.897   0.614   1.922 -0.5532  0.9249  0.2232
  311SOL    HW1 1242   1.856   0.626   2.009  0.4022  0.3579 -1.7878
  311SOL    HW2 1243   1.960   0.538   1.926  1.9879  1.6762 -2.1148
  311SOL     MW 1244   1.900   0.605   1.934 -0.0919  0.9492 -0.3506
  312SOL     OW 1245   1.821   2.470   0.176  0.3169  0.1343  1.1075
  312SOL    HW1 1246   1.881   2.505   0.240 -1.0044  3.4321 -1.2635
  312SOL    HW2 1247   1.738   2.509   0.206  2.2586  1.7945  0.3593
  312SOL     MW 1248   1.818   2.480   0.189  0.3988  0.7885  0.6959
  313SOL     OW 1249   0.132   1.139   2.961  0.0760 -0.7514  0.0870
  313SOL    HW1 1250   0.086   1.147   3.053 -1.3881 -1.7708  0.5503
  313SOL    HW2 1251   0.182   1.216   2.937 -1.4576  0.1875  0.3614
  313SOL     MW 1252   0.132   1.150   2.970 -0.3195 -0.7620  0.1843
  314SOL     OW 1253   2.173   3.008   2.946 -0.2773 -0.1075 -0.0740
  314SOL    HW1 1254   2.116   3.069   2.899  1.7770  0.9959  2.3517
  314SOL    HW2 1255   2.203   3.067   3.018 -0.8854 -0.0098  0.7190
  314SOL     MW 1256   2.170   3.024   2.950 -0.0865  0.0510  0.3507
  315SOL     OW 1257   1.526   1.848   3.003 -0.1566 -0.7557 -0.1024
  315SOL    HW1 1258   1.479   1.889   3.072 -0.5615  2.7056  0.2726
  315SOL    HW2 1259   1.559   1.929   2.951 -0.1126 -2.2154 -0.5820
  315SOL     MW 1260   1.524   1.864   3.005 -0.2042 -0.4916 -0.1162
  316SOL     OW 1261   1.315   0.524   2.722 -0.6499  0.3009  0.0397
  316SOL    HW1 1262   1.400   0.527   2.760  0.2137 -0.1084  1.2857
  316SOL    HW2 1263   1.264   0.545   2.804 -1.1520  2.3773 -1.2238
  316SOL     MW 1264   1.320   0.527   2.738 -0.6022  0.5209  0.0374
  317SOL     OW 1265   0.662   1.496   2.640  0.2610  0.6578 -0.0077
  317SOL    HW1 1266   0.721   1.417   2.659  1.0341 -1.1590  3.0609
  317SOL    HW2 1267   0.663   1.525   2.547  1.1390 -0.0734  0.9751
  317SOL     MW 1268   0.670   1.490   2.630  0.4788  0.3216  0.5269
  318SOL     OW 1269   1.360   0.346   2.971  0.0558 -0.6479 -0.1266
  318SOL    HW1 1270   1.269   0.375   2.938 -1.3914 -1.5470  1.7731
  318SOL    HW2 1271   1.428   0.408   2.944  1.6644 -0.2940  1.8801
  318SOL     MW 1272   1.357   0.358   2.963  0.0771 -0.7198  0.3888
  319SOL     OW 1273   0.858   0.411   2.899  0.3279 -0.2761  0.6209
  319SOL    HW1 1274   0.827   0.357   2.822  1.8420 -1.8789  2.5899
  319SOL    HW2 1275   0.798   0.387   2.969 -1.3383 -0.1513 -0.0437
  319SOL     MW 1276   0.846   0.401   2.898  0.3079 -0.4711  0.7930
  320SOL     OW 1277   1.078   1.353   1.988 -0.0151 -0.0976 -0.1710
  320SOL    HW1 1278   1.143   1.282   2.016 -0.1349 -0.9021 -0.4795
  320SOL    HW2 1279   1.129   1.426   1.954 -0.0818 -0.0260 -1.4286
  320SOL     MW 1280   1.094   1.353   1.987 -0.0397 -0.1943 -0.3776
  321SOL     OW 1281   1.123   0.941   3.022  0.1758 -0.6811  0.3168
  321SOL    HW1 1282   1.047   0.907   2.972 -1.1643  0.9092  0.3592
  321SOL    HW2 1283   1.187   0.875   3.040  2.9047 -0.7793 -2.3704
  321SOL     MW 1284   1.121   0.928   3.018  0.3590 -0.4842 -0.0322
  322SOL     OW 1285   1.172   0.867   1.676 -0.0301  0.5393  0.1973
  322SOL    HW1 1286   1.248   0.797   1.669 -0.8889 -0.4559 -2.6990
  322SOL    HW2 1287   1.161   0.901   1.769  0.3737 -0.6548  0.6778
  322SOL     MW 1288   1.181   0.862   1.688 -0.0901  0.2504 -0.1214
  323SOL     OW 1289   1.243   1.535   1.881 -0.2785  0.2814  0.1361
  323SOL    HW1 1290   1.280   1.552   1.791  1.5456 -1.7778 -0.5474
  323SOL    HW2 1291   1.184   1.616   1.898  1.9623  0.1261  1.3611
  323SOL     MW 1292   1.240   1.548   1.872  0.2578 -0.0108  0.2076
  324SOL     OW 1293   1.484   1.000   2.424  0.4424  0.8242 -0.2030
  324SOL    HW1 1294   1.412   1.049   2.450 -2.4045 -0.1026 -0.7315
  324SOL    HW2 1295   1.562   1.052   2.436  0.9094 -0.2018 -1.4438
  324SOL     MW 1296   1.485   1.013   2.429  0.1284  0.5665 -0.4365
  325SOL     OW 1297   1.115   0.514   2.923 -0.3348 -0.0831  0.1297
  325SOL    HW1 1298   1.093   0.568   3.001  2.0116 -2.1794  0.5004
  325SOL    HW2 1299   1.033   0.485   2.895  0.9517  0.0936 -0.5748
  325SOL     MW 1300   1.101   0.517   2.930  0.1446 -0.3364  0.0857
  326SOL     OW 1301   0.429   1.365   2.339 -0.7380  0.6744 -0.6636
  326SOL    HW1 1302   0.515   1.355   2.293  0.4702  2.6370 -3.3856
  326SOL    HW2 1303   0.400   1.441   2.296  0.4604 -1.8715  1.7310
  326SOL     MW 1304   0.437   1.374   2.327 -0.4205  0.5974 -0.7068
  327SOL     OW 1305   1.912   0.769   2.442  0.6349  0.0685 -0.1611
  327SOL    HW1 1306   1.900   0.739   2.535 -3.8968  0.3908 -1.6080
  327SOL    HW2 1307   1.932   0.865   2.456  0.4256  0.6014  0.7457
  327SOL     MW 1308   1.913   0.778   2.456  0.0094  0.1814 -0.2323
  328SOL     OW 1309   0.184   1.339   2.153  0.1735 -0.6167 -0.1936
  328SOL    HW1 1310   0.118   1.271   2.134 -0.8292 -0.7262  1.7659
  328SOL    HW2 1311   0.232   1.310   2.227 -0.8385  1.3768  0.0299
  328SOL     MW 1312   0.182   1.326   2.160 -0.0923 -0.3681  0.0944
  329SOL     OW 1313   0.071   0.220   1.406 -1.0760 -0.8095 -0.0639
  329SOL    HW1 1314   0.057   0.223   1.508 -0.6425  0.9281  0.4470
  329SOL    HW2 1315   0.158   0.245   1.377 -2.9872  1.5474  2.3223
  329SOL     MW 1316   0.080   0.224   1.416 -1.2710 -0.2693  0.3184
  330SOL     OW 1317   0.376   3.054   2.060 -0.0365 -0.4213 -0.5138
  330SOL    HW1 1318   0.448   3.072   2.120 -2.4324 -1.9284  0.6673
  330SOL    HW2 1319   0.308   3.020   2.120 -0.0627  0.2070 -0.4395
  330SOL     MW 1320   0.377   3.052   2.076 -0.3561 -0.5373 -0.3481
  331SOL     OW 1321   0.822   1.255   2.399  0.1321 -0.3667  0.8840
  331SOL    HW1 1322   0.784   1.331   2.352 -0.5852 -1.6895  1.2754
  331SOL    HW2 1323   0.870   1.295   2.473  2.1626  1.0568  0.9182
  331SOL     MW 1324   0.823   1.270   2.403  0.3054 -0.3534  0.9402
  332SOL     OW 1325   1.344   1.680   2.907  0.5867 -0.7544 -0.0466
  332SOL    HW1 1326   1.352   1.699   2.813  1.1580 -0.0982  0.6965
  332SOL    HW2 1327   1.407   1.741   2.949 -0.4790 -2.3096  0.0137
  332SOL     MW 1328   1.354   1.691   2.900  0.5215 -0.8730  0.0594
  333SOL     OW 1329   1.734   1.369   2.938 -0.2577  0.4212 -0.6436
  333SOL    HW1 1330   1.832   1.380   2.939  3.0427  2.3974  3.4618
  333SOL    HW2 1331   1.721   1.289   2.987  0.0939 -1.5048 -0.0278
  333SOL     MW 1332   1.745   1.360   2.945  0.2242  0.4278 -0.0207
  334SOL     OW 1333   1.264   0.014   2.560 -0.2170 -0.8954 -0.2251
  334SOL    HW1 1334   1.220  -0.025   2.633 -0.5042 -2.5823 -2.1168
  334SOL    HW2 1335   1.320   0.086   2.599  1.0083 -1.6624 -0.8960
  334SOL     MW 1336   1.266   0.018   2.575 -0.0933 -1.2192 -0.5632
  335SOL     OW 1337   1.326   0.737   2.954 -0.0914  0.0206 -0.2303
  335SOL    HW1 1338   1.374   0.717   3.035 -3.2881  0.0702  0.8860
  335SOL    HW2 1339   1.385   0.785   2.888 -1.4335 -0.4350  0.3049
  335SOL     MW 1340   1.340   0.740   2.956 -0.6903 -0.0329 -0.0124
  336SOL     OW 1341   0.932   1.171   1.833  0.6504  0.2966  0.1679
  336SOL    HW1 1342   0.959   1.251   1.886 -1.6633 -2.4278  0.4274
  336SOL    HW2 1343   0.977   1.094   1.873 -0.6358  0.7234  2.3118
  336SOL     MW 1344   0.941   1.171   1.845  0.1755 -0.0066  0.4850
  337SOL     OW 1345   0.669   1.823   2.775 -0.2243  0.3200 -0.6825
  337SOL    HW1 1346   0.606   1.777   2.724  2.0938 -1.3963 -0.5211
  337SOL    HW2 1347   0.739   1.759   2.780  1.5165  0.2289 -1.8360
  337SOL     MW 1348   0.670   1.809   2.769  0.3112  0.0815 -0.8134
  338SOL     OW 1349   1.138   0.712   2.589  0.1918  0.1920 -0.5198
  338SOL    HW1 1350   1.062   0.651   2.585  0.4327 -0.6351  0.9258
  338SOL    HW2 1351   1.215   0.670   2.629 -0.4551  4.4792 -0.2926
  338SOL     MW 1352   1.138   0.699   2.594  0.1382  0.6485 -0.2991
  339SOL     OW 1353   1.499   1.062   1.843  0.1058  0.0239 -0.3321
  339SOL    HW1 1354   1.453   1.081   1.761  1.2305  0.5881 -0.6602
  339SOL    HW2 1355   1.443   0.998   1.887  1.0270 -0.4822  1.7261
  339SOL     MW 1356   1.485   1.056   1.838  0.3758  0.0316 -0.1039
  340SOL     OW 1357   1.329   1.517   0.036  0.3449 -0.0249 -0.4512
  340SOL    HW1 1358   1.348   1.566  -0.039 -0.6208  3.1012  1.8869
  340SOL    HW2 1359   1.419   1.498   0.074 -0.7770  1.6579 -0.7936
  340SOL     MW 1360   1.344   1.521   0.031  0.0695  0.6096 -0.1879
  341SOL     OW 1361   0.055   1.339   2.742  0.8541  0.4824  0.1391
  341SOL    HW1 1362   0.130   1.282   2.724  2.4886 -0.9070  2.8227
  341SOL    HW2 1363  -0.002   1.337   2.661  0.3061  1.4436 -0.7287
  341SOL     MW 1364   0.058   1.331   2.729  0.9975  0.4259  0.3787
  342SOL     OW 1365   1.324   0.349   0.139  0.3594  0.0646  0.2174
  342SOL    HW1 1366   1.375   0.411   0.180  1.1435  0.3947 -1.1532
  342SOL    HW2 1367   1.341   0.369   0.046  1.7171  0.9313 -1.0917
  342SOL     MW 1368   1.333   0.360   0.132  0.6420  0.2225 -0.1362
  343SOL     OW 1369   0.269   0.304   2.150 -0.1111 -0.0308  0.9256
  343SOL    HW1 1370   0.344   0.247   2.118  0.5298 -1.2268  0.0193
  343SOL    HW2 1371   0.188   0.276   2.105  2.2145  0.1314 -3.9355
  343SOL     MW 1372   0.268   0.293   2.140  0.2803 -0.1672  0.1647
  344SOL     OW 1373   1.687   2.058   0.177 -0.7426  0.4814 -0.2477
  344SOL    HW1 1374   1.688   2.119   0.102 -1.0441  0.8561  0.7949
  344SOL    HW2 1375   1.606   2.077   0.228 -4.6443  0.2411 -0.0116
  344SOL     MW 1376   1.676   2.069   0.174 -1.2972  0.4991 -0.0790
  345SOL     OW 1377   0.713   1.573   2.361  0.0710 -0.4476  0.7220
  345SOL    HW1 1378   0.651   1.552   2.287 -2.4981  0.5588  0.7357
  345SOL    HW2 1379   0.797   1.577   2.311  1.5447 -0.1985  1.1582
  345SOL     MW 1380   0.716   1.571   2.345 -0.0735 -0.2819  0.7814
  346SOL     OW 1381   1.753   1.151   0.044 -0.3552  0.0248 -0.0280
  346SOL    HW1 1382   1.850   1.155   0.047  1.8129 -3.6399  0.7633
  346SOL    HW2 1383   1.717   1.093   0.114 -1.4159  0.8156  1.3997
  346SOL     MW 1384   1.761   1.144   0.053 -0.2091 -0.3544  0.2647
  347SOL     OW 1385   1.163   0.650   2.310 -0.2528  0.5264  0.3765
  347SOL    HW1 1386   1.254   0.623   2.304  0.7852  1.5798  0.9650
  347SOL    HW2 1387   1.151   0.668   2.397  0.5506  1.8743 -3.1966
  347SOL     MW 1388   1.174   0.649   2.321 -0.0098  0.8432 -0.0173
  348SOL     OW 1389   1.293   2.626   1.874 -0.0951 -0.2867 -0.1514
  348SOL    HW1 1390   1.319   2.540   1.917  0.1495  0.9380  1.8599
  348SOL    HW2 1391   1.350   2.685   1.931 -0.7788  1.5897  3.2346
  348SOL     MW 1392   1.304   2.623   1.887 -0.1531  0.1225  0.5608
  349SOL     OW 1393   1.439   0.214   2.698 -0.2536  0.3806 -0.2092
  349SOL    HW1 1394   1.398   0.253   2.772 -1.0387  0.2010 -1.5007
  349SOL    HW2 1395   1.518   0.175   2.726 -0.4314 -2.0665  0.1458
  349SOL     MW 1396   1.444   0.214   2.712 -0.3806  0.0340 -0.3328
  350SOL     OW 1397   1.832   0.643   2.656 -0.1824 -0.2756  0.3235
  350SOL    HW1 1398   1.772   0.580   2.613  0.3689 -0.4094 -2.0437
  350SOL    HW2 1399   1.887   0.595   2.721 -1.8211  2.1651 -2.4296
  350SOL     MW 1400   1.831   0.628   2.659 -0.3258  0.0288 -0.3521
  351SOL     OW 1401   0.086   1.146   1.605 -0.4341  0.1384  0.6373
  351SOL    HW1 1402   0.021   1.109   1.663 -2.4347  0.6460 -0.7277
  351SOL    HW2 1403   0.159   1.205   1.645  0.8804  2.0653  1.6919
  351SOL     MW 1404   0.087   1.149   1.618 -0.5246  0.4596  0.5964
  352SOL     OW 1405   0.877   1.643   2.735 -0.2559  0.2545 -0.0921
  352SOL    HW1 1406   0.918   1.620   2.814  0.8957  1.2740  2.0719
  352SOL    HW2 1407   0.818   1.571   2.710 -1.1221  1.0763  2.4067
  352SOL     MW 1408   0.874   1.630   2.742 -0.2183  0.4974  0.5231
  353SOL     OW 1409   0.023   2.507   2.739  0.4791  0.1508  0.2568
  353SOL    HW1 1410   0.099   2.463   2.712 -1.7851 -0.6537 -1.1257
  353SOL    HW2 1411   0.022   2.594   2.694  1.6351 -0.5346  0.9737
  353SOL     MW 1412   0.033   2.513   2.729  0.3329 -0.0457  0.1690
  354SOL     OW 1413   0.279   2.472   0.797  0.1814  0.1261  0.3096
  354SOL    HW1 1414   0.325   2.456   0.877  1.7487  0.5046 -1.0139
  354SOL    HW2 1415   0.217   2.398   0.793  1.7731  2.9173 -2.8780
  354SOL     MW 1416   0.277   2.460   0.807  0.5982  0.5443 -0.2856
  355SOL     OW 1417   3.088   2.226   0.364 -0.0093  0.3681  0.0662
  355SOL    HW1 1418   3.007   2.177   0.350 -1.2115  1.3535  1.9657
  355SOL    HW2 1419   3.071   2.269   0.444 -1.1776 -2.5251  1.0691
  355SOL     MW 1420   3.075   2.226   0.373 -0.3221  0.1164  0.4491
  356SOL     OW 1421   0.845   2.798   0.982  0.2307  0.0320  0.2826
  356SOL    HW1 1422   0.875   2.845   0.901  1.3478 -1.6466  0.4371
  356SOL    HW2 1423   0.749   2.784   0.968 -1.9766 -1.3554 -0.0245
  356SOL     MW 1424   0.836   2.802   0.969  0.0868 -0.3725  0.2624
  357SOL     OW 1425   1.780   2.891   0.387  0.1397 -0.3566  0.2198
  357SOL    HW1 1426   1.747   2.814   0.429  1.9027 -0.2830  1.4010
  357SOL    HW2 1427   1.863   2.869   0.341  1.3200 -1.3844  3.1831
  357SOL     MW 1428   1.787   2.878   0.386  0.5280 -0.4825  0.7666
  358SOL     OW 1429   0.467   0.143   1.028  0.1000  0.0236 -0.4813
  358SOL    HW1 1430   0.559   0.156   1.005 -1.4452 -0.5758  0.6103
  358SOL    HW2 1431   0.411   0.157   0.954 -0.8342 -1.9858  1.9365
  358SOL     MW 1432   0.472   0.146   1.015 -0.2272 -0.3206 -0.0183
  359SOL     OW 1433   0.832   2.857   1.861 -0.4103 -0.0112  0.7430
  359SOL    HW1 1434   0.832   2.763   1.859 -0.3282  0.1885 -2.8376
  359SOL    HW2 1435   0.855   2.877   1.770 -0.8822  0.2408  0.0467
  359SOL     MW 1436   0.835   2.847   1.849 -0.4617  0.0484  0.1787
  360SOL     OW 1437   0.579   2.805   0.912 -0.2444 -0.2257 -0.4273
  360SOL    HW1 1438   0.576   2.775   0.819 -1.0797 -1.4805 -0.2661
  360SOL    HW2 1439   0.556   2.720   0.955  0.2302  1.6886 -0.5723
  360SOL     MW 1440   0.576   2.790   0.905 -0.2920 -0.1387 -0.4251
  361SOL     OW 1441   0.217   2.627   1.339 -0.0965 -0.1288 -0.1844
  361SOL    HW1 1442   0.189   2.701   1.393 -2.2766 -0.0432  0.7384
  361SOL    HW2 1443   0.317   2.628   1.326 -1.6754 -0.6315 -0.9839
  361SOL     MW 1444   0.227   2.637   1.345 -0.5925 -0.1839 -0.1681
  362SOL     OW 1445   1.450   2.419   0.654 -0.2913 -0.7604  0.6933
  362SOL    HW1 1446   1.472   2.386   0.744  0.1695 -1.6381 -1.6545
  362SOL    HW2 1447   1.490   2.512   0.647 -0.0870 -1.1627  0.2316
  362SOL     MW 1448   1.458   2.427   0.665 -0.2035 -0.9293  0.3226
  363SOL     OW 1449   0.312   3.101   0.652  0.0840 -0.2147 -0.6018
  363SOL    HW1 1450   0.309   3.039   0.723  1.0879  0.4699 -4.8707
  363SOL    HW2 1451   0.221   3.112   0.622 -0.1336  0.7438 -1.5923
  363SOL     MW 1452   0.300   3.094   0.658  0.1877  0.0021 -1.2957
  364SOL     OW 1453   0.754   0.217   0.233 -0.5985  0.0231  0.0922
  364SOL    HW1 1454   0.682   0.150   0.249 -1.0375  0.6678 -1.0104
  364SOL    HW2 1455   0.716   0.290   0.182 -2.3797 -1.9644 -1.6805
  364SOL     MW 1456   0.739   0.218   0.229 -0.8915 -0.1541 -0.2871
  365SOL     OW 1457   0.983   1.996   1.186 -0.2776 -0.9232 -0.0418
  365SOL    HW1 1458   0.962   2.072   1.134  1.3723  2.3284 -0.5469
  365SOL    HW2 1459   0.925   1.923   1.153 -1.5417  0.5225  2.3383
  365SOL     MW 1460   0.973   1.996   1.175 -0.2267 -0.3034  0.2056
  366SOL     OW 1461   2.899   2.661   0.989  0.6949 -0.3610 -0.1985
  366SOL    HW1 1462   2.970   2.670   1.050 -1.4413 -1.4270 -1.5443
  366SOL    HW2 1463   2.941   2.680   0.903 -1.3793 -2.1697 -0.9640
  366SOL     MW 1464   2.914   2.665   0.986  0.1394 -0.7403 -0.4771
  367SOL     OW 1465   1.246   2.941   0.874  0.0223 -0.5795 -0.8181
  367SOL    HW1 1466   1.274   3.013   0.810  1.6301  1.2865  0.1589
  367SOL    HW2 1467   1.215   2.870   0.814  1.2293 -3.1581 -1.6164
  367SOL     MW 1468   1.246   2.941   0.857  0.3937 -0.6735 -0.7945
  368SOL     OW 1469   1.651   0.355   0.743  0.4237  0.3323 -0.0733
  368SOL    HW1 1470   1.717   0.308   0.690 -0.6695  0.2714  1.1953
  368SOL    HW2 1471   1.670   0.450   0.740 -4.0773  0.5177  0.9433
  368SOL     MW 1472   1.662   0.361   0.736 -0.3144  0.3487  0.2282
  369SOL     OW 1473   0.130   2.411   1.799 -0.0323  0.4174 -0.0902
  369SOL    HW1 1474   0.229   2.401   1.810  0.9410 -1.1624  0.1503
  369SOL    HW2 1475   0.105   2.506   1.782  1.0436 -1.4763 -2.1016
  369SOL     MW 1476   0.140   2.422   1.798  0.2381 -0.0409 -0.3239
  370SOL     OW 1477   0.741   0.150   0.942  0.3833  0.6124 -0.7428
  370SOL    HW1 1478   0.791   0.226   0.955  2.1320 -2.0831 -0.4202
  370SOL    HW2 1479   0.802   0.080   0.979 -0.2829  2.4085  0.1761
  370SOL     MW 1480   0.756   0.151   0.949  0.5261  0.4937 -0.5790
  371SOL     OW 1481   1.335   2.874   1.527 -0.5899 -0.5953 -0.2502
  371SOL    HW1 1482   1.280   2.800   1.490  1.3551 -2.2392  3.5601
  371SOL    HW2 1483   1.355   2.934   1.458  1.3316 -2.4689  0.2710
  371SOL     MW 1484   1.330   2.872   1.513 -0.0798 -1.0594  0.3213
  372SOL     OW 1485   0.806   2.271   0.491 -0.1586  0.0529 -0.2228
  372SOL    HW1 1486   0.761   2.187   0.498  1.1622 -0.3219  0.1315
  372SOL    HW2 1487   0.822   2.303   0.398 -0.1410  4.2133 -1.9219
  372SOL     MW 1488   0.802   2.264   0.479  0.0180  0.5524 -0.4002
  373SOL     OW 1489   2.814   3.004   1.459  0.2092  0.6286 -0.1709
  373SOL    HW1 1490   2.891   2.977   1.404  1.9893 -0.8397  0.3565
  373SOL    HW2 1491   2.778   3.085   1.412 -0.8845 -2.6006 -0.2570
  373SOL     MW 1492   2.820   3.012   1.445  0.2998  0.0088 -0.1127
  374SOL     OW 1493   1.502   0.529   0.276 -0.2380  0.5484  0.7790
  374SOL    HW1 1494   1.570   0.461   0.267  0.4592 -1.2864  2.6491
  374SOL    HW2 1495   1.459   0.495   0.357  0.2549  1.0484  0.9577
  374SOL     MW 1496   1.505   0.516   0.286 -0.0809  0.3723  1.0493
  375SOL     OW 1497   0.973   2.095   2.235  0.3801 -0.0387  0.0798
  375SOL    HW1 1498   1.024   2.065   2.312 -0.2960 -0.8182  1.8920
  375SOL    HW2 1499   0.954   2.005   2.201  0.2041 -1.9963 -2.9369
  375SOL     MW 1500   0.977   2.079   2.241  0.2676 -0.3999 -0.0792
  376SOL     OW 1501   0.787   2.558   0.055 -0.6611 -0.2211 -0.2519
  376SOL    HW1 1502   0.779   2.500   0.136 -0.3580 -1.7555  0.6806
  376SOL    HW2 1503   0.764   2.515  -0.026 -1.4498  1.5182 -4.8084
  376SOL     MW 1504   0.783   2.545   0.055 -0.7252 -0.1940 -0.7300
  377SOL     OW 1505   1.258   2.011   0.839  0.0834  0.5114 -0.0805
  377SOL    HW1 1506   1.159   2.003   0.815  1.0348  0.0904  0.2146
  377SOL    HW2 1507   1.271   1.962   0.920  0.5019 -1.1690 -0.0604
  377SOL     MW 1508   1.246   2.003   0.847  0.2641  0.2342 -0.0389
  378SOL     OW 1509   0.887   2.846   1.579  0.4812 -0.0515  0.2429
  378SOL    HW1 1510   0.890   2.751   1.565  1.3622 -0.7928  0.2949
  378SOL    HW2 1511   0.952   2.881   1.521  0.6140 -0.2835 -2.8835
  378SOL     MW 1512   0.896   2.838   1.570  0.6150 -0.1799 -0.1627
  379SOL     OW 1513   1.116   1.699   2.240 -0.5961 -0.1978 -0.4055
  379SOL    HW1 1514   1.034   1.648   2.236 -0.7689 -2.2297 -0.0758
  379SOL    HW2 1515   1.192   1.646   2.204 -2.2293 -0.4784 -3.2979
  379SOL     MW 1516   1.115   1.685   2.235 -0.8344 -0.5029 -0.7436
  380SOL     OW 1517   0.863   0.114   1.511  0.4872  0.0263 -0.5564
  380SOL    HW1 1518   0.865   0.023   1.465  1.1134 -0.9242 -1.2887
  380SOL    HW2 1519   0.932   0.109   1.582  0.8620  0.8374  2.7661
  380SOL     MW 1520   0.872   0.101   1.515  0.6193  0.0079 -0.2147
  381SOL     OW 1521   0.757   2.031   0.831 -0.4215  0.5338  0.4250
  381SOL    HW1 1522   0.846   2.043   0.798  0.8770  2.2933  0.0338
  381SOL    HW2 1523   0.761   2.082   0.913  1.0241 -3.3742 -0.4434
  381SOL     MW 1524   0.769   2.039   0.838 -0.0595  0.2503  0.2588
  382SOL     OW 1525   0.715   0.089   0.642 -0.2309  0.1250  0.0019
  382SOL    HW1 1526   0.705   0.100   0.736 -0.3323  0.3722 -1.3256
  382SOL    HW2 1527   0.691  -0.006   0.631  1.7457  3.0055 -0.3430
  382SOL     MW 1528   0.711   0.078   0.653  0.0165  0.5377 -0.2188
  383SOL     OW 1529   0.546   0.031   0.285  0.2471 -0.0746  0.1610
  383SOL    HW1 1530   0.584  -0.035   0.225  2.1274  0.7356 -0.8771
  383SOL    HW2 1531   0.509  -0.027   0.359  1.1068 -0.4003  0.5522
  383SOL     MW 1532   0.546   0.015   0.287  0.6086 -0.0107  0.0756
  384SOL     OW 1533   0.716   2.929   0.584 -0.0920  0.2980 -0.5767
  384SOL    HW1 1534   0.793   2.926   0.646  1.4366  0.6451 -1.0185
  384SOL    HW2 1535   0.667   2.846   0.613 -0.6497 -1.0426  0.7031
  384SOL     MW 1536   0.720   2.918   0.596  0.0361  0.1669 -0.4661
  385SOL     OW 1537   1.406   2.077   1.497  0.0668 -0.3531  0.2958
  385SOL    HW1 1538   1.477   2.121   1.548  0.0817  4.1090 -0.8442
  385SOL    HW2 1539   1.384   1.994   1.544 -0.4987 -1.6040  2.5529
  385SOL     MW 1540   1.412   2.072   1.510 -0.0058  0.0706  0.4432
  386SOL     OW 1541   1.240   0.384   0.873 -0.2551  0.3437 -0.2667
  386SOL    HW1 1542   1.210   0.456   0.935  1.7153 -0.4867  0.3168
  386SOL    HW2 1543   1.275   0.310   0.929 -1.9318  0.0639  0.9678
  386SOL     MW 1544   1.241   0.384   0.889 -0.2163  0.1972 -0.0268
  387SOL     OW 1545   0.825   2.219   1.544 -0.4192  0.2061 -0.0364
  387SOL    HW1 1546   0.889   2.283   1.498  0.1385 -0.4701  0.1432
  387SOL    HW2 1547   0.851   2.136   1.502  1.6872  0.0084  1.1883
  387SOL     MW 1548   0.837   2.217   1.533 -0.0677  0.0908  0.1489
  388SOL     OW 1549   1.501   2.797   1.242 -0.8202  0.7429  0.3916
  388SOL    HW1 1550   1.408   2.800   1.235  2.2071 -1.8277  3.5946
  388SOL    HW2 1551   1.514   2.714   1.192 -1.0129 -1.3189  2.5567
  388SOL     MW 1552   1.490   2.786   1.234 -0.4462  0.1317  1.0998
  389SOL     OW 1553   0.452   0.141   3.030  0.0022  0.3227 -0.1186
  389SOL    HW1 1554   0.544   0.118   3.014 -0.2434 -1.5803  3.7806
  389SOL    HW2 1555   0.424   0.176   2.952  0.3920  0.5164  3.6514
  389SOL     MW 1556   0.461   0.143   3.018  0.0213  0.0972  0.8933
  390SOL     OW 1557   1.341   0.053   0.731  0.2702 -0.3568  0.4054
  390SOL    HW1 1558   1.387   0.058   0.650 -0.0478  1.9143  3.1151
  390SOL    HW2 1559   1.393   0.096   0.802  1.0765 -0.3678 -1.6944
  390SOL     MW 1560   1.354   0.060   0.730  0.3346 -0.0586  0.4859
  391SOL     OW 1561   0.363   2.213   1.432  0.3337 -0.6388  0.3640
  391SOL    HW1 1562   0.339   2.126   1.462 -0.7082  1.5617 -0.3855
  391SOL    HW2 1563   0.295   2.276   1.460  0.1499  1.5013  2.7616
  391SOL     MW 1564   0.351   2.209   1.440  0.1720 -0.0661  0.5815
  392SOL     OW 1565   2.042   2.206   0.348  0.1495  0.3722 -0.0701
  392SOL    HW1 1566   2.091   2.173   0.425  2.5982  2.7481 -0.6349
  392SOL    HW2 1567   2.000   2.283   0.389 -0.9168  3.6743 -2.0527
  392SOL     MW 1568   2.043   2.212   0.364  0.3319  1.1214 -0.4062
  393SOL     OW 1569   0.289   2.918   2.781  0.1286 -0.0831 -0.3712
  393SOL    HW1 1570   0.360   2.911   2.714 -1.9634 -0.6588  1.9434
  393SOL    HW2 1571   0.271   3.012   2.790  1.2879  0.4195 -2.9550
  393SOL     MW 1572   0.296   2.929   2.773  0.0056 -0.0927 -0.4068
  394SOL     OW 1573   0.892   1.752   1.534  0.3229 -0.3678 -0.2747
  394SOL    HW1 1574   0.831   1.763   1.614 -1.9896  1.7404 -0.2962
  394SOL    HW2 1575   0.881   1.840   1.489  2.0628 -1.5178 -2.5165
  394SOL     MW 1576   0.883   1.765   1.539  0.2474 -0.2414 -0.5733
  395SOL     OW 1577   0.951   2.915   2.621  0.2287  0.5612 -1.0864
  395SOL    HW1 1578   1.005   2.981   2.659  0.4185 -1.4637 -0.8735
  395SOL    HW2 1579   1.013   2.848   2.593 -0.7488 -1.2191  0.5684
  395SOL     MW 1580   0.966   2.915   2.622  0.1248  0.0592 -0.8399
  396SOL     OW 1581   0.693   1.853   2.381 -0.4781  0.2368  0.2445
  396SOL    HW1 1582   0.762   1.850   2.453 -0.1203 -0.6783  1.1436
  396SOL    HW2 1583   0.670   1.766   2.360 -0.4358  4.0032 -0.5763
  396SOL     MW 1584   0.699   1.841   2.388 -0.4253  0.6130  0.2548
  397SOL     OW 1585   1.044   2.371   1.412  0.1993  0.0812  0.3765
  397SOL    HW1 1586   1.060   2.388   1.318 -0.6019  1.9912 -1.5243
  397SOL    HW2 1587   1.123   2.341   1.452 -1.3051 -0.4967  0.1440
  397SOL     MW 1588   1.056   2.369   1.405 -0.1049  0.2570  0.0951
  398SOL     OW 1589   0.592   2.705   0.660  0.3444  0.3888 -0.1092
  398SOL    HW1 1590   0.523   2.688   0.596  1.7828 -1.7317  2.9050
  398SOL    HW2 1591   0.636   2.624   0.677  0.3092  2.6587 -1.0710
  398SOL     MW 1592   0.589   2.692   0.654  0.5295  0.4085  0.1616
  399SOL     OW 1593   0.226   2.093   0.287 -0.0280  0.4043 -0.3651
  399SOL    HW1 1594   0.151   2.150   0.307 -1.0965 -1.7230  1.4465
  399SOL    HW2 1595   0.256   2.110   0.202 -1.0029  0.5495  1.0319
  399SOL     MW 1596   0.220   2.102   0.278 -0.2976  0.1428  0.0583
  400SOL     OW 1597   0.548   1.935   0.065  0.2150  0.6079 -0.2466
  400SOL    HW1 1598   0.474   1.998   0.060 -2.3297  1.1794 -0.1475
  400SOL    HW2 1599   0.536   1.897   0.152  0.0756 -1.7564  0.3219
  400SOL     MW 1600   0.536   1.938   0.076 -0.1391  0.3714 -0.1585
  401SOL     OW 1601   0.793   2.051   0.072  0.4757 -0.0080  0.3936
  401SOL    HW1 1602   0.852   1.975   0.072  0.3294  2.1353 -1.1132
  401SOL    HW2 1603   0.705   2.009   0.076 -1.3649  1.7372  0.7191
  401SOL     MW 1604   0.789   2.035   0.072  0.2135  0.5051  0.2377
  402SOL     OW 1605   0.583   2.965   1.751 -0.6998  0.5627 -0.0489
  402SOL    HW1 1606   0.641   2.914   1.801 -0.2646 -0.8728  1.6586
  402SOL    HW2 1607   0.624   3.051   1.747  0.1905 -0.9546  1.0410
  402SOL     MW 1608   0.596   2.970   1.757 -0.5249  0.1731  0.3202
  403SOL     OW 1609   0.076   0.421   0.400  0.0438  0.3362  0.1269
  403SOL    HW1 1610   0.155   0.466   0.428 -1.0457  1.0651 -3.1375
  403SOL    HW2 1611   0.080   0.415   0.302 -0.3367 -1.1120 -1.2391
  403SOL     MW 1612   0.087   0.426   0.391 -0.1502  0.2413 -0.4841
  404SOL     OW 1613   0.950   2.909   0.723  0.1414  0.4687 -0.3809
  404SOL    HW1 1614   1.029   2.849   0.724  1.3515 -0.1396  2.7062
  404SOL    HW2 1615   0.982   3.004   0.722 -0.7805  1.6213  1.4970
  404SOL     MW 1616   0.965   2.914   0.723  0.1794  0.5405  0.2742
  405SOL     OW 1617   0.563   2.409   1.531 -0.1382 -0.2810 -0.0596
  405SOL    HW1 1618   0.533   2.497   1.503 -1.1055 -0.5630 -1.5260
  405SOL    HW2 1619   0.504   2.359   1.478 -0.6503 -0.5442 -0.9895
  405SOL     MW 1620   0.551   2.414   1.520 -0.3334 -0.3529 -0.3758
  406SOL     OW 1621   0.324   2.413   1.086  0.4510 -0.1644  0.2627
  406SOL    HW1 1622   0.227   2.408   1.098 -0.9673 -0.9397  0.2042
  406SOL    HW2 1623   0.358   2.330   1.123  1.0010  0.5989  1.2332
  406SOL     MW 1624   0.316   2.401   1.093  0.3364 -0.1660  0.3831
  407SOL     OW 1625   0.028   2.714   1.146  0.3135 -0.0644  0.1882
  407SOL    HW1 1626   0.106   2.697   1.208  1.4330 -0.9305  1.8202
  407SOL    HW2 1627   0.073   2.724   1.060  3.3787 -1.6164  1.2175
  407SOL     MW 1628   0.044   2.713   1.142  0.8657 -0.3835  0.5393
  408SOL     OW 1629   2.140   2.143   0.584 -0.0852 -0.4763 -0.1535
  408SOL    HW1 1630   2.107   2.177   0.667 -4.5317  0.1463 -0.6700
  408SOL    HW2 1631   2.076   2.069   0.573  0.2032 -2.5583 -0.3010
  408SOL     MW 1632   2.127   2.138   0.594 -0.6338 -0.6688 -0.2411
  409SOL     OW 1633   1.472   0.151   0.958 -0.4401 -0.2642 -0.1990
  409SOL    HW1 1634   1.551   0.198   0.976 -2.2022  3.4516  0.3847
  409SOL    HW2 1635   1.483   0.063   1.002 -2.7846 -0.5212  1.0343
  409SOL     MW 1636   1.484   0.145   0.966 -0.9819  0.1921  0.0408
  410SOL     OW 1637   1.097   2.429   1.145  0.2187 -0.2521 -0.0082
  410SOL    HW1 1638   1.045   2.471   1.073  1.7133  0.0618  1.1246
  410SOL    HW2 1639   1.151   2.374   1.092 -0.8266  0.1703  0.5017
  410SOL     MW 1640   1.098   2.427   1.129  0.2780 -0.1550  0.2085
  411SOL     OW 1641   1.929   0.046   2.881 -0.4228 -0.6992  0.2517
  411SOL    HW1 1642   1.878  -0.000   2.815 -1.6479 -0.9520  1.0478
  411SOL    HW2 1643   1.873   0.045   2.956 -2.1504 -2.1783 -1.1274
  411SOL     MW 1644   1.915   0.040   2.883 -0.8124 -0.9277  0.1748
  412SOL     OW 1645   1.049   2.231   0.557  0.6175 -0.3380  0.0494
  412SOL    HW1 1646   1.084   2.315   0.588 -0.8629 -1.6643  0.1944
  412SOL    HW2 1647   0.961   2.249   0.531  2.9929 -2.2355  3.5918
  412SOL     MW 1648   1.042   2.244   0.557  0.7356 -0.7634  0.5359
  413SOL     OW 1649   0.542   2.733   3.066 -0.1481 -0.1956  0.4856
  413SOL    HW1 1650   0.617   2.673   3.078 -0.7929  2.6866  3.0397
  413SOL    HW2 1651   0.582   2.787   3.001  1.8449  2.1656  0.9003
  413SOL     MW 1652   0.557   2.732   3.059  0.0298  0.4962  0.8773
  414SOL     OW 1653   1.982   2.999   1.143  0.5457  0.3968  0.3453
  414SOL    HW1 1654   1.895   3.049   1.138 -1.4192  2.9172  1.2858
  414SOL    HW2 1655   2.014   2.987   1.050 -1.5925 -0.7618 -0.4749
  414SOL     MW 1656   1.975   3.004   1.130  0.0043  0.5765  0.3611
  415SOL     OW 1657   1.810   2.723   1.091 -0.5159  0.7418  0.6730
  415SOL    HW1 1658   1.785   2.693   1.178 -2.2491 -0.2285 -0.3049
  415SOL    HW2 1659   1.872   2.792   1.115  0.6538  0.2399  3.5249
  415SOL     MW 1660   1.815   2.728   1.106 -0.5902  0.5476  0.9203
  416SOL     OW 1661   0.550   1.991   1.335 -0.4600  0.2232  0.0480
  416SOL    HW1 1662   0.515   2.075   1.301  1.1104  2.0506 -0.6176
  416SOL    HW2 1663   0.531   1.917   1.272  0.2121 -2.6657 -1.7098
  416SOL     MW 1664   0.543   1.992   1.322 -0.1642  0.0832 -0.2717
  417SOL     OW 1665   0.993   3.000   2.059  0.3338 -0.1836  0.0392
  417SOL    HW1 1666   0.937   2.995   2.139  0.8339  2.2637 -1.9396
  417SOL    HW2 1667   0.946   2.976   1.979 -1.7536 -0.0545 -0.3111
  417SOL     MW 1668   0.979   2.996   2.059  0.1244  0.1563 -0.2681
  418SOL     OW 1669   0.665   2.920   0.138  0.4391 -0.1147  0.7524
  418SOL    HW1 1670   0.755   2.912   0.099  0.3886 -1.6868 -0.3417
  418SOL    HW2 1671   0.613   2.852   0.093  0.6025  0.6563 -1.1073
  418SOL     MW 1672   0.670   2.910   0.127  0.4540 -0.2204  0.3627
  419SOL     OW 1673   0.487   2.630   1.315  0.4666  0.1737 -0.4109
  419SOL    HW1 1674   0.535   2.692   1.372  0.1457 -0.8377  3.5095
  419SOL    HW2 1675   0.514   2.653   1.226 -0.6906 -0.9553 -1.9259
  419SOL     MW 1676   0.497   2.641   1.311  0.2716 -0.1087 -0.0935
  420SOL     OW 1677   0.819   2.211   1.042 -0.7170 -0.0504  0.2400
  420SOL    HW1 1678   0.779   2.233   1.125 -0.0832  1.8678  0.0451
  420SOL    HW2 1679   0.842   2.297   1.017 -1.0391  0.8036 -0.8935
  420SOL     MW 1680   0.817   2.226   1.050 -0.6759  0.3154  0.0648
  421SOL     OW 1681   2.987   0.200   3.050  0.0759 -0.2813 -0.0392
  421SOL    HW1 1682   2.899   0.197   3.002 -1.3554  0.2637  2.0683
  421SOL    HW2 1683   3.018   0.110   3.048  2.3837  1.7618  0.9190
  421SOL     MW 1684   2.979   0.188   3.044  0.1916  0.0602  0.3653
  422SOL     OW 1685   0.881   2.492   0.945 -0.2064 -0.6729  0.4170
  422SOL    HW1 1686   0.876   2.590   0.961 -2.5230  1.1033  0.6875
  422SOL    HW2 1687   0.873   2.486   0.851  0.3065 -1.7189  1.6939
  422SOL     MW 1688   0.879   2.504   0.935 -0.4443 -0.5766  0.6211
  423SOL     OW 1689   1.445   0.084   0.484  0.5156 -0.5332  0.2672
  423SOL    HW1 1690   1.474   0.070   0.396  0.3224  0.2304 -0.1884
  423SOL    HW2 1691   1.454   0.174   0.498 -0.4233 -3.6821 -0.5187
  423SOL     MW 1692   1.450   0.094   0.475  0.3662 -0.8479  0.1034
  424SOL     OW 1693   0.665   2.301   1.260 -0.1825 -0.6683  0.3303
  424SOL    HW1 1694   0.619   2.229   1.220  2.7447  1.3801  1.1125
  424SOL    HW2 1695   0.684   2.289   1.352 -2.2899  0.7149  0.7994
  424SOL     MW 1696   0.661   2.290   1.267 -0.0743 -0.2156  0.4954
  425SOL     OW 1697   1.716   2.774   2.049 -0.1092 -0.2839  0.7803
  425SOL    HW1 1698   1.699   2.773   1.948 -0.3033 -1.0279  0.9563
  425SOL    HW2 1699   1.715   2.679   2.074 -1.5720 -1.9487 -1.1771
  425SOL     MW 1700   1.714   2.762   2.039 -0.3278 -0.6017  0.5452
  426SOL     OW 1701   0.842   1.666   1.958  0.2177  0.4364  0.2482
  426SOL    HW1 1702   0.808   1.677   1.871  1.3382 -0.4660  3.3183
  426SOL    HW2 1703   0.829   1.749   2.005  1.3381  0.1269 -0.1633
  426SOL     MW 1704   0.836   1.678   1.953  0.5134  0.2765  0.5990
  427SOL     OW 1705   0.383   1.674   1.861 -0.1905  0.4840 -0.3968
  427SOL    HW1 1706   0.437   1.614   1.807 -2.3503  0.5170  1.4108
  427SOL    HW2 1707   0.308   1.621   1.899 -2.7973  1.0275  0.2733
  427SOL     MW 1708   0.380   1.659   1.859 -0.8194  0.5601 -0.0699
  428SOL     OW 1709   0.550   2.557   1.012 -0.0150  0.4068 -0.2717
  428SOL    HW1 1710   0.626   2.507   0.999 -2.3000 -0.2967  0.1343
  428SOL    HW2 1711   0.482   2.489   1.042 -1.2022 -0.0365 -0.4723
  428SOL     MW 1712   0.551   2.542   1.014 -0.4731  0.2555 -0.2446
  429SOL     OW 1713   1.249   2.814   1.138  0.0565 -0.0266  0.1155
  429SOL    HW1 1714   1.156   2.825   1.143 -0.9102  1.6341  1.3781
  429SOL    HW2 1715   1.276   2.863   1.059 -2.1305  2.5590  0.7163
  429SOL     MW 1716   1.241   2.822   1.128 -0.3596  0.5336  0.3614
  430SOL     OW 1717   1.156   2.733   0.714 -0.1773  0.2527 -0.1459
  430SOL    HW1 1718   1.160   2.640   0.734  1.0283 -0.7568  1.7436
  430SOL    HW2 1719   1.131   2.744   0.624  0.7658  1.0091 -3.2001
  430SOL     MW 1720   1.153   2.723   0.705  0.1062  0.2193 -0.2995
  431SOL     OW 1721   0.321   1.968   1.024 -0.5010  0.4256  0.3685
  431SOL    HW1 1722   0.390   1.915   0.989 -0.7125 -1.6136 -0.3327
  431SOL    HW2 1723   0.271   1.993   0.942  1.6279  0.7309  2.1352
  431SOL     MW 1724   0.323   1.964   1.008 -0.2480  0.1969  0.5091
  432SOL     OW 1725   0.078   0.054   1.191 -0.0114  0.2354  0.2208
  432SOL    HW1 1726   0.059   0.106   1.268 -0.0109 -1.7546 -0.1479
  432SOL    HW2 1727   0.022  -0.022   1.201  2.7160 -0.8109 -3.8517
  432SOL     MW 1728   0.068   0.051   1.202  0.3485 -0.1652 -0.3652
  433SOL     OW 1729   0.615   2.814   1.494 -0.0878  0.3048 -0.3693
  433SOL    HW1 1730   0.594   2.828   1.583  0.7105 -0.0119 -2.3537
  433SOL    HW2 1731   0.702   2.863   1.481 -0.1169  0.9182  0.3325
  433SOL     MW 1732   0.624   2.822   1.504  0.0136  0.3439 -0.5385
  434SOL     OW 1733   1.581   2.759   1.529 -0.8797 -0.3862  0.1173
  434SOL    HW1 1734   1.489   2.791   1.523 -1.0967  0.0134 -1.2554
  434SOL    HW2 1735   1.597   2.734   1.437  1.3510 -2.0453  1.1361
  434SOL     MW 1736   1.571   2.760   1.516 -0.6140 -0.5524  0.0706
  435SOL     OW 1737   2.818   1.801   0.191 -0.2586  0.1193  0.3281
  435SOL    HW1 1738   2.873   1.878   0.166 -0.9241  0.8211  1.0600
  435SOL    HW2 1739   2.763   1.786   0.106  1.0718  0.4503  1.6535
  435SOL     MW 1740   2.818   1.809   0.177 -0.1709  0.2556  0.5995
  436SOL     OW 1741   1.389   2.675   0.417 -0.5579 -0.1970 -0.2082
  436SOL    HW1 1742   1.453   2.690   0.488  1.0642 -0.3707 -0.4422
  436SOL    HW2 1743   1.358   2.763   0.413  1.3911 -4.0908 -1.1506
  436SOL     MW 1744   1.394   2.688   0.426 -0.0868 -0.7337 -0.3634
  437SOL     OW 1745   0.899   3.009   1.339  0.2056 -0.1332 -0.4385
  437SOL    HW1 1746   0.961   3.076   1.308  0.6072 -1.0142  0.9425
  437SOL    HW2 1747   0.928   2.920   1.313  0.6211  0.3902 -0.3421
  437SOL     MW 1748   0.911   3.006   1.331  0.3134 -0.1804 -0.2436
  438SOL     OW 1749   0.806   2.589   1.892  0.0040 -0.2693  1.2794
  438SOL    HW1 1750   0.828   2.567   1.986 -2.4904 -0.9499  0.8313
  438SOL    HW2 1751   0.767   2.508   1.861  2.0105  1.1715  3.3078
  438SOL     MW 1752   0.804   2.576   1.900 -0.0604 -0.1690  1.4879
  439SOL     OW 1753   1.238   2.109   0.412 -0.2813 -0.1014  0.2888
  439SOL    HW1 1754   1.173   2.133   0.477  1.3354  1.0301 -1.3640
  439SOL    HW2 1755   1.222   2.178   0.346  0.4014  1.6124  0.5048
  439SOL     MW 1756   1.228   2.121   0.412  0.0221  0.2740  0.0992
  440SOL     OW 1757   1.737   2.996   3.065 -0.2854 -0.4314 -0.1535
  440SOL    HW1 1758   1.685   2.962   3.142 -1.1871  2.0351  2.1336
  440SOL    HW2 1759   1.824   2.961   3.070  0.2446 -1.1321 -1.2571
  440SOL     MW 1760   1.742   2.987   3.076 -0.3344 -0.1985  0.0026
  441SOL     OW 1761   0.357   2.664   0.500  0.5038  0.5174  0.1247
  441SOL    HW1 1762   0.365   2.613   0.417  1.7552  0.4863 -2.3790
  441SOL    HW2 1763   0.368   2.757   0.483 -1.5424 -0.1519  2.9086
  441SOL     MW 1764   0.360   2.670   0.487  0.3990  0.4250  0.1617
  442SOL     OW 1765   3.064   2.373   0.606 -0.6351 -0.6514 -0.7082
  442SOL    HW1 1766   3.093   2.466   0.577  0.3533  0.8859 -1.2282
  442SOL    HW2 1767   2.979   2.368   0.648 -0.0305 -0.5285 -1.8351
  442SOL     MW 1768   3.057   2.384   0.608 -0.4250 -0.4323 -0.9255
  443SOL     OW 1769   1.460   1.753   1.954  0.7678 -0.2644  0.4571
  443SOL    HW1 1770   1.457   1.804   1.872  0.8194 -0.0769  1.1686
  443SOL    HW2 1771   1.382   1.700   1.967 -2.1669  0.5863 -1.8630
  443SOL     MW 1772   1.449   1.753   1.945  0.3874 -0.1274  0.2449
  444SOL     OW 1773   0.869   2.564   1.578  0.6010 -0.0085 -0.1149
  444SOL    HW1 1774   0.939   2.555   1.637 -0.0961 -1.2423 -0.5409
  444SOL    HW2 1775   0.794   2.543   1.632  1.8431  0.2435  1.2574
  444SOL     MW 1776   0.868   2.560   1.593  0.6729 -0.1381  0.0100
  445SOL     OW 1777   1.106   0.063   1.321  0.3597 -0.1866  0.0707
  445SOL    HW1 1778   1.039   0.133   1.337 -1.8474 -1.5296  1.3689
  445SOL    HW2 1779   1.146   0.108   1.251  1.0673  1.4675  1.6839
  445SOL     MW 1780   1.103   0.078   1.314  0.1618 -0.1456  0.4548
  446SOL     OW 1781   2.766   2.875   1.095  0.1680 -0.1658 -0.3506
  446SOL    HW1 1782   2.699   2.908   1.040  1.1016 -0.7012  1.0291
  446SOL    HW2 1783   2.809   2.802   1.050 -0.7985 -2.7326  0.7781
  446SOL     MW 1784   2.763   2.870   1.082  0.1637 -0.5751 -0.0196
  447SOL     OW 1785   0.037   1.996   1.644 -0.4055  0.0031 -0.0520
  447SOL    HW1 1786   0.078   1.910   1.669  0.6039  0.2323 -1.7886
  447SOL    HW2 1787  -0.031   1.965   1.577 -2.2215 -0.3482  1.8060
  447SOL     MW 1788   0.033   1.981   1.639 -0.5119 -0.0130 -0.0360
  448SOL     OW 1789   1.726   2.404   1.664  0.4853 -0.0300  0.5536
  448SOL    HW1 1790   1.686   2.312   1.652  3.2011 -0.8304 -0.0023
  448SOL    HW2 1791   1.650   2.458   1.661  2.4059 -0.5699  1.2929
  448SOL     MW 1792   1.710   2.399   1.662  1.0970 -0.2068  0.5778
  449SOL     OW 1793   0.842   2.892   0.359  0.6806 -0.0964 -0.0710
  449SOL    HW1 1794   0.762   2.907   0.306 -0.7832  1.2643 -1.7826
  449SOL    HW2 1795   0.795   2.896   0.445  2.3059 -2.4207 -0.9378
  449SOL     MW 1796   0.825   2.894   0.363  0.7019 -0.2235 -0.4112
  450SOL     OW 1797   1.180   2.433   0.717 -0.2653  0.2761 -0.3700
  450SOL    HW1 1798   1.188   2.412   0.813 -1.3751 -2.1290  0.7585
  450SOL    HW2 1799   1.271   2.432   0.694  1.6127 -1.2769  0.8783
  450SOL     MW 1800   1.193   2.430   0.726 -0.1639 -0.2462 -0.0564
  451SOL     OW 1801   0.555   2.020   1.645  0.1999 -0.5796  0.1917
  451SOL    HW1 1802   0.569   2.110   1.625  1.3522 -2.8749 -1.5577
  451SOL    HW2 1803   0.528   1.987   1.560  0.3331  0.3384  2.4000
  451SOL     MW 1804   0.553   2.028   1.631  0.3695 -0.7614  0.2522
  452SOL     OW 1805   0.275   2.668   0.050 -0.1908 -0.2662 -0.1674
  452SOL    HW1 1806   0.360   2.679   0.016 -0.1299  2.3614  1.1491
  452SOL    HW2 1807   0.228   2.745   0.031 -0.4012  1.5410  2.8612
  452SOL     MW 1808   0.280   2.680   0.043 -0.2106  0.3189  0.4059
  453SOL     OW 1809   0.338   2.988   1.604  0.2618  0.1247  0.1176
  453SOL    HW1 1810   0.400   2.938   1.658 -1.1809  1.5223 -0.5061
  453SOL    HW2 1811   0.389   3.032   1.529 -0.0267  3.6009  1.6277
  453SOL     MW 1812   0.353   2.987   1.601  0.0334  0.7678  0.2345
  454SOL     OW 1813   0.975   2.777   1.212  0.3444  0.5377 -0.2123
  454SOL    HW1 1814   0.927   2.692   1.212 -0.3145  1.0436 -2.2359
  454SOL    HW2 1815   0.950   2.822   1.130 -2.3730  2.1467 -1.4698
  454SOL     MW 1816   0.966   2.771   1.201 -0.1011  0.8167 -0.6452
  455SOL     OW 1817   1.605   2.865   0.155 -0.2442 -0.3388  0.1936
  455SOL    HW1 1818   1.674   2.863   0.225  1.3081 -0.4719  0.0632
  455SOL    HW2 1819   1.572   2.777   0.174 -0.1716 -0.3480  0.6056
  455SOL     MW 1820   1.609   2.853   0.167 -0.0298 -0.3576  0.2307
  456SOL     OW 1821   2.731   0.348   1.525  0.2297 -0.7388  0.5741
  456SOL    HW1 1822   2.703   0.269   1.473 -1.0033 -3.4402 -1.7219
  456SOL    HW2 1823   2.810   0.361   1.485 -1.9355 -0.9570 -0.4195
  456SOL     MW 1824   2.738   0.339   1.513 -0.2187 -1.1240  0.1401
  457SOL     OW 1825   0.900   1.586   3.024  0.0093  0.4504  0.5434
  457SOL    HW1 1826   0.809   1.547   3.021 -0.3878  0.2370 -0.1933
  457SOL    HW2 1827   0.924   1.551   3.108 -1.7370  1.6414  2.9483
  457SOL     MW 1828   0.891   1.576   3.035 -0.2735  0.5794  0.7635
  458SOL     OW 1829   1.372   1.474   0.567  0.1002 -0.3513  0.2503
  458SOL    HW1 1830   1.318   1.553   0.559  2.3525 -0.5544 -0.4162
  458SOL    HW2 1831   1.352   1.417   0.490 -0.6706 -1.3499  0.6068
  458SOL     MW 1832   1.362   1.477   0.556  0.2957 -0.5099  0.2094
  459SOL     OW 1833   1.482   0.027   0.218  0.1732 -0.0038  0.5573
  459SOL    HW1 1834   1.515  -0.065   0.211  1.6760  0.6695 -0.6471
  459SOL    HW2 1835   1.414   0.034   0.152 -0.6906 -0.5806  0.1354
  459SOL     MW 1836   1.478   0.016   0.208  0.2575  0.0089  0.3427
  460SOL     OW 1837   1.772   2.133   0.619  0.6132  0.5046  0.0928
  460SOL    HW1 1838   1.701   2.097   0.676 -0.8718  1.2333  0.1687
  460SOL    HW2 1839   1.814   2.053   0.587 -1.5850  0.0504  1.0817
  460SOL     MW 1840   1.769   2.118   0.622  0.1272  0.5408  0.2333
  461SOL     OW 1841   0.398   2.391   0.555  0.4767 -0.0191 -0.1892
  461SOL    HW1 1842   0.370   2.483   0.548  0.7024  3.1116 -0.5220
  461SOL    HW2 1843   0.362   2.372   0.643  0.1456 -1.5184  1.6124
  461SOL     MW 1844   0.389   2.401   0.566  0.4628  0.1961  0.0046
  462SOL     OW 1845   0.322   0.255   1.283  0.0981 -0.2092 -0.6209
  462SOL    HW1 1846   0.358   0.218   1.205 -1.2332  0.7413  1.3335
  462SOL    HW2 1847   0.397   0.252   1.346  1.3239 -0.2530 -0.8862
  462SOL     MW 1848   0.336   0.250   1.281  0.0842 -0.0896 -0.3980
  463SOL     OW 1849   0.983   0.092   0.678 -0.4218  0.3820 -0.3809
  463SOL    HW1 1850   1.031   0.090   0.597  1.3045 -0.4242 -0.3938
  463SOL    HW2 1851   0.885   0.096   0.660  1.2035 -1.3243  0.4565
  463SOL     MW 1852   0.976   0.092   0.665  0.0204  0.0505 -0.2721
  464SOL     OW 1853   0.776   3.072   2.265 -0.3303 -0.5842 -0.3081
  464SOL    HW1 1854   0.775   2.979   2.250  0.9407  0.0903 -0.8333
  464SOL    HW2 1855   0.769   3.085   2.358 -1.2308  0.8126 -2.1695
  464SOL     MW 1856   0.775   3.061   2.275 -0.2814 -0.3110 -0.6230
  465SOL     OW 1857   0.829   0.283   0.479  1.4200 -0.5278 -0.3330
  465SOL    HW1 1858   0.759   0.231   0.526  0.5857  0.9824 -0.6933
  465SOL    HW2 1859   0.800   0.265   0.385  1.9010 -0.3487 -0.1492
  465SOL     MW 1860   0.816   0.274   0.473  1.3734 -0.3049 -0.3563
  466SOL     OW 1861   1.002   2.034   0.716 -0.5566 -0.0190  0.6901
  466SOL    HW1 1862   1.009   1.949   0.673  0.4672 -0.6106  0.2508
  466SOL    HW2 1863   1.018   2.108   0.653 -2.6203 -0.9981 -0.1054
  466SOL     MW 1864   1.005   2.032   0.702 -0.6938 -0.2262  0.5272
  467SOL     OW 1865   1.225   2.289   0.942  0.4166  0.2312  0.6821
  467SOL    HW1 1866   1.319   2.298   0.924  0.3144  1.3563 -2.6988
  467SOL    HW2 1867   1.208   2.201   0.902 -0.0943 -0.9066 -1.5684
  467SOL     MW 1868   1.235   2.278   0.935  0.3357  0.2295 -0.0609
  468SOL     OW 1869   0.411   2.638   1.999  0.3535  0.0851 -0.5300
  468SOL    HW1 1870   0.415   2.582   1.921  2.6240 -1.1297  1.7880
  468SOL    HW2 1871   0.334   2.689   1.988  1.0726  3.5265 -1.1349
  468SOL     MW 1872   0.401   2.637   1.987  0.7479  0.3789 -0.3040
  469SOL     OW 1873   0.375   2.150   1.847  0.1364 -0.3655  0.5705
  469SOL    HW1 1874   0.312   2.079   1.870 -1.4023 -0.5873  0.4847
  469SOL    HW2 1875   0.451   2.104   1.813 -1.9168  1.2049  2.2048
  469SOL     MW 1876   0.377   2.134   1.845 -0.3375 -0.1875  0.7748
  470SOL     OW 1877   3.023   2.613   0.132  0.1052 -0.4484  0.0674
  470SOL    HW1 1878   2.934   2.585   0.164 -1.9041 -1.2108  2.0272
  470SOL    HW2 1879   3.008   2.638   0.038 -1.3388 -1.1346  0.5239
  470SOL     MW 1880   3.009   2.612   0.124 -0.3504 -0.6395  0.3862
  471SOL     OW 1881   1.180   2.662   1.445 -0.0485 -0.2349 -0.3055
  471SOL    HW1 1882   1.136   2.618   1.514  0.3472 -2.3218 -1.6852
  471SOL    HW2 1883   1.125   2.637   1.369 -2.5686  0.7630  1.3529
  471SOL     MW 1884   1.167   2.653   1.444 -0.3288 -0.3785 -0.2688
  472SOL     OW 1885   2.837   2.125   0.330 -0.5898  0.0965  0.0628
  472SOL    HW1 1886   2.869   2.076   0.249 -0.0887 -0.2504  1.0872
  472SOL    HW2 1887   2.782   2.065   0.384 -2.6036  2.2637  2.5903
  472SOL     MW 1888   2.834   2.111   0.327 -0.7894  0.3367  0.5314
  473SOL     OW 1889   0.817   2.529   1.275 -0.4580 -0.3200  0.5477
  473SOL    HW1 1890   0.748   2.468   1.298  0.0686  0.7519 -2.0547
  473SOL    HW2 1891   0.882   2.514   1.345 -0.5408  1.6365  2.5891
  473SOL     MW 1892   0.816   2.519   1.287 -0.3994  0.0796  0.4736
  474SOL     OW 1893   0.862   2.078   1.807 -0.5504 -0.1160  0.2889
  474SOL    HW1 1894   0.945   2.122   1.813  0.4938  1.4056 -2.3988
  474SOL    HW2 1895   0.832   2.102   1.720  2.1253  0.9824 -0.4662
  474SOL     MW 1896   0.869   2.087   1.796 -0.0596  0.2297 -0.1653
  475SOL     OW 1897   1.646   3.069   1.448  0.1462  0.2199  0.4643
  475SOL    HW1 1898   1.563   3.068   1.399 -2.1147  1.7410 -0.5093
  475SOL    HW2 1899   1.652   2.977   1.481 -0.2867 -1.2181 -1.6066
  475SOL     MW 1900   1.636   3.057   1.446 -0.2092  0.2309  0.0626
  476SOL     OW 1901   1.428   2.610   1.032 -0.1655  0.1530 -0.0047
  476SOL    HW1 1902   1.350   2.657   1.066  2.7936  2.1103 -0.8584
  476SOL    HW2 1903   1.459   2.664   0.962 -2.4544  1.4041  0.7238
  476SOL     MW 1904   1.422   2.624   1.027 -0.0771  0.5764 -0.0213
  477SOL     OW 1905   0.807   2.497   0.671 -0.2585 -0.7249 -0.3840
  477SOL    HW1 1906   0.853   2.541   0.599 -0.7785  2.0499 -1.2826
  477SOL    HW2 1907   0.792   2.408   0.634  0.8673 -1.9224  1.2576
  477SOL     MW 1908   0.811   2.491   0.656 -0.1786 -0.5168 -0.2860
  478SOL     OW 1909   0.178   2.677   0.924 -0.4448 -0.6599 -0.0029
  478SOL    HW1 1910   0.236   2.744   0.911  2.4756 -0.8000  0.6250
  478SOL    HW2 1911   0.211   2.608   0.869 -0.1887  1.0107 -2.6172
  478SOL     MW 1912   0.190   2.676   0.915 -0.0257 -0.4579 -0.2650
  479SOL     OW 1913   1.467   1.982   1.240  0.2202 -0.5939 -0.0950
  479SOL    HW1 1914   1.448   2.008   1.330  0.0550  1.3930  0.3192
  479SOL    HW2 1915   1.493   1.887   1.236  0.5380 -0.1736  0.4559
  479SOL     MW 1916   1.468   1.973   1.252  0.2403 -0.2763  0.0324
  480SOL     OW 1917   1.896   2.410   1.262  0.9657 -0.6393  0.3068
  480SOL    HW1 1918   1.841   2.331   1.270  1.6143 -2.4018 -1.8533
  480SOL    HW2 1919   1.940   2.416   1.174  0.3386  3.8151 -0.9671
  480SOL     MW 1920   1.895   2.400   1.252  0.9685 -0.2842 -0.1462
  481SOL     OW 1921   1.020   0.008   0.993  0.2367 -0.1316  1.1065
  481SOL    HW1 1922   1.086  -0.054   0.959  1.1270  0.0655 -0.7033
  481SOL    HW2 1923   1.059   0.092   0.996 -0.2987 -0.7474  1.1439
  481SOL     MW 1924   1.033   0.011   0.989  0.2835 -0.1868  0.8726
  482SOL     OW 1925   1.081   3.054   0.275 -0.0491 -0.3281  0.0237
  482SOL    HW1 1926   1.014   2.999   0.317  0.9508 -5.1299 -1.3934
  482SOL    HW2 1927   1.088   3.131   0.333  3.7681 -2.0106  4.0249
  482SOL     MW 1928   1.073   3.057   0.288  0.5865 -1.1836  0.3646
  483SOL     OW 1929   0.419   2.955   0.435 -0.2450  0.4960  0.0906
  483SOL    HW1 1930   0.348   2.960   0.364  0.0190  3.2394 -1.2556
  483SOL    HW2 1931   0.382   3.019   0.500 -2.3372  0.4631 -0.0968
  483SOL     MW 1932   0.405   2.964   0.434 -0.4862  0.8536 -0.1117
  484SOL     OW 1933   1.772   1.893   1.451  0.5077  0.1157  0.9564
  484SOL    HW1 1934   1.772   1.987   1.428  1.5221 -0.0626 -2.5181
  484SOL    HW2 1935   1.751   1.890   1.543  1.8898  0.8508  0.7583
  484SOL     MW 1936   1.769   1.905   1.460  0.8239  0.1892  0.4719
  485SOL     OW 1937   0.475   2.288   0.239 -0.3731 -0.1865  0.7013
  485SOL    HW1 1938   0.465   2.235   0.328  1.2979 -4.0920  1.2625
  485SOL    HW2 1939   0.418   2.365   0.246 -1.5887 -1.9025 -1.6713
  485SOL     MW 1940   0.466   2.291   0.252 -0.3130 -0.9282  0.4623
  486SOL     OW 1941   0.170   2.405   1.522  0.7128  0.6627 -0.9246
  486SOL    HW1 1942   0.197   2.481   1.475  3.5980 -1.7652 -1.7753
  486SOL    HW2 1943   0.161   2.425   1.620  0.1336 -1.4688  0.6522
  486SOL     MW 1944   0.172   2.417   1.529  1.0171  0.0611 -0.8288
  487SOL     OW 1945   1.233   1.660   1.022 -1.0100 -0.2125 -0.0356
  487SOL    HW1 1946   1.240   1.753   1.051  1.0293  2.5034  0.1641
  487SOL    HW2 1947   1.322   1.648   0.973  1.6387  0.2643 -0.6136
  487SOL     MW 1948   1.246   1.671   1.019 -0.3915  0.2087 -0.0855
  488SOL     OW 1949   1.666   1.848   0.489 -0.7305 -0.1246  0.0579
  488SOL    HW1 1950   1.738   1.867   0.426  1.8126 -0.7563 -2.0828
  488SOL    HW2 1951   1.609   1.929   0.477  0.1097 -1.7739  0.1506
  488SOL     MW 1952   1.668   1.861   0.479 -0.2841 -0.4255 -0.2123
  489SOL     OW 1953   0.687   0.760   0.593 -0.0592  0.5590 -0.1582
  489SOL    HW1 1954   0.733   0.675   0.567 -0.8191 -1.7947  1.1016
  489SOL    HW2 1955   0.707   0.756   0.686 -0.4162 -2.4175 -1.2456
  489SOL     MW 1956   0.696   0.748   0.602 -0.2066 -0.1442 -0.1355
  490SOL     OW 1957   1.485   2.050   0.464 -0.4380  0.3791 -0.1834
  490SOL    HW1 1958   1.511   2.143   0.458 -3.2866  2.2218 -1.9746
  490SOL    HW2 1959   1.386   2.059   0.459  2.1398  0.4567  0.0404
  490SOL     MW 1960   1.475   2.063   0.463 -0.4737  0.6324 -0.3902
  491SOL     OW 1961   1.306   2.919   0.392  0.5296  0.2710 -0.8578
  491SOL    HW1 1962   1.337   3.000   0.431  0.3162  1.9117 -1.2373
  491SOL    HW2 1963   1.235   2.953   0.333 -0.3579  3.5099  1.3651
  491SOL     MW 1964   1.301   2.934   0.390  0.3843  0.9148 -0.6146
  492SOL     OW 1965   1.513   2.081   0.729 -0.6082 -0.0768  0.8655
  492SOL    HW1 1966   1.495   2.063   0.631  1.9319 -2.9496 -0.5945
  492SOL    HW2 1967   1.433   2.055   0.772  1.6842 -2.5804 -1.3837
  492SOL     MW 1968   1.500   2.076   0.722  0.0294 -0.7862  0.3761
  493SOL     OW 1969   0.216   2.995   0.278  0.2742  0.0072  0.2104
  493SOL    HW1 1970   0.163   3.055   0.331 -1.1455  0.6232 -1.0089
  493SOL    HW2 1971   0.233   3.042   0.194 -0.1925  2.3217  1.0739
  493SOL     MW 1972   0.211   3.009   0.274  0.0253  0.3938  0.1634
  494SOL     OW 1973   0.406   2.452   1.795 -0.2840 -0.0900 -0.1704
  494SOL    HW1 1974   0.430   2.368   1.836  0.5750 -1.4239 -0.3247
  494SOL    HW2 1975   0.456   2.436   1.708 -1.2367 -0.6045 -1.0200
  494SOL     MW 1976   0.416   2.439   1.789 -0.2963 -0.3339 -0.3029
  495SOL     OW 1977   2.922   1.669   2.593 -0.2055 -0.6090  0.1164
  495SOL    HW1 1978   2.923   1.765   2.558  2.0134  0.8113 -0.8249
  495SOL    HW2 1979   2.902   1.675   2.690  2.0288  1.2882 -2.0170
  495SOL     MW 1980   2.920   1.683   2.601  0.3820 -0.1713 -0.2892
  496SOL     OW 1981   2.912   2.299   2.678  0.2675  0.1661  0.0793
  496SOL    HW1 1982   2.969   2.227   2.697 -0.5917  0.3303  0.7738
  496SOL    HW2 1983   2.976   2.363   2.696 -0.5336  2.3252  2.0236
  496SOL     MW 1984   2.928   2.298   2.683  0.0485  0.4727  0.4274
  497SOL     OW 1985   1.508   2.264   2.642 -0.4513  0.1136  0.0818
  497SOL    HW1 1986   1.462   2.252   2.558 -0.4395 -2.7425  1.1286
  497SOL    HW2 1987   1.494   2.183   2.690 -0.7249  1.1393 -0.1123
  497SOL     MW 1988   1.500   2.251   2.637 -0.4858 -0.1279  0.1943
  498SOL     OW 1989   1.539   2.746   2.371 -0.2916  0.1047 -0.3476
  498SOL    HW1 1990   1.516   2.663   2.332  0.1381 -2.9523 -0.5387
  498SOL    HW2 1991   1.628   2.722   2.408  0.7125  0.8653  0.1294
  498SOL     MW 1992   1.548   2.732   2.371 -0.1024 -0.1983 -0.3099
  499SOL     OW 1993   0.933   0.090   0.076 -0.2440 -0.0563  0.2784
  499SOL    HW1 1994   0.861   0.147   0.117 -0.7426 -1.1377  0.6584
  499SOL    HW2 1995   0.977   0.028   0.136 -0.7545 -3.0521  1.0630
  499SOL     MW 1996   0.929   0.090   0.089 -0.3771 -0.5943  0.4321
  500SOL     OW 1997   1.114   2.575   2.778 -0.0074 -0.0945  0.0758
  500SOL    HW1 1998   1.127   2.509   2.845 -2.7862 -0.2533 -0.2253
  500SOL    HW2 1999   1.037   2.631   2.791  0.0438 -1.2461 -0.4762
  500SOL     MW 2000   1.105   2.573   2.788 -0.3673 -0.2674 -0.0368
  501SOL     OW 2001   1.751   2.261   0.021 -0.1564  0.0423 -0.0163
  501SOL    HW1 2002   1.783   2.317   0.085 -1.3832  0.3700 -3.2595
  501SOL    HW2 2003   1.837   2.235  -0.012  0.8994 -0.3629 -4.8822
  501SOL     MW 2004   1.767   2.265   0.025 -0.1790  0.0321 -1.0862
  502SOL     OW 2005   0.103   2.842   2.971  0.1404  0.0958  0.5414
  502SOL    HW1 2006   0.050   2.776   2.920  0.9765  1.1140  1.5380
  502SOL    HW2 2007   0.169   2.876   2.912 -1.3155 -1.2406  1.1214
  502SOL     MW 2008   0.105   2.838   2.956  0.0586  0.0538  0.7494
  503SOL     OW 2009   1.132   2.718   2.123  0.3672  0.1409  0.2389
  503SOL    HW1 2010   1.155   2.704   2.032 -2.8075  0.9987  1.0528
  503SOL    HW2 2011   1.046   2.760   2.125 -0.6502  1.0908  0.2200
  503SOL     MW 2012   1.124   2.721   2.111 -0.1859  0.3794  0.3438
  504SOL     OW 2013   0.030   2.713   2.119  0.5976 -0.2121 -0.2256
  504SOL    HW1 2014   0.060   2.627   2.096  0.3788 -0.2618  1.3536
  504SOL    HW2 2015  -0.050   2.717   2.066  2.9935 -0.9521 -1.1959
  504SOL     MW 2016   0.023   2.702   2.109  0.8849 -0.3163 -0.1452
  505SOL     OW 2017   1.756   2.677   2.837  0.9113  0.7334  0.5138
  505SOL    HW1 2018   1.768   2.681   2.740  0.5023  0.2937 -0.9402
  505SOL    HW2 2019   1.666   2.719   2.848 -2.0890  0.5424  2.8539
  505SOL     MW 2020   1.746   2.683   2.826  0.4615  0.6502  0.6307
  506SOL     OW 2021   1.587   3.078   2.845  0.1938 -0.2560  0.0242
  506SOL    HW1 2022   1.625   3.076   2.934 -0.1885  2.0270 -0.8674
  506SOL    HW2 2023   1.667   3.064   2.787  0.7769  0.0909  0.2959
  506SOL     MW 2024   1.602   3.076   2.849  0.2203  0.0910 -0.0576
  507SOL     OW 2025   0.903   2.743   2.835 -0.1574  0.4646  0.3996
  507SOL    HW1 2026   0.918   2.818   2.774 -0.1752  5.3608  0.3337
  507SOL    HW2 2027   0.817   2.697   2.812  0.5545  3.2918  2.6706
  507SOL     MW 2028   0.894   2.747   2.824 -0.0658  1.4836  0.6905
  508SOL     OW 2029   1.143   2.099   2.489  0.2006  0.4664  0.1268
  508SOL    HW1 2030   1.216   2.079   2.547  0.9620 -0.9061  0.7043
  508SOL    HW2 2031   1.118   2.184   2.523  1.6862 -4.5281 -1.2024
  508SOL     MW 2032   1.149   2.107   2.501  0.4970 -0.3736  0.0276
  509SOL     OW 2033   0.684   2.589   2.720  0.7708 -0.6147  0.0771
  509SOL    HW1 2034   0.685   2.529   2.649 -2.2931 -0.7933  0.0378
  509SOL    HW2 2035   0.595   2.608   2.742  0.0971  2.2045  1.1277
  509SOL     MW 2036   0.673   2.584   2.714  0.2777 -0.2663  0.2105
  510SOL     OW 2037   1.494   2.555   1.676 -0.2204 -0.3516 -0.0832
  510SOL    HW1 2038   1.525   2.634   1.629 -0.9134  2.3554 -1.5729
  510SOL    HW2 2039   1.434   2.575   1.747 -2.0478 -3.0977  1.9575
  510SOL     MW 2040   1.490   2.568   1.679 -0.5529 -0.3567 -0.0105
  511SOL     OW 2041   0.422   2.645   2.461  0.0276 -0.0101 -0.0294
  511SOL    HW1 2042   0.497   2.573   2.460 -1.3318  0.1870 -0.1324
  511SOL    HW2 2043   0.444   2.695   2.379  1.3560  0.6416 -3.1494
  511SOL     MW 2044   0.435   2.642   2.450  0.0235  0.1019 -0.4547
  512SOL     OW 2045   1.029   2.011   2.822  0.7053  0.0852  0.0339
  512SOL    HW1 2046   0.952   2.057   2.853  1.8968  0.7018  0.1042
  512SOL    HW2 2047   1.037   1.927   2.869  1.8456  1.5327  2.3647
  512SOL     MW 2048   1.020   2.006   2.833  1.0130  0.3575  0.3507
  513SOL     OW 2049   1.587   2.482   2.293 -0.9731  0.2285  0.4178
  513SOL    HW1 2050   1.662   2.482   2.229  2.2455 -3.8509  0.9526
  513SOL    HW2 2051   1.617   2.462   2.382 -1.2349 -1.9017 -0.2649
  513SOL     MW 2052   1.601   2.479   2.296 -0.5829 -0.5908  0.3983
  514SOL     OW 2053   0.292   2.457   2.639 -0.2029 -0.4012  0.0493
  514SOL    HW1 2054   0.319   2.527   2.579  1.7415 -1.9147  1.2251
  514SOL    HW2 2055   0.342   2.465   2.727  0.4677  0.4073  0.9236
  514SOL     MW 2056   0.302   2.467   2.643  0.1421 -0.4942  0.3198
  515SOL     OW 2057   1.136   2.034   1.988 -0.4333  0.8593 -0.6369
  515SOL    HW1 2058   1.146   2.111   1.934  1.0586  0.6677  0.7291
  515SOL    HW2 2059   1.217   2.028   2.040 -0.4285 -0.1157  1.4518
  515SOL     MW 2060   1.148   2.043   1.988 -0.2358  0.7054 -0.1811
  516SOL     OW 2061   1.448   2.515   0.014  0.3246 -0.6094  0.4121
  516SOL    HW1 2062   1.503   2.499  -0.063  0.5704  0.1440  0.5546
  516SOL    HW2 2063   1.361   2.502  -0.012  1.0694 -0.7588  1.2756
  516SOL     MW 2064   1.444   2.511   0.000  0.4553 -0.5297  0.5449
  517SOL     OW 2065   0.579   2.430   2.115  0.1655  0.0223  0.3416
  517SOL    HW1 2066   0.530   2.504   2.077 -0.5291 -0.2864 -0.2811
  517SOL    HW2 2067   0.507   2.356   2.111  2.4113 -0.5802  1.5441
  517SOL     MW 2068   0.563   2.430   2.110  0.3702 -0.0979  0.4181
  518SOL     OW 2069   1.784   0.211   3.064  0.4082  0.4125 -0.1042
  518SOL    HW1 2070   1.720   0.264   3.026  3.2958 -1.8017  0.1993
  518SOL    HW2 2071   1.743   0.191   3.151 -0.9762  1.9231 -0.5619
  518SOL     MW 2072   1.770   0.215   3.071  0.6066  0.3196 -0.1245
  519SOL     OW 2073   0.726   2.367   1.762 -0.2741  0.4500 -0.0558
  519SOL    HW1 2074   0.793   2.302   1.780 -1.9819 -0.0370 -1.4951
  519SOL    HW2 2075   0.694   2.360   1.670 -0.8065 -0.5095 -1.8422
  519SOL     MW 2076   0.731   2.358   1.752 -0.5697  0.2591 -0.4814
  520SOL     OW 2077   1.284   2.108   2.953  0.0312 -0.0295 -0.5319
  520SOL    HW1 2078   1.192   2.076   2.954 -0.9061  0.9811  0.9915
  520SOL    HW2 2079   1.314   2.058   3.032 -1.2841 -2.2190  0.8483
  520SOL     MW 2080   1.276   2.097   2.964 -0.2660 -0.1850 -0.1488
  521SOL     OW 2081   1.711   2.001   2.191 -0.1435  0.0007  0.1814
  521SOL    HW1 2082   1.750   2.046   2.114 -2.8855 -2.3009  0.2271
  521SOL    HW2 2083   1.704   1.909   2.166  5.6972  0.1533  1.6934
  521SOL     MW 2084   1.715   1.994   2.178  0.2653 -0.2828  0.3869
  522SOL     OW 2085   2.873   2.552   2.215 -0.0799  0.5739  0.1854
  522SOL    HW1 2086   2.923   2.475   2.241 -0.2614 -0.6206  1.2615
  522SOL    HW2 2087   2.908   2.616   2.286 -2.0408  2.2899  2.6156
  522SOL     MW 2088   2.885   2.550   2.228 -0.3626  0.6427  0.6480
  523SOL     OW 2089   0.920   1.537   2.181 -0.2341  0.1292 -0.9164
  523SOL    HW1 2090   0.887   1.593   2.112  1.0318  0.8419 -0.6179
  523SOL    HW2 2091   0.984   1.476   2.142 -0.0538  0.6061  2.4789
  523SOL     MW 2092   0.924   1.536   2.167 -0.0433  0.2861 -0.4290
  524SOL     OW 2093   0.680   2.410   2.960 -0.0267 -0.3168 -0.5700
  524SOL    HW1 2094   0.728   2.430   2.876  0.4882 -1.6937  0.5228
  524SOL    HW2 2095   0.670   2.314   2.958 -0.9231 -0.0950  1.2823
  524SOL     MW 2096   0.685   2.400   2.949 -0.0771 -0.4692 -0.1814
  525SOL     OW 2097   0.331   2.299   2.070  0.4840 -0.0691 -0.4083
  525SOL    HW1 2098   0.295   2.228   2.118  1.1968  1.0770 -2.8222
  525SOL    HW2 2099   0.350   2.258   1.991  0.5166  0.8030 -0.3114
  525SOL     MW 2100   0.329   2.284   2.066  0.5823  0.1972 -0.7140
  526SOL     OW 2101   0.658   2.099   2.008  0.1685  0.5386  0.1784
  526SOL    HW1 2102   0.722   2.119   1.943 -0.3777 -0.5814  1.6918
  526SOL    HW2 2103   0.658   2.175   2.061  1.5840  0.1129 -3.1613
  526SOL     MW 2104   0.666   2.112   2.007  0.2832  0.3346 -0.0626
  527SOL     OW 2105   1.428   2.030   2.071  0.4645  0.0956  0.3082
  527SOL    HW1 2106   1.387   2.022   2.155 -0.2683  0.8505 -1.8357
  527SOL    HW2 2107   1.462   1.942   2.048 -0.7593 -0.3674 -2.9524
  527SOL     MW 2108   1.427   2.017   2.079  0.2064  0.1341 -0.4049
  528SOL     OW 2109   0.647   2.893   2.897 -0.3505  0.3603  0.3572
  528SOL    HW1 2110   0.669   2.975   2.941 -2.2905  0.1190  0.8756
  528SOL    HW2 2111   0.593   2.915   2.823  2.4750 -1.0941 -1.7427
  528SOL     MW 2112   0.643   2.906   2.893 -0.2337  0.1366  0.1485
  529SOL     OW 2113   1.069   2.281   1.851 -0.5498  0.2832 -0.2654
  529SOL    HW1 2114   1.075   2.328   1.929  2.8091  1.5326 -0.2987
  529SOL    HW2 2115   1.080   2.360   1.791  0.6801  3.9604  0.6392
  529SOL     MW 2116   1.071   2.297   1.853  0.0557  0.9332 -0.1505
  530SOL     OW 2117   1.182   2.403   3.020  0.1974 -0.0210  0.0129
  530SOL    HW1 2118   1.153   2.442   3.105  0.9689 -1.2612 -0.7862
  530SOL    HW2 2119   1.226   2.321   3.037  0.0272 -0.1214 -0.7018
  530SOL     MW 2120   1.184   2.397   3.033  0.2767 -0.1979 -0.1869
  531SOL     OW 2121   0.900   1.873   2.570 -0.0010 -0.1147  0.3189
  531SOL    HW1 2122   0.935   1.952   2.597  0.7181 -0.3828 -1.0382
  531SOL    HW2 2123   0.900   1.814   2.649 -0.2662  0.3408  2.5358
  531SOL     MW 2124   0.905   1.875   2.584  0.0589 -0.0900  0.4324
  532SOL     OW 2125   1.721   0.309   2.806  0.2160 -0.3551  0.0341
  532SOL    HW1 2126   1.735   0.223   2.847 -0.1836 -1.7432 -0.5630
  532SOL    HW2 2127   1.798   0.365   2.825  0.8431  0.4943  2.5440
  532SOL     MW 2128   1.733   0.305   2.814  0.2460 -0.4261  0.2865
  533SOL     OW 2129   1.898   2.622   3.068 -1.0678  0.1366 -0.2804
  533SOL    HW1 2130   1.862   2.567   3.145  0.1740 -3.1177  0.9663
  533SOL    HW2 2131   1.829   2.636   3.000 -0.1155  1.0238  3.0520
  533SOL     MW 2132   1.884   2.616   3.069 -0.7783 -0.1757  0.3237
  534SOL     OW 2133   1.730   2.409   2.539 -0.0487  0.0280  0.2644
  534SOL    HW1 2134   1.665   2.347   2.578 -0.1180 -1.5943 -0.5358
  534SOL    HW2 2135   1.811   2.410   2.596 -0.3909  1.2541  2.3443
  534SOL     MW 2136   1.732   2.401   2.552 -0.1030 -0.0243  0.4332
  535SOL     OW 2137   1.922   2.399   1.858 -0.4439  0.1401  0.3164
  535SOL    HW1 2138   1.858   2.425   1.786 -0.0050  2.1491 -0.3897
  535SOL    HW2 2139   2.011   2.407   1.823 -1.2803 -2.6933 -0.3809
  535SOL     MW 2140   1.925   2.403   1.844 -0.4963  0.0313  0.1312
  536SOL     OW 2141   0.448   1.843   2.088 -0.5174 -0.1156  0.4563
  536SOL    HW1 2142   0.461   1.817   1.992  1.0475 -0.1795 -1.6247
  536SOL    HW2 2143   0.507   1.921   2.100  0.3939  0.0569  0.3337
  536SOL     MW 2144   0.458   1.850   2.077 -0.1907 -0.1013  0.1656
  537SOL     OW 2145   1.088   0.226   2.849  0.1082  0.3611  0.0134
  537SOL    HW1 2146   1.023   0.288   2.891 -1.8654 -0.4562 -1.4645
  537SOL    HW2 2147   1.088   0.257   2.761  3.8485 -0.7885 -0.0190
  537SOL     MW 2148   1.079   0.238   2.843  0.3413  0.1016 -0.1859
  538SOL     OW 2149   1.333   0.075   3.087  0.0957  0.1038  0.2639
  538SOL    HW1 2150   1.341   0.167   3.077  1.2070  0.0990 -0.5382
  538SOL    HW2 2151   1.364   0.041   3.001  1.0811 -0.4257 -1.6375
  538SOL     MW 2152   1.338   0.083   3.074  0.3724  0.0333 -0.0928
  539SOL     OW 2153   0.694   2.790   2.479  0.0811 -0.3071  0.2538
  539SOL    HW1 2154   0.773   2.844   2.505 -0.0058  0.7201  0.1460
  539SOL    HW2 2155   0.697   2.708   2.529 -1.6470 -0.2811  0.6730
  539SOL     MW 2156   0.705   2.786   2.489 -0.1584 -0.1681  0.2949
  540SOL     OW 2157   0.407   2.501   2.900 -0.2395 -0.1116  0.1497
  540SOL    HW1 2158   0.493   2.462   2.916  0.1230  1.5390  2.9836
  540SOL    HW2 2159   0.331   2.453   2.936 -0.0359  0.9519 -3.1557
  540SOL     MW 2160   0.408   2.490   2.907 -0.1648  0.2465  0.0875
  541SOL     OW 2161   0.194   2.911   2.192  0.4418  0.4216 -0.0716
  541SOL    HW1 2162   0.139   2.839   2.172 -1.1082 -0.9254  0.7948
  541SOL    HW2 2163   0.238   2.883   2.268  1.5278  0.1581  1.0035
  541SOL     MW 2164   0.193   2.898   2.199  0.3806  0.2091  0.1845
  542SOL     OW 2165   1.037   2.298   2.658  0.1314  0.0108  0.0930
  542SOL    HW1 2166   1.046   2.229   2.725  2.0633  0.4212 -1.3639
  542SOL    HW2 2167   1.075   2.378   2.694 -0.5513  3.0107  0.1679
  542SOL     MW 2168   1.043   2.299   2.672  0.2962  0.4607 -0.0893
  543SOL     OW 2169   1.600   2.441   2.886  0.7723 -0.1028  0.3465
  543SOL    HW1 2170   1.566   2.376   2.828 -0.2120 -1.6127  2.3839
  543SOL    HW2 2171   1.633   2.509   2.825 -0.4494  1.7578  1.6949
  543SOL     MW 2172   1.600   2.441   2.870  0.4812 -0.0565  0.7932
  544SOL     OW 2173   0.717   0.226   2.732 -0.2290  0.2184 -0.3593
  544SOL    HW1 2174   0.629   0.264   2.736 -0.8881  0.6120 -0.5361
  544SOL    HW2 2175   0.704   0.168   2.656  2.8377 -0.3055 -2.6812
  544SOL     MW 2176   0.704   0.223   2.723  0.0886  0.2012 -0.6890
  545SOL     OW 2177   1.554   2.177   2.356 -0.5041 -0.1700  0.2226
  545SOL    HW1 2178   1.591   2.251   2.304  2.2519 -1.4808 -0.4152
  545SOL    HW2 2179   1.610   2.105   2.316  0.3145  1.1209 -0.4703
  545SOL     MW 2180   1.566   2.177   2.344 -0.0325 -0.1726  0.0470
  546SOL     OW 2181   2.998   2.006   0.127 -0.7539 -0.1275 -0.3606
  546SOL    HW1 2182   2.988   2.089   0.073 -0.3727  1.7101  0.4582
  546SOL    HW2 2183   3.072   1.960   0.085 -1.4552 -0.1055 -0.4899
  546SOL     MW 2184   3.006   2.011   0.115 -0.7961  0.1179 -0.2696
  547SOL     OW 2185   0.240   0.034   0.052 -0.1069  0.6440  0.0987
  547SOL    HW1 2186   0.312   0.070  -0.009  1.0121  2.5601 -4.0587
  547SOL    HW2 2187   0.177  -0.003  -0.014 -3.5886 -1.9604  1.1321
  547SOL     MW 2188   0.241   0.034   0.035 -0.4187  0.5532 -0.3135
  548SOL     OW 2189   0.302   2.502   0.268  0.0469  0.4110  0.4594
  548SOL    HW1 2190   0.287   2.558   0.196  1.3899 -0.6738  2.2929
  548SOL    HW2 2191   0.232   2.443   0.242 -1.6829  0.4683 -0.0528
  548SOL     MW 2192   0.291   2.502   0.255 -0.0041  0.2754  0.6337
  549SOL     OW 2193   0.797   1.877   2.133  0.0384 -0.5529 -0.3938
  549SOL    HW1 2194   0.764   1.961   2.093 -1.6163  1.5145 -1.6317
  549SOL    HW2 2195   0.758   1.869   2.222  1.5953 -0.6521 -0.0257
  549SOL     MW 2196   0.788   1.887   2.140  0.0255 -0.2932 -0.5085
  550SOL     OW 2197   1.789   1.741   2.545 -0.0464 -0.4084 -0.1773
  550SOL    HW1 2198   1.770   1.771   2.454 -2.3160  0.5147  1.5213
  550SOL    HW2 2199   1.779   1.824   2.600  2.6904 -2.1112  1.0811
  550SOL     MW 2200   1.785   1.756   2.540  0.0152 -0.5112  0.2129
  551SOL     OW 2201   0.877   2.277   0.198  0.7134 -0.1499  0.6079
  551SOL    HW1 2202   0.971   2.266   0.195  0.1659 -1.3121 -1.4798
  551SOL    HW2 2203   0.858   2.199   0.143  2.0027  2.0627 -1.0595
  551SOL     MW 2204   0.887   2.265   0.190  0.8113 -0.0113  0.1125
  552SOL     OW 2205   1.761   1.726   2.272  0.2640  1.1332 -0.0924
  552SOL    HW1 2206   1.667   1.707   2.259 -0.5758 -0.5232 -3.4309
  552SOL    HW2 2207   1.806   1.679   2.192 -3.6735  0.4060  0.7715
  552SOL     MW 2208   1.754   1.718   2.260 -0.3663  0.8187 -0.4189
  553SOL     OW 2209   1.282   2.329   1.547  0.0872 -0.2560  0.7975
  553SOL    HW1 2210   1.331   2.250   1.534 -2.4637  1.1594  0.0209
  553SOL    HW2 2211   1.331   2.390   1.488  1.2282 -0.8633  1.0224
  553SOL     MW 2212   1.295   2.327   1.538 -0.0988 -0.1493  0.7247
  554SOL     OW 2213   0.530   2.929   2.635  0.3543  0.0490 -0.1630
  554SOL    HW1 2214   0.530   3.022   2.591 -1.0610  0.4955  1.0887
  554SOL    HW2 2215   0.595   2.883   2.580  0.3389  1.4689  2.3558
  554SOL     MW 2216   0.538   2.935   2.622  0.1655  0.2952  0.3345
  555SOL     OW 2217   0.626   2.467   2.469 -0.4199 -0.3118  0.2029
  555SOL    HW1 2218   0.586   2.378   2.492 -3.0278 -1.0543  0.0257
  555SOL    HW2 2219   0.712   2.439   2.442 -4.5543  0.4964 -0.1368
  555SOL     MW 2220   0.632   2.452   2.468 -1.3095 -0.3031  0.1347
  556SOL     OW 2221   0.973   1.859   0.083 -0.3482  0.0369 -0.1468
  556SOL    HW1 2222   1.004   1.850  -0.004 -2.9414 -2.4734 -1.6531
  556SOL    HW2 2223   1.045   1.898   0.132 -0.1104  2.2028  0.1385
  556SOL     MW 2224   0.987   1.863   0.078 -0.6590 -0.0085 -0.3079
  557SOL     OW 2225   0.961   2.644   0.500  0.6160  0.6084 -0.4971
  557SOL    HW1 2226   1.026   2.607   0.444 -1.7883 -1.0728  0.1669
  557SOL    HW2 2227   0.908   2.697   0.442  1.5091 -3.0141  2.2521
  557SOL     MW 2228   0.963   2.646   0.485  0.4166 -0.0914 -0.0467
  558SOL     OW 2229   0.210   2.332   2.999 -0.1528 -0.1127  0.2013
  558SOL    HW1 2230   0.133   2.293   2.956  0.9616 -0.2573 -2.0027
  558SOL    HW2 2231   0.172   2.368   3.078  4.2231  0.4968  1.1458
  558SOL     MW 2232   0.195   2.331   3.004  0.5716 -0.0514  0.0351
  559SOL     OW 2233   1.063   2.349   2.122  0.4524 -0.2836 -0.0102
  559SOL    HW1 2234   1.118   2.394   2.182  0.8624 -1.1098  1.1759
  559SOL    HW2 2235   1.044   2.267   2.168 -0.0503 -1.5135 -1.5631
  559SOL     MW 2236   1.068   2.344   2.136  0.4402 -0.5549 -0.0586
  560SOL     OW 2237   1.982   2.889   0.019 -0.0374  0.4003 -0.1771
  560SOL    HW1 2238   2.035   2.921  -0.054  0.0272 -0.0272  3.4523
  560SOL    HW2 2239   1.944   2.805  -0.017 -1.5445 -1.0086 -0.7887
  560SOL     MW 2240   1.984   2.882   0.004 -0.2278  0.1580  0.2211
  561SOL     OW 2241   0.371   2.141   0.045 -0.5082 -0.9388 -0.2119
  561SOL    HW1 2242   0.318   2.201  -0.006 -1.3741  0.9453  1.8069
  561SOL    HW2 2243   0.415   2.198   0.117 -0.1105 -1.8844  1.5141
  561SOL     MW 2244   0.370   2.157   0.048 -0.5700 -0.8150  0.2822
  562SOL     OW 2245   0.697   2.219   2.266 -0.1612  0.5858  0.4725
  562SOL    HW1 2246   0.701   2.308   2.237 -2.0525  1.0910  3.2526
  562SOL    HW2 2247   0.790   2.198   2.300 -0.4300  0.9152 -1.0982
  562SOL     MW 2248   0.710   2.228   2.267 -0.4462  0.6959  0.6321
  563SOL     OW 2249   1.248   0.321   0.564  0.4760  0.1492 -0.0016
  563SOL    HW1 2250   1.181   0.269   0.521  0.0271  0.3088  2.4385
  563SOL    HW2 2251   1.246   0.281   0.654 -1.1794  2.0965 -0.7430
  563SOL     MW 2252   1.239   0.309   0.570  0.1983  0.4272  0.2226
  564SOL     OW 2253   1.167   2.543   2.337 -0.0100  0.9676  0.6376
  564SOL    HW1 2254   1.172   2.594   2.256  1.0053 -1.2715  0.9763
  564SOL    HW2 2255   1.168   2.603   2.406  1.4088  3.5292  0.2362
  564SOL     MW 2256   1.168   2.558   2.335  0.3112  1.0102  0.6293
  565SOL     OW 2257   2.810   2.775   2.649 -0.3197 -0.0497  0.1037
  565SOL    HW1 2258   2.847   2.856   2.620 -2.0809  0.6105 -0.6296
  565SOL    HW2 2259   2.802   2.721   2.572 -0.5233 -2.3208 -1.0503
  565SOL     MW 2260   2.814   2.778   2.635 -0.5789 -0.2622 -0.1453
  566SOL     OW 2261   2.123   1.824   2.405 -0.0725 -0.1040  0.4255
  566SOL    HW1 2262   2.111   1.751   2.343 -0.2532 -1.5027  1.0798
  566SOL    HW2 2263   2.202   1.885   2.381  0.8051  0.8276  0.5820
  566SOL     MW 2264   2.132   1.822   2.394  0.0194 -0.1656  0.5325
  567SOL     OW 2265   1.154   2.945   3.038 -1.1296  0.2723  0.3554
  567SOL    HW1 2266   1.206   3.024   3.068 -2.3521  3.8141 -0.2576
  567SOL    HW2 2267   1.218   2.871   3.041  1.1771 -2.1459 -0.8268
  567SOL     MW 2268   1.169   2.946   3.043 -0.9866  0.4205  0.1186
  568SOL     OW 2269   1.622   2.076   2.878  0.1437 -0.2687 -0.4975
  568SOL    HW1 2270   1.654   2.127   2.955  2.3808  1.0553  0.1439
  568SOL    HW2 2271   1.696   2.045   2.831  1.1149  1.0560 -0.3473
  568SOL     MW 2272   1.636   2.078   2.882  0.5670  0.0808 -0.3931
  569SOL     OW 2273   0.165   2.277   2.464  0.1307  0.2355  0.6335
  569SOL    HW1 2274   0.090   2.313   2.410  1.5366  1.7561  0.1059
  569SOL    HW2 2275   0.188   2.350   2.517  0.1015 -0.4540 -0.3855
  569SOL     MW 2276   0.158   2.292   2.464  0.3123  0.3452  0.4294
  570SOL     OW 2277   1.508   0.360   0.504 -0.7537  0.2238 -0.2750
  570SOL    HW1 2278   1.412   0.365   0.531 -0.1483  0.4292  0.5677
  570SOL    HW2 2279   1.558   0.371   0.587  3.3861 -1.4567 -0.9807
  570SOL     MW 2280   1.502   0.362   0.518 -0.1276  0.0292 -0.2570
  571SOL     OW 2281   1.407   2.426   2.016 -0.8882 -0.1993  0.2581
  571SOL    HW1 2282   1.417   2.449   2.108 -1.3742 -0.4112  0.3288
  571SOL    HW2 2283   1.475   2.359   1.990  2.4742 -2.2711  0.7330
  571SOL     MW 2284   1.417   2.420   2.025 -0.5087 -0.5006  0.3301
  572SOL     OW 2285   1.052   2.585   0.114  0.5406  0.3322  0.1414
  572SOL    HW1 2286   1.052   2.679   0.100 -0.4196 -0.2226 -0.9324
  572SOL    HW2 2287   0.962   2.568   0.083 -2.8023  0.2063 -2.0646
  572SOL     MW 2288   1.040   2.595   0.108 -0.0271  0.2424 -0.2913
  573SOL     OW 2289   1.176   2.297   0.205  0.8158 -0.2018 -0.0441
  573SOL    HW1 2290   1.273   2.296   0.186  1.2952 -0.0870  0.0978
  573SOL    HW2 2291   1.157   2.372   0.264  0.6189  2.3036  0.0934
  573SOL     MW 2292   1.186   2.307   0.210  0.8531  0.1439 -0.0072
  574SOL     OW 2293   1.160   2.520   0.360  0.5503  0.5442  0.0003
  574SOL    HW1 2294   1.237   2.575   0.378 -0.8806  0.5919  0.4265
  574SOL    HW2 2295   1.132   2.539   0.268  3.4112  2.2656 -2.8491
  574SOL     MW 2296   1.167   2.530   0.350  0.7390  0.7776 -0.3194
  575SOL     OW 2297   3.068   2.195   1.804 -0.7983 -0.0694  0.3053
  575SOL    HW1 2298   3.103   2.122   1.749  1.8900 -0.5279  0.4106
  575SOL    HW2 2299   3.139   2.262   1.785 -0.7774 -1.2591 -0.9047
  575SOL     MW 2300   3.082   2.194   1.794 -0.4408 -0.2869  0.1596
  576SOL     OW 2301   2.807   1.809   2.063  0.0447  0.0270 -0.7532
  576SOL    HW1 2302   2.835   1.883   2.011  2.0026  0.5787  0.8832
  576SOL    HW2 2303   2.707   1.799   2.050  0.7057 -0.8902 -0.1355
  576SOL     MW 2304   2.798   1.817   2.055  0.3903 -0.0212 -0.4558
  577SOL     OW 2305   2.037   0.194   0.060  0.6285 -0.3027  0.0197
  577SOL    HW1 2306   1.963   0.195  -0.009 -0.3310 -0.0660 -1.0880
  577SOL    HW2 2307   1.996   0.179   0.148 -1.5823 -0.6054  1.5456
  577SOL     MW 2308   2.021   0.192   0.063  0.2102 -0.3114  0.0748
  578SOL     OW 2309   1.951   2.038   2.352 -0.7142 -0.1687 -0.1897
  578SOL    HW1 2310   1.860   2.011   2.324  0.4333  1.8860 -0.4366
  578SOL    HW2 2311   2.011   1.960   2.355  1.9809 -1.9144 -2.1921
  578SOL     MW 2312   1.947   2.024   2.349 -0.2072 -0.1279 -0.4865
  579SOL     OW 2313   0.917   2.419   2.435  0.8231  0.3817  0.0716
  579SOL    HW1 2314   0.950   2.365   2.501  3.6429  1.3771 -2.0275
  579SOL    HW2 2315   0.992   2.467   2.401  0.1942 -0.5101  1.7920
  579SOL     MW 2316   0.931   2.418   2.440  1.1121  0.3954  0.0216
  580SOL     OW 2317   0.913   2.846   0.024 -0.1821 -0.3884  0.2368
  580SOL    HW1 2318   0.995   2.895  -0.002 -0.0157  0.5361  0.0515
  580SOL    HW2 2319   0.880   2.807  -0.054  1.6980 -1.8869  1.3069
  580SOL     MW 2320   0.920   2.847   0.010  0.0879 -0.4642  0.3536
  581SOL     OW 2321   1.129   2.530   1.677  0.0533  0.7725  0.4049
  581SOL    HW1 2322   1.173   2.573   1.748 -1.5565 -1.2113 -2.4681
  581SOL    HW2 2323   1.198   2.473   1.628  0.5760 -4.0396 -2.2153
  581SOL     MW 2324   1.144   2.528   1.680 -0.0901 -0.1242 -0.3199
  582SOL     OW 2325   0.038   2.791   2.642 -0.1229 -0.1784  0.8471
  582SOL    HW1 2326   0.002   2.871   2.681  1.2841  2.3931  1.5917
  582SOL    HW2 2327   0.130   2.815   2.619  1.0461 -2.2872  0.5858
  582SOL     MW 2328   0.045   2.805   2.644  0.2170 -0.1174  0.9109
  583SOL     OW 2329   1.989   2.407   2.656 -0.0548  0.1130  0.2475
  583SOL    HW1 2330   2.060   2.419   2.595  1.1357 -0.1149  1.0290
  583SOL    HW2 2331   1.978   2.315   2.677  0.5251 -0.4569 -1.1940
  583SOL     MW 2332   1.997   2.396   2.650  0.1788  0.0077  0.1604
  584SOL     OW 2333   0.108   1.882   2.237  0.2385  0.5975 -0.6707
  584SOL    HW1 2334   0.175   1.811   2.237  1.8293 -0.6828  1.5778
  584SOL    HW2 2335   0.160   1.959   2.266  0.6107 -0.2712 -1.7910
  584SOL     MW 2336   0.124   1.883   2.241  0.4975  0.3140 -0.5219
  585SOL     OW 2337   1.572   2.586   0.240 -0.0424 -1.2618 -0.7317
  585SOL    HW1 2338   1.525   2.550   0.158 -2.7169 -1.7856 -1.6270
  585SOL    HW2 2339   1.497   2.611   0.302 -2.0033 -2.7774  0.5384
  585SOL     MW 2340   1.556   2.584   0.237 -0.6540 -1.5309 -0.6822
  586SOL     OW 2341   1.377   2.856   2.571  0.5334 -0.1594  0.3054
  586SOL    HW1 2342   1.440   2.817   2.508 -0.7390  1.4396 -0.0349
  586SOL    HW2 2343   1.374   2.955   2.552 -2.1720  2.4325 -0.9919
  586SOL     MW 2344   1.385   2.864   2.560  0.0086  0.3936  0.0894
  587SOL     OW 2345   1.351   1.543   2.155  0.4077 -0.7173  0.4762
  587SOL    HW1 2346   1.334   1.484   2.236  1.7419 -0.0675 -0.0913
  587SOL    HW2 2347   1.338   1.487   2.080 -0.1656 -1.6403  0.4602
  587SOL     MW 2348   1.347   1.527   2.156  0.5081 -0.7534  0.3992
  588SOL     OW 2349   1.336   2.045   2.673  0.6025  0.2789  0.2327
  588SOL    HW1 2350   1.349   1.946   2.661  0.1668  0.8162  1.8878
  588SOL    HW2 2351   1.334   2.057   2.768 -0.3322  3.0031 -2.0447
  588SOL     MW 2352   1.337   2.033   2.684  0.4217  0.7092  0.1506
  589SOL     OW 2353   1.384   2.017   0.123  0.2313  0.3158 -0.0927
  589SOL    HW1 2354   1.399   2.106   0.143  1.5175 -0.4267 -0.2447
  589SOL    HW2 2355   1.325   1.988   0.193  1.0742 -1.0990 -0.4979
  589SOL     MW 2356   1.378   2.025   0.135  0.5122  0.0311 -0.1662
  590SOL     OW 2357   0.495   2.783   2.215  0.4246  0.2222 -0.3866
  590SOL    HW1 2358   0.464   2.751   2.127  3.5724 -1.1626  0.5835
  590SOL    HW2 2359   0.591   2.780   2.195 -1.4231 -1.1700 -0.8124
  590SOL     MW 2360   0.504   2.778   2.201  0.5961 -0.1442 -0.3148
  591SOL     OW 2361   2.234   0.673   0.012  0.0784  0.5548  0.2026
  591SOL    HW1 2362   2.153   0.711  -0.035  0.6182 -1.3013  3.6414
  591SOL    HW2 2363   2.313   0.687  -0.047 -0.0996 -1.1667  2.0048
  591SOL     MW 2364   2.234   0.680  -0.002  0.1261  0.0828  0.8941
  592SOL     OW 2365   1.735   2.937   0.779 -0.2874 -0.3405 -0.0317
  592SOL    HW1 2366   1.761   3.016   0.727  1.9344  2.9202  0.9647
  592SOL    HW2 2367   1.819   2.901   0.800 -1.1159 -0.5800 -0.1664
  592SOL     MW 2368   1.749   2.943   0.775 -0.1036  0.0581  0.0820
  593SOL     OW 2369   1.967   0.622   0.868 -0.0417  0.1262 -0.2070
  593SOL    HW1 2370   1.891   0.619   0.809  0.2468 -0.3093 -0.0145
  593SOL    HW2 2371   2.016   0.538   0.865  0.7285 -0.0239 -3.1752
  593SOL     MW 2372   1.963   0.610   0.859  0.0980  0.0489 -0.5733
  594SOL     OW 2373   2.775   1.147   1.384 -0.1959  0.2858 -0.4791
  594SOL    HW1 2374   2.875   1.172   1.367  0.3637  1.6575 -1.3027
  594SOL    HW2 2375   2.750   1.098   1.303  1.4313  1.5012 -1.1243
  594SOL     MW 2376   2.785   1.144   1.371  0.0926  0.6271 -0.6729
  595SOL     OW 2377   0.479   0.986   0.815  0.1301 -0.1011 -0.0447
  595SOL    HW1 2378   0.502   1.013   0.719 -0.4043 -0.8322 -2.7641
  595SOL    HW2 2379   0.460   1.067   0.854  1.7657 -0.7570 -0.5826
  595SOL     MW 2380   0.480   1.000   0.807  0.2754 -0.2841 -0.4744
  596SOL     OW 2381   2.483   1.314   0.570 -0.2901  0.5377  0.0107
  596SOL    HW1 2382   2.545   1.380   0.539 -1.7658  0.4324  0.8985
  596SOL    HW2 2383   2.518   1.276   0.656  0.2796 -0.5767 -2.1777
  596SOL     MW 2384   2.496   1.317   0.577 -0.4096  0.3768 -0.1609
  597SOL     OW 2385   2.177   0.684   1.626  0.2102  0.1302  0.2457
  597SOL    HW1 2386   2.233   0.639   1.684 -0.2316  2.3253 -0.7217
  597SOL    HW2 2387   2.106   0.626   1.606 -2.9437  1.5919 -0.4638
  597SOL     MW 2388   2.175   0.671   1.631 -0.2642  0.6127  0.0244
  598SOL     OW 2389   2.552   1.032   2.776 -0.1143 -0.3587  0.6536
  598SOL    HW1 2390   2.535   0.983   2.699 -0.3911 -0.9574  1.4428
  598SOL    HW2 2391   2.645   1.041   2.782  0.6336  1.2968 -0.0293
  598SOL     MW 2392   2.562   1.027   2.767 -0.0521 -0.2192  0.6676
  599SOL     OW 2393   2.988   0.403   2.094 -0.4134  0.2674 -0.2895
  599SOL    HW1 2394   3.050   0.417   2.168  1.4128 -1.3884  0.1741
  599SOL    HW2 2395   2.970   0.492   2.056 -1.2446 -1.1647 -1.3657
  599SOL     MW 2396   2.994   0.417   2.099 -0.2821 -0.1400 -0.3703
  600SOL     OW 2397   1.838   1.627   0.903 -0.0714  0.2211  0.5881
  600SOL    HW1 2398   1.900   1.673   0.962  2.4388 -0.1495  0.1481
  600SOL    HW2 2399   1.777   1.695   0.864  0.3043  1.3445 -2.9629
  600SOL     MW 2400   1.838   1.642   0.905  0.3094  0.3204  0.0615
  601SOL     OW 2401   2.517   0.773   0.817  0.3892  0.3912  0.5952
  601SOL    HW1 2402   2.540   0.793   0.908  1.3049  0.4214 -0.6275
  601SOL    HW2 2403   2.436   0.730   0.815  2.1002  0.8122  0.2693
  601SOL     MW 2404   2.509   0.770   0.829  0.7358  0.4507  0.3909
  602SOL     OW 2405   2.271   1.967   0.760  0.2859 -0.1627 -0.4887
  602SOL    HW1 2406   2.217   1.889   0.736  2.3423 -1.8069 -3.1713
  602SOL    HW2 2407   2.233   2.043   0.715 -2.0772 -0.7768  2.3196
  602SOL     MW 2408   2.259   1.967   0.751  0.2454 -0.4606 -0.4721
  603SOL     OW 2409  -0.005   1.389   1.923 -0.3833  0.6668  1.0382
  603SOL    HW1 2410   0.069   1.447   1.949  1.7766  2.1090 -1.0368
  603SOL    HW2 2411   0.021   1.296   1.947 -0.9553 -2.4245 -1.5667
  603SOL     MW 2412   0.008   1.384   1.930 -0.1738  0.4492  0.4207
  604SOL     OW 2413   2.079   1.510   0.466 -0.1617 -1.0800  0.5623
  604SOL    HW1 2414   2.096   1.419   0.495  1.2378 -1.6971 -2.0708
  604SOL    HW2 2415   2.027   1.552   0.542  0.9502 -2.3393 -1.5572
  604SOL     MW 2416   2.074   1.504   0.480  0.1697 -1.3276 -0.0648
  605SOL     OW 2417   2.517   1.502   0.892  0.3618  0.1055 -0.0186
  605SOL    HW1 2418   2.510   1.545   0.811 -1.0300 -1.3563  0.5224
  605SOL    HW2 2419   2.502   1.407   0.871  1.0721 -0.2957 -1.5500
  605SOL     MW 2420   2.514   1.495   0.878  0.2719 -0.1403 -0.1493
  606SOL     OW 2421   2.544   1.731   2.036 -0.0625  0.6000 -0.0058
  606SOL    HW1 2422   2.460   1.758   2.002  1.0452  0.1787  1.8788
  606SOL    HW2 2423   2.578   1.665   1.974 -1.8570  1.8140  0.4083
  606SOL     MW 2424   2.537   1.726   2.023 -0.1531  0.7046  0.2975
  607SOL     OW 2425   2.404   1.038   3.019 -0.8275  0.1408 -0.0001
  607SOL    HW1 2426   2.461   1.049   2.943  1.4896 -0.5908  3.6333
  607SOL    HW2 2427   2.461   1.002   3.089  1.0960 -1.3891 -0.1974
  607SOL     MW 2428   2.419   1.035   3.018 -0.2680 -0.1576  0.4532
  608SOL     OW 2429   1.849   0.291   0.561  0.0624  0.0566 -0.1113
  608SOL    HW1 2430   1.817   0.361   0.497 -0.1932  0.2336  0.0516
  608SOL    HW2 2431   1.815   0.205   0.527  0.0454 -2.9745 -2.5421
  608SOL     MW 2432   1.840   0.289   0.548  0.0265 -0.3200 -0.4105
  609SOL     OW 2433   2.102   1.964   3.053  0.3075  0.2151  0.7837
  609SOL    HW1 2434   2.031   1.908   3.036  2.3393 -0.9439  2.7512
  609SOL    HW2 2435   2.116   1.948   3.151 -0.5804 -0.5560  1.6252
  609SOL     MW 2436   2.094   1.954   3.064  0.4584 -0.0395  1.1543
  610SOL     OW 2437   1.824   0.956   1.226  0.3797 -0.7375  0.1119
  610SOL    HW1 2438   1.842   0.892   1.161 -0.6675  0.1460  1.7183
  610SOL    HW2 2439   1.725   0.964   1.226  0.9789  0.7421 -2.1213
  610SOL     MW 2440   1.813   0.949   1.218  0.3206 -0.4257  0.0292
  611SOL     OW 2441   2.531   1.653   0.674 -0.4550 -0.4059  0.2646
  611SOL    HW1 2442   2.549   1.734   0.636 -1.0354 -1.0871  0.3814
  611SOL    HW2 2443   2.438   1.649   0.675  0.8301  0.2067  2.3081
  611SOL     MW 2444   2.521   1.663   0.669 -0.3620 -0.4150  0.5496
  612SOL     OW 2445   2.838   2.894   0.374 -0.5773  0.1963 -0.1925
  612SOL    HW1 2446   2.858   2.935   0.457 -2.0930 -1.3294  1.0295
  612SOL    HW2 2447   2.924   2.889   0.331  0.9205 -1.3446 -1.4871
  612SOL     MW 2448   2.852   2.899   0.379 -0.5797 -0.2083 -0.2021
  613SOL     OW 2449   1.444   1.056   0.925 -0.1390  0.1149  0.0109
  613SOL    HW1 2450   1.469   1.148   0.922  0.4138  0.6534  1.1308
  613SOL    HW2 2451   1.469   1.033   1.017 -0.3376  0.4461 -0.2225
  613SOL     MW 2452   1.450   1.065   0.936 -0.0922  0.2297  0.1279
  614SOL     OW 2453   1.977   0.534   1.502 -0.0008 -0.3513  0.2584
  614SOL    HW1 2454   1.978   0.450   1.557 -0.3747  0.3250 -1.6653
  614SOL    HW2 2455   1.918   0.501   1.431 -1.5893 -0.9366 -0.1020
  614SOL     MW 2456   1.970   0.518   1.500 -0.2598 -0.3393 -0.0430
  615SOL     OW 2457   2.316   0.765   0.283  0.5914 -0.3832  0.1605
  615SOL    HW1 2458   2.381   0.694   0.286 -0.0960  0.2267  2.1693
  615SOL    HW2 2459   2.254   0.741   0.209 -1.5688 -0.0530 -1.9338
  615SOL     MW 2460   2.316   0.752   0.273  0.2157 -0.2592  0.1492
  616SOL     OW 2461   2.516   0.438   1.676  0.1398  0.2857 -0.1846
  616SOL    HW1 2462   2.597   0.405   1.629  0.8101  0.7770 -0.4788
  616SOL    HW2 2463   2.476   0.500   1.614 -0.5929 -0.0517  1.5275
  616SOL     MW 2464   2.522   0.442   1.662  0.1316  0.3060  0.0025
  617SOL     OW 2465   2.817   0.586   1.672  0.7764  0.0554  0.0711
  617SOL    HW1 2466   2.744   0.596   1.727  2.6548  1.6739 -0.6101
  617SOL    HW2 2467   2.842   0.496   1.670 -0.0557  2.1302  1.5716
  617SOL     MW 2468   2.810   0.576   1.679  0.9144  0.5427  0.1792
  618SOL     OW 2469   2.698   0.370   1.969  0.2421  0.3704  0.6698
  618SOL    HW1 2470   2.643   0.440   1.934  2.0569 -0.1500 -1.2821
  618SOL    HW2 2471   2.782   0.402   1.996 -1.1305  1.9385 -0.0147
  618SOL     MW 2472   2.702   0.383   1.968  0.3004  0.5086  0.3220
  619SOL     OW 2473   2.698   0.722   0.049  0.5706 -0.2282  0.0354
  619SOL    HW1 2474   2.744   0.794   0.091 -1.3266 -1.1990 -0.0437
  619SOL    HW2 2475   2.638   0.695   0.117 -1.6673 -1.9995 -0.1870
  619SOL     MW 2476   2.696   0.728   0.064  0.0250 -0.5900 -0.0044
  620SOL     OW 2477   2.243   1.059   0.913  0.3386  0.2954 -0.2501
  620SOL    HW1 2478   2.285   1.046   0.832  0.6656  0.9996  2.2785
  620SOL    HW2 2479   2.170   1.001   0.888  3.0685 -1.4937 -1.8552
  620SOL     MW 2480   2.239   1.050   0.899  0.7419  0.1523 -0.1282
  621SOL     OW 2481   1.573   2.224   1.929 -0.2732  0.5262 -0.1066
  621SOL    HW1 2482   1.524   2.169   1.995 -2.6203 -0.0017  0.3733
  621SOL    HW2 2483   1.667   2.222   1.954  0.4638 -0.2370  3.9629
  621SOL     MW 2484   1.579   2.216   1.941 -0.4857  0.3559  0.4937
  622SOL     OW 2485   2.651   0.210   0.251 -0.0465  0.1401  0.2262
  622SOL    HW1 2486   2.739   0.248   0.231  1.4128  1.9281 -2.4705
  622SOL    HW2 2487   2.670   0.119   0.279  2.1423  0.7851 -0.2350
  622SOL     MW 2488   2.665   0.203   0.252  0.4348  0.4611 -0.1904
  623SOL     OW 2489   2.453   2.748   0.867 -0.6225 -0.2218  0.4687
  623SOL    HW1 2490   2.515   2.818   0.881 -1.8966 -2.9701 -0.5484
  623SOL    HW2 2491   2.402   2.765   0.946  0.8673 -1.8872  0.7246
  623SOL     MW 2492   2.454   2.759   0.879 -0.5940 -0.8041  0.3682
  624SOL     OW 2493   2.110   1.629   3.031  0.2425  0.1243 -0.0672
  624SOL    HW1 2494   2.080   1.539   3.027 -0.7353 -3.7481  0.6675
  624SOL    HW2 2495   2.043   1.690   2.996  1.7694 -3.7890  0.7388
  624SOL     MW 2496   2.097   1.625   3.026  0.3150 -0.9030  0.1361
  625SOL     OW 2497   2.224   1.914   1.080 -0.2362  0.0913  0.2394
  625SOL    HW1 2498   2.289   1.879   1.139  1.4091  2.8616  0.7566
  625SOL    HW2 2499   2.269   1.947   1.000 -0.6355  0.4755  0.5318
  625SOL     MW 2500   2.238   1.914   1.077 -0.0718  0.5075  0.3462
  626SOL     OW 2501   0.243   1.767   2.448 -0.4905  0.0236  0.2910
  626SOL    HW1 2502   0.191   1.711   2.508 -0.8847 -1.7701 -1.1187
  626SOL    HW2 2503   0.187   1.840   2.421  0.2959 -1.3025  3.3680
  626SOL     MW 2504   0.228   1.769   2.452 -0.4387 -0.3880  0.5110
  627SOL     OW 2505   2.530   0.744   2.562  0.1859  0.5653 -0.3511
  627SOL    HW1 2506   2.482   0.818   2.595  0.9475 -0.5123  1.5401
  627SOL    HW2 2507   2.491   0.725   2.475 -0.3018  2.4371  1.1017
  627SOL     MW 2508   2.519   0.751   2.555  0.2221  0.6701  0.0901
  628SOL     OW 2509   2.248   1.377   1.296 -0.8647 -0.3499  0.7371
  628SOL    HW1 2510   2.233   1.296   1.247  0.3502  0.3718 -0.8090
  628SOL    HW2 2511   2.345   1.396   1.275  1.6974  2.2886 -2.5483
  628SOL     MW 2512   2.259   1.369   1.286 -0.3663  0.0934  0.0997
  629SOL     OW 2513   1.864   0.502   1.245  0.0136 -0.7294  0.2149
  629SOL    HW1 2514   1.873   0.590   1.207 -0.0335  0.5527 -2.6999
  629SOL    HW2 2515   1.767   0.496   1.226 -0.3035  1.3359  2.0339
  629SOL     MW 2516   1.852   0.513   1.238 -0.0345 -0.2877  0.0703
  630SOL     OW 2517   2.391   1.883   3.024 -0.0703 -0.0759 -0.3067
  630SOL    HW1 2518   2.384   1.959   2.965  3.1409 -1.9178 -0.6016
  630SOL    HW2 2519   2.302   1.856   3.032  2.2535 -1.6407  1.4363
  630SOL     MW 2520   2.379   1.889   3.018  0.6600 -0.5254 -0.1157
  631SOL     OW 2521   2.020   1.689   1.560 -0.7071 -0.0874  0.0035
  631SOL    HW1 2522   2.040   1.620   1.617  0.1833 -1.9793 -1.3254
  631SOL    HW2 2523   1.944   1.657   1.507 -3.8667 -0.1530 -2.1557
  631SOL     MW 2524   2.012   1.676   1.560 -1.0065 -0.3457 -0.4567
  632SOL     OW 2525   0.245   1.953   1.442  0.5214 -0.3450  0.0948
  632SOL    HW1 2526   0.181   1.963   1.520 -0.4010  0.7148 -1.4874
  632SOL    HW2 2527   0.257   1.859   1.422  1.4995  2.4533  0.8063
  632SOL     MW 2528   0.238   1.942   1.449  0.5288  0.1641 -0.0201
  633SOL     OW 2529   2.506   0.568   0.273  0.2303 -0.7038  0.1913
  633SOL    HW1 2530   2.568   0.588   0.346 -0.0893  0.6039  1.4077
  633SOL    HW2 2531   2.544   0.488   0.230 -0.7504 -3.8552  0.0671
  633SOL     MW 2532   2.519   0.560   0.277  0.0587 -0.9471  0.3354
  634SOL     OW 2533   2.684   3.090   0.661  0.3400 -0.3645 -0.1834
  634SOL    HW1 2534   2.727   3.173   0.677  1.5116  1.9957 -1.3866
  634SOL    HW2 2535   2.659   3.088   0.570  0.4219 -0.1789  0.5578
  634SOL     MW 2536   2.686   3.101   0.651  0.5054 -0.0286 -0.2443
  635SOL     OW 2537   2.582   0.157   1.831 -0.0444 -0.2790 -0.6051
  635SOL    HW1 2538   2.657   0.121   1.783  0.5430  0.8479 -2.0469
  635SOL    HW2 2539   2.611   0.248   1.859  0.4771  3.1610  1.9122
  635SOL     MW 2540   2.596   0.164   1.828  0.1019  0.3235 -0.4632
  636SOL     OW 2541   2.797   1.583   0.864 -0.5900 -0.0513 -0.1727
  636SOL    HW1 2542   2.704   1.565   0.884  0.1148 -0.4786  2.2154
  636SOL    HW2 2543   2.802   1.679   0.884 -0.5888  0.7225  1.2288
  636SOL     MW 2544   2.785   1.593   0.869 -0.4968 -0.0056  0.3273
  637SOL     OW 2545   2.888   1.505   0.600  0.1282  0.2647  0.0852
  637SOL    HW1 2546   2.960   1.563   0.584 -0.2548  0.3256 -1.8222
  637SOL    HW2 2547   2.844   1.531   0.683  2.4647  1.3052 -0.0096
  637SOL     MW 2548   2.892   1.516   0.609  0.3860  0.4100 -0.1790
  638SOL     OW 2549   2.701   0.514   0.506  0.4521  0.2714  0.0583
  638SOL    HW1 2550   2.796   0.526   0.485  1.2853 -0.3497  1.8992
  638SOL    HW2 2551   2.701   0.514   0.599  1.0383  1.0578 -0.6466
  638SOL     MW 2552   2.713   0.516   0.515  0.6394  0.2932  0.2082
  639SOL     OW 2553   1.726   0.040   0.531 -0.1709 -0.2797 -0.5457
  639SOL    HW1 2554   1.634   0.039   0.508  2.0798  2.5090  0.9050
  639SOL    HW2 2555   1.772  -0.029   0.486  0.7383 -0.3369 -1.6070
  639SOL     MW 2556   1.720   0.031   0.522  0.2460  0.0807 -0.4943
  640SOL     OW 2557   0.298   1.351   0.100  0.4263 -0.0173  0.0580
  640SOL    HW1 2558   0.306   1.362   0.003  0.4689 -0.5045  0.1272
  640SOL    HW2 2559   0.314   1.257   0.121 -0.2334 -1.6262 -3.2806
  640SOL     MW 2560   0.302   1.340   0.090  0.3449 -0.2939 -0.3734
  641SOL     OW 2561   2.229   0.454   0.421 -0.3011  0.2538  0.0035
  641SOL    HW1 2562   2.235   0.435   0.327  0.2589 -1.6369 -2.7749
  641SOL    HW2 2563   2.288   0.396   0.472 -0.4224 -1.5021  2.1441
  641SOL     MW 2564   2.237   0.444   0.415 -0.2432 -0.2273 -0.0807
  642SOL     OW 2565   0.069   0.012   0.482  0.4545 -0.3731 -0.1893
  642SOL    HW1 2566  -0.013   0.067   0.472 -1.2748  0.8863 -0.3925
  642SOL    HW2 2567   0.043  -0.074   0.499  1.0536  0.0670  2.5267
  642SOL     MW 2568   0.055   0.008   0.483  0.3054 -0.1489  0.1422
  643SOL     OW 2569   1.996   0.337   1.736 -0.1683 -0.0720  0.1359
  643SOL    HW1 2570   1.910   0.303   1.770  1.9080  0.2179 -0.3440
  643SOL    HW2 2571   2.048   0.263   1.702  0.1575 -0.4302  0.8664
  643SOL     MW 2572   1.992   0.323   1.736  0.1487 -0.0810  0.1690
  644SOL     OW 2573   2.667   1.858   1.014  0.4571 -0.3697 -0.3029
  644SOL    HW1 2574   2.650   1.813   1.097 -4.3296 -2.2596 -0.3248
  644SOL    HW2 2575   2.587   1.901   0.984  1.9774  0.4697  1.5865
  644SOL     MW 2576   2.654   1.858   1.021  0.0262 -0.5083 -0.0565
  645SOL     OW 2577   2.814   0.818   0.708  0.2487  0.0835  0.5988
  645SOL    HW1 2578   2.862   0.740   0.730 -0.0754 -1.9638  2.6225
  645SOL    HW2 2579   2.725   0.803   0.747 -0.5197 -1.1728 -1.4774
  645SOL     MW 2580   2.809   0.806   0.716  0.1046 -0.3524  0.5919
  646SOL     OW 2581   0.085   2.279   0.868 -0.0552  0.2888 -0.0004
  646SOL    HW1 2582   0.140   2.202   0.850  1.9935  0.4876  1.2119
  646SOL    HW2 2583   0.036   2.288   0.788 -1.3566 -3.2742  3.7761
  646SOL     MW 2584   0.086   2.270   0.855  0.0434 -0.1551  0.6578
  647SOL     OW 2585   2.717   0.481   2.983  0.0254 -0.0514  0.4246
  647SOL    HW1 2586   2.666   0.409   3.019  1.0525  0.7070 -1.0346
  647SOL    HW2 2587   2.708   0.558   3.039  1.8090 -0.8827  0.7345
  647SOL     MW 2588   2.709   0.482   2.995  0.3963 -0.0610  0.2729
  648SOL     OW 2589   2.223   0.734   1.087  0.4568  0.1258 -0.1306
  648SOL    HW1 2590   2.245   0.651   1.119  0.1887  0.3282  0.0992
  648SOL    HW2 2591   2.191   0.779   1.170  1.0162 -0.6347 -0.7722
  648SOL     MW 2592   2.221   0.729   1.102  0.4952  0.0522 -0.1849
  649SOL     OW 2593   2.414   2.698   1.338  0.2038 -0.1368 -0.0746
  649SOL    HW1 2594   2.505   2.722   1.355 -2.0213  3.1848 -1.6467
  649SOL    HW2 2595   2.412   2.616   1.281  1.0280  2.9623 -2.0568
  649SOL     MW 2596   2.426   2.690   1.332  0.0190  0.7103 -0.5436
  650SOL     OW 2597   2.803   0.245   0.701 -0.6806 -0.2071 -0.4589
  650SOL    HW1 2598   2.859   0.304   0.748 -1.0773 -1.8646  1.6565
  650SOL    HW2 2599   2.840   0.237   0.617  1.7725  0.0224  1.6657
  650SOL     MW 2600   2.815   0.252   0.696 -0.4093 -0.3955  0.1006
  651SOL     OW 2601   0.022   0.437   1.036 -0.4724  0.0098  0.6608
  651SOL    HW1 2602   0.090   0.458   0.969  0.8417 -1.2172 -0.6405
  651SOL    HW2 2603  -0.051   0.499   1.022  1.1228  0.5287 -0.4858
  651SOL     MW 2604   0.021   0.448   1.025 -0.0885 -0.0837  0.3378
  652SOL     OW 2605   2.397   1.485   3.029 -0.3827 -0.4244 -0.4786
  652SOL    HW1 2606   2.466   1.513   2.961 -1.0710  1.1664 -0.9054
  652SOL    HW2 2607   2.317   1.530   3.020  1.2829 -2.0628  1.8649
  652SOL     MW 2608   2.396   1.494   3.019 -0.2538 -0.4307 -0.2257
  653SOL     OW 2609   1.833   0.468   0.335  0.1294 -0.2459 -0.0430
  653SOL    HW1 2610   1.767   0.402   0.325  3.1971  0.3470  1.8929
  653SOL    HW2 2611   1.885   0.466   0.255  1.0859  2.4458  0.4612
  653SOL     MW 2612   1.831   0.459   0.323  0.6603  0.1875  0.2790
  654SOL     OW 2613   2.419   1.008   0.707 -0.2259 -0.5194  0.2605
  654SOL    HW1 2614   2.354   0.987   0.639  0.1286 -0.4689  2.5938
  654SOL    HW2 2615   2.461   0.924   0.735 -1.3932  3.9463  0.1731
  654SOL     MW 2616   2.416   0.994   0.701 -0.3331  0.0764  0.5568
  655SOL     OW 2617   2.900   0.840   0.378 -0.2731  0.6982 -0.2909
  655SOL    HW1 2618   2.834   0.853   0.447  0.9369 -0.7802 -0.7625
  655SOL    HW2 2619   2.935   0.752   0.404 -1.6195  1.3158 -0.8279
  655SOL     MW 2620   2.896   0.830   0.390 -0.2911  0.5847 -0.4240
  656SOL     OW 2621   1.779   2.644   1.341  0.4085  0.4092 -0.1998
  656SOL    HW1 2622   1.809   2.725   1.384 -0.2399 -1.2364 -1.2486
  656SOL    HW2 2623   1.847   2.574   1.341 -0.6788 -1.8580  1.0493
  656SOL     MW 2624   1.792   2.646   1.347  0.1795 -0.1071 -0.1734
  657SOL     OW 2625   0.142   1.786   1.153 -0.1965 -0.2458 -0.6080
  657SOL    HW1 2626   0.216   1.836   1.119  1.1769  3.3789  2.8465
  657SOL    HW2 2627   0.169   1.694   1.171 -0.5826  1.0410  0.1781
  657SOL     MW 2628   0.155   1.781   1.151 -0.0663  0.4022 -0.0485
  658SOL     OW 2629   2.634   1.302   0.236 -0.4133  0.3592 -0.0202
  658SOL    HW1 2630   2.634   1.221   0.294  2.9938 -3.1775  1.1558
  658SOL    HW2 2631   2.663   1.378   0.288  1.0198  1.0152 -0.7028
  658SOL     MW 2632   2.638   1.301   0.251  0.2253 -0.0209  0.0449
  659SOL     OW 2633   2.214   1.537   0.961 -0.7414  0.2476  0.7215
  659SOL    HW1 2634   2.293   1.497   0.993  1.6086  0.3961 -2.9581
  659SOL    HW2 2635   2.195   1.595   1.031  2.4195  2.3734 -4.6078
  659SOL     MW 2636   2.222   1.539   0.974 -0.0143  0.5477 -0.4672
  660SOL     OW 2637   2.090   1.477   1.726  0.1979 -0.4149  0.3421
  660SOL    HW1 2638   2.097   1.489   1.821  0.8817  0.4605 -0.8149
  660SOL    HW2 2639   2.010   1.425   1.709 -0.3859 -1.1885 -2.2238
  660SOL     MW 2640   2.081   1.472   1.737  0.2111 -0.4015 -0.1491
  661SOL     OW 2641   2.494   0.942   0.206 -0.3738 -0.0493 -0.2906
  661SOL    HW1 2642   2.514   0.978   0.292  1.4600  3.3571  0.3164
  661SOL    HW2 2643   2.442   0.865   0.233  3.1576  0.0628 -2.7041
  661SOL     MW 2644   2.490   0.936   0.221  0.3341  0.4149 -0.5289
  662SOL     OW 2645   2.592   2.985   0.890  0.0620 -0.0470 -0.1484
  662SOL    HW1 2646   2.528   3.049   0.923 -1.4702 -0.2934  2.6964
  662SOL    HW2 2647   2.627   3.015   0.804  1.4690 -0.7388 -0.2889
  662SOL     MW 2648   2.588   2.998   0.883  0.0455 -0.1708  0.2084
  663SOL     OW 2649   2.644   1.494   0.449 -0.1156  0.0901  0.0846
  663SOL    HW1 2650   2.607   1.582   0.468 -2.0346 -2.0545 -0.0516
  663SOL    HW2 2651   2.730   1.501   0.484  0.8686 -2.7266  0.1439
  663SOL     MW 2652   2.650   1.506   0.456 -0.2389 -0.5645  0.0744
  664SOL     OW 2653   2.580   1.548   1.609  0.3785 -0.0971 -0.0949
  664SOL    HW1 2654   2.543   1.627   1.563  0.3447  1.0930 -1.3737
  664SOL    HW2 2655   2.503   1.490   1.626  3.4629  1.4615  1.4699
  664SOL     MW 2656   2.565   1.551   1.605  0.7810  0.2655 -0.0572
  665SOL     OW 2657   2.782   0.788   2.080  0.0369 -0.5305  0.9483
  665SOL    HW1 2658   2.739   0.851   2.021 -0.3228 -0.5014 -0.0723
  665SOL    HW2 2659   2.842   0.750   2.018 -3.0059 -2.3337 -0.1223
  665SOL     MW 2660   2.784   0.791   2.064 -0.4120 -0.7646  0.6724
  666SOL     OW 2661   2.763   3.053   1.723 -0.3509 -0.2983  0.3573
  666SOL    HW1 2662   2.767   3.064   1.625  0.6846 -0.3593  0.0344
  666SOL    HW2 2663   2.706   2.975   1.744 -1.1207  0.6491  3.6337
  666SOL     MW 2664   2.756   3.044   1.713 -0.3158 -0.1814  0.7470
  667SOL     OW 2665   1.980   2.697   1.727 -0.0185 -0.0286 -0.7749
  667SOL    HW1 2666   2.005   2.662   1.813  0.3953  1.4091 -0.1697
  667SOL    HW2 2667   2.043   2.763   1.709  0.5012  0.0402 -1.6196
  667SOL     MW 2668   1.992   2.701   1.736  0.1047  0.1702 -0.8065
  668SOL     OW 2669   2.682   0.525   0.812  0.2667 -0.6907  0.1137
  668SOL    HW1 2670   2.736   0.557   0.886 -0.2577  1.5172  2.6145
  668SOL    HW2 2671   2.626   0.603   0.785 -1.7743  1.3120 -0.6183
  668SOL     MW 2672   2.682   0.539   0.818 -0.0718 -0.1352  0.3471
  669SOL     OW 2673   0.123   0.883   0.743 -0.3610  0.7610  0.3885
  669SOL    HW1 2674   0.082   0.962   0.781 -1.6410  0.7179 -1.7293
  669SOL    HW2 2675   0.172   0.860   0.822 -0.6692 -0.3621 -0.2271
  669SOL     MW 2676   0.124   0.890   0.759 -0.5705  0.6071  0.0278
  670SOL     OW 2677   2.919   0.341   0.209 -0.0532  0.3152  0.2127
  670SOL    HW1 2678   2.962   0.289   0.135  0.1154 -1.8580  1.2457
  670SOL    HW2 2679   2.914   0.433   0.170  0.7238 -1.5426 -1.2008
  670SOL     MW 2680   2.924   0.346   0.194  0.0716 -0.2167  0.1625
  671SOL     OW 2681   1.996   3.054   1.587  0.0486 -0.2565 -0.1543
  671SOL    HW1 2682   1.952   2.997   1.522 -1.7014 -1.6949  1.2664
  671SOL    HW2 2683   1.927   3.067   1.654 -0.0904  1.8483 -1.1587
  671SOL     MW 2684   1.981   3.048   1.587 -0.2006 -0.1686 -0.0994
  672SOL     OW 2685   1.872   1.682   1.300 -0.4599 -0.1408 -0.1101
  672SOL    HW1 2686   1.847   1.750   1.362 -0.9299  0.6393 -0.7824
  672SOL    HW2 2687   1.921   1.719   1.223 -2.3414  1.5197 -3.7531
  672SOL     MW 2688   1.875   1.696   1.298 -0.7702  0.1812 -0.6794
  673SOL     OW 2689   2.784   1.107   0.626 -0.6603 -0.1170 -0.0315
  673SOL    HW1 2690   2.809   1.022   0.654 -0.9518 -1.0851  1.3674
  673SOL    HW2 2691   2.869   1.157   0.628  1.8999 -2.1392  0.7940
  673SOL     MW 2692   2.799   1.102   0.630 -0.3610 -0.5115  0.2620
  674SOL     OW 2693   2.450   0.008   1.254  0.0964 -0.0579  0.4187
  674SOL    HW1 2694   2.376   0.028   1.197  2.5448 -0.9882  3.5095
  674SOL    HW2 2695   2.476  -0.086   1.254  0.4117  0.1288 -1.5316
  674SOL     MW 2696   2.443  -0.002   1.247  0.4610 -0.1560  0.5691
  675SOL     OW 2697   3.003   0.888   1.095 -0.7361  0.2954 -0.2445
  675SOL    HW1 2698   3.067   0.897   1.165 -0.9614  2.8322 -2.7475
  675SOL    HW2 2699   3.038   0.936   1.022 -0.4095 -0.3020 -4.2313
  675SOL     MW 2700   3.016   0.896   1.094 -0.7227  0.5513 -1.1008
  676SOL     OW 2701   2.977   1.456   1.698  0.0265 -0.2847  0.6089
  676SOL    HW1 2702   2.935   1.375   1.681  1.5334 -2.2250 -0.4589
  676SOL    HW2 2703   3.039   1.444   1.767  0.2749 -1.4307 -4.4760
  676SOL     MW 2704   2.980   1.444   1.705  0.2581 -0.6919 -0.2029
  677SOL     OW 2705   2.357   0.595   2.014 -0.1729  0.1009  0.7842
  677SOL    HW1 2706   2.316   0.565   1.937  2.5771  1.3562 -1.2265
  677SOL    HW2 2707   2.319   0.684   2.039 -3.2213 -1.7825  1.5494
  677SOL     MW 2708   2.347   0.602   2.007 -0.2123  0.0180  0.6199
  678SOL     OW 2709   2.483   1.700   0.348 -0.1822 -0.7012  0.4195
  678SOL    HW1 2710   2.399   1.718   0.387  0.9977  0.1809  1.0532
  678SOL    HW2 2711   2.471   1.622   0.301  1.6606  1.4853 -0.6696
  678SOL     MW 2712   2.471   1.692   0.347  0.2166 -0.2964  0.3594
  679SOL     OW 2713   2.195   0.471   1.339 -0.6018 -0.3302 -0.2341
  679SOL    HW1 2714   2.198   0.381   1.305 -0.3333 -0.2851 -0.2317
  679SOL    HW2 2715   2.130   0.460   1.411  0.9267 -1.5720 -0.0397
  679SOL     MW 2716   2.187   0.458   1.344 -0.3647 -0.4881 -0.2081
  680SOL     OW 2717   2.376   0.180   1.474 -0.4332  0.1631  0.7432
  680SOL    HW1 2718   2.286   0.187   1.460  1.2364 -2.2950  3.1684
  680SOL    HW2 2719   2.398   0.116   1.404  2.0224 -1.6441 -2.7722
  680SOL     MW 2720   2.367   0.173   1.463  0.1110 -0.3996  0.5993
  681SOL     OW 2721   0.286   0.611   1.577 -0.2307  0.5169 -0.1073
  681SOL    HW1 2722   0.280   0.557   1.661  2.2440 -0.4828  3.3398
  681SOL    HW2 2723   0.321   0.552   1.513 -0.5611  0.4270  0.1665
  681SOL     MW 2724   0.290   0.596   1.580  0.0522  0.3732  0.3837
  682SOL     OW 2725   0.153   2.802   1.534 -0.0084 -0.1085 -0.8167
  682SOL    HW1 2726   0.220   2.872   1.557 -0.5866  1.0463 -2.0969
  682SOL    HW2 2727   0.066   2.841   1.548 -1.4883  0.5993  3.3136
  682SOL     MW 2728   0.150   2.816   1.539 -0.2800  0.1372 -0.4407
  683SOL     OW 2729   2.068   0.817   2.965 -0.3102  0.1727 -0.0399
  683SOL    HW1 2730   1.975   0.782   2.961 -0.2379 -0.2912  0.2130
  683SOL    HW2 2731   2.063   0.906   3.016 -0.3302  0.9930  0.4890
  683SOL     MW 2732   2.055   0.824   2.971 -0.3033  0.2197  0.0632
  684SOL     OW 2733   2.238   1.664   0.695  0.0982 -0.0078 -0.0567
  684SOL    HW1 2734   2.225   1.623   0.605 -1.5758 -0.7437  0.1082
  684SOL    HW2 2735   2.240   1.591   0.755  0.0564  0.3684 -2.5821
  684SOL     MW 2736   2.237   1.649   0.691 -0.1282 -0.0553 -0.3681
  685SOL     OW 2737   2.690   1.700   1.276  0.4230 -0.1594 -0.1746
  685SOL    HW1 2738   2.755   1.676   1.341 -0.1091 -0.0897  0.0310
  685SOL    HW2 2739   2.669   1.609   1.240  1.3949 -1.1447 -1.9960
  685SOL     MW 2740   2.695   1.685   1.280  0.4810 -0.2802 -0.3878
  686SOL     OW 2741   2.879   0.724   1.441 -0.2376 -0.4645 -0.5440
  686SOL    HW1 2742   2.865   0.680   1.530 -3.2887  0.6863  2.0679
  686SOL    HW2 2743   2.969   0.756   1.442 -3.4940 -0.2128 -0.6569
  686SOL     MW 2744   2.889   0.723   1.453 -1.0698 -0.2794 -0.2143
  687SOL     OW 2745   2.147   0.212   1.206 -0.0671  0.1444 -0.2057
  687SOL    HW1 2746   2.190   0.143   1.159 -1.3614 -1.4831  1.9133
  687SOL    HW2 2747   2.079   0.243   1.143  1.8142 -0.8207  1.2865
  687SOL     MW 2748   2.144   0.207   1.191  0.0103 -0.1977  0.2707
  688SOL     OW 2749   2.401   0.579   1.463 -0.2017  0.5678  0.3199
  688SOL    HW1 2750   2.343   0.528   1.401  0.0350  2.1922 -1.9297
  688SOL    HW2 2751   2.325   0.625   1.501 -0.4562 -2.4849 -0.7168
  688SOL     MW 2752   2.384   0.578   1.460 -0.2040  0.3794 -0.1137
  689SOL     OW 2753   2.437   0.709   2.901 -0.2000  0.0631 -0.3750
  689SOL    HW1 2754   2.439   0.798   2.864 -1.2975  1.4420 -0.0350
  689SOL    HW2 2755   2.501   0.704   2.964 -1.5726 -0.6841 -2.0925
  689SOL     MW 2756   2.445   0.720   2.904 -0.5259  0.1465 -0.5567
  690SOL     OW 2757   1.995   0.861   1.894  0.1366  0.0232 -0.3453
  690SOL    HW1 2758   1.971   0.767   1.914  0.6679 -0.2410 -0.5469
  690SOL    HW2 2759   2.004   0.862   1.801  2.1984  3.7570 -0.6535
  690SOL     MW 2760   1.993   0.849   1.884  0.4787  0.4810 -0.4125
  691SOL     OW 2761   2.375   0.234   0.842  0.2535  0.6146 -0.1952
  691SOL    HW1 2762   2.452   0.258   0.892 -1.1792 -1.1158 -0.6615
  691SOL    HW2 2763   2.301   0.269   0.889 -0.8628  1.0152 -1.1460
  691SOL     MW 2764   2.375   0.242   0.855 -0.0828  0.4391 -0.3822
  692SOL     OW 2765   2.862   1.645   1.460  0.0295  0.0375  0.3638
  692SOL    HW1 2766   2.875   1.580   1.533 -0.2479 -2.8275  2.2800
  692SOL    HW2 2767   2.903   1.727   1.485  1.6685 -1.5324  1.5508
  692SOL     MW 2768   2.869   1.647   1.473  0.2091 -0.5477  0.7732
  693SOL     OW 2769   2.261   0.408   0.091  0.5520  0.0899 -0.7716
  693SOL    HW1 2770   2.186   0.363   0.049  0.4608 -1.4608  0.9912
  693SOL    HW2 2771   2.242   0.498   0.069 -1.7327 -2.7502  1.4320
  693SOL     MW 2772   2.249   0.414   0.083  0.2385 -0.4894 -0.2482
  694SOL     OW 2773   1.900   1.197   1.143  0.4738 -0.4740 -1.1642
  694SOL    HW1 2774   1.998   1.197   1.138  1.3125  0.0733 -3.8199
  694SOL    HW2 2775   1.873   1.110   1.184 -2.8775  0.1996  1.8208
  694SOL     MW 2776   1.909   1.185   1.148  0.1423 -0.3129 -1.1207
  695SOL     OW 2777   3.029   1.460   1.306 -0.0074 -0.8062  0.6667
  695SOL    HW1 2778   2.982   1.457   1.220 -1.7977 -0.6792  2.1868
  695SOL    HW2 2779   2.987   1.538   1.357 -0.8278  0.8952  0.0703
  695SOL     MW 2780   3.018   1.470   1.302 -0.3519 -0.5650  0.7886
  696SOL     OW 2781   2.084   1.364   0.804  0.3778 -0.0163 -0.7689
  696SOL    HW1 2782   2.106   1.435   0.873  1.6557 -0.6657  1.6493
  696SOL    HW2 2783   2.026   1.297   0.848 -2.6199 -3.6943  0.5610
  696SOL     MW 2784   2.079   1.364   0.819  0.1509 -0.5873 -0.2744
  697SOL     OW 2785   2.880   1.013   2.215 -0.2621 -0.1968  0.5241
  697SOL    HW1 2786   2.834   1.092   2.211  3.4733 -0.7341  0.8513
  697SOL    HW2 2787   2.834   0.946   2.164  1.2046  0.6979  0.1564
  697SOL     MW 2788   2.868   1.015   2.208  0.4243 -0.1497  0.5188
  698SOL     OW 2789   2.543   0.350   0.037 -0.2484  0.0290 -0.0855
  698SOL    HW1 2790   2.444   0.367   0.045 -1.7388  1.4617  1.2299
  698SOL    HW2 2791   2.584   0.299   0.105  1.2604  0.7571  1.3967
  698SOL     MW 2792   2.535   0.346   0.047 -0.2460  0.3141  0.2836
  699SOL     OW 2793   1.859   1.586   2.054 -0.0315 -0.3934 -0.2760
  699SOL    HW1 2794   1.810   1.502   2.045  1.4003 -0.6396  0.2273
  699SOL    HW2 2795   1.959   1.584   2.045  2.4730  1.2412 -1.1834
  699SOL     MW 2796   1.866   1.574   2.051  0.4878 -0.2102 -0.3293
  700SOL     OW 2797   2.742   0.927   1.541 -0.1230 -0.6108  0.3301
  700SOL    HW1 2798   2.779   1.006   1.506  0.9796  2.4632  2.8566
  700SOL    HW2 2799   2.779   0.854   1.491  0.0547 -1.1327  1.1838
  700SOL     MW 2800   2.752   0.928   1.530  0.0459 -0.2740  0.7761
  701SOL     OW 2801   1.684   1.195   2.467  0.4506 -0.3511  0.4498
  701SOL    HW1 2802   1.778   1.181   2.460  1.8088 -0.2894 -0.9232
  701SOL    HW2 2803   1.660   1.246   2.551  1.5047 -1.5437  0.8391
  701SOL     MW 2804   1.693   1.200   2.477  0.7689 -0.5003  0.3200
  702SOL     OW 2805   2.131   0.412   0.845  0.0221 -0.4911 -0.2434
  702SOL    HW1 2806   2.116   0.337   0.788  1.0807 -0.4463 -1.2806
  702SOL    HW2 2807   2.192   0.476   0.794  0.3785  0.7513  0.8867
  702SOL     MW 2808   2.137   0.410   0.831  0.2088 -0.3213 -0.2312
  703SOL     OW 2809   2.702   1.248   1.045 -0.4173  0.3758 -0.3207
  703SOL    HW1 2810   2.665   1.233   0.954  1.4169 -0.1972 -2.4707
  703SOL    HW2 2811   2.696   1.164   1.088 -1.3088  3.8125 -0.7786
  703SOL     MW 2812   2.696   1.235   1.038 -0.2929  0.7537 -0.6648
  704SOL     OW 2813   0.009   1.191   0.119 -0.4643  0.7882  0.5445
  704SOL    HW1 2814  -0.086   1.209   0.102 -0.2748 -0.1633  3.5809
  704SOL    HW2 2815   0.003   1.161   0.206  0.0878 -0.2066 -1.3071
  704SOL     MW 2816  -0.004   1.189   0.129 -0.3665  0.5314  0.7008
  705SOL     OW 2817   2.185   1.632   1.262  0.1696 -0.1878  0.0919
  705SOL    HW1 2818   2.126   1.671   1.328 -0.2933  0.5982  1.8968
  705SOL    HW2 2819   2.202   1.538   1.288  2.3844 -0.5737  0.4636
  705SOL     MW 2820   2.179   1.625   1.274  0.4007 -0.1350  0.3790
  706SOL     OW 2821   3.018   1.244   0.658 -0.6015 -0.0604  0.4031
  706SOL    HW1 2822   3.052   1.222   0.565 -1.6837 -0.4804 -2.8025
  706SOL    HW2 2823   2.980   1.332   0.646  0.0079  1.8365 -2.2330
  706SOL     MW 2824   3.017   1.253   0.644 -0.6639  0.1345 -0.3677
  707SOL     OW 2825   2.283   0.050   1.033  0.2717 -0.1001  0.1757
  707SOL    HW1 2826   2.326   0.112   0.971  0.2395 -2.8680 -0.4523
  707SOL    HW2 2827   2.222   0.002   0.974 -1.0449  1.7150  1.6916
  707SOL     MW 2828   2.281   0.052   1.017  0.0937 -0.2258  0.2928
  708SOL     OW 2829   2.394   1.453   0.202  0.0419  0.0042 -0.3681
  708SOL    HW1 2830   2.480   1.406   0.219 -0.2399  1.2810  4.7503
  708SOL    HW2 2831   2.396   1.482   0.111 -0.8006 -0.0454 -1.1349
  708SOL     MW 2832   2.406   1.450   0.192 -0.1065  0.1661  0.2061
  709SOL     OW 2833   1.771   1.659   0.251  0.2146  0.4140  0.2445
  709SOL    HW1 2834   1.762   1.657   0.155  0.5236  0.7346 -0.2329
  709SOL    HW2 2835   1.678   1.655   0.275  0.4841 -0.1048  2.2550
  709SOL     MW 2836   1.758   1.659   0.241  0.2909  0.3879  0.4468
  710SOL     OW 2837   2.161   1.100   1.175 -0.0147 -0.8379  0.4706
  710SOL    HW1 2838   2.195   1.072   1.085  1.7386 -0.7986  1.9403
  710SOL    HW2 2839   2.181   1.030   1.233 -2.0451  0.7891 -0.3973
  710SOL     MW 2840   2.168   1.087   1.171 -0.0512 -0.6180  0.5500
  711SOL     OW 2841   2.312   0.127   1.757 -0.0523 -0.7286 -0.3430
  711SOL    HW1 2842   2.405   0.127   1.788  1.5865 -0.0223 -2.2588
  711SOL    HW2 2843   2.329   0.146   1.661 -0.6797  1.1200  0.4766
  711SOL     MW 2844   2.326   0.130   1.749  0.0812 -0.3915 -0.4877
  712SOL     OW 2845   1.890   0.636   0.024 -0.1792  0.2057 -1.0686
  712SOL    HW1 2846   1.824   0.701  -0.011 -2.5411  0.3895 -2.4850
  712SOL    HW2 2847   1.934   0.677   0.097  0.1222  0.5240  0.6403
  712SOL     MW 2848   1.887   0.650   0.029 -0.4511  0.2720 -1.0300
  713SOL     OW 2849   2.553   0.792   1.084 -0.4965 -0.8621 -0.3837
  713SOL    HW1 2850   2.577   0.709   1.124  1.9952 -2.4876  1.3416
  713SOL    HW2 2851   2.475   0.805   1.130 -1.7062 -1.7465  2.4721
  713SOL     MW 2852   2.546   0.783   1.096 -0.3274 -1.1932  0.2208
  714SOL     OW 2853   2.168   0.171   1.987 -0.4800 -0.3406  0.1919
  714SOL    HW1 2854   2.230   0.135   2.055 -0.2108 -0.6793  0.2665
  714SOL    HW2 2855   2.223   0.146   1.909 -2.3773  1.5672  1.7088
  714SOL     MW 2856   2.183   0.163   1.985 -0.6948 -0.1336  0.4019
  715SOL     OW 2857   1.793   1.960   1.716  0.6260  0.7156 -0.2431
  715SOL    HW1 2858   1.880   1.934   1.676  3.6829  1.9565 -1.2253
  715SOL    HW2 2859   1.775   1.899   1.790 -1.0151 -0.2122 -1.4294
  715SOL     MW 2860   1.802   1.948   1.720  0.8128  0.7569 -0.5292
  716SOL     OW 2861   2.313   0.585   0.722 -0.3452 -0.3892 -0.0092
  716SOL    HW1 2862   2.369   0.529   0.672 -1.0751  0.2510 -0.6371
  716SOL    HW2 2863   2.260   0.633   0.655  0.5090 -2.3411 -2.2053
  716SOL     MW 2864   2.313   0.584   0.706 -0.3288 -0.5623 -0.3818
  717SOL     OW 2865   2.842   1.584   2.864 -0.4202 -0.0779  0.4676
  717SOL    HW1 2866   2.913   1.522   2.899  0.6234 -1.1024 -2.0173
  717SOL    HW2 2867   2.814   1.643   2.935 -2.6163 -0.3908 -0.3652
  717SOL     MW 2868   2.848   1.583   2.878 -0.5723 -0.2544  0.0298
  718SOL     OW 2869   2.704   1.402   1.367 -0.5333  0.1164  0.5985
  718SOL    HW1 2870   2.707   1.425   1.458  1.1478 -1.6422 -0.1795
  718SOL    HW2 2871   2.718   1.305   1.360  1.1268 -0.6674 -0.8393
  718SOL     MW 2872   2.706   1.392   1.378 -0.0924 -0.2191  0.3062
  719SOL     OW 2873   2.198   1.261   0.582 -0.5191  0.3247 -0.4369
  719SOL    HW1 2874   2.291   1.280   0.585 -3.4788 -0.8077  0.2297
  719SOL    HW2 2875   2.169   1.293   0.668 -0.2015  0.9900 -1.9749
  719SOL     MW 2876   2.207   1.267   0.594 -0.8677  0.2631 -0.5519
  720SOL     OW 2877   2.855   1.215   0.045  0.5149  0.3319 -0.3886
  720SOL    HW1 2878   2.848   1.120   0.073 -0.6743 -0.9271  2.0950
  720SOL    HW2 2879   2.778   1.260   0.078  0.8173 -2.0562  0.8052
  720SOL     MW 2880   2.844   1.209   0.053  0.3979 -0.1493  0.0966
  721SOL     OW 2881   2.491   0.885   1.399  0.2508  0.1503  0.1639
  721SOL    HW1 2882   2.512   0.821   1.462  0.4672 -0.4747 -0.0502
  721SOL    HW2 2883   2.567   0.943   1.397 -2.2752  1.2853 -1.3651
  721SOL     MW 2884   2.504   0.885   1.407 -0.0540  0.2176 -0.0661
  722SOL     OW 2885   2.566   1.083   0.451  0.2160 -0.4231  0.4494
  722SOL    HW1 2886   2.519   1.153   0.485  1.5784  2.1616 -0.2542
  722SOL    HW2 2887   2.646   1.077   0.510  3.0057  4.4935  1.1276
  722SOL     MW 2888   2.571   1.092   0.463  0.7638  0.5666  0.4460
  723SOL     OW 2889   2.327   1.392   1.577  0.0223 -0.1495 -0.4084
  723SOL    HW1 2890   2.305   1.389   1.483 -4.2044 -0.2314 -1.1295
  723SOL    HW2 2891   2.244   1.432   1.614 -1.3465 -0.5071  1.9740
  723SOL     MW 2892   2.313   1.397   1.570 -0.7160 -0.2075 -0.1892
  724SOL     OW 2893   2.462   0.374   0.579  0.1779 -0.3499 -0.1963
  724SOL    HW1 2894   2.454   0.287   0.618  2.1846 -1.3113 -2.8624
  724SOL    HW2 2895   2.547   0.388   0.543 -0.0490  0.5489 -0.1251
  724SOL     MW 2896   2.472   0.364   0.580  0.4127 -0.3581 -0.5387
  725SOL     OW 2897   2.607   0.530   1.187  0.5883 -0.1487  0.1575
  725SOL    HW1 2898   2.701   0.523   1.206  0.0337  1.1836 -1.8600
  725SOL    HW2 2899   2.567   0.515   1.275 -0.9646 -0.5205 -1.3820
  725SOL     MW 2900   2.614   0.527   1.201  0.3102 -0.0219 -0.3118
  726SOL     OW 2901   2.582   2.486   0.553  0.2084  0.3346 -0.0987
  726SOL    HW1 2902   2.502   2.500   0.498 -1.3010  0.7094  1.3603
  726SOL    HW2 2903   2.551   2.475   0.640 -0.0204  0.1250 -3.6079
  726SOL     MW 2904   2.567   2.486   0.557 -0.0209  0.3564 -0.3692
  727SOL     OW 2905   2.867   0.329   1.757 -0.2928 -0.0496 -0.5148
  727SOL    HW1 2906   2.815   0.299   1.685  3.5856 -1.8881  1.9424
  727SOL    HW2 2907   2.821   0.314   1.837  2.0035  0.5278  1.0941
  727SOL     MW 2908   2.854   0.323   1.758  0.5219 -0.2160  0.0217
  728SOL     OW 2909   2.787   1.127   2.895  0.2336 -0.1306 -0.2985
  728SOL    HW1 2910   2.806   1.185   2.820 -0.0524  1.3295  0.1360
  728SOL    HW2 2911   2.804   1.177   2.973  0.4511  1.7331 -1.8471
  728SOL     MW 2912   2.792   1.142   2.896  0.2246  0.3079 -0.4455
  729SOL     OW 2913   2.494   1.446   1.183  0.5092 -0.0765  0.0052
  729SOL    HW1 2914   2.578   1.403   1.216  0.9143 -0.6678 -0.6444
  729SOL    HW2 2915   2.502   1.454   1.087 -1.6201 -0.1567 -0.1923
  729SOL     MW 2916   2.506   1.441   1.175  0.2817 -0.1651 -0.1066
  730SOL     OW 2917   2.292   1.174   0.209  0.0585 -0.2599  0.5649
  730SOL    HW1 2918   2.344   1.091   0.187  2.5434  1.3349  0.0994
  730SOL    HW2 2919   2.352   1.252   0.202 -0.3059 -0.9184 -0.5132
  730SOL     MW 2920   2.307   1.173   0.205  0.3383 -0.1364  0.3612
  731SOL     OW 2921   2.782   2.019   2.906  0.2212  0.7933  0.0974
  731SOL    HW1 2922   2.746   2.024   2.821  0.5801 -1.4721  0.2651
  731SOL    HW2 2923   2.879   2.027   2.899 -0.0577 -0.4224 -0.4546
  731SOL     MW 2924   2.790   2.021   2.894  0.2318  0.3340  0.0467
  732SOL     OW 2925   2.229   0.880   1.352 -0.3240  0.1806 -0.4615
  732SOL    HW1 2926   2.183   0.923   1.424  2.1441  0.5627  0.4805
  732SOL    HW2 2927   2.322   0.898   1.376 -2.9193  1.3910  0.6224
  732SOL     MW 2928   2.235   0.888   1.364 -0.3408  0.3907 -0.1942
  733SOL     OW 2929   2.353   2.815   2.989 -0.2152 -0.1120  0.6262
  733SOL    HW1 2930   2.280   2.874   2.965  0.6989 -1.1738 -0.9183
  733SOL    HW2 2931   2.345   2.722   2.955  2.1108 -0.2059 -1.6286
  733SOL     MW 2932   2.343   2.810   2.982  0.2123 -0.2645  0.1249
  734SOL     OW 2933   1.438   0.319   2.443 -0.1809  0.1022  0.3093
  734SOL    HW1 2934   1.428   0.272   2.528 -2.5594  0.4585  0.7644
  734SOL    HW2 2935   1.472   0.253   2.382  0.3592  0.1132 -0.7530
  734SOL     MW 2936   1.441   0.304   2.446 -0.4234  0.1507  0.2292
  735SOL     OW 2937   2.923   0.878   2.607  0.2011 -0.4976 -0.3205
  735SOL    HW1 2938   2.921   0.781   2.597  1.2318 -1.2143  0.1013
  735SOL    HW2 2939   2.966   0.885   2.689 -3.5510  0.8476  0.0951
  735SOL     MW 2940   2.928   0.866   2.617 -0.1580 -0.4147 -0.2100
  736SOL     OW 2941   0.084   0.604   2.520  0.0600  0.1802  0.3752
  736SOL    HW1 2942   0.086   0.687   2.475 -0.6528 -2.3279 -0.7731
  736SOL    HW2 2943   0.091   0.540   2.444  0.1919  0.9535  1.1301
  736SOL     MW 2944   0.085   0.606   2.504 -0.0166 -0.0487  0.3233
  737SOL     OW 2945   2.925   0.610   2.592 -0.5071 -0.2652  0.0484
  737SOL    HW1 2946   2.855   0.586   2.525 -1.1093 -1.0364 -1.1693
  737SOL    HW2 2947   3.011   0.627   2.552 -0.8800  0.1026 -0.1862
  737SOL     MW 2948   2.927   0.609   2.578 -0.6358 -0.3184 -0.1433
  738SOL     OW 2949   0.151   0.618   1.965  1.1205  0.3301  0.3622
  738SOL    HW1 2950   0.240   0.590   1.951 -0.1979 -0.4528 -2.9730
  738SOL    HW2 2951   0.096   0.550   1.929  0.0442  2.1534 -0.6838
  738SOL     MW 2952   0.155   0.605   1.959  0.8046  0.4674 -0.2159
  739SOL     OW 2953   2.479   0.979   2.047 -0.0482  0.1206 -0.0241
  739SOL    HW1 2954   2.410   0.916   2.037  1.4432 -1.0411  0.7446
  739SOL    HW2 2955   2.497   1.019   1.962  1.0046 -1.2651 -2.2579
  739SOL     MW 2956   2.473   0.976   2.035  0.2875 -0.2155 -0.2174
  740SOL     OW 2957   0.210   1.746   2.942 -0.6142  0.0921 -0.5708
  740SOL    HW1 2958   0.148   1.672   2.954  0.9651  1.3034  2.1512
  740SOL    HW2 2959   0.299   1.708   2.953  1.8714  1.1200  0.8810
  740SOL     MW 2960   0.214   1.731   2.945 -0.0778  0.3876 -0.0201
  741SOL     OW 2961   2.208   1.133   2.766 -0.0338  0.4239 -0.4556
  741SOL    HW1 2962   2.115   1.134   2.755  0.7823  2.6232 -1.7774
  741SOL    HW2 2963   2.225   1.212   2.813  0.2862  0.3517 -0.3100
  741SOL     MW 2964   2.198   1.144   2.771  0.1161  0.7046 -0.6108
  742SOL     OW 2965   1.584   1.228   2.201  0.2005  0.3870 -0.0478
  742SOL    HW1 2966   1.523   1.155   2.176  0.4075 -0.7732  1.2919
  742SOL    HW2 2967   1.612   1.217   2.291 -1.3778 -0.3096 -0.4778
  742SOL     MW 2968   1.579   1.217   2.210  0.0196  0.1420  0.0722
  743SOL     OW 2969   2.488   1.317   2.716 -0.3849  0.3436  0.0446
  743SOL    HW1 2970   2.389   1.313   2.705  0.2740 -0.7779 -1.8266
  743SOL    HW2 2971   2.521   1.228   2.730  1.2488 -3.2055 -0.3949
  743SOL     MW 2972   2.479   1.305   2.716 -0.0824 -0.2727 -0.2603
  744SOL     OW 2973   2.772   0.923   1.842  0.0279  0.3910  0.6512
  744SOL    HW1 2974   2.735   1.008   1.830 -1.8746 -2.9119 -0.0082
  744SOL    HW2 2975   2.766   0.879   1.757  0.8694  2.9903 -0.8756
  744SOL     MW 2976   2.766   0.929   1.829 -0.1121  0.2982  0.3627
  745SOL     OW 2977   1.698   0.424   2.502  0.4721 -0.0710 -0.0192
  745SOL    HW1 2978   1.687   0.494   2.434 -0.6493  0.4331 -0.0102
  745SOL    HW2 2979   1.614   0.376   2.497  0.2310  0.0352  0.4002
  745SOL     MW 2980   1.686   0.427   2.492  0.2923  0.0095  0.0373
  746SOL     OW 2981   1.601   1.482   1.630  0.6405  0.2752  0.4003
  746SOL    HW1 2982   1.690   1.439   1.642  1.5984  1.5965  0.0231
  746SOL    HW2 2983   1.560   1.443   1.709  0.0631 -1.0600 -0.6850
  746SOL     MW 2984   1.607   1.471   1.642  0.6907  0.2733  0.2074
  747SOL     OW 2985   2.568   1.148   1.820 -0.0238 -0.2139  0.1741
  747SOL    HW1 2986   2.476   1.167   1.796  0.5742  1.3359  0.5002
  747SOL    HW2 2987   2.579   1.208   1.899  0.4322  0.4790 -0.3161
  747SOL     MW 2988   2.557   1.158   1.827  0.1152  0.0820  0.1524
  748SOL     OW 2989   0.103   0.011   1.830 -0.0900  1.0761 -0.1930
  748SOL    HW1 2990   0.196   0.050   1.824  0.4689  1.1728 -1.4305
  748SOL    HW2 2991   0.068   0.040   1.919 -0.0816  4.4763  1.0981
  748SOL     MW 2992   0.110   0.020   1.841 -0.0151  1.5375 -0.1859
  749SOL     OW 2993   2.497   0.503   2.697  0.7592 -0.1867 -0.0576
  749SOL    HW1 2994   2.530   0.563   2.630 -0.5870  0.5595  0.5982
  749SOL    HW2 2995   2.501   0.546   2.780  2.3539 -0.8836  0.3474
  749SOL     MW 2996   2.502   0.517   2.699  0.7920 -0.1802  0.0824
  750SOL     OW 2997   2.018   3.059   1.997 -0.0198  0.1547  0.2374
  750SOL    HW1 2998   2.079   3.131   2.006  0.0839 -1.7421 -2.2478
  750SOL    HW2 2999   2.075   2.987   1.996 -1.8060  0.6872 -2.1765
  750SOL     MW 3000   2.033   3.059   1.998 -0.2418 -0.0253 -0.4090
  751SOL     OW 3001   0.061   0.430   2.323  0.6375  0.4347  0.4010
  751SOL    HW1 3002  -0.017   0.375   2.357  3.3155 -0.5073  0.2961
  751SOL    HW2 3003   0.135   0.374   2.323  0.7655  1.7162  0.7440
  751SOL     MW 3004   0.060   0.415   2.328  1.0077  0.4795  0.4324
  752SOL     OW 3005   2.144   0.813   2.684  0.0970 -0.7089  0.0064
  752SOL    HW1 3006   2.207   0.871   2.637 -1.5080 -0.1754 -1.2152
  752SOL    HW2 3007   2.160   0.829   2.778 -0.8229  1.9694 -0.5732
  752SOL     MW 3008   2.154   0.823   2.690 -0.2362 -0.2851 -0.2313
  753SOL     OW 3009   2.930   0.305   2.406 -0.0017 -0.6347  0.5665
  753SOL    HW1 3010   2.876   0.234   2.379 -0.6751 -2.8120 -0.3225
  753SOL    HW2 3011   2.863   0.353   2.453 -0.6202  1.4348 -1.1216
  753SOL     MW 3012   2.914   0.302   2.408 -0.1721 -0.6489  0.2265
  754SOL     OW 3013   2.239   2.981   2.615  0.0939 -0.6429 -0.3709
  754SOL    HW1 3014   2.253   2.976   2.517 -2.8619 -0.0039  0.5996
  754SOL    HW2 3015   2.318   2.943   2.653 -1.0042 -0.4680  3.2372
  754SOL     MW 3016   2.252   2.975   2.607 -0.4410 -0.5355  0.2332
  755SOL     OW 3017   2.742   1.518   2.489  0.3493 -0.0872 -0.3513
  755SOL    HW1 3018   2.737   1.454   2.565 -1.5472  1.4093  2.1035
  755SOL    HW2 3019   2.806   1.586   2.524  2.6718 -1.4053 -0.5096
  755SOL     MW 3020   2.750   1.518   2.503  0.4055 -0.0636 -0.0483
  756SOL     OW 3021   2.253   1.270   2.997  0.2365 -0.6400  0.3564
  756SOL    HW1 3022   2.304   1.349   3.025 -0.0004 -0.1534  1.5871
  756SOL    HW2 3023   2.319   1.197   3.015 -0.1082 -1.8160 -0.8567
  756SOL     MW 3024   2.268   1.271   3.003  0.1598 -0.7309  0.3588
  757SOL     OW 3025   2.104   0.939   1.617  0.2671 -0.5037  0.0357
  757SOL    HW1 3026   2.145   0.850   1.618  0.6734 -0.8706  1.7015
  757SOL    HW2 3027   2.018   0.926   1.574  0.7652  0.5353 -1.4856
  757SOL     MW 3028   2.098   0.926   1.611  0.3864 -0.4151  0.0548
  758SOL     OW 3029   2.192   1.746   2.661 -0.3100 -1.1140  0.2817
  758SOL    HW1 3030   2.177   1.777   2.566  2.1885  2.0576 -2.2450
  758SOL    HW2 3031   2.289   1.754   2.668 -0.5010  0.3478  2.2350
  758SOL     MW 3032   2.203   1.751   2.649 -0.0055 -0.5027  0.2061
  759SOL     OW 3033   1.621   1.346   2.694  0.2699  0.2378 -0.6881
  759SOL    HW1 3034   1.587   1.426   2.650  0.3702 -2.0240 -0.1073
  759SOL    HW2 3035   1.662   1.368   2.780  0.1635  0.9361 -2.1349
  759SOL     MW 3036   1.622   1.360   2.700  0.2691  0.0315 -0.8024
  760SOL     OW 3037   2.615   1.994   2.695  0.6089 -0.3241  0.0984
  760SOL    HW1 3038   2.565   1.913   2.668  2.2430 -1.4335  3.1719
  760SOL    HW2 3039   2.590   2.059   2.629  0.7550  3.4960 -1.2293
  760SOL     MW 3040   2.605   1.992   2.683  0.8437  0.0335  0.3288
  761SOL     OW 3041   2.174   0.408   2.452  0.3505 -0.4254 -0.4303
  761SOL    HW1 3042   2.092   0.357   2.457 -0.1642 -1.7146  0.9774
  761SOL    HW2 3043   2.193   0.437   2.543 -1.4089  1.8505  1.4016
  761SOL     MW 3044   2.166   0.405   2.465  0.0505 -0.2952 -0.0029
  762SOL     OW 3045   0.051   0.153   2.053 -0.1091 -0.3144  0.5135
  762SOL    HW1 3046   0.016   0.096   2.122 -1.9237  1.3159  1.8484
  762SOL    HW2 3047  -0.023   0.208   2.041  2.1040  1.5413 -0.5243
  762SOL     MW 3048   0.036   0.152   2.061 -0.0565  0.1455  0.5527
  763SOL     OW 3049   2.409   1.066   2.283 -0.0901 -0.1333  0.3955
  763SOL    HW1 3050   2.459   1.031   2.206 -0.3428 -0.9205 -1.8680
  763SOL    HW2 3051   2.467   1.131   2.333 -1.2632 -0.8566 -0.2441
  763SOL     MW 3052   2.423   1.070   2.280 -0.2782 -0.3326  0.0124
  764SOL     OW 3053   0.440   0.314   2.794 -0.2315  0.2078  0.0339
  764SOL    HW1 3054   0.344   0.292   2.778 -2.6614  0.1557 -0.8595
  764SOL    HW2 3055   0.444   0.377   2.866  0.6183  1.4707 -1.0014
  764SOL     MW 3056   0.428   0.319   2.801 -0.4400  0.3676 -0.2206
  765SOL     OW 3057   2.759   0.088   2.316 -0.4059  0.2375  0.2223
  765SOL    HW1 3058   2.722   0.076   2.228 -1.7142 -0.6147  0.1689
  765SOL    HW2 3059   2.795  -0.000   2.338 -0.8977  0.9844 -0.8650
  765SOL     MW 3060   2.759   0.075   2.307 -0.6434  0.2236  0.0718
  766SOL     OW 3061   1.865   2.988   2.210 -0.7376  0.0737 -0.7162
  766SOL    HW1 3062   1.904   3.040   2.139 -0.8435 -1.3986 -0.4802
  766SOL    HW2 3063   1.797   2.932   2.162 -0.5605 -1.6871 -1.5334
  766SOL     MW 3064   1.862   2.987   2.194 -0.7282 -0.3529 -0.7929
  767SOL     OW 3065   2.627   0.626   1.894  0.4406  0.2323 -0.1729
  767SOL    HW1 3066   2.670   0.689   1.952  0.2614  0.7139 -2.6028
  767SOL    HW2 3067   2.534   0.632   1.916  0.7284  0.7562  0.4632
  767SOL     MW 3068   2.621   0.635   1.904  0.4550  0.3650 -0.4096
  768SOL     OW 3069   0.041   1.535   2.942 -0.4803 -0.0783 -0.8047
  768SOL    HW1 3070   0.037   1.502   3.038 -0.2685 -0.8581  1.4762
  768SOL    HW2 3071   0.054   1.457   2.874  2.2072  1.2658 -0.6423
  768SOL     MW 3072   0.042   1.521   2.945 -0.0977 -0.0038 -0.4823
  769SOL     OW 3073   2.383   0.681   2.324  0.6199 -0.0682  0.7360
  769SOL    HW1 3074   2.298   0.643   2.310 -1.8336  0.0724  0.6736
  769SOL    HW2 3075   2.434   0.635   2.256  1.5171 -2.1498 -1.5908
  769SOL     MW 3076   2.378   0.670   2.313  0.4145 -0.3243  0.4208
  770SOL     OW 3077   0.108   1.611   2.604  0.4219 -0.1890 -0.1814
  770SOL    HW1 3078   0.009   1.603   2.593 -0.3118 -1.1281  1.3065
  770SOL    HW2 3079   0.139   1.528   2.648 -0.1238 -0.6221  2.2760
  770SOL     MW 3080   0.099   1.599   2.608  0.2531 -0.3700  0.3391
  771SOL     OW 3081   2.957   0.630   1.921  0.0482 -0.2564  0.0416
  771SOL    HW1 3082   2.933   0.620   1.827 -0.4942 -0.9198 -0.8490
  771SOL    HW2 3083   3.039   0.673   1.936 -1.0571 -0.6369  0.3296
  771SOL     MW 3084   2.965   0.634   1.910 -0.1692 -0.3941 -0.0379
  772SOL     OW 3085   3.098   3.093   2.290  0.1660  0.3730  0.5856
  772SOL    HW1 3086   3.020   3.060   2.336 -0.0466 -0.2498 -1.0169
  772SOL    HW2 3087   3.145   3.015   2.249  1.5939 -1.6844 -1.2139
  772SOL     MW 3088   3.094   3.078   2.291  0.3263  0.0194  0.1367
  773SOL     OW 3089   2.478   2.848   2.755  0.2451  0.0105 -0.6791
  773SOL    HW1 3090   2.472   2.771   2.695  1.7077 -0.9652 -0.7675
  773SOL    HW2 3091   2.459   2.818   2.846 -0.3582  0.4706 -1.0209
  773SOL     MW 3092   2.475   2.834   2.759  0.3585 -0.0575 -0.7358
  774SOL     OW 3093   2.264   1.172   1.713  0.0824 -0.7576 -0.3212
  774SOL    HW1 3094   2.274   1.256   1.661 -1.0448 -1.3113 -0.8222
  774SOL    HW2 3095   2.200   1.119   1.670 -1.9645 -0.3566 -3.3456
  774SOL     MW 3096   2.257   1.176   1.700 -0.3364 -0.7777 -0.7863
  775SOL     OW 3097   2.298   2.903   2.311 -0.1645  0.3474  0.5199
  775SOL    HW1 3098   2.324   2.966   2.241  1.6928 -2.7128 -1.0954
  775SOL    HW2 3099   2.353   2.823   2.297  2.2988  1.2761 -2.9258
  775SOL     MW 3100   2.309   2.901   2.300  0.4055  0.0661 -0.1479
  776SOL     OW 3101   0.045   1.452   0.108  0.3799  0.4294  0.0183
  776SOL    HW1 3102   0.144   1.445   0.119 -1.1173 -1.6407  0.7858
  776SOL    HW2 3103   0.010   1.358   0.116  1.6038 -2.0857  1.3499
  776SOL     MW 3104   0.054   1.439   0.111  0.3439 -0.1755  0.2953
  777SOL     OW 3105   2.993   1.073   1.758 -0.3599  0.1116 -0.0827
  777SOL    HW1 3106   2.934   1.125   1.707 -0.0623 -0.4385  0.1901
  777SOL    HW2 3107   2.931   1.018   1.814 -0.6275 -0.0670  0.3803
  777SOL     MW 3108   2.977   1.072   1.759 -0.3560  0.0155  0.0144
  778SOL     OW 3109   2.894   0.411   2.777  0.3517  0.2436  0.4806
  778SOL    HW1 3110   2.841   0.437   2.860 -0.2778  0.9397 -1.0348
  778SOL    HW2 3111   2.903   0.490   2.722 -0.5648  0.6560  3.3360
  778SOL     MW 3112   2.888   0.425   2.781  0.1477  0.3899  0.6574
  779SOL     OW 3113   2.105   0.627   2.306  0.0920  0.3736  0.4697
  779SOL    HW1 3114   2.040   0.683   2.360 -0.3979 -1.0461 -1.4407
  779SOL    HW2 3115   2.150   0.566   2.360  3.6286  2.2222 -4.5967
  779SOL     MW 3116   2.103   0.626   2.320  0.4940  0.4302 -0.4508
  780SOL     OW 3117   0.216   0.104   2.813  0.3264 -0.5580  0.1469
  780SOL    HW1 3118   0.183   0.177   2.864 -1.7207 -1.5510 -2.0184
  780SOL    HW2 3119   0.188   0.124   2.726  1.0780  0.8576  1.3618
  780SOL     MW 3120   0.208   0.116   2.808  0.1555 -0.5022  0.0215
  781SOL     OW 3121   3.014   1.295   2.505 -0.3161  0.0703 -0.6584
  781SOL    HW1 3122   3.011   1.344   2.425  1.4960 -2.5576  0.9733
  781SOL    HW2 3123   3.015   1.204   2.476 -1.5567  1.0503  2.3582
  781SOL     MW 3124   3.014   1.290   2.491 -0.2407 -0.1471 -0.0451
  782SOL     OW 3125   0.648   1.543   0.006 -0.7178 -0.3108 -0.6178
  782SOL    HW1 3126   0.595   1.608  -0.037 -0.3091  1.9060 -0.7248
  782SOL    HW2 3127   0.594   1.528   0.086 -1.3151 -1.7046  3.1395
  782SOL     MW 3128   0.634   1.549   0.011 -0.7427 -0.2022 -0.1362
  783SOL     OW 3129   2.718   0.500   2.454 -0.0676  0.7397  0.5122
  783SOL    HW1 3130   2.667   0.475   2.373 -0.5837  0.4752  0.9767
  783SOL    HW2 3131   2.671   0.441   2.516  0.4934 -1.3960 -0.9804
  783SOL     MW 3132   2.705   0.489   2.451 -0.0617  0.4230  0.3766
  784SOL     OW 3133   0.269   0.908   2.874 -0.4482 -0.1385  0.0212
  784SOL    HW1 3134   0.241   0.994   2.913  1.0081 -0.8909  0.1918
  784SOL    HW2 3135   0.311   0.930   2.788 -1.5009  0.9164  4.8047
  784SOL     MW 3136   0.271   0.922   2.868 -0.3950 -0.0986  0.6748
  785SOL     OW 3137   0.443   0.552   2.180  0.3444  0.4225 -0.1529
  785SOL    HW1 3138   0.418   0.559   2.089 -1.3652 -3.0727 -1.1048
  785SOL    HW2 3139   0.381   0.483   2.197  0.4992  2.6919 -0.8882
  785SOL     MW 3140   0.432   0.544   2.170  0.1392  0.2608 -0.3755
  786SOL     OW 3141   1.948   0.494   2.885  0.0116 -0.0496 -0.4989
  786SOL    HW1 3142   1.978   0.531   2.959  0.7030 -0.8233 -2.4140
  786SOL    HW2 3143   2.017   0.465   2.828 -2.4723  0.4162  3.6157
  786SOL     MW 3144   1.961   0.495   2.887 -0.2249 -0.0902 -0.2087
  787SOL     OW 3145   2.431   0.131   2.963  0.3763  0.2471  0.2115
  787SOL    HW1 3146   2.482   0.068   2.909 -2.3804 -0.9382  1.3091
  787SOL    HW2 3147   2.489   0.202   2.988 -2.6223  0.3225 -1.2444
  787SOL     MW 3148   2.445   0.132   2.960 -0.3830  0.1007  0.1642
  788SOL     OW 3149   2.860   2.941   2.384 -0.4074 -0.0122  0.0984
  788SOL    HW1 3150   2.779   2.893   2.348 -0.9003  0.8647 -1.3480
  788SOL    HW2 3151   2.918   2.867   2.392  2.1173  0.9685  3.9572
  788SOL     MW 3152   2.857   2.925   2.380 -0.1393  0.2329  0.4167
  789SOL     OW 3153   0.116   0.314   2.966 -0.0936 -0.0627 -0.2475
  789SOL    HW1 3154   0.040   0.267   3.009  1.3146 -1.8949 -0.5988
  789SOL    HW2 3155   0.075   0.391   2.925  1.1958  3.5699 -0.3644
  789SOL     MW 3156   0.101   0.318   2.966  0.2623  0.1748 -0.3093
  790SOL     OW 3157   3.031   1.041   2.422  0.3412 -0.6952 -0.1326
  790SOL    HW1 3158   2.994   0.968   2.470  1.6537 -3.7434 -1.8431
  790SOL    HW2 3159   2.999   1.028   2.331  2.5280 -1.5289  1.5181
  790SOL     MW 3160   3.022   1.030   2.416  0.8029 -1.2074 -0.1405
  791SOL     OW 3161   2.669   0.302   2.653  0.0966  0.2768  0.0120
  791SOL    HW1 3162   2.602   0.371   2.667  2.6707 -1.2043 -1.3376
  791SOL    HW2 3163   2.748   0.335   2.695 -0.3348 -1.4139 -0.0430
  791SOL     MW 3164   2.671   0.316   2.661  0.3793 -0.1417 -0.1733
  792SOL     OW 3165   2.377   0.229   2.351  0.3140 -0.1684  0.1949
  792SOL    HW1 3166   2.309   0.289   2.385 -0.5391 -1.9995  1.6780
  792SOL    HW2 3167   2.423   0.189   2.424  1.7899 -1.5660 -0.7001
  792SOL     MW 3168   2.374   0.232   2.365  0.3962 -0.5944  0.2725
  793SOL     OW 3169   1.859   1.083   1.948 -0.1414  0.3044  0.1439
  793SOL    HW1 3170   1.831   1.098   1.862 -0.3769 -0.5814  2.9672
  793SOL    HW2 3171   1.920   1.009   1.931 -0.3782  3.6146 -1.4413
  793SOL     MW 3172   1.863   1.076   1.934 -0.2037  0.6243  0.3073
  794SOL     OW 3173   1.434   2.287   0.151 -0.4712  0.1767  0.0543
  794SOL    HW1 3174   1.463   2.356   0.086  0.8498  3.7971 -0.3510
  794SOL    HW2 3175   1.479   2.319   0.229  0.7635  1.9831 -1.5288
  794SOL     MW 3176   1.444   2.300   0.152 -0.1340  0.8927 -0.2080
  795SOL     OW 3177   2.354   0.966   2.557 -0.0931  0.1223  0.0663
  795SOL    HW1 3178   2.308   1.038   2.595  1.7509  0.1259 -1.1821
  795SOL    HW2 3179   2.348   0.989   2.460 -2.8486 -2.8876 -1.9214
  795SOL     MW 3180   2.347   0.979   2.549 -0.2134 -0.2744 -0.3607
  796SOL     OW 3181   0.225   0.629   2.802 -0.2642  0.9074  0.0238
  796SOL    HW1 3182   0.221   0.720   2.822  4.5476  0.7377  1.2654
  796SOL    HW2 3183   0.175   0.621   2.723  0.1243 -1.0951  0.7350
  796SOL     MW 3184   0.218   0.640   2.794  0.4219  0.6208  0.2815
  797SOL     OW 3185   2.579   0.104   2.512  0.4195  0.6045 -0.2065
  797SOL    HW1 3186   2.623   0.182   2.561 -1.2013 -3.2966 -2.6956
  797SOL    HW2 3187   2.648   0.084   2.442 -0.6484  0.4843  0.2640
  797SOL     MW 3188   2.594   0.112   2.509  0.0647  0.0739 -0.4729
  798SOL     OW 3189   2.356   0.048   2.166  0.3472 -0.0916 -0.2286
  798SOL    HW1 3190   2.357   0.114   2.246  0.0081 -2.5509  1.4315
  798SOL    HW2 3191   2.443   0.036   2.135 -1.6377 -3.9873  1.0601
  798SOL     MW 3192   2.367   0.055   2.173  0.0406 -0.9301  0.1604
  799SOL     OW 3193   2.456   2.912   0.140 -0.1612 -0.1506  0.2693
  799SOL    HW1 3194   2.409   2.877   0.065  2.4104  0.3809  0.1449
  799SOL    HW2 3195   2.398   2.989   0.157 -0.4276  1.3976 -0.7320
  799SOL     MW 3196   2.442   2.918   0.132  0.1430  0.1238  0.1208
  800SOL     OW 3197   1.836   0.016   1.811  0.3100 -0.5993 -0.1382
  800SOL    HW1 3198   1.767  -0.050   1.824  1.0641  0.4087  1.1992
  800SOL    HW2 3199   1.903  -0.012   1.873 -0.8271 -0.2932  0.1207
  800SOL     MW 3200   1.836   0.004   1.821  0.2594 -0.4259  0.0724
  801SOL     OW 3201   2.782   1.266   2.650  0.0721  0.7139  0.4107
  801SOL    HW1 3202   2.766   1.187   2.591 -2.1431 -2.4165  0.0092
  801SOL    HW2 3203   2.865   1.297   2.620 -4.6037  0.3714  1.7905
  801SOL     MW 3204   2.790   1.259   2.638 -0.8371  0.2557  0.5397
  802SOL     OW 3205   2.566   1.570   2.822  0.2515  0.3198  0.3159
  802SOL    HW1 3206   2.552   1.488   2.765 -0.8688 -0.0337  0.7266
  802SOL    HW2 3207   2.667   1.575   2.833  2.0762  0.5198  1.7705
  802SOL     MW 3208   2.578   1.560   2.816  0.3444  0.2996  0.5620
  803SOL     OW 3209   2.298   1.338   1.951  0.5615 -0.0831  0.7378
  803SOL    HW1 3210   2.278   1.330   2.043 -1.0280 -1.1063  3.7750
  803SOL    HW2 3211   2.259   1.266   1.903 -1.8910  3.0748 -1.5843
  803SOL     MW 3212   2.290   1.327   1.957  0.0282  0.1986  0.8321
  804SOL     OW 3213   2.269   0.037   0.078 -0.7790  0.7382  0.0669
  804SOL    HW1 3214   2.191   0.096   0.073  0.6507 -0.6529 -0.9693
  804SOL    HW2 3215   2.331   0.077   0.019  0.3772 -2.5047  0.1000
  804SOL     MW 3216   2.267   0.050   0.070 -0.4378  0.1268 -0.0655
  805SOL     OW 3217   2.717   1.048   2.520 -0.2217 -0.4040  0.1319
  805SOL    HW1 3218   2.706   1.014   2.432  0.6247 -0.0462 -1.0198
  805SOL    HW2 3219   2.791   0.996   2.546  1.7827  0.0584 -3.0870
  805SOL     MW 3220   2.726   1.036   2.512  0.1545 -0.2958 -0.4447
  806SOL     OW 3221   2.574   0.401   2.240  0.5141  0.2409  0.3677
  806SOL    HW1 3222   2.523   0.323   2.274 -1.6124 -1.4967  2.0098
  806SOL    HW2 3223   2.619   0.371   2.158  0.9237  0.4507  0.3903
  806SOL     MW 3224   2.574   0.387   2.234  0.2876  0.0393  0.5873
  807SOL     OW 3225   0.043   1.133   2.031 -0.7623 -0.2939 -0.3449
  807SOL    HW1 3226   0.078   1.039   1.996 -0.2987  0.0793 -1.0929
  807SOL    HW2 3227  -0.032   1.115   2.078  0.8189  0.2538  0.1957
  807SOL     MW 3228   0.037   1.118   2.032 -0.4925 -0.1724 -0.3722
  808SOL     OW 3229   2.563   3.096   2.773 -0.0065 -0.2090  0.0739
  808SOL    HW1 3230   2.548   3.001   2.756 -0.1995  0.8633 -1.0478
  808SOL    HW2 3231   2.557   3.144   2.688 -0.3992  2.1966 -1.6307
  808SOL     MW 3232   2.561   3.090   2.759 -0.0838  0.2499 -0.2990
  809SOL     OW 3233   2.554   1.256   2.406  0.0193  0.3649 -0.2535
  809SOL    HW1 3234   2.594   1.208   2.478  1.8654 -1.9759  0.9061
  809SOL    HW2 3235   2.624   1.277   2.340  1.5038 -3.1502 -1.6317
  809SOL     MW 3236   2.569   1.253   2.407  0.4588 -0.4077 -0.2823
  810SOL     OW 3237   2.242   1.311   2.221 -0.0963  0.1159 -0.5295
  810SOL    HW1 3238   2.304   1.236   2.205 -0.2338  0.1641  0.4199
  810SOL    HW2 3239   2.161   1.268   2.257 -0.6567 -0.5563  1.1119
  810SOL     MW 3240   2.239   1.295   2.223 -0.1884  0.0336 -0.1877
  811SOL     OW 3241   1.547   0.096   2.273  0.7192 -0.8872  0.0016
  811SOL    HW1 3242   1.633   0.082   2.309 -2.3548  0.5576 -3.3878
  811SOL    HW2 3243   1.566   0.089   2.178 -0.0297  1.1676  2.7009
  811SOL     MW 3244   1.561   0.093   2.265  0.2148 -0.4254 -0.0894
  812SOL     OW 3245   1.433   2.769   2.073  0.1509 -0.0577 -0.9323
  812SOL    HW1 3246   1.530   2.780   2.074 -1.5055  1.4455 -1.1882
  812SOL    HW2 3247   1.408   2.785   2.162  0.6033 -0.1115 -0.7128
  812SOL     MW 3248   1.442   2.773   2.085 -0.0080  0.1336 -0.9371
  813SOL     OW 3249   1.777   0.718   2.211  0.1412 -0.3254 -0.0877
  813SOL    HW1 3250   1.755   0.624   2.210 -0.7425  0.1638 -0.1054
  813SOL    HW2 3251   1.812   0.734   2.301 -1.7523 -0.9395  0.6544
  813SOL     MW 3252   1.778   0.708   2.223 -0.2252 -0.3419  0.0078
  814SOL     OW 3253   2.787   1.226   1.659 -0.0538  0.0825 -0.2891
  814SOL    HW1 3254   2.700   1.217   1.701  0.0777 -4.0392  2.7935
  814SOL    HW2 3255   2.776   1.189   1.572  3.1582 -3.1471  0.2908
  814SOL     MW 3256   2.774   1.220   1.653  0.3873 -0.8874  0.1942
  815SOL     OW 3257   2.511   1.656   2.413  0.1590 -0.3849 -0.3719
  815SOL    HW1 3258   2.464   1.575   2.438  0.4259 -1.5427  1.1647
  815SOL    HW2 3259   2.598   1.624   2.430  1.4748 -4.4419 -1.1440
  815SOL     MW 3260   2.516   1.641   2.418  0.3678 -1.0729 -0.2711
  816SOL     OW 3261   0.760   0.622   2.756 -0.4909 -0.4055  0.6755
  816SOL    HW1 3262   0.781   0.546   2.805 -0.0003  0.2832 -0.8079
  816SOL    HW2 3263   0.666   0.636   2.741  1.7570  0.7248  0.1455
  816SOL     MW 3264   0.751   0.614   2.760 -0.1296 -0.1655  0.4098
  817SOL     OW 3265   3.033   1.199   1.371  0.3766 -0.7597 -0.4215
  817SOL    HW1 3266   3.064   1.198   1.460 -0.3450  0.9794 -1.5912
  817SOL    HW2 3267   3.044   1.294   1.349  1.5522 -2.3411 -1.0598
  817SOL     MW 3268   3.038   1.211   1.380  0.4365 -0.7389 -0.6601
  818SOL     OW 3269   1.926   0.990   2.764  0.0130 -0.0563  0.8892
  818SOL    HW1 3270   1.914   1.026   2.678 -3.0883 -2.3662 -0.3517
  818SOL    HW2 3271   2.004   0.931   2.754 -2.0454 -0.0832 -2.4478
  818SOL     MW 3272   1.935   0.987   2.751 -0.6678 -0.3646  0.2852
  819SOL     OW 3273   1.945   0.288   2.491  0.4216 -0.2875  0.0805
  819SOL    HW1 3274   1.873   0.349   2.501  1.9771 -2.9426  1.6568
  819SOL    HW2 3275   1.978   0.270   2.584  1.3020 -1.6766  2.1722
  819SOL     MW 3276   1.940   0.294   2.505  0.7430 -0.8211  0.5644
  820SOL     OW 3277   2.475   1.764   2.655  0.2657 -0.1102 -0.3384
  820SOL    HW1 3278   2.511   1.696   2.720  0.8324  0.5444 -0.4178
  820SOL    HW2 3279   2.474   1.715   2.573 -0.6709  3.6069  1.0998
  820SOL     MW 3280   2.479   1.749   2.653  0.2169  0.4666 -0.1591
  821SOL     OW 3281   2.576   1.353   2.006 -0.2492  0.5863 -0.3029
  821SOL    HW1 3282   2.621   1.426   1.959  0.4447 -0.5792 -0.8061
  821SOL    HW2 3283   2.489   1.350   1.970  1.3985 -2.5777  1.6092
  821SOL     MW 3284   2.571   1.362   1.995  0.0597  0.0151 -0.1170
  822SOL     OW 3285   2.815   2.652   1.470  0.3673  0.2203  0.1321
  822SOL    HW1 3286   2.858   2.696   1.543 -2.5398 -0.1107  1.1894
  822SOL    HW2 3287   2.747   2.708   1.436 -0.5519  1.3524 -1.9530
  822SOL     MW 3288   2.812   2.665   1.476 -0.1376  0.3260 -0.0035
  823SOL     OW 3289   2.254   0.466   1.808 -0.3969 -0.0125 -0.7263
  823SOL    HW1 3290   2.324   0.418   1.763 -1.3071  0.1510 -1.8333
  823SOL    HW2 3291   2.174   0.417   1.781 -0.9658 -2.2007 -2.8093
  823SOL     MW 3292   2.253   0.453   1.799 -0.5921 -0.2796 -1.1472
  824SOL     OW 3293   2.064   1.411   2.511  0.1575  0.7787  0.3633
  824SOL    HW1 3294   2.152   1.434   2.482 -3.5541 -0.7286 -1.2558
  824SOL    HW2 3295   2.039   1.477   2.572  0.3463  0.9612 -4.3322
  824SOL     MW 3296   2.072   1.423   2.515 -0.3073  0.6039 -0.4698
  825SOL     OW 3297   2.079   2.538   0.283 -0.5484 -0.6248  0.2515
  825SOL    HW1 3298   2.152   2.517   0.342 -0.8170 -1.9815  0.8611
  825SOL    HW2 3299   2.107   2.516   0.189 -3.2674  0.5259  1.5235
  825SOL     MW 3300   2.092   2.533   0.279 -0.9426 -0.6520  0.4998
  826SOL     OW 3301   1.930   2.361   0.536 -0.1948 -0.6403 -0.9002
  826SOL    HW1 3302   1.866   2.309   0.584  4.0670 -1.2864 -0.5669
  826SOL    HW2 3303   1.915   2.455   0.575 -3.2824 -0.5862  0.2418
  826SOL     MW 3304   1.919   2.366   0.547 -0.0399 -0.7184 -0.7055
  827SOL     OW 3305   1.963   2.183   0.817  0.2349  0.6232  0.0188
  827SOL    HW1 3306   1.887   2.178   0.756  1.0607 -3.0093 -1.8498
  827SOL    HW2 3307   1.934   2.111   0.876 -0.5251  0.0469  2.0125
  827SOL     MW 3308   1.949   2.173   0.816  0.2436  0.0679  0.0353
  828SOL     OW 3309   0.077   2.631   0.504 -0.1547 -0.4554 -0.0510
  828SOL    HW1 3310   0.174   2.632   0.501  2.4661  1.1319 -2.1181
  828SOL    HW2 3311   0.048   2.709   0.453 -0.1516 -0.7824 -1.1187
  828SOL     MW 3312   0.086   2.641   0.497  0.1915 -0.2891 -0.4646
  829SOL     OW 3313   3.004   2.952   1.225 -0.0577  0.3136 -0.1857
  829SOL    HW1 3314   2.920   2.952   1.175 -0.4817  0.6248  0.0309
  829SOL    HW2 3315   3.050   2.875   1.201 -0.1395  0.1389 -0.6925
  829SOL     MW 3316   2.999   2.942   1.215 -0.1244  0.3316 -0.2240
  830SOL     OW 3317   2.523   2.879   2.032  0.5416 -0.2067 -0.1809
  830SOL    HW1 3318   2.427   2.889   2.012 -0.3212  1.7645 -2.5555
  830SOL    HW2 3319   2.557   2.845   1.951  2.3882 -0.5113  2.6546
  830SOL     MW 3320   2.515   2.876   2.019  0.6714  0.0132 -0.1201
  831SOL     OW 3321   2.380   2.448   1.229 -0.3164  0.1208  0.4145
  831SOL    HW1 3322   2.347   2.365   1.273 -2.1537 -1.1061 -2.7443
  831SOL    HW2 3323   2.475   2.431   1.207 -0.8977  0.6155 -0.7858
  831SOL     MW 3324   2.388   2.435   1.232 -0.6355  0.0242 -0.1606
  832SOL     OW 3325   2.396   2.173   1.837 -0.0348 -0.5167 -0.2540
  832SOL    HW1 3326   2.416   2.264   1.864 -4.9653 -0.9116  1.7993
  832SOL    HW2 3327   2.487   2.130   1.833  2.3942 -0.8717 -0.6100
  832SOL     MW 3328   2.411   2.179   1.840 -0.3648 -0.6156 -0.0300
  833SOL     OW 3329   1.806   2.496   0.918  0.1402 -0.4620 -0.5020
  833SOL    HW1 3330   1.743   2.440   0.951  1.4938  1.9444  2.7924
  833SOL    HW2 3331   1.780   2.561   0.985 -3.5588 -1.0635  0.0099
  833SOL     MW 3332   1.795   2.497   0.931 -0.1693 -0.2238  0.0002
  834SOL     OW 3333   2.240   2.430   0.504  0.3481  0.3476  0.1825
  834SOL    HW1 3334   2.160   2.376   0.521  0.8292 -1.3513  0.0449
  834SOL    HW2 3335   2.294   2.385   0.431  1.4874 -3.8634  0.2076
  834SOL     MW 3336   2.237   2.417   0.497  0.5619 -0.4321  0.1677
  835SOL     OW 3337   1.880   2.593   0.672 -0.0359  0.1025  0.2848
  835SOL    HW1 3338   1.865   2.534   0.747  0.7826  2.1895 -1.6212
  835SOL    HW2 3339   1.927   2.660   0.719  2.4261  2.6109 -1.7220
  835SOL     MW 3340   1.884   2.594   0.688  0.3969  0.7089 -0.2314
  836SOL     OW 3341   1.995   2.165   1.648  0.1012  0.1155 -0.3211
  836SOL    HW1 3342   2.090   2.150   1.643  0.2356 -0.2808  0.5398
  836SOL    HW2 3343   1.990   2.239   1.710  2.2687  0.0057  1.2268
  836SOL     MW 3344   2.007   2.173   1.655  0.4049  0.0487 -0.0033
  837SOL     OW 3345   2.063   0.173   0.691 -0.0407 -0.2067  0.2308
  837SOL    HW1 3346   1.987   0.224   0.644 -1.7087 -0.4391 -0.2942
  837SOL    HW2 3347   2.126   0.136   0.626 -1.4137  1.3639 -0.4637
  837SOL     MW 3348   2.061   0.175   0.676 -0.4419 -0.0302  0.0699
  838SOL     OW 3349   2.881   2.042   0.917 -0.4046  0.3413 -0.1921
  838SOL    HW1 3350   2.811   1.979   0.940 -2.0321 -0.2755  0.4203
  838SOL    HW2 3351   2.960   1.987   0.919 -1.4116  0.7576  2.5888
  838SOL     MW 3352   2.882   2.027   0.921 -0.7522  0.3148  0.2556
  839SOL     OW 3353   1.496   2.344   0.918  0.1669  0.1195 -0.1700
  839SOL    HW1 3354   1.501   2.418   0.978  0.5203 -2.4447  1.5548
  839SOL    HW2 3355   1.515   2.266   0.971 -0.8933  0.2484 -0.9472
  839SOL     MW 3356   1.499   2.344   0.933  0.0736 -0.2018 -0.0450
  840SOL     OW 3357   2.292   2.054   2.390 -0.1711  0.0596 -0.0603
  840SOL    HW1 3358   2.261   2.129   2.352  2.2067 -2.0090  1.0836
  840SOL    HW2 3359   2.373   2.072   2.440  3.2178 -0.2265 -1.3606
  840SOL     MW 3360   2.299   2.067   2.391  0.5898 -0.2510 -0.0809
  841SOL     OW 3361   2.217   2.448   0.082  0.2405 -0.3864  0.0866
  841SOL    HW1 3362   2.280   2.473   0.012  0.7120  0.7955 -3.2234
  841SOL    HW2 3363   2.157   2.389   0.037  0.7988  0.0613  1.0609
  841SOL     MW 3364   2.217   2.443   0.067  0.3764 -0.1714 -0.2216
  842SOL     OW 3365   2.665   1.981   1.554 -0.3452  0.2094 -0.8876
  842SOL    HW1 3366   2.625   1.900   1.541  0.5323  0.1714 -1.9205
  842SOL    HW2 3367   2.651   2.038   1.471 -2.0540 -0.6129 -1.3017
  842SOL     MW 3368   2.658   1.978   1.542 -0.4549  0.0959 -1.0785
  843SOL     OW 3369   2.630   2.813   1.794 -0.0118 -0.1353 -0.1957
  843SOL    HW1 3370   2.715   2.775   1.810 -0.6893 -3.1714 -1.0307
  843SOL    HW2 3371   2.585   2.745   1.739 -2.4830  2.8402  1.0707
  843SOL     MW 3372   2.635   2.799   1.789 -0.4272 -0.1433 -0.1388
  844SOL     OW 3373   2.636   2.356   1.193  0.2147  0.2398 -0.6085
  844SOL    HW1 3374   2.694   2.372   1.118  3.6193 -1.7491  3.2016
  844SOL    HW2 3375   2.698   2.362   1.270  0.0554  1.0414 -0.6861
  844SOL     MW 3376   2.652   2.359   1.193  0.6429  0.0832 -0.1160
  845SOL     OW 3377   2.831   2.543   0.350  0.0701  0.2947 -0.1463
  845SOL    HW1 3378   2.781   2.461   0.358  0.3747 -1.6150  1.2171
  845SOL    HW2 3379   2.823   2.591   0.440 -0.5007  1.8566  0.5335
  845SOL     MW 3380   2.824   2.539   0.363  0.0350  0.2488  0.1233
  846SOL     OW 3381   1.497   2.818   0.846  0.2059 -0.3933 -0.1121
  846SOL    HW1 3382   1.570   2.881   0.840 -2.1439  2.2752  1.7983
  846SOL    HW2 3383   1.418   2.871   0.872  0.3165  2.0655 -1.2247
  846SOL     MW 3384   1.496   2.834   0.849 -0.0896  0.2832 -0.0068
  847SOL     OW 3385   2.473   1.924   0.188 -0.2426  0.2843 -0.3511
  847SOL    HW1 3386   2.481   1.841   0.240 -0.4430 -3.1452  0.2276
  847SOL    HW2 3387   2.455   1.894   0.098 -1.0152 -1.5932 -0.8415
  847SOL     MW 3388   2.472   1.910   0.183 -0.3710 -0.4159 -0.3394
  848SOL     OW 3389   2.594   2.097   1.281 -0.0021 -0.2691 -0.2803
  848SOL    HW1 3390   2.621   2.174   1.240 -0.2088 -1.7021 -0.9899
  848SOL    HW2 3391   2.577   2.034   1.213  0.1679  1.1761 -1.9694
  848SOL     MW 3392   2.596   2.099   1.267 -0.0070 -0.2675 -0.5968
  849SOL     OW 3393   2.039   2.793   0.770  0.5711 -0.5145  0.0048
  849SOL    HW1 3394   2.048   2.743   0.849  1.4364  0.1326 -2.2696
  849SOL    HW2 3395   2.127   2.770   0.729  1.7245 -1.7005  1.2896
  849SOL     MW 3396   2.052   2.783   0.775  0.8374 -0.5856 -0.1257
  850SOL     OW 3397   2.254   1.816   1.637  0.4989 -0.5956 -0.0181
  850SOL    HW1 3398   2.169   1.780   1.608  1.6669  3.8883 -1.0329
  850SOL    HW2 3399   2.244   1.914   1.617 -1.0909  0.9742 -0.0303
  850SOL     MW 3400   2.242   1.824   1.631  0.4433  0.2031 -0.1536
  851SOL     OW 3401   2.369   2.387   0.287  0.1309  0.1805  0.7549
  851SOL    HW1 3402   2.316   2.393   0.202  0.0359  2.6037  0.2980
  851SOL    HW2 3403   2.459   2.401   0.252  0.6839  0.6077 -1.0891
  851SOL     MW 3404   2.374   2.390   0.271  0.1913  0.5566  0.4513
  852SOL     OW 3405   2.342   2.094   0.333 -0.1088  0.0167  0.5823
  852SOL    HW1 3406   2.346   2.184   0.301  0.7663  1.0190 -1.7668
  852SOL    HW2 3407   2.393   2.028   0.278  0.2117 -0.2555  1.3287
  852SOL     MW 3408   2.349   2.097   0.321  0.0490  0.1130  0.3708
  853SOL     OW 3409   2.461   2.434   1.915 -0.3026 -0.5630 -0.4203
  853SOL    HW1 3410   2.475   2.475   1.826 -0.8681  0.4185 -0.3705
  853SOL    HW2 3411   2.542   2.442   1.970 -0.1819 -0.2434  2.0716
  853SOL     MW 3412   2.474   2.441   1.911 -0.3613 -0.3914 -0.0849
  854SOL     OW 3413   2.852   2.289   0.758 -0.0704 -0.4642 -0.2017
  854SOL    HW1 3414   2.764   2.244   0.736 -2.8883  1.2530  2.0008
  854SOL    HW2 3415   2.900   2.213   0.798 -2.3108  0.2591 -1.1520
  854SOL     MW 3416   2.847   2.273   0.760 -0.7378 -0.1422 -0.0365
  855SOL     OW 3417   2.644   2.316   0.335  0.6967 -0.2082 -0.3533
  855SOL    HW1 3418   2.630   2.312   0.430 -1.3992 -1.7444  1.8671
  855SOL    HW2 3419   2.720   2.258   0.305 -0.1953  1.4500 -1.2740
  855SOL     MW 3420   2.652   2.308   0.344  0.3025 -0.1921 -0.1818
  856SOL     OW 3421   2.117   1.922   0.223  0.0978 -0.5703 -0.4928
  856SOL    HW1 3422   2.030   1.921   0.262 -0.4334 -0.4801  1.0067
  856SOL    HW2 3423   2.165   1.982   0.286 -1.3787 -1.0108  0.9902
  856SOL     MW 3424   2.112   1.930   0.237 -0.1671 -0.6165 -0.0993
  857SOL     OW 3425   2.463   1.964   0.548  0.1249 -0.0054 -0.1085
  857SOL    HW1 3426   2.414   2.008   0.470 -0.3529 -1.3840  1.1915
  857SOL    HW2 3427   2.386   1.955   0.616 -1.7622  0.1939 -0.9439
  857SOL     MW 3428   2.446   1.969   0.546 -0.1872 -0.1610 -0.0472
  858SOL     OW 3429   2.898   2.704   1.760 -0.2062  0.0438  0.2574
  858SOL    HW1 3430   2.986   2.722   1.784 -2.1689 -2.3565 -0.4080
  858SOL    HW2 3431   2.884   2.610   1.782 -0.1554 -1.0739  2.3571
  858SOL     MW 3432   2.908   2.694   1.766 -0.4584 -0.4204  0.4466
  859SOL     OW 3433   2.142   2.579   0.949 -0.3469  0.4843  0.6574
  859SOL    HW1 3434   2.117   2.486   0.970  0.8658 -0.1259 -1.5952
  859SOL    HW2 3435   2.205   2.616   1.010 -2.5812  0.9262  1.4165
  859SOL     MW 3436   2.147   2.571   0.960 -0.4817  0.4621  0.4603
  860SOL     OW 3437   2.700   2.622   0.128 -0.1103 -0.1854  0.0646
  860SOL    HW1 3438   2.734   2.622   0.222  0.2784  1.4810  2.9253
  860SOL    HW2 3439   2.717   2.714   0.093  4.2584  3.9852  1.0344
  860SOL     MW 3440   2.707   2.634   0.135  0.5174  0.5847  0.5700
  861SOL     OW 3441   1.605   2.192   1.119  0.0896  0.4852 -0.4397
  861SOL    HW1 3442   1.592   2.273   1.172  1.5713  0.0841  1.3705
  861SOL    HW2 3443   1.560   2.124   1.165  0.3571  0.5754 -0.7795
  861SOL     MW 3444   1.598   2.194   1.132  0.3204  0.4442 -0.2457
  862SOL     OW 3445   2.493   1.784   1.517  0.3364 -0.4070  0.2161
  862SOL    HW1 3446   2.413   1.793   1.569 -0.8001 -0.8431  0.6815
  862SOL    HW2 3447   2.472   1.815   1.428  2.6754 -0.1382 -0.9295
  862SOL     MW 3448   2.480   1.789   1.512  0.4951 -0.4291  0.1263
  863SOL     OW 3449   2.987   1.764   1.048  0.1060  0.1852  0.4636
  863SOL    HW1 3450   3.066   1.780   1.099 -2.5992  0.3541  0.7824
  863SOL    HW2 3451   2.923   1.806   1.107 -1.8032 -0.3125 -1.1014
  863SOL     MW 3452   2.989   1.772   1.062 -0.5028  0.1418  0.2992
  864SOL     OW 3453   0.018   1.830   0.808  0.9086  0.4672  0.1907
  864SOL    HW1 3454  -0.047   1.784   0.862 -0.1082  0.3765  0.8341
  864SOL    HW2 3455  -0.011   1.787   0.725  0.7697 -1.7810  0.9609
  864SOL     MW 3456   0.006   1.818   0.804  0.7561  0.1586  0.3772
  865SOL     OW 3457   2.497   2.192   0.071  0.8437 -0.4324 -0.3003
  865SOL    HW1 3458   2.465   2.118   0.122 -0.3084 -1.7895  0.5227
  865SOL    HW2 3459   2.504   2.149  -0.015  1.7125  3.2844 -1.4163
  865SOL     MW 3460   2.494   2.177   0.066  0.8063 -0.1210 -0.3390
  866SOL     OW 3461   2.664   2.346   1.626 -0.2991  0.4003 -0.1610
  866SOL    HW1 3462   2.636   2.256   1.631 -1.6165  0.2677 -1.2685
  866SOL    HW2 3463   2.704   2.366   1.537  1.9046 -1.4324 -0.5042
  866SOL     MW 3464   2.666   2.337   1.615 -0.1821  0.1410 -0.3524
  867SOL     OW 3465   0.077   2.678   1.781  0.5922 -0.4367  0.4984
  867SOL    HW1 3466   0.133   2.726   1.851  2.3476 -0.9428  1.5218
  867SOL    HW2 3467   0.108   2.720   1.700  2.7564  1.9969  3.1931
  867SOL     MW 3468   0.088   2.690   1.780  1.1094 -0.1824  0.9890
  868SOL     OW 3469   2.750   2.716   0.571  0.0425  0.3719  0.2359
  868SOL    HW1 3470   2.668   2.668   0.543 -2.6226 -0.4954  1.6753
  868SOL    HW2 3471   2.777   2.774   0.498 -0.3574 -1.0061 -3.7589
  868SOL     MW 3472   2.743   2.717   0.557 -0.3619  0.0756 -0.1013
  869SOL     OW 3473   2.080   2.330   1.045 -0.1123 -0.0800 -0.5845
  869SOL    HW1 3474   2.169   2.311   1.010  1.4092 -1.4946 -1.6194
  869SOL    HW2 3475   2.010   2.306   0.980 -2.4968  1.1449  1.2608
  869SOL     MW 3476   2.083   2.324   1.032 -0.2262 -0.1050 -0.4776
  870SOL     OW 3477   2.152   3.100   0.496 -0.2402  0.4216  0.1134
  870SOL    HW1 3478   2.230   3.145   0.454  1.2540  2.9344  0.7863
  870SOL    HW2 3479   2.182   3.012   0.491 -0.1512  1.5158 -1.2802
  870SOL     MW 3480   2.166   3.094   0.490 -0.0313  0.8975  0.0183
  871SOL     OW 3481   2.447   2.078   0.934  0.1635  0.5063 -0.2213
  871SOL    HW1 3482   2.404   2.060   0.852  2.2812  0.4218 -0.2215
  871SOL    HW2 3483   2.426   2.170   0.965  1.0062  1.1942  0.2179
  871SOL     MW 3484   2.439   2.088   0.927  0.5541  0.5860 -0.1634
  872SOL     OW 3485   2.044   2.488   1.516  0.1401  0.4026 -0.4371
  872SOL    HW1 3486   1.977   2.542   1.561 -2.5124 -0.5972 -1.0820
  872SOL    HW2 3487   1.984   2.425   1.468  0.2556 -2.2083  1.0780
  872SOL     MW 3488   2.027   2.487   1.516 -0.1947 -0.0738 -0.3223
  873SOL     OW 3489   2.885   2.051   1.979  0.2752  0.2573 -0.3547
  873SOL    HW1 3490   2.890   2.108   2.059  2.3128  1.8817  1.2692
  873SOL    HW2 3491   2.963   2.064   1.920 -0.1603  4.2845 -0.4212
  873SOL     MW 3492   2.896   2.060   1.981  0.4866  1.0030 -0.1493
  874SOL     OW 3493   2.339   1.419   2.451  0.0287  0.1386 -0.3331
  874SOL    HW1 3494   2.317   1.388   2.367  0.3071  0.1064 -0.5978
  874SOL    HW2 3495   2.416   1.373   2.478 -1.1564  2.2072 -1.5674
  874SOL     MW 3496   2.346   1.409   2.444 -0.0909  0.4073 -0.5309
  875SOL     OW 3497   2.350   2.332   0.981  0.0581  0.2224  0.1456
  875SOL    HW1 3498   2.394   2.385   0.917  0.5259 -0.2832  1.2747
  875SOL    HW2 3499   2.343   2.388   1.059 -0.7843  2.8187 -0.4752
  875SOL     MW 3500   2.355   2.347   0.983  0.0087  0.4983  0.2126
  876SOL     OW 3501   3.080   2.250   1.383 -0.3237  0.5267 -0.3016
  876SOL    HW1 3502   3.105   2.303   1.303 -1.4283 -1.8671 -0.9633
  876SOL    HW2 3503   3.149   2.283   1.446 -1.7005 -0.5235  3.2869
  876SOL     MW 3504   3.093   2.262   1.380 -0.6511  0.0723  0.0846
  877SOL     OW 3505   3.096   2.845   0.301 -0.4778  0.4232  0.4394
  877SOL    HW1 3506   3.167   2.907   0.274 -0.2431 -0.6337  1.5012
  877SOL    HW2 3507   3.090   2.780   0.233  1.1126  1.6378  1.3736
  877SOL     MW 3508   3.105   2.845   0.288 -0.2370  0.4440  0.7028
  878SOL     OW 3509   2.416   1.797   1.246  0.0935 -0.1715 -0.1478
  878SOL    HW1 3510   2.349   1.743   1.284 -0.0037  0.5948 -3.9520
  878SOL    HW2 3511   2.496   1.746   1.264  1.9938 -0.7418 -2.6464
  878SOL     MW 3512   2.417   1.783   1.254  0.3314 -0.1456 -0.9794
  879SOL     OW 3513   2.746   2.450   0.965  0.9605  0.0674  0.3502
  879SOL    HW1 3514   2.803   2.524   0.981 -1.0439  0.3411  3.3965
  879SOL    HW2 3515   2.801   2.377   0.932  1.1327 -2.2919 -0.0783
  879SOL     MW 3516   2.761   2.450   0.963  0.7188 -0.2078  0.6956
  880SOL     OW 3517   2.612   2.159   0.730  0.3969 -0.2185 -0.4363
  880SOL    HW1 3518   2.541   2.136   0.789 -2.9333  1.5430 -0.2749
  880SOL    HW2 3519   2.608   2.103   0.658 -1.2003  3.5229  1.4901
  880SOL     MW 3520   2.602   2.148   0.728 -0.2532  0.5075 -0.1608
  881SOL     OW 3521   2.986   2.716   0.717  0.0113  0.6069 -0.6979
  881SOL    HW1 3522   2.904   2.707   0.674  1.3868 -0.3318  2.3169
  881SOL    HW2 3523   3.051   2.684   0.654  0.9197 -2.8363 -1.2359
  881SOL     MW 3524   2.984   2.711   0.703  0.3126  0.0288 -0.3711
  882SOL     OW 3525   2.243   2.895   1.963  0.2147  0.0829 -0.7661
  882SOL    HW1 3526   2.231   2.900   1.869 -0.8131 -1.3003  2.5898
  882SOL    HW2 3527   2.201   2.812   1.987 -1.4657 -2.0094  0.7619
  882SOL     MW 3528   2.236   2.885   1.954 -0.1426 -0.3757 -0.1217
  883SOL     OW 3529   2.331   2.202   1.376  0.3307  0.1474 -0.6314
  883SOL    HW1 3530   2.411   2.162   1.336 -0.9267 -1.1741  1.6282
  883SOL    HW2 3531   2.260   2.177   1.321 -1.4610  0.0375 -1.7078
  883SOL     MW 3532   2.332   2.193   1.363 -0.0716 -0.0415 -0.4753
  884SOL     OW 3533   1.955   1.818   1.078  0.1535 -0.0969 -0.1232
  884SOL    HW1 3534   1.891   1.892   1.055 -1.2519  3.2681  0.3498
  884SOL    HW2 3535   2.047   1.857   1.068  0.9026  0.3003  0.9347
  884SOL     MW 3536   1.959   1.833   1.074  0.0669  0.3995  0.0788
  885SOL     OW 3537   2.860   2.434   1.810 -0.3514  0.2304 -0.4746
  885SOL    HW1 3538   2.920   2.361   1.812  1.9487  1.8637 -0.8478
  885SOL    HW2 3539   2.802   2.404   1.743  1.6613 -0.3334  1.1226
  885SOL     MW 3540   2.860   2.421   1.801  0.2176  0.3715 -0.3131
  886SOL     OW 3541   2.820   2.398   1.398  0.1224  0.5167 -0.0297
  886SOL    HW1 3542   2.905   2.356   1.394  3.1880 -2.3890 -1.5917
  886SOL    HW2 3543   2.836   2.491   1.414  1.9239 -0.1412 -4.0831
  886SOL     MW 3544   2.833   2.405   1.399  0.7646  0.0465 -0.7706
  887SOL     OW 3545   2.282   2.646   1.558 -0.2698  0.4341 -0.7255
  887SOL    HW1 3546   2.316   2.683   1.473  0.9853 -0.3542 -2.5354
  887SOL    HW2 3547   2.219   2.580   1.535 -0.6642  0.2249  1.6882
  887SOL     MW 3548   2.278   2.643   1.544 -0.1562  0.3025 -0.6459
  888SOL     OW 3549   1.856   2.161   1.402  0.4131  0.5557 -0.5822
  888SOL    HW1 3550   1.939   2.122   1.371 -0.8688 -0.2598  0.8599
  888SOL    HW2 3551   1.879   2.168   1.497  2.4981 -1.1378  0.1145
  888SOL     MW 3552   1.870   2.157   1.411  0.5190  0.2247 -0.3000
  889SOL     OW 3553   2.354   2.023   2.085  0.1199 -0.0529  0.0642
  889SOL    HW1 3554   2.404   2.030   2.164  0.4879  0.2727  1.3022
  889SOL    HW2 3555   2.356   2.105   2.039 -0.1498 -1.4310 -1.1044
  889SOL     MW 3556   2.361   2.034   2.089  0.1328 -0.1917  0.0733
  890SOL     OW 3557   0.080   2.387   0.151 -0.0205 -0.4379 -0.4327
  890SOL    HW1 3558   0.037   2.472   0.144 -2.2307  1.3138 -0.0379
  890SOL    HW2 3559   0.035   2.342   0.225  0.4831  0.8425 -1.0850
  890SOL     MW 3560   0.069   2.392   0.160 -0.2457 -0.0379 -0.4667
  891SOL     OW 3561   3.093   1.990   1.277 -0.2433 -0.6429 -0.5104
  891SOL    HW1 3562   3.184   1.977   1.281  0.5516  0.3642 -0.1390
  891SOL    HW2 3563   3.097   2.082   1.298  2.3345 -0.5791 -1.7555
  891SOL     MW 3564   3.106   2.001   1.280  0.2017 -0.5016 -0.6257
  892SOL     OW 3565   2.456   2.347   2.762  0.1613  0.3109  0.1322
  892SOL    HW1 3566   2.431   2.262   2.803  3.4548  2.2665 -0.8362
  892SOL    HW2 3567   2.552   2.371   2.784 -1.7119  1.0130 -1.1250
  892SOL     MW 3568   2.465   2.339   2.770  0.3487  0.6616 -0.1615
  893SOL     OW 3569   1.590   2.450   1.208 -0.0330  0.2616  0.0543
  893SOL    HW1 3570   1.510   2.461   1.256 -1.1449  0.3153 -1.0628
  893SOL    HW2 3571   1.653   2.503   1.257 -0.1414 -0.2244  1.9045
  893SOL     MW 3572   1.588   2.458   1.220 -0.1940  0.2046  0.1510
  894SOL     OW 3573   2.724   1.872   0.432 -0.2187 -0.0054 -0.0695
  894SOL    HW1 3574   2.632   1.885   0.456  2.1853  0.2659 -1.5161
  894SOL    HW2 3575   2.740   1.844   0.338  0.7067  3.5151 -0.1194
  894SOL     MW 3576   2.714   1.870   0.423  0.2206  0.4949 -0.2669
  895SOL     OW 3577   2.110   2.131   1.244 -0.3765  0.7786  0.7820
  895SOL    HW1 3578   2.102   2.210   1.187 -1.4954  1.1836  1.0296
  895SOL    HW2 3579   2.140   2.061   1.184 -1.1550 -0.9151 -1.5564
  895SOL     MW 3580   2.113   2.132   1.229 -0.6269  0.6086  0.5062
  896SOL     OW 3581   2.322   2.809   1.095  0.1988 -0.0913 -0.2937
  896SOL    HW1 3582   2.367   2.775   1.170  0.2174  2.8642 -1.6980
  896SOL    HW2 3583   2.290   2.883   1.130  0.7890 -2.3160 -1.1423
  896SOL     MW 3584   2.324   2.815   1.109  0.2791  0.0051 -0.5909
  897SOL     OW 3585   3.054   3.043   3.053  0.1234 -0.2821 -0.3401
  897SOL    HW1 3586   3.091   2.965   3.011 -1.4682 -0.1984  0.5756
  897SOL    HW2 3587   2.973   3.021   3.013  1.7671  3.2146 -1.1071
  897SOL     MW 3588   3.048   3.030   3.042  0.1303  0.1903 -0.3205
  898SOL     OW 3589   2.088   0.186   1.478 -0.6339 -0.2137  0.1509
  898SOL    HW1 3590   2.049   0.103   1.505  0.1954  0.5673 -0.5961
  898SOL    HW2 3591   2.102   0.180   1.385 -0.3785 -0.3142  2.1716
  898SOL     MW 3592   2.085   0.174   1.470 -0.4908 -0.1239  0.3190
  899SOL     OW 3593   2.945   2.971   0.621  0.7462  0.0417  0.2225
  899SOL    HW1 3594   2.972   2.886   0.666  1.2612  1.5270 -1.8711
  899SOL    HW2 3595   2.868   3.009   0.661  1.9247  1.1729  1.2653
  899SOL     MW 3596   2.939   2.965   0.632  0.9696  0.3870  0.0839
  900SOL     OW 3597   0.061   2.401   1.136 -0.8730 -0.1064  0.2849
  900SOL    HW1 3598   0.041   2.499   1.133 -0.7374 -0.0910  1.8616
  900SOL    HW2 3599   0.048   2.359   1.051 -0.2863  0.4998 -1.1667
  900SOL     MW 3600   0.057   2.408   1.125 -0.7777 -0.0244  0.3014
  901SOL     OW 3601   1.739   2.843   1.777  0.1090  0.1113  0.3247
  901SOL    HW1 3602   1.828   2.799   1.756  3.6080 -1.6996  0.8512
  901SOL    HW2 3603   1.685   2.812   1.704  2.5360 -0.1669 -0.0806
  901SOL     MW 3604   1.744   2.833   1.765  0.8909 -0.1643  0.3407
  902SOL     OW 3605   2.657   2.078   1.819 -0.4295 -0.2837 -0.6935
  902SOL    HW1 3606   2.674   2.040   1.735  0.5131 -1.1349  3.6543
  902SOL    HW2 3607   2.725   2.055   1.880 -1.2169  1.8156  1.1690
  902SOL     MW 3608   2.669   2.070   1.816 -0.4090 -0.1190  0.1259
  903SOL     OW 3609   1.618   2.648   0.648 -0.4426  0.3499  0.1664
  903SOL    HW1 3610   1.716   2.648   0.643 -2.2000 -0.1138 -0.5272
  903SOL    HW2 3611   1.585   2.701   0.726 -2.9814 -0.4080  0.3269
  903SOL     MW 3612   1.627   2.655   0.658 -1.0094  0.1887  0.0961
  904SOL     OW 3613   2.531   2.601   1.664  0.1870 -0.4501 -0.1880
  904SOL    HW1 3614   2.452   2.605   1.613  1.3616  0.9785  0.2001
  904SOL    HW2 3615   2.602   2.543   1.626  0.2032 -2.0234 -0.1038
  904SOL     MW 3616   2.530   2.594   1.652  0.3441 -0.4692 -0.1257
  905SOL     OW 3617   2.268   2.508   2.128  0.7485 -0.1638 -0.3603
  905SOL    HW1 3618   2.323   2.473   2.061 -2.9942  1.2486  0.4213
  905SOL    HW2 3619   2.247   2.431   2.182  0.6675 -1.6076 -0.2542
  905SOL     MW 3620   2.273   2.493   2.127  0.2440 -0.1679 -0.2432
  906SOL     OW 3621   2.512   2.483   0.841 -0.4319  0.6603 -0.7239
  906SOL    HW1 3622   2.598   2.466   0.887  0.1082 -0.0850 -0.0900
  906SOL    HW2 3623   2.499   2.575   0.851  1.3472 -1.8794  1.7085
  906SOL     MW 3624   2.521   2.493   0.849 -0.1259  0.2269 -0.3194
  907SOL     OW 3625   2.656   2.843   1.339 -0.3987  0.1549 -0.8139
  907SOL    HW1 3626   2.715   2.896   1.396 -1.1354 -0.0473 -1.0807
  907SOL    HW2 3627   2.700   2.854   1.253 -0.5634 -0.0010  2.0737
  907SOL     MW 3628   2.669   2.852   1.335 -0.5177  0.1076 -0.4681
  908SOL     OW 3629   2.713   2.346   0.021 -0.4578  0.1680  0.1324
  908SOL    HW1 3630   2.631   2.313   0.053 -1.0665  0.3092 -0.7392
  908SOL    HW2 3631   2.718   2.439   0.058  1.7875  1.9869  0.2218
  908SOL     MW 3632   2.703   2.354   0.030 -0.2419  0.4266  0.0292
  909SOL     OW 3633   1.731   0.055   1.196  0.9377 -0.4320 -0.0507
  909SOL    HW1 3634   1.736   0.135   1.140 -2.0159  1.1892 -1.2000
  909SOL    HW2 3635   1.693   0.079   1.285  0.3541  0.9936 -1.1503
  909SOL     MW 3636   1.726   0.069   1.200  0.4710 -0.0300 -0.3474
  910SOL     OW 3637   2.228   1.759   0.401 -0.1269 -0.2516 -0.2175
  910SOL    HW1 3638   2.177   1.675   0.404 -1.0200  1.0468 -2.1475
  910SOL    HW2 3639   2.178   1.817   0.344  0.8917  1.2570  0.9123
  910SOL     MW 3640   2.215   1.756   0.394 -0.1103  0.1188 -0.3231
  911SOL     OW 3641   2.266   2.093   1.626 -0.4231 -0.3467 -0.7859
  911SOL    HW1 3642   2.320   2.130   1.701  2.2257 -0.7506  1.0565
  911SOL    HW2 3643   2.296   2.128   1.542  0.6977 -1.2203 -0.2469
  911SOL     MW 3644   2.277   2.102   1.625  0.0743 -0.5152 -0.4717
  912SOL     OW 3645   2.941   1.922   1.486  0.3282  0.1054 -0.2718
  912SOL    HW1 3646   2.958   1.956   1.406  1.6465 -2.0990  3.1448
  912SOL    HW2 3647   2.861   1.967   1.512 -1.2721  1.3936 -0.8543
  912SOL     MW 3648   2.933   1.933   1.479  0.2910 -0.0155  0.1021
  913SOL     OW 3649   2.621   3.051   0.351 -0.3353 -0.0782 -0.0019
  913SOL    HW1 3650   2.700   2.985   0.343  0.6091 -2.4978  0.2695
  913SOL    HW2 3651   2.569   3.017   0.280  3.4459  2.1087  1.3420
  913SOL     MW 3652   2.625   3.038   0.341  0.2882 -0.1089  0.2112
  914SOL     OW 3653   2.716   1.769   3.026 -0.3831  0.4517 -0.3920
  914SOL    HW1 3654   2.746   1.847   2.982 -0.1930 -0.7269 -2.1467
  914SOL    HW2 3655   2.637   1.750   2.987  0.0688  0.6837  0.5119
  914SOL     MW 3656   2.710   1.777   3.015 -0.2984  0.3268 -0.5043
  915SOL     OW 3657   1.701   0.224   0.249  0.1711 -0.2413 -0.1984
  915SOL    HW1 3658   1.769   0.156   0.284  0.9978 -0.8916  1.2206
  915SOL    HW2 3659   1.625   0.168   0.237  1.5991 -1.0627 -1.8147
  915SOL     MW 3660   1.700   0.208   0.252  0.4686 -0.4355 -0.2244
  916SOL     OW 3661   1.835   2.131   1.963  0.0403 -0.1997  0.4288
  916SOL    HW1 3662   1.886   2.203   1.922 -0.3210  1.9665  0.3918
  916SOL    HW2 3663   1.824   2.062   1.899 -0.5343 -0.2151  0.5184
  916SOL     MW 3664   1.841   2.132   1.949 -0.0832  0.0840  0.4357
  917SOL     OW 3665   2.487   2.196   2.532 -0.5236 -0.2718  0.6270
  917SOL    HW1 3666   2.474   2.256   2.608  1.0881 -1.7693 -0.4810
  917SOL    HW2 3667   2.569   2.225   2.491 -0.7642 -2.4733  1.2279
  917SOL     MW 3668   2.496   2.208   2.537 -0.3427 -0.7598  0.5601
  918SOL     OW 3669   1.955   1.592   2.685 -0.2255  0.0268 -0.3924
  918SOL    HW1 3670   1.899   1.658   2.636 -1.5352 -0.0815  4.0009
  918SOL    HW2 3671   2.048   1.629   2.684 -1.0178 -1.9369  1.1525
  918SOL     MW 3672   1.959   1.605   2.679 -0.5029 -0.2466  0.3911
  919SOL     OW 3673   3.070   2.350   2.286  0.0725  0.1610  0.9041
  919SOL    HW1 3674   3.010   2.279   2.266 -0.6013  0.2503 -2.8389
  919SOL    HW2 3675   3.117   2.370   2.198  1.7367 -0.1614 -3.0075
  919SOL     MW 3676   3.068   2.344   2.272  0.2032  0.1302 -0.1058
  920SOL     OW 3677   2.706   2.862   3.097  0.1907  0.3062 -0.4115
  920SOL    HW1 3678   2.615   2.855   3.133 -0.8477  0.2304  1.9484
  920SOL    HW2 3679   2.707   2.798   3.021  0.3056 -1.9486  1.0178
  920SOL     MW 3680   2.694   2.853   3.092  0.0688 -0.0013  0.0885
  921SOL     OW 3681   2.420   2.625   2.612  0.0507  0.1246 -0.2660
  921SOL    HW1 3682   2.490   2.620   2.549 -0.4566  1.1068  2.6308
  921SOL    HW2 3683   2.435   2.546   2.670  0.3064  0.9782 -1.0136
  921SOL     MW 3684   2.431   2.614   2.611  0.0175  0.3668  0.0176
  922SOL     OW 3685   2.038   2.820   0.278 -0.0739  0.4818  0.0738
  922SOL    HW1 3686   2.024   2.851   0.184 -2.5277 -0.2204 -0.4330
  922SOL    HW2 3687   2.042   2.721   0.270  1.0495 -0.8910  0.7083
  922SOL     MW 3688   2.036   2.811   0.264 -0.2494  0.2080  0.0906
  923SOL     OW 3689   2.191   2.888   1.689  0.3106  0.6050  0.0337
  923SOL    HW1 3690   2.207   2.809   1.637  1.4281 -0.2251 -0.4763
  923SOL    HW2 3691   2.140   2.953   1.636 -2.2244 -0.8607  1.4679
  923SOL     MW 3692   2.186   2.886   1.675  0.1236  0.3021  0.1556
  924SOL     OW 3693   1.141   2.727   2.559 -0.0756  0.2430  0.7669
  924SOL    HW1 3694   1.222   2.789   2.540  1.6707  1.9711 -1.7870
  924SOL    HW2 3695   1.160   2.670   2.638  0.4698 -3.1741  0.3393
  924SOL     MW 3696   1.154   2.728   2.567  0.2268  0.0201  0.3735
  925SOL     OW 3697   3.051   0.188   2.638 -0.0175  0.3057  0.4998
  925SOL    HW1 3698   2.998   0.226   2.567 -1.4917 -1.8496 -1.0829
  925SOL    HW2 3699   3.050   0.252   2.703 -2.3959 -1.0194 -0.0254
  925SOL     MW 3700   3.044   0.202   2.637 -0.5258 -0.1535  0.2217
  926SOL     OW 3701   2.705   2.434   2.051  0.0177 -0.4069 -0.3526
  926SOL    HW1 3702   2.752   2.495   2.106 -1.1440  2.1508  0.1592
  926SOL    HW2 3703   2.760   2.420   1.967 -1.2145 -0.6955 -2.0986
  926SOL     MW 3704   2.718   2.440   2.047 -0.2982 -0.1075 -0.5155
  927SOL     OW 3705   2.324   0.133   0.338  0.4226  0.3852  0.1331
  927SOL    HW1 3706   2.407   0.170   0.347 -1.9255  0.0634  0.8421
  927SOL    HW2 3707   2.313   0.117   0.247  1.3079 -0.1920  0.3305
  927SOL     MW 3708   2.334   0.136   0.327  0.2296  0.2666  0.2527
  928SOL     OW 3709   2.184   2.382   1.756 -0.0096  0.5330 -0.0502
  928SOL    HW1 3710   2.168   2.377   1.658 -1.5325 -0.8721  0.0218
  928SOL    HW2 3711   2.224   2.465   1.783  0.4004  0.6059 -2.2771
  928SOL     MW 3712   2.187   2.392   1.747 -0.1564  0.3573 -0.3346
  929SOL     OW 3713   2.731   2.296   2.450  0.2058  0.1024  0.0180
  929SOL    HW1 3714   2.761   2.269   2.360 -1.6209 -1.1415 -3.0221
  929SOL    HW2 3715   2.809   2.306   2.505  0.1271  1.2691 -0.8542
  929SOL     MW 3716   2.745   2.293   2.445 -0.0456  0.0922 -0.4982
  930SOL     OW 3717   2.019   2.851   2.730 -0.0124  0.0453 -0.8149
  930SOL    HW1 3718   2.027   2.758   2.769  0.7803 -1.5935  1.0513
  930SOL    HW2 3719   2.108   2.880   2.712 -0.6771  0.3575  1.1600
  930SOL     MW 3720   2.032   2.842   2.733  0.0045 -0.1297 -0.3081
  931SOL     OW 3721   3.027   2.722   2.407 -0.1493 -0.6132  0.7526
  931SOL    HW1 3722   3.070   2.747   2.490 -0.1337  1.5943 -0.0431
  931SOL    HW2 3723   3.100   2.680   2.351  3.8541  2.3249 -4.0788
  931SOL     MW 3724   3.042   2.719   2.410  0.3810  0.0657  0.0102
  932SOL     OW 3725   2.940   1.918   2.484  0.4108 -0.0670  0.0602
  932SOL    HW1 3726   3.021   1.968   2.477  0.7877 -0.4554 -1.6219
  932SOL    HW2 3727   2.882   1.939   2.411  0.8510 -1.3746  0.5627
  932SOL     MW 3728   2.943   1.927   2.474  0.5186 -0.2908 -0.0954
  933SOL     OW 3729   2.055   2.810   2.206 -0.3649 -0.2947 -0.0299
  933SOL    HW1 3730   2.134   2.841   2.242 -0.0589 -1.1812 -1.4275
  933SOL    HW2 3731   1.989   2.877   2.216  4.8108  0.3978  0.0057
  933SOL     MW 3732   2.056   2.823   2.212  0.3584 -0.3203 -0.2096
  934SOL     OW 3733   2.009   2.719   2.468  0.1261 -0.9149 -0.2356
  934SOL    HW1 3734   2.050   2.782   2.534  2.2427  0.6885 -2.0056
  934SOL    HW2 3735   2.031   2.751   2.382 -0.8003  1.5436  1.8791
  934SOL     MW 3736   2.017   2.731   2.465  0.2832 -0.3789 -0.1901
  935SOL     OW 3737   2.685   1.567   1.855 -0.4505 -0.0427  0.2755
  935SOL    HW1 3738   2.774   1.570   1.885 -0.1558  0.5500 -3.9605
  935SOL    HW2 3739   2.691   1.573   1.759  3.2852 -0.5396 -0.7221
  935SOL     MW 3740   2.698   1.568   1.846  0.0812 -0.0300 -0.4150
  936SOL     OW 3741   2.982   2.230   0.004  0.4122  0.2910  0.0409
  936SOL    HW1 3742   3.019   2.296   0.064  2.0758  1.0562  0.7748
  936SOL    HW2 3743   2.886   2.246  -0.007  1.2476 -0.4537 -0.7631
  936SOL     MW 3744   2.974   2.241   0.010  0.7419  0.2937  0.0316
  937SOL     OW 3745   1.972   2.139   2.641 -0.4777  0.5770  0.6960
  937SOL    HW1 3746   2.050   2.101   2.681 -0.4547 -0.3197  0.6694
  937SOL    HW2 3747   1.968   2.111   2.553  1.3696 -1.4396 -1.8490
  937SOL     MW 3748   1.982   2.130   2.635 -0.2309  0.1926  0.3567
  938SOL     OW 3749   2.284   1.812   1.936 -0.1762 -0.0834 -0.3980
  938SOL    HW1 3750   2.283   1.840   1.845  0.9705 -2.5175  0.9602
  938SOL    HW2 3751   2.311   1.885   1.992  0.7823 -0.3439 -0.9699
  938SOL     MW 3752   2.288   1.825   1.932  0.1015 -0.4389 -0.2942
  939SOL     OW 3753   2.769   1.977   2.278  0.1797  0.1365 -0.0762
  939SOL    HW1 3754   2.788   1.936   2.195  0.7030  1.6486  0.2135
  939SOL    HW2 3755   2.670   1.972   2.295 -4.1999  0.6448 -0.1054
  939SOL     MW 3756   2.758   1.971   2.270 -0.3291  0.4031 -0.0418
  940SOL     OW 3757   2.297   0.156   2.676  0.3346 -0.0892  0.0980
  940SOL    HW1 3758   2.264   0.070   2.657  0.8718  1.8175  0.9855
  940SOL    HW2 3759   2.348   0.162   2.753  1.5629  1.4311  0.9956
  940SOL     MW 3760   2.299   0.146   2.684  0.5676  0.3629  0.3335
  941SOL     OW 3761   0.106   2.445   2.071  0.3659 -0.0474  0.6883
  941SOL    HW1 3762   0.190   2.408   2.085 -2.1047  0.0146 -1.0436
  941SOL    HW2 3763   0.092   2.422   1.976 -0.6945  0.4916  0.4822
  941SOL     MW 3764   0.115   2.437   2.060 -0.1000  0.0319  0.4326
  942SOL     OW 3765   2.855   2.220   2.217 -0.2573 -0.1388  0.2889
  942SOL    HW1 3766   2.788   2.268   2.171 -0.2403  0.6671  2.9615
  942SOL    HW2 3767   2.831   2.123   2.237 -1.3523  1.1429 -0.1954
  942SOL     MW 3768   2.843   2.214   2.213 -0.3995  0.1366  0.5776
  943SOL     OW 3769   0.259   2.116   2.279 -0.0605  0.1823 -0.1990
  943SOL    HW1 3770   0.217   2.176   2.348 -2.7956  0.5652  1.8807
  943SOL    HW2 3771   0.355   2.107   2.307 -0.5572  0.6543 -0.3716
  943SOL     MW 3772   0.266   2.122   2.292 -0.4869  0.2951  0.0526
  944SOL     OW 3773   2.078   2.645   1.978  0.0310 -0.4662 -0.0099
  944SOL    HW1 3774   2.134   2.588   2.027 -4.0088 -1.3973  2.8019
  944SOL    HW2 3775   2.047   2.704   2.045  2.2503 -2.6430 -0.4136
  944SOL     MW 3776   2.081   2.645   1.993 -0.2092 -0.8762  0.3078
  945SOL     OW 3777   2.722   2.664   2.901  0.0597 -0.2756  0.0253
  945SOL    HW1 3778   2.736   2.564   2.900 -1.1445 -0.9582 -1.3829
  945SOL    HW2 3779   2.744   2.690   2.810 -0.3550 -0.2390 -1.3908
  945SOL     MW 3780   2.727   2.654   2.888 -0.1539 -0.3608 -0.3473
  946SOL     OW 3781   2.474   2.693   2.245 -0.3607  0.2485  0.2888
  946SOL    HW1 3782   2.500   2.751   2.174  1.7824 -1.5060  1.1456
  946SOL    HW2 3783   2.400   2.627   2.206  0.0009 -1.5173 -1.4347
  946SOL     MW 3784   2.468   2.692   2.230 -0.0302 -0.2160  0.1744
  947SOL     OW 3785   1.929   0.053   0.306  0.4128 -0.2769  0.1328
  947SOL    HW1 3786   1.943  -0.019   0.252 -1.0450  0.2080 -0.7992
  947SOL    HW2 3787   2.000   0.048   0.376  2.3052  0.3286 -1.2164
  947SOL     MW 3788   1.940   0.043   0.308  0.4701 -0.1330 -0.1682
  948SOL     OW 3789   1.783   3.023   2.675  0.2496 -0.4550  0.4783
  948SOL    HW1 3790   1.821   2.938   2.657 -1.0472  0.4918  0.8713
  948SOL    HW2 3791   1.795   3.065   2.582  0.0657  2.2955 -0.4254
  948SOL     MW 3792   1.790   3.018   2.660  0.0542  0.0328  0.4109
  949SOL     OW 3793   2.506   1.917   2.311 -0.0183  0.4385  0.3716
  949SOL    HW1 3794   2.504   1.823   2.329  0.4530  1.2318  1.5808
  949SOL    HW2 3795   2.414   1.942   2.332 -0.2143  2.2714  1.3294
  949SOL     MW 3796   2.494   1.908   2.316  0.0180  0.7850  0.6576
  950SOL     OW 3797   2.333   2.557   2.920  0.5583  0.8480 -0.0317
  950SOL    HW1 3798   2.367   2.476   2.883 -1.5733  0.4721 -1.1979
  950SOL    HW2 3799   2.245   2.568   2.889  0.9436  1.7310 -1.5956
  950SOL     MW 3800   2.326   2.548   2.911  0.3279  0.9149 -0.3919
  951SOL     OW 3801   3.056   2.119   2.857  0.1464  0.3983  0.6362
  951SOL    HW1 3802   3.048   2.145   2.947  1.4469  0.3507 -0.6846
  951SOL    HW2 3803   3.109   2.039   2.850 -1.7876  0.4905  0.3509
  951SOL     MW 3804   3.062   2.112   2.868  0.0628  0.4042  0.4243
  952SOL     OW 3805   3.028   1.696   2.149 -0.1496  0.0909 -0.4435
  952SOL    HW1 3806   2.945   1.724   2.109  1.1709 -4.1697 -2.3629
  952SOL    HW2 3807   3.057   1.774   2.197 -1.1316 -1.0189 -0.8440
  952SOL     MW 3808   3.021   1.710   2.150 -0.1049 -0.6177 -0.7496
  953SOL     OW 3809   1.924   1.766   2.889  0.0408 -0.3407 -0.8488
  953SOL    HW1 3810   1.837   1.732   2.925  1.6511 -1.6999  0.8791
  953SOL    HW2 3811   1.947   1.695   2.826  1.0322 -0.1100  1.5813
  953SOL     MW 3812   1.916   1.752   2.885  0.3840 -0.4896 -0.3002
  954SOL     OW 3813   2.390   2.089   2.849  0.1323  0.6778 -0.0617
  954SOL    HW1 3814   2.304   2.067   2.812  2.7772  1.9322  3.1491
  954SOL    HW2 3815   2.456   2.060   2.793 -0.7809  0.6163  0.2429
  954SOL     MW 3816   2.387   2.082   2.837  0.3608  0.8352  0.4021
  955SOL     OW 3817   1.539   1.625   2.569  0.4137  0.3435 -0.0680
  955SOL    HW1 3818   1.496   1.654   2.483 -3.1508  0.3258 -0.3464
  955SOL    HW2 3819   1.635   1.654   2.564  2.1499 -1.0903  0.3742
  955SOL     MW 3820   1.546   1.633   2.557  0.1725  0.1520 -0.0464
  956SOL     OW 3821   2.721   2.396   2.839 -0.0331 -0.0390  0.1956
  956SOL    HW1 3822   2.725   2.350   2.927  0.5896  0.2204 -0.7141
  956SOL    HW2 3823   2.795   2.338   2.795  1.5670 -0.3096 -2.6218
  956SOL     MW 3824   2.732   2.382   2.845  0.2602 -0.0405 -0.2961
  957SOL     OW 3825   2.242   2.860   0.449 -0.3335  0.0094  0.1060
  957SOL    HW1 3826   2.171   2.846   0.391  0.9498 -3.2734  1.6033
  957SOL    HW2 3827   2.252   2.797   0.521  0.0098 -1.9198 -0.1280
  957SOL     MW 3828   2.234   2.850   0.451 -0.1189 -0.6783  0.2727
  958SOL     OW 3829   2.078   2.586   2.835 -0.2954  0.5216  0.0757
  958SOL    HW1 3830   2.055   2.516   2.778  2.8479 -4.0430  0.9327
  958SOL    HW2 3831   2.011   2.594   2.907 -1.8889  0.1484 -0.1144
  958SOL     MW 3832   2.066   2.578   2.837 -0.0909 -0.1299  0.1637
  959SOL     OW 3833   2.472   2.714   0.390 -0.2389  0.6873  0.3284
  959SOL    HW1 3834   2.456   2.719   0.299 -0.7565  2.0003 -1.3432
  959SOL    HW2 3835   2.406   2.780   0.418 -2.3386  0.0672 -0.4942
  959SOL     MW 3836   2.461   2.724   0.381 -0.5842  0.7787 -0.0007
  960SOL     OW 3837   1.879   2.335   2.316 -0.2402  0.1915 -0.1616
  960SOL    HW1 3838   1.878   2.241   2.312  0.0881  0.0250  0.0482
  960SOL    HW2 3839   1.825   2.340   2.395 -0.5575 -1.1622 -1.5489
  960SOL     MW 3840   1.872   2.323   2.326 -0.2388 -0.0090 -0.3170
  961SOL     OW 3841   2.171   2.322   2.318 -0.1842  0.6129  0.0358
  961SOL    HW1 3842   2.078   2.311   2.316 -0.1947 -1.4111  1.4870
  961SOL    HW2 3843   2.185   2.383   2.393  0.1180 -0.6797 -1.5668
  961SOL     MW 3844   2.161   2.328   2.327 -0.1457  0.1754  0.0158
  962SOL     OW 3845   2.162   1.980   2.771  0.6623  0.5449 -0.2192
  962SOL    HW1 3846   2.146   1.968   2.868  0.5078 -0.6310  1.0365
  962SOL    HW2 3847   2.178   1.891   2.733  3.1756 -0.9841 -2.0242
  962SOL     MW 3848   2.162   1.967   2.779  0.9735  0.1880 -0.2917
  963SOL     OW 3849   1.773   2.484   2.102  0.6709 -0.0390 -0.1105
  963SOL    HW1 3850   1.840   2.433   2.157  2.0831 -1.4692 -3.1897
  963SOL    HW2 3851   1.806   2.477   2.013 -2.2981  0.1375 -1.9819
  963SOL     MW 3852   1.786   2.476   2.098  0.4655 -0.2044 -0.7637
  964SOL     OW 3853   1.809   1.944   2.741  0.6450  0.2351  0.1062
  964SOL    HW1 3854   1.878   2.006   2.713 -0.9027  0.2444 -2.2276
  964SOL    HW2 3855   1.841   1.878   2.805 -1.8932 -1.4732  1.7433
  964SOL     MW 3856   1.822   1.943   2.746  0.1059  0.0110  0.0143
  965SOL     OW 3857   2.272   2.688   0.644  0.0869 -0.0192  0.1519
  965SOL    HW1 3858   2.264   2.592   0.638  1.1305 -1.1576  0.8413
  965SOL    HW2 3859   2.343   2.692   0.707 -0.2816 -0.9436  0.9436
  965SOL     MW 3860   2.280   2.676   0.651  0.1760 -0.2913  0.3473
  966SOL     OW 3861   2.656   2.604   2.444  0.1236 -0.2042 -0.9342
  966SOL    HW1 3862   2.594   2.605   2.363  1.0589  1.6763  2.3731
  966SOL    HW2 3863   2.690   2.514   2.449 -0.9733 -1.7244  0.0160
  966SOL     MW 3864   2.652   2.593   2.434  0.1023 -0.1566 -0.3724
  967SOL     OW 3865   2.788   3.099   2.955 -0.3257 -0.1267 -0.2930
  967SOL    HW1 3866   2.751   3.037   3.020  4.5541 -0.0145  0.9464
  967SOL    HW2 3867   2.723   3.118   2.895  0.9394 -1.9968  1.9431
  967SOL     MW 3868   2.775   3.094   2.956  0.4851 -0.3586  0.1656
  968SOL     OW 3869   2.994   2.629   2.954  1.0906  0.2984  0.2532
  968SOL    HW1 3870   2.901   2.650   2.933  0.5252 -2.3302  0.4475
  968SOL    HW2 3871   3.021   2.570   2.877  1.9759 -1.4908 -1.2272
  968SOL     MW 3872   2.986   2.624   2.941  1.1328 -0.2845  0.0835
  969SOL     OW 3873   1.609   2.171   1.659  0.1222 -0.3282 -0.0184
  969SOL    HW1 3874   1.677   2.102   1.674 -1.0332  0.4762  0.8229
  969SOL    HW2 3875   1.573   2.188   1.749 -0.9291 -0.0796  1.9400
  969SOL     MW 3876   1.613   2.164   1.673 -0.1690 -0.1893  0.3510
  970SOL     OW 3877   1.738   1.800   1.926  0.2480  0.4657 -0.2873
  970SOL    HW1 3878   1.798   1.741   1.969 -4.8154  2.2654 -0.6927
  970SOL    HW2 3879   1.654   1.764   1.945  3.2836  2.6523 -0.0646
  970SOL     MW 3880   1.735   1.787   1.934 -0.0196  0.9916 -0.3114
  971SOL     OW 3881   1.781   0.037   2.422 -0.0174  0.1023 -0.6235
  971SOL    HW1 3882   1.812  -0.015   2.347  0.7659  1.0993 -1.3483
  971SOL    HW2 3883   1.846   0.108   2.431  0.9998  0.5777 -0.6276
  971SOL     MW 3884   1.793   0.040   2.413  0.2201  0.2965 -0.7196
  972SOL     OW 3885   0.267   2.880   2.465 -0.4894  0.8580  0.5978
  972SOL    HW1 3886   0.330   2.807   2.475 -0.2017 -1.9061  0.0679
  972SOL    HW2 3887   0.326   2.955   2.456 -1.4704 -0.5985 -0.9885
  972SOL     MW 3888   0.283   2.880   2.465 -0.5809  0.3011  0.3186
  973SOL     OW 3889   2.621   0.022   2.083  0.3876 -0.2066  0.3891
  973SOL    HW1 3890   2.611  -0.070   2.055 -0.4290  1.7772  1.0561
  973SOL    HW2 3891   2.616   0.079   2.006  1.4808 -0.4501  2.1454
  973SOL     MW 3892   2.619   0.017   2.069  0.4241  0.0230  0.7088
  974SOL     OW 3893   2.053   0.260   2.734 -0.2861 -0.5606 -0.0987
  974SOL    HW1 3894   2.131   0.211   2.707 -0.0023 -0.2037  0.5377
  974SOL    HW2 3895   2.009   0.201   2.793  3.5257 -0.3132 -0.2262
  974SOL     MW 3896   2.058   0.246   2.738  0.2543 -0.4809 -0.0316
  975SOL     OW 3897   2.182   2.520   2.492  0.0530  0.0419 -0.4969
  975SOL    HW1 3898   2.260   2.558   2.526 -1.4961  1.2272  0.3835
  975SOL    HW2 3899   2.124   2.597   2.492 -0.9361  0.1423  1.6291
  975SOL     MW 3900   2.185   2.535   2.496 -0.2819  0.2115 -0.1002
  976SOL     OW 3901   0.241   0.380   1.788  0.0311  0.1215  0.2428
  976SOL    HW1 3902   0.287   0.297   1.822  0.5181  0.7627  1.1068
  976SOL    HW2 3903   0.168   0.339   1.744 -2.0263 -0.8981 -0.2344
  976SOL     MW 3904   0.237   0.364   1.787 -0.1761  0.0716  0.2938
  977SOL     OW 3905   1.748   2.677   2.540 -0.1023 -0.1375 -0.6885
  977SOL    HW1 3906   1.736   2.587   2.519 -1.1114  0.1638  0.3366
  977SOL    HW2 3907   1.839   2.703   2.518 -0.2634  3.3593 -1.4570
  977SOL     MW 3908   1.759   2.668   2.534 -0.2567  0.3636 -0.6547
   3.10000   3.10000   3.10000
