977 TIP4P/2005f water molecules t=   0.76000 step= 760
 3908
    1SOL     OW    1   0.237   0.844   3.061  0.6991 -0.5687 -0.0574
    1SOL    HW1    2   0.192   0.850   2.980  2.6888  1.0990  2.9656
    1SOL    HW2    3   0.229   0.755   3.099 -0.4076  1.3540 -0.9851
    1SOL     MW    4   0.230   0.833   3.056  0.8156 -0.0950  0.2191
    2SOL     OW    5   0.291   3.016   1.162  0.8137  0.2393  0.0563
    2SOL    HW1    6   0.367   3.077   1.146 -1.0358  1.2631 -0.1128
    2SOL    HW2    7   0.207   3.063   1.148  0.5803 -0.4174 -3.2421
    2SOL     MW    8   0.290   3.030   1.158  0.5389  0.2878 -0.4012
    3SOL     OW    9   2.645   0.424   0.934  0.1740  0.2700  0.0569
    3SOL    HW1   10   2.672   0.514   0.889 -1.2357  0.6206 -1.0403
    3SOL    HW2   11   2.612   0.453   1.024  1.8594 -0.4111 -0.0562
    3SOL     MW   12   2.644   0.440   0.940  0.2104  0.2264 -0.1028
    4SOL     OW   13   3.044   1.705   0.629 -0.6903  0.0803  0.8435
    4SOL    HW1   14   2.986   1.748   0.563  3.3367 -0.6673  0.6763
    4SOL    HW2   15   3.093   1.647   0.567  0.1183  0.6704 -0.4721
    4SOL     MW   16   3.043   1.703   0.612 -0.0523  0.0595  0.6478
    5SOL     OW   17   1.712   1.505   0.515  0.0360  0.0578  0.0238
    5SOL    HW1   18   1.744   1.481   0.600 -0.1258 -1.6074 -0.1185
    5SOL    HW2   19   1.616   1.469   0.519 -2.3505 -0.2859 -0.3126
    5SOL     MW   20   1.703   1.497   0.527 -0.3002 -0.2072 -0.0394
    6SOL     OW   21   0.855   1.419   0.644 -0.0261  0.4492 -0.0980
    6SOL    HW1   22   0.763   1.430   0.669 -1.2994  0.1818  1.3588
    6SOL    HW2   23   0.874   1.331   0.679 -2.7037 -2.8272 -0.9206
    6SOL     MW   24   0.845   1.409   0.652 -0.5474 -0.0184 -0.0143
    7SOL     OW   25   2.025   1.143   3.069  0.3381  0.1644 -0.8970
    7SOL    HW1   26   2.073   1.195   3.006 -0.0655  0.7343  2.7240
    7SOL    HW2   27   2.066   1.173   3.151 -0.5953 -2.4466  0.4753
    7SOL     MW   28   2.037   1.154   3.072  0.1617 -0.1049 -0.2382
    8SOL     OW   29   0.952   1.338   1.032 -1.0222  0.3417  0.2252
    8SOL    HW1   30   1.027   1.275   1.046  1.2098 -1.0873  2.1462
    8SOL    HW2   31   0.891   1.313   1.101  0.8475  1.7257 -1.1128
    8SOL     MW   32   0.954   1.326   1.043 -0.4810  0.3357  0.3022
    9SOL     OW   33   1.050   0.468   1.376  0.1230  0.3152 -0.0892
    9SOL    HW1   34   1.002   0.395   1.334 -0.4326  0.1725 -1.2129
    9SOL    HW2   35   1.094   0.430   1.452 -1.1065 -0.9881  2.8947
    9SOL     MW   36   1.050   0.454   1.380 -0.1125  0.1244  0.1562
   10SOL     OW   37   0.284   0.806   0.455  0.5570  0.3779  0.0567
   10SOL    HW1   38   0.375   0.806   0.422 -2.6112  0.9889  0.1777
   10SOL    HW2   39   0.284   0.859   0.539 -1.4380  2.4781 -2.2305
   10SOL     MW   40   0.296   0.813   0.462 -0.1242  0.7356 -0.2291
   11SOL     OW   41   0.783   1.152   1.716  0.4190 -0.2581  0.5903
   11SOL    HW1   42   0.827   1.142   1.805 -1.2742  1.5260  1.1362
   11SOL    HW2   43   0.794   1.056   1.675  0.7578 -2.0343 -1.9543
   11SOL     MW   44   0.791   1.138   1.723  0.2403 -0.2571  0.3266
   12SOL     OW   45   0.028   1.057   0.868  0.5134 -0.5764 -0.4714
   12SOL    HW1   46   0.072   1.134   0.918  2.6264  0.6594  1.3176
   12SOL    HW2   47  -0.043   1.101   0.816  1.2269 -1.4870  0.9279
   12SOL     MW   48   0.025   1.073   0.868  0.8864 -0.5335 -0.0507
   13SOL     OW   49   1.859   1.375   1.343  0.0544 -0.3407 -0.2302
   13SOL    HW1   50   1.881   1.328   1.269 -2.0995 -0.3962 -1.2591
   13SOL    HW2   51   1.892   1.462   1.324  0.9697 -2.0970 -0.4124
   13SOL     MW   52   1.866   1.380   1.331 -0.1090 -0.5797 -0.3900
   14SOL     OW   53   0.636   0.380   1.843  0.6665  0.5888  0.2745
   14SOL    HW1   54   0.579   0.301   1.818  1.0885  0.0909  1.0864
   14SOL    HW2   55   0.694   0.349   1.909 -0.2321  0.1365  0.1915
   14SOL     MW   56   0.636   0.365   1.849  0.6036  0.4635  0.3707
   15SOL     OW   57   1.958   0.448   0.975 -0.6765 -0.2276  0.1962
   15SOL    HW1   58   1.944   0.484   1.064 -2.2277  2.6671 -2.8703
   15SOL    HW2   59   2.053   0.453   0.956 -1.8339  1.3706  2.2237
   15SOL     MW   60   1.969   0.453   0.984 -1.0339  0.3652  0.0591
   16SOL     OW   61   0.215   1.838   0.322 -0.3898 -0.3710 -0.0400
   16SOL    HW1   62   0.306   1.811   0.346  1.0236 -0.7790 -0.1751
   16SOL    HW2   63   0.229   1.931   0.356  1.4323  2.2304 -1.9314
   16SOL     MW   64   0.229   1.846   0.330  0.0371 -0.0816 -0.3074
   17SOL     OW   65   1.073   0.927   1.525  0.6929 -0.0369 -0.2398
   17SOL    HW1   66   1.127   0.887   1.593  2.1723  1.3306  1.2715
   17SOL    HW2   67   0.986   0.923   1.557  2.6894 -1.4959 -0.7277
   17SOL     MW   68   1.068   0.921   1.539  1.1515 -0.0490 -0.1048
   18SOL     OW   69   0.087   1.598   0.381 -0.2803 -0.2175 -0.4860
   18SOL    HW1   70   0.130   1.684   0.387 -3.5107  2.7915 -1.5461
   18SOL    HW2   71   0.088   1.578   0.288 -0.5128  1.1801  0.4883
   18SOL     MW   72   0.092   1.607   0.369 -0.7372  0.3639 -0.4973
   19SOL     OW   73   0.123   1.283   0.969  0.0766  0.1998 -0.1746
   19SOL    HW1   74   0.146   1.342   0.897  0.6888 -4.3109  1.4747
   19SOL    HW2   75   0.028   1.303   0.980  2.8913  0.6847  2.1285
   19SOL     MW   76   0.114   1.293   0.961  0.5287 -0.3314  0.3469
   20SOL     OW   77   0.425   2.111   1.167  0.4622  0.1488 -0.2082
   20SOL    HW1   78   0.376   2.027   1.137 -0.6915 -0.2220 -0.7000
   20SOL    HW2   79   0.363   2.147   1.240 -1.8327 -0.6008 -1.6975
   20SOL     MW   80   0.410   2.105   1.172  0.0072  0.0010 -0.4696
   21SOL     OW   81   0.547   0.816   0.354  0.1274  0.2091  0.0318
   21SOL    HW1   82   0.614   0.806   0.426 -0.8919 -1.6626 -1.1511
   21SOL    HW2   83   0.582   0.785   0.272 -0.8073 -2.8321  0.0977
   21SOL     MW   84   0.560   0.811   0.353 -0.1304 -0.4391 -0.1156
   22SOL     OW   85   1.477   0.630   1.096  0.6616  0.0864 -0.1395
   22SOL    HW1   86   1.470   0.600   1.002 -0.8124  1.0493 -3.5404
   22SOL    HW2   87   1.393   0.673   1.108 -0.0838 -1.0400 -0.5533
   22SOL     MW   88   1.465   0.632   1.085  0.3688  0.0648 -0.6428
   23SOL     OW   89   0.042   0.773   0.644 -0.0838  0.0390  0.3840
   23SOL    HW1   90   0.050   0.701   0.706 -3.3370  0.9970 -1.3783
   23SOL    HW2   91   0.109   0.840   0.674  1.7260  0.4995  2.4261
   23SOL     MW   92   0.052   0.772   0.656 -0.2742  0.2262  0.4209
   24SOL     OW   93   1.979   2.206   0.114 -0.1169  0.3032  0.1645
   24SOL    HW1   94   2.014   2.195   0.205  0.9201 -1.3762  1.3176
   24SOL    HW2   95   2.032   2.146   0.060  0.9275 -0.1716  2.5280
   24SOL     MW   96   1.991   2.197   0.119  0.1577  0.0189  0.6284
   25SOL     OW   97   0.229   1.379   0.480  0.1722 -0.5180 -0.1745
   25SOL    HW1   98   0.181   1.455   0.441 -0.7732 -1.3920 -0.0664
   25SOL    HW2   99   0.303   1.367   0.430  0.5738  0.2299  1.7601
   25SOL     MW  100   0.232   1.387   0.468  0.1005 -0.5346  0.0950
   26SOL     OW  101   2.003   0.995   0.376  0.2691 -0.1396 -0.1198
   26SOL    HW1  102   1.945   1.021   0.454 -0.7672 -0.8227 -1.6019
   26SOL    HW2  103   2.056   1.074   0.342  1.6583  1.6974  0.7094
   26SOL     MW  104   2.002   1.009   0.381  0.3157  0.0126 -0.2059
   27SOL     OW  105   2.068   1.432   0.259 -0.2265  0.3884  0.3636
   27SOL    HW1  106   1.985   1.393   0.297 -0.7634 -1.2940  0.6292
   27SOL    HW2  107   2.108   1.481   0.338  0.1057 -0.8341  1.3394
   27SOL     MW  108   2.063   1.434   0.275 -0.2535  0.0051  0.5274
   28SOL     OW  109   0.410   1.068   2.027  0.0075 -0.4775 -0.3179
   28SOL    HW1  110   0.480   1.067   2.088 -1.5026  1.2655  0.3121
   28SOL    HW2  111   0.343   0.995   2.031 -1.6836 -1.8531  2.2258
   28SOL     MW  112   0.411   1.058   2.036 -0.4149 -0.4290  0.1008
   29SOL     OW  113   0.224   1.444   0.764  0.3547  0.0100  0.0611
   29SOL    HW1  114   0.216   1.537   0.749 -0.4003 -0.0776 -2.4345
   29SOL    HW2  115   0.215   1.407   0.673 -1.1393 -1.3041  0.0337
   29SOL     MW  116   0.222   1.451   0.750  0.0580 -0.1749 -0.2718
   30SOL     OW  117   0.786   1.213   1.213  0.1465 -0.0652 -0.1362
   30SOL    HW1  118   0.704   1.199   1.263 -1.1985 -2.0374 -1.3268
   30SOL    HW2  119   0.853   1.222   1.284  0.8144 -0.0144 -0.2919
   30SOL     MW  120   0.784   1.212   1.229  0.0571 -0.3187 -0.3138
   31SOL     OW  121   0.415   0.178   0.189  0.0621 -1.1259 -0.0224
   31SOL    HW1  122   0.403   0.113   0.256  3.2190  1.1946  0.0976
   31SOL    HW2  123   0.416   0.133   0.101  0.2219  0.5490 -1.0731
   31SOL     MW  124   0.414   0.163   0.186  0.4997 -0.5988 -0.1452
   32SOL     OW  125   2.789   0.998   1.131  0.0473  0.1244 -0.1225
   32SOL    HW1  126   2.716   0.930   1.107 -0.6498  0.8878 -2.0915
   32SOL    HW2  127   2.868   0.945   1.105 -0.3084  0.4714  1.3768
   32SOL     MW  128   2.790   0.982   1.124 -0.0916  0.2709 -0.1844
   33SOL     OW  129   1.831   1.298   0.350 -0.1683  0.1979 -0.0474
   33SOL    HW1  130   1.847   1.212   0.389 -0.8956 -0.2303  0.4449
   33SOL    HW2  131   1.823   1.350   0.430 -0.1631 -2.6687 -0.0443
   33SOL     MW  132   1.832   1.294   0.366 -0.2635 -0.2368  0.0180
   34SOL     OW  133   1.247   1.863   1.061  0.0770 -0.1358 -0.5520
   34SOL    HW1  134   1.155   1.887   1.071  3.2811  1.9686 -0.3300
   34SOL    HW2  135   1.290   1.884   1.147  1.5665 -0.8663  0.7061
   34SOL     MW  136   1.240   1.869   1.073  0.6963  0.0455 -0.3567
   35SOL     OW  137   0.439   0.177   1.881 -0.1570  0.1971  0.2854
   35SOL    HW1  138   0.399   0.122   1.950  2.0985 -1.6947 -0.3479
   35SOL    HW2  139   0.468   0.117   1.814  0.3736 -2.4689  0.8860
   35SOL     MW  140   0.438   0.162   1.881  0.2106 -0.4043  0.2811
   36SOL     OW  141   1.894   1.932   0.529  0.6374 -0.0299  0.4549
   36SOL    HW1  142   1.924   1.945   0.441 -0.1478  1.0635  0.2290
   36SOL    HW2  143   1.937   1.847   0.560 -0.0110 -0.0878 -2.0455
   36SOL     MW  144   1.904   1.923   0.522  0.4482  0.1067  0.0952
   37SOL     OW  145   1.749   1.995   1.029 -0.3036 -0.4692  0.0113
   37SOL    HW1  146   1.722   1.941   0.953 -0.8275  0.4573  1.7310
   37SOL    HW2  147   1.673   2.036   1.064  1.8887 -0.7314  1.3132
   37SOL     MW  148   1.736   1.993   1.023 -0.0835 -0.3816  0.4099
   38SOL     OW  149   2.786   0.907   0.123 -0.4811  0.7259 -0.3022
   38SOL    HW1  150   2.840   0.922   0.202 -1.8955 -3.2666  0.3612
   38SOL    HW2  151   2.845   0.870   0.057  2.7988  1.0648 -0.2767
   38SOL     MW  152   2.801   0.904   0.125 -0.2350  0.2438 -0.2113
   39SOL     OW  153   1.425   0.608   0.790  0.1856 -0.0058  0.4326
   39SOL    HW1  154   1.404   0.512   0.802 -0.4126  0.7311 -0.7720
   39SOL    HW2  155   1.340   0.638   0.759 -1.4679 -2.6120 -0.9040
   39SOL     MW  156   1.411   0.600   0.787 -0.1115 -0.2524  0.0973
   40SOL     OW  157   1.153   1.913   0.257  0.3419 -0.0058  0.4694
   40SOL    HW1  158   1.198   1.861   0.318  0.7170 -0.2873 -1.0420
   40SOL    HW2  159   1.109   1.986   0.305 -0.0034 -0.4680 -1.9859
   40SOL     MW  160   1.153   1.915   0.271  0.3459 -0.1039 -0.0540
   41SOL     OW  161   0.624   0.550   1.581  0.1006  0.0263  0.5122
   41SOL    HW1  162   0.720   0.572   1.574 -0.0804 -0.4296  1.8093
   41SOL    HW2  163   0.626   0.487   1.648 -0.1302  3.8818  1.0331
   41SOL     MW  164   0.637   0.545   1.589  0.0463  0.4748  0.7520
   42SOL     OW  165   1.250   3.035   1.969  0.4723 -0.0371  0.1725
   42SOL    HW1  166   1.167   2.998   2.000 -0.0408 -2.7777 -2.4373
   42SOL    HW2  167   1.318   2.973   2.009  0.2287 -0.9295  2.5924
   42SOL     MW  168   1.248   3.022   1.978  0.3725 -0.5164  0.1475
   43SOL     OW  169   1.566   0.133   1.733  0.3842 -0.0490  0.4774
   43SOL    HW1  170   1.583   0.082   1.650 -0.3667  0.2257 -1.6386
   43SOL    HW2  171   1.471   0.111   1.754 -1.6796  2.4841 -1.2896
   43SOL     MW  172   1.555   0.123   1.725  0.0128  0.3215 -0.0349
   44SOL     OW  173   1.170   0.766   1.059 -1.4254  0.3768  0.1724
   44SOL    HW1  174   1.174   0.852   1.017 -0.8112 -0.5546 -0.5227
   44SOL    HW2  175   1.155   0.778   1.154  3.1473 -0.4502 -1.1667
   44SOL     MW  176   1.168   0.779   1.066 -0.7411  0.1448 -0.0960
   45SOL     OW  177   1.183   0.756   0.732 -0.0134 -0.4634 -0.1393
   45SOL    HW1  178   1.115   0.752   0.801  0.1594  1.9591  0.8140
   45SOL    HW2  179   1.152   0.711   0.652  2.5550  0.3577 -0.2875
   45SOL     MW  180   1.170   0.749   0.731  0.3483 -0.0355 -0.0330
   46SOL     OW  181   0.576   1.173   0.562  0.7470  0.5438  0.1076
   46SOL    HW1  182   0.537   1.167   0.475  1.2254 -0.4387 -1.1727
   46SOL    HW2  183   0.647   1.119   0.549 -1.2902  0.5212  1.8054
   46SOL     MW  184   0.580   1.165   0.549  0.5413  0.4112  0.1627
   47SOL     OW  185   0.156   1.966   1.841  0.1076  0.2410  0.9070
   47SOL    HW1  186   0.210   1.888   1.809 -2.2220 -0.2620  3.1617
   47SOL    HW2  187   0.132   1.945   1.929  3.6667  0.6932  0.3712
   47SOL     MW  188   0.160   1.953   1.849  0.2698  0.2343  1.1338
   48SOL     OW  189   1.107   0.509   0.951 -0.2185 -0.6952 -0.1674
   48SOL    HW1  190   1.019   0.487   0.975 -2.1508  0.8828  0.2513
   48SOL    HW2  191   1.118   0.598   0.986  0.7402 -1.7447 -1.7536
   48SOL     MW  192   1.097   0.518   0.958 -0.3470 -0.6255 -0.3214
   49SOL     OW  193   1.832   0.734   1.599 -0.0650 -0.3412  0.4794
   49SOL    HW1  194   1.779   0.688   1.660 -1.7816 -0.0552 -0.2193
   49SOL    HW2  195   1.883   0.662   1.554 -0.2399  1.3357 -0.7936
   49SOL     MW  196   1.831   0.718   1.601 -0.3146 -0.0822  0.2192
   50SOL     OW  197   1.209   1.066   0.527  0.1714 -0.1951 -0.1082
   50SOL    HW1  198   1.169   1.132   0.579 -2.0890  0.1625  0.8212
   50SOL    HW2  199   1.282   1.037   0.585  1.8821  0.5369 -0.8068
   50SOL     MW  200   1.213   1.071   0.542  0.0989 -0.0513 -0.0777
   51SOL     OW  201   0.332   2.887   0.921  0.5899 -0.5718  0.3998
   51SOL    HW1  202   0.419   2.839   0.950  0.8753  0.4557  1.5560
   51SOL    HW2  203   0.324   2.947   0.995  0.2448 -2.3962 -2.3331
   51SOL     MW  204   0.342   2.889   0.934  0.5820 -0.6769  0.1918
   52SOL     OW  205   0.817   1.844   0.437 -0.1319 -0.3095 -0.1718
   52SOL    HW1  206   0.786   1.931   0.465  2.8294  2.5109 -0.6442
   52SOL    HW2  207   0.807   1.846   0.344 -0.2116  2.3528 -1.1000
   52SOL     MW  208   0.812   1.856   0.429  0.2483  0.4139 -0.3566
   53SOL     OW  209   0.425   2.132   0.637  0.1561 -0.0729 -0.4812
   53SOL    HW1  210   0.361   2.133   0.569 -3.7102 -0.5212  1.0237
   53SOL    HW2  211   0.456   2.226   0.636 -3.8071 -0.7413  0.1720
   53SOL     MW  212   0.421   2.145   0.628 -0.8769 -0.2203 -0.1964
   54SOL     OW  213   2.099   0.918   0.857  0.0257  0.5986  0.1104
   54SOL    HW1  214   2.127   0.945   0.766 -2.1338  2.0508 -1.3976
   54SOL    HW2  215   2.042   0.840   0.846 -1.3054  0.3095  0.4632
   54SOL     MW  216   2.095   0.911   0.844 -0.4349  0.7520 -0.0420
   55SOL     OW  217   0.558   1.542   1.650  0.3025 -0.1219  0.7571
   55SOL    HW1  218   0.468   1.560   1.621  0.7335  1.1105  0.8989
   55SOL    HW2  219   0.593   1.484   1.586  0.4146  3.7172  0.8893
   55SOL     MW  220   0.551   1.537   1.638  0.3742  0.5473  0.7932
   56SOL     OW  221   0.588   0.775   0.049  0.7891  0.2752  0.2335
   56SOL    HW1  222   0.556   0.867   0.046  0.5730  0.1873 -0.4684
   56SOL    HW2  223   0.520   0.736  -0.008 -0.1639 -0.7548 -1.7347
   56SOL     MW  224   0.575   0.782   0.041  0.6349  0.1277 -0.1188
   57SOL     OW  225   1.199   1.203   1.091  0.8897 -0.7961  0.1417
   57SOL    HW1  226   1.287   1.241   1.081  0.9556  0.5132  0.9684
   57SOL    HW2  227   1.215   1.163   1.184 -1.3950 -0.8809  1.8109
   57SOL     MW  228   1.213   1.202   1.102  0.5969 -0.6345  0.4710
   58SOL     OW  229   0.545   1.157   1.320 -0.0224  0.2387  0.0103
   58SOL    HW1  230   0.520   1.249   1.287  0.0180 -0.3487 -2.3344
   58SOL    HW2  231   0.559   1.173   1.414  1.6019 -0.4493 -1.3633
   58SOL     MW  232   0.544   1.171   1.328  0.1972  0.0704 -0.4803
   59SOL     OW  233   1.548   1.689   0.334  0.1748  0.0647 -0.0734
   59SOL    HW1  234   1.563   1.667   0.427 -1.3414  0.2750  2.6974
   59SOL    HW2  235   1.457   1.708   0.330  1.4068 -1.9822 -1.2382
   59SOL     MW  236   1.538   1.689   0.346  0.1373 -0.1776  0.1385
   60SOL     OW  237   0.036   0.183   1.601 -0.8072  0.1421  0.0831
   60SOL    HW1  238  -0.044   0.231   1.610 -0.8078 -0.0258 -1.0125
   60SOL    HW2  239   0.040   0.115   1.669 -1.5219 -1.0841 -1.2099
   60SOL     MW  240   0.026   0.180   1.611 -0.9016 -0.0419 -0.2321
   61SOL     OW  241   2.042   1.498   3.068 -0.2281  0.0410  0.3008
   61SOL    HW1  242   2.013   1.534   3.151 -0.9276  0.9266 -0.6998
   61SOL    HW2  243   2.107   1.429   3.085  1.7739  1.2670  3.9823
   61SOL     MW  244   2.047   1.494   3.081 -0.0562  0.3196  0.6545
   62SOL     OW  245   0.568   1.694   0.628 -0.0216 -0.1926 -0.1678
   62SOL    HW1  246   0.649   1.699   0.567 -2.2596 -0.1754 -0.7846
   62SOL    HW2  247   0.572   1.603   0.660  1.5161  0.2549  1.0599
   62SOL     MW  248   0.579   1.683   0.624 -0.1140 -0.1313 -0.0872
   63SOL     OW  249   1.689   0.682   0.741  0.2235 -0.2184  0.0744
   63SOL    HW1  250   1.669   0.735   0.663  0.0840  1.9318  0.4525
   63SOL    HW2  251   1.604   0.662   0.779  0.7270  0.6892 -2.0033
   63SOL     MW  252   1.675   0.687   0.736  0.2715  0.1851 -0.1498
   64SOL     OW  253   0.228   1.750   0.750 -0.7307  0.1658  0.2083
   64SOL    HW1  254   0.306   1.795   0.780 -0.6364  0.5550  2.5661
   64SOL    HW2  255   0.149   1.803   0.767  3.2208 -1.4224  0.7027
   64SOL     MW  256   0.228   1.763   0.756 -0.1969  0.0076  0.5846
   65SOL     OW  257   1.538   2.347   0.393  0.1715 -0.2087 -0.3718
   65SOL    HW1  258   1.634   2.346   0.378  0.0978  0.4599 -1.6211
   65SOL    HW2  259   1.526   2.384   0.478 -2.2023 -0.4842 -4.0108
   65SOL     MW  260   1.549   2.352   0.402 -0.1514 -0.1569 -1.0168
   66SOL     OW  261   0.275   0.550   0.568 -0.0577 -0.8624 -0.5367
   66SOL    HW1  262   0.330   0.493   0.517 -0.2380 -0.8762  0.4187
   66SOL    HW2  263   0.284   0.642   0.529 -1.6660  3.3480  0.9400
   66SOL     MW  264   0.283   0.554   0.556 -0.2937 -0.3087 -0.2158
   67SOL     OW  265   1.517   0.076   2.042  0.1548  0.0034  0.3211
   67SOL    HW1  266   1.568   0.112   1.969  0.0970 -0.0384 -1.4137
   67SOL    HW2  267   1.533  -0.019   2.026  0.8455 -0.0961  1.8062
   67SOL     MW  268   1.526   0.068   2.030  0.2383 -0.0153  0.2881
   68SOL     OW  269   0.653   0.115   2.935  0.4101 -0.5833 -0.2085
   68SOL    HW1  270   0.626   0.132   2.843 -1.3228  0.2017 -1.1338
   68SOL    HW2  271   0.734   0.166   2.956  3.1702  0.0546 -0.3924
   68SOL     MW  272   0.660   0.124   2.926  0.5457 -0.3956 -0.3548
   69SOL     OW  273   1.002   0.195   2.003 -0.0109  0.5101 -0.4040
   69SOL    HW1  274   1.089   0.222   2.047  0.6634 -1.2100  2.5886
   69SOL    HW2  275   1.000   0.101   2.017 -0.1934 -0.4795 -0.4414
   69SOL     MW  276   1.013   0.186   2.011  0.0540  0.1526 -0.0141
   70SOL     OW  277   0.510   1.737   1.112 -0.0966  0.3991  0.0649
   70SOL    HW1  278   0.545   1.662   1.161 -2.6580  1.0482  1.3949
   70SOL    HW2  279   0.590   1.753   1.059  2.9102 -1.0721 -1.3608
   70SOL     MW  280   0.525   1.729   1.111 -0.0378  0.2906  0.0522
   71SOL     OW  281   1.606   0.528   1.320 -0.3881 -0.1342 -0.8589
   71SOL    HW1  282   1.552   0.580   1.382 -2.7232 -2.2539 -1.1539
   71SOL    HW2  283   1.579   0.567   1.231  1.3133  1.3820  0.7327
   71SOL     MW  284   1.595   0.540   1.316 -0.4717 -0.2138 -0.6878
   72SOL     OW  285   0.761   1.810   0.991  0.0248  0.5757 -0.0397
   72SOL    HW1  286   0.757   1.866   0.911 -2.3162  0.8912 -0.5208
   72SOL    HW2  287   0.755   1.719   0.962 -0.6583  0.0306 -1.1611
   72SOL     MW  288   0.760   1.805   0.976 -0.3742  0.5454 -0.2512
   73SOL     OW  289   1.163   0.739   1.336  0.1649  0.6473 -0.4213
   73SOL    HW1  290   1.125   0.653   1.364  0.8954 -0.0987 -0.6514
   73SOL    HW2  291   1.128   0.805   1.392 -1.4642  0.8053 -1.8177
   73SOL     MW  292   1.153   0.736   1.347  0.0463  0.5698 -0.6359
   74SOL     OW  293   2.789   0.169   0.941 -0.4574  0.0333  0.0270
   74SOL    HW1  294   2.835   0.170   0.853 -0.7612  1.4846 -0.3007
   74SOL    HW2  295   2.724   0.243   0.937 -0.6116 -0.4801  1.1762
   74SOL     MW  296   2.786   0.179   0.929 -0.5178  0.1570  0.1354
   75SOL     OW  297   1.649   1.381   0.097 -0.2817 -0.3171  0.3231
   75SOL    HW1  298   1.693   1.432   0.166  2.1250  2.1179 -1.0299
   75SOL    HW2  299   1.690   1.297   0.107  1.9549 -0.1674  1.0152
   75SOL     MW  300   1.660   1.376   0.107  0.3309  0.0240  0.2359
   76SOL     OW  301   3.010   0.621   0.459 -0.2340 -0.3697  0.1704
   76SOL    HW1  302   3.060   0.659   0.533 -0.5309 -1.1455  0.0826
   76SOL    HW2  303   3.074   0.571   0.415 -0.6238  0.1739  1.1954
   76SOL     MW  304   3.025   0.619   0.463 -0.3246 -0.4003  0.2940
   77SOL     OW  305   0.782   0.552   0.410 -0.0813 -0.0260  0.6722
   77SOL    HW1  306   0.754   0.559   0.321  1.8581 -0.1095 -0.6037
   77SOL    HW2  307   0.731   0.475   0.448  1.2924 -1.2833  0.5573
   77SOL     MW  308   0.772   0.542   0.403  0.3558 -0.2029  0.4887
   78SOL     OW  309   0.734   0.915   1.294 -0.2519  0.5104  0.5086
   78SOL    HW1  310   0.755   0.991   1.239  0.8632  2.3692 -2.3514
   78SOL    HW2  311   0.664   0.867   1.255  1.4273 -2.6005 -2.6918
   78SOL     MW  312   0.727   0.919   1.282  0.1168  0.3452 -0.2910
   79SOL     OW  313   1.939   1.667   0.588 -0.0260 -0.1919  0.3523
   79SOL    HW1  314   1.842   1.663   0.563  2.6661 -0.9121 -0.5947
   79SOL    HW2  315   1.938   1.690   0.680  3.4634 -0.2118 -1.2903
   79SOL     MW  316   1.926   1.670   0.597  0.7896 -0.2895  0.0106
   80SOL     OW  317   0.079   0.940   0.321 -0.0029 -0.2002  0.5135
   80SOL    HW1  318  -0.009   0.902   0.324  1.8716 -0.6862  0.1673
   80SOL    HW2  319   0.150   0.887   0.362 -0.3173 -0.7894 -0.8409
   80SOL     MW  320   0.077   0.928   0.327  0.2029 -0.3420  0.2891
   81SOL     OW  321   1.909   1.892   0.215  0.7680  0.3032  0.0950
   81SOL    HW1  322   1.873   1.810   0.175 -0.8677  0.2521 -0.4798
   81SOL    HW2  323   1.840   1.966   0.199 -0.8561 -1.4262 -2.3108
   81SOL     MW  324   1.895   1.891   0.207  0.3379  0.0683 -0.2983
   82SOL     OW  325   0.823   1.046   0.514 -0.1913 -0.5459 -0.0565
   82SOL    HW1  326   0.848   1.048   0.419 -1.1119 -2.2514  1.4105
   82SOL    HW2  327   0.800   0.956   0.528 -0.5903  3.7806 -1.6187
   82SOL     MW  328   0.824   1.034   0.503 -0.3654 -0.2001 -0.0691
   83SOL     OW  329   0.097   0.625   1.399 -0.4536  0.5175  0.8905
   83SOL    HW1  330   0.102   0.705   1.345 -0.1811  0.8305 -1.5305
   83SOL    HW2  331   0.175   0.610   1.449 -2.4985 -0.0876 -0.0129
   83SOL     MW  332   0.108   0.633   1.399 -0.6875  0.4789  0.4519
   84SOL     OW  333   0.104   0.257   0.952  0.4447 -0.1097 -0.0646
   84SOL    HW1  334   0.025   0.303   0.914 -3.2770 -1.5459  2.0675
   84SOL    HW2  335   0.066   0.173   0.988  1.7869 -1.8862 -0.0909
   84SOL     MW  336   0.088   0.252   0.952  0.1307 -0.5336  0.2133
   85SOL     OW  337   0.483   0.420   0.741  0.3702 -0.2112  0.3598
   85SOL    HW1  338   0.397   0.465   0.729 -1.8180  0.7874 -1.4456
   85SOL    HW2  339   0.462   0.343   0.785  1.1468 -1.5455 -0.1873
   85SOL     MW  340   0.469   0.416   0.745  0.1840 -0.2555  0.0494
   86SOL     OW  341   1.213   0.316   1.122 -0.0524 -0.1615  0.8779
   86SOL    HW1  342   1.158   0.389   1.089  0.8025  0.3064 -1.3758
   86SOL    HW2  343   1.265   0.359   1.190 -1.5169 -0.1297 -0.7740
   86SOL     MW  344   1.212   0.331   1.127 -0.1328 -0.0955  0.3626
   87SOL     OW  345   1.190   1.434   1.296  1.0213  0.5833  0.1898
   87SOL    HW1  346   1.232   1.489   1.229 -0.9493 -1.7998 -1.6844
   87SOL    HW2  347   1.149   1.368   1.241 -1.1701  1.3538 -0.2709
   87SOL     MW  348   1.190   1.433   1.280  0.4722  0.3705 -0.1182
   88SOL     OW  349   1.207   0.996   0.933 -0.0751  0.3199  0.5452
   88SOL    HW1  350   1.302   0.998   0.937  0.4282  0.9936  0.3193
   88SOL    HW2  351   1.194   1.054   1.009  0.6032 -3.7858  1.2727
   88SOL     MW  352   1.218   1.004   0.944  0.0808 -0.1329  0.6114
   89SOL     OW  353   1.778   0.679   0.367  0.1046 -0.2557  0.3120
   89SOL    HW1  354   1.802   0.589   0.364 -0.8640  2.8532 -2.2608
   89SOL    HW2  355   1.848   0.720   0.315  1.7750 -0.6100  1.5703
   89SOL     MW  356   1.791   0.672   0.360  0.1972  0.1078  0.1386
   90SOL     OW  357   0.676   1.135   2.774 -0.0693 -0.5745 -0.6880
   90SOL    HW1  358   0.753   1.064   2.776  1.2946 -1.8533 -1.1974
   90SOL    HW2  359   0.710   1.194   2.837  0.9284 -1.3876  0.8201
   90SOL     MW  360   0.691   1.134   2.782  0.2423 -0.8505 -0.5562
   91SOL     OW  361   2.170   0.669   0.486  0.0249  0.3259 -0.8502
   91SOL    HW1  362   2.239   0.709   0.434  0.1824 -0.7428  0.7522
   91SOL    HW2  363   2.142   0.594   0.433 -0.1504 -1.1381 -1.7481
   91SOL     MW  364   2.175   0.664   0.472  0.0225 -0.0083 -0.7573
   92SOL     OW  365   1.646   0.858   0.531  0.2260  0.3761  0.2897
   92SOL    HW1  366   1.552   0.860   0.525 -1.3101  0.5849 -0.9778
   92SOL    HW2  367   1.684   0.782   0.483  0.2736  0.0735 -0.1679
   92SOL     MW  368   1.638   0.849   0.524  0.0296  0.3637  0.0621
   93SOL     OW  369   0.966   0.267   0.415 -0.4214 -0.2237  0.1513
   93SOL    HW1  370   0.878   0.264   0.379 -0.2725 -0.1741 -2.0339
   93SOL    HW2  371   1.023   0.293   0.344 -2.0446  2.0482  0.7691
   93SOL     MW  372   0.962   0.270   0.401 -0.6159  0.0826 -0.0555
   94SOL     OW  373   1.801   1.443   1.623 -0.7877  0.8648  0.2105
   94SOL    HW1  374   1.812   1.424   1.526  0.4899  1.6804 -1.4304
   94SOL    HW2  375   1.781   1.358   1.662 -1.1278 -1.7600  1.3514
   94SOL     MW  376   1.800   1.429   1.615 -0.6640  0.6261  0.1445
   95SOL     OW  377   0.762   1.526   0.953 -0.0132  0.6995 -0.6085
   95SOL    HW1  378   0.824   1.455   0.974  0.6611  1.8403 -4.0306
   95SOL    HW2  379   0.683   1.493   0.991  0.9030  1.0582  0.5308
   95SOL     MW  380   0.760   1.512   0.961  0.1966  0.8973 -0.9097
   96SOL     OW  381   1.236   1.841   1.641  0.4755 -0.4015 -0.2053
   96SOL    HW1  382   1.166   1.849   1.697 -1.6158  0.2371 -0.6491
   96SOL    HW2  383   1.246   1.747   1.611 -0.6688  1.3964  3.5544
   96SOL     MW  384   1.228   1.830   1.645  0.0486 -0.0800  0.2322
   97SOL     OW  385   1.287   1.429   0.784 -0.0220 -0.2508 -0.3691
   97SOL    HW1  386   1.347   1.480   0.832 -0.5960  0.1996 -3.6580
   97SOL    HW2  387   1.206   1.483   0.798 -1.0352  1.8082 -0.7247
   97SOL     MW  388   1.285   1.443   0.792 -0.2314  0.0803 -0.8500
   98SOL     OW  389   1.455   1.276   1.030 -0.1264 -0.1123 -0.5815
   98SOL    HW1  390   1.497   1.341   1.091  0.3943  0.0996 -0.4577
   98SOL    HW2  391   1.509   1.294   0.954  0.4580  0.2890 -2.7335
   98SOL     MW  392   1.468   1.287   1.028  0.0194 -0.0314 -0.8491
   99SOL     OW  393   1.360   0.391   1.327  0.1679  0.1274 -0.0541
   99SOL    HW1  394   1.438   0.444   1.301  1.4691 -3.0238 -1.8505
   99SOL    HW2  395   1.378   0.376   1.420 -0.7005 -0.4151  0.1800
   99SOL     MW  396   1.373   0.396   1.336  0.2250 -0.3599 -0.2603
  100SOL     OW  397   1.022   1.146   1.363  0.1725 -0.1366  0.1583
  100SOL    HW1  398   1.051   1.214   1.422 -1.9613 -1.2718  0.0350
  100SOL    HW2  399   1.051   1.063   1.404  0.6701  1.5140 -0.3129
  100SOL     MW  400   1.030   1.144   1.377 -0.0434 -0.0686  0.0799
  101SOL     OW  401   0.491   1.078   0.299 -0.2389  0.1216 -0.2272
  101SOL    HW1  402   0.512   0.989   0.313  0.2928  0.7641 -1.7362
  101SOL    HW2  403   0.497   1.089   0.197  2.0629 -2.2938 -1.7848
  101SOL     MW  404   0.495   1.068   0.287  0.1350 -0.1123 -0.6318
  102SOL     OW  405   2.903   0.604   1.016  0.1672  0.7052  0.8184
  102SOL    HW1  406   2.930   0.693   1.031 -2.1502 -1.6185 -1.3250
  102SOL    HW2  407   2.961   0.558   1.076  0.9786  1.6800 -1.5072
  102SOL     MW  408   2.915   0.610   1.026 -0.0315  0.5272  0.2288
  103SOL     OW  409   1.730   0.334   1.789 -0.2818 -0.4643 -0.3586
  103SOL    HW1  410   1.675   0.260   1.780  2.3452 -1.5128 -0.2967
  103SOL    HW2  411   1.777   0.317   1.874 -0.3327 -1.6863  3.1723
  103SOL     MW  412   1.729   0.322   1.799  0.0581 -0.7639  0.1154
  104SOL     OW  413   0.085   1.726   1.521 -0.6234  0.0485 -0.4635
  104SOL    HW1  414   0.006   1.676   1.532 -3.1626 -4.1429  0.0646
  104SOL    HW2  415   0.106   1.705   1.424 -4.2707  0.5510 -0.7336
  104SOL     MW  416   0.077   1.717   1.510 -1.4396 -0.4382 -0.4294
  105SOL     OW  417   0.032   1.160   0.472  0.1982  0.5527  0.0693
  105SOL    HW1  418   0.075   1.081   0.421  1.3839  0.6952 -2.0008
  105SOL    HW2  419   0.106   1.229   0.479  2.2184 -0.4962 -1.6177
  105SOL     MW  420   0.048   1.159   0.466  0.6212  0.4331 -0.4264
  106SOL     OW  421   0.875   0.365   1.028 -0.0534  0.2414 -0.0905
  106SOL    HW1  422   0.815   0.433   0.996  0.3125  1.1156 -0.3481
  106SOL    HW2  423   0.900   0.305   0.951 -1.3256  0.2416  1.8809
  106SOL     MW  424   0.870   0.366   1.014 -0.1730  0.3568  0.1356
  107SOL     OW  425   0.762   2.185   2.957 -0.1739  0.2354 -0.2863
  107SOL    HW1  426   0.692   2.139   2.902  1.0386 -0.5119  0.1591
  107SOL    HW2  427   0.781   2.144   3.041 -3.3873  0.0244  0.0711
  107SOL     MW  428   0.755   2.173   2.961 -0.4379  0.1089 -0.1804
  108SOL     OW  429   1.274   1.571   1.553 -0.2870  0.3301  0.6995
  108SOL    HW1  430   1.258   1.538   1.464 -0.5215  1.4895  4.4356
  108SOL    HW2  431   1.353   1.523   1.589 -0.6381  0.1396 -0.8843
  108SOL     MW  432   1.282   1.560   1.546 -0.3643  0.4580  0.9835
  109SOL     OW  433   1.979   0.791   0.178 -0.1581  0.3205  0.1990
  109SOL    HW1  434   2.055   0.807   0.126 -2.0765 -1.2188 -3.3813
  109SOL    HW2  435   2.009   0.838   0.260  3.0517 -0.0964  2.1847
  109SOL     MW  436   1.993   0.799   0.182  0.0123  0.0624 -0.0114
  110SOL     OW  437   0.451   1.921   0.802 -0.6003 -0.0315  0.8213
  110SOL    HW1  438   0.491   1.852   0.747 -0.5704  1.3202 -1.5985
  110SOL    HW2  439   0.465   2.001   0.752 -0.8663 -2.3653 -1.2174
  110SOL     MW  440   0.458   1.923   0.788 -0.6315 -0.1611  0.2330
  111SOL     OW  441   0.801   0.928   1.565  0.0468 -0.2554  0.2630
  111SOL    HW1  442   0.768   0.951   1.476 -0.6243  0.7544  0.4550
  111SOL    HW2  443   0.749   0.849   1.589  2.3250 -3.2423 -0.7427
  111SOL     MW  444   0.790   0.920   1.556  0.2588 -0.5163  0.1557
  112SOL     OW  445   1.337   1.076   1.594  0.5823  0.3484 -0.2501
  112SOL    HW1  446   1.257   1.129   1.616  0.6526  1.0964  1.2660
  112SOL    HW2  447   1.310   0.986   1.613  0.2665  0.1961 -3.5711
  112SOL     MW  448   1.323   1.071   1.600  0.5499  0.4270 -0.4882
  113SOL     OW  449   1.300   0.052   1.728  0.3374  0.0219 -0.8307
  113SOL    HW1  450   1.274  -0.001   1.804  1.3383  0.5640  0.8017
  113SOL    HW2  451   1.310  -0.004   1.647 -1.5584  1.1976 -0.6412
  113SOL     MW  452   1.298   0.038   1.727  0.2193  0.2485 -0.5903
  114SOL     OW  453   0.308   2.861   1.934 -0.6773  0.2615 -0.4225
  114SOL    HW1  454   0.342   2.918   2.002  0.4473 -0.8621  0.0294
  114SOL    HW2  455   0.317   2.918   1.853  0.4500 -3.0635 -0.4604
  114SOL     MW  456   0.314   2.876   1.932 -0.3802 -0.3255 -0.3679
  115SOL     OW  457   0.501   0.832   1.144 -0.4708  0.2757  0.3930
  115SOL    HW1  458   0.526   0.747   1.110 -0.6102 -0.5326 -0.2222
  115SOL    HW2  459   0.428   0.809   1.208 -3.6265 -1.6715 -1.4402
  115SOL     MW  460   0.495   0.818   1.148 -0.9056 -0.0879  0.0700
  116SOL     OW  461   0.806   1.020   0.978  0.2442 -0.1369 -0.4221
  116SOL    HW1  462   0.812   1.064   0.895 -2.8572  0.2070  0.3936
  116SOL    HW2  463   0.835   1.095   1.035  0.7515  2.9825 -2.5942
  116SOL     MW  464   0.810   1.036   0.975 -0.0980  0.3201 -0.6011
  117SOL     OW  465   1.117   1.201   0.769 -0.1048 -0.1049 -0.6662
  117SOL    HW1  466   1.135   1.133   0.834 -1.4995 -1.1717  1.1634
  117SOL    HW2  467   1.177   1.278   0.788 -0.5200  1.7993  1.1606
  117SOL     MW  468   1.127   1.202   0.780 -0.3436  0.0056 -0.1837
  118SOL     OW  469   3.042   2.936   1.761 -0.1799  0.5304  0.4832
  118SOL    HW1  470   3.089   2.995   1.823 -1.6432  1.7238  1.1471
  118SOL    HW2  471   2.954   2.960   1.764  0.1559 -0.6575  2.0784
  118SOL     MW  472   3.037   2.947   1.769 -0.3287  0.5311  0.7813
  119SOL     OW  473   0.480   1.440   1.219 -0.2637 -0.2118  0.2559
  119SOL    HW1  474   0.481   1.414   1.123  3.2514 -1.1026 -0.3444
  119SOL    HW2  475   0.393   1.415   1.255  2.5704  2.4554  0.1309
  119SOL     MW  476   0.469   1.433   1.211  0.5740  0.0226  0.1602
  120SOL     OW  477   0.269   0.697   0.968 -0.3251 -0.2091 -0.2111
  120SOL    HW1  478   0.247   0.636   1.041 -1.8919  0.2693  0.7761
  120SOL    HW2  479   0.344   0.751   0.996  0.9435 -0.4177 -0.9712
  120SOL     MW  480   0.276   0.696   0.981 -0.3644 -0.1735 -0.1811
  121SOL     OW  481   1.758   1.198   1.705 -0.2565  0.3426  0.3244
  121SOL    HW1  482   1.685   1.149   1.734 -2.4395  1.8043  0.5510
  121SOL    HW2  483   1.797   1.141   1.636 -0.5367  0.5982  0.4565
  121SOL     MW  484   1.753   1.184   1.700 -0.5815  0.5692  0.3717
  122SOL     OW  485   0.131   0.559   0.783  0.4593  0.1801  0.0192
  122SOL    HW1  486   0.190   0.547   0.705  1.3726 -2.0849  0.9271
  122SOL    HW2  487   0.168   0.618   0.849  0.4415 -0.4657 -1.8334
  122SOL     MW  488   0.144   0.565   0.782  0.5775 -0.2040 -0.1054
  123SOL     OW  489   1.819   1.059   0.563  0.4598  0.4604 -0.1143
  123SOL    HW1  490   1.755   0.983   0.567 -0.8117 -2.2378 -3.0798
  123SOL    HW2  491   1.872   1.052   0.644 -0.4135  1.5884 -0.8452
  123SOL     MW  492   1.817   1.048   0.574  0.1768  0.2533 -0.6020
  124SOL     OW  493   0.698   0.533   0.885 -0.0799 -0.1684 -0.6988
  124SOL    HW1  494   0.627   0.514   0.826 -0.1320  2.2362  1.2612
  124SOL    HW2  495   0.704   0.628   0.882  0.7739 -2.0580  2.3868
  124SOL     MW  496   0.689   0.543   0.877  0.0259 -0.1005 -0.0331
  125SOL     OW  497   0.718   1.784   1.705 -0.0471  0.2311  0.0689
  125SOL    HW1  498   0.659   1.715   1.671 -0.6591  2.7553 -0.4631
  125SOL    HW2  499   0.678   1.863   1.681  0.5093 -1.9353  0.5616
  125SOL     MW  500   0.705   1.785   1.697 -0.0544  0.2783  0.0637
  126SOL     OW  501   2.121   1.609   1.979 -0.1088  0.2866  0.4759
  126SOL    HW1  502   2.188   1.667   1.936  0.3485  0.1302 -0.3485
  126SOL    HW2  503   2.174   1.527   1.987 -0.4020 -1.7384  1.1116
  126SOL     MW  504   2.137   1.606   1.974 -0.0872 -0.0012  0.4510
  127SOL     OW  505   0.692   0.797   1.858  0.2184 -0.5840 -0.0129
  127SOL    HW1  506   0.755   0.737   1.888  0.6189  0.3523  0.6889
  127SOL    HW2  507   0.687   0.867   1.926 -2.1095  0.4839  0.5400
  127SOL     MW  508   0.700   0.798   1.871 -0.0359 -0.3196  0.1527
  128SOL     OW  509   1.818   0.735   2.903 -0.6414 -0.7921 -0.4255
  128SOL    HW1  510   1.836   0.685   2.823 -2.0951 -1.5070 -1.2474
  128SOL    HW2  511   1.777   0.817   2.874  1.1421  0.4331  2.0760
  128SOL     MW  512   1.815   0.739   2.889 -0.5979 -0.7248 -0.2039
  129SOL     OW  513   1.649   0.941   0.215 -0.3169  0.3626  0.0478
  129SOL    HW1  514   1.605   0.860   0.202  2.6125  1.7260  1.9628
  129SOL    HW2  515   1.680   0.940   0.306  0.8215  1.6823  2.0125
  129SOL     MW  516   1.647   0.930   0.226  0.2198  0.7166  0.5597
  130SOL     OW  517   0.741   1.342   0.355 -0.0939 -0.4022  0.0853
  130SOL    HW1  518   0.777   1.349   0.449  0.4626  0.1832 -0.4789
  130SOL    HW2  519   0.815   1.369   0.294  0.2984  0.1122 -6.6277
  130SOL     MW  520   0.756   1.347   0.359  0.0313 -0.2571 -0.8748
  131SOL     OW  521   2.990   0.834   3.070  0.2240 -0.0935  0.0802
  131SOL    HW1  522   2.995   0.887   2.992 -0.1294 -2.4861 -0.9295
  131SOL    HW2  523   3.075   0.851   3.109  2.7604 -2.5363  1.9139
  131SOL     MW  524   3.002   0.843   3.065  0.5120 -0.7315  0.1889
  132SOL     OW  525   2.705   0.165   1.222 -0.6325 -0.2736  0.3544
  132SOL    HW1  526   2.728   0.149   1.128 -2.5307  1.6462  0.1905
  132SOL    HW2  527   2.611   0.147   1.222  1.5266  0.0962 -0.4823
  132SOL     MW  528   2.696   0.161   1.210 -0.5980  0.0285  0.2224
  133SOL     OW  529   1.060   0.162   1.728 -0.3071 -0.0675  0.3293
  133SOL    HW1  530   1.150   0.127   1.715 -0.9648 -1.0241 -3.2222
  133SOL    HW2  531   1.052   0.180   1.823  2.6715 -2.4612  2.5620
  133SOL     MW  532   1.071   0.160   1.739 -0.0009 -0.5095  0.1553
  134SOL     OW  533   1.409   2.521   1.437 -0.4693  0.2738 -0.2189
  134SOL    HW1  534   1.349   2.599   1.439 -4.3029  0.9402  1.8024
  134SOL    HW2  535   1.461   2.533   1.518  2.8582  0.0045  1.1972
  134SOL     MW  536   1.408   2.533   1.448 -0.5361  0.3262  0.2346
  135SOL     OW  537   3.065   1.029   2.842  0.0069 -0.0258  0.2237
  135SOL    HW1  538   3.133   1.091   2.836 -2.1472 -2.8703 -1.0921
  135SOL    HW2  539   3.000   1.077   2.887 -0.0554 -0.9324 -2.4115
  135SOL     MW  540   3.066   1.044   2.847 -0.2856 -0.5207 -0.2976
  136SOL     OW  541   0.224   2.058   0.897 -0.5399 -0.5331 -0.5008
  136SOL    HW1  542   0.139   2.019   0.871  0.4975  1.3275  1.3832
  136SOL    HW2  543   0.298   2.021   0.840 -0.0621  1.1251 -2.0378
  136SOL     MW  544   0.223   2.048   0.886 -0.3400 -0.0688 -0.4550
  137SOL     OW  545   0.680   2.069   0.538 -0.2729  0.1215  0.0129
  137SOL    HW1  546   0.697   2.031   0.624  2.1734  0.9676 -0.7389
  137SOL    HW2  547   0.585   2.074   0.554  0.2861 -0.7381 -4.1332
  137SOL     MW  548   0.669   2.064   0.552  0.1236  0.1197 -0.6333
  138SOL     OW  549   0.512   0.548   1.105  0.3866 -0.0351 -0.3093
  138SOL    HW1  550   0.420   0.531   1.079  1.3221  1.9199  0.1423
  138SOL    HW2  551   0.565   0.517   1.031  0.3538  1.2747 -2.7559
  138SOL     MW  552   0.507   0.541   1.092  0.5057  0.3957 -0.5725
  139SOL     OW  553   2.765   0.577   1.359  0.1849  0.0539 -0.5014
  139SOL    HW1  554   2.811   0.494   1.344 -0.2038  2.1080  0.5907
  139SOL    HW2  555   2.823   0.628   1.410 -1.6652 -2.5865  1.9195
  139SOL     MW  556   2.779   0.572   1.364 -0.1105 -0.0235 -0.0379
  140SOL     OW  557   0.807   0.377   2.073  0.3552  0.2229 -0.2703
  140SOL    HW1  558   0.860   0.309   2.038 -1.0783  2.0337  2.9082
  140SOL    HW2  559   0.831   0.388   2.163 -1.3890  0.3587  1.3898
  140SOL     MW  560   0.817   0.370   2.080 -0.0641  0.4797  0.3681
  141SOL     OW  561   1.079   0.574   1.767  0.4946  0.2345 -0.5910
  141SOL    HW1  562   1.110   0.494   1.724 -0.5928 -0.4807  3.3387
  141SOL    HW2  563   1.138   0.641   1.745 -0.2147  1.0777 -0.2822
  141SOL     MW  564   1.091   0.572   1.758  0.2575  0.2514 -0.0318
  142SOL     OW  565   0.844   1.161   0.766 -0.4842  0.9909 -0.4333
  142SOL    HW1  566   0.834   1.124   0.676  1.5769  1.5386 -0.2901
  142SOL    HW2  567   0.942   1.177   0.775 -0.9075  0.9095 -1.5130
  142SOL     MW  568   0.855   1.158   0.755 -0.2681  1.0524 -0.5569
  143SOL     OW  569   1.748   0.784   1.098  0.0860  0.0087  0.5497
  143SOL    HW1  570   1.771   0.740   1.016 -2.3566  2.2603 -1.1917
  143SOL    HW2  571   1.650   0.798   1.101  0.2343  1.7579  0.6903
  143SOL     MW  572   1.738   0.780   1.088 -0.2167  0.5365  0.3385
  144SOL     OW  573   0.248   1.200   1.534 -0.2629 -0.7986  0.6854
  144SOL    HW1  574   0.338   1.174   1.511 -1.5402 -2.8080  0.9713
  144SOL    HW2  575   0.255   1.218   1.627 -1.6730  0.0213  2.1330
  144SOL     MW  576   0.261   1.199   1.543 -0.6174 -0.9555  0.9141
  145SOL     OW  577   0.262   0.435   1.100  0.5954  0.8658  0.9295
  145SOL    HW1  578   0.287   0.356   1.153  1.3911 -3.6637  2.1011
  145SOL    HW2  579   0.221   0.388   1.019 -0.4046  0.1179 -2.6245
  145SOL     MW  580   0.260   0.418   1.096  0.5685  0.1695  0.6152
  146SOL     OW  581   0.825   1.935   1.317 -0.6179 -0.3143 -0.4802
  146SOL    HW1  582   0.892   1.934   1.245 -1.2613  1.8749 -2.3783
  146SOL    HW2  583   0.737   1.944   1.289 -1.8734  0.7988  0.0530
  146SOL     MW  584   0.822   1.936   1.304 -0.8684  0.1214 -0.6603
  147SOL     OW  585   0.369   0.393   2.999 -0.7031  0.3581 -0.4306
  147SOL    HW1  586   0.325   0.381   3.082 -1.4911 -2.1774 -0.2201
  147SOL    HW2  587   0.325   0.466   2.956 -0.8795  1.1178 -0.4634
  147SOL     MW  588   0.357   0.401   3.004 -0.8303  0.1238 -0.4072
  148SOL     OW  589   0.120   0.867   1.282  0.3614 -0.4422 -0.2467
  148SOL    HW1  590   0.215   0.899   1.298  1.3068 -0.5048  0.3079
  148SOL    HW2  591   0.078   0.902   1.357  2.8456 -1.4069 -2.4917
  148SOL     MW  592   0.127   0.876   1.294  0.8139 -0.5777 -0.4697
  149SOL     OW  593   1.364   1.154   1.335  0.0592 -0.8658  0.3998
  149SOL    HW1  594   1.347   1.117   1.423 -1.7986 -1.2715  1.2363
  149SOL    HW2  595   1.434   1.222   1.347  0.5018 -2.3189 -1.0902
  149SOL     MW  596   1.371   1.158   1.348 -0.1275 -1.1111  0.3136
  150SOL     OW  597   1.842   1.412   0.740  0.1027  0.0262  0.0428
  150SOL    HW1  598   1.884   1.325   0.741 -2.9671  0.8504  0.3524
  150SOL    HW2  599   1.892   1.458   0.806  2.0736  0.4121 -0.3930
  150SOL     MW  600   1.854   1.407   0.749 -0.0423  0.1859  0.0262
  151SOL     OW  601   1.665   1.801   0.828  0.3336 -0.4424 -0.1829
  151SOL    HW1  602   1.641   1.816   0.733 -1.4351 -2.4134  0.2601
  151SOL    HW2  603   1.601   1.744   0.858 -1.2996 -0.1184 -1.7761
  151SOL     MW  604   1.653   1.796   0.820 -0.1152 -0.6597 -0.3346
  152SOL     OW  605   0.717   1.389   1.483  0.2600  0.4032 -0.2521
  152SOL    HW1  606   0.721   1.327   1.554 -0.4697 -0.1533 -0.3285
  152SOL    HW2  607   0.803   1.428   1.487 -1.5478  1.6799  0.6808
  152SOL     MW  608   0.729   1.386   1.493 -0.0748  0.4982 -0.1391
  153SOL     OW  609   2.597   1.238   0.764 -0.1664 -0.9006 -0.3458
  153SOL    HW1  610   2.664   1.206   0.702 -2.3161  2.8162  1.2303
  153SOL    HW2  611   2.536   1.163   0.774 -0.2516 -1.6989 -0.7069
  153SOL     MW  612   2.598   1.224   0.757 -0.4613 -0.5155 -0.1855
  154SOL     OW  613   0.351   1.789   1.743 -0.4592  1.0514  0.1667
  154SOL    HW1  614   0.333   1.766   1.655 -1.4509  1.0264  1.1248
  154SOL    HW2  615   0.347   1.702   1.793 -0.9151  1.0788 -0.7762
  154SOL     MW  616   0.348   1.774   1.738 -0.6502  1.0517  0.1687
  155SOL     OW  617   1.185   0.697   0.271  0.3593 -0.1130  0.0457
  155SOL    HW1  618   1.177   0.663   0.363  0.7958 -0.2948 -1.9047
  155SOL    HW2  619   1.147   0.787   0.274  0.2509 -1.4773 -0.4316
  155SOL     MW  620   1.179   0.705   0.283  0.4026 -0.3170 -0.2746
  156SOL     OW  621   1.571   3.045   1.062 -0.7556 -0.0604  0.5055
  156SOL    HW1  622   1.607   3.118   1.109 -1.1771  2.9698 -0.9417
  156SOL    HW2  623   1.573   2.968   1.116  0.3539  2.4615 -0.5767
  156SOL     MW  624   1.576   3.044   1.075 -0.6648  0.6722  0.1717
  157SOL     OW  625   1.454   1.134   0.116 -0.1536 -0.2467 -0.0234
  157SOL    HW1  626   1.504   1.060   0.166  1.2225 -1.4299  3.4663
  157SOL    HW2  627   1.529   1.179   0.075  0.2362 -0.2568  0.0398
  157SOL     MW  628   1.470   1.130   0.117  0.0794 -0.4041  0.4453
  158SOL     OW  629   0.485   1.617   2.204 -0.2288 -0.3103 -0.3263
  158SOL    HW1  630   0.483   1.669   2.123 -0.0767  1.8171 -1.7991
  158SOL    HW2  631   0.400   1.632   2.251 -0.3458  1.7799  1.0305
  158SOL     MW  632   0.473   1.626   2.199 -0.2242  0.2462 -0.3416
  159SOL     OW  633   1.267   1.702   0.410  0.1539 -0.1248  0.4409
  159SOL    HW1  634   1.254   1.622   0.354  0.1127 -2.0606 -1.6411
  159SOL    HW2  635   1.199   1.689   0.478  2.6786  1.0760  1.8355
  159SOL     MW  636   1.256   1.690   0.412  0.4816 -0.2218  0.3502
  160SOL     OW  637   0.518   1.153   1.579  0.6285 -0.0001  0.2855
  160SOL    HW1  638   0.502   1.060   1.603 -1.0488 -3.1366 -0.6418
  160SOL    HW2  639   0.599   1.165   1.632 -2.2308 -1.3897  2.0506
  160SOL     MW  640   0.527   1.143   1.589  0.0299 -0.5972  0.3960
  161SOL     OW  641   0.480   2.205   2.562 -0.5945 -0.2556  0.0956
  161SOL    HW1  642   0.388   2.215   2.534 -0.1528  1.3607 -0.0035
  161SOL    HW2  643   0.529   2.183   2.483  0.4900 -0.7015  0.8367
  161SOL     MW  644   0.475   2.204   2.548 -0.3931 -0.1012  0.1803
  162SOL     OW  645   1.079   1.809   1.861  0.0709  0.6022  0.3768
  162SOL    HW1  646   1.075   1.900   1.899  0.5444  3.4063  0.8483
  162SOL    HW2  647   0.991   1.769   1.884  0.0769  0.8915 -0.6759
  162SOL     MW  648   1.067   1.816   1.869  0.1342  1.0104  0.3001
  163SOL     OW  649   2.136   0.049   0.942  0.3793  0.0716 -0.3908
  163SOL    HW1  650   2.090   0.091   0.862 -1.6724  1.8799 -0.9762
  163SOL    HW2  651   2.069  -0.006   0.979 -1.3435  4.7547 -1.1431
  163SOL     MW  652   2.121   0.047   0.936 -0.1187  0.9281 -0.5673
  164SOL     OW  653   0.345   0.188   0.890 -0.0596 -0.2540  0.1810
  164SOL    HW1  654   0.256   0.203   0.912  0.0353  0.4173  1.8445
  164SOL    HW2  655   0.332   0.110   0.832 -0.2196  0.2253 -1.0560
  164SOL     MW  656   0.332   0.180   0.885 -0.0682 -0.1022  0.2372
  165SOL     OW  657   1.333   1.239   0.342  0.2961 -0.2286 -0.4150
  165SOL    HW1  658   1.291   1.163   0.383  0.2843  0.9602 -3.6287
  165SOL    HW2  659   1.374   1.199   0.260  0.3370 -3.3817  1.8776
  165SOL     MW  660   1.333   1.223   0.337  0.2999 -0.4878 -0.5365
  166SOL     OW  661   0.530   1.112   1.002  0.0321  0.3556  0.3237
  166SOL    HW1  662   0.517   1.060   1.080  2.0268  1.9827 -0.8258
  166SOL    HW2  663   0.624   1.111   0.998 -0.8047  1.3513  3.1057
  166SOL     MW  664   0.541   1.105   1.012  0.1849  0.7016  0.5391
  167SOL     OW  665   0.792   1.041   0.241 -0.2379  0.1587 -0.4823
  167SOL    HW1  666   0.699   1.063   0.249 -2.6820  0.2704 -1.3094
  167SOL    HW2  667   0.833   1.116   0.187  0.1820 -2.0843  2.0657
  167SOL     MW  668   0.785   1.054   0.235 -0.5050 -0.1225 -0.2553
  168SOL     OW  669   1.649   1.678   2.967 -0.1166  0.5376  0.4852
  168SOL    HW1  670   1.559   1.686   3.000 -1.1982 -1.4035 -0.7755
  168SOL    HW2  671   1.667   1.581   2.953  1.3728 -3.0431 -0.0969
  168SOL     MW  672   1.639   1.666   2.970 -0.0628 -0.1909  0.2420
  169SOL     OW  673   0.380   0.910   1.392  0.2638 -0.4783  0.1806
  169SOL    HW1  674   0.411   0.891   1.479 -2.0540  1.0109  2.1217
  169SOL    HW2  675   0.450   0.971   1.363 -1.0395  0.3636  2.8887
  169SOL     MW  676   0.393   0.915   1.400 -0.2140 -0.1707  0.7940
  170SOL     OW  677   0.991   1.495   1.517  0.2714 -0.2453  0.3687
  170SOL    HW1  678   0.998   1.591   1.515  2.6510 -0.6866  1.6451
  170SOL    HW2  679   1.057   1.459   1.448  1.3547 -0.3793 -1.8834
  170SOL     MW  680   1.000   1.503   1.508  0.7283 -0.3212  0.2400
  171SOL     OW  681   0.585   1.425   0.681  0.2603 -0.0381 -0.0778
  171SOL    HW1  682   0.558   1.411   0.778 -0.9894  1.1326 -0.1407
  171SOL    HW2  683   0.563   1.343   0.635  2.4427 -0.3956 -1.7099
  171SOL     MW  684   0.579   1.412   0.688  0.3834  0.0692 -0.3015
  172SOL     OW  685   0.855   0.280   1.287 -0.0280  0.3573 -0.1650
  172SOL    HW1  686   0.860   0.317   1.198 -0.3522  1.1046 -1.5187
  172SOL    HW2  687   0.770   0.325   1.314 -0.2219  2.9185 -1.4413
  172SOL     MW  688   0.844   0.291   1.279 -0.0963  0.7938 -0.5120
  173SOL     OW  689   0.449   1.705   0.391  0.1543  0.8196  0.3219
  173SOL    HW1  690   0.439   1.607   0.387 -2.9583  2.9144 -1.4676
  173SOL    HW2  691   0.483   1.721   0.482  1.1566 -1.3406 -0.4371
  173SOL     MW  692   0.452   1.695   0.403 -0.1241  0.8110 -0.0144
  174SOL     OW  693   1.853   0.999   1.530 -0.1215  0.0925 -0.0839
  174SOL    HW1  694   1.842   0.903   1.545 -1.0085  1.2935 -1.2296
  174SOL    HW2  695   1.854   1.003   1.432 -0.8799 -2.9891  3.0812
  174SOL     MW  696   1.852   0.987   1.519 -0.3386 -0.1556  0.1825
  175SOL     OW  697   0.463   1.421   0.377  0.2561  0.3722 -0.3375
  175SOL    HW1  698   0.426   1.374   0.297 -1.4422  0.5186 -4.5303
  175SOL    HW2  699   0.559   1.394   0.372 -0.0409 -0.7108  0.4141
  175SOL     MW  700   0.471   1.412   0.366 -0.0071  0.2486 -0.7915
  176SOL     OW  701   0.206   1.386   1.229  0.5118  0.9935 -0.1733
  176SOL    HW1  702   0.192   1.347   1.145 -0.8531 -1.1374  0.8512
  176SOL    HW2  703   0.164   1.335   1.301  0.2804 -1.0012  1.7856
  176SOL     MW  704   0.199   1.374   1.228  0.3012  0.4492  0.2203
  177SOL     OW  705   0.572   0.407   1.337  0.1916  0.5893 -0.0303
  177SOL    HW1  706   0.558   0.476   1.261 -2.5680 -2.0150 -0.7412
  177SOL    HW2  707   0.574   0.453   1.421  2.0642  1.5781 -0.8278
  177SOL     MW  708   0.570   0.422   1.338  0.0746  0.3762 -0.2293
  178SOL     OW  709   0.026   0.425   2.941  0.0095  0.3592  0.5624
  178SOL    HW1  710  -0.033   0.455   3.010  0.9858  0.4532  2.2659
  178SOL    HW2  711  -0.034   0.423   2.868  0.1892  1.5521 -1.3111
  178SOL     MW  712   0.010   0.429   2.940  0.1621  0.5290  0.5399
  179SOL     OW  713   1.586   1.353   1.402 -0.0647  0.0505  0.0380
  179SOL    HW1  714   1.558   1.385   1.489 -0.4366  1.2898  0.1711
  179SOL    HW2  715   1.682   1.342   1.404  0.6340 -1.0717  1.0854
  179SOL     MW  716   1.595   1.356   1.414 -0.0215  0.0660  0.1938
  180SOL     OW  717   3.034   0.207   0.473  0.3264 -0.0511 -0.1965
  180SOL    HW1  718   2.965   0.220   0.414  0.8626 -0.1600  2.1806
  180SOL    HW2  719   3.096   0.276   0.447 -1.9729 -0.5133 -2.8366
  180SOL     MW  720   3.033   0.218   0.462  0.0938 -0.1265 -0.2312
  181SOL     OW  721   1.138   1.366   3.084  0.2021  0.0932  0.2267
  181SOL    HW1  722   1.220   1.400   3.115 -0.7820 -3.7872  1.3146
  181SOL    HW2  723   1.162   1.278   3.064  1.3795  1.9959 -0.3615
  181SOL     MW  724   1.152   1.359   3.085  0.2276 -0.1677  0.2927
  182SOL     OW  725   0.518   0.896   1.663 -0.2150  0.3202 -0.2033
  182SOL    HW1  726   0.432   0.892   1.705 -1.2365  0.3035 -1.9650
  182SOL    HW2  727   0.573   0.840   1.712 -0.4266 -0.8089 -2.8057
  182SOL     MW  728   0.514   0.888   1.675 -0.3777  0.1690 -0.7791
  183SOL     OW  729   1.548   1.548   1.225  0.7281 -0.3390  0.1940
  183SOL    HW1  730   1.457   1.579   1.245  0.6635  0.9394 -1.4960
  183SOL    HW2  731   1.570   1.474   1.290 -1.4568  0.6445 -0.4735
  183SOL     MW  732   1.539   1.542   1.236  0.4313 -0.0405 -0.1170
  184SOL     OW  733   0.913   0.618   1.984  0.0981  0.1006 -0.2235
  184SOL    HW1  734   0.981   0.597   1.918  1.5069 -1.0889  2.2192
  184SOL    HW2  735   0.860   0.539   2.013 -0.4492 -0.2530 -2.5016
  184SOL     MW  736   0.915   0.605   1.979  0.2118 -0.1030 -0.2018
  185SOL     OW  737   1.239   1.015   1.932  0.6352  0.6173  0.1535
  185SOL    HW1  738   1.243   0.926   1.978  0.5035 -0.6787 -0.8355
  185SOL    HW2  739   1.253   1.075   2.000  1.3410 -2.8286  0.4307
  185SOL     MW  740   1.241   1.011   1.947  0.7110 -0.0083  0.0596
  186SOL     OW  741   0.383   1.636   1.460 -0.4666  0.3083 -0.4512
  186SOL    HW1  742   0.454   1.623   1.404 -1.0350 -1.1510 -0.3662
  186SOL    HW2  743   0.305   1.630   1.403 -0.7934  1.1285 -0.9346
  186SOL     MW  744   0.382   1.634   1.445 -0.5847  0.2240 -0.5038
  187SOL     OW  745   1.423   0.712   1.437 -0.6358  0.0235 -0.1266
  187SOL    HW1  746   1.412   0.698   1.531 -0.5452  1.2889 -0.2812
  187SOL    HW2  747   1.335   0.709   1.404  0.3264  1.9664  1.1612
  187SOL     MW  748   1.410   0.710   1.445 -0.4969  0.4468  0.0229
  188SOL     OW  749   1.956   1.141   0.818 -0.1652  0.1609 -0.4939
  188SOL    HW1  750   1.911   1.124   0.899  0.9291  0.5315  2.8168
  188SOL    HW2  751   2.026   1.078   0.836  0.0156 -0.2601  0.7750
  188SOL     MW  752   1.959   1.131   0.831  0.0031  0.1543  0.1104
  189SOL     OW  753   0.717   0.801   0.833 -0.3863  0.1389  0.7421
  189SOL    HW1  754   0.635   0.851   0.808  0.5034  0.8577  0.2541
  189SOL    HW2  755   0.771   0.862   0.891 -3.3196  0.8067  0.8826
  189SOL     MW  756   0.713   0.816   0.837 -0.6560  0.3218  0.6962
  190SOL     OW  757   1.880   0.274   2.066  0.1911  0.9746 -0.3236
  190SOL    HW1  758   1.932   0.194   2.077  2.0112  0.4971  3.4794
  190SOL    HW2  759   1.943   0.329   2.017 -0.0603 -0.7032  1.0299
  190SOL     MW  760   1.895   0.271   2.061  0.3981  0.6902  0.3567
  191SOL     OW  761   1.494   0.935   1.231 -0.8151  0.4059  0.1216
  191SOL    HW1  762   1.436   1.009   1.254 -0.1029 -1.5074  4.0441
  191SOL    HW2  763   1.474   0.869   1.297  2.2503  1.2978  0.1726
  191SOL     MW  764   1.484   0.936   1.243 -0.3167  0.2711  0.6459
  192SOL     OW  765   0.572   2.075   2.795  0.2201  0.2981  0.0825
  192SOL    HW1  766   0.531   2.118   2.714 -2.9073  0.9439 -3.6455
  192SOL    HW2  767   0.571   1.982   2.782  2.1463  0.9593 -0.3184
  192SOL     MW  768   0.566   2.068   2.782  0.0616  0.4705 -0.4622
  193SOL     OW  769   1.029   1.565   0.802 -0.6296 -0.0010  0.0558
  193SOL    HW1  770   0.987   1.564   0.883  0.1638 -2.0308  2.3195
  193SOL    HW2  771   0.959   1.523   0.743  0.8152 -2.6793 -0.1212
  193SOL     MW  772   1.014   1.560   0.804 -0.3343 -0.6222  0.3311
  194SOL     OW  773   0.441   1.390   0.924 -0.5788  0.3914  0.7846
  194SOL    HW1  774   0.418   1.300   0.941  0.9816 -1.4676  0.6861
  194SOL    HW2  775   0.369   1.414   0.870  1.7794 -0.4880 -1.6730
  194SOL     MW  776   0.429   1.381   0.919 -0.0618  0.0301  0.4474
  195SOL     OW  777   1.285   1.121   2.994  0.1371  0.6736  0.3747
  195SOL    HW1  778   1.332   1.126   3.076 -3.2932  2.6169 -2.9367
  195SOL    HW2  779   1.213   1.052   2.996 -2.2255  0.4539  1.9578
  195SOL     MW  780   1.282   1.113   3.005 -0.6272  0.9010  0.1466
  196SOL     OW  781   2.168   1.032   0.610  0.0300 -0.4523 -0.4592
  196SOL    HW1  782   2.144   0.988   0.525  0.9029  0.7311 -2.7400
  196SOL    HW2  783   2.182   1.126   0.590 -0.9108 -0.0509 -3.1960
  196SOL     MW  784   2.167   1.038   0.596  0.0210 -0.2432 -1.1212
  197SOL     OW  785   0.687   1.244   2.050  0.4839  0.3631 -0.1896
  197SOL    HW1  786   0.692   1.146   2.054  1.1036 -2.4466 -0.0854
  197SOL    HW2  787   0.642   1.263   1.971  0.0182  1.3308 -0.1221
  197SOL     MW  788   0.682   1.233   2.040  0.5042  0.1201 -0.1670
  198SOL     OW  789   2.975   1.361   1.073 -0.2392 -0.1176  0.3159
  198SOL    HW1  790   2.956   1.455   1.081  1.1642  2.3114 -0.1205
  198SOL    HW2  791   2.890   1.312   1.050  0.4354 -1.5807 -0.6521
  198SOL     MW  792   2.961   1.367   1.071  0.0350  0.0098  0.1306
  199SOL     OW  793   0.521   1.356   1.855 -0.1629  0.1338  0.5840
  199SOL    HW1  794   0.441   1.306   1.834  0.5777 -0.7129 -2.3190
  199SOL    HW2  795   0.532   1.420   1.784  0.3982  1.4132  2.9891
  199SOL     MW  796   0.512   1.358   1.843  0.0089  0.1909  0.5183
  200SOL     OW  797   1.869   0.014   1.340 -0.7445 -0.3643 -0.2734
  200SOL    HW1  798   1.876  -0.008   1.241  0.8871 -0.8593 -0.4252
  200SOL    HW2  799   1.773   0.033   1.354 -3.0974  2.4489  0.0122
  200SOL     MW  800   1.857   0.014   1.329 -0.8397 -0.0584 -0.2557
  201SOL     OW  801   0.951   0.210   0.832  0.2071 -0.1819  0.4807
  201SOL    HW1  802   0.932   0.136   0.770  0.1819  1.0977 -2.4746
  201SOL    HW2  803   1.024   0.258   0.785 -2.6852  0.1575  1.3876
  201SOL     MW  804   0.958   0.207   0.818 -0.1778  0.0317  0.2104
  202SOL     OW  805   1.503   1.583   0.946 -0.0721 -0.4773 -0.4624
  202SOL    HW1  806   1.550   1.520   0.894  3.1206 -2.0170  1.2587
  202SOL    HW2  807   1.552   1.582   1.029 -0.4671  1.1586  0.1746
  202SOL     MW  808   1.515   1.575   0.950  0.2970 -0.4646 -0.1513
  203SOL     OW  809  -0.000   0.466   1.173 -0.3438  0.5858  0.9486
  203SOL    HW1  810   0.078   0.451   1.123  1.1522  0.6100 -1.2602
  203SOL    HW2  811   0.033   0.526   1.244 -2.1317 -1.0748  1.8223
  203SOL     MW  812   0.015   0.472   1.176 -0.3823  0.3699  0.7725
  204SOL     OW  813   1.053   1.781   0.590  0.4429 -0.5663  0.0777
  204SOL    HW1  814   1.051   1.729   0.674 -0.3034 -1.1384 -0.5700
  204SOL    HW2  815   0.972   1.791   0.541 -0.9925 -0.5104  2.2972
  204SOL     MW  816   1.042   1.775   0.595  0.1551 -0.6344  0.2850
  205SOL     OW  817   1.352   0.087   1.367  0.4962 -0.1686  0.4420
  205SOL    HW1  818   1.295   0.066   1.292 -0.4862 -0.6173  1.0964
  205SOL    HW2  819   1.348   0.180   1.369  1.3442 -3.4853  1.3467
  205SOL     MW  820   1.344   0.096   1.357  0.4785 -0.6654  0.6477
  206SOL     OW  821   0.414   3.028   1.415 -0.4644  0.0109  0.3711
  206SOL    HW1  822   0.366   3.010   1.329  0.3660  0.1657 -2.1386
  206SOL    HW2  823   0.488   2.954   1.429 -0.2464 -1.5437 -0.6033
  206SOL     MW  824   0.417   3.016   1.406 -0.3260 -0.1738 -0.0886
  207SOL     OW  825   0.923   1.487   0.206 -0.6708 -0.3659 -0.0066
  207SOL    HW1  826   0.936   1.582   0.206  0.7605  0.3517  1.0539
  207SOL    HW2  827   1.010   1.445   0.203  1.4640 -1.3420 -0.1942
  207SOL     MW  828   0.936   1.494   0.205 -0.2003 -0.4000  0.1085
  208SOL     OW  829   0.704   1.632   1.315  0.0039  0.0128  0.2016
  208SOL    HW1  830   0.787   1.653   1.357  1.4857  1.9695 -1.3374
  208SOL    HW2  831   0.690   1.540   1.328 -0.0415 -1.1306 -1.4044
  208SOL     MW  832   0.713   1.623   1.322  0.1934  0.1201 -0.2133
  209SOL     OW  833   1.564   0.538   2.938  0.0224  0.2580  0.6630
  209SOL    HW1  834   1.629   0.608   2.923  0.1971  1.0224 -0.6752
  209SOL    HW2  835   1.609   0.455   2.919  0.9089  4.0913  1.8849
  209SOL     MW  836   1.578   0.536   2.934  0.1624  0.8647  0.6477
  210SOL     OW  837   1.591   1.360   0.801 -0.6127 -0.4025 -0.2084
  210SOL    HW1  838   1.689   1.358   0.793  0.5669  0.8231 -0.8937
  210SOL    HW2  839   1.558   1.350   0.707 -0.1983 -2.2932  0.4813
  210SOL     MW  840   1.600   1.359   0.787 -0.4024 -0.4903 -0.2078
  211SOL     OW  841   1.645   0.372   0.959  0.1654 -0.1474 -0.4499
  211SOL    HW1  842   1.644   0.377   0.867  0.5735  0.2604  2.3428
  211SOL    HW2  843   1.717   0.429   0.993  1.0729  0.8537 -0.8028
  211SOL     MW  844   1.655   0.380   0.951  0.3390  0.0385 -0.1280
  212SOL     OW  845   0.204   1.083   0.098  0.2455 -0.4843  0.4124
  212SOL    HW1  846   0.163   1.072   0.184  0.5179  2.4449 -1.5248
  212SOL    HW2  847   0.235   0.996   0.064  2.6916 -0.0783  1.8696
  212SOL     MW  848   0.203   1.070   0.104  0.6042 -0.0442  0.3491
  213SOL     OW  849   0.472   1.697   3.038  0.4448  0.6608  0.2645
  213SOL    HW1  850   0.508   1.756   3.105  0.6562  4.2748 -3.5660
  213SOL    HW2  851   0.504   1.736   2.949  0.2791  0.2609 -0.7617
  213SOL     MW  852   0.481   1.710   3.035  0.4508  1.0849 -0.3763
  214SOL     OW  853   0.563   0.289   2.247 -0.2819 -0.5910  0.6537
  214SOL    HW1  854   0.506   0.360   2.219 -3.5070  0.0250 -0.6862
  214SOL    HW2  855   0.640   0.311   2.191  1.8263  0.1015  0.1487
  214SOL     MW  856   0.566   0.301   2.236 -0.4292 -0.4183  0.4103
  215SOL     OW  857   0.515   0.701   2.661 -0.0053  0.4887  0.1591
  215SOL    HW1  858   0.523   0.670   2.571  0.1987  1.4146 -2.1575
  215SOL    HW2  859   0.480   0.619   2.700  1.7027 -3.1419 -1.1090
  215SOL     MW  860   0.511   0.686   2.655  0.2470  0.1318 -0.3139
  216SOL     OW  861   2.928   3.078   2.651 -0.5518 -0.1512  0.0265
  216SOL    HW1  862   2.901   3.057   2.746 -0.4781 -0.7466  2.0172
  216SOL    HW2  863   2.908   3.176   2.624 -0.6962  1.4399 -1.4940
  216SOL     MW  864   2.922   3.088   2.660 -0.5611 -0.0198  0.0886
  217SOL     OW  865   0.924   1.184   0.062  0.2148 -0.9211  0.9035
  217SOL    HW1  866   0.950   1.095   0.040 -0.9334 -1.7717 -1.8666
  217SOL    HW2  867   0.997   1.238   0.029  0.0092  0.1367 -1.6027
  217SOL     MW  868   0.937   1.179   0.055  0.0362 -0.8937  0.2073
  218SOL     OW  869   0.932   1.337   2.525  0.6739  0.2399 -0.1512
  218SOL    HW1  870   0.961   1.247   2.535  2.3844  0.9898 -3.2990
  218SOL    HW2  871   0.996   1.396   2.562 -0.6235  1.9987 -0.6531
  218SOL     MW  872   0.944   1.333   2.531  0.7284  0.5709 -0.6328
  219SOL     OW  873   1.098   0.469   2.615  0.2576 -0.0943  0.2367
  219SOL    HW1  874   1.129   0.505   2.697 -0.0116 -2.0083  1.6527
  219SOL    HW2  875   1.050   0.544   2.585 -1.3326 -2.1735  2.1054
  219SOL     MW  876   1.096   0.484   2.622  0.0123 -0.6211  0.6701
  220SOL     OW  877   1.756   0.455   2.232 -0.6904  0.3593  0.1742
  220SOL    HW1  878   1.686   0.480   2.170  0.4970  0.0036 -1.8332
  220SOL    HW2  879   1.813   0.393   2.180  0.0163 -2.4857 -1.5401
  220SOL     MW  880   1.754   0.450   2.217 -0.4405 -0.0630 -0.3168
  221SOL     OW  881   0.338   1.336   2.912  0.0961  0.0944  0.3861
  221SOL    HW1  882   0.372   1.250   2.891  0.8212 -2.6058  1.4293
  221SOL    HW2  883   0.374   1.398   2.847  0.7846  1.9645  1.4473
  221SOL     MW  884   0.348   1.333   2.900  0.2826 -0.0151  0.6638
  222SOL     OW  885   0.397   0.927   2.678  0.2918  0.0255  0.1821
  222SOL    HW1  886   0.353   0.955   2.594  2.5005  0.1147  1.3995
  222SOL    HW2  887   0.444   0.844   2.670  1.5036  3.0281  1.3707
  222SOL     MW  888   0.397   0.920   2.665  0.7431  0.4334  0.4995
  223SOL     OW  889   0.017   2.080   2.588  0.0460 -0.0983 -0.3582
  223SOL    HW1  890   0.064   2.001   2.627  0.1925 -1.3802 -2.0425
  223SOL    HW2  891   0.073   2.122   2.523 -1.7229 -1.0817 -0.7237
  223SOL     MW  892   0.031   2.075   2.585 -0.1681 -0.3972 -0.6287
  224SOL     OW  893   1.544   0.819   2.598  0.0187  0.1306  0.0566
  224SOL    HW1  894   1.569   0.870   2.672  1.6887 -1.3870 -2.1120
  224SOL    HW2  895   1.504   0.886   2.542 -1.6089  1.9488 -0.8500
  224SOL     MW  896   1.542   0.835   2.600  0.0243  0.1702 -0.3492
  225SOL     OW  897   2.940   1.500   2.308 -0.3600  0.1300  0.3262
  225SOL    HW1  898   2.992   1.565   2.254  2.1291 -1.4830 -2.5312
  225SOL    HW2  899   2.897   1.549   2.380  2.6267 -1.6298  1.7891
  225SOL     MW  900   2.941   1.515   2.310  0.3624 -0.3150  0.1422
  226SOL     OW  901   0.459   1.430   2.683 -0.3302  0.2225  0.3708
  226SOL    HW1  902   0.552   1.443   2.653  2.8328  2.7909  2.1698
  226SOL    HW2  903   0.429   1.518   2.669  0.7093 -0.9779  0.9709
  226SOL     MW  904   0.467   1.444   2.677  0.2243  0.4030  0.6874
  227SOL     OW  905   0.449   1.089   2.877  0.4262 -0.0933  0.4673
  227SOL    HW1  906   0.539   1.115   2.847  1.4182  1.1768 -1.1650
  227SOL    HW2  907   0.427   1.033   2.805  1.1638  0.9548 -1.9786
  227SOL     MW  908   0.458   1.085   2.863  0.6544  0.2126 -0.0708
  228SOL     OW  909   0.714   0.984   2.060 -0.1044 -0.0928  0.2940
  228SOL    HW1  910   0.812   1.000   2.038 -1.8776 -1.9592 -0.8061
  228SOL    HW2  911   0.709   0.929   2.142 -1.9700 -1.8843  0.6680
  228SOL     MW  912   0.727   0.979   2.068 -0.5845 -0.5754  0.1982
  229SOL     OW  913   0.170   0.601   0.025  0.4935  0.1351 -0.2927
  229SOL    HW1  914   0.128   0.536  -0.037 -0.9657 -1.0983  1.9679
  229SOL    HW2  915   0.155   0.562   0.111  0.2722 -1.5537 -0.7204
  229SOL     MW  916   0.162   0.587   0.028  0.2717 -0.2504 -0.0509
  230SOL     OW  917   1.765   1.380   2.026 -0.7303 -0.2539  0.4414
  230SOL    HW1  918   1.721   1.363   2.108  0.5853  0.8751  1.5025
  230SOL    HW2  919   1.816   1.302   2.009  0.3783  0.3890 -1.3605
  230SOL     MW  920   1.766   1.368   2.034 -0.4104 -0.0201  0.3436
  231SOL     OW  921   2.766   1.334   2.183 -0.3164  0.2553 -0.5311
  231SOL    HW1  922   2.834   1.401   2.207  0.6308 -3.2030 -3.2628
  231SOL    HW2  923   2.713   1.370   2.106 -2.3871  1.9200  1.2170
  231SOL     MW  924   2.768   1.347   2.176 -0.4646  0.0187 -0.6608
  232SOL     OW  925   2.239   0.811   2.109  0.2928  0.4336 -0.5624
  232SOL    HW1  926   2.201   0.880   2.056 -0.0361 -3.0547  1.2539
  232SOL    HW2  927   2.213   0.837   2.198  0.6223  0.5163  0.0423
  232SOL     MW  928   2.230   0.823   2.114  0.2929 -0.0157 -0.2429
  233SOL     OW  929   2.037   0.460   1.957  0.0874 -0.6128  0.2544
  233SOL    HW1  930   2.098   0.391   1.930 -1.8889 -2.9618 -0.7300
  233SOL    HW2  931   2.063   0.491   2.052 -2.1437  2.0342  0.6013
  233SOL     MW  932   2.049   0.455   1.966 -0.4677 -0.5735  0.1703
  234SOL     OW  933   0.291   1.013   2.447  0.1393  0.0344  0.1272
  234SOL    HW1  934   0.194   1.023   2.447 -1.3471  0.6269 -0.2873
  234SOL    HW2  935   0.336   1.102   2.453 -1.2519 -0.1444 -0.4837
  234SOL     MW  936   0.284   1.026   2.448 -0.2404  0.0890 -0.0081
  235SOL     OW  937   1.145   3.030   2.714 -0.1455 -0.5610  0.0837
  235SOL    HW1  938   1.172   2.968   2.781  0.9159  1.5415 -2.4126
  235SOL    HW2  939   1.119   3.110   2.764 -2.2065 -1.6046 -1.0264
  235SOL     MW  940   1.145   3.033   2.730 -0.2774 -0.4213 -0.3921
  236SOL     OW  941   2.934   0.530   0.001 -0.3570  0.2256 -0.0392
  236SOL    HW1  942   2.840   0.520   0.007  2.5090  0.5313 -0.4388
  236SOL    HW2  943   2.943   0.626  -0.014  0.8133  0.3125  1.3253
  236SOL     MW  944   2.923   0.541  -0.000  0.1756  0.2774  0.0881
  237SOL     OW  945   1.951   1.104   2.240  0.7403  0.9045  0.4334
  237SOL    HW1  946   1.920   1.124   2.155 -2.9964  2.2750  0.1606
  237SOL    HW2  947   1.880   1.055   2.280  0.3228 -1.9095 -1.8024
  237SOL     MW  948   1.938   1.100   2.234  0.1922  0.7141  0.1024
  238SOL     OW  949   1.076   1.783   2.990 -0.5973 -0.0603  0.2037
  238SOL    HW1  950   1.046   1.698   2.957  2.2846  1.3195 -1.1218
  238SOL    HW2  951   1.173   1.787   3.004  1.1309 -0.5138 -1.5522
  238SOL     MW  952   1.085   1.772   2.988  0.0110  0.0619 -0.2029
  239SOL     OW  953   1.253   1.364   2.357 -0.3280 -0.1574 -0.0021
  239SOL    HW1  954   1.191   1.412   2.420 -0.2222 -0.6751  2.9236
  239SOL    HW2  955   1.275   1.279   2.405  2.5448 -4.2429  1.8905
  239SOL     MW  956   1.248   1.359   2.372  0.0650 -0.7647  0.6336
  240SOL     OW  957   0.740   0.821   2.279  0.1065  0.3315  0.4238
  240SOL    HW1  958   0.723   0.890   2.342  0.2153 -0.6830 -0.2332
  240SOL    HW2  959   0.831   0.787   2.283 -1.5903  1.3761  2.0087
  240SOL     MW  960   0.750   0.825   2.288 -0.1030  0.3355  0.5462
  241SOL     OW  961   0.632   0.390   0.001 -0.1014 -0.1067  0.0012
  241SOL    HW1  962   0.664   0.466   0.049  0.5381 -1.7799  0.9137
  241SOL    HW2  963   0.534   0.396  -0.014 -0.1547 -1.6876  1.1120
  241SOL     MW  964   0.623   0.401   0.005 -0.0241 -0.5360  0.2681
  242SOL     OW  965   1.501   1.681   2.378 -0.0116 -0.2977 -0.0148
  242SOL    HW1  966   1.485   1.779   2.387  2.5014  4.3705  0.6790
  242SOL    HW2  967   1.445   1.650   2.303  1.1723 -0.3957 -0.4470
  242SOL     MW  968   1.492   1.689   2.369  0.4762  0.3053  0.0197
  243SOL     OW  969   1.034   0.246   2.474  0.1021 -0.1769  0.6340
  243SOL    HW1  970   1.120   0.242   2.426  1.4085  0.9354  0.3483
  243SOL    HW2  971   1.059   0.318   2.537  0.0886  2.7202 -1.6664
  243SOL     MW  972   1.049   0.255   2.476  0.2727  0.3521  0.2928
  244SOL     OW  973   0.246   0.752   2.348 -0.0113  0.5810  0.1431
  244SOL    HW1  974   0.257   0.843   2.377  0.5073  1.5999  0.6871
  244SOL    HW2  975   0.338   0.721   2.343  1.2076 -2.3109 -0.0059
  244SOL     MW  976   0.259   0.760   2.352  0.2179  0.3338  0.1952
  245SOL     OW  977   1.272   0.227   2.323 -0.5717 -0.3847 -0.1164
  245SOL    HW1  978   1.305   0.134   2.330  1.6358 -0.0730  1.5333
  245SOL    HW2  979   1.337   0.284   2.366  2.0154  2.1824  0.4618
  245SOL     MW  980   1.285   0.222   2.329  0.0609 -0.0048  0.1776
  246SOL     OW  981   1.186   1.201   2.146  0.0980 -0.7331 -0.2643
  246SOL    HW1  982   1.127   1.128   2.185 -1.1869 -1.8287 -0.2301
  246SOL    HW2  983   1.208   1.245   2.222  1.1266 -0.6813 -2.0229
  246SOL     MW  984   1.181   1.197   2.162  0.0642 -0.8708 -0.4918
  247SOL     OW  985   0.762   0.585   0.145 -0.3960  0.1462  0.1949
  247SOL    HW1  986   0.737   0.668   0.107 -0.3581 -2.7064 -1.6220
  247SOL    HW2  987   0.857   0.588   0.131  0.8500  1.1929  0.2789
  247SOL     MW  988   0.771   0.596   0.138 -0.2266 -0.0921 -0.0337
  248SOL     OW  989   0.473   1.218   2.456 -0.1201  0.4279  0.3621
  248SOL    HW1  990   0.461   1.270   2.377 -1.7260  1.2087  2.5589
  248SOL    HW2  991   0.490   1.277   2.530 -0.0721  1.5994 -1.2381
  248SOL     MW  992   0.473   1.233   2.455 -0.3256  0.6855  0.4408
  249SOL     OW  993   0.163   1.848   2.716  0.2697  0.3753 -0.3393
  249SOL    HW1  994   0.079   1.803   2.694  1.5781  0.9655 -0.1898
  249SOL    HW2  995   0.177   1.837   2.812  1.6482 -1.6115  3.1259
  249SOL     MW  996   0.154   1.841   2.725  0.6243  0.1911  0.1376
  250SOL     OW  997   2.182   0.864   2.366  0.2393 -0.0178 -0.5824
  250SOL    HW1  998   2.265   0.810   2.388  1.7949  0.9360 -1.4651
  250SOL    HW2  999   2.210   0.954   2.371 -0.9660 -0.0752 -1.3773
  250SOL     MW 1000   2.197   0.869   2.370  0.2855  0.1005 -0.8038
  251SOL     OW 1001   0.139   0.916   2.021 -0.2327 -0.9677 -0.3227
  251SOL    HW1 1002   0.155   0.891   2.115  1.7099  0.2437 -0.3994
  251SOL    HW2 1003   0.107   0.835   1.988 -0.1907  1.2885 -1.3673
  251SOL     MW 1004   0.137   0.902   2.029  0.0292 -0.5102 -0.4707
  252SOL     OW 1005   1.716   0.987   2.864 -0.1548  0.1493  0.0005
  252SOL    HW1 1006   1.726   1.054   2.933 -0.2209 -0.6091 -2.4890
  252SOL    HW2 1007   1.790   0.999   2.800  0.9405 -1.7962 -0.1237
  252SOL     MW 1008   1.727   0.997   2.865 -0.0190 -0.2074 -0.3444
  253SOL     OW 1009   1.224   1.780   2.552  0.1194  0.3727 -0.0696
  253SOL    HW1 1010   1.227   1.770   2.455  1.5977  0.5915 -1.0174
  253SOL    HW2 1011   1.151   1.829   2.582  2.6518 -0.2323  2.6719
  253SOL     MW 1012   1.215   1.785   2.543  0.6486  0.3217  0.1670
  254SOL     OW 1013   1.049   1.007   2.271  0.4625 -0.5967 -0.1903
  254SOL    HW1 1014   1.007   0.924   2.258  0.9588 -0.3341  0.9318
  254SOL    HW2 1015   0.977   1.071   2.263  2.7309 -1.3469  1.4077
  254SOL     MW 1016   1.034   1.005   2.268  0.8272 -0.6610  0.1686
  255SOL     OW 1017   0.801   2.573   2.209 -0.7377  0.7905 -0.7780
  255SOL    HW1 1018   0.740   2.509   2.244 -1.5548  0.4213 -0.6199
  255SOL    HW2 1019   0.888   2.567   2.258  1.4803  1.2033 -2.8124
  255SOL     MW 1020   0.804   2.564   2.220 -0.5528  0.7963 -1.0256
  256SOL     OW 1021   1.240   2.751   2.850  0.4116 -0.1735  0.2520
  256SOL    HW1 1022   1.245   2.655   2.844  1.5921 -3.9011  2.1250
  256SOL    HW2 1023   1.312   2.796   2.808  1.8004 -2.5160  2.9021
  256SOL     MW 1024   1.250   2.744   2.844  0.7506 -0.9744  0.8488
  257SOL     OW 1025   0.094   1.923   0.094 -0.3981 -0.1765 -0.0371
  257SOL    HW1 1026   0.133   1.885   0.171 -1.9004  2.4341  0.8766
  257SOL    HW2 1027   0.113   1.862   0.019 -1.3322 -0.7255 -0.1858
  257SOL     MW 1028   0.101   1.910   0.095 -0.7195  0.0955  0.0638
  258SOL     OW 1029   0.679   1.014   2.461 -0.1575 -0.3791 -0.2259
  258SOL    HW1 1030   0.697   1.093   2.420  1.0184  0.2414 -2.2115
  258SOL    HW2 1031   0.597   1.024   2.515 -1.5991  0.0249  1.0025
  258SOL     MW 1032   0.671   1.026   2.463 -0.1926 -0.2439 -0.3258
  259SOL     OW 1033   0.760   0.454   2.380 -0.0992 -0.2102  0.1809
  259SOL    HW1 1034   0.677   0.496   2.380  0.5465 -1.5061 -0.5656
  259SOL    HW2 1035   0.745   0.364   2.406  1.5309 -1.0978  1.2857
  259SOL     MW 1036   0.747   0.447   2.383  0.2011 -0.4983  0.2282
  260SOL     OW 1037   0.510   0.138   1.608  0.0068  0.4219 -0.1500
  260SOL    HW1 1038   0.464   0.097   1.533 -3.2927 -1.0963  2.4777
  260SOL    HW2 1039   0.598   0.153   1.582 -4.6150 -0.4165 -3.4958
  260SOL     MW 1040   0.515   0.134   1.595 -1.0383  0.1110 -0.2447
  261SOL     OW 1041   1.303   0.762   2.017  0.1730  0.6283 -0.1690
  261SOL    HW1 1042   1.310   0.784   2.113  0.4956 -0.3536 -1.2282
  261SOL    HW2 1043   1.329   0.675   2.003  2.0176  2.6029  0.3230
  261SOL     MW 1044   1.307   0.754   2.028  0.4589  0.7593 -0.2439
  262SOL     OW 1045   1.098   0.312   0.164 -0.5133  0.1976  0.4924
  262SOL    HW1 1046   1.191   0.301   0.131 -1.4406 -1.7936  1.9061
  262SOL    HW2 1047   1.039   0.278   0.099 -1.1728  0.1561  0.4085
  262SOL     MW 1048   1.103   0.306   0.151 -0.7227 -0.0706  0.6678
  263SOL     OW 1049   0.432   3.084   2.508  0.0209  0.2725  0.3461
  263SOL    HW1 1050   0.356   3.140   2.485  2.0782  0.6294 -2.6936
  263SOL    HW2 1051   0.480   3.092   2.423 -1.5256  1.1658 -0.2511
  263SOL     MW 1052   0.429   3.093   2.494  0.0883  0.4374 -0.1338
  264SOL     OW 1053   1.518   1.285   1.930  0.1116  0.4032 -0.1050
  264SOL    HW1 1054   1.484   1.275   2.018 -1.4698  2.6284  0.7402
  264SOL    HW2 1055   1.605   1.317   1.950 -1.6294 -0.4802 -1.2329
  264SOL     MW 1056   1.525   1.288   1.944 -0.3268  0.5802 -0.1423
  265SOL     OW 1057   0.674   2.802   2.278  0.5590 -0.1062  0.5110
  265SOL    HW1 1058   0.724   2.724   2.242  3.1257  0.1046  1.2567
  265SOL    HW2 1059   0.693   2.801   2.372 -2.6592 -0.5755 -1.9987
  265SOL     MW 1060   0.683   2.792   2.286  0.4731 -0.1403  0.2782
  266SOL     OW 1061   1.005   0.733   2.224 -0.5180 -0.2039 -0.0551
  266SOL    HW1 1062   0.972   0.665   2.166  0.0359  0.3135  2.7798
  266SOL    HW2 1063   1.103   0.741   2.223 -0.2244  1.5489 -0.0551
  266SOL     MW 1064   1.013   0.725   2.217 -0.4062  0.0957  0.3190
  267SOL     OW 1065   1.388   1.697   2.772  0.3850  0.4240  0.5795
  267SOL    HW1 1066   1.479   1.679   2.737  1.5306  0.5678  0.7474
  267SOL    HW2 1067   1.339   1.743   2.700  3.3954  0.5595 -0.1950
  267SOL     MW 1068   1.393   1.701   2.758  0.9333  0.4608  0.4994
  268SOL     OW 1069   0.265   0.828   1.731 -0.7473 -0.3735 -0.6371
  268SOL    HW1 1070   0.193   0.860   1.677  1.9456 -0.6940 -0.1806
  268SOL    HW2 1071   0.265   0.735   1.707 -1.6284  0.8819 -1.4331
  268SOL     MW 1072   0.255   0.820   1.721 -0.5082 -0.2502 -0.6819
  269SOL     OW 1073   1.397   1.951   2.354  0.1587 -0.1871 -0.2527
  269SOL    HW1 1074   1.443   2.023   2.313 -0.5644  1.1893 -0.5421
  269SOL    HW2 1075   1.352   1.991   2.434 -1.2116  0.2178  3.8217
  269SOL     MW 1076   1.397   1.966   2.359 -0.1175  0.0479  0.2467
  270SOL     OW 1077   1.165   0.376   1.604 -0.2783  0.0852  0.6351
  270SOL    HW1 1078   1.117   0.304   1.652  0.0462  2.1477  0.3064
  270SOL    HW2 1079   1.254   0.349   1.616  0.1877  2.2016 -2.2684
  270SOL     MW 1080   1.171   0.363   1.612 -0.1740  0.6366  0.2086
  271SOL     OW 1081   0.897   0.023   2.510 -0.0371  0.4591  0.4799
  271SOL    HW1 1082   0.945  -0.031   2.574  2.5993 -0.9560  0.3408
  271SOL    HW2 1083   0.957   0.106   2.487 -2.3427 -0.3095 -0.3058
  271SOL     MW 1084   0.911   0.026   2.515  0.0066  0.1710  0.3579
  272SOL     OW 1085   1.491   2.904   2.774  0.2761 -0.1477 -0.4100
  272SOL    HW1 1086   1.467   2.969   2.710  0.5861 -1.0792  0.5405
  272SOL    HW2 1087   1.482   2.950   2.853 -0.7418  2.6799  0.2273
  272SOL     MW 1088   1.487   2.918   2.776  0.1827  0.1025 -0.2005
  273SOL     OW 1089   1.436   0.953   2.846  0.3557  0.3835 -0.2171
  273SOL    HW1 1090   1.525   0.973   2.865 -0.8838  0.2372  0.4027
  273SOL    HW2 1091   1.383   1.032   2.873  1.4814  2.2587 -1.1105
  273SOL     MW 1092   1.441   0.966   2.852  0.3407  0.6116 -0.2532
  274SOL     OW 1093   1.471   0.729   0.172  0.3373 -0.3890 -0.4395
  274SOL    HW1 1094   1.517   0.650   0.189  1.6741  0.9931 -1.8059
  274SOL    HW2 1095   1.379   0.703   0.198  2.0971 -0.7884 -0.9659
  274SOL     MW 1096   1.465   0.715   0.177  0.7458 -0.2594 -0.6892
  275SOL     OW 1097   1.712   0.628   1.819  0.3387 -0.4650 -0.2401
  275SOL    HW1 1098   1.797   0.654   1.867  3.6719  0.2501 -1.4615
  275SOL    HW2 1099   1.711   0.533   1.819 -0.7917  0.4169  0.4297
  275SOL     MW 1100   1.723   0.619   1.825  0.6293 -0.2543 -0.3128
  276SOL     OW 1101   0.256   1.199   1.832 -0.1725 -0.1929  0.2385
  276SOL    HW1 1102   0.312   1.147   1.888 -1.1163 -0.1933 -2.4982
  276SOL    HW2 1103   0.182   1.230   1.889 -2.8077 -1.7114  1.5007
  276SOL     MW 1104   0.253   1.196   1.847 -0.6447 -0.3933  0.0440
  277SOL     OW 1105   1.872   1.268   2.432  0.5011 -0.1664 -0.3502
  277SOL    HW1 1106   1.937   1.340   2.440 -2.8618 -0.5733 -0.9326
  277SOL    HW2 1107   1.931   1.197   2.416  0.7734  2.1413 -2.6315
  277SOL     MW 1108   1.888   1.268   2.431  0.0933  0.0844 -0.7280
  278SOL     OW 1109   1.459   0.610   1.699  0.6278  0.1441  0.3116
  278SOL    HW1 1110   1.425   0.569   1.780 -1.7358  1.0164  0.2518
  278SOL    HW2 1111   1.550   0.622   1.716  2.6519 -3.4328 -1.4557
  278SOL     MW 1112   1.467   0.607   1.712  0.5830 -0.2128  0.0706
  279SOL     OW 1113   0.520   0.019   2.269 -0.0066 -0.3323 -0.4168
  279SOL    HW1 1114   0.591  -0.035   2.235  2.4151 -0.2377 -0.2086
  279SOL    HW2 1115   0.557   0.107   2.261  0.7895  0.8255 -2.1732
  279SOL     MW 1116   0.534   0.023   2.264  0.4179 -0.1670 -0.6211
  280SOL     OW 1117   1.478   1.043   2.139 -0.1173 -0.1512 -0.6422
  280SOL    HW1 1118   1.539   0.981   2.095 -0.1035 -1.6247 -0.7754
  280SOL    HW2 1119   1.438   1.002   2.222 -0.7069 -0.8810 -0.6577
  280SOL     MW 1120   1.481   1.029   2.144 -0.1933 -0.4419 -0.6618
  281SOL     OW 1121   1.287   1.304   2.743  0.3714  0.3041  0.7293
  281SOL    HW1 1122   1.377   1.313   2.763 -2.2076 -0.4898  1.3078
  281SOL    HW2 1123   1.245   1.281   2.827 -1.7678  0.8621 -0.1499
  281SOL     MW 1124   1.294   1.302   2.757 -0.2511  0.2730  0.6896
  282SOL     OW 1125   1.157   1.269   1.643  0.0621 -0.2144 -0.3234
  282SOL    HW1 1126   1.150   1.363   1.617 -1.6974  4.0041  1.3154
  282SOL    HW2 1127   1.099   1.263   1.717  1.0931  0.4727 -0.7524
  282SOL     MW 1128   1.149   1.281   1.649 -0.0340  0.4328 -0.1638
  283SOL     OW 1129   0.713   1.276   2.994  0.5511 -0.6063 -0.6408
  283SOL    HW1 1130   0.776   1.261   3.062  0.4765  0.4515 -0.2895
  283SOL    HW2 1131   0.699   1.377   3.004  0.5018  1.2370  1.1505
  283SOL     MW 1132   0.720   1.287   3.004  0.5348 -0.2235 -0.3581
  284SOL     OW 1133   0.515   0.636   2.404  0.0715 -0.3524  0.0787
  284SOL    HW1 1134   0.588   0.680   2.360  1.6147 -0.9166  0.8781
  284SOL    HW2 1135   0.478   0.595   2.329 -0.7063  2.2167 -0.6544
  284SOL     MW 1136   0.520   0.637   2.389  0.1725 -0.0879  0.0874
  285SOL     OW 1137   0.851   0.920   2.812  0.1308  0.6073 -0.0495
  285SOL    HW1 1138   0.921   0.938   2.745  3.1165 -2.1969 -0.1802
  285SOL    HW2 1139   0.828   0.827   2.803 -1.0099 -0.3791  1.2610
  285SOL     MW 1140   0.857   0.910   2.802  0.3742  0.1072  0.1062
  286SOL     OW 1141   1.170   1.500   2.578 -0.0166 -0.1772  0.4508
  286SOL    HW1 1142   1.228   1.474   2.647 -0.6762  1.3646 -0.8139
  286SOL    HW2 1143   1.183   1.595   2.577 -0.2302  0.3594 -2.3876
  286SOL     MW 1144   1.180   1.510   2.587 -0.1318  0.0970 -0.0906
  287SOL     OW 1145   1.078   0.980   0.291  0.3700  0.5936  0.4725
  287SOL    HW1 1146   1.094   1.011   0.378  0.6774 -1.9490 -0.0694
  287SOL    HW2 1147   0.987   0.998   0.266  0.4052 -1.6611 -2.1621
  287SOL     MW 1148   1.068   0.986   0.299  0.4152 -0.0394  0.0534
  288SOL     OW 1149   1.560   0.593   2.121 -0.2088 -0.1648  0.5388
  288SOL    HW1 1150   1.551   0.615   2.214  0.9336 -0.1883  0.3731
  288SOL    HW2 1151   1.604   0.671   2.078  0.8149 -1.7823 -2.9611
  288SOL     MW 1152   1.565   0.606   2.128  0.0770 -0.3813  0.0551
  289SOL     OW 1153   0.953   1.035   2.581  0.7116 -0.1220  0.1405
  289SOL    HW1 1154   1.008   0.965   2.542 -0.5559  2.6000 -2.0432
  289SOL    HW2 1155   0.868   1.027   2.536 -0.7672  1.5282 -0.2828
  289SOL     MW 1156   0.949   1.024   2.570  0.3492  0.4549 -0.2035
  290SOL     OW 1157   0.886   0.598   1.563 -0.8428  1.0786 -0.2681
  290SOL    HW1 1158   0.930   0.566   1.484  0.7002 -1.2860 -0.3285
  290SOL    HW2 1159   0.956   0.597   1.632 -0.5360  0.9107  0.6159
  290SOL     MW 1160   0.901   0.594   1.562 -0.5988  0.7445 -0.1594
  291SOL     OW 1161   0.196   0.317   0.150  0.1248  0.1613  0.0875
  291SOL    HW1 1162   0.263   0.259   0.186 -0.9057 -1.0588 -1.3590
  291SOL    HW2 1163   0.140   0.259   0.080 -1.3702  1.1786  0.4538
  291SOL     MW 1164   0.197   0.301   0.145 -0.2084  0.1345 -0.0550
  292SOL     OW 1165   1.036   0.575   0.087 -0.6555  0.3639 -0.4044
  292SOL    HW1 1166   1.077   0.641   0.153  1.0621  0.1845 -0.2103
  292SOL    HW2 1167   1.075   0.483   0.109  0.3769  1.5594 -1.0203
  292SOL     MW 1168   1.047   0.572   0.099 -0.2927  0.4979 -0.4600
  293SOL     OW 1169   0.217   0.139   2.463 -1.2052  0.0985  0.3635
  293SOL    HW1 1170   0.148   0.082   2.428 -0.1280 -0.4839  0.1975
  293SOL    HW2 1171   0.163   0.189   2.529 -0.3478 -0.3222  3.3339
  293SOL     MW 1172   0.201   0.138   2.467 -0.9499 -0.0338  0.7335
  294SOL     OW 1173   1.504   0.647   2.385  0.6146 -0.1557  0.0398
  294SOL    HW1 1174   1.554   0.693   2.455  1.7965 -1.0722 -0.6284
  294SOL    HW2 1175   1.499   0.559   2.409 -3.7651  3.3392 -1.8249
  294SOL     MW 1176   1.510   0.641   2.398  0.1927  0.1845 -0.2944
  295SOL     OW 1177   0.903   0.663   2.510 -0.2362 -0.4085  0.4073
  295SOL    HW1 1178   0.886   0.575   2.468  0.5740  3.3888  1.4508
  295SOL    HW2 1179   0.842   0.674   2.587  1.0992 -0.0790 -1.1485
  295SOL     MW 1180   0.893   0.653   2.515  0.0469  0.1360  0.3397
  296SOL     OW 1181   1.275   0.246   2.039  0.6617 -0.5452 -0.2057
  296SOL    HW1 1182   1.335   0.175   2.028 -2.1376  0.6069  0.3507
  296SOL    HW2 1183   1.286   0.253   2.133  2.5965 -0.1418 -1.8043
  296SOL     MW 1184   1.284   0.238   2.050  0.5476 -0.3399 -0.3432
  297SOL     OW 1185   1.431   0.345   1.595 -0.7982  0.0009 -0.1467
  297SOL    HW1 1186   1.458   0.415   1.654 -4.1123 -0.7792 -0.4129
  297SOL    HW2 1187   1.500   0.280   1.603  1.4872  0.9299 -2.2109
  297SOL     MW 1188   1.444   0.346   1.603 -0.9339  0.0205 -0.4542
  298SOL     OW 1189   1.636   0.871   1.991 -0.5460 -0.1110  0.4112
  298SOL    HW1 1190   1.606   0.936   1.920 -0.2278  0.0917 -0.8469
  298SOL    HW2 1191   1.729   0.864   1.975 -0.4671  1.2353 -1.1554
  298SOL     MW 1192   1.644   0.878   1.979 -0.4936  0.0934  0.0385
  299SOL     OW 1193   0.540   1.046   0.032 -0.4398 -0.1770  0.4344
  299SOL    HW1 1194   0.604   1.100  -0.005 -0.3624  0.5779  0.6960
  299SOL    HW2 1195   0.484   1.057  -0.047  1.4212  1.0703 -0.4129
  299SOL     MW 1196   0.541   1.055   0.017 -0.1840  0.0872  0.3572
  300SOL     OW 1197   1.237   1.135   2.502  0.5126 -0.4835  0.0401
  300SOL    HW1 1198   1.155   1.092   2.494  1.7582  1.1091 -2.4505
  300SOL    HW2 1199   1.259   1.163   2.595  2.1293  1.4751 -2.2228
  300SOL     MW 1200   1.229   1.133   2.513  0.8902 -0.0149 -0.5870
  301SOL     OW 1201   1.394   0.949   0.674  0.6564  0.6687 -0.3337
  301SOL    HW1 1202   1.445   0.966   0.754 -0.4551  2.1678 -2.9066
  301SOL    HW2 1203   1.333   0.878   0.706  1.2973 -1.3115 -0.3051
  301SOL     MW 1204   1.393   0.942   0.689  0.5943  0.6053 -0.6694
  302SOL     OW 1205   0.128   1.471   2.026  0.0500  0.1112 -0.7475
  302SOL    HW1 1206   0.156   1.402   2.098  2.9542 -0.4650 -3.0927
  302SOL    HW2 1207   0.070   1.534   2.082  0.7840  0.8924  1.1199
  302SOL     MW 1208   0.124   1.471   2.043  0.5300  0.1383 -0.8106
  303SOL     OW 1209   0.389   1.703   2.643 -0.5714  0.1214 -0.0790
  303SOL    HW1 1210   0.385   1.694   2.550  0.4738 -0.3080  1.3597
  303SOL    HW2 1211   0.306   1.714   2.685  1.7978 -0.5540 -0.9683
  303SOL     MW 1212   0.378   1.703   2.636 -0.1209 -0.0244 -0.0065
  304SOL     OW 1213   0.612   2.039   2.350 -0.9598  0.3587  0.1701
  304SOL    HW1 1214   0.686   2.087   2.310 -0.1835  2.0092 -1.5935
  304SOL    HW2 1215   0.660   1.959   2.375  0.0572 -0.5644 -1.7478
  304SOL     MW 1216   0.628   2.035   2.348 -0.7232  0.4547 -0.3156
  305SOL     OW 1217   1.101   0.577   0.515  0.0950  0.0533 -0.0756
  305SOL    HW1 1218   1.018   0.550   0.479 -0.7759  1.5793 -0.8765
  305SOL    HW2 1219   1.143   0.501   0.545 -2.6905  1.2521 -1.9109
  305SOL     MW 1220   1.095   0.563   0.514 -0.3874  0.4128 -0.4234
  306SOL     OW 1221   1.238   1.481   0.267 -0.1079  0.0504 -0.3824
  306SOL    HW1 1222   1.250   1.403   0.316 -0.8111 -0.0127  1.2195
  306SOL    HW2 1223   1.314   1.481   0.206 -3.5107 -0.7417  2.5923
  306SOL     MW 1224   1.249   1.471   0.265 -0.6496 -0.0624  0.2215
  307SOL     OW 1225   1.394   0.499   1.943 -0.5633 -0.1126 -0.3437
  307SOL    HW1 1226   1.351   0.413   1.962 -0.2512 -2.3575 -1.2265
  307SOL    HW2 1227   1.456   0.538   2.006 -0.7943 -0.0847  2.0062
  307SOL     MW 1228   1.396   0.493   1.953 -0.5526 -0.4051 -0.1501
  308SOL     OW 1229   2.146   0.597   2.703 -0.4162 -0.0748 -0.0399
  308SOL    HW1 1230   2.232   0.562   2.742  1.0175 -0.9248 -2.0753
  308SOL    HW2 1231   2.134   0.683   2.735  1.4150 -0.8177 -0.9661
  308SOL     MW 1232   2.155   0.604   2.713  0.0146 -0.2849 -0.4306
  309SOL     OW 1233   0.402   0.363   0.398  0.0089  0.0906  0.1255
  309SOL    HW1 1234   0.489   0.364   0.435  0.4872 -0.0170 -1.0349
  309SOL    HW2 1235   0.420   0.334   0.309 -0.3020  2.0037 -0.9319
  309SOL     MW 1236   0.416   0.360   0.391  0.0310  0.3288 -0.1671
  310SOL     OW 1237   0.506   0.617   1.935  0.5287  0.3370  0.1617
  310SOL    HW1 1238   0.541   0.533   1.896  2.6606  1.6663 -0.8102
  310SOL    HW2 1239   0.579   0.683   1.912 -1.7526  0.5124  0.4744
  310SOL     MW 1240   0.520   0.614   1.927  0.5090  0.5356  0.0747
  311SOL     OW 1241   1.940   0.705   1.952  0.0209  0.1075 -0.2017
  311SOL    HW1 1242   1.915   0.703   2.044  1.7588  1.7526 -1.5386
  311SOL    HW2 1243   1.992   0.618   1.935  1.4692 -0.9697 -1.3546
  311SOL     MW 1244   1.943   0.693   1.962  0.4413  0.1824 -0.5302
  312SOL     OW 1245   1.675   2.489   0.094  0.2566 -0.1326 -0.0127
  312SOL    HW1 1246   1.738   2.534   0.151 -1.6867  0.4012 -1.6166
  312SOL    HW2 1247   1.609   2.553   0.083  0.3089  2.0224  0.5343
  312SOL     MW 1248   1.675   2.504   0.100  0.0071  0.2221 -0.1521
  313SOL     OW 1249   0.110   1.226   2.948 -0.3534 -0.1376 -0.2225
  313SOL    HW1 1250   0.132   1.183   3.029  1.3709  1.2186 -0.2248
  313SOL    HW2 1251   0.194   1.272   2.932  1.6218  1.2724 -1.7602
  313SOL     MW 1252   0.124   1.226   2.956  0.1347  0.2274 -0.4257
  314SOL     OW 1253   2.117   2.988   3.003 -0.0698  0.1274  0.1610
  314SOL    HW1 1254   2.075   3.029   2.928  1.0113 -0.3133 -1.2417
  314SOL    HW2 1255   2.172   3.051   3.055  2.7140 -1.6471  2.5035
  314SOL     MW 1256   2.118   3.002   3.000  0.4401 -0.1649  0.2850
  315SOL     OW 1257   1.519   1.910   0.015  0.7102  0.6455 -0.6189
  315SOL    HW1 1258   1.442   1.961   0.046 -1.1289  0.4375 -0.4395
  315SOL    HW2 1259   1.551   1.957  -0.063 -1.1743 -0.9329 -0.8487
  315SOL     MW 1260   1.513   1.923   0.009  0.2189  0.4098 -0.6255
  316SOL     OW 1261   1.289   0.673   2.717 -0.5320  0.2533  0.4808
  316SOL    HW1 1262   1.379   0.692   2.685 -0.3530 -1.8975 -2.8350
  316SOL    HW2 1263   1.292   0.700   2.812 -1.6717  0.2425  0.0467
  316SOL     MW 1264   1.302   0.679   2.725 -0.6588 -0.0319 -0.0139
  317SOL     OW 1265   0.723   1.516   2.562 -0.1429 -0.2500 -0.0147
  317SOL    HW1 1266   0.791   1.449   2.559  1.3337  2.0515  0.6954
  317SOL    HW2 1267   0.732   1.557   2.475 -0.4346  0.1427 -0.2021
  317SOL     MW 1268   0.733   1.512   2.550  0.0134  0.1054  0.0543
  318SOL     OW 1269   1.343   0.390   2.927  0.3020 -0.3943 -0.1680
  318SOL    HW1 1270   1.266   0.441   2.928 -0.0758  2.6687 -0.2896
  318SOL    HW2 1271   1.409   0.459   2.926  0.4456 -0.2229 -0.5765
  318SOL     MW 1272   1.341   0.406   2.927  0.2711  0.0324 -0.2380
  319SOL     OW 1273   0.772   0.391   2.850  0.2949  0.3918 -0.5144
  319SOL    HW1 1274   0.717   0.338   2.786  1.1992 -1.2419 -0.9367
  319SOL    HW2 1275   0.716   0.385   2.931 -0.9989 -0.5419 -1.2050
  319SOL     MW 1276   0.757   0.383   2.852  0.2435  0.0531 -0.6612
  320SOL     OW 1277   1.055   1.321   1.924 -0.0341 -0.3701  0.1857
  320SOL    HW1 1278   1.097   1.279   2.001 -0.1927  0.2584  2.1729
  320SOL    HW2 1279   1.100   1.407   1.914  1.1318  0.7823  1.0213
  320SOL     MW 1280   1.066   1.327   1.933  0.0988 -0.1351  0.5581
  321SOL     OW 1281   1.034   0.951   3.011 -0.1239 -0.9374 -0.5215
  321SOL    HW1 1282   0.952   0.934   2.960  0.0288 -0.6858 -1.1953
  321SOL    HW2 1283   1.078   0.875   3.049  0.3190  0.4470  0.7211
  321SOL     MW 1284   1.029   0.939   3.010 -0.0453 -0.7215 -0.4465
  322SOL     OW 1285   1.262   0.817   1.702  0.2567  0.2844  0.2108
  322SOL    HW1 1286   1.344   0.764   1.715  1.0237 -1.4796 -0.6023
  322SOL    HW2 1287   1.231   0.854   1.786  0.5265  1.9642  0.6984
  322SOL     MW 1288   1.269   0.815   1.715  0.3935  0.2733  0.1678
  323SOL     OW 1289   1.227   1.566   1.874  0.3921  0.6338 -0.4680
  323SOL    HW1 1290   1.226   1.553   1.783  1.4773  1.6944 -1.5594
  323SOL    HW2 1291   1.160   1.633   1.884  0.0256 -0.3389  0.8709
  323SOL     MW 1292   1.218   1.573   1.864  0.4869  0.6454 -0.4354
  324SOL     OW 1293   1.449   1.013   2.432 -0.2057 -0.1944  0.0295
  324SOL    HW1 1294   1.353   1.046   2.463  1.3793 -0.7036 -0.9575
  324SOL    HW2 1295   1.513   1.073   2.471 -2.9046  2.2424 -1.0180
  324SOL     MW 1296   1.445   1.025   2.441 -0.3527  0.0599 -0.2389
  325SOL     OW 1297   1.080   0.482   2.937 -0.2481 -0.4785  0.4297
  325SOL    HW1 1298   1.062   0.522   3.022 -1.0580  0.0759  0.7699
  325SOL    HW2 1299   0.997   0.487   2.879 -1.3911 -0.2745  3.0270
  325SOL     MW 1300   1.067   0.488   2.941 -0.5058 -0.3785  0.8173
  326SOL     OW 1301   0.455   1.349   2.163 -0.5770  1.0514  0.0404
  326SOL    HW1 1302   0.535   1.303   2.136 -0.7514 -2.2541  0.1567
  326SOL    HW2 1303   0.475   1.440   2.165  1.1945 -1.3515  1.4862
  326SOL     MW 1304   0.468   1.355   2.160 -0.3663  0.2982  0.2465
  327SOL     OW 1305   1.919   0.832   2.456  0.1732 -0.3977 -0.3158
  327SOL    HW1 1306   1.913   0.762   2.521  1.2096 -1.6685  1.4044
  327SOL    HW2 1307   2.016   0.851   2.441  0.0920  0.7803  0.4989
  327SOL     MW 1308   1.931   0.826   2.463  0.2992 -0.4099  0.0187
  328SOL     OW 1309   0.200   1.284   2.192 -0.2546 -0.2641  0.5235
  328SOL    HW1 1310   0.162   1.234   2.121 -1.5263 -2.8497  0.4898
  328SOL    HW2 1311   0.297   1.291   2.172  1.2368 -1.7263 -1.4731
  328SOL     MW 1312   0.208   1.279   2.180 -0.2256 -0.7982  0.2556
  329SOL     OW 1313   0.111   0.066   1.350 -0.1514  0.3635 -0.1868
  329SOL    HW1 1314   0.078   0.133   1.404 -2.4174 -0.2571  1.5936
  329SOL    HW2 1315   0.205   0.102   1.332  1.9491  3.8755 -1.0062
  329SOL     MW 1316   0.119   0.079   1.355 -0.1732  0.7450 -0.0600
  330SOL     OW 1317   0.321   0.004   2.084  0.8690  0.3865  0.2915
  330SOL    HW1 1318   0.371   0.038   2.157 -1.7463  0.3658  1.0226
  330SOL    HW2 1319   0.261  -0.057   2.116 -1.3757 -2.0761 -4.5341
  330SOL     MW 1320   0.320   0.000   2.098  0.2277  0.0589 -0.2487
  331SOL     OW 1321   0.836   1.209   2.280  0.1816 -0.0965  0.3516
  331SOL    HW1 1322   0.795   1.238   2.201  0.3374  0.2388  0.6516
  331SOL    HW2 1323   0.834   1.282   2.342  1.5755 -0.1926 -2.1822
  331SOL     MW 1324   0.831   1.222   2.278  0.3861 -0.0649  0.0569
  332SOL     OW 1325   1.367   1.714   3.041 -0.5324  0.0571  0.5843
  332SOL    HW1 1326   1.372   1.721   2.939  1.2670  0.4496 -1.8106
  332SOL    HW2 1327   1.422   1.782   3.077  2.1406 -1.3457  1.5768
  332SOL     MW 1328   1.375   1.724   3.032  0.0577 -0.0762  0.3993
  333SOL     OW 1329   1.768   1.430   2.941 -0.2051 -0.2588 -0.2902
  333SOL    HW1 1330   1.850   1.462   2.990 -1.3508  1.3560 -1.1101
  333SOL    HW2 1331   1.721   1.374   2.996 -2.1231 -1.7787 -2.6111
  333SOL     MW 1332   1.773   1.427   2.955 -0.6094 -0.2463 -0.7046
  334SOL     OW 1333   1.408   3.095   2.587 -0.2081  0.2368  0.5919
  334SOL    HW1 1334   1.317   3.084   2.619  0.4153 -1.3255  2.3526
  334SOL    HW2 1335   1.430   3.181   2.621  0.0077 -0.1626  1.8358
  334SOL     MW 1336   1.399   3.105   2.596 -0.0974 -0.0220  0.9883
  335SOL     OW 1337   1.268   0.758   2.991  0.4494 -0.0414 -0.5821
  335SOL    HW1 1338   1.317   0.752   3.073 -0.4661  0.9548  1.0793
  335SOL    HW2 1339   1.310   0.827   2.944 -0.2895 -0.4285 -3.5311
  335SOL     MW 1340   1.280   0.766   2.996  0.2311  0.0390 -0.7520
  336SOL     OW 1341   0.958   1.069   1.928 -0.1767 -0.0834  0.2378
  336SOL    HW1 1342   0.966   1.160   1.957 -1.7468  1.2222  0.9341
  336SOL    HW2 1343   1.049   1.038   1.916  0.9229 -0.6890  0.5363
  336SOL     MW 1344   0.971   1.077   1.930 -0.2388  0.0090  0.3691
  337SOL     OW 1345   0.597   1.782   2.789 -0.5541  0.1912 -0.3310
  337SOL    HW1 1346   0.520   1.775   2.730 -2.6578  0.6119  0.4241
  337SOL    HW2 1347   0.677   1.748   2.738  0.6654 -0.7520  1.5599
  337SOL     MW 1348   0.597   1.777   2.774 -0.6707  0.1222  0.0181
  338SOL     OW 1349   1.126   0.793   2.522 -0.3156 -0.2658  0.3998
  338SOL    HW1 1350   1.044   0.735   2.521  0.3098 -1.0758 -0.4306
  338SOL    HW2 1351   1.190   0.754   2.591  1.8762 -1.5122 -0.7016
  338SOL     MW 1352   1.124   0.780   2.531  0.0561 -0.5371  0.1449
  339SOL     OW 1353   1.539   1.043   1.797 -0.2698 -0.3689 -0.4855
  339SOL    HW1 1354   1.473   1.039   1.721 -0.8041 -0.3882 -1.8451
  339SOL    HW2 1355   1.501   1.118   1.847 -2.0553 -1.7402 -1.1483
  339SOL     MW 1356   1.526   1.053   1.793 -0.5758 -0.5523 -0.7524
  340SOL     OW 1357   1.386   1.464   0.040 -0.6080  0.2476 -0.4779
  340SOL    HW1 1358   1.385   1.538  -0.020 -0.0022 -0.0888  0.0651
  340SOL    HW2 1359   1.477   1.429   0.041 -0.8205  1.0515 -0.4728
  340SOL     MW 1360   1.398   1.469   0.033 -0.5561  0.3093 -0.4056
  341SOL     OW 1361   0.150   1.409   2.695  0.2816  0.4013 -0.1234
  341SOL    HW1 1362   0.233   1.360   2.698  1.1186  0.5551  1.4352
  341SOL    HW2 1363   0.086   1.350   2.654  3.3926  0.6878  0.4608
  341SOL     MW 1364   0.153   1.395   2.690  0.8025  0.4594  0.1593
  342SOL     OW 1365   1.356   0.293   0.089 -0.3829  0.1495  0.0217
  342SOL    HW1 1366   1.408   0.370   0.113 -0.9022 -1.2991  0.5679
  342SOL    HW2 1367   1.356   0.297  -0.007 -1.1127 -0.3231 -0.1109
  342SOL     MW 1368   1.363   0.304   0.080 -0.5477 -0.1039  0.0763
  343SOL     OW 1369   0.233   0.315   2.183 -0.0331  0.3111 -0.7205
  343SOL    HW1 1370   0.276   0.266   2.250 -1.8915  2.0126 -0.3740
  343SOL    HW2 1371   0.172   0.262   2.134  0.4607 -0.9315 -0.8456
  343SOL     MW 1372   0.231   0.302   2.186 -0.2131  0.3717 -0.6912
  344SOL     OW 1373   1.696   2.076   0.170 -0.1875  0.3049 -0.0851
  344SOL    HW1 1374   1.702   2.153   0.112  1.2183 -1.1168  0.3453
  344SOL    HW2 1375   1.630   2.017   0.137 -1.3777 -1.7614  1.4055
  344SOL     MW 1376   1.688   2.078   0.158 -0.1591 -0.1553  0.1683
  345SOL     OW 1377   0.736   1.638   2.316  0.4078 -0.6194  0.6396
  345SOL    HW1 1378   0.652   1.614   2.281 -0.3181 -1.4642 -0.6624
  345SOL    HW2 1379   0.789   1.586   2.253  2.6269 -0.0814 -2.2620
  345SOL     MW 1380   0.732   1.628   2.303  0.6048 -0.6599  0.0849
  346SOL     OW 1381   1.734   1.129   0.003  0.2119 -0.1620 -0.3583
  346SOL    HW1 1382   1.830   1.132  -0.006 -0.7423 -4.1581 -1.0123
  346SOL    HW2 1383   1.725   1.064   0.074  1.9328 -0.9986 -0.0924
  346SOL     MW 1384   1.746   1.121   0.011  0.3130 -0.7996 -0.4095
  347SOL     OW 1385   1.296   0.772   2.284  0.0413 -0.1118 -0.1630
  347SOL    HW1 1386   1.371   0.715   2.313 -1.4791  0.5865  0.3834
  347SOL    HW2 1387   1.245   0.770   2.360 -0.4406  1.0335 -1.6224
  347SOL     MW 1388   1.299   0.764   2.297 -0.2229  0.1314 -0.2835
  348SOL     OW 1389   1.400   2.611   1.861  0.6510  0.0677 -0.2495
  348SOL    HW1 1390   1.438   2.527   1.905  2.1959  1.3015  1.6140
  348SOL    HW2 1391   1.413   2.681   1.929  1.6383 -0.0869  1.6669
  348SOL     MW 1392   1.407   2.609   1.876  0.9851  0.2101  0.2492
  349SOL     OW 1393   1.457   0.252   2.697  1.2924 -0.1262 -0.2871
  349SOL    HW1 1394   1.405   0.304   2.756  1.9404 -1.0879 -2.1238
  349SOL    HW2 1395   1.545   0.259   2.740 -0.3335  0.1715  0.4629
  349SOL     MW 1396   1.462   0.259   2.710  1.1634 -0.2138 -0.4305
  350SOL     OW 1397   1.864   0.643   2.647 -0.7077 -0.2677  0.9095
  350SOL    HW1 1398   1.823   0.578   2.591 -1.2647  0.9666  1.8476
  350SOL    HW2 1399   1.953   0.613   2.674  3.8189 -0.0373 -2.1919
  350SOL     MW 1400   1.870   0.630   2.643 -0.1839 -0.0744  0.6241
  351SOL     OW 1401   0.064   0.958   1.531  0.1726  0.2159 -0.3009
  351SOL    HW1 1402  -0.010   0.993   1.581 -1.4861  1.8393 -2.3918
  351SOL    HW2 1403   0.129   1.022   1.544 -0.4862 -0.3878 -2.5970
  351SOL     MW 1404   0.063   0.971   1.540 -0.1332  0.3505 -0.8797
  352SOL     OW 1405   0.874   1.678   2.724  0.3969  0.3805  0.5674
  352SOL    HW1 1406   0.904   1.628   2.795  1.8752 -1.6300  0.5433
  352SOL    HW2 1407   0.835   1.608   2.673  0.8354  0.4286 -0.7543
  352SOL     MW 1408   0.873   1.662   2.726  0.6498  0.1216  0.3899
  353SOL     OW 1409  -0.004   2.443   2.721 -0.0459  0.0553 -0.3668
  353SOL    HW1 1410   0.090   2.425   2.721  1.4672  0.4005 -2.1769
  353SOL    HW2 1411  -0.032   2.478   2.634 -1.5207  2.2043  2.9449
  353SOL     MW 1412   0.005   2.446   2.709 -0.0408  0.3844 -0.1687
  354SOL     OW 1413   0.348   2.509   0.838 -0.3518  0.2995  0.0784
  354SOL    HW1 1414   0.356   2.485   0.932 -2.2044 -0.2552 -0.3328
  354SOL    HW2 1415   0.291   2.440   0.800  1.6636 -1.4298 -2.7734
  354SOL     MW 1416   0.341   2.497   0.845 -0.3303 -0.0018 -0.3521
  355SOL     OW 1417   0.021   2.255   0.393 -0.2018  0.1597  0.0499
  355SOL    HW1 1418  -0.041   2.181   0.393 -0.2837  1.9486  1.4710
  355SOL    HW2 1419   0.014   2.294   0.479  1.6239 -2.0134  0.0814
  355SOL     MW 1420   0.012   2.251   0.405  0.0283  0.1090  0.2416
  356SOL     OW 1421   0.817   2.866   1.036 -0.5426 -0.0854 -0.2923
  356SOL    HW1 1422   0.851   2.844   0.948  1.1711 -2.2337  0.2414
  356SOL    HW2 1423   0.725   2.859   1.038 -0.2194 -0.4595 -1.8963
  356SOL     MW 1424   0.810   2.862   1.025 -0.2739 -0.4182 -0.4335
  357SOL     OW 1425   1.806   2.939   0.421  0.3829 -0.3185 -0.0951
  357SOL    HW1 1426   1.751   2.871   0.468 -0.6658  3.4540  0.5867
  357SOL    HW2 1427   1.884   2.896   0.390 -3.8523  2.1324  2.0577
  357SOL     MW 1428   1.809   2.924   0.423 -0.3143  0.5026  0.2789
  358SOL     OW 1429   0.473   0.065   1.079  0.3468 -0.0779  0.3804
  358SOL    HW1 1430   0.566   0.055   1.053  0.0569  1.7270 -0.8167
  358SOL    HW2 1431   0.438   0.100   0.996 -0.1473  1.3293  0.3604
  358SOL     MW 1432   0.481   0.069   1.064  0.2434  0.3459  0.2198
  359SOL     OW 1433   0.879   2.867   1.830 -0.3474  0.8057  0.1066
  359SOL    HW1 1434   0.856   2.775   1.858  1.7061  0.0297 -0.9562
  359SOL    HW2 1435   0.940   2.863   1.747  3.2402  0.8390  0.3597
  359SOL     MW 1436   0.884   2.854   1.822  0.3969  0.7077 -0.0002
  360SOL     OW 1437   0.561   2.800   1.008 -0.6874 -0.4982 -0.3871
  360SOL    HW1 1438   0.586   2.763   0.920 -0.9085  1.8485 -0.4689
  360SOL    HW2 1439   0.576   2.726   1.066 -1.4307  0.2549 -1.0974
  360SOL     MW 1440   0.567   2.785   1.004 -0.8147 -0.0892 -0.4916
  361SOL     OW 1441   0.197   2.707   1.336 -0.3072 -0.2869 -0.3289
  361SOL    HW1 1442   0.177   2.787   1.386  1.4533 -1.3367 -1.6518
  361SOL    HW2 1443   0.290   2.679   1.359  1.2664 -0.0016  0.5603
  361SOL     MW 1444   0.207   2.714   1.346  0.1327 -0.3878 -0.3861
  362SOL     OW 1445   1.473   2.435   0.661  0.0435 -0.3746  0.1159
  362SOL    HW1 1446   1.495   2.345   0.698  0.6027 -4.4610 -2.6937
  362SOL    HW2 1447   1.492   2.504   0.727 -0.6874 -1.9750  0.9443
  362SOL     MW 1448   1.479   2.432   0.675  0.0208 -1.1249 -0.1455
  363SOL     OW 1449   0.292   3.073   0.736 -0.3683  0.7860  0.1925
  363SOL    HW1 1450   0.294   2.990   0.795  2.4903  0.6963  0.1516
  363SOL    HW2 1451   0.203   3.077   0.700  0.6594  1.0390 -2.3685
  363SOL     MW 1452   0.280   3.062   0.739  0.1444  0.8076 -0.1508
  364SOL     OW 1453   0.708   0.189   0.234  0.2191 -0.0882  0.1066
  364SOL    HW1 1454   0.674   0.107   0.266  2.6909 -3.3722 -0.4099
  364SOL    HW2 1455   0.641   0.216   0.176  0.3767 -2.2575 -0.7524
  364SOL     MW 1456   0.695   0.181   0.231  0.5660 -0.8077 -0.0749
  365SOL     OW 1457   0.967   1.930   1.100 -0.3940  0.0441 -0.1399
  365SOL    HW1 1458   0.950   2.011   1.043 -1.4326  0.8276  0.9134
  365SOL    HW2 1459   0.898   1.876   1.054 -1.4188 -2.3416 -1.6188
  365SOL     MW 1460   0.956   1.934   1.086 -0.6663 -0.1673 -0.1960
  366SOL     OW 1461   2.841   2.622   1.038  0.0164  0.6026 -1.0377
  366SOL    HW1 1462   2.920   2.633   1.085 -0.0838 -3.3169 -0.2548
  366SOL    HW2 1463   2.862   2.634   0.941  0.4886 -0.8844 -1.2453
  366SOL     MW 1464   2.855   2.625   1.031  0.0655 -0.1107 -0.9618
  367SOL     OW 1465   1.254   2.869   0.915  0.4762  0.5248  0.4565
  367SOL    HW1 1466   1.167   2.893   0.951 -1.1425  1.0762  2.6247
  367SOL    HW2 1467   1.236   2.852   0.821 -3.8517  0.9139 -0.0946
  367SOL     MW 1468   1.240   2.870   0.907 -0.3084  0.6489  0.6699
  368SOL     OW 1469   1.663   0.411   0.687  0.2089 -0.6167  0.6738
  368SOL    HW1 1470   1.751   0.373   0.673  1.3697  0.8554 -1.7803
  368SOL    HW2 1471   1.671   0.511   0.699 -2.7062 -0.5274  0.4849
  368SOL     MW 1472   1.676   0.420   0.686 -0.0226 -0.4107  0.3251
  369SOL     OW 1473   0.181   2.490   1.654  0.0396  0.0365 -0.0186
  369SOL    HW1 1474   0.266   2.465   1.692  1.4593 -0.7535  0.1155
  369SOL    HW2 1475   0.159   2.576   1.687 -0.4669 -0.6026 -2.4799
  369SOL     MW 1476   0.189   2.498   1.663  0.1601 -0.1521 -0.3257
  370SOL     OW 1477   0.725   0.042   0.983 -0.0567 -0.1604 -0.4660
  370SOL    HW1 1478   0.795   0.103   1.005 -0.6103 -1.7749 -0.6319
  370SOL    HW2 1479   0.776  -0.034   0.961 -0.7073 -2.5056 -2.5548
  370SOL     MW 1480   0.741   0.040   0.983 -0.2156 -0.6829 -0.7635
  371SOL     OW 1481   1.343   2.972   1.525  0.5086  0.2951  0.2764
  371SOL    HW1 1482   1.291   2.897   1.488 -1.7672  0.5283  1.4015
  371SOL    HW2 1483   1.329   3.045   1.458 -1.3296  0.8484 -1.2226
  371SOL     MW 1484   1.335   2.972   1.511 -0.0342  0.3988  0.2271
  372SOL     OW 1485   0.740   2.342   0.470 -0.3799 -0.1228  0.3376
  372SOL    HW1 1486   0.719   2.246   0.464  0.4967  0.2474  1.0982
  372SOL    HW2 1487   0.760   2.351   0.375  0.0268  1.3689 -1.3893
  372SOL     MW 1488   0.740   2.331   0.457 -0.2106  0.1228  0.2101
  373SOL     OW 1489   2.783   3.037   1.425 -0.1094  0.1426  0.2346
  373SOL    HW1 1490   2.856   2.998   1.379 -0.7394  1.0677  1.9319
  373SOL    HW2 1491   2.776   3.121   1.385 -1.9209 -1.1734 -2.0624
  373SOL     MW 1492   2.792   3.043   1.413 -0.4315  0.0910  0.1555
  374SOL     OW 1493   1.535   0.464   0.190  0.3321 -0.7408 -0.1760
  374SOL    HW1 1494   1.604   0.405   0.170  0.1333  3.5918 -1.8665
  374SOL    HW2 1495   1.530   0.464   0.287 -2.7622  2.2014  0.0638
  374SOL     MW 1496   1.544   0.456   0.200 -0.1024  0.2190 -0.3674
  375SOL     OW 1497   1.116   2.069   2.286 -0.5092 -0.5155 -0.5810
  375SOL    HW1 1498   1.158   2.068   2.372  1.5933 -0.0329  1.1093
  375SOL    HW2 1499   1.149   1.987   2.247  1.2019 -0.3295 -2.2414
  375SOL     MW 1500   1.126   2.058   2.292 -0.0060 -0.4273 -0.5770
  376SOL     OW 1501   0.658   2.533   0.062 -0.6014  0.7595  0.1080
  376SOL    HW1 1502   0.635   2.471   0.136 -2.7266 -1.6986  2.4447
  376SOL    HW2 1503   0.632   2.480  -0.013 -1.7856 -0.7155  0.9672
  376SOL     MW 1504   0.651   2.518   0.062 -1.0380  0.2406  0.5297
  377SOL     OW 1505   1.348   1.993   0.849 -0.4673 -0.0739  0.2046
  377SOL    HW1 1506   1.253   1.992   0.832 -1.4975  0.4674  0.7330
  377SOL    HW2 1507   1.356   1.928   0.917  1.9281  0.6902 -1.0838
  377SOL     MW 1508   1.337   1.985   0.856 -0.2872  0.0984  0.1043
  378SOL     OW 1509   1.042   2.808   1.602  0.2496  0.1097  0.1759
  378SOL    HW1 1510   0.991   2.725   1.599 -1.2044  0.3959  2.9548
  378SOL    HW2 1511   1.002   2.876   1.546 -1.0663  1.4610  2.4807
  378SOL     MW 1512   1.030   2.806   1.594 -0.1159  0.3258  0.8467
  379SOL     OW 1513   1.126   1.775   2.287  0.1880  0.1923 -0.6853
  379SOL    HW1 1514   1.032   1.777   2.295  0.6764  1.0023  0.3524
  379SOL    HW2 1515   1.150   1.705   2.227 -0.6521 -1.0306  2.3333
  379SOL     MW 1516   1.117   1.766   2.281  0.1416  0.1378 -0.1501
  380SOL     OW 1517   0.811   0.070   1.566 -0.2198  0.2666  0.0378
  380SOL    HW1 1518   0.836   0.041   1.480 -0.1365 -2.1161 -1.3149
  380SOL    HW2 1519   0.891   0.097   1.615  0.2009 -1.9129 -0.5803
  380SOL     MW 1520   0.825   0.070   1.561 -0.1533 -0.3353 -0.2222
  381SOL     OW 1521   0.800   1.996   0.781  0.2242 -0.3350  0.1427
  381SOL    HW1 1522   0.896   1.989   0.770  1.9808 -2.3384  4.0173
  381SOL    HW2 1523   0.796   2.062   0.853 -0.8372 -0.1941  0.1195
  381SOL     MW 1524   0.812   2.004   0.789  0.3159 -0.5807  0.6509
  382SOL     OW 1525   0.640   0.100   0.698 -0.4986  0.2666 -0.0059
  382SOL    HW1 1526   0.645   0.092   0.789 -0.4550 -1.4145 -3.2023
  382SOL    HW2 1527   0.620   0.007   0.666 -2.1229  0.3463 -1.7584
  382SOL     MW 1528   0.638   0.087   0.706 -0.7072  0.0553 -0.6589
  383SOL     OW 1529   0.553   3.086   0.353  0.5386 -0.2926 -0.3651
  383SOL    HW1 1530   0.565   3.025   0.278  2.2168 -1.4901 -1.6986
  383SOL    HW2 1531   0.489   3.052   0.413  1.0315  1.6396 -1.4898
  383SOL     MW 1532   0.546   3.073   0.351  0.8250 -0.1957 -0.6894
  384SOL     OW 1533   0.640   2.942   0.625  0.3785  0.0569 -0.0150
  384SOL    HW1 1534   0.709   2.912   0.678 -1.3006  1.4717 -0.6839
  384SOL    HW2 1535   0.575   2.875   0.645  0.8521  2.6988  0.2806
  384SOL     MW 1536   0.641   2.929   0.634  0.2194  0.5921 -0.0643
  385SOL     OW 1537   1.318   2.065   1.489 -0.3729 -0.3831  0.4262
  385SOL    HW1 1538   1.381   2.086   1.557 -0.7619  1.2181  0.2132
  385SOL    HW2 1539   1.281   1.984   1.527 -2.4846  1.0218 -1.9052
  385SOL     MW 1540   1.322   2.057   1.503 -0.7029  0.0135  0.0905
  386SOL     OW 1541   1.314   0.353   0.831 -0.2923 -0.6239 -0.2978
  386SOL    HW1 1542   1.272   0.337   0.747  2.3246  0.7831  1.9871
  386SOL    HW2 1543   1.241   0.367   0.893 -1.5995 -5.8660 -0.1862
  386SOL     MW 1544   1.299   0.352   0.828 -0.1195 -1.1299  0.0184
  387SOL     OW 1545   0.873   2.160   1.474  0.3571 -0.3483  0.0499
  387SOL    HW1 1546   0.936   2.198   1.411  2.9921 -0.9781  0.8696
  387SOL    HW2 1547   0.841   2.079   1.426 -0.1955 -0.2689 -0.0448
  387SOL     MW 1548   0.877   2.154   1.460  0.6318 -0.4209  0.1456
  388SOL     OW 1549   1.536   2.778   1.200  0.5786  0.6230  0.0491
  388SOL    HW1 1550   1.447   2.742   1.186 -1.0219  2.3390 -0.6911
  388SOL    HW2 1551   1.598   2.716   1.163  0.8011  1.7454  1.5429
  388SOL     MW 1552   1.533   2.765   1.193  0.3968  0.9975  0.1485
  389SOL     OW 1553   0.397   0.009   3.037  0.1327  0.2505  0.0968
  389SOL    HW1 1554   0.485  -0.023   3.027  1.0718  4.0229  3.5861
  389SOL    HW2 1555   0.383   0.067   2.956 -0.8897  1.0993 -0.9846
  389SOL     MW 1556   0.406   0.013   3.025  0.1217  0.8602  0.4145
  390SOL     OW 1557   1.297   0.099   0.650  0.1465 -0.0296 -0.0566
  390SOL    HW1 1558   1.388   0.115   0.612 -0.9258 -1.1150  0.9286
  390SOL    HW2 1559   1.303   0.079   0.744 -1.4730  0.3579  0.7969
  390SOL     MW 1560   1.310   0.098   0.657 -0.2087 -0.1217  0.1860
  391SOL     OW 1561   0.284   2.220   1.370  0.5070  0.2022 -0.6327
  391SOL    HW1 1562   0.244   2.142   1.414  0.6675 -2.0452  4.1447
  391SOL    HW2 1563   0.226   2.304   1.377 -0.1451  0.7466  0.2644
  391SOL     MW 1564   0.271   2.221   1.377  0.4422 -0.0225  0.1160
  392SOL     OW 1565   2.063   2.150   0.381 -0.7976  0.7151 -0.1596
  392SOL    HW1 1566   2.105   2.102   0.452  1.1244  2.4832  1.3906
  392SOL    HW2 1567   2.013   2.210   0.442  0.5577  0.0472  0.9599
  392SOL     MW 1568   2.062   2.152   0.398 -0.3652  0.8603  0.1927
  393SOL     OW 1569   0.175   3.013   2.722 -0.4675 -0.0095  0.7561
  393SOL    HW1 1570   0.252   3.045   2.760  1.6216  0.7587 -2.2964
  393SOL    HW2 1571   0.124   3.092   2.725 -0.7633  0.8186  0.4903
  393SOL     MW 1572   0.179   3.028   2.727 -0.2309  0.2011  0.3183
  394SOL     OW 1573   0.903   1.748   1.521  0.0915  0.5548  0.2515
  394SOL    HW1 1574   0.843   1.758   1.595 -2.1502 -2.4839  2.1202
  394SOL    HW2 1575   0.876   1.811   1.450 -0.9717  0.1505 -0.6773
  394SOL     MW 1576   0.892   1.757   1.521 -0.3446  0.1005  0.3755
  395SOL     OW 1577   1.022   2.798   2.619  0.4899  0.1591 -0.3731
  395SOL    HW1 1578   1.069   2.881   2.639  0.1689 -1.2348 -2.0732
  395SOL    HW2 1579   1.088   2.729   2.613 -1.3670  1.0632 -0.8197
  395SOL     MW 1580   1.037   2.800   2.621  0.2025  0.0945 -0.6564
  396SOL     OW 1581   0.826   1.884   2.390 -0.1585 -0.2728  0.5788
  396SOL    HW1 1582   0.884   1.896   2.469  1.2063  2.8734  0.0722
  396SOL    HW2 1583   0.807   1.790   2.381 -1.6568  1.5968 -0.7511
  396SOL     MW 1584   0.831   1.873   2.399 -0.1761  0.3890  0.3365
  397SOL     OW 1585   1.045   2.342   1.269 -0.4250 -0.1601 -0.2002
  397SOL    HW1 1586   1.094   2.362   1.185  1.5806  1.6600 -1.0375
  397SOL    HW2 1587   1.116   2.341   1.336  0.9737 -1.5106 -1.3387
  397SOL     MW 1588   1.061   2.345   1.267  0.0241 -0.0982 -0.4609
  398SOL     OW 1589   0.566   2.680   0.765 -0.6894  0.2895  0.2387
  398SOL    HW1 1590   0.502   2.617   0.790  1.9752  1.1651 -2.0124
  398SOL    HW2 1591   0.633   2.627   0.716  0.6944  0.4788 -1.6435
  398SOL     MW 1592   0.566   2.665   0.762 -0.1553  0.4300 -0.3066
  399SOL     OW 1593   0.252   2.102   0.410 -0.6297  0.0663 -0.5974
  399SOL    HW1 1594   0.178   2.165   0.413  1.7489  0.6638  1.7118
  399SOL    HW2 1595   0.316   2.129   0.338 -0.8801  0.3324 -4.1239
  399SOL     MW 1596   0.251   2.114   0.400 -0.3489  0.1802 -0.7580
  400SOL     OW 1597   0.543   1.858   0.172 -0.4219  0.7087 -0.0729
  400SOL    HW1 1598   0.558   1.942   0.207  1.1951 -1.2250 -1.8024
  400SOL    HW2 1599   0.537   1.794   0.237 -2.4589 -0.5906 -1.7920
  400SOL     MW 1600   0.544   1.861   0.185 -0.4773  0.2821 -0.5279
  401SOL     OW 1601   0.882   2.056   0.137 -0.4365 -0.1992  0.1059
  401SOL    HW1 1602   0.880   1.960   0.146 -1.5481  0.6639 -0.3400
  401SOL    HW2 1603   0.908   2.091   0.218 -5.6951 -0.6039 -2.5791
  401SOL     MW 1604   0.885   2.048   0.149 -1.2770 -0.1387 -0.3071
  402SOL     OW 1605   0.658   2.957   1.691 -0.2859  0.1299  0.2537
  402SOL    HW1 1606   0.728   2.949   1.758 -0.9576  1.2945  2.7730
  402SOL    HW2 1607   0.697   3.032   1.634  0.8464  1.7006 -0.3077
  402SOL     MW 1608   0.672   2.966   1.693 -0.2251  0.4908  0.5121
  403SOL     OW 1609   0.095   0.405   0.405  0.3027  0.1677  0.1103
  403SOL    HW1 1610   0.155   0.449   0.464 -0.6234 -0.7312 -1.2814
  403SOL    HW2 1611   0.139   0.365   0.327 -1.7898  1.0323 -3.3023
  403SOL     MW 1612   0.109   0.405   0.402 -0.0956  0.1632 -0.5236
  404SOL     OW 1613   0.878   2.838   0.766 -0.4416 -0.0060 -0.5412
  404SOL    HW1 1614   0.945   2.789   0.719 -2.4208  1.1119 -0.4641
  404SOL    HW2 1615   0.902   2.931   0.745 -2.6750  0.4949 -2.4789
  404SOL     MW 1616   0.890   2.844   0.757 -0.9974  0.2076 -0.7867
  405SOL     OW 1617   0.492   2.370   1.502  0.1487  0.0348 -0.4354
  405SOL    HW1 1618   0.489   2.465   1.479 -1.7772  1.5141  0.0719
  405SOL    HW2 1619   0.413   2.322   1.457  1.2868 -0.0647 -0.9463
  405SOL     MW 1620   0.481   2.376   1.493  0.0447  0.2169 -0.4359
  406SOL     OW 1621   0.341   2.412   1.131  0.2735  0.2457 -0.3420
  406SOL    HW1 1622   0.248   2.423   1.113  1.1533 -0.5426  1.2515
  406SOL    HW2 1623   0.360   2.316   1.114  0.5582  0.2613 -1.5792
  406SOL     MW 1624   0.332   2.400   1.126  0.4272  0.1438 -0.2950
  407SOL     OW 1625   3.089   2.719   1.146 -0.0965 -0.8578  0.5804
  407SOL    HW1 1626   3.157   2.731   1.217  0.6130  2.2846  1.7692
  407SOL    HW2 1627   3.151   2.731   1.078  2.5683  4.6837 -0.1809
  407SOL     MW 1628   3.107   2.722   1.147  0.3487  0.2880  0.6368
  408SOL     OW 1629   2.072   2.066   0.771  1.0837  0.0228  0.8809
  408SOL    HW1 1630   2.041   2.118   0.846 -0.1317 -0.0597  0.7608
  408SOL    HW2 1631   1.987   2.053   0.725 -1.4873 -1.1900 -0.4597
  408SOL     MW 1632   2.056   2.071   0.775  0.5841 -0.1481  0.6882
  409SOL     OW 1633   1.377   0.091   0.913  0.3806  0.9647 -0.4405
  409SOL    HW1 1634   1.415   0.177   0.912  1.4202  1.3759  3.1200
  409SOL    HW2 1635   1.440   0.037   0.959 -0.8453  0.2443 -0.0093
  409SOL     MW 1636   1.390   0.095   0.919  0.3561  0.9239  0.0862
  410SOL     OW 1637   1.164   2.448   1.045 -0.0501  0.7262 -0.0511
  410SOL    HW1 1638   1.090   2.496   1.011  2.8045  1.5503  0.5124
  410SOL    HW2 1639   1.186   2.369   0.999 -2.3551 -1.3344  1.6157
  410SOL     MW 1640   1.157   2.444   1.034  0.0224  0.5631  0.2431
  411SOL     OW 1641   1.938   0.012   2.836  0.0180 -0.2804  0.0499
  411SOL    HW1 1642   1.866  -0.031   2.785 -0.3930 -0.0436 -1.6013
  411SOL    HW2 1643   1.902   0.038   2.924 -0.4550 -0.0589  0.8504
  411SOL     MW 1644   1.923   0.009   2.841 -0.0987 -0.2199 -0.0623
  412SOL     OW 1645   0.974   2.246   0.596  0.1379  0.0482  0.4784
  412SOL    HW1 1646   1.035   2.321   0.618 -1.3218 -0.0948 -1.1187
  412SOL    HW2 1647   0.880   2.280   0.570 -3.4025 -2.1800  0.4458
  412SOL     MW 1648   0.969   2.260   0.596 -0.5219 -0.2646  0.2634
  413SOL     OW 1649   0.530   2.763   3.068  0.2490  0.6263 -0.3907
  413SOL    HW1 1650   0.567   2.671   3.089 -0.4726 -1.0374 -0.4950
  413SOL    HW2 1651   0.588   2.808   3.013 -3.0860 -1.2766 -0.5893
  413SOL     MW 1652   0.542   2.757   3.064 -0.2862  0.1558 -0.4306
  414SOL     OW 1653   1.934   2.981   1.077 -0.0710 -0.6709 -0.0843
  414SOL    HW1 1654   1.878   2.968   0.996  0.3804 -1.1890  1.4585
  414SOL    HW2 1655   2.000   2.912   1.076  1.1288 -2.5684  0.1072
  414SOL     MW 1656   1.935   2.970   1.066  0.1469 -0.9896  0.1446
  415SOL     OW 1657   1.730   2.551   1.138 -0.0451 -0.0804  0.2477
  415SOL    HW1 1658   1.659   2.500   1.185 -3.1817 -0.9366  0.8705
  415SOL    HW2 1659   1.790   2.593   1.200 -2.8426  2.0403  3.2930
  415SOL     MW 1660   1.729   2.550   1.152 -0.8280  0.0864  0.7317
  416SOL     OW 1661   0.543   1.951   1.357  0.2029  0.2731 -0.0070
  416SOL    HW1 1662   0.507   2.007   1.289 -0.9740 -1.9203 -0.5303
  416SOL    HW2 1663   0.527   1.863   1.317  1.8977 -3.1875 -0.7330
  416SOL     MW 1664   0.536   1.947   1.343  0.2712 -0.4729 -0.1719
  417SOL     OW 1665   0.989   3.016   2.057  0.2035  0.2307  0.2506
  417SOL    HW1 1666   0.941   3.018   2.133  1.2934  0.2311 -4.4164
  417SOL    HW2 1667   0.935   2.974   1.987  1.2922  0.3189 -0.2658
  417SOL     MW 1668   0.975   3.011   2.058  0.4909  0.2424 -0.4333
  418SOL     OW 1669   0.648   2.947   0.143  0.2230 -0.3633 -0.0962
  418SOL    HW1 1670   0.736   2.964   0.102 -1.0701 -1.5947 -2.0739
  418SOL    HW2 1671   0.603   2.882   0.085  2.7670  1.4244 -1.2126
  418SOL     MW 1672   0.654   2.940   0.130  0.3881 -0.2899 -0.5044
  419SOL     OW 1673   0.453   2.626   1.407 -0.0606  0.1099  0.2138
  419SOL    HW1 1674   0.491   2.700   1.455  0.0609  3.9665 -0.4995
  419SOL    HW2 1675   0.485   2.639   1.323  1.2311  3.0129 -0.7365
  419SOL     MW 1676   0.462   2.638   1.402  0.1258  1.0017 -0.0057
  420SOL     OW 1677   0.875   2.194   0.984  0.3677  0.2829  0.0848
  420SOL    HW1 1678   0.815   2.223   1.053  0.7001 -3.4472  2.0110
  420SOL    HW2 1679   0.900   2.274   0.938  2.2842  2.0951 -0.2918
  420SOL     MW 1680   0.871   2.209   0.987  0.6644  0.0298  0.2893
  421SOL     OW 1681   2.944   0.056   0.022  0.1450  0.2813 -0.1101
  421SOL    HW1 1682   2.895   0.026  -0.054 -0.8532  0.3722  0.2827
  421SOL    HW2 1683   2.981  -0.020   0.065  0.7076 -1.3512 -2.3651
  421SOL     MW 1684   2.943   0.042   0.017  0.0875  0.0779 -0.3558
  422SOL     OW 1685   0.902   2.461   0.899 -0.0726  0.5376 -0.2864
  422SOL    HW1 1686   0.835   2.508   0.948  1.4633  2.3020  0.6970
  422SOL    HW2 1687   0.873   2.478   0.816 -1.2394 -0.9174  0.4192
  422SOL     MW 1688   0.890   2.469   0.895 -0.0239  0.5784 -0.0636
  423SOL     OW 1689   1.530   0.134   0.486  0.0122 -0.2954 -0.0513
  423SOL    HW1 1690   1.500   0.093   0.404  1.2837 -0.5908 -1.3842
  423SOL    HW2 1691   1.540   0.220   0.456 -1.7049  1.4004 -0.4857
  423SOL     MW 1692   1.527   0.140   0.471 -0.0466 -0.1106 -0.2844
  424SOL     OW 1693   0.658   2.252   1.193 -0.1993  0.2328 -0.1929
  424SOL    HW1 1694   0.567   2.212   1.204  0.6229  1.2027  0.0015
  424SOL    HW2 1695   0.683   2.288   1.278  0.5241 -2.6916 -2.0755
  424SOL     MW 1696   0.649   2.252   1.206  0.0046 -0.0251 -0.4156
  425SOL     OW 1697   1.722   2.861   1.956 -0.0140 -0.0959  0.4641
  425SOL    HW1 1698   1.730   2.868   1.859 -0.3088  2.0720 -0.7346
  425SOL    HW2 1699   1.759   2.776   1.966  0.0405 -1.2674  0.0038
  425SOL     MW 1700   1.728   2.851   1.944 -0.0457  0.0356  0.2453
  426SOL     OW 1701   0.822   1.672   1.934 -0.0739  0.0061 -0.1859
  426SOL    HW1 1702   0.778   1.711   1.853  2.5611  1.3328 -2.2815
  426SOL    HW2 1703   0.799   1.743   2.004 -1.0675  1.3155  2.7196
  426SOL     MW 1704   0.813   1.687   1.933  0.1426  0.3539 -0.0791
  427SOL     OW 1705   0.343   1.566   1.892  0.1505  0.3445 -0.0518
  427SOL    HW1 1706   0.415   1.509   1.928  1.3939  0.1768 -1.7295
  427SOL    HW2 1707   0.260   1.542   1.937  2.4844  0.6072 -0.2302
  427SOL     MW 1708   0.342   1.555   1.903  0.6225  0.3571 -0.2967
  428SOL     OW 1709   0.578   2.570   1.165 -0.0931 -0.2752  0.0208
  428SOL    HW1 1710   0.651   2.540   1.218  0.3227  3.8499  0.0724
  428SOL    HW2 1711   0.515   2.499   1.149 -0.1183  0.9326 -0.7419
  428SOL     MW 1712   0.579   2.557   1.170 -0.0416  0.4285 -0.0730
  429SOL     OW 1713   1.321   2.668   1.070 -0.3020  0.6159 -0.1211
  429SOL    HW1 1714   1.265   2.590   1.065  0.7922 -2.7180  0.0495
  429SOL    HW2 1715   1.294   2.721   0.993 -0.2169 -0.6585 -1.7154
  429SOL     MW 1716   1.310   2.665   1.059 -0.1464  0.0079 -0.3089
  430SOL     OW 1717   1.184   2.732   0.697  0.1161 -0.2269  0.2606
  430SOL    HW1 1718   1.181   2.635   0.697  1.0783 -0.5173  1.2438
  430SOL    HW2 1719   1.149   2.756   0.613  0.8072  1.7055 -1.7273
  430SOL     MW 1720   1.179   2.723   0.686  0.3342 -0.0103  0.1281
  431SOL     OW 1721   0.296   1.885   1.110  0.4972 -0.5526 -0.0411
  431SOL    HW1 1722   0.380   1.838   1.104 -0.7440  2.1604  1.9555
  431SOL    HW2 1723   0.281   1.915   1.018  0.2464 -0.7061 -1.0234
  431SOL     MW 1724   0.305   1.883   1.097  0.3003 -0.2149  0.0927
  432SOL     OW 1725   0.041   0.050   1.092  0.5960 -0.1363 -0.7062
  432SOL    HW1 1726   0.056   0.061   1.189 -0.8843 -2.4400 -1.3837
  432SOL    HW2 1727  -0.036  -0.002   1.085  0.0199  1.3141  1.2308
  432SOL     MW 1728   0.033   0.045   1.104  0.3247 -0.2489 -0.5400
  433SOL     OW 1729   0.615   2.845   1.465  0.0431 -0.5410  0.5150
  433SOL    HW1 1730   0.627   2.875   1.559  1.0681 -1.9245  1.4410
  433SOL    HW2 1731   0.704   2.854   1.422  0.8525  0.5838  0.7445
  433SOL     MW 1732   0.628   2.850   1.472  0.2851 -0.5751  0.6674
  434SOL     OW 1733   1.579   2.848   1.464  0.0078 -0.6118  0.0343
  434SOL    HW1 1734   1.488   2.890   1.482  0.3501 -2.3647  0.5030
  434SOL    HW2 1735   1.579   2.801   1.382  0.4927 -0.9615 -1.2413
  434SOL     MW 1736   1.567   2.848   1.456  0.1169 -0.8892 -0.0721
  435SOL     OW 1737   2.822   1.828   0.184 -0.1875 -0.2604  0.2796
  435SOL    HW1 1738   2.886   1.888   0.149  0.8993  1.5504  0.8551
  435SOL    HW2 1739   2.802   1.766   0.113  1.0117  0.3019  0.5764
  435SOL     MW 1740   2.828   1.828   0.170  0.1141  0.0527  0.3947
  436SOL     OW 1741   1.288   2.799   0.315  0.4458  0.5429  0.2611
  436SOL    HW1 1742   1.341   2.751   0.379 -0.2679  1.4849  0.2636
  436SOL    HW2 1743   1.258   2.877   0.357  2.1897 -1.1775 -2.2168
  436SOL     MW 1744   1.291   2.803   0.329  0.5817  0.4402 -0.0655
  437SOL     OW 1745   0.896   2.877   1.388  0.2009 -0.4360  0.5830
  437SOL    HW1 1746   0.911   2.947   1.325  0.2159 -1.1051 -0.1319
  437SOL    HW2 1747   0.913   2.798   1.333 -3.0811 -1.3043  2.3261
  437SOL     MW 1748   0.900   2.876   1.372 -0.2302 -0.6388  0.7187
  438SOL     OW 1749   0.870   2.604   1.939 -0.3716  0.3372  0.3401
  438SOL    HW1 1750   0.860   2.580   2.027 -0.1943  0.3597 -2.8339
  438SOL    HW2 1751   0.810   2.563   1.876 -0.3438  1.8072 -0.1785
  438SOL     MW 1752   0.861   2.596   1.942 -0.3446  0.5341 -0.1471
  439SOL     OW 1753   1.074   2.136   0.379 -0.0411  0.3590  0.2524
  439SOL    HW1 1754   1.045   2.170   0.463 -0.2623  0.3625  2.9403
  439SOL    HW2 1755   1.107   2.217   0.342  0.9897 -1.0466  1.2844
  439SOL     MW 1756   1.074   2.151   0.385  0.0657  0.1740  0.7432
  440SOL     OW 1757   1.678   2.962   3.070  0.1068  0.8103  0.2863
  440SOL    HW1 1758   1.623   2.955   3.147 -2.7982  2.8829  0.5598
  440SOL    HW2 1759   1.736   2.888   3.085  1.8498 -1.6813  3.0099
  440SOL     MW 1760   1.678   2.951   3.082 -0.0465  0.7550  0.6817
  441SOL     OW 1761   0.360   2.650   0.499  0.3000 -0.0676 -0.6070
  441SOL    HW1 1762   0.332   2.629   0.412 -3.5231  0.5348  2.6867
  441SOL    HW2 1763   0.354   2.748   0.516  0.7977  3.6249  1.7074
  441SOL     MW 1764   0.355   2.660   0.490 -0.1388  0.4991  0.1329
  442SOL     OW 1765   3.064   2.348   0.625  0.2314  0.0436 -0.0144
  442SOL    HW1 1766   3.091   2.438   0.621  1.0442 -2.9814 -0.7575
  442SOL    HW2 1767   2.969   2.345   0.642  2.1938  1.4414  0.5183
  442SOL     MW 1768   3.055   2.359   0.627  0.5975 -0.1711 -0.0422
  443SOL     OW 1769   1.418   1.770   1.916  0.2850  0.6772  0.4679
  443SOL    HW1 1770   1.380   1.823   1.849  1.4643  0.9706  4.0358
  443SOL    HW2 1771   1.367   1.684   1.923 -1.3660  1.5511  3.5378
  443SOL     MW 1772   1.407   1.765   1.908  0.2228  0.8312  1.3437
  444SOL     OW 1773   0.921   2.570   1.584 -0.8520 -0.2571  0.0166
  444SOL    HW1 1774   0.998   2.534   1.633  0.6771 -0.2089 -0.8180
  444SOL    HW2 1775   0.845   2.568   1.643  1.1595  3.8291 -0.2386
  444SOL     MW 1776   0.921   2.565   1.598 -0.3849  0.2884 -0.1272
  445SOL     OW 1777   0.926   0.033   1.256 -0.4837 -0.4180  0.3551
  445SOL    HW1 1778   0.880   0.121   1.263 -0.2981  0.8515 -0.9825
  445SOL    HW2 1779   1.017   0.041   1.235 -1.8689 -0.4140 -2.1289
  445SOL     MW 1780   0.932   0.046   1.254 -0.6420 -0.2499 -0.1491
  446SOL     OW 1781   2.680   2.846   1.079 -0.1700  0.0938 -0.3894
  446SOL    HW1 1782   2.644   2.890   0.999 -0.3316  1.2392  1.0011
  446SOL    HW2 1783   2.716   2.759   1.053 -2.0364  0.0878 -2.4267
  446SOL     MW 1784   2.680   2.841   1.065 -0.4376  0.2442 -0.4747
  447SOL     OW 1785   3.088   2.062   1.679  0.7609 -0.7887  0.3392
  447SOL    HW1 1786   3.144   2.003   1.737  3.0040  0.0358  1.2314
  447SOL    HW2 1787   3.021   2.003   1.632  1.3400  1.2652 -1.0505
  447SOL     MW 1788   3.087   2.047   1.680  1.1332 -0.4089  0.2736
  448SOL     OW 1789   1.734   2.368   1.707  0.7243  0.3732  0.5787
  448SOL    HW1 1790   1.653   2.321   1.679  1.6191 -0.0727  2.1166
  448SOL    HW2 1791   1.720   2.450   1.666 -0.0554  1.3968  0.8069
  448SOL     MW 1792   1.722   2.372   1.698  0.7395  0.4494  0.8117
  449SOL     OW 1793   0.760   2.853   0.406 -0.1620  0.1484  0.1820
  449SOL    HW1 1794   0.718   2.876   0.322 -0.7480 -1.4293  0.4848
  449SOL    HW2 1795   0.706   2.880   0.482 -0.9458 -3.7781  4.3883
  449SOL     MW 1796   0.748   2.859   0.405 -0.3427 -0.5779  0.7769
  450SOL     OW 1797   1.192   2.440   0.674  0.3108 -0.2049 -0.2068
  450SOL    HW1 1798   1.213   2.386   0.752 -1.4149 -2.5627  0.3030
  450SOL    HW2 1799   1.285   2.450   0.655 -0.4083  1.2121 -1.1994
  450SOL     MW 1800   1.207   2.434   0.682 -0.0118 -0.3290 -0.2705
  451SOL     OW 1801   0.593   2.019   1.655 -1.2023 -0.8787 -0.0330
  451SOL    HW1 1802   0.627   2.110   1.668  0.8867 -0.0631  1.6557
  451SOL    HW2 1803   0.586   2.019   1.560 -0.0485  0.4467 -0.1369
  451SOL     MW 1804   0.596   2.031   1.645 -0.7744 -0.5962  0.1761
  452SOL     OW 1805   0.259   2.716   0.035 -0.0540 -0.1101 -0.3982
  452SOL    HW1 1806   0.348   2.721   0.003 -2.4918  1.0603 -4.1273
  452SOL    HW2 1807   0.212   2.747  -0.051 -0.9947  2.0026  0.1893
  452SOL     MW 1808   0.264   2.721   0.019 -0.4997  0.3231 -0.8127
  453SOL     OW 1809   0.368   2.994   1.706 -0.4476 -0.9361  0.0269
  453SOL    HW1 1810   0.462   2.966   1.709 -2.2899 -2.3605  3.4315
  453SOL    HW2 1811   0.343   2.981   1.614  0.8575 -0.6538 -1.9238
  453SOL     MW 1812   0.377   2.988   1.694 -0.5185 -1.0868  0.2187
  454SOL     OW 1813   0.956   2.703   1.196 -0.6680  0.1024 -0.1986
  454SOL    HW1 1814   0.904   2.636   1.246 -0.7572  1.6875 -0.1371
  454SOL    HW2 1815   0.899   2.754   1.135 -0.6517  3.0130  0.0102
  454SOL     MW 1816   0.942   2.701   1.195 -0.6776  0.6955 -0.1629
  455SOL     OW 1817   1.537   2.922   0.187  0.2613 -0.2699  0.4971
  455SOL    HW1 1818   1.600   2.903   0.253  0.0687  0.4841 -1.6092
  455SOL    HW2 1819   1.489   2.843   0.169  1.6954 -1.7535 -1.1433
  455SOL     MW 1820   1.539   2.909   0.193  0.4251 -0.3662  0.0028
  456SOL     OW 1821   2.891   0.336   1.332 -0.2204 -0.4817  0.4651
  456SOL    HW1 1822   2.832   0.280   1.271 -0.5397 -1.6784 -0.6164
  456SOL    HW2 1823   2.964   0.355   1.272 -0.0971 -0.3420  2.2359
  456SOL     MW 1824   2.893   0.331   1.316 -0.2463 -0.6212  0.5560
  457SOL     OW 1825   0.954   1.549   2.961  0.3018 -0.0375 -0.7473
  457SOL    HW1 1826   0.880   1.553   3.023  0.3782  2.8256 -2.6725
  457SOL    HW2 1827   1.025   1.499   3.001  3.5405  0.9426 -0.8372
  457SOL     MW 1828   0.953   1.543   2.974  0.7392  0.4696 -1.0132
  458SOL     OW 1829   1.466   1.393   0.556  0.5243 -0.0871  0.3403
  458SOL    HW1 1830   1.389   1.426   0.600  1.7058  1.9635  0.7950
  458SOL    HW2 1831   1.430   1.347   0.480  0.3388  3.0678  1.7017
  458SOL     MW 1832   1.451   1.392   0.552  0.6557  0.5997  0.5799
  459SOL     OW 1833   1.498   0.110   0.220 -0.4589  0.3973  0.1074
  459SOL    HW1 1834   1.466   0.024   0.188 -1.6248 -1.3539 -0.4586
  459SOL    HW2 1835   1.450   0.177   0.171 -2.4566 -1.9247 -0.2629
  459SOL     MW 1836   1.487   0.107   0.210 -0.8763 -0.1401 -0.0162
  460SOL     OW 1837   1.802   2.169   0.671 -0.5075  0.0563 -0.4209
  460SOL    HW1 1838   1.706   2.176   0.696  0.3876 -0.1968  0.1132
  460SOL    HW2 1839   1.804   2.085   0.619  0.6084  0.8540 -1.4153
  460SOL     MW 1840   1.789   2.159   0.667 -0.2422  0.1282 -0.4816
  461SOL     OW 1841   0.499   2.417   0.615 -0.4772  0.5364  0.2042
  461SOL    HW1 1842   0.465   2.489   0.561 -1.4667  1.1375  1.4085
  461SOL    HW2 1843   0.449   2.426   0.695 -1.2952 -0.4423 -0.0937
  461SOL     MW 1844   0.488   2.428   0.618 -0.7157  0.4865  0.3238
  462SOL     OW 1845   0.360   0.220   1.256  0.5641 -0.0299 -0.5033
  462SOL    HW1 1846   0.419   0.170   1.189  0.2331  0.1514 -0.1275
  462SOL    HW2 1847   0.433   0.264   1.304  1.8900  4.3542  2.7684
  462SOL     MW 1848   0.378   0.219   1.253  0.6954  0.5724 -0.0220
  463SOL     OW 1849   0.892  -0.002   0.682 -0.2120  0.0122 -0.0732
  463SOL    HW1 1850   0.903   0.004   0.582 -0.5446  0.2436  0.1207
  463SOL    HW2 1851   0.805   0.044   0.688  0.4165 -1.4672 -2.0092
  463SOL     MW 1852   0.882   0.005   0.669 -0.1730 -0.1525 -0.3030
  464SOL     OW 1853   0.806   3.029   2.264  0.6840  0.0102  0.0422
  464SOL    HW1 1854   0.756   2.946   2.261 -2.6429  0.1698 -0.8848
  464SOL    HW2 1855   0.816   3.054   2.351 -0.3803 -0.1094 -0.5042
  464SOL     MW 1856   0.801   3.021   2.275  0.1046  0.0154 -0.1522
  465SOL     OW 1857   0.661   0.332   0.482  0.2934 -0.1099  0.1257
  465SOL    HW1 1858   0.626   0.280   0.557 -1.0776  1.9350  1.2566
  465SOL    HW2 1859   0.670   0.264   0.410  0.0330 -0.3175 -0.7232
  465SOL     MW 1860   0.657   0.316   0.483  0.0781  0.1325  0.1629
  466SOL     OW 1861   1.087   2.021   0.729 -0.0986 -0.0294 -0.6748
  466SOL    HW1 1862   1.085   1.954   0.664  0.3914  2.7764 -0.3610
  466SOL    HW2 1863   1.061   2.102   0.681  0.0102  0.1596  1.2597
  466SOL     MW 1864   1.083   2.023   0.714 -0.0196  0.3658 -0.3781
  467SOL     OW 1865   1.280   2.263   0.884  0.4560 -0.0711 -0.4155
  467SOL    HW1 1866   1.369   2.284   0.913 -1.4632 -0.6562 -1.2819
  467SOL    HW2 1867   1.291   2.168   0.881 -1.4804 -0.1580 -1.0891
  467SOL     MW 1868   1.293   2.253   0.887 -0.0527 -0.1597 -0.6187
  468SOL     OW 1869   0.360   2.581   1.980  0.2832  0.0021  0.0895
  468SOL    HW1 1870   0.375   2.528   1.902 -0.4093  1.6601 -1.4792
  468SOL    HW2 1871   0.357   2.677   1.960 -0.0968  0.8267 -2.0732
  468SOL     MW 1872   0.361   2.587   1.967  0.1417  0.3297 -0.4028
  469SOL     OW 1873   0.365   2.139   1.775  0.0343  0.2344  0.0902
  469SOL    HW1 1874   0.313   2.077   1.823  0.6302  0.4902  1.7872
  469SOL    HW2 1875   0.438   2.083   1.738  0.4053  0.2473  0.7187
  469SOL     MW 1876   0.367   2.123   1.776  0.1619  0.2699  0.3970
  470SOL     OW 1877   3.029   2.556   0.093 -0.0781 -0.4022  0.2844
  470SOL    HW1 1878   2.946   2.544   0.143 -1.8402 -2.2515  0.8431
  470SOL    HW2 1879   3.000   2.583   0.008 -2.0771 -0.9289  0.6823
  470SOL     MW 1880   3.014   2.558   0.089 -0.5743 -0.7157  0.4106
  471SOL     OW 1881   1.233   2.739   1.419 -0.3113 -0.3108 -0.3661
  471SOL    HW1 1882   1.166   2.763   1.487  0.4838 -1.9976  2.3992
  471SOL    HW2 1883   1.197   2.763   1.331 -2.7007  1.6584  1.6005
  471SOL     MW 1884   1.220   2.746   1.416 -0.5217 -0.2735  0.2582
  472SOL     OW 1885   2.912   2.059   0.401  0.1267  0.2008  0.0363
  472SOL    HW1 1886   2.931   2.037   0.310  3.4998  1.3180  2.9469
  472SOL    HW2 1887   2.905   1.979   0.453  4.7042 -1.0863 -0.7219
  472SOL     MW 1888   2.914   2.045   0.396  1.1757  0.1784  0.3203
  473SOL     OW 1889   0.832   2.517   1.330  0.8347  0.6541 -0.5843
  473SOL    HW1 1890   0.884   2.446   1.295 -1.3885  2.9498 -0.4910
  473SOL    HW2 1891   0.867   2.539   1.413  0.4048 -0.5751  1.6192
  473SOL     MW 1892   0.843   2.511   1.336  0.4846  0.7948 -0.2812
  474SOL     OW 1893   0.765   2.256   1.700  0.2605 -0.3476  0.6886
  474SOL    HW1 1894   0.844   2.268   1.756  3.1773  0.7578 -1.4401
  474SOL    HW2 1895   0.812   2.230   1.612 -3.3156  0.1024  1.4450
  474SOL     MW 1896   0.782   2.254   1.696  0.1735 -0.1424  0.5076
  475SOL     OW 1897   1.624   0.035   1.470  0.3424  0.2139 -1.1430
  475SOL    HW1 1898   1.544   0.060   1.423  1.0820 -1.0762  1.6848
  475SOL    HW2 1899   1.612  -0.062   1.483 -3.2174 -1.3153  0.9787
  475SOL     MW 1900   1.612   0.026   1.466 -0.0297 -0.1581 -0.4900
  476SOL     OW 1901   1.491   2.610   0.863 -0.2810 -0.0819  0.5289
  476SOL    HW1 1902   1.433   2.636   0.935 -1.1749 -1.5055  0.0693
  476SOL    HW2 1903   1.525   2.696   0.847  1.3819 -0.4321 -1.7076
  476SOL     MW 1904   1.488   2.625   0.871 -0.1795 -0.3160  0.1732
  477SOL     OW 1905   0.785   2.553   0.652 -0.2812  0.4555 -0.2282
  477SOL    HW1 1906   0.860   2.596   0.609  0.4950  0.5246 -0.5674
  477SOL    HW2 1907   0.763   2.492   0.583  1.2697  2.7378 -0.6317
  477SOL     MW 1908   0.792   2.550   0.637  0.0259  0.7657 -0.3262
  478SOL     OW 1909   0.143   2.679   0.904 -0.4709 -0.1555  0.2065
  478SOL    HW1 1910   0.179   2.763   0.916  1.3374 -2.6580  0.6033
  478SOL    HW2 1911   0.206   2.640   0.848  1.1720 -0.9626 -3.1438
  478SOL     MW 1912   0.156   2.685   0.898 -0.0155 -0.5921 -0.1832
  479SOL     OW 1913   1.420   1.940   1.270  0.1058  0.0331 -0.1087
  479SOL    HW1 1914   1.391   1.993   1.345  1.4452 -1.4578 -0.2108
  479SOL    HW2 1915   1.509   1.917   1.290  2.1896  0.7960 -0.6257
  479SOL     MW 1916   1.428   1.944   1.283  0.5575 -0.0630 -0.1904
  480SOL     OW 1917   1.840   2.400   1.378  0.2707 -0.3394  0.1215
  480SOL    HW1 1918   1.874   2.346   1.445 -0.3049 -0.9417  0.1691
  480SOL    HW2 1919   1.883   2.377   1.299  2.4961  2.0967  0.9439
  480SOL     MW 1920   1.850   2.390   1.376  0.4884 -0.0975  0.2363
  481SOL     OW 1921   1.191   0.057   1.149  0.4031 -0.5515  0.1836
  481SOL    HW1 1922   1.222   0.033   1.063 -1.1595 -1.4244 -1.1203
  481SOL    HW2 1923   1.202   0.156   1.158  1.2500  1.0283  1.7139
  481SOL     MW 1924   1.196   0.067   1.139  0.3087 -0.4582  0.2135
  482SOL     OW 1925   0.922   3.087   0.422 -0.1415 -0.4773  0.1409
  482SOL    HW1 1926   0.845   3.061   0.377 -0.6061 -0.9927  2.4594
  482SOL    HW2 1927   0.941   3.181   0.409  0.1862  0.3795  0.9534
  482SOL     MW 1928   0.914   3.096   0.414 -0.1596 -0.4323  0.5540
  483SOL     OW 1929   0.359   2.929   0.510 -0.7343 -0.1328 -0.1782
  483SOL    HW1 1930   0.278   2.923   0.462  0.2287  1.1313 -0.9277
  483SOL    HW2 1931   0.347   2.978   0.592 -1.0280  2.0789  1.0116
  483SOL     MW 1932   0.347   2.935   0.514 -0.6460  0.3258 -0.1201
  484SOL     OW 1933   1.676   1.858   1.363  0.1012 -0.0559 -0.2625
  484SOL    HW1 1934   1.727   1.940   1.358  1.5675  1.0735  3.2987
  484SOL    HW2 1935   1.674   1.841   1.458 -2.8319 -0.7868  0.4156
  484SOL     MW 1936   1.682   1.867   1.375 -0.0923 -0.0033  0.2968
  485SOL     OW 1937   0.527   2.393   0.285  0.2354 -0.5462  0.1912
  485SOL    HW1 1938   0.567   2.395   0.381 -1.0054  2.4298 -0.0369
  485SOL    HW2 1939   0.468   2.471   0.296  0.2090 -3.0612 -2.4083
  485SOL     MW 1940   0.524   2.403   0.299  0.0682 -0.4854 -0.1818
  486SOL     OW 1941   0.116   2.447   1.389 -0.0669 -0.1879 -0.1818
  486SOL    HW1 1942   0.116   2.536   1.352  1.3825 -2.0700 -0.0146
  486SOL    HW2 1943   0.110   2.467   1.484 -2.6181  1.6411  1.3106
  486SOL     MW 1944   0.116   2.461   1.397 -0.2123 -0.1949  0.0372
  487SOL     OW 1945   1.277   1.602   1.094 -0.2660 -0.3208  0.1636
  487SOL    HW1 1946   1.246   1.695   1.092  0.1161  1.8024  0.3253
  487SOL    HW2 1947   1.357   1.600   1.033  1.8999 -1.6092 -1.9981
  487SOL     MW 1948   1.283   1.614   1.086  0.0702 -0.2107 -0.1003
  488SOL     OW 1949   1.620   1.852   0.567  0.3473 -0.0550 -0.3400
  488SOL    HW1 1950   1.700   1.876   0.521 -0.3976 -0.9269  0.0993
  488SOL    HW2 1951   1.553   1.865   0.502  0.2384  1.1806  0.4165
  488SOL     MW 1952   1.622   1.857   0.552  0.2346 -0.0070 -0.1822
  489SOL     OW 1953   0.743   0.776   0.549 -0.3978 -0.4873  0.0432
  489SOL    HW1 1954   0.761   0.692   0.500  1.7385  1.5002  0.1741
  489SOL    HW2 1955   0.747   0.742   0.639 -1.7412 -0.2870  0.2353
  489SOL     MW 1956   0.746   0.761   0.555 -0.2932 -0.1987  0.0858
  490SOL     OW 1957   1.412   2.111   0.473 -0.1441 -0.1228  0.7556
  490SOL    HW1 1958   1.453   2.194   0.436 -0.2393  0.3140 -0.1923
  490SOL    HW2 1959   1.319   2.117   0.472  1.8250  0.7624  0.2957
  490SOL     MW 1960   1.405   2.123   0.468  0.1031  0.0516  0.5699
  491SOL     OW 1961   1.200   3.021   0.474  0.0296  0.1993  0.2251
  491SOL    HW1 1962   1.244   3.069   0.546  0.5386  2.0452 -0.2448
  491SOL    HW2 1963   1.119   3.071   0.473 -1.4209  0.7258  3.5490
  491SOL     MW 1964   1.195   3.034   0.484 -0.0946  0.5123  0.6016
  492SOL     OW 1965   1.524   2.153   0.708  0.1886  0.6249 -0.6746
  492SOL    HW1 1966   1.499   2.123   0.617 -1.9948 -1.1661  1.6926
  492SOL    HW2 1967   1.478   2.088   0.768 -1.7473 -0.0898 -1.5219
  492SOL     MW 1968   1.515   2.140   0.704 -0.3549  0.2943 -0.4740
  493SOL     OW 1969   0.121   2.903   0.374 -0.2775 -0.3197  0.1741
  493SOL    HW1 1970   0.074   2.956   0.437 -1.1751 -2.5150 -1.0310
  493SOL    HW2 1971   0.145   2.959   0.299 -1.9740 -0.1176  0.8661
  493SOL     MW 1972   0.118   2.918   0.372 -0.6197 -0.5827  0.1064
  494SOL     OW 1973   0.406   2.414   1.770 -0.2913 -0.1639  0.0945
  494SOL    HW1 1974   0.392   2.315   1.797 -2.2064  1.5717  0.2705
  494SOL    HW2 1975   0.439   2.409   1.677 -0.0027 -0.5287 -1.1757
  494SOL     MW 1976   0.409   2.400   1.761 -0.5059  0.0169 -0.0499
  495SOL     OW 1977   2.870   1.666   2.723 -0.2957  0.3431  0.0638
  495SOL    HW1 1978   2.895   1.748   2.776  0.2838  1.7100  0.2098
  495SOL    HW2 1979   2.877   1.583   2.777  1.1415 -0.7174 -1.5200
  495SOL     MW 1980   2.874   1.666   2.737 -0.0296  0.3835 -0.1259
  496SOL     OW 1981   2.855   2.318   2.634  0.1580 -0.0198  0.0963
  496SOL    HW1 1982   2.879   2.227   2.633  0.0656  1.0188 -0.6736
  496SOL    HW2 1983   2.940   2.350   2.654  0.8620 -2.7080 -1.7387
  496SOL     MW 1984   2.869   2.310   2.637  0.2387 -0.2374 -0.2474
  497SOL     OW 1985   1.530   2.302   2.563  0.2110 -0.6018  0.7063
  497SOL    HW1 1986   1.488   2.260   2.489 -0.3082 -0.3791 -0.1444
  497SOL    HW2 1987   1.512   2.246   2.633  0.3825 -0.4019  1.9913
  497SOL     MW 1988   1.522   2.289   2.563  0.1651 -0.5460  0.7636
  498SOL     OW 1989   1.550   2.704   2.276 -0.6505 -0.2063  0.5164
  498SOL    HW1 1990   1.563   2.619   2.244  1.0289 -1.1504  5.1099
  498SOL    HW2 1991   1.616   2.704   2.341 -1.2138 -1.7872 -0.4626
  498SOL     MW 1992   1.561   2.693   2.281 -0.5032 -0.5394  0.9933
  499SOL     OW 1993   0.908   0.173   0.006 -0.3928 -0.1053  0.3351
  499SOL    HW1 1994   0.854   0.202   0.078 -0.9673 -1.1400  1.8698
  499SOL    HW2 1995   0.899   0.078   0.010 -0.1306  4.8596 -0.6589
  499SOL     MW 1996   0.900   0.165   0.016 -0.4340  0.4132  0.4064
  500SOL     OW 1997   1.010   2.428   2.803  0.4222 -0.4655  0.0202
  500SOL    HW1 1998   1.059   2.405   2.883  0.0162 -0.6353  1.6674
  500SOL    HW2 1999   0.982   2.518   2.823 -2.0272  0.2053 -0.5442
  500SOL     MW 2000   1.013   2.437   2.816  0.0455 -0.3994  0.1631
  501SOL     OW 2001   1.747   2.260   3.079 -0.0382  0.4430 -0.0852
  501SOL    HW1 2002   1.732   2.346   3.124 -0.9294  0.7520  1.0272
  501SOL    HW2 2003   1.832   2.222   3.103 -1.2735  0.8287  0.4969
  501SOL     MW 2004   1.756   2.267   3.088 -0.3188  0.5347  0.1384
  502SOL     OW 2005   0.109   2.831   2.947  0.0666  1.1877 -0.0010
  502SOL    HW1 2006   0.048   2.763   2.909 -0.1596 -0.1746  0.2782
  502SOL    HW2 2007   0.126   2.886   2.874 -0.3600 -2.0260  0.9774
  502SOL     MW 2008   0.104   2.829   2.933 -0.0195  0.5840  0.1649
  503SOL     OW 2009   1.150   2.613   2.053  0.3325 -0.2567 -0.2091
  503SOL    HW1 2010   1.216   2.632   1.993  2.1956  1.0590  0.8022
  503SOL    HW2 2011   1.072   2.595   1.997 -1.1649  1.0119  1.1927
  503SOL     MW 2012   1.148   2.613   2.038  0.3808  0.0843  0.1093
  504SOL     OW 2013   0.095   2.650   2.048 -0.4510  0.1713  0.1363
  504SOL    HW1 2014   0.179   2.606   2.035  0.8829  2.3043 -0.3304
  504SOL    HW2 2015   0.044   2.589   2.104  1.4506 -3.4156  0.3935
  504SOL     MW 2016   0.100   2.636   2.054 -0.0241 -0.0206  0.1087
  505SOL     OW 2017   1.644   2.669   2.736  0.2230  0.1492  0.3193
  505SOL    HW1 2018   1.679   2.675   2.644 -1.7234  0.1542  0.0882
  505SOL    HW2 2019   1.595   2.754   2.751 -0.8883 -0.3676  0.0709
  505SOL     MW 2020   1.642   2.681   2.726 -0.1804  0.0816  0.2560
  506SOL     OW 2021   1.640   0.037   2.857  0.0624  0.7459 -0.0047
  506SOL    HW1 2022   1.671  -0.022   2.931 -1.2960  0.3593 -0.5466
  506SOL    HW2 2023   1.651  -0.011   2.771 -1.3254  0.2321 -3.0223
  506SOL     MW 2024   1.645   0.023   2.856 -0.2999  0.6271 -0.4743
  507SOL     OW 2025   0.921   2.691   2.858  0.2806  0.0401 -0.2415
  507SOL    HW1 2026   0.969   2.721   2.778 -0.8159 -2.5231 -2.9220
  507SOL    HW2 2027   0.832   2.671   2.828  0.6610  0.9779  1.9204
  507SOL     MW 2028   0.915   2.692   2.844  0.1861 -0.1744 -0.3100
  508SOL     OW 2029   1.244   2.103   2.523 -0.0958 -0.0386 -0.1633
  508SOL    HW1 2030   1.288   2.083   2.605 -1.2835 -0.8865 -0.2033
  508SOL    HW2 2031   1.175   2.174   2.542  3.5764 -2.0079  0.5057
  508SOL     MW 2032   1.241   2.110   2.536  0.2320 -0.4103 -0.0803
  509SOL     OW 2033   0.664   2.596   2.789  0.5119 -0.7449 -0.0033
  509SOL    HW1 2034   0.627   2.544   2.720  3.7416  4.9902 -1.2118
  509SOL    HW2 2035   0.615   2.680   2.793 -2.0380 -4.2918  0.4698
  509SOL     MW 2036   0.653   2.600   2.780  0.6016 -0.4562 -0.1003
  510SOL     OW 2037   1.569   2.601   1.628  0.1575 -0.2281  0.6790
  510SOL    HW1 2038   1.573   2.692   1.600  0.0568  1.2062 -2.9748
  510SOL    HW2 2039   1.512   2.606   1.714  1.1444  2.7270 -3.0551
  510SOL     MW 2040   1.562   2.614   1.636  0.2745  0.3510 -0.2957
  511SOL     OW 2041   0.406   2.612   2.501  0.2764 -0.1504 -0.5346
  511SOL    HW1 2042   0.473   2.549   2.521  3.5697 -1.0583  0.9382
  511SOL    HW2 2043   0.408   2.627   2.404  2.2991  1.1390  0.2566
  511SOL     MW 2044   0.415   2.606   2.491  0.9778 -0.1000 -0.2359
  512SOL     OW 2045   0.989   2.028   2.881  0.0698  0.0118 -0.2616
  512SOL    HW1 2046   0.912   2.080   2.911 -0.3820 -0.9291  0.4394
  512SOL    HW2 2047   1.006   1.941   2.917  0.9957  0.8367 -0.3878
  512SOL     MW 2048   0.981   2.024   2.890  0.1324 -0.0035 -0.1858
  513SOL     OW 2049   1.652   2.461   2.204 -0.9330 -0.1563  0.2426
  513SOL    HW1 2050   1.729   2.523   2.174  1.7779  0.1146 -0.0890
  513SOL    HW2 2051   1.684   2.388   2.254  0.8202  1.0799 -0.7728
  513SOL     MW 2052   1.666   2.460   2.207 -0.3440  0.0425  0.0648
  514SOL     OW 2053   0.256   2.429   2.667  0.4882  0.3385 -0.5037
  514SOL    HW1 2054   0.318   2.479   2.621 -1.6106 -1.4880 -1.5986
  514SOL    HW2 2055   0.304   2.380   2.735  0.9280  2.9059 -0.3191
  514SOL     MW 2056   0.270   2.429   2.670  0.2693  0.4363 -0.6238
  515SOL     OW 2057   1.068   2.064   1.937  0.0167 -0.4334  0.1988
  515SOL    HW1 2058   1.026   2.144   1.920  1.8104  0.3052 -1.1654
  515SOL    HW2 2059   1.146   2.085   1.989 -0.1892 -1.3852 -2.3386
  515SOL     MW 2060   1.073   2.077   1.942  0.2262 -0.4615 -0.3159
  516SOL     OW 2061   1.401   2.468   2.988  0.5984 -0.3162  0.4730
  516SOL    HW1 2062   1.425   2.484   2.896  0.7214 -1.7787 -0.8420
  516SOL    HW2 2063   1.304   2.483   2.994 -1.4382 -4.7857 -0.0953
  516SOL     MW 2064   1.392   2.472   2.977  0.3459 -1.0988  0.2245
  517SOL     OW 2065   0.576   2.403   2.269 -0.4781  0.4272  0.1978
  517SOL    HW1 2066   0.508   2.464   2.284 -1.1533 -0.6787  3.3420
  517SOL    HW2 2067   0.549   2.333   2.205 -2.4599 -1.1951 -3.2565
  517SOL     MW 2068   0.563   2.402   2.263 -0.8286  0.0672  0.1569
  518SOL     OW 2069   1.860   0.068   0.025  0.1117  0.4911  0.0193
  518SOL    HW1 2070   1.831   0.132   0.088  0.6769 -0.2303  0.0079
  518SOL    HW2 2071   1.805  -0.015   0.033  0.1367 -1.6086  3.0890
  518SOL     MW 2072   1.849   0.066   0.034  0.1895  0.1189  0.4228
  519SOL     OW 2073   0.706   2.506   1.729 -0.5917  0.0846  0.4683
  519SOL    HW1 2074   0.711   2.408   1.711 -1.0745 -3.0318  1.8494
  519SOL    HW2 2075   0.612   2.526   1.732 -0.2482 -1.4261 -1.9377
  519SOL     MW 2076   0.694   2.496   1.727 -0.6101 -0.5259  0.3330
  520SOL     OW 2077   1.191   2.203   2.930 -0.3832  0.2180 -0.0139
  520SOL    HW1 2078   1.116   2.137   2.932 -1.8128 -0.5146 -4.7003
  520SOL    HW2 2079   1.245   2.166   3.003 -0.3973 -2.1500  0.2317
  520SOL     MW 2080   1.188   2.189   2.940 -0.5737 -0.1911 -0.5998
  521SOL     OW 2081   1.750   2.038   2.217  0.1203  0.1082 -0.4328
  521SOL    HW1 2082   1.763   2.036   2.121  0.4870 -1.7675  2.1144
  521SOL    HW2 2083   1.760   1.950   2.248 -1.2974  0.8763  2.4288
  521SOL     MW 2084   1.753   2.026   2.208 -0.0184 -0.0379  0.2809
  522SOL     OW 2085   2.922   2.520   2.283  0.1008  0.1609 -0.1141
  522SOL    HW1 2086   3.006   2.483   2.305 -1.9227 -0.5579 -0.7189
  522SOL    HW2 2087   2.941   2.607   2.300  0.1948 -1.7773  1.3331
  522SOL     MW 2088   2.935   2.527   2.288 -0.1538 -0.1897 -0.0029
  523SOL     OW 2089   0.913   1.484   2.118 -0.2080 -0.2993  0.0060
  523SOL    HW1 2090   0.869   1.546   2.053  1.7692 -0.2975  0.4868
  523SOL    HW2 2091   0.924   1.415   2.054  0.1737 -0.8183 -0.6558
  523SOL     MW 2092   0.909   1.483   2.101  0.1032 -0.3675 -0.0179
  524SOL     OW 2093   0.598   2.393   2.953  0.1586  0.1422  0.1404
  524SOL    HW1 2094   0.619   2.455   2.881  1.0606  0.0865 -1.7562
  524SOL    HW2 2095   0.661   2.315   2.943  1.6274 -2.6708 -0.5316
  524SOL     MW 2096   0.609   2.391   2.942  0.4714 -0.2363 -0.1985
  525SOL     OW 2097   0.449   2.226   2.110 -0.0753  0.1520 -0.8636
  525SOL    HW1 2098   0.413   2.159   2.171  1.1910 -2.1723  0.9742
  525SOL    HW2 2099   0.521   2.195   2.060 -1.2797  0.3374  0.0992
  525SOL     MW 2100   0.454   2.213   2.112 -0.0672 -0.1302 -0.4941
  526SOL     OW 2101   0.686   2.128   1.987 -0.4279  0.0818 -0.0162
  526SOL    HW1 2102   0.712   2.128   1.897  2.2319  0.4822 -3.6554
  526SOL    HW2 2103   0.756   2.143   2.044 -3.3837 -0.8275  1.1270
  526SOL     MW 2104   0.699   2.130   1.983 -0.4669  0.0146 -0.3456
  527SOL     OW 2105   1.322   1.967   2.093  0.0257  0.2210  0.1115
  527SOL    HW1 2106   1.352   1.957   2.180  1.0191  3.0695 -1.3159
  527SOL    HW2 2107   1.323   1.883   2.051 -0.7460 -1.1051  0.6962
  527SOL     MW 2108   1.326   1.955   2.099  0.0550  0.4219  0.0003
  528SOL     OW 2109   0.673   2.944   2.933 -0.3076  0.9605  0.0516
  528SOL    HW1 2110   0.680   3.040   2.929  0.4502  2.3919  0.8810
  528SOL    HW2 2111   0.634   2.926   2.841 -0.9503 -1.0993 -0.9163
  528SOL     MW 2112   0.669   2.955   2.921 -0.2925  0.8776  0.0333
  529SOL     OW 2113   0.966   2.306   1.860  0.6902 -0.9328 -0.7712
  529SOL    HW1 2114   1.016   2.328   1.940  2.1343  0.2610  0.2188
  529SOL    HW2 2115   1.027   2.339   1.791 -1.3542  1.5906  3.1687
  529SOL     MW 2116   0.980   2.313   1.861  0.6110 -0.4424 -0.1208
  530SOL     OW 2117   1.152   2.461   3.042  0.1381 -0.1075 -0.6097
  530SOL    HW1 2118   1.077   2.479   3.105 -0.9457 -0.5617  0.3266
  530SOL    HW2 2119   1.168   2.370   3.056 -1.3451 -1.1248  2.1018
  530SOL     MW 2120   1.144   2.452   3.052 -0.2006 -0.3016 -0.1284
  531SOL     OW 2121   0.994   1.910   2.631  0.1320  0.0474 -0.6294
  531SOL    HW1 2122   1.003   1.971   2.703  0.1474 -1.7675 -3.0592
  531SOL    HW2 2123   0.954   1.828   2.665  1.1684 -0.0676  2.4485
  531SOL     MW 2124   0.990   1.907   2.645  0.2707 -0.2072 -0.5439
  532SOL     OW 2125   1.710   0.289   2.847  0.2188 -0.1234 -0.0894
  532SOL    HW1 2126   1.700   0.196   2.856 -2.6256 -2.1175  1.5072
  532SOL    HW2 2127   1.814   0.297   2.865 -1.1997 -0.1487  2.8543
  532SOL     MW 2128   1.722   0.278   2.851 -0.3436 -0.3898  0.5096
  533SOL     OW 2129   1.769   2.645   2.983  0.2025  0.6372 -0.0514
  533SOL    HW1 2130   1.745   2.578   3.048 -0.9193 -0.9700 -0.0949
  533SOL    HW2 2131   1.707   2.636   2.901 -2.3829  0.1156 -0.8698
  533SOL     MW 2132   1.758   2.635   2.981 -0.2866  0.3563 -0.1651
  534SOL     OW 2133   1.773   2.353   2.465 -0.1660 -0.6016 -0.6133
  534SOL    HW1 2134   1.693   2.326   2.512 -1.6923  0.1533  1.3152
  534SOL    HW2 2135   1.848   2.348   2.536  0.4179  2.6614  2.2899
  534SOL     MW 2136   1.773   2.349   2.480 -0.2903 -0.0715  0.0242
  535SOL     OW 2137   1.832   2.327   1.948 -0.1970  0.2882 -0.2603
  535SOL    HW1 2138   1.806   2.359   1.860  0.8533  1.3511 -0.6469
  535SOL    HW2 2139   1.928   2.339   1.933 -0.0514  0.8001  0.4263
  535SOL     MW 2140   1.841   2.333   1.935 -0.0392  0.4960 -0.2207
  536SOL     OW 2141   0.462   1.839   2.015 -0.1366  0.2866 -0.0509
  536SOL    HW1 2142   0.439   1.813   1.923 -2.3361 -2.0316  0.8392
  536SOL    HW2 2143   0.544   1.882   2.009  1.6042  1.8015 -1.1864
  536SOL     MW 2144   0.470   1.841   2.002 -0.1971  0.1806 -0.0833
  537SOL     OW 2145   1.103   0.210   2.889 -0.1735  0.0849 -0.2891
  537SOL    HW1 2146   1.034   0.178   2.951 -1.2915 -0.1526  2.3457
  537SOL    HW2 2147   1.110   0.305   2.899 -2.2321 -1.6044 -0.8638
  537SOL     MW 2148   1.095   0.219   2.899 -0.5927 -0.1693 -0.0173
  538SOL     OW 2149   1.380   0.070   2.972  0.3864 -0.0424 -0.0298
  538SOL    HW1 2150   1.317   0.128   2.928 -0.8337 -0.7286 -0.5407
  538SOL    HW2 2151   1.463   0.080   2.926  0.2161  0.0959  1.0359
  538SOL     MW 2152   1.383   0.079   2.960  0.2030 -0.1147  0.0434
  539SOL     OW 2153   0.771   2.751   2.524  0.2928 -0.4344 -0.0308
  539SOL    HW1 2154   0.862   2.781   2.551  2.6669  0.3678 -2.0309
  539SOL    HW2 2155   0.781   2.650   2.523 -1.3413  0.1919  0.1079
  539SOL     MW 2156   0.784   2.742   2.528  0.3904 -0.2459 -0.2764
  540SOL     OW 2157   0.335   2.295   2.892 -0.5799  0.2534  0.2132
  540SOL    HW1 2158   0.400   2.344   2.937  0.1056  1.1879 -1.5640
  540SOL    HW2 2159   0.305   2.228   2.956  1.8084 -1.7151  0.2828
  540SOL     MW 2160   0.340   2.293   2.907 -0.1743  0.1170 -0.0121
  541SOL     OW 2161   0.151   2.904   2.187 -0.2019 -0.2691 -0.0413
  541SOL    HW1 2162   0.175   2.843   2.117  0.2767 -0.4438 -1.0220
  541SOL    HW2 2163   0.195   2.869   2.268  3.7240  1.1267 -0.2190
  541SOL     MW 2164   0.160   2.891   2.188  0.3792 -0.1080 -0.1941
  542SOL     OW 2165   1.047   2.294   2.570  0.2865  0.4737  0.3478
  542SOL    HW1 2166   0.987   2.216   2.572 -2.6153 -1.3287  0.4853
  542SOL    HW2 2167   1.037   2.327   2.659  0.4175  0.9555 -0.2800
  542SOL     MW 2168   1.038   2.288   2.582 -0.0791  0.2995  0.2831
  543SOL     OW 2169   1.431   2.511   2.710  0.0378 -0.2314  0.9138
  543SOL    HW1 2170   1.462   2.426   2.669  1.3557 -1.6397  0.2385
  543SOL    HW2 2171   1.499   2.577   2.694  1.0580  1.8647  1.6835
  543SOL     MW 2172   1.444   2.508   2.702  0.3463 -0.1407  0.9263
  544SOL     OW 2173   0.595   0.245   2.699  0.1359 -0.0675 -0.0275
  544SOL    HW1 2174   0.504   0.245   2.737  3.5851  2.4245 -0.6438
  544SOL    HW2 2175   0.596   0.179   2.628 -2.7819  1.3457  0.1258
  544SOL     MW 2176   0.583   0.236   2.695  0.2060  0.4478 -0.0886
  545SOL     OW 2177   1.525   2.181   2.265 -0.0110  0.5696  0.4514
  545SOL    HW1 2178   1.492   2.222   2.186 -0.7025  1.0447  1.2917
  545SOL    HW2 2179   1.618   2.150   2.243  1.5435 -1.6424 -1.0216
  545SOL     MW 2180   1.533   2.182   2.252  0.1029  0.3404  0.3679
  546SOL     OW 2181   2.959   2.037   0.115  0.1216  0.1238 -0.0450
  546SOL    HW1 2182   2.968   2.125   0.063 -0.4967  0.8288  3.1645
  546SOL    HW2 2183   3.041   1.981   0.102  2.1152 -2.4729 -0.4916
  546SOL     MW 2184   2.971   2.041   0.106  0.3030 -0.1258  0.3196
  547SOL     OW 2185   0.244   2.985   0.139  0.4641  0.0947 -0.6610
  547SOL    HW1 2186   0.269   3.040   0.063  4.3136  1.9060 -4.4163
  547SOL    HW2 2187   0.253   2.895   0.106 -1.2229 -1.0432  0.3672
  547SOL     MW 2188   0.249   2.980   0.124  0.7494  0.1836 -1.0208
  548SOL     OW 2189   0.307   2.544   0.242 -0.5019 -0.0079  0.3369
  548SOL    HW1 2190   0.284   2.601   0.167 -3.4432 -0.5999  1.9539
  548SOL    HW2 2191   0.253   2.471   0.221 -1.5297  1.0840 -1.0998
  548SOL     MW 2192   0.297   2.542   0.230 -1.0256  0.0580  0.3607
  549SOL     OW 2193   0.777   1.884   2.122  0.3496  0.4226  0.2870
  549SOL    HW1 2194   0.737   1.971   2.092 -0.8632 -1.4752  0.2639
  549SOL    HW2 2195   0.807   1.892   2.211  2.9084 -1.8026 -0.6372
  549SOL     MW 2196   0.775   1.896   2.130  0.5272 -0.1214  0.1620
  550SOL     OW 2197   1.809   1.743   2.517 -0.0363 -0.1934  0.2912
  550SOL    HW1 2198   1.818   1.766   2.429  1.4418  1.4862 -0.3820
  550SOL    HW2 2199   1.777   1.825   2.559 -2.6240  1.1762  1.2265
  550SOL     MW 2200   1.806   1.757   2.511 -0.1827  0.2089  0.3258
  551SOL     OW 2201   0.905   2.333   0.210 -0.0510 -0.4641 -0.2619
  551SOL    HW1 2202   0.997   2.362   0.217  0.6700  0.7157  0.2950
  551SOL    HW2 2203   0.901   2.285   0.126  0.1557 -1.6383 -0.6307
  551SOL     MW 2204   0.916   2.330   0.200  0.0714 -0.4634 -0.2371
  552SOL     OW 2205   1.739   1.748   2.233  0.0043 -0.5871  0.3716
  552SOL    HW1 2206   1.668   1.692   2.261 -1.2592 -0.5709  0.2092
  552SOL    HW2 2207   1.784   1.699   2.159  1.4391 -3.8368 -2.9366
  552SOL     MW 2208   1.735   1.734   2.227  0.0269 -1.0137 -0.0863
  553SOL     OW 2209   1.227   2.318   1.483 -0.7316 -0.1971 -0.1824
  553SOL    HW1 2210   1.243   2.222   1.492  0.8601 -0.7653  2.2138
  553SOL    HW2 2211   1.310   2.349   1.454  0.0554  2.2186 -3.1830
  553SOL     MW 2212   1.240   2.309   1.480 -0.4177  0.0467 -0.2621
  554SOL     OW 2213   0.571   2.873   2.678 -0.6443  0.6097 -0.0213
  554SOL    HW1 2214   0.532   2.943   2.628  1.4621 -0.3096  0.7318
  554SOL    HW2 2215   0.652   2.837   2.636  1.3510 -2.0924  1.3426
  554SOL     MW 2216   0.577   2.877   2.666 -0.1031  0.1319  0.2580
  555SOL     OW 2217   0.604   2.434   2.587  0.0228  0.2039  0.4550
  555SOL    HW1 2218   0.548   2.351   2.573 -0.6967 -0.3990 -0.9087
  555SOL    HW2 2219   0.685   2.426   2.530  2.7480 -1.5641 -3.3017
  555SOL     MW 2220   0.607   2.422   2.578  0.2874 -0.1089 -0.2206
  556SOL     OW 2221   0.918   1.764   0.151 -0.3420 -0.4947 -0.6394
  556SOL    HW1 2222   0.945   1.769   0.061 -0.9330  3.0402  0.3086
  556SOL    HW2 2223   0.994   1.794   0.200 -0.3628 -0.7441 -0.7999
  556SOL     MW 2224   0.932   1.769   0.146 -0.4227 -0.0612 -0.5355
  557SOL     OW 2225   0.970   2.708   0.495  0.2488 -0.3573 -0.3871
  557SOL    HW1 2226   1.011   2.676   0.419 -2.6303  1.4212  0.3433
  557SOL    HW2 2227   0.901   2.759   0.456 -0.6566  0.7852 -0.2012
  557SOL     MW 2228   0.966   2.710   0.480 -0.2506  0.0281 -0.2662
  558SOL     OW 2229   0.271   2.154   0.023  0.3205  0.1936 -0.3193
  558SOL    HW1 2230   0.212   2.082   0.032  1.1771 -1.2577 -1.9188
  558SOL    HW2 2231   0.213   2.231   0.031  0.0512  1.2765 -1.4158
  558SOL     MW 2232   0.255   2.155   0.025  0.3979  0.1450 -0.6750
  559SOL     OW 2233   1.114   2.319   2.114 -0.1476 -0.0218  0.6235
  559SOL    HW1 2234   1.161   2.398   2.097 -1.7656  1.3829 -1.8585
  559SOL    HW2 2235   1.155   2.265   2.187  0.0818  1.0151 -0.8599
  559SOL     MW 2236   1.125   2.322   2.122 -0.3308  0.3004  0.1003
  560SOL     OW 2237   1.922   2.858   0.078  0.4108 -0.4843  0.3150
  560SOL    HW1 2238   1.966   2.905   0.001 -0.5883  1.1770 -0.8739
  560SOL    HW2 2239   1.908   2.767   0.059 -0.1579 -0.5136  1.0744
  560SOL     MW 2240   1.926   2.852   0.065  0.2039 -0.2690  0.2583
  561SOL     OW 2241   0.455   2.125   0.245  0.0255  0.2696  0.0944
  561SOL    HW1 2242   0.424   2.109   0.151  0.8297  2.5899 -0.6070
  561SOL    HW2 2243   0.472   2.221   0.251  2.2939 -3.0351 -3.0490
  561SOL     MW 2244   0.453   2.136   0.233  0.4309  0.1398 -0.4128
  562SOL     OW 2245   0.842   2.181   2.229  0.1485 -0.0290  0.2599
  562SOL    HW1 2246   0.862   2.271   2.215 -2.5456  1.2196  0.6577
  562SOL    HW2 2247   0.930   2.140   2.242 -1.3007  0.7398 -0.7609
  562SOL     MW 2248   0.856   2.188   2.229 -0.3982  0.2372  0.1777
  563SOL     OW 2249   1.133   0.309   0.632 -0.0783 -0.1585 -0.4922
  563SOL    HW1 2250   1.057   0.302   0.569 -0.5817  3.2044 -1.4831
  563SOL    HW2 2251   1.189   0.229   0.628  0.0083 -0.9784 -0.8418
  563SOL     MW 2252   1.130   0.297   0.623 -0.1333  0.1770 -0.6691
  564SOL     OW 2253   1.066   2.546   2.309  0.1660  0.3781 -0.3604
  564SOL    HW1 2254   1.104   2.588   2.225 -1.0796 -0.2407  0.1275
  564SOL    HW2 2255   1.125   2.578   2.379 -0.1700  2.6114 -1.9051
  564SOL     MW 2256   1.079   2.556   2.307 -0.0426  0.5911 -0.4999
  565SOL     OW 2257   2.880   2.697   2.623 -0.0873  0.2783  0.9799
  565SOL    HW1 2258   2.931   2.774   2.603  3.9298 -0.0259 -1.9285
  565SOL    HW2 2259   2.793   2.693   2.576 -2.2614 -2.0438  0.4562
  565SOL     MW 2260   2.875   2.707   2.614  0.1558 -0.0682  0.5271
  566SOL     OW 2261   2.150   1.863   2.429 -0.5736  0.3642  0.0083
  566SOL    HW1 2262   2.157   1.798   2.359  0.7501  2.2591 -1.9517
  566SOL    HW2 2263   2.209   1.940   2.403 -3.6756 -0.2910  2.0324
  566SOL     MW 2264   2.159   1.865   2.416 -0.8082  0.5277  0.0168
  567SOL     OW 2265   1.130   2.968   3.012  0.3385  0.1353 -0.7470
  567SOL    HW1 2266   1.213   3.017   3.042  1.6418  1.6877 -0.4723
  567SOL    HW2 2267   1.150   2.897   2.955 -1.1334 -0.9803  0.4597
  567SOL     MW 2268   1.143   2.965   3.008  0.3163  0.1929 -0.5515
  568SOL     OW 2269   1.603   2.081   2.915  0.2195  0.7085 -0.1061
  568SOL    HW1 2270   1.662   2.138   2.957 -1.4784  0.3733 -1.4580
  568SOL    HW2 2271   1.662   2.033   2.856  2.0959  3.0039 -0.0221
  568SOL     MW 2272   1.619   2.082   2.913  0.2431  0.9671 -0.2734
  569SOL     OW 2273   0.207   2.236   2.472 -0.1092  0.2019  0.3724
  569SOL    HW1 2274   0.156   2.280   2.402  1.7317 -3.4330  0.8549
  569SOL    HW2 2275   0.221   2.314   2.530  1.7513  1.9229 -0.5926
  569SOL     MW 2276   0.202   2.252   2.470  0.3791 -0.0506  0.3087
  570SOL     OW 2277   1.476   0.436   0.487 -0.2440 -0.0461  0.1442
  570SOL    HW1 2278   1.396   0.424   0.530 -1.2882 -0.3610 -2.8715
  570SOL    HW2 2279   1.550   0.438   0.548 -0.3022 -2.3502  2.6221
  570SOL     MW 2280   1.475   0.434   0.501 -0.3895 -0.3916  0.0733
  571SOL     OW 2281   1.491   2.397   1.992 -0.3922 -0.0289 -0.4285
  571SOL    HW1 2282   1.540   2.414   2.075  1.8146 -0.5878  1.2217
  571SOL    HW2 2283   1.490   2.301   1.978  0.3483 -2.4660 -0.4923
  571SOL     MW 2284   1.497   2.386   2.001 -0.0033 -0.4242 -0.2192
  572SOL     OW 2285   0.923   2.574   0.029  0.0291 -0.2655  0.3335
  572SOL    HW1 2286   0.928   2.595  -0.062  0.7398 -1.5885  1.8133
  572SOL    HW2 2287   0.830   2.553   0.039  0.7510 -0.9401 -0.4788
  572SOL     MW 2288   0.911   2.574   0.018  0.2181 -0.5291  0.4216
  573SOL     OW 2289   1.172   2.372   0.264  0.8611 -0.1387 -0.0280
  573SOL    HW1 2290   1.253   2.373   0.212 -2.4771  0.1027  1.1596
  573SOL    HW2 2291   1.143   2.459   0.270  1.8905  0.3950 -0.9561
  573SOL     MW 2292   1.179   2.383   0.258  0.5565 -0.0364  0.0062
  574SOL     OW 2293   1.066   2.624   0.256  0.4477  0.5144 -0.5721
  574SOL    HW1 2294   1.123   2.701   0.267 -2.8059  0.0534  1.0295
  574SOL    HW2 2295   1.010   2.629   0.180 -0.9268  0.4481  2.7447
  574SOL     MW 2296   1.066   2.635   0.247 -0.1629  0.4448  0.0768
  575SOL     OW 2297   3.097   2.316   1.783  0.3131  0.4538 -0.0940
  575SOL    HW1 2298   3.096   2.225   1.739 -2.3615 -0.6408  2.1127
  575SOL    HW2 2299   3.144   2.373   1.721 -0.4730  2.4019 -0.5149
  575SOL     MW 2300   3.103   2.312   1.769 -0.1435  0.5664  0.1416
  576SOL     OW 2301   2.890   1.806   2.028  0.1421 -0.0360 -0.0078
  576SOL    HW1 2302   2.904   1.890   1.974  0.7002  0.5629 -1.6227
  576SOL    HW2 2303   2.803   1.779   2.000 -1.3835  0.6196  1.7845
  576SOL     MW 2304   2.881   1.814   2.017  0.0145  0.1295  0.0156
  577SOL     OW 2305   2.133   0.250   0.058 -0.0307 -0.6883 -0.0137
  577SOL    HW1 2306   2.065   0.236  -0.008 -1.4491 -1.9035  1.7238
  577SOL    HW2 2307   2.099   0.218   0.152 -1.4607  1.5037  1.9585
  577SOL     MW 2308   2.119   0.244   0.062 -0.4065 -0.5594  0.4758
  578SOL     OW 2309   1.913   2.041   2.438  0.1662 -0.4561 -0.1276
  578SOL    HW1 2310   1.867   2.057   2.360  0.2727 -2.9951 -0.0218
  578SOL    HW2 2311   1.994   2.002   2.413 -0.7411  0.7350 -1.6800
  578SOL     MW 2312   1.917   2.038   2.424  0.0605 -0.6339 -0.3185
  579SOL     OW 2313   0.874   2.492   2.497 -0.1085  0.6471 -0.0187
  579SOL    HW1 2314   0.924   2.415   2.531 -1.0676 -1.7035 -0.1555
  579SOL    HW2 2315   0.941   2.541   2.446 -1.5834  2.5541 -1.4234
  579SOL     MW 2316   0.889   2.488   2.495 -0.4296  0.5886 -0.2221
  580SOL     OW 2317   0.887   2.991   0.022  1.0549 -0.0567  0.0966
  580SOL    HW1 2318   0.979   2.973  -0.006 -0.3693  0.7314  0.3576
  580SOL    HW2 2319   0.836   2.951  -0.050 -1.1813  2.7489 -0.4973
  580SOL     MW 2320   0.892   2.983   0.009  0.5719  0.4175  0.0527
  581SOL     OW 2321   1.136   2.457   1.708  0.5912 -0.2645  0.0127
  581SOL    HW1 2322   1.197   2.522   1.738  0.6606  0.9839  2.3803
  581SOL    HW2 2323   1.180   2.396   1.649  0.2511 -0.0590  0.8882
  581SOL     MW 2324   1.150   2.458   1.704  0.5555 -0.0726  0.4406
  582SOL     OW 2325   3.072   2.872   2.532 -0.2049  0.1626  0.4342
  582SOL    HW1 2326   3.037   2.953   2.569  0.8252 -1.9789  1.0783
  582SOL    HW2 2327   3.168   2.870   2.549 -1.4851  1.6986  0.0291
  582SOL     MW 2328   3.080   2.882   2.539 -0.2379  0.0827  0.4657
  583SOL     OW 2329   1.985   2.376   2.662  0.7047 -0.4510  0.9457
  583SOL    HW1 2330   2.070   2.376   2.618  0.3539 -1.2745 -2.1224
  583SOL    HW2 2331   1.964   2.283   2.682  0.2428  0.1180 -0.3678
  583SOL     MW 2332   1.993   2.364   2.659  0.5975 -0.4846  0.3676
  584SOL     OW 2333   0.172   1.879   2.120 -0.3293 -0.4501  0.0693
  584SOL    HW1 2334   0.263   1.874   2.078 -0.0058 -3.5200  1.8722
  584SOL    HW2 2335   0.192   1.949   2.180 -1.2262  1.8078 -3.2784
  584SOL     MW 2336   0.187   1.888   2.123 -0.4050 -0.5572 -0.1345
  585SOL     OW 2337   1.436   2.653   0.112 -0.1436 -0.1825  0.6879
  585SOL    HW1 2338   1.416   2.592   0.042 -0.7651 -0.6223 -4.1528
  585SOL    HW2 2339   1.352   2.662   0.160  0.7447 -0.5164  0.3758
  585SOL     MW 2340   1.422   2.646   0.109 -0.1084 -0.2846  0.0081
  586SOL     OW 2341   1.416   2.808   2.480  0.1672 -0.3130  0.0653
  586SOL    HW1 2342   1.461   2.762   2.408  1.5656  0.3622 -2.0171
  586SOL    HW2 2343   1.472   2.888   2.485 -0.5461 -1.7137  3.0982
  586SOL     MW 2344   1.429   2.813   2.471  0.2576 -0.4087  0.1907
  587SOL     OW 2345   1.304   1.565   2.187  0.2617  0.1825  0.2671
  587SOL    HW1 2346   1.278   1.499   2.252  0.9313 -1.2719 -1.2752
  587SOL    HW2 2347   1.308   1.513   2.106 -1.3664  1.1016 -0.5059
  587SOL     MW 2348   1.301   1.550   2.185  0.1353  0.1118 -0.0384
  588SOL     OW 2349   1.388   2.138   2.748  0.5076  0.0648  0.2253
  588SOL    HW1 2350   1.441   2.120   2.822 -1.5696  0.2636 -1.8310
  588SOL    HW2 2351   1.317   2.167   2.804 -0.1506  2.6446 -0.1848
  588SOL     MW 2352   1.386   2.140   2.765  0.1467  0.4314 -0.1001
  589SOL     OW 2353   1.293   2.063   0.068 -0.6458 -0.2924  0.1121
  589SOL    HW1 2354   1.326   2.144   0.108  1.0514 -0.4426  1.9265
  589SOL    HW2 2355   1.237   2.025   0.137 -1.0741  0.2237 -0.1899
  589SOL     MW 2356   1.290   2.069   0.082 -0.4783 -0.2441  0.3116
  590SOL     OW 2357   0.440   2.675   2.226 -0.3425  0.2714 -0.8273
  590SOL    HW1 2358   0.438   2.641   2.131 -0.4610 -1.0759  1.3520
  590SOL    HW2 2359   0.530   2.713   2.229  0.1016  1.6316 -0.7891
  590SOL     MW 2360   0.451   2.675   2.214 -0.2995  0.2731 -0.5347
  591SOL     OW 2361   2.279   0.724   3.075 -0.2033 -0.3965  0.5199
  591SOL    HW1 2362   2.221   0.800   3.047  0.0924 -1.2945  3.3967
  591SOL    HW2 2363   2.370   0.745   3.042  2.6409  2.3947 -3.0548
  591SOL     MW 2364   2.283   0.737   3.067  0.2110 -0.1467  0.4278
  592SOL     OW 2365   1.802   2.934   0.827 -0.1552  0.5690 -0.0941
  592SOL    HW1 2366   1.813   2.997   0.757 -0.7295  1.0781  0.0740
  592SOL    HW2 2367   1.855   2.859   0.804 -2.2062 -1.4024  1.0322
  592SOL     MW 2368   1.811   2.932   0.815 -0.5016  0.3761  0.0767
  593SOL     OW 2369   1.903   0.698   0.889  0.5518 -0.4011 -0.0467
  593SOL    HW1 2370   1.824   0.682   0.835  2.3331 -3.3880 -0.5721
  593SOL    HW2 2371   1.943   0.613   0.908  0.8377  0.4979  1.6051
  593SOL     MW 2372   1.898   0.685   0.885  0.8246 -0.6766  0.1019
  594SOL     OW 2373   2.795   1.167   1.353  0.7294 -0.0209  0.4731
  594SOL    HW1 2374   2.885   1.195   1.376  2.0910  1.1165  0.9964
  594SOL    HW2 2375   2.802   1.120   1.268 -0.0540 -0.2242 -0.9446
  594SOL     MW 2376   2.808   1.164   1.345  0.8057  0.1023  0.3551
  595SOL     OW 2377   0.493   0.961   0.771  0.1365 -0.1729  0.5619
  595SOL    HW1 2378   0.528   1.025   0.705 -1.8238 -4.3743 -1.3630
  595SOL    HW2 2379   0.514   1.003   0.855 -0.6260  0.1944  2.9472
  595SOL     MW 2380   0.501   0.975   0.773 -0.2227 -0.6788  0.6226
  596SOL     OW 2381   2.485   1.357   0.538 -0.2535 -0.1976  0.2146
  596SOL    HW1 2382   2.549   1.426   0.501  0.4032  4.4065 -0.1692
  596SOL    HW2 2383   2.535   1.308   0.608 -1.3983 -1.0095  2.1377
  596SOL     MW 2384   2.500   1.360   0.542 -0.3179  0.3027  0.4177
  597SOL     OW 2385   2.195   0.706   1.586 -0.1466 -0.0349 -0.6895
  597SOL    HW1 2386   2.214   0.648   1.659 -1.9117  0.9225  0.1799
  597SOL    HW2 2387   2.139   0.652   1.527 -0.4321  2.4608 -0.4695
  597SOL     MW 2388   2.190   0.691   1.588 -0.4172  0.4207 -0.5457
  598SOL     OW 2389   2.609   0.976   2.850  0.2139  0.0411 -0.3744
  598SOL    HW1 2390   2.610   0.972   2.750  0.7467  1.2121 -0.2913
  598SOL    HW2 2391   2.680   1.034   2.878 -1.4653  0.6237  2.3710
  598SOL     MW 2392   2.618   0.983   2.841  0.0626  0.2725 -0.0012
  599SOL     OW 2393   2.958   0.408   2.067  0.2160  0.5252 -0.6162
  599SOL    HW1 2394   2.930   0.396   2.160  1.1899 -0.1738  0.2625
  599SOL    HW2 2395   2.993   0.501   2.064 -0.8800 -0.3119 -0.2281
  599SOL     MW 2396   2.959   0.418   2.079  0.1999  0.3226 -0.4491
  600SOL     OW 2397   1.929   1.713   0.863  0.4104 -1.4275 -0.5771
  600SOL    HW1 2398   1.934   1.748   0.951 -3.4570 -0.1532 -3.4263
  600SOL    HW2 2399   1.831   1.724   0.856  2.0608  2.9411  2.0829
  600SOL     MW 2400   1.916   1.719   0.874  0.1179 -0.6830 -0.6021
  601SOL     OW 2401   2.535   0.782   0.832  0.0984  0.7725  0.0542
  601SOL    HW1 2402   2.565   0.775   0.928  1.0343  0.0948  3.6623
  601SOL    HW2 2403   2.451   0.730   0.819  1.2276 -2.1455  0.0725
  601SOL     MW 2404   2.528   0.774   0.843  0.3708  0.2981  0.5327
  602SOL     OW 2405   2.322   1.944   0.835  0.0324 -0.3280  0.2131
  602SOL    HW1 2406   2.289   1.856   0.862  0.8359 -0.5518 -1.0797
  602SOL    HW2 2407   2.245   1.983   0.794 -1.2807  0.4121 -1.2761
  602SOL     MW 2408   2.308   1.937   0.833 -0.0349 -0.2599 -0.1539
  603SOL     OW 2409   3.061   1.396   1.818  0.4473  0.3024 -0.0520
  603SOL    HW1 2410   3.124   1.436   1.879 -0.9844  0.8167  4.0502
  603SOL    HW2 2411   3.054   1.301   1.836  0.4242 -0.4839 -0.5423
  603SOL     MW 2412   3.068   1.388   1.829  0.2554  0.2665  0.4246
  604SOL     OW 2413   2.159   1.552   0.464  0.1646  0.3891  0.1762
  604SOL    HW1 2414   2.190   1.486   0.531 -2.8489 -1.8654 -0.1957
  604SOL    HW2 2415   2.079   1.593   0.502  3.6819  0.3226 -1.1040
  604SOL     MW 2416   2.153   1.549   0.477  0.2310  0.0829 -0.0418
  605SOL     OW 2417   2.618   1.557   0.826 -0.4736  0.1330 -0.1263
  605SOL    HW1 2418   2.573   1.643   0.803 -0.3132  2.9100 -0.6487
  605SOL    HW2 2419   2.565   1.489   0.788  1.4940  0.7171  0.6114
  605SOL     MW 2420   2.605   1.559   0.818 -0.1928  0.5765 -0.0979
  606SOL     OW 2421   2.593   1.851   1.893 -0.3273 -0.1013  0.0661
  606SOL    HW1 2422   2.504   1.866   1.925 -0.2355  1.3712  0.4963
  606SOL    HW2 2423   2.611   1.757   1.876 -2.0055 -1.7446  0.0718
  606SOL     MW 2424   2.584   1.840   1.895 -0.5366 -0.1238  0.1236
  607SOL     OW 2425   2.358   1.037   3.047  0.3036  0.4709 -0.1336
  607SOL    HW1 2426   2.429   0.984   3.008 -0.2661  0.3808 -0.5450
  607SOL    HW2 2427   2.356   1.014   3.146  1.1990 -2.9851  0.9654
  607SOL     MW 2428   2.367   1.027   3.055  0.3465  0.0030 -0.0429
  608SOL     OW 2429   1.896   0.297   0.627 -0.4510  0.1270  0.4535
  608SOL    HW1 2430   1.892   0.331   0.535 -2.7597 -2.9766  0.7641
  608SOL    HW2 2431   1.842   0.215   0.619  0.0111 -2.0127  0.3616
  608SOL     MW 2432   1.888   0.291   0.614 -0.6946 -0.5648  0.4823
  609SOL     OW 2433   2.090   2.012   3.046 -0.7874  0.2388  0.1604
  609SOL    HW1 2434   2.023   1.949   3.053 -0.1158  0.6286 -0.8418
  609SOL    HW2 2435   2.136   1.982   3.127 -0.3315  0.7999 -0.6230
  609SOL     MW 2436   2.087   2.000   3.058 -0.6386  0.3643 -0.0752
  610SOL     OW 2437   1.790   1.026   1.262  0.3841 -0.0645 -0.2578
  610SOL    HW1 2438   1.813   0.961   1.197  0.2057 -0.1125  2.3073
  610SOL    HW2 2439   1.699   1.014   1.283  1.1271 -0.5728  2.5793
  610SOL     MW 2440   1.781   1.016   1.256  0.4586 -0.1379  0.4550
  611SOL     OW 2441   2.536   1.768   0.691  0.1581  0.3433 -0.2469
  611SOL    HW1 2442   2.461   1.824   0.702  0.9942  0.1000 -0.9538
  611SOL    HW2 2443   2.548   1.729   0.606 -3.3310  1.4060  0.5465
  611SOL     MW 2444   2.527   1.771   0.681 -0.1919  0.4514 -0.2355
  612SOL     OW 2445   2.797   2.833   0.406  0.0496 -0.1714  0.8354
  612SOL    HW1 2446   2.859   2.872   0.470  0.9878  1.1276 -1.6493
  612SOL    HW2 2447   2.856   2.795   0.341 -2.3412  2.3461 -1.6414
  612SOL     MW 2448   2.813   2.834   0.406 -0.1420  0.3321  0.1808
  613SOL     OW 2449   1.491   1.026   0.942  0.3693  0.2743  0.4170
  613SOL    HW1 2450   1.493   1.119   0.964 -2.5656 -0.7139  0.6964
  613SOL    HW2 2451   1.518   0.985   1.023 -0.0254  0.0742 -0.4647
  613SOL     MW 2452   1.495   1.033   0.956 -0.0700  0.1175  0.3376
  614SOL     OW 2453   1.993   0.537   1.483  0.6539  0.4048 -0.6774
  614SOL    HW1 2454   2.010   0.458   1.536 -0.8642  1.8374  1.9495
  614SOL    HW2 2455   1.973   0.518   1.391 -1.8120 -0.7680  0.0858
  614SOL     MW 2456   1.993   0.524   1.478  0.1283  0.4391 -0.2301
  615SOL     OW 2457   2.377   0.721   0.300 -0.2146 -0.1985 -0.1144
  615SOL    HW1 2458   2.466   0.692   0.322 -0.1147 -0.1522  0.9627
  615SOL    HW2 2459   2.352   0.707   0.206 -0.6325 -0.7364 -0.0816
  615SOL     MW 2460   2.385   0.715   0.291 -0.2566 -0.2634  0.0321
  616SOL     OW 2461   2.495   0.448   1.597 -0.4011  0.0267 -0.2910
  616SOL    HW1 2462   2.481   0.361   1.560  0.7043  2.2552 -0.8519
  616SOL    HW2 2463   2.476   0.503   1.519  1.1409 -1.1771 -2.4132
  616SOL     MW 2464   2.491   0.444   1.582 -0.0518  0.1619 -0.6450
  617SOL     OW 2465   2.926   0.537   1.734  0.1397  0.7604 -0.4955
  617SOL    HW1 2466   2.848   0.564   1.789  0.0205 -1.5108  1.2986
  617SOL    HW2 2467   2.894   0.467   1.672 -2.0097  1.1399  2.2078
  617SOL     MW 2468   2.911   0.531   1.733 -0.1596  0.5108  0.0979
  618SOL     OW 2469   2.738   0.347   1.902  1.0092  0.1539 -0.5895
  618SOL    HW1 2470   2.706   0.437   1.905  2.5002  1.0087  0.6633
  618SOL    HW2 2471   2.818   0.341   1.950 -0.2379 -1.4637 -0.0663
  618SOL     MW 2472   2.744   0.358   1.909  1.0414  0.0533 -0.3552
  619SOL     OW 2473   2.681   0.658   0.114 -0.0034  0.0552  0.1670
  619SOL    HW1 2474   2.712   0.742   0.149  2.2703  0.2480 -0.8302
  619SOL    HW2 2475   2.663   0.608   0.193  0.7160  3.0710  1.0746
  619SOL     MW 2476   2.682   0.663   0.129  0.3915  0.4786  0.1552
  620SOL     OW 2477   2.309   1.035   1.002 -0.2646 -0.0415  0.0138
  620SOL    HW1 2478   2.356   1.020   0.922 -1.2891  1.4465  0.2174
  620SOL    HW2 2479   2.234   0.979   0.989 -0.6473 -1.6978 -4.2862
  620SOL     MW 2480   2.305   1.026   0.990 -0.4503 -0.0637 -0.5267
  621SOL     OW 2481   1.509   2.137   1.956  0.6548  0.1613  0.2605
  621SOL    HW1 2482   1.447   2.070   1.995  2.7725  0.0889 -1.7586
  621SOL    HW2 2483   1.593   2.086   1.956 -1.4441 -0.5025  1.0971
  621SOL     MW 2484   1.512   2.121   1.961  0.6573  0.0642  0.1045
  622SOL     OW 2485   2.609   0.158   0.276  0.7280 -0.0654 -0.1574
  622SOL    HW1 2486   2.702   0.178   0.272 -1.3555 -1.3464  1.7684
  622SOL    HW2 2487   2.609   0.071   0.312  1.0255  1.4468 -0.7148
  622SOL     MW 2488   2.621   0.149   0.280  0.4924 -0.0349  0.0232
  623SOL     OW 2489   2.353   2.824   0.871 -0.8082  0.0190 -0.5187
  623SOL    HW1 2490   2.443   2.871   0.875 -1.2851  0.0938  0.7170
  623SOL    HW2 2491   2.312   2.848   0.958  0.8141 -0.5651  1.0279
  623SOL     MW 2492   2.359   2.833   0.883 -0.6570 -0.0482 -0.1516
  624SOL     OW 2493   2.164   1.740   3.008  0.0162  0.1532 -0.0754
  624SOL    HW1 2494   2.131   1.654   3.003  2.0130 -1.6115  0.9609
  624SOL    HW2 2495   2.079   1.781   2.978  1.9168 -0.0758  0.1540
  624SOL     MW 2496   2.148   1.734   3.004  0.5304 -0.1098  0.0916
  625SOL     OW 2497   2.199   1.967   1.121 -0.1040 -0.4184  0.1515
  625SOL    HW1 2498   2.280   1.963   1.179 -1.8809 -1.2282  2.6209
  625SOL    HW2 2499   2.220   1.983   1.030  1.0242 -1.9359  0.4002
  625SOL     MW 2500   2.212   1.969   1.117 -0.1896 -0.7255  0.5101
  626SOL     OW 2501   0.263   1.612   2.377  0.8476 -0.0733  0.4072
  626SOL    HW1 2502   0.250   1.516   2.375  0.6805  1.7611 -0.8416
  626SOL    HW2 2503   0.183   1.652   2.405  3.4740  1.7771 -2.1263
  626SOL     MW 2504   0.251   1.605   2.381  1.1720  0.4128 -0.0918
  627SOL     OW 2505   2.461   0.782   2.644  0.4339 -0.4160 -0.3462
  627SOL    HW1 2506   2.411   0.863   2.637 -0.2815  0.1527  2.3781
  627SOL    HW2 2507   2.430   0.719   2.582 -1.1783  2.4768 -2.5938
  627SOL     MW 2508   2.450   0.784   2.635  0.1268  0.0407 -0.2833
  628SOL     OW 2509   2.323   1.360   1.382  1.0237  0.2880 -0.5731
  628SOL    HW1 2510   2.282   1.298   1.316  0.0296  1.8619 -0.0043
  628SOL    HW2 2511   2.422   1.351   1.373 -0.7863 -0.8102 -0.2275
  628SOL     MW 2512   2.331   1.351   1.372  0.6537  0.3507 -0.4525
  629SOL     OW 2513   1.865   0.547   1.200 -0.1908 -0.2530  0.2004
  629SOL    HW1 2514   1.849   0.636   1.165 -0.9367  0.2185 -0.2411
  629SOL    HW2 2515   1.784   0.524   1.244 -0.3367 -1.9147  2.8410
  629SOL     MW 2516   1.852   0.556   1.201 -0.3085 -0.4100  0.4906
  630SOL     OW 2517   2.446   1.801   3.007  0.2263 -0.2026 -0.5555
  630SOL    HW1 2518   2.464   1.855   2.927  0.3017 -1.6443  1.0583
  630SOL    HW2 2519   2.349   1.795   3.020 -1.5701 -0.5566 -2.7385
  630SOL     MW 2520   2.436   1.808   2.998 -0.0008 -0.4395 -0.6306
  631SOL     OW 2521   1.959   1.841   1.587  0.5266 -0.1018  0.0815
  631SOL    HW1 2522   1.963   1.763   1.645  0.6155 -0.9394  0.6182
  631SOL    HW2 2523   1.935   1.802   1.504  0.9785  0.3335 -2.3809
  631SOL     MW 2524   1.956   1.826   1.584  0.5980 -0.1549 -0.1726
  632SOL     OW 2525   0.146   2.003   1.471 -0.0695 -0.9502 -0.4717
  632SOL    HW1 2526   0.109   2.046   1.552 -1.1410  1.1128  1.4849
  632SOL    HW2 2527   0.123   1.914   1.485 -2.7196  1.7631  1.7019
  632SOL     MW 2528   0.138   1.997   1.484 -0.5605 -0.3200  0.0732
  633SOL     OW 2529   2.603   0.530   0.369 -0.0411 -0.6525 -0.2304
  633SOL    HW1 2530   2.664   0.527   0.449 -0.4862 -0.0048  1.6603
  633SOL    HW2 2531   2.533   0.469   0.382  0.9508 -1.7702  0.7879
  633SOL     MW 2532   2.601   0.521   0.381  0.0310 -0.7145  0.1534
  634SOL     OW 2533   2.697   3.068   0.617  0.0261  0.3319  0.0427
  634SOL    HW1 2534   2.726   3.160   0.610  1.0830  2.5065 -1.8569
  634SOL    HW2 2535   2.652   3.044   0.535 -0.7604  0.6322 -0.5102
  634SOL     MW 2536   2.695   3.077   0.605  0.0618  0.6584 -0.2809
  635SOL     OW 2537   2.620   0.115   1.842  0.2961  0.2956 -0.1387
  635SOL    HW1 2538   2.679   0.056   1.792  2.1018 -0.7290 -2.6397
  635SOL    HW2 2539   2.668   0.193   1.871 -0.4870  2.8816  1.3886
  635SOL     MW 2540   2.634   0.118   1.839  0.4310  0.5016 -0.2672
  636SOL     OW 2541   2.909   1.650   1.129 -0.5954 -0.9501 -0.1438
  636SOL    HW1 2542   2.831   1.694   1.166  0.8037 -3.1901  2.7683
  636SOL    HW2 2543   2.963   1.720   1.086  0.3995  0.5787 -1.5792
  636SOL     MW 2544   2.905   1.665   1.128 -0.2796 -1.0439  0.0510
  637SOL     OW 2545   2.874   1.477   0.701  0.7827  0.2339  0.5190
  637SOL    HW1 2546   2.920   1.560   0.685 -0.3393  1.2454 -0.6642
  637SOL    HW2 2547   2.793   1.506   0.750 -0.4550 -0.2398  1.5673
  637SOL     MW 2548   2.869   1.492   0.705  0.4713  0.3049  0.5012
  638SOL     OW 2549   2.790   0.482   0.563  0.0057  0.4326  0.2719
  638SOL    HW1 2550   2.874   0.529   0.539  1.1922  3.5356  1.0801
  638SOL    HW2 2551   2.771   0.517   0.650 -0.4253  0.5431  1.5245
  638SOL     MW 2552   2.799   0.493   0.571  0.1053  0.8566  0.5438
  639SOL     OW 2553   1.775   0.052   0.591 -0.0592 -0.0250  1.0433
  639SOL    HW1 2554   1.677   0.072   0.580  0.4333 -1.1310 -1.7002
  639SOL    HW2 2555   1.794  -0.010   0.517  1.0417  0.0227 -0.5511
  639SOL     MW 2556   1.765   0.047   0.580  0.1510 -0.1646  0.4709
  640SOL     OW 2557   0.375   1.307   0.120 -0.0390 -0.4762  0.1495
  640SOL    HW1 2558   0.398   1.298   0.027 -0.3960 -1.2495  0.0321
  640SOL    HW2 2559   0.311   1.236   0.130  1.2133 -0.4510  1.0135
  640SOL     MW 2560   0.370   1.296   0.109  0.0791 -0.5749  0.2480
  641SOL     OW 2561   2.198   0.413   0.319 -0.8522 -0.0271 -0.1499
  641SOL    HW1 2562   2.220   0.465   0.243 -4.5887  0.0693 -1.1883
  641SOL    HW2 2563   2.218   0.321   0.291  1.3120 -1.1472  0.4461
  641SOL     MW 2564   2.203   0.408   0.305 -1.0597 -0.1622 -0.2083
  642SOL     OW 2565   0.060   3.088   0.588  0.3585  0.2083 -0.0330
  642SOL    HW1 2566   0.022   3.157   0.531 -0.8465  0.0005  0.0317
  642SOL    HW2 2567  -0.019   3.042   0.626  0.9606 -1.1501  3.5321
  642SOL     MW 2568   0.045   3.091   0.585  0.2790  0.0017  0.4459
  643SOL     OW 2569   2.073   0.330   1.644 -0.2804  0.0439 -0.0699
  643SOL    HW1 2570   1.985   0.315   1.667 -1.3620  0.6989 -1.9852
  643SOL    HW2 2571   2.078   0.264   1.579  1.3813  0.6424  2.3666
  643SOL     MW 2572   2.062   0.320   1.638 -0.2038  0.2093 -0.0012
  644SOL     OW 2573   2.736   2.023   1.038 -0.1334  0.6191 -0.1380
  644SOL    HW1 2574   2.734   1.932   1.073 -1.7032  0.2360 -0.3722
  644SOL    HW2 2575   2.650   2.046   1.010  3.0050 -0.2183 -0.6628
  644SOL     MW 2576   2.724   2.014   1.039  0.0735  0.4581 -0.2381
  645SOL     OW 2577   2.861   0.834   0.668  0.2082 -0.7412  0.1759
  645SOL    HW1 2578   2.951   0.813   0.672  1.6590  0.2852 -2.0172
  645SOL    HW2 2579   2.817   0.754   0.694  0.7838  2.0915  2.1766
  645SOL     MW 2580   2.867   0.821   0.672  0.4756 -0.2321  0.1505
  646SOL     OW 2581   0.186   2.297   0.781 -0.2769  0.8766  0.4155
  646SOL    HW1 2582   0.189   2.207   0.809 -1.1275 -1.8744 -1.0645
  646SOL    HW2 2583   0.108   2.288   0.734 -0.0339 -0.6214  0.9266
  646SOL     MW 2584   0.176   2.284   0.779 -0.3571  0.3160  0.2877
  647SOL     OW 2585   2.670   0.489   2.978 -0.2313  0.1239 -0.2697
  647SOL    HW1 2586   2.615   0.431   3.031  0.5166 -0.4223 -0.9309
  647SOL    HW2 2587   2.623   0.570   2.982  0.2443  0.1784  0.5078
  647SOL     MW 2588   2.656   0.492   2.986 -0.0699  0.0590 -0.2543
  648SOL     OW 2589   2.136   0.735   1.197  0.1335  0.2488  0.5811
  648SOL    HW1 2590   2.111   0.774   1.118 -1.2508  0.4031  3.8492
  648SOL    HW2 2591   2.156   0.803   1.264 -0.8816 -1.9897 -0.5472
  648SOL     MW 2592   2.136   0.749   1.196 -0.1831 -0.0262  0.8634
  649SOL     OW 2593   2.339   2.722   1.282  0.5246 -0.1496 -0.2406
  649SOL    HW1 2594   2.407   2.776   1.322  0.1370  0.0011  0.1336
  649SOL    HW2 2595   2.381   2.637   1.267  0.8608 -3.7086 -2.0438
  649SOL     MW 2596   2.354   2.718   1.286  0.5178 -0.5993 -0.4291
  650SOL     OW 2597   2.808   0.217   0.632  0.1948 -0.1951 -0.1313
  650SOL    HW1 2598   2.818   0.309   0.604  3.3247 -2.3822 -4.7480
  650SOL    HW2 2599   2.895   0.189   0.596  0.3179 -0.7417  0.1042
  650SOL     MW 2600   2.821   0.225   0.623  0.6240 -0.5558 -0.7094
  651SOL     OW 2601   2.981   0.403   0.824 -0.6718 -0.0695  0.5853
  651SOL    HW1 2602   3.056   0.468   0.813  1.6077 -0.8945  3.1065
  651SOL    HW2 2603   2.928   0.440   0.899 -1.9244 -0.9110  1.0325
  651SOL     MW 2604   2.984   0.416   0.833 -0.5363 -0.2894  0.9769
  652SOL     OW 2605   2.433   1.487   2.958  0.2400  0.6907 -0.0051
  652SOL    HW1 2606   2.500   1.487   2.889 -1.4432  2.5734  0.2142
  652SOL    HW2 2607   2.393   1.576   2.960  0.2889 -1.3753 -0.7157
  652SOL     MW 2608   2.437   1.499   2.949  0.0243  0.6665 -0.0699
  653SOL     OW 2609   1.903   0.425   0.392  0.5859  0.2645 -0.2954
  653SOL    HW1 2610   1.863   0.374   0.325 -0.9142 -0.9588  2.1373
  653SOL    HW2 2611   1.993   0.407   0.389  0.8282  0.6740 -0.2718
  653SOL     MW 2612   1.909   0.416   0.383  0.4199  0.1571  0.0287
  654SOL     OW 2613   2.415   1.052   0.733 -0.2729 -0.1961  0.2406
  654SOL    HW1 2614   2.342   1.051   0.672 -0.0239 -1.4339 -0.9336
  654SOL    HW2 2615   2.449   0.963   0.735 -1.5057  0.3848  1.1544
  654SOL     MW 2616   2.410   1.040   0.726 -0.4027 -0.2828  0.2062
  655SOL     OW 2617   2.892   0.850   0.374 -0.3540 -0.6604 -0.5408
  655SOL    HW1 2618   2.876   0.908   0.449  0.0381 -0.0246 -0.4931
  655SOL    HW2 2619   2.928   0.766   0.416  2.8280  0.5490  0.0738
  655SOL     MW 2620   2.894   0.847   0.390  0.1176 -0.4169 -0.4534
  656SOL     OW 2621   1.852   2.728   1.313 -0.4950 -0.1819  0.1532
  656SOL    HW1 2622   1.905   2.774   1.243  0.4832  0.0261 -0.3848
  656SOL    HW2 2623   1.910   2.716   1.393  0.2789  0.1948  1.8905
  656SOL     MW 2624   1.866   2.733   1.314 -0.2638 -0.1048  0.3115
  657SOL     OW 2625   0.139   1.697   1.265  0.2218  0.6117 -0.3699
  657SOL    HW1 2626   0.195   1.756   1.212  1.6972 -1.1145  1.8600
  657SOL    HW2 2627   0.145   1.605   1.241 -1.4810  0.5406 -1.8425
  657SOL     MW 2628   0.147   1.692   1.255  0.1918  0.3745 -0.2700
  658SOL     OW 2629   2.727   1.321   0.225  0.3258  0.2406 -0.1091
  658SOL    HW1 2630   2.669   1.252   0.253  1.2352  2.3817 -0.6703
  658SOL    HW2 2631   2.743   1.375   0.301 -1.8496 -0.2928 -0.2658
  658SOL     MW 2632   2.721   1.319   0.239  0.1587  0.4527 -0.2038
  659SOL     OW 2633   2.269   1.502   1.090  0.2959  0.4868  0.9421
  659SOL    HW1 2634   2.366   1.503   1.091  0.7711  1.9829 -1.2075
  659SOL    HW2 2635   2.237   1.540   1.169 -2.1448  0.3664 -1.0121
  659SOL     MW 2636   2.278   1.507   1.101  0.0366  0.6683  0.4007
  660SOL     OW 2637   2.048   1.604   1.697  0.0823  0.0721 -0.6085
  660SOL    HW1 2638   2.061   1.616   1.792  1.4207 -0.4130 -1.1135
  660SOL    HW2 2639   1.971   1.545   1.679  0.6022 -2.5069 -0.7669
  660SOL     MW 2640   2.039   1.598   1.707  0.3275 -0.3322 -0.6961
  661SOL     OW 2641   2.381   1.000   0.224  0.3089 -0.0577  0.0749
  661SOL    HW1 2642   2.448   1.052   0.279  3.0656  0.2139 -0.0022
  661SOL    HW2 2643   2.387   0.914   0.264  2.3713 -0.9327  0.5463
  661SOL     MW 2644   2.391   0.996   0.237  0.9448 -0.1373  0.1269
  662SOL     OW 2645   2.579   2.966   0.856  0.4456 -0.2254 -0.0900
  662SOL    HW1 2646   2.545   3.036   0.908  2.9100 -0.7101 -1.0170
  662SOL    HW2 2647   2.602   3.001   0.770  2.1377 -0.6699  0.3801
  662SOL     MW 2648   2.578   2.980   0.852  0.9940 -0.3480 -0.1503
  663SOL     OW 2649   2.727   1.473   0.457 -0.8027 -0.0568  0.4276
  663SOL    HW1 2650   2.670   1.549   0.426  0.9596  0.2734  0.8015
  663SOL    HW2 2651   2.779   1.493   0.537  0.4124  2.2618  1.0974
  663SOL     MW 2652   2.726   1.486   0.464 -0.4098  0.2927  0.5653
  664SOL     OW 2653   2.506   1.535   1.609  0.3687  0.0516  0.3246
  664SOL    HW1 2654   2.465   1.618   1.582  1.5253 -1.9660 -0.7989
  664SOL    HW2 2655   2.433   1.472   1.615 -0.7855  1.2003  0.2291
  664SOL     MW 2656   2.491   1.537   1.606  0.3690 -0.0631  0.1638
  665SOL     OW 2657   2.847   0.878   2.016 -0.4726 -0.0463 -0.1986
  665SOL    HW1 2658   2.805   0.911   1.934  2.6327 -1.2139  1.8637
  665SOL    HW2 2659   2.919   0.827   1.980  0.6469 -0.0677 -1.2826
  665SOL     MW 2660   2.851   0.876   2.001  0.0848 -0.2032 -0.0695
  666SOL     OW 2661   2.755   3.020   1.699  0.0006 -0.2321  0.2536
  666SOL    HW1 2662   2.779   3.012   1.606  0.1098  1.4174  2.4407
  666SOL    HW2 2663   2.719   2.936   1.716 -1.5163 -1.5555 -3.9098
  666SOL     MW 2664   2.753   3.008   1.689 -0.1852 -0.1891 -0.0071
  667SOL     OW 2665   1.981   2.660   1.765 -0.1124  0.1951  0.5564
  667SOL    HW1 2666   2.018   2.592   1.821 -0.0071 -0.0985 -1.1384
  667SOL    HW2 2667   2.057   2.718   1.740 -0.6777  1.6597 -2.2473
  667SOL     MW 2668   1.996   2.658   1.769 -0.1731  0.3496 -0.0372
  668SOL     OW 2669   2.736   0.625   0.790  0.2918 -0.5393 -0.3503
  668SOL    HW1 2670   2.800   0.638   0.864 -1.1350  0.7661  0.4342
  668SOL    HW2 2671   2.664   0.698   0.804  0.5862 -0.6060  1.1265
  668SOL     MW 2672   2.735   0.636   0.802  0.1424 -0.3759 -0.0519
  669SOL     OW 2673   0.224   0.965   0.712 -0.6737  0.5341  0.4088
  669SOL    HW1 2674   0.168   0.998   0.774 -0.3092  0.7409 -0.3938
  669SOL    HW2 2675   0.320   0.966   0.738  1.6445 -1.1030 -1.6799
  669SOL     MW 2676   0.230   0.970   0.724 -0.3197  0.3454  0.0273
  670SOL     OW 2677   2.879   0.226   0.219  0.6484  0.0281  0.3756
  670SOL    HW1 2678   2.913   0.152   0.161  0.1727  0.7945 -1.0474
  670SOL    HW2 2679   2.889   0.303   0.166 -0.8948 -0.5929 -1.4357
  670SOL     MW 2680   2.885   0.227   0.204  0.3820  0.0473 -0.0512
  671SOL     OW 2681   2.052   2.950   1.470 -0.4080  0.0971 -0.0386
  671SOL    HW1 2682   1.986   2.991   1.414 -0.0080  0.2302  3.5153
  671SOL    HW2 2683   2.050   3.004   1.550 -0.7747  2.0480 -0.5621
  671SOL     MW 2684   2.043   2.962   1.473 -0.4036  0.3721  0.3612
  672SOL     OW 2685   1.908   1.668   1.341  0.0721  0.2793 -0.7352
  672SOL    HW1 2686   1.811   1.678   1.347  0.2489 -3.4292  0.2950
  672SOL    HW2 2687   1.937   1.722   1.264 -1.9289 -0.3233  0.5557
  672SOL     MW 2688   1.899   1.677   1.331 -0.1686 -0.2895 -0.4290
  673SOL     OW 2689   2.764   1.070   0.589 -0.4229 -0.0227  0.2785
  673SOL    HW1 2690   2.761   0.987   0.642  1.3951  0.3627  1.3661
  673SOL    HW2 2691   2.835   1.121   0.625 -1.0219  1.3566 -1.0140
  673SOL     MW 2692   2.773   1.066   0.600 -0.2621  0.2102  0.2515
  674SOL     OW 2693   2.454   0.031   1.270 -0.1838 -0.7987  0.2727
  674SOL    HW1 2694   2.420   0.037   1.179  0.4849 -1.5541  0.2795
  674SOL    HW2 2695   2.480  -0.061   1.279  2.8524  0.5945 -2.6995
  674SOL     MW 2696   2.453   0.020   1.259  0.3050 -0.7145 -0.1186
  675SOL     OW 2697   3.020   0.864   1.067  0.2850 -0.3122 -0.3582
  675SOL    HW1 2698   3.093   0.875   1.129  0.0880  2.2948  0.1531
  675SOL    HW2 2699   3.036   0.909   0.986 -3.2532 -2.4706  1.7239
  675SOL     MW 2700   3.031   0.872   1.065 -0.2079 -0.2530 -0.0160
  676SOL     OW 2701   2.846   1.485   1.684 -0.1778  0.3592 -0.2554
  676SOL    HW1 2702   2.786   1.401   1.657 -1.7051  0.4079 -0.1972
  676SOL    HW2 2703   2.937   1.458   1.714  0.7133  2.0402  1.6244
  676SOL     MW 2704   2.850   1.470   1.684 -0.2617  0.5874  0.0003
  677SOL     OW 2705   2.412   0.636   1.961 -0.4316 -0.1884 -0.0519
  677SOL    HW1 2706   2.346   0.586   1.918  0.7277 -1.1427  2.7851
  677SOL    HW2 2707   2.350   0.698   2.006  1.5393  0.8090 -0.4010
  677SOL     MW 2708   2.395   0.638   1.961 -0.0186 -0.1827  0.2764
  678SOL     OW 2709   2.518   1.639   0.370 -0.0593  0.0717 -0.0283
  678SOL    HW1 2710   2.432   1.692   0.373 -0.5113 -0.3714 -1.5793
  678SOL    HW2 2711   2.523   1.603   0.274  1.0912 -0.0351 -2.3918
  678SOL     MW 2712   2.508   1.641   0.357  0.0329 -0.0008 -0.5448
  679SOL     OW 2713   2.264   0.494   1.199 -0.0129  0.4677  0.6977
  679SOL    HW1 2714   2.209   0.424   1.164  1.2962 -1.5296  0.7247
  679SOL    HW2 2715   2.222   0.580   1.185 -2.5955 -0.4425  0.9942
  679SOL     MW 2716   2.251   0.496   1.192 -0.1809  0.0841  0.7404
  680SOL     OW 2717   2.322   0.156   1.504 -0.5281  0.5304  0.5712
  680SOL    HW1 2718   2.237   0.149   1.471  1.9914  0.7518  1.4160
  680SOL    HW2 2719   2.387   0.117   1.442 -2.0304 -0.5392  0.8604
  680SOL     MW 2720   2.319   0.150   1.492 -0.3939  0.4185  0.7209
  681SOL     OW 2721   0.311   0.568   1.577 -0.3807  0.6017  0.0199
  681SOL    HW1 2722   0.295   0.486   1.621 -2.2859  4.5458 -0.5435
  681SOL    HW2 2723   0.405   0.568   1.583 -1.6387  0.8018  0.8416
  681SOL     MW 2724   0.321   0.557   1.584 -0.7981  1.1485  0.0540
  682SOL     OW 2725   0.079   2.908   1.474 -0.0135 -0.4820  0.2000
  682SOL    HW1 2726   0.086   2.996   1.427  2.1420 -0.4920 -0.5036
  682SOL    HW2 2727   0.028   2.934   1.552 -2.3720 -1.4775 -0.1889
  682SOL     MW 2728   0.073   2.923   1.478 -0.0403 -0.6147  0.0558
  683SOL     OW 2729   2.067   0.888   3.001 -0.2445  0.1695  0.0656
  683SOL    HW1 2730   1.976   0.861   2.994  1.3421  1.4713 -1.1856
  683SOL    HW2 2731   2.058   0.982   3.023 -0.1769  1.1647 -2.0000
  683SOL     MW 2732   2.054   0.897   3.003 -0.0262  0.4726 -0.3720
  684SOL     OW 2733   2.219   1.696   0.903  0.1452  0.0872 -0.2645
  684SOL    HW1 2734   2.126   1.670   0.888 -2.4755  0.9536 -0.0904
  684SOL    HW2 2735   2.266   1.634   0.961  3.2366 -3.0356 -2.6633
  684SOL     MW 2736   2.213   1.685   0.909  0.2073 -0.2105 -0.5580
  685SOL     OW 2737   2.672   1.753   1.213 -0.3112 -0.2425 -0.3171
  685SOL    HW1 2738   2.699   1.709   1.297 -2.6349 -1.4210  0.2611
  685SOL    HW2 2739   2.635   1.684   1.153  0.7208  0.5475 -1.2112
  685SOL     MW 2740   2.671   1.738   1.216 -0.4816 -0.2938 -0.3587
  686SOL     OW 2741   2.925   0.745   1.548 -0.0928 -0.0998  0.6086
  686SOL    HW1 2742   2.927   0.676   1.612  1.0093  1.1741 -0.3472
  686SOL    HW2 2743   3.020   0.749   1.517 -0.5216  0.7934 -3.1739
  686SOL     MW 2744   2.938   0.737   1.553 -0.0040  0.1861 -0.0165
  687SOL     OW 2745   2.062   0.255   1.131  0.3140 -0.9185 -0.6286
  687SOL    HW1 2746   2.117   0.201   1.077  3.4121  0.8309  4.1057
  687SOL    HW2 2747   1.986   0.282   1.079 -0.1247 -0.6945 -0.8612
  687SOL     MW 2748   2.060   0.251   1.117  0.6649 -0.6582 -0.0347
  688SOL     OW 2749   2.375   0.606   1.403 -0.3104 -0.4860  0.7362
  688SOL    HW1 2750   2.315   0.551   1.347 -1.4054  1.2963 -2.0225
  688SOL    HW2 2751   2.325   0.648   1.469  1.8969  0.4708 -1.4911
  688SOL     MW 2752   2.360   0.605   1.404 -0.1637 -0.1246  0.0783
  689SOL     OW 2753   2.547   0.730   2.983  0.2884 -0.1402 -0.3809
  689SOL    HW1 2754   2.577   0.809   2.938 -1.8081 -1.3727  1.6618
  689SOL    HW2 2755   2.599   0.744   3.072  1.9784 -0.3084 -1.5929
  689SOL     MW 2756   2.558   0.742   2.989  0.2348 -0.3250 -0.2713
  690SOL     OW 2757   2.074   0.944   1.916  0.0559 -0.2909 -1.0327
  690SOL    HW1 2758   2.034   0.856   1.927  2.2985  0.5486 -0.3735
  690SOL    HW2 2759   2.076   0.951   1.821 -0.7667  1.9624 -0.2405
  690SOL     MW 2760   2.069   0.934   1.905  0.2432  0.1172 -0.8412
  691SOL     OW 2761   2.427   0.250   0.863 -0.2227 -0.0930  0.5034
  691SOL    HW1 2762   2.489   0.312   0.903  0.9964 -2.2807  1.3675
  691SOL    HW2 2763   2.347   0.303   0.866  0.7815  0.5635 -3.2262
  691SOL     MW 2764   2.425   0.265   0.869  0.0706 -0.2950  0.1253
  692SOL     OW 2765   2.794   1.633   1.465 -0.7767  0.7956  0.0253
  692SOL    HW1 2766   2.789   1.571   1.540 -0.0037  2.9435  1.9241
  692SOL    HW2 2767   2.824   1.717   1.504 -0.8541 -2.3846  0.7256
  692SOL     MW 2768   2.798   1.636   1.480 -0.6849  0.6594  0.3682
  693SOL     OW 2769   2.314   0.472   0.085 -0.6292 -0.3756  0.2553
  693SOL    HW1 2770   2.246   0.409   0.054 -3.4576 -0.1912  1.5857
  693SOL    HW2 2771   2.318   0.556   0.026 -0.4133 -2.1609  1.8692
  693SOL     MW 2772   2.305   0.475   0.073 -0.9739 -0.5868  0.6437
  694SOL     OW 2773   1.910   1.208   1.122 -0.9528  0.1774  0.7230
  694SOL    HW1 2774   2.005   1.202   1.153  1.3721 -0.1857 -1.3549
  694SOL    HW2 2775   1.864   1.142   1.175  0.2923  0.2991 -0.8884
  694SOL     MW 2776   1.916   1.198   1.133 -0.4818  0.1455  0.2363
  695SOL     OW 2777   3.021   1.471   1.368  0.0966  0.0829 -0.1345
  695SOL    HW1 2778   3.015   1.454   1.274  0.2836  1.1001  1.4073
  695SOL    HW2 2779   2.953   1.533   1.386  2.5716 -1.2253 -0.5536
  695SOL     MW 2780   3.011   1.477   1.358  0.4478  0.0445  0.0137
  696SOL     OW 2781   2.130   1.372   0.887  0.3884 -0.0782 -0.1905
  696SOL    HW1 2782   2.180   1.395   0.971 -1.4638  1.1156 -2.7377
  696SOL    HW2 2783   2.104   1.281   0.892 -1.2534  0.7828  0.4827
  696SOL     MW 2784   2.133   1.363   0.899 -0.0726  0.1929 -0.4378
  697SOL     OW 2785   2.936   1.101   2.168  0.1624 -0.5810  0.5232
  697SOL    HW1 2786   2.867   1.157   2.180  0.8806 -4.8279  0.3154
  697SOL    HW2 2787   2.900   1.022   2.125  1.0578  0.5819  2.0799
  697SOL     MW 2788   2.922   1.098   2.164  0.3753 -0.9879  0.7011
  698SOL     OW 2789   2.524   0.317   0.048  0.1383 -0.3555 -0.0626
  698SOL    HW1 2790   2.456   0.381   0.078  0.3647 -0.3201  0.8096
  698SOL    HW2 2791   2.547   0.273   0.136  0.5709 -0.6336  2.4193
  698SOL     MW 2792   2.518   0.320   0.064  0.2252 -0.3875  0.3799
  699SOL     OW 2793   1.847   1.628   1.988  0.3256 -0.7568  0.2926
  699SOL    HW1 2794   1.821   1.542   2.008 -1.6690  2.2682 -3.7269
  699SOL    HW2 2795   1.940   1.639   1.994 -2.7442  2.8157  0.0522
  699SOL     MW 2796   1.856   1.618   1.991 -0.3426  0.1137 -0.2695
  700SOL     OW 2797   2.704   0.943   1.491  0.0256  0.2474 -0.3446
  700SOL    HW1 2798   2.785   0.995   1.474  0.4236  1.3765 -1.5049
  700SOL    HW2 2799   2.743   0.857   1.504  1.0866 -1.0477 -0.4876
  700SOL     MW 2800   2.720   0.939   1.490  0.2181  0.2255 -0.5166
  701SOL     OW 2801   1.614   1.241   2.484  0.1400  0.1140 -0.4797
  701SOL    HW1 2802   1.713   1.240   2.487  1.5029  0.3232 -0.8393
  701SOL    HW2 2803   1.591   1.290   2.560  0.1985 -1.4974  0.0215
  701SOL     MW 2804   1.624   1.247   2.495  0.3275 -0.0710 -0.4610
  702SOL     OW 2805   2.207   0.432   0.873 -0.5564 -0.1444  0.1472
  702SOL    HW1 2806   2.173   0.367   0.805 -0.9669 -1.0432 -1.8829
  702SOL    HW2 2807   2.256   0.500   0.825  1.2545 -0.5501  1.3236
  702SOL     MW 2808   2.209   0.432   0.858 -0.3716 -0.3165  0.0346
  703SOL     OW 2809   2.745   1.237   0.997  0.0009 -0.1462  0.1955
  703SOL    HW1 2810   2.700   1.241   0.908  0.1350  1.9400 -1.1963
  703SOL    HW2 2811   2.751   1.148   1.019  0.7549  0.1938 -2.3556
  703SOL     MW 2812   2.740   1.226   0.988  0.1181  0.1739 -0.3248
  704SOL     OW 2813   3.099   1.275   0.217 -0.6512 -0.2294 -0.4526
  704SOL    HW1 2814   3.053   1.213   0.153 -0.3835 -0.0747 -3.5979
  704SOL    HW2 2815   3.099   1.241   0.303  0.6154  3.1504 -3.4504
  704SOL     MW 2816   3.093   1.262   0.220 -0.4487  0.2370 -1.2631
  705SOL     OW 2817   2.217   1.637   1.329  0.1714  0.4125 -0.3088
  705SOL    HW1 2818   2.121   1.631   1.369 -2.7617 -0.0614  0.4108
  705SOL    HW2 2819   2.268   1.581   1.388 -0.0159 -2.4229  1.6280
  705SOL     MW 2820   2.211   1.629   1.342 -0.2403 -0.0241  0.0417
  706SOL     OW 2821   2.956   1.217   0.692  0.6184 -0.0180 -0.0886
  706SOL    HW1 2822   3.025   1.197   0.624 -0.2306 -0.1741  2.1270
  706SOL    HW2 2823   2.943   1.315   0.696 -0.1239 -1.1532 -0.3323
  706SOL     MW 2824   2.964   1.227   0.683  0.4085 -0.1883  0.1716
  707SOL     OW 2825   2.410   0.028   0.997  0.5034  0.0975  0.5851
  707SOL    HW1 2826   2.421   0.107   0.946 -0.9208 -0.0723  0.1413
  707SOL    HW2 2827   2.328   0.006   0.962  2.5839 -2.3263  0.7256
  707SOL     MW 2828   2.401   0.036   0.986  0.5900 -0.2447  0.5451
  708SOL     OW 2829   2.530   1.487   0.123 -0.5818 -0.4287  0.2197
  708SOL    HW1 2830   2.600   1.423   0.137 -0.6950 -1.0963 -0.2578
  708SOL    HW2 2831   2.497   1.487   0.035 -0.3987 -0.7304 -2.4891
  708SOL     MW 2832   2.535   1.478   0.113 -0.5725 -0.5566 -0.2007
  709SOL     OW 2833   1.750   1.678   0.126  0.3523 -0.6972  0.7404
  709SOL    HW1 2834   1.714   1.657   0.041  1.6422 -3.1241 -3.1920
  709SOL    HW2 2835   1.678   1.706   0.188 -1.9280  0.4290 -0.4423
  709SOL     MW 2836   1.736   1.679   0.123  0.2216 -0.8688  0.0655
  710SOL     OW 2837   2.177   1.184   1.225  0.4623 -0.1532  0.6800
  710SOL    HW1 2838   2.239   1.151   1.158  2.7337  2.0042  1.7191
  710SOL    HW2 2839   2.187   1.120   1.297  1.1930 -1.2931  2.1418
  710SOL     MW 2840   2.187   1.171   1.225  0.8584 -0.0189  1.0100
  711SOL     OW 2841   2.356   0.121   1.781 -0.2441 -0.0824 -0.0485
  711SOL    HW1 2842   2.450   0.121   1.790 -1.8956  0.7845 -0.7396
  711SOL    HW2 2843   2.345   0.164   1.699  1.1129 -2.7177  2.1594
  711SOL     MW 2844   2.367   0.127   1.771 -0.2830 -0.3157  0.1516
  712SOL     OW 2845   1.913   0.535   0.028  0.5043 -0.3999  0.5883
  712SOL    HW1 2846   1.866   0.577  -0.045 -2.1229 -2.7471  0.8088
  712SOL    HW2 2847   1.911   0.605   0.100 -2.1895 -1.1121 -1.1048
  712SOL     MW 2848   1.906   0.550   0.028 -0.1977 -0.8035  0.3940
  713SOL     OW 2849   2.586   0.810   1.102 -0.2710 -0.2557 -0.1150
  713SOL    HW1 2850   2.616   0.743   1.168  1.7867 -3.5479  0.5434
  713SOL    HW2 2851   2.510   0.851   1.144 -0.2749 -2.1408 -0.3983
  713SOL     MW 2852   2.580   0.806   1.116  0.0000 -0.9388 -0.0656
  714SOL     OW 2853   2.203   0.226   1.979  0.0630 -0.1855  0.5766
  714SOL    HW1 2854   2.235   0.196   2.067 -2.8913  2.9088 -0.3485
  714SOL    HW2 2855   2.263   0.172   1.922  2.4376 -0.0285 -1.0152
  714SOL     MW 2856   2.215   0.215   1.983 -0.0135  0.2435  0.2445
  715SOL     OW 2857   1.727   1.944   1.672  0.2268  0.4628 -0.1521
  715SOL    HW1 2858   1.807   1.909   1.631 -1.3989 -1.3969  4.4909
  715SOL    HW2 2859   1.679   1.863   1.699 -0.2562 -0.5800 -2.3678
  715SOL     MW 2860   1.731   1.929   1.670 -0.0514  0.0799  0.1681
  716SOL     OW 2861   2.341   0.624   0.730 -0.2585  0.7113 -0.6265
  716SOL    HW1 2862   2.392   0.552   0.691 -0.5690  0.9240 -1.5396
  716SOL    HW2 2863   2.295   0.654   0.653 -0.4212  0.0922 -0.9394
  716SOL     MW 2864   2.342   0.619   0.715 -0.3209  0.6577 -0.7882
  717SOL     OW 2865   2.889   1.497   2.923  0.1405  0.7836  0.2278
  717SOL    HW1 2866   2.982   1.491   2.936 -0.3140 -0.8504 -0.3966
  717SOL    HW2 2867   2.864   1.566   2.988  1.3732  0.5144  1.8144
  717SOL     MW 2868   2.898   1.505   2.933  0.2432  0.5325  0.3547
  718SOL     OW 2869   2.602   1.369   1.353  0.5565  0.1376  0.1410
  718SOL    HW1 2870   2.616   1.408   1.434  1.5837  0.4188 -2.7505
  718SOL    HW2 2871   2.655   1.293   1.342  1.6206  1.9081  0.5417
  718SOL     MW 2872   2.611   1.365   1.362  0.8324  0.4083 -0.1876
  719SOL     OW 2873   2.234   1.350   0.617 -0.4525  0.2126 -0.0139
  719SOL    HW1 2874   2.331   1.348   0.599 -0.2594 -2.8698 -0.6021
  719SOL    HW2 2875   2.228   1.397   0.698  1.9694  0.4084  0.0631
  719SOL     MW 2876   2.246   1.356   0.625 -0.1075 -0.1682 -0.0814
  720SOL     OW 2877   2.892   1.151   0.082 -0.5962 -0.5445 -0.6048
  720SOL    HW1 2878   2.835   1.075   0.108 -1.3044 -0.9824  2.2483
  720SOL    HW2 2879   2.843   1.233   0.115 -2.0140  1.9929  0.2120
  720SOL     MW 2880   2.878   1.152   0.090 -0.8767 -0.2675 -0.1206
  721SOL     OW 2881   2.440   0.903   1.351 -0.4612 -0.4656  0.2661
  721SOL    HW1 2882   2.443   0.805   1.364 -2.1220 -0.9140  1.3258
  721SOL    HW2 2883   2.510   0.936   1.405  0.0823 -0.1439 -4.7889
  721SOL     MW 2884   2.450   0.894   1.360 -0.6086 -0.4823 -0.2611
  722SOL     OW 2885   2.580   1.145   0.371 -0.5206  0.2960 -0.2612
  722SOL    HW1 2886   2.524   1.202   0.421  0.0425  0.6098 -0.8695
  722SOL    HW2 2887   2.654   1.124   0.434  2.3147  1.2900  2.3906
  722SOL     MW 2888   2.582   1.150   0.386 -0.0722  0.4686  0.0084
  723SOL     OW 2889   2.261   1.413   1.626  0.0603 -0.1116  0.7035
  723SOL    HW1 2890   2.250   1.394   1.532 -1.1665  0.3514 -1.1985
  723SOL    HW2 2891   2.200   1.479   1.660  2.9371  2.3336  0.7066
  723SOL     MW 2892   2.252   1.419   1.618  0.2780  0.2721  0.4529
  724SOL     OW 2893   2.485   0.406   0.628 -0.4906 -0.3383  0.1261
  724SOL    HW1 2894   2.468   0.323   0.674 -0.6890  0.6717 -0.9506
  724SOL    HW2 2895   2.578   0.418   0.639 -0.0645 -0.0788  0.8830
  724SOL     MW 2896   2.495   0.397   0.636 -0.4606 -0.1708  0.0839
  725SOL     OW 2897   2.551   0.522   1.167  0.2854  0.3338  0.5795
  725SOL    HW1 2898   2.575   0.516   1.260  0.1809  3.0472 -3.4716
  725SOL    HW2 2899   2.463   0.493   1.173  0.7741  0.5515  2.0991
  725SOL     MW 2900   2.542   0.517   1.180  0.3361  0.7205  0.2455
  726SOL     OW 2901   2.584   2.458   0.541 -0.1138 -0.5268 -0.2832
  726SOL    HW1 2902   2.521   2.521   0.507  4.3781  1.1068 -0.8713
  726SOL    HW2 2903   2.539   2.384   0.575  1.0938  1.6349 -1.9900
  726SOL     MW 2904   2.570   2.457   0.541  0.6382 -0.0261 -0.5860
  727SOL     OW 2905   2.892   0.303   1.622 -0.2611  0.0704  0.6585
  727SOL    HW1 2906   2.886   0.291   1.530  1.3284 -0.7845 -0.2286
  727SOL    HW2 2907   2.811   0.285   1.668 -1.5541  2.0292 -1.8433
  727SOL     MW 2908   2.881   0.299   1.616 -0.2220  0.2161  0.2114
  728SOL     OW 2909   2.811   1.134   2.915 -0.5280  0.2273 -0.3859
  728SOL    HW1 2910   2.801   1.220   2.874  2.0605 -0.7402 -0.3399
  728SOL    HW2 2911   2.821   1.165   3.004  1.5399  0.8729 -0.6001
  728SOL     MW 2912   2.811   1.150   2.921  0.0864  0.1848 -0.4081
  729SOL     OW 2913   2.554   1.552   1.086  0.1021  0.0096  0.5785
  729SOL    HW1 2914   2.603   1.480   1.126  2.9746  2.4866  0.9816
  729SOL    HW2 2915   2.575   1.550   0.985 -1.9244 -2.3139  1.6895
  729SOL     MW 2916   2.563   1.542   1.078  0.2137  0.0298  0.7783
  730SOL     OW 2917   2.143   1.179   0.235 -0.1643  0.2713  0.2184
  730SOL    HW1 2918   2.233   1.156   0.226  2.2406  1.7763 -2.4392
  730SOL    HW2 2919   2.135   1.275   0.247  0.2493 -0.6955 -0.8120
  730SOL     MW 2920   2.154   1.189   0.235  0.2076  0.3423 -0.2682
  731SOL     OW 2921   2.862   1.898   2.880  0.2111 -0.1366  0.4728
  731SOL    HW1 2922   2.773   1.923   2.832 -2.9580 -0.1908 -2.5865
  731SOL    HW2 2923   2.920   1.979   2.875  1.6343 -0.7885  0.2638
  731SOL     MW 2924   2.858   1.912   2.873 -0.0193 -0.2298  0.0416
  732SOL     OW 2925   2.173   0.933   1.383 -0.4596  0.4597 -0.3225
  732SOL    HW1 2926   2.144   0.926   1.473  0.9480 -1.8252  0.0707
  732SOL    HW2 2927   2.266   0.917   1.388  1.4900  1.1418  3.0478
  732SOL     MW 2928   2.182   0.930   1.395 -0.0166  0.2482  0.1741
  733SOL     OW 2929   2.330   2.807   3.015 -0.0123  0.0760  0.8400
  733SOL    HW1 2930   2.246   2.847   3.035  1.2407 -1.1106 -0.3546
  733SOL    HW2 2931   2.322   2.711   3.038 -1.4751 -0.6391 -0.1254
  733SOL     MW 2932   2.318   2.800   3.021 -0.0400 -0.1749  0.5550
  734SOL     OW 2933   1.499   0.362   2.455  0.2655  0.2514  0.1655
  734SOL    HW1 2934   1.471   0.337   2.542 -0.5095  1.9555  2.6308
  734SOL    HW2 2935   1.541   0.280   2.412 -0.7528 -0.0557 -2.9341
  734SOL     MW 2936   1.501   0.348   2.461  0.0289  0.4358  0.0818
  735SOL     OW 2937   2.946   0.943   2.588 -0.1497 -0.3272 -0.1440
  735SOL    HW1 2938   2.960   0.844   2.584 -0.8952  1.3434 -2.7682
  735SOL    HW2 2939   2.982   0.973   2.670  1.3739 -0.7741 -0.2157
  735SOL     MW 2940   2.952   0.934   2.599 -0.0470 -0.1658 -0.4997
  736SOL     OW 2941   0.131   0.580   2.552  0.3004 -0.1835 -0.0591
  736SOL    HW1 2942   0.163   0.650   2.493  1.4086  3.1902 -0.9849
  736SOL    HW2 2943   0.097   0.512   2.491  1.1148 -1.0391  0.5337
  736SOL     MW 2944   0.130   0.581   2.536  0.5540  0.1487 -0.1030
  737SOL     OW 2945   2.931   0.671   2.615  0.2923  0.3632 -0.6214
  737SOL    HW1 2946   2.875   0.634   2.546  0.1966 -0.6199 -0.3501
  737SOL    HW2 2947   3.017   0.632   2.599  1.9514  2.3575  0.6531
  737SOL     MW 2948   2.935   0.661   2.604  0.4985  0.4966 -0.4175
  738SOL     OW 2949   0.220   0.553   1.902 -0.0875  0.8555 -0.2256
  738SOL    HW1 2950   0.304   0.595   1.914 -1.8243 -0.6495  1.5234
  738SOL    HW2 2951   0.248   0.467   1.867  2.6062 -2.1456  0.9382
  738SOL     MW 2952   0.234   0.547   1.899  0.0387  0.2610  0.1587
  739SOL     OW 2953   2.428   1.043   2.129 -0.4993  0.1821  0.1367
  739SOL    HW1 2954   2.418   0.956   2.096 -3.0016 -0.2036 -0.0410
  739SOL    HW2 2955   2.464   1.093   2.055  3.2428 -0.4051  1.4749
  739SOL     MW 2956   2.432   1.038   2.115 -0.3357  0.0537  0.2898
  740SOL     OW 2957   0.181   1.778   2.988  0.2007 -0.2182  0.2591
  740SOL    HW1 2958   0.137   1.691   2.983  2.1204 -1.7974  0.1459
  740SOL    HW2 2959   0.265   1.740   3.012  0.4877 -1.2816 -0.9814
  740SOL     MW 2960   0.187   1.762   2.990  0.4919 -0.5668  0.0805
  741SOL     OW 2961   2.264   1.295   2.697  0.2156 -0.3789 -0.0841
  741SOL    HW1 2962   2.188   1.319   2.646 -1.1086 -0.2059  0.2660
  741SOL    HW2 2963   2.244   1.331   2.784 -1.4629  1.8304 -0.6420
  741SOL     MW 2964   2.252   1.303   2.702 -0.1806 -0.0645 -0.1115
  742SOL     OW 2965   1.570   1.291   2.227 -0.1129 -0.6967 -0.0386
  742SOL    HW1 2966   1.538   1.204   2.199  2.1525 -2.1102 -0.0445
  742SOL    HW2 2967   1.580   1.275   2.322  3.1167 -0.3957  1.7641
  742SOL     MW 2968   1.567   1.278   2.236  0.6121 -0.8435  0.1984
  743SOL     OW 2969   2.537   1.258   2.802 -0.0800  0.5510  0.1797
  743SOL    HW1 2970   2.456   1.281   2.749 -1.2611  1.6367  0.0452
  743SOL    HW2 2971   2.542   1.169   2.812  1.4699 -1.7694 -0.3040
  743SOL     MW 2972   2.527   1.250   2.797 -0.0313  0.3881  0.0982
  744SOL     OW 2973   2.745   0.996   1.777  0.0925 -0.6399  0.0849
  744SOL    HW1 2974   2.691   1.073   1.812  0.9139  1.7602  1.1238
  744SOL    HW2 2975   2.721   0.990   1.681 -0.3855 -0.8781  0.4180
  744SOL     MW 2976   2.735   1.005   1.769  0.1378 -0.3547  0.2659
  745SOL     OW 2977   1.783   0.419   2.501 -0.3723 -0.3018  0.5487
  745SOL    HW1 2978   1.794   0.437   2.404  2.2624  2.2865  0.6221
  745SOL    HW2 2979   1.689   0.399   2.508  0.9301  1.7105 -3.2917
  745SOL     MW 2980   1.772   0.418   2.489  0.1472  0.3052  0.0517
  746SOL     OW 2981   1.482   1.438   1.692 -0.3599 -0.2737 -0.7384
  746SOL    HW1 2982   1.539   1.510   1.716  0.5238 -1.3443 -1.4529
  746SOL    HW2 2983   1.508   1.368   1.751 -1.8632 -1.4959  0.7162
  746SOL     MW 2984   1.493   1.438   1.703 -0.4417 -0.5762 -0.6408
  747SOL     OW 2985   2.565   1.149   1.888 -0.6702  0.3102 -0.1529
  747SOL    HW1 2986   2.479   1.154   1.850  2.6118  0.5301 -1.7000
  747SOL    HW2 2987   2.585   1.241   1.914 -0.5680  0.5384 -2.2099
  747SOL     MW 2988   2.557   1.162   1.886 -0.2237  0.3693 -0.6284
  748SOL     OW 2989   0.092   0.024   1.865 -0.0530  0.9045 -0.4165
  748SOL    HW1 2990   0.183   0.041   1.863 -0.3197  0.2424 -1.0736
  748SOL    HW2 2991   0.048   0.091   1.921 -0.7300  2.4550  1.3752
  748SOL     MW 2992   0.098   0.035   1.872 -0.1775  1.0217 -0.2668
  749SOL     OW 2993   2.404   0.529   2.773  0.5944 -0.1753  0.1200
  749SOL    HW1 2994   2.425   0.619   2.763  0.6209  0.3349  2.8169
  749SOL    HW2 2995   2.419   0.522   2.867 -0.5892 -0.2544  4.7450
  749SOL     MW 2996   2.409   0.540   2.784  0.4418 -0.1184  1.0861
  750SOL     OW 2997   2.044   3.091   1.956  0.4957  0.6406 -0.3832
  750SOL    HW1 2998   2.106   3.161   1.942 -0.5746  0.0984  1.1670
  750SOL    HW2 2999   2.096   3.013   1.958 -0.9241 -3.1911  1.7504
  750SOL     MW 3000   2.059   3.090   1.954  0.1672  0.0635  0.1028
  751SOL     OW 3001   0.022   0.438   2.347 -0.2367 -0.2420 -0.8803
  751SOL    HW1 3002  -0.035   0.366   2.330  2.4165  0.5371 -0.1481
  751SOL    HW2 3003   0.106   0.416   2.299  1.2961 -0.4508 -3.0653
  751SOL     MW 3004   0.025   0.425   2.338  0.3156 -0.1668 -1.0720
  752SOL     OW 3005   2.132   0.864   2.720  0.3636 -0.0238 -0.6912
  752SOL    HW1 3006   2.193   0.925   2.680  1.5754 -1.4881 -1.0872
  752SOL    HW2 3007   2.118   0.897   2.809  0.3800 -1.1202 -0.2814
  752SOL     MW 3008   2.139   0.877   2.726  0.5257 -0.3616 -0.6894
  753SOL     OW 3009   2.861   0.327   2.328 -0.0367 -0.6424 -0.4932
  753SOL    HW1 3010   2.804   0.250   2.313  0.5929 -0.6348 -2.5712
  753SOL    HW2 3011   2.809   0.399   2.369  3.6061  0.2509  1.1864
  753SOL     MW 3012   2.847   0.326   2.332  0.5270 -0.5235 -0.5457
  754SOL     OW 3013   2.216   3.021   2.663  0.1665  0.2463  0.2140
  754SOL    HW1 3014   2.225   3.003   2.568 -0.0559  1.4069  1.5054
  754SOL    HW2 3015   2.283   2.964   2.705 -1.0376  2.1764 -1.4023
  754SOL     MW 3016   2.226   3.011   2.656 -0.0217  0.6541  0.1712
  755SOL     OW 3017   2.765   1.571   2.490  0.1607 -0.3978 -0.1024
  755SOL    HW1 3018   2.768   1.476   2.492  1.7106  0.1437  0.0187
  755SOL    HW2 3019   2.769   1.605   2.577 -1.3953 -1.6704 -1.4081
  755SOL     MW 3020   2.766   1.563   2.502  0.1599 -0.4942 -0.2587
  756SOL     OW 3021   2.258   1.291   3.007  0.1958  0.1174 -0.4261
  756SOL    HW1 3022   2.326   1.357   3.005 -2.1121 -0.1118  3.9000
  756SOL    HW2 3023   2.297   1.203   3.008 -1.3906 -0.2806 -0.8786
  756SOL     MW 3024   2.272   1.288   3.007 -0.3180  0.0346  0.0850
  757SOL     OW 3025   2.127   0.957   1.658 -0.0670 -0.0372  0.7488
  757SOL    HW1 3026   2.161   0.866   1.652 -0.4106  0.6932 -0.5448
  757SOL    HW2 3027   2.035   0.951   1.630 -0.4711 -1.3958  3.8627
  757SOL     MW 3028   2.120   0.944   1.654 -0.1656 -0.1201  0.9889
  758SOL     OW 3029   2.233   1.775   2.688 -0.2365 -0.4491 -0.2501
  758SOL    HW1 3030   2.188   1.796   2.606 -0.1960 -3.1516 -0.0459
  758SOL    HW2 3031   2.331   1.762   2.663  0.8785 -0.0440  3.5598
  758SOL     MW 3032   2.240   1.776   2.674 -0.0840 -0.7522  0.2795
  759SOL     OW 3033   1.558   1.331   2.726  0.0504 -0.9081 -0.2694
  759SOL    HW1 3034   1.587   1.416   2.685  0.5289  1.2425 -2.2164
  759SOL    HW2 3035   1.644   1.304   2.756 -2.4372  1.1955  2.1015
  759SOL     MW 3036   1.573   1.339   2.724 -0.2147 -0.3468 -0.2135
  760SOL     OW 3037   2.643   1.945   2.706 -0.9596 -0.2362  0.3270
  760SOL    HW1 3038   2.593   1.865   2.684 -3.8013 -3.0177 -2.5207
  760SOL    HW2 3039   2.718   1.951   2.646 -1.3427 -3.2169 -1.8364
  760SOL     MW 3040   2.647   1.935   2.695 -1.3851 -0.9964 -0.3342
  761SOL     OW 3041   2.105   0.443   2.453  0.1233  0.5501  0.2891
  761SOL    HW1 3042   2.038   0.379   2.495 -1.1002 -1.2693  3.0703
  761SOL    HW2 3043   2.133   0.496   2.534 -0.7940 -2.6116  2.5495
  761SOL     MW 3044   2.100   0.442   2.469 -0.1592 -0.1071  0.9543
  762SOL     OW 3045   3.083   0.183   2.048  0.2754 -0.0055 -0.7239
  762SOL    HW1 3046   3.094   0.145   2.136  0.1991  1.0656  1.6330
  762SOL    HW2 3047   3.047   0.273   2.061 -0.5597  0.7439  1.2926
  762SOL     MW 3048   3.080   0.190   2.061  0.1552  0.2347 -0.1469
  763SOL     OW 3049   2.381   1.143   2.376 -0.2351 -0.0126 -0.1951
  763SOL    HW1 3050   2.413   1.101   2.293 -0.7908 -2.4318 -0.5546
  763SOL    HW2 3051   2.458   1.197   2.396 -1.2930  0.7480  0.6041
  763SOL     MW 3052   2.395   1.145   2.367 -0.4480 -0.2314 -0.1371
  764SOL     OW 3053   0.338   0.183   2.829  0.4308  0.0222 -0.0927
  764SOL    HW1 3054   0.268   0.204   2.770 -0.0108 -0.7489  1.2537
  764SOL    HW2 3055   0.342   0.257   2.896 -0.1185  0.3156  0.8840
  764SOL     MW 3056   0.329   0.195   2.830  0.3001 -0.0408  0.2138
  765SOL     OW 3057   2.686   0.117   2.304 -0.0669 -0.1727 -0.1537
  765SOL    HW1 3058   2.645   0.122   2.219  0.1702 -0.8653 -2.2019
  765SOL    HW2 3059   2.739   0.038   2.304 -1.6566  0.0728  1.2493
  765SOL     MW 3060   2.688   0.107   2.293 -0.2454 -0.2317 -0.2388
  766SOL     OW 3061   1.846   3.023   2.151  0.3232  0.0101 -0.3434
  766SOL    HW1 3062   1.892   3.076   2.083 -1.8307  2.4143  1.2860
  766SOL    HW2 3063   1.795   2.957   2.101  0.6616 -0.5247  0.1825
  766SOL     MW 3064   1.846   3.021   2.135  0.0837  0.2567 -0.0590
  767SOL     OW 3065   2.680   0.622   1.868 -0.0939  0.6752  0.5298
  767SOL    HW1 3066   2.731   0.677   1.922 -1.2124  1.7735 -1.1533
  767SOL    HW2 3067   2.586   0.628   1.893  1.4532  2.1408 -0.1515
  767SOL     MW 3068   2.675   0.630   1.878 -0.0374  1.0135  0.2179
  768SOL     OW 3069   0.061   1.548   2.951  0.0835  0.3762  0.1792
  768SOL    HW1 3070   0.088   1.515   3.038 -2.6188  0.9038  1.3246
  768SOL    HW2 3071   0.081   1.477   2.887 -0.6159  2.1945  0.0799
  768SOL     MW 3072   0.067   1.534   2.954 -0.3653  0.6857  0.3173
  769SOL     OW 3073   2.371   0.649   2.365 -0.5800  0.4085 -0.3496
  769SOL    HW1 3074   2.287   0.632   2.322  2.1081  0.1913 -0.1951
  769SOL    HW2 3075   2.436   0.612   2.305 -0.5006  0.0792 -0.1746
  769SOL     MW 3076   2.369   0.642   2.351 -0.2149  0.3364 -0.3061
  770SOL     OW 3077   0.005   1.648   2.577 -0.0120  0.1129  0.2860
  770SOL    HW1 3078  -0.088   1.641   2.601  1.2309  0.6991  1.6791
  770SOL    HW2 3079   0.039   1.555   2.579 -0.3849  0.6974  1.5571
  770SOL     MW 3080  -0.003   1.635   2.580  0.1028  0.2674  0.6375
  771SOL     OW 3081   3.079   0.637   1.950  0.0257  0.4247 -0.4270
  771SOL    HW1 3082   3.043   0.609   1.859  0.6496 -4.2869 -0.1014
  771SOL    HW2 3083   3.165   0.603   1.947 -2.5757  0.9487  2.5254
  771SOL     MW 3084   3.086   0.629   1.938 -0.2352 -0.1278  0.0055
  772SOL     OW 3085   3.100   0.048   2.283 -0.1705 -0.0325 -0.0400
  772SOL    HW1 3086   3.022   0.007   2.327 -2.8968 -1.0618  1.4407
  772SOL    HW2 3087   3.154  -0.030   2.263 -0.1355 -0.4658 -0.3569
  772SOL     MW 3088   3.097   0.033   2.287 -0.5256 -0.2255  0.1136
  773SOL     OW 3089   2.424   2.856   2.774  0.4039 -0.7168 -0.1655
  773SOL    HW1 3090   2.419   2.777   2.719 -0.5610 -1.7254 -1.5612
  773SOL    HW2 3091   2.387   2.843   2.863  4.4981 -0.7581  0.4270
  773SOL     MW 3092   2.419   2.844   2.778  0.8168 -0.8554 -0.2715
  774SOL     OW 3093   2.293   1.170   1.753 -0.4039 -0.1386 -0.6356
  774SOL    HW1 3094   2.276   1.250   1.697 -2.9584 -0.9259 -4.4512
  774SOL    HW2 3095   2.239   1.098   1.718  0.2912  2.9511  1.0001
  774SOL     MW 3096   2.283   1.171   1.741 -0.6493  0.1652 -0.9232
  775SOL     OW 3097   2.252   3.004   2.388 -0.6691  0.2991  0.8454
  775SOL    HW1 3098   2.266   3.079   2.330  1.6407 -1.7590  0.9848
  775SOL    HW2 3099   2.333   2.955   2.376 -1.0679  1.9247 -1.7899
  775SOL     MW 3100   2.264   3.007   2.378 -0.4170  0.2420  0.5161
  776SOL     OW 3101   0.138   1.476   0.108 -0.0264 -0.2987  0.8334
  776SOL    HW1 3102   0.229   1.447   0.124  0.0947 -2.9168  1.7023
  776SOL    HW2 3103   0.087   1.410   0.156 -0.1868 -3.1400  0.6236
  776SOL     MW 3104   0.143   1.464   0.117 -0.0316 -1.0190  0.9204
  777SOL     OW 3105   2.992   1.073   1.721  0.0921 -0.0890  0.0683
  777SOL    HW1 3106   2.955   1.143   1.668 -1.3988  0.6805 -0.5582
  777SOL    HW2 3107   2.905   1.028   1.742 -1.4662 -2.9981  0.1337
  777SOL     MW 3108   2.975   1.076   1.717 -0.3102 -0.3713 -0.0057
  778SOL     OW 3109   2.823   0.458   2.752  0.0210 -0.4158  0.4673
  778SOL    HW1 3110   2.781   0.494   2.829  1.8551  0.2305  0.6510
  778SOL    HW2 3111   2.855   0.540   2.717 -1.0416  0.9390 -3.2228
  778SOL     MW 3112   2.822   0.474   2.758  0.1228 -0.1517  0.0046
  779SOL     OW 3113   2.115   0.551   2.185 -0.8620 -0.0960  0.0251
  779SOL    HW1 3114   2.080   0.639   2.184  1.0150 -2.2471 -2.1849
  779SOL    HW2 3115   2.104   0.522   2.271  0.6310  1.3803  1.0495
  779SOL     MW 3116   2.109   0.559   2.197 -0.4174 -0.1851 -0.1313
  780SOL     OW 3117   0.102   0.248   2.695  0.7598 -0.6261  0.6313
  780SOL    HW1 3118   0.106   0.330   2.749 -0.1160 -0.6079 -0.3817
  780SOL    HW2 3119   0.005   0.251   2.673 -0.3201 -0.7554 -5.1185
  780SOL     MW 3120   0.090   0.259   2.699  0.5018 -0.6408 -0.2610
  781SOL     OW 3121   3.041   1.309   2.511 -0.2345  0.3436  0.2457
  781SOL    HW1 3122   3.030   1.364   2.432 -0.5205 -1.6271 -0.7998
  781SOL    HW2 3123   3.068   1.226   2.473 -1.5537  0.7720  0.1270
  781SOL     MW 3124   3.043   1.305   2.496 -0.4463  0.1401  0.0921
  782SOL     OW 3125   0.683   1.532   3.084  0.6425 -0.8315  0.2395
  782SOL    HW1 3126   0.621   1.597   3.055  1.9541  0.3369  1.2671
  782SOL    HW2 3127   0.660   1.519   3.173 -1.3388  0.5922  2.5964
  782SOL     MW 3128   0.672   1.539   3.092  0.5542 -0.4895  0.6860
  783SOL     OW 3129   2.716   0.537   2.432 -0.1419 -0.5292  0.1947
  783SOL    HW1 3130   2.652   0.570   2.368 -0.5761 -1.2933  1.6204
  783SOL    HW2 3131   2.661   0.490   2.501  0.3570  0.9039 -0.0400
  783SOL     MW 3132   2.700   0.535   2.433 -0.1334 -0.4410  0.3518
  784SOL     OW 3133   0.163   0.828   2.788  0.3328 -0.0343 -0.5478
  784SOL    HW1 3134   0.094   0.884   2.820  2.2921 -1.7687 -1.5607
  784SOL    HW2 3135   0.236   0.889   2.754 -0.5885  1.8675 -0.2747
  784SOL     MW 3136   0.163   0.844   2.788  0.4698 -0.0122 -0.6454
  785SOL     OW 3137   0.430   0.508   2.178 -0.3959  0.3587 -0.2961
  785SOL    HW1 3138   0.453   0.528   2.088  2.1982 -2.6928  0.1948
  785SOL    HW2 3139   0.345   0.461   2.168 -0.0361 -0.4198  1.3339
  785SOL     MW 3140   0.422   0.504   2.165 -0.0062 -0.1467 -0.0163
  786SOL     OW 3141   1.979   0.300   2.934  0.0902  0.2095 -0.5208
  786SOL    HW1 3142   1.957   0.382   2.985  1.7069 -1.9392 -0.0241
  786SOL    HW2 3143   2.006   0.311   2.843 -2.7196 -1.7232 -0.0020
  786SOL     MW 3144   1.980   0.313   2.929 -0.0672 -0.3290 -0.3868
  787SOL     OW 3145   2.441   0.176   2.904 -0.7670  0.7827 -0.0490
  787SOL    HW1 3146   2.500   0.098   2.872  1.9442 -0.7807 -1.9975
  787SOL    HW2 3147   2.484   0.216   2.976 -0.8156  1.9790 -3.0190
  787SOL     MW 3148   2.455   0.171   2.909 -0.4157  0.7343 -0.6980
  788SOL     OW 3149   2.852   2.996   2.338  0.7449 -0.5239 -0.1382
  788SOL    HW1 3150   2.790   2.970   2.409 -0.2320 -0.3664  3.1825
  788SOL    HW2 3151   2.912   2.918   2.309 -0.9163 -1.9485 -1.6782
  788SOL     MW 3152   2.852   2.983   2.343  0.3968 -0.6911  0.0967
  789SOL     OW 3153   0.092   0.163   3.057 -0.1199 -0.0764 -0.0315
  789SOL    HW1 3154   0.012   0.116   3.094 -1.8331 -1.0567  1.9024
  789SOL    HW2 3155   0.065   0.211   2.980  1.9094  1.2508  0.6803
  789SOL     MW 3156   0.078   0.163   3.052 -0.0782 -0.0306  0.3176
  790SOL     OW 3157   0.015   1.070   2.383 -0.1662  0.0365  0.6215
  790SOL    HW1 3158  -0.052   1.014   2.418 -1.8979 -2.5130 -1.2154
  790SOL    HW2 3159  -0.023   1.088   2.297 -1.6998 -0.3642  0.4281
  790SOL     MW 3160   0.001   1.065   2.376 -0.5970 -0.3528  0.3536
  791SOL     OW 3161   2.600   0.392   2.616 -0.1447 -0.1457  0.0340
  791SOL    HW1 3162   2.525   0.416   2.662  0.3937 -0.9360 -0.3773
  791SOL    HW2 3163   2.673   0.411   2.682  1.6558  0.4198  0.7083
  791SOL     MW 3164   2.600   0.397   2.631  0.1639 -0.1754  0.0687
  792SOL     OW 3165   2.353   0.328   2.412 -0.1633  0.6542  0.1361
  792SOL    HW1 3166   2.275   0.377   2.430  0.7504 -1.7948 -4.8237
  792SOL    HW2 3167   2.371   0.271   2.485 -1.7547 -1.3416 -3.6748
  792SOL     MW 3168   2.345   0.327   2.424 -0.2527  0.0678 -1.0211
  793SOL     OW 3169   1.916   1.156   1.943 -0.5228 -0.3427 -0.0189
  793SOL    HW1 3170   1.855   1.156   1.860 -1.4752  1.5789  0.3072
  793SOL    HW2 3171   1.963   1.072   1.934 -2.2040 -2.0390 -1.4825
  793SOL     MW 3172   1.914   1.145   1.931 -0.8703 -0.3130 -0.1690
  794SOL     OW 3173   1.415   2.308   0.139  0.5282 -0.0275  0.3397
  794SOL    HW1 3174   1.457   2.331   0.062  0.5554 -1.5935  2.3008
  794SOL    HW2 3175   1.471   2.337   0.210 -0.5190 -1.5285 -0.9162
  794SOL     MW 3176   1.428   2.315   0.138  0.3936 -0.4322  0.4327
  795SOL     OW 3177   2.348   1.031   2.619 -0.4818 -0.3166  0.6269
  795SOL    HW1 3178   2.328   1.120   2.668  0.4957  1.3551  0.2905
  795SOL    HW2 3179   2.366   1.052   2.526 -1.6998 -1.6771 -2.2483
  795SOL     MW 3180   2.348   1.045   2.613 -0.5135 -0.2755  0.2032
  796SOL     OW 3181   0.303   0.573   2.792  0.1405  0.0305  0.1174
  796SOL    HW1 3182   0.261   0.664   2.789  2.9363  3.2136 -0.4163
  796SOL    HW2 3183   0.256   0.522   2.726  0.7672 -0.0121  2.8856
  796SOL     MW 3184   0.292   0.578   2.783  0.5920  0.4449  0.4122
  797SOL     OW 3185   2.638   0.135   2.600 -0.4479  0.4591 -0.1318
  797SOL    HW1 3186   2.608   0.223   2.608  0.1305  1.8346  0.3603
  797SOL    HW2 3187   2.649   0.106   2.517 -0.4440  2.5999  0.3458
  797SOL     MW 3188   2.635   0.142   2.590 -0.3710  0.9230 -0.0039
  798SOL     OW 3189   2.296   0.135   2.221  0.2802  0.1138  0.1282
  798SOL    HW1 3190   2.333   0.209   2.272  1.9788  2.7394 -1.6410
  798SOL    HW2 3191   2.375   0.103   2.169  0.4200 -0.1788 -3.2038
  798SOL     MW 3192   2.311   0.141   2.221  0.5227  0.4216 -0.5448
  799SOL     OW 3193   2.546   2.932   0.006 -0.3135  0.0996 -0.5930
  799SOL    HW1 3194   2.470   2.891  -0.036  0.1066  1.0274 -2.7491
  799SOL    HW2 3195   2.535   3.020  -0.029 -1.4264 -2.7329 -2.0001
  799SOL     MW 3196   2.535   2.938  -0.004 -0.4049 -0.1517 -1.0631
  800SOL     OW 3197   1.976   3.095   1.680  0.1201 -0.2236  0.2155
  800SOL    HW1 3198   1.899   3.043   1.669 -0.6409  0.9228  1.9761
  800SOL    HW2 3199   1.990   3.101   1.771 -1.2163 -0.7506  0.3849
  800SOL     MW 3200   1.968   3.089   1.691 -0.1566 -0.1419  0.4702
  801SOL     OW 3201   2.801   1.285   2.652 -0.2349  0.1313  0.0762
  801SOL    HW1 3202   2.762   1.199   2.623 -0.5935  0.4127  0.5935
  801SOL    HW2 3203   2.887   1.277   2.610 -1.3933 -2.7470 -1.9672
  801SOL     MW 3204   2.807   1.273   2.643 -0.4350 -0.2113 -0.1251
  802SOL     OW 3205   2.614   1.522   2.768  0.4861  0.0278 -0.0240
  802SOL    HW1 3206   2.621   1.428   2.733  1.4458 -0.6995 -1.0821
  802SOL    HW2 3207   2.696   1.531   2.822  0.2604 -0.6861 -2.3944
  802SOL     MW 3208   2.626   1.511   2.770  0.5830 -0.1624 -0.4764
  803SOL     OW 3209   2.301   1.345   1.969  0.3167 -0.4503 -0.0516
  803SOL    HW1 3210   2.254   1.319   2.051 -0.2914  0.1155  2.7861
  803SOL    HW2 3211   2.293   1.274   1.901  2.1000 -0.9547 -0.4784
  803SOL     MW 3212   2.294   1.332   1.971  0.4718 -0.4422  0.2665
  804SOL     OW 3213   2.302   0.046   0.023 -0.0509 -0.3182 -0.3111
  804SOL    HW1 3214   2.243   0.127   0.040  1.9533 -1.5399 -0.2495
  804SOL    HW2 3215   2.357   0.087  -0.046 -1.7359 -1.8096 -2.9661
  804SOL     MW 3216   2.302   0.062   0.016 -0.0088 -0.6762 -0.6533
  805SOL     OW 3217   2.687   1.047   2.567 -0.2656  0.2060  0.3121
  805SOL    HW1 3218   2.642   0.970   2.531  1.4454  0.1728 -2.1878
  805SOL    HW2 3219   2.781   1.021   2.571 -2.2153 -1.7564  1.8494
  805SOL     MW 3220   2.693   1.034   2.563 -0.2971 -0.0573  0.1851
  806SOL     OW 3221   2.539   0.519   2.192 -0.2583 -1.2863  0.0027
  806SOL    HW1 3222   2.517   0.431   2.224  0.6130  0.7558  0.5085
  806SOL    HW2 3223   2.509   0.538   2.101  0.7040 -0.3626 -1.5550
  806SOL     MW 3224   2.532   0.510   2.184 -0.0164 -0.8950 -0.1361
  807SOL     OW 3225   0.020   1.174   1.986  0.3542 -0.2875 -0.2441
  807SOL    HW1 3226   0.037   1.096   1.931 -0.4768 -1.7264 -0.8958
  807SOL    HW2 3227  -0.037   1.153   2.053  1.1213  2.2221 -0.5668
  807SOL     MW 3228   0.015   1.161   1.988  0.3458 -0.1463 -0.3726
  808SOL     OW 3229   2.595   3.076   2.819 -0.5277 -0.5197 -0.3111
  808SOL    HW1 3230   2.534   2.999   2.795  1.0334 -0.5461  2.6490
  808SOL    HW2 3231   2.610   3.130   2.735 -1.1283  0.1586 -0.4479
  808SOL     MW 3232   2.589   3.073   2.804 -0.4009 -0.4337  0.0614
  809SOL     OW 3233   2.606   1.323   2.430 -0.3444 -0.3169 -0.1745
  809SOL    HW1 3234   2.665   1.313   2.508 -0.4816 -1.2042  0.7367
  809SOL    HW2 3235   2.652   1.297   2.352 -1.2041  0.1718  1.0413
  809SOL     MW 3236   2.620   1.319   2.430 -0.4759 -0.3695  0.1062
  810SOL     OW 3237   2.192   1.284   2.230 -0.3462 -0.2315  0.0298
  810SOL    HW1 3238   2.264   1.230   2.271  2.2870  0.1373  0.7331
  810SOL    HW2 3239   2.106   1.235   2.225 -0.6719 -0.4997  2.7309
  810SOL     MW 3240   2.190   1.270   2.235 -0.0418 -0.2182  0.4790
  811SOL     OW 3241   1.562   0.140   2.328 -0.0958  0.2744  0.3546
  811SOL    HW1 3242   1.626   0.081   2.369 -1.5769  0.6244 -1.6033
  811SOL    HW2 3243   1.557   0.111   2.235  1.3631 -2.1417  0.2760
  811SOL     MW 3244   1.570   0.128   2.321 -0.0988  0.0018  0.0859
  812SOL     OW 3245   1.471   2.854   2.048  0.3787  0.5714  1.0138
  812SOL    HW1 3246   1.559   2.848   2.019 -1.7308  0.4435 -0.3971
  812SOL    HW2 3247   1.481   2.818   2.135 -0.6092 -0.4862 -1.2639
  812SOL     MW 3248   1.484   2.848   2.055 -0.0300  0.4150  0.5271
  813SOL     OW 3249   1.878   0.733   2.208  0.3628  0.0265 -0.8212
  813SOL    HW1 3250   1.818   0.654   2.229 -3.2806  3.0511 -1.1889
  813SOL    HW2 3251   1.881   0.776   2.294 -0.5190 -0.4328  1.1251
  813SOL     MW 3252   1.870   0.728   2.222 -0.2342  0.3650 -0.6129
  814SOL     OW 3253   2.720   1.253   1.611  0.3350  0.1947 -0.8431
  814SOL    HW1 3254   2.652   1.184   1.604  0.6004  0.3101 -1.3247
  814SOL    HW2 3255   2.759   1.247   1.528 -2.4640 -1.4491  1.7612
  814SOL     MW 3256   2.716   1.243   1.599  0.0008 -0.0069 -0.5631
  815SOL     OW 3257   2.533   1.725   2.372 -0.8500 -0.4921 -0.5849
  815SOL    HW1 3258   2.471   1.657   2.361  3.4747  0.7099 -1.9670
  815SOL    HW2 3259   2.623   1.678   2.385  0.7776 -3.0758 -0.3655
  815SOL     MW 3260   2.537   1.709   2.372 -0.0647 -0.6744 -0.7383
  816SOL     OW 3261   0.773   0.668   2.761  0.3069 -0.4700 -0.1478
  816SOL    HW1 3262   0.770   0.580   2.792 -0.1465  0.9615  2.3363
  816SOL    HW2 3263   0.678   0.680   2.732  2.0134  0.1077 -2.1246
  816SOL     MW 3264   0.760   0.658   2.761  0.4722 -0.2049 -0.0809
  817SOL     OW 3265   3.033   1.238   1.487 -0.0510 -0.1956  0.3090
  817SOL    HW1 3266   3.122   1.208   1.507 -0.3236  0.5143 -1.9476
  817SOL    HW2 3267   3.054   1.329   1.461  0.0897 -2.7485 -0.0115
  817SOL     MW 3268   3.047   1.246   1.486 -0.0684 -0.4387 -0.0310
  818SOL     OW 3269   1.897   1.005   2.662  0.2293  0.4693 -0.4264
  818SOL    HW1 3270   1.876   0.951   2.587  2.0355  2.4644 -1.4835
  818SOL    HW2 3271   1.988   0.984   2.680 -1.0308 -0.9968  3.1701
  818SOL     MW 3272   1.906   0.995   2.654  0.3014  0.5391 -0.0913
  819SOL     OW 3273   1.917   0.179   2.457 -0.6328 -0.2642  0.0983
  819SOL    HW1 3274   1.863   0.248   2.476  0.8529 -3.1740 -0.0626
  819SOL    HW2 3275   1.972   0.183   2.534 -1.9265  0.9956  0.0194
  819SOL     MW 3276   1.917   0.189   2.470 -0.6075 -0.4819  0.0666
  820SOL     OW 3277   2.495   1.728   2.632 -0.5940  0.3794 -0.4511
  820SOL    HW1 3278   2.536   1.643   2.663 -1.4706 -0.4713  0.6831
  820SOL    HW2 3279   2.509   1.730   2.537  0.4146 -2.0280 -0.0546
  820SOL     MW 3280   2.502   1.717   2.624 -0.5766 -0.0505 -0.2492
  821SOL     OW 3281   2.577   1.431   2.013 -0.5379 -0.8308 -0.2604
  821SOL    HW1 3282   2.605   1.510   1.957  0.8368 -1.0789 -5.1125
  821SOL    HW2 3283   2.481   1.442   2.012  2.2456  0.8852 -0.3981
  821SOL     MW 3284   2.568   1.443   2.006  0.0108 -0.6372 -0.9188
  822SOL     OW 3285   2.719   2.633   1.400  0.0427 -0.2564  0.9583
  822SOL    HW1 3286   2.760   2.656   1.485  3.6550  0.9172  0.0693
  822SOL    HW2 3287   2.702   2.716   1.357 -0.5193  1.9061 -1.8703
  822SOL     MW 3288   2.722   2.647   1.406  0.4451  0.1838  0.4678
  823SOL     OW 3289   2.274   0.500   1.735 -0.6020  0.1555 -0.1606
  823SOL    HW1 3290   2.361   0.479   1.693 -0.0463 -2.8822  2.3614
  823SOL    HW2 3291   2.216   0.435   1.695  1.9003 -0.2969  0.7867
  823SOL     MW 3292   2.278   0.489   1.724 -0.1985 -0.3050  0.2971
  824SOL     OW 3293   2.078   1.418   2.533 -0.2496 -0.1437  0.9547
  824SOL    HW1 3294   2.155   1.454   2.490 -2.5242  0.5452 -2.1314
  824SOL    HW2 3295   2.049   1.493   2.586 -0.1425  0.5515 -0.2185
  824SOL     MW 3296   2.085   1.433   2.535 -0.5356  0.0389  0.3927
  825SOL     OW 3297   1.929   2.557   0.308  0.7188  0.0502 -0.2747
  825SOL    HW1 3298   1.927   2.503   0.386  1.8503  2.3538  1.9853
  825SOL    HW2 3299   2.007   2.533   0.259  1.5355  0.4484 -1.0505
  825SOL     MW 3300   1.939   2.547   0.312  0.9759  0.4067 -0.0789
  826SOL     OW 3301   1.896   2.357   0.516  0.2391 -0.0618 -0.5773
  826SOL    HW1 3302   1.862   2.268   0.545  0.0882 -1.5180 -1.3557
  826SOL    HW2 3303   1.848   2.420   0.570 -0.3030 -2.2129  1.8557
  826SOL     MW 3304   1.885   2.354   0.527  0.1476 -0.5377 -0.3590
  827SOL     OW 3305   1.937   2.211   0.952  0.0023  0.2189 -0.7397
  827SOL    HW1 3306   1.886   2.256   0.892  0.9751  1.0141 -0.7694
  827SOL    HW2 3307   1.888   2.137   0.993  0.2437  1.6011 -0.2841
  827SOL     MW 3308   1.924   2.207   0.949  0.1625  0.5062 -0.6835
  828SOL     OW 3309   0.074   2.601   0.603 -0.5653 -0.0244 -0.1939
  828SOL    HW1 3310   0.170   2.607   0.584 -1.0936 -0.3072 -4.5114
  828SOL    HW2 3311   0.040   2.661   0.537  0.0456 -2.8041  2.0544
  828SOL     MW 3312   0.082   2.610   0.592 -0.5544 -0.4285 -0.4669
  829SOL     OW 3313   2.930   2.947   1.172 -0.4792  0.2760  0.7754
  829SOL    HW1 3314   2.845   2.922   1.136  0.3619 -1.1865  0.0236
  829SOL    HW2 3315   2.983   2.866   1.169 -0.8803  0.0452  2.0542
  829SOL     MW 3316   2.926   2.933   1.167 -0.4212  0.0526  0.8450
  830SOL     OW 3317   2.511   2.855   2.047 -0.1699 -0.4145  0.5238
  830SOL    HW1 3318   2.431   2.848   1.995  0.6456 -0.1728  0.4471
  830SOL    HW2 3319   2.579   2.827   1.985  0.7923  0.3949 -2.3774
  830SOL     MW 3320   2.509   2.850   2.032  0.0647 -0.2758  0.1309
  831SOL     OW 3321   2.405   2.453   1.297  0.1319 -0.4007  0.2485
  831SOL    HW1 3322   2.358   2.398   1.366  0.8188 -1.5670 -0.6642
  831SOL    HW2 3323   2.480   2.399   1.268 -2.9628 -0.3004  0.3019
  831SOL     MW 3324   2.409   2.439   1.302 -0.1857 -0.5414  0.1351
  832SOL     OW 3325   2.399   2.182   1.906  0.8315 -0.1142 -0.1137
  832SOL    HW1 3326   2.432   2.275   1.919  0.8864 -0.5180  1.5511
  832SOL    HW2 3327   2.479   2.134   1.879  0.6337 -1.1132 -2.5395
  832SOL     MW 3328   2.414   2.188   1.904  0.8126 -0.2993 -0.2141
  833SOL     OW 3329   1.778   2.457   0.883  0.0308  0.2188  0.2903
  833SOL    HW1 3330   1.709   2.398   0.883  3.9998  2.0501 -1.6255
  833SOL    HW2 3331   1.753   2.504   0.971 -0.5179 -0.1570  0.2824
  833SOL     MW 3332   1.766   2.455   0.894  0.4821  0.4108  0.0365
  834SOL     OW 3333   2.176   2.475   0.575  0.7587  0.2644 -0.1511
  834SOL    HW1 3334   2.080   2.466   0.581 -0.9180  3.1222  2.0379
  834SOL    HW2 3335   2.207   2.453   0.494  0.6016 -0.5575  3.8667
  834SOL     MW 3336   2.167   2.471   0.565  0.5168  0.5330  0.6678
  835SOL     OW 3337   1.778   2.598   0.631  0.1536  0.1225  0.1124
  835SOL    HW1 3338   1.729   2.545   0.700 -0.6402  1.6983 -0.6948
  835SOL    HW2 3339   1.848   2.646   0.686  2.7015 -0.1418 -0.0285
  835SOL     MW 3340   1.780   2.597   0.647  0.3850  0.2955 -0.0127
  836SOL     OW 3341   1.935   2.188   1.597  0.5565  0.2241  0.1679
  836SOL    HW1 3342   1.989   2.156   1.668 -0.2750 -0.4355  1.5042
  836SOL    HW2 3343   1.870   2.249   1.635 -1.1670 -0.2679  1.0965
  836SOL     MW 3344   1.933   2.192   1.611  0.2194  0.0722  0.4667
  837SOL     OW 3345   2.122   0.193   0.717  0.2021 -0.1868  0.1377
  837SOL    HW1 3346   2.043   0.230   0.682 -0.7009 -0.5803 -0.5708
  837SOL    HW2 3347   2.141   0.119   0.666  0.7761  2.1120 -0.5664
  837SOL     MW 3348   2.114   0.188   0.705  0.1587  0.0646 -0.0487
  838SOL     OW 3349   2.943   2.153   0.915 -0.2407  0.1359 -0.4515
  838SOL    HW1 3350   2.871   2.104   0.962 -1.0355 -0.4041 -0.7614
  838SOL    HW2 3351   2.986   2.085   0.858 -0.3973  0.8330 -0.2704
  838SOL     MW 3352   2.939   2.138   0.914 -0.3662  0.1567 -0.4685
  839SOL     OW 3353   1.529   2.336   0.947  0.2340 -0.2602  0.2302
  839SOL    HW1 3354   1.526   2.418   0.990  1.7140 -0.3418 -1.8320
  839SOL    HW2 3355   1.536   2.264   1.013 -0.2449 -1.1709  0.7184
  839SOL     MW 3356   1.530   2.337   0.961  0.3661 -0.3911  0.0225
  840SOL     OW 3357   2.307   2.073   2.416 -0.3206  0.3851  0.0471
  840SOL    HW1 3358   2.287   2.141   2.352 -2.8377  0.1707 -3.4654
  840SOL    HW2 3359   2.349   2.129   2.486  0.0425 -0.0502  1.0607
  840SOL     MW 3360   2.310   2.089   2.416 -0.6048  0.2994 -0.2826
  841SOL     OW 3361   2.125   2.457   0.110  0.4729 -0.3465 -0.3093
  841SOL    HW1 3362   2.181   2.476   0.036 -0.3071 -0.5030  0.6643
  841SOL    HW2 3363   2.060   2.394   0.074 -0.4376 -1.3880  0.9520
  841SOL     MW 3364   2.124   2.451   0.095  0.2499 -0.5046 -0.0145
  842SOL     OW 3365   2.640   1.918   1.606  0.9825 -0.2145  0.1609
  842SOL    HW1 3366   2.573   1.849   1.596  1.2516 -3.1351  1.5833
  842SOL    HW2 3367   2.602   1.989   1.561 -0.0602 -1.2974 -0.6266
  842SOL     MW 3368   2.627   1.919   1.599  0.8804 -0.7427  0.2447
  843SOL     OW 3369   2.597   2.741   1.787  0.3960 -0.0563 -0.1771
  843SOL    HW1 3370   2.691   2.732   1.759  0.6867  0.1825 -0.3461
  843SOL    HW2 3371   2.552   2.659   1.766 -2.0745 -1.6641 -2.0372
  843SOL     MW 3372   2.604   2.729   1.780  0.1084 -0.2369 -0.4448
  844SOL     OW 3373   2.598   2.295   1.205  0.3519 -0.0920  0.1422
  844SOL    HW1 3374   2.634   2.329   1.124 -0.2548  1.9788 -2.5371
  844SOL    HW2 3375   2.666   2.317   1.268 -3.8122  0.2519 -0.8979
  844SOL     MW 3376   2.612   2.303   1.202 -0.2776  0.2266 -0.3485
  845SOL     OW 3377   2.857   2.471   0.298  0.2291 -0.1350  0.3512
  845SOL    HW1 3378   2.833   2.379   0.309 -3.4960 -0.2359  0.0627
  845SOL    HW2 3379   2.883   2.513   0.378  0.2292 -3.3911 -1.1057
  845SOL     MW 3380   2.857   2.464   0.310 -0.2624 -0.5779  0.1209
  846SOL     OW 3381   1.530   2.870   0.780  0.1076  0.4096 -0.1789
  846SOL    HW1 3382   1.609   2.896   0.835 -0.2856 -0.7860  3.1453
  846SOL    HW2 3383   1.453   2.900   0.819  0.0754 -1.5669 -2.4704
  846SOL     MW 3384   1.531   2.877   0.792  0.0514 -0.0089 -0.0426
  847SOL     OW 3385   2.548   1.926   0.163 -0.8961 -0.2743 -0.5912
  847SOL    HW1 3386   2.631   1.876   0.178  3.7520  0.7182  0.5692
  847SOL    HW2 3387   2.499   1.882   0.095 -0.3397 -1.0286  1.9396
  847SOL     MW 3388   2.553   1.914   0.156 -0.2094 -0.2429 -0.1042
  848SOL     OW 3389   2.535   2.096   1.403  0.3952 -0.4974  0.0266
  848SOL    HW1 3390   2.580   2.156   1.347 -1.1329  0.9124  0.9339
  848SOL    HW2 3391   2.506   2.025   1.349  0.8850 -2.0338  1.1911
  848SOL     MW 3392   2.537   2.094   1.389  0.2582 -0.5141  0.3000
  849SOL     OW 3393   1.975   2.741   0.779 -0.3533 -0.4643 -0.2670
  849SOL    HW1 3394   2.022   2.685   0.837  1.1175  2.4072  1.7159
  849SOL    HW2 3395   2.043   2.768   0.713 -0.8329 -2.3649 -0.4274
  849SOL     MW 3396   1.990   2.738   0.778 -0.2225 -0.3362 -0.0265
  850SOL     OW 3397   2.218   1.959   1.629 -0.3164  0.4219 -0.3740
  850SOL    HW1 3398   2.141   1.907   1.602 -1.1633  0.1622 -2.0566
  850SOL    HW2 3399   2.193   2.035   1.679  0.8634 -1.1118  3.8508
  850SOL     MW 3400   2.204   1.962   1.632 -0.2725  0.1853 -0.0386
  851SOL     OW 3401   2.278   2.407   0.323  0.1772 -0.3097 -0.0034
  851SOL    HW1 3402   2.234   2.423   0.240  2.5380 -1.1699  0.6604
  851SOL    HW2 3403   2.353   2.467   0.329 -4.2318  0.9259 -0.4638
  851SOL     MW 3404   2.282   2.417   0.313 -0.0931 -0.2602  0.0234
  852SOL     OW 3405   2.376   2.151   0.273 -0.1047  0.0776  0.4738
  852SOL    HW1 3406   2.320   2.228   0.287  0.5307 -1.6637 -3.0339
  852SOL    HW2 3407   2.463   2.193   0.268  4.1971  0.9908  1.9477
  852SOL     MW 3408   2.380   2.167   0.274  0.5467 -0.0317  0.2054
  853SOL     OW 3409   2.497   2.439   1.979  0.2320  0.3055  0.6358
  853SOL    HW1 3410   2.496   2.475   1.889 -0.0667  0.0845  0.1980
  853SOL    HW2 3411   2.582   2.430   2.013 -2.8374  1.1288 -0.3032
  853SOL     MW 3412   2.508   2.442   1.972 -0.2123  0.3850  0.4541
  854SOL     OW 3413   2.806   2.318   0.731  0.3421  0.6882  0.0083
  854SOL    HW1 3414   2.724   2.273   0.717 -0.6182  2.9631 -2.1876
  854SOL    HW2 3415   2.856   2.266   0.797  0.3209  1.5490  2.2410
  854SOL     MW 3416   2.802   2.305   0.738  0.2126  1.1019  0.0131
  855SOL     OW 3417   2.717   2.246   0.372 -0.1855 -0.2360  0.3298
  855SOL    HW1 3418   2.703   2.329   0.426 -1.2718  0.3735  1.6073
  855SOL    HW2 3419   2.795   2.195   0.390  1.0687 -2.2029  1.1690
  855SOL     MW 3420   2.725   2.250   0.382 -0.1633 -0.4151  0.6091
  856SOL     OW 3421   2.189   1.957   0.190 -0.0315 -0.1498 -0.0984
  856SOL    HW1 3422   2.105   1.958   0.232 -0.0316 -0.9663  0.2196
  856SOL    HW2 3423   2.252   2.019   0.227  0.6736 -0.6149  0.8620
  856SOL     MW 3424   2.186   1.965   0.200  0.0615 -0.3189  0.0703
  857SOL     OW 3425   2.597   1.971   0.475  0.6141  0.3284  0.4625
  857SOL    HW1 3426   2.623   2.051   0.420  0.9210  0.1169  1.6394
  857SOL    HW2 3427   2.522   1.927   0.418 -1.8410 -0.5895  0.4060
  857SOL     MW 3428   2.590   1.976   0.461  0.3306  0.1794  0.6103
  858SOL     OW 3429   2.841   2.649   1.696 -0.0207 -0.1489  0.2346
  858SOL    HW1 3430   2.934   2.675   1.700  0.7695 -0.1256  0.9903
  858SOL    HW2 3431   2.856   2.571   1.741  1.3023  1.0286  0.4921
  858SOL     MW 3432   2.855   2.642   1.702  0.2581  0.0095  0.3683
  859SOL     OW 3433   2.143   2.563   0.903  0.5758  0.3415  0.0389
  859SOL    HW1 3434   2.139   2.480   0.866  2.4137  0.2445  1.0901
  859SOL    HW2 3435   2.237   2.585   0.905 -1.5451  1.9997 -1.1884
  859SOL     MW 3436   2.155   2.555   0.898  0.5385  0.5475  0.0157
  860SOL     OW 3437   2.639   2.601   0.191  0.9444  0.1002 -0.2585
  860SOL    HW1 3438   2.711   2.556   0.230 -1.9766 -0.6082 -1.5368
  860SOL    HW2 3439   2.666   2.632   0.106 -1.9563  2.6093  2.2043
  860SOL     MW 3440   2.652   2.599   0.185  0.1763  0.3378 -0.1022
  861SOL     OW 3441   1.540   2.132   1.151  0.0943  0.1713  0.0501
  861SOL    HW1 3442   1.557   2.209   1.205 -2.3947  0.1488  1.9869
  861SOL    HW2 3443   1.482   2.063   1.191 -2.0453  0.7016 -0.2366
  861SOL     MW 3444   1.535   2.133   1.163 -0.5164  0.2383  0.2678
  862SOL     OW 3445   2.420   1.777   1.538  0.1044  0.2561 -0.3235
  862SOL    HW1 3446   2.353   1.817   1.590  1.8790 -0.3149  3.0284
  862SOL    HW2 3447   2.414   1.823   1.454  2.7256 -0.6690  0.9701
  862SOL     MW 3448   2.410   1.789   1.533  0.6844  0.0587  0.2895
  863SOL     OW 3449   3.052   1.874   1.068 -0.7262 -0.7533 -0.5477
  863SOL    HW1 3450   3.121   1.830   1.124 -0.5913  0.6132  1.9509
  863SOL    HW2 3451   3.008   1.940   1.121  0.7152  1.3832 -3.4537
  863SOL     MW 3452   3.055   1.877   1.083 -0.5183 -0.2911 -0.6014
  864SOL     OW 3453   3.102   1.932   0.798 -0.5822 -0.2255 -0.5658
  864SOL    HW1 3454   3.083   1.895   0.886  0.6264  2.3820  1.2054
  864SOL    HW2 3455   3.080   1.854   0.741  2.2233  1.2319  0.3193
  864SOL     MW 3456   3.097   1.917   0.802 -0.0526  0.3108 -0.2153
  865SOL     OW 3457   2.627   2.127   0.013 -0.1487 -0.2450  0.1441
  865SOL    HW1 3458   2.587   2.059   0.071  0.1219 -1.8407 -2.0149
  865SOL    HW2 3459   2.572   2.119  -0.066  1.3535  0.5812  0.5322
  865SOL     MW 3460   2.614   2.117   0.010  0.0852 -0.3465 -0.0896
  866SOL     OW 3461   2.676   2.307   1.647  0.1166  0.3581  0.4452
  866SOL    HW1 3462   2.662   2.221   1.691 -0.2827  1.9527  2.5309
  866SOL    HW2 3463   2.737   2.295   1.574 -0.8597  0.2647 -3.4780
  866SOL     MW 3464   2.682   2.294   1.643 -0.0649  0.5562  0.2028
  867SOL     OW 3465   0.014   2.666   1.787 -0.1265  0.5417  0.3452
  867SOL    HW1 3466   0.037   2.649   1.876  2.2104 -0.7179  1.4740
  867SOL    HW2 3467   0.017   2.762   1.781  1.9222  0.9605  0.2449
  867SOL     MW 3468   0.017   2.676   1.798  0.4521  0.4308  0.4809
  868SOL     OW 3469   2.823   2.607   0.556  0.2912  0.4985  0.3911
  868SOL    HW1 3470   2.739   2.562   0.556  0.1375  0.3379  3.0431
  868SOL    HW2 3471   2.814   2.695   0.510 -0.0902 -0.2775 -0.3686
  868SOL     MW 3472   2.811   2.613   0.550  0.2206  0.3749  0.6408
  869SOL     OW 3473   2.022   2.367   1.142  0.7598  0.3954  0.5663
  869SOL    HW1 3474   2.108   2.382   1.102  1.1674 -2.2740  0.0181
  869SOL    HW2 3475   1.982   2.315   1.067  1.1129 -2.2365  1.2907
  869SOL     MW 3476   2.028   2.362   1.127  0.8602 -0.3041  0.5895
  870SOL     OW 3477   2.158   3.091   0.477 -0.5160 -0.5007 -0.0600
  870SOL    HW1 3478   2.221   3.135   0.419  2.2488  2.4991 -0.6865
  870SOL    HW2 3479   2.195   3.005   0.501  2.7531 -1.2742  1.1064
  870SOL     MW 3480   2.171   3.086   0.473  0.2801 -0.2069  0.0112
  871SOL     OW 3481   2.497   2.112   0.947  0.0325 -0.0736 -0.1296
  871SOL    HW1 3482   2.445   2.040   0.908  1.8576  0.9859  1.6926
  871SOL    HW2 3483   2.440   2.151   1.014 -1.3300 -0.6758 -0.3091
  871SOL     MW 3484   2.483   2.108   0.951  0.0935 -0.0133  0.0872
  872SOL     OW 3485   2.053   2.569   1.492 -0.4082 -0.1306  0.2257
  872SOL    HW1 3486   2.019   2.587   1.583  1.9567 -0.2712  1.8680
  872SOL    HW2 3487   1.983   2.522   1.447  0.1473 -1.3988  0.9912
  872SOL     MW 3488   2.040   2.565   1.498 -0.0229 -0.3165  0.5434
  873SOL     OW 3489   2.925   2.029   1.899  0.5061  0.2332 -0.0811
  873SOL    HW1 3490   2.946   2.088   1.972  0.4244 -1.5803  2.5350
  873SOL    HW2 3491   2.978   2.044   1.826  1.2128 -0.4508  2.3872
  873SOL     MW 3492   2.935   2.038   1.899  0.5886 -0.0963  0.5897
  874SOL     OW 3493   2.320   1.512   2.377 -0.7632 -0.5520 -0.1273
  874SOL    HW1 3494   2.279   1.461   2.304 -1.5911  0.3468  2.0212
  874SOL    HW2 3495   2.396   1.471   2.417 -0.7415  1.4862  0.4032
  874SOL     MW 3496   2.324   1.499   2.373 -0.8695 -0.1645  0.2262
  875SOL     OW 3497   2.302   2.324   1.078  0.5271 -0.0128  0.1983
  875SOL    HW1 3498   2.328   2.398   1.021  2.8409 -0.4249 -1.3297
  875SOL    HW2 3499   2.317   2.353   1.168  2.2069 -0.5183 -1.2055
  875SOL     MW 3500   2.308   2.338   1.083  1.0540 -0.1339 -0.1885
  876SOL     OW 3501   3.042   2.331   1.231  0.0350  0.2012 -0.0135
  876SOL    HW1 3502   3.087   2.368   1.158  0.0041 -1.2336  0.1940
  876SOL    HW2 3503   3.100   2.360   1.307  0.5644 -1.9053  0.6265
  876SOL     MW 3504   3.055   2.340   1.232  0.1008 -0.2660  0.0983
  877SOL     OW 3505   3.038   2.704   0.333 -0.1430  0.0861 -0.3133
  877SOL    HW1 3506   3.087   2.779   0.307  2.1760 -2.0531 -1.1222
  877SOL    HW2 3507   3.052   2.637   0.263  0.8753 -1.4910  1.4853
  877SOL     MW 3508   3.046   2.705   0.320  0.2974 -0.4043 -0.1827
  878SOL     OW 3509   2.429   1.847   1.276 -0.7815 -0.0167 -0.3420
  878SOL    HW1 3510   2.353   1.791   1.270  1.6970 -1.9924 -2.8794
  878SOL    HW2 3511   2.504   1.794   1.260  1.6843  0.1302  1.1076
  878SOL     MW 3512   2.429   1.833   1.273 -0.1291 -0.2580 -0.4855
  879SOL     OW 3513   2.671   2.423   0.961 -0.2837 -0.6569 -0.2336
  879SOL    HW1 3514   2.736   2.485   0.996 -1.2522  1.5002 -0.0826
  879SOL    HW2 3515   2.700   2.387   0.878 -0.5292  0.0825  1.6109
  879SOL     MW 3516   2.683   2.426   0.955 -0.4439 -0.2748  0.0297
  880SOL     OW 3517   2.559   2.193   0.693  0.6493  0.1872  0.0534
  880SOL    HW1 3518   2.511   2.173   0.779 -0.9250  1.0958  4.0372
  880SOL    HW2 3519   2.559   2.113   0.634 -1.5319  0.0092 -3.3308
  880SOL     MW 3520   2.553   2.180   0.697  0.1538  0.2836  0.1325
  881SOL     OW 3521   2.940   2.683   0.787 -0.3659  0.7755  0.2801
  881SOL    HW1 3522   2.882   2.633   0.722 -0.6756  0.1118 -1.6846
  881SOL    HW2 3523   3.028   2.659   0.752 -0.4229 -1.3431 -0.5837
  881SOL     MW 3524   2.944   2.673   0.774 -0.4143  0.4084 -0.0931
  882SOL     OW 3525   2.265   2.884   1.922 -0.3558  0.0032  0.2762
  882SOL    HW1 3526   2.279   2.867   1.830 -0.8521 -1.2746 -0.0008
  882SOL    HW2 3527   2.207   2.818   1.950  1.4047 -0.2245 -2.0268
  882SOL     MW 3528   2.259   2.873   1.913 -0.1890 -0.1954 -0.0642
  883SOL     OW 3529   2.314   2.261   1.505 -0.2595 -0.0680 -0.0334
  883SOL    HW1 3530   2.367   2.182   1.504 -1.0945 -3.3253  2.2082
  883SOL    HW2 3531   2.236   2.223   1.464 -0.7777 -0.6115 -2.1745
  883SOL     MW 3532   2.310   2.246   1.499 -0.4380 -0.5695 -0.0202
  884SOL     OW 3533   1.956   1.846   1.143  0.0872 -0.1081 -0.3936
  884SOL    HW1 3534   1.889   1.915   1.134 -1.1945 -1.0904 -0.4087
  884SOL    HW2 3535   2.051   1.876   1.130  1.1677 -1.0389 -3.4494
  884SOL     MW 3536   1.960   1.859   1.140  0.0606 -0.3605 -0.7988
  885SOL     OW 3537   2.846   2.422   1.816  0.4176 -0.4718 -0.0949
  885SOL    HW1 3538   2.937   2.393   1.797  1.2958  0.1200 -0.5027
  885SOL    HW2 3539   2.783   2.383   1.749  0.7675  1.3601 -1.2399
  885SOL     MW 3540   2.850   2.413   1.804  0.5797 -0.1521 -0.2998
  886SOL     OW 3541   2.802   2.379   1.372 -0.0422 -0.4078  0.2485
  886SOL    HW1 3542   2.878   2.367   1.318  0.4006  0.4986  1.8540
  886SOL    HW2 3543   2.772   2.465   1.347 -0.2462 -1.0987  2.5726
  886SOL     MW 3544   2.808   2.389   1.361 -0.0107 -0.3793  0.7670
  887SOL     OW 3545   2.315   2.590   1.565  0.0459 -0.2476 -0.0436
  887SOL    HW1 3546   2.359   2.625   1.489 -1.0854  1.1486  0.7847
  887SOL    HW2 3547   2.222   2.582   1.527 -0.9926  1.0945 -1.0321
  887SOL     MW 3548   2.309   2.594   1.550 -0.2403  0.1137 -0.0647
  888SOL     OW 3549   1.844   2.074   1.373  0.1591 -0.7242 -0.0769
  888SOL    HW1 3550   1.917   2.080   1.310 -0.7778 -2.1173  0.1621
  888SOL    HW2 3551   1.879   2.113   1.456  0.0357 -0.4641  1.7261
  888SOL     MW 3552   1.858   2.080   1.376  0.0192 -0.8737  0.1925
  889SOL     OW 3553   2.311   2.005   2.099 -0.2453 -0.2601 -0.0365
  889SOL    HW1 3554   2.394   1.987   2.143 -0.5737  0.7400 -0.8729
  889SOL    HW2 3555   2.319   2.084   2.042 -1.9419 -0.6925  1.3041
  889SOL     MW 3556   2.323   2.013   2.097 -0.5125 -0.1852  0.0300
  890SOL     OW 3557   0.121   2.364   0.130  0.5638 -0.2292 -0.3301
  890SOL    HW1 3558   0.065   2.446   0.128  0.6684 -2.2208 -0.9479
  890SOL    HW2 3559   0.102   2.323   0.217  0.7064  2.1360 -0.4987
  890SOL     MW 3560   0.111   2.370   0.141  0.5965 -0.1799 -0.4339
  891SOL     OW 3561   3.019   2.060   1.299  0.4035 -0.4029 -0.1933
  891SOL    HW1 3562   3.104   2.061   1.340 -0.0485  0.1561 -0.4590
  891SOL    HW2 3563   3.020   2.147   1.260 -0.4216  1.1414  0.6414
  891SOL     MW 3564   3.030   2.072   1.300  0.2350 -0.1254 -0.1182
  892SOL     OW 3565   2.433   2.360   2.831 -0.1625 -0.1026 -0.5034
  892SOL    HW1 3566   2.447   2.265   2.845 -2.6491  1.4039 -0.5308
  892SOL    HW2 3567   2.522   2.400   2.856 -1.8484  0.9868  0.3700
  892SOL     MW 3568   2.447   2.353   2.837 -0.7130  0.2399 -0.3918
  893SOL     OW 3569   1.586   2.354   1.293  0.2069  0.6107 -0.2282
  893SOL    HW1 3570   1.519   2.405   1.342  2.0740  0.5240 -0.3220
  893SOL    HW2 3571   1.666   2.354   1.346  1.2465  0.0947 -1.7747
  893SOL     MW 3572   1.588   2.361   1.306  0.5904  0.5312 -0.4446
  894SOL     OW 3573   2.830   1.803   0.482 -0.2381  0.9904 -0.1107
  894SOL    HW1 3574   2.744   1.844   0.510  2.4252 -2.5396 -1.1976
  894SOL    HW2 3575   2.816   1.771   0.392 -0.3974 -1.9380 -1.7387
  894SOL     MW 3576   2.817   1.804   0.474  0.0923  0.1383 -0.4689
  895SOL     OW 3577   2.117   2.167   1.317  0.4986 -0.6465 -0.5944
  895SOL    HW1 3578   2.095   2.246   1.271 -1.5469  2.2970 -0.7525
  895SOL    HW2 3579   2.158   2.118   1.248 -1.0684 -0.5335  2.8323
  895SOL     MW 3580   2.120   2.171   1.302  0.0220 -0.2432 -0.1632
  896SOL     OW 3581   2.144   2.795   1.061  0.0620  0.1161  0.0942
  896SOL    HW1 3582   2.189   2.777   1.142  1.7107 -1.8279  0.3103
  896SOL    HW2 3583   2.139   2.699   1.027  0.5161 -1.2619  0.2460
  896SOL     MW 3584   2.149   2.780   1.067  0.3395 -0.3222  0.1427
  897SOL     OW 3585   2.995   2.917   0.114  0.2073 -0.5839 -0.0366
  897SOL    HW1 3586   3.079   2.891   0.088 -0.7383 -1.0459  3.0618
  897SOL    HW2 3587   2.916   2.870   0.076 -0.6671 -0.5195  1.8714
  897SOL     MW 3588   2.996   2.908   0.105 -0.0328 -0.6364  0.6240
  898SOL     OW 3589   2.070   0.170   1.393  0.6966 -0.8515  0.3406
  898SOL    HW1 3590   1.998   0.112   1.379  2.2728 -0.7610 -0.0154
  898SOL    HW2 3591   2.078   0.207   1.303  0.3630 -0.3606 -0.2458
  898SOL     MW 3592   2.062   0.167   1.379  0.8606 -0.7748  0.2163
  899SOL     OW 3593   2.937   2.929   0.634 -0.5238 -0.1912 -0.1578
  899SOL    HW1 3594   2.938   2.867   0.706  0.7873 -0.0524  1.5512
  899SOL    HW2 3595   2.852   2.968   0.630  0.1027 -2.0458 -0.1833
  899SOL     MW 3596   2.926   2.926   0.643 -0.2682 -0.4176  0.0643
  900SOL     OW 3597   0.066   2.442   1.022  0.6094  0.2860 -0.0838
  900SOL    HW1 3598   0.083   2.519   0.965 -0.9976  0.2273 -0.8460
  900SOL    HW2 3599   0.061   2.365   0.959 -1.4369  0.6370  0.8878
  900SOL     MW 3600   0.068   2.442   1.006  0.1274  0.3246 -0.0562
  901SOL     OW 3601   1.760   2.871   1.682 -0.3673  0.5379 -0.4083
  901SOL    HW1 3602   1.827   2.805   1.673  2.0153  0.3685 -0.7136
  901SOL    HW2 3603   1.695   2.860   1.612 -2.2008 -0.7363  0.5161
  901SOL     MW 3604   1.760   2.861   1.672 -0.2948  0.3475 -0.3266
  902SOL     OW 3605   2.654   2.109   1.812 -0.3230 -0.4363 -0.1900
  902SOL    HW1 3606   2.639   2.018   1.784 -2.6210 -1.8982 -1.2419
  902SOL    HW2 3607   2.736   2.093   1.857  2.1189 -0.5911  1.2254
  902SOL     MW 3608   2.663   2.095   1.814 -0.3040 -0.6496 -0.1420
  903SOL     OW 3609   1.610   2.767   0.515 -0.3041 -0.3454 -0.3394
  903SOL    HW1 3610   1.655   2.695   0.561  0.6821 -0.9773  0.9387
  903SOL    HW2 3611   1.570   2.814   0.595 -0.6315 -0.8194  0.7216
  903SOL     MW 3612   1.611   2.763   0.532 -0.2172 -0.4913 -0.0308
  904SOL     OW 3613   2.494   2.485   1.722 -0.1750  0.0489 -0.7128
  904SOL    HW1 3614   2.427   2.522   1.665  1.3474  0.8601  0.6323
  904SOL    HW2 3615   2.558   2.439   1.671 -0.0944  0.5993  0.3330
  904SOL     MW 3616   2.494   2.484   1.707  0.0365  0.2285 -0.3974
  905SOL     OW 3617   2.333   2.570   2.157  0.3039  0.2795 -0.1799
  905SOL    HW1 3618   2.383   2.531   2.087  0.5247  0.3604 -1.6494
  905SOL    HW2 3619   2.299   2.492   2.209 -1.2338 -4.6844 -0.7591
  905SOL     MW 3620   2.335   2.554   2.155  0.1302 -0.3647 -0.4502
  906SOL     OW 3621   2.421   2.568   0.908 -0.2196 -0.4941 -0.1722
  906SOL    HW1 3622   2.501   2.514   0.925 -1.5503  0.1641  1.0765
  906SOL    HW2 3623   2.440   2.663   0.897 -1.2659 -2.5915  2.3281
  906SOL     MW 3624   2.434   2.574   0.909 -0.5333 -0.6840  0.3224
  907SOL     OW 3625   2.549   2.891   1.335 -0.1894  0.4381 -0.1848
  907SOL    HW1 3626   2.625   2.941   1.364 -1.3870  1.5473  1.0225
  907SOL    HW2 3627   2.571   2.860   1.247  1.3831  2.0564 -2.6383
  907SOL     MW 3628   2.562   2.894   1.327 -0.1399  0.7980 -0.3492
  908SOL     OW 3629   2.756   2.364   0.010 -0.1198 -0.1167 -0.0787
  908SOL    HW1 3630   2.713   2.279   0.016  1.0614  3.0643  0.9181
  908SOL    HW2 3631   2.687   2.417   0.051 -0.3334  2.5489  0.3536
  908SOL     MW 3632   2.741   2.360   0.016  0.0079  0.6547  0.1098
  909SOL     OW 3633   1.679   0.180   1.151  0.6110  0.0736 -0.2950
  909SOL    HW1 3634   1.668   0.252   1.084  0.6205 -0.8457  0.1969
  909SOL    HW2 3635   1.721   0.227   1.225  2.5309  0.8049  2.0019
  909SOL     MW 3636   1.683   0.196   1.152  0.8656  0.0488  0.0730
  910SOL     OW 3637   2.263   1.785   0.398  0.1760 -0.1048 -0.5934
  910SOL    HW1 3638   2.227   1.700   0.425  1.0327  1.0439  0.7500
  910SOL    HW2 3639   2.223   1.811   0.311 -1.3577 -0.6609  0.0841
  910SOL     MW 3640   2.253   1.777   0.390  0.0867 -0.0266 -0.3268
  911SOL     OW 3641   2.188   2.204   1.733 -0.5411 -0.5917 -0.1891
  911SOL    HW1 3642   2.263   2.198   1.797 -1.2784  2.2790  0.3204
  911SOL    HW2 3643   2.236   2.234   1.654 -0.6286 -1.0013 -0.9373
  911SOL     MW 3644   2.205   2.207   1.731 -0.6499 -0.2670 -0.2206
  912SOL     OW 3645   2.908   1.903   1.532  0.4757 -0.3675  0.4195
  912SOL    HW1 3646   2.911   1.955   1.444  2.2264  0.0999 -1.4484
  912SOL    HW2 3647   2.818   1.921   1.563  2.5406 -1.3744 -1.5013
  912SOL     MW 3648   2.897   1.912   1.525  0.9791 -0.4387 -0.0804
  913SOL     OW 3649   2.579   2.995   0.353 -0.0088 -0.0148  0.1293
  913SOL    HW1 3650   2.641   2.922   0.349 -0.7850  0.4095  1.4526
  913SOL    HW2 3651   2.501   2.953   0.319 -1.1601 -1.9683 -0.0142
  913SOL     MW 3652   2.577   2.980   0.348 -0.2631 -0.2165  0.2850
  914SOL     OW 3653   2.776   1.705   3.044 -0.0894  0.8514 -0.0327
  914SOL    HW1 3654   2.824   1.781   3.008  3.2184  1.2073  1.3433
  914SOL    HW2 3655   2.676   1.709   3.041 -2.5238 -0.0577  2.0786
  914SOL     MW 3656   2.769   1.715   3.039  0.0259  0.7784  0.4274
  915SOL     OW 3657   1.750   0.241   0.234 -0.4746 -0.3408  0.1175
  915SOL    HW1 3658   1.824   0.191   0.271 -1.8138  0.9034  0.9337
  915SOL    HW2 3659   1.682   0.175   0.230  1.0549  0.6817 -0.9225
  915SOL     MW 3660   1.751   0.226   0.239 -0.4494 -0.0417  0.0880
  916SOL     OW 3661   1.765   2.068   1.945  0.5900  0.0496 -0.6997
  916SOL    HW1 3662   1.810   2.147   1.916  0.2681  2.2288  1.6857
  916SOL    HW2 3663   1.768   2.008   1.870  0.5065 -1.1195 -0.0820
  916SOL     MW 3664   1.772   2.070   1.931  0.5366  0.1829 -0.3034
  917SOL     OW 3665   2.434   2.288   2.549  0.7010 -0.7049  0.4074
  917SOL    HW1 3666   2.433   2.344   2.627 -2.4751  1.0144 -0.8398
  917SOL    HW2 3667   2.508   2.315   2.493 -0.0867  0.0943  1.7845
  917SOL     MW 3668   2.443   2.299   2.552  0.1780 -0.3726  0.4245
  918SOL     OW 3669   1.988   1.638   2.691  0.1437 -0.0678 -0.7329
  918SOL    HW1 3670   1.929   1.678   2.620 -0.4773 -1.7172  0.6995
  918SOL    HW2 3671   2.080   1.674   2.674  2.0483 -1.7633 -1.8414
  918SOL     MW 3672   1.993   1.648   2.680  0.3131 -0.5092 -0.6902
  919SOL     OW 3673   0.069   2.344   2.244  0.5968 -0.2620  0.2015
  919SOL    HW1 3674  -0.007   2.295   2.215  2.4207 -2.1871  0.5460
  919SOL    HW2 3675   0.117   2.313   2.165 -1.1171 -1.2882 -0.2856
  919SOL     MW 3676   0.065   2.334   2.229  0.6113 -0.6514  0.1826
  920SOL     OW 3677   2.767   2.780   3.102 -0.2283  0.0410  0.0635
  920SOL    HW1 3678   2.688   2.834   3.116  0.8083  3.3050 -0.1590
  920SOL    HW2 3679   2.754   2.737   3.018 -1.8714  0.6423  1.8852
  920SOL     MW 3680   2.755   2.782   3.093 -0.3084  0.5510  0.2745
  921SOL     OW 3681   2.382   2.626   2.625  0.0308 -0.4006 -0.1085
  921SOL    HW1 3682   2.472   2.639   2.607 -0.0477 -1.4888 -0.6884
  921SOL    HW2 3683   2.397   2.558   2.695  2.5236  1.5458 -1.3761
  921SOL     MW 3684   2.396   2.619   2.632  0.3494 -0.2874 -0.3523
  922SOL     OW 3685   2.034   2.834   0.315  0.5406  0.3124 -0.2798
  922SOL    HW1 3686   2.002   2.863   0.226  0.5779  2.4718  2.7120
  922SOL    HW2 3687   1.989   2.742   0.328  2.1750 -1.3595  1.0532
  922SOL     MW 3688   2.024   2.826   0.305  0.7611  0.3767  0.2908
  923SOL     OW 3689   2.192   2.808   1.662 -0.5137  0.6252 -0.5513
  923SOL    HW1 3690   2.236   2.731   1.619 -1.7998 -0.1369 -0.7031
  923SOL    HW2 3691   2.154   2.857   1.592  1.6709  0.4777  0.2111
  923SOL     MW 3692   2.193   2.804   1.647 -0.3952  0.5052 -0.4707
  924SOL     OW 3693   1.224   2.624   2.519 -0.0865 -0.3657 -0.5934
  924SOL    HW1 3694   1.282   2.698   2.525  0.5130  1.9709 -0.4570
  924SOL    HW2 3695   1.268   2.563   2.573  0.8846  0.3025 -3.8995
  924SOL     MW 3696   1.237   2.626   2.527  0.1207  0.0307 -1.0116
  925SOL     OW 3697   2.947   0.248   2.591  0.2886  0.0947  0.6342
  925SOL    HW1 3698   2.916   0.271   2.504 -2.7076  1.3055 -1.2526
  925SOL    HW2 3699   2.897   0.292   2.653  0.5802 -2.5186 -1.3274
  925SOL     MW 3700   2.936   0.257   2.587 -0.0682 -0.0904  0.1264
  926SOL     OW 3701   2.746   2.405   2.086 -0.0401 -0.0505  0.3200
  926SOL    HW1 3702   2.789   2.475   2.135  0.1783 -1.2628  0.6215
  926SOL    HW2 3703   2.791   2.421   2.001  0.0604  0.9886  0.1156
  926SOL     MW 3704   2.758   2.417   2.081  0.0020 -0.0734  0.3329
  927SOL     OW 3705   2.308   0.159   0.291 -0.4015  0.0710 -0.1781
  927SOL    HW1 3706   2.392   0.169   0.346  1.4572 -1.5233  2.7461
  927SOL    HW2 3707   2.323   0.100   0.214 -2.4042 -0.3541  0.4042
  927SOL     MW 3708   2.321   0.152   0.288 -0.4205 -0.1954  0.2846
  928SOL     OW 3709   2.073   2.413   1.881 -0.0313  0.5593  0.5450
  928SOL    HW1 3710   2.125   2.368   1.817 -0.7204 -1.0147 -0.3808
  928SOL    HW2 3711   2.121   2.406   1.960 -1.1850 -2.1949 -1.8879
  928SOL     MW 3712   2.086   2.406   1.883 -0.2744 -0.0118  0.1018
  929SOL     OW 3713   2.675   2.367   2.430 -0.0114  0.0806  0.2989
  929SOL    HW1 3714   2.750   2.374   2.376  1.5937  2.1061  0.5704
  929SOL    HW2 3715   2.710   2.351   2.517  3.0900  1.1120  1.2373
  929SOL     MW 3716   2.689   2.366   2.435  0.6096  0.4840  0.4585
  930SOL     OW 3717   1.995   2.832   2.698  0.2010 -0.1828  0.1997
  930SOL    HW1 3718   2.020   2.764   2.766 -0.0954  0.6242 -1.5743
  930SOL    HW2 3719   2.076   2.889   2.687  1.9907 -1.3182 -2.6357
  930SOL     MW 3720   2.009   2.831   2.706  0.3980 -0.2261 -0.4085
  931SOL     OW 3721   3.009   2.783   2.277  0.2770  0.6301 -0.5033
  931SOL    HW1 3722   3.056   2.797   2.361  0.8270 -1.1361 -0.2613
  931SOL    HW2 3723   3.079   2.814   2.222 -1.3154 -3.1383  1.8333
  931SOL     MW 3724   3.024   2.789   2.281  0.1395 -0.1001 -0.1631
  932SOL     OW 3725   2.847   1.991   2.509 -0.3934  0.1878  0.0070
  932SOL    HW1 3726   2.938   2.021   2.521 -1.0067  1.3313  1.9483
  932SOL    HW2 3727   2.838   1.960   2.420 -1.0622 -0.6574 -0.3246
  932SOL     MW 3728   2.858   1.991   2.499 -0.5626  0.2272  0.2194
  933SOL     OW 3729   2.051   2.867   2.261 -0.5921 -0.0624  0.1198
  933SOL    HW1 3730   2.119   2.918   2.308 -0.7730  0.6956 -3.4462
  933SOL    HW2 3731   1.994   2.931   2.216  1.2030 -0.1196 -1.7853
  933SOL     MW 3732   2.052   2.883   2.261 -0.3791  0.0301 -0.6021
  934SOL     OW 3733   2.019   2.696   2.467  0.2506 -0.3770  0.5059
  934SOL    HW1 3734   2.021   2.738   2.556  0.2084 -0.2605 -1.1318
  934SOL    HW2 3735   2.014   2.767   2.403  0.4251  1.3429  1.0904
  934SOL     MW 3736   2.019   2.711   2.470  0.2680 -0.1347  0.3669
  935SOL     OW 3737   2.655   1.604   1.824 -0.0065  0.3739 -0.8916
  935SOL    HW1 3738   2.736   1.565   1.798 -1.6492  1.2142  0.6934
  935SOL    HW2 3739   2.579   1.594   1.760 -1.9246 -2.4164  0.5470
  935SOL     MW 3740   2.656   1.597   1.812 -0.4763  0.1166 -0.4927
  936SOL     OW 3741   3.012   2.272   3.072 -0.1035  0.1241  0.1648
  936SOL    HW1 3742   3.083   2.307   3.127 -2.8072  0.9423  1.1512
  936SOL    HW2 3743   2.929   2.307   3.102 -0.0860 -0.7266  0.3987
  936SOL     MW 3744   3.010   2.282   3.083 -0.4579  0.1198  0.3258
  937SOL     OW 3745   1.969   2.092   2.706 -1.1109 -0.2875 -0.2337
  937SOL    HW1 3746   2.052   2.038   2.732 -1.0444 -0.1844  0.8493
  937SOL    HW2 3747   1.968   2.069   2.613  3.7655  1.3337  0.9139
  937SOL     MW 3748   1.980   2.082   2.697 -0.4588 -0.0600  0.0606
  938SOL     OW 3749   2.266   1.831   1.889 -0.3597 -0.0286  0.4938
  938SOL    HW1 3750   2.241   1.890   1.819  0.0289  0.6705  3.9822
  938SOL    HW2 3751   2.278   1.889   1.968  1.8801  3.5528  0.3099
  938SOL     MW 3752   2.265   1.846   1.890 -0.0129  0.5362  0.9298
  939SOL     OW 3753   2.808   1.981   2.241 -0.0026 -0.2076  0.6191
  939SOL    HW1 3754   2.833   1.917   2.167 -0.0267 -2.2485  0.0333
  939SOL    HW2 3755   2.714   1.993   2.235  1.1055 -0.1866 -0.9251
  939SOL     MW 3756   2.799   1.974   2.230  0.1404 -0.4741  0.3381
  940SOL     OW 3757   2.316   0.181   2.656  0.0838 -0.3433 -0.4934
  940SOL    HW1 3758   2.304   0.085   2.647  0.8708  0.8896 -0.9390
  940SOL    HW2 3759   2.341   0.192   2.744 -0.8475  0.1490  0.0689
  940SOL     MW 3760   2.318   0.170   2.666  0.0647 -0.1157 -0.4780
  941SOL     OW 3761   0.193   2.271   2.022  0.1787  0.3041  0.2961
  941SOL    HW1 3762   0.286   2.258   2.018  0.1561  1.2405  0.2924
  941SOL    HW2 3763   0.155   2.295   1.942 -1.6926  2.3711 -1.9311
  941SOL     MW 3764   0.200   2.272   2.011 -0.0712  0.7004  0.0018
  942SOL     OW 3765   2.931   2.222   2.143 -0.0408 -0.2326 -0.3852
  942SOL    HW1 3766   2.861   2.293   2.129 -2.0272 -0.5731 -0.2013
  942SOL    HW2 3767   2.889   2.147   2.188  0.1116  1.9878  1.4560
  942SOL     MW 3768   2.916   2.222   2.147 -0.2827  0.0154 -0.1180
  943SOL     OW 3769   0.346   2.035   2.310 -0.6785  0.4986 -0.0317
  943SOL    HW1 3770   0.300   2.103   2.366  1.6200 -0.3942  0.6514
  943SOL    HW2 3771   0.438   2.046   2.348  0.8275  2.6328 -1.0729
  943SOL     MW 3772   0.352   2.045   2.323 -0.1765  0.6624 -0.0789
  944SOL     OW 3773   2.092   2.694   2.053  0.5143  0.4981 -0.1231
  944SOL    HW1 3774   2.149   2.626   2.083 -1.9000 -2.7954  1.0716
  944SOL    HW2 3775   2.077   2.740   2.133  0.0923  0.0336 -0.2709
  944SOL     MW 3776   2.097   2.691   2.067  0.1401  0.0023  0.0150
  945SOL     OW 3777   2.743   2.681   2.853 -0.3302 -0.4149 -0.3887
  945SOL    HW1 3778   2.725   2.584   2.842  0.1620  0.3516 -1.8122
  945SOL    HW2 3779   2.792   2.701   2.771 -2.3332  0.5674  0.3528
  945SOL     MW 3780   2.747   2.671   2.841 -0.5295 -0.1841 -0.4787
  946SOL     OW 3781   2.503   2.744   2.301 -0.1454  0.4453  0.2553
  946SOL    HW1 3782   2.492   2.804   2.223 -0.1100 -3.1916 -0.4970
  946SOL    HW2 3783   2.430   2.683   2.277 -1.3121  2.8767 -0.5473
  946SOL     MW 3784   2.492   2.744   2.287 -0.2947  0.2863  0.0502
  947SOL     OW 3785   1.987   0.105   0.274 -0.1699  0.1318  0.2771
  947SOL    HW1 3786   1.975   0.039   0.211 -0.2856  3.4848  2.7656
  947SOL    HW2 3787   2.037   0.063   0.343  0.2333  0.5302 -1.8212
  947SOL     MW 3788   1.992   0.090   0.275 -0.1319  0.6267  0.3286
  948SOL     OW 3789   1.771   2.986   2.668 -0.4487 -0.6466  0.2826
  948SOL    HW1 3790   1.840   2.919   2.688 -0.4278  1.3122  0.7931
  948SOL    HW2 3791   1.772   2.993   2.567  0.4627  0.2292  0.9818
  948SOL     MW 3792   1.780   2.978   2.657 -0.3257 -0.2726  0.4422
  949SOL     OW 3793   2.536   1.985   2.282 -0.3277  0.5169 -0.2282
  949SOL    HW1 3794   2.536   1.889   2.306 -1.4079 -0.9398  0.5367
  949SOL    HW2 3795   2.470   2.027   2.343  1.2211 -0.4733 -1.1486
  949SOL     MW 3796   2.527   1.978   2.293 -0.2659  0.1941 -0.2487
  950SOL     OW 3797   2.289   2.514   3.005 -0.1877  0.0833 -0.2439
  950SOL    HW1 3798   2.346   2.447   2.964  0.5320 -1.8468 -1.1783
  950SOL    HW2 3799   2.213   2.541   2.948  0.0017 -0.9105 -0.3897
  950SOL     MW 3800   2.287   2.508   2.992 -0.0677 -0.3025 -0.3864
  951SOL     OW 3801   2.987   2.134   2.843  0.2872 -0.1867 -0.3596
  951SOL    HW1 3802   3.000   2.198   2.910 -1.6203  0.3650 -2.3059
  951SOL    HW2 3803   3.065   2.150   2.787  0.4813  3.0820  3.4509
  951SOL     MW 3804   2.999   2.144   2.845  0.0611  0.3173 -0.1136
  952SOL     OW 3805   0.002   1.677   2.157  0.3693 -0.5389  0.1847
  952SOL    HW1 3806  -0.068   1.730   2.106 -1.7312  0.4454  1.7363
  952SOL    HW2 3807   0.086   1.728   2.173  0.0969 -0.6024 -0.1681
  952SOL     MW 3808   0.004   1.691   2.153  0.0562 -0.4174  0.3429
  953SOL     OW 3809   1.907   1.788   2.926  0.4833  0.2688 -0.1431
  953SOL    HW1 3810   1.835   1.746   2.974  2.0224 -0.8690 -3.1958
  953SOL    HW2 3811   1.917   1.734   2.845 -2.0030  0.5207  1.5348
  953SOL     MW 3812   1.899   1.775   2.922  0.3583  0.1519 -0.3245
  954SOL     OW 3813   2.478   2.092   2.868 -0.3847  0.5946  0.1792
  954SOL    HW1 3814   2.390   2.044   2.860 -0.0845 -1.3478  0.5530
  954SOL    HW2 3815   2.529   2.055   2.792 -2.3763 -1.8226  0.9460
  954SOL     MW 3816   2.473   2.081   2.857 -0.6079  0.0194  0.3297
  955SOL     OW 3817   1.588   1.597   2.607 -0.0966  0.0113  0.4036
  955SOL    HW1 3818   1.527   1.622   2.526 -1.1324 -0.9279  0.0505
  955SOL    HW2 3819   1.674   1.636   2.582 -0.6741  0.4822  0.0268
  955SOL     MW 3820   1.591   1.606   2.593 -0.3094 -0.0505  0.3073
  956SOL     OW 3821   2.701   2.411   2.829 -0.0553  0.0941 -0.2567
  956SOL    HW1 3822   2.747   2.387   2.907 -0.1214  1.8515 -0.0686
  956SOL    HW2 3823   2.752   2.369   2.762  0.6902 -1.9709  1.7667
  956SOL     MW 3824   2.714   2.402   2.830  0.0343  0.0535  0.0351
  957SOL     OW 3825   2.309   2.867   0.378 -0.0761 -0.3538  0.3539
  957SOL    HW1 3826   2.224   2.847   0.335  0.3639 -1.1713  0.4519
  957SOL    HW2 3827   2.294   2.827   0.467 -0.4360  0.4220 -1.5269
  957SOL     MW 3828   2.296   2.859   0.384 -0.0655 -0.3593  0.1187
  958SOL     OW 3829   2.050   2.610   2.854  0.2365 -0.2424  0.4918
  958SOL    HW1 3830   2.035   2.525   2.805  2.5787 -1.7299 -0.0294
  958SOL    HW2 3831   1.962   2.611   2.897 -0.1001 -2.2630 -2.5854
  958SOL     MW 3832   2.036   2.599   2.853  0.5011 -0.7053  0.0170
  959SOL     OW 3833   2.432   2.631   0.373  0.1293 -0.1359  0.0956
  959SOL    HW1 3834   2.514   2.615   0.336 -1.5915 -0.1839  0.6719
  959SOL    HW2 3835   2.401   2.719   0.346  2.1642 -1.6686 -0.2118
  959SOL     MW 3836   2.438   2.640   0.365  0.1707 -0.3445  0.1311
  960SOL     OW 3837   1.976   2.304   2.251  0.3755  0.2245 -0.6073
  960SOL    HW1 3838   1.922   2.253   2.188 -0.3268 -3.0387 -0.2623
  960SOL    HW2 3839   1.923   2.311   2.331 -2.1506 -1.3728 -1.6159
  960SOL     MW 3840   1.962   2.298   2.253 -0.0504 -0.4168 -0.6949
  961SOL     OW 3841   2.247   2.331   2.269 -0.2807  0.0664 -0.5457
  961SOL    HW1 3842   2.151   2.314   2.252 -1.4561 -0.4385  0.2674
  961SOL    HW2 3843   2.244   2.374   2.354  2.8605 -1.8416 -1.9065
  961SOL     MW 3844   2.234   2.334   2.278 -0.0213 -0.2519 -0.6180
  962SOL     OW 3845   2.219   2.002   2.818  0.3441  0.4835  0.4577
  962SOL    HW1 3846   2.167   2.010   2.897  0.6426  1.6464  0.0708
  962SOL    HW2 3847   2.206   1.914   2.778 -0.0613 -0.3833 -2.6347
  962SOL     MW 3848   2.211   1.992   2.823  0.3300  0.5225 -0.0014
  963SOL     OW 3849   1.828   2.614   2.056 -0.1917 -0.4514  0.1833
  963SOL    HW1 3850   1.923   2.642   2.045  2.3862  1.9271 -0.1292
  963SOL    HW2 3851   1.807   2.561   1.982  0.2828  2.0370  0.4345
  963SOL     MW 3852   1.838   2.610   2.045  0.2110  0.1907  0.1752
  964SOL     OW 3853   1.754   1.929   2.737  0.0193 -0.2621 -0.4555
  964SOL    HW1 3854   1.830   1.988   2.729 -2.6273 -0.1850 -1.6127
  964SOL    HW2 3855   1.782   1.873   2.818  0.8524 -3.2484 -0.5970
  964SOL     MW 3856   1.768   1.929   2.747 -0.2199 -0.6460 -0.6269
  965SOL     OW 3857   2.238   2.753   0.617 -0.1214 -0.0978 -0.1812
  965SOL    HW1 3858   2.245   2.661   0.610  2.5132  0.1219 -2.4553
  965SOL    HW2 3859   2.265   2.768   0.708 -1.4424  1.5255  1.8541
  965SOL     MW 3860   2.242   2.743   0.628  0.0519  0.1454 -0.2127
  966SOL     OW 3861   2.634   2.628   2.506  0.2675  0.0704 -0.0695
  966SOL    HW1 3862   2.593   2.670   2.436  1.9909 -2.1845  0.4139
  966SOL    HW2 3863   2.650   2.542   2.464  2.1226 -0.8092 -0.7323
  966SOL     MW 3864   2.631   2.622   2.491  0.7396 -0.3432 -0.0932
  967SOL     OW 3865   2.836   3.016   2.900 -0.6140 -0.0612 -0.1587
  967SOL    HW1 3866   2.836   2.927   2.927  0.5812 -1.0784  0.3675
  967SOL    HW2 3867   2.744   3.037   2.872  0.6889 -0.4199 -2.0631
  967SOL     MW 3868   2.824   3.007   2.900 -0.2844 -0.2427 -0.3405
  968SOL     OW 3869   3.016   2.659   2.901  0.3982  0.0515 -0.2276
  968SOL    HW1 3870   2.928   2.670   2.893  1.8444  1.2623 -2.0642
  968SOL    HW2 3871   3.037   2.579   2.849  3.0934  0.4175 -2.5965
  968SOL     MW 3872   3.007   2.650   2.893  0.9446  0.2595 -0.7825
  969SOL     OW 3873   1.519   2.141   1.677 -0.3806  0.2805  0.0355
  969SOL    HW1 3874   1.596   2.088   1.661  0.8593  0.6160 -0.7860
  969SOL    HW2 3875   1.502   2.139   1.769 -1.6391  4.9998 -2.4819
  969SOL     MW 3876   1.527   2.134   1.687 -0.3830  0.9474 -0.4050
  970SOL     OW 3877   1.622   1.712   1.767 -0.0144  0.0699  0.1732
  970SOL    HW1 3878   1.690   1.656   1.805  2.7986 -0.3103 -0.7739
  970SOL    HW2 3879   1.548   1.721   1.828  2.5634 -1.1014 -1.5285
  970SOL     MW 3880   1.621   1.706   1.780  0.6969 -0.1348 -0.1762
  971SOL     OW 3881   1.766   3.069   2.410  0.1059  0.1878  0.1649
  971SOL    HW1 3882   1.792   3.044   2.325 -1.0473  0.8680 -3.1335
  971SOL    HW2 3883   1.813   3.154   2.431  0.7776  2.8180  1.8437
  971SOL     MW 3884   1.776   3.077   2.402  0.0423  0.6246 -0.0488
  972SOL     OW 3885   0.265   2.866   2.464  0.0788  0.4741  0.1308
  972SOL    HW1 3886   0.329   2.797   2.476 -0.5541 -1.8396  0.1243
  972SOL    HW2 3887   0.311   2.944   2.487 -2.6387  0.7780  0.1907
  972SOL     MW 3888   0.279   2.867   2.469 -0.3632  0.2089  0.1378
  973SOL     OW 3889   2.505   0.053   2.076 -0.5823  0.1641 -0.5680
  973SOL    HW1 3890   2.488  -0.036   2.058 -0.6913 -0.1881  0.1976
  973SOL    HW2 3891   2.540   0.078   1.989 -3.2322 -0.1141 -4.1775
  973SOL     MW 3892   2.507   0.044   2.062 -0.9463  0.0809 -0.9432
  974SOL     OW 3893   2.048   0.215   2.684 -0.0982  0.4321  0.0731
  974SOL    HW1 3894   2.144   0.205   2.680  1.9742  0.2962  0.8837
  974SOL    HW2 3895   2.025   0.142   2.741  1.0995  0.7468 -0.4668
  974SOL     MW 3896   2.058   0.204   2.691  0.3332  0.4557  0.1088
  975SOL     OW 3897   2.181   2.473   2.494 -0.0623  0.1900 -0.0441
  975SOL    HW1 3898   2.244   2.519   2.546 -0.0014 -2.2609 -1.1946
  975SOL    HW2 3899   2.120   2.546   2.465 -1.3693  0.9751 -1.8579
  975SOL     MW 3900   2.182   2.489   2.497 -0.2267 -0.0298 -0.4352
  976SOL     OW 3901   0.260   0.333   1.707  0.3120 -0.3500  0.0128
  976SOL    HW1 3902   0.318   0.265   1.750 -0.9994 -1.4668  0.7893
  976SOL    HW2 3903   0.188   0.289   1.671  0.3168 -2.0865 -1.4971
  976SOL     MW 3904   0.258   0.318   1.708  0.1396 -0.7264 -0.0840
  977SOL     OW 3905   1.756   2.632   2.476 -0.2170 -0.4841  0.0645
  977SOL    HW1 3906   1.763   2.536   2.479 -0.2818 -0.2825  0.6311
  977SOL    HW2 3907   1.842   2.668   2.491 -0.4495 -0.7692 -0.1836
  977SOL     MW 3908   1.768   2.624   2.479 -0.2562 -0.4951  0.1066
   3.10000   3.10000   3.10000
