977 TIP4P/2005f water molecules t=   0.42000 step= 420
 3908
    1SOL     OW    1   0.282   0.770   0.031  0.2594  0.2939 -0.0080
    1SOL    HW1    2   0.260   0.823  -0.049  0.4284 -1.4616  0.3878
    1SOL    HW2    3   0.258   0.678   0.016  0.6013  0.7796  1.3720
    1SOL     MW    4   0.276   0.765   0.019  0.3268  0.1264  0.2263
    2SOL     OW    5   0.301   3.041   1.182  0.2797  0.1777  0.1455
    2SOL    HW1    6   0.347   3.114   1.140 -1.8236 -0.2976  0.5315
    2SOL    HW2    7   0.205   3.066   1.188  1.2543  2.3105 -1.1754
    2SOL     MW    8   0.294   3.054   1.177  0.1308  0.3964  0.0222
    3SOL     OW    9   2.669   0.389   0.917 -0.9612  0.4141  0.5540
    3SOL    HW1   10   2.677   0.467   0.856  1.2196 -1.3993  0.3666
    3SOL    HW2   11   2.640   0.414   1.000  2.3712 -1.9950 -0.2410
    3SOL     MW   12   2.666   0.403   0.920 -0.2338 -0.1430  0.4243
    4SOL     OW   13   3.056   1.756   0.569 -0.2069 -0.3122  0.7582
    4SOL    HW1   14   2.983   1.800   0.514 -2.7047  1.3183 -1.7171
    4SOL    HW2   15   3.087   1.686   0.511 -0.7680 -0.8037 -1.7708
    4SOL     MW   16   3.050   1.753   0.554 -0.6105 -0.1619  0.0979
    5SOL     OW   17   1.722   1.456   0.588  0.3069  0.3260  0.1024
    5SOL    HW1   18   1.765   1.404   0.661  3.7620  3.6926  3.1369
    5SOL    HW2   19   1.631   1.459   0.599  0.3863  1.4293  0.3126
    5SOL     MW   20   1.716   1.450   0.599  0.7733  0.9158  0.5305
    6SOL     OW   21   0.880   1.402   0.656 -0.2667 -0.7705  0.7278
    6SOL    HW1   22   0.799   1.426   0.696 -2.0577  1.5982  0.4542
    6SOL    HW2   23   0.908   1.319   0.695  0.3352  0.4360  0.5687
    6SOL     MW   24   0.873   1.394   0.666 -0.4236 -0.2988  0.6707
    7SOL     OW   25   1.986   1.073   0.046 -0.3707  0.2575  0.1982
    7SOL    HW1   26   1.999   1.170   0.047  2.5990  2.2945 -0.5199
    7SOL    HW2   27   2.025   1.046   0.129  0.0597 -1.5095  1.2080
    7SOL     MW   28   1.993   1.082   0.057  0.0779  0.2931  0.2367
    8SOL     OW   29   0.968   1.336   1.010  0.1301  0.2144 -0.2506
    8SOL    HW1   30   0.963   1.343   1.105  0.1145 -1.7600  0.3395
    8SOL    HW2   31   1.051   1.375   0.997 -4.4580  0.6976  2.0334
    8SOL     MW   32   0.979   1.342   1.021 -0.4773  0.0176  0.1286
    9SOL     OW   33   1.059   0.454   1.339 -0.0411  0.1389  0.7665
    9SOL    HW1   34   0.989   0.401   1.303  1.8315  0.8482 -1.7781
    9SOL    HW2   35   1.096   0.414   1.416  0.7537  0.1582 -0.4723
    9SOL     MW   36   1.055   0.442   1.344  0.3108  0.2350  0.2673
   10SOL     OW   37   0.284   0.796   0.441 -0.3411  0.0156  0.1544
   10SOL    HW1   38   0.371   0.827   0.389  0.1420  1.8279 -1.5499
   10SOL    HW2   39   0.296   0.821   0.535 -0.8460  2.4373  1.0075
   10SOL     MW   40   0.297   0.804   0.446 -0.3440  0.5743  0.0421
   11SOL     OW   41   0.793   1.082   1.617 -0.4019 -0.2145  0.1336
   11SOL    HW1   42   0.792   1.089   1.716 -1.7962  0.7986  0.1778
   11SOL    HW2   43   0.753   0.999   1.578 -0.2166  0.1306  2.6480
   11SOL     MW   44   0.788   1.072   1.625 -0.5614 -0.0353  0.4712
   12SOL     OW   45   0.022   1.103   0.865  0.1954 -0.5091  0.5578
   12SOL    HW1   46   0.086   1.162   0.895 -4.0359 -0.8979  0.1420
   12SOL    HW2   47  -0.023   1.160   0.806  4.3008 -1.8533 -1.1705
   12SOL     MW   48   0.025   1.118   0.861  0.1788 -0.7377  0.2749
   13SOL     OW   49   1.892   1.400   1.341  0.3065 -0.3217 -0.7171
   13SOL    HW1   50   1.926   1.368   1.258  1.2343 -0.1391  1.3351
   13SOL    HW2   51   1.889   1.492   1.334  0.2937  2.5665  0.1028
   13SOL     MW   52   1.896   1.408   1.329  0.4272  0.0835 -0.3382
   14SOL     OW   53   0.610   0.306   1.790 -0.0730  0.3385  0.0352
   14SOL    HW1   54   0.587   0.244   1.718 -0.4836  2.5781 -1.1794
   14SOL    HW2   55   0.682   0.271   1.838 -1.5281  1.3067 -0.4103
   14SOL     MW   56   0.617   0.293   1.787 -0.3191  0.7617 -0.1838
   15SOL     OW   57   2.011   0.520   0.955 -0.5661 -0.4470  0.1711
   15SOL    HW1   58   2.023   0.542   1.046 -1.1179  1.3899 -2.5847
   15SOL    HW2   59   2.090   0.466   0.924  0.2933  0.4489 -0.0226
   15SOL     MW   60   2.023   0.516   0.963 -0.5255 -0.0864 -0.2181
   16SOL     OW   61   0.201   1.755   0.336 -0.2528  0.0020 -0.0729
   16SOL    HW1   62   0.287   1.730   0.298  1.1326 -2.1579  1.2931
   16SOL    HW2   63   0.220   1.831   0.403  1.3240 -1.4016  1.5024
   16SOL     MW   64   0.215   1.762   0.340  0.1381 -0.4682  0.3152
   17SOL     OW   65   1.023   0.822   1.514 -0.3149  0.0023  0.3724
   17SOL    HW1   66   1.070   0.824   1.601 -0.0644  1.7953 -2.2145
   17SOL    HW2   67   0.943   0.776   1.527  1.3623 -2.3235 -1.1968
   17SOL     MW   68   1.019   0.816   1.527 -0.0606 -0.0680 -0.1759
   18SOL     OW   69   0.072   1.536   0.459  0.1287 -0.0233  0.0190
   18SOL    HW1   70   0.117   1.603   0.401 -1.0353 -1.4530 -0.0099
   18SOL    HW2   71   0.029   1.476   0.394 -0.9926 -1.0563  1.9412
   18SOL     MW   72   0.072   1.537   0.443 -0.1728 -0.3482  0.2688
   19SOL     OW   73   0.086   1.358   1.008 -0.6709  0.0926 -0.6221
   19SOL    HW1   74   0.132   1.380   0.930  0.5229 -2.5385  0.4293
   19SOL    HW2   75  -0.005   1.389   0.998  0.9463  1.3354 -0.2133
   19SOL     MW   76   0.080   1.365   0.997 -0.3000 -0.0906 -0.4294
   20SOL     OW   77   0.450   2.130   1.309 -0.3123  0.3749  0.5067
   20SOL    HW1   78   0.393   2.076   1.250  0.5128 -1.1117 -1.7262
   20SOL    HW2   79   0.396   2.185   1.368 -1.6339  0.2283  1.9942
   20SOL     MW   80   0.436   2.130   1.309 -0.3778  0.1594  0.4084
   21SOL     OW   81   0.530   0.876   0.349 -0.3061 -0.6424  0.0010
   21SOL    HW1   82   0.604   0.866   0.403 -0.8367  0.0183 -1.0844
   21SOL    HW2   83   0.558   0.840   0.262 -0.5723 -1.0181 -0.6797
   21SOL     MW   84   0.543   0.870   0.344 -0.4112 -0.6048 -0.2320
   22SOL     OW   85   1.537   0.568   1.114  0.6057 -0.3703 -0.3717
   22SOL    HW1   86   1.608   0.559   1.054 -0.4485 -0.0068  3.9720
   22SOL    HW2   87   1.460   0.598   1.063 -0.8918 -0.8158 -2.1471
   22SOL     MW   88   1.536   0.570   1.099  0.2690 -0.3811 -0.0328
   23SOL     OW   89   3.078   0.753   0.714  0.5079  0.0111  0.1411
   23SOL    HW1   90   3.130   0.675   0.728  1.8195  1.5454 -1.2962
   23SOL    HW2   91   3.137   0.813   0.673  2.4107 -2.7752 -1.7225
   23SOL     MW   92   3.093   0.750   0.710  0.9320 -0.1541 -0.2944
   24SOL     OW   93   1.995   2.199   0.067  0.4275 -0.3988  0.4187
   24SOL    HW1   94   2.002   2.192   0.166  0.0439  2.2287  1.4382
   24SOL    HW2   95   2.066   2.137   0.037  1.1949 -0.6653  0.7743
   24SOL     MW   96   2.005   2.190   0.076  0.4781 -0.0873  0.6001
   25SOL     OW   97   0.302   1.411   0.521  0.3874 -0.0963  0.8580
   25SOL    HW1   98   0.228   1.470   0.488 -1.5078  1.6755 -1.5981
   25SOL    HW2   99   0.363   1.411   0.455  0.7213 -0.7267  2.8571
   25SOL     MW  100   0.301   1.419   0.508  0.1814  0.0543  0.7977
   26SOL     OW  101   2.043   0.920   0.459  0.4121 -0.4250  0.3030
   26SOL    HW1  102   1.945   0.944   0.440 -2.4993  0.3704  1.2467
   26SOL    HW2  103   2.087   0.979   0.397  1.0179 -0.8441  1.5933
   26SOL     MW  104   2.036   0.931   0.448  0.1079 -0.3754  0.5978
   27SOL     OW  105   2.006   1.384   0.275  0.5246 -0.0788 -0.1066
   27SOL    HW1  106   1.915   1.357   0.297  0.5729 -2.3494 -1.2429
   27SOL    HW2  107   2.026   1.470   0.319  0.5164  0.7469  0.5794
   27SOL     MW  108   1.996   1.392   0.284  0.5299 -0.2694 -0.1660
   28SOL     OW  109   0.376   1.041   1.928  0.0006 -0.0175  0.7298
   28SOL    HW1  110   0.324   0.967   1.964 -2.2586 -1.2607 -5.5157
   28SOL    HW2  111   0.463   1.024   1.969  1.9606  1.1759  3.2235
   28SOL     MW  112   0.381   1.029   1.938 -0.0389 -0.0240  0.2348
   29SOL     OW  113   0.251   1.413   0.793  0.5543  0.3847 -0.5717
   29SOL    HW1  114   0.250   1.507   0.820  1.1409  0.3760 -2.5094
   29SOL    HW2  115   0.286   1.415   0.699 -0.6939 -0.7479 -2.7063
   29SOL     MW  116   0.255   1.426   0.784  0.4670  0.2341 -1.1090
   30SOL     OW  117   0.876   1.040   1.199 -0.5049  0.1488  0.7192
   30SOL    HW1  118   0.789   1.067   1.245  0.3931  0.7103  1.4960
   30SOL    HW2  119   0.944   1.046   1.267  0.6983 -2.9544  0.5542
   30SOL     MW  120   0.873   1.044   1.214 -0.2276 -0.1865  0.7999
   31SOL     OW  121   0.413   0.291   0.236 -0.6709 -0.0691  0.0065
   31SOL    HW1  122   0.407   0.221   0.308  0.9597  2.2012  0.8046
   31SOL    HW2  123   0.401   0.241   0.154  2.3284  2.3632  2.7035
   31SOL     MW  124   0.411   0.275   0.235 -0.0600  0.5514  0.4677
   32SOL     OW  125   2.747   1.049   1.113  0.2126  0.3368  0.6631
   32SOL    HW1  126   2.705   0.963   1.092  0.4764 -0.8174 -1.9885
   32SOL    HW2  127   2.843   1.036   1.107 -0.1043 -0.9703  1.2278
   32SOL     MW  128   2.754   1.036   1.110  0.2056  0.0121  0.3878
   33SOL     OW  129   1.743   1.313   0.359  0.1608  0.6072  0.7572
   33SOL    HW1  130   1.776   1.225   0.380 -0.1465 -0.4715 -1.3611
   33SOL    HW2  131   1.743   1.357   0.442 -1.8229 -1.5630  0.1141
   33SOL     MW  132   1.747   1.307   0.373 -0.1415  0.1786  0.3928
   34SOL     OW  133   1.202   1.868   1.081 -0.3606  0.4207 -0.1151
   34SOL    HW1  134   1.119   1.902   1.106  0.0638  0.8056  0.4029
   34SOL    HW2  135   1.265   1.891   1.161  0.5945  0.8672  0.5898
   34SOL     MW  136   1.199   1.876   1.095 -0.1786  0.5304  0.0463
   35SOL     OW  137   0.320   0.112   1.806 -0.5185  0.0388  0.1355
   35SOL    HW1  138   0.384   0.114   1.878  2.5411  1.1113  1.1675
   35SOL    HW2  139   0.333   0.022   1.759 -0.5094  1.3908 -0.7238
   35SOL     MW  140   0.330   0.100   1.809 -0.1136  0.3587  0.1583
   36SOL     OW  141   1.886   1.961   0.508  0.2328 -0.2241 -0.3540
   36SOL    HW1  142   1.905   1.953   0.409  2.3845  1.7376 -1.9004
   36SOL    HW2  143   1.894   1.865   0.535 -1.3253 -2.9220  0.5349
   36SOL     MW  144   1.889   1.948   0.498  0.3112 -0.3213 -0.4407
   37SOL     OW  145   1.738   2.067   0.988  0.2898 -0.1785  0.1821
   37SOL    HW1  146   1.689   2.010   0.933  2.8274  0.4759  0.1060
   37SOL    HW2  147   1.681   2.111   1.061  0.0879  2.8500  2.4572
   37SOL     MW  148   1.724   2.065   0.990  0.5980  0.3074  0.4723
   38SOL     OW  149   2.830   0.933   0.181 -0.3855 -0.4057 -0.1474
   38SOL    HW1  150   2.850   0.930   0.271 -0.6793  1.0138  0.5759
   38SOL    HW2  151   2.902   0.884   0.146  0.3981  1.4127 -0.2153
   38SOL     MW  152   2.842   0.926   0.188 -0.3209  0.0215 -0.0609
   39SOL     OW  153   1.461   0.649   0.807 -0.7439 -0.3615 -0.1355
   39SOL    HW1  154   1.462   0.561   0.772  0.7666 -0.1791  0.0948
   39SOL    HW2  155   1.369   0.659   0.833  0.3992 -2.9025  0.1862
   39SOL     MW  156   1.449   0.639   0.805 -0.3938 -0.6727 -0.0627
   40SOL     OW  157   1.264   1.871   0.248  0.1740  0.5652 -0.3886
   40SOL    HW1  158   1.274   1.790   0.295 -0.9755  0.8978  1.1007
   40SOL    HW2  159   1.293   1.932   0.314 -1.6477 -0.4225  1.7099
   40SOL     MW  160   1.269   1.868   0.262 -0.2180  0.4788  0.0848
   41SOL     OW  161   0.594   0.501   1.597  0.2194 -1.0469  0.0146
   41SOL    HW1  162   0.681   0.525   1.573  1.1272 -1.1543  0.8461
   41SOL    HW2  163   0.601   0.431   1.659 -0.0126  1.1295 -0.6945
   41SOL     MW  164   0.606   0.495   1.602  0.3085 -0.7739  0.0307
   42SOL     OW  165   1.301   3.019   1.998  0.0880 -0.4584  0.2548
   42SOL    HW1  166   1.213   3.001   2.038 -0.1432 -4.0124  0.6361
   42SOL    HW2  167   1.355   2.942   1.995  0.2829 -0.2530  0.1278
   42SOL     MW  168   1.297   3.006   2.003  0.0832 -0.9002  0.2884
   43SOL     OW  169   1.586   0.196   1.677 -0.2233 -0.1353  0.6677
   43SOL    HW1  170   1.662   0.151   1.644 -2.2108  1.1383 -2.6293
   43SOL    HW2  171   1.512   0.126   1.686 -3.7959 -3.7152  0.0204
   43SOL     MW  172   1.586   0.181   1.674 -0.9569 -0.4395  0.1473
   44SOL     OW  173   1.307   0.729   1.076 -0.0873 -0.0601 -0.0180
   44SOL    HW1  174   1.291   0.817   1.049  0.6143  0.6886  2.4495
   44SOL    HW2  175   1.289   0.728   1.169  0.3832 -1.7707  0.1800
   44SOL     MW  176   1.303   0.740   1.084  0.0674 -0.1870  0.3337
   45SOL     OW  177   1.182   0.710   0.775  0.5272  0.0314 -0.2177
   45SOL    HW1  178   1.168   0.705   0.868  0.6462  0.2540  2.3788
   45SOL    HW2  179   1.123   0.643   0.730  0.7814  2.7765 -0.3815
   45SOL     MW  180   1.172   0.700   0.781  0.5764  0.4229  0.1033
   46SOL     OW  181   0.550   1.153   0.538  0.0199  0.3315 -0.1409
   46SOL    HW1  182   0.539   1.197   0.456 -0.4120  0.4873 -0.9395
   46SOL    HW2  183   0.646   1.122   0.533  0.5736  0.7249 -0.8413
   46SOL     MW  184   0.561   1.155   0.526  0.0359  0.4040 -0.3387
   47SOL     OW  185   0.179   1.923   1.818 -0.0430 -0.0533  0.1114
   47SOL    HW1  186   0.217   1.852   1.754 -1.2194  0.8220 -1.3237
   47SOL    HW2  187   0.170   1.888   1.908 -0.2327 -0.1015  0.3249
   47SOL     MW  188   0.183   1.909   1.821 -0.2233  0.0559 -0.0498
   48SOL     OW  189   1.054   0.634   1.024 -0.6303 -0.3522 -0.0122
   48SOL    HW1  190   0.961   0.646   1.037  0.6047 -1.1044  2.0103
   48SOL    HW2  191   1.108   0.706   1.066 -0.5102 -2.0001  0.2237
   48SOL     MW  192   1.049   0.645   1.031 -0.4515 -0.6689  0.2858
   49SOL     OW  193   1.810   0.774   1.596 -0.5617  0.4775 -0.4487
   49SOL    HW1  194   1.760   0.744   1.667  2.3831 -0.7741 -0.9947
   49SOL    HW2  195   1.879   0.713   1.598 -1.2767 -0.0398 -0.7360
   49SOL     MW  196   1.813   0.762   1.606 -0.2675  0.2441 -0.5587
   50SOL     OW  197   1.227   1.023   0.481 -0.5972  0.5524  0.0645
   50SOL    HW1  198   1.185   1.059   0.564 -2.7502 -0.8577 -1.5060
   50SOL    HW2  199   1.266   0.938   0.519  1.7398 -2.5678  0.4322
   50SOL     MW  200   1.227   1.016   0.497 -0.5729 -0.0453 -0.0942
   51SOL     OW  201   0.327   2.868   0.988 -0.2296  0.4860 -0.1597
   51SOL    HW1  202   0.421   2.873   0.976  1.8208  0.0478 -1.5312
   51SOL    HW2  203   0.311   2.925   1.068 -0.3848 -2.0180 -0.3039
   51SOL     MW  204   0.337   2.876   0.997  0.0205  0.0978 -0.3597
   52SOL     OW  205   0.800   1.764   0.392 -0.1541 -0.0838 -0.2813
   52SOL    HW1  206   0.782   1.843   0.438 -1.9178 -1.9765 -1.5523
   52SOL    HW2  207   0.777   1.783   0.300 -2.4882 -1.9728  1.2713
   52SOL     MW  208   0.795   1.777   0.386 -0.6948 -0.5827 -0.2441
   53SOL     OW  209   0.496   2.074   0.562  0.4982 -0.1267  0.0506
   53SOL    HW1  210   0.421   2.039   0.504  3.8946 -0.0567  2.4637
   53SOL    HW2  211   0.491   2.171   0.585 -2.1697  0.7708 -1.4995
   53SOL     MW  212   0.485   2.082   0.557  0.5943  0.0010  0.1645
   54SOL     OW  213   2.182   0.818   0.866 -0.4861 -0.3255 -0.4489
   54SOL    HW1  214   2.237   0.754   0.825  0.8340  2.5465 -2.8288
   54SOL    HW2  215   2.097   0.780   0.867 -0.0242  0.0528 -2.4013
   54SOL     MW  216   2.178   0.805   0.861 -0.2510  0.1033 -1.0205
   55SOL     OW  217   0.567   1.497   1.570  0.2730  0.0683  0.1762
   55SOL    HW1  218   0.520   1.502   1.489  1.0692  1.0970 -1.2512
   55SOL    HW2  219   0.647   1.441   1.556  0.4820 -2.7587 -0.7979
   55SOL     MW  220   0.571   1.490   1.557  0.4056 -0.1690 -0.1407
   56SOL     OW  221   0.576   0.783   0.085 -0.5941  0.2295  0.0936
   56SOL    HW1  222   0.621   0.850   0.031 -0.7708  2.6847 -0.7731
   56SOL    HW2  223   0.493   0.775   0.040 -2.9851 -0.1531 -0.4709
   56SOL     MW  224   0.571   0.791   0.072 -0.9329  0.5029 -0.0952
   57SOL     OW  225   1.271   1.235   1.222  0.3939 -0.6139  0.6435
   57SOL    HW1  226   1.357   1.269   1.192 -0.7749  1.6384 -0.0956
   57SOL    HW2  227   1.293   1.200   1.306 -0.0237  3.0846 -1.0781
   57SOL     MW  228   1.285   1.235   1.229  0.1846  0.1712  0.3189
   58SOL     OW  229   0.649   1.111   1.324 -0.5095  0.0756  0.0092
   58SOL    HW1  230   0.610   1.189   1.294 -2.7764 -2.2649  0.8945
   58SOL    HW2  231   0.601   1.102   1.410 -1.7987 -3.1439 -1.4328
   58SOL     MW  232   0.637   1.120   1.331 -0.9787 -0.6580 -0.0642
   59SOL     OW  233   1.592   1.632   0.326  0.4874  0.1218  0.3586
   59SOL    HW1  234   1.658   1.580   0.372 -1.9927  0.3022  0.6037
   59SOL    HW2  235   1.521   1.648   0.385 -0.0774 -2.9888 -0.3621
   59SOL     MW  236   1.591   1.627   0.340  0.0857 -0.2648  0.2958
   60SOL     OW  237   3.071   0.214   1.669  0.0798  0.6214 -0.0068
   60SOL    HW1  238   2.980   0.246   1.659  0.8588  0.3412  0.5060
   60SOL    HW2  239   3.062   0.156   1.746 -0.3467  2.8003  1.5296
   60SOL     MW  240   3.058   0.211   1.678  0.1263  0.8719  0.2636
   61SOL     OW  241   1.994   1.461   3.074  1.0898 -0.7820  0.0732
   61SOL    HW1  242   2.010   1.455   3.168  1.7625 -0.5715  1.4714
   61SOL    HW2  243   2.049   1.395   3.030 -2.1916 -0.1232 -0.6846
   61SOL     MW  244   2.004   1.451   3.081  0.7456 -0.6673  0.1577
   62SOL     OW  245   0.633   1.648   0.602  0.3915  0.5566  0.7877
   62SOL    HW1  246   0.697   1.659   0.519 -1.6863  2.5679 -1.2069
   62SOL    HW2  247   0.619   1.556   0.611  2.3259  1.2447  0.6108
   62SOL     MW  248   0.639   1.637   0.592  0.3726  0.9128  0.5012
   63SOL     OW  249   1.687   0.746   0.684 -0.2249  0.1845  0.4304
   63SOL    HW1  250   1.654   0.799   0.608  0.2308 -0.4426 -0.5815
   63SOL    HW2  251   1.617   0.737   0.748 -1.0978  0.2456  1.2240
   63SOL     MW  252   1.673   0.752   0.682 -0.2800  0.1099  0.4016
   64SOL     OW  253   0.262   1.683   0.845  0.1674 -0.3042 -1.2912
   64SOL    HW1  254   0.343   1.725   0.798  0.9790  0.8412  1.4095
   64SOL    HW2  255   0.193   1.728   0.800 -1.3994  1.6442 -0.7698
   64SOL     MW  256   0.263   1.695   0.833  0.0677  0.1040 -0.8661
   65SOL     OW  257   1.564   2.315   0.327  0.2883  0.3240  0.3586
   65SOL    HW1  258   1.618   2.237   0.303  0.0032 -0.6988 -0.4742
   65SOL    HW2  259   1.599   2.328   0.418 -1.1325  2.8206 -1.9556
   65SOL     MW  260   1.576   2.306   0.336  0.0632  0.5185 -0.0566
   66SOL     OW  261   0.342   0.522   0.507  0.5386 -0.1983 -0.3664
   66SOL    HW1  262   0.427   0.498   0.468 -1.2400  0.1121  1.9570
   66SOL    HW2  263   0.341   0.620   0.491  0.4437  1.0783 -2.1167
   66SOL     MW  264   0.353   0.532   0.499  0.2914  0.0111 -0.2908
   67SOL     OW  265   1.521   0.114   2.035 -0.3172 -0.3409  0.1100
   67SOL    HW1  266   1.553   0.152   1.957 -2.0633 -0.3345 -0.1221
   67SOL    HW2  267   1.467   0.044   2.011 -2.7224  0.7233 -0.9788
   67SOL     MW  268   1.518   0.110   2.022 -0.8649 -0.1996 -0.0642
   68SOL     OW  269   0.625   0.063   2.946 -0.0315  0.2109  0.3856
   68SOL    HW1  270   0.633   0.084   2.853  1.4393 -3.0245 -1.1377
   68SOL    HW2  271   0.648   0.149   2.991  0.9266  2.1776 -0.8194
   68SOL     MW  272   0.629   0.077   2.940  0.2890  0.0435  0.0256
   69SOL     OW  273   1.031   0.228   1.953  0.4833  0.4857  0.2871
   69SOL    HW1  274   1.120   0.239   1.986 -0.2992  1.2666  2.3051
   69SOL    HW2  275   0.994   0.146   1.991  1.8783  0.8144 -3.5569
   69SOL     MW  276   1.038   0.218   1.963  0.5641  0.6321  0.0462
   70SOL     OW  277   0.573   1.830   1.118  0.3813 -0.6642 -0.0780
   70SOL    HW1  278   0.613   1.744   1.142  0.6697 -0.4197  1.1450
   70SOL    HW2  279   0.573   1.837   1.018 -3.1273 -1.5458 -2.4307
   70SOL     MW  280   0.578   1.820   1.108 -0.0436 -0.7483 -0.2271
   71SOL     OW  281   1.753   0.640   1.282 -0.3421 -0.2440  0.8133
   71SOL    HW1  282   1.748   0.678   1.370 -0.1862 -1.9235 -0.0225
   71SOL    HW2  283   1.664   0.628   1.243 -1.6041 -0.9697  0.0339
   71SOL     MW  284   1.741   0.644   1.289 -0.4881 -0.5614  0.6002
   72SOL     OW  285   0.828   1.776   0.964 -0.3399  0.0798 -0.2139
   72SOL    HW1  286   0.785   1.830   0.891  0.0657 -0.9745  0.4133
   72SOL    HW2  287   0.793   1.686   0.967  0.9544  0.7774 -1.4506
   72SOL     MW  288   0.818   1.771   0.955 -0.1156  0.0328 -0.2943
   73SOL     OW  289   1.234   0.697   1.360 -0.3833  0.5419 -0.2501
   73SOL    HW1  290   1.187   0.615   1.364 -0.8590  1.5078 -0.2031
   73SOL    HW2  291   1.175   0.754   1.409  0.4176  2.0137 -1.1197
   73SOL     MW  292   1.220   0.694   1.367 -0.3404  0.8635 -0.3587
   74SOL     OW  293   2.850   0.169   1.002  0.7745 -0.0865  0.2664
   74SOL    HW1  294   2.898   0.154   0.922  0.2301  0.8747  1.9814
   74SOL    HW2  295   2.788   0.242   0.980  0.1523  0.4069  3.1943
   74SOL     MW  296   2.848   0.177   0.989  0.6205  0.1054  0.8790
   75SOL     OW  297   1.591   1.342   0.119  0.0109  0.0088  0.3453
   75SOL    HW1  298   1.650   1.355   0.194 -0.6593  0.7078 -2.1608
   75SOL    HW2  299   1.625   1.258   0.085  2.4722  1.2095  2.5276
   75SOL     MW  300   1.603   1.332   0.124  0.2472  0.2595  0.3026
   76SOL     OW  301   2.964   0.658   0.484  0.2521 -0.2554  0.3055
   76SOL    HW1  302   2.997   0.667   0.573 -0.1258 -0.0405 -0.7701
   76SOL    HW2  303   3.025   0.590   0.450  0.9587 -0.0552 -2.8261
   76SOL     MW  304   2.976   0.650   0.491  0.2955 -0.2006 -0.2496
   77SOL     OW  305   0.864   0.467   0.457 -0.1235  0.0632 -0.1227
   77SOL    HW1  306   0.776   0.481   0.420 -0.7278  0.6330  0.1184
   77SOL    HW2  307   0.855   0.375   0.490  0.1179  1.1600 -1.5333
   77SOL     MW  308   0.852   0.457   0.456 -0.1714  0.2831 -0.2770
   78SOL     OW  309   0.764   0.798   1.201 -0.1037  0.3996  0.3039
   78SOL    HW1  310   0.691   0.849   1.173  0.1730  2.4719 -1.7651
   78SOL    HW2  311   0.828   0.870   1.223 -2.8004  0.8231  0.8469
   78SOL     MW  312   0.763   0.814   1.200 -0.4230  0.7289  0.1026
   79SOL     OW  313   1.941   1.717   0.613 -0.2200  0.0220 -0.3875
   79SOL    HW1  314   1.876   1.652   0.620  0.0616  2.4343 -1.2144
   79SOL    HW2  315   1.962   1.745   0.706  1.4949 -0.5261  0.8414
   79SOL     MW  316   1.935   1.712   0.626  0.0434  0.2680 -0.3344
   80SOL     OW  317   0.173   1.011   0.355 -0.1712 -0.2314 -0.0207
   80SOL    HW1  318   0.075   0.985   0.354 -0.2253 -1.7504  3.7072
   80SOL    HW2  319   0.214   0.929   0.383  1.7406  0.0038 -1.0539
   80SOL     MW  320   0.165   0.997   0.358  0.0739 -0.4008  0.3349
   81SOL     OW  321   1.899   1.903   0.265  0.1002  0.3329  0.0836
   81SOL    HW1  322   1.863   1.836   0.207 -0.3155  0.8509  2.0300
   81SOL    HW2  323   1.827   1.975   0.257 -1.7838 -1.3698 -0.7895
   81SOL     MW  324   1.885   1.904   0.256 -0.2032  0.1766  0.2252
   82SOL     OW  325   0.824   1.041   0.535 -0.1570 -0.2322 -1.1137
   82SOL    HW1  326   0.870   1.065   0.453  1.8441  3.5777 -2.0222
   82SOL    HW2  327   0.796   0.956   0.511 -0.0377  2.8324 -0.4710
   82SOL     MW  328   0.827   1.033   0.521  0.1228  0.6748 -1.1488
   83SOL     OW  329   0.160   0.624   1.342 -0.0718  0.5327 -0.5482
   83SOL    HW1  330   0.131   0.714   1.346  2.5097 -1.2714  0.6533
   83SOL    HW2  331   0.223   0.598   1.412  1.8183  0.3324  1.7457
   83SOL     MW  332   0.165   0.632   1.352  0.5182  0.2683 -0.0870
   84SOL     OW  333   0.085   0.246   0.950 -0.2135 -0.5523 -0.6681
   84SOL    HW1  334   0.015   0.298   0.907 -1.2066  1.9387 -0.1962
   84SOL    HW2  335   0.047   0.202   1.028 -1.5553  1.0180 -0.4953
   84SOL     MW  336   0.071   0.247   0.955 -0.5216 -0.0165 -0.5831
   85SOL     OW  337   0.438   0.440   0.771 -0.2051 -0.3615 -0.2332
   85SOL    HW1  338   0.412   0.477   0.687 -1.8181  2.5497 -1.5597
   85SOL    HW2  339   0.414   0.351   0.778  2.9711 -1.5117  2.3376
   85SOL     MW  340   0.432   0.433   0.761  0.0011 -0.1292 -0.0691
   86SOL     OW  341   1.207   0.411   1.113  0.6254  0.0317 -0.8820
   86SOL    HW1  342   1.160   0.480   1.069 -1.5156 -0.5862  0.1822
   86SOL    HW2  343   1.175   0.415   1.206 -0.1470 -0.2154 -1.5946
   86SOL     MW  344   1.196   0.421   1.120  0.2410 -0.0824 -0.8356
   87SOL     OW  345   1.203   1.503   1.219 -0.1625 -0.0974 -0.6657
   87SOL    HW1  346   1.233   1.554   1.143 -0.2691  0.0414  0.9999
   87SOL    HW2  347   1.221   1.413   1.193  0.2154  2.3349  1.0123
   87SOL     MW  348   1.209   1.498   1.205 -0.1267  0.2418 -0.2245
   88SOL     OW  349   1.271   1.008   1.008 -0.5758  0.1360  0.1696
   88SOL    HW1  350   1.365   1.023   1.032 -0.9504 -0.5534  1.1293
   88SOL    HW2  351   1.220   1.073   1.053  1.6519  1.3814 -0.8517
   88SOL     MW  352   1.277   1.018   1.017 -0.3313  0.2094  0.1615
   89SOL     OW  353   1.741   0.659   0.349  0.7983  0.1331 -0.3806
   89SOL    HW1  354   1.784   0.578   0.334  1.3247  1.2062  1.0166
   89SOL    HW2  355   1.806   0.716   0.304  0.4005 -0.3114 -2.0801
   89SOL     MW  356   1.755   0.656   0.341  0.8153  0.2160 -0.4205
   90SOL     OW  357   0.691   1.203   2.790  0.8964 -0.2403 -0.2595
   90SOL    HW1  358   0.741   1.127   2.752 -2.4623 -1.8530 -1.3583
   90SOL    HW2  359   0.728   1.206   2.884 -0.5334  0.3405  1.6785
   90SOL     MW  360   0.702   1.193   2.797  0.2646 -0.3764 -0.1488
   91SOL     OW  361   2.141   0.678   0.575  0.7770  0.2992  0.5142
   91SOL    HW1  362   2.099   0.760   0.555  3.1590 -1.3764 -0.5187
   91SOL    HW2  363   2.091   0.613   0.527  0.4122  2.6345  0.5473
   91SOL     MW  364   2.129   0.680   0.566  1.0432  0.3862  0.3823
   92SOL     OW  365   1.589   0.864   0.453  0.9190  0.0978  0.2669
   92SOL    HW1  366   1.494   0.839   0.464 -1.9629 -0.0185 -2.2161
   92SOL    HW2  367   1.627   0.785   0.416  0.4860  2.1124  0.5741
   92SOL     MW  368   1.581   0.850   0.449  0.4817  0.3483 -0.0202
   93SOL     OW  369   1.051   0.319   0.343 -0.0014  0.0625 -0.0246
   93SOL    HW1  370   0.991   0.392   0.350 -1.5325 -0.9530  0.8430
   93SOL    HW2  371   1.092   0.331   0.256  1.6400 -0.9131 -2.2220
   93SOL     MW  372   1.048   0.330   0.333  0.0131 -0.2002 -0.2000
   94SOL     OW  373   1.915   1.336   1.625  0.5531  0.7711 -0.5766
   94SOL    HW1  374   1.926   1.346   1.526 -2.7240  2.4505 -1.4128
   94SOL    HW2  375   1.888   1.241   1.634 -1.6729 -2.4907  0.2829
   94SOL     MW  376   1.913   1.325   1.613 -0.1730  0.5623 -0.5735
   95SOL     OW  377   0.765   1.507   0.937 -0.5158 -0.0725 -0.1395
   95SOL    HW1  378   0.825   1.436   0.919 -0.8770 -3.0609 -2.2107
   95SOL    HW2  379   0.734   1.496   1.029 -2.3994 -0.9030 -2.0979
   95SOL     MW  380   0.769   1.496   0.947 -0.8120 -0.5764 -0.6712
   96SOL     OW  381   1.238   1.807   1.573 -0.5365 -0.1486  0.0659
   96SOL    HW1  382   1.159   1.754   1.601  2.6311 -0.5759 -0.6214
   96SOL    HW2  383   1.270   1.780   1.491 -1.0286  2.8698  0.9795
   96SOL     MW  384   1.232   1.797   1.566 -0.1835  0.1933  0.0957
   97SOL     OW  385   1.216   1.398   0.784 -0.4533  0.0423 -0.2675
   97SOL    HW1  386   1.260   1.452   0.850  0.9937 -0.2924  1.2157
   97SOL    HW2  387   1.149   1.452   0.748 -2.1840  1.6852 -0.0681
   97SOL     MW  388   1.213   1.412   0.788 -0.4908  0.2149 -0.0455
   98SOL     OW  389   1.490   1.323   1.098 -0.3331 -0.4782 -0.4870
   98SOL    HW1  390   1.534   1.370   1.170 -0.7068 -1.6909 -0.4830
   98SOL    HW2  391   1.531   1.358   1.020 -1.5748 -0.1201  0.6488
   98SOL     MW  392   1.502   1.334   1.097 -0.5462 -0.5910 -0.3366
   99SOL     OW  393   1.513   0.363   1.278 -0.1451  0.5956  0.0902
   99SOL    HW1  394   1.519   0.433   1.210 -0.8851  3.5589 -0.8997
   99SOL    HW2  395   1.490   0.400   1.360 -1.9137  1.0434 -0.7817
   99SOL     MW  396   1.511   0.377   1.280 -0.4760  1.0456 -0.1554
  100SOL     OW  397   1.026   1.074   1.429 -0.1128  0.0967  0.0086
  100SOL    HW1  398   0.969   1.122   1.488 -1.0637  0.6570  0.6821
  100SOL    HW2  399   1.026   0.981   1.461 -2.5375  1.2887  0.0184
  100SOL     MW  400   1.018   1.068   1.441 -0.5582  0.3279  0.0988
  101SOL     OW  401   0.591   1.124   0.250 -0.3826 -0.3310 -0.1038
  101SOL    HW1  402   0.564   1.040   0.294  0.1338 -0.1102 -0.3214
  101SOL    HW2  403   0.551   1.115   0.162 -0.7935  0.0797  1.3978
  101SOL     MW  404   0.582   1.111   0.244 -0.3687 -0.2477  0.0656
  102SOL     OW  405   2.947   0.600   1.008  0.0918  0.4202  0.0958
  102SOL    HW1  406   3.004   0.682   0.992 -0.7554  1.8535 -0.5911
  102SOL    HW2  407   2.988   0.552   1.079 -2.6790  1.2448 -1.3230
  102SOL     MW  408   2.960   0.604   1.015 -0.3856  0.7181 -0.1820
  103SOL     OW  409   1.658   0.400   1.869  0.5680  0.1531 -0.0024
  103SOL    HW1  410   1.612   0.342   1.805  1.2538  1.2746  2.6014
  103SOL    HW2  411   1.730   0.353   1.907 -1.6592 -0.0505  0.9621
  103SOL     MW  412   1.661   0.386   1.866  0.3646  0.2742  0.4684
  104SOL     OW  413   0.178   1.846   1.412 -0.4541 -0.5588  0.1642
  104SOL    HW1  414   0.264   1.795   1.424  2.7887  0.6277 -0.3118
  104SOL    HW2  415   0.130   1.802   1.345 -0.4604  3.5484  1.5983
  104SOL     MW  416   0.183   1.834   1.405 -0.0270  0.1397  0.2906
  105SOL     OW  417   0.154   1.202   0.558 -0.2391  0.9754 -0.0930
  105SOL    HW1  418   0.176   1.122   0.511 -2.2541 -1.6522 -0.4364
  105SOL    HW2  419   0.226   1.271   0.552 -1.4253  2.8239  0.5807
  105SOL     MW  420   0.166   1.201   0.551 -0.6614  0.8726 -0.0494
  106SOL     OW  421   0.824   0.314   0.940  0.3609  0.0042 -0.2007
  106SOL    HW1  422   0.769   0.392   0.916 -0.4536 -2.0397  1.4363
  106SOL    HW2  423   0.916   0.329   0.912  0.4417  0.6691  1.1423
  106SOL     MW  424   0.829   0.326   0.933  0.2641 -0.1777  0.1925
  107SOL     OW  425   0.844   2.187   2.991  0.0024 -0.1601 -0.4072
  107SOL    HW1  426   0.798   2.125   2.937 -1.1324  2.7162 -0.0424
  107SOL    HW2  427   0.839   2.163   3.082  2.0565  0.9731  0.0061
  107SOL     MW  428   0.838   2.176   2.996  0.1237  0.3689 -0.3045
  108SOL     OW  429   1.372   1.631   1.418  0.3197 -0.0309 -0.2929
  108SOL    HW1  430   1.304   1.576   1.382 -2.4033  2.4630  1.0272
  108SOL    HW2  431   1.379   1.586   1.505 -0.6699 -4.0734  2.3675
  108SOL     MW  432   1.364   1.618   1.425 -0.1701 -0.2352  0.2323
  109SOL     OW  433   1.951   0.768   0.178 -0.1346 -0.4594  0.2788
  109SOL    HW1  434   1.997   0.740   0.101 -0.8890  5.5533  1.7270
  109SOL    HW2  435   2.022   0.786   0.237  0.0950 -1.4742 -0.6438
  109SOL     MW  436   1.966   0.767   0.175 -0.2038  0.2000  0.3482
  110SOL     OW  437   0.458   1.811   0.714  0.7894  0.8723 -0.0871
  110SOL    HW1  438   0.532   1.753   0.674  1.9559 -4.1476  0.4779
  110SOL    HW2  439   0.476   1.899   0.681  0.1806 -1.4294 -0.4952
  110SOL     MW  440   0.470   1.815   0.705  0.8630 -0.0937 -0.0664
  111SOL     OW  441   0.722   0.831   1.498 -0.2689  0.0258 -0.2064
  111SOL    HW1  442   0.714   0.785   1.418  1.9362  1.3819  0.3207
  111SOL    HW2  443   0.646   0.800   1.548 -0.3159 -0.5354 -0.2930
  111SOL     MW  444   0.711   0.821   1.494  0.0158  0.1306 -0.1482
  112SOL     OW  445   1.344   1.080   1.741 -0.1635  0.5208 -0.1092
  112SOL    HW1  446   1.286   1.151   1.736 -0.2586 -0.4342 -1.4496
  112SOL    HW2  447   1.297   1.001   1.736 -1.1535  2.5998  0.8705
  112SOL     MW  448   1.330   1.079   1.739 -0.3067  0.6691 -0.1568
  113SOL     OW  449   1.360   0.010   1.719 -0.2594 -0.2750  0.2285
  113SOL    HW1  450   1.354  -0.029   1.809 -1.5736 -0.2430  0.0690
  113SOL    HW2  451   1.339  -0.063   1.661  2.3614 -2.2224  1.1561
  113SOL     MW  452   1.357  -0.004   1.723 -0.0870 -0.5277  0.3299
  114SOL     OW  453   0.507   2.815   1.878  0.1003 -0.2279  0.7047
  114SOL    HW1  454   0.483   2.871   1.952 -1.5934  0.4035 -1.1690
  114SOL    HW2  455   0.440   2.837   1.815 -0.1168 -1.1740 -1.3035
  114SOL     MW  456   0.495   2.826   1.879 -0.1518 -0.2694  0.1925
  115SOL     OW  457   0.457   0.844   1.131  0.0778 -0.1269  0.0951
  115SOL    HW1  458   0.505   0.762   1.141  2.5591 -2.6065 -0.9028
  115SOL    HW2  459   0.402   0.853   1.209  1.1673  0.5577 -0.6423
  115SOL     MW  460   0.456   0.835   1.143  0.5489 -0.3637 -0.1339
  116SOL     OW  461   0.765   1.064   0.926  0.2688  0.2818  0.5954
  116SOL    HW1  462   0.832   1.095   0.865  2.3539 -0.4583 -0.0032
  116SOL    HW2  463   0.823   1.050   1.003  2.6433  1.3549  1.3689
  116SOL     MW  464   0.782   1.066   0.928  0.8572  0.3257  0.6185
  117SOL     OW  465   1.230   1.124   0.768  0.4015 -0.0560  0.2961
  117SOL    HW1  466   1.244   1.070   0.847  0.3310 -0.3732 -0.6365
  117SOL    HW2  467   1.245   1.218   0.795 -0.1571 -2.1894  1.6498
  117SOL     MW  468   1.234   1.129   0.782  0.3185 -0.3794  0.3517
  118SOL     OW  469   3.046   2.989   1.712 -0.5401  0.1662 -0.7406
  118SOL    HW1  470   3.074   3.031   1.793 -0.4865 -3.8248 -1.0459
  118SOL    HW2  471   2.954   3.016   1.708  3.1296  1.2364 -0.4918
  118SOL     MW  472   3.037   2.998   1.722 -0.0488 -0.2192 -0.7481
  119SOL     OW  473   0.536   1.337   1.217 -0.0854  0.6142  0.2067
  119SOL    HW1  474   0.513   1.328   1.129  1.4401  0.3417  1.5147
  119SOL    HW2  475   0.448   1.320   1.258  0.1456 -1.3329  1.4127
  119SOL     MW  476   0.522   1.333   1.211  0.1464  0.3214  0.5384
  120SOL     OW  477   0.191   0.701   0.941 -0.2963 -0.0157  0.2109
  120SOL    HW1  478   0.221   0.637   1.007  0.4711  1.0522  0.0506
  120SOL    HW2  479   0.265   0.750   0.919 -1.1148  0.8811  1.0525
  120SOL     MW  480   0.205   0.699   0.947 -0.3030  0.2435  0.3008
  121SOL     OW  481   1.837   1.074   1.721  0.2853  0.6576  0.3000
  121SOL    HW1  482   1.743   1.053   1.742  0.0638 -0.3994  0.7891
  121SOL    HW2  483   1.871   0.989   1.702  0.3697 -1.1088  0.1798
  121SOL     MW  484   1.829   1.060   1.721  0.2672  0.2851  0.3487
  122SOL     OW  485   0.114   0.507   0.754 -0.0590  0.3392 -0.1329
  122SOL    HW1  486   0.178   0.465   0.695 -0.1441 -0.3990 -0.5514
  122SOL    HW2  487   0.161   0.572   0.806 -0.2376 -0.1152 -0.3606
  122SOL     MW  488   0.129   0.510   0.753 -0.0938  0.1818 -0.2182
  123SOL     OW  489   1.795   1.060   0.436  0.0691  1.1123 -0.2446
  123SOL    HW1  490   1.704   1.051   0.459  0.0345 -0.9250 -1.8659
  123SOL    HW2  491   1.845   1.072   0.522  0.1976 -0.2889  1.4441
  123SOL     MW  492   1.790   1.060   0.450  0.0815  0.6586 -0.2357
  124SOL     OW  493   0.674   0.523   0.871  0.3165  0.7201  0.6339
  124SOL    HW1  494   0.590   0.492   0.827 -1.1349  1.8545 -2.5014
  124SOL    HW2  495   0.682   0.613   0.847 -0.1570  0.6917  0.5516
  124SOL     MW  496   0.664   0.530   0.862  0.0625  0.8660  0.2093
  125SOL     OW  497   0.686   1.700   1.674 -0.2579  0.0889  0.4038
  125SOL    HW1  498   0.644   1.609   1.638 -1.3047  0.1656 -2.1457
  125SOL    HW2  499   0.612   1.761   1.673  1.3293 -0.1306  1.7939
  125SOL     MW  500   0.670   1.696   1.669 -0.1866  0.0701  0.2509
  126SOL     OW  501   2.124   1.594   1.951 -0.0546  0.0354  0.1295
  126SOL    HW1  502   2.183   1.674   1.954  1.2078  0.3670  0.7218
  126SOL    HW2  503   2.171   1.513   1.986  2.2957 -2.5001  0.0831
  126SOL     MW  504   2.138   1.594   1.956  0.4220 -0.2554  0.2015
  127SOL     OW  505   0.619   0.753   1.852 -0.1152  0.5183  0.0892
  127SOL    HW1  506   0.705   0.708   1.868  3.4056 -0.0252 -0.9960
  127SOL    HW2  507   0.628   0.826   1.912 -1.2392 -1.9226 -1.6290
  127SOL     MW  508   0.632   0.757   1.862  0.2011  0.1245 -0.2807
  128SOL     OW  509   1.829   0.774   2.893  0.5307  0.8009 -0.2242
  128SOL    HW1  510   1.827   0.714   2.818  1.2192  1.3328 -0.0097
  128SOL    HW2  511   1.769   0.845   2.865  1.8635  1.0193  0.9687
  128SOL     MW  512   1.821   0.775   2.880  0.7974  0.8999 -0.0385
  129SOL     OW  513   1.498   0.970   0.187  0.5925 -0.4031 -0.2326
  129SOL    HW1  514   1.430   0.910   0.193  2.5899  1.9350  2.4217
  129SOL    HW2  515   1.538   0.959   0.271  1.1584  1.8952 -1.5985
  129SOL     MW  516   1.494   0.961   0.199  0.9307  0.2086 -0.0626
  130SOL     OW  517   0.750   1.446   0.408  0.2454 -0.3640  0.0833
  130SOL    HW1  518   0.796   1.428   0.493  0.7380  0.7420 -1.1928
  130SOL    HW2  519   0.815   1.469   0.344 -0.1561 -0.4194 -3.1552
  130SOL     MW  520   0.765   1.447   0.411  0.2574 -0.2254 -0.5124
  131SOL     OW  521   3.054   0.816   0.061 -0.2256  0.4449 -0.5769
  131SOL    HW1  522   3.049   0.879  -0.024 -2.0705 -0.4831 -2.9400
  131SOL    HW2  523   3.152   0.788   0.063 -0.2420  0.7168 -0.3184
  131SOL     MW  524   3.067   0.821   0.050 -0.4712  0.3583 -0.8546
  132SOL     OW  525   2.776   0.142   1.267  0.2495 -0.1346 -0.0490
  132SOL    HW1  526   2.807   0.130   1.176 -0.4668 -2.9720  0.2996
  132SOL    HW2  527   2.681   0.129   1.261  1.6581 -0.4236 -0.8977
  132SOL     MW  528   2.768   0.138   1.254  0.3409 -0.5471 -0.1150
  133SOL     OW  529   1.100   0.147   1.694 -0.5340 -0.6354  0.2114
  133SOL    HW1  530   1.181   0.098   1.709 -0.2945  0.0610 -2.5234
  133SOL    HW2  531   1.063   0.168   1.778  0.5477 -2.1596  1.7083
  133SOL     MW  532   1.106   0.143   1.707 -0.3597 -0.7446  0.0481
  134SOL     OW  533   1.375   2.517   1.416  0.0304 -0.0259  0.5582
  134SOL    HW1  534   1.319   2.585   1.380  0.4661 -2.1601 -0.0347
  134SOL    HW2  535   1.433   2.542   1.492  1.1102  2.3826  0.4264
  134SOL     MW  536   1.375   2.529   1.421  0.2303  0.0103  0.4626
  135SOL     OW  537   3.019   0.991   2.941 -0.7323 -0.3174 -0.4755
  135SOL    HW1  538   3.090   1.048   2.970  1.3410 -1.6402 -2.0814
  135SOL    HW2  539   2.944   1.043   2.947  3.6706 -1.7472  0.4337
  135SOL     MW  540   3.019   1.005   2.946  0.1221 -0.6806 -0.5674
  136SOL     OW  541   0.262   2.001   0.873 -0.9706 -0.4379 -0.2796
  136SOL    HW1  542   0.173   1.975   0.855 -2.0113  0.6691 -2.4108
  136SOL    HW2  543   0.329   1.945   0.829  1.1731 -0.3996 -0.9528
  136SOL     MW  544   0.259   1.990   0.865 -0.8251 -0.2868 -0.6496
  137SOL     OW  545   0.750   2.002   0.510 -0.3530  0.2082 -0.1440
  137SOL    HW1  546   0.767   1.998   0.601 -1.0877  0.9730  1.4094
  137SOL    HW2  547   0.655   2.029   0.507  0.2954  2.1381 -1.1769
  137SOL     MW  548   0.739   2.005   0.521 -0.3644  0.5637 -0.0753
  138SOL     OW  549   0.511   0.569   1.113  0.2375  0.3863  0.5105
  138SOL    HW1  550   0.425   0.542   1.077 -1.8950 -1.4842  0.8411
  138SOL    HW2  551   0.583   0.555   1.047 -0.6173  0.7692  0.5013
  138SOL     MW  552   0.509   0.563   1.100 -0.1567  0.1900  0.5529
  139SOL     OW  553   2.704   0.477   1.392 -0.6965  0.4388  0.1714
  139SOL    HW1  554   2.799   0.446   1.394  0.2491  1.6566 -5.3929
  139SOL    HW2  555   2.718   0.567   1.414  3.3625 -0.7332  0.7412
  139SOL     MW  556   2.718   0.485   1.395 -0.0362  0.4448 -0.4876
  140SOL     OW  557   0.841   0.382   2.091 -0.0356  0.0881  0.0377
  140SOL    HW1  558   0.902   0.341   2.029 -0.0210 -1.0062  0.7819
  140SOL    HW2  559   0.882   0.399   2.173 -0.9834  0.2754 -1.6492
  140SOL     MW  560   0.854   0.379   2.094 -0.1587 -0.0316 -0.0867
  141SOL     OW  561   1.030   0.586   1.734  0.2598 -0.0618  0.2181
  141SOL    HW1  562   1.083   0.505   1.711 -1.5541 -1.0281  0.9346
  141SOL    HW2  563   1.097   0.657   1.748  1.1789 -2.5613 -0.1869
  141SOL     MW  564   1.046   0.584   1.732  0.1417 -0.5191  0.2592
  142SOL     OW  565   0.954   1.143   0.744  0.0598  0.0586  0.1550
  142SOL    HW1  566   0.910   1.076   0.676 -3.0601 -4.7408  0.8328
  142SOL    HW2  567   1.042   1.111   0.773 -0.4987  2.8297 -1.2748
  142SOL     MW  568   0.960   1.130   0.739 -0.4255 -0.2090  0.0558
  143SOL     OW  569   1.810   0.851   1.103 -0.3653 -0.7444 -0.0564
  143SOL    HW1  570   1.804   0.821   1.014 -2.6639 -0.9321 -0.6508
  143SOL    HW2  571   1.785   0.779   1.160 -1.1778 -1.0293  1.7393
  143SOL     MW  572   1.806   0.837   1.099 -0.7758 -0.8068  0.1021
  144SOL     OW  573   0.216   1.157   1.524  0.2918  0.2624  0.1867
  144SOL    HW1  574   0.304   1.130   1.541 -0.9235  0.9768  1.8540
  144SOL    HW2  575   0.192   1.205   1.601  0.4249  1.2180 -2.5226
  144SOL     MW  576   0.224   1.160   1.536  0.1490  0.4827  0.0492
  145SOL     OW  577   0.276   0.473   1.045 -0.1034 -0.1599 -0.7472
  145SOL    HW1  578   0.269   0.434   1.136  0.3499  0.0463 -1.2500
  145SOL    HW2  579   0.250   0.413   0.974  2.4256  4.5203  1.7182
  145SOL     MW  580   0.271   0.460   1.048  0.2901  0.4848 -0.4883
  146SOL     OW  581   0.899   1.937   1.413  0.2844  0.2167 -0.0279
  146SOL    HW1  582   0.946   1.983   1.340  1.3199  0.0434  1.5151
  146SOL    HW2  583   0.801   1.921   1.400 -3.8333 -0.9672 -1.3299
  146SOL     MW  584   0.892   1.941   1.401 -0.1223  0.0376  0.0039
  147SOL     OW  585   0.395   0.451   2.899 -0.2259  0.7991  0.3793
  147SOL    HW1  586   0.351   0.459   2.980  2.9058 -0.5646  0.2271
  147SOL    HW2  587   0.362   0.521   2.844  0.6388 -0.3236  1.9680
  147SOL     MW  588   0.385   0.461   2.902  0.3014  0.4711  0.5689
  148SOL     OW  589   0.059   0.884   1.346  0.6112 -0.9325 -0.0693
  148SOL    HW1  590   0.159   0.916   1.351  1.9220  0.1073  0.0637
  148SOL    HW2  591   0.016   0.884   1.432  2.1758 -0.9305 -1.4469
  148SOL     MW  592   0.067   0.888   1.358  0.9906 -0.7950 -0.2335
  149SOL     OW  593   1.403   1.181   1.461 -0.1961 -0.3670  0.1650
  149SOL    HW1  594   1.391   1.122   1.529  0.0376 -1.2522 -3.1500
  149SOL    HW2  595   1.480   1.242   1.485 -1.5771  2.8448  0.7928
  149SOL     MW  596   1.412   1.181   1.473 -0.3475 -0.0601 -0.1896
  150SOL     OW  597   1.816   1.297   0.799  0.3182  0.3525 -0.0054
  150SOL    HW1  598   1.835   1.206   0.784 -0.2487  1.7985  1.1340
  150SOL    HW2  599   1.897   1.325   0.845 -1.0632 -0.6518 -0.0607
  150SOL     MW  600   1.829   1.289   0.803  0.0612  0.4107  0.1376
  151SOL     OW  601   1.640   1.833   0.854 -0.1839  0.1616 -0.2435
  151SOL    HW1  602   1.604   1.800   0.772  1.8035 -1.0893  1.0803
  151SOL    HW2  603   1.589   1.786   0.929 -0.9046  1.3684 -2.4404
  151SOL     MW  604   1.629   1.822   0.853 -0.0168  0.1558 -0.3587
  152SOL     OW  605   0.778   1.343   1.509 -0.2504  0.1352 -0.3828
  152SOL    HW1  606   0.789   1.250   1.540 -1.4406  2.1183 -0.9853
  152SOL    HW2  607   0.846   1.353   1.440 -0.1120 -0.2850  0.1518
  152SOL     MW  608   0.789   1.332   1.504 -0.3892  0.3414 -0.3918
  153SOL     OW  609   2.629   1.257   0.706 -0.2614  0.6216  0.4596
  153SOL    HW1  610   2.706   1.248   0.656 -3.3441  3.7409 -2.1373
  153SOL    HW2  611   2.581   1.175   0.726  0.5631 -2.2953  0.0223
  153SOL     MW  612   2.633   1.245   0.702 -0.5594  0.6483  0.0593
  154SOL     OW  613   0.333   1.757   1.682  0.4789 -0.5279 -0.1992
  154SOL    HW1  614   0.355   1.729   1.598 -0.3901 -2.1110  0.6000
  154SOL    HW2  615   0.329   1.683   1.740  1.5123 -2.7692 -2.0991
  154SOL     MW  616   0.336   1.743   1.678  0.5006 -1.0325 -0.3444
  155SOL     OW  617   1.117   0.671   0.300  0.4039 -0.2894 -0.1990
  155SOL    HW1  618   1.101   0.636   0.387 -0.1857  1.8446  1.1945
  155SOL    HW2  619   1.067   0.754   0.311  0.5286 -0.4565  0.5322
  155SOL     MW  620   1.108   0.677   0.313  0.3426 -0.0299  0.0814
  156SOL     OW  621   1.487   3.006   1.042 -0.0638 -0.1405  0.1367
  156SOL    HW1  622   1.519   3.087   1.075  3.6085  0.0251 -3.2710
  156SOL    HW2  623   1.485   2.945   1.115  0.0981  0.8930 -1.8061
  156SOL     MW  624   1.491   3.009   1.056  0.4421  0.0177 -0.5693
  157SOL     OW  625   1.326   1.220   0.147 -0.0998  0.6180 -0.6040
  157SOL    HW1  626   1.387   1.145   0.155  1.2222 -0.0725  0.5817
  157SOL    HW2  627   1.393   1.289   0.146 -1.8442 -0.7058 -2.5439
  157SOL     MW  628   1.343   1.219   0.148 -0.1555  0.3522 -0.7035
  158SOL     OW  629   0.447   1.650   2.241  0.9224 -0.2735 -0.4678
  158SOL    HW1  630   0.441   1.714   2.170 -0.6621 -1.3301 -0.4581
  158SOL    HW2  631   0.363   1.666   2.283  1.3176 -2.5973 -1.0006
  158SOL     MW  632   0.435   1.661   2.237  0.7655 -0.7195 -0.5368
  159SOL     OW  633   1.328   1.698   0.467  0.3548  0.1103  0.3037
  159SOL    HW1  634   1.298   1.612   0.449  1.0293  1.7063 -0.0025
  159SOL    HW2  635   1.238   1.736   0.496 -1.3464  2.6450  2.3181
  159SOL     MW  636   1.312   1.692   0.468  0.2193  0.6553  0.5291
  160SOL     OW  637   0.498   1.095   1.541  0.6017 -0.0744 -0.1537
  160SOL    HW1  638   0.508   1.022   1.601 -0.4306  0.6551  0.1733
  160SOL    HW2  639   0.530   1.159   1.603 -0.7676 -2.5415  0.0840
  160SOL     MW  640   0.504   1.094   1.557  0.2848 -0.3036 -0.0792
  161SOL     OW  641   0.548   2.127   2.673  0.0715 -0.1390 -0.6079
  161SOL    HW1  642   0.461   2.151   2.702  2.3583  1.6100  2.4181
  161SOL    HW2  643   0.546   2.107   2.581 -0.4907  0.0788  3.6640
  161SOL     MW  644   0.536   2.128   2.665  0.2990  0.1205  0.3550
  162SOL     OW  645   0.986   1.695   1.752 -0.1213  0.1780 -0.4421
  162SOL    HW1  646   1.036   1.778   1.775 -2.0139 -3.1721 -0.4488
  162SOL    HW2  647   0.906   1.706   1.794  0.4068  1.6332 -1.7476
  162SOL     MW  648   0.982   1.707   1.761 -0.3013 -0.0720 -0.6153
  163SOL     OW  649   2.122   0.174   0.981 -0.3008 -0.8234  0.3569
  163SOL    HW1  650   2.110   0.151   0.887  0.6459 -2.6796 -2.9704
  163SOL    HW2  651   2.079   0.099   1.025  2.0969 -0.6056 -0.1897
  163SOL     MW  652   2.115   0.161   0.974  0.1405 -1.0395 -0.1543
  164SOL     OW  653   0.259   0.225   0.730  0.7403  0.1131 -0.4957
  164SOL    HW1  654   0.194   0.208   0.798  0.0914 -1.3004  0.2333
  164SOL    HW2  655   0.277   0.136   0.701 -1.6361 -1.4949 -2.0490
  164SOL     MW  656   0.253   0.211   0.735  0.3411 -0.2856 -0.6044
  165SOL     OW  657   1.367   1.236   0.423  0.3409  0.1858  0.0651
  165SOL    HW1  658   1.323   1.157   0.451 -2.3510  1.8529  1.5168
  165SOL    HW2  659   1.356   1.227   0.324 -4.9103  0.2803 -0.8268
  165SOL     MW  660   1.360   1.224   0.414 -0.7071  0.4182  0.1390
  166SOL     OW  661   0.489   1.044   0.942  0.0731  0.4226 -0.4182
  166SOL    HW1  662   0.474   0.961   0.989  1.7061 -1.6679  1.3075
  166SOL    HW2  663   0.581   1.059   0.948 -0.2488 -0.9547 -2.9049
  166SOL     MW  664   0.499   1.035   0.949  0.2461 -0.0349 -0.5186
  167SOL     OW  665   0.886   1.154   0.276 -0.3291  0.0610  0.3926
  167SOL    HW1  666   0.790   1.149   0.272 -3.2627  1.1135  0.2166
  167SOL    HW2  667   0.923   1.213   0.201  0.7923  2.2166  2.2020
  167SOL     MW  668   0.879   1.161   0.265 -0.5682  0.4843  0.6081
  168SOL     OW  669   1.701   1.731   2.883  0.5840 -0.4060  0.4684
  168SOL    HW1  670   1.635   1.791   2.909 -0.3848 -0.5563 -1.6089
  168SOL    HW2  671   1.690   1.652   2.927 -1.8865  3.6578  0.7360
  168SOL     MW  672   1.691   1.729   2.892  0.1302  0.1103  0.2296
  169SOL     OW  673   0.315   0.952   1.346 -0.1261 -0.0560 -0.1609
  169SOL    HW1  674   0.390   0.948   1.407  1.0355  0.9584  0.4406
  169SOL    HW2  675   0.336   1.036   1.309 -2.6418 -0.2418  1.5840
  169SOL     MW  676   0.327   0.963   1.349 -0.3048  0.0533  0.1487
  170SOL     OW  677   1.070   1.479   1.467 -0.3765 -0.0640  0.7011
  170SOL    HW1  678   0.994   1.546   1.452 -0.5638 -0.7272 -0.1038
  170SOL    HW2  679   1.118   1.462   1.387  2.3761  0.7670 -2.4670
  170SOL     MW  680   1.066   1.485   1.455 -0.0380 -0.0419  0.1769
  171SOL     OW  681   0.597   1.375   0.692  0.1362 -0.2629 -0.3346
  171SOL    HW1  682   0.568   1.355   0.780 -0.3466  0.5676 -3.5037
  171SOL    HW2  683   0.577   1.291   0.648 -2.0083 -0.7397  0.0484
  171SOL     MW  684   0.591   1.361   0.698 -0.2105 -0.2162 -0.7022
  172SOL     OW  685   0.857   0.313   1.227  0.0939 -0.0804  0.4000
  172SOL    HW1  686   0.845   0.334   1.128 -0.1359 -1.3388 -2.3078
  172SOL    HW2  687   0.769   0.328   1.270 -1.1307 -1.9722  2.2537
  172SOL     MW  688   0.844   0.318   1.219 -0.0980 -0.4960  0.2873
  173SOL     OW  689   0.480   1.715   0.349 -0.0417 -0.1307  0.0977
  173SOL    HW1  690   0.492   1.614   0.331  2.0614 -0.8478 -1.6660
  173SOL    HW2  691   0.493   1.726   0.445  0.6504  0.4870 -1.1125
  173SOL     MW  692   0.483   1.703   0.359  0.3271 -0.1438 -0.2946
  174SOL     OW  693   2.005   0.928   1.451  0.2686 -0.2144 -0.8111
  174SOL    HW1  694   1.923   0.892   1.492 -3.4575  0.8280 -1.0693
  174SOL    HW2  695   1.963   0.975   1.377  0.1446 -2.8349  1.3299
  174SOL     MW  696   1.989   0.930   1.447 -0.2394 -0.4226 -0.5627
  175SOL     OW  697   0.467   1.464   0.314  0.0133 -0.1293 -0.7262
  175SOL    HW1  698   0.456   1.432   0.221  0.4013 -0.6418 -1.1940
  175SOL    HW2  699   0.551   1.439   0.343 -1.1832 -1.7925  2.1197
  175SOL     MW  700   0.477   1.457   0.306 -0.0934 -0.4164 -0.4125
  176SOL     OW  701   0.257   1.255   1.227 -0.3213  0.3341  0.5585
  176SOL    HW1  702   0.200   1.271   1.151  1.6736 -2.3827  2.1532
  176SOL    HW2  703   0.204   1.220   1.304 -2.6232 -3.9710  1.9663
  176SOL     MW  704   0.243   1.252   1.227 -0.3618 -0.5923  0.9547
  177SOL     OW  705   0.620   0.368   1.338 -0.8179 -0.6647  0.3780
  177SOL    HW1  706   0.578   0.409   1.258  1.3305 -2.0807  0.6514
  177SOL    HW2  707   0.609   0.431   1.415 -1.9100 -1.6732 -0.4117
  177SOL     MW  708   0.613   0.382   1.338 -0.6786 -0.9846  0.3099
  178SOL     OW  709   3.068   0.422   2.904  0.1645  0.0591  0.0212
  178SOL    HW1  710   3.024   0.436   2.991  0.1617  1.9092 -0.6999
  178SOL    HW2  711   2.996   0.437   2.849  0.9535  0.6425  1.0715
  178SOL     MW  712   3.053   0.426   2.908  0.2683  0.3802  0.0647
  179SOL     OW  713   1.643   1.295   1.480 -0.1107 -0.2891 -0.6692
  179SOL    HW1  714   1.642   1.327   1.569 -1.5397  1.0395  1.5318
  179SOL    HW2  715   1.722   1.330   1.446 -0.1175  0.4614 -0.6495
  179SOL     MW  716   1.654   1.304   1.487 -0.3001 -0.0148 -0.3762
  180SOL     OW  717   2.983   0.185   0.443 -0.0711 -0.8571  0.0380
  180SOL    HW1  718   2.964   0.211   0.349  1.0928  0.3334 -2.1773
  180SOL    HW2  719   3.045   0.262   0.469 -0.4702  0.2270  1.1201
  180SOL     MW  720   2.989   0.199   0.434  0.0298 -0.5570 -0.1115
  181SOL     OW  721   1.124   1.460   3.033  0.5323 -0.0853 -0.6433
  181SOL    HW1  722   1.177   1.437   3.109  0.0794  0.5917 -0.2114
  181SOL    HW2  723   1.192   1.458   2.967  1.9488 -0.6440 -0.8140
  181SOL     MW  724   1.140   1.457   3.034  0.6595 -0.0697 -0.6089
  182SOL     OW  725   0.469   0.847   1.653  0.7759  0.7280  0.2271
  182SOL    HW1  726   0.380   0.831   1.693  0.0120  0.8212  0.0924
  182SOL    HW2  727   0.526   0.803   1.716  0.3697  0.1391  0.3065
  182SOL     MW  728   0.465   0.839   1.667  0.6215  0.6626  0.2198
  183SOL     OW  729   1.562   1.514   1.290 -0.9148  0.0659  0.0165
  183SOL    HW1  730   1.500   1.582   1.327 -0.1725 -0.3832  2.6626
  183SOL    HW2  731   1.572   1.455   1.363 -0.2006 -0.5010  1.3314
  183SOL     MW  732   1.555   1.515   1.304 -0.7226 -0.0682  0.5391
  184SOL     OW  733   0.849   0.653   1.966 -0.1952  0.1512 -0.6564
  184SOL    HW1  734   0.918   0.656   1.906 -1.4815 -0.5742 -1.4137
  184SOL    HW2  735   0.852   0.570   2.013 -1.8017  4.1441 -2.3380
  184SOL     MW  736   0.858   0.642   1.964 -0.5769  0.5823 -0.9782
  185SOL     OW  737   1.121   0.947   1.973  1.2804  0.0537  0.2066
  185SOL    HW1  738   1.151   0.863   2.001  1.8335  0.2243 -2.2729
  185SOL    HW2  739   1.193   1.000   2.003  0.1477 -2.0128 -1.7650
  185SOL     MW  740   1.135   0.943   1.980  1.2039 -0.1964 -0.3806
  186SOL     OW  741   0.398   1.677   1.402  0.2912 -0.0976  0.2018
  186SOL    HW1  742   0.446   1.748   1.356 -0.4435 -0.7160 -0.5935
  186SOL    HW2  743   0.330   1.647   1.344 -1.2617 -0.4707  1.8043
  186SOL     MW  744   0.396   1.682   1.388 -0.0106 -0.2284  0.3083
  187SOL     OW  745   1.493   0.710   1.447 -0.2910  0.2887  0.2943
  187SOL    HW1  746   1.491   0.748   1.537  0.1454  2.1343  0.1446
  187SOL    HW2  747   1.400   0.710   1.412 -0.3150  2.0803  0.6987
  187SOL     MW  748   1.481   0.715   1.454 -0.2366  0.7686  0.3279
  188SOL     OW  749   1.925   1.044   0.710  0.0437 -0.0608 -0.0390
  188SOL    HW1  750   1.943   0.955   0.741 -0.9069 -2.1426  0.0649
  188SOL    HW2  751   2.012   1.079   0.686 -2.4435  0.9180  2.8801
  188SOL     MW  752   1.939   1.037   0.711 -0.4099 -0.2064  0.3598
  189SOL     OW  753   0.674   0.779   0.796  0.0850  0.3654  0.2580
  189SOL    HW1  754   0.609   0.825   0.749  0.6221  2.7313 -0.3482
  189SOL    HW2  755   0.717   0.854   0.836 -0.5097 -1.6840  0.6373
  189SOL     MW  756   0.671   0.795   0.795  0.0774  0.4072  0.2281
  190SOL     OW  757   1.857   0.261   1.983 -0.0467 -0.1882  0.0231
  190SOL    HW1  758   1.889   0.168   1.976 -1.9989 -2.5980  1.7269
  190SOL    HW2  759   1.919   0.307   1.926 -1.0798 -1.2766  3.0555
  190SOL     MW  760   1.869   0.255   1.974 -0.4406 -0.6497  0.6480
  191SOL     OW  761   1.581   0.951   1.328 -1.1826  0.2989 -0.1794
  191SOL    HW1  762   1.525   1.022   1.354 -2.5086  1.4352 -1.7816
  191SOL    HW2  763   1.535   0.875   1.364 -0.1261  0.8855  0.4718
  191SOL     MW  764   1.568   0.950   1.336 -1.2182  0.5262 -0.3049
  192SOL     OW  765   0.725   1.975   2.814 -0.5735  0.1173 -0.3258
  192SOL    HW1  766   0.674   2.042   2.762 -0.9071 -0.8144  2.3091
  192SOL    HW2  767   0.657   1.909   2.832 -0.0729 -0.7980  0.6336
  192SOL     MW  768   0.709   1.975   2.810 -0.5514 -0.1264  0.1484
  193SOL     OW  769   0.991   1.622   0.738 -0.9087  0.8207  0.0682
  193SOL    HW1  770   0.947   1.671   0.805  3.0863  0.6632 -1.7472
  193SOL    HW2  771   0.941   1.540   0.718 -0.4058 -1.7207  1.1812
  193SOL     MW  772   0.979   1.618   0.744 -0.3152  0.4646 -0.0245
  194SOL     OW  773   0.471   1.321   0.935 -0.0260 -1.1746 -0.2905
  194SOL    HW1  774   0.454   1.227   0.961 -0.5989 -1.6993 -1.3735
  194SOL    HW2  775   0.392   1.356   0.894 -3.0176  0.0429 -1.4746
  194SOL     MW  776   0.458   1.313   0.933 -0.4963 -1.0832 -0.5896
  195SOL     OW  777   1.281   1.133   2.995  0.1245 -0.4889 -0.1099
  195SOL    HW1  778   1.283   1.165   3.085 -0.7531 -0.4147  2.3437
  195SOL    HW2  779   1.213   1.066   3.002 -0.0317 -0.6129  0.2028
  195SOL     MW  780   1.273   1.128   3.008 -0.0119 -0.4954  0.2551
  196SOL     OW  781   2.188   1.091   0.658  0.2821 -0.4093 -0.8090
  196SOL    HW1  782   2.172   1.042   0.578 -0.9320 -1.2839  1.2197
  196SOL    HW2  783   2.185   1.185   0.648 -3.4679 -1.5670  1.0046
  196SOL     MW  784   2.186   1.097   0.646 -0.3728 -0.6774 -0.3021
  197SOL     OW  785   0.592   1.250   1.999  0.0274  0.4067  0.0842
  197SOL    HW1  786   0.629   1.157   2.005 -1.5328  0.4043  1.3651
  197SOL    HW2  787   0.560   1.253   1.913 -0.1640  0.7035  3.7577
  197SOL     MW  788   0.593   1.238   1.988 -0.2037  0.4455  0.7379
  198SOL     OW  789   2.924   1.427   1.002 -0.0465  0.7058 -0.0498
  198SOL    HW1  790   2.909   1.523   0.986  0.0909  3.7289 -1.6718
  198SOL    HW2  791   2.840   1.383   0.965  0.9906  0.1193 -4.0151
  198SOL     MW  792   2.911   1.434   0.995  0.1084  1.0273 -0.7870
  199SOL     OW  793   0.493   1.290   1.751 -0.3628  0.1987  0.6277
  199SOL    HW1  794   0.404   1.286   1.784  2.3819 -1.4675 -1.3109
  199SOL    HW2  795   0.503   1.381   1.718  1.0940  1.7225 -1.8501
  199SOL     MW  796   0.483   1.301   1.751  0.1916  0.1799  0.0450
  200SOL     OW  797   1.903   0.016   1.364  0.0545 -0.2174 -1.0335
  200SOL    HW1  798   1.929   0.019   1.273 -1.7261 -0.9213  1.0553
  200SOL    HW2  799   1.816  -0.027   1.378 -0.0397  0.3824  2.3694
  200SOL     MW  800   1.895   0.011   1.354 -0.1928 -0.2312 -0.3089
  201SOL     OW  801   1.098   0.304   0.821 -0.1488 -0.4634 -0.3753
  201SOL    HW1  802   1.101   0.214   0.837  2.5189  2.7498 -0.6245
  201SOL    HW2  803   1.058   0.306   0.737  0.9559  1.5866  3.8883
  201SOL     MW  804   1.093   0.292   0.812  0.3489  0.2310  0.1544
  202SOL     OW  805   1.545   1.658   1.028 -0.0844  0.1165 -0.2896
  202SOL    HW1  806   1.557   1.574   0.978 -1.1259  1.1856  1.1386
  202SOL    HW2  807   1.575   1.633   1.117 -0.0048 -1.0070  0.5428
  202SOL     MW  808   1.551   1.644   1.033 -0.2113  0.1093  0.0086
  203SOL     OW  809   0.000   0.474   1.184  0.1213  0.6925 -0.1648
  203SOL    HW1  810   0.052   0.426   1.115 -0.7795 -1.2928 -0.3770
  203SOL    HW2  811   0.062   0.536   1.227 -0.4888 -1.4271  0.7840
  203SOL     MW  812   0.015   0.476   1.180 -0.0780  0.1509 -0.0676
  204SOL     OW  813   1.064   1.749   0.522 -0.1776 -0.2019  0.3292
  204SOL    HW1  814   1.054   1.680   0.589  0.6084 -0.0346 -1.4281
  204SOL    HW2  815   0.975   1.738   0.483  0.0708  1.2590  0.1541
  204SOL     MW  816   1.051   1.739   0.525 -0.0411  0.0130  0.0742
  205SOL     OW  817   1.387   0.098   1.344 -0.5613  0.1176 -0.4771
  205SOL    HW1  818   1.318   0.105   1.283 -0.0407  1.1381  2.7017
  205SOL    HW2  819   1.418   0.189   1.349 -1.7223  1.7081  0.5192
  205SOL     MW  820   1.382   0.111   1.337 -0.6458  0.4621  0.0737
  206SOL     OW  821   0.443   3.073   1.415 -0.4125  0.4914 -0.1325
  206SOL    HW1  822   0.400   3.061   1.332 -1.7578 -0.5853  4.2317
  206SOL    HW2  823   0.508   3.006   1.427 -1.3408  0.7605  1.5267
  206SOL     MW  824   0.446   3.062   1.405 -0.7125  0.3849  0.6623
  207SOL     OW  825   0.955   1.528   0.245 -0.4617 -0.7554 -0.3057
  207SOL    HW1  826   0.968   1.622   0.223 -0.8737  0.2313  0.3070
  207SOL    HW2  827   1.043   1.489   0.282 -0.3368 -0.2488 -0.4795
  207SOL     MW  828   0.968   1.535   0.247 -0.4996 -0.5584 -0.2478
  208SOL     OW  829   0.685   1.571   1.218  0.0068  0.3371  0.3338
  208SOL    HW1  830   0.737   1.587   1.291  0.8009  0.3187  0.5263
  208SOL    HW2  831   0.618   1.504   1.234  0.1124  0.3244  1.5110
  208SOL     MW  832   0.683   1.564   1.230  0.1255  0.3330  0.5145
  209SOL     OW  833   1.531   0.549   2.819  0.7078 -0.0273  0.2792
  209SOL    HW1  834   1.567   0.623   2.862  1.1430 -0.7950 -2.0408
  209SOL    HW2  835   1.589   0.480   2.835 -1.8830  2.1976 -1.7430
  209SOL     MW  836   1.543   0.550   2.827  0.4234  0.1649 -0.2937
  210SOL     OW  837   1.601   1.447   0.871  0.2725  0.7421  0.0653
  210SOL    HW1  838   1.681   1.395   0.849 -0.8832 -0.3189 -0.4944
  210SOL    HW2  839   1.542   1.418   0.801  0.3392 -0.5318 -2.2383
  210SOL     MW  840   1.604   1.436   0.859  0.1288  0.4340 -0.3125
  211SOL     OW  841   1.727   0.474   0.932  0.1194 -0.1623 -0.0768
  211SOL    HW1  842   1.695   0.466   0.845  0.2287 -0.1500  2.3605
  211SOL    HW2  843   1.818   0.472   0.934  0.2614 -2.4412 -2.1942
  211SOL     MW  844   1.735   0.473   0.921  0.1526 -0.4614 -0.0346
  212SOL     OW  845   0.247   1.115   0.083 -0.5052  0.2395 -0.0497
  212SOL    HW1  846   0.223   1.101   0.177  0.6314  1.3929  1.6700
  212SOL    HW2  847   0.322   1.058   0.066 -0.3426  0.2470  0.0178
  212SOL     MW  848   0.254   1.106   0.093 -0.3338  0.3927  0.1861
  213SOL     OW  849   0.430   1.692   3.075 -0.7486  0.7342  0.0845
  213SOL    HW1  850   0.478   1.753   3.131  0.0094  0.3527 -1.3539
  213SOL    HW2  851   0.435   1.734   2.989  1.5900  0.8616 -1.7648
  213SOL     MW  852   0.437   1.706   3.071 -0.3401  0.7006 -0.3493
  214SOL     OW  853   0.657   0.237   2.257  0.3630  0.3279 -0.4077
  214SOL    HW1  854   0.577   0.285   2.260 -2.1392 -1.9788  3.5448
  214SOL    HW2  855   0.716   0.276   2.189 -0.4624  0.6536  1.2654
  214SOL     MW  856   0.654   0.249   2.248 -0.0760  0.0665  0.3345
  215SOL     OW  857   0.481   0.740   2.613  0.0926 -0.1832  0.0421
  215SOL    HW1  858   0.483   0.714   2.517  0.4527 -0.2028  1.1228
  215SOL    HW2  859   0.408   0.687   2.657  0.5750  1.3729  3.8855
  215SOL     MW  860   0.472   0.730   2.606  0.2037  0.0195  0.6918
  216SOL     OW  861   3.087   3.030   2.705  0.1422 -0.4500 -0.6744
  216SOL    HW1  862   3.030   3.002   2.778  0.0617  2.5696  2.1096
  216SOL    HW2  863   3.036   3.108   2.699 -0.3912 -1.5741 -2.8394
  216SOL     MW  864   3.073   3.036   2.714  0.0612 -0.1999 -0.5928
  217SOL     OW  865   0.953   1.242   0.026 -0.2243  0.7052  0.0103
  217SOL    HW1  866   0.983   1.152   0.004 -0.0600  0.7236  0.8389
  217SOL    HW2  867   1.020   1.313  -0.000  1.3570 -1.8796  0.8902
  217SOL     MW  868   0.966   1.239   0.019  0.0060  0.3666  0.2357
  218SOL     OW  869   0.927   1.296   2.545  0.4996  0.1813  0.7027
  218SOL    HW1  870   0.947   1.210   2.588 -0.3497 -1.8069  1.2971
  218SOL    HW2  871   1.002   1.340   2.580  1.2316 -2.6414 -3.3753
  218SOL     MW  872   0.939   1.290   2.555  0.4841 -0.4535  0.2430
  219SOL     OW  873   1.042   0.447   2.519  0.2894 -0.0316  0.1775
  219SOL    HW1  874   1.116   0.469   2.462 -0.0883 -1.5318 -0.3981
  219SOL    HW2  875   0.994   0.527   2.528 -0.6945  1.3646 -1.1651
  219SOL     MW  876   1.045   0.460   2.513  0.1097 -0.0453 -0.0756
  220SOL     OW  877   1.749   0.462   2.182  0.5856 -0.8725 -0.5339
  220SOL    HW1  878   1.678   0.507   2.131  0.5224  0.5752 -1.1141
  220SOL    HW2  879   1.774   0.398   2.119 -2.6219  2.4666 -1.3121
  220SOL     MW  880   1.743   0.460   2.167  0.1540 -0.2409 -0.7131
  221SOL     OW  881   0.398   1.338   2.894 -0.1955 -0.6968  0.1673
  221SOL    HW1  882   0.408   1.247   2.869 -0.6180 -3.2846  1.0053
  221SOL    HW2  883   0.381   1.369   2.802 -0.3935 -1.4662 -0.8339
  221SOL     MW  884   0.397   1.330   2.879 -0.2774 -1.1397  0.1458
  222SOL     OW  885   0.312   0.946   2.640 -0.4143 -0.9047 -0.1884
  222SOL    HW1  886   0.252   0.971   2.575  2.0291 -1.2320  1.5584
  222SOL    HW2  887   0.372   0.884   2.601 -1.7443  1.2190  0.6964
  222SOL     MW  888   0.312   0.941   2.626 -0.2674 -0.6677  0.1588
  223SOL     OW  889   3.089   1.999   2.602 -0.0665  0.3661 -0.3005
  223SOL    HW1  890   3.165   1.949   2.651  4.4247 -1.4408  2.2821
  223SOL    HW2  891   3.129   2.048   2.534  0.7054 -0.1609  3.3004
  223SOL     MW  892   3.104   1.999   2.599  0.6279  0.0582  0.5153
  224SOL     OW  893   1.461   0.833   2.587  0.1886  0.1485 -0.1928
  224SOL    HW1  894   1.428   0.866   2.675 -2.6061  1.3110  0.3446
  224SOL    HW2  895   1.484   0.911   2.533  0.4875  1.0742 -2.1333
  224SOL     MW  896   1.459   0.848   2.592 -0.1407  0.4240 -0.3779
  225SOL     OW  897   2.972   1.489   2.254  0.4852  0.2574  0.3166
  225SOL    HW1  898   2.989   1.568   2.201  0.6261 -2.4322 -1.0579
  225SOL    HW2  899   2.936   1.521   2.336  2.2775  2.2372 -1.3138
  225SOL     MW  900   2.969   1.504   2.258  0.7403  0.1638 -0.0799
  226SOL     OW  901   0.391   1.441   2.630  0.2646 -0.2881 -0.3380
  226SOL    HW1  902   0.486   1.444   2.620 -2.3797  3.6974 -2.0729
  226SOL    HW2  903   0.368   1.527   2.592  1.2789  1.8083  0.6532
  226SOL     MW  904   0.401   1.453   2.624  0.0495  0.5143 -0.4361
  227SOL     OW  905   0.447   1.081   2.828 -0.1736 -0.0471  0.4862
  227SOL    HW1  906   0.525   1.126   2.800 -3.4367 -2.4081  0.4968
  227SOL    HW2  907   0.402   1.046   2.745 -1.6685 -3.0018 -0.2353
  227SOL     MW  908   0.451   1.082   2.813 -0.8014 -0.7485  0.3924
  228SOL     OW  909   0.684   0.984   2.016 -0.3719 -0.7610  0.2656
  228SOL    HW1  910   0.773   1.016   2.002 -1.6437 -0.0001  0.6257
  228SOL    HW2  911   0.675   0.939   2.106  1.0659 -0.0580 -1.3011
  228SOL     MW  912   0.695   0.983   2.026 -0.3500 -0.5679  0.1064
  229SOL     OW  913   0.192   0.525   3.090 -0.5606  0.2341 -0.1442
  229SOL    HW1  914   0.107   0.556   3.062  0.5361  0.0079  2.7575
  229SOL    HW2  915   0.173   0.474   3.165  1.8334  1.5178 -2.8197
  229SOL     MW  916   0.179   0.523   3.096 -0.1000  0.3736 -0.1143
  230SOL     OW  917   1.773   1.375   2.054 -0.0671 -0.0245 -0.4179
  230SOL    HW1  918   1.740   1.362   2.147  0.8695 -2.3502  1.4110
  230SOL    HW2  919   1.825   1.298   2.049 -1.3118 -0.3563  0.6642
  230SOL     MW  920   1.776   1.363   2.065 -0.1078 -0.3751 -0.0338
  231SOL     OW  921   2.750   1.303   2.181 -0.1644  0.0954  0.9123
  231SOL    HW1  922   2.812   1.381   2.191 -0.5022  0.8986 -1.7054
  231SOL    HW2  923   2.689   1.340   2.119  2.0514  0.3534  1.6191
  231SOL     MW  924   2.750   1.318   2.174  0.0834  0.2355  0.6602
  232SOL     OW  925   2.282   0.871   2.116 -0.4148 -0.1751 -0.2826
  232SOL    HW1  926   2.211   0.897   2.057 -3.0229  0.1389  1.9215
  232SOL    HW2  927   2.230   0.884   2.198 -0.6804  0.1646 -0.6574
  232SOL     MW  928   2.266   0.876   2.119 -0.7939 -0.0889 -0.0412
  233SOL     OW  929   2.053   0.539   1.935 -0.1524 -0.4626 -0.3608
  233SOL    HW1  930   2.099   0.579   1.854  1.2666  1.1242  3.5436
  233SOL    HW2  931   2.124   0.510   1.997  0.3006  2.7464  0.2925
  233SOL     MW  932   2.069   0.540   1.932  0.0946  0.1701  0.2406
  234SOL     OW  933   0.264   1.004   2.323  0.0039  0.8024  0.3563
  234SOL    HW1  934   0.171   1.035   2.343 -0.2907 -1.9583  1.0817
  234SOL    HW2  935   0.327   1.045   2.379 -1.2420  0.8337 -0.5655
  234SOL     MW  936   0.260   1.014   2.333 -0.1994  0.4423  0.3304
  235SOL     OW  937   1.056   3.054   2.762  0.4131  0.3803 -0.4063
  235SOL    HW1  938   1.102   2.987   2.811 -0.0535  0.5472 -1.9684
  235SOL    HW2  939   1.039   3.132   2.821  1.7453 -0.9086  0.6821
  235SOL     MW  940   1.060   3.056   2.776  0.5273  0.2322 -0.4688
  236SOL     OW  941   2.933   0.537   0.032  0.1500  0.4511  0.0083
  236SOL    HW1  942   2.839   0.544  -0.000 -1.0735 -0.3910 -2.3544
  236SOL    HW2  943   2.955   0.630   0.036  1.2001  0.2172  0.7753
  236SOL     MW  944   2.924   0.550   0.028  0.1271  0.3092 -0.2023
  237SOL     OW  945   1.753   0.913   2.156  0.0836  0.8303 -0.3796
  237SOL    HW1  946   1.813   0.979   2.118  0.7214  1.0624 -1.9039
  237SOL    HW2  947   1.788   0.912   2.243 -1.9248 -0.2757 -0.9608
  237SOL     MW  948   1.766   0.922   2.163 -0.0972  0.7150 -0.6574
  238SOL     OW  949   1.065   1.737   2.958 -0.0290 -0.0222  0.1829
  238SOL    HW1  950   1.066   1.641   2.978 -0.2205 -1.0025 -0.2305
  238SOL    HW2  951   1.158   1.766   2.956 -0.3846  0.5578  1.1979
  238SOL     MW  952   1.077   1.728   2.961 -0.1012 -0.0750  0.2623
  239SOL     OW  953   1.170   1.433   2.322  0.7115  0.4859 -0.0653
  239SOL    HW1  954   1.201   1.424   2.414  1.2267  0.6557 -0.9158
  239SOL    HW2  955   1.115   1.364   2.293 -0.6232  2.6277 -0.0093
  239SOL     MW  956   1.167   1.422   2.330  0.6033  0.7909 -0.1701
  240SOL     OW  957   0.625   0.875   2.253  0.0457  0.1807 -0.1299
  240SOL    HW1  958   0.591   0.937   2.318 -3.6418  0.4886  0.7636
  240SOL    HW2  959   0.719   0.849   2.265  1.5085 -2.2108  0.1704
  240SOL     MW  960   0.633   0.880   2.263 -0.2478 -0.0942  0.0276
  241SOL     OW  961   0.635   0.335   3.014 -0.2006 -0.3091  1.0236
  241SOL    HW1  962   0.648   0.394   3.093 -0.5739  4.4229 -1.4293
  241SOL    HW2  963   0.561   0.373   2.962 -0.7503  0.1693  1.6520
  241SOL     MW  964   0.627   0.348   3.018 -0.3224  0.3783  0.7829
  242SOL     OW  965   1.495   1.769   2.302  0.0468  0.2465 -0.6391
  242SOL    HW1  966   1.450   1.822   2.367 -2.5261  0.0787  0.3572
  242SOL    HW2  967   1.432   1.714   2.256 -0.2138 -0.8901 -1.5872
  242SOL     MW  968   1.480   1.769   2.304 -0.3270  0.0744 -0.6327
  243SOL     OW  969   0.945   0.207   2.331 -0.2643 -0.0783 -0.0939
  243SOL    HW1  970   1.040   0.212   2.338  1.5129  2.6645  1.6627
  243SOL    HW2  971   0.913   0.285   2.380 -0.9888  2.1445  3.7479
  243SOL     MW  972   0.953   0.218   2.339 -0.1254  0.5768  0.6447
  244SOL     OW  973   0.214   0.722   2.311  0.2043 -0.2657  0.4292
  244SOL    HW1  974   0.199   0.812   2.310  0.8683 -3.3690 -1.9236
  244SOL    HW2  975   0.311   0.719   2.300 -0.7839  0.2803 -3.6828
  244SOL     MW  976   0.225   0.734   2.309  0.1615 -0.6031 -0.4237
  245SOL     OW  977   1.226   0.240   2.345  0.4786  0.0771  0.1205
  245SOL    HW1  978   1.268   0.153   2.346  1.8387  1.5522 -0.8535
  245SOL    HW2  979   1.256   0.283   2.426  0.4040  0.9628  0.8907
  245SOL     MW  980   1.235   0.234   2.356  0.6482  0.3886  0.0936
  246SOL     OW  981   1.262   1.170   2.090  0.0839  0.4774 -0.1856
  246SOL    HW1  982   1.194   1.133   2.150 -1.9127 -2.7725 -0.3784
  246SOL    HW2  983   1.339   1.167   2.150  0.4228  0.5008 -3.3423
  246SOL     MW  984   1.263   1.165   2.106 -0.1349  0.0517 -0.6275
  247SOL     OW  985   0.698   0.497   0.114 -0.4530 -0.3360  0.4580
  247SOL    HW1  986   0.655   0.583   0.106 -2.0146  0.2128  2.4811
  247SOL    HW2  987   0.796   0.518   0.112  0.6932 -2.9147  0.7936
  247SOL     MW  988   0.706   0.511   0.113 -0.5078 -0.6038  0.7692
  248SOL     OW  989   0.437   1.183   2.491  0.2892  0.1420  0.0622
  248SOL    HW1  990   0.471   1.243   2.422  1.2436 -0.1648 -4.0918
  248SOL    HW2  991   0.397   1.247   2.553  0.6083 -1.6936 -0.1045
  248SOL     MW  992   0.436   1.199   2.490  0.4572 -0.1407 -0.5079
  249SOL     OW  993   0.188   1.850   2.710  0.0777  0.3061  0.1332
  249SOL    HW1  994   0.153   1.769   2.665  0.6184 -2.5909  1.9139
  249SOL    HW2  995   0.183   1.821   2.803  0.7145  0.2529  0.2775
  249SOL     MW  996   0.183   1.835   2.716  0.2331 -0.0832  0.3872
  250SOL     OW  997   2.151   0.865   2.372 -0.4458 -0.1809  0.4438
  250SOL    HW1  998   2.187   0.780   2.376  1.0390 -2.5012 -1.8112
  250SOL    HW2  999   2.211   0.919   2.427 -0.5366 -0.4872 -0.7397
  250SOL     MW 1000   2.164   0.861   2.380 -0.2619 -0.5275 -0.0099
  251SOL     OW 1001   0.214   0.792   2.031  0.3839  0.1635  1.0284
  251SOL    HW1 1002   0.190   0.707   2.077  0.0167 -0.3335  0.1675
  251SOL    HW2 1003   0.213   0.770   1.934 -0.2468  1.5838 -0.9163
  251SOL     MW 1004   0.211   0.778   2.024  0.2522  0.2853  0.6582
  252SOL     OW 1005   1.699   0.995   2.844 -0.4496 -0.2244  0.7945
  252SOL    HW1 1006   1.696   1.049   2.927  1.3867  0.3967 -0.1167
  252SOL    HW2 1007   1.752   1.051   2.785  1.0938 -0.8469 -1.9278
  252SOL     MW 1008   1.706   1.009   2.847 -0.0037 -0.2246  0.3151
  253SOL     OW 1009   1.158   1.731   2.526 -0.2987  0.1938  0.0121
  253SOL    HW1 1010   1.143   1.770   2.434 -0.2519 -0.9706 -0.8499
  253SOL    HW2 1011   1.079   1.758   2.579  0.4170 -0.0236 -2.9629
  253SOL     MW 1012   1.146   1.740   2.521 -0.1981  0.0115 -0.4941
  254SOL     OW 1013   1.053   1.084   2.226 -0.5643  0.1880 -0.2817
  254SOL    HW1 1014   1.030   0.993   2.221 -1.1562  1.6765  2.4317
  254SOL    HW2 1015   0.974   1.132   2.213 -1.8620 -0.1576 -0.6311
  254SOL     MW 1016   1.040   1.078   2.224 -0.8136  0.3388  0.0302
  255SOL     OW 1017   0.838   2.430   2.204  0.1499 -0.2829 -0.1947
  255SOL    HW1 1018   0.747   2.418   2.186  1.0341 -1.4953 -2.9682
  255SOL    HW2 1019   0.842   2.420   2.301  0.3416  1.8940 -1.0857
  255SOL     MW 1020   0.826   2.427   2.215  0.2919 -0.1557 -0.6782
  256SOL     OW 1021   1.152   2.819   2.876  0.2299  0.3534 -0.2656
  256SOL    HW1 1022   1.167   2.726   2.896  1.3761 -1.4367  1.2163
  256SOL    HW2 1023   1.250   2.832   2.850  3.1277 -1.8744  1.7794
  256SOL     MW 1024   1.167   2.808   2.875  0.7635 -0.1767  0.1997
  257SOL     OW 1025   0.155   1.893   0.093  0.7394  0.2125 -0.2050
  257SOL    HW1 1026   0.157   1.829   0.162  1.3506  3.0165 -1.3184
  257SOL    HW2 1027   0.164   1.839   0.012 -1.8682  3.1324 -0.1594
  257SOL     MW 1028   0.157   1.878   0.091  0.4760  0.9677 -0.3459
  258SOL     OW 1029   0.708   1.088   2.487 -0.0395 -0.4548  0.1488
  258SOL    HW1 1030   0.757   1.135   2.416  5.0335 -0.7068 -0.5337
  258SOL    HW2 1031   0.622   1.137   2.506  1.2024 -0.6291  1.4458
  258SOL     MW 1032   0.703   1.101   2.480  0.7937 -0.5111  0.2299
  259SOL     OW 1033   0.717   0.503   2.386  0.4415  0.0581 -0.1055
  259SOL    HW1 1034   0.633   0.552   2.405  3.7785  3.1163  2.2827
  259SOL    HW2 1035   0.694   0.412   2.369  1.7969 -0.4345 -2.3637
  259SOL     MW 1036   0.703   0.497   2.387  1.0606  0.3966 -0.0884
  260SOL     OW 1037   0.600   0.120   1.584  0.3366 -0.2307 -0.7944
  260SOL    HW1 1038   0.557   0.088   1.504  0.3178  0.6422  0.6816
  260SOL    HW2 1039   0.691   0.145   1.560  0.5618 -1.3550 -2.4326
  260SOL     MW 1040   0.606   0.119   1.570  0.3639 -0.2639 -0.8158
  261SOL     OW 1041   1.175   0.688   2.081  0.6607 -0.6401 -0.0707
  261SOL    HW1 1042   1.176   0.681   2.176 -0.9584  1.7134  0.0413
  261SOL    HW2 1043   1.219   0.615   2.036  1.6493 -1.5678 -0.7782
  261SOL     MW 1044   1.181   0.678   2.088  0.5775 -0.4520 -0.1492
  262SOL     OW 1045   1.145   0.317   0.088  0.2144 -0.1636  0.3419
  262SOL    HW1 1046   1.240   0.311   0.100  1.6793 -1.0157  0.8672
  262SOL    HW2 1047   1.107   0.233   0.098  0.0959  2.2774  0.4354
  262SOL     MW 1048   1.152   0.305   0.091  0.3920  0.0460  0.4235
  263SOL     OW 1049   0.465   3.031   2.518  0.0455  0.1698 -0.5459
  263SOL    HW1 1050   0.378   3.069   2.501 -0.4603  1.5476 -1.6378
  263SOL    HW2 1051   0.508   3.047   2.433  0.5949  1.9219 -1.7830
  263SOL     MW 1052   0.459   3.038   2.504  0.0513  0.5828 -0.8532
  264SOL     OW 1053   1.539   1.317   1.914  0.2344 -0.8201 -0.3556
  264SOL    HW1 1054   1.470   1.300   1.980 -0.6844 -3.3288 -0.6392
  264SOL    HW2 1055   1.615   1.367   1.948 -1.5697  0.0292 -0.0198
  264SOL     MW 1056   1.540   1.321   1.927 -0.1249 -1.0390 -0.3487
  265SOL     OW 1057   0.670   2.654   2.267 -0.3561  0.3606  0.2453
  265SOL    HW1 1058   0.738   2.582   2.261 -0.8453 -0.1106 -1.9723
  265SOL    HW2 1059   0.692   2.694   2.345 -2.6788  0.9053 -1.1729
  265SOL     MW 1060   0.682   2.650   2.277 -0.7271  0.3703 -0.2344
  266SOL     OW 1061   0.895   0.797   2.208  0.2114  0.1773 -0.1888
  266SOL    HW1 1062   0.867   0.762   2.121  1.9811 -0.6076  1.6524
  266SOL    HW2 1063   0.954   0.736   2.250  3.1826  0.0733  0.4140
  266SOL     MW 1064   0.899   0.784   2.202  0.8369  0.0600  0.1337
  267SOL     OW 1065   1.384   1.741   2.687  0.0622 -0.4917  0.1160
  267SOL    HW1 1066   1.453   1.680   2.650  0.9452 -3.1608 -2.1322
  267SOL    HW2 1067   1.313   1.762   2.622 -2.1672 -1.1620  0.0906
  267SOL     MW 1068   1.384   1.736   2.673 -0.1155 -0.9323 -0.1840
  268SOL     OW 1069   0.228   0.751   1.755  0.3132 -0.6727  0.0134
  268SOL    HW1 1070   0.165   0.806   1.708 -2.5300  0.3008  2.6576
  268SOL    HW2 1071   0.246   0.678   1.691  2.2648  0.3523  3.0009
  268SOL     MW 1072   0.222   0.749   1.741  0.1955 -0.4090  0.7564
  269SOL     OW 1073   1.358   1.949   2.461  0.0057 -0.9262 -0.2232
  269SOL    HW1 1074   1.411   1.993   2.532 -0.9919  3.6766 -0.2981
  269SOL    HW2 1075   1.270   1.962   2.503 -4.8966  0.0344  0.1447
  269SOL     MW 1076   1.353   1.957   2.476 -0.7728 -0.1922 -0.1846
  270SOL     OW 1077   1.171   0.392   1.599  0.0764 -0.1595  0.1602
  270SOL    HW1 1078   1.165   0.303   1.631 -0.4658  0.0474 -0.4722
  270SOL    HW2 1079   1.257   0.409   1.569 -1.8890 -1.1793  1.4452
  270SOL     MW 1080   1.181   0.382   1.599 -0.2545 -0.2667  0.2463
  271SOL     OW 1081   0.826   3.028   2.397 -0.2866 -0.1609 -0.2965
  271SOL    HW1 1082   0.865   2.972   2.464  3.0249 -2.1399 -0.9636
  271SOL    HW2 1083   0.883   3.105   2.389  1.7573 -0.4095 -0.5236
  271SOL     MW 1084   0.839   3.031   2.405  0.4200 -0.4548 -0.4145
  272SOL     OW 1085   1.403   2.894   2.822  0.4560 -1.1472 -0.0456
  272SOL    HW1 1086   1.384   2.957   2.751 -1.9073 -0.5926 -4.1115
  272SOL    HW2 1087   1.432   2.950   2.896  0.2503  2.9172 -0.8200
  272SOL     MW 1088   1.404   2.910   2.822  0.1170 -0.5377 -0.6842
  273SOL     OW 1089   1.442   0.921   2.863  0.1991 -0.5208 -0.1344
  273SOL    HW1 1090   1.526   0.954   2.850  1.0513 -1.6912  0.2521
  273SOL    HW2 1091   1.390   0.990   2.899 -1.3764 -1.4788  0.3805
  273SOL     MW 1092   1.446   0.934   2.866  0.1037 -0.8016 -0.0155
  274SOL     OW 1093   1.354   0.748   0.209 -0.2693  0.2704  0.4926
  274SOL    HW1 1094   1.416   0.677   0.219  0.1469 -0.4238 -1.2048
  274SOL    HW2 1095   1.278   0.719   0.260  0.1256 -2.7594  1.1014
  274SOL     MW 1096   1.352   0.734   0.217 -0.1623 -0.2210  0.3489
  275SOL     OW 1097   1.699   0.657   1.835 -0.7844 -0.5440 -0.2015
  275SOL    HW1 1098   1.779   0.687   1.884 -0.5941 -2.9985  0.3095
  275SOL    HW2 1099   1.693   0.560   1.837 -0.2620  0.0921 -1.3936
  275SOL     MW 1100   1.709   0.648   1.842 -0.6903 -0.7839 -0.2914
  276SOL     OW 1101   0.241   1.236   1.801 -0.3427  0.5160 -0.1383
  276SOL    HW1 1102   0.295   1.157   1.824 -0.2430  1.1965 -2.0561
  276SOL    HW2 1103   0.166   1.233   1.861 -1.9914  2.3632  1.0417
  276SOL     MW 1104   0.238   1.225   1.812 -0.5471  0.8495 -0.2357
  277SOL     OW 1105   1.942   1.343   2.614  0.2006 -0.1496 -0.2770
  277SOL    HW1 1106   2.032   1.373   2.596 -2.0535  1.9265  0.4064
  277SOL    HW2 1107   1.943   1.250   2.624 -0.2082 -1.6491 -1.8600
  277SOL     MW 1108   1.954   1.334   2.613 -0.1507 -0.0735 -0.3957
  278SOL     OW 1109   1.455   0.731   1.746  0.1974 -0.1162  0.2751
  278SOL    HW1 1110   1.397   0.659   1.770  2.1070 -1.4338 -0.5948
  278SOL    HW2 1111   1.541   0.708   1.781 -0.5438 -1.0274 -0.9548
  278SOL     MW 1112   1.459   0.719   1.754  0.3516 -0.4103 -0.0019
  279SOL     OW 1113   0.531   3.097   2.225 -0.7623 -0.1600  0.2593
  279SOL    HW1 1114   0.615   3.048   2.213  1.5266  1.0290 -1.8393
  279SOL    HW2 1115   0.564   3.188   2.222  2.1107 -0.6752 -0.1956
  279SOL     MW 1116   0.547   3.103   2.223 -0.0812 -0.0711 -0.0776
  280SOL     OW 1117   1.503   1.138   2.228  0.4628 -0.4397  0.3455
  280SOL    HW1 1118   1.511   1.053   2.183  3.1049 -1.0326  0.6587
  280SOL    HW2 1119   1.519   1.113   2.325  0.5589 -0.5320  4.1533
  280SOL     MW 1120   1.506   1.123   2.235  0.8241 -0.5301  0.8892
  281SOL     OW 1121   1.292   1.342   2.818  0.0534 -0.0952 -0.1843
  281SOL    HW1 1122   1.384   1.372   2.807  0.4582 -1.9935  0.9749
  281SOL    HW2 1123   1.298   1.260   2.874 -0.1242 -0.0541  2.7629
  281SOL     MW 1124   1.305   1.335   2.824  0.0834 -0.3403  0.3575
  282SOL     OW 1125   1.137   1.295   1.693  0.0792 -0.1807  0.3851
  282SOL    HW1 1126   1.113   1.345   1.611 -0.1905  0.2340  2.2639
  282SOL    HW2 1127   1.071   1.226   1.694  0.3671 -0.0234 -2.5372
  282SOL     MW 1128   1.125   1.292   1.682  0.0816 -0.1052  0.2474
  283SOL     OW 1129   0.685   1.279   3.077 -0.0998 -0.2684  0.7441
  283SOL    HW1 1130   0.778   1.276   3.074  0.9592 -0.4640 -0.4294
  283SOL    HW2 1131   0.653   1.363   3.106 -1.7618 -4.4164  0.8141
  283SOL     MW 1132   0.693   1.290   3.081 -0.1793 -0.8415  0.5985
  284SOL     OW 1133   0.491   0.665   2.342  0.4428  0.4168 -0.6226
  284SOL    HW1 1134   0.518   0.746   2.298  0.2438 -1.9441 -1.7650
  284SOL    HW2 1135   0.497   0.594   2.273 -0.3207  3.2913 -1.6965
  284SOL     MW 1136   0.495   0.667   2.327  0.3158  0.4846 -0.9150
  285SOL     OW 1137   0.829   0.972   2.852 -1.0617 -0.7550 -0.8121
  285SOL    HW1 1138   0.887   0.992   2.775  2.3470  2.7516  0.9781
  285SOL    HW2 1139   0.779   0.895   2.843  2.7822 -0.0809  1.8498
  285SOL     MW 1140   0.830   0.965   2.841 -0.1048 -0.2034 -0.2247
  286SOL     OW 1141   1.143   1.466   2.593 -0.6933  0.2049  0.3014
  286SOL    HW1 1142   1.192   1.451   2.670 -1.2582 -1.7297  1.1493
  286SOL    HW2 1143   1.131   1.565   2.582  1.3585  0.8072  1.7446
  286SOL     MW 1144   1.148   1.477   2.602 -0.4971  0.0292  0.6037
  287SOL     OW 1145   1.014   0.923   0.344 -0.4565 -0.1722 -0.2166
  287SOL    HW1 1146   1.095   0.960   0.382 -2.2403 -1.3788  1.3684
  287SOL    HW2 1147   0.986   0.996   0.286 -0.0330 -0.6670  2.1815
  287SOL     MW 1148   1.021   0.937   0.341 -0.6360 -0.3967  0.3089
  288SOL     OW 1149   1.547   0.628   2.093 -0.0419 -0.1304  0.0117
  288SOL    HW1 1150   1.523   0.651   2.188 -1.3281 -1.6448 -1.4468
  288SOL    HW2 1151   1.547   0.718   2.053  1.1729 -0.4952 -1.4482
  288SOL     MW 1152   1.544   0.643   2.100 -0.0513 -0.3783 -0.3733
  289SOL     OW 1153   0.951   1.025   2.619 -0.0801 -0.1346 -0.1376
  289SOL    HW1 1154   1.020   0.959   2.592 -3.0012  2.4903  1.4606
  289SOL    HW2 1155   0.874   1.014   2.560  0.3436 -0.1728 -1.3930
  289SOL     MW 1156   0.950   1.015   2.608 -0.4097  0.2067 -0.0924
  290SOL     OW 1157   0.847   0.571   1.503 -0.1066 -0.0934  0.3116
  290SOL    HW1 1158   0.912   0.541   1.440 -0.2934  0.2357  0.3638
  290SOL    HW2 1159   0.906   0.561   1.576  0.9230 -0.1508 -0.7206
  290SOL     MW 1160   0.864   0.566   1.504  0.0046 -0.0576  0.1823
  291SOL     OW 1161   0.146   0.325   0.215  0.1094  0.0447 -0.8910
  291SOL    HW1 1162   0.249   0.314   0.225  1.3636 -2.0536  0.5316
  291SOL    HW2 1163   0.119   0.260   0.147 -2.9026  1.4541  0.9847
  291SOL     MW 1164   0.156   0.315   0.207 -0.1225 -0.0462 -0.4558
  292SOL     OW 1165   0.977   0.531   0.071  0.3327 -0.2270 -0.7006
  292SOL    HW1 1166   1.023   0.578   0.139  0.0741 -2.3230 -0.3182
  292SOL    HW2 1167   1.036   0.463   0.042 -0.7886 -0.9847  0.3626
  292SOL     MW 1168   0.991   0.528   0.076  0.1507 -0.6036 -0.5099
  293SOL     OW 1169   0.219   0.089   2.479 -0.5993 -0.1814 -0.3051
  293SOL    HW1 1170   0.154   0.061   2.413  0.5301  1.7955 -3.3673
  293SOL    HW2 1171   0.170   0.145   2.535  0.9055  0.3248  1.0225
  293SOL     MW 1172   0.204   0.093   2.478 -0.2518  0.1462 -0.5340
  294SOL     OW 1173   1.492   0.670   2.375  0.1401 -0.2466 -0.7012
  294SOL    HW1 1174   1.506   0.731   2.456 -0.9300  3.7452  3.0808
  294SOL    HW2 1175   1.496   0.579   2.411  0.4032  0.2108 -1.0816
  294SOL     MW 1176   1.495   0.666   2.391  0.0336  0.3404 -0.2524
  295SOL     OW 1177   0.901   0.700   2.505  0.6528  0.2711 -0.0909
  295SOL    HW1 1178   0.843   0.651   2.451 -3.0617 -0.3036 -0.7236
  295SOL    HW2 1179   0.844   0.737   2.577 -0.9710  1.4237 -1.1582
  295SOL     MW 1180   0.886   0.699   2.508 -0.0515  0.3473 -0.3152
  296SOL     OW 1181   1.285   0.270   2.081 -1.1175 -0.1468 -0.5630
  296SOL    HW1 1182   1.357   0.197   2.076 -0.0838  0.3699 -0.7579
  296SOL    HW2 1183   1.255   0.272   2.176 -0.0614 -0.3404  1.4348
  296SOL     MW 1184   1.291   0.261   2.093 -0.8418 -0.1041 -0.3251
  297SOL     OW 1185   1.437   0.428   1.543  0.6932 -0.2430  0.1138
  297SOL    HW1 1186   1.488   0.506   1.563  2.6276 -1.4817  0.6054
  297SOL    HW2 1187   1.491   0.351   1.569  1.9253  1.0486  0.2406
  297SOL     MW 1188   1.450   0.428   1.549  1.1110 -0.2360  0.1954
  298SOL     OW 1189   1.505   0.930   2.061  0.4167 -0.1260  0.3774
  298SOL    HW1 1190   1.528   0.964   1.974 -2.3178  0.8164  0.5217
  298SOL    HW2 1191   1.597   0.912   2.098  2.5314  4.2511  0.9777
  298SOL     MW 1192   1.521   0.932   2.055  0.3349  0.5759  0.4756
  299SOL     OW 1193   0.502   1.080   3.090  0.1349 -0.3463 -0.8289
  299SOL    HW1 1194   0.567   1.152   3.100  2.3471  0.3842  1.3277
  299SOL    HW2 1195   0.480   1.074   2.999 -1.0547  1.5785  1.8774
  299SOL     MW 1196   0.508   1.089   3.079  0.2698  0.0040 -0.1873
  300SOL     OW 1197   1.266   1.159   2.507  0.3376  0.3607 -0.1038
  300SOL    HW1 1198   1.179   1.118   2.508 -2.4382 -0.9036  1.5544
  300SOL    HW2 1199   1.254   1.231   2.564 -2.3799 -0.3509 -1.8316
  300SOL     MW 1200   1.253   1.163   2.514 -0.3872  0.1000 -0.1130
  301SOL     OW 1201   1.352   0.796   0.574 -0.3246  0.3588  0.1199
  301SOL    HW1 1202   1.418   0.765   0.636  1.1018  2.4261 -0.7321
  301SOL    HW2 1203   1.271   0.775   0.615  0.8133  1.9390 -0.2650
  301SOL     MW 1204   1.350   0.789   0.588  0.0137  0.8400 -0.0433
  302SOL     OW 1205   0.109   1.474   1.991 -0.4184 -0.4190  0.0826
  302SOL    HW1 1206   0.118   1.404   2.056  0.8881 -1.0396  0.0599
  302SOL    HW2 1207   0.049   1.537   2.025  3.3014  0.6567  2.5868
  302SOL     MW 1208   0.103   1.473   2.004  0.2447 -0.3590  0.4100
  303SOL     OW 1209   0.403   1.740   2.559  0.0200 -0.5623  0.1783
  303SOL    HW1 1210   0.472   1.782   2.508  0.9841  0.7500  1.2539
  303SOL    HW2 1211   0.337   1.800   2.574  1.7678 -1.7806 -2.2267
  303SOL     MW 1212   0.403   1.753   2.554  0.3778 -0.5499  0.0029
  304SOL     OW 1213   0.624   2.089   2.408  0.4976 -0.4008 -0.3556
  304SOL    HW1 1214   0.671   2.157   2.360 -0.7557  2.4059  0.3516
  304SOL    HW2 1215   0.689   2.019   2.417  1.0700 -3.3470 -1.3174
  304SOL     MW 1216   0.639   2.089   2.403  0.4078 -0.4192 -0.3892
  305SOL     OW 1217   1.096   0.548   0.549 -0.2170  0.7031  0.7341
  305SOL    HW1 1218   1.004   0.526   0.524 -3.5907  0.5264 -1.3808
  305SOL    HW2 1219   1.127   0.462   0.577 -3.2065 -0.9360 -1.0508
  305SOL     MW 1220   1.088   0.534   0.550 -1.0566  0.4635  0.2196
  306SOL     OW 1221   1.200   1.469   0.342  0.3056  0.1071  0.3729
  306SOL    HW1 1222   1.230   1.379   0.362 -0.1218  0.8583 -1.0833
  306SOL    HW2 1223   1.256   1.500   0.276 -3.6566 -0.7697 -0.6976
  306SOL     MW 1224   1.212   1.461   0.336 -0.2736  0.0905  0.0395
  307SOL     OW 1225   1.344   0.543   1.938  0.8911 -0.0431 -0.0230
  307SOL    HW1 1226   1.326   0.451   1.949  1.8846 -2.5818 -2.0309
  307SOL    HW2 1227   1.425   0.552   1.995 -2.1581 -2.3067  2.5594
  307SOL     MW 1228   1.352   0.532   1.947  0.6199 -0.6767  0.0528
  308SOL     OW 1229   2.134   0.640   2.654  1.3224  0.5344  0.1502
  308SOL    HW1 1230   2.201   0.594   2.710  0.6342 -4.9870  0.9449
  308SOL    HW2 1231   2.135   0.739   2.666  1.2501  0.3782  0.6571
  308SOL     MW 1232   2.143   0.647   2.663  1.2220 -0.2147  0.3220
  309SOL     OW 1233   0.593   0.462   0.402 -0.3043 -0.5859 -0.9402
  309SOL    HW1 1234   0.612   0.369   0.419 -2.0461 -2.4815 -1.5503
  309SOL    HW2 1235   0.594   0.474   0.308 -3.7195 -0.7543 -0.1612
  309SOL     MW 1236   0.595   0.451   0.392 -0.9847 -0.8582 -0.9179
  310SOL     OW 1237   0.455   0.522   1.928  0.1527  0.2684 -0.1898
  310SOL    HW1 1238   0.523   0.473   1.879 -0.5385  0.2928  2.9198
  310SOL    HW2 1239   0.477   0.612   1.905  0.3177  1.4197 -0.6745
  310SOL     MW 1240   0.467   0.527   1.919  0.0833  0.4235  0.1565
  311SOL     OW 1241   1.920   0.773   1.994  0.1469  0.3425 -0.3317
  311SOL    HW1 1242   1.839   0.766   2.052  0.6131 -0.4746 -0.7099
  311SOL    HW2 1243   1.960   0.685   1.997  0.6415  0.8229  3.5918
  311SOL     MW 1244   1.915   0.761   2.002  0.2737  0.2981  0.1361
  312SOL     OW 1245   1.750   2.508   0.026 -1.1612 -0.3037 -0.1622
  312SOL    HW1 1246   1.781   2.515   0.118  1.1379 -0.0993  0.2981
  312SOL    HW2 1247   1.659   2.547   0.029  1.9492  1.2960 -0.7649
  312SOL     MW 1248   1.742   2.514   0.039 -0.4475 -0.0656 -0.1810
  313SOL     OW 1249   0.100   1.193   2.936  0.7883  0.2080 -0.0108
  313SOL    HW1 1250   0.163   1.165   3.005  0.9635 -1.5784  1.1232
  313SOL    HW2 1251   0.147   1.211   2.860 -1.0774 -0.9546  0.5132
  313SOL     MW 1252   0.114   1.192   2.935  0.5652 -0.1811  0.2080
  314SOL     OW 1253   2.136   3.016   2.973 -0.2737 -0.1676 -0.1461
  314SOL    HW1 1254   2.087   3.066   2.913  1.3202 -0.5368  0.9783
  314SOL    HW2 1255   2.182   3.077   3.027  1.6727 -3.0586  0.6613
  314SOL     MW 1256   2.136   3.030   2.972  0.1934 -0.5977  0.1088
  315SOL     OW 1257   1.537   1.954   3.034 -0.6198 -0.7755  0.5812
  315SOL    HW1 1258   1.474   2.008   3.089  1.1203 -0.0867  0.0174
  315SOL    HW2 1259   1.587   2.017   2.978  1.2118  2.3756 -2.0696
  315SOL     MW 1260   1.536   1.969   3.034 -0.1486 -0.2689  0.1571
  316SOL     OW 1261   1.250   0.660   2.704 -0.0971 -0.0832 -0.4727
  316SOL    HW1 1262   1.339   0.640   2.670  0.2959 -0.4954  1.1632
  316SOL    HW2 1263   1.206   0.583   2.749 -0.7333 -0.2599  0.5850
  316SOL     MW 1264   1.256   0.647   2.706 -0.1292 -0.1609 -0.1173
  317SOL     OW 1265   0.666   1.422   2.631 -0.1189  0.0224  0.0981
  317SOL    HW1 1266   0.702   1.354   2.686 -0.0563  0.5991 -3.1019
  317SOL    HW2 1267   0.721   1.413   2.544  1.5693  0.0446 -2.2604
  317SOL     MW 1268   0.678   1.412   2.627  0.1121  0.1014 -0.6353
  318SOL     OW 1269   1.345   0.358   2.892  0.3015  0.3921  0.4031
  318SOL    HW1 1270   1.264   0.397   2.936 -1.2791  1.1453  0.5214
  318SOL    HW2 1271   1.389   0.429   2.850  1.1130 -1.5921 -2.6002
  318SOL     MW 1272   1.340   0.372   2.893  0.2000  0.2297  0.0225
  319SOL     OW 1273   0.803   0.451   2.828  0.3082  0.6505 -0.1711
  319SOL    HW1 1274   0.815   0.380   2.768  1.7707  1.1989  0.7698
  319SOL    HW2 1275   0.758   0.415   2.905  0.7502 -1.3397 -0.2286
  319SOL     MW 1276   0.799   0.437   2.830  0.5594  0.4603 -0.0545
  320SOL     OW 1277   1.039   1.326   2.058  0.6427  0.0405 -1.0141
  320SOL    HW1 1278   1.127   1.285   2.065 -1.8233  1.6826 -2.5768
  320SOL    HW2 1279   1.044   1.396   1.995 -0.9690 -1.1101  0.5566
  320SOL     MW 1280   1.051   1.330   2.050  0.1047  0.1053 -1.0131
  321SOL     OW 1281   1.070   0.960   3.047  0.0004  0.7936  0.5792
  321SOL    HW1 1282   0.998   0.942   2.985  0.7337 -1.9864 -0.8394
  321SOL    HW2 1283   1.132   0.889   3.038  1.1710  0.9832  0.6686
  321SOL     MW 1284   1.069   0.948   3.038  0.2516  0.4518  0.4038
  322SOL     OW 1285   1.177   0.854   1.737 -0.6962  0.0072  0.0647
  322SOL    HW1 1286   1.266   0.820   1.755  1.1228  1.8722  1.4148
  322SOL    HW2 1287   1.153   0.896   1.825  1.8022  1.0584 -0.2804
  322SOL     MW 1288   1.185   0.855   1.751 -0.1266  0.3920  0.1973
  323SOL     OW 1289   1.172   1.515   1.873  0.0231 -0.1874 -0.6372
  323SOL    HW1 1290   1.167   1.436   1.822  0.7049  1.7279  3.9119
  323SOL    HW2 1291   1.094   1.564   1.836 -0.5981  0.8725 -0.3811
  323SOL     MW 1292   1.161   1.511   1.861  0.0311  0.2051 -0.0032
  324SOL     OW 1293   1.531   1.064   2.482  0.0673  0.1281 -0.2839
  324SOL    HW1 1294   1.431   1.092   2.470 -0.4909 -1.4711 -0.9955
  324SOL    HW2 1295   1.574   1.136   2.526  0.1776 -3.5516 -0.3763
  324SOL     MW 1296   1.523   1.077   2.486  0.0082 -0.5684 -0.3900
  325SOL     OW 1297   1.094   0.498   2.901 -0.1936 -0.0814  0.3025
  325SOL    HW1 1298   1.122   0.579   2.943  1.1291  2.1073  3.0323
  325SOL    HW2 1299   1.001   0.503   2.874  1.1748  0.6751 -1.8730
  325SOL     MW 1300   1.085   0.510   2.903  0.1614  0.3072  0.3756
  326SOL     OW 1301   0.442   1.336   2.221  0.5785  0.2055  0.1602
  326SOL    HW1 1302   0.487   1.314   2.139 -2.0494 -0.6401 -0.5776
  326SOL    HW2 1303   0.445   1.433   2.226 -0.6133  0.4063 -0.5748
  326SOL     MW 1304   0.448   1.346   2.211  0.0745  0.1204 -0.0341
  327SOL     OW 1305   1.886   0.909   2.401 -0.2677 -0.0515  0.2576
  327SOL    HW1 1306   1.861   0.863   2.484 -2.2615 -0.5729  2.4303
  327SOL    HW2 1307   1.978   0.908   2.380 -2.1355  2.6218 -0.1240
  327SOL     MW 1308   1.895   0.902   2.409 -0.7772  0.2324  0.4939
  328SOL     OW 1309   0.186   1.262   2.226  0.4086  0.0886 -0.2034
  328SOL    HW1 1310   0.152   1.199   2.164  1.8849  0.5981  2.6752
  328SOL    HW2 1311   0.282   1.262   2.211  1.3962  0.4213 -1.0852
  328SOL     MW 1312   0.194   1.254   2.216  0.7337  0.1997  0.0601
  329SOL     OW 1313   0.128   0.140   1.411 -0.1285 -0.4197  0.5527
  329SOL    HW1 1314   0.071   0.184   1.482 -3.3571  0.9050  3.0885
  329SOL    HW2 1315   0.197   0.198   1.390 -0.3556 -1.8249 -1.0592
  329SOL     MW 1316   0.130   0.154   1.417 -0.5845 -0.4303  0.6746
  330SOL     OW 1317   0.365   2.979   2.052 -0.4004  0.4140  0.4174
  330SOL    HW1 1318   0.441   3.009   2.098  0.1648 -2.8667 -2.7179
  330SOL    HW2 1319   0.306   2.947   2.124 -4.1945  0.0627  2.2378
  330SOL     MW 1320   0.368   2.979   2.068 -0.8264 -0.0652  0.2439
  331SOL     OW 1321   0.815   1.229   2.251 -0.0812 -0.5773  0.6099
  331SOL    HW1 1322   0.801   1.269   2.164 -1.7604  0.1648 -1.8865
  331SOL    HW2 1323   0.844   1.301   2.302 -3.2333  1.0107 -0.9790
  331SOL     MW 1324   0.817   1.244   2.246 -0.7186 -0.2699  0.0709
  332SOL     OW 1325   1.353   1.750   2.962 -0.2262 -0.8278 -0.4702
  332SOL    HW1 1326   1.371   1.743   2.869 -0.6065 -0.4192 -0.6356
  332SOL    HW2 1327   1.383   1.842   2.988  0.6947  1.4987 -0.1785
  332SOL     MW 1328   1.359   1.761   2.953 -0.1549 -0.4670 -0.4535
  333SOL     OW 1329   1.727   1.465   2.998 -0.0837  0.1114  0.1764
  333SOL    HW1 1330   1.817   1.430   3.005  1.9173 -0.1323 -2.1296
  333SOL    HW2 1331   1.683   1.428   3.073  0.8341 -2.2037  1.0900
  333SOL     MW 1332   1.733   1.455   3.009  0.3014 -0.2262 -0.0073
  334SOL     OW 1333   1.302   3.060   2.644  0.5258  0.0748 -0.3804
  334SOL    HW1 1334   1.211   3.079   2.668  3.0471  1.7336 -0.3205
  334SOL    HW2 1335   1.340   3.153   2.650 -0.7288  3.7918 -1.2320
  334SOL     MW 1336   1.295   3.075   2.648  0.6929  0.7841 -0.4849
  335SOL     OW 1337   1.263   0.753   3.055 -0.4349  0.0652  0.2284
  335SOL    HW1 1338   1.278   0.765   3.148 -0.2992  0.1967 -0.8366
  335SOL    HW2 1339   1.336   0.774   2.995  0.3270  0.7029 -1.4875
  335SOL     MW 1340   1.275   0.758   3.059 -0.3165  0.1667 -0.1385
  336SOL     OW 1341   0.910   1.109   1.909 -0.6164  0.1436  0.1346
  336SOL    HW1 1342   0.949   1.191   1.946 -1.3024  5.1612 -1.8506
  336SOL    HW2 1343   0.975   1.045   1.938  1.2706  1.1993 -0.6212
  336SOL     MW 1344   0.924   1.111   1.918 -0.4580  0.9449 -0.2270
  337SOL     OW 1345   0.491   1.791   2.840  0.1013  0.2357 -0.5792
  337SOL    HW1 1346   0.446   1.808   2.754  0.2492  1.0974 -1.4926
  337SOL    HW2 1347   0.568   1.744   2.812 -1.7099 -0.6567  1.2375
  337SOL     MW 1348   0.496   1.787   2.825 -0.1182  0.2316 -0.4600
  338SOL     OW 1349   1.129   0.852   2.569 -0.1028  0.0327 -0.2552
  338SOL    HW1 1350   1.044   0.807   2.563  2.7785 -1.1966  3.5007
  338SOL    HW2 1351   1.178   0.786   2.616 -1.7994  0.9646  0.2291
  338SOL     MW 1352   1.125   0.837   2.575  0.0535 -0.0065  0.3043
  339SOL     OW 1353   1.595   1.069   1.832  0.2097  0.2083 -0.0487
  339SOL    HW1 1354   1.502   1.065   1.797  0.8379 -0.7737  0.8246
  339SOL    HW2 1355   1.592   1.154   1.887  0.1225  2.0006  0.1558
  339SOL     MW 1356   1.582   1.080   1.835  0.2811  0.3152  0.0935
  340SOL     OW 1357   1.358   1.569   0.099  0.1055 -0.3778 -0.2619
  340SOL    HW1 1358   1.353   1.619   0.016  0.1599 -1.0198 -0.0151
  340SOL    HW2 1359   1.453   1.544   0.098 -0.6530 -1.9295  0.4267
  340SOL     MW 1360   1.370   1.572   0.088  0.0126 -0.6672 -0.1385
  341SOL     OW 1361   0.137   1.327   2.673 -0.0772  0.5881 -0.3411
  341SOL    HW1 1362   0.213   1.365   2.629  0.4508 -0.3007 -0.9191
  341SOL    HW2 1363   0.083   1.318   2.596 -0.3774  0.3699 -0.4576
  341SOL     MW 1364   0.140   1.331   2.657 -0.0471  0.4420 -0.4327
  342SOL     OW 1365   1.425   0.321   0.069  0.4816 -0.0172 -0.1597
  342SOL    HW1 1366   1.442   0.407   0.111 -2.4160  0.0415  0.2951
  342SOL    HW2 1367   1.433   0.344  -0.025 -1.8181 -1.2577  1.3396
  342SOL     MW 1368   1.428   0.336   0.062 -0.2042 -0.1731  0.0981
  343SOL     OW 1369   0.212   0.270   2.265  0.4324  0.0089 -0.8507
  343SOL    HW1 1370   0.232   0.212   2.342  1.1302  2.2459 -0.2745
  343SOL    HW2 1371   0.159   0.212   2.199  1.0385  1.1696 -2.5135
  343SOL     MW 1372   0.207   0.255   2.266  0.6044  0.4572 -0.9941
  344SOL     OW 1373   1.683   2.082   0.234 -0.2039 -0.2198  0.4260
  344SOL    HW1 1374   1.695   2.127   0.153  0.5838 -0.9928  1.0411
  344SOL    HW2 1375   1.628   2.012   0.219  0.7880  1.9205  2.4073
  344SOL     MW 1376   1.678   2.079   0.221  0.0309 -0.0394  0.7685
  345SOL     OW 1377   0.688   1.595   2.371  0.3527 -0.2706  0.3315
  345SOL    HW1 1378   0.598   1.622   2.346  1.5011 -1.6893  0.8083
  345SOL    HW2 1379   0.738   1.560   2.294  0.7395  1.9707  0.5512
  345SOL     MW 1380   0.683   1.594   2.358  0.5552 -0.1621  0.4234
  346SOL     OW 1381   1.693   1.088   0.005  0.4907  0.3868  0.1752
  346SOL    HW1 1382   1.784   1.061   0.032  0.7262 -0.9137 -1.7222
  346SOL    HW2 1383   1.630   1.043   0.060 -1.2709 -2.7214 -3.1318
  346SOL     MW 1384   1.697   1.078   0.016  0.2893 -0.1949 -0.5114
  347SOL     OW 1385   1.200   0.684   2.358  0.7710  0.3958 -0.1843
  347SOL    HW1 1386   1.295   0.677   2.346 -0.7772  2.1678  0.8686
  347SOL    HW2 1387   1.192   0.760   2.422 -0.6872  2.6894 -1.8666
  347SOL     MW 1388   1.211   0.693   2.364  0.3744  0.9322 -0.2674
  348SOL     OW 1389   1.315   2.613   1.885 -0.1063 -0.1768 -0.2138
  348SOL    HW1 1390   1.344   2.527   1.907 -1.5176  2.5375  0.5420
  348SOL    HW2 1391   1.373   2.675   1.920  0.2641 -1.0337  0.3137
  348SOL     MW 1392   1.327   2.610   1.893 -0.2436  0.0682 -0.0445
  349SOL     OW 1393   1.397   0.222   2.646  0.6102 -0.3811  0.2585
  349SOL    HW1 1394   1.380   0.251   2.739 -1.6138 -0.7462  1.0784
  349SOL    HW2 1395   1.492   0.194   2.639 -0.4415  0.1897 -3.1592
  349SOL     MW 1396   1.407   0.222   2.657  0.1780 -0.3539 -0.0843
  350SOL     OW 1397   1.853   0.684   2.644 -0.4087  0.0912 -0.1446
  350SOL    HW1 1398   1.786   0.621   2.615  1.1593  0.7316 -0.0403
  350SOL    HW2 1399   1.940   0.656   2.621  0.9186 -1.7218  1.1309
  350SOL     MW 1400   1.855   0.672   2.637 -0.0267 -0.0635  0.0375
  351SOL     OW 1401   0.080   0.943   1.620  0.3804  0.4229  0.0283
  351SOL    HW1 1402   0.034   1.008   1.671  0.8594  2.6514  1.6110
  351SOL    HW2 1403   0.136   0.996   1.561 -0.0825 -0.5275 -1.7349
  351SOL     MW 1404   0.082   0.959   1.619  0.3825  0.5915  0.0045
  352SOL     OW 1405   0.745   1.660   2.768 -0.2128  0.0051 -0.0303
  352SOL    HW1 1406   0.780   1.642   2.852  0.9669 -0.3817  0.5682
  352SOL    HW2 1407   0.736   1.575   2.725 -0.3270  1.3024  2.1160
  352SOL     MW 1408   0.749   1.646   2.774 -0.0723  0.1252  0.3318
  353SOL     OW 1409   2.983   2.409   2.714 -0.4746  0.3081  0.0605
  353SOL    HW1 1410   3.067   2.376   2.675  0.5361 -0.5582  0.2936
  353SOL    HW2 1411   2.966   2.492   2.669  0.9087  0.3762 -1.2200
  353SOL     MW 1412   2.992   2.416   2.703 -0.1588  0.2028 -0.0777
  354SOL     OW 1413   0.427   2.392   0.858  0.0997  0.2564 -0.2561
  354SOL    HW1 1414   0.422   2.358   0.945 -0.1206 -1.0121 -0.8764
  354SOL    HW2 1415   0.351   2.350   0.817 -0.5112  1.9113 -0.0322
  354SOL     MW 1416   0.417   2.382   0.864 -0.0100  0.3074 -0.3084
  355SOL     OW 1417   0.073   2.182   0.398  0.0146 -0.5009 -0.2871
  355SOL    HW1 1418  -0.012   2.144   0.378 -0.0255 -0.7636  0.9082
  355SOL    HW2 1419   0.052   2.219   0.482  0.2282  1.0095 -2.5574
  355SOL     MW 1420   0.059   2.182   0.407  0.0375 -0.3363 -0.4290
  356SOL     OW 1421   0.859   2.950   1.021 -0.2735 -0.0581  0.3448
  356SOL    HW1 1422   0.910   2.961   0.936 -0.4190  0.6976 -2.4236
  356SOL    HW2 1423   0.786   2.891   1.009  1.7869 -0.3970 -0.0623
  356SOL     MW 1424   0.856   2.944   1.008 -0.0208 -0.0031 -0.0742
  357SOL     OW 1425   1.765   2.886   0.371 -0.6820  0.0733  0.0913
  357SOL    HW1 1426   1.711   2.833   0.422  2.9499  0.6101 -0.2824
  357SOL    HW2 1427   1.850   2.836   0.368 -1.0136  0.6219  0.8852
  357SOL     MW 1428   1.769   2.873   0.377 -0.2466  0.2165  0.1468
  358SOL     OW 1429   0.422   0.155   1.040  0.2958 -0.1466  0.8591
  358SOL    HW1 1430   0.505   0.121   1.006  0.6747 -2.2244 -1.7477
  358SOL    HW2 1431   0.364   0.158   0.960  0.3706  0.8515 -0.0853
  358SOL     MW 1432   0.426   0.151   1.025  0.3557 -0.2890  0.3906
  359SOL     OW 1433   0.981   2.862   1.829 -0.0415  0.6349  0.0522
  359SOL    HW1 1434   0.964   2.777   1.858  2.6402  0.3019 -0.8550
  359SOL    HW2 1435   1.004   2.839   1.735 -2.9853 -0.9375  1.1620
  359SOL     MW 1436   0.982   2.847   1.820 -0.0761  0.3835  0.0790
  360SOL     OW 1437   0.639   2.795   1.001  0.2443 -0.0351 -0.0609
  360SOL    HW1 1438   0.661   2.745   0.922  0.5134 -0.4580 -2.2883
  360SOL    HW2 1439   0.616   2.724   1.059  0.5594  4.0533  2.9719
  360SOL     MW 1440   0.639   2.779   0.998  0.3213  0.4485  0.0453
  361SOL     OW 1441   0.176   2.722   1.358  0.1415 -0.0846 -0.3443
  361SOL    HW1 1442   0.156   2.795   1.423 -0.9798  3.1056 -0.0601
  361SOL    HW2 1443   0.266   2.691   1.366 -2.3873  1.3458 -2.6281
  361SOL     MW 1444   0.185   2.728   1.368 -0.3401  0.5251 -0.6081
  362SOL     OW 1445   1.501   2.414   0.602 -0.0304 -0.6748  0.0286
  362SOL    HW1 1446   1.482   2.322   0.628 -1.4739 -0.6661  0.9212
  362SOL    HW2 1447   1.521   2.451   0.686  1.8081 -3.6679 -2.3264
  362SOL     MW 1448   1.501   2.407   0.616  0.0217 -1.0686 -0.1643
  363SOL     OW 1449   0.252   3.051   0.749  0.5184 -0.0577  0.3064
  363SOL    HW1 1450   0.214   3.029   0.829 -0.6310  1.0941 -2.5547
  363SOL    HW2 1451   0.171   3.059   0.691  0.4402 -1.3031 -0.9868
  363SOL     MW 1452   0.236   3.049   0.752  0.3564 -0.0701 -0.2417
  364SOL     OW 1453   0.692   0.176   0.209  0.4590 -0.1721  0.8324
  364SOL    HW1 1454   0.681   0.085   0.188  1.8867 -0.1138  0.8729
  364SOL    HW2 1455   0.601   0.205   0.192 -2.8668  2.3690 -0.4772
  364SOL     MW 1456   0.678   0.168   0.204  0.2086  0.1709  0.6649
  365SOL     OW 1457   0.953   1.974   1.125 -0.1610 -0.0552  0.2101
  365SOL    HW1 1458   0.930   2.059   1.080  0.1462  0.0679 -1.5370
  365SOL    HW2 1459   0.902   1.904   1.079  0.0596  1.4985  2.2855
  365SOL     MW 1460   0.944   1.976   1.113 -0.0914  0.1661  0.2534
  366SOL     OW 1461   2.860   2.637   1.007  0.0367 -0.7399  0.1813
  366SOL    HW1 1462   2.935   2.646   1.060 -0.0140 -0.1300 -0.6510
  366SOL    HW2 1463   2.898   2.653   0.915 -0.9483 -1.0291  1.9566
  366SOL     MW 1464   2.875   2.641   1.002 -0.0999 -0.6976  0.3057
  367SOL     OW 1465   1.272   2.825   0.876 -0.2775 -0.6791 -0.2224
  367SOL    HW1 1466   1.198   2.856   0.923  1.6810 -1.3037 -0.9875
  367SOL    HW2 1467   1.234   2.772   0.796 -0.4582 -0.6935  0.4875
  367SOL     MW 1468   1.257   2.822   0.872 -0.0429 -0.7634 -0.2297
  368SOL     OW 1469   1.660   0.468   0.663  0.0730 -0.1624  0.1262
  368SOL    HW1 1470   1.742   0.439   0.628  0.2070  0.8722 -1.1711
  368SOL    HW2 1471   1.663   0.565   0.649  1.6196  0.2401  1.4450
  368SOL     MW 1472   1.671   0.477   0.657  0.2948  0.0272  0.1290
  369SOL     OW 1473   0.109   2.477   1.727  0.0446  0.3860 -0.3945
  369SOL    HW1 1474   0.192   2.456   1.769 -1.8090 -0.2956 -0.9769
  369SOL    HW2 1475   0.085   2.564   1.760 -0.0407  3.3135 -1.0251
  369SOL     MW 1476   0.117   2.486   1.737 -0.2112  0.6823 -0.5545
  370SOL     OW 1477   0.690   0.080   0.973  0.3343 -0.9860 -0.0096
  370SOL    HW1 1478   0.748   0.159   0.965 -0.9573 -0.5588  1.7667
  370SOL    HW2 1479   0.749   0.013   1.010 -1.5353 -2.4904 -1.2966
  370SOL     MW 1480   0.705   0.082   0.977 -0.0828 -1.1281  0.0549
  371SOL     OW 1481   1.311   2.958   1.483 -0.0681 -0.4648 -0.1397
  371SOL    HW1 1482   1.283   2.886   1.420  3.5716  0.8954 -0.3861
  371SOL    HW2 1483   1.314   3.043   1.432 -0.0616 -1.2783  0.4605
  371SOL     MW 1484   1.308   2.960   1.468  0.4130 -0.3927 -0.0930
  372SOL     OW 1485   0.832   2.270   0.511  0.8988  0.2632  0.0012
  372SOL    HW1 1486   0.811   2.175   0.507 -0.4515  0.2565  1.4915
  372SOL    HW2 1487   0.826   2.296   0.421 -3.7774  0.8445  0.1398
  372SOL     MW 1488   0.829   2.261   0.499  0.1037  0.3390  0.2161
  373SOL     OW 1489   2.870   3.030   1.412 -0.4694  0.2982 -0.4743
  373SOL    HW1 1490   2.925   2.990   1.345 -0.8716  2.3007 -0.1788
  373SOL    HW2 1491   2.843   3.119   1.381 -1.0853 -0.8750 -0.3450
  373SOL     MW 1492   2.874   3.036   1.399 -0.6037  0.4077 -0.4183
  374SOL     OW 1493   1.512   0.548   0.260  0.2323 -0.5755  0.1377
  374SOL    HW1 1494   1.606   0.576   0.284  2.8740  1.5600  3.2811
  374SOL    HW2 1495   1.497   0.501   0.346 -0.2532  0.1488 -1.3824
  374SOL     MW 1496   1.523   0.546   0.274  0.5168 -0.1982  0.3518
  375SOL     OW 1497   1.144   2.116   2.318 -0.2804  0.3093  0.8277
  375SOL    HW1 1498   1.156   2.134   2.410 -0.7417 -1.6061 -2.2896
  375SOL    HW2 1499   1.129   2.021   2.318 -2.0406  1.5223  0.2012
  375SOL     MW 1500   1.144   2.106   2.330 -0.5735  0.2166  0.3337
  376SOL     OW 1501   0.668   2.528   0.119  0.5580 -0.1584 -0.1300
  376SOL    HW1 1502   0.716   2.451   0.162  2.3262  1.2707  0.0405
  376SOL    HW2 1503   0.630   2.506   0.038  1.5528 -1.0741  0.9680
  376SOL     MW 1504   0.669   2.515   0.114  0.9225 -0.0907  0.0374
  377SOL     OW 1505   1.286   2.007   0.859  0.4986 -0.8074 -0.4870
  377SOL    HW1 1506   1.210   1.982   0.803  1.2494 -0.4624 -1.6983
  377SOL    HW2 1507   1.262   1.965   0.947 -1.6763  2.3005 -0.5128
  377SOL     MW 1508   1.273   1.998   0.863  0.3107 -0.3518 -0.6502
  378SOL     OW 1509   1.010   2.776   1.557  0.3161 -0.2907  0.1006
  378SOL    HW1 1510   0.946   2.701   1.574 -1.6026  0.4534 -1.2838
  378SOL    HW2 1511   0.954   2.838   1.502  1.5045 -0.5625 -3.3634
  378SOL     MW 1512   0.994   2.774   1.552  0.2197 -0.2284 -0.5391
  379SOL     OW 1513   1.096   1.810   2.270  0.4973 -0.5077 -0.2413
  379SOL    HW1 1514   1.003   1.791   2.296  1.6853 -0.3290 -0.0598
  379SOL    HW2 1515   1.122   1.728   2.222 -2.6069 -1.3669  2.4800
  379SOL     MW 1516   1.087   1.797   2.267  0.2445 -0.5975  0.1417
  380SOL     OW 1517   0.864   0.159   1.529  0.1146 -0.8269  0.3342
  380SOL    HW1 1518   0.890   0.169   1.439 -3.6227  2.4112  1.2881
  380SOL    HW2 1519   0.945   0.149   1.576 -3.6372 -2.1139 -0.3286
  380SOL     MW 1520   0.878   0.159   1.524 -0.8735 -0.5695  0.3726
  381SOL     OW 1521   0.790   1.975   0.782  0.1884 -0.4805 -0.1360
  381SOL    HW1 1522   0.887   1.968   0.779 -1.0461 -1.2927 -0.5155
  381SOL    HW2 1523   0.776   2.056   0.833  1.2016 -1.5679 -2.6962
  381SOL     MW 1524   0.801   1.985   0.789  0.1592 -0.7312 -0.5239
  382SOL     OW 1525   0.729   0.024   0.707 -0.2221  0.8607  0.0903
  382SOL    HW1 1526   0.708   0.046   0.801  1.2963  1.2335  1.9008
  382SOL    HW2 1527   0.682  -0.062   0.692 -1.3495 -1.1650  2.1220
  382SOL     MW 1528   0.720   0.015   0.717 -0.1705  0.6427  0.5972
  383SOL     OW 1529   0.454   0.051   0.380 -0.8412 -0.1835 -0.2094
  383SOL    HW1 1530   0.511  -0.020   0.379  0.6271 -1.0679  1.0783
  383SOL    HW2 1531   0.371   0.007   0.408 -0.9116  0.7123  0.6343
  383SOL     MW 1532   0.450   0.036   0.383 -0.6568 -0.1820  0.0718
  384SOL     OW 1533   0.609   2.904   0.623  0.4128 -0.2225  0.9421
  384SOL    HW1 1534   0.641   2.822   0.663 -2.3531  3.3371  2.0593
  384SOL    HW2 1535   0.518   2.881   0.597  0.0959 -0.3606 -1.8234
  384SOL     MW 1536   0.601   2.890   0.625  0.0061  0.2289  0.7246
  385SOL     OW 1537   1.315   2.061   1.560 -0.0218  0.1377 -0.0922
  385SOL    HW1 1538   1.386   2.068   1.629  1.1603 -0.3394  1.8008
  385SOL    HW2 1539   1.267   1.974   1.573  0.4901 -0.3372 -1.1065
  385SOL     MW 1540   1.318   2.050   1.571  0.2017  0.0121  0.0238
  386SOL     OW 1541   1.360   0.384   0.839 -0.2788 -0.6669 -0.7264
  386SOL    HW1 1542   1.280   0.338   0.817 -0.5036  2.1547 -0.6930
  386SOL    HW2 1543   1.350   0.405   0.928  0.6117  0.2961 -1.8944
  386SOL     MW 1544   1.348   0.381   0.848 -0.1909 -0.1676 -0.8761
  387SOL     OW 1545   0.823   2.178   1.483  0.2348  0.2983 -0.0334
  387SOL    HW1 1546   0.892   2.231   1.445 -3.1395  0.5718  1.9229
  387SOL    HW2 1547   0.863   2.087   1.493 -1.4180  1.5995  1.1732
  387SOL     MW 1548   0.838   2.173   1.479 -0.4285  0.5061  0.3839
  388SOL     OW 1549   1.489   2.799   1.213  0.2350 -0.4975  0.6328
  388SOL    HW1 1550   1.415   2.750   1.177 -0.1362  0.2664  0.1844
  388SOL    HW2 1551   1.562   2.776   1.152  1.3938  1.5319 -1.5582
  388SOL     MW 1552   1.489   2.789   1.200  0.3389 -0.1289  0.2845
  389SOL     OW 1553   0.361   0.148   3.097 -0.0189 -0.8139  0.0297
  389SOL    HW1 1554   0.418   0.129   3.020 -1.3153 -2.1696 -2.6374
  389SOL    HW2 1555   0.271   0.147   3.058 -2.9646 -1.7811 -1.6152
  389SOL     MW 1556   0.357   0.146   3.081 -0.5786 -1.1204 -0.5392
  390SOL     OW 1557   1.348   0.018   0.618 -0.3060 -0.5378 -0.3741
  390SOL    HW1 1558   1.432   0.063   0.595  1.8715  1.1534 -2.0383
  390SOL    HW2 1559   1.335   0.031   0.715 -2.1426  1.7677 -0.1542
  390SOL     MW 1560   1.357   0.026   0.628 -0.2611 -0.0105 -0.5646
  391SOL     OW 1561   0.307   2.280   1.475 -0.0262 -0.1049  0.0121
  391SOL    HW1 1562   0.247   2.208   1.491 -0.1250 -0.3043  1.3892
  391SOL    HW2 1563   0.240   2.341   1.442  2.4600 -1.6355  0.6828
  391SOL     MW 1564   0.290   2.278   1.473  0.2888 -0.3331  0.2823
  392SOL     OW 1565   1.993   2.208   0.331 -0.0122  0.4076  0.1457
  392SOL    HW1 1566   1.922   2.264   0.359  0.5428 -2.0534 -0.6104
  392SOL    HW2 1567   2.050   2.198   0.408 -0.4239  0.2995 -0.5644
  392SOL     MW 1568   1.991   2.214   0.345  0.0067  0.0687 -0.0477
  393SOL     OW 1569   0.233   2.993   2.810 -0.1318 -0.2534 -0.3335
  393SOL    HW1 1570   0.276   3.085   2.816  0.7759  1.0927  0.8056
  393SOL    HW2 1571   0.146   3.003   2.768 -1.2066 -0.5102 -1.5397
  393SOL     MW 1572   0.227   3.006   2.805 -0.1538 -0.1097 -0.3423
  394SOL     OW 1573   0.847   1.654   1.449  0.4041  0.5625  0.3872
  394SOL    HW1 1574   0.799   1.665   1.533  2.1140  1.8392  0.9478
  394SOL    HW2 1575   0.901   1.734   1.441 -0.3744 -0.0223  2.0089
  394SOL     MW 1576   0.848   1.666   1.459  0.5270  0.6538  0.6751
  395SOL     OW 1577   0.922   2.883   2.612 -0.0865 -0.5808 -0.1952
  395SOL    HW1 1578   0.958   2.947   2.673 -0.6642 -2.0752  0.3236
  395SOL    HW2 1579   1.009   2.835   2.597 -1.0590 -0.2043  1.5110
  395SOL     MW 1580   0.938   2.885   2.618 -0.2911 -0.7283  0.0984
  396SOL     OW 1581   0.796   1.848   2.392  0.1717 -0.0761 -0.5337
  396SOL    HW1 1582   0.845   1.845   2.472 -0.1485  2.4399 -1.5357
  396SOL    HW2 1583   0.747   1.770   2.410 -0.5874  0.6905 -0.6072
  396SOL     MW 1584   0.796   1.837   2.405  0.0293  0.3570 -0.6756
  397SOL     OW 1585   1.015   2.342   1.345 -0.1304  0.2023 -0.1854
  397SOL    HW1 1586   1.049   2.421   1.304 -0.4284 -1.4849  1.3349
  397SOL    HW2 1587   1.070   2.323   1.419  0.4787  1.8435  1.0635
  397SOL     MW 1588   1.027   2.350   1.350 -0.0894  0.1962  0.1800
  398SOL     OW 1589   0.678   2.674   0.737 -0.7634  0.2796  0.4377
  398SOL    HW1 1590   0.609   2.616   0.709  4.3048 -0.7310  2.3159
  398SOL    HW2 1591   0.750   2.617   0.718 -0.6022 -1.9090 -1.1559
  398SOL     MW 1592   0.678   2.659   0.731 -0.0734 -0.1425  0.4752
  399SOL     OW 1593   0.275   2.007   0.414  0.5833  0.2062  0.8329
  399SOL    HW1 1594   0.207   2.076   0.407 -2.1502  0.0544  0.9117
  399SOL    HW2 1595   0.325   2.006   0.326 -2.1065 -0.1383 -1.8591
  399SOL     MW 1596   0.273   2.016   0.402 -0.1323  0.1407  0.4881
  400SOL     OW 1597   0.590   1.838   0.144 -0.2180 -0.0917  0.0474
  400SOL    HW1 1598   0.567   1.928   0.152 -1.2336 -1.5592  0.5815
  400SOL    HW2 1599   0.550   1.793   0.218 -0.9953  0.1123 -1.8741
  400SOL     MW 1600   0.582   1.844   0.155 -0.4546 -0.2584 -0.1357
  401SOL     OW 1601   0.942   2.066   0.189 -0.4831 -0.4155  0.7033
  401SOL    HW1 1602   0.949   1.975   0.191 -1.3217  2.7582 -4.1030
  401SOL    HW2 1603   1.030   2.094   0.219  1.1008  0.5672  2.1019
  401SOL     MW 1604   0.955   2.057   0.193 -0.3848  0.1329  0.2537
  402SOL     OW 1605   0.708   2.925   1.703  0.0743  0.4584 -0.4807
  402SOL    HW1 1606   0.653   2.900   1.779 -0.7000 -2.2923  1.7825
  402SOL    HW2 1607   0.789   2.954   1.737 -1.9410  3.4686 -0.2942
  402SOL     MW 1608   0.711   2.925   1.718 -0.2937  0.4926 -0.1575
  403SOL     OW 1609   0.060   0.441   0.438  0.0115 -1.0541  0.3019
  403SOL    HW1 1610   0.150   0.457   0.465 -1.5759 -1.4477 -1.1682
  403SOL    HW2 1611   0.075   0.410   0.344 -1.8677 -0.0434  0.5855
  403SOL     MW 1612   0.074   0.439   0.429 -0.4459 -0.9727  0.1454
  404SOL     OW 1613   1.013   2.889   0.799 -0.0210  0.0359 -0.1060
  404SOL    HW1 1614   1.065   2.834   0.732  0.1744  0.4257 -0.8558
  404SOL    HW2 1615   1.024   2.979   0.764  0.2967 -0.7858 -0.0071
  404SOL     MW 1616   1.021   2.894   0.785  0.0467 -0.0211 -0.1919
  405SOL     OW 1617   0.488   2.475   1.556  0.2748  0.0677  0.0736
  405SOL    HW1 1618   0.477   2.545   1.484 -2.6174 -1.9861  3.0829
  405SOL    HW2 1619   0.426   2.412   1.520 -2.2563 -0.0930 -1.1238
  405SOL     MW 1620   0.479   2.476   1.542 -0.4408 -0.2244  0.3127
  406SOL     OW 1621   0.407   2.317   1.122 -0.0323 -0.5663 -0.2736
  406SOL    HW1 1622   0.310   2.329   1.141  0.9165  5.8628 -1.5482
  406SOL    HW2 1623   0.434   2.245   1.175  0.8707 -2.7578 -2.8405
  406SOL     MW 1624   0.398   2.309   1.131  0.2120 -0.0072 -0.7805
  407SOL     OW 1625   0.048   2.720   1.117  0.5104 -0.1713  0.3614
  407SOL    HW1 1626   0.098   2.721   1.202 -0.2755 -0.0510 -0.4684
  407SOL    HW2 1627   0.108   2.677   1.050 -1.7757  5.4256  0.0210
  407SOL     MW 1628   0.063   2.714   1.120  0.1051  0.5830  0.2070
  408SOL     OW 1629   2.111   2.084   0.632 -0.9343 -0.7327  0.4309
  408SOL    HW1 1630   2.057   2.131   0.689  0.1366 -3.5628 -0.9003
  408SOL    HW2 1631   2.050   2.023   0.587  1.2156  0.5405  1.4200
  408SOL     MW 1632   2.096   2.083   0.634 -0.5094 -0.9381  0.3858
  409SOL     OW 1633   1.320   0.059   0.882  0.7484 -0.1347 -0.3229
  409SOL    HW1 1634   1.385   0.122   0.902 -0.2907 -1.9759 -0.0729
  409SOL    HW2 1635   1.352  -0.026   0.920 -1.9220 -0.4390 -1.1708
  409SOL     MW 1636   1.333   0.056   0.890  0.2590 -0.4178 -0.4018
  410SOL     OW 1637   1.089   2.488   1.097  0.4842 -1.2054  0.7955
  410SOL    HW1 1638   1.000   2.496   1.052 -0.3366 -0.4394  0.1675
  410SOL    HW2 1639   1.126   2.417   1.044 -1.0065  1.6890 -0.0111
  410SOL     MW 1640   1.082   2.480   1.084  0.1792 -0.7224  0.6062
  411SOL     OW 1641   1.944   0.095   2.839 -0.3841 -0.5076  0.7897
  411SOL    HW1 1642   1.898   0.058   2.766 -2.0482 -2.9369  1.4311
  411SOL    HW2 1643   1.888   0.087   2.924 -1.8853 -0.0077  2.2488
  411SOL     MW 1644   1.931   0.089   2.841 -0.8017 -0.7621  1.0668
  412SOL     OW 1645   1.091   2.197   0.587 -0.7327  0.1385  0.2552
  412SOL    HW1 1646   1.142   2.273   0.615  1.6550 -0.9734 -0.6766
  412SOL    HW2 1647   1.015   2.236   0.548 -2.2442  1.3128 -0.6369
  412SOL     MW 1648   1.088   2.212   0.586 -0.6171  0.1468  0.0146
  413SOL     OW 1649   0.549   2.792   0.103  0.1001  0.0202 -0.7254
  413SOL    HW1 1650   0.593   2.707   0.106  1.2608 -0.6652 -2.4494
  413SOL    HW2 1651   0.594   2.836   0.032 -0.6776 -0.4810 -3.3163
  413SOL     MW 1652   0.560   2.787   0.094  0.1507 -0.1364 -1.2947
  414SOL     OW 1653   1.973   3.076   1.080  0.0476 -0.1540  0.2714
  414SOL    HW1 1654   1.917   3.054   1.001  1.6908  1.2776 -1.3964
  414SOL    HW2 1655   2.028   3.000   1.094  0.2080  0.2648  0.9030
  414SOL     MW 1656   1.973   3.063   1.071  0.2855  0.0901  0.1347
  415SOL     OW 1657   1.720   2.661   1.070 -0.4914 -0.1770  0.6122
  415SOL    HW1 1658   1.664   2.597   1.125 -0.2233 -4.4046 -1.7850
  415SOL    HW2 1659   1.810   2.660   1.107  2.6935 -0.6611 -0.5539
  415SOL     MW 1660   1.725   2.652   1.082 -0.0358 -0.7987  0.1421
  416SOL     OW 1661   0.597   1.916   1.394 -0.4052 -0.1600 -0.1692
  416SOL    HW1 1662   0.534   1.989   1.378 -0.3873  2.2041  2.0295
  416SOL    HW2 1663   0.622   1.895   1.306 -0.8684  0.7543  0.0491
  416SOL     MW 1664   0.592   1.923   1.380 -0.4640  0.2725  0.1497
  417SOL     OW 1665   1.012   3.036   2.025 -0.1805 -0.0650  0.3301
  417SOL    HW1 1666   0.925   3.005   2.048  1.3942 -1.3605  1.7452
  417SOL    HW2 1667   1.022   2.980   1.950  0.8104  0.8320  1.7387
  417SOL     MW 1668   1.002   3.025   2.018  0.1580 -0.1176  0.7027
  418SOL     OW 1669   0.693   2.991   0.226 -0.9668 -0.1435  0.4295
  418SOL    HW1 1670   0.764   3.005   0.165 -0.0511 -1.6587  1.3229
  418SOL    HW2 1671   0.633   2.925   0.187  0.8429  0.8558  1.1243
  418SOL     MW 1672   0.695   2.984   0.213 -0.6072 -0.2116  0.6391
  419SOL     OW 1673   0.453   2.677   1.374 -0.2055 -0.8793  0.1216
  419SOL    HW1 1674   0.502   2.756   1.385  0.5185 -0.6782 -0.8372
  419SOL    HW2 1675   0.474   2.645   1.287 -0.0979  0.8305 -0.2551
  419SOL     MW 1676   0.462   2.683   1.364 -0.0957 -0.6271 -0.0546
  420SOL     OW 1677   0.794   2.186   0.998 -0.5899 -0.7300  0.0075
  420SOL    HW1 1678   0.742   2.214   1.070 -2.4010 -0.3664 -1.9143
  420SOL    HW2 1679   0.849   2.264   0.986 -0.5158 -2.4337 -0.6971
  420SOL     MW 1680   0.795   2.200   1.006 -0.8191 -0.9068 -0.3390
  421SOL     OW 1681   2.940   0.061   0.035 -0.0044 -0.0632  0.8495
  421SOL    HW1 1682   2.927   0.005  -0.041  0.5568  1.0413 -1.8092
  421SOL    HW2 1683   2.954   0.003   0.107  0.2100  0.7495 -2.6753
  421SOL     MW 1684   2.940   0.046   0.035  0.0979  0.1897  0.0336
  422SOL     OW 1685   0.880   2.434   0.933 -0.7247  0.2801  0.7833
  422SOL    HW1 1686   0.791   2.457   0.955 -1.3271  1.2736  0.4919
  422SOL    HW2 1687   0.897   2.440   0.841  0.7171 -0.8477  1.3168
  422SOL     MW 1688   0.871   2.438   0.924 -0.6139  0.2624  0.8152
  423SOL     OW 1689   1.554   0.163   0.501 -0.8696 -0.0747 -0.0468
  423SOL    HW1 1690   1.554   0.139   0.408  1.0417  0.3191  1.3033
  423SOL    HW2 1691   1.538   0.255   0.497  1.6657 -0.1992  2.8384
  423SOL     MW 1692   1.552   0.172   0.488 -0.2829 -0.0392  0.5120
  424SOL     OW 1693   0.693   2.261   1.241 -0.2621  0.5048  0.3067
  424SOL    HW1 1694   0.606   2.228   1.280 -1.0244 -0.5384  0.4507
  424SOL    HW2 1695   0.757   2.238   1.311  0.3560  2.4958 -2.8589
  424SOL     MW 1696   0.690   2.254   1.256 -0.2812  0.6299 -0.0920
  425SOL     OW 1697   1.753   2.837   1.958 -0.4617 -0.4488 -0.7535
  425SOL    HW1 1698   1.769   2.840   1.864 -0.3899 -0.4063  0.5386
  425SOL    HW2 1699   1.770   2.747   1.989  2.9426  0.5108  1.6175
  425SOL     MW 1700   1.758   2.826   1.949 -0.0031 -0.3166 -0.2702
  426SOL     OW 1701   0.771   1.687   1.947  0.4069  0.4057  0.3410
  426SOL    HW1 1702   0.721   1.690   1.867  0.8085 -0.1355 -2.5219
  426SOL    HW2 1703   0.751   1.766   1.999 -0.8501  1.6405 -1.3351
  426SOL     MW 1704   0.762   1.698   1.943  0.2940  0.4972 -0.2578
  427SOL     OW 1705   0.367   1.566   1.888 -0.4794 -0.3094  0.0052
  427SOL    HW1 1706   0.417   1.647   1.907  1.3802  2.1784  1.0126
  427SOL    HW2 1707   0.309   1.547   1.960 -3.7589  1.6402  0.5404
  427SOL     MW 1708   0.366   1.574   1.900 -0.6668  0.2761  0.2087
  428SOL     OW 1709   0.554   2.553   1.160 -0.0917 -0.5104  0.1551
  428SOL    HW1 1710   0.637   2.533   1.200  1.3486 -0.3009 -1.2482
  428SOL    HW2 1711   0.513   2.464   1.138 -0.6226 -2.3889  2.7229
  428SOL     MW 1712   0.560   2.539   1.162  0.0283 -0.7306  0.3088
  429SOL     OW 1713   1.335   2.636   1.069  0.4861 -0.2136  0.5606
  429SOL    HW1 1714   1.256   2.598   1.104 -0.0635 -1.2913 -0.6917
  429SOL    HW2 1715   1.310   2.706   1.001  1.7113 -1.0382 -1.9146
  429SOL     MW 1716   1.321   2.640   1.064  0.5752 -0.4646  0.0688
  430SOL     OW 1717   1.154   2.687   0.660 -0.4244 -0.3353 -0.0749
  430SOL    HW1 1718   1.159   2.594   0.680  1.2449  0.1436  2.2892
  430SOL    HW2 1719   1.121   2.700   0.570 -0.2775 -1.2313  0.1511
  430SOL     MW 1720   1.150   2.676   0.651 -0.1848 -0.3903  0.2668
  431SOL     OW 1721   0.327   1.963   1.129  0.5837 -0.1132 -0.2543
  431SOL    HW1 1722   0.391   1.906   1.101 -2.9418  0.1409 -0.3349
  431SOL    HW2 1723   0.294   2.006   1.048  1.4517  1.5173  1.1401
  431SOL     MW 1724   0.331   1.962   1.114  0.2330  0.1355 -0.0809
  432SOL     OW 1725   0.034   0.074   1.158 -0.0569  0.4873  0.2670
  432SOL    HW1 1726   0.053   0.105   1.253 -1.5899 -0.5910 -1.2810
  432SOL    HW2 1727  -0.002  -0.016   1.178 -1.6041  0.3882  1.6983
  432SOL     MW 1728   0.032   0.066   1.173 -0.4633  0.3320  0.2516
  433SOL     OW 1729   0.619   2.870   1.441 -0.2035  0.0496 -0.2487
  433SOL    HW1 1730   0.629   2.880   1.540 -0.8449  2.0635 -1.9132
  433SOL    HW2 1731   0.716   2.875   1.419  0.9006  3.2605  0.3126
  433SOL     MW 1732   0.633   2.872   1.451 -0.1425  0.7390 -0.3942
  434SOL     OW 1733   1.543   2.827   1.547 -0.0397  0.3999  0.4195
  434SOL    HW1 1734   1.454   2.866   1.535 -2.9998 -2.2102 -0.2421
  434SOL    HW2 1735   1.554   2.780   1.463 -0.7298  2.1228  1.0559
  434SOL     MW 1736   1.533   2.826   1.534 -0.5213  0.2828  0.4162
  435SOL     OW 1737   2.876   1.781   0.228 -0.0196 -0.6458  0.1053
  435SOL    HW1 1738   2.942   1.840   0.194  0.6243 -0.8939 -1.1568
  435SOL    HW2 1739   2.831   1.738   0.147 -1.4235 -0.4167 -3.4879
  435SOL     MW 1740   2.879   1.783   0.213 -0.1199 -0.6483 -0.5353
  436SOL     OW 1741   1.399   2.770   0.312 -0.3745 -0.1740 -0.1118
  436SOL    HW1 1742   1.451   2.736   0.384 -0.1569 -3.0771 -0.4502
  436SOL    HW2 1743   1.353   2.854   0.346 -1.8440  1.9508  1.0618
  436SOL     MW 1744   1.400   2.777   0.326 -0.5396 -0.2767 -0.0016
  437SOL     OW 1745   0.888   2.934   1.362 -0.0594 -0.2617  0.7852
  437SOL    HW1 1746   0.906   3.026   1.333  1.5487 -0.2302 -1.0799
  437SOL    HW2 1747   0.900   2.881   1.281 -0.2224 -1.2426  0.0457
  437SOL     MW 1748   0.892   2.939   1.347  0.1313 -0.3869  0.4415
  438SOL     OW 1749   0.887   2.611   1.993  0.3964  0.0489 -0.2841
  438SOL    HW1 1750   0.895   2.552   2.064  2.0152  2.2640  0.0890
  438SOL    HW2 1751   0.833   2.569   1.926  1.6216  2.3189 -0.7877
  438SOL     MW 1752   0.881   2.598   1.994  0.7716  0.6407 -0.3013
  439SOL     OW 1753   1.174   2.169   0.325 -0.0245  0.0384 -0.3623
  439SOL    HW1 1754   1.153   2.162   0.422 -0.5687  0.0782  2.2688
  439SOL    HW2 1755   1.146   2.259   0.309 -1.6402  0.9212  1.5192
  439SOL     MW 1756   1.167   2.180   0.335 -0.3095  0.1601  0.2331
  440SOL     OW 1757   1.609   2.973   3.020 -0.3538 -0.0965  0.5412
  440SOL    HW1 1758   1.565   2.970   3.104  0.0063  1.6740 -1.3228
  440SOL    HW2 1759   1.652   2.885   3.011 -0.0173 -1.4108 -0.9483
  440SOL     MW 1760   1.609   2.961   3.030 -0.2619 -0.0363  0.0987
  441SOL     OW 1761   0.318   2.561   0.532  0.7871 -0.3204  0.1474
  441SOL    HW1 1762   0.309   2.549   0.432  0.2974  3.1665 -1.3847
  441SOL    HW2 1763   0.333   2.658   0.560  0.7878  0.6191 -1.1743
  441SOL     MW 1764   0.319   2.572   0.523  0.7226  0.2636 -0.2291
  442SOL     OW 1765   0.007   2.311   0.618 -0.1568 -0.0785  0.6174
  442SOL    HW1 1766   0.023   2.405   0.609  0.0770 -0.2145  2.0163
  442SOL    HW2 1767  -0.062   2.298   0.684 -0.2823  3.1056 -0.0253
  442SOL     MW 1768   0.000   2.322   0.625 -0.1425  0.3237  0.7171
  443SOL     OW 1769   1.366   1.730   1.823 -0.2789  0.0063 -0.0427
  443SOL    HW1 1770   1.342   1.787   1.748  1.5871  3.2089 -3.1434
  443SOL    HW2 1771   1.323   1.644   1.815  1.6530  0.1429  1.2842
  443SOL     MW 1772   1.357   1.726   1.812  0.2222  0.4469 -0.2768
  444SOL     OW 1773   0.834   2.577   1.586 -0.2649  0.0338 -0.4541
  444SOL    HW1 1774   0.913   2.571   1.638  1.1601  2.5769  0.1500
  444SOL    HW2 1775   0.764   2.544   1.649 -1.4751 -1.5437  1.1392
  444SOL     MW 1776   0.835   2.572   1.602 -0.2366  0.1612 -0.1642
  445SOL     OW 1777   0.992   0.087   1.267  0.1846  0.0356 -0.1808
  445SOL    HW1 1778   0.939   0.147   1.217  1.4474 -0.5420 -0.9090
  445SOL    HW2 1779   1.083   0.099   1.233 -1.3895 -2.1303 -2.3625
  445SOL     MW 1780   0.997   0.096   1.256  0.1435 -0.3264 -0.5647
  446SOL     OW 1781   2.755   2.891   1.023  0.0606 -0.7849  0.8028
  446SOL    HW1 1782   2.679   2.900   0.963 -1.1803  0.4255  0.4199
  446SOL    HW2 1783   2.768   2.792   1.024 -0.1647 -0.8171  0.6891
  446SOL     MW 1784   2.747   2.879   1.015 -0.1328 -0.6294  0.7373
  447SOL     OW 1785   3.043   2.040   1.741  0.1365 -1.0006 -1.0369
  447SOL    HW1 1786   3.103   1.968   1.781 -1.0138 -3.3419 -0.6657
  447SOL    HW2 1787   2.979   1.990   1.686 -0.4014  0.2573 -2.8137
  447SOL     MW 1788   3.042   2.024   1.739 -0.0862 -1.1436 -1.2224
  448SOL     OW 1789   1.680   2.334   1.661 -0.1351 -0.2741  0.3032
  448SOL    HW1 1790   1.622   2.266   1.696  0.4701  1.8080  0.6037
  448SOL    HW2 1791   1.643   2.429   1.651 -0.4057  0.9888 -1.7776
  448SOL     MW 1792   1.668   2.338   1.664 -0.0909  0.1672  0.0683
  449SOL     OW 1793   0.831   2.944   0.452  0.1697  1.1892 -0.2728
  449SOL    HW1 1794   0.781   2.928   0.371 -0.5982  0.9064 -0.0423
  449SOL    HW2 1795   0.766   2.932   0.522  2.4612 -1.1575 -0.8338
  449SOL     MW 1796   0.816   2.940   0.451  0.3707  0.8423 -0.3164
  450SOL     OW 1797   1.216   2.418   0.686  0.0413  0.1594 -0.1370
  450SOL    HW1 1798   1.205   2.391   0.777  1.1468  3.6249 -1.3404
  450SOL    HW2 1799   1.305   2.451   0.678 -0.1629 -0.7395  1.1351
  450SOL     MW 1800   1.227   2.419   0.697  0.1602  0.4980 -0.1279
  451SOL     OW 1801   0.602   2.020   1.657 -0.1340  0.6181 -0.1963
  451SOL    HW1 1802   0.689   2.044   1.665 -0.2189  0.5290  0.8175
  451SOL    HW2 1803   0.586   2.004   1.562 -0.3275 -0.3309  0.3038
  451SOL     MW 1804   0.611   2.021   1.645 -0.1707  0.4811  0.0035
  452SOL     OW 1805   0.279   2.748   0.147  0.0285 -0.2987 -0.2958
  452SOL    HW1 1806   0.364   2.784   0.136 -0.3642 -0.1200  0.5404
  452SOL    HW2 1807   0.262   2.709   0.057  0.8173  1.6701  1.4710
  452SOL     MW 1808   0.288   2.748   0.133  0.0808 -0.0153  0.0477
  453SOL     OW 1809   0.383   2.990   1.673  0.2134 -0.4412  0.5377
  453SOL    HW1 1810   0.457   3.051   1.654  1.6902 -2.0787 -0.9120
  453SOL    HW2 1811   0.348   2.999   1.585 -0.9286  2.9152 -0.7481
  453SOL     MW 1812   0.388   2.999   1.659  0.2576 -0.2144  0.1768
  454SOL     OW 1813   1.066   2.803   1.093 -0.5987 -0.0736  0.3198
  454SOL    HW1 1814   1.063   2.727   1.033 -0.9116  0.7363  0.3068
  454SOL    HW2 1815   0.999   2.862   1.053 -0.7383  3.0872 -0.0825
  454SOL     MW 1816   1.057   2.801   1.080 -0.6584  0.4503  0.2650
  455SOL     OW 1817   1.550   2.955   0.188  0.0378  0.5644 -0.0438
  455SOL    HW1 1818   1.627   2.951   0.239  0.4611 -0.7793  0.8637
  455SOL    HW2 1819   1.493   2.886   0.226 -1.0957  2.1670 -0.6034
  455SOL     MW 1820   1.552   2.945   0.200 -0.0559  0.5986  0.0021
  456SOL     OW 1821   2.945   0.349   1.381 -0.7430  0.2185 -0.2928
  456SOL    HW1 1822   2.901   0.270   1.336  0.8878 -3.4590  0.1153
  456SOL    HW2 1823   3.026   0.381   1.326  0.5480 -1.7148 -0.9259
  456SOL     MW 1824   2.950   0.343   1.368 -0.3575 -0.5218 -0.3225
  457SOL     OW 1825   0.839   1.537   2.998  0.2526  0.3189 -0.5157
  457SOL    HW1 1826   0.746   1.541   3.026 -0.4556 -0.5329  2.3698
  457SOL    HW2 1827   0.887   1.527   3.082  2.1138 -3.2178  2.7130
  457SOL     MW 1828   0.833   1.536   3.013  0.4047 -0.2601  0.2910
  458SOL     OW 1829   1.456   1.403   0.648  0.6644 -0.0038  0.2531
  458SOL    HW1 1830   1.366   1.406   0.672  0.9413 -0.3632 -2.6541
  458SOL    HW2 1831   1.444   1.335   0.577  2.4184  2.2131 -0.1424
  458SOL     MW 1832   1.442   1.394   0.642  0.9323  0.2413 -0.1826
  459SOL     OW 1833   1.560   0.138   0.229 -0.2749 -0.2079  0.0309
  459SOL    HW1 1834   1.535   0.045   0.236  0.8084 -0.4044  1.7507
  459SOL    HW2 1835   1.514   0.192   0.159 -0.0811 -1.0683  0.5445
  459SOL     MW 1836   1.550   0.133   0.221 -0.1064 -0.3473  0.3255
  460SOL     OW 1837   1.692   2.167   0.605  0.7244  0.4053  0.1619
  460SOL    HW1 1838   1.627   2.135   0.660  5.3539  1.0523 -1.0779
  460SOL    HW2 1839   1.745   2.082   0.584 -3.1044 -0.7723  2.9064
  460SOL     MW 1840   1.691   2.152   0.610  0.8301  0.3353  0.3604
  461SOL     OW 1841   0.529   2.405   0.595  0.1687  0.5615  0.4065
  461SOL    HW1 1842   0.482   2.485   0.571  0.2117  4.4312  0.5727
  461SOL    HW2 1843   0.529   2.387   0.688 -2.5557 -2.4663  1.2586
  461SOL     MW 1844   0.523   2.413   0.604 -0.1851  0.6726  0.5408
  462SOL     OW 1845   0.357   0.305   1.281  0.1889 -0.9529 -0.1127
  462SOL    HW1 1846   0.376   0.257   1.208  0.0595  0.1853  0.3233
  462SOL    HW2 1847   0.450   0.319   1.314  1.3607  0.5743  0.7785
  462SOL     MW 1848   0.371   0.301   1.275  0.3264 -0.6012  0.0624
  463SOL     OW 1849   1.015   0.052   0.725  0.1160 -0.2857  0.1640
  463SOL    HW1 1850   1.051   0.045   0.635  1.0880  0.4095  1.3911
  463SOL    HW2 1851   0.915   0.053   0.715 -0.4371 -0.5209  1.5929
  463SOL     MW 1852   1.007   0.051   0.712  0.1713 -0.2250  0.5144
  464SOL     OW 1853   0.780   2.940   2.131 -0.3242  0.1912  0.4323
  464SOL    HW1 1854   0.746   2.848   2.129 -0.7545 -1.9323 -0.1195
  464SOL    HW2 1855   0.790   2.974   2.229  1.5726  1.3144  1.6064
  464SOL     MW 1856   0.777   2.932   2.144 -0.1307  0.0592  0.5144
  465SOL     OW 1857   0.751   0.202   0.503  0.0038  0.2871  0.0757
  465SOL    HW1 1858   0.723   0.133   0.569 -2.8687 -0.2749  1.4461
  465SOL    HW2 1859   0.730   0.180   0.413  0.1112  1.4291  0.9158
  465SOL     MW 1860   0.745   0.190   0.500 -0.3610  0.3636  0.3673
  466SOL     OW 1861   1.066   1.965   0.710 -0.1070  0.1987  0.5607
  466SOL    HW1 1862   1.052   1.887   0.654 -0.0597 -0.6202  1.3227
  466SOL    HW2 1863   1.056   2.045   0.655 -0.2802  0.0292 -0.4834
  466SOL     MW 1864   1.063   1.965   0.695 -0.1236  0.0683  0.5235
  467SOL     OW 1865   1.223   2.275   0.959 -0.4569 -0.1414  0.5787
  467SOL    HW1 1866   1.316   2.306   0.957 -0.8760 -0.8862 -0.1618
  467SOL    HW2 1867   1.224   2.181   0.937  0.8607  2.9042  0.2061
  467SOL     MW 1868   1.235   2.267   0.956 -0.3384  0.1621  0.4319
  468SOL     OW 1869   0.323   2.622   1.984  0.0766 -0.1452  0.3431
  468SOL    HW1 1870   0.350   2.532   1.969  3.5156  1.6988  1.6114
  468SOL    HW2 1871   0.385   2.683   1.951 -3.2585  1.1858  0.4962
  468SOL     MW 1872   0.335   2.618   1.977  0.0903  0.2737  0.5306
  469SOL     OW 1873   0.384   2.097   1.839  0.3869  0.5316  0.0506
  469SOL    HW1 1874   0.313   2.027   1.821 -0.7902  1.0740 -0.5614
  469SOL    HW2 1875   0.465   2.073   1.787 -1.8266  0.2310  0.3930
  469SOL     MW 1876   0.385   2.085   1.830 -0.0605  0.5635  0.0151
  470SOL     OW 1877   3.051   2.533   0.152 -0.0091  0.0072  0.5772
  470SOL    HW1 1878   2.973   2.489   0.192  1.8687 -0.6888  1.7354
  470SOL    HW2 1879   3.036   2.549   0.057  0.7751  3.6705  1.7450
  470SOL     MW 1880   3.039   2.529   0.145  0.3421  0.3987  0.8841
  471SOL     OW 1881   1.188   2.731   1.359  0.5994  0.6420 -0.1580
  471SOL    HW1 1882   1.116   2.752   1.421 -0.6199 -0.7028  0.8285
  471SOL    HW2 1883   1.138   2.742   1.274 -1.8067  0.2055 -1.2486
  471SOL     MW 1884   1.171   2.735   1.356  0.1211  0.4069 -0.1718
  472SOL     OW 1885   2.922   2.124   0.311  0.0237 -0.2706  0.1202
  472SOL    HW1 1886   2.941   2.076   0.227 -2.1950  2.5094  0.3472
  472SOL    HW2 1887   2.893   2.056   0.371  2.6837  1.0016 -0.9822
  472SOL     MW 1888   2.921   2.109   0.308  0.0819  0.2641  0.0047
  473SOL     OW 1889   0.799   2.540   1.292 -0.4768 -0.2474  0.2728
  473SOL    HW1 1890   0.825   2.446   1.283  0.4464  0.8210  2.2251
  473SOL    HW2 1891   0.814   2.548   1.385  3.4450 -1.7674  0.3507
  473SOL     MW 1892   0.804   2.528   1.303  0.1625 -0.3070  0.5407
  474SOL     OW 1893   0.825   2.216   1.767 -0.7159  0.3138 -0.8553
  474SOL    HW1 1894   0.923   2.201   1.781  2.5798 -1.2397 -0.5086
  474SOL    HW2 1895   0.820   2.205   1.669  0.1228 -0.2293  1.8564
  474SOL     MW 1896   0.838   2.213   1.756 -0.1704  0.0372 -0.4518
  475SOL     OW 1897   1.626   3.071   1.418  0.1582 -0.4561  0.0907
  475SOL    HW1 1898   1.545   3.102   1.382  1.9623  1.2938  2.3811
  475SOL    HW2 1899   1.609   2.989   1.459 -0.0050 -0.6176  1.2920
  475SOL     MW 1900   1.613   3.065   1.418  0.3747 -0.2465  0.5514
  476SOL     OW 1901   1.465   2.591   0.799  0.2175  0.0968  0.1655
  476SOL    HW1 1902   1.416   2.595   0.882 -0.0455 -2.0986  2.8546
  476SOL    HW2 1903   1.494   2.682   0.773  2.2459  0.8151 -2.9850
  476SOL     MW 1904   1.462   2.603   0.807  0.4505 -0.0981  0.1046
  477SOL     OW 1905   0.887   2.508   0.662  0.2987  0.1999  0.0198
  477SOL    HW1 1906   0.910   2.558   0.588 -0.3274 -3.5851 -1.7596
  477SOL    HW2 1907   0.851   2.421   0.629  0.1773  0.3283 -3.2767
  477SOL     MW 1908   0.885   2.503   0.648  0.2000 -0.2825 -0.6499
  478SOL     OW 1909   0.242   2.615   0.913 -0.1588 -0.1961 -0.2681
  478SOL    HW1 1910   0.295   2.685   0.959 -0.5114  2.6667  2.9530
  478SOL    HW2 1911   0.304   2.553   0.870 -0.3092  0.7709 -1.9139
  478SOL     MW 1912   0.257   2.616   0.913 -0.2252  0.3092 -0.0603
  479SOL     OW 1913   1.382   1.943   1.318  0.0657 -0.1064 -0.4230
  479SOL    HW1 1914   1.349   1.998   1.390 -1.1623  1.4391  1.9026
  479SOL    HW2 1915   1.454   1.891   1.358  0.4080 -0.4016  0.0380
  479SOL     MW 1916   1.387   1.943   1.333 -0.0512  0.0586 -0.0553
  480SOL     OW 1917   1.832   2.352   1.284  0.3062  0.3819  0.3003
  480SOL    HW1 1918   1.866   2.274   1.324 -0.3357  2.5535  1.4793
  480SOL    HW2 1919   1.867   2.350   1.192  0.8389  0.3881 -2.2118
  480SOL     MW 1920   1.841   2.342   1.277  0.2918  0.6693  0.1244
  481SOL     OW 1921   1.211   0.140   1.110 -0.3755 -0.5236  0.3860
  481SOL    HW1 1922   1.223   0.101   1.025 -1.3700 -0.7715 -1.6074
  481SOL    HW2 1923   1.200   0.237   1.091  1.6334  0.1385 -0.0150
  481SOL     MW 1924   1.211   0.148   1.096 -0.2417 -0.4690  0.0701
  482SOL     OW 1925   1.029   0.043   0.422 -0.3566  0.2438 -0.1148
  482SOL    HW1 1926   0.945  -0.003   0.432 -0.7885 -0.2701 -1.5717
  482SOL    HW2 1927   1.006   0.128   0.385  0.7071  0.5255  0.7667
  482SOL     MW 1928   1.015   0.048   0.419 -0.2732  0.2132 -0.1907
  483SOL     OW 1929   0.345   2.846   0.588 -0.0940  0.4776 -0.5543
  483SOL    HW1 1930   0.285   2.895   0.527  0.9303 -1.3140  1.1543
  483SOL    HW2 1931   0.332   2.893   0.668  0.8324 -3.3082  1.0868
  483SOL     MW 1932   0.336   2.858   0.590  0.1634 -0.2583 -0.1123
  484SOL     OW 1933   1.664   1.871   1.432  0.0566 -0.2152  0.6054
  484SOL    HW1 1934   1.744   1.923   1.422  1.6645  3.5976  0.4546
  484SOL    HW2 1935   1.650   1.881   1.525  2.8302  0.4836 -0.0517
  484SOL     MW 1936   1.673   1.879   1.443  0.6347  0.3801  0.4988
  485SOL     OW 1937   0.569   2.318   0.341 -0.2114  0.1899  0.2481
  485SOL    HW1 1938   0.565   2.345   0.434  3.3887 -1.6124 -0.0961
  485SOL    HW2 1939   0.497   2.366   0.292  1.9309 -2.2348  0.2130
  485SOL     MW 1940   0.559   2.328   0.347  0.5463 -0.3678  0.1981
  486SOL     OW 1941   0.118   2.459   1.442  0.2696 -0.3903  0.0701
  486SOL    HW1 1942   0.098   2.554   1.415  0.5076  0.0193 -0.9810
  486SOL    HW2 1943   0.118   2.467   1.536 -0.0331 -0.4154 -3.5187
  486SOL     MW 1944   0.115   2.473   1.451  0.2611 -0.3396 -0.5421
  487SOL     OW 1945   1.283   1.599   0.968  0.0478  0.1622 -0.3127
  487SOL    HW1 1946   1.241   1.684   0.989  0.8065 -0.2380 -1.0137
  487SOL    HW2 1947   1.372   1.627   0.983  0.6928  0.9098 -0.5879
  487SOL     MW 1948   1.289   1.614   0.973  0.2330  0.2081 -0.4415
  488SOL     OW 1949   1.508   1.837   0.615 -0.1279  0.3587 -0.4655
  488SOL    HW1 1950   1.499   1.922   0.576  1.0178  1.6605  1.2895
  488SOL    HW2 1951   1.435   1.782   0.576  2.5038 -1.5590 -1.8505
  488SOL     MW 1952   1.497   1.841   0.605  0.3705  0.2774 -0.4167
  489SOL     OW 1953   0.711   0.770   0.531  0.4564  0.2576 -0.3298
  489SOL    HW1 1954   0.699   0.685   0.499  1.5875  0.1735  0.7179
  489SOL    HW2 1955   0.718   0.752   0.625 -1.6915  1.6366 -0.3903
  489SOL     MW 1956   0.710   0.757   0.539  0.3222  0.4284 -0.1995
  490SOL     OW 1957   1.400   2.082   0.433 -0.0641 -0.4532  0.1602
  490SOL    HW1 1958   1.475   2.130   0.399 -0.5628  0.3092 -0.9456
  490SOL    HW2 1959   1.322   2.128   0.396  0.0728 -0.5738 -0.0891
  490SOL     MW 1960   1.400   2.094   0.424 -0.1118 -0.3685 -0.0186
  491SOL     OW 1961   1.271   2.976   0.404  0.2371 -0.0264  0.6298
  491SOL    HW1 1962   1.308   3.037   0.473  1.1915 -0.6874  2.7669
  491SOL    HW2 1963   1.190   3.014   0.383  3.7944  0.0582  0.3262
  491SOL     MW 1964   1.265   2.989   0.410  0.8324 -0.1024  0.8717
  492SOL     OW 1965   1.432   2.142   0.694 -0.2420  0.3579 -0.4256
  492SOL    HW1 1966   1.406   2.118   0.605  2.7857 -0.4680 -1.3705
  492SOL    HW2 1967   1.385   2.084   0.758  0.0156 -1.8702  0.3402
  492SOL     MW 1968   1.422   2.131   0.691  0.1914 -0.0450 -0.4492
  493SOL     OW 1969   0.194   2.987   0.366  0.2919  0.0674  0.5505
  493SOL    HW1 1970   0.124   3.025   0.423 -0.6730 -3.1440  3.4275
  493SOL    HW2 1971   0.167   2.992   0.276  0.4134  3.1844  0.5605
  493SOL     MW 1972   0.181   2.993   0.362  0.1806  0.0549  0.9314
  494SOL     OW 1973   0.389   2.403   1.805  0.0787  0.2934  0.2559
  494SOL    HW1 1974   0.390   2.302   1.802  0.7483 -1.5068  2.1921
  494SOL    HW2 1975   0.416   2.420   1.713  0.8694 -2.5032 -1.8265
  494SOL     MW 1976   0.393   2.392   1.793  0.2714 -0.3131  0.2366
  495SOL     OW 1977   2.896   1.647   2.751  0.4507  0.5660 -0.4330
  495SOL    HW1 1978   2.844   1.729   2.777 -1.4844 -0.2514  0.1633
  495SOL    HW2 1979   2.888   1.591   2.827 -0.5140  1.8668  0.7722
  495SOL     MW 1980   2.888   1.650   2.764  0.0681  0.6298 -0.1953
  496SOL     OW 1981   2.758   2.271   2.725 -0.2270 -0.1739 -0.2474
  496SOL    HW1 1982   2.789   2.181   2.738  0.0358  0.1757  0.1986
  496SOL    HW2 1983   2.842   2.324   2.732  0.0580  3.4430 -0.3914
  496SOL     MW 1984   2.773   2.266   2.728 -0.1548  0.3494 -0.2075
  497SOL     OW 1985   1.498   2.337   2.546 -0.2470 -0.2661  0.2261
  497SOL    HW1 1986   1.515   2.270   2.468 -0.0320 -1.7253  0.9991
  497SOL    HW2 1987   1.471   2.282   2.621  1.4074 -1.0058 -0.5122
  497SOL     MW 1988   1.497   2.321   2.546 -0.0004 -0.5562  0.2307
  498SOL     OW 1989   1.482   2.790   2.295  0.8324  0.2726 -0.0758
  498SOL    HW1 1990   1.481   2.694   2.285 -1.7341 -0.3662 -0.5042
  498SOL    HW2 1991   1.557   2.801   2.348 -0.3859  0.5128 -0.8527
  498SOL     MW 1992   1.492   2.779   2.301  0.3330  0.2200 -0.2348
  499SOL     OW 1993   0.945   0.138   0.095 -0.1327  0.2491 -0.1555
  499SOL    HW1 1994   0.853   0.151   0.134 -2.5715 -2.1369 -1.6440
  499SOL    HW2 1995   0.960   0.048   0.069  0.0860  0.5284  0.3105
  499SOL     MW 1996   0.935   0.128   0.097 -0.4257 -0.0289 -0.2904
  500SOL     OW 1997   1.031   2.512   2.749 -0.1404 -0.0584 -0.1080
  500SOL    HW1 1998   1.086   2.464   2.811 -0.4418  2.3670  0.6195
  500SOL    HW2 1999   0.971   2.573   2.802 -2.2237  0.6462 -1.6427
  500SOL     MW 2000   1.030   2.514   2.764 -0.4550  0.3546 -0.2145
  501SOL     OW 2001   1.738   2.223   0.008 -0.4979  0.0126  0.2915
  501SOL    HW1 2002   1.735   2.319  -0.004  1.0359  1.0318  0.0914
  501SOL    HW2 2003   1.830   2.202   0.035 -1.1417 -1.0073  2.6045
  501SOL     MW 2004   1.750   2.233   0.010 -0.3805  0.0125  0.5703
  502SOL     OW 2005   0.238   2.697   2.995 -0.6504  0.0914  0.2297
  502SOL    HW1 2006   0.154   2.669   2.956  0.4627 -0.8268  0.4007
  502SOL    HW2 2007   0.272   2.767   2.940 -0.6516 -0.9090  0.0200
  502SOL     MW 2008   0.232   2.703   2.982 -0.5037 -0.1617  0.2246
  503SOL     OW 2009   1.134   2.596   2.123 -0.5858  0.1358  0.0068
  503SOL    HW1 2010   1.197   2.593   2.048 -0.8696 -2.6536  2.0787
  503SOL    HW2 2011   1.058   2.634   2.082  2.0304  1.9497  0.3070
  503SOL     MW 2012   1.132   2.600   2.107 -0.2781  0.0071  0.3198
  504SOL     OW 2013   0.077   2.625   2.141  0.4193 -0.7956 -0.4504
  504SOL    HW1 2014   0.137   2.597   2.075  1.7740  1.9157 -1.3354
  504SOL    HW2 2015   0.053   2.539   2.182  1.4968  0.8801  1.5350
  504SOL     MW 2016   0.081   2.610   2.138  0.7402 -0.2167 -0.3052
  505SOL     OW 2017   1.609   2.730   2.741 -0.1662 -1.2661  0.0182
  505SOL    HW1 2018   1.657   2.765   2.668  2.1339  1.5031 -0.8469
  505SOL    HW2 2019   1.549   2.803   2.769 -0.4563  0.0806 -0.8985
  505SOL     MW 2020   1.607   2.744   2.735  0.0990 -0.7231 -0.2169
  506SOL     OW 2021   1.586   0.048   2.807  0.1868 -0.2392  0.5999
  506SOL    HW1 2022   1.586  -0.004   2.893 -0.8489 -0.1464 -0.8946
  506SOL    HW2 2023   1.655   0.007   2.764 -1.0954 -0.9915  0.5960
  506SOL     MW 2024   1.595   0.036   2.813 -0.1190 -0.3262  0.4022
  507SOL     OW 2025   0.864   2.707   2.851  0.0361 -0.1513 -0.0462
  507SOL    HW1 2026   0.898   2.780   2.797 -0.1598  1.8266  1.4771
  507SOL    HW2 2027   0.772   2.686   2.827 -0.7465 -1.2683 -1.3260
  507SOL     MW 2028   0.856   2.714   2.840 -0.0930 -0.0377 -0.0141
  508SOL     OW 2029   1.160   2.081   2.592 -0.4425 -0.3923 -0.1660
  508SOL    HW1 2030   1.235   2.115   2.636  1.5159 -1.0894 -0.1271
  508SOL    HW2 2031   1.089   2.097   2.652 -0.5689  0.0828 -1.3859
  508SOL     MW 2032   1.161   2.087   2.606 -0.2008 -0.4216 -0.3218
  509SOL     OW 2033   0.639   2.571   2.791 -0.2012 -0.0803  0.3887
  509SOL    HW1 2034   0.640   2.503   2.723  0.4363  2.5381 -1.2016
  509SOL    HW2 2035   0.572   2.636   2.753 -0.4702 -1.9878 -2.7376
  509SOL     MW 2036   0.630   2.571   2.777 -0.1526  0.0135 -0.2336
  510SOL     OW 2037   1.533   2.568   1.640  0.0253  0.0200  0.3234
  510SOL    HW1 2038   1.545   2.661   1.639 -2.5893  0.5035 -0.2442
  510SOL    HW2 2039   1.472   2.545   1.715  0.0779  1.1638  2.9562
  510SOL     MW 2040   1.526   2.577   1.650 -0.3128  0.2347  0.5959
  511SOL     OW 2041   0.355   2.507   2.549 -0.0819 -0.1547 -0.5283
  511SOL    HW1 2042   0.443   2.473   2.569  1.8689  1.2639 -2.8621
  511SOL    HW2 2043   0.351   2.519   2.452 -1.2258  1.7218  1.2710
  511SOL     MW 2044   0.366   2.504   2.539  0.0246  0.2801 -0.5988
  512SOL     OW 2045   1.017   2.002   2.854 -0.2641  0.3992 -0.2417
  512SOL    HW1 2046   0.969   2.042   2.928  3.0565  2.7561  2.8328
  512SOL    HW2 2047   1.006   1.913   2.884  0.5106  0.0774 -0.9194
  512SOL     MW 2048   1.009   1.996   2.868  0.2763  0.6677  0.0745
  513SOL     OW 2049   1.559   2.545   2.174  0.6884 -0.0246 -0.5762
  513SOL    HW1 2050   1.634   2.582   2.134 -1.9238 -0.7783  2.6238
  513SOL    HW2 2051   1.581   2.491   2.246 -1.0205  4.2007 -1.0516
  513SOL     MW 2052   1.572   2.543   2.178  0.1182  0.4334 -0.2167
  514SOL     OW 2053   0.144   2.343   2.646  0.5061 -0.1325 -0.2001
  514SOL    HW1 2054   0.201   2.405   2.594  0.1558  1.0096  2.0483
  514SOL    HW2 2055   0.211   2.323   2.713 -1.1185  1.4820 -1.7662
  514SOL     MW 2056   0.160   2.349   2.648  0.2455  0.2312 -0.1101
  515SOL     OW 2057   1.087   1.920   1.810  0.2672 -0.4117  0.3313
  515SOL    HW1 2058   1.095   2.020   1.793 -0.1167  1.5838 -1.6149
  515SOL    HW2 2059   1.133   1.910   1.892 -1.0443  3.1651 -2.6975
  515SOL     MW 2060   1.094   1.932   1.818  0.0435  0.3235 -0.3251
  516SOL     OW 2061   1.335   2.599   2.935  0.5414 -0.4697  0.0103
  516SOL    HW1 2062   1.372   2.596   2.845  0.3986  1.4375  0.0862
  516SOL    HW2 2063   1.294   2.518   2.950  2.4041 -1.5561  2.5313
  516SOL     MW 2064   1.334   2.588   2.925  0.7683 -0.3614  0.3530
  517SOL     OW 2065   0.565   2.373   2.288  0.2935  0.0295 -0.1565
  517SOL    HW1 2066   0.511   2.450   2.296  1.2036 -0.6157  0.9523
  517SOL    HW2 2067   0.509   2.324   2.226  1.5964  0.9948 -4.0310
  517SOL     MW 2068   0.550   2.377   2.281  0.5855  0.0717 -0.5214
  518SOL     OW 2069   1.812   0.072   3.068  0.0172 -0.5749 -0.4018
  518SOL    HW1 2070   1.811   0.104   3.155  0.2317  1.3921  1.3012
  518SOL    HW2 2071   1.737   0.015   3.068 -1.8438  1.9924  0.7667
  518SOL     MW 2072   1.802   0.069   3.079 -0.2000  0.0234 -0.0230
  519SOL     OW 2073   0.696   2.467   1.816  1.3006  0.5415 -1.1461
  519SOL    HW1 2074   0.736   2.386   1.790 -1.9963  0.7085 -0.2055
  519SOL    HW2 2075   0.601   2.454   1.794 -0.4472  2.8723 -0.2293
  519SOL     MW 2076   0.688   2.454   1.810  0.6350  0.8711 -0.9010
  520SOL     OW 2077   1.244   2.135   2.936 -0.0293  0.5725  0.5440
  520SOL    HW1 2078   1.176   2.070   2.918  0.4010  2.1907 -0.4420
  520SOL    HW2 2079   1.276   2.136   3.026  2.7320 -1.2864 -2.5903
  520SOL     MW 2080   1.239   2.127   2.946  0.3918  0.5407  0.0004
  521SOL     OW 2081   1.801   2.065   2.236  0.0607  0.1060 -0.3035
  521SOL    HW1 2082   1.804   2.078   2.140 -0.1411  1.0932 -0.3283
  521SOL    HW2 2083   1.810   1.974   2.254 -0.7200 -0.5317 -2.8109
  521SOL     MW 2084   1.803   2.055   2.226 -0.0689  0.1521 -0.6376
  522SOL     OW 2085   2.888   2.542   2.236  0.1319 -0.1754 -0.1292
  522SOL    HW1 2086   2.964   2.478   2.246 -1.1343  1.4429 -0.9019
  522SOL    HW2 2087   2.908   2.637   2.259 -0.8001 -0.0186  2.0591
  522SOL     MW 2088   2.900   2.546   2.240 -0.1582  0.0588  0.0575
  523SOL     OW 2089   0.820   1.492   2.147  0.0664  0.4313 -0.1863
  523SOL    HW1 2090   0.787   1.552   2.084 -0.8240 -1.4950 -0.8953
  523SOL    HW2 2091   0.911   1.481   2.122 -0.6304  3.0725 -1.1564
  523SOL     MW 2092   0.827   1.499   2.135 -0.1430  0.5256 -0.4078
  524SOL     OW 2093   0.621   2.358   2.996 -0.4925 -0.6872  0.1715
  524SOL    HW1 2094   0.636   2.425   2.931 -0.8238 -0.8291 -1.8371
  524SOL    HW2 2095   0.703   2.311   2.998  1.3436 -2.7448 -3.7859
  524SOL     MW 2096   0.634   2.361   2.988 -0.2940 -0.9774 -0.6156
  525SOL     OW 2097   0.441   2.206   2.119  0.7401  0.0368  0.3810
  525SOL    HW1 2098   0.403   2.125   2.142  0.4113  2.5894 -3.2034
  525SOL    HW2 2099   0.520   2.190   2.061  4.0445  1.5345  0.8174
  525SOL     MW 2100   0.447   2.193   2.114  1.1327  0.5712 -0.0343
  526SOL     OW 2101   0.684   2.142   2.014 -0.0839  0.9018 -0.4105
  526SOL    HW1 2102   0.707   2.166   1.922 -3.4333 -3.3740  1.2873
  526SOL    HW2 2103   0.767   2.158   2.052  1.0611  0.6619 -0.6516
  526SOL     MW 2104   0.698   2.147   2.007 -0.3747  0.3060 -0.2183
  527SOL     OW 2105   1.276   1.896   2.018  0.0845  0.1713  0.3266
  527SOL    HW1 2106   1.273   1.865   2.105 -0.4136 -0.5182 -0.5693
  527SOL    HW2 2107   1.304   1.822   1.963  1.5486  0.3672  0.8959
  527SOL     MW 2108   1.279   1.882   2.022  0.2120  0.1062  0.2835
  528SOL     OW 2109   0.632   2.888   2.966  0.3364 -0.3076  0.1794
  528SOL    HW1 2110   0.625   2.983   2.943 -0.0561 -2.8978  0.3318
  528SOL    HW2 2111   0.607   2.845   2.884  0.6793  4.1977  0.1084
  528SOL     MW 2112   0.628   2.895   2.952  0.3298 -0.0549  0.1901
  529SOL     OW 2113   1.101   2.198   1.823 -0.4859 -0.6278  0.4621
  529SOL    HW1 2114   1.131   2.246   1.902 -2.5933 -0.9798 -0.5765
  529SOL    HW2 2115   1.100   2.271   1.758 -1.4818  2.1427  0.8849
  529SOL     MW 2116   1.105   2.214   1.825 -0.8954 -0.3087  0.3809
  530SOL     OW 2117   1.139   2.384   2.977  0.1248 -0.2479  0.7049
  530SOL    HW1 2118   1.061   2.389   3.034 -0.2588  0.2474  0.4152
  530SOL    HW2 2119   1.172   2.297   2.973  0.1323 -0.0566 -0.4635
  530SOL     MW 2120   1.133   2.373   2.984  0.0752 -0.1573  0.5125
  531SOL     OW 2121   0.919   1.803   2.637  0.6208  0.0654  0.4870
  531SOL    HW1 2122   0.915   1.893   2.669  2.6329 -1.5198 -0.4408
  531SOL    HW2 2123   0.855   1.747   2.684  0.2687  2.0608 -2.0448
  531SOL     MW 2124   0.910   1.808   2.647  0.8398  0.1195  0.0305
  532SOL     OW 2125   1.655   0.296   2.857  0.1947 -0.3177 -0.0127
  532SOL    HW1 2126   1.634   0.205   2.847 -1.8842 -1.7596  0.2117
  532SOL    HW2 2127   1.744   0.298   2.885  0.3901  0.5229 -1.1079
  532SOL     MW 2128   1.664   0.284   2.859 -0.0538 -0.3970 -0.1276
  533SOL     OW 2129   1.790   2.729   2.933  0.0870 -0.2170 -0.0702
  533SOL    HW1 2130   1.781   2.648   2.990  0.1308  0.7343 -1.7013
  533SOL    HW2 2131   1.711   2.720   2.872 -0.5779 -0.2185 -0.0681
  533SOL     MW 2132   1.778   2.717   2.932  0.0051 -0.0917 -0.2851
  534SOL     OW 2133   1.730   2.462   2.491 -0.1727  0.3205 -0.5599
  534SOL    HW1 2134   1.658   2.416   2.529 -0.2764  0.4813  0.7030
  534SOL    HW2 2135   1.808   2.432   2.541  1.2750 -1.2739 -1.1995
  534SOL     MW 2136   1.731   2.452   2.503  0.0046  0.1313 -0.4776
  535SOL     OW 2137   1.820   2.362   1.912 -0.2847 -0.0550 -0.1033
  535SOL    HW1 2138   1.742   2.361   1.857  4.1602 -1.4545 -1.1209
  535SOL    HW2 2139   1.895   2.380   1.852  0.9415 -2.2420  0.5947
  535SOL     MW 2140   1.819   2.364   1.897  0.4636 -0.5282 -0.1455
  536SOL     OW 2141   0.458   1.812   2.006 -0.3763 -0.2007  0.0257
  536SOL    HW1 2142   0.466   1.871   1.931  2.1910  0.0870 -0.9665
  536SOL    HW2 2143   0.540   1.827   2.047 -0.8474  0.3125 -3.2387
  536SOL     MW 2144   0.470   1.822   2.002 -0.0997 -0.0950 -0.5359
  537SOL     OW 2145   1.024   0.182   2.901  0.6694  0.2777 -0.3854
  537SOL    HW1 2146   0.990   0.185   2.995 -1.2107  0.6500  2.1902
  537SOL    HW2 2147   1.054   0.268   2.880  1.4789 -1.7555  2.4397
  537SOL     MW 2148   1.023   0.194   2.910  0.5281  0.0585  0.3272
  538SOL     OW 2149   1.311   0.054   3.015  0.0676  0.1384 -0.5267
  538SOL    HW1 2150   1.228   0.076   2.969 -3.4605  1.5626 -1.4039
  538SOL    HW2 2151   1.363   0.136   3.019 -0.0832 -0.2491 -0.4738
  538SOL     MW 2152   1.307   0.068   3.009 -0.4178  0.2752 -0.6354
  539SOL     OW 2153   0.726   2.707   2.522  0.2556  0.3013 -0.1235
  539SOL    HW1 2154   0.806   2.756   2.540  1.2498 -0.2474 -0.7605
  539SOL    HW2 2155   0.742   2.612   2.504  3.0654  0.9999  0.5795
  539SOL     MW 2156   0.739   2.701   2.522  0.7575  0.3211 -0.1148
  540SOL     OW 2157   0.343   2.260   2.837 -0.8019  0.3736  0.0850
  540SOL    HW1 2158   0.431   2.282   2.867  1.4560 -0.8788  1.1423
  540SOL    HW2 2159   0.307   2.200   2.903  0.1060  2.1461 -0.4832
  540SOL     MW 2160   0.350   2.255   2.850 -0.3842  0.4422  0.1495
  541SOL     OW 2161   0.189   2.864   2.246 -0.0598 -0.1567 -0.6369
  541SOL    HW1 2162   0.155   2.780   2.217  2.0014  0.5602 -3.0796
  541SOL    HW2 2163   0.237   2.842   2.329 -2.3179 -2.5976  0.2397
  541SOL     MW 2164   0.191   2.850   2.253 -0.0858 -0.3842 -0.8435
  542SOL     OW 2165   0.899   2.280   2.706  0.1493 -0.0320 -0.3850
  542SOL    HW1 2166   0.877   2.264   2.804  1.2156 -1.7184 -1.7320
  542SOL    HW2 2167   0.962   2.355   2.713 -0.7357  0.3433 -1.0939
  542SOL     MW 2168   0.904   2.288   2.720  0.1733 -0.2050 -0.6563
  543SOL     OW 2169   1.402   2.565   2.677  0.0566 -0.3889 -0.0070
  543SOL    HW1 2170   1.425   2.489   2.618  0.1772 -0.8233 -1.6462
  543SOL    HW2 2171   1.487   2.616   2.689  1.1803 -1.4496 -2.3993
  543SOL     MW 2172   1.416   2.562   2.671  0.2208 -0.5862 -0.5389
  544SOL     OW 2173   0.677   0.158   2.662 -0.3811  0.5631  0.7128
  544SOL    HW1 2174   0.590   0.114   2.633 -1.4794  3.4323  1.1123
  544SOL    HW2 2175   0.742   0.118   2.603 -1.9159 -0.1391  2.2080
  544SOL     MW 2176   0.674   0.147   2.650 -0.7285  0.8490  0.9628
  545SOL     OW 2177   1.537   2.155   2.334 -0.1119 -0.3591  0.0996
  545SOL    HW1 2178   1.460   2.108   2.314 -0.6633  3.2309 -1.3536
  545SOL    HW2 2179   1.627   2.111   2.314  0.1878  3.6067  0.1787
  545SOL     MW 2180   1.539   2.143   2.328 -0.1451  0.6378 -0.0817
  546SOL     OW 2181   2.995   1.976   0.094  0.1651  0.3208 -0.3402
  546SOL    HW1 2182   2.981   2.056   0.040  1.1086 -0.6546 -0.3342
  546SOL    HW2 2183   3.083   1.945   0.088  2.9616 -0.5302 -1.0635
  546SOL     MW 2184   3.005   1.982   0.086  0.6586  0.0798 -0.4348
  547SOL     OW 2185   0.139   2.974   0.078  0.3272  0.9366  0.0342
  547SOL    HW1 2186   0.181   3.016   0.003 -0.0049  2.8877 -0.9347
  547SOL    HW2 2187   0.189   2.893   0.095 -0.7014 -0.2158  0.7940
  547SOL     MW 2188   0.151   2.968   0.070  0.1477  1.0420  0.0066
  548SOL     OW 2189   0.304   2.485   0.270 -0.3165 -0.1842 -0.0716
  548SOL    HW1 2190   0.272   2.567   0.227 -1.5583  0.0414 -2.8745
  548SOL    HW2 2191   0.264   2.414   0.227  2.1214 -2.7051  3.1928
  548SOL     MW 2192   0.295   2.486   0.258 -0.1587 -0.4871 -0.0107
  549SOL     OW 2193   0.716   1.883   2.101  0.5203  0.1930  0.3038
  549SOL    HW1 2194   0.701   1.971   2.084  1.0696 -1.6450  0.5358
  549SOL    HW2 2195   0.750   1.888   2.189  0.9474 -0.8604  0.2358
  549SOL     MW 2196   0.719   1.896   2.111  0.6491 -0.1885  0.3255
  550SOL     OW 2197   1.820   1.755   2.570 -0.2353  0.1798  0.1834
  550SOL    HW1 2198   1.829   1.777   2.478  1.0771  1.5056  0.6634
  550SOL    HW2 2199   1.801   1.836   2.610 -0.0638 -0.9027 -1.1307
  550SOL     MW 2200   1.819   1.769   2.563 -0.0395  0.2119  0.0733
  551SOL     OW 2201   0.855   2.346   0.213 -0.9300  0.6054 -0.4738
  551SOL    HW1 2202   0.945   2.371   0.208 -0.5841 -1.4071 -0.3696
  551SOL    HW2 2203   0.850   2.258   0.182 -0.5310  0.3162  0.2223
  551SOL     MW 2204   0.866   2.337   0.208 -0.8317  0.3017 -0.3682
  552SOL     OW 2205   1.809   1.781   2.303  0.2000  0.5724  0.1363
  552SOL    HW1 2206   1.718   1.778   2.310  2.1686  1.0195  0.1075
  552SOL    HW2 2207   1.817   1.735   2.208  0.5848 -0.0147  1.5501
  552SOL     MW 2208   1.798   1.774   2.291  0.5105  0.5539  0.3191
  553SOL     OW 2209   1.214   2.321   1.537  0.3435 -0.2465  0.1251
  553SOL    HW1 2210   1.255   2.239   1.559  1.2974 -0.0196  1.5670
  553SOL    HW2 2211   1.287   2.365   1.491 -0.6222  3.6057 -0.6532
  553SOL     MW 2212   1.229   2.316   1.534  0.3419  0.2917  0.2127
  554SOL     OW 2213   0.570   2.833   2.704  0.0151 -0.0123 -0.1835
  554SOL    HW1 2214   0.536   2.911   2.660  2.4903 -2.4828 -2.4464
  554SOL    HW2 2215   0.626   2.793   2.644 -3.1645  2.3430 -0.3222
  554SOL     MW 2216   0.573   2.838   2.691 -0.0778 -0.0275 -0.5004
  555SOL     OW 2217   0.602   2.385   2.608 -0.2601  0.5758  0.1229
  555SOL    HW1 2218   0.598   2.293   2.643  0.1657  1.3561  0.6656
  555SOL    HW2 2219   0.629   2.377   2.521 -3.2577 -0.7215  1.2781
  555SOL     MW 2220   0.605   2.371   2.601 -0.5994  0.5076  0.3469
  556SOL     OW 2221   1.019   1.801   0.129 -0.6127  0.3809 -0.3717
  556SOL    HW1 2222   1.042   1.793   0.035 -0.6142  0.5137  1.1882
  556SOL    HW2 2223   1.098   1.826   0.176  0.1769 -2.7960  1.5303
  556SOL     MW 2224   1.033   1.803   0.123 -0.5087 -0.0208  0.0850
  557SOL     OW 2225   0.939   2.692   0.446 -0.9332 -0.5088 -0.2002
  557SOL    HW1 2226   0.991   2.696   0.364  0.6688 -1.7334 -0.4238
  557SOL    HW2 2227   0.897   2.786   0.445 -1.6961  1.3824  1.7117
  557SOL     MW 2228   0.941   2.705   0.435 -0.8225 -0.4208  0.0225
  558SOL     OW 2229   0.266   2.126   0.005  0.0426  0.2508  0.3855
  558SOL    HW1 2230   0.229   2.035   0.021 -3.9771 -0.9155  2.1978
  558SOL    HW2 2231   0.200   2.173   0.050 -1.8465 -0.6719  1.6557
  558SOL     MW 2232   0.253   2.120   0.013 -0.7370 -0.0248  0.7922
  559SOL     OW 2233   1.177   2.309   2.048  0.2060  0.5335  0.3275
  559SOL    HW1 2234   1.155   2.399   2.079 -0.9720 -1.6476 -2.4472
  559SOL    HW2 2235   1.203   2.257   2.122 -0.9028  0.3968  2.0725
  559SOL     MW 2236   1.177   2.314   2.062 -0.0957  0.2277  0.1916
  560SOL     OW 2237   1.986   2.801   0.028  0.2789 -0.4886 -0.1228
  560SOL    HW1 2238   2.027   2.878  -0.013 -0.2668 -1.6480 -0.1506
  560SOL    HW2 2239   1.915   2.778  -0.031  1.7307 -2.1566  1.1090
  560SOL     MW 2240   1.982   2.808   0.015  0.3984 -0.8616  0.0360
  561SOL     OW 2241   0.469   2.072   0.209 -0.3711 -0.2706  0.1835
  561SOL    HW1 2242   0.406   2.097   0.135 -3.1580  4.3087 -3.7690
  561SOL    HW2 2243   0.518   2.147   0.236  2.2175 -3.6731  1.0794
  561SOL     MW 2244   0.467   2.085   0.203 -0.3973 -0.1153 -0.2198
  562SOL     OW 2245   0.908   2.169   2.175 -0.0393  0.1589 -0.1267
  562SOL    HW1 2246   0.906   2.261   2.186  2.5432 -1.2104  1.2980
  562SOL    HW2 2247   0.991   2.155   2.220 -0.0238 -1.3209 -1.6649
  562SOL     MW 2248   0.918   2.179   2.182  0.3035 -0.2170 -0.1417
  563SOL     OW 2249   1.194   0.252   0.561 -0.0279 -0.3478  0.0080
  563SOL    HW1 2250   1.166   0.260   0.468  0.1161 -1.0078 -1.3783
  563SOL    HW2 2251   1.232   0.162   0.573  0.1398 -3.3697 -1.6885
  563SOL     MW 2252   1.195   0.241   0.550  0.0133 -0.8336 -0.3988
  564SOL     OW 2253   1.040   2.582   2.392  0.8198 -0.0064  0.2863
  564SOL    HW1 2254   1.089   2.576   2.312 -0.5693 -2.2701 -0.2623
  564SOL    HW2 2255   1.090   2.636   2.452 -1.3123  1.5253  3.1516
  564SOL     MW 2256   1.053   2.588   2.389  0.3552 -0.1029  0.5919
  565SOL     OW 2257   2.920   2.651   2.585 -0.4909  0.1365  0.0998
  565SOL    HW1 2258   2.983   2.703   2.540  0.1832 -1.6673  0.0835
  565SOL    HW2 2259   2.852   2.650   2.518  2.8637  2.5273  4.0507
  565SOL     MW 2260   2.919   2.658   2.570  0.0406  0.2140  0.6189
  566SOL     OW 2261   2.268   1.937   2.340  0.0948 -0.2709 -0.1231
  566SOL    HW1 2262   2.286   1.956   2.247  1.3731 -0.2791 -0.5467
  566SOL    HW2 2263   2.312   2.008   2.389 -0.3967 -0.0594 -0.0415
  566SOL     MW 2264   2.276   1.949   2.334  0.1986 -0.2441 -0.1682
  567SOL     OW 2265   1.198   2.879   0.078 -0.1263 -0.6686  0.5461
  567SOL    HW1 2266   1.226   2.967   0.078 -2.8307 -2.2227 -0.6403
  567SOL    HW2 2267   1.188   2.852  -0.017 -1.2604 -1.4559 -1.2164
  567SOL     MW 2268   1.201   2.887   0.066 -0.6327 -0.9776  0.1570
  568SOL     OW 2269   1.651   2.124   2.855  0.0489 -0.0667 -0.6985
  568SOL    HW1 2270   1.690   2.186   2.921  3.5792 -1.0143 -0.3093
  568SOL    HW2 2271   1.723   2.075   2.823 -0.3841  0.8805  3.3647
  568SOL     MW 2272   1.666   2.126   2.860  0.4576 -0.0667 -0.1110
  569SOL     OW 2273   0.172   2.189   2.433  1.1364 -0.1018  0.1868
  569SOL    HW1 2274   0.114   2.235   2.371  0.6921 -2.5051  0.9974
  569SOL    HW2 2275   0.168   2.252   2.512  2.9109  2.4186 -3.1410
  569SOL     MW 2276   0.164   2.203   2.435  1.3119 -0.0863 -0.1453
  570SOL     OW 2277   1.434   0.430   0.499  0.3226 -0.5284  0.1973
  570SOL    HW1 2278   1.358   0.376   0.524  0.8276 -0.0556 -1.2157
  570SOL    HW2 2279   1.510   0.423   0.552  2.6446  4.5762 -0.0512
  570SOL     MW 2280   1.434   0.422   0.510  0.6956  0.2074 -0.0220
  571SOL     OW 2281   1.490   2.390   1.918  0.3781 -0.1799 -0.1876
  571SOL    HW1 2282   1.501   2.434   2.000  1.3640  1.3298 -2.0050
  571SOL    HW2 2283   1.459   2.303   1.941 -3.0066  2.2238  0.9426
  571SOL     MW 2284   1.487   2.384   1.932  0.0616  0.3364 -0.2782
  572SOL     OW 2285   0.930   2.626   3.091  0.1432  0.3891  0.8335
  572SOL    HW1 2286   0.895   2.652   3.003  1.4195 -1.4462  0.8804
  572SOL    HW2 2287   0.867   2.574   3.141  0.2834 -1.9672  2.4253
  572SOL     MW 2288   0.917   2.623   3.086  0.3301 -0.1640  1.0497
  573SOL     OW 2289   1.119   2.423   0.187  0.3957 -0.0985 -0.4803
  573SOL    HW1 2290   1.195   2.416   0.132 -2.4518  0.0961  0.3039
  573SOL    HW2 2291   1.119   2.516   0.203  0.8484  1.9597  2.0804
  573SOL     MW 2292   1.129   2.434   0.182  0.0798  0.1988 -0.0390
  574SOL     OW 2293   1.139   2.685   0.258  0.0407  0.6126 -0.0745
  574SOL    HW1 2294   1.218   2.716   0.296 -2.2952 -1.4592  0.7462
  574SOL    HW2 2295   1.132   2.755   0.187  2.5709 -0.4531  0.0201
  574SOL     MW 2296   1.148   2.698   0.254  0.0663  0.1986  0.0463
  575SOL     OW 2297   3.049   2.287   1.840 -0.1961  0.0977  0.0717
  575SOL    HW1 2298   3.083   2.198   1.812 -0.1270 -1.0671 -1.5544
  575SOL    HW2 2299   3.107   2.350   1.797  1.5130 -1.4419 -1.1476
  575SOL     MW 2300   3.061   2.283   1.831  0.0385 -0.2591 -0.3037
  576SOL     OW 2301   2.809   1.823   2.080  0.0621 -0.3371 -0.1984
  576SOL    HW1 2302   2.793   1.904   2.037  1.9482 -1.0287  1.7196
  576SOL    HW2 2303   2.731   1.775   2.051  1.2669 -1.7972 -0.1540
  576SOL     MW 2304   2.796   1.827   2.071  0.4699 -0.6210  0.0605
  577SOL     OW 2305   2.103   0.274   0.075  0.0380  0.0337 -0.1268
  577SOL    HW1 2306   2.024   0.312   0.036 -1.4570  2.4104 -1.9097
  577SOL    HW2 2307   2.069   0.198   0.113  1.4373  3.3455 -0.6793
  577SOL     MW 2308   2.088   0.269   0.075  0.0254  0.7843 -0.4350
  578SOL     OW 2309   2.026   2.064   2.386 -0.1360 -0.3049  0.3994
  578SOL    HW1 2310   1.945   2.048   2.341  1.3832  1.7790  1.2196
  578SOL    HW2 2311   2.093   1.998   2.355  2.7795  0.1163  1.7497
  578SOL     MW 2312   2.024   2.053   2.376  0.4491  0.0256  0.6858
  579SOL     OW 2313   0.847   2.411   2.478  0.3085 -0.0369 -0.4372
  579SOL    HW1 2314   0.858   2.368   2.564  1.0891 -1.1890 -0.2649
  579SOL    HW2 2315   0.937   2.453   2.465 -0.4913 -1.2904  0.3197
  579SOL     MW 2316   0.860   2.411   2.487  0.3060 -0.3543 -0.3146
  580SOL     OW 2317   0.893   2.967   0.031 -0.0459  0.3692 -0.4387
  580SOL    HW1 2318   0.941   2.886   0.044 -1.0186  4.3917  0.3515
  580SOL    HW2 2319   0.836   2.947  -0.042 -0.0002  2.2234 -2.8843
  580SOL     MW 2320   0.892   2.954   0.023 -0.1682  1.1446 -0.6571
  581SOL     OW 2321   1.064   2.505   1.705  0.0270 -0.6501 -0.1523
  581SOL    HW1 2322   1.122   2.536   1.772 -1.1935  2.4092 -1.0970
  581SOL    HW2 2323   1.116   2.485   1.630 -3.3914 -1.2377 -0.9999
  581SOL     MW 2324   1.078   2.506   1.704 -0.5851 -0.3240 -0.3888
  582SOL     OW 2325   0.004   2.837   2.520  0.2973  0.2861 -0.6164
  582SOL    HW1 2326  -0.003   2.922   2.554 -1.6515  0.9073 -2.1282
  582SOL    HW2 2327   0.101   2.813   2.517 -0.3989  0.8876  0.0103
  582SOL     MW 2328   0.016   2.845   2.524 -0.0517  0.4474 -0.7332
  583SOL     OW 2329   1.983   2.454   2.645 -0.5855 -0.0453  0.3672
  583SOL    HW1 2330   2.061   2.483   2.592 -1.4211 -0.8360 -3.4246
  583SOL    HW2 2331   1.985   2.362   2.643  2.1141  1.3963  0.7582
  583SOL     MW 2332   1.994   2.446   2.638 -0.3395  0.0406 -0.0815
  584SOL     OW 2333   0.179   1.869   2.113  0.1223  0.2776 -0.5021
  584SOL    HW1 2334   0.271   1.839   2.099 -1.6363  0.5213  0.8107
  584SOL    HW2 2335   0.173   1.885   2.205 -1.7563  0.0519  1.3597
  584SOL     MW 2336   0.190   1.867   2.123 -0.3576  0.2800 -0.0833
  585SOL     OW 2337   1.493   2.586   0.056 -0.3437  1.0488  0.4472
  585SOL    HW1 2338   1.446   2.619  -0.020 -0.2627 -0.0556 -1.0906
  585SOL    HW2 2339   1.465   2.640   0.125  4.2427 -0.3695 -0.6686
  585SOL     MW 2340   1.483   2.597   0.055  0.2721  0.7160  0.0971
  586SOL     OW 2341   1.243   2.986   2.387  0.2207 -0.3835  0.1012
  586SOL    HW1 2342   1.313   2.931   2.358  1.5922 -0.6290  1.5228
  586SOL    HW2 2343   1.276   3.017   2.475  1.6372  0.9851  2.9096
  586SOL     MW 2344   1.257   2.983   2.395  0.5886 -0.2353  0.6593
  587SOL     OW 2345   1.240   1.620   2.132 -0.0654 -0.0734  0.6431
  587SOL    HW1 2346   1.243   1.545   2.194 -0.4151 -0.9228 -0.2932
  587SOL    HW2 2347   1.219   1.577   2.045  1.3459 -2.0365 -2.9579
  587SOL     MW 2348   1.238   1.604   2.129  0.0747 -0.4445  0.0444
  588SOL     OW 2349   1.399   2.129   2.718  0.2675  0.7422  0.0928
  588SOL    HW1 2350   1.491   2.114   2.743  1.5648  1.5876 -0.8419
  588SOL    HW2 2351   1.340   2.128   2.803  0.9941  0.8713 -0.6775
  588SOL     MW 2352   1.403   2.127   2.732  0.5345  0.8708 -0.1322
  589SOL     OW 2353   1.350   2.077   0.087 -0.2135  0.2042  0.2411
  589SOL    HW1 2354   1.351   2.169   0.124 -0.8140  1.0038 -1.2283
  589SOL    HW2 2355   1.333   2.012   0.156 -1.1698 -0.0967 -0.1927
  589SOL     MW 2356   1.348   2.081   0.101 -0.4189  0.2700 -0.0100
  590SOL     OW 2357   0.404   2.587   2.256 -0.0559 -0.6264  0.1554
  590SOL    HW1 2358   0.373   2.600   2.166 -0.3163  0.6405  0.6548
  590SOL    HW2 2359   0.482   2.643   2.264 -2.7746  2.9923  3.2553
  590SOL     MW 2360   0.410   2.596   2.245 -0.4489  0.0182  0.6303
  591SOL     OW 2361   2.317   0.716   0.013  0.3507  0.0215  0.1695
  591SOL    HW1 2362   2.253   0.769  -0.033 -1.5794 -0.1480  2.1173
  591SOL    HW2 2363   2.404   0.743  -0.026  0.1290  0.7495 -0.5801
  591SOL     MW 2364   2.320   0.727   0.002  0.0668  0.0952  0.3276
  592SOL     OW 2365   1.858   3.020   0.831  0.1916  0.3141 -0.2098
  592SOL    HW1 2366   1.807   3.069   0.765 -1.1526 -0.9385 -1.4252
  592SOL    HW2 2367   1.884   2.930   0.813 -0.2856  0.9608  0.6035
  592SOL     MW 2368   1.855   3.015   0.820 -0.0487  0.2342 -0.2629
  593SOL     OW 2369   1.900   0.751   0.843  0.2530 -0.0069 -0.3092
  593SOL    HW1 2370   1.824   0.749   0.778  0.8231  0.0116 -1.0479
  593SOL    HW2 2371   1.922   0.664   0.873 -1.5471 -0.7749  0.6508
  593SOL     MW 2372   1.893   0.739   0.838  0.0907 -0.1058 -0.2800
  594SOL     OW 2373   2.737   1.112   1.379  0.5494 -0.1549 -0.2200
  594SOL    HW1 2374   2.830   1.136   1.384  0.5524 -3.0978  1.0152
  594SOL    HW2 2375   2.740   1.091   1.288 -0.7842  1.0066  0.4839
  594SOL     MW 2376   2.750   1.112   1.368  0.3739 -0.3900  0.0358
  595SOL     OW 2377   0.450   0.956   0.682  0.2332  0.1900 -0.0193
  595SOL    HW1 2378   0.473   1.024   0.617 -0.2138 -1.7915 -0.9639
  595SOL    HW2 2379   0.468   0.994   0.771 -2.3166 -1.2074 -1.1610
  595SOL     MW 2380   0.456   0.970   0.685 -0.1622 -0.2558 -0.2946
  596SOL     OW 2381   2.424   1.380   0.591  0.0893  0.2055 -0.3964
  596SOL    HW1 2382   2.469   1.445   0.537 -1.3371  2.7380 -2.7862
  596SOL    HW2 2383   2.496   1.343   0.643  0.8675  1.4937  1.1978
  596SOL     MW 2384   2.439   1.384   0.590  0.0038  0.7096 -0.5014
  597SOL     OW 2385   2.185   0.655   1.736  0.1644  0.0407 -0.2136
  597SOL    HW1 2386   2.264   0.598   1.759  0.9043  1.8039 -0.2144
  597SOL    HW2 2387   2.148   0.629   1.649 -1.2058  2.0581  1.4119
  597SOL     MW 2388   2.191   0.644   1.728  0.0812  0.5395  0.0007
  598SOL     OW 2389   2.602   1.026   2.852 -0.3036 -0.0573  0.1787
  598SOL    HW1 2390   2.642   0.964   2.782  0.0903  0.0221  0.9444
  598SOL    HW2 2391   2.683   1.061   2.891  1.7729  1.1604  2.9021
  598SOL     MW 2392   2.618   1.022   2.848  0.0224  0.1139  0.6391
  599SOL     OW 2393   2.925   0.337   2.044 -0.0115 -0.2777  0.9877
  599SOL    HW1 2394   2.877   0.358   2.128  1.4916  1.1133 -1.4837
  599SOL    HW2 2395   2.950   0.428   2.014 -0.9875 -0.6145 -1.0898
  599SOL     MW 2396   2.922   0.351   2.051  0.0580 -0.1386  0.3875
  600SOL     OW 2397   1.897   1.720   0.889 -0.0144  0.0916  0.5130
  600SOL    HW1 2398   1.898   1.783   0.960 -0.6961 -1.5535  0.9001
  600SOL    HW2 2399   1.808   1.722   0.857  1.2000  1.2977  2.8537
  600SOL     MW 2400   1.886   1.729   0.894  0.0559  0.0337  0.8729
  601SOL     OW 2401   2.527   0.792   0.841  0.3019 -0.4822 -0.2420
  601SOL    HW1 2402   2.526   0.782   0.936  2.3690 -1.3108 -3.3689
  601SOL    HW2 2403   2.460   0.742   0.795 -3.1896  1.3843  1.6733
  601SOL     MW 2404   2.518   0.784   0.847  0.1139 -0.3453 -0.4019
  602SOL     OW 2405   2.338   1.920   0.713  0.0670  0.1698  0.1607
  602SOL    HW1 2406   2.299   1.847   0.763 -1.7228 -0.4744 -1.2066
  602SOL    HW2 2407   2.260   1.959   0.668  0.8539 -1.2338 -0.6874
  602SOL     MW 2408   2.322   1.915   0.714 -0.0653 -0.1004 -0.1316
  603SOL     OW 2409   3.018   1.397   1.788  0.8207 -0.0412  0.1337
  603SOL    HW1 2410   3.085   1.427   1.848  2.6602  1.2206  0.9860
  603SOL    HW2 2411   2.994   1.306   1.811 -0.6836 -0.5205  0.1097
  603SOL     MW 2412   3.024   1.389   1.799  0.8649  0.0620  0.2430
  604SOL     OW 2413   2.117   1.568   0.450  0.0238 -0.2476  0.0586
  604SOL    HW1 2414   2.135   1.502   0.515  1.2803 -0.3597  1.2693
  604SOL    HW2 2415   2.052   1.626   0.491 -0.8339 -2.0937  2.2986
  604SOL     MW 2416   2.111   1.567   0.464  0.0764 -0.5060  0.5139
  605SOL     OW 2417   2.676   1.560   0.842 -0.6677  0.0886 -0.1307
  605SOL    HW1 2418   2.600   1.594   0.794  1.6285 -0.7251 -2.7047
  605SOL    HW2 2419   2.638   1.532   0.922 -0.2031 -0.4155  1.4553
  605SOL     MW 2420   2.661   1.561   0.846 -0.3035 -0.0853 -0.2611
  606SOL     OW 2421   2.561   1.764   1.920 -0.4457  0.1586 -1.1128
  606SOL    HW1 2422   2.463   1.758   1.927 -0.1852  0.1667  1.3055
  606SOL    HW2 2423   2.585   1.686   1.869  2.6557  1.3369 -1.1479
  606SOL     MW 2424   2.551   1.753   1.914 -0.0022  0.3151 -0.7984
  607SOL     OW 2425   2.337   1.024   3.001 -0.4304  0.4342 -0.9496
  607SOL    HW1 2426   2.415   0.992   2.953  1.5129  0.3306  0.9408
  607SOL    HW2 2427   2.379   1.065   3.085 -4.4238 -0.1899 -0.3006
  607SOL     MW 2428   2.353   1.026   3.006 -0.7009  0.3382 -0.6145
  608SOL     OW 2429   1.879   0.326   0.582  0.0375  0.2499  0.1363
  608SOL    HW1 2430   1.908   0.367   0.503  3.5013 -0.6851 -1.1306
  608SOL    HW2 2431   1.854   0.234   0.550 -3.9697  1.4336  0.4758
  608SOL     MW 2432   1.879   0.319   0.567 -0.0342  0.2827  0.0139
  609SOL     OW 2433   2.177   1.952   3.050  0.1679 -0.0150  0.0823
  609SOL    HW1 2434   2.092   1.910   3.032  0.9626  0.0105  0.7756
  609SOL    HW2 2435   2.192   1.943   3.143  1.0775 -1.2245 -0.2791
  609SOL     MW 2436   2.168   1.945   3.060  0.3928 -0.1712  0.1261
  610SOL     OW 2437   1.865   1.058   1.257 -0.6849 -0.2778 -0.3798
  610SOL    HW1 2438   1.851   0.979   1.196  1.8559 -2.2136 -0.0483
  610SOL    HW2 2439   1.780   1.053   1.307 -0.4084 -0.3785 -0.0597
  610SOL     MW 2440   1.852   1.047   1.256 -0.3132 -0.5465 -0.2938
  611SOL     OW 2441   2.455   1.666   0.738  0.3329 -0.0859  0.5436
  611SOL    HW1 2442   2.448   1.756   0.698  0.9864  0.5923  2.7627
  611SOL    HW2 2443   2.429   1.608   0.672 -1.1139  1.5095  3.0596
  611SOL     MW 2444   2.450   1.670   0.724  0.2282  0.2141  1.1684
  612SOL     OW 2445   2.782   2.836   0.452 -0.2370  0.1037 -0.5120
  612SOL    HW1 2446   2.828   2.891   0.519  0.6243 -0.1359 -1.1401
  612SOL    HW2 2447   2.857   2.815   0.398 -0.1323  0.5343  0.2680
  612SOL     MW 2448   2.798   2.841   0.454 -0.1096  0.1289 -0.4920
  613SOL     OW 2449   1.549   1.027   1.060 -0.5613 -0.1198 -0.6932
  613SOL    HW1 2450   1.553   1.119   1.072 -0.3172 -0.8085 -0.7650
  613SOL    HW2 2451   1.579   0.988   1.141  0.7390  2.0070 -2.3066
  613SOL     MW 2452   1.553   1.034   1.072 -0.3575  0.0700 -0.9156
  614SOL     OW 2453   2.046   0.552   1.518 -0.4585 -0.5606  0.0245
  614SOL    HW1 2454   2.026   0.495   1.594 -0.4546 -0.8945  1.7361
  614SOL    HW2 2455   2.029   0.510   1.434 -0.7102  0.7464 -0.1046
  614SOL     MW 2456   2.041   0.539   1.517 -0.4912 -0.4322  0.2333
  615SOL     OW 2457   2.228   0.838   0.234 -0.2951 -0.0007  0.3516
  615SOL    HW1 2458   2.271   0.803   0.314 -0.9307 -0.3907  2.2044
  615SOL    HW2 2459   2.281   0.808   0.165 -1.0547  1.1336  1.5093
  615SOL     MW 2460   2.241   0.829   0.236 -0.4792  0.0975  0.7488
  616SOL     OW 2461   2.582   0.374   1.606  0.5206 -0.9948 -0.4711
  616SOL    HW1 2462   2.521   0.318   1.562  0.6119 -1.2600 -1.4961
  616SOL    HW2 2463   2.620   0.417   1.526  1.8918  0.0933  0.6326
  616SOL     MW 2464   2.579   0.372   1.590  0.7135 -0.8862 -0.4607
  617SOL     OW 2465   2.821   0.575   1.723 -0.0782 -0.4794 -0.6186
  617SOL    HW1 2466   2.770   0.598   1.798 -0.1782  0.3246 -0.5308
  617SOL    HW2 2467   2.809   0.481   1.714 -2.3023 -1.1574 -3.6339
  617SOL     MW 2468   2.813   0.565   1.732 -0.3848 -0.4628 -1.0048
  618SOL     OW 2469   2.690   0.345   1.905 -0.0655 -0.1098  0.2990
  618SOL    HW1 2470   2.664   0.431   1.938 -0.5679  0.3345  0.0317
  618SOL    HW2 2471   2.776   0.331   1.949 -1.3045  1.5209  1.5608
  618SOL     MW 2472   2.698   0.354   1.915 -0.2952  0.1639  0.4302
  619SOL     OW 2473   2.604   0.756   0.158  0.6547 -0.3327 -0.3235
  619SOL    HW1 2474   2.678   0.802   0.193 -1.2819 -0.5558  1.2579
  619SOL    HW2 2475   2.554   0.716   0.238 -0.2686  1.0777 -0.2923
  619SOL     MW 2476   2.607   0.757   0.173  0.2774 -0.1760 -0.1107
  620SOL     OW 2477   2.302   1.075   0.960  0.1386 -0.3458  0.7053
  620SOL    HW1 2478   2.385   1.086   0.917 -0.0050  3.8735  3.4867
  620SOL    HW2 2479   2.246   1.034   0.897  2.2000  0.0269 -1.0665
  620SOL     MW 2480   2.306   1.071   0.946  0.3917  0.2601  0.8385
  621SOL     OW 2481   1.477   2.101   1.997 -0.1620  0.0404 -0.1333
  621SOL    HW1 2482   1.400   2.045   1.998 -3.6300 -1.6153  1.1912
  621SOL    HW2 2483   1.542   2.046   2.037 -1.9967 -2.1472 -2.0958
  621SOL     MW 2484   1.475   2.087   2.003 -0.8616 -0.4667 -0.2175
  622SOL     OW 2485   2.647   0.155   0.242 -0.0352  0.3082  0.2732
  622SOL    HW1 2486   2.741   0.183   0.246  1.8367  2.5700 -2.5120
  622SOL    HW2 2487   2.657   0.062   0.247  0.0339  1.7860  0.9074
  622SOL     MW 2488   2.661   0.147   0.243  0.2209  0.8016 -0.0106
  623SOL     OW 2489   2.346   2.699   0.904 -0.2262  0.2508  0.5038
  623SOL    HW1 2490   2.398   2.781   0.902  0.1952  2.0424  0.3159
  623SOL    HW2 2491   2.264   2.722   0.950 -1.9395  0.4202  1.4690
  623SOL     MW 2492   2.342   2.713   0.910 -0.3967  0.5095  0.6064
  624SOL     OW 2493   2.246   1.673   3.038 -0.8021  0.8585 -0.3157
  624SOL    HW1 2494   2.166   1.617   3.060 -0.3159  0.7139 -0.4554
  624SOL    HW2 2495   2.209   1.763   3.039 -2.3679  1.6360  1.1219
  624SOL     MW 2496   2.230   1.677   3.041 -0.9446  0.9420 -0.1445
  625SOL     OW 2497   2.135   1.971   1.082  0.4617  0.3619  0.3695
  625SOL    HW1 2498   2.207   1.934   1.136  0.5180  0.4738 -2.3910
  625SOL    HW2 2499   2.132   1.915   1.002 -0.8934  0.8025  0.9513
  625SOL     MW 2500   2.144   1.959   1.078  0.2903  0.4348  0.0821
  626SOL     OW 2501   0.182   1.604   2.313 -0.3273  0.7318 -0.1538
  626SOL    HW1 2502   0.130   1.556   2.244 -2.1991 -1.6439 -0.1136
  626SOL    HW2 2503   0.136   1.595   2.396 -1.0130  1.4960 -0.5970
  626SOL     MW 2504   0.169   1.597   2.315 -0.6647  0.5192 -0.2070
  627SOL     OW 2505   2.501   0.831   2.616  0.0760 -0.2424 -0.1481
  627SOL    HW1 2506   2.436   0.894   2.579  0.5468  0.8863  2.7306
  627SOL    HW2 2507   2.524   0.767   2.546  0.4210 -1.6330  0.4821
  627SOL     MW 2508   2.496   0.831   2.602  0.1836 -0.2769  0.3148
  628SOL     OW 2509   2.255   1.340   1.362 -0.0470 -0.2782 -0.3113
  628SOL    HW1 2510   2.216   1.272   1.314 -0.3564 -1.6074 -1.0910
  628SOL    HW2 2511   2.347   1.317   1.366  0.6911 -1.3695  1.3110
  628SOL     MW 2512   2.262   1.328   1.356  0.0096 -0.5976 -0.2002
  629SOL     OW 2513   1.995   0.527   1.251  0.2966 -0.7077  0.4953
  629SOL    HW1 2514   2.056   0.602   1.241  0.2653  1.3597 -1.0582
  629SOL    HW2 2515   1.909   0.570   1.254  1.3477  0.5601 -1.4577
  629SOL     MW 2516   1.992   0.543   1.250  0.4312 -0.2676  0.0327
  630SOL     OW 2517   2.500   1.841   2.999  0.1257  0.9137 -0.1837
  630SOL    HW1 2518   2.472   1.929   2.970 -0.7186 -0.7205 -1.9233
  630SOL    HW2 2519   2.418   1.781   2.990 -1.7728 -1.2487  0.3136
  630SOL     MW 2520   2.485   1.845   2.994 -0.2362  0.4128 -0.3476
  631SOL     OW 2521   1.990   1.815   1.577 -0.0126 -0.0635  0.3739
  631SOL    HW1 2522   2.008   1.727   1.612  0.7901 -0.5600  1.0800
  631SOL    HW2 2523   1.999   1.803   1.481  0.6718  0.3968  0.1483
  631SOL     MW 2524   1.994   1.802   1.569  0.1836 -0.0683  0.4373
  632SOL     OW 2525   0.091   2.091   1.510 -0.6725  0.1876 -0.2656
  632SOL    HW1 2526   0.038   2.086   1.588  0.5724  3.2104 -3.0660
  632SOL    HW2 2527   0.126   1.997   1.487  1.1947 -2.6153 -1.0411
  632SOL     MW 2528   0.089   2.078   1.518 -0.2619  0.2166 -0.7374
  633SOL     OW 2529   2.452   0.667   0.383  0.5028  0.0797  0.3929
  633SOL    HW1 2530   2.532   0.637   0.432  1.2345 -1.2650  0.2946
  633SOL    HW2 2531   2.400   0.590   0.395 -0.2357  3.6745  1.5133
  633SOL     MW 2532   2.456   0.653   0.391  0.5019  0.3766  0.5278
  634SOL     OW 2533   2.631   0.013   0.688 -0.2997 -0.2823  0.2327
  634SOL    HW1 2534   2.688   0.089   0.696 -1.5169  2.0811 -0.0288
  634SOL    HW2 2535   2.593   0.016   0.604 -1.5099  0.1598  3.2148
  634SOL     MW 2536   2.633   0.023   0.678 -0.6200  0.0879  0.5917
  635SOL     OW 2537   2.579   0.100   1.819 -0.3956  0.6937  0.4623
  635SOL    HW1 2538   2.627   0.088   1.741  0.1185  3.1119  1.8121
  635SOL    HW2 2539   2.615   0.182   1.855  0.0865  0.7063 -0.8857
  635SOL     MW 2540   2.590   0.110   1.813 -0.2641  1.0144  0.4625
  636SOL     OW 2541   2.912   1.706   0.966  0.1105  0.5169 -0.0915
  636SOL    HW1 2542   2.818   1.691   0.956  1.2375 -0.2624  0.4447
  636SOL    HW2 2543   2.931   1.763   1.041  1.2169 -0.1910  0.5102
  636SOL     MW 2544   2.902   1.711   0.975  0.4051  0.3207  0.0586
  637SOL     OW 2545   2.896   1.516   0.668  0.8451  0.2419 -0.4569
  637SOL    HW1 2546   2.966   1.578   0.702  2.1788  1.3525  1.0694
  637SOL    HW2 2547   2.822   1.528   0.733  0.4660  0.6730 -2.2057
  637SOL     MW 2548   2.896   1.526   0.681  0.9711  0.4453 -0.4863
  638SOL     OW 2549   2.689   0.611   0.504  0.2977 -0.4851 -0.0609
  638SOL    HW1 2550   2.784   0.629   0.493  2.3786  1.5408  0.1015
  638SOL    HW2 2551   2.684   0.581   0.592  1.4312 -2.3829 -0.8348
  638SOL     MW 2552   2.701   0.610   0.514  0.7218 -0.4682 -0.1416
  639SOL     OW 2553   1.798   0.049   0.500 -0.5385  0.2027 -0.1591
  639SOL    HW1 2554   1.707   0.057   0.505 -0.0962  0.3242  1.1562
  639SOL    HW2 2555   1.808  -0.036   0.458 -0.0066  1.9423 -2.5559
  639SOL     MW 2556   1.787   0.039   0.495 -0.4100  0.4483 -0.3018
  640SOL     OW 2557   0.343   1.385   0.065  0.2975  0.2253  0.5161
  640SOL    HW1 2558   0.370   1.380  -0.028  0.9316  0.5830 -0.3842
  640SOL    HW2 2559   0.323   1.296   0.082  0.9538  0.5536 -3.3928
  640SOL     MW 2560   0.344   1.373   0.055  0.4677  0.3158 -0.1185
  641SOL     OW 2561   2.237   0.454   0.358 -0.7168 -0.2128 -0.0026
  641SOL    HW1 2562   2.287   0.461   0.274 -2.0327  0.8830  0.4538
  641SOL    HW2 2563   2.286   0.391   0.413  1.2171 -0.1071  0.8849
  641SOL     MW 2564   2.250   0.446   0.354 -0.6352 -0.0543  0.1747
  642SOL     OW 2565   0.026   3.078   0.572 -0.3677 -0.0921  0.0413
  642SOL    HW1 2566  -0.015   3.151   0.527  1.7755  2.0020 -0.9887
  642SOL    HW2 2567  -0.055   3.044   0.617  0.5066  3.2615  0.3633
  642SOL     MW 2568   0.010   3.083   0.572  0.0305  0.6267 -0.0521
  643SOL     OW 2569   2.044   0.349   1.705  0.4563  0.1395  0.0817
  643SOL    HW1 2570   2.109   0.333   1.772  0.3078 -2.1780  0.0844
  643SOL    HW2 2571   2.035   0.283   1.639 -2.7385  2.2377 -0.5993
  643SOL     MW 2572   2.051   0.338   1.705  0.0152  0.1106 -0.0078
  644SOL     OW 2573   2.709   1.918   1.061 -0.0561  0.3707  0.4834
  644SOL    HW1 2574   2.687   1.854   1.127  4.9228  0.6778 -1.2999
  644SOL    HW2 2575   2.626   1.957   1.036 -1.4929  0.4568  1.2340
  644SOL     MW 2576   2.695   1.914   1.067  0.4112  0.4225  0.3471
  645SOL     OW 2577   2.830   0.895   0.652 -0.2915  0.2118 -0.0312
  645SOL    HW1 2578   2.912   0.853   0.687  1.7352 -2.3204 -2.1193
  645SOL    HW2 2579   2.759   0.831   0.667  0.4617  0.5739  2.0892
  645SOL     MW 2580   2.831   0.881   0.659  0.0753 -0.0745 -0.0269
  646SOL     OW 2581   0.167   2.259   0.831  0.0581  0.2976 -1.0064
  646SOL    HW1 2582   0.190   2.163   0.821 -0.8158 -0.9649 -1.8705
  646SOL    HW2 2583   0.112   2.273   0.749  0.2374 -1.1422  1.2514
  646SOL     MW 2584   0.163   2.248   0.819 -0.0335 -0.0590 -0.8225
  647SOL     OW 2585   2.686   0.495   2.981  0.3527  0.1786  0.0208
  647SOL    HW1 2586   2.616   0.441   3.027 -0.5737 -0.8066 -1.5151
  647SOL    HW2 2587   2.641   0.567   2.956  1.5937 -1.9795 -1.0728
  647SOL     MW 2588   2.671   0.497   2.984  0.3942 -0.2361 -0.3261
  648SOL     OW 2589   2.180   0.729   1.162 -0.2642  0.5346 -0.3542
  648SOL    HW1 2590   2.172   0.785   1.087 -0.8882  1.0665 -1.4017
  648SOL    HW2 2591   2.235   0.779   1.221 -2.4252 -1.3401  1.1546
  648SOL     MW 2592   2.186   0.743   1.160 -0.6317  0.3574 -0.2934
  649SOL     OW 2593   2.402   2.745   1.264 -0.1385  0.4944  0.0410
  649SOL    HW1 2594   2.480   2.795   1.252  0.3971  0.5573 -0.0952
  649SOL    HW2 2595   2.407   2.669   1.207 -0.4503 -0.6104  2.8250
  649SOL     MW 2596   2.413   2.742   1.255 -0.1089  0.3569  0.3903
  650SOL     OW 2597   2.819   0.212   0.672  0.1782 -0.4381 -0.1139
  650SOL    HW1 2598   2.867   0.285   0.719  0.8694 -1.4791  0.7231
  650SOL    HW2 2599   2.862   0.206   0.588  0.1618  2.1029 -0.2548
  650SOL     MW 2600   2.831   0.221   0.667  0.2672 -0.2402 -0.0221
  651SOL     OW 2601   2.978   0.392   0.821  0.3156  0.3544 -0.6028
  651SOL    HW1 2602   3.048   0.447   0.772 -0.2138  0.3580  0.3271
  651SOL    HW2 2603   2.935   0.453   0.880  1.5093  0.0003 -0.4074
  651SOL     MW 2604   2.982   0.407   0.822  0.4033  0.3082 -0.4543
  652SOL     OW 2605   2.396   1.458   2.987 -0.0918  0.2852  0.4588
  652SOL    HW1 2606   2.462   1.471   2.917 -3.5273 -1.2234  0.0687
  652SOL    HW2 2607   2.360   1.552   3.002  1.1090  0.6995  1.7955
  652SOL     MW 2608   2.400   1.472   2.980 -0.3867  0.1408  0.5837
  653SOL     OW 2609   1.943   0.435   0.309 -0.3330  0.2063  0.1250
  653SOL    HW1 2610   1.902   0.358   0.267 -3.7498  1.6208 -2.6674
  653SOL    HW2 2611   2.037   0.417   0.328  1.2038  0.3392 -1.7077
  653SOL     MW 2612   1.950   0.422   0.306 -0.5811  0.4105 -0.4852
  654SOL     OW 2613   2.470   1.034   0.721 -0.6105 -0.0391 -0.3658
  654SOL    HW1 2614   2.382   1.041   0.680 -0.5885 -1.4732 -1.1003
  654SOL    HW2 2615   2.476   0.955   0.771  1.8979  0.9255  0.8417
  654SOL     MW 2616   2.459   1.025   0.722 -0.2767 -0.1011 -0.3034
  655SOL     OW 2617   3.001   0.923   0.399  0.6358  0.2851 -0.5311
  655SOL    HW1 2618   2.944   0.967   0.462 -2.3084 -0.1459 -0.2631
  655SOL    HW2 2619   2.995   0.826   0.421  0.2797 -1.9133  0.7053
  655SOL     MW 2620   2.993   0.916   0.410  0.2004 -0.0618 -0.3326
  656SOL     OW 2621   1.949   2.679   1.207  0.0278 -0.5191 -0.1666
  656SOL    HW1 2622   1.901   2.752   1.253  2.4677 -2.1508  1.2873
  656SOL    HW2 2623   1.996   2.635   1.276 -1.8892  1.3249 -0.5448
  656SOL     MW 2624   1.949   2.683   1.222  0.0968 -0.4911 -0.0247
  657SOL     OW 2625   0.213   1.556   1.245 -0.3231  0.6149  0.1111
  657SOL    HW1 2626   0.132   1.579   1.284 -0.8764  3.1503 -0.0543
  657SOL    HW2 2627   0.205   1.466   1.214 -1.2000 -1.0024  2.2946
  657SOL     MW 2628   0.201   1.547   1.246 -0.5118  0.7360  0.3773
  658SOL     OW 2629   2.699   1.377   0.237 -0.2366  0.4072 -0.0823
  658SOL    HW1 2630   2.644   1.318   0.293  0.3975 -2.3350 -2.7145
  658SOL    HW2 2631   2.749   1.444   0.288  0.7347 -0.1707 -2.5580
  658SOL     MW 2632   2.699   1.378   0.251 -0.0248 -0.0309 -0.7562
  659SOL     OW 2633   2.299   1.526   1.032  0.3263  0.0917  0.1036
  659SOL    HW1 2634   2.377   1.497   1.077 -4.2488  2.2826 -1.6146
  659SOL    HW2 2635   2.260   1.583   1.099  1.2233 -1.1510 -0.4836
  659SOL     MW 2636   2.304   1.529   1.047 -0.1589  0.2168 -0.2006
  660SOL     OW 2637   2.072   1.559   1.692 -0.7723  0.0163 -0.4274
  660SOL    HW1 2638   2.083   1.590   1.789  1.4310  0.6215 -0.2503
  660SOL    HW2 2639   2.014   1.484   1.697 -0.4033 -2.3015 -0.0665
  660SOL     MW 2640   2.066   1.553   1.706 -0.4329 -0.2097 -0.3564
  661SOL     OW 2641   2.395   1.111   0.152 -0.2406 -0.1332  0.5490
  661SOL    HW1 2642   2.465   1.154   0.201  1.0815  0.6553  2.6617
  661SOL    HW2 2643   2.381   1.026   0.188 -0.1615 -1.2588 -1.4405
  661SOL     MW 2644   2.403   1.106   0.163 -0.0557 -0.1777  0.5653
  662SOL     OW 2645   2.530   2.941   0.883 -0.7542 -0.3768  0.0937
  662SOL    HW1 2646   2.468   2.995   0.930  0.4738 -1.0772 -2.4748
  662SOL    HW2 2647   2.562   3.003   0.816  0.9175  0.3597 -0.1112
  662SOL     MW 2648   2.526   2.956   0.881 -0.3716 -0.3720 -0.2722
  663SOL     OW 2649   2.841   1.557   0.399  0.0616 -0.7985 -0.4486
  663SOL    HW1 2650   2.899   1.629   0.375  0.2281  1.5702 -2.0539
  663SOL    HW2 2651   2.860   1.538   0.488  0.2887  2.8245 -2.8475
  663SOL     MW 2652   2.851   1.564   0.407  0.1135 -0.0080 -0.9769
  664SOL     OW 2653   2.470   1.567   1.574 -0.4686 -0.4592  0.6351
  664SOL    HW1 2654   2.430   1.640   1.537 -1.5737 -0.4523 -1.0596
  664SOL    HW2 2655   2.398   1.502   1.584  1.3530 -2.1359 -1.1437
  664SOL     MW 2656   2.455   1.568   1.571 -0.3741 -0.6795  0.1768
  665SOL     OW 2657   2.865   0.809   2.074 -0.5328  0.1267  0.4158
  665SOL    HW1 2658   2.859   0.861   1.997  2.6882 -0.8868 -0.0954
  665SOL    HW2 2659   2.941   0.753   2.049 -0.3280 -1.8183 -0.8837
  665SOL     MW 2660   2.874   0.808   2.060 -0.0808 -0.2636  0.1769
  666SOL     OW 2661   2.792   3.053   1.686  0.3915 -0.1719 -0.2262
  666SOL    HW1 2662   2.831   3.031   1.600  0.6721  0.0968  0.5482
  666SOL    HW2 2663   2.757   2.974   1.728 -1.6322 -1.0175  2.3840
  666SOL     MW 2664   2.793   3.040   1.680  0.1615 -0.2480  0.2204
  667SOL     OW 2665   1.975   2.700   1.624  0.2934 -0.0364  0.3701
  667SOL    HW1 2666   1.993   2.645   1.703  1.0661  1.2133  0.7206
  667SOL    HW2 2667   2.065   2.730   1.607 -2.9609 -0.2537  0.1706
  667SOL     MW 2668   1.989   2.697   1.632 -0.0340  0.0998  0.3900
  668SOL     OW 2669   2.746   0.637   0.786 -0.2793  0.6507  0.4549
  668SOL    HW1 2670   2.800   0.640   0.864 -0.6263 -0.4246  2.5318
  668SOL    HW2 2671   2.661   0.675   0.811  3.2930  0.3370  0.0554
  668SOL     MW 2672   2.742   0.642   0.799  0.1462  0.4674  0.6762
  669SOL     OW 2673   0.177   0.928   0.681 -0.0630 -0.1666 -0.5023
  669SOL    HW1 2674   0.130   1.007   0.716 -2.4873 -0.3845 -0.9356
  669SOL    HW2 2675   0.274   0.965   0.665  0.1417  0.2276 -1.4233
  669SOL     MW 2676   0.184   0.943   0.684 -0.3559 -0.1433 -0.6810
  670SOL     OW 2677   2.942   0.290   0.190 -0.4050 -0.1680 -0.0777
  670SOL    HW1 2678   2.945   0.219   0.119 -1.1194 -0.4133 -0.9140
  670SOL    HW2 2679   2.953   0.376   0.144 -0.8704  1.1585  1.0355
  670SOL     MW 2680   2.944   0.292   0.175 -0.5606 -0.0253 -0.0412
  671SOL     OW 2681   2.156   3.049   1.584  0.0169 -0.9936 -0.5024
  671SOL    HW1 2682   2.172   3.117   1.523  0.2533  1.0380 -0.7085
  671SOL    HW2 2683   2.066   3.077   1.619 -0.6841  2.3441  1.7358
  671SOL     MW 2684   2.146   3.062   1.581 -0.0444 -0.2852 -0.2343
  672SOL     OW 2685   1.876   1.694   1.328 -0.0522 -0.0529 -0.3963
  672SOL    HW1 2686   1.791   1.724   1.373 -1.8706  0.3658  1.3807
  672SOL    HW2 2687   1.869   1.753   1.248 -0.3444 -2.0558  1.3444
  672SOL     MW 2688   1.864   1.706   1.324 -0.3307 -0.2619  0.0678
  673SOL     OW 2689   2.791   1.111   0.503  0.0363 -0.2257 -0.2314
  673SOL    HW1 2690   2.795   1.036   0.566 -0.9947  0.9560  1.4643
  673SOL    HW2 2691   2.863   1.179   0.527  1.7381  1.4276  3.1709
  673SOL     MW 2692   2.801   1.110   0.515  0.1248  0.1484  0.4412
  674SOL     OW 2693   2.499   0.086   1.234  0.2684  0.3540 -0.7351
  674SOL    HW1 2694   2.471   0.093   1.143  1.1394  0.1233  1.8516
  674SOL    HW2 2695   2.539  -0.007   1.245 -0.5676  1.5572  0.7400
  674SOL     MW 2696   2.501   0.075   1.223  0.2730  0.4823 -0.1992
  675SOL     OW 2697   3.013   1.003   1.104  0.4558 -0.6725 -0.1668
  675SOL    HW1 2698   3.084   1.013   1.162  1.4397 -1.0197 -0.5385
  675SOL    HW2 2699   3.054   0.996   1.019  0.7783 -0.8187 -0.0216
  675SOL     MW 2700   3.028   1.004   1.100  0.6281 -0.7376 -0.1967
  676SOL     OW 2701   2.831   1.505   1.613  1.0422 -0.1850  0.3773
  676SOL    HW1 2702   2.784   1.415   1.623 -0.7265 -1.3968  1.3296
  676SOL    HW2 2703   2.915   1.484   1.649 -2.8537 -1.9006  1.2140
  676SOL     MW 2704   2.836   1.490   1.619  0.2948 -0.5712  0.6134
  677SOL     OW 2705   2.415   0.770   1.886  0.5284 -0.8369  0.1172
  677SOL    HW1 2706   2.384   0.678   1.871  1.1028 -0.2601 -1.0289
  677SOL    HW2 2707   2.348   0.816   1.945 -2.4801  0.6734  0.4289
  677SOL     MW 2708   2.402   0.764   1.892  0.2072 -0.5615  0.0071
  678SOL     OW 2709   2.535   1.588   0.446 -0.1905 -0.3330 -0.3167
  678SOL    HW1 2710   2.448   1.637   0.434 -0.2123  0.6686 -2.6924
  678SOL    HW2 2711   2.597   1.663   0.464 -0.3919 -0.6754  0.9718
  678SOL     MW 2712   2.532   1.604   0.447 -0.2199 -0.2460 -0.4602
  679SOL     OW 2713   2.312   0.509   1.109  0.1270  0.1039  0.5535
  679SOL    HW1 2714   2.277   0.441   1.171 -1.9804 -1.9936 -2.3394
  679SOL    HW2 2715   2.267   0.594   1.130  1.0078  1.7605  0.5068
  679SOL     MW 2716   2.301   0.511   1.120 -0.0348  0.0457  0.1657
  680SOL     OW 2717   2.394   0.273   1.441  0.5577 -0.0110  0.2057
  680SOL    HW1 2718   2.305   0.229   1.469 -3.6317  0.0774 -2.4953
  680SOL    HW2 2719   2.401   0.232   1.355 -0.1192 -0.9469  1.5271
  680SOL     MW 2720   2.383   0.262   1.433 -0.0844 -0.1228  0.0237
  681SOL     OW 2721   0.309   0.568   1.574  0.3011  0.5484 -0.1212
  681SOL    HW1 2722   0.264   0.499   1.628 -4.2261  1.2984 -3.2704
  681SOL    HW2 2723   0.402   0.565   1.587  1.6605 -0.4965 -1.5357
  681SOL     MW 2724   0.316   0.559   1.583 -0.1168  0.5095 -0.7233
  682SOL     OW 2725   0.130   2.975   1.484 -0.3064 -0.2038  0.0049
  682SOL    HW1 2726   0.159   3.065   1.457  2.1225 -1.2254  0.0390
  682SOL    HW2 2727   0.054   3.000   1.541 -1.5129 -3.5120 -1.6526
  682SOL     MW 2728   0.124   2.990   1.488 -0.1451 -0.7751 -0.2093
  683SOL     OW 2729   2.075   0.812   3.021 -0.0195  0.0737 -0.1224
  683SOL    HW1 2730   1.996   0.782   2.978 -0.0583  1.8827 -1.6273
  683SOL    HW2 2731   2.044   0.891   3.062 -0.7967  1.2111  1.0276
  683SOL     MW 2732   2.060   0.819   3.021 -0.1272  0.4625 -0.1692
  684SOL     OW 2733   2.175   1.756   0.892  0.3443 -0.3515  0.8951
  684SOL    HW1 2734   2.088   1.719   0.888  3.2968 -1.2565 -0.0302
  684SOL    HW2 2735   2.233   1.686   0.877 -1.1992  2.0766 -3.2699
  684SOL     MW 2736   2.171   1.742   0.889  0.5302 -0.1506  0.2235
  685SOL     OW 2737   2.573   1.728   1.243  0.5540  0.0597  0.5142
  685SOL    HW1 2738   2.651   1.724   1.300  2.9756  0.9125 -0.5023
  685SOL    HW2 2739   2.549   1.634   1.231 -2.1452 -1.0141  0.0325
  685SOL     MW 2740   2.580   1.715   1.249  0.5174  0.0305  0.3165
  686SOL     OW 2741   2.883   0.707   1.465 -0.2180 -0.2855 -0.1176
  686SOL    HW1 2742   2.888   0.692   1.560 -1.8165 -0.4099 -0.5990
  686SOL    HW2 2743   2.969   0.708   1.418  1.5366  2.9230 -1.0336
  686SOL     MW 2744   2.895   0.705   1.472 -0.1974  0.1214 -0.3020
  687SOL     OW 2745   2.153   0.307   1.216 -0.4019  0.0854  0.3994
  687SOL    HW1 2746   2.163   0.261   1.128 -0.0212  0.8459 -1.6780
  687SOL    HW2 2747   2.094   0.375   1.191 -0.0812 -0.6910 -0.8456
  687SOL     MW 2748   2.147   0.310   1.201 -0.3093  0.0833 -0.0390
  688SOL     OW 2749   2.393   0.595   1.464 -0.1467  0.6480  0.2532
  688SOL    HW1 2750   2.437   0.513   1.452 -1.1379  1.3440 -2.5965
  688SOL    HW2 2751   2.301   0.570   1.443 -0.2953  0.1825  0.6494
  688SOL     MW 2752   2.387   0.581   1.460 -0.2971  0.6784 -0.0705
  689SOL     OW 2753   2.558   0.756   2.990 -0.5365 -0.1934  0.1193
  689SOL    HW1 2754   2.603   0.833   2.960  0.3775  0.0800 -0.5036
  689SOL    HW2 2755   2.582   0.734   3.080  2.5191 -0.3740  0.3319
  689SOL     MW 2756   2.567   0.763   2.998 -0.0128 -0.1812  0.0651
  690SOL     OW 2757   2.108   0.967   1.937  0.6204 -0.5413  0.2003
  690SOL    HW1 2758   2.045   0.893   1.931 -0.3327  0.2731 -0.9847
  690SOL    HW2 2759   2.148   0.984   1.849 -0.6244  1.2590 -1.9307
  690SOL     MW 2760   2.105   0.960   1.925  0.3304 -0.1963 -0.2372
  691SOL     OW 2761   2.446   0.266   0.822  0.4872  0.2921  0.3684
  691SOL    HW1 2762   2.529   0.308   0.847 -2.0380 -0.5086  2.2420
  691SOL    HW2 2763   2.372   0.317   0.851 -1.4447  1.3689  1.5032
  691SOL     MW 2764   2.447   0.278   0.829 -0.1009  0.3285  0.7653
  692SOL     OW 2765   2.806   1.708   1.423 -0.3499  0.0450  0.1915
  692SOL    HW1 2766   2.814   1.661   1.502  2.0307  1.6869 -3.0765
  692SOL    HW2 2767   2.841   1.792   1.433  1.6274  1.5628  2.4070
  692SOL     MW 2768   2.811   1.713   1.435  0.2251  0.4619  0.0526
  693SOL     OW 2769   2.320   0.460   0.107  0.5455 -0.0656 -0.0222
  693SOL    HW1 2770   2.255   0.401   0.089 -0.5296  0.9816  3.9703
  693SOL    HW2 2771   2.293   0.545   0.066 -1.4889 -1.6604  0.9210
  693SOL     MW 2772   2.308   0.464   0.099  0.1352 -0.1378  0.6291
  694SOL     OW 2773   1.955   1.272   1.092 -0.2997  0.5159 -0.2949
  694SOL    HW1 2774   2.034   1.227   1.117  0.0237 -0.1025 -0.0267
  694SOL    HW2 2775   1.886   1.204   1.089 -1.1591  0.9051 -4.8467
  694SOL     MW 2776   1.956   1.257   1.095 -0.3704  0.4856 -0.8601
  695SOL     OW 2777   2.949   1.447   1.309  0.0841  0.0879  0.0547
  695SOL    HW1 2778   2.959   1.476   1.217  1.5236  0.0167  0.8132
  695SOL    HW2 2779   2.938   1.531   1.355 -0.1723 -1.4583  0.9803
  695SOL     MW 2780   2.949   1.462   1.303  0.2402 -0.1255  0.2769
  696SOL     OW 2781   2.103   1.388   0.910  0.1126 -0.1499 -0.7241
  696SOL    HW1 2782   2.175   1.439   0.942  0.9433  2.2226 -1.6327
  696SOL    HW2 2783   2.078   1.340   0.992  0.3125  0.0768  1.9587
  696SOL     MW 2784   2.109   1.388   0.925  0.2486  0.1930 -0.4900
  697SOL     OW 2785   2.893   1.057   2.210  0.2744  0.8928 -1.2335
  697SOL    HW1 2786   2.850   1.137   2.195  2.1518  2.3258 -0.4862
  697SOL    HW2 2787   2.860   0.988   2.153  1.8238  1.0931  0.3703
  697SOL     MW 2788   2.883   1.059   2.200  0.7265  1.1083 -0.9233
  698SOL     OW 2789   2.531   0.322   0.020  0.2072 -0.7341  0.4836
  698SOL    HW1 2790   2.455   0.371   0.038  3.7663 -1.6629 -3.0171
  698SOL    HW2 2791   2.568   0.311   0.113  0.9590 -2.0308  0.4274
  698SOL     MW 2792   2.526   0.327   0.035  0.7760 -1.0278  0.0143
  699SOL     OW 2793   1.858   1.642   2.067 -0.0923  0.1787 -0.1083
  699SOL    HW1 2794   1.826   1.552   2.048 -0.2670  1.5397  0.9899
  699SOL    HW2 2795   1.949   1.643   2.033 -0.3566  1.4210 -0.9289
  699SOL     MW 2796   1.866   1.630   2.060 -0.1502  0.5222 -0.0717
  700SOL     OW 2797   2.706   0.910   1.553 -0.1761 -0.0014 -0.2837
  700SOL    HW1 2798   2.725   0.992   1.508  2.9320  0.4961  1.9559
  700SOL    HW2 2799   2.778   0.852   1.526 -3.8146  1.2469 -0.9295
  700SOL     MW 2800   2.718   0.913   1.543 -0.2461  0.2290 -0.0734
  701SOL     OW 2801   1.658   1.268   2.611 -0.2517  0.0592 -0.4378
  701SOL    HW1 2802   1.742   1.310   2.635  0.0812 -3.8313  0.1121
  701SOL    HW2 2803   1.593   1.303   2.669  0.3393 -0.7350  1.1236
  701SOL     MW 2804   1.661   1.278   2.622 -0.1298 -0.5589 -0.1592
  702SOL     OW 2805   2.221   0.421   0.827 -0.4440 -0.1765 -0.2828
  702SOL    HW1 2806   2.191   0.361   0.757 -0.9518 -1.4022 -1.6295
  702SOL    HW2 2807   2.270   0.500   0.795 -0.1476  1.8627  0.8739
  702SOL     MW 2808   2.224   0.424   0.814 -0.4719 -0.0692 -0.3079
  703SOL     OW 2809   2.696   1.306   0.986 -0.0619  0.2297  0.2109
  703SOL    HW1 2810   2.665   1.301   0.898  0.6023 -0.0837 -0.5586
  703SOL    HW2 2811   2.724   1.215   1.004  1.0670 -2.6926 -0.1696
  703SOL     MW 2812   2.695   1.294   0.977  0.1747 -0.1972  0.0592
  704SOL     OW 2813   0.012   1.338   0.277 -0.2729  0.0663  0.5620
  704SOL    HW1 2814  -0.075   1.301   0.248 -0.8795 -0.0154 -1.4960
  704SOL    HW2 2815   0.046   1.285   0.352  2.3950  5.4068  0.2456
  704SOL     MW 2816   0.005   1.326   0.283 -0.0009  0.7602  0.2487
  705SOL     OW 2817   2.126   1.631   1.257  0.1704  0.1829  0.1276
  705SOL    HW1 2818   2.024   1.647   1.278 -2.6455 -0.7075 -1.2062
  705SOL    HW2 2819   2.146   1.538   1.288  0.7230  0.8301 -4.4255
  705SOL     MW 2820   2.115   1.621   1.264 -0.1282  0.1508 -0.6492
  706SOL     OW 2821   2.993   1.241   0.601 -0.3308  0.3286  0.3731
  706SOL    HW1 2822   3.086   1.245   0.600  0.0782 -2.8878  2.0849
  706SOL    HW2 2823   2.960   1.329   0.628 -0.3333  1.9915  1.7055
  706SOL     MW 2824   3.001   1.253   0.605 -0.2772  0.1236  0.7748
  707SOL     OW 2825   2.370   0.062   0.988 -0.1235 -0.0951 -0.3339
  707SOL    HW1 2826   2.411   0.123   0.923 -1.4252 -0.6438  0.1054
  707SOL    HW2 2827   2.283   0.099   0.984  1.6602  0.4976  1.3090
  707SOL     MW 2828   2.364   0.075   0.979 -0.0599 -0.0893 -0.0592
  708SOL     OW 2829   2.529   1.580   0.109 -0.0658 -0.0634  0.3198
  708SOL    HW1 2830   2.574   1.536   0.183 -0.3855 -0.7249  2.4313
  708SOL    HW2 2831   2.493   1.512   0.059  2.0004  2.0953  1.3342
  708SOL     MW 2832   2.531   1.565   0.112  0.1646  0.1341  0.7322
  709SOL     OW 2833   1.676   1.759   0.102  0.1802 -0.3947  0.4969
  709SOL    HW1 2834   1.626   1.815   0.051  1.0236 -2.5862  0.4780
  709SOL    HW2 2835   1.625   1.703   0.164 -0.6247  0.4850 -0.2736
  709SOL     MW 2836   1.663   1.759   0.104  0.1852 -0.5678  0.3927
  710SOL     OW 2837   2.183   1.147   1.190 -0.1536  0.5949  0.1809
  710SOL    HW1 2838   2.241   1.140   1.108 -0.6757 -2.9011  0.2847
  710SOL    HW2 2839   2.195   1.055   1.225 -2.6882 -1.9238 -0.2850
  710SOL     MW 2840   2.192   1.134   1.183 -0.5569 -0.1987  0.1331
  711SOL     OW 2841   2.329   0.135   1.714  0.2558 -0.1811  0.5399
  711SOL    HW1 2842   2.416   0.111   1.744 -3.8102 -0.8017 -0.2565
  711SOL    HW2 2843   2.306   0.044   1.688 -0.0523 -0.3307 -0.1542
  711SOL     MW 2844   2.338   0.120   1.714 -0.3213 -0.2827  0.3433
  712SOL     OW 2845   1.676   0.618   3.064  0.7365  0.0090  0.4934
  712SOL    HW1 2846   1.720   0.698   3.032  0.2617 -0.7782  0.4726
  712SOL    HW2 2847   1.646   0.633   3.158  0.0621  0.8938  2.3505
  712SOL     MW 2848   1.678   0.631   3.072  0.5849  0.0219  0.7357
  713SOL     OW 2849   2.579   0.812   1.122 -0.2266 -0.4937 -0.3657
  713SOL    HW1 2850   2.601   0.717   1.143  1.5123 -1.4922 -0.9004
  713SOL    HW2 2851   2.528   0.836   1.204  0.8131 -1.3073 -2.0249
  713SOL     MW 2852   2.575   0.803   1.136  0.1400 -0.7328 -0.6552
  714SOL     OW 2853   2.219   0.163   1.952 -0.6534  0.5696 -0.4217
  714SOL    HW1 2854   2.288   0.157   2.018 -3.2155  1.5284  1.2851
  714SOL    HW2 2855   2.253   0.153   1.859  0.6066  0.2212 -0.8063
  714SOL     MW 2856   2.232   0.161   1.948 -0.8252  0.6501 -0.2473
  715SOL     OW 2857   1.728   1.921   1.715 -0.1093 -0.1468 -0.1464
  715SOL    HW1 2858   1.812   1.878   1.681 -1.1545  0.8545 -2.0218
  715SOL    HW2 2859   1.686   1.854   1.772  1.3209 -2.0435  1.8205
  715SOL     MW 2860   1.734   1.906   1.718 -0.0585 -0.2649 -0.1343
  716SOL     OW 2861   2.395   0.606   0.706 -0.1248 -1.0714  0.1735
  716SOL    HW1 2862   2.439   0.523   0.678  0.2728  0.8221  0.7620
  716SOL    HW2 2863   2.334   0.616   0.634 -1.1067 -0.5375  0.5583
  716SOL     MW 2864   2.393   0.596   0.693 -0.2019 -0.7511  0.3019
  717SOL     OW 2865   2.848   1.458   2.941  0.6709 -0.4138 -0.4403
  717SOL    HW1 2866   2.943   1.450   2.956  1.1216  0.8867  2.2514
  717SOL    HW2 2867   2.810   1.522   3.005 -0.7627  0.9144  1.4072
  717SOL     MW 2868   2.855   1.466   2.951  0.5412 -0.0670  0.1586
  718SOL     OW 2869   2.532   1.323   1.396 -0.1977  0.0793 -0.1928
  718SOL    HW1 2870   2.557   1.389   1.462  0.8640 -0.6649  3.5255
  718SOL    HW2 2871   2.614   1.277   1.378 -2.2729  0.7109  1.3633
  718SOL     MW 2872   2.546   1.325   1.402 -0.3314  0.0645  0.5031
  719SOL     OW 2873   2.158   1.393   0.641 -0.0494  0.2066 -0.2176
  719SOL    HW1 2874   2.257   1.406   0.628  2.3683  2.7664  0.8601
  719SOL    HW2 2875   2.153   1.398   0.739  1.5766 -1.0532  0.2472
  719SOL     MW 2876   2.170   1.395   0.652  0.4841  0.3781 -0.0141
  720SOL     OW 2877   2.891   1.205   0.127  0.0092 -0.3373 -0.0487
  720SOL    HW1 2878   2.867   1.117   0.147  0.3351 -0.5787 -1.3699
  720SOL    HW2 2879   2.828   1.253   0.174 -0.9754 -1.0320 -2.3810
  720SOL     MW 2880   2.880   1.200   0.136 -0.0777 -0.4608 -0.5307
  721SOL     OW 2881   2.517   0.816   1.390  0.4483  0.4497 -0.4532
  721SOL    HW1 2882   2.464   0.742   1.430  2.9324 -1.2249  2.5520
  721SOL    HW2 2883   2.574   0.842   1.467 -0.5094 -1.9829  1.3657
  721SOL     MW 2884   2.517   0.810   1.405  0.6497 -0.0922  0.1833
  722SOL     OW 2885   2.553   1.206   0.380  0.0453  0.0301  0.1084
  722SOL    HW1 2886   2.509   1.230   0.459 -1.4768 -0.0144  2.3513
  722SOL    HW2 2887   2.627   1.155   0.418 -2.1011  3.7201  2.7990
  722SOL     MW 2888   2.557   1.202   0.395 -0.4387  0.5110  0.7593
  723SOL     OW 2889   2.271   1.400   1.629 -0.2413  0.2476 -0.0708
  723SOL    HW1 2890   2.235   1.362   1.548 -0.5428 -0.3393  1.5791
  723SOL    HW2 2891   2.197   1.447   1.665  0.8746 -1.1163 -0.6109
  723SOL     MW 2892   2.257   1.401   1.623 -0.1338 -0.0098  0.0756
  724SOL     OW 2893   2.460   0.372   0.582  0.4412  0.3156  0.1118
  724SOL    HW1 2894   2.454   0.316   0.657 -0.3205  0.5607 -2.2240
  724SOL    HW2 2895   2.522   0.325   0.531 -0.8366 -1.2289 -1.4096
  724SOL     MW 2896   2.467   0.359   0.585  0.1721  0.1442 -0.3971
  725SOL     OW 2897   2.590   0.524   1.133 -0.3618 -0.1757 -0.4869
  725SOL    HW1 2898   2.621   0.514   1.229  1.0587  1.7692  3.0007
  725SOL    HW2 2899   2.495   0.521   1.139  0.8072 -0.4843 -1.1296
  725SOL     MW 2900   2.582   0.522   1.147 -0.0201  0.0402 -0.1116
  726SOL     OW 2901   2.577   2.432   0.487  0.1012  0.3365 -0.2316
  726SOL    HW1 2902   2.525   2.490   0.431 -2.0449 -0.9459  0.2137
  726SOL    HW2 2903   2.511   2.408   0.558 -3.9946 -1.0820  1.1841
  726SOL     MW 2904   2.562   2.437   0.489 -0.7224 -0.0198  0.0140
  727SOL     OW 2905   2.829   0.273   1.629  0.6640  0.2095 -0.2745
  727SOL    HW1 2906   2.843   0.251   1.534  2.1073 -0.3842 -3.0183
  727SOL    HW2 2907   2.737   0.304   1.631  1.7526 -0.6314  0.7746
  727SOL     MW 2908   2.819   0.274   1.617  0.9981  0.0202 -0.4981
  728SOL     OW 2909   2.802   1.188   2.957  0.3537 -0.3469 -0.0869
  728SOL    HW1 2910   2.784   1.260   2.891 -2.5760  1.1803  0.7591
  728SOL    HW2 2911   2.836   1.237   3.035  3.2089  1.4839 -1.1275
  728SOL     MW 2912   2.804   1.204   2.959  0.3439  0.0961 -0.1126
  729SOL     OW 2913   2.524   1.473   1.168 -0.0215 -0.0371  0.0100
  729SOL    HW1 2914   2.488   1.438   1.251  0.0887  2.7198 -2.8152
  729SOL    HW2 2915   2.589   1.414   1.136  0.0197  2.1194  0.4126
  729SOL     MW 2916   2.528   1.460   1.175 -0.0016  0.6112 -0.3097
  730SOL     OW 2917   2.137   1.119   0.292 -0.2929 -0.3390  0.1781
  730SOL    HW1 2918   2.225   1.126   0.244  2.0450 -2.2129  0.0856
  730SOL    HW2 2919   2.101   1.206   0.291  0.7541  1.2913 -1.6793
  730SOL     MW 2920   2.144   1.131   0.285  0.1537 -0.3711 -0.0792
  731SOL     OW 2921   2.804   1.859   2.903 -0.7203 -0.1300 -0.1038
  731SOL    HW1 2922   2.726   1.908   2.910  1.5753  1.0513 -1.0131
  731SOL    HW2 2923   2.873   1.924   2.885  0.5289 -0.3217  1.7557
  731SOL     MW 2924   2.803   1.874   2.902 -0.2526  0.0006  0.0216
  732SOL     OW 2925   2.277   0.930   1.316 -0.6166  0.2356  0.4010
  732SOL    HW1 2926   2.219   0.899   1.386  1.6591  0.3702  1.1328
  732SOL    HW2 2927   2.359   0.894   1.354  2.1125 -2.6803  0.8387
  732SOL     MW 2928   2.280   0.921   1.330  0.0437 -0.1314  0.5553
  733SOL     OW 2929   2.354   2.837   3.061  0.2777 -0.0935  0.4493
  733SOL    HW1 2930   2.299   2.900   3.012  1.3380  0.7067  0.0639
  733SOL    HW2 2931   2.314   2.754   3.038 -1.9030  0.2004  0.2803
  733SOL     MW 2932   2.342   2.835   3.051  0.1299  0.0509  0.3762
  734SOL     OW 2933   1.495   0.369   2.454  0.2081  0.0710 -0.0214
  734SOL    HW1 2934   1.445   0.332   2.524 -1.5284 -0.1656 -0.1923
  734SOL    HW2 2935   1.500   0.294   2.397 -0.0149  1.7216  1.3670
  734SOL     MW 2936   1.489   0.355   2.456 -0.0504  0.2576  0.1392
  735SOL     OW 2937   3.071   0.964   2.636 -0.6336  0.7721 -0.0520
  735SOL    HW1 2938   3.026   0.881   2.634  2.2025 -1.1698  1.7249
  735SOL    HW2 2939   3.060   1.002   2.725 -1.3104  2.3062 -0.4192
  735SOL     MW 2940   3.064   0.958   2.648 -0.3487  0.7183  0.1340
  736SOL     OW 2941   0.051   0.593   2.503  0.1083  0.1301  0.4763
  736SOL    HW1 2942   0.114   0.641   2.444  0.3234  2.2380  1.8547
  736SOL    HW2 2943   0.026   0.511   2.454  0.4767 -1.5859  0.1045
  736SOL     MW 2944   0.056   0.589   2.489  0.1853  0.1818  0.6091
  737SOL     OW 2945   2.931   0.715   2.607  0.0004 -0.2400  0.3585
  737SOL    HW1 2946   2.872   0.697   2.535  1.5938  1.2644 -1.4316
  737SOL    HW2 2947   3.008   0.667   2.572 -0.4057 -0.0496  2.6736
  737SOL     MW 2948   2.934   0.706   2.593  0.1571 -0.0164  0.4278
  738SOL     OW 2949   0.180   0.502   1.977 -0.2638  0.6256  0.1008
  738SOL    HW1 2950   0.266   0.488   1.938 -0.8468  0.5410  0.4639
  738SOL    HW2 2951   0.179   0.423   2.024  2.7039  1.7980 -2.0352
  738SOL     MW 2952   0.191   0.490   1.978  0.0508  0.7691 -0.1331
  739SOL     OW 2953   2.544   0.953   2.160  0.4828 -0.1316  0.1644
  739SOL    HW1 2954   2.447   0.958   2.153 -0.3934  0.7197  1.8254
  739SOL    HW2 2955   2.582   0.985   2.079  0.7013  0.4308  2.2506
  739SOL     MW 2956   2.537   0.958   2.148  0.3961  0.0549  0.6588
  740SOL     OW 2957   0.170   1.740   2.975 -0.0574  0.8388 -0.5154
  740SOL    HW1 2958   0.108   1.670   2.961  1.5025  0.4050  1.6093
  740SOL    HW2 2959   0.240   1.687   3.007 -1.1707  0.0787 -0.0413
  740SOL     MW 2960   0.171   1.724   2.977  0.0016  0.6813 -0.1725
  741SOL     OW 2961   2.207   1.195   2.738 -0.4127  0.1619 -0.3761
  741SOL    HW1 2962   2.199   1.274   2.681 -0.9469 -0.6361 -1.3041
  741SOL    HW2 2963   2.200   1.213   2.834  1.8645 -1.3167 -0.2706
  741SOL     MW 2964   2.205   1.208   2.743 -0.1827 -0.1385 -0.4846
  742SOL     OW 2965   1.661   1.349   2.300 -0.0052  0.0892 -0.5494
  742SOL    HW1 2966   1.625   1.258   2.280 -1.2717 -0.0497 -0.9983
  742SOL    HW2 2967   1.701   1.344   2.384 -2.8292 -0.3981 -2.6530
  742SOL     MW 2968   1.661   1.336   2.308 -0.5449  0.0066 -0.8862
  743SOL     OW 2969   2.498   1.235   2.691  0.3998  0.4297 -0.2358
  743SOL    HW1 2970   2.405   1.212   2.718 -1.7279 -0.1000 -1.5030
  743SOL    HW2 2971   2.545   1.156   2.727  4.9133  0.3216  3.6361
  743SOL     MW 2972   2.492   1.221   2.699  0.7146  0.3456  0.1078
  744SOL     OW 2973   2.781   0.923   1.845  0.5793  0.8203  0.1711
  744SOL    HW1 2974   2.695   0.965   1.859 -1.1243  0.9960  2.0958
  744SOL    HW2 2975   2.772   0.856   1.781  1.6491  3.1107 -1.4486
  744SOL     MW 2976   2.768   0.920   1.838  0.4956  1.1457  0.2113
  745SOL     OW 2977   1.767   0.445   2.491 -0.0311 -0.4828 -0.0824
  745SOL    HW1 2978   1.794   0.433   2.400 -2.3870 -1.2081 -1.2984
  745SOL    HW2 2979   1.678   0.419   2.500  1.2144 -1.1703  0.2463
  745SOL     MW 2980   1.759   0.440   2.481 -0.1776 -0.6692 -0.1995
  746SOL     OW 2981   1.535   1.455   1.671 -0.4454 -0.0364  0.5547
  746SOL    HW1 2982   1.578   1.530   1.707 -0.6150 -1.5787  0.6661
  746SOL    HW2 2983   1.524   1.405   1.751 -2.1672  1.7610 -1.9415
  746SOL     MW 2984   1.539   1.458   1.687 -0.6949 -0.0027  0.2400
  747SOL     OW 2985   2.556   1.083   1.922 -0.1897 -0.1227  0.0645
  747SOL    HW1 2986   2.486   1.101   1.859 -1.3282  1.8933 -2.6162
  747SOL    HW2 2987   2.564   1.169   1.967  0.5253 -1.6953  0.6718
  747SOL     MW 2988   2.548   1.096   1.920 -0.2455 -0.0642 -0.2091
  748SOL     OW 2989   0.097   3.074   1.915  0.1836  0.0300  0.4985
  748SOL    HW1 2990   0.182   3.115   1.888 -0.0935  1.2867 -0.0706
  748SOL    HW2 2991   0.062   3.128   1.980  2.8242  0.7063  1.2728
  748SOL     MW 2992   0.104   3.087   1.920  0.4955  0.2850  0.5256
  749SOL     OW 2993   2.388   0.627   2.775 -0.1686 -0.1331 -0.1401
  749SOL    HW1 2994   2.421   0.717   2.744 -0.8812  1.7169  1.1809
  749SOL    HW2 2995   2.414   0.616   2.863  0.2919 -1.7213 -3.7874
  749SOL     MW 2996   2.396   0.637   2.782 -0.2019 -0.0985 -0.4470
  750SOL     OW 2997   2.091   3.020   1.949 -0.0455  0.2912  0.0323
  750SOL    HW1 2998   2.131   3.102   1.964 -0.8293 -1.6397 -1.7202
  750SOL    HW2 2999   2.167   2.962   1.963 -2.7910  1.0860 -2.0664
  750SOL     MW 3000   2.106   3.023   1.953 -0.5111  0.1413 -0.4759
  751SOL     OW 3001   3.068   0.341   2.405 -0.1463  0.1011 -0.5304
  751SOL    HW1 3002   2.991   0.353   2.349  0.0745  0.5719 -1.0826
  751SOL    HW2 3003   3.139   0.312   2.350 -0.0442  3.2296  0.5606
  751SOL     MW 3004   3.067   0.339   2.390 -0.1037  0.5760 -0.4593
  752SOL     OW 3005   2.159   0.894   2.769  0.0964 -0.2815 -0.2818
  752SOL    HW1 3006   2.215   0.970   2.792  1.8498 -0.9571  0.4306
  752SOL    HW2 3007   2.131   0.870   2.860  0.9315  0.4336 -0.8262
  752SOL     MW 3008   2.163   0.901   2.784  0.4379 -0.2763 -0.2596
  753SOL     OW 3009   2.817   0.386   2.291  0.1768  0.4990  0.0570
  753SOL    HW1 3010   2.769   0.303   2.298 -0.2985 -0.0863 -0.7544
  753SOL    HW2 3011   2.762   0.455   2.314  0.3446 -0.3696  0.5554
  753SOL     MW 3012   2.804   0.384   2.295  0.1362  0.3072  0.0157
  754SOL     OW 3013   2.307   2.957   2.653 -0.0014  0.1152  0.1596
  754SOL    HW1 3014   2.327   2.937   2.564  1.1386 -0.6489  0.3547
  754SOL    HW2 3015   2.356   2.896   2.712 -0.2666  0.7182  1.3835
  754SOL     MW 3016   2.316   2.946   2.649  0.1140  0.0939  0.3468
  755SOL     OW 3017   2.789   1.593   2.477  0.0298 -0.0471  0.2477
  755SOL    HW1 3018   2.745   1.508   2.489 -1.5208 -0.7775  2.3927
  755SOL    HW2 3019   2.814   1.629   2.565 -0.2397 -0.3999  1.9365
  755SOL     MW 3020   2.787   1.587   2.491 -0.2103 -0.1900  0.7536
  756SOL     OW 3021   2.175   1.256   2.999  0.7603  0.0112  0.1815
  756SOL    HW1 3022   2.254   1.324   2.984  1.6810 -2.0022 -1.5027
  756SOL    HW2 3023   2.213   1.168   3.014  0.3499  1.1346  2.8585
  756SOL     MW 3024   2.190   1.253   2.999  0.8276 -0.1063  0.3125
  757SOL     OW 3025   2.172   0.966   1.664  0.3900  0.0464 -0.2668
  757SOL    HW1 3026   2.195   0.875   1.672  3.3919  0.1943  0.1198
  757SOL    HW2 3027   2.110   0.971   1.589 -2.0707 -0.3685 -1.9369
  757SOL     MW 3028   2.167   0.955   1.655  0.4614  0.0112 -0.4362
  758SOL     OW 3029   2.231   1.841   2.645  0.2022 -0.2598  0.0302
  758SOL    HW1 3030   2.234   1.868   2.551 -1.0136  3.5083 -2.1159
  758SOL    HW2 3031   2.311   1.789   2.666 -1.2418 -1.2446 -2.1381
  758SOL     MW 3032   2.242   1.838   2.635 -0.1487  0.1074 -0.5391
  759SOL     OW 3033   1.528   1.464   2.798 -0.5976 -0.3391 -0.3652
  759SOL    HW1 3034   1.557   1.526   2.728 -1.7525 -0.6438  1.2403
  759SOL    HW2 3035   1.609   1.455   2.851  2.9441 -2.4486 -0.9920
  759SOL     MW 3036   1.542   1.471   2.796 -0.2827 -0.6576 -0.2361
  760SOL     OW 3037   2.609   1.954   2.732  0.0532 -0.0503  0.4222
  760SOL    HW1 3038   2.564   1.868   2.741 -1.2935  1.5429  0.8941
  760SOL    HW2 3039   2.674   1.957   2.667 -0.5840 -1.2045  0.7959
  760SOL     MW 3040   2.611   1.943   2.725 -0.2085  0.0076  0.5338
  761SOL     OW 3041   2.207   0.459   2.467  0.1246 -0.3667 -0.4388
  761SOL    HW1 3042   2.134   0.402   2.460 -1.4109  1.1811  0.9184
  761SOL    HW2 3043   2.190   0.518   2.538 -0.5073 -2.1636  0.9468
  761SOL     MW 3044   2.195   0.459   2.475 -0.1613 -0.3995 -0.0769
  762SOL     OW 3045   0.037   0.164   2.105 -0.0979 -0.4960  0.1097
  762SOL    HW1 3046   0.006   0.090   2.162  1.3958 -2.4205 -0.1036
  762SOL    HW2 3047  -0.046   0.213   2.092  0.5512 -0.2036  1.5681
  762SOL     MW 3048   0.022   0.161   2.111  0.1848 -0.7113  0.2740
  763SOL     OW 3049   2.455   1.140   2.337  0.1038 -0.2432 -0.2366
  763SOL    HW1 3050   2.494   1.086   2.270 -0.8736 -3.5015 -0.2427
  763SOL    HW2 3051   2.527   1.193   2.367 -1.1768 -1.1069 -2.2666
  763SOL     MW 3052   2.470   1.140   2.332 -0.1941 -0.7871 -0.5052
  764SOL     OW 3053   0.389   0.171   2.794 -0.7098 -0.2491 -0.1090
  764SOL    HW1 3054   0.351   0.195   2.707  2.0815  0.3458 -2.5771
  764SOL    HW2 3055   0.366   0.254   2.841  0.0576  2.5131 -1.0641
  764SOL     MW 3056   0.381   0.185   2.789 -0.2402  0.1938 -0.5607
  765SOL     OW 3057   2.703   0.146   2.296  0.0722  0.1536  0.4330
  765SOL    HW1 3058   2.691   0.089   2.220  0.5830  1.2226 -1.5252
  765SOL    HW2 3059   2.769   0.091   2.341  2.4948  2.4751  0.6567
  765SOL     MW 3060   2.710   0.131   2.292  0.4592  0.6009  0.2041
  766SOL     OW 3061   1.873   3.044   2.106 -0.5083 -0.3079  0.2464
  766SOL    HW1 3062   1.943   3.035   2.044 -0.6656  2.4001 -0.1750
  766SOL    HW2 3063   1.809   2.980   2.070 -2.1086 -1.5922  0.3579
  766SOL     MW 3064   1.874   3.034   2.093 -0.7402 -0.1201  0.2055
  767SOL     OW 3065   2.670   0.642   1.925  0.3448 -0.2843  0.2526
  767SOL    HW1 3066   2.718   0.695   1.990 -2.0611 -1.2617  1.0614
  767SOL    HW2 3067   2.596   0.699   1.907 -0.0332 -0.6677  3.4810
  767SOL     MW 3068   2.666   0.657   1.931 -0.0225 -0.4638  0.7853
  768SOL     OW 3069   0.020   1.449   2.991  0.1961 -0.0903  0.1088
  768SOL    HW1 3070   0.056   1.462   3.078 -1.6609 -0.6095 -1.2169
  768SOL    HW2 3071   0.032   1.352   2.967  1.9047 -1.0108 -0.1853
  768SOL     MW 3072   0.027   1.438   2.999  0.1765 -0.2802 -0.1049
  769SOL     OW 3073   2.340   0.690   2.413  0.6258  0.2221  1.2571
  769SOL    HW1 3074   2.316   0.602   2.437 -2.1328 -0.9989 -0.5972
  769SOL    HW2 3075   2.389   0.699   2.331 -1.6145 -2.3383 -0.1027
  769SOL     MW 3076   2.343   0.680   2.405 -0.0338 -0.2768  0.8330
  770SOL     OW 3077   0.077   1.624   2.635 -0.3044 -0.5315  0.2394
  770SOL    HW1 3078  -0.011   1.655   2.639 -0.0093  1.0593 -0.9108
  770SOL    HW2 3079   0.081   1.544   2.690 -0.6694  0.3485  2.9625
  770SOL     MW 3080   0.066   1.618   2.643 -0.3136 -0.2055  0.4469
  771SOL     OW 3081   3.003   0.575   1.942 -0.3062 -0.4895 -0.0186
  771SOL    HW1 3082   2.980   0.554   1.850  0.3820 -0.8377  1.4979
  771SOL    HW2 3083   3.096   0.559   1.947  2.3267  2.9597  2.9889
  771SOL     MW 3084   3.013   0.570   1.931  0.1320 -0.0804  0.5783
  772SOL     OW 3085   0.008   3.084   2.320  0.0221  0.7302 -0.4467
  772SOL    HW1 3086  -0.062   3.049   2.381  0.9618 -1.0678 -0.6049
  772SOL    HW2 3087   0.068   3.011   2.299  0.6410  0.5084  1.0729
  772SOL     MW 3088   0.007   3.069   2.325  0.2278  0.4637 -0.2671
  773SOL     OW 3089   2.483   2.844   2.823  0.0189  0.5609 -0.2347
  773SOL    HW1 3090   2.514   2.763   2.788  0.2986 -0.9887 -1.6411
  773SOL    HW2 3091   2.439   2.824   2.912 -2.0908 -0.6763  1.0602
  773SOL     MW 3092   2.481   2.831   2.830 -0.2226  0.1932 -0.2494
  774SOL     OW 3093   2.325   1.191   1.813 -0.1740 -0.0679  0.7738
  774SOL    HW1 3094   2.290   1.275   1.773 -0.4310  2.1225  1.0881
  774SOL    HW2 3095   2.309   1.132   1.741 -3.8494  4.5017  1.4026
  774SOL     MW 3096   2.318   1.194   1.798 -0.6929  0.8240  0.8982
  775SOL     OW 3097   2.260   2.947   2.334  0.2641 -0.0660 -0.0224
  775SOL    HW1 3098   2.265   3.033   2.294  1.1688 -1.0027  1.9410
  775SOL    HW2 3099   2.317   2.885   2.289 -0.2971 -0.1492  0.7858
  775SOL     MW 3100   2.268   2.950   2.323  0.3094 -0.2006  0.3433
  776SOL     OW 3101   0.127   1.538   0.117 -0.5891  0.1990 -0.2775
  776SOL    HW1 3102   0.219   1.515   0.101  1.1190 -0.2852  1.6033
  776SOL    HW2 3103   0.091   1.460   0.171  2.7306 -0.4268  0.1555
  776SOL     MW 3104   0.134   1.524   0.122  0.0743  0.0526  0.0278
  777SOL     OW 3105   2.979   1.119   1.736  0.2213 -0.1263 -0.0292
  777SOL    HW1 3106   2.949   1.159   1.651 -0.8831  0.2417 -1.3892
  777SOL    HW2 3107   2.916   1.065   1.781 -1.6724  0.2117  0.4958
  777SOL     MW 3108   2.966   1.117   1.731 -0.1743 -0.0332 -0.1394
  778SOL     OW 3109   2.830   0.430   2.756 -0.7712 -0.0885 -0.7027
  778SOL    HW1 3110   2.778   0.441   2.841 -0.4872 -2.1812 -2.0583
  778SOL    HW2 3111   2.819   0.512   2.711 -2.2434 -0.3006  1.1064
  778SOL     MW 3112   2.822   0.443   2.761 -0.9279 -0.3926 -0.6429
  779SOL     OW 3113   2.251   0.521   2.121 -0.5140  0.6946  0.8358
  779SOL    HW1 3114   2.188   0.577   2.165  0.0027  2.1889 -2.8035
  779SOL    HW2 3115   2.285   0.463   2.182 -0.7615  1.5215 -0.8041
  779SOL     MW 3116   2.247   0.520   2.135 -0.4785  1.0009  0.1393
  780SOL     OW 3117   0.114   0.264   2.675 -0.5249  0.7201  0.0710
  780SOL    HW1 3118   0.029   0.223   2.668 -1.8292 -3.2516 -4.1056
  780SOL    HW2 3119   0.098   0.350   2.722 -0.5093  0.9623  1.8154
  780SOL     MW 3120   0.101   0.270   2.680 -0.6949  0.2280 -0.2499
  781SOL     OW 3121   3.040   1.298   2.473 -0.0912 -0.4588 -0.3622
  781SOL    HW1 3122   3.051   1.364   2.406 -1.4472  1.3490 -0.6209
  781SOL    HW2 3123   3.060   1.216   2.425  1.2799 -1.0728 -1.1342
  781SOL     MW 3124   3.044   1.296   2.458 -0.0892 -0.3013 -0.4982
  782SOL     OW 3125   0.608   1.522   0.059 -0.6295  0.8645  0.0876
  782SOL    HW1 3126   0.530   1.572   0.009  0.4959 -0.1214  0.1581
  782SOL    HW2 3127   0.624   1.587   0.127 -2.6518  1.4851 -2.0694
  782SOL     MW 3128   0.600   1.537   0.061 -0.7479  0.8163 -0.1877
  783SOL     OW 3129   2.688   0.618   2.415  0.4735  0.4114  0.7393
  783SOL    HW1 3130   2.631   0.649   2.339  0.8863 -0.3802 -1.8586
  783SOL    HW2 3131   2.629   0.551   2.457 -0.2821 -1.6748 -0.4433
  783SOL     MW 3132   2.672   0.613   2.411  0.4283  0.0317  0.2405
  784SOL     OW 3133   0.199   0.850   2.892  0.2130  0.1716 -0.1877
  784SOL    HW1 3134   0.111   0.884   2.905 -2.8450 -0.5331 -0.1750
  784SOL    HW2 3135   0.242   0.908   2.825 -0.6509  0.8696 -1.0749
  784SOL     MW 3136   0.193   0.862   2.885 -0.3044  0.1707 -0.3031
  785SOL     OW 3137   0.456   0.424   2.203 -0.7203  0.3662  0.2480
  785SOL    HW1 3138   0.446   0.471   2.116  1.3645 -0.6747 -0.0626
  785SOL    HW2 3139   0.365   0.403   2.226  0.8518  0.4982  0.6900
  785SOL     MW 3140   0.443   0.427   2.194 -0.2378  0.2463  0.2654
  786SOL     OW 3141   1.900   0.416   2.999 -0.2127 -0.0350 -0.8318
  786SOL    HW1 3142   1.833   0.481   2.999  1.7502 -3.5318 -1.1067
  786SOL    HW2 3143   1.955   0.430   2.922  1.9004  0.2677  0.0839
  786SOL     MW 3144   1.899   0.426   2.989  0.3251 -0.4564 -0.7473
  787SOL     OW 3145   2.467   0.113   2.965 -0.2432 -0.7124  0.2257
  787SOL    HW1 3146   2.540   0.072   2.920  3.4579  0.8244 -1.8917
  787SOL    HW2 3147   2.505   0.188   3.015 -3.9937  0.9804  1.2956
  787SOL     MW 3148   2.481   0.117   2.965 -0.2497 -0.2863  0.0875
  788SOL     OW 3149   2.848   3.020   2.405  0.0145  0.2583  0.2229
  788SOL    HW1 3150   2.815   3.009   2.494  1.8373 -0.9270 -0.0157
  788SOL    HW2 3151   2.881   2.932   2.375  2.1311 -0.4979 -0.3777
  788SOL     MW 3152   2.848   3.007   2.413  0.5342  0.0022  0.1122
  789SOL     OW 3153   0.101   0.186   3.047  0.1178 -0.1450 -0.1013
  789SOL    HW1 3154   0.009   0.177   3.060  1.1511 -2.7927 -1.4230
  789SOL    HW2 3155   0.100   0.265   2.991 -1.5853  2.4675 -1.5170
  789SOL     MW 3156   0.089   0.195   3.042  0.0294 -0.1496 -0.4625
  790SOL     OW 3157   3.101   1.066   2.397  0.1633  0.1947  0.0244
  790SOL    HW1 3158   3.078   1.038   2.490  0.7221 -0.8275 -0.0335
  790SOL    HW2 3159   3.021   1.052   2.342 -3.6411  0.1423 -1.7125
  790SOL     MW 3160   3.087   1.060   2.402 -0.2649  0.0529 -0.2124
  791SOL     OW 3161   2.534   0.469   2.597  0.2655 -0.5903 -0.5916
  791SOL    HW1 3162   2.488   0.512   2.674 -2.1440  2.3350  3.0569
  791SOL    HW2 3163   2.590   0.396   2.626  0.0122  1.6010  3.8417
  791SOL     MW 3164   2.535   0.465   2.611 -0.0858  0.0848  0.4747
  792SOL     OW 3165   2.350   0.210   2.429 -0.6503  0.0241 -0.1605
  792SOL    HW1 3166   2.364   0.302   2.442  1.3694  1.0850 -0.6689
  792SOL    HW2 3167   2.311   0.175   2.509 -1.3344 -0.0972 -1.1094
  792SOL     MW 3168   2.346   0.218   2.441 -0.4741  0.1481 -0.3528
  793SOL     OW 3169   1.885   1.100   1.996  0.3761  0.6507  0.1009
  793SOL    HW1 3170   1.860   1.097   1.900 -0.7260  0.3863 -2.8157
  793SOL    HW2 3171   1.970   1.057   1.979  2.6258  0.7785 -2.5157
  793SOL     MW 3172   1.893   1.094   1.981  0.5275  0.6326 -0.6291
  794SOL     OW 3173   1.385   2.344   0.138  0.6141 -0.0559  0.0737
  794SOL    HW1 3174   1.425   2.417   0.099  3.9470  0.2162 -1.6624
  794SOL    HW2 3175   1.443   2.334   0.216  1.1916 -1.8046  0.9195
  794SOL     MW 3176   1.398   2.352   0.143  1.1301 -0.2507 -0.0438
  795SOL     OW 3177   2.313   1.015   2.520 -0.2827 -0.6322  0.5746
  795SOL    HW1 3178   2.273   1.074   2.585 -3.1414 -2.3112  2.1592
  795SOL    HW2 3179   2.358   1.067   2.452 -0.0476  0.6312  0.7864
  795SOL     MW 3180   2.314   1.030   2.519 -0.6289 -0.6870  0.8116
  796SOL     OW 3181   0.262   0.622   2.744  0.0556  0.0310  0.8840
  796SOL    HW1 3182   0.234   0.692   2.801 -1.8954 -2.1769  1.1425
  796SOL    HW2 3183   0.187   0.603   2.686 -0.0942 -0.1875 -0.8040
  796SOL     MW 3184   0.248   0.629   2.744 -0.2216 -0.2892  0.6954
  797SOL     OW 3185   2.594   0.153   2.566  0.5859 -0.4806  0.2490
  797SOL    HW1 3186   2.490   0.148   2.586 -1.1122  2.6384  0.3228
  797SOL    HW2 3187   2.603   0.145   2.470  1.9654  0.0843 -0.8277
  797SOL     MW 3188   2.581   0.151   2.556  0.5439  0.0055  0.1167
  798SOL     OW 3189   2.358   0.106   2.187 -0.1919  0.3788 -0.4757
  798SOL    HW1 3190   2.347   0.152   2.277  0.9698 -2.9807 -1.5967
  798SOL    HW2 3191   2.451   0.083   2.175 -0.4362 -2.1190  1.2438
  798SOL     MW 3192   2.369   0.109   2.197 -0.0708 -0.3940 -0.3967
  799SOL     OW 3193   2.553   2.979   0.146 -0.0802 -0.0869 -0.6294
  799SOL    HW1 3194   2.475   2.944   0.107  2.9082 -1.9178  1.3592
  799SOL    HW2 3195   2.534   2.957   0.237 -0.5816  0.6741  1.6569
  799SOL     MW 3196   2.540   2.971   0.153  0.2479 -0.2280 -0.0653
  800SOL     OW 3197   1.934   0.048   1.745 -0.1363  0.8246  0.1345
  800SOL    HW1 3198   1.877  -0.027   1.730 -0.3872 -0.2254  0.6112
  800SOL    HW2 3199   1.978   0.022   1.823 -0.5895  1.8123 -2.3803
  800SOL     MW 3200   1.933   0.035   1.753 -0.2292  0.8163 -0.1344
  801SOL     OW 3201   2.792   1.221   2.585 -0.0056  0.5906 -0.2534
  801SOL    HW1 3202   2.775   1.129   2.575  1.9964  0.9142  0.5407
  801SOL    HW2 3203   2.883   1.237   2.549  0.1874 -1.7332 -0.6812
  801SOL     MW 3204   2.802   1.211   2.579  0.2840  0.3267 -0.2051
  802SOL     OW 3205   2.591   1.466   2.786  0.0261  0.0166 -0.1091
  802SOL    HW1 3206   2.568   1.384   2.743  2.1807  0.5150  0.2578
  802SOL    HW2 3207   2.681   1.460   2.795 -3.1241 -0.8994  0.0672
  802SOL     MW 3208   2.600   1.455   2.781 -0.1053 -0.0385 -0.0374
  803SOL     OW 3209   2.244   1.379   2.023 -0.8366 -0.1627 -0.2706
  803SOL    HW1 3210   2.218   1.370   2.112  0.5611 -0.2211 -1.2475
  803SOL    HW2 3211   2.234   1.295   1.978 -0.2335 -2.0929 -0.3007
  803SOL     MW 3212   2.240   1.367   2.029 -0.5726 -0.4251 -0.4035
  804SOL     OW 3213   2.287   0.066   0.045 -0.0862  0.6461 -0.1640
  804SOL    HW1 3214   2.230   0.141   0.061 -0.5138  0.5878 -0.0301
  804SOL    HW2 3215   2.352   0.088  -0.028 -1.0642 -0.4542  1.4596
  804SOL     MW 3216   2.288   0.078   0.038 -0.2717  0.4933  0.0679
  805SOL     OW 3217   2.745   0.960   2.608  0.4535 -0.1427 -0.6309
  805SOL    HW1 3218   2.671   0.901   2.598 -0.1611  1.1253  1.1295
  805SOL    HW2 3219   2.819   0.902   2.628 -1.3274  0.7672 -0.6581
  805SOL     MW 3220   2.745   0.945   2.609  0.1375  0.1446 -0.4022
  806SOL     OW 3221   2.511   0.696   2.192 -0.2408 -0.1865 -0.2224
  806SOL    HW1 3222   2.435   0.711   2.136 -1.5427  0.0801  0.9984
  806SOL    HW2 3223   2.545   0.786   2.174 -1.9954 -1.4620 -0.1834
  806SOL     MW 3224   2.506   0.710   2.182 -0.6440 -0.3196 -0.0562
  807SOL     OW 3225   0.072   1.077   2.044 -0.3627  0.0820 -0.1770
  807SOL    HW1 3226   0.121   1.011   2.091  0.0675 -1.1202  2.3077
  807SOL    HW2 3227  -0.020   1.064   2.076 -1.9454 -0.4486  0.0708
  807SOL     MW 3228   0.066   1.067   2.054 -0.5148 -0.1466  0.1835
  808SOL     OW 3229   2.638   3.069   2.774  0.2842 -0.0927 -0.3294
  808SOL    HW1 3230   2.571   3.003   2.777 -1.7862  1.7272  1.3033
  808SOL    HW2 3231   2.627   3.117   2.694  1.3064 -2.8405  0.4587
  808SOL     MW 3232   2.628   3.067   2.764  0.1459 -0.2151 -0.0100
  809SOL     OW 3233   2.630   1.335   2.410  0.5353  0.2611  0.0664
  809SOL    HW1 3234   2.683   1.303   2.483 -1.8393 -1.6683  3.1798
  809SOL    HW2 3235   2.691   1.329   2.331  0.6667  1.4384  1.5368
  809SOL     MW 3236   2.645   1.330   2.409  0.2393  0.1618  0.6712
  810SOL     OW 3237   2.227   1.319   2.308 -0.2080 -0.0935 -0.0644
  810SOL    HW1 3238   2.303   1.260   2.310 -2.6321  0.2876  0.3898
  810SOL    HW2 3239   2.175   1.305   2.387  2.1544  0.3005  0.3475
  810SOL     MW 3240   2.230   1.309   2.319 -0.2161  0.0088  0.0499
  811SOL     OW 3241   1.537   0.128   2.309 -0.3732 -0.2086  0.1492
  811SOL    HW1 3242   1.629   0.112   2.306  0.8958  0.8585  0.0027
  811SOL    HW2 3243   1.510   0.123   2.216 -0.6487  1.4757 -0.5256
  811SOL     MW 3244   1.545   0.125   2.296 -0.2421  0.1544  0.0408
  812SOL     OW 3245   1.470   2.816   2.004 -0.1993 -0.4280 -0.1271
  812SOL    HW1 3246   1.562   2.819   1.977 -1.6642  0.5471 -0.3701
  812SOL    HW2 3247   1.474   2.815   2.103  1.7559  0.6950 -0.4987
  812SOL     MW 3248   1.483   2.816   2.013 -0.1346 -0.1512 -0.2082
  813SOL     OW 3249   1.995   0.613   2.235  0.3922 -0.1796  0.0349
  813SOL    HW1 3250   1.922   0.557   2.213 -3.0199 -1.8847  0.0320
  813SOL    HW2 3251   1.952   0.694   2.270 -1.6995  1.8651  1.2113
  813SOL     MW 3252   1.980   0.616   2.237 -0.3340 -0.1348  0.1897
  814SOL     OW 3253   2.730   1.254   1.651 -0.1297  0.8905  0.1664
  814SOL    HW1 3254   2.703   1.221   1.739 -1.5597 -2.0192  1.9749
  814SOL    HW2 3255   2.703   1.187   1.593 -0.3999  1.2183 -0.8242
  814SOL     MW 3256   2.723   1.241   1.655 -0.3540  0.5498  0.2743
  815SOL     OW 3257   2.587   1.767   2.386  0.0154 -0.3251  0.2945
  815SOL    HW1 3258   2.519   1.698   2.358 -0.6444 -2.2851 -1.2982
  815SOL    HW2 3259   2.668   1.728   2.421  3.4675 -0.4052 -1.1782
  815SOL     MW 3260   2.589   1.753   2.387  0.3838 -0.5943 -0.1099
  816SOL     OW 3261   0.716   0.720   2.729 -0.8607  0.4629 -0.0759
  816SOL    HW1 3262   0.734   0.632   2.773  3.4423 -0.4948  2.5097
  816SOL    HW2 3263   0.616   0.717   2.698  1.7817 -0.2201 -0.3474
  816SOL     MW 3264   0.705   0.708   2.731  0.0557  0.2464  0.2294
  817SOL     OW 3265   2.980   1.214   1.468 -0.0616 -0.2068 -0.2151
  817SOL    HW1 3266   3.069   1.173   1.479 -0.8383 -1.2464 -0.6556
  817SOL    HW2 3267   2.985   1.291   1.405  0.2280 -1.1988 -1.3483
  817SOL     MW 3268   2.993   1.219   1.461 -0.1259 -0.4748 -0.4227
  818SOL     OW 3269   1.919   1.086   2.654 -0.2272  0.4036  0.4120
  818SOL    HW1 3270   1.906   1.054   2.561 -0.9396 -0.0642  0.5246
  818SOL    HW2 3271   1.983   1.027   2.690  0.8133  1.1458  1.6241
  818SOL     MW 3272   1.926   1.074   2.646 -0.1839  0.4398  0.5868
  819SOL     OW 3273   1.986   0.282   2.528  0.1591 -0.1743  0.1760
  819SOL    HW1 3274   1.901   0.334   2.543 -1.6077  1.2795 -1.9286
  819SOL    HW2 3275   2.041   0.287   2.610 -0.0776 -3.5705  1.0703
  819SOL     MW 3276   1.982   0.290   2.540 -0.1052 -0.4306  0.0163
  820SOL     OW 3277   2.506   1.724   2.693  0.9329  0.1208  0.2041
  820SOL    HW1 3278   2.540   1.640   2.727  2.0675  2.3590  0.1210
  820SOL    HW2 3279   2.535   1.736   2.601 -0.5715  0.0349 -1.1432
  820SOL     MW 3280   2.514   1.715   2.685  0.8841  0.4048  0.0154
  821SOL     OW 3281   2.532   1.356   2.004  0.9031  0.0547  0.2591
  821SOL    HW1 3282   2.573   1.417   1.943 -3.2648 -0.8935  1.1756
  821SOL    HW2 3283   2.440   1.376   2.019 -1.7742  1.9046 -1.6595
  821SOL     MW 3284   2.525   1.367   1.998 -0.0000  0.1737  0.1269
  822SOL     OW 3285   2.833   2.674   1.436 -0.3576  0.1339 -0.2768
  822SOL    HW1 3286   2.866   2.667   1.528 -0.5255  0.4299  1.3789
  822SOL    HW2 3287   2.850   2.766   1.410 -1.2614  2.0081 -1.7043
  822SOL     MW 3288   2.839   2.685   1.445 -0.4990  0.4202 -0.2467
  823SOL     OW 3289   2.392   0.491   1.833 -0.2458 -0.1601 -0.4323
  823SOL    HW1 3290   2.482   0.467   1.789  0.7257  0.0638  3.7199
  823SOL    HW2 3291   2.391   0.441   1.911  0.5279  1.0935 -2.1732
  823SOL     MW 3292   2.404   0.481   1.838 -0.0155  0.0348 -0.1142
  824SOL     OW 3293   2.218   1.453   2.607 -0.6578 -0.6226 -0.9473
  824SOL    HW1 3294   2.294   1.491   2.561  0.9538  0.7554  0.9225
  824SOL    HW2 3295   2.162   1.526   2.634 -2.2601 -1.2850  1.4005
  824SOL     MW 3296   2.220   1.468   2.605 -0.6566 -0.5282 -0.3909
  825SOL     OW 3297   1.920   2.525   0.268  0.1850 -1.2203  0.3002
  825SOL    HW1 3298   1.878   2.461   0.322  1.8293  1.0613 -2.7810
  825SOL    HW2 3299   2.005   2.489   0.239  0.9671 -2.5527  0.1306
  825SOL     MW 3300   1.926   2.511   0.271  0.5051 -1.0951 -0.1287
  826SOL     OW 3301   1.804   2.379   0.486 -0.3649  0.2042  0.7896
  826SOL    HW1 3302   1.762   2.305   0.533 -0.4211 -0.8604 -0.3601
  826SOL    HW2 3303   1.778   2.454   0.534  0.0713 -0.2140 -1.6302
  826SOL     MW 3304   1.795   2.379   0.499 -0.3148  0.0086  0.3186
  827SOL     OW 3305   1.907   2.193   0.789  0.4634  0.3978 -0.2268
  827SOL    HW1 3306   1.833   2.201   0.728 -0.5239 -2.4849  1.3188
  827SOL    HW2 3307   1.862   2.132   0.851 -1.8834 -0.0541  1.2552
  827SOL     MW 3308   1.891   2.186   0.789  0.0235 -0.0422  0.1727
  828SOL     OW 3309   0.059   2.579   0.568 -0.1882 -0.7393 -0.1348
  828SOL    HW1 3310   0.158   2.573   0.558  0.0139  1.8101  2.3973
  828SOL    HW2 3311   0.037   2.621   0.487 -0.5182 -2.6896  0.8619
  828SOL     MW 3312   0.069   2.584   0.556 -0.2050 -0.6602  0.3307
  829SOL     OW 3313   2.983   2.920   1.178 -0.1472 -0.1139 -0.8934
  829SOL    HW1 3314   2.905   2.913   1.119 -1.9047  0.4687 -0.2660
  829SOL    HW2 3315   3.037   2.840   1.161 -3.4022 -0.8425 -0.3569
  829SOL     MW 3316   2.980   2.909   1.168 -0.8085 -0.1332 -0.7398
  830SOL     OW 3317   2.579   2.818   2.019  0.3136 -0.2285 -0.0807
  830SOL    HW1 3318   2.481   2.805   1.980 -2.0576 -0.6621  0.1316
  830SOL    HW2 3319   2.633   2.813   1.941 -1.2251 -4.0221 -0.8201
  830SOL     MW 3320   2.573   2.816   2.004 -0.2022 -0.7862 -0.1502
  831SOL     OW 3321   2.358   2.471   1.185  0.1027 -0.0034  0.3885
  831SOL    HW1 3322   2.327   2.453   1.271  2.5020  1.1514  1.9989
  831SOL    HW2 3323   2.441   2.420   1.166 -0.3231  0.3951  0.9519
  831SOL     MW 3324   2.365   2.462   1.194  0.3631  0.2015  0.6753
  832SOL     OW 3325   2.359   2.218   1.880 -0.1580  0.0816  0.1739
  832SOL    HW1 3326   2.403   2.296   1.918  0.2860  0.8450  4.0285
  832SOL    HW2 3327   2.429   2.154   1.861  1.5384 -0.5333 -0.1799
  832SOL     MW 3328   2.374   2.220   1.883  0.1244  0.1012  0.6358
  833SOL     OW 3329   1.707   2.463   0.862 -0.1096  0.2463 -0.0392
  833SOL    HW1 3330   1.622   2.420   0.867  1.1688  1.8104  0.6786
  833SOL    HW2 3331   1.710   2.528   0.931  0.2963 -3.9444 -3.3721
  833SOL     MW 3332   1.696   2.466   0.871  0.1126 -0.1003 -0.3843
  834SOL     OW 3333   2.071   2.444   0.556  0.9420  0.0325  0.0737
  834SOL    HW1 3334   1.992   2.431   0.515  2.2076  1.8856 -0.0025
  834SOL    HW2 3335   2.135   2.412   0.485 -0.4877 -0.5449  0.4556
  834SOL     MW 3336   2.069   2.438   0.541  0.9203  0.2008  0.1141
  835SOL     OW 3337   1.796   2.619   0.645 -0.1174 -0.0520  0.3760
  835SOL    HW1 3338   1.769   2.574   0.732 -3.7358  0.0969 -0.1080
  835SOL    HW2 3339   1.849   2.686   0.690 -1.9392 -4.5095  0.3228
  835SOL     MW 3340   1.799   2.622   0.663 -0.8352 -0.6205  0.3052
  836SOL     OW 3341   1.948   2.207   1.608  0.0574  0.3622  0.3620
  836SOL    HW1 3342   2.038   2.235   1.635  1.0895 -0.4189 -0.3878
  836SOL    HW2 3343   1.890   2.279   1.631  0.1908 -0.3588  2.5435
  836SOL     MW 3344   1.952   2.220   1.615  0.2112  0.1640  0.5509
  837SOL     OW 3345   2.123   0.216   0.670 -0.5836  0.1845  0.2516
  837SOL    HW1 3346   2.043   0.256   0.634 -0.9568  0.4261 -0.0296
  837SOL    HW2 3347   2.161   0.157   0.601 -3.6509 -0.2048 -2.1316
  837SOL     MW 3348   2.117   0.214   0.656 -1.0375  0.1650 -0.1000
  838SOL     OW 3349   2.947   2.041   0.919  0.2633 -0.1300 -0.3271
  838SOL    HW1 3350   2.872   2.012   0.971 -0.3837  1.4445  0.3575
  838SOL    HW2 3351   2.969   1.959   0.875 -0.8513  0.2025  0.7297
  838SOL     MW 3352   2.940   2.026   0.920  0.0309  0.1216 -0.0973
  839SOL     OW 3353   1.493   2.332   1.013 -0.1516  0.5778 -0.0909
  839SOL    HW1 3354   1.519   2.411   1.060 -1.0944 -0.2602 -1.2196
  839SOL    HW2 3355   1.507   2.267   1.076 -1.7371  0.4098 -4.6780
  839SOL     MW 3356   1.498   2.334   1.028 -0.4852  0.4451 -0.8451
  840SOL     OW 3357   2.364   2.158   2.459  0.2821 -0.1893 -0.5219
  840SOL    HW1 3358   2.298   2.220   2.421  1.2852 -0.6591 -1.0639
  840SOL    HW2 3359   2.400   2.211   2.527 -2.7686 -0.9345 -0.5147
  840SOL     MW 3360   2.360   2.173   2.463  0.0120 -0.3496 -0.5925
  841SOL     OW 3361   2.125   2.424   0.126 -0.4154 -0.2860  0.2791
  841SOL    HW1 3362   2.127   2.498   0.065  0.5894  1.9126  1.9628
  841SOL    HW2 3363   2.097   2.348   0.070 -3.0807  1.2315  0.0879
  841SOL     MW 3364   2.122   2.424   0.110 -0.6345  0.2043  0.4760
  842SOL     OW 3365   2.610   2.078   1.541 -0.5009  0.0279 -0.1756
  842SOL    HW1 3366   2.542   2.013   1.560 -0.7456  2.5051  0.8974
  842SOL    HW2 3367   2.561   2.119   1.470  0.0701 -1.2792 -0.0273
  842SOL     MW 3368   2.595   2.075   1.534 -0.4578  0.1823 -0.0145
  843SOL     OW 3369   2.694   2.791   1.765 -0.4810  0.4010  0.0019
  843SOL    HW1 3370   2.776   2.729   1.761  0.9279 -1.8103  0.9315
  843SOL    HW2 3371   2.624   2.733   1.738 -1.7547 -4.1327  2.8573
  843SOL     MW 3372   2.695   2.775   1.761 -0.4632 -0.4889  0.5013
  844SOL     OW 3373   2.587   2.345   1.150 -0.2700 -0.1679 -0.0162
  844SOL    HW1 3374   2.626   2.352   1.063  1.0591 -0.4982  1.6643
  844SOL    HW2 3375   2.655   2.384   1.208  3.6878 -0.8378 -0.4980
  844SOL     MW 3376   2.601   2.351   1.146  0.4276 -0.2999  0.1420
  845SOL     OW 3377   2.828   2.459   0.305  0.0375 -0.6528  0.0519
  845SOL    HW1 3378   2.783   2.374   0.309 -3.4987 -0.1629  0.0940
  845SOL    HW2 3379   2.844   2.496   0.393  1.7709 -0.4885 -3.2756
  845SOL     MW 3380   2.824   2.453   0.317 -0.2004 -0.5665 -0.3816
  846SOL     OW 3381   1.530   2.868   0.797  0.3010  0.6915 -0.7491
  846SOL    HW1 3382   1.582   2.910   0.865  1.6559 -0.7357 -0.7126
  846SOL    HW2 3383   1.444   2.875   0.828 -0.7725  3.0703 -2.3450
  846SOL     MW 3384   1.526   2.875   0.810  0.3382  0.8170 -0.9548
  847SOL     OW 3385   2.612   1.920   0.186 -0.4925  0.6142 -0.1543
  847SOL    HW1 3386   2.705   1.894   0.189  2.3199 -1.4329  0.7030
  847SOL    HW2 3387   2.571   1.858   0.122 -0.2283 -1.7985 -1.3028
  847SOL     MW 3388   2.619   1.909   0.178 -0.0865  0.0258 -0.1928
  848SOL     OW 3389   2.486   2.150   1.309 -0.0660 -0.2120  0.3001
  848SOL    HW1 3390   2.525   2.207   1.239  2.5261  1.1277 -2.2905
  848SOL    HW2 3391   2.453   2.063   1.277 -2.2452  0.3401  0.2749
  848SOL     MW 3392   2.487   2.146   1.296 -0.0115  0.0376 -0.0450
  849SOL     OW 3393   1.974   2.772   0.770  0.1356  0.4199 -0.7628
  849SOL    HW1 3394   2.007   2.686   0.804 -0.1376 -0.3182  1.4204
  849SOL    HW2 3395   2.027   2.775   0.684  0.3843  0.4297 -1.9159
  849SOL     MW 3396   1.985   2.761   0.763  0.1324  0.3238 -0.6269
  850SOL     OW 3397   2.196   1.958   1.690  0.6201 -0.4869  0.0912
  850SOL    HW1 3398   2.130   1.903   1.637  0.1035 -1.1742  0.0781
  850SOL    HW2 3399   2.140   2.035   1.700 -1.1844  1.4546  0.3236
  850SOL     MW 3400   2.180   1.961   1.684  0.3139 -0.3214  0.1202
  851SOL     OW 3401   2.248   2.368   0.372  0.2536 -0.0656 -0.6848
  851SOL    HW1 3402   2.196   2.400   0.304  1.8855 -1.2333  5.1214
  851SOL    HW2 3403   2.331   2.413   0.354  0.2614 -1.9668 -1.2681
  851SOL     MW 3404   2.252   2.378   0.360  0.4700 -0.4705  0.0043
  852SOL     OW 3405   2.281   2.177   0.174  0.3587  0.9054  0.5736
  852SOL    HW1 3406   2.270   2.237   0.250 -0.7502  0.7824  1.4576
  852SOL    HW2 3407   2.373   2.192   0.142 -0.1879 -1.9336  2.3420
  852SOL     MW 3408   2.292   2.187   0.180  0.1403  0.5146  0.9236
  853SOL     OW 3409   2.457   2.437   1.987  0.2786  0.1618  0.0766
  853SOL    HW1 3410   2.479   2.466   1.900 -0.1912 -0.7153  0.0857
  853SOL    HW2 3411   2.544   2.398   2.027 -1.1566 -2.8890  1.0614
  853SOL     MW 3412   2.472   2.436   1.981  0.0273 -0.3564  0.2077
  854SOL     OW 3413   2.855   2.259   0.773 -0.4712  0.2706  0.4485
  854SOL    HW1 3414   2.779   2.238   0.719 -1.0795  0.9917  1.6111
  854SOL    HW2 3415   2.878   2.177   0.820 -0.6706  0.6305  1.4408
  854SOL     MW 3416   2.848   2.246   0.772 -0.5778  0.4132  0.7328
  855SOL     OW 3417   2.665   2.239   0.330 -0.0628 -0.2120 -0.1669
  855SOL    HW1 3418   2.630   2.291   0.405 -2.1749  0.0455  2.8000
  855SOL    HW2 3419   2.738   2.188   0.359 -2.5769  0.0525 -0.2241
  855SOL     MW 3420   2.670   2.239   0.344 -0.6732 -0.1431  0.2170
  856SOL     OW 3421   2.171   1.943   0.230  0.1552  0.4352 -0.1012
  856SOL    HW1 3422   2.082   1.947   0.262 -0.6966  0.8421 -0.7737
  856SOL    HW2 3423   2.207   2.033   0.221 -0.9686  1.5872 -1.1496
  856SOL     MW 3424   2.164   1.955   0.233 -0.1055  0.6408 -0.3282
  857SOL     OW 3425   2.569   1.954   0.480  0.5642  0.8486  0.1190
  857SOL    HW1 3426   2.545   1.960   0.392  0.5918  1.5019 -2.3993
  857SOL    HW2 3427   2.488   1.926   0.533  2.8331  1.5258  1.7437
  857SOL     MW 3428   2.555   1.951   0.476  0.8672  1.0241  0.0011
  858SOL     OW 3429   2.907   2.626   1.701  0.1389  0.0481 -0.2780
  858SOL    HW1 3430   2.989   2.659   1.748  0.8086  0.9319 -2.0248
  858SOL    HW2 3431   2.868   2.547   1.750  1.2446 -0.1899 -3.6448
  858SOL     MW 3432   2.913   2.620   1.713  0.3731  0.1333 -0.9527
  859SOL     OW 3433   2.113   2.491   0.847  0.4092  0.0079  0.4056
  859SOL    HW1 3434   2.092   2.440   0.764  1.4892  0.6008 -2.5776
  859SOL    HW2 3435   2.194   2.456   0.873 -0.8413 -0.5050  0.6746
  859SOL     MW 3436   2.121   2.480   0.840  0.3867  0.0185  0.0475
  860SOL     OW 3437   2.637   2.585   0.144 -0.0073 -0.5148 -0.2580
  860SOL    HW1 3438   2.707   2.551   0.209  1.2778  2.3222  0.7942
  860SOL    HW2 3439   2.662   2.677   0.130  1.2104  1.8063  1.5037
  860SOL     MW 3440   2.650   2.593   0.151  0.3229  0.1658  0.1133
  861SOL     OW 3441   1.587   2.134   1.217 -0.4240  0.2123  0.3024
  861SOL    HW1 3442   1.662   2.148   1.286 -0.3613  1.7247  2.9185
  861SOL    HW2 3443   1.519   2.078   1.259 -0.3867 -0.3984 -0.2276
  861SOL     MW 3444   1.588   2.128   1.232 -0.4108  0.3312  0.5777
  862SOL     OW 3445   2.409   1.890   1.504 -0.1008  0.2716 -0.2545
  862SOL    HW1 3446   2.343   1.917   1.572  0.7139  1.5135 -0.4952
  862SOL    HW2 3447   2.374   1.852   1.428  1.7410  2.1369 -1.2364
  862SOL     MW 3448   2.396   1.889   1.503  0.2497  0.6816 -0.4158
  863SOL     OW 3449   3.085   1.766   1.203  0.7989  0.1072 -0.0798
  863SOL    HW1 3450   3.144   1.774   1.131  0.2831 -2.7260  0.8700
  863SOL    HW2 3451   3.057   1.850   1.234  1.3287 -3.3328  0.1637
  863SOL     MW 3452   3.089   1.778   1.197  0.8007 -0.7205  0.0777
  864SOL     OW 3453   0.024   1.836   0.809 -0.3724  0.1309 -0.0211
  864SOL    HW1 3454  -0.040   1.779   0.854 -1.2192  1.0268  2.6093
  864SOL    HW2 3455   0.009   1.819   0.713 -0.2164 -1.7491 -1.5121
  864SOL     MW 3456   0.014   1.826   0.802 -0.4635  0.0010  0.1293
  865SOL     OW 3457   2.525   2.169   0.060  0.0455 -0.0121  0.5264
  865SOL    HW1 3458   2.555   2.109   0.120  0.6596 -0.0070 -4.1292
  865SOL    HW2 3459   2.511   2.120  -0.021  1.7696  0.5609 -0.6968
  865SOL     MW 3460   2.527   2.154   0.057  0.3540  0.0642 -0.2493
  866SOL     OW 3461   2.634   2.349   1.629 -0.1151 -0.1859 -0.3094
  866SOL    HW1 3462   2.599   2.254   1.640 -2.2585 -0.4946  4.9031
  866SOL    HW2 3463   2.667   2.356   1.536 -0.7651  1.2452 -1.2900
  866SOL     MW 3464   2.634   2.337   1.618 -0.4836 -0.0378  0.2489
  867SOL     OW 3465   0.025   2.743   1.815  0.3350 -0.9702  0.0215
  867SOL    HW1 3466   0.043   2.786   1.902 -1.7697  1.0349  1.1979
  867SOL    HW2 3467   0.029   2.819   1.759 -0.7656  0.4491 -0.1644
  867SOL     MW 3468   0.028   2.759   1.819 -0.0879 -0.5184  0.1522
  868SOL     OW 3469   2.776   2.584   0.559  0.0840 -0.1894  0.1806
  868SOL    HW1 3470   2.703   2.518   0.549 -0.0337 -1.5106  1.1190
  868SOL    HW2 3471   2.742   2.676   0.543 -1.3611  0.7833  1.3755
  868SOL     MW 3472   2.762   2.588   0.556 -0.1222 -0.2354  0.4621
  869SOL     OW 3473   1.965   2.335   1.030  0.5490  0.0862 -0.2297
  869SOL    HW1 3474   2.014   2.411   1.003 -1.4211  0.7654 -0.4350
  869SOL    HW2 3475   1.924   2.310   0.953  2.2424 -1.6536  3.8057
  869SOL     MW 3476   1.966   2.342   1.017  0.5125 -0.0537  0.2756
  870SOL     OW 3477   2.197   0.014   0.486 -0.2036 -0.2927 -0.8267
  870SOL    HW1 3478   2.260   0.058   0.425 -2.2912 -0.6499  1.5566
  870SOL    HW2 3479   2.242  -0.071   0.497  0.6705 -0.3951 -1.9397
  870SOL     MW 3480   2.211   0.008   0.479 -0.3637 -0.3534 -0.6591
  871SOL     OW 3481   2.474   2.007   0.931 -0.1083  1.1910  0.0885
  871SOL    HW1 3482   2.425   1.973   0.859 -1.3048  1.3711  2.1650
  871SOL    HW2 3483   2.428   2.082   0.961  1.6036  0.9402  0.2214
  871SOL     MW 3484   2.461   2.012   0.925 -0.0403  1.1817  0.3800
  872SOL     OW 3485   2.034   2.525   1.424  0.3966  0.0567  0.4263
  872SOL    HW1 3486   1.997   2.596   1.470 -1.8611  0.3793 -0.4471
  872SOL    HW2 3487   1.968   2.460   1.411  0.9074 -0.0157  0.4889
  872SOL     MW 3488   2.020   2.526   1.428  0.1661  0.0897  0.3193
  873SOL     OW 3489   2.830   2.095   1.952  0.0842  0.2259 -0.0195
  873SOL    HW1 3490   2.861   2.142   2.029  0.3177  1.3751  2.4890
  873SOL    HW2 3491   2.913   2.095   1.897 -0.3601  2.3005  1.5875
  873SOL     MW 3492   2.845   2.102   1.955  0.0564  0.6512  0.5235
  874SOL     OW 3493   2.418   1.518   2.422 -0.8285  0.9651  0.7070
  874SOL    HW1 3494   2.351   1.468   2.367 -1.7255  1.3364  0.7728
  874SOL    HW2 3495   2.492   1.451   2.422  0.0803 -3.1305  0.2008
  874SOL     MW 3496   2.419   1.502   2.415 -0.8269  0.4737  0.6489
  875SOL     OW 3497   2.330   2.277   0.964 -0.0188 -0.5026  0.0298
  875SOL    HW1 3498   2.354   2.355   0.913 -0.7549  0.2518  1.1901
  875SOL    HW2 3499   2.328   2.307   1.058  0.8016  1.0027  1.5216
  875SOL     MW 3500   2.333   2.291   0.969 -0.0077 -0.2045  0.3797
  876SOL     OW 3501   3.018   2.340   1.278 -0.3182  0.3479 -0.0190
  876SOL    HW1 3502   3.085   2.341   1.202 -3.1481  1.6464 -0.3980
  876SOL    HW2 3503   3.079   2.347   1.351 -1.3618 -1.2652 -0.6919
  876SOL     MW 3504   3.035   2.341   1.278 -0.8293  0.3064 -0.1578
  877SOL     OW 3505   3.040   2.733   0.343  0.5466 -0.1297  0.1532
  877SOL    HW1 3506   3.066   2.821   0.316 -1.2936  0.8456 -0.8416
  877SOL    HW2 3507   3.033   2.682   0.263  0.4310  0.9483 -0.6156
  877SOL     MW 3508   3.042   2.738   0.329  0.2885  0.1412 -0.0795
  878SOL     OW 3509   2.320   1.834   1.221  0.4804 -0.3710  0.2185
  878SOL    HW1 3510   2.247   1.766   1.217  0.2429  2.3807 -2.2671
  878SOL    HW2 3511   2.400   1.788   1.197  2.7222  4.3703  1.5851
  878SOL     MW 3512   2.321   1.819   1.217  0.7448  0.6176  0.0708
  879SOL     OW 3513   2.688   2.423   0.922 -0.8703  0.4434  0.2844
  879SOL    HW1 3514   2.731   2.493   0.969 -3.1126 -3.3747 -0.2745
  879SOL    HW2 3515   2.762   2.368   0.882  0.9794 -0.0035 -2.9363
  879SOL     MW 3516   2.703   2.425   0.923 -0.9221 -0.1193 -0.2143
  880SOL     OW 3517   2.609   2.187   0.687 -0.2292  0.2570 -0.2351
  880SOL    HW1 3518   2.562   2.159   0.765 -1.3471  0.9042  1.5196
  880SOL    HW2 3519   2.604   2.113   0.629 -0.0575  1.2440  3.1360
  880SOL     MW 3520   2.602   2.174   0.689 -0.3541  0.4726  0.4412
  881SOL     OW 3521   2.968   2.699   0.745  0.2665 -0.0827  0.0932
  881SOL    HW1 3522   2.906   2.654   0.690 -1.5026  1.7483  0.2132
  881SOL    HW2 3523   3.055   2.660   0.731 -1.3839 -1.3252  0.1865
  881SOL     MW 3524   2.971   2.688   0.736 -0.1846 -0.0051  0.1213
  882SOL     OW 3525   2.316   2.806   1.956 -0.4313 -0.4005  0.0276
  882SOL    HW1 3526   2.297   2.802   1.858  0.9721 -1.8169 -2.9341
  882SOL    HW2 3527   2.259   2.732   1.981 -1.9010 -0.8086  0.1701
  882SOL     MW 3528   2.306   2.796   1.946 -0.4400 -0.6412 -0.3443
  883SOL     OW 3529   2.284   2.315   1.420  0.2132  0.9349 -0.0429
  883SOL    HW1 3530   2.360   2.258   1.396  1.0530 -1.6572  2.5206
  883SOL    HW2 3531   2.208   2.280   1.368 -1.3254 -0.8115 -1.6333
  883SOL     MW 3532   2.284   2.303   1.410  0.1210  0.3625  0.0855
  884SOL     OW 3533   1.882   1.882   1.120  0.3599 -0.1332 -0.5458
  884SOL    HW1 3534   1.822   1.944   1.069  0.9015  2.5037  0.4484
  884SOL    HW2 3535   1.966   1.930   1.130 -2.1690 -1.2501  0.4095
  884SOL     MW 3536   1.885   1.897   1.115  0.0977  0.0673 -0.2886
  885SOL     OW 3537   2.809   2.416   1.822  0.0188 -0.2249 -0.0821
  885SOL    HW1 3538   2.881   2.357   1.826 -2.0437  1.4720  2.6923
  885SOL    HW2 3539   2.752   2.391   1.745 -0.4934 -1.7434 -2.1162
  885SOL     MW 3540   2.811   2.405   1.812 -0.3209 -0.2013  0.0156
  886SOL     OW 3541   2.764   2.418   1.336 -0.5589 -1.2831 -0.0210
  886SOL    HW1 3542   2.854   2.384   1.315  0.2425  1.2914 -1.5639
  886SOL    HW2 3543   2.780   2.510   1.354 -1.2858 -3.3209 -1.5848
  886SOL     MW 3544   2.778   2.426   1.335 -0.5491 -1.2123 -0.4309
  887SOL     OW 3545   2.297   2.635   1.497  0.4732  0.2489  0.1976
  887SOL    HW1 3546   2.332   2.656   1.406 -0.4654 -1.3585  0.6261
  887SOL    HW2 3547   2.248   2.554   1.484 -1.9460  1.1470 -0.8142
  887SOL     MW 3548   2.295   2.627   1.483  0.0302  0.1553  0.1206
  888SOL     OW 3549   1.857   2.069   1.391  0.3910 -0.6459  0.6202
  888SOL    HW1 3550   1.923   2.085   1.319 -1.4717 -1.5641 -0.0998
  888SOL    HW2 3551   1.892   2.105   1.473 -0.7279  0.7137  1.7101
  888SOL     MW 3552   1.871   2.076   1.392 -0.0024 -0.5877  0.6690
  889SOL     OW 3553   2.342   2.002   2.081 -0.3322  0.1213  0.5244
  889SOL    HW1 3554   2.426   2.033   2.120  1.2444  1.5049 -1.0537
  889SOL    HW2 3555   2.324   2.068   2.009  1.8500 -1.2115 -1.3162
  889SOL     MW 3556   2.351   2.015   2.076  0.1637  0.1280  0.0733
  890SOL     OW 3557   0.086   2.293   0.143 -0.1870  0.5403  0.2676
  890SOL    HW1 3558   0.043   2.377   0.166  0.4402  0.4211  2.6803
  890SOL    HW2 3559   0.086   2.242   0.226  1.3946  3.3530 -0.5201
  890SOL     MW 3560   0.081   2.297   0.157  0.1044  0.8957  0.4820
  891SOL     OW 3561   3.031   2.028   1.298 -0.3138 -0.2498  0.4915
  891SOL    HW1 3562   3.094   2.054   1.374  0.2048 -1.7071  1.7102
  891SOL    HW2 3563   3.022   2.110   1.244  0.1232  0.8178  0.7165
  891SOL     MW 3564   3.038   2.042   1.301 -0.1877 -0.3012  0.6819
  892SOL     OW 3565   2.364   2.394   2.951  0.4747 -0.7861 -0.2218
  892SOL    HW1 3566   2.395   2.317   2.999  0.4331  0.3956 -1.3025
  892SOL    HW2 3567   2.448   2.446   2.948  0.4624  1.6002  1.5103
  892SOL     MW 3568   2.379   2.391   2.957  0.4676 -0.3153 -0.1359
  893SOL     OW 3569   1.588   2.480   1.216  0.2515 -0.1722 -0.4332
  893SOL    HW1 3570   1.535   2.472   1.294  0.2675 -3.0494  1.1517
  893SOL    HW2 3571   1.658   2.431   1.256  0.6823 -0.2368 -2.7792
  893SOL     MW 3572   1.591   2.472   1.231  0.3105 -0.5603 -0.5336
  894SOL     OW 3573   2.836   1.905   0.459 -0.2504 -0.2125  0.0328
  894SOL    HW1 3574   2.751   1.915   0.490  0.8693  1.5032 -0.7227
  894SOL    HW2 3575   2.827   1.839   0.380  3.3927 -3.3892  0.7951
  894SOL     MW 3576   2.824   1.898   0.453  0.3780 -0.4053  0.0337
  895SOL     OW 3577   2.074   2.173   1.263 -0.1775  0.4368 -0.0387
  895SOL    HW1 3578   2.047   2.243   1.199 -1.0864 -0.8276  0.6657
  895SOL    HW2 3579   2.125   2.125   1.198 -0.6349  1.7577 -0.8435
  895SOL     MW 3580   2.077   2.176   1.246 -0.3578  0.4442 -0.0520
  896SOL     OW 3581   2.171   2.831   1.116  0.1036  0.2735 -0.0436
  896SOL    HW1 3582   2.235   2.827   1.184  0.5721 -0.3636 -0.2726
  896SOL    HW2 3583   2.092   2.778   1.146 -1.6043 -0.1464  0.2339
  896SOL     MW 3584   2.169   2.824   1.129 -0.0599  0.1340 -0.0372
  897SOL     OW 3585   2.993   2.932   0.179 -0.0915 -0.3368 -0.2017
  897SOL    HW1 3586   3.071   2.927   0.122 -1.6205 -0.3791 -0.7640
  897SOL    HW2 3587   2.930   2.864   0.140 -0.6323  0.7875 -4.9158
  897SOL     MW 3588   2.995   2.922   0.167 -0.3646 -0.1941 -0.8979
  898SOL     OW 3589   2.072   0.191   1.452  0.1106  0.0086  0.5496
  898SOL    HW1 3590   1.992   0.132   1.440 -0.5315  2.1635  0.2061
  898SOL    HW2 3591   2.078   0.249   1.375  1.9080 -0.7482 -0.5345
  898SOL     MW 3592   2.062   0.191   1.440  0.2630  0.1931  0.3612
  899SOL     OW 3593   2.915   2.970   0.682  0.4181  0.5582 -0.3626
  899SOL    HW1 3594   2.929   2.887   0.729  1.7958 -0.5512 -1.4269
  899SOL    HW2 3595   2.849   3.022   0.722  1.9055 -0.2426 -0.1595
  899SOL     MW 3596   2.908   2.966   0.693  0.7961  0.3061 -0.4762
  900SOL     OW 3597   0.145   2.374   1.092  0.1488  0.5833 -0.2531
  900SOL    HW1 3598   0.161   2.466   1.070  0.6912  1.4129 -1.0985
  900SOL    HW2 3599   0.165   2.333   1.005 -1.5565 -0.4091 -2.9122
  900SOL     MW 3600   0.150   2.381   1.078 -0.0047  0.5618 -0.7155
  901SOL     OW 3601   1.787   2.895   1.693  0.0655 -0.3453 -0.6655
  901SOL    HW1 3602   1.846   2.833   1.647  0.1268 -0.8900  1.1264
  901SOL    HW2 3603   1.706   2.879   1.646  1.5482  2.8085  0.6312
  901SOL     MW 3604   1.784   2.885   1.681  0.2692 -0.0011 -0.2580
  902SOL     OW 3605   2.567   2.049   1.847 -0.0783  0.3046  0.1215
  902SOL    HW1 3606   2.568   1.954   1.868  2.0266  2.4549 -1.8609
  902SOL    HW2 3607   2.658   2.073   1.862 -1.6973 -2.7576 -0.2591
  902SOL     MW 3608   2.579   2.040   1.852 -0.0142  0.1843 -0.1903
  903SOL     OW 3609   1.567   2.769   0.530  0.0938 -0.0793  0.1254
  903SOL    HW1 3610   1.606   2.686   0.551 -0.8374 -1.0739  3.2064
  903SOL    HW2 3611   1.553   2.817   0.608  1.6247 -3.0409 -1.5703
  903SOL     MW 3612   1.570   2.764   0.543  0.1730 -0.6013  0.3082
  904SOL     OW 3613   2.486   2.555   1.735  0.0700 -0.2009 -0.3688
  904SOL    HW1 3614   2.426   2.581   1.664  0.1130 -0.2056  1.2499
  904SOL    HW2 3615   2.532   2.479   1.701 -1.5616  0.1992  2.6088
  904SOL     MW 3616   2.484   2.548   1.721 -0.1396 -0.1487  0.2376
  905SOL     OW 3617   2.324   2.522   2.194  0.4236 -0.6690  0.0559
  905SOL    HW1 3618   2.377   2.484   2.126  1.3628 -0.9922  0.6667
  905SOL    HW2 3619   2.267   2.448   2.233 -2.9385  0.2199  0.1240
  905SOL     MW 3620   2.324   2.507   2.190  0.1039 -0.5944  0.1455
  906SOL     OW 3621   2.427   2.472   0.819 -0.0945 -0.3076  0.8551
  906SOL    HW1 3622   2.516   2.459   0.855 -1.6791 -1.6047  1.4051
  906SOL    HW2 3623   2.401   2.558   0.860  0.2476 -1.1280 -1.1240
  906SOL     MW 3624   2.435   2.481   0.829 -0.2584 -0.5870  0.6665
  907SOL     OW 3625   2.626   2.952   1.264 -0.1656 -0.0310  0.2790
  907SOL    HW1 3626   2.694   2.960   1.333 -0.0791 -0.1156  0.8398
  907SOL    HW2 3627   2.667   2.934   1.177  3.2563 -0.1339 -1.8688
  907SOL     MW 3628   2.640   2.950   1.262  0.2973 -0.0557  0.0696
  908SOL     OW 3629   2.710   2.363   3.086 -0.1212 -0.2449 -0.4660
  908SOL    HW1 3630   2.667   2.287   3.119 -2.4904 -0.5798 -0.9572
  908SOL    HW2 3631   2.672   2.428   3.139 -2.7127  2.6842 -0.2636
  908SOL     MW 3632   2.700   2.362   3.097 -0.7757  0.0974 -0.5041
  909SOL     OW 3633   1.579   0.172   1.091 -0.2951  0.4750  0.7197
  909SOL    HW1 3634   1.622   0.220   1.021  0.0247 -0.9140  1.1986
  909SOL    HW2 3635   1.571   0.240   1.159  1.3834  0.0701  0.5404
  909SOL     MW 3636   1.583   0.187   1.090 -0.0315  0.2383  0.7593
  910SOL     OW 3637   2.324   1.772   0.413 -0.1415 -0.3295 -0.1206
  910SOL    HW1 3638   2.254   1.705   0.423  1.3928 -0.0516 -0.1728
  910SOL    HW2 3639   2.288   1.834   0.354  1.9485 -0.2546 -1.6926
  910SOL     MW 3640   2.310   1.771   0.407  0.3367 -0.2830 -0.3349
  911SOL     OW 3641   2.200   2.272   1.679  0.2078 -0.1726  0.6606
  911SOL    HW1 3642   2.265   2.257   1.753  2.5679 -1.0625  1.7982
  911SOL    HW2 3643   2.258   2.277   1.603 -0.0623 -0.5226 -1.3700
  911SOL     MW 3644   2.216   2.271   1.679  0.4835 -0.3362  0.5428
  912SOL     OW 3645   2.881   1.992   1.527  0.0487  0.1704  0.4494
  912SOL    HW1 3646   2.896   2.028   1.440 -4.7851  1.7374 -0.4409
  912SOL    HW2 3647   2.788   2.023   1.543 -2.0229  1.2248 -0.4079
  912SOL     MW 3648   2.871   2.001   1.517 -0.8624  0.5163  0.2188
  913SOL     OW 3649   2.512   2.962   0.419 -0.1142  0.1296  0.3205
  913SOL    HW1 3650   2.592   2.906   0.420  1.4439  0.9027 -0.4584
  913SOL    HW2 3651   2.439   2.898   0.413 -0.6065  0.3193  2.2434
  913SOL     MW 3652   2.513   2.946   0.419  0.0264  0.2566  0.4715
  914SOL     OW 3653   2.777   1.659   3.097  0.1457  0.2486 -0.4943
  914SOL    HW1 3654   2.772   1.733   3.033 -3.0587  0.3554 -1.2546
  914SOL    HW2 3655   2.692   1.629   3.120 -1.4402  2.2259 -3.3342
  914SOL     MW 3656   2.765   1.664   3.091 -0.4863  0.5236 -0.9693
  915SOL     OW 3657   1.823   0.186   0.236  0.2424  0.2728 -0.5681
  915SOL    HW1 3658   1.854   0.122   0.302 -0.8765 -2.8054 -0.2454
  915SOL    HW2 3659   1.724   0.176   0.234 -0.5199  1.4216 -0.2722
  915SOL     MW 3660   1.814   0.176   0.244 -0.0058  0.0182 -0.4865
  916SOL     OW 3661   1.780   2.065   1.971 -0.2243 -0.2380 -0.2682
  916SOL    HW1 3662   1.763   2.159   1.957 -2.9676  0.4093  0.8838
  916SOL    HW2 3663   1.780   2.019   1.884  1.9921 -0.7260  0.1906
  916SOL     MW 3664   1.778   2.071   1.957 -0.2938 -0.2169 -0.0556
  917SOL     OW 3665   2.403   2.309   2.681  0.8942 -0.0204 -0.5388
  917SOL    HW1 3666   2.386   2.332   2.774  0.7115  0.9347 -0.5957
  917SOL    HW2 3667   2.368   2.380   2.627 -0.2188  0.5783  0.5391
  917SOL     MW 3668   2.396   2.321   2.686  0.7233  0.1846 -0.4040
  918SOL     OW 3669   2.047   1.642   2.695 -0.0970 -0.1612  0.4831
  918SOL    HW1 3670   1.964   1.670   2.646 -0.3732 -1.4230  0.8356
  918SOL    HW2 3671   2.123   1.707   2.668  0.7134  0.3758 -1.2554
  918SOL     MW 3672   2.046   1.655   2.685 -0.0265 -0.2568  0.3002
  919SOL     OW 3673   0.005   2.348   2.244  0.2848 -0.1272 -0.5411
  919SOL    HW1 3674  -0.080   2.289   2.230 -0.9172  1.9380 -1.5199
  919SOL    HW2 3675   0.059   2.328   2.166  3.3697  1.6197 -0.9578
  919SOL     MW 3676   0.001   2.338   2.232  0.5332  0.3758 -0.7252
  920SOL     OW 3677   2.769   2.838   0.006 -0.5405 -0.5137 -0.1110
  920SOL    HW1 3678   2.693   2.882   0.040  1.7662 -0.2646 -0.3104
  920SOL    HW2 3679   2.740   2.802  -0.075  2.5738  1.4005  0.0037
  920SOL     MW 3680   2.755   2.839  -0.001  0.1748 -0.2282 -0.1222
  921SOL     OW 3681   2.465   2.607   2.647 -0.4540 -0.2052 -0.3412
  921SOL    HW1 3682   2.526   2.617   2.571 -2.1987 -0.0005  2.1286
  921SOL    HW2 3683   2.516   2.555   2.709  0.5063 -2.5959  2.9674
  921SOL     MW 3684   2.480   2.601   2.645 -0.5575 -0.4936  0.4212
  922SOL     OW 3685   2.018   2.792   0.286 -0.1633  0.3259  0.6864
  922SOL    HW1 3686   2.025   2.788   0.185  0.9024 -2.5965 -2.9556
  922SOL    HW2 3687   1.989   2.697   0.299  0.1110  0.5825  0.7012
  922SOL     MW 3688   2.015   2.779   0.275  0.0135 -0.0258  0.2078
  923SOL     OW 3689   2.233   2.803   1.705 -0.0906  0.0416  0.5258
  923SOL    HW1 3690   2.265   2.739   1.635  0.0761 -1.5993  1.8056
  923SOL    HW2 3691   2.216   2.891   1.661  2.1710 -0.9144 -1.1171
  923SOL     MW 3692   2.235   2.806   1.690  0.2298 -0.3010  0.4779
  924SOL     OW 3693   1.178   2.739   2.559  0.1581 -0.7057  0.2026
  924SOL    HW1 3694   1.206   2.801   2.490 -2.7744 -0.4121  2.1340
  924SOL    HW2 3695   1.242   2.677   2.588 -2.4236 -0.5370 -0.1767
  924SOL     MW 3696   1.190   2.739   2.554 -0.5694 -0.6447  0.4074
  925SOL     OW 3697   2.961   0.207   2.609  0.2456  0.1180 -0.1602
  925SOL    HW1 3698   2.979   0.261   2.536  2.4070 -1.5270  0.8891
  925SOL    HW2 3699   2.905   0.255   2.665  2.6494 -4.1942  1.0162
  925SOL     MW 3700   2.956   0.221   2.607  0.8479 -0.6680  0.1335
  926SOL     OW 3701   2.703   2.386   2.090  0.1021  0.0785  0.0259
  926SOL    HW1 3702   2.728   2.460   2.145 -0.4827  0.5669  0.4527
  926SOL    HW2 3703   2.739   2.414   2.003  1.9613 -1.9110 -0.1872
  926SOL     MW 3704   2.711   2.400   2.086  0.2702 -0.1195  0.0541
  927SOL     OW 3705   2.362   0.122   0.313  0.2269 -0.0912  0.1786
  927SOL    HW1 3706   2.452   0.164   0.327  0.7298  0.1234 -1.4469
  927SOL    HW2 3707   2.369   0.085   0.222 -1.2613  0.3337  0.6527
  927SOL     MW 3708   2.375   0.123   0.303  0.0969 -0.0068  0.0267
  928SOL     OW 3709   2.044   2.502   1.800  1.0266 -0.1893 -0.0556
  928SOL    HW1 3710   2.101   2.431   1.776 -0.8516 -0.7600  0.0707
  928SOL    HW2 3711   2.086   2.559   1.870  1.4597  1.1452  0.9330
  928SOL     MW 3712   2.057   2.500   1.806  0.8360 -0.0885  0.0915
  929SOL     OW 3713   2.739   2.385   2.461 -0.5118 -0.4620 -0.0685
  929SOL    HW1 3714   2.775   2.343   2.386  0.6583  3.1784 -0.3820
  929SOL    HW2 3715   2.740   2.315   2.532  2.0189 -2.4778  2.8829
  929SOL     MW 3716   2.744   2.370   2.460 -0.0235 -0.2476  0.2795
  930SOL     OW 3717   2.042   2.922   2.703  0.3866  0.0878  0.0471
  930SOL    HW1 3718   2.039   2.832   2.740 -1.4240 -0.3389 -0.0229
  930SOL    HW2 3719   2.137   2.933   2.696 -2.1888  1.6986  0.3572
  930SOL     MW 3720   2.054   2.912   2.707 -0.1921  0.2440  0.0788
  931SOL     OW 3721   2.935   2.827   2.262 -0.3667  0.1671  0.2568
  931SOL    HW1 3722   3.033   2.824   2.260 -0.0580  0.2348 -1.2000
  931SOL    HW2 3723   2.916   2.820   2.171  1.5983 -0.9780 -1.0099
  931SOL     MW 3724   2.945   2.826   2.249 -0.0667  0.0250 -0.1026
  932SOL     OW 3725   2.841   1.919   2.553  0.3984 -0.4763  0.3880
  932SOL    HW1 3726   2.931   1.934   2.579 -0.3212  1.8147  0.1200
  932SOL    HW2 3727   2.849   1.948   2.463  0.8963 -0.6940 -2.0713
  932SOL     MW 3728   2.854   1.925   2.544  0.3692 -0.2028  0.0282
  933SOL     OW 3729   2.053   2.826   2.202  0.2384  0.2825 -0.4295
  933SOL    HW1 3730   2.125   2.891   2.219 -1.8817  3.9169 -0.9841
  933SOL    HW2 3731   1.980   2.881   2.167  0.7574  1.1887  0.2267
  933SOL     MW 3732   2.053   2.842   2.200  0.0271  0.8816 -0.4161
  934SOL     OW 3733   2.038   2.751   2.471 -0.0486  0.1919 -0.3486
  934SOL    HW1 3734   2.076   2.818   2.533 -0.1753 -0.8471  1.7666
  934SOL    HW2 3735   2.071   2.769   2.383 -0.0804 -0.3602  1.3940
  934SOL     MW 3736   2.047   2.763   2.467 -0.0695 -0.0180  0.1604
  935SOL     OW 3737   2.624   1.527   1.781  0.1844 -0.6562 -0.3369
  935SOL    HW1 3738   2.713   1.537   1.752 -0.2863  2.0507 -2.6036
  935SOL    HW2 3739   2.577   1.552   1.699  1.1051 -0.2565 -3.9514
  935SOL     MW 3740   2.630   1.532   1.766  0.2438 -0.2463 -1.1128
  936SOL     OW 3741   2.975   2.233   3.062  0.7554 -0.0695  0.2621
  936SOL    HW1 3742   3.049   2.261   3.115 -2.9150  2.3213  1.1962
  936SOL    HW2 3743   2.900   2.281   3.087  0.2128  0.7780  0.2094
  936SOL     MW 3744   2.975   2.243   3.073  0.1996  0.3577  0.3784
  937SOL     OW 3745   2.021   2.197   2.639  0.1984 -0.3044 -0.0928
  937SOL    HW1 3746   2.099   2.167   2.691 -2.6837  0.3648 -2.4248
  937SOL    HW2 3747   2.028   2.160   2.552  0.5627  2.8118 -0.0303
  937SOL     MW 3748   2.032   2.188   2.635 -0.1338  0.1950 -0.3922
  938SOL     OW 3749   2.288   1.792   1.907 -0.5451  0.2947 -0.1529
  938SOL    HW1 3750   2.258   1.845   1.825  1.3685 -0.8618 -2.5035
  938SOL    HW2 3751   2.304   1.857   1.976  2.6336 -2.1870 -0.0269
  938SOL     MW 3752   2.286   1.808   1.905  0.1268 -0.1853 -0.4465
  939SOL     OW 3753   2.827   1.977   2.302 -0.2491  0.3645  0.5404
  939SOL    HW1 3754   2.825   1.910   2.232 -0.4114 -0.1758  0.6384
  939SOL    HW2 3755   2.732   2.001   2.303  0.1521 -0.7348 -0.3554
  939SOL     MW 3756   2.814   1.971   2.293 -0.2176  0.1482  0.4351
  940SOL     OW 3757   2.323   0.127   2.688  0.2773 -0.1604  0.6842
  940SOL    HW1 3758   2.282   0.035   2.680 -4.7580 -0.0247 -1.8424
  940SOL    HW2 3759   2.371   0.137   2.768 -0.2075  1.0571 -0.1458
  940SOL     MW 3760   2.324   0.116   2.698 -0.4511  0.0181  0.2413
  941SOL     OW 3761   0.199   2.337   2.059  0.3774  0.3446  0.3957
  941SOL    HW1 3762   0.274   2.280   2.085 -3.1201  3.8179  1.3659
  941SOL    HW2 3763   0.178   2.309   1.973 -0.0131 -2.6215 -1.8865
  941SOL     MW 3764   0.206   2.326   2.051 -0.1355  0.4115  0.2226
  942SOL     OW 3765   2.892   2.221   2.195  0.4909  0.6320 -0.0277
  942SOL    HW1 3766   2.813   2.266   2.144 -0.1907  2.0623 -3.1947
  942SOL    HW2 3767   2.870   2.128   2.216  1.0215  1.4203 -1.0617
  942SOL     MW 3768   2.878   2.215   2.191  0.4709  0.9247 -0.5820
  943SOL     OW 3769   0.368   2.036   2.316  0.6546 -0.3353 -0.5060
  943SOL    HW1 3770   0.301   2.105   2.350  0.9316  1.5606  0.8265
  943SOL    HW2 3771   0.458   2.068   2.336 -0.5791  1.2761  0.0348
  943SOL     MW 3772   0.371   2.049   2.323  0.5284  0.1274 -0.2589
  944SOL     OW 3773   2.123   2.630   2.022  0.0085  0.3033  0.5027
  944SOL    HW1 3774   2.161   2.565   2.084  0.6117 -0.8495  1.2181
  944SOL    HW2 3775   2.087   2.705   2.076 -4.0346  0.9800  0.1957
  944SOL     MW 3776   2.124   2.631   2.037 -0.4453  0.2405  0.5566
  945SOL     OW 3777   2.788   2.704   2.846 -0.0938  0.3061 -0.7316
  945SOL    HW1 3778   2.745   2.625   2.828  1.3526 -0.9261 -0.0106
  945SOL    HW2 3779   2.820   2.740   2.762 -0.4781  1.6778 -1.3434
  945SOL     MW 3780   2.786   2.698   2.833  0.0464  0.3245 -0.7172
  946SOL     OW 3781   2.453   2.752   2.257 -0.7155  0.0972 -0.2657
  946SOL    HW1 3782   2.504   2.780   2.180 -0.0916 -1.3889  0.1384
  946SOL    HW2 3783   2.420   2.666   2.236 -3.8821 -1.8757  0.7523
  946SOL     MW 3784   2.456   2.744   2.244 -1.0510 -0.3592 -0.0781
  947SOL     OW 3785   2.031   3.103   0.261  0.1517  0.7889 -0.3035
  947SOL    HW1 3786   1.969   3.032   0.234 -1.8226 -2.1698 -1.0390
  947SOL    HW2 3787   2.089   3.069   0.342 -0.9043  1.6677  1.2751
  947SOL     MW 3788   2.030   3.089   0.268 -0.2481  0.5145 -0.1922
  948SOL     OW 3789   1.813   3.077   2.633 -0.2902  0.2635 -0.3396
  948SOL    HW1 3790   1.892   3.018   2.657 -0.3218 -0.4885  1.4727
  948SOL    HW2 3791   1.812   3.104   2.537 -1.2263  1.8176 -0.5379
  948SOL     MW 3792   1.823   3.073   2.624 -0.4179  0.3694 -0.1266
  949SOL     OW 3793   2.559   2.047   2.304  0.0414  0.2169 -0.1255
  949SOL    HW1 3794   2.540   1.955   2.334 -3.3334 -0.8577  1.7327
  949SOL    HW2 3795   2.511   2.096   2.369  0.0123 -3.9321  0.4724
  949SOL     MW 3796   2.550   2.041   2.316 -0.4077 -0.4723  0.1986
  950SOL     OW 3797   2.177   2.595   3.012  0.3194 -0.3713  0.0617
  950SOL    HW1 3798   2.237   2.528   2.973  0.0250 -3.6998 -0.3423
  950SOL    HW2 3799   2.100   2.615   2.947  0.1771  0.1316  2.3990
  950SOL     MW 3800   2.175   2.589   2.998  0.2618 -0.7441  0.3168
  951SOL     OW 3801   2.973   2.076   2.853  0.0976 -0.1241 -0.0255
  951SOL    HW1 3802   2.999   2.138   2.927 -0.6677 -1.0706  2.5321
  951SOL    HW2 3803   3.028   2.103   2.780 -1.7872  0.6677  0.5932
  951SOL     MW 3804   2.983   2.088   2.853 -0.2520 -0.1445  0.3936
  952SOL     OW 3805   3.058   1.695   2.056  0.0147  0.4682  0.6455
  952SOL    HW1 3806   2.984   1.750   2.028  1.5444  2.6718  0.2494
  952SOL    HW2 3807   3.141   1.745   2.070  3.2335 -0.7387  0.6404
  952SOL     MW 3808   3.059   1.709   2.054  0.6412  0.5997  0.5925
  953SOL     OW 3809   1.982   1.800   2.896 -0.4369 -0.5251  0.2153
  953SOL    HW1 3810   1.892   1.764   2.917 -4.2365  1.4057 -0.8566
  953SOL    HW2 3811   2.020   1.736   2.842  0.4924  0.7693  0.4215
  953SOL     MW 3812   1.975   1.787   2.891 -0.8156 -0.0996  0.1011
  954SOL     OW 3813   2.465   2.103   2.907  0.3238 -0.6537 -0.0641
  954SOL    HW1 3814   2.378   2.109   2.853 -0.0884 -2.5692 -4.7738
  954SOL    HW2 3815   2.532   2.086   2.840  0.0306  0.4025 -2.1209
  954SOL     MW 3816   2.462   2.101   2.891  0.2307 -0.7670 -0.9569
  955SOL     OW 3817   1.575   1.616   2.537 -0.5084  0.0536 -0.0564
  955SOL    HW1 3818   1.524   1.638   2.463  2.6570  3.7209  1.9995
  955SOL    HW2 3819   1.654   1.668   2.554 -1.1847 -0.9787 -1.1474
  955SOL     MW 3820   1.579   1.625   2.529 -0.1800  0.4013  0.0709
  956SOL     OW 3821   2.612   2.473   2.854  0.4324  0.2370  0.4285
  956SOL    HW1 3822   2.665   2.433   2.924  0.4380 -2.9973 -0.9206
  956SOL    HW2 3823   2.628   2.404   2.790 -3.4231 -0.6337 -0.1477
  956SOL     MW 3824   2.621   2.459   2.855 -0.0756 -0.3046  0.1745
  957SOL     OW 3825   2.297   2.791   0.389  0.0615 -0.1649 -0.4883
  957SOL    HW1 3826   2.212   2.812   0.349  0.6382  2.1086  2.4505
  957SOL    HW2 3827   2.276   2.762   0.482  0.4467 -1.0946  1.6952
  957SOL     MW 3828   2.283   2.790   0.396  0.1884  0.0124  0.1875
  958SOL     OW 3829   2.023   2.664   2.804 -0.4074  0.1522 -0.0587
  958SOL    HW1 3830   2.008   2.574   2.755  1.2364  3.0625 -2.6383
  958SOL    HW2 3831   1.935   2.694   2.837  1.2757 -1.7065 -2.4945
  958SOL     MW 3832   2.010   2.656   2.802  0.0316  0.2910 -0.7204
  959SOL     OW 3833   2.422   2.556   0.312 -0.0871  0.2765  0.2708
  959SOL    HW1 3834   2.491   2.567   0.244  1.9050 -0.5139 -1.6777
  959SOL    HW2 3835   2.372   2.645   0.319 -2.5144  2.2403 -0.2152
  959SOL     MW 3836   2.425   2.569   0.304 -0.1445  0.4313 -0.0504
  960SOL     OW 3837   1.910   2.358   2.310 -0.1042 -0.5612 -0.1492
  960SOL    HW1 3838   1.875   2.269   2.305 -1.1145  1.6927 -0.4038
  960SOL    HW2 3839   1.844   2.408   2.359 -1.8121 -1.2808  0.0418
  960SOL     MW 3840   1.897   2.353   2.316 -0.4628 -0.3588 -0.1576
  961SOL     OW 3841   2.187   2.355   2.357 -0.3212  0.1295  0.4393
  961SOL    HW1 3842   2.088   2.346   2.342 -4.3850 -0.7254 -2.2298
  961SOL    HW2 3843   2.198   2.424   2.425  3.9743 -2.2323  1.1499
  961SOL     MW 3844   2.176   2.363   2.364 -0.2907 -0.2949  0.1809
  962SOL     OW 3845   2.223   2.070   2.796  0.9989 -0.7661  1.0630
  962SOL    HW1 3846   2.199   2.052   2.888 -0.8677  1.2793  1.6572
  962SOL    HW2 3847   2.219   1.992   2.745 -2.8577  1.1819  0.2620
  962SOL     MW 3848   2.219   2.057   2.801  0.2437 -0.2392  1.0358
  963SOL     OW 3849   1.802   2.578   2.054  0.5636 -0.1242 -0.4628
  963SOL    HW1 3850   1.883   2.550   2.102  1.0724  0.1237 -1.7037
  963SOL    HW2 3851   1.796   2.500   2.003 -1.8503  1.6148  3.0087
  963SOL     MW 3852   1.812   2.564   2.054  0.3122  0.1380 -0.1685
  964SOL     OW 3853   1.860   1.988   2.726  0.2859 -0.1444  0.7060
  964SOL    HW1 3854   1.933   2.046   2.709  2.8121  0.0966  0.0790
  964SOL    HW2 3855   1.882   1.925   2.794 -0.7827  3.1545 -1.8833
  964SOL     MW 3856   1.872   1.988   2.733  0.4782  0.3226  0.2817
  965SOL     OW 3857   2.203   2.680   0.621  0.1167  0.5742  0.2658
  965SOL    HW1 3858   2.162   2.601   0.593 -1.4546  1.3998 -1.3992
  965SOL    HW2 3859   2.237   2.665   0.711  0.2193 -3.2754  0.0920
  965SOL     MW 3860   2.202   2.667   0.629 -0.0771  0.1752  0.0232
  966SOL     OW 3861   2.676   2.648   2.453 -0.3846  0.2701 -0.7054
  966SOL    HW1 3862   2.624   2.667   2.374  0.5728  0.1480  0.3467
  966SOL    HW2 3863   2.699   2.552   2.438 -0.4856 -0.6281  0.3645
  966SOL     MW 3864   2.672   2.638   2.441 -0.2716  0.1355 -0.4254
  967SOL     OW 3865   2.886   3.003   2.919 -0.4381  0.3929 -0.6212
  967SOL    HW1 3866   2.866   2.932   2.984 -1.8322 -1.0155  0.5789
  967SOL    HW2 3867   2.798   3.027   2.890  0.1226  1.0949 -0.1902
  967SOL     MW 3868   2.872   2.997   2.924 -0.5480  0.2997 -0.4060
  968SOL     OW 3869   3.013   2.591   2.974  0.5769 -0.0154 -0.7446
  968SOL    HW1 3870   2.931   2.636   2.943  2.6308  1.1002 -2.0900
  968SOL    HW2 3871   3.000   2.523   2.909 -2.4947  0.0296 -1.2777
  968SOL     MW 3872   3.001   2.588   2.962  0.4426  0.1377 -0.9924
  969SOL     OW 3873   1.536   2.091   1.728 -0.1169  0.2490 -0.5565
  969SOL    HW1 3874   1.618   2.048   1.718 -0.3422  1.4781  1.6667
  969SOL    HW2 3875   1.518   2.098   1.824 -2.3744 -0.7826  2.0998
  969SOL     MW 3876   1.545   2.086   1.739 -0.4445  0.2751  0.0873
  970SOL     OW 3877   1.631   1.716   1.867  0.4838 -0.1918 -0.2616
  970SOL    HW1 3878   1.648   1.711   1.961  0.7943 -0.4922 -0.9091
  970SOL    HW2 3879   1.535   1.726   1.864  2.1191  2.9063 -1.0028
  970SOL     MW 3880   1.620   1.717   1.879  0.7405  0.1773 -0.4448
  971SOL     OW 3881   1.815   0.086   2.351 -0.1798 -0.6762  0.4458
  971SOL    HW1 3882   1.830   0.045   2.263 -0.3213 -7.2095 -3.3609
  971SOL    HW2 3883   1.895   0.142   2.370  0.5116  1.5777 -0.3297
  971SOL     MW 3884   1.827   0.088   2.342 -0.1072 -1.2408 -0.1588
  972SOL     OW 3885   0.282   2.792   2.523  0.3037  0.2036  0.3081
  972SOL    HW1 3886   0.323   2.710   2.551 -2.4357  0.3404  0.9518
  972SOL    HW2 3887   0.353   2.853   2.533  0.9814  0.0738 -0.5424
  972SOL     MW 3888   0.297   2.789   2.528  0.0317  0.2045  0.2808
  973SOL     OW 3889   2.637   0.006   2.082  0.2685  0.5362  0.2310
  973SOL    HW1 3890   2.618  -0.086   2.091  3.4352  0.0032  0.0596
  973SOL    HW2 3891   2.623   0.027   1.993 -0.5439  0.5023  2.9685
  973SOL     MW 3892   2.633  -0.003   2.072  0.5791  0.4614  0.5696
  974SOL     OW 3893   2.110   0.297   2.774  0.1042 -0.3180  0.4514
  974SOL    HW1 3894   2.181   0.248   2.740 -1.1656 -0.3369 -0.1396
  974SOL    HW2 3895   2.055   0.228   2.809  1.7044 -0.6111 -3.4178
  974SOL     MW 3896   2.112   0.282   2.774  0.1478 -0.3592 -0.1370
  975SOL     OW 3897   2.218   2.544   2.555 -0.4210 -0.3878 -0.6269
  975SOL    HW1 3898   2.298   2.579   2.587  0.5159 -0.9001 -1.0066
  975SOL    HW2 3899   2.164   2.616   2.522 -1.4955  0.1681  3.0894
  975SOL     MW 3900   2.222   2.558   2.555 -0.4392 -0.3820 -0.1866
  976SOL     OW 3901   0.208   0.338   1.705 -0.1690  0.9397 -0.1024
  976SOL    HW1 3902   0.266   0.258   1.729  1.3529 -2.3624  0.1715
  976SOL    HW2 3903   0.119   0.310   1.702  1.3742 -1.2963  3.1172
  976SOL     MW 3904   0.204   0.324   1.708  0.2354  0.2090  0.3586
  977SOL     OW 3905   1.712   2.748   2.475  0.1894 -0.3394 -0.2413
  977SOL    HW1 3906   1.719   2.652   2.481 -0.2437  1.1918  0.7995
  977SOL    HW2 3907   1.804   2.769   2.468  0.2067 -0.1095 -2.1286
  977SOL     MW 3908   1.725   2.738   2.475  0.1345 -0.1070 -0.3530
   3.10000   3.10000   3.10000
