977 TIP4P/2005f water molecules t=   0.39000 step= 390
 3908
    1SOL     OW    1   0.281   0.769   0.037 -0.2149 -0.1737 -0.4300
    1SOL    HW1    2   0.244   0.787  -0.053  0.0934 -0.0486  0.4048
    1SOL    HW2    3   0.257   0.679   0.045  0.0424  0.9081 -0.9988
    1SOL     MW    4   0.273   0.760   0.026 -0.1403 -0.0144 -0.3949
    2SOL     OW    5   0.296   3.046   1.180  0.2456 -0.2217 -0.1433
    2SOL    HW1    6   0.339   3.107   1.119 -0.4100 -1.5845  1.7293
    2SOL    HW2    7   0.202   3.079   1.183 -0.6216 -1.5821  2.6133
    2SOL     MW    8   0.289   3.058   1.172  0.0447 -0.5810  0.4674
    3SOL     OW    9   2.684   0.384   0.904 -0.4624  0.0577  0.3229
    3SOL    HW1   10   2.733   0.448   0.846  1.9975  1.1387  2.1318
    3SOL    HW2   11   2.672   0.440   0.973  1.5615 -0.8528 -1.4867
    3SOL     MW   12   2.689   0.400   0.905  0.1292  0.0802  0.3228
    4SOL     OW   13   3.062   1.768   0.556  0.1206 -0.5232  0.1070
    4SOL    HW1   14   2.983   1.816   0.517 -3.7178  1.1679 -1.7912
    4SOL    HW2   15   3.093   1.689   0.510  1.6066 -2.7830  1.9816
    4SOL     MW   16   3.056   1.764   0.544 -0.1898 -0.5982  0.1039
    5SOL     OW   17   1.712   1.443   0.576  0.2533  0.6329  0.3928
    5SOL    HW1   18   1.746   1.394   0.651 -0.3022 -3.6333  1.1641
    5SOL    HW2   19   1.624   1.437   0.596  1.8865  1.1143  1.2094
    5SOL     MW   20   1.705   1.436   0.588  0.3955  0.1335  0.6023
    6SOL     OW   21   0.878   1.405   0.636  0.4047  0.5030  0.6115
    6SOL    HW1   22   0.796   1.400   0.680 -1.0092 -2.3042  0.7705
    6SOL    HW2   23   0.918   1.322   0.665 -0.0280  0.9918 -0.7910
    6SOL     MW   24   0.872   1.394   0.645  0.1610  0.1971  0.4474
    7SOL     OW   25   1.989   1.062   0.043 -0.2521  0.1336  0.0230
    7SOL    HW1   26   2.016   1.125  -0.020 -0.9850  4.2566  2.1392
    7SOL    HW2   27   2.033   1.079   0.127  2.7331 -0.5719  0.5156
    7SOL     MW   28   1.999   1.072   0.046  0.0451  0.5845  0.3672
    8SOL     OW   29   0.975   1.337   1.015 -0.5041 -0.1964 -0.1572
    8SOL    HW1   30   1.008   1.355   1.101 -2.4071  1.8000 -0.2312
    8SOL    HW2   31   1.040   1.282   0.960  3.2662  3.1073  0.3857
    8SOL     MW   32   0.988   1.332   1.019 -0.2577  0.5029 -0.0953
    9SOL     OW   33   1.055   0.452   1.340  0.5321 -0.0297 -0.5522
    9SOL    HW1   34   0.983   0.403   1.302  0.9992 -1.1643 -0.7924
    9SOL    HW2   35   1.078   0.402   1.416 -1.7719  0.2403 -0.6127
    9SOL     MW   36   1.048   0.439   1.345  0.2897 -0.1438 -0.5918
   10SOL     OW   37   0.300   0.782   0.445 -0.4304  0.1348 -0.3248
   10SOL    HW1   38   0.388   0.833   0.413 -1.4919  1.1637 -0.3963
   10SOL    HW2   39   0.258   0.834   0.513  1.0538  1.7730  0.2678
   10SOL     MW   40   0.306   0.795   0.450 -0.3746  0.4867 -0.2560
   11SOL     OW   41   0.813   1.088   1.608 -0.9686  0.0713  0.3408
   11SOL    HW1   42   0.830   1.057   1.699 -0.5609 -1.0609  1.8649
   11SOL    HW2   43   0.767   1.005   1.573  1.9396  0.9082 -2.6949
   11SOL     MW   44   0.809   1.073   1.616 -0.5311  0.0323  0.1414
   12SOL     OW   45   0.020   1.121   0.849  0.0417 -0.3316  0.3344
   12SOL    HW1   46   0.078   1.194   0.876  0.8944 -4.1152  0.2678
   12SOL    HW2   47  -0.061   1.145   0.804  0.2695 -0.3790  3.0882
   12SOL     MW   48   0.017   1.134   0.846  0.1843 -0.8370  0.6890
   13SOL     OW   49   1.882   1.405   1.357  0.3696 -0.1154 -0.4059
   13SOL    HW1   50   1.909   1.363   1.274 -1.7733  0.1195 -0.6245
   13SOL    HW2   51   1.861   1.490   1.340 -0.5895 -1.6841 -0.1693
   13SOL     MW   52   1.883   1.411   1.344 -0.0397 -0.2914 -0.4035
   14SOL     OW   53   0.613   0.300   1.794 -0.0894 -0.2367 -0.4275
   14SOL    HW1   54   0.606   0.232   1.726  0.5572 -1.4551  1.0363
   14SOL    HW2   55   0.696   0.275   1.838 -0.0861 -0.9585 -0.7047
   14SOL     MW   56   0.623   0.288   1.791 -0.0036 -0.4927 -0.2709
   15SOL     OW   57   2.017   0.535   0.957 -0.0482 -0.4173 -0.0332
   15SOL    HW1   58   2.020   0.507   1.051  0.7881 -0.7456 -1.1412
   15SOL    HW2   59   2.106   0.508   0.924 -0.1360 -0.2034 -0.0515
   15SOL     MW   60   2.029   0.528   0.965  0.0506 -0.4324 -0.1818
   16SOL     OW   61   0.201   1.754   0.334 -0.1505  0.0608 -0.0053
   16SOL    HW1   62   0.291   1.734   0.360  0.8062  1.4556 -0.9931
   16SOL    HW2   63   0.208   1.850   0.374  0.7123 -0.2779 -0.9192
   16SOL     MW   64   0.214   1.764   0.343  0.0895  0.2001 -0.2562
   17SOL     OW   65   1.034   0.815   1.505 -0.3870  0.2604  0.5009
   17SOL    HW1   66   1.070   0.856   1.588 -2.3705 -1.2937  0.7593
   17SOL    HW2   67   0.941   0.811   1.513  1.6883  2.2799 -0.1390
   17SOL     MW   68   1.026   0.820   1.517 -0.3749  0.3218  0.4506
   18SOL     OW   69   0.071   1.546   0.449  0.0067 -0.1730  0.3907
   18SOL    HW1   70   0.117   1.615   0.395  0.4388 -2.1541  3.6669
   18SOL    HW2   71   0.045   1.470   0.392  1.7161 -0.0681 -0.8203
   18SOL     MW   72   0.074   1.545   0.434  0.2892 -0.4206  0.6632
   19SOL     OW   73   0.103   1.352   1.032 -0.2577  0.5034 -0.9610
   19SOL    HW1   74   0.145   1.371   0.951 -2.5017 -0.5310 -0.5104
   19SOL    HW2   75   0.010   1.378   1.026 -0.5032 -2.8554 -0.0921
   19SOL     MW   76   0.097   1.358   1.020 -0.5862 -0.0762 -0.7869
   20SOL     OW   77   0.459   2.123   1.298 -0.0233  0.2599  0.2677
   20SOL    HW1   78   0.398   2.074   1.234 -1.5277  0.6892 -0.9786
   20SOL    HW2   79   0.402   2.154   1.370 -1.1575  0.5913  1.3920
   20SOL     MW   80   0.444   2.120   1.299 -0.3714  0.3602  0.2516
   21SOL     OW   81   0.539   0.890   0.348 -0.1757 -0.1267  0.1904
   21SOL    HW1   82   0.594   0.855   0.417 -1.6174 -0.9300 -1.3474
   21SOL    HW2   83   0.561   0.841   0.266 -0.3758  0.0148 -0.9542
   21SOL     MW   84   0.549   0.879   0.346 -0.3923 -0.2140 -0.1635
   22SOL     OW   85   1.528   0.578   1.120  0.4492 -0.4587 -0.3756
   22SOL    HW1   86   1.568   0.556   1.036 -4.7063  0.4685  0.8554
   22SOL    HW2   87   1.468   0.650   1.104 -0.1507  1.7598 -0.6030
   22SOL     MW   88   1.526   0.584   1.107 -0.3102 -0.0437 -0.2432
   23SOL     OW   89   3.057   0.751   0.716  0.7775  0.0908 -0.3763
   23SOL    HW1   90   3.099   0.665   0.723 -1.7727 -0.3371  0.2247
   23SOL    HW2   91   3.132   0.806   0.735 -2.6493  2.8713  0.1410
   23SOL     MW   92   3.072   0.747   0.720 -0.0111  0.4012 -0.2288
   24SOL     OW   93   1.997   2.198   0.047 -0.7332  0.4592  0.5433
   24SOL    HW1   94   1.995   2.196   0.146  0.1396 -1.3932  0.3316
   24SOL    HW2   95   2.064   2.132   0.019  0.4670 -2.0443  0.4141
   24SOL     MW   96   2.005   2.189   0.057 -0.4597 -0.1155  0.4984
   25SOL     OW   97   0.294   1.412   0.509  0.6934 -0.0609 -0.0349
   25SOL    HW1   98   0.218   1.473   0.479 -3.1383 -0.6802 -0.3286
   25SOL    HW2   99   0.363   1.427   0.449  0.0157  3.2482 -2.9913
   25SOL     MW  100   0.293   1.422   0.497  0.0984  0.2940 -0.4637
   26SOL     OW  101   2.037   0.929   0.446  0.2238 -0.0856  0.6165
   26SOL    HW1  102   1.947   0.972   0.428 -3.3485 -0.4725 -2.4560
   26SOL    HW2  103   2.096   0.972   0.382 -2.5960 -0.6318 -1.0072
   26SOL     MW  104   2.033   0.941   0.435 -0.6195 -0.2087 -0.0031
   27SOL     OW  105   1.991   1.387   0.271  0.2308 -0.0554  0.0294
   27SOL    HW1  106   1.906   1.361   0.312 -0.1570  2.7548  2.7186
   27SOL    HW2  107   2.035   1.440   0.341  1.9219 -1.9430  2.1214
   27SOL     MW  108   1.986   1.390   0.286  0.4028  0.0663  0.6603
   28SOL     OW  109   0.380   1.026   1.915 -0.7226  0.6682 -0.0835
   28SOL    HW1  110   0.364   0.993   2.006  1.4659  2.8990  2.3321
   28SOL    HW2  111   0.462   1.070   1.909  1.9404 -1.7735  2.4551
   28SOL     MW  112   0.389   1.027   1.926 -0.0825  0.6403  0.5701
   29SOL     OW  113   0.242   1.415   0.814 -0.1187 -0.2228 -0.2630
   29SOL    HW1  114   0.252   1.512   0.814  1.2383 -0.8649  1.1429
   29SOL    HW2  115   0.250   1.389   0.719  2.7142 -0.6883 -3.1589
   29SOL     MW  116   0.244   1.424   0.801  0.4341 -0.3690 -0.4596
   30SOL     OW  117   0.889   1.040   1.177 -0.2692  0.0131  0.7159
   30SOL    HW1  118   0.813   1.070   1.235 -0.9619 -2.1462 -0.5702
   30SOL    HW2  119   0.959   1.053   1.240 -1.9135  1.5647  1.7295
   30SOL     MW  120   0.889   1.046   1.193 -0.5776 -0.0671  0.6800
   31SOL     OW  121   0.430   0.279   0.229 -0.8343  0.3192 -0.2921
   31SOL    HW1  122   0.436   0.200   0.290  0.2812  0.6864 -1.4830
   31SOL    HW2  123   0.420   0.249   0.142 -0.9059 -0.0181  3.1646
   31SOL     MW  124   0.430   0.265   0.226 -0.6965  0.3231  0.0069
   32SOL     OW  125   2.735   1.047   1.097  0.7269 -0.1775  0.3561
   32SOL    HW1  126   2.684   0.963   1.092 -1.3539 -0.4193  0.7430
   32SOL    HW2  127   2.829   1.019   1.097  1.4398  0.5734  0.8383
   32SOL     MW  128   2.741   1.032   1.096  0.5464 -0.1103  0.4708
   33SOL     OW  129   1.743   1.301   0.341  0.1545  0.5102  0.4429
   33SOL    HW1  130   1.756   1.210   0.362 -0.3148  0.5729  1.9094
   33SOL    HW2  131   1.706   1.344   0.416  1.3126 -0.0348  0.2970
   33SOL     MW  132   1.740   1.295   0.354  0.2454  0.4466  0.6171
   34SOL     OW  133   1.216   1.850   1.088 -0.6797  0.6527 -0.5284
   34SOL    HW1  134   1.141   1.904   1.089  0.6464 -0.6825 -1.1153
   34SOL    HW2  135   1.265   1.872   1.175  0.6010  1.0392  2.3098
   34SOL     MW  136   1.213   1.860   1.100 -0.3357  0.5275 -0.2313
   35SOL     OW  137   0.328   0.107   1.812 -0.0780  0.1608 -0.7675
   35SOL    HW1  138   0.385   0.082   1.880 -1.5065  0.2129 -1.0292
   35SOL    HW2  139   0.351   0.040   1.741 -0.5433 -0.2288  3.0365
   35SOL     MW  140   0.339   0.095   1.811 -0.3279  0.1163 -0.3001
   36SOL     OW  141   1.877   1.973   0.534  0.2833 -0.0659 -1.1078
   36SOL    HW1  142   1.881   1.937   0.443 -1.3776 -3.1699 -1.2367
   36SOL    HW2  143   1.893   1.894   0.591  1.0271 -1.8003  0.0233
   36SOL     MW  144   1.880   1.958   0.530  0.1623 -0.7042 -0.9756
   37SOL     OW  145   1.726   2.063   0.975  0.5276  0.1388  0.1336
   37SOL    HW1  146   1.696   1.981   0.943 -2.1513  3.3411  1.5239
   37SOL    HW2  147   1.653   2.086   1.041 -1.5639 -0.0822  3.0131
   37SOL     MW  148   1.712   2.055   0.980 -0.1018  0.5321  0.6969
   38SOL     OW  149   2.840   0.939   0.186 -0.2994 -0.3975 -0.1897
   38SOL    HW1  150   2.886   0.942   0.268  1.9641  1.1901  0.2523
   38SOL    HW2  151   2.897   0.891   0.129 -0.8955  1.6972  0.3180
   38SOL     MW  152   2.854   0.933   0.189 -0.0794  0.0883 -0.0644
   39SOL     OW  153   1.471   0.663   0.805  0.1316 -0.5709 -0.0324
   39SOL    HW1  154   1.454   0.578   0.844 -0.7833  0.2941  0.6213
   39SOL    HW2  155   1.406   0.725   0.843 -1.2851 -1.0840 -1.3146
   39SOL     MW  156   1.460   0.660   0.815 -0.1761 -0.5244 -0.1154
   40SOL     OW  157   1.269   1.864   0.257 -0.3740 -0.0843 -0.0184
   40SOL    HW1  158   1.293   1.777   0.283 -0.2575  0.3741 -1.9695
   40SOL    HW2  159   1.274   1.907   0.340  1.4474  1.0910 -1.3429
   40SOL     MW  160   1.272   1.858   0.271 -0.1183  0.1313 -0.4506
   41SOL     OW  161   0.590   0.529   1.592  0.0536 -0.8062  0.3857
   41SOL    HW1  162   0.674   0.561   1.578  0.0557 -0.2621 -0.2455
   41SOL    HW2  163   0.606   0.457   1.652 -0.3718 -0.7033 -2.1961
   41SOL     MW  164   0.603   0.523   1.598 -0.0023 -0.7209 -0.0383
   42SOL     OW  165   1.302   3.045   1.983  0.1571 -1.2703  0.7732
   42SOL    HW1  166   1.204   3.049   1.998 -1.8671  2.6410  0.4140
   42SOL    HW2  167   1.325   2.959   2.009  0.0630 -0.0249 -0.1925
   42SOL     MW  168   1.292   3.034   1.989 -0.1224 -0.5899  0.5984
   43SOL     OW  169   1.595   0.208   1.662  0.0772 -0.1860  0.4436
   43SOL    HW1  170   1.675   0.154   1.650 -0.1326 -1.2195  2.3351
   43SOL    HW2  171   1.522   0.140   1.663 -3.3590 -3.6433 -0.7550
   43SOL     MW  172   1.596   0.192   1.661 -0.4038 -0.7785  0.5351
   44SOL     OW  173   1.311   0.742   1.079 -0.4445 -0.6313 -0.4488
   44SOL    HW1  174   1.309   0.832   1.051  3.0665 -1.7721 -1.5063
   44SOL    HW2  175   1.300   0.741   1.174  0.4167  0.3251 -0.0404
   44SOL     MW  176   1.309   0.753   1.088  0.1324 -0.6556 -0.5345
   45SOL     OW  177   1.164   0.702   0.779  0.6959  0.5381  0.2010
   45SOL    HW1  178   1.109   0.669   0.847 -0.0778  0.4237  0.0202
   45SOL    HW2  179   1.134   0.642   0.700  0.4586 -0.6132 -0.5552
   45SOL     MW  180   1.153   0.690   0.777  0.5625  0.3711  0.0774
   46SOL     OW  181   0.560   1.150   0.541 -0.6512  0.0398 -0.1987
   46SOL    HW1  182   0.543   1.159   0.450  0.0086  0.3933  1.5308
   46SOL    HW2  183   0.649   1.103   0.545  0.2861 -1.2306  0.1615
   46SOL     MW  184   0.570   1.145   0.529 -0.4405 -0.0812  0.0770
   47SOL     OW  185   0.169   1.928   1.823  0.7646 -0.4821 -0.5467
   47SOL    HW1  186   0.219   1.862   1.771  0.4539  1.3051  1.7838
   47SOL    HW2  187   0.163   1.891   1.912  1.1985  0.5089 -0.2885
   47SOL     MW  188   0.175   1.914   1.828  0.7809 -0.1155 -0.2052
   48SOL     OW  189   1.060   0.643   1.017  0.1524 -0.2182  0.2611
   48SOL    HW1  190   0.988   0.696   1.056 -2.5998 -0.7913 -3.2433
   48SOL    HW2  191   1.143   0.689   1.055 -0.6622  1.5076  3.7142
   48SOL     MW  192   1.061   0.656   1.027 -0.3182 -0.0661  0.2543
   49SOL     OW  193   1.832   0.761   1.608 -0.8748  0.3386 -0.0868
   49SOL    HW1  194   1.788   0.736   1.687 -2.8934  1.9257 -3.5550
   49SOL    HW2  195   1.887   0.688   1.588 -1.5568  2.0186  1.5941
   49SOL     MW  196   1.833   0.748   1.616 -1.2311  0.7697 -0.3226
   50SOL     OW  197   1.242   1.010   0.492 -0.7071  0.5519 -0.7843
   50SOL    HW1  198   1.240   1.041   0.590  0.9405  1.7412 -0.9099
   50SOL    HW2  199   1.299   0.931   0.491  1.7692 -2.5823  1.5251
   50SOL     MW  200   1.249   1.004   0.505 -0.1630  0.2953 -0.4962
   51SOL     OW  201   0.341   2.857   0.986 -0.7660  0.4927  0.3776
   51SOL    HW1  202   0.430   2.832   1.000 -0.4615  1.3372  0.7031
   51SOL    HW2  203   0.312   2.908   1.066  0.5609 -1.7098 -0.4738
   51SOL     MW  204   0.349   2.860   0.999 -0.5508  0.3135  0.3082
   52SOL     OW  205   0.814   1.771   0.397 -0.6256 -0.0030  0.2158
   52SOL    HW1  206   0.785   1.854   0.428 -1.9359 -0.8979 -0.8701
   52SOL    HW2  207   0.814   1.782   0.301 -0.1253  0.5324 -1.0514
   52SOL     MW  208   0.810   1.783   0.389 -0.7325 -0.0504 -0.0947
   53SOL     OW  209   0.480   2.070   0.565  0.0426 -0.0043 -0.4517
   53SOL    HW1  210   0.386   2.078   0.527  2.8613  0.9800  1.4186
   53SOL    HW2  211   0.496   2.166   0.568  3.7136  2.3524  1.1904
   53SOL     MW  212   0.469   2.084   0.560  0.8988  0.4365  0.0117
   54SOL     OW  213   2.189   0.819   0.891  0.1312  0.2072 -1.0239
   54SOL    HW1  214   2.216   0.735   0.855 -1.4243  0.3924 -0.2846
   54SOL    HW2  215   2.114   0.835   0.836 -0.9834 -2.8268  2.2541
   54SOL     MW  216   2.183   0.810   0.879 -0.2211 -0.1687 -0.4938
   55SOL     OW  217   0.556   1.488   1.569  0.4890  0.4524 -0.0097
   55SOL    HW1  218   0.499   1.525   1.503 -0.6464 -0.9163  1.3182
   55SOL    HW2  219   0.615   1.425   1.522  1.6872 -1.3466  1.0339
   55SOL     MW  220   0.556   1.485   1.554  0.4973  0.0345  0.3032
   56SOL     OW  221   0.594   0.770   0.086 -0.3497  0.2429 -0.1232
   56SOL    HW1  222   0.634   0.838   0.038  0.0127  0.2825 -0.8678
   56SOL    HW2  223   0.503   0.784   0.084 -0.5512  2.3271 -0.2149
   56SOL     MW  224   0.587   0.781   0.079 -0.3285  0.5231 -0.2335
   57SOL     OW  225   1.258   1.242   1.205  0.2516  0.0689  0.6820
   57SOL    HW1  226   1.338   1.265   1.157  1.3162 -1.3974  1.4575
   57SOL    HW2  227   1.286   1.226   1.294 -0.1309 -0.2438 -2.4727
   57SOL     MW  228   1.272   1.243   1.210  0.3416 -0.1658  0.3681
   58SOL     OW  229   0.668   1.114   1.319 -0.5424 -0.0809  0.1269
   58SOL    HW1  230   0.623   1.180   1.273  1.2814 -0.3313  1.4867
   58SOL    HW2  231   0.621   1.098   1.403 -1.2603  2.8143  1.1598
   58SOL     MW  232   0.656   1.121   1.324 -0.3965  0.2680  0.4426
   59SOL     OW  233   1.577   1.630   0.318  0.2287 -0.0905  0.4783
   59SOL    HW1  234   1.654   1.597   0.369  2.9060 -1.3492 -0.9250
   59SOL    HW2  235   1.531   1.689   0.378  1.1360  0.5689 -2.3933
   59SOL     MW  236   1.581   1.634   0.332  0.7017 -0.1696 -0.0857
   60SOL     OW  237   3.076   0.189   1.667 -0.3226  1.1408  0.3360
   60SOL    HW1  238   2.985   0.218   1.681  0.6550  2.1177 -1.3636
   60SOL    HW2  239   3.077   0.094   1.658  1.0831 -0.7689  1.2498
   60SOL     MW  240   3.064   0.180   1.668 -0.0081  1.0177  0.2323
   61SOL     OW  241   1.976   1.480   3.077  0.3369 -0.6325 -0.4621
   61SOL    HW1  242   1.965   1.456   3.168 -0.3134 -1.0655 -0.4936
   61SOL    HW2  243   2.014   1.398   3.039  1.5256  0.6391  1.8958
   61SOL     MW  244   1.980   1.466   3.084  0.4079 -0.5218 -0.1552
   62SOL     OW  245   0.618   1.630   0.581  0.6521  0.4805  0.7157
   62SOL    HW1  246   0.679   1.598   0.502  2.0367  0.4544 -0.9886
   62SOL    HW2  247   0.606   1.552   0.633 -1.3546  1.6516 -2.2124
   62SOL     MW  248   0.625   1.616   0.577  0.5700  0.6316  0.1045
   63SOL     OW  249   1.694   0.741   0.669 -0.2190  0.0504  0.4136
   63SOL    HW1  250   1.659   0.812   0.613 -0.0574  1.3167 -0.2783
   63SOL    HW2  251   1.615   0.714   0.718 -1.5375  0.9031  1.1917
   63SOL     MW  252   1.679   0.747   0.668 -0.3717  0.3300  0.4250
   64SOL     OW  253   0.255   1.682   0.881  0.4113  0.1373 -0.9658
   64SOL    HW1  254   0.325   1.731   0.824 -1.7109 -0.3342 -3.0216
   64SOL    HW2  255   0.175   1.731   0.874  1.0008  0.6483 -3.5312
   64SOL     MW  256   0.254   1.695   0.872  0.2091  0.1425 -1.5755
   65SOL     OW  257   1.557   2.298   0.326  0.3342  0.4429 -0.1521
   65SOL    HW1  258   1.621   2.225   0.315  2.0053  0.3816 -0.2244
   65SOL    HW2  259   1.584   2.374   0.391  1.3312 -0.8251  2.1576
   65SOL     MW  260   1.569   2.299   0.333  0.6863  0.2675  0.1431
   66SOL     OW  261   0.329   0.526   0.519  0.7527 -0.1295 -0.2895
   66SOL    HW1  262   0.402   0.490   0.464 -1.1943  0.2645 -0.2948
   66SOL    HW2  263   0.308   0.618   0.485 -3.4870 -0.8404 -1.9338
   66SOL     MW  264   0.336   0.533   0.507 -0.0636 -0.1713 -0.5071
   67SOL     OW  265   1.530   0.120   2.034 -0.5846 -0.2413 -0.0924
   67SOL    HW1  266   1.586   0.155   1.965  0.0629  0.2128  1.7671
   67SOL    HW2  267   1.476   0.055   2.000  3.9084 -1.1389  1.7661
   67SOL     MW  268   1.530   0.116   2.020  0.0936 -0.2998  0.3982
   68SOL     OW  269   0.625   0.061   2.937 -0.0231 -0.1755 -0.0667
   68SOL    HW1  270   0.593   0.103   2.859  0.8998  2.0610  1.4009
   68SOL    HW2  271   0.657   0.138   2.985  0.3957  0.2907  3.4663
   68SOL     MW  272   0.625   0.076   2.933  0.1539  0.1811  0.5931
   69SOL     OW  273   1.017   0.211   1.950  0.3566  0.5732  0.1856
   69SOL    HW1  274   1.100   0.244   1.983  1.3895 -0.6033 -3.4726
   69SOL    HW2  275   1.026   0.113   1.959 -2.0270  1.3163  2.4208
   69SOL     MW  276   1.029   0.202   1.956  0.1784  0.5160 -0.0021
   70SOL     OW  277   0.567   1.844   1.124 -0.3499 -0.1549 -0.3907
   70SOL    HW1  278   0.571   1.748   1.105  2.1681 -1.9084  1.9198
   70SOL    HW2  279   0.656   1.866   1.103  2.1664  0.7820 -2.8797
   70SOL     MW  280   0.579   1.834   1.119  0.3143 -0.2626 -0.4142
   71SOL     OW  281   1.758   0.657   1.263  0.4328 -0.6987  0.7379
   71SOL    HW1  282   1.703   0.693   1.335  1.0528  2.3833  0.3282
   71SOL    HW2  283   1.685   0.615   1.213 -2.1530 -0.7592  0.3549
   71SOL     MW  284   1.741   0.656   1.266  0.1734 -0.3000  0.6333
   72SOL     OW  285   0.835   1.777   0.969 -0.2911 -0.3350 -0.1417
   72SOL    HW1  286   0.829   1.830   0.885  0.1538 -0.2667  1.0945
   72SOL    HW2  287   0.824   1.684   0.945 -0.3315  1.4745 -0.0502
   72SOL     MW  288   0.833   1.772   0.955 -0.2377 -0.0873  0.0335
   73SOL     OW  289   1.239   0.678   1.366 -0.0573  0.6758  0.1564
   73SOL    HW1  290   1.205   0.595   1.331  0.4698  1.1684 -0.5602
   73SOL    HW2  291   1.165   0.717   1.413 -0.6602  0.0436 -1.1940
   73SOL     MW  292   1.225   0.672   1.368 -0.0673  0.6574 -0.1163
   74SOL     OW  293   2.825   0.173   0.990  0.6601  0.0486  0.2993
   74SOL    HW1  294   2.869   0.118   0.923  2.8800  0.7176 -0.4515
   74SOL    HW2  295   2.783   0.247   0.940  1.7301 -0.4582 -1.5174
   74SOL     MW  296   2.825   0.176   0.975  1.0941  0.0700 -0.0395
   75SOL     OW  297   1.588   1.337   0.108  0.3297  0.3130  0.5876
   75SOL    HW1  298   1.638   1.325   0.191 -1.7529 -1.8392 -0.5044
   75SOL    HW2  299   1.628   1.277   0.045 -2.0841  1.5353 -0.6581
   75SOL     MW  300   1.600   1.327   0.111 -0.2635  0.1903  0.2791
   76SOL     OW  301   2.958   0.659   0.478  0.0092  0.1105  0.2562
   76SOL    HW1  302   2.990   0.704   0.557  0.1845  0.2803 -1.3526
   76SOL    HW2  303   3.021   0.589   0.450  1.8462 -0.9164  2.5763
   76SOL     MW  304   2.970   0.656   0.484  0.2747 -0.0026  0.3501
   77SOL     OW  305   0.861   0.458   0.468 -0.1371  0.4128 -0.6143
   77SOL    HW1  306   0.783   0.505   0.439 -0.8382  0.1742 -0.7645
   77SOL    HW2  307   0.826   0.366   0.488  0.0892  1.7270  0.4950
   77SOL     MW  308   0.846   0.452   0.467 -0.1997  0.5547 -0.4878
   78SOL     OW  309   0.768   0.780   1.196 -0.2177  0.6838  0.0482
   78SOL    HW1  310   0.677   0.788   1.188  1.2124  1.6360  2.2590
   78SOL    HW2  311   0.807   0.868   1.173  2.5826 -1.1925  0.0067
   78SOL     MW  312   0.761   0.793   1.192  0.3404  0.5619  0.3344
   79SOL     OW  313   1.941   1.712   0.618 -0.0237  0.2213 -0.0978
   79SOL    HW1  314   1.904   1.626   0.590  0.9476  0.9646  3.0041
   79SOL    HW2  315   1.945   1.701   0.717  1.3350  1.8319  1.7209
   79SOL     MW  316   1.936   1.699   0.628  0.2837  0.5319  0.5514
   80SOL     OW  317   0.168   1.023   0.342  0.6690 -0.1448  0.6367
   80SOL    HW1  318   0.075   0.987   0.360 -2.2977  0.2015 -2.1966
   80SOL    HW2  319   0.226   0.953   0.363 -1.6603 -0.7328  2.7380
   80SOL     MW  320   0.163   1.009   0.347 -0.0297 -0.1767  0.5401
   81SOL     OW  321   1.892   1.895   0.245  0.1501  0.1605  0.8072
   81SOL    HW1  322   1.834   1.832   0.196  2.3055 -0.8514  0.8953
   81SOL    HW2  323   1.847   1.984   0.235  1.9259  1.5012 -0.1524
   81SOL     MW  324   1.878   1.898   0.237  0.6688  0.2038  0.6922
   82SOL     OW  325   0.816   1.035   0.553  0.2652  0.4429 -0.2795
   82SOL    HW1  326   0.857   1.030   0.469  1.9085 -1.2887  0.1132
   82SOL    HW2  327   0.819   0.944   0.593  2.1446  1.7651 -1.5273
   82SOL     MW  328   0.822   1.022   0.547  0.7300  0.3889 -0.3923
   83SOL     OW  329   0.154   0.615   1.350  0.2417  0.3734 -0.4234
   83SOL    HW1  330   0.126   0.708   1.366  0.4280 -1.1874 -2.1891
   83SOL    HW2  331   0.194   0.595   1.435  1.2408 -1.6339  2.3569
   83SOL     MW  332   0.155   0.625   1.363  0.3981 -0.0974 -0.2896
   84SOL     OW  333   0.094   0.264   0.970 -0.0999 -0.6349 -0.7290
   84SOL    HW1  334   0.001   0.281   0.954 -0.9728  0.6971 -2.0931
   84SOL    HW2  335   0.090   0.186   1.029  0.2618 -0.2135 -0.6320
   84SOL     MW  336   0.081   0.256   0.976 -0.1673 -0.4036 -0.8962
   85SOL     OW  337   0.432   0.442   0.769  0.7116  0.0055  0.5911
   85SOL    HW1  338   0.420   0.482   0.686  2.0709 -1.9249 -0.9959
   85SOL    HW2  339   0.374   0.370   0.758 -1.8603  4.1003 -2.0828
   85SOL     MW  340   0.423   0.438   0.756  0.5516  0.2911  0.0289
   86SOL     OW  341   1.199   0.418   1.125 -0.1825 -0.4596  0.1932
   86SOL    HW1  342   1.143   0.472   1.072  3.2355  0.6921  0.5290
   86SOL    HW2  343   1.139   0.414   1.205 -0.9293 -1.2096 -0.6213
   86SOL     MW  344   1.183   0.425   1.129  0.1699 -0.4066  0.1300
   87SOL     OW  345   1.210   1.499   1.232 -0.3603  0.0057 -0.3224
   87SOL    HW1  346   1.223   1.524   1.138  0.2892 -1.3029 -0.0511
   87SOL    HW2  347   1.229   1.407   1.237  1.6102  2.2103  0.6836
   87SOL     MW  348   1.214   1.490   1.220 -0.0146  0.1239 -0.1539
   88SOL     OW  349   1.290   1.003   1.006 -0.9589  0.2018  0.0543
   88SOL    HW1  350   1.387   1.010   1.014 -0.6855 -1.0675 -0.9681
   88SOL    HW2  351   1.262   1.042   1.089 -1.2752 -1.3609 -0.8572
   88SOL     MW  352   1.299   1.009   1.018 -0.9646 -0.1719 -0.2008
   89SOL     OW  353   1.733   0.652   0.353 -0.1008 -0.0576  0.1025
   89SOL    HW1  354   1.789   0.576   0.372 -0.8895  1.0812 -2.1960
   89SOL    HW2  355   1.789   0.712   0.301 -0.1231  2.3694  1.0357
   89SOL     MW  356   1.748   0.650   0.349 -0.2078  0.4129 -0.0776
   90SOL     OW  357   0.678   1.213   2.795 -0.5188 -0.6857 -0.3644
   90SOL    HW1  358   0.756   1.164   2.822  1.7056  0.8099 -0.9179
   90SOL    HW2  359   0.666   1.263   2.884  2.8231 -1.4461  2.1689
   90SOL     MW  360   0.686   1.213   2.810  0.2156 -0.5887 -0.1032
   91SOL     OW  361   2.116   0.669   0.564  0.7839  0.3992  0.4409
   91SOL    HW1  362   2.099   0.752   0.514 -1.2321 -1.2558  2.2610
   91SOL    HW2  363   2.141   0.606   0.494 -3.0678 -1.5039 -1.1957
   91SOL     MW  364   2.117   0.672   0.548  0.0097 -0.0702  0.4651
   92SOL     OW  365   1.566   0.863   0.442  0.5977 -0.1440  0.3745
   92SOL    HW1  366   1.479   0.833   0.479 -1.8115 -0.1827  1.8144
   92SOL    HW2  367   1.612   0.782   0.419  0.0808  2.0608  0.5228
   92SOL     MW  368   1.561   0.848   0.444  0.2116  0.1418  0.5840
   93SOL     OW  369   1.054   0.311   0.336 -0.1045  0.3855  0.4869
   93SOL    HW1  370   0.980   0.367   0.355  1.5227  1.4960 -0.1070
   93SOL    HW2  371   1.089   0.329   0.248 -1.9279  2.2618 -2.4779
   93SOL     MW  372   1.049   0.321   0.327 -0.1304  0.7795  0.0174
   94SOL     OW  373   1.907   1.321   1.641 -0.1230  0.7066 -0.5668
   94SOL    HW1  374   1.947   1.298   1.554  1.9883 -1.2130 -2.4300
   94SOL    HW2  375   1.888   1.234   1.681  1.4024 -2.8383  0.8535
   94SOL     MW  376   1.910   1.306   1.634  0.3568 -0.0144 -0.6253
   95SOL     OW  377   0.781   1.516   0.951 -0.7150 -0.3192 -0.7196
   95SOL    HW1  378   0.838   1.446   0.983  2.5300 -0.1406  1.2863
   95SOL    HW2  379   0.735   1.532   1.037  0.2815 -0.7828  0.4144
   95SOL     MW  380   0.783   1.509   0.966 -0.1554 -0.3568 -0.3053
   96SOL     OW  381   1.244   1.803   1.581  0.1708  0.0717 -0.6626
   96SOL    HW1  382   1.144   1.816   1.566 -2.0926 -0.5495 -0.0482
   96SOL    HW2  383   1.269   1.741   1.515 -1.0826 -1.2565  0.8687
   96SOL     MW  384   1.234   1.796   1.570 -0.2932 -0.1855 -0.3795
   97SOL     OW  385   1.227   1.404   0.797  0.0916 -0.2960 -0.7545
   97SOL    HW1  386   1.234   1.478   0.859 -1.7193  1.6284  0.8606
   97SOL    HW2  387   1.156   1.435   0.748  0.7604 -2.7498 -0.0934
   97SOL     MW  388   1.218   1.418   0.799 -0.0591 -0.3658 -0.4542
   98SOL     OW  389   1.510   1.332   1.110 -0.4250  0.1045 -0.3834
   98SOL    HW1  390   1.528   1.407   1.170 -2.5060  0.8125 -1.6859
   98SOL    HW2  391   1.525   1.361   1.020  0.1056 -0.5058  0.6051
   98SOL     MW  392   1.514   1.345   1.106 -0.6296  0.1174 -0.4248
   99SOL     OW  393   1.519   0.336   1.281 -0.1621  0.6711 -0.0794
   99SOL    HW1  394   1.499   0.418   1.234 -0.2583  3.2868 -2.8078
   99SOL    HW2  395   1.486   0.364   1.366  1.8871  0.9686 -0.2876
   99SOL     MW  396   1.512   0.350   1.286  0.0956  1.0555 -0.4668
  100SOL     OW  397   1.031   1.077   1.427 -0.1154 -0.3298  0.2378
  100SOL    HW1  398   0.955   1.076   1.483 -0.1031  0.4776 -0.1677
  100SOL    HW2  399   1.056   0.983   1.427 -0.0370  0.5160 -0.4754
  100SOL     MW  400   1.025   1.064   1.435 -0.1034 -0.1116  0.0902
  101SOL     OW  401   0.605   1.134   0.257 -0.6233 -0.3833 -0.2767
  101SOL    HW1  402   0.592   1.043   0.293 -2.3953  0.0517 -0.3990
  101SOL    HW2  403   0.579   1.123   0.162  0.1692 -0.8712 -1.0967
  101SOL     MW  404   0.600   1.120   0.249 -0.7526 -0.3903 -0.4010
  102SOL     OW  405   2.947   0.590   1.003 -0.1801 -0.0568  0.3761
  102SOL    HW1  406   3.007   0.665   0.990  3.1605  1.9976  0.9287
  102SOL    HW2  407   2.986   0.552   1.078 -0.4542  1.4043 -2.2007
  102SOL     MW  408   2.960   0.595   1.011  0.2245  0.4071  0.1090
  103SOL     OW  409   1.639   0.389   1.864  0.7324  0.3365  0.1542
  103SOL    HW1  410   1.635   0.329   1.783  0.1175  1.4792  0.0709
  103SOL    HW2  411   1.710   0.348   1.908 -2.4778 -0.8652 -0.4859
  103SOL     MW  412   1.648   0.376   1.859  0.2277  0.3287  0.0587
  104SOL     OW  413   0.183   1.858   1.405 -0.0308 -0.0869  0.2654
  104SOL    HW1  414   0.246   1.783   1.399 -0.0294 -3.5341  0.8122
  104SOL    HW2  415   0.111   1.833   1.340  3.1971 -2.4155  0.3919
  104SOL     MW  416   0.182   1.845   1.396  0.3953 -0.8490  0.3543
  105SOL     OW  417   0.166   1.176   0.560 -0.4681  0.5236  0.2583
  105SOL    HW1  418   0.164   1.117   0.485  1.0187  1.3158 -1.7398
  105SOL    HW2  419   0.223   1.250   0.527 -0.0589 -0.2329 -1.9990
  105SOL     MW  420   0.173   1.178   0.546 -0.2179  0.5283 -0.3032
  106SOL     OW  421   0.829   0.318   0.944 -0.7097 -0.1022 -0.0683
  106SOL    HW1  422   0.776   0.391   0.911  0.9384 -1.1133 -1.1535
  106SOL    HW2  423   0.908   0.327   0.890 -1.0477 -0.5920 -0.3544
  106SOL     MW  424   0.832   0.329   0.933 -0.5368 -0.3002 -0.2492
  107SOL     OW  425   0.835   2.181   3.000  0.6264  0.0402 -0.3158
  107SOL    HW1  426   0.762   2.124   2.985  1.5913  2.9270 -3.0930
  107SOL    HW2  427   0.878   2.135   3.071 -3.1667  0.2202  1.4400
  107SOL     MW  428   0.831   2.167   3.008  0.2533  0.4448 -0.4505
  108SOL     OW  429   1.366   1.629   1.420 -0.3238  0.4659 -0.1032
  108SOL    HW1  430   1.290   1.602   1.371 -0.2692 -1.2341  0.0626
  108SOL    HW2  431   1.398   1.568   1.483  4.3558  1.2740  2.9848
  108SOL     MW  432   1.361   1.617   1.422  0.3008  0.3482  0.3261
  109SOL     OW  433   1.953   0.776   0.179  0.2512 -0.1283 -0.4288
  109SOL    HW1  434   1.969   0.687   0.137 -0.0050  0.1321 -0.6218
  109SOL    HW2  435   2.039   0.816   0.184 -1.9633  0.7596  0.1907
  109SOL     MW  436   1.967   0.769   0.174 -0.0748  0.0232 -0.3725
  110SOL     OW  437   0.438   1.808   0.714  0.3507 -0.0653  0.2350
  110SOL    HW1  438   0.503   1.737   0.691  2.6150 -0.3774 -2.3664
  110SOL    HW2  439   0.450   1.874   0.640  2.1324 -0.2741  2.0311
  110SOL     MW  440   0.448   1.808   0.701  0.8845 -0.1340  0.1288
  111SOL     OW  441   0.726   0.837   1.506 -0.1116 -0.4765 -0.2831
  111SOL    HW1  442   0.756   0.789   1.429 -2.4980  0.2596  0.3552
  111SOL    HW2  443   0.641   0.804   1.534 -0.3721 -0.3601  0.0824
  111SOL     MW  444   0.719   0.826   1.500 -0.4608 -0.3640 -0.1506
  112SOL     OW  445   1.343   1.069   1.734  0.1378  0.1250  0.4319
  112SOL    HW1  446   1.285   1.140   1.755  2.9039 -0.5034  0.0415
  112SOL    HW2  447   1.282   1.000   1.720  1.9101  0.0795  0.8207
  112SOL     MW  448   1.327   1.069   1.735  0.7366  0.0361  0.4317
  113SOL     OW  449   1.366   0.023   1.716 -0.0357 -0.6593  0.1111
  113SOL    HW1  450   1.330  -0.029   1.792 -0.4438 -0.7420  1.0589
  113SOL    HW2  451   1.351  -0.024   1.634 -2.0804  2.7291 -0.6495
  113SOL     MW  452   1.359   0.010   1.715 -0.3593 -0.2231  0.1358
  114SOL     OW  453   0.503   2.822   1.860  0.2276 -0.2576  0.7640
  114SOL    HW1  454   0.470   2.878   1.934  0.2478 -1.2688  1.7262
  114SOL    HW2  455   0.465   2.867   1.787  1.1230  1.2099  0.8165
  114SOL     MW  456   0.494   2.835   1.860  0.3484 -0.1974  0.8979
  115SOL     OW  457   0.454   0.843   1.132  0.2106  0.3665 -0.0080
  115SOL    HW1  458   0.442   0.753   1.112 -1.8039 -1.1844 -0.1563
  115SOL    HW2  459   0.396   0.864   1.209 -1.6136  0.6249 -1.7926
  115SOL     MW  460   0.445   0.834   1.140 -0.2959  0.1960 -0.2630
  116SOL     OW  461   0.754   1.048   0.913  0.2836  0.6404  0.2584
  116SOL    HW1  462   0.811   1.088   0.850 -0.4893  1.0224 -1.3232
  116SOL    HW2  463   0.795   1.061   0.998  0.4759 -0.3546  2.2678
  116SOL     MW  464   0.767   1.055   0.916  0.2070  0.5595  0.3148
  117SOL     OW  465   1.222   1.123   0.754  0.2307  0.0075  0.7590
  117SOL    HW1  466   1.245   1.082   0.837  1.2505  2.9047  0.1014
  117SOL    HW2  467   1.219   1.221   0.774 -2.8752 -0.8156 -1.2960
  117SOL     MW  468   1.224   1.131   0.767 -0.0445  0.2811  0.4011
  118SOL     OW  469   3.054   2.990   1.717 -0.3079 -0.0962  0.3351
  118SOL    HW1  470   3.109   3.014   1.795  0.3942 -3.8607  1.3368
  118SOL    HW2  471   2.965   3.027   1.723  3.0385  0.1288  2.3014
  118SOL     MW  472   3.050   2.998   1.728  0.2263 -0.5632  0.7267
  119SOL     OW  473   0.533   1.328   1.205  0.3268  0.2363  0.4625
  119SOL    HW1  474   0.540   1.340   1.113 -1.3836 -0.7381  1.6849
  119SOL    HW2  475   0.444   1.286   1.209 -2.2181  0.5173 -0.4995
  119SOL     MW  476   0.523   1.324   1.193 -0.2346  0.1448  0.4969
  120SOL     OW  477   0.198   0.699   0.931 -0.1658  0.3250  0.3243
  120SOL    HW1  478   0.230   0.631   0.993 -1.1011 -0.5785 -1.2401
  120SOL    HW2  479   0.266   0.766   0.924  0.0088 -2.3226 -0.4291
  120SOL     MW  480   0.211   0.699   0.938 -0.2662 -0.1435  0.0185
  121SOL     OW  481   1.833   1.058   1.712  0.1347  0.4129  0.0152
  121SOL    HW1  482   1.738   1.071   1.741 -0.1215  0.9500  1.1738
  121SOL    HW2  483   1.841   0.977   1.669  1.2816  0.9823  2.4756
  121SOL     MW  484   1.821   1.049   1.710  0.2522  0.5589  0.4927
  122SOL     OW  485   0.116   0.505   0.758  0.1572  0.1208 -0.1685
  122SOL    HW1  486   0.188   0.468   0.710  0.4029 -1.1905  0.1792
  122SOL    HW2  487   0.156   0.566   0.820 -0.1697 -2.2776  0.7753
  122SOL     MW  488   0.130   0.508   0.760  0.1465 -0.3687  0.0019
  123SOL     OW  489   1.792   1.038   0.451  0.1260  0.6243 -0.7609
  123SOL    HW1  490   1.740   0.958   0.441 -1.1088  2.2044  1.9723
  123SOL    HW2  491   1.832   1.036   0.544  2.1193  0.2325 -0.4267
  123SOL     MW  492   1.791   1.027   0.462  0.2261  0.7811 -0.3562
  124SOL     OW  493   0.669   0.507   0.862  0.2638  0.2861  0.1167
  124SOL    HW1  494   0.579   0.482   0.818 -1.3292 -2.4738  0.4704
  124SOL    HW2  495   0.678   0.599   0.844 -0.1168 -0.1889  0.1380
  124SOL     MW  496   0.658   0.516   0.854  0.0034 -0.1407  0.1662
  125SOL     OW  497   0.691   1.707   1.669 -0.2110 -0.4229  0.1427
  125SOL    HW1  498   0.621   1.641   1.633  1.4696 -0.5210  1.7978
  125SOL    HW2  499   0.654   1.795   1.648 -1.0689 -1.0412 -2.9334
  125SOL     MW  500   0.677   1.710   1.661 -0.1024 -0.5174 -0.0448
  126SOL     OW  501   2.110   1.601   1.956  0.4048  0.0576 -0.4323
  126SOL    HW1  502   2.178   1.673   1.944  0.5474 -0.7342 -2.4415
  126SOL    HW2  503   2.167   1.527   1.990  0.7443 -3.8171 -1.4387
  126SOL     MW  504   2.126   1.600   1.959  0.4684 -0.5581 -0.8302
  127SOL     OW  505   0.621   0.746   1.859 -0.2194  0.3799 -0.5618
  127SOL    HW1  506   0.692   0.693   1.891  0.0783 -2.3867  2.2105
  127SOL    HW2  507   0.638   0.834   1.901  0.9202 -2.3294 -0.3063
  127SOL     MW  508   0.632   0.751   1.869 -0.0298 -0.3426 -0.1623
  128SOL     OW  509   1.817   0.751   2.901 -0.1940  0.4352 -0.1894
  128SOL    HW1  510   1.815   0.725   2.808  3.3197  0.4233  0.0480
  128SOL    HW2  511   1.790   0.844   2.898  2.4492 -0.2190  0.7092
  128SOL     MW  512   1.814   0.760   2.889  0.6184  0.3473 -0.0395
  129SOL     OW  513   1.484   0.987   0.197  0.0210 -0.7644 -0.2478
  129SOL    HW1  514   1.436   0.914   0.170  3.5850  1.1512 -2.5460
  129SOL    HW2  515   1.497   0.963   0.289  0.9467 -1.8228 -1.7835
  129SOL     MW  516   1.479   0.974   0.206  0.6134 -0.6513 -0.7536
  130SOL     OW  517   0.740   1.456   0.404  0.1427 -0.2959  0.5513
  130SOL    HW1  518   0.789   1.408   0.477  0.4589 -1.9436  0.7735
  130SOL    HW2  519   0.814   1.490   0.358  1.6845 -1.1288  0.5022
  130SOL     MW  520   0.756   1.454   0.408  0.3879 -0.6232  0.5742
  131SOL     OW  521   3.062   0.800   0.074 -0.3266  0.3152 -0.3631
  131SOL    HW1  522   3.066   0.866  -0.008 -0.8182  3.5983 -0.0521
  131SOL    HW2  523   3.150   0.806   0.122  2.6056 -0.0265  1.0183
  131SOL     MW  524   3.074   0.809   0.069 -0.0046  0.7033 -0.1398
  132SOL     OW  525   2.770   0.152   1.269  0.0155 -0.5079 -0.0310
  132SOL    HW1  526   2.794   0.148   1.177  1.3862  1.8825  0.7514
  132SOL    HW2  527   2.674   0.140   1.264  1.3853  0.1332  0.1901
  132SOL     MW  528   2.761   0.150   1.256  0.3771 -0.1079  0.1014
  133SOL     OW  529   1.113   0.164   1.693 -0.1683 -0.4267 -0.2584
  133SOL    HW1  530   1.200   0.122   1.703 -1.5719 -2.2462  2.6269
  133SOL    HW2  531   1.080   0.175   1.780 -2.1976  0.8245 -0.4220
  133SOL     MW  532   1.120   0.160   1.706 -0.6212 -0.5017  0.1007
  134SOL     OW  533   1.374   2.518   1.398 -0.0202  0.0951  0.2056
  134SOL    HW1  534   1.309   2.591   1.399  0.2578 -0.8942  2.1808
  134SOL    HW2  535   1.423   2.544   1.480  1.8921 -1.0486  2.4446
  134SOL     MW  536   1.372   2.531   1.409  0.2688 -0.1864  0.7616
  135SOL     OW  537   3.027   0.996   2.959 -0.1748  0.4890 -0.3155
  135SOL    HW1  538   3.076   1.075   2.933 -0.3275  0.8818 -3.7301
  135SOL    HW2  539   2.939   1.034   2.948  3.0079 -3.1443 -0.4419
  135SOL     MW  540   3.022   1.012   2.954  0.2250  0.0614 -0.7827
  136SOL     OW  541   0.281   2.008   0.874 -0.5978  0.1480  0.0431
  136SOL    HW1  542   0.205   1.953   0.875 -0.9639  1.3240  3.7842
  136SOL    HW2  543   0.344   1.944   0.840  1.6126 -2.1767  0.3927
  136SOL     MW  544   0.279   1.992   0.869 -0.3545 -0.0036  0.5829
  137SOL     OW  545   0.758   1.998   0.518  0.1320 -0.0152 -0.4859
  137SOL    HW1  546   0.763   1.990   0.610  1.8358 -1.1309  1.0352
  137SOL    HW2  547   0.662   2.004   0.502 -0.5037 -0.1287 -0.1169
  137SOL     MW  548   0.746   1.998   0.528  0.2730 -0.1774 -0.2365
  138SOL     OW  549   0.522   0.563   1.100 -0.5072  0.2439  0.6053
  138SOL    HW1  550   0.455   0.502   1.076 -2.0061 -0.3096 -0.2374
  138SOL    HW2  551   0.582   0.548   1.021 -0.3459 -1.0832 -0.8057
  138SOL     MW  552   0.521   0.553   1.087 -0.6837 -0.0043  0.3080
  139SOL     OW  553   2.715   0.470   1.395 -0.4302  0.1488 -0.4752
  139SOL    HW1  554   2.810   0.440   1.388 -0.0833 -0.4286  4.2993
  139SOL    HW2  555   2.716   0.562   1.372 -0.0707 -0.6747  2.4232
  139SOL     MW  556   2.728   0.478   1.391 -0.3370 -0.0360  0.5372
  140SOL     OW  557   0.848   0.384   2.087 -0.3057  0.1125  0.1785
  140SOL    HW1  558   0.903   0.322   2.040 -1.0433  0.5474 -0.4204
  140SOL    HW2  559   0.874   0.359   2.178 -0.3094 -0.4525 -0.2036
  140SOL     MW  560   0.859   0.372   2.093 -0.4035  0.0953  0.0490
  141SOL     OW  561   1.023   0.594   1.730  0.2847 -0.6002  0.1829
  141SOL    HW1  562   1.077   0.524   1.685  0.3143  0.7633 -1.3990
  141SOL    HW2  563   1.075   0.679   1.722 -0.1200  2.7165  0.5923
  141SOL     MW  564   1.037   0.596   1.723  0.2352  0.0173  0.0282
  142SOL     OW  565   0.957   1.154   0.746  0.1742 -0.7214 -0.0061
  142SOL    HW1  566   0.902   1.088   0.688 -2.2836 -0.1809 -2.6537
  142SOL    HW2  567   1.053   1.126   0.735 -1.0922  0.1256  1.2833
  142SOL     MW  568   0.962   1.142   0.737 -0.3172 -0.5383 -0.1853
  143SOL     OW  569   1.826   0.868   1.097 -0.7924 -0.3791  0.1504
  143SOL    HW1  570   1.862   0.832   1.018  1.0838  0.8403  1.5685
  143SOL    HW2  571   1.801   0.793   1.149  0.0863 -1.7219  0.0563
  143SOL     MW  572   1.828   0.853   1.094 -0.4289 -0.3954  0.3251
  144SOL     OW  573   0.205   1.158   1.529  0.6763 -0.3128 -0.2993
  144SOL    HW1  574   0.277   1.122   1.480  0.5257  2.0991 -0.1655
  144SOL    HW2  575   0.245   1.184   1.612 -1.5094 -0.6617 -1.2453
  144SOL     MW  576   0.220   1.156   1.534  0.3680 -0.0406 -0.4065
  145SOL     OW  577   0.263   0.461   1.066  0.4882  0.4707 -0.9879
  145SOL    HW1  578   0.290   0.435   1.159  1.9839 -0.2019 -1.6581
  145SOL    HW2  579   0.237   0.368   1.036  1.0351  3.7298  2.4962
  145SOL     MW  580   0.263   0.445   1.074  0.7577  0.8119 -0.6166
  146SOL     OW  581   0.895   1.924   1.407  0.5585  1.0670  0.4029
  146SOL    HW1  582   0.902   1.906   1.310 -0.4697 -2.0030  0.4065
  146SOL    HW2  583   0.800   1.912   1.416 -3.0083 -1.4035  1.6943
  146SOL     MW  584   0.883   1.920   1.395 -0.0478  0.3359  0.5738
  147SOL     OW  585   0.395   0.428   2.895 -0.0472  0.8258  0.2119
  147SOL    HW1  586   0.338   0.463   2.960 -0.2425 -0.0163 -3.6753
  147SOL    HW2  587   0.366   0.479   2.820  0.6763 -2.0140  0.0755
  147SOL     MW  588   0.384   0.439   2.894  0.0225  0.3400 -0.3189
  148SOL     OW  589   0.036   0.906   1.347  0.4574 -0.7357  0.2694
  148SOL    HW1  590   0.130   0.939   1.323  2.4306 -0.4721  0.2287
  148SOL    HW2  591   0.042   0.923   1.446 -0.3241  1.0352 -0.8576
  148SOL     MW  592   0.049   0.913   1.357  0.6146 -0.4673  0.1153
  149SOL     OW  593   1.409   1.178   1.460 -0.4438  0.0468  0.1794
  149SOL    HW1  594   1.366   1.201   1.543  4.0846  0.8611 -1.1463
  149SOL    HW2  595   1.497   1.224   1.461  0.7935  0.8139  1.1816
  149SOL     MW  596   1.415   1.187   1.471  0.3169  0.2554  0.1367
  150SOL     OW  597   1.815   1.282   0.796 -0.1085  0.1920  0.1538
  150SOL    HW1  598   1.849   1.197   0.773 -1.3315  1.6939  1.5547
  150SOL    HW2  599   1.891   1.340   0.822  0.2529  1.1242  1.0649
  150SOL     MW  600   1.830   1.279   0.796 -0.2222  0.5131  0.4589
  151SOL     OW  601   1.646   1.832   0.862 -0.2668 -0.3493 -0.3041
  151SOL    HW1  602   1.596   1.852   0.782 -1.5210  2.7232  3.2835
  151SOL    HW2  603   1.595   1.776   0.925  2.2375  0.0633 -2.5018
  151SOL     MW  604   1.633   1.828   0.859 -0.1019  0.1105 -0.1207
  152SOL     OW  605   0.786   1.338   1.519 -0.3380 -0.1770 -0.1678
  152SOL    HW1  606   0.776   1.248   1.560  0.7700  1.9210 -1.5203
  152SOL    HW2  607   0.878   1.349   1.494  0.4822  0.9530 -2.5835
  152SOL     MW  608   0.797   1.328   1.521 -0.0836  0.2489 -0.6650
  153SOL     OW  609   2.644   1.236   0.706 -0.6030  0.7982 -0.4256
  153SOL    HW1  610   2.697   1.204   0.631  2.5883 -0.6849  4.3379
  153SOL    HW2  611   2.588   1.150   0.717 -3.6713 -1.5543 -0.2700
  153SOL     MW  612   2.643   1.220   0.697 -0.5868  0.2921  0.2234
  154SOL     OW  613   0.328   1.763   1.685  0.0408  0.0348 -0.3239
  154SOL    HW1  614   0.355   1.728   1.603 -0.0172  2.9030  1.7049
  154SOL    HW2  615   0.356   1.693   1.744 -4.4196 -0.1410  3.0954
  154SOL     MW  616   0.335   1.749   1.682 -0.5553  0.3901  0.3949
  155SOL     OW  617   1.102   0.677   0.300  0.3768  0.0034  0.2443
  155SOL    HW1  618   1.116   0.624   0.379  1.3758 -2.3707 -0.2897
  155SOL    HW2  619   1.068   0.767   0.315 -0.2699  0.1776 -0.2580
  155SOL     MW  620   1.099   0.682   0.312  0.4233 -0.2868  0.1076
  156SOL     OW  621   1.483   3.017   1.042  0.1751 -0.5965  0.1129
  156SOL    HW1  622   1.553   3.074   1.065 -3.7384  0.1391  3.9419
  156SOL    HW2  623   1.474   2.950   1.110  1.1938  0.4373 -1.2049
  156SOL     MW  624   1.491   3.016   1.054 -0.2068 -0.3631  0.4443
  157SOL     OW  625   1.342   1.207   0.159 -0.7442  0.4992  0.0763
  157SOL    HW1  626   1.366   1.117   0.189 -0.2651 -2.1387 -1.0836
  157SOL    HW2  627   1.423   1.248   0.119 -2.4332 -0.0768 -0.1759
  157SOL     MW  628   1.356   1.201   0.157 -0.9038  0.0751 -0.1100
  158SOL     OW  629   0.429   1.662   2.256  0.1594 -0.2488 -0.2854
  158SOL    HW1  630   0.434   1.718   2.178  0.8025 -0.4550 -1.1686
  158SOL    HW2  631   0.344   1.621   2.279  0.9263 -1.0253 -1.3409
  158SOL     MW  632   0.418   1.664   2.248  0.3454 -0.3784 -0.5412
  159SOL     OW  633   1.316   1.684   0.457  0.4320  0.5098  0.1035
  159SOL    HW1  634   1.315   1.590   0.434 -0.7617  2.1154  2.3064
  159SOL    HW2  635   1.217   1.707   0.474 -1.9147  0.0848 -1.3007
  159SOL     MW  636   1.302   1.675   0.456 -0.0351  0.6655  0.2089
  160SOL     OW  637   0.479   1.100   1.551  0.7140  0.0325 -0.1784
  160SOL    HW1  638   0.470   1.013   1.582  0.6404  0.1490 -1.0858
  160SOL    HW2  639   0.483   1.167   1.619 -1.7032 -0.0881 -0.9734
  160SOL     MW  640   0.479   1.098   1.564  0.3854  0.0320 -0.4030
  161SOL     OW  641   0.549   2.125   2.675 -0.4107  0.3560 -0.1205
  161SOL    HW1  642   0.461   2.141   2.708 -0.0275 -1.6059 -2.9777
  161SOL    HW2  643   0.549   2.107   2.585  0.7971  1.7004  3.0806
  161SOL     MW  644   0.537   2.124   2.667 -0.2008  0.2745 -0.0751
  162SOL     OW  645   0.993   1.680   1.768 -0.2135  1.0148 -0.3086
  162SOL    HW1  646   0.999   1.772   1.784 -2.3654 -2.9591 -3.3033
  162SOL    HW2  647   0.912   1.661   1.808  2.0728 -0.2437 -1.8133
  162SOL     MW  648   0.983   1.690   1.776 -0.1958  0.3244 -0.9023
  163SOL     OW  649   2.124   0.188   0.972  0.0714 -0.4973  0.2782
  163SOL    HW1  650   2.113   0.237   0.896  0.0335  0.8829 -0.3016
  163SOL    HW2  651   2.055   0.122   0.977 -0.2149  0.9840  1.6185
  163SOL     MW  652   2.113   0.186   0.963  0.0286 -0.1197  0.3786
  164SOL     OW  653   0.247   0.230   0.749  0.2623 -0.3372 -0.7664
  164SOL    HW1  654   0.181   0.258   0.815 -1.8154  0.7978 -1.0914
  164SOL    HW2  655   0.234   0.138   0.736  2.2456 -1.6010  0.6262
  164SOL     MW  656   0.236   0.222   0.756  0.2499 -0.3542 -0.6256
  165SOL     OW  657   1.370   1.236   0.428 -0.2336 -0.2835 -0.0776
  165SOL    HW1  658   1.307   1.167   0.437 -0.0829 -0.5150 -3.0176
  165SOL    HW2  659   1.377   1.248   0.332  2.5091 -1.2141 -1.7056
  165SOL     MW  660   1.362   1.229   0.416  0.1481 -0.4368 -0.6803
  166SOL     OW  661   0.485   1.042   0.950  0.1861 -0.2426 -0.2141
  166SOL    HW1  662   0.483   0.986   1.029 -1.8907  0.0236  3.0789
  166SOL    HW2  663   0.575   1.035   0.927 -0.1902  0.7948  0.5327
  166SOL     MW  664   0.497   1.034   0.957 -0.1376 -0.0706  0.3189
  167SOL     OW  665   0.891   1.147   0.265  0.2219  0.2720  0.2476
  167SOL    HW1  666   0.801   1.165   0.255 -0.7507  0.3606 -0.9531
  167SOL    HW2  667   0.923   1.187   0.177 -1.6258 -0.1054 -0.5664
  167SOL     MW  668   0.883   1.155   0.252 -0.1502  0.2339 -0.0182
  168SOL     OW  669   1.689   1.737   2.873  0.1196 -0.3337  0.4057
  168SOL    HW1  670   1.657   1.772   2.955 -0.8752  0.6156 -2.0480
  168SOL    HW2  671   1.719   1.650   2.899  1.4416  3.8791 -1.6038
  168SOL     MW  672   1.689   1.730   2.887  0.1628  0.3474 -0.1832
  169SOL     OW  673   0.326   0.953   1.343 -0.5102  0.0142  0.2779
  169SOL    HW1  674   0.370   0.926   1.421  1.9082  1.3670 -0.0845
  169SOL    HW2  675   0.360   1.037   1.307  0.7127 -1.4963 -0.3987
  169SOL     MW  676   0.336   0.960   1.348 -0.0298 -0.0066  0.1408
  170SOL     OW  677   1.074   1.474   1.457  0.1521  0.0979 -0.0121
  170SOL    HW1  678   0.999   1.536   1.490 -0.7174  1.4662  1.0154
  170SOL    HW2  679   1.101   1.516   1.379  1.4400  1.1995 -1.3631
  170SOL     MW  680   1.067   1.488   1.451  0.2073  0.4238 -0.0548
  171SOL     OW  681   0.600   1.383   0.704 -0.3584 -0.2267 -0.1421
  171SOL    HW1  682   0.571   1.385   0.798  1.6395 -1.8752 -1.6053
  171SOL    HW2  683   0.553   1.319   0.651  1.3986 -1.8764 -1.4240
  171SOL     MW  684   0.590   1.375   0.709  0.1370 -0.6618 -0.5043
  172SOL     OW  685   0.859   0.320   1.212 -0.0715 -0.2007  0.7496
  172SOL    HW1  686   0.840   0.316   1.112 -2.5504  1.1098 -1.7195
  172SOL    HW2  687   0.772   0.341   1.254 -1.0778 -0.5530 -0.3556
  172SOL     MW  688   0.845   0.322   1.204 -0.5313 -0.0743  0.2780
  173SOL     OW  689   0.475   1.729   0.356  0.0515 -0.2252 -0.5783
  173SOL    HW1  690   0.481   1.631   0.334  0.1853 -0.3325  2.2498
  173SOL    HW2  691   0.542   1.724   0.429 -0.7952 -2.8400  1.2890
  173SOL     MW  692   0.484   1.715   0.363 -0.0425 -0.5844  0.0412
  174SOL     OW  693   2.003   0.938   1.468 -0.1882 -0.0694 -0.6404
  174SOL    HW1  694   1.947   0.865   1.495 -0.5681 -2.6670  1.5003
  174SOL    HW2  695   1.964   0.985   1.395  3.2020 -0.3568  1.7988
  174SOL     MW  696   1.990   0.934   1.462  0.2090 -0.4501 -0.0361
  175SOL     OW  697   0.475   1.455   0.321 -0.5374  0.2490  0.4542
  175SOL    HW1  698   0.469   1.428   0.227 -2.1589  1.1476 -1.9385
  175SOL    HW2  699   0.563   1.436   0.346  1.2671  3.0201 -2.3199
  175SOL     MW  700   0.486   1.449   0.312 -0.5133  0.7332 -0.2275
  176SOL     OW  701   0.266   1.248   1.208 -0.5141  0.4625  0.0445
  176SOL    HW1  702   0.200   1.279   1.142 -0.4398 -1.4833  2.6703
  176SOL    HW2  703   0.231   1.292   1.280 -1.4208 -1.1773  3.5159
  176SOL     MW  704   0.253   1.258   1.208 -0.6239 -0.0106  0.8489
  177SOL     OW  705   0.629   0.398   1.324  0.0908 -1.1962  0.2457
  177SOL    HW1  706   0.617   0.493   1.289 -1.7431 -1.7305  0.4512
  177SOL    HW2  707   0.645   0.416   1.421 -0.8210 -0.1890  1.0118
  177SOL     MW  708   0.629   0.413   1.332 -0.2714 -1.1338  0.3739
  178SOL     OW  709   3.068   0.418   2.910 -0.4713  0.1617 -0.7528
  178SOL    HW1  710   3.030   0.478   2.980 -1.7801 -0.7561  1.2930
  178SOL    HW2  711   2.995   0.406   2.853  1.1422  0.2480 -0.9901
  178SOL     MW  712   3.053   0.424   2.912 -0.4311  0.0520 -0.5142
  179SOL     OW  713   1.657   1.300   1.481 -0.3982 -0.3701  0.3388
  179SOL    HW1  714   1.618   1.365   1.537  0.2209  2.5081  1.1724
  179SOL    HW2  715   1.749   1.311   1.495 -0.1823 -0.0514 -3.3344
  179SOL     MW  716   1.664   1.310   1.490 -0.2880  0.0517 -0.0358
  180SOL     OW  717   2.989   0.211   0.449 -0.4703 -1.0528 -0.3506
  180SOL    HW1  718   2.970   0.239   0.354 -1.8412 -0.2916 -1.8327
  180SOL    HW2  719   3.057   0.277   0.480  2.2797  0.5904 -0.0625
  180SOL     MW  720   2.996   0.223   0.441 -0.2884 -0.7355 -0.5082
  181SOL     OW  721   1.112   1.461   3.051  0.3724  0.0724 -0.6022
  181SOL    HW1  722   1.185   1.493   3.105 -0.0139 -2.5925  1.8734
  181SOL    HW2  723   1.144   1.396   2.993 -0.5129  0.6571 -0.6264
  181SOL     MW  724   1.126   1.457   3.051  0.2046 -0.2020 -0.2787
  182SOL     OW  725   0.454   0.827   1.644  0.1738  0.4332  0.4914
  182SOL    HW1  726   0.363   0.807   1.678 -0.2770 -0.6491 -0.2359
  182SOL    HW2  727   0.508   0.800   1.718 -0.0651  0.9193  0.6511
  182SOL     MW  728   0.449   0.821   1.658  0.0828  0.3546  0.4165
  183SOL     OW  729   1.593   1.514   1.286 -1.0363 -0.2463 -0.0454
  183SOL    HW1  730   1.523   1.553   1.344 -2.5698  2.1436 -1.8113
  183SOL    HW2  731   1.633   1.441   1.331 -1.0365 -0.1420  1.7214
  183SOL     MW  732   1.589   1.509   1.300 -1.2387  0.0828 -0.0453
  184SOL     OW  733   0.858   0.638   1.991 -0.1038  0.4583 -0.5981
  184SOL    HW1  734   0.921   0.611   1.927 -1.6927  1.9793  1.7684
  184SOL    HW2  735   0.834   0.553   2.028 -0.0853  3.3478 -4.1411
  184SOL     MW  736   0.863   0.623   1.987 -0.3110  1.0403 -0.7533
  185SOL     OW  737   1.098   0.936   1.979  0.2185  0.6125 -0.3838
  185SOL    HW1  738   1.113   0.849   2.018 -0.7638  0.7701  4.1521
  185SOL    HW2  739   1.170   0.993   2.004 -3.0831  1.7238 -1.3410
  185SOL     MW  740   1.109   0.932   1.988 -0.3467  0.7799  0.0884
  186SOL     OW  741   0.395   1.683   1.403 -0.1840 -0.0851 -0.3508
  186SOL    HW1  742   0.459   1.743   1.363  1.4465  1.0970  0.6406
  186SOL    HW2  743   0.348   1.637   1.335  1.0618 -0.6813 -1.7648
  186SOL     MW  744   0.397   1.685   1.389  0.1955 -0.0078 -0.4065
  187SOL     OW  745   1.503   0.700   1.445 -0.3564  0.4070 -0.2380
  187SOL    HW1  746   1.485   0.728   1.536 -0.7851 -0.3175  1.1593
  187SOL    HW2  747   1.412   0.697   1.407 -0.0218 -1.7081 -0.5187
  187SOL     MW  748   1.489   0.703   1.452 -0.3689  0.0324 -0.0907
  188SOL     OW  749   1.923   1.049   0.705  0.4955 -0.1160  0.0217
  188SOL    HW1  750   1.893   0.985   0.765  1.9120 -0.3999 -0.2648
  188SOL    HW2  751   2.016   1.059   0.723 -2.0002 -0.6765 -0.7493
  188SOL     MW  752   1.931   1.042   0.715  0.3531 -0.2274 -0.1178
  189SOL     OW  753   0.671   0.778   0.795  0.1961 -0.2358 -0.0698
  189SOL    HW1  754   0.589   0.803   0.766  1.3419 -1.6035 -1.5157
  189SOL    HW2  755   0.714   0.852   0.845 -0.2983  1.7377 -1.9925
  189SOL     MW  756   0.666   0.791   0.798  0.2820 -0.1559 -0.5143
  190SOL     OW  757   1.867   0.276   1.975 -0.3457 -0.3946  0.3165
  190SOL    HW1  758   1.883   0.186   1.955  1.9030 -1.1711 -0.0303
  190SOL    HW2  759   1.937   0.327   1.925 -1.1471 -2.6835 -0.6024
  190SOL     MW  760   1.878   0.271   1.965 -0.1547 -0.7991  0.1495
  191SOL     OW  761   1.612   0.943   1.339 -1.0684  0.2648 -0.6230
  191SOL    HW1  762   1.563   0.995   1.399  0.5796 -0.9673  0.0303
  191SOL    HW2  763   1.597   0.851   1.356 -0.1949  0.8319 -0.2890
  191SOL     MW  764   1.604   0.938   1.349 -0.7357  0.1771 -0.4927
  192SOL     OW  765   0.739   1.981   2.822 -0.3588 -0.3552 -0.2647
  192SOL    HW1  766   0.673   2.034   2.769  1.2873 -0.3883 -0.2990
  192SOL    HW2  767   0.684   1.917   2.865 -2.6747  0.8692 -0.6503
  192SOL     MW  768   0.723   1.980   2.820 -0.4472 -0.1980 -0.3201
  193SOL     OW  769   1.020   1.609   0.748 -0.7577  0.4733 -0.2922
  193SOL    HW1  770   0.956   1.620   0.825 -3.2115 -0.4215 -2.8491
  193SOL    HW2  771   0.971   1.538   0.700 -1.5850 -0.7566 -0.8205
  193SOL     MW  772   1.005   1.601   0.752 -1.1906  0.1929 -0.6993
  194SOL     OW  773   0.475   1.349   0.951 -0.1754 -0.6689 -0.1086
  194SOL    HW1  774   0.481   1.252   0.931  1.3320 -2.3745 -0.7986
  194SOL    HW2  775   0.395   1.377   0.907 -1.3169  2.0024 -2.4812
  194SOL     MW  776   0.466   1.340   0.942 -0.1271 -0.5415 -0.5127
  195SOL     OW  777   1.278   1.140   2.993  0.2087 -0.2164 -0.1231
  195SOL    HW1  778   1.296   1.169   3.082  0.4268  2.9375  1.0080
  195SOL    HW2  779   1.217   1.066   3.001 -1.8137  0.6123  1.5392
  195SOL     MW  780   1.273   1.134   3.006 -0.0293  0.3091  0.2455
  196SOL     OW  781   2.191   1.105   0.669 -0.2298 -0.3131 -0.0138
  196SOL    HW1  782   2.176   1.078   0.579  0.6782 -0.0665  0.8005
  196SOL    HW2  783   2.163   1.195   0.659  2.0358 -1.8770 -1.9769
  196SOL     MW  784   2.185   1.113   0.656  0.1889 -0.4869 -0.1654
  197SOL     OW  785   0.593   1.242   1.996  0.0375 -0.0325 -0.2076
  197SOL    HW1  786   0.636   1.150   1.991  0.2957 -0.1642 -1.1560
  197SOL    HW2  787   0.574   1.271   1.911  0.6539 -0.6817  2.5037
  197SOL     MW  788   0.596   1.234   1.984  0.1529 -0.1355  0.0250
  198SOL     OW  789   2.937   1.410   1.015 -0.3703  0.2779 -0.6557
  198SOL    HW1  790   2.925   1.499   0.979 -2.1122  2.5945 -0.7394
  198SOL    HW2  791   2.850   1.365   0.986 -3.3774  1.4466  1.9526
  198SOL     MW  792   2.924   1.416   1.006 -0.9969  0.7377 -0.3226
  199SOL     OW  793   0.503   1.286   1.738 -0.4725 -0.1614  0.6477
  199SOL    HW1  794   0.411   1.288   1.756  1.7103  0.5592 -2.6482
  199SOL    HW2  795   0.523   1.360   1.677 -1.1978  3.3150  0.1077
  199SOL     MW  796   0.494   1.296   1.732 -0.2802  0.3923  0.1416
  200SOL     OW  797   1.897   0.008   1.378  0.2026  0.2572 -0.1356
  200SOL    HW1  798   1.889  -0.010   1.282  3.5658  2.8973  0.7165
  200SOL    HW2  799   1.808   0.042   1.393 -0.1136  2.0103 -1.3600
  200SOL     MW  800   1.884   0.010   1.367  0.6046  0.8369 -0.1847
  201SOL     OW  801   1.089   0.306   0.825  0.1266 -0.1712 -0.1381
  201SOL    HW1  802   1.077   0.216   0.852  2.3859  3.3226 -1.8799
  201SOL    HW2  803   1.141   0.291   0.744 -0.7094 -0.4920  3.4622
  201SOL     MW  804   1.094   0.292   0.818  0.3144  0.2474  0.1071
  202SOL     OW  805   1.548   1.648   1.037 -0.1431  0.3278 -0.3484
  202SOL    HW1  806   1.571   1.572   0.981  1.7293  3.0459 -0.0432
  202SOL    HW2  807   1.574   1.627   1.125 -0.0695  1.0940 -0.1821
  202SOL     MW  808   1.554   1.635   1.041  0.1137  0.7875 -0.2862
  203SOL     OW  809   0.002   0.457   1.189 -0.2781  0.6275 -0.2410
  203SOL    HW1  810   0.066   0.412   1.133  2.2851  0.9975 -0.5127
  203SOL    HW2  811   0.058   0.503   1.253 -0.0542 -2.5464 -1.4374
  203SOL     MW  812   0.018   0.457   1.190  0.0896  0.2575 -0.4347
  204SOL     OW  813   1.063   1.757   0.513  0.1589 -0.4180  0.3767
  204SOL    HW1  814   1.035   1.712   0.594 -1.5512  2.1031 -0.5567
  204SOL    HW2  815   0.990   1.757   0.447  0.7743 -2.3155 -0.4690
  204SOL     MW  816   1.050   1.751   0.515  0.0144 -0.3358  0.1420
  205SOL     OW  817   1.395   0.094   1.344 -0.2455  0.1181  0.1942
  205SOL    HW1  818   1.347   0.108   1.263  2.6216 -1.1851  1.2028
  205SOL    HW2  819   1.433   0.180   1.349  2.9073 -0.2655  1.0540
  205SOL     MW  820   1.394   0.107   1.334  0.5488 -0.1044  0.4407
  206SOL     OW  821   0.459   3.064   1.402 -0.7352 -0.0054  0.5365
  206SOL    HW1  822   0.392   3.041   1.339  3.4275  0.2158  1.1545
  206SOL    HW2  823   0.514   2.990   1.407 -0.5314  0.7708 -0.8828
  206SOL     MW  824   0.458   3.051   1.395 -0.1591  0.1262  0.4308
  207SOL     OW  825   0.963   1.554   0.250 -0.1314 -0.9319  0.0234
  207SOL    HW1  826   0.997   1.637   0.210  0.8812 -0.2922 -0.3001
  207SOL    HW2  827   1.051   1.510   0.281 -0.2936 -0.2792 -0.3568
  207SOL     MW  828   0.979   1.559   0.249 -0.0192 -0.7614 -0.0694
  208SOL     OW  829   0.682   1.566   1.204  0.2126  0.1812  0.5031
  208SOL    HW1  830   0.736   1.575   1.276 -2.0349 -0.1193  1.0260
  208SOL    HW2  831   0.650   1.476   1.218  0.6847 -1.0564 -1.0892
  208SOL     MW  832   0.685   1.555   1.215 -0.0216 -0.0217  0.3620
  209SOL     OW  833   1.512   0.545   2.816  0.8289  0.1538 -0.0703
  209SOL    HW1  834   1.548   0.571   2.902 -1.6712  1.8165 -1.0402
  209SOL    HW2  835   1.569   0.477   2.791 -1.1089  0.9538  3.8023
  209SOL     MW  836   1.525   0.539   2.824  0.2434  0.4787  0.3127
  210SOL     OW  837   1.593   1.425   0.876  0.2195  0.5443 -0.1547
  210SOL    HW1  838   1.670   1.367   0.867  1.4718  2.2391  0.9689
  210SOL    HW2  839   1.545   1.428   0.797 -0.2110  1.3542 -0.5814
  210SOL     MW  840   1.597   1.418   0.865  0.3279  0.8748 -0.0628
  211SOL     OW  841   1.721   0.479   0.935  0.4073 -0.0909 -0.2560
  211SOL    HW1  842   1.707   0.480   0.842  1.1992  0.5988  1.4622
  211SOL    HW2  843   1.809   0.499   0.940 -3.1006 -0.3725  2.4496
  211SOL     MW  844   1.731   0.482   0.923  0.0490 -0.0371  0.3277
  212SOL     OW  845   0.250   1.111   0.086 -0.0773 -0.0322 -0.0781
  212SOL    HW1  846   0.254   1.044   0.154 -0.3429 -1.2994  0.7856
  212SOL    HW2  847   0.343   1.116   0.058  0.5580  1.0488  0.7233
  212SOL     MW  848   0.263   1.103   0.091 -0.0285 -0.0568  0.1416
  213SOL     OW  849   0.440   1.676   3.083 -0.2935  0.3992 -0.4044
  213SOL    HW1  850   0.470   1.747   3.138  1.0975 -1.3718  0.9496
  213SOL    HW2  851   0.474   1.702   2.997  2.4209 -0.2484 -2.2837
  213SOL     MW  852   0.448   1.689   3.079  0.2482  0.0801 -0.4737
  214SOL     OW  853   0.646   0.240   2.263 -0.0446 -0.1773 -0.2927
  214SOL    HW1  854   0.617   0.309   2.209  0.2512  0.5923 -1.5679
  214SOL    HW2  855   0.734   0.223   2.222  0.7286  0.3355 -1.7500
  214SOL     MW  856   0.654   0.247   2.250  0.0964 -0.0081 -0.6532
  215SOL     OW  857   0.474   0.743   2.604  0.0803 -0.0934  0.0521
  215SOL    HW1  858   0.474   0.707   2.514  1.1893 -0.3932  2.1076
  215SOL    HW2  859   0.405   0.688   2.647  0.2069 -2.3364 -2.8947
  215SOL     MW  860   0.465   0.731   2.598  0.2434 -0.4289 -0.0655
  216SOL     OW  861   3.077   3.044   2.727  0.4955 -0.4597 -0.8953
  216SOL    HW1  862   3.028   3.010   2.804 -1.3537 -4.0255 -0.5837
  216SOL    HW2  863   3.056   3.129   2.686 -0.7097  1.7708  2.0201
  216SOL     MW  864   3.068   3.051   2.732  0.0925 -0.6359 -0.4695
  217SOL     OW  865   0.960   1.223   0.017 -0.0950  0.5458  0.4450
  217SOL    HW1  866   1.021   1.162  -0.028 -0.1933 -0.7078  1.5302
  217SOL    HW2  867   0.993   1.316  -0.013 -2.4023  1.3845 -0.9546
  217SOL     MW  868   0.972   1.227   0.007 -0.4124  0.4911  0.4035
  218SOL     OW  869   0.915   1.300   2.523  0.4783 -0.1646  0.7298
  218SOL    HW1  870   0.919   1.209   2.556  1.6596 -2.9602  2.3877
  218SOL    HW2  871   0.981   1.364   2.557 -2.5127  0.3945  3.0239
  218SOL     MW  872   0.924   1.296   2.532  0.2395 -0.4597  1.2512
  219SOL     OW  873   1.036   0.449   2.511 -0.0023 -0.0286  0.3541
  219SOL    HW1  874   1.090   0.514   2.463  2.8139 -0.0688  0.8286
  219SOL    HW2  875   0.982   0.502   2.563  1.1764 -0.5397 -0.3886
  219SOL     MW  876   1.036   0.465   2.511  0.5248 -0.1013  0.3187
  220SOL     OW  877   1.749   0.478   2.199 -0.3384 -0.5789 -0.8500
  220SOL    HW1  878   1.682   0.531   2.156 -1.8964 -0.2884  0.0867
  220SOL    HW2  879   1.763   0.391   2.158  1.2665  0.6464  2.1633
  220SOL     MW  880   1.742   0.473   2.188 -0.3322 -0.3789 -0.3288
  221SOL     OW  881   0.401   1.362   2.894 -0.1488 -0.6636  0.0323
  221SOL    HW1  882   0.408   1.270   2.866  1.2208 -2.4565 -2.1090
  221SOL    HW2  883   0.391   1.426   2.820  1.0541  1.4069 -2.2258
  221SOL     MW  884   0.400   1.358   2.881  0.1906 -0.6270 -0.5482
  222SOL     OW  885   0.314   0.966   2.639  0.1603 -0.2941 -0.1893
  222SOL    HW1  886   0.251   0.966   2.564  0.7894 -1.1051  2.2614
  222SOL    HW2  887   0.375   0.895   2.625 -1.7239  1.4147  2.1196
  222SOL     MW  888   0.314   0.957   2.627 -0.0053 -0.1756  0.4387
  223SOL     OW  889   3.093   1.999   2.602 -0.2435 -0.0258 -0.1545
  223SOL    HW1  890   3.170   1.936   2.640  1.2089 -1.2426  1.9466
  223SOL    HW2  891   3.122   2.028   2.513 -2.0919 -1.0546  1.6397
  223SOL     MW  892   3.107   1.994   2.596 -0.2957 -0.3221  0.3594
  224SOL     OW  893   1.460   0.825   2.601 -0.2467  0.2322 -0.7473
  224SOL    HW1  894   1.457   0.835   2.696  0.9999 -1.1440  1.9683
  224SOL    HW2  895   1.493   0.912   2.576  0.9694  1.9046  1.0215
  224SOL     MW  896   1.464   0.838   2.610  0.0782  0.2713 -0.1556
  225SOL     OW  897   2.951   1.486   2.252  0.7284  0.0849  0.0103
  225SOL    HW1  898   2.985   1.560   2.198 -0.2717  1.5589  1.2823
  225SOL    HW2  899   2.897   1.531   2.319  0.3522 -3.0215 -0.5624
  225SOL     MW  900   2.948   1.502   2.254  0.5468 -0.1305  0.1025
  226SOL     OW  901   0.388   1.447   2.636  0.2356 -0.3891 -0.1108
  226SOL    HW1  902   0.476   1.416   2.623 -2.4660 -1.6818  4.5609
  226SOL    HW2  903   0.387   1.535   2.601 -0.7916 -0.2831 -0.5660
  226SOL     MW  904   0.399   1.455   2.630 -0.2564 -0.5456  0.4455
  227SOL     OW  905   0.459   1.092   2.822  0.2609 -0.0336 -0.1396
  227SOL    HW1  906   0.543   1.122   2.794  0.0989 -2.1247  1.2774
  227SOL    HW2  907   0.413   1.045   2.745 -0.8620 -1.5011 -2.0928
  227SOL     MW  908   0.464   1.090   2.808  0.0914 -0.5031 -0.2103
  228SOL     OW  909   0.688   0.999   2.002  0.1944 -0.1366  0.7517
  228SOL    HW1  910   0.777   1.032   1.991 -1.7140 -0.6314  1.4027
  228SOL    HW2  911   0.674   0.976   2.099 -1.1706  0.8867 -1.0095
  228SOL     MW  912   0.698   1.000   2.013 -0.2375 -0.0669  0.6052
  229SOL     OW  913   0.199   0.507   3.092 -0.0832  0.7758  0.2654
  229SOL    HW1  914   0.146   0.474   3.019  0.1974  2.7892  0.6296
  229SOL    HW2  915   0.159   0.470   3.173 -0.6526  3.2879 -2.5672
  229SOL     MW  916   0.187   0.497   3.093 -0.1213  1.3729 -0.0603
  230SOL     OW  917   1.775   1.376   2.062  0.1328 -0.0405 -0.3908
  230SOL    HW1  918   1.740   1.372   2.155 -1.6629  2.8470  0.2364
  230SOL    HW2  919   1.822   1.298   2.040 -0.1990  2.3272 -0.4742
  230SOL     MW  920   1.776   1.365   2.071 -0.1479  0.6529 -0.3190
  231SOL     OW  921   2.753   1.299   2.154 -0.0549  0.3536  0.6580
  231SOL    HW1  922   2.839   1.343   2.153  0.8715  0.9345  1.7263
  231SOL    HW2  923   2.687   1.331   2.093 -0.3146 -0.8151  3.1594
  231SOL     MW  924   2.755   1.309   2.146  0.0330  0.2760  1.1290
  232SOL     OW  925   2.290   0.879   2.121 -0.1869 -0.3039 -0.0380
  232SOL    HW1  926   2.234   0.938   2.072  1.4414  1.3315 -0.2958
  232SOL    HW2  927   2.246   0.853   2.205  1.4264 -2.0384  1.2328
  232SOL     MW  928   2.277   0.883   2.125  0.2408 -0.3170  0.0957
  233SOL     OW  929   2.048   0.538   1.940  0.1777  0.3798 -0.3563
  233SOL    HW1  930   2.072   0.606   1.874  0.0707 -1.4355  2.4662
  233SOL    HW2  931   2.125   0.540   1.998 -0.1241  0.9926 -0.0153
  233SOL     MW  932   2.061   0.547   1.939  0.1238  0.2212  0.0611
  234SOL     OW  933   0.268   0.984   2.322 -0.4166  0.4229  0.0642
  234SOL    HW1  934   0.196   1.046   2.296 -0.0939  1.7289 -1.6364
  234SOL    HW2  935   0.337   1.045   2.346 -0.3851 -1.3902 -0.2061
  234SOL     MW  936   0.267   1.001   2.322 -0.3699  0.3560 -0.1959
  235SOL     OW  937   1.048   3.051   2.780  0.3214 -0.1593 -0.6607
  235SOL    HW1  938   1.028   2.978   2.836 -0.6005  0.9076 -2.2808
  235SOL    HW2  939   1.021   3.135   2.824  0.0090 -0.3830 -2.1810
  235SOL     MW  940   1.042   3.053   2.793  0.1585 -0.0480 -1.0751
  236SOL     OW  941   2.932   0.523   0.032  0.1890  0.4613  0.0842
  236SOL    HW1  942   2.843   0.526  -0.011 -3.1251  1.4473  1.0446
  236SOL    HW2  943   2.964   0.611   0.060 -1.3543  0.7282 -1.1468
  236SOL     MW  944   2.924   0.535   0.030 -0.4519  0.6266  0.0485
  237SOL     OW  945   1.752   0.888   2.176  0.1196  0.4264 -0.3622
  237SOL    HW1  946   1.772   0.955   2.105 -0.1877  1.7629 -0.5313
  237SOL    HW2  947   1.795   0.910   2.258  0.3712  2.3901 -2.0555
  237SOL     MW  948   1.760   0.900   2.177  0.1122  0.8618 -0.6079
  238SOL     OW  949   1.072   1.738   2.957 -0.2410  0.1973 -0.1091
  238SOL    HW1  950   1.048   1.646   2.945 -1.4519 -0.9463  2.9953
  238SOL    HW2  951   1.170   1.736   2.960  0.1162 -0.9004 -2.2411
  238SOL     MW  952   1.082   1.725   2.955 -0.3536 -0.0984  0.0192
  239SOL     OW  953   1.151   1.417   2.318  0.5618  0.5296  0.0922
  239SOL    HW1  954   1.134   1.427   2.414  0.5969 -0.6920  0.7439
  239SOL    HW2  955   1.186   1.327   2.330 -4.0180  0.1282 -0.1995
  239SOL     MW  956   1.154   1.406   2.332 -0.0378  0.3154  0.1397
  240SOL     OW  957   0.632   0.877   2.261 -0.7457 -0.1717 -0.2935
  240SOL    HW1  958   0.666   0.933   2.324  0.0188  0.8817 -2.5434
  240SOL    HW2  959   0.719   0.841   2.236  2.6015  0.2181  1.6286
  240SOL     MW  960   0.648   0.880   2.266 -0.2032  0.0187 -0.3368
  241SOL     OW  961   0.635   0.336   2.991  0.2128  0.1230  0.1634
  241SOL    HW1  962   0.669   0.380   3.072  2.5824 -2.7908  0.8826
  241SOL    HW2  963   0.547   0.376   2.974  0.5182  0.5646 -1.8513
  241SOL     MW  964   0.628   0.347   2.999  0.5657 -0.2032 -0.0075
  242SOL     OW  965   1.498   1.760   2.319 -0.1201  0.2591 -0.3023
  242SOL    HW1  966   1.448   1.833   2.355  0.5363  2.2032  0.5214
  242SOL    HW2  967   1.434   1.713   2.270  0.2769 -0.2986 -0.4195
  242SOL     MW  968   1.483   1.764   2.317  0.0189  0.4420 -0.2091
  243SOL     OW  969   0.949   0.205   2.332  0.2297  0.0371 -0.1379
  243SOL    HW1  970   1.041   0.198   2.307  0.9673 -2.6141  0.0222
  243SOL    HW2  971   0.955   0.263   2.402 -3.0061  1.4777  0.0454
  243SOL     MW  972   0.962   0.212   2.338 -0.0999 -0.1226 -0.0926
  244SOL     OW  973   0.207   0.730   2.310  0.1752  0.3419 -0.1140
  244SOL    HW1  974   0.232   0.815   2.288  1.2656 -3.0298  1.1462
  244SOL    HW2  975   0.290   0.689   2.338  0.7570 -0.8534  0.3066
  244SOL     MW  976   0.221   0.736   2.311  0.3958 -0.2607  0.1078
  245SOL     OW  977   1.212   0.226   2.344  0.1549  0.9072 -0.0706
  245SOL    HW1  978   1.234   0.131   2.357 -0.9433 -0.2749  0.3569
  245SOL    HW2  979   1.264   0.272   2.406 -0.0058  0.0956  1.5108
  245SOL     MW  980   1.221   0.219   2.354 -0.0112  0.6442  0.1944
  246SOL     OW  981   1.260   1.162   2.099  0.3780  0.2910 -0.1747
  246SOL    HW1  982   1.209   1.108   2.165  0.7823 -1.7447  2.2459
  246SOL    HW2  983   1.349   1.178   2.136 -2.2377 -0.9929  0.8716
  246SOL     MW  984   1.265   1.157   2.112  0.0862 -0.1470  0.2827
  247SOL     OW  985   0.707   0.514   0.107 -0.1531 -0.5122  0.4008
  247SOL    HW1  986   0.677   0.604   0.088  1.4869 -0.2973 -3.8291
  247SOL    HW2  987   0.807   0.525   0.105 -0.4014 -0.4435 -3.4245
  247SOL     MW  988   0.717   0.528   0.104  0.0305 -0.4747 -0.6620
  248SOL     OW  989   0.433   1.187   2.485  0.1879 -0.5073  0.5078
  248SOL    HW1  990   0.408   1.233   2.408 -0.2925  1.2530  1.2494
  248SOL    HW2  991   0.378   1.228   2.556 -1.2699  3.3127  0.6275
  248SOL     MW  992   0.423   1.199   2.485 -0.0678  0.2290  0.6215
  249SOL     OW  993   0.191   1.850   2.709 -0.3307 -0.1134 -0.0799
  249SOL    HW1  994   0.152   1.760   2.689  1.3313 -0.4901 -2.5609
  249SOL    HW2  995   0.197   1.854   2.806  0.1402 -0.3758  0.2577
  249SOL     MW  996   0.187   1.839   2.719 -0.0493 -0.1977 -0.3627
  250SOL     OW  997   2.154   0.879   2.357 -0.5223 -0.2764  0.4628
  250SOL    HW1  998   2.226   0.812   2.374  4.3462 -1.5951  0.4267
  250SOL    HW2  999   2.195   0.955   2.403  0.1140 -1.2448  0.7451
  250SOL     MW 1000   2.169   0.880   2.366  0.2040 -0.5781  0.4953
  251SOL     OW 1001   0.202   0.798   2.007  0.5257 -0.2687  0.3327
  251SOL    HW1 1002   0.212   0.722   2.066  0.4447 -2.2845  2.4098
  251SOL    HW2 1003   0.213   0.762   1.916 -0.6358 -3.7231  0.0925
  251SOL     MW 1004   0.205   0.783   2.003  0.3618 -0.9904  0.5751
  252SOL     OW 1005   1.706   1.007   2.828 -0.2150 -0.4612  0.1617
  252SOL    HW1 1006   1.704   1.050   2.917  0.5995 -2.7080  1.7166
  252SOL    HW2 1007   1.749   1.061   2.764  0.5375  1.6622  1.2386
  252SOL     MW 1008   1.711   1.020   2.831 -0.0083 -0.4775  0.5089
  253SOL     OW 1009   1.161   1.729   2.530 -0.1295  0.1523 -0.0420
  253SOL    HW1 1010   1.145   1.754   2.435 -0.2967 -0.5316 -0.6967
  253SOL    HW2 1011   1.082   1.765   2.576  2.9453 -0.8125 -0.2416
  253SOL     MW 1012   1.149   1.737   2.524  0.2541 -0.0652 -0.1547
  254SOL     OW 1013   1.060   1.072   2.243  0.2226  0.7019 -1.0126
  254SOL    HW1 1014   1.034   0.987   2.205  1.1841  1.3126 -0.8458
  254SOL    HW2 1015   0.980   1.117   2.254  0.0188 -1.0519  0.7822
  254SOL     MW 1016   1.046   1.066   2.240  0.3226  0.5511 -0.7538
  255SOL     OW 1017   0.822   2.431   2.212  0.6271  0.3818 -0.1846
  255SOL    HW1 1018   0.738   2.402   2.241  1.1231 -1.3412 -0.4031
  255SOL    HW2 1019   0.870   2.447   2.294 -1.1950 -2.5453  0.5200
  255SOL     MW 1020   0.817   2.430   2.226  0.4521 -0.2317 -0.1204
  256SOL     OW 1021   1.142   2.818   2.887  0.1804 -0.2833 -0.5064
  256SOL    HW1 1022   1.162   2.727   2.896 -1.9973 -0.4695 -1.8325
  256SOL    HW2 1023   1.232   2.866   2.878  1.3015  2.0447 -2.6535
  256SOL     MW 1024   1.156   2.812   2.887  0.0410 -0.0007 -0.9647
  257SOL     OW 1025   0.135   1.877   0.100  0.7345  0.4343 -0.1570
  257SOL    HW1 1026   0.172   1.831   0.177 -2.8379  1.0434 -1.7986
  257SOL    HW2 1027   0.131   1.813   0.029  0.4177  0.4351  2.0021
  257SOL     MW 1028   0.139   1.863   0.101  0.2214  0.5148 -0.0887
  258SOL     OW 1029   0.699   1.097   2.474  0.7063 -0.1363  0.7400
  258SOL    HW1 1030   0.705   1.165   2.413 -2.3310  0.3116 -0.0074
  258SOL    HW2 1031   0.601   1.116   2.498  0.1826  0.8624 -0.3374
  258SOL     MW 1032   0.687   1.109   2.469  0.2365  0.0546  0.4992
  259SOL     OW 1033   0.705   0.498   2.395  0.4203  0.3201 -0.3390
  259SOL    HW1 1034   0.620   0.544   2.367 -1.7700 -3.7276 -1.0080
  259SOL    HW2 1035   0.681   0.408   2.373 -1.8831  1.1645  1.4948
  259SOL     MW 1036   0.690   0.492   2.388 -0.1726 -0.1025 -0.1853
  260SOL     OW 1037   0.588   0.123   1.604  0.3933  0.3383 -0.3612
  260SOL    HW1 1038   0.537   0.094   1.527  0.3669 -1.1111  1.1279
  260SOL    HW2 1039   0.679   0.116   1.576  0.6691  0.4548  1.0933
  260SOL     MW 1040   0.593   0.118   1.590  0.4262  0.1624  0.0271
  261SOL     OW 1041   1.149   0.710   2.086  0.5933 -0.7584 -0.2309
  261SOL    HW1 1042   1.170   0.700   2.177  2.4140  0.3088 -1.4168
  261SOL    HW2 1043   1.221   0.668   2.040  3.5767  0.9746 -0.5439
  261SOL     MW 1044   1.161   0.703   2.092  1.2271 -0.3889 -0.4286
  262SOL     OW 1045   1.143   0.325   0.077  0.0214 -0.4654  0.4059
  262SOL    HW1 1046   1.235   0.308   0.066  0.8326 -1.7167 -0.5093
  262SOL    HW2 1047   1.097   0.242   0.068  0.5749  1.5993  0.5574
  262SOL     MW 1048   1.149   0.312   0.074  0.2015 -0.3581  0.3051
  263SOL     OW 1049   0.460   3.025   2.537  0.1228  0.0051 -0.7186
  263SOL    HW1 1050   0.404   3.102   2.542 -0.4678  0.4774  1.2056
  263SOL    HW2 1051   0.491   3.016   2.448  0.7613  0.2319 -0.9129
  263SOL     MW 1052   0.457   3.034   2.526  0.1291  0.0973 -0.4904
  264SOL     OW 1053   1.539   1.345   1.926 -0.1482 -0.7562 -0.5213
  264SOL    HW1 1054   1.475   1.367   1.990  0.4275 -0.4384  1.2920
  264SOL    HW2 1055   1.619   1.359   1.981 -0.0413 -3.5772 -0.5576
  264SOL     MW 1056   1.541   1.350   1.942 -0.0581 -1.0865 -0.2868
  265SOL     OW 1057   0.686   2.654   2.258 -0.6913 -0.3823  0.4220
  265SOL    HW1 1058   0.758   2.585   2.246  3.6580  0.5583  2.6162
  265SOL    HW2 1059   0.678   2.662   2.348  1.8958 -0.3947 -0.8724
  265SOL     MW 1060   0.694   2.646   2.269  0.2239 -0.2598  0.5407
  266SOL     OW 1061   0.881   0.797   2.206  0.5370 -0.2163  0.0939
  266SOL    HW1 1062   0.899   0.734   2.134 -1.5547  2.0458 -0.8602
  266SOL    HW2 1063   0.924   0.757   2.277 -0.2568 -0.9137 -2.3765
  266SOL     MW 1064   0.889   0.784   2.206  0.1563 -0.0098 -0.3579
  267SOL     OW 1065   1.386   1.763   2.691 -0.2235 -0.5322  0.1025
  267SOL    HW1 1066   1.451   1.714   2.638  2.9565 -2.1377 -1.5488
  267SOL    HW2 1067   1.305   1.733   2.644 -0.7425 -1.6138 -2.3508
  267SOL     MW 1068   1.384   1.753   2.678  0.1276 -0.8867 -0.4391
  268SOL     OW 1069   0.220   0.764   1.743  0.4558 -0.1623  0.6116
  268SOL    HW1 1070   0.151   0.819   1.702  0.5323 -0.9031 -0.8296
  268SOL    HW2 1071   0.235   0.681   1.689 -2.0357  4.1204 -0.4612
  268SOL     MW 1072   0.213   0.760   1.730  0.1372  0.3050  0.2799
  269SOL     OW 1073   1.379   1.968   2.465 -0.8760 -0.3882 -0.4263
  269SOL    HW1 1074   1.392   1.911   2.545  3.8052 -0.2739  2.3893
  269SOL    HW2 1075   1.298   2.017   2.487 -4.8591  0.9493  4.2308
  269SOL     MW 1076   1.370   1.967   2.479 -0.7839 -0.1966  0.5597
  270SOL     OW 1077   1.166   0.403   1.588  0.7527 -0.4613  0.3996
  270SOL    HW1 1078   1.148   0.316   1.620 -1.5559 -1.3828 -0.2921
  270SOL    HW2 1079   1.259   0.406   1.576 -0.3602 -1.2318  1.9847
  270SOL     MW 1080   1.176   0.392   1.590  0.3013 -0.6846  0.5175
  271SOL     OW 1081   0.825   3.038   2.399  0.0493 -0.5811  0.0562
  271SOL    HW1 1082   0.873   3.002   2.471 -1.3376 -0.0087  2.2500
  271SOL    HW2 1083   0.871   3.119   2.379 -0.6734  0.9492 -0.2800
  271SOL     MW 1084   0.838   3.044   2.406 -0.2291 -0.3037  0.3013
  272SOL     OW 1085   1.401   2.911   2.836  0.0188 -0.5024 -0.7306
  272SOL    HW1 1086   1.373   2.981   2.771 -2.3462  3.7287 -0.2437
  272SOL    HW2 1087   1.441   2.954   2.912  0.1503 -0.9109  1.9933
  272SOL     MW 1088   1.403   2.926   2.837 -0.2759  0.0020 -0.3070
  273SOL     OW 1089   1.435   0.937   2.868  0.1214 -0.5073 -0.2846
  273SOL    HW1 1090   1.522   0.963   2.853 -0.1924  0.6213 -0.1112
  273SOL    HW2 1091   1.391   1.012   2.904  1.8296  0.1320 -0.2474
  273SOL     MW 1092   1.441   0.950   2.871  0.3053 -0.2740 -0.2568
  274SOL     OW 1093   1.350   0.750   0.195  0.4810 -0.0176  0.4382
  274SOL    HW1 1094   1.398   0.667   0.208  1.1231 -1.6675  1.2027
  274SOL    HW2 1095   1.260   0.730   0.220 -1.8568  1.2464 -0.1664
  274SOL     MW 1096   1.344   0.737   0.200  0.2572 -0.0685  0.4593
  275SOL     OW 1097   1.721   0.683   1.836 -0.3350 -1.1246  0.0486
  275SOL    HW1 1098   1.787   0.710   1.908 -0.9170  1.5978 -0.5998
  275SOL    HW2 1099   1.691   0.599   1.868  0.1064  0.6757  1.1830
  275SOL     MW 1100   1.726   0.675   1.850 -0.3535 -0.5278  0.1127
  276SOL     OW 1101   0.241   1.214   1.802  0.4348  0.4470  0.1314
  276SOL    HW1 1102   0.274   1.139   1.852 -0.4084  1.9592  2.0059
  276SOL    HW2 1103   0.162   1.234   1.844  0.6542 -1.0028  0.3646
  276SOL     MW 1104   0.235   1.207   1.814  0.3525  0.4553  0.4095
  277SOL     OW 1105   1.938   1.352   2.618  0.0928 -0.2530 -0.3112
  277SOL    HW1 1106   2.020   1.397   2.647  2.8886 -1.7625 -0.7577
  277SOL    HW2 1107   1.950   1.262   2.635 -0.9049 -0.3569  4.0226
  277SOL     MW 1108   1.950   1.346   2.624  0.3300 -0.4658  0.2017
  278SOL     OW 1109   1.441   0.729   1.738  0.5705  0.1451  0.3671
  278SOL    HW1 1110   1.430   0.651   1.794 -1.2970  1.4490  1.1295
  278SOL    HW2 1111   1.530   0.754   1.764 -0.0439  0.3393 -0.8797
  278SOL     MW 1112   1.451   0.722   1.749  0.2430  0.3427  0.3032
  279SOL     OW 1113   0.549   3.097   2.228 -0.4185  0.3555 -0.4341
  279SOL    HW1 1114   0.616   3.047   2.179 -0.7684 -3.2683  0.7179
  279SOL    HW2 1115   0.592   3.183   2.246 -2.4655  1.2492  2.0076
  279SOL     MW 1116   0.564   3.102   2.224 -0.7347 -0.0047  0.0400
  280SOL     OW 1117   1.490   1.149   2.213  0.1923 -0.3295  0.3210
  280SOL    HW1 1118   1.501   1.079   2.148  0.2870  1.0702 -1.1707
  280SOL    HW2 1119   1.474   1.107   2.302 -0.1197 -2.2206  2.8862
  280SOL     MW 1120   1.489   1.134   2.216  0.1636 -0.3944  0.4626
  281SOL     OW 1121   1.286   1.354   2.816  0.3883 -0.5019  0.0281
  281SOL    HW1 1122   1.372   1.402   2.825 -0.8015  0.7000  0.1937
  281SOL    HW2 1123   1.282   1.278   2.877 -0.9647 -2.5837  0.5189
  281SOL     MW 1124   1.297   1.351   2.825  0.0528 -0.6180  0.1147
  282SOL     OW 1125   1.136   1.299   1.686 -0.0697 -0.1796  0.0687
  282SOL    HW1 1126   1.127   1.346   1.598 -0.2975 -0.7874 -0.2233
  282SOL    HW2 1127   1.050   1.290   1.725  0.4796 -2.0990  0.5906
  282SOL     MW 1128   1.123   1.304   1.679 -0.0273 -0.5130  0.0990
  283SOL     OW 1129   0.691   1.278   3.049 -0.0515  0.7726  0.9521
  283SOL    HW1 1130   0.765   1.252   3.097 -1.8005  1.5609  3.2215
  283SOL    HW2 1131   0.649   1.343   3.101  0.4814 -1.5211  0.4285
  283SOL     MW 1132   0.695   1.283   3.062 -0.2120  0.5740  1.1824
  284SOL     OW 1133   0.475   0.648   2.359  0.5672  0.8064 -0.4021
  284SOL    HW1 1134   0.516   0.715   2.306  2.4919 -2.2278  1.0112
  284SOL    HW2 1135   0.432   0.593   2.290 -0.9228  1.9343  2.5650
  284SOL     MW 1136   0.475   0.649   2.343  0.6245  0.5549  0.1758
  285SOL     OW 1137   0.857   0.980   2.874 -0.8461 -0.1619 -0.4173
  285SOL    HW1 1138   0.888   0.995   2.785 -0.7347 -4.2205 -2.5709
  285SOL    HW2 1139   0.791   0.914   2.845 -0.3171  3.7436 -1.8150
  285SOL     MW 1140   0.852   0.974   2.858 -0.7616 -0.1821 -0.8858
  286SOL     OW 1141   1.160   1.460   2.588 -0.4441  0.0031  0.2276
  286SOL    HW1 1142   1.210   1.426   2.658 -0.3232  4.2615 -0.9549
  286SOL    HW2 1143   1.184   1.556   2.573 -0.8090 -0.2518 -3.3549
  286SOL     MW 1144   1.170   1.468   2.595 -0.4763  0.5313 -0.4011
  287SOL     OW 1145   1.029   0.929   0.343 -0.2181 -0.1722 -0.0929
  287SOL    HW1 1146   1.099   0.960   0.403 -1.5304  0.4932 -1.4897
  287SOL    HW2 1147   0.979   1.005   0.305 -0.4013 -2.1207  0.5833
  287SOL     MW 1148   1.031   0.943   0.346 -0.4154 -0.3415 -0.1880
  288SOL     OW 1149   1.542   0.642   2.100  0.4715 -0.7970 -0.2827
  288SOL    HW1 1150   1.533   0.642   2.202  2.0475  1.1036 -1.2904
  288SOL    HW2 1151   1.526   0.736   2.072 -1.7332  0.1496  0.1377
  288SOL     MW 1152   1.538   0.655   2.110  0.3885 -0.4213 -0.3602
  289SOL     OW 1153   0.950   1.039   2.624  0.2690 -0.7834 -0.1705
  289SOL    HW1 1154   1.013   0.974   2.620 -1.7070  1.1243  2.0958
  289SOL    HW2 1155   0.877   1.025   2.561  0.4908 -1.1299 -1.6957
  289SOL     MW 1156   0.948   1.029   2.615  0.0375 -0.5774 -0.0727
  290SOL     OW 1157   0.854   0.566   1.500 -0.1811  0.2742 -0.0347
  290SOL    HW1 1158   0.909   0.546   1.425 -0.0014  0.2535 -0.6996
  290SOL    HW2 1159   0.901   0.591   1.578 -0.8849 -0.9494  0.4601
  290SOL     MW 1160   0.867   0.567   1.500 -0.2502  0.1100 -0.0571
  291SOL     OW 1161   0.152   0.325   0.225 -0.7335  0.0506 -0.1496
  291SOL    HW1 1162   0.250   0.311   0.242 -0.1833  1.1294  0.9037
  291SOL    HW2 1163   0.133   0.259   0.153  4.5784 -2.8436  0.0576
  291SOL     MW 1164   0.163   0.314   0.218  0.0399 -0.1889  0.0168
  292SOL     OW 1165   0.969   0.547   0.092  0.0692 -0.5756 -0.5997
  292SOL    HW1 1166   1.000   0.603   0.164  0.9822 -0.1021 -3.0701
  292SOL    HW2 1167   1.031   0.476   0.093 -0.8049 -0.1477 -0.5728
  292SOL     MW 1168   0.981   0.545   0.102  0.0743 -0.4566 -0.9221
  293SOL     OW 1169   0.232   0.088   2.488 -0.3979  0.3327 -0.7000
  293SOL    HW1 1170   0.161   0.026   2.479 -0.8735 -0.4146  2.5489
  293SOL    HW2 1171   0.204   0.149   2.554 -1.2516 -0.4268 -0.0603
  293SOL     MW 1172   0.219   0.088   2.496 -0.5733  0.1339 -0.1869
  294SOL     OW 1173   1.486   0.659   2.381  0.4919  0.5474 -0.2121
  294SOL    HW1 1174   1.458   0.719   2.461 -1.0945  1.6064  2.7585
  294SOL    HW2 1175   1.501   0.569   2.421  0.6695  0.4740  0.8747
  294SOL     MW 1176   1.484   0.655   2.397  0.3060  0.6775  0.3233
  295SOL     OW 1177   0.885   0.690   2.513  0.4566  0.5192 -0.1836
  295SOL    HW1 1178   0.829   0.628   2.471  1.1876 -0.5632 -3.6373
  295SOL    HW2 1179   0.831   0.704   2.597  2.2469 -0.4102  2.0073
  295SOL     MW 1180   0.870   0.684   2.518  0.7893  0.2538 -0.3502
  296SOL     OW 1181   1.310   0.281   2.086 -0.7525 -0.5324  0.1050
  296SOL    HW1 1182   1.400   0.238   2.054  0.8733 -1.2945 -0.5119
  296SOL    HW2 1183   1.303   0.256   2.182 -1.0083  0.4276  1.8253
  296SOL     MW 1184   1.321   0.272   2.094 -0.5717 -0.5063  0.2506
  297SOL     OW 1185   1.423   0.430   1.537 -0.0286  0.2490  0.3456
  297SOL    HW1 1186   1.458   0.518   1.526 -0.8986 -0.4764  0.3506
  297SOL    HW2 1187   1.476   0.382   1.603 -1.0997 -3.5947 -0.4010
  297SOL     MW 1188   1.435   0.435   1.544 -0.2847 -0.3538  0.2478
  298SOL     OW 1189   1.497   0.921   2.047  0.0626  0.3462  0.1048
  298SOL    HW1 1190   1.519   0.963   1.963  1.0581  1.2202  1.6367
  298SOL    HW2 1191   1.576   0.924   2.106 -0.1409  2.1445  1.8098
  298SOL     MW 1192   1.510   0.927   2.044  0.1671  0.6988  0.5319
  299SOL     OW 1193   0.506   1.085   3.104 -0.4079 -0.3379 -0.1969
  299SOL    HW1 1194   0.560   1.156   3.068 -1.1847  3.5101 -2.4456
  299SOL    HW2 1195   0.470   1.056   3.020  2.0991  0.4849  1.4095
  299SOL     MW 1196   0.508   1.091   3.088 -0.1796  0.2784 -0.2816
  300SOL     OW 1197   1.266   1.155   2.511 -0.2040  0.0188 -0.1137
  300SOL    HW1 1198   1.201   1.097   2.489 -0.0643  2.6542 -0.6584
  300SOL    HW2 1199   1.246   1.206   2.590  3.0706 -0.0792 -1.0138
  300SOL     MW 1200   1.255   1.154   2.519  0.2465  0.3536 -0.3043
  301SOL     OW 1201   1.358   0.775   0.579 -0.1623  1.0591 -0.1899
  301SOL    HW1 1202   1.386   0.718   0.651 -0.1534  0.5144 -1.0561
  301SOL    HW2 1203   1.265   0.766   0.599  2.0855 -1.3477 -0.5055
  301SOL     MW 1204   1.350   0.766   0.591  0.1355  0.6697 -0.3458
  302SOL     OW 1205   0.116   1.477   1.990 -0.2943  0.1951  0.0291
  302SOL    HW1 1206   0.086   1.420   2.058  1.1306  0.5519  1.3035
  302SOL    HW2 1207   0.085   1.564   2.006 -1.5831 -0.3183 -0.2941
  302SOL     MW 1208   0.108   1.481   2.001 -0.2764  0.1744  0.1546
  303SOL     OW 1209   0.401   1.755   2.558 -0.0808 -0.3496  0.0494
  303SOL    HW1 1210   0.395   1.778   2.467  3.4498  2.6593  0.4006
  303SOL    HW2 1211   0.326   1.796   2.596  3.2504 -1.1882 -0.9150
  303SOL     MW 1212   0.390   1.764   2.551  0.8246 -0.0633 -0.0315
  304SOL     OW 1213   0.614   2.095   2.420  0.0902  0.2610 -0.2304
  304SOL    HW1 1214   0.651   2.172   2.378  2.2884 -2.5172 -3.1396
  304SOL    HW2 1215   0.666   2.020   2.402  1.7386 -0.7728  0.2688
  304SOL     MW 1216   0.625   2.096   2.412  0.5977 -0.2420 -0.5483
  305SOL     OW 1217   1.120   0.536   0.542 -0.7536  0.2451  0.0162
  305SOL    HW1 1218   1.021   0.531   0.525 -4.1454 -2.6992 -0.4925
  305SOL    HW2 1219   1.152   0.445   0.525  2.1538  0.0262  1.5284
  305SOL     MW 1220   1.111   0.523   0.538 -0.8175 -0.1722  0.1486
  306SOL     OW 1221   1.210   1.464   0.334 -0.6270  0.4897  0.0832
  306SOL    HW1 1222   1.240   1.374   0.357 -0.7347  0.1241  0.5809
  306SOL    HW2 1223   1.243   1.479   0.248  0.3573 -1.1745  4.6730
  306SOL     MW 1224   1.218   1.454   0.325 -0.5113  0.2219  0.7545
  307SOL     OW 1225   1.324   0.543   1.937  0.3639 -0.2166  0.0037
  307SOL    HW1 1226   1.288   0.468   1.973  1.3603  0.7141  1.0750
  307SOL    HW2 1227   1.406   0.565   1.987  0.3229  2.8948 -3.6719
  307SOL     MW 1228   1.330   0.536   1.948  0.4899  0.3167 -0.3399
  308SOL     OW 1229   2.105   0.638   2.654 -0.0620 -0.3791 -0.3211
  308SOL    HW1 1230   2.181   0.616   2.706  4.2542  3.3656 -0.3585
  308SOL    HW2 1231   2.124   0.735   2.661 -0.1767  1.5714  0.0242
  308SOL     MW 1232   2.117   0.647   2.661  0.4924  0.3723 -0.2805
  309SOL     OW 1233   0.609   0.486   0.422 -0.2249 -0.7991 -0.5001
  309SOL    HW1 1234   0.608   0.403   0.466  0.3884 -1.7197 -0.6976
  309SOL    HW2 1235   0.602   0.456   0.332  1.6208 -0.7698  0.1186
  309SOL     MW 1236   0.608   0.471   0.416  0.0996 -0.9167 -0.4446
  310SOL     OW 1237   0.456   0.509   1.932 -0.0991  0.5325  0.0500
  310SOL    HW1 1238   0.476   0.437   1.866  0.5600  2.2545 -1.2929
  310SOL    HW2 1239   0.494   0.590   1.901 -0.2162  0.1832 -0.4475
  310SOL     MW 1240   0.463   0.511   1.920 -0.0276  0.7136 -0.1928
  311SOL     OW 1241   1.916   0.763   1.986 -0.0402 -0.2404  0.3374
  311SOL    HW1 1242   1.878   0.808   2.068  0.4121  1.1258  1.0565
  311SOL    HW2 1243   1.968   0.685   2.003  0.3785  0.5713 -1.2133
  311SOL     MW 1244   1.917   0.759   1.999  0.0748  0.0469  0.2277
  312SOL     OW 1245   1.772   2.516   0.028 -0.6604 -0.2599 -0.1631
  312SOL    HW1 1246   1.831   2.555   0.092 -1.1467 -0.7261  1.7993
  312SOL    HW2 1247   1.685   2.548   0.058  2.0555 -2.0845  1.4420
  312SOL     MW 1248   1.768   2.525   0.040 -0.3662 -0.5621  0.3076
  313SOL     OW 1249   0.090   1.199   2.937 -0.0859 -0.8858 -0.1191
  313SOL    HW1 1250   0.168   1.193   2.992  0.0756  1.5408  2.8417
  313SOL    HW2 1251   0.116   1.238   2.855 -1.1249  0.6164  2.6226
  313SOL     MW 1252   0.104   1.203   2.934 -0.2017 -0.3674  0.6333
  314SOL     OW 1253   2.137   3.017   2.975  0.1728  0.2033 -0.0151
  314SOL    HW1 1254   2.086   3.073   2.918  0.6126 -1.7164  0.9455
  314SOL    HW2 1255   2.178   3.072   3.038 -2.0048  2.1734 -2.2041
  314SOL     MW 1256   2.136   3.032   2.976 -0.0565  0.2100 -0.1772
  315SOL     OW 1257   1.548   1.958   3.032 -0.3470  0.4549  0.0691
  315SOL    HW1 1258   1.484   2.020   3.080  0.2046 -0.3570 -1.7540
  315SOL    HW2 1259   1.577   2.012   2.948  1.6904  0.6343 -2.8389
  315SOL     MW 1260   1.543   1.974   3.028 -0.0054  0.3714 -0.5551
  316SOL     OW 1261   1.251   0.657   2.717 -0.1659  0.4461 -0.5883
  316SOL    HW1 1262   1.348   0.648   2.727  1.9182  0.4232 -3.1709
  316SOL    HW2 1263   1.220   0.571   2.747  0.3576 -2.8406  0.2086
  316SOL     MW 1264   1.260   0.644   2.723  0.1781  0.0095 -0.8239
  317SOL     OW 1265   0.666   1.424   2.637 -0.0407 -0.0319  0.0704
  317SOL    HW1 1266   0.659   1.346   2.690 -1.8456  1.6410 -2.4252
  317SOL    HW2 1267   0.738   1.402   2.577  2.5393 -1.5940 -3.4941
  317SOL     MW 1268   0.675   1.411   2.636  0.0615 -0.0173 -0.7292
  318SOL     OW 1269   1.337   0.349   2.886  0.5521 -0.0953  0.0898
  318SOL    HW1 1270   1.245   0.389   2.880 -0.9271  2.5798 -0.4244
  318SOL    HW2 1271   1.395   0.419   2.863 -1.2311  2.5215  2.8276
  318SOL     MW 1272   1.333   0.363   2.882  0.1217  0.6029  0.3832
  319SOL     OW 1273   0.801   0.435   2.824 -0.2324  0.2882  0.5356
  319SOL    HW1 1274   0.767   0.382   2.751 -0.2154 -0.1781  1.8526
  319SOL    HW2 1275   0.740   0.403   2.894  0.0576  1.6011  2.2698
  319SOL     MW 1276   0.789   0.424   2.824 -0.1919  0.3999  0.9382
  320SOL     OW 1277   1.030   1.330   2.072  0.3150 -0.1257  0.1050
  320SOL    HW1 1278   1.106   1.274   2.106 -1.2037  0.5223 -0.3369
  320SOL    HW2 1279   1.073   1.379   2.002 -2.0336 -1.4169  0.5330
  320SOL     MW 1280   1.046   1.329   2.068 -0.1952 -0.2106  0.1032
  321SOL     OW 1281   1.067   0.948   3.028  0.0738 -0.0413  0.6132
  321SOL    HW1 1282   0.987   0.933   2.975 -1.4944  1.6806 -0.1657
  321SOL    HW2 1283   1.111   0.866   3.043 -0.0107 -0.0727  0.2562
  321SOL     MW 1284   1.063   0.935   3.023 -0.1443  0.1817  0.4633
  322SOL     OW 1285   1.196   0.843   1.733 -0.4877  0.5141  0.2859
  322SOL    HW1 1286   1.285   0.809   1.724 -0.0655  0.1817 -1.3984
  322SOL    HW2 1287   1.178   0.869   1.824 -1.5901  2.2248 -0.8441
  322SOL     MW 1288   1.205   0.842   1.744 -0.5775  0.6960 -0.0855
  323SOL     OW 1289   1.164   1.514   1.880  0.1721 -0.3510 -0.1860
  323SOL    HW1 1290   1.177   1.445   1.817  0.9743  4.5825  1.4118
  323SOL    HW2 1291   1.098   1.580   1.841  1.7542  1.7150 -1.3459
  323SOL     MW 1292   1.157   1.514   1.866  0.4867  0.5725 -0.1282
  324SOL     OW 1293   1.525   1.074   2.488  0.2980 -0.1944 -0.1953
  324SOL    HW1 1294   1.430   1.108   2.507  2.2266 -0.5800  1.9754
  324SOL    HW2 1295   1.582   1.123   2.545 -2.2586 -2.5611 -2.1238
  324SOL     MW 1296   1.520   1.085   2.498  0.2152 -0.5575 -0.1633
  325SOL     OW 1297   1.095   0.496   2.888 -0.0249  0.1014  0.4333
  325SOL    HW1 1298   1.120   0.570   2.935 -0.8316  1.1281 -1.2305
  325SOL    HW2 1299   1.001   0.493   2.908 -0.3980 -0.5057  1.1869
  325SOL     MW 1300   1.086   0.505   2.897 -0.1806  0.1568  0.3132
  326SOL     OW 1301   0.437   1.332   2.220 -0.0081 -0.0399 -0.0369
  326SOL    HW1 1302   0.487   1.304   2.142  2.0990  2.4362  1.0624
  326SOL    HW2 1303   0.445   1.427   2.219 -0.1920  0.9201 -0.1093
  326SOL     MW 1304   0.445   1.341   2.210  0.2457  0.4135  0.0986
  327SOL     OW 1305   1.898   0.908   2.399 -0.1443  0.2363 -0.4822
  327SOL    HW1 1306   1.867   0.833   2.445 -0.3107 -0.6720  2.1003
  327SOL    HW2 1307   1.990   0.888   2.405 -0.2750 -1.7953  0.4094
  327SOL     MW 1308   1.906   0.896   2.406 -0.1835 -0.1516 -0.0238
  328SOL     OW 1309   0.159   1.265   2.224  0.8112 -0.6135 -0.0001
  328SOL    HW1 1310   0.145   1.194   2.161  1.6679  1.1640  1.3413
  328SOL    HW2 1311   0.247   1.298   2.210  1.5797  0.6505  1.3096
  328SOL     MW 1312   0.169   1.260   2.214  1.0256 -0.2122  0.3496
  329SOL     OW 1313   0.138   0.155   1.391  0.0675 -0.5370  0.1492
  329SOL    HW1 1314   0.081   0.195   1.458 -1.6550  0.2551  4.3912
  329SOL    HW2 1315   0.208   0.217   1.385 -2.6920 -1.7154  3.1095
  329SOL     MW 1316   0.139   0.169   1.399 -0.5238 -0.5879  1.0995
  330SOL     OW 1317   0.382   2.972   2.044  0.0332  0.2335  0.1450
  330SOL    HW1 1318   0.424   3.014   2.119 -5.4777  1.9982  0.0368
  330SOL    HW2 1319   0.306   2.930   2.075 -1.0875 -1.7720  1.4498
  330SOL     MW 1320   0.378   2.972   2.058 -0.8417  0.2018  0.3029
  331SOL     OW 1321   0.823   1.234   2.247 -0.1031 -0.0063 -0.5444
  331SOL    HW1 1322   0.768   1.308   2.229 -0.2127  2.6986 -1.0451
  331SOL    HW2 1323   0.860   1.256   2.333  0.1630  0.6621 -1.8080
  331SOL     MW 1324   0.820   1.247   2.256 -0.0825  0.4388 -0.7772
  332SOL     OW 1325   1.355   1.770   2.975 -0.1973 -0.5527 -0.3955
  332SOL    HW1 1326   1.363   1.749   2.881 -0.3227 -1.5053  0.1480
  332SOL    HW2 1327   1.425   1.837   2.985  2.2300  0.6876  0.5847
  332SOL     MW 1328   1.365   1.776   2.964  0.1064 -0.5148 -0.1945
  333SOL     OW 1329   1.719   1.466   2.994  0.2064 -0.4067 -0.1164
  333SOL    HW1 1330   1.812   1.490   3.012  1.6866  2.2165  0.5799
  333SOL    HW2 1331   1.686   1.443   3.079 -0.8331 -0.1170  0.2134
  333SOL     MW 1332   1.727   1.466   3.008  0.2645 -0.0224  0.0190
  334SOL     OW 1333   1.283   3.065   2.646  0.4110 -0.5565  0.2935
  334SOL    HW1 1334   1.199   3.047   2.691  3.9346 -2.3239  0.2127
  334SOL    HW2 1335   1.292   3.161   2.629  2.9508  1.9429  0.1936
  334SOL     MW 1336   1.273   3.075   2.649  1.2110 -0.4599  0.2697
  335SOL     OW 1337   1.268   0.748   3.041 -0.1197  0.3177  0.9828
  335SOL    HW1 1338   1.326   0.736   3.117 -0.0294 -2.1629  1.0567
  335SOL    HW2 1339   1.326   0.803   2.992  2.2182  0.1107  0.3687
  335SOL     MW 1340   1.283   0.753   3.044  0.2007 -0.0369  0.9115
  336SOL     OW 1341   0.922   1.106   1.906 -0.1299 -0.6326  0.1137
  336SOL    HW1 1342   0.928   1.177   1.968  3.0172 -0.4902  2.4968
  336SOL    HW2 1343   0.999   1.048   1.924  1.8290  1.1338 -0.9310
  336SOL     MW 1344   0.933   1.108   1.917  0.5438 -0.3807  0.2903
  337SOL     OW 1345   0.503   1.786   2.842 -0.5625  0.3984  0.0194
  337SOL    HW1 1346   0.428   1.766   2.788 -2.8524 -0.5392  0.0035
  337SOL    HW2 1347   0.580   1.736   2.811 -2.5099 -1.0423  1.9633
  337SOL     MW 1348   0.503   1.776   2.831 -1.1216  0.0846  0.2737
  338SOL     OW 1349   1.128   0.841   2.560  0.3951  0.4140  0.5290
  338SOL    HW1 1350   1.046   0.793   2.557  2.8698 -0.6035 -3.3146
  338SOL    HW2 1351   1.172   0.802   2.632 -2.4356  1.2583  3.1171
  338SOL     MW 1352   1.123   0.829   2.569  0.3482  0.3912  0.3634
  339SOL     OW 1353   1.589   1.060   1.837  0.0729 -0.0872 -0.2706
  339SOL    HW1 1354   1.503   1.036   1.795  0.8919  1.6856  0.6597
  339SOL    HW2 1355   1.573   1.156   1.855  0.6254  1.9417  1.2124
  339SOL     MW 1356   1.575   1.069   1.834  0.2538  0.4144  0.0478
  340SOL     OW 1357   1.355   1.579   0.106  0.1588 -0.4052 -0.1484
  340SOL    HW1 1358   1.351   1.648   0.034 -1.1088  0.0309 -0.2678
  340SOL    HW2 1359   1.447   1.574   0.136  2.7262  0.4518 -2.5466
  340SOL     MW 1360   1.367   1.587   0.100  0.3303 -0.2346 -0.4806
  341SOL     OW 1361   0.140   1.312   2.685 -0.1294  0.2767 -0.4531
  341SOL    HW1 1362   0.228   1.342   2.663  0.8681  1.2212 -1.1227
  341SOL    HW2 1363   0.073   1.314   2.615 -0.2126  0.1457 -1.5462
  341SOL     MW 1364   0.143   1.317   2.673 -0.0088  0.3840 -0.6856
  342SOL     OW 1365   1.420   0.327   0.071 -0.2862 -0.2167 -0.1870
  342SOL    HW1 1366   1.450   0.407   0.118  2.5031 -1.4212 -0.3499
  342SOL    HW2 1367   1.431   0.347  -0.025  2.2155  0.0577  0.9471
  342SOL     MW 1368   1.426   0.340   0.065  0.4119 -0.3394 -0.0588
  343SOL     OW 1369   0.204   0.271   2.294  0.1823 -0.1745 -0.6668
  343SOL    HW1 1370   0.210   0.193   2.354 -0.4403 -0.4966 -3.0061
  343SOL    HW2 1371   0.162   0.238   2.210  0.1841 -0.5971  0.9823
  343SOL     MW 1372   0.199   0.256   2.291  0.1004 -0.2728 -0.7579
  344SOL     OW 1373   1.689   2.086   0.215 -0.6452 -0.0899  0.8307
  344SOL    HW1 1374   1.710   2.134   0.137  2.4335 -0.7943  0.0160
  344SOL    HW2 1375   1.646   2.004   0.183  1.8163  1.0324  0.8776
  344SOL     MW 1376   1.686   2.081   0.200  0.0858 -0.0347  0.7294
  345SOL     OW 1377   0.675   1.604   2.358  0.2674 -0.1449  0.4305
  345SOL    HW1 1378   0.586   1.611   2.318  1.2078 -1.2421  0.5050
  345SOL    HW2 1379   0.722   1.558   2.285  0.0591 -3.0387  2.2041
  345SOL     MW 1380   0.670   1.599   2.343  0.3640 -0.6715  0.6744
  346SOL     OW 1381   1.680   1.081   0.009  0.0755  0.2311 -0.1952
  346SOL    HW1 1382   1.772   1.072   0.041  1.0834 -0.4468 -0.2870
  346SOL    HW2 1383   1.635   1.023   0.067  3.1791  0.6214  1.1900
  346SOL     MW 1384   1.686   1.072   0.021  0.6180  0.1931 -0.0245
  347SOL     OW 1385   1.191   0.664   2.364 -0.0005  0.6686 -0.3746
  347SOL    HW1 1386   1.288   0.648   2.355 -0.8919  1.3579 -0.1383
  347SOL    HW2 1387   1.180   0.743   2.424 -0.5651  0.7769  2.1617
  347SOL     MW 1388   1.202   0.673   2.371 -0.1926  0.7738 -0.0088
  348SOL     OW 1389   1.320   2.611   1.891 -0.1525 -0.0841  0.0133
  348SOL    HW1 1390   1.373   2.538   1.918 -0.5510  1.3328 -2.0585
  348SOL    HW2 1391   1.374   2.681   1.914 -2.9811  0.0592  0.0356
  348SOL     MW 1392   1.334   2.611   1.897 -0.5783  0.1218 -0.2571
  349SOL     OW 1393   1.387   0.225   2.652  0.3125  0.0261 -0.7213
  349SOL    HW1 1394   1.353   0.287   2.720  1.8556 -0.0423  1.5159
  349SOL    HW2 1395   1.437   0.171   2.719  0.7029  2.8714  1.2163
  349SOL     MW 1396   1.389   0.226   2.670  0.5676  0.3925 -0.1704
  350SOL     OW 1397   1.855   0.680   2.636  0.3819  0.2105  0.3504
  350SOL    HW1 1398   1.812   0.600   2.596  0.4901  0.0890  0.7014
  350SOL    HW2 1399   1.931   0.638   2.672  0.0794 -0.6934  1.3101
  350SOL     MW 1400   1.859   0.664   2.635  0.3563  0.0752  0.5234
  351SOL     OW 1401   0.065   0.934   1.619  0.7662  0.0260  0.0096
  351SOL    HW1 1402  -0.011   0.959   1.664  0.6191 -0.7882  0.2921
  351SOL    HW2 1403   0.113   1.016   1.602  1.0210  1.0368  0.9214
  351SOL     MW 1404   0.061   0.948   1.622  0.7804  0.0520  0.1672
  352SOL     OW 1405   0.741   1.649   2.771  0.4313  0.5936 -0.1463
  352SOL    HW1 1406   0.778   1.597   2.838  2.9935 -0.6198 -0.2668
  352SOL    HW2 1407   0.699   1.583   2.716  0.2307  2.7138 -0.0353
  352SOL     MW 1408   0.740   1.634   2.773  0.7429  0.7132 -0.1475
  353SOL     OW 1409   2.995   2.411   2.718 -0.3535 -0.3161 -0.2923
  353SOL    HW1 1410   3.089   2.383   2.702  0.9896  0.5726  0.2138
  353SOL    HW2 1411   2.978   2.471   2.647 -1.1333  0.2858  0.0292
  353SOL     MW 1412   3.005   2.415   2.707 -0.2792 -0.1194 -0.1831
  354SOL     OW 1413   0.422   2.386   0.864  0.1562  0.1864 -0.0670
  354SOL    HW1 1414   0.447   2.363   0.951 -0.7710  0.6534 -0.4603
  354SOL    HW2 1415   0.335   2.345   0.851  1.8804 -2.3665 -1.6870
  354SOL     MW 1416   0.414   2.377   0.874  0.2613 -0.0888 -0.3326
  355SOL     OW 1417   0.070   2.190   0.393 -0.0401 -0.2087  0.6970
  355SOL    HW1 1418  -0.018   2.159   0.374 -0.3659 -0.4855  1.1085
  355SOL    HW2 1419   0.065   2.244   0.470  1.8748  1.2871 -0.4075
  355SOL     MW 1420   0.058   2.193   0.400  0.1696 -0.0478  0.6056
  356SOL     OW 1421   0.859   2.956   1.017  0.1191 -0.1146 -0.0753
  356SOL    HW1 1422   0.898   2.921   0.930  1.3290 -2.1858 -0.6082
  356SOL    HW2 1423   0.781   2.901   1.026  0.4620  2.1388  1.4680
  356SOL     MW 1424   0.854   2.944   1.007  0.3239 -0.0906  0.0580
  357SOL     OW 1425   1.777   2.889   0.369 -0.2530 -0.3316  0.3470
  357SOL    HW1 1426   1.725   2.845   0.429  0.2394  1.6729 -2.5136
  357SOL    HW2 1427   1.857   2.836   0.342 -0.3417 -1.2280 -1.4307
  357SOL     MW 1428   1.781   2.876   0.373 -0.1997 -0.1854 -0.2650
  358SOL     OW 1429   0.408   0.157   1.023  0.4141 -0.0898  0.4804
  358SOL    HW1 1430   0.501   0.149   1.035  2.2040  1.8928  0.5184
  358SOL    HW2 1431   0.394   0.154   0.929 -0.9531 -1.1784 -1.6276
  358SOL     MW 1432   0.419   0.156   1.012  0.4699  0.0281  0.2073
  359SOL     OW 1433   0.979   2.839   1.822  0.3364  0.6318  0.0976
  359SOL    HW1 1434   0.956   2.776   1.884 -3.2742  3.8558 -2.3529
  359SOL    HW2 1435   1.013   2.810   1.733  1.9228  1.1563  0.7205
  359SOL     MW 1436   0.981   2.827   1.818  0.0693  1.1264 -0.1435
  360SOL     OW 1437   0.626   2.786   0.998  0.5851  0.4396  0.5342
  360SOL    HW1 1438   0.638   2.759   0.908 -0.2840 -1.1413 -0.5668
  360SOL    HW2 1439   0.612   2.707   1.056 -0.0008 -0.8623 -3.6972
  360SOL     MW 1440   0.626   2.772   0.994  0.3931  0.0593 -0.1694
  361SOL     OW 1441   0.177   2.720   1.372  0.0486 -0.4870 -0.2226
  361SOL    HW1 1442   0.149   2.811   1.384  1.4092  2.4785 -0.7966
  361SOL    HW2 1443   0.270   2.730   1.352 -3.0706  0.7668 -0.0941
  361SOL     MW 1444   0.185   2.733   1.371 -0.1834  0.0697 -0.2814
  362SOL     OW 1445   1.501   2.428   0.600  0.0657 -0.1239  0.2012
  362SOL    HW1 1446   1.527   2.371   0.671 -1.3102 -1.7332  0.6367
  362SOL    HW2 1447   1.498   2.513   0.639 -0.5225 -2.4522 -0.0088
  362SOL     MW 1448   1.504   2.432   0.615 -0.1934 -0.6434  0.2310
  363SOL     OW 1449   0.239   3.050   0.747  0.3450 -0.0160 -0.0005
  363SOL    HW1 1450   0.243   2.978   0.810  0.2912  2.2770 -1.5240
  363SOL    HW2 1451   0.151   3.055   0.702 -1.3209  1.8974  0.8302
  363SOL     MW 1452   0.228   3.041   0.749  0.1181  0.5390 -0.0919
  364SOL     OW 1453   0.680   0.176   0.188  0.4571 -0.2598  0.3967
  364SOL    HW1 1454   0.661   0.081   0.184 -1.6742  0.7375  3.5360
  364SOL    HW2 1455   0.605   0.231   0.202 -1.3260  1.6215  3.4008
  364SOL     MW 1456   0.668   0.170   0.189 -0.0593  0.1200  1.2073
  365SOL     OW 1457   0.954   1.971   1.120  0.0030  0.0485  0.1313
  365SOL    HW1 1458   0.915   2.050   1.077 -0.8985  1.5377 -0.1783
  365SOL    HW2 1459   0.918   1.897   1.068  1.8249  2.1049  0.9810
  365SOL     MW 1460   0.944   1.972   1.107  0.1245  0.5163  0.2025
  366SOL     OW 1461   2.862   2.658   0.994  0.0809 -0.5165  0.6292
  366SOL    HW1 1462   2.922   2.644   1.064 -2.2207 -0.3624 -2.2660
  366SOL    HW2 1463   2.916   2.669   0.910 -1.6412 -0.6106  2.3673
  366SOL     MW 1464   2.877   2.658   0.992 -0.4500 -0.5086  0.4766
  367SOL     OW 1465   1.276   2.844   0.883 -0.1481 -0.5078  0.2050
  367SOL    HW1 1466   1.190   2.885   0.897  2.6925 -1.3099 -0.3484
  367SOL    HW2 1467   1.258   2.778   0.806  0.7298 -0.0100 -1.1424
  367SOL     MW 1468   1.262   2.840   0.875  0.3425 -0.5479 -0.0458
  368SOL     OW 1469   1.656   0.467   0.659 -0.1504  0.1471 -0.0076
  368SOL    HW1 1470   1.711   0.395   0.635  0.3856 -0.3455  2.1369
  368SOL    HW2 1471   1.706   0.550   0.649 -0.3749  1.9564  0.3549
  368SOL     MW 1472   1.670   0.469   0.654 -0.1093  0.3208  0.3232
  369SOL     OW 1473   0.118   2.468   1.739 -0.4767 -0.2439 -0.0093
  369SOL    HW1 1474   0.215   2.456   1.740 -1.1420  1.9151 -0.5110
  369SOL    HW2 1475   0.102   2.558   1.756 -1.3291  1.0000  0.3223
  369SOL     MW 1476   0.128   2.478   1.741 -0.6770  0.2051 -0.0317
  370SOL     OW 1477   0.680   0.104   0.972  0.4533 -0.5024 -0.0323
  370SOL    HW1 1478   0.726   0.191   0.967 -0.3932 -0.7670  1.4168
  370SOL    HW2 1479   0.743   0.037   1.005  1.4841  1.2924  1.2388
  370SOL     MW 1480   0.694   0.107   0.976  0.4776 -0.3005  0.3266
  371SOL     OW 1481   1.312   2.970   1.488 -0.0200 -0.5143 -0.4466
  371SOL    HW1 1482   1.226   2.928   1.458 -0.9767 -0.2527 -0.1606
  371SOL    HW2 1483   1.331   3.041   1.420  0.2460  0.2872  1.0881
  371SOL     MW 1484   1.303   2.974   1.475 -0.1111 -0.3740 -0.2064
  372SOL     OW 1485   0.822   2.264   0.506  0.2079 -0.0555  0.2649
  372SOL    HW1 1486   0.783   2.174   0.511 -2.9155  0.5270 -1.6608
  372SOL    HW2 1487   0.815   2.296   0.417  0.1405  0.3957  1.0910
  372SOL     MW 1488   0.816   2.256   0.495 -0.2131  0.0809  0.1198
  373SOL     OW 1489   2.878   3.021   1.423  0.1657  0.0365 -0.2843
  373SOL    HW1 1490   2.938   2.980   1.360 -1.0246 -0.3056  1.0910
  373SOL    HW2 1491   2.861   3.102   1.371 -0.4039 -0.2349 -0.3991
  373SOL     MW 1492   2.884   3.026   1.408 -0.0665 -0.0445 -0.1180
  374SOL     OW 1493   1.505   0.543   0.255  0.1544  0.4153  0.2242
  374SOL    HW1 1494   1.588   0.587   0.293  2.9154  4.7592 -0.1295
  374SOL    HW2 1495   1.451   0.492   0.322 -0.9091  2.8254 -0.7303
  374SOL     MW 1496   1.509   0.542   0.269  0.3784  1.3064  0.0516
  375SOL     OW 1497   1.153   2.110   2.295 -0.2274  0.2321  0.9222
  375SOL    HW1 1498   1.133   2.115   2.391  1.7163 -0.0228 -1.3129
  375SOL    HW2 1499   1.151   2.014   2.275  1.4210 -0.1129  1.1312
  375SOL     MW 1500   1.150   2.098   2.305  0.2465  0.1529  0.6549
  376SOL     OW 1501   0.647   2.536   0.119  0.5868 -0.2591 -0.3842
  376SOL    HW1 1502   0.708   2.491   0.185 -0.3942 -2.4040  2.4831
  376SOL    HW2 1503   0.645   2.462   0.062 -1.7855  0.4443  0.6825
  376SOL     MW 1504   0.655   2.520   0.120  0.1443 -0.4493  0.1349
  377SOL     OW 1505   1.263   2.024   0.882  0.8475 -0.3079 -0.7114
  377SOL    HW1 1506   1.197   1.986   0.822  0.0987  0.8669  0.0779
  377SOL    HW2 1507   1.269   1.963   0.962  2.0050 -2.1860 -2.3409
  377SOL     MW 1508   1.255   2.011   0.885  0.9014 -0.4007 -0.8223
  378SOL     OW 1509   1.003   2.792   1.560  0.2308 -0.6223  0.0838
  378SOL    HW1 1510   0.940   2.712   1.564  0.8943 -0.7053 -0.7677
  378SOL    HW2 1511   0.961   2.853   1.495 -1.2415  2.2164  1.9334
  378SOL     MW 1512   0.989   2.790   1.552  0.1241 -0.2587  0.2155
  379SOL     OW 1513   1.085   1.824   2.276  0.1184 -0.5914 -0.1850
  379SOL    HW1 1514   0.987   1.830   2.270 -1.2123 -1.0712 -0.2918
  379SOL    HW2 1515   1.122   1.751   2.222  3.4704  2.7046  0.4692
  379SOL     MW 1516   1.077   1.815   2.268  0.3851 -0.2198 -0.1127
  380SOL     OW 1517   0.877   0.183   1.516 -0.3471 -0.5347  0.1892
  380SOL    HW1 1518   0.917   0.122   1.452 -1.0668 -1.3101  2.7979
  380SOL    HW2 1519   0.935   0.184   1.596 -1.0877 -2.2551 -1.9086
  380SOL     MW 1520   0.890   0.175   1.518 -0.5398 -0.8640  0.2566
  381SOL     OW 1521   0.792   1.994   0.793 -0.3191 -0.5227 -0.3940
  381SOL    HW1 1522   0.883   1.996   0.760 -0.7785  0.1669  1.0599
  381SOL    HW2 1523   0.781   2.070   0.854 -0.7888 -2.3812 -0.5173
  381SOL     MW 1524   0.802   2.004   0.796 -0.4417 -0.6769 -0.2184
  382SOL     OW 1525   0.741   0.008   0.705 -0.3114  0.1908 -0.0305
  382SOL    HW1 1526   0.721   0.032   0.797 -0.9944  0.1933  0.9045
  382SOL    HW2 1527   0.676  -0.062   0.679 -1.4948 -0.9756 -1.9437
  382SOL     MW 1528   0.729   0.002   0.713 -0.5577  0.0373 -0.1596
  383SOL     OW 1529   0.471   0.052   0.385 -0.2038  0.0019  0.1183
  383SOL    HW1 1530   0.536   0.001   0.342 -3.0286  2.4499  0.9930
  383SOL    HW2 1531   0.383   0.013   0.371 -1.4153 -1.1681 -1.6564
  383SOL     MW 1532   0.468   0.040   0.377 -0.7363  0.1705 -0.0005
  384SOL     OW 1533   0.601   2.900   0.594  0.4603  0.1516  0.9734
  384SOL    HW1 1534   0.637   2.838   0.655 -0.0039  1.1941 -3.2637
  384SOL    HW2 1535   0.506   2.892   0.595 -1.0205  0.1135  1.0761
  384SOL     MW 1536   0.594   2.891   0.602  0.2037  0.2841  0.4279
  385SOL     OW 1537   1.314   2.068   1.560 -0.2045 -0.3614 -0.0952
  385SOL    HW1 1538   1.386   2.083   1.628  2.1764 -0.4249  1.1243
  385SOL    HW2 1539   1.289   1.974   1.582  0.3743 -0.3451 -0.9299
  385SOL     MW 1540   1.320   2.058   1.572  0.1860 -0.3677 -0.0444
  386SOL     OW 1541   1.365   0.395   0.865  0.0254 -0.4143 -1.0247
  386SOL    HW1 1542   1.274   0.407   0.846  1.0462 -3.2010 -0.7895
  386SOL    HW2 1543   1.366   0.412   0.958 -2.2117  1.2260 -3.2098
  386SOL     MW 1544   1.353   0.399   0.875 -0.1351 -0.5656 -1.2820
  387SOL     OW 1545   0.829   2.178   1.481 -0.1479 -0.3121 -0.0460
  387SOL    HW1 1546   0.890   2.246   1.457 -1.9649 -3.6105  0.7032
  387SOL    HW2 1547   0.874   2.097   1.451 -1.7276  2.5816 -0.5669
  387SOL     MW 1548   0.843   2.176   1.474 -0.5961 -0.3655 -0.0159
  388SOL     OW 1549   1.488   2.806   1.205 -0.3417  0.1278  0.0389
  388SOL    HW1 1550   1.434   2.743   1.156  0.2356 -0.5897  0.6694
  388SOL    HW2 1551   1.572   2.789   1.163  0.7024 -0.8300 -0.9609
  388SOL     MW 1552   1.492   2.795   1.193 -0.1278 -0.0932 -0.0099
  389SOL     OW 1553   0.374   0.174   3.103 -0.2671 -0.5441  0.0552
  389SOL    HW1 1554   0.419   0.128   3.034  2.1594 -0.4827 -0.4637
  389SOL    HW2 1555   0.279   0.174   3.084 -4.0762 -2.1177 -0.2663
  389SOL     MW 1556   0.367   0.168   3.091 -0.4495 -0.7436 -0.0557
  390SOL     OW 1557   1.353   0.035   0.622 -0.2168 -0.5956  0.1130
  390SOL    HW1 1558   1.441   0.065   0.604  1.5008  0.8582  1.2533
  390SOL    HW2 1559   1.340   0.029   0.719  1.4492 -1.4977  0.7454
  390SOL     MW 1560   1.363   0.038   0.632  0.2296 -0.5228  0.3469
  391SOL     OW 1561   0.302   2.279   1.470  0.1462  0.2221  0.0397
  391SOL    HW1 1562   0.245   2.213   1.505 -0.7249  1.0022  0.9712
  391SOL    HW2 1563   0.248   2.351   1.443  1.5034 -0.8356  1.7898
  391SOL     MW 1564   0.288   2.280   1.471  0.2103  0.1855  0.3935
  392SOL     OW 1565   1.990   2.198   0.334  0.0877  0.4457 -0.0340
  392SOL    HW1 1566   1.920   2.235   0.392  0.3229  1.2585 -1.0985
  392SOL    HW2 1567   2.064   2.181   0.394 -0.6471  0.0997  0.9486
  392SOL     MW 1568   1.991   2.200   0.350  0.0218  0.5073 -0.0448
  393SOL     OW 1569   0.242   2.998   2.827 -0.4518 -0.4263 -0.6152
  393SOL    HW1 1570   0.308   3.067   2.806  1.0910  3.8082 -1.6255
  393SOL    HW2 1571   0.160   3.034   2.788 -1.6469  0.1435 -0.6665
  393SOL     MW 1572   0.240   3.012   2.819 -0.4059  0.2076 -0.7553
  394SOL     OW 1573   0.835   1.640   1.431  0.3292  0.3814  0.7517
  394SOL    HW1 1574   0.807   1.643   1.524 -0.0963 -0.9258 -0.5914
  394SOL    HW2 1575   0.874   1.731   1.421  0.2475  0.0748 -1.9148
  394SOL     MW 1576   0.837   1.652   1.442  0.2622  0.1684  0.2227
  395SOL     OW 1577   0.927   2.886   2.612 -0.0046  0.4241  0.2967
  395SOL    HW1 1578   0.954   2.948   2.678 -0.5117 -0.4766  1.2719
  395SOL    HW2 1579   1.010   2.844   2.568 -0.9620  0.5533 -1.1343
  395SOL     MW 1580   0.941   2.889   2.615 -0.1978  0.3223  0.2366
  396SOL     OW 1581   0.788   1.848   2.403  0.4881  0.0026  0.3092
  396SOL    HW1 1582   0.821   1.844   2.493  0.2417 -3.0091  1.0240
  396SOL    HW2 1583   0.746   1.763   2.383  3.0045 -0.9019 -2.0729
  396SOL     MW 1584   0.787   1.836   2.412  0.7876 -0.5141  0.0892
  397SOL     OW 1585   1.015   2.333   1.349  0.2774  0.3026  0.1266
  397SOL    HW1 1586   1.025   2.399   1.276 -2.0646  0.2568 -0.6863
  397SOL    HW2 1587   1.087   2.352   1.404  1.8208 -1.4059 -0.5762
  397SOL     MW 1588   1.026   2.344   1.346  0.1720  0.0712 -0.0734
  398SOL     OW 1589   0.687   2.669   0.727  0.0482 -0.1454  0.1904
  398SOL    HW1 1590   0.609   2.628   0.681 -0.9650  2.5243  0.5436
  398SOL    HW2 1591   0.761   2.614   0.709  3.1592 -0.2435  1.0702
  398SOL     MW 1592   0.686   2.657   0.719  0.3250  0.1939  0.3531
  399SOL     OW 1593   0.272   2.004   0.392 -0.0138 -0.3969  0.7455
  399SOL    HW1 1594   0.196   2.065   0.386 -0.4020  1.2999 -0.0607
  399SOL    HW2 1595   0.333   2.038   0.318  2.2597  1.0559  1.9125
  399SOL     MW 1596   0.270   2.017   0.381  0.2350  0.0186  0.7931
  400SOL     OW 1597   0.603   1.841   0.142 -0.5921 -0.0230  0.0298
  400SOL    HW1 1598   0.567   1.926   0.161  0.5209 -0.5814  0.2558
  400SOL    HW2 1599   0.565   1.800   0.218  1.7370 -0.2041  0.1292
  400SOL     MW 1600   0.593   1.847   0.155 -0.1379 -0.1205  0.0727
  401SOL     OW 1601   0.956   2.077   0.170 -0.7074 -0.5546  0.4054
  401SOL    HW1 1602   0.948   1.981   0.154 -0.3400  2.2279  4.9746
  401SOL    HW2 1603   1.033   2.093   0.226  1.5565  0.3898  0.7868
  401SOL     MW 1604   0.965   2.067   0.175 -0.3602 -0.0629  1.0586
  402SOL     OW 1605   0.713   2.910   1.715 -0.0469  0.6904 -0.3837
  402SOL    HW1 1606   0.644   2.871   1.769 -3.5463  1.4237  0.0977
  402SOL    HW2 1607   0.795   2.872   1.746 -2.0980 -0.3595 -0.3321
  402SOL     MW 1608   0.715   2.900   1.726 -0.7792  0.6486 -0.3134
  403SOL     OW 1609   0.060   0.473   0.436  0.1861 -1.0787 -0.2287
  403SOL    HW1 1610   0.149   0.497   0.470 -1.7044  0.1645 -0.4871
  403SOL    HW2 1611   0.080   0.420   0.354  1.4074 -0.9661  2.5879
  403SOL     MW 1612   0.074   0.469   0.429  0.0978 -0.8998  0.1089
  404SOL     OW 1613   1.005   2.892   0.801  0.4420  0.1247 -0.0126
  404SOL    HW1 1614   1.046   2.818   0.749 -0.3500 -2.4012 -0.9385
  404SOL    HW2 1615   1.030   2.977   0.758 -0.0096 -0.9491  0.9473
  404SOL     MW 1616   1.014   2.894   0.788  0.2779 -0.3502 -0.0081
  405SOL     OW 1617   0.485   2.477   1.554 -0.0312 -0.0067 -0.0489
  405SOL    HW1 1618   0.456   2.564   1.511  2.8977 -1.0324  0.3353
  405SOL    HW2 1619   0.444   2.404   1.515  0.7460 -0.8263 -0.9741
  405SOL     MW 1620   0.476   2.479   1.543  0.4578 -0.2502 -0.1203
  406SOL     OW 1621   0.409   2.333   1.132  0.0425 -0.7298 -0.2923
  406SOL    HW1 1622   0.315   2.361   1.111 -1.0685 -3.9006  1.5256
  406SOL    HW2 1623   0.405   2.256   1.185 -0.6690  1.5278 -0.9099
  406SOL     MW 1624   0.396   2.326   1.136 -0.1979 -0.8503 -0.1340
  407SOL     OW 1625   0.043   2.712   1.108  0.0990  0.3610  0.3324
  407SOL    HW1 1626   0.096   2.696   1.186 -0.3838  2.2929 -1.1884
  407SOL    HW2 1627   0.106   2.720   1.027 -0.2321 -2.4283  1.0068
  407SOL     MW 1628   0.058   2.711   1.107 -0.0083  0.2479  0.2207
  408SOL     OW 1629   2.130   2.105   0.616 -0.6035 -0.6135  0.7686
  408SOL    HW1 1630   2.097   2.145   0.695  0.9074 -1.4904 -3.0748
  408SOL    HW2 1631   2.047   2.057   0.585  0.4126  0.4694  0.2520
  408SOL     MW 1632   2.115   2.104   0.622 -0.2701 -0.5863  0.1933
  409SOL     OW 1633   1.312   0.062   0.891 -0.0427 -0.1504 -0.0737
  409SOL    HW1 1634   1.358   0.143   0.869 -1.0372 -1.8466  1.0451
  409SOL    HW2 1635   1.381   0.019   0.946  0.0892  0.1297 -1.2585
  409SOL     MW 1636   1.328   0.067   0.895 -0.1565 -0.3372 -0.0824
  410SOL     OW 1637   1.084   2.517   1.078  0.1076 -0.6339  0.4357
  410SOL    HW1 1638   1.024   2.498   1.001 -1.7123 -0.8429  0.3219
  410SOL    HW2 1639   1.150   2.444   1.075 -0.7074  0.5186  0.9980
  410SOL     MW 1640   1.085   2.505   1.068 -0.2400 -0.5094  0.4949
  411SOL     OW 1641   1.962   0.110   2.824 -0.3224 -0.3609  0.0236
  411SOL    HW1 1642   1.905   0.067   2.762  0.4437  2.1766 -2.6564
  411SOL    HW2 1643   1.905   0.120   2.907 -1.6566 -0.7806  2.8311
  411SOL     MW 1644   1.947   0.106   2.827 -0.3974 -0.0815  0.0405
  412SOL     OW 1645   1.105   2.199   0.576 -0.0109 -0.1419  0.0701
  412SOL    HW1 1646   1.143   2.281   0.609 -0.0209  0.6757  0.1456
  412SOL    HW2 1647   1.012   2.203   0.589 -1.5888 -0.7868  1.7255
  412SOL     MW 1648   1.098   2.210   0.582 -0.2204 -0.1191  0.2985
  413SOL     OW 1649   0.548   2.793   0.132  0.1489  0.2729 -1.0465
  413SOL    HW1 1650   0.594   2.708   0.142  0.7117 -0.9078  1.9788
  413SOL    HW2 1651   0.529   2.801   0.040 -0.9460 -1.6301 -1.5904
  413SOL     MW 1652   0.551   2.783   0.121  0.0787 -0.1340 -0.7191
  414SOL     OW 1653   1.972   3.074   1.080  0.0524  0.0369 -0.0072
  414SOL    HW1 1654   1.919   3.058   0.999 -0.2049  0.8130 -0.2485
  414SOL    HW2 1655   2.045   3.014   1.077 -1.0994  1.0227 -1.6610
  414SOL     MW 1656   1.975   3.064   1.069 -0.1335  0.2693 -0.2572
  415SOL     OW 1657   1.721   2.667   1.056  0.0212  0.2225  0.4501
  415SOL    HW1 1658   1.697   2.585   1.105  0.5247 -1.6631  0.3843
  415SOL    HW2 1659   1.810   2.679   1.082  2.2487 -3.6000 -0.4894
  415SOL     MW 1660   1.730   2.657   1.066  0.3816 -0.5306  0.3174
  416SOL     OW 1661   0.612   1.916   1.390 -0.6076  0.1108  0.2526
  416SOL    HW1 1662   0.574   2.004   1.366 -1.5362  0.2707 -2.4189
  416SOL    HW2 1663   0.607   1.874   1.303  0.7093 -0.6202  1.3144
  416SOL     MW 1664   0.607   1.922   1.376 -0.5564  0.0355  0.0402
  417SOL     OW 1665   1.016   3.043   2.012 -0.2915 -0.4021  0.4858
  417SOL    HW1 1666   0.958   3.013   2.081  0.2974 -0.2644 -0.6215
  417SOL    HW2 1667   1.005   2.988   1.936 -1.1312 -0.1089  1.7159
  417SOL     MW 1668   1.007   3.032   2.011 -0.3246 -0.3452  0.5020
  418SOL     OW 1669   0.713   2.997   0.214 -0.3364 -0.2271 -0.1776
  418SOL    HW1 1670   0.787   2.968   0.161  0.5890 -1.9404  0.8080
  418SOL    HW2 1671   0.648   2.927   0.195  0.5598  0.8614  2.3190
  418SOL     MW 1672   0.714   2.984   0.204 -0.0961 -0.3096  0.2818
  419SOL     OW 1673   0.448   2.692   1.371  0.3331 -0.2796  0.0525
  419SOL    HW1 1674   0.516   2.747   1.407  0.1696  0.9172  1.3382
  419SOL    HW2 1675   0.487   2.665   1.288 -1.0260 -0.5887 -0.7344
  419SOL     MW 1676   0.462   2.695   1.365  0.1322 -0.1624  0.1183
  420SOL     OW 1677   0.815   2.196   1.002 -0.7676  0.2544 -0.1039
  420SOL    HW1 1678   0.781   2.232   1.082  0.8871  0.4398  0.1442
  420SOL    HW2 1679   0.851   2.266   0.947 -1.0984  0.5636  0.8249
  420SOL     MW 1680   0.815   2.210   1.005 -0.5929  0.3196  0.0514
  421SOL     OW 1681   2.943   0.069   0.024 -0.2196 -0.6050  0.4877
  421SOL    HW1 1682   2.922   0.039  -0.062 -0.5486 -1.0213 -0.7618
  421SOL    HW2 1683   2.950  -0.012   0.072  0.7987  1.4991 -2.6967
  421SOL     MW 1684   2.941   0.054   0.019 -0.1286 -0.3823 -0.0973
  422SOL     OW 1685   0.894   2.432   0.910 -0.2732 -0.2792  0.6561
  422SOL    HW1 1686   0.815   2.479   0.929 -1.2868 -2.2857  0.5047
  422SOL    HW2 1687   0.908   2.460   0.821 -0.1063  3.2329  2.0499
  422SOL     MW 1688   0.886   2.442   0.900 -0.3849 -0.0806  0.8200
  423SOL     OW 1689   1.569   0.167   0.494 -0.2376 -0.1963  0.1072
  423SOL    HW1 1690   1.550   0.154   0.402 -0.5705 -0.6122  1.2227
  423SOL    HW2 1691   1.528   0.253   0.506 -1.9348 -1.3248 -2.1597
  423SOL     MW 1692   1.561   0.177   0.484 -0.5055 -0.4001 -0.0447
  424SOL     OW 1693   0.708   2.243   1.246 -0.4027  0.7273 -0.1574
  424SOL    HW1 1694   0.629   2.188   1.227 -2.9098 -0.7889 -0.1462
  424SOL    HW2 1695   0.730   2.221   1.340 -1.5531 -1.2140 -2.3124
  424SOL     MW 1696   0.701   2.233   1.256 -0.8853  0.2711 -0.4403
  425SOL     OW 1697   1.757   2.847   1.977 -0.1015 -0.4823 -0.6584
  425SOL    HW1 1698   1.763   2.865   1.885  1.9799  0.5354  1.1758
  425SOL    HW2 1699   1.799   2.763   1.993  0.6384 -0.4233 -1.7157
  425SOL     MW 1700   1.763   2.838   1.967  0.2708 -0.3403 -0.5559
  426SOL     OW 1701   0.767   1.664   1.937 -0.0152  0.8800  0.4101
  426SOL    HW1 1702   0.723   1.677   1.856 -1.3292  0.5658  0.2427
  426SOL    HW2 1703   0.750   1.742   1.990  1.5776  2.4435  1.6740
  426SOL     MW 1704   0.759   1.676   1.933  0.0215  1.0448  0.5547
  427SOL     OW 1705   0.386   1.576   1.880 -0.6863 -0.3118  0.3225
  427SOL    HW1 1706   0.409   1.614   1.961  1.7035  2.9345  1.3969
  427SOL    HW2 1707   0.314   1.518   1.897  1.1360 -2.4011  1.1132
  427SOL     MW 1708   0.380   1.573   1.893 -0.1306 -0.1591  0.5686
  428SOL     OW 1709   0.561   2.574   1.149 -0.1975 -0.6049  0.4441
  428SOL    HW1 1710   0.648   2.556   1.181  0.4880 -0.3523  0.5568
  428SOL    HW2 1711   0.506   2.494   1.169 -3.3892 -1.9097 -2.1132
  428SOL     MW 1712   0.565   2.561   1.156 -0.5281 -0.7437  0.1216
  429SOL     OW 1713   1.321   2.641   1.054  0.3040  0.0838  0.5614
  429SOL    HW1 1714   1.237   2.597   1.057  1.4008 -0.4510  1.0298
  429SOL    HW2 1715   1.291   2.720   1.001 -2.8659 -0.8724  0.8503
  429SOL     MW 1716   1.306   2.645   1.047  0.0304 -0.1129  0.6613
  430SOL     OW 1717   1.163   2.701   0.659 -0.1021 -0.5389  0.1155
  430SOL    HW1 1718   1.179   2.609   0.671 -3.0757 -0.4814 -2.2278
  430SOL    HW2 1719   1.109   2.698   0.577  0.8959  0.9356 -0.8354
  430SOL     MW 1720   1.158   2.689   0.650 -0.3628 -0.3367 -0.3191
  431SOL     OW 1721   0.314   1.963   1.141  0.3644  0.0417 -0.4874
  431SOL    HW1 1722   0.388   1.908   1.155 -1.0586  3.9101  0.2863
  431SOL    HW2 1723   0.317   1.987   1.046 -0.4466 -3.7189 -1.5202
  431SOL     MW 1724   0.324   1.959   1.131  0.0697  0.0559 -0.5216
  432SOL     OW 1725   0.043   0.054   1.155 -0.2948  0.7160  0.2594
  432SOL    HW1 1726   0.060   0.116   1.231 -0.4033 -2.2678 -0.5445
  432SOL    HW2 1727  -0.042   0.010   1.159 -1.0918 -0.3240 -0.5551
  432SOL     MW 1728   0.034   0.057   1.165 -0.4143  0.1851  0.0459
  433SOL     OW 1729   0.637   2.865   1.456 -1.1838  0.0050 -0.3566
  433SOL    HW1 1730   0.665   2.899   1.546  0.0782 -0.3724 -1.9037
  433SOL    HW2 1731   0.701   2.904   1.392  1.7378 -0.9300 -1.2327
  433SOL     MW 1732   0.649   2.875   1.459 -0.6318 -0.1681 -0.6763
  434SOL     OW 1733   1.552   2.822   1.529 -0.1808  0.0748  0.7967
  434SOL    HW1 1734   1.467   2.856   1.555 -0.9580  2.7933 -0.0522
  434SOL    HW2 1735   1.540   2.783   1.438 -0.1810 -3.1209  1.3232
  434SOL     MW 1736   1.539   2.821   1.520 -0.2834  0.0118  0.7542
  435SOL     OW 1737   2.871   1.792   0.228  0.3266  0.1731  0.0343
  435SOL    HW1 1738   2.917   1.853   0.164 -0.9459  0.6096 -1.8569
  435SOL    HW2 1739   2.849   1.712   0.165  1.3052 -4.7635  0.3810
  435SOL     MW 1740   2.874   1.789   0.211  0.2878 -0.4206 -0.1695
  436SOL     OW 1741   1.407   2.764   0.312  0.1989  0.2452 -0.0617
  436SOL    HW1 1742   1.460   2.762   0.393 -0.7772  2.9027  2.0725
  436SOL    HW2 1743   1.344   2.841   0.333 -0.1469  1.5008  0.3684
  436SOL     MW 1744   1.406   2.774   0.325  0.0245  0.7615  0.2766
  437SOL     OW 1745   0.885   2.940   1.338  0.0562 -0.2014  0.8192
  437SOL    HW1 1746   0.926   3.028   1.340 -0.1866  0.5530  2.1126
  437SOL    HW2 1747   0.911   2.907   1.254  1.3781  0.2757 -0.2133
  437SOL     MW 1748   0.894   2.947   1.327  0.1986 -0.0389  0.8536
  438SOL     OW 1749   0.871   2.599   1.999  0.7364  0.2289 -0.0591
  438SOL    HW1 1750   0.840   2.546   2.068 -1.4667  2.1609 -1.9286
  438SOL    HW2 1751   0.795   2.590   1.941  0.4053  0.6712  1.7551
  438SOL     MW 1752   0.857   2.591   2.000  0.4020  0.5422 -0.0664
  439SOL     OW 1753   1.170   2.172   0.324  0.2079 -0.0206  0.3268
  439SOL    HW1 1754   1.135   2.193   0.419 -1.5474  0.0424  1.8965
  439SOL    HW2 1755   1.178   2.253   0.275  2.7422 -1.2030 -0.3256
  439SOL     MW 1756   1.167   2.185   0.330  0.3107 -0.1683  0.4478
  440SOL     OW 1757   1.620   2.973   3.014 -0.6509  0.2422  0.2321
  440SOL    HW1 1758   1.601   2.947   3.103  0.9368  0.1732 -1.4923
  440SOL    HW2 1759   1.667   2.896   2.980  1.1092 -0.9443  0.7896
  440SOL     MW 1760   1.624   2.959   3.021 -0.2092  0.0766  0.0781
  441SOL     OW 1761   0.310   2.563   0.532  0.0705  0.1053 -0.0231
  441SOL    HW1 1762   0.303   2.545   0.431  0.8004 -3.9430  0.7164
  441SOL    HW2 1763   0.328   2.661   0.540 -2.8693  1.5414  0.2358
  441SOL     MW 1764   0.311   2.573   0.520 -0.2211 -0.2393  0.1086
  442SOL     OW 1765   0.008   2.317   0.619 -0.1754 -0.3746 -0.4169
  442SOL    HW1 1766   0.009   2.410   0.601  1.6299 -1.4682 -2.3046
  442SOL    HW2 1767  -0.083   2.296   0.637  1.6274 -2.7126 -0.0854
  442SOL     MW 1768  -0.004   2.327   0.619  0.3007 -0.8274 -0.6222
  443SOL     OW 1769   1.356   1.717   1.822  1.0730  0.6296  0.2860
  443SOL    HW1 1770   1.310   1.742   1.742 -3.0114  1.3226 -1.0581
  443SOL    HW2 1771   1.297   1.646   1.850  0.7171  0.9349 -1.5450
  443SOL     MW 1772   1.343   1.711   1.815  0.4872  0.7614 -0.1329
  444SOL     OW 1773   0.832   2.572   1.594  0.6535  0.3346 -0.1915
  444SOL    HW1 1774   0.897   2.517   1.635 -2.0079 -4.0968  0.4045
  444SOL    HW2 1775   0.761   2.569   1.656 -0.6885  0.5296  2.1087
  444SOL     MW 1776   0.831   2.564   1.608  0.1253 -0.2244  0.1906
  445SOL     OW 1777   0.984   0.086   1.281  0.1792  0.0844 -0.6305
  445SOL    HW1 1778   0.942   0.171   1.267 -0.3456 -1.2941  1.4155
  445SOL    HW2 1779   1.048   0.085   1.205  2.3280  1.3002  0.5843
  445SOL     MW 1780   0.987   0.097   1.269  0.3935  0.0629 -0.2002
  446SOL     OW 1781   2.763   2.910   1.009 -0.4881 -0.7726  0.1629
  446SOL    HW1 1782   2.677   2.931   0.963 -1.2340 -0.3317 -0.2806
  446SOL    HW2 1783   2.785   2.813   0.995 -0.4258 -0.3444 -1.1261
  446SOL     MW 1784   2.754   2.900   1.001 -0.5783 -0.6579 -0.0657
  447SOL     OW 1785   3.041   2.052   1.767  0.3415  0.0210 -0.3192
  447SOL    HW1 1786   3.120   1.995   1.797  1.4742  2.0967 -0.6309
  447SOL    HW2 1787   2.993   2.016   1.690 -0.6518  0.9079  0.0969
  447SOL     MW 1788   3.045   2.039   1.761  0.3599  0.4119 -0.3054
  448SOL     OW 1789   1.688   2.336   1.656 -0.3091  0.0479  0.3668
  448SOL    HW1 1790   1.628   2.258   1.653  1.1657 -0.2660 -2.2261
  448SOL    HW2 1791   1.620   2.407   1.632 -2.2031  1.4267 -0.1386
  448SOL     MW 1792   1.671   2.335   1.652 -0.3645  0.1884 -0.0420
  449SOL     OW 1793   0.824   2.919   0.457 -0.0200  0.0761  0.3708
  449SOL    HW1 1794   0.789   2.952   0.373  1.7065  1.6350  0.2010
  449SOL    HW2 1795   0.741   2.900   0.501  0.7732  2.9303 -0.1767
  449SOL     MW 1796   0.808   2.921   0.452  0.3124  0.6583  0.2762
  450SOL     OW 1797   1.213   2.410   0.697  0.2422  0.1265 -0.1673
  450SOL    HW1 1798   1.238   2.380   0.786 -2.8315 -0.3853 -1.7048
  450SOL    HW2 1799   1.295   2.408   0.648 -1.8954  2.6410 -1.6903
  450SOL     MW 1800   1.228   2.406   0.702 -0.4454  0.3907 -0.5711
  451SOL     OW 1801   0.602   2.001   1.665  0.1406  0.9250 -0.2168
  451SOL    HW1 1802   0.680   2.047   1.692 -0.8059 -2.9892 -1.9877
  451SOL    HW2 1803   0.618   1.982   1.572 -0.4746 -1.2256 -0.5424
  451SOL     MW 1804   0.614   2.004   1.656 -0.0655  0.1248 -0.4934
  452SOL     OW 1805   0.283   2.747   0.154 -0.6159  0.4426 -0.2958
  452SOL    HW1 1806   0.373   2.774   0.159  0.6695 -1.1420 -0.6453
  452SOL    HW2 1807   0.270   2.714   0.065 -1.2790  2.5799  2.0038
  452SOL     MW 1808   0.293   2.746   0.143 -0.5338  0.5156 -0.0385
  453SOL     OW 1809   0.382   2.995   1.665 -0.2413  0.2534  0.1227
  453SOL    HW1 1810   0.465   3.033   1.633  0.8326  2.6194  1.8464
  453SOL    HW2 1811   0.318   2.976   1.600  1.6887 -1.6400 -0.7998
  453SOL     MW 1812   0.384   2.997   1.652  0.1551  0.3158  0.2284
  454SOL     OW 1813   1.087   2.795   1.089 -0.3053  0.3110 -0.4262
  454SOL    HW1 1814   1.062   2.701   1.106  0.5232 -1.0591 -1.8940
  454SOL    HW2 1815   1.013   2.852   1.063 -3.3302  0.9533  2.2514
  454SOL     MW 1816   1.074   2.790   1.088 -0.5951  0.2150 -0.2666
  455SOL     OW 1817   1.558   2.944   0.185 -0.7063  0.2090  0.3398
  455SOL    HW1 1818   1.630   2.923   0.237 -0.9981 -0.0915 -1.0984
  455SOL    HW2 1819   1.488   2.890   0.224  0.5279 -0.8267  0.6429
  455SOL     MW 1820   1.559   2.934   0.197 -0.5819  0.0327  0.1900
  456SOL     OW 1821   2.961   0.342   1.391 -0.0823  0.2234 -0.1490
  456SOL    HW1 1822   2.904   0.290   1.328 -3.9072  2.1800 -2.4141
  456SOL    HW2 1823   3.028   0.378   1.317  0.7557  3.7405  0.3239
  456SOL     MW 1824   2.962   0.340   1.373 -0.4764  0.9456 -0.3854
  457SOL     OW 1825   0.830   1.538   3.003  0.0176 -0.2865  0.0420
  457SOL    HW1 1826   0.756   1.510   3.059 -2.4025 -0.6091 -0.5676
  457SOL    HW2 1827   0.901   1.546   3.058 -1.3216  2.3689  0.8306
  457SOL     MW 1828   0.830   1.536   3.017 -0.4784  0.0213  0.0657
  458SOL     OW 1829   1.434   1.398   0.636  0.3772  0.0614  0.4052
  458SOL    HW1 1830   1.358   1.405   0.694  0.8897  0.9475  2.3421
  458SOL    HW2 1831   1.411   1.344   0.554 -0.6654 -0.9004  1.1695
  458SOL     MW 1832   1.421   1.392   0.633  0.3073  0.0514  0.7616
  459SOL     OW 1833   1.557   0.136   0.225  0.3688  0.1184  0.3869
  459SOL    HW1 1834   1.536   0.061   0.170 -0.7509  1.3987 -1.4573
  459SOL    HW2 1835   1.502   0.200   0.173  1.6239  1.1990  0.5090
  459SOL     MW 1836   1.547   0.135   0.211  0.3867  0.4299  0.1597
  460SOL     OW 1837   1.681   2.155   0.594 -0.2542 -0.1489  0.8312
  460SOL    HW1 1838   1.602   2.151   0.634  1.5335  1.9346 -2.6732
  460SOL    HW2 1839   1.730   2.068   0.588  1.5118  2.6401 -2.0072
  460SOL     MW 1840   1.677   2.143   0.598  0.2147  0.4940 -0.0057
  461SOL     OW 1841   0.525   2.388   0.589  0.2686  0.7803 -0.2361
  461SOL    HW1 1842   0.434   2.386   0.572 -2.0650 -1.4738  0.8492
  461SOL    HW2 1843   0.523   2.381   0.682  1.0294  2.7472 -0.3408
  461SOL     MW 1844   0.513   2.387   0.599  0.0611  0.7424 -0.1067
  462SOL     OW 1845   0.347   0.325   1.277  0.2472 -0.4365 -0.2079
  462SOL    HW1 1846   0.379   0.271   1.209 -0.6996  1.4586  2.3662
  462SOL    HW2 1847   0.421   0.343   1.337  1.7521 -3.3871  2.8926
  462SOL     MW 1848   0.361   0.320   1.276  0.3209 -0.5757  0.5408
  463SOL     OW 1849   1.009   0.055   0.712  0.3670  0.0439  0.6285
  463SOL    HW1 1850   1.014   0.077   0.617 -0.2647 -0.5622  0.3340
  463SOL    HW2 1851   0.914   0.025   0.715 -0.6453  1.8194 -1.1189
  463SOL     MW 1852   0.997   0.054   0.700  0.1501  0.1982  0.3591
  464SOL     OW 1853   0.782   2.938   2.129 -0.2835  0.2347 -0.3545
  464SOL    HW1 1854   0.774   2.847   2.109  0.5794 -1.0780  0.4207
  464SOL    HW2 1855   0.826   2.938   2.222  4.2526 -0.2650  0.1217
  464SOL     MW 1856   0.787   2.926   2.139  0.4288 -0.0044 -0.1894
  465SOL     OW 1857   0.755   0.202   0.491 -0.0753 -0.0449  0.2052
  465SOL    HW1 1858   0.738   0.144   0.568  0.1283 -2.1925  1.5337
  465SOL    HW2 1859   0.712   0.148   0.424  0.3448 -0.5262  0.6529
  465SOL     MW 1860   0.747   0.187   0.493  0.0070 -0.3917  0.4396
  466SOL     OW 1861   1.062   1.956   0.696  0.0357 -0.0367  0.2904
  466SOL    HW1 1862   1.073   1.891   0.626  1.4805  1.1707 -0.8848
  466SOL    HW2 1863   1.094   2.041   0.660  1.6743  1.0884  2.2637
  466SOL     MW 1864   1.067   1.959   0.682  0.4425  0.2711  0.3957
  467SOL     OW 1865   1.238   2.282   0.939 -0.4137 -0.7105  0.4348
  467SOL    HW1 1866   1.325   2.291   0.980 -2.3827  0.4065  2.3060
  467SOL    HW2 1867   1.239   2.184   0.926 -1.1026  1.6512  1.2137
  467SOL     MW 1868   1.249   2.271   0.943 -0.7644 -0.2515  0.7845
  468SOL     OW 1869   0.322   2.620   1.976  0.2302  0.1561  0.1503
  468SOL    HW1 1870   0.332   2.538   1.924 -2.9356  0.7535 -0.6495
  468SOL    HW2 1871   0.384   2.674   1.932  0.9316 -2.2128  1.8790
  468SOL     MW 1872   0.331   2.616   1.963 -0.0950 -0.0776  0.2729
  469SOL     OW 1873   0.389   2.085   1.833 -0.4037  0.1784  0.2470
  469SOL    HW1 1874   0.295   2.055   1.821 -0.3598  0.4669  0.1560
  469SOL    HW2 1875   0.439   2.043   1.756 -0.3901  1.8713  0.8113
  469SOL     MW 1876   0.383   2.075   1.821 -0.3961  0.4398  0.3094
  470SOL     OW 1877   3.048   2.523   0.136 -0.0543  0.3667 -0.0729
  470SOL    HW1 1878   2.968   2.505   0.189 -0.3944  2.5176 -1.4310
  470SOL    HW2 1879   3.020   2.572   0.057 -0.9525 -0.0958  1.6981
  470SOL     MW 1880   3.034   2.527   0.133 -0.2177  0.5895 -0.0184
  471SOL     OW 1881   1.177   2.715   1.361  0.2893  0.5606 -0.0216
  471SOL    HW1 1882   1.108   2.717   1.429 -0.1313 -1.1577  0.9914
  471SOL    HW2 1883   1.152   2.761   1.281 -0.8359  1.1380 -1.9418
  471SOL     MW 1884   1.164   2.721   1.360  0.0853  0.4101 -0.1413
  472SOL     OW 1885   2.921   2.123   0.317 -0.0922 -0.2433 -0.6244
  472SOL    HW1 1886   2.936   2.086   0.228  1.0156 -0.3786  1.5654
  472SOL    HW2 1887   2.909   2.050   0.374  0.5232  2.7503 -0.1508
  472SOL     MW 1888   2.922   2.108   0.313  0.1351  0.1338 -0.2730
  473SOL     OW 1889   0.803   2.546   1.284  0.1259 -0.1013  0.2654
  473SOL    HW1 1890   0.829   2.452   1.284  0.8933 -1.4232 -1.7363
  473SOL    HW2 1891   0.810   2.579   1.371 -2.4206 -0.2612  0.0361
  473SOL     MW 1892   0.807   2.538   1.295 -0.1088 -0.2968 -0.0289
  474SOL     OW 1893   0.836   2.212   1.784 -0.4335 -0.0275 -0.6721
  474SOL    HW1 1894   0.929   2.214   1.817  2.0380 -0.3120  2.3849
  474SOL    HW2 1895   0.840   2.206   1.684  0.8494  1.5070  0.3989
  474SOL     MW 1896   0.849   2.212   1.775  0.0619  0.1374 -0.1274
  475SOL     OW 1897   1.625   3.078   1.411 -0.1264 -0.1590  0.0895
  475SOL    HW1 1898   1.539   3.117   1.395  1.2626 -1.5029 -0.1155
  475SOL    HW2 1899   1.607   2.990   1.437 -1.2757  1.8387  0.7201
  475SOL     MW 1900   1.611   3.072   1.413 -0.0948 -0.0727  0.1457
  476SOL     OW 1901   1.447   2.595   0.802  0.6197 -0.3394 -0.7443
  476SOL    HW1 1902   1.404   2.587   0.885  2.6809  1.6536  0.7759
  476SOL    HW2 1903   1.512   2.665   0.824  1.6243  0.3494  3.0665
  476SOL     MW 1904   1.450   2.604   0.816  1.0242  0.0144 -0.0409
  477SOL     OW 1905   0.878   2.506   0.658  0.2099  0.0704  0.4453
  477SOL    HW1 1906   0.932   2.559   0.603 -1.4545  2.7231  4.0354
  477SOL    HW2 1907   0.862   2.428   0.597 -1.5460 -2.5720  1.3329
  477SOL     MW 1908   0.883   2.503   0.643 -0.2414  0.0717  1.0361
  478SOL     OW 1909   0.242   2.607   0.926 -0.0866  0.2491 -0.4841
  478SOL    HW1 1910   0.270   2.698   0.918  2.6131  1.4872 -2.2822
  478SOL    HW2 1911   0.322   2.556   0.901  1.9064  1.5910  0.1655
  478SOL     MW 1912   0.256   2.612   0.921  0.5326  0.5895 -0.6356
  479SOL     OW 1913   1.387   1.948   1.320 -0.3849 -0.1165  0.1057
  479SOL    HW1 1914   1.356   1.976   1.405 -1.0960 -0.9326  2.0971
  479SOL    HW2 1915   1.453   1.881   1.341  0.9849 -0.2510  0.0459
  479SOL     MW 1916   1.391   1.943   1.334 -0.2980 -0.2419  0.3605
  480SOL     OW 1917   1.824   2.342   1.282  0.3536  0.0956  0.2048
  480SOL    HW1 1918   1.825   2.249   1.312 -0.2832  0.8575 -1.5684
  480SOL    HW2 1919   1.865   2.344   1.193  0.1447 -0.5236 -3.1994
  480SOL     MW 1920   1.829   2.330   1.274  0.2420  0.1144 -0.4783
  481SOL     OW 1921   1.218   0.151   1.119 -0.1746 -0.0912 -0.8700
  481SOL    HW1 1922   1.242   0.119   1.031  1.0787 -1.5042 -2.7793
  481SOL    HW2 1923   1.233   0.249   1.118 -0.5013  0.3363  0.9249
  481SOL     MW 1924   1.223   0.160   1.107 -0.0523 -0.2212 -0.8851
  482SOL     OW 1925   1.035   0.031   0.430  0.0471  0.3913 -0.3919
  482SOL    HW1 1926   0.963  -0.029   0.435 -0.1296  1.5130 -0.4122
  482SOL    HW2 1927   1.015   0.102   0.368 -1.4803  1.0200  0.7389
  482SOL     MW 1928   1.023   0.033   0.423 -0.1777  0.6223 -0.2454
  483SOL     OW 1929   0.336   2.842   0.596  0.6165  0.0760  0.3062
  483SOL    HW1 1930   0.331   2.865   0.497 -1.2979 -0.3010  0.3380
  483SOL    HW2 1931   0.291   2.913   0.637 -0.2941 -1.3105 -2.0345
  483SOL     MW 1932   0.330   2.855   0.588  0.2438 -0.1567  0.0016
  484SOL     OW 1933   1.657   1.869   1.416  0.3277  0.0803  0.5272
  484SOL    HW1 1934   1.703   1.941   1.385  0.2898  1.2719 -1.2860
  484SOL    HW2 1935   1.663   1.872   1.514 -2.4951 -0.8515  0.6207
  484SOL     MW 1936   1.664   1.879   1.425 -0.0497  0.1146  0.3003
  485SOL     OW 1937   0.557   2.318   0.323  0.5071 -0.3209  0.8077
  485SOL    HW1 1938   0.590   2.340   0.411 -1.2344  1.5139 -0.7676
  485SOL    HW2 1939   0.511   2.406   0.301  1.8214  1.8968  2.1252
  485SOL     MW 1940   0.555   2.333   0.332  0.4507  0.2138  0.7737
  486SOL     OW 1941   0.103   2.473   1.453  0.3699 -0.5529 -0.2826
  486SOL    HW1 1942   0.156   2.554   1.428  1.3687  0.0204 -1.0579
  486SOL    HW2 1943   0.073   2.484   1.542  2.4084 -0.3999 -3.4860
  486SOL     MW 1944   0.106   2.485   1.461  0.7707 -0.4571 -0.8075
  487SOL     OW 1945   1.278   1.597   0.983  0.1688  0.0154 -0.6574
  487SOL    HW1 1946   1.236   1.686   0.993 -0.4445  0.2334 -1.3814
  487SOL    HW2 1947   1.371   1.607   1.001  0.7896  0.4081  0.8282
  487SOL     MW 1948   1.285   1.610   0.987  0.1698  0.0960 -0.5569
  488SOL     OW 1949   1.506   1.828   0.624  0.4578  0.2750 -0.0431
  488SOL    HW1 1950   1.489   1.906   0.572 -0.6035 -1.8320 -0.5989
  488SOL    HW2 1951   1.439   1.763   0.591 -2.7070  2.0731  0.1040
  488SOL     MW 1952   1.495   1.830   0.613 -0.0998  0.2343 -0.0970
  489SOL     OW 1953   0.701   0.759   0.528  0.2335  0.4161  0.2888
  489SOL    HW1 1954   0.684   0.669   0.505  0.7763  2.2701 -0.0848
  489SOL    HW2 1955   0.689   0.772   0.623  2.5409 -1.2466  1.3620
  489SOL     MW 1956   0.697   0.749   0.538  0.6095  0.4413  0.3811
  490SOL     OW 1957   1.407   2.088   0.426 -0.2435 -0.0091  0.1724
  490SOL    HW1 1958   1.457   2.165   0.403  1.3321 -1.1318  1.5251
  490SOL    HW2 1959   1.318   2.113   0.392  0.1175  0.9589 -0.2173
  490SOL     MW 1960   1.402   2.101   0.419  0.0120 -0.0295  0.2995
  491SOL     OW 1961   1.253   2.985   0.383  0.3967 -0.0768  0.4611
  491SOL    HW1 1962   1.290   3.001   0.470  0.7472  0.3636  1.9851
  491SOL    HW2 1963   1.178   3.045   0.385  0.4059 -4.9525  0.6816
  491SOL     MW 1964   1.248   2.995   0.394  0.4441 -0.6620  0.6913
  492SOL     OW 1965   1.441   2.141   0.702 -0.0767 -0.0806 -0.4525
  492SOL    HW1 1966   1.392   2.126   0.623 -2.1727 -0.0265  1.1062
  492SOL    HW2 1967   1.386   2.100   0.771 -1.0079 -0.2580  1.6659
  492SOL     MW 1968   1.427   2.134   0.701 -0.4761 -0.0969  0.0326
  493SOL     OW 1969   0.195   2.985   0.350 -0.4391 -0.0042  0.5075
  493SOL    HW1 1970   0.128   3.033   0.398 -0.3850  2.8235 -1.7500
  493SOL    HW2 1971   0.175   2.991   0.257  0.9023 -1.6483  1.0024
  493SOL     MW 1972   0.183   2.992   0.344 -0.2550  0.1520  0.2750
  494SOL     OW 1973   0.382   2.400   1.794  0.2314  0.1058  0.7488
  494SOL    HW1 1974   0.378   2.301   1.794 -0.3880 -2.8030 -2.6964
  494SOL    HW2 1975   0.436   2.434   1.717 -0.0333  2.8892 -0.6537
  494SOL     MW 1976   0.388   2.391   1.784  0.1148  0.0893  0.1092
  495SOL     OW 1977   2.888   1.635   2.748 -0.1207  0.1419  0.6228
  495SOL    HW1 1978   2.890   1.714   2.808  0.8226  1.6378  0.7784
  495SOL    HW2 1979   2.865   1.563   2.808 -0.0627 -1.2631 -1.5528
  495SOL     MW 1980   2.885   1.636   2.764  0.0114  0.1539  0.3563
  496SOL     OW 1981   2.759   2.271   2.729 -0.0410  0.1409  0.0134
  496SOL    HW1 1982   2.765   2.179   2.760  1.1072 -1.1519  0.2062
  496SOL    HW2 1983   2.854   2.301   2.717  1.9332 -1.6163 -1.3406
  496SOL     MW 1984   2.772   2.263   2.731  0.3709 -0.2615 -0.1398
  497SOL     OW 1985   1.499   2.340   2.544  0.1287 -0.0241  0.0417
  497SOL    HW1 1986   1.504   2.292   2.452  0.6175  1.4550 -1.0806
  497SOL    HW2 1987   1.464   2.269   2.601 -0.3569  1.3928  0.5321
  497SOL     MW 1988   1.495   2.324   2.539  0.1292  0.3580 -0.0417
  498SOL     OW 1989   1.462   2.782   2.298  0.5089  0.4156  0.2315
  498SOL    HW1 1990   1.484   2.692   2.268  3.1628  0.4955 -0.9668
  498SOL    HW2 1991   1.531   2.806   2.359 -0.5361 -1.1754 -2.3361
  498SOL     MW 1992   1.474   2.773   2.302  0.7212  0.2162 -0.2654
  499SOL     OW 1993   0.953   0.126   0.094 -0.0503  0.2308  0.1618
  499SOL    HW1 1994   0.874   0.177   0.125 -0.2891  4.0324  1.5661
  499SOL    HW2 1995   0.914   0.038   0.081 -1.2609  1.1099 -0.0110
  499SOL     MW 1996   0.938   0.121   0.097 -0.2415  0.8483  0.3243
  500SOL     OW 1997   1.040   2.509   2.752 -0.0260 -0.2516  0.1464
  500SOL    HW1 1998   1.068   2.472   2.838  0.2918 -0.0157 -1.2899
  500SOL    HW2 1999   0.977   2.582   2.773 -1.6488  0.7212  1.2971
  500SOL     MW 2000   1.035   2.514   2.766 -0.1982 -0.0921  0.1087
  501SOL     OW 2001   1.741   2.230   3.092  0.1761 -0.5096  0.4404
  501SOL    HW1 2002   1.734   2.323   3.115 -0.1990 -0.0645  2.7667
  501SOL    HW2 2003   1.837   2.216   3.110  0.7425  0.2067  0.5103
  501SOL     MW 2004   1.753   2.240   3.098  0.2013 -0.3563  0.7565
  502SOL     OW 2005   0.252   2.697   2.980 -0.2269 -0.1725  0.4357
  502SOL    HW1 2006   0.159   2.683   2.963 -1.6492  0.1489 -0.2827
  502SOL    HW2 2007   0.276   2.771   2.923 -0.0749  0.2099  2.2181
  502SOL     MW 2008   0.243   2.705   2.970 -0.3945 -0.0796  0.5761
  503SOL     OW 2009   1.147   2.591   2.115 -0.2147  0.0856  0.1513
  503SOL    HW1 2010   1.214   2.627   2.052 -1.7379  3.2954 -0.1374
  503SOL    HW2 2011   1.069   2.571   2.065  0.8862  1.6405  2.2525
  503SOL     MW 2012   1.146   2.593   2.100 -0.2704  0.7143  0.3904
  504SOL     OW 2013   0.065   2.643   2.154  0.1729 -0.3437 -0.4380
  504SOL    HW1 2014   0.146   2.627   2.110 -1.8910 -1.5172  0.8972
  504SOL    HW2 2015   0.028   2.552   2.169  1.3758 -3.4593 -0.6084
  504SOL     MW 2016   0.071   2.629   2.150  0.0593 -0.9096 -0.2843
  505SOL     OW 2017   1.606   2.762   2.738  0.1950 -0.8477  0.3585
  505SOL    HW1 2018   1.627   2.769   2.646  0.6142 -3.2866 -2.2205
  505SOL    HW2 2019   1.532   2.824   2.762 -0.4654 -0.5558  1.4893
  505SOL     MW 2020   1.599   2.771   2.729  0.1632 -1.1310  0.1674
  506SOL     OW 2021   1.587   0.053   2.785 -0.1106 -0.2250  0.6904
  506SOL    HW1 2022   1.583  -0.012   2.863  0.4828 -0.7849  1.5403
  506SOL    HW2 2023   1.648   0.022   2.722 -0.7016  0.7853  2.9351
  506SOL     MW 2024   1.595   0.040   2.787 -0.1103 -0.1656  1.0987
  507SOL     OW 2025   0.866   2.719   2.839 -0.1824 -0.3969  0.9787
  507SOL    HW1 2026   0.873   2.777   2.762  2.0094 -0.4663  0.3601
  507SOL    HW2 2027   0.798   2.656   2.815  0.1631 -1.4425  0.0284
  507SOL     MW 2028   0.858   2.719   2.826  0.1524 -0.5440  0.7717
  508SOL     OW 2029   1.160   2.097   2.597  0.0106 -0.4510 -0.1857
  508SOL    HW1 2030   1.246   2.098   2.638  1.1132 -0.5621  0.6375
  508SOL    HW2 2031   1.100   2.065   2.665  0.7976  0.9599  1.4808
  508SOL     MW 2032   1.164   2.093   2.612  0.2599 -0.2795  0.1428
  509SOL     OW 2033   0.640   2.568   2.792 -0.1419  0.1362 -0.3440
  509SOL    HW1 2034   0.626   2.506   2.721  1.5210 -0.8947  1.9060
  509SOL    HW2 2035   0.600   2.658   2.773 -0.4075  2.2666  1.3846
  509SOL     MW 2036   0.633   2.572   2.780  0.0424  0.2813  0.1809
  510SOL     OW 2037   1.528   2.560   1.632  0.6268  0.3897  0.2378
  510SOL    HW1 2038   1.542   2.647   1.594  0.6805 -0.8404  0.8290
  510SOL    HW2 2039   1.464   2.575   1.702 -2.9481 -2.1626  0.5955
  510SOL     MW 2040   1.521   2.574   1.637  0.1622 -0.1093  0.3630
  511SOL     OW 2041   0.355   2.511   2.558  0.0483 -0.0817 -0.0942
  511SOL    HW1 2042   0.420   2.454   2.596 -1.8655 -0.4042  0.8931
  511SOL    HW2 2043   0.387   2.517   2.464  0.6280 -0.9349 -0.6845
  511SOL     MW 2044   0.368   2.504   2.550 -0.1277 -0.2369 -0.0418
  512SOL     OW 2045   1.027   1.985   2.860 -0.1030  0.6929  0.1946
  512SOL    HW1 2046   0.937   2.005   2.841 -0.6565  1.0010  0.0877
  512SOL    HW2 2047   1.042   1.897   2.902 -2.9079 -0.9653 -0.6393
  512SOL     MW 2048   1.017   1.976   2.863 -0.5461  0.5148  0.0705
  513SOL     OW 2049   1.546   2.538   2.189  0.6177  0.3333 -0.4201
  513SOL    HW1 2050   1.627   2.535   2.145 -1.7154  2.2609 -1.0489
  513SOL    HW2 2051   1.548   2.449   2.231  0.1534  0.5128 -0.6809
  513SOL     MW 2052   1.557   2.526   2.189  0.2486  0.6114 -0.5375
  514SOL     OW 2053   0.143   2.346   2.658 -0.2255 -0.0698 -0.5324
  514SOL    HW1 2054   0.196   2.419   2.621 -0.9382 -0.4885 -1.1803
  514SOL    HW2 2055   0.188   2.300   2.732 -1.9176  1.0977 -1.2749
  514SOL     MW 2056   0.156   2.350   2.663 -0.5428  0.0290 -0.7159
  515SOL     OW 2057   1.088   1.940   1.814  0.1707 -1.1385 -0.1156
  515SOL    HW1 2058   1.092   2.038   1.796 -0.8126  2.2625  1.4523
  515SOL    HW2 2059   1.154   1.931   1.884 -3.9683 -2.6188 -1.5285
  515SOL     MW 2060   1.097   1.952   1.821 -0.5052 -0.8851 -0.0951
  516SOL     OW 2061   1.314   2.604   2.936  0.9653  0.0712 -0.2357
  516SOL    HW1 2062   1.330   2.577   2.844 -0.9280 -0.0797 -0.3464
  516SOL    HW2 2063   1.253   2.539   2.961 -1.6232  3.4255 -1.2587
  516SOL     MW 2064   1.308   2.592   2.928  0.3739  0.4938 -0.3853
  517SOL     OW 2065   0.555   2.368   2.294  0.3002  0.5380  0.1829
  517SOL    HW1 2066   0.504   2.449   2.279 -1.6391 -0.9157 -1.7130
  517SOL    HW2 2067   0.533   2.303   2.228 -0.1813 -2.0732  1.1467
  517SOL     MW 2068   0.545   2.370   2.283 -0.0192  0.0017  0.0599
  518SOL     OW 2069   1.810   0.083   3.075 -0.0670 -0.4261 -0.1410
  518SOL    HW1 2070   1.823   0.119   3.158 -0.1277 -0.7286 -0.2760
  518SOL    HW2 2071   1.764   0.001   3.081  1.1796 -0.6698 -0.1525
  518SOL     MW 2072   1.806   0.077   3.087  0.0894 -0.4981 -0.1603
  519SOL     OW 2073   0.669   2.446   1.845  0.8322  0.6563 -0.9193
  519SOL    HW1 2074   0.728   2.371   1.841  0.1446  2.7778 -1.3689
  519SOL    HW2 2075   0.581   2.413   1.860 -0.4243 -1.6483 -3.7051
  519SOL     MW 2076   0.665   2.432   1.847  0.5757  0.6321 -1.3462
  520SOL     OW 2077   1.238   2.122   2.933  0.4966  0.1889  0.0225
  520SOL    HW1 2078   1.155   2.078   2.922  0.1549 -0.2533 -0.0779
  520SOL    HW2 2079   1.272   2.069   3.004 -2.4423  1.3256 -0.3552
  520SOL     MW 2080   1.231   2.109   2.941  0.0637  0.2805 -0.0406
  521SOL     OW 2081   1.793   2.052   2.252  0.6248  0.5463 -0.3317
  521SOL    HW1 2082   1.785   2.059   2.155  1.4857  0.6679 -0.9579
  521SOL    HW2 2083   1.783   1.960   2.261 -0.5907  1.6629  0.8961
  521SOL     MW 2084   1.791   2.041   2.240  0.5780  0.7097 -0.2523
  522SOL     OW 2085   2.883   2.542   2.235  0.0335  0.0711  0.1434
  522SOL    HW1 2086   2.955   2.498   2.291  1.4868 -0.3528 -1.0195
  522SOL    HW2 2087   2.915   2.635   2.248  3.0904  0.4803  0.3146
  522SOL     MW 2088   2.897   2.548   2.244  0.6286  0.0691  0.0126
  523SOL     OW 2089   0.821   1.488   2.151 -0.1165  0.0420 -0.2258
  523SOL    HW1 2090   0.794   1.525   2.070  2.0843  1.1224  1.0929
  523SOL    HW2 2091   0.894   1.425   2.135 -0.3724 -0.7647  1.6199
  523SOL     MW 2092   0.827   1.485   2.139  0.1401  0.0781  0.1917
  524SOL     OW 2093   0.629   2.386   2.993 -0.2603 -0.8873  0.0376
  524SOL    HW1 2094   0.643   2.447   2.922  0.9840  0.1001 -0.1272
  524SOL    HW2 2095   0.700   2.328   2.999  1.0732 -1.0696  2.9329
  524SOL     MW 2096   0.640   2.386   2.985  0.0798 -0.7811  0.3979
  525SOL     OW 2097   0.413   2.199   2.114  0.5727  0.3685  0.1217
  525SOL    HW1 2098   0.379   2.142   2.179  3.4159  0.8362 -1.8920
  525SOL    HW2 2099   0.456   2.145   2.052  1.2628 -0.8465 -0.3015
  525SOL     MW 2100   0.414   2.184   2.115  1.0389  0.2699 -0.1998
  526SOL     OW 2101   0.696   2.124   2.016 -0.7846  0.1668 -0.0006
  526SOL    HW1 2102   0.744   2.142   1.926  0.9101  2.5684  2.9435
  526SOL    HW2 2103   0.758   2.145   2.086  1.1743 -0.1326  1.6141
  526SOL     MW 2104   0.711   2.129   2.014 -0.3025  0.4442  0.6009
  527SOL     OW 2105   1.275   1.898   2.010 -0.2252 -0.4077  0.2066
  527SOL    HW1 2106   1.256   1.841   2.085  0.4442  3.1220  1.3681
  527SOL    HW2 2107   1.325   1.842   1.950  0.9761 -0.5393  0.6183
  527SOL     MW 2108   1.279   1.883   2.012  0.0216  0.0406  0.4142
  528SOL     OW 2109   0.626   2.897   2.969  0.1722  0.0543 -0.5729
  528SOL    HW1 2110   0.631   2.993   2.983 -0.0966 -3.1809  0.5000
  528SOL    HW2 2111   0.627   2.888   2.874 -1.2581 -2.7608  1.8213
  528SOL     MW 2112   0.627   2.908   2.958 -0.0520 -0.7440 -0.1155
  529SOL     OW 2113   1.112   2.214   1.798 -0.2839 -0.4639  1.0355
  529SOL    HW1 2114   1.125   2.242   1.889 -1.6799 -1.0073 -0.4689
  529SOL    HW2 2115   1.182   2.244   1.744 -0.3180  2.3807 -0.7593
  529SOL     MW 2116   1.123   2.221   1.803 -0.4725 -0.1603  0.6002
  530SOL     OW 2117   1.139   2.393   2.957  0.0041 -0.1978  0.1722
  530SOL    HW1 2118   1.087   2.391   3.037 -1.6875 -0.9959  0.5132
  530SOL    HW2 2119   1.159   2.304   2.943 -1.9596  0.0665  1.0657
  530SOL     MW 2120   1.135   2.381   2.966 -0.4781 -0.2682  0.3351
  531SOL     OW 2121   0.909   1.811   2.630  0.0664 -0.3689 -0.1230
  531SOL    HW1 2122   0.869   1.877   2.690  0.0482 -0.6609 -0.4716
  531SOL    HW2 2123   0.850   1.742   2.656  0.7664  0.1952 -0.5747
  531SOL     MW 2124   0.896   1.811   2.642  0.1564 -0.3330 -0.2286
  532SOL     OW 2125   1.658   0.315   2.861 -0.1501 -0.4777 -0.3114
  532SOL    HW1 2126   1.633   0.227   2.846 -0.4034 -2.8127  1.4198
  532SOL    HW2 2127   1.707   0.312   2.941  0.2278 -2.0314 -2.2123
  532SOL     MW 2128   1.661   0.303   2.870 -0.1337 -0.9908 -0.3338
  533SOL     OW 2129   1.791   2.732   2.949 -0.0467 -0.2400 -0.5367
  533SOL    HW1 2130   1.761   2.655   3.001  0.5551  1.4150 -1.7543
  533SOL    HW2 2131   1.735   2.743   2.869  1.0990 -0.6464 -1.6221
  533SOL     MW 2132   1.779   2.723   2.945  0.1839 -0.0753 -0.8405
  534SOL     OW 2133   1.741   2.464   2.505 -0.4582 -0.4076 -0.5748
  534SOL    HW1 2134   1.664   2.415   2.527 -0.0708 -0.9824 -0.2150
  534SOL    HW2 2135   1.797   2.468   2.583 -0.9855  1.4449  2.0556
  534SOL     MW 2136   1.739   2.458   2.518 -0.4766 -0.2390 -0.1803
  535SOL     OW 2137   1.819   2.360   1.911 -0.0473  0.2054  0.0373
  535SOL    HW1 2138   1.757   2.349   1.835 -0.7124  1.7904  2.4816
  535SOL    HW2 2139   1.897   2.392   1.861 -0.2708  0.3826 -1.3901
  535SOL     MW 2140   1.821   2.363   1.894 -0.1646  0.4379  0.1715
  536SOL     OW 2141   0.463   1.819   2.012  0.5123 -0.1934 -0.2962
  536SOL    HW1 2142   0.438   1.893   1.960 -2.9438 -1.2074  0.6519
  536SOL    HW2 2143   0.549   1.842   2.042  0.5263 -1.6057 -0.4966
  536SOL     MW 2144   0.471   1.832   2.009  0.0582 -0.5135 -0.1975
  537SOL     OW 2145   1.010   0.180   2.910  0.4898 -0.0130 -0.5216
  537SOL    HW1 2146   0.968   0.175   2.995 -0.0929  0.8722  2.7432
  537SOL    HW2 2147   0.972   0.261   2.867  3.2811  0.2445 -1.2549
  537SOL     MW 2148   1.000   0.190   2.915  0.7812  0.1378 -0.1876
  538SOL     OW 2149   1.312   0.048   3.033 -0.1470  0.1335 -0.5641
  538SOL    HW1 2150   1.239   0.062   2.983  0.9178 -0.6018 -1.2276
  538SOL    HW2 2151   1.355   0.133   3.028  1.5490  1.8891 -0.1778
  538SOL     MW 2152   1.308   0.061   3.026  0.2173  0.2681 -0.6007
  539SOL     OW 2153   0.719   2.698   2.525  0.3409  0.3248 -0.2075
  539SOL    HW1 2154   0.793   2.754   2.543 -0.3939  1.2305 -0.3714
  539SOL    HW2 2155   0.740   2.614   2.571 -2.6610 -3.3354 -0.9636
  539SOL     MW 2156   0.731   2.695   2.534 -0.1521 -0.0386 -0.3289
  540SOL     OW 2157   0.357   2.244   2.837 -0.1376  0.4239 -0.1049
  540SOL    HW1 2158   0.416   2.308   2.868 -0.2771  0.3858 -0.9130
  540SOL    HW2 2159   0.334   2.196   2.920 -1.0447  0.0493 -1.3634
  540SOL     MW 2160   0.362   2.246   2.852 -0.2757  0.3694 -0.3775
  541SOL     OW 2161   0.189   2.869   2.266 -0.1035 -0.2135 -0.4846
  541SOL    HW1 2162   0.164   2.783   2.230  0.6954  0.3018 -0.1224
  541SOL    HW2 2163   0.241   2.852   2.348  3.1890  2.1976 -0.7903
  541SOL     MW 2164   0.192   2.855   2.272  0.4363  0.1726 -0.4771
  542SOL     OW 2165   0.896   2.282   2.726  0.3619 -0.0832 -0.8163
  542SOL    HW1 2166   0.851   2.257   2.812 -2.9036  1.8915  1.8979
  542SOL    HW2 2167   0.953   2.360   2.742 -1.9256 -0.0046 -1.1849
  542SOL     MW 2168   0.897   2.289   2.739 -0.3707  0.1877 -0.5068
  543SOL     OW 2169   1.400   2.583   2.676  0.1135 -0.7935  0.0868
  543SOL    HW1 2170   1.427   2.503   2.630  0.4335 -1.7225  0.2994
  543SOL    HW2 2171   1.481   2.639   2.696 -1.0063  1.5435  0.0349
  543SOL     MW 2172   1.414   2.580   2.673  0.0080 -0.6077  0.1080
  544SOL     OW 2173   0.690   0.136   2.638 -0.4237  0.9235  1.0590
  544SOL    HW1 2174   0.628   0.065   2.604 -2.1607 -1.7387 -0.9756
  544SOL    HW2 2175   0.756   0.143   2.566  1.0525 -0.3953 -0.2864
  544SOL     MW 2176   0.691   0.128   2.624 -0.4581  0.3983  0.6131
  545SOL     OW 2177   1.538   2.158   2.330 -0.2643 -0.1405  0.0951
  545SOL    HW1 2178   1.512   2.092   2.388  2.0079  1.3710 -3.2878
  545SOL    HW2 2179   1.629   2.117   2.319 -0.6920 -3.0636  1.2193
  545SOL     MW 2180   1.547   2.144   2.336 -0.0210 -0.3268 -0.2029
  546SOL     OW 2181   2.992   1.984   0.098 -0.2205 -0.3931  0.3884
  546SOL    HW1 2182   2.974   2.018   0.008 -1.5432  0.3324  0.0014
  546SOL    HW2 2183   3.084   1.944   0.090  3.9951 -3.1536 -1.4468
  546SOL     MW 2184   3.001   1.983   0.085  0.1612 -0.6616  0.0952
  547SOL     OW 2185   0.135   2.945   0.075  0.0256  0.5616  0.3035
  547SOL    HW1 2186   0.159   2.986  -0.005  0.3732  1.2648  1.1788
  547SOL    HW2 2187   0.202   2.876   0.095  2.1615  0.2662 -1.9007
  547SOL     MW 2188   0.147   2.941   0.067  0.3532  0.6154  0.1282
  548SOL     OW 2189   0.312   2.494   0.269 -0.4889 -0.6836  0.1176
  548SOL    HW1 2190   0.334   2.572   0.219  0.5016  1.3422  1.0405
  548SOL    HW2 2191   0.236   2.463   0.221  2.1621  2.3102 -0.8345
  548SOL     MW 2192   0.305   2.500   0.256 -0.0085 -0.0213  0.1138
  549SOL     OW 2193   0.698   1.883   2.105  0.1049  0.1140 -0.1279
  549SOL    HW1 2194   0.700   1.964   2.051  3.1026  1.6800 -3.4169
  549SOL    HW2 2195   0.726   1.905   2.192  1.7717  0.9827 -1.4789
  549SOL     MW 2196   0.702   1.897   2.109  0.7203  0.4352 -0.7401
  550SOL     OW 2197   1.826   1.749   2.566 -0.4860  0.4309  0.1633
  550SOL    HW1 2198   1.830   1.756   2.473  2.6413 -1.3372  0.0401
  550SOL    HW2 2199   1.824   1.832   2.609  2.7587 -0.9019 -0.1723
  550SOL     MW 2200   1.826   1.761   2.560  0.3547  0.0218  0.1028
  551SOL     OW 2201   0.875   2.325   0.231 -0.1541  0.6122 -0.9007
  551SOL    HW1 2202   0.956   2.369   0.208 -0.4082  2.1144 -1.5416
  551SOL    HW2 2203   0.901   2.235   0.226  0.1952  1.3548  2.0615
  551SOL     MW 2204   0.889   2.319   0.227 -0.1416  0.9084 -0.5944
  552SOL     OW 2205   1.789   1.772   2.292  0.5991  0.0864  0.1496
  552SOL    HW1 2206   1.698   1.755   2.279  3.9431 -0.5377  1.0120
  552SOL    HW2 2207   1.848   1.720   2.224  0.7051  0.2172  3.4552
  552SOL     MW 2208   1.785   1.763   2.281  1.0543  0.0213  0.6995
  553SOL     OW 2209   1.208   2.321   1.535 -0.0712 -0.0805  0.2755
  553SOL    HW1 2210   1.242   2.232   1.531 -0.6966 -1.1439 -1.5703
  553SOL    HW2 2211   1.266   2.380   1.486  0.7845 -1.3856 -2.3874
  553SOL     MW 2212   1.220   2.317   1.528 -0.0408 -0.3930 -0.3194
  554SOL     OW 2213   0.567   2.830   2.710  0.3067  0.0774 -0.4064
  554SOL    HW1 2214   0.520   2.905   2.665 -0.7397  0.9418  3.0442
  554SOL    HW2 2215   0.604   2.787   2.641  0.7166  0.3402  3.3705
  554SOL     MW 2216   0.565   2.834   2.695  0.2227  0.2261  0.5472
  555SOL     OW 2217   0.602   2.373   2.602  0.3785  0.0921 -0.1605
  555SOL    HW1 2218   0.589   2.284   2.638  0.1920 -0.7322 -0.5397
  555SOL    HW2 2219   0.686   2.366   2.562 -2.0551 -0.2211  0.8386
  555SOL     MW 2220   0.611   2.360   2.601  0.0328 -0.0580 -0.0787
  556SOL     OW 2221   1.034   1.788   0.138 -0.2788  0.5487 -0.1911
  556SOL    HW1 2222   1.039   1.792   0.040 -1.3582 -1.1091  0.3763
  556SOL    HW2 2223   1.120   1.802   0.170  0.6095  1.7110 -2.4294
  556SOL     MW 2224   1.046   1.790   0.129 -0.3040  0.4833 -0.4116
  557SOL     OW 2225   0.970   2.698   0.461 -1.2724  0.1103 -0.8523
  557SOL    HW1 2226   1.033   2.697   0.386  0.0494  0.7925  0.5369
  557SOL    HW2 2227   0.911   2.785   0.455  0.4628  1.7343 -1.8314
  557SOL     MW 2228   0.970   2.709   0.450 -0.8691  0.4146 -0.7982
  558SOL     OW 2229   0.277   2.120   3.090 -0.5886  0.3504  0.4776
  558SOL    HW1 2230   0.230   2.039   3.111  0.2318 -3.4199 -0.1430
  558SOL    HW2 2231   0.232   2.192   3.126  1.4164  1.5720  0.0126
  558SOL     MW 2232   0.265   2.119   3.097 -0.2158  0.0141  0.3344
  559SOL     OW 2233   1.176   2.305   2.049 -0.0534  0.0412 -0.2311
  559SOL    HW1 2234   1.191   2.390   2.100 -1.0700 -0.6115  1.4128
  559SOL    HW2 2235   1.193   2.241   2.115  0.8481  0.6017 -2.7111
  559SOL     MW 2236   1.180   2.308   2.065 -0.0686  0.0290 -0.3414
  560SOL     OW 2237   1.974   2.834   0.019  0.3370 -1.4880  0.4315
  560SOL    HW1 2238   2.040   2.879  -0.038  0.5467 -1.6193  1.0788
  560SOL    HW2 2239   1.909   2.796  -0.043  0.6699  1.1520 -0.0309
  560SOL     MW 2240   1.974   2.835   0.003  0.4086 -1.1570  0.4559
  561SOL     OW 2241   0.477   2.083   0.209  0.3696 -0.4416  0.4105
  561SOL    HW1 2242   0.424   2.115   0.131 -3.8322 -0.6959 -5.1046
  561SOL    HW2 2243   0.512   2.164   0.245 -3.8153 -0.3196 -0.6010
  561SOL     MW 2244   0.474   2.098   0.203 -0.7370 -0.4590 -0.4506
  562SOL     OW 2245   0.901   2.169   2.182  0.3548  0.0180 -0.3475
  562SOL    HW1 2246   0.902   2.262   2.173 -1.2389 -0.4103 -1.4109
  562SOL    HW2 2247   0.985   2.136   2.216  0.6558  1.4806  1.3687
  562SOL     MW 2248   0.912   2.177   2.185  0.1842  0.1545 -0.2614
  563SOL     OW 2249   1.205   0.276   0.569 -0.6025 -0.7789 -0.4358
  563SOL    HW1 2250   1.143   0.263   0.494 -2.3638  0.1913 -0.8653
  563SOL    HW2 2251   1.253   0.191   0.576  1.1157 -2.4204  0.5882
  563SOL     MW 2252   1.203   0.263   0.560 -0.6082 -0.8675 -0.3574
  564SOL     OW 2253   1.024   2.585   2.381  0.2337 -0.4849  0.3679
  564SOL    HW1 2254   1.063   2.600   2.294  0.9615  2.5407  2.2249
  564SOL    HW2 2255   1.080   2.626   2.443  1.4877  0.7780 -1.9043
  564SOL     MW 2256   1.037   2.592   2.378  0.4952  0.0809  0.3131
  565SOL     OW 2257   2.926   2.643   2.585 -0.3985  0.3722 -0.5247
  565SOL    HW1 2258   3.000   2.698   2.564  1.2917  2.1361  0.5300
  565SOL    HW2 2259   2.843   2.650   2.535  2.9974 -1.0592  1.1510
  565SOL     MW 2260   2.925   2.651   2.575  0.2725  0.4161 -0.1645
  566SOL     OW 2261   2.261   1.938   2.346  0.4497 -0.0086 -0.1739
  566SOL    HW1 2262   2.288   1.946   2.253 -0.5806  0.0655 -1.3443
  566SOL    HW2 2263   2.293   2.021   2.386 -1.3838  0.5900 -0.0536
  566SOL     MW 2264   2.269   1.950   2.339  0.0719  0.0802 -0.3125
  567SOL     OW 2265   1.202   2.902   0.059  0.0141 -0.4816  0.8661
  567SOL    HW1 2266   1.263   2.979   0.065  0.2810 -1.9744  1.5692
  567SOL    HW2 2267   1.201   2.880  -0.034  0.2007 -0.4934 -0.9694
  567SOL     MW 2268   1.210   2.909   0.047  0.0739 -0.6801  0.7167
  568SOL     OW 2269   1.648   2.129   2.860  0.1874 -0.3871  0.2933
  568SOL    HW1 2270   1.689   2.153   2.948 -1.2952 -0.0486  1.8024
  568SOL    HW2 2271   1.712   2.075   2.817 -1.7852  3.0561 -1.9409
  568SOL     MW 2272   1.662   2.125   2.866 -0.2685  0.1119  0.1976
  569SOL     OW 2273   0.132   2.188   2.425  1.2564  0.4379  0.1989
  569SOL    HW1 2274   0.091   2.249   2.360  3.7907  1.4195  1.5137
  569SOL    HW2 2275   0.137   2.233   2.513 -1.5964 -3.1240  0.9479
  569SOL     MW 2276   0.128   2.202   2.428  1.2144  0.0974  0.4712
  570SOL     OW 2277   1.427   0.430   0.498  0.3333  0.1149  0.0653
  570SOL    HW1 2278   1.347   0.385   0.530 -1.5983  3.1065 -0.2556
  570SOL    HW2 2279   1.449   0.479   0.568 -0.1354 -1.6510  0.7191
  570SOL     MW 2280   1.419   0.430   0.511  0.0166  0.2766  0.1092
  571SOL     OW 2281   1.482   2.394   1.931  0.1586 -0.1937 -0.3715
  571SOL    HW1 2282   1.487   2.411   2.022 -0.1049 -0.7932 -2.2442
  571SOL    HW2 2283   1.480   2.299   1.927  2.1375  0.3881 -1.1602
  571SOL     MW 2284   1.482   2.384   1.942  0.3849 -0.1961 -0.7226
  572SOL     OW 2285   0.926   2.613   3.081  0.0819  0.4312 -0.1446
  572SOL    HW1 2286   0.916   2.656   2.996 -0.2815  1.4448  1.2405
  572SOL    HW2 2287   0.840   2.617   3.111  0.3475  0.6871 -0.5714
  572SOL     MW 2288   0.914   2.619   3.074  0.0690  0.5987 -0.0181
  573SOL     OW 2289   1.117   2.418   0.194 -0.2802 -0.0463 -0.3120
  573SOL    HW1 2290   1.210   2.396   0.165 -1.2865 -1.4721  3.0731
  573SOL    HW2 2291   1.114   2.510   0.224  0.6014  3.3359  1.0896
  573SOL     MW 2292   1.129   2.427   0.194 -0.2966  0.2118  0.3196
  574SOL     OW 2293   1.142   2.677   0.256 -0.2351  0.1435  0.3588
  574SOL    HW1 2294   1.233   2.675   0.287 -2.0411 -0.1328 -2.0021
  574SOL    HW2 2295   1.139   2.736   0.175 -1.9495  0.2895 -0.9336
  574SOL     MW 2296   1.154   2.685   0.249 -0.6996  0.1263 -0.1232
  575SOL     OW 2297   3.053   2.304   1.851  0.2260 -0.8938 -0.7245
  575SOL    HW1 2298   3.033   2.217   1.808 -3.7730 -1.5953 -0.9699
  575SOL    HW2 2299   3.118   2.350   1.795  0.7493  0.5123 -0.7274
  575SOL     MW 2300   3.059   2.299   1.838 -0.2326 -0.8008 -0.7572
  576SOL     OW 2301   2.801   1.833   2.071  0.2096 -0.1345  0.7349
  576SOL    HW1 2302   2.830   1.910   2.022 -2.7596 -1.1639  1.3101
  576SOL    HW2 2303   2.711   1.815   2.039  0.0986  0.9877  1.3357
  576SOL     MW 2304   2.793   1.841   2.060 -0.1968 -0.1223  0.8900
  577SOL     OW 2305   2.098   0.260   0.082  0.4691  0.2842  0.0104
  577SOL    HW1 2306   2.041   0.293   0.016 -2.5064  2.6854  0.1319
  577SOL    HW2 2307   2.047   0.207   0.145  1.1805  2.2964 -2.3832
  577SOL     MW 2308   2.084   0.257   0.081  0.1704  0.8665 -0.2894
  578SOL     OW 2309   2.027   2.075   2.382 -0.5158 -0.4899 -0.0724
  578SOL    HW1 2310   1.964   2.059   2.311  3.2475  1.4079 -0.9091
  578SOL    HW2 2311   2.107   2.022   2.361 -0.2761 -1.4117 -2.7819
  578SOL     MW 2312   2.029   2.066   2.370  0.0124 -0.3611 -0.5403
  579SOL     OW 2313   0.839   2.417   2.488  0.1612 -0.1256 -0.6058
  579SOL    HW1 2314   0.887   2.349   2.534 -1.2682  0.3358  2.5263
  579SOL    HW2 2315   0.909   2.483   2.466 -1.1964 -0.4079  0.8145
  579SOL     MW 2316   0.854   2.416   2.491 -0.2065 -0.1019 -0.0051
  580SOL     OW 2317   0.892   2.945   0.039 -0.2139  0.8933  0.1800
  580SOL    HW1 2318   0.985   2.904   0.029 -2.2924 -2.6775 -0.8335
  580SOL    HW2 2319   0.843   2.917  -0.033  1.1251  1.8155  0.6704
  580SOL     MW 2320   0.898   2.936   0.028 -0.3115  0.5439  0.1110
  581SOL     OW 2321   1.078   2.518   1.714 -0.7896 -0.2185 -0.5421
  581SOL    HW1 2322   1.120   2.532   1.798 -0.3517 -2.6589 -1.1629
  581SOL    HW2 2323   1.138   2.460   1.669  0.2764  3.7400  0.7298
  581SOL     MW 2324   1.091   2.512   1.719 -0.5912 -0.0182 -0.4562
  582SOL     OW 2325   0.005   2.831   2.535 -0.2753  0.2533 -0.5616
  582SOL    HW1 2326   0.005   2.896   2.601  0.7120 -2.5408  0.5779
  582SOL    HW2 2327   0.103   2.808   2.530 -0.1168 -1.6990  0.1120
  582SOL     MW 2328   0.018   2.837   2.543 -0.1241 -0.3730 -0.3224
  583SOL     OW 2329   1.987   2.455   2.640 -0.1421 -0.2382  0.1126
  583SOL    HW1 2330   2.074   2.486   2.601  2.3656  3.4772  2.1776
  583SOL    HW2 2331   2.003   2.364   2.640  0.9224 -1.4322 -1.7154
  583SOL     MW 2332   2.000   2.447   2.635  0.3292  0.0945  0.1439
  584SOL     OW 2333   0.183   1.857   2.119 -0.3544  0.3952  0.1582
  584SOL    HW1 2334   0.275   1.839   2.088  0.5724  1.0476 -1.3966
  584SOL    HW2 2335   0.197   1.918   2.188  0.1171 -2.4032 -0.1808
  584SOL     MW 2336   0.197   1.863   2.124 -0.1699  0.1121 -0.0917
  585SOL     OW 2337   1.492   2.563   0.048  0.3335  0.7171  0.5564
  585SOL    HW1 2338   1.440   2.579  -0.031 -2.1404 -0.6407  0.0762
  585SOL    HW2 2339   1.458   2.630   0.111 -2.1089 -2.4434 -1.4525
  585SOL     MW 2340   1.480   2.574   0.046 -0.3152  0.1209  0.2280
  586SOL     OW 2341   1.236   2.993   2.380  0.1380 -0.3016 -0.0751
  586SOL    HW1 2342   1.314   2.981   2.329 -1.3352 -1.1766  0.2285
  586SOL    HW2 2343   1.261   3.022   2.470  1.3262 -0.4222  3.3446
  586SOL     MW 2344   1.250   2.995   2.385  0.1004 -0.4330  0.4162
  587SOL     OW 2345   1.241   1.625   2.126  0.2000 -0.0841 -0.0419
  587SOL    HW1 2346   1.202   1.558   2.186 -0.1498  0.9037  1.0178
  587SOL    HW2 2347   1.222   1.588   2.040 -0.8491 -1.1207 -3.1360
  587SOL     MW 2348   1.234   1.611   2.123  0.0154 -0.0905 -0.3103
  588SOL     OW 2349   1.401   2.111   2.719 -0.5296  0.3235 -0.1847
  588SOL    HW1 2350   1.486   2.114   2.757 -1.3040 -1.3289  1.7470
  588SOL    HW2 2351   1.352   2.119   2.804  1.2969  0.6746 -1.6451
  588SOL     MW 2352   1.405   2.113   2.735 -0.3908  0.1518 -0.1225
  589SOL     OW 2353   1.357   2.069   0.077 -0.0798  0.2579  0.2414
  589SOL    HW1 2354   1.362   2.161   0.110  0.4162 -0.5152  3.7207
  589SOL    HW2 2355   1.298   2.025   0.138 -0.0760  0.7470  0.0117
  589SOL     MW 2356   1.350   2.075   0.089 -0.0138  0.2205  0.6702
  590SOL     OW 2357   0.412   2.603   2.249 -0.3177 -0.4389  0.3386
  590SOL    HW1 2358   0.382   2.600   2.158 -2.0142 -0.0993  1.2895
  590SOL    HW2 2359   0.492   2.653   2.240  1.0072 -1.8830 -2.4950
  590SOL     MW 2360   0.419   2.609   2.235 -0.3667 -0.5846  0.0902
  591SOL     OW 2361   2.311   0.711   3.099  0.2916  0.1004  0.6802
  591SOL    HW1 2362   2.229   0.737   3.059  0.8066  2.5687  0.4771
  591SOL    HW2 2363   2.381   0.773   3.069  1.2500  0.5223 -0.3759
  591SOL     MW 2364   2.310   0.722   3.090  0.4860  0.4817  0.5140
  592SOL     OW 2365   1.849   3.012   0.841  0.2544  0.0676 -0.1815
  592SOL    HW1 2366   1.867   3.046   0.755 -1.9280  2.9259 -0.8708
  592SOL    HW2 2367   1.898   2.930   0.824  0.7514  0.9409 -0.9145
  592SOL     MW 2368   1.858   3.006   0.827  0.0320  0.5600 -0.3692
  593SOL     OW 2369   1.902   0.761   0.857 -0.2357 -0.6629 -0.3793
  593SOL    HW1 2370   1.831   0.743   0.789 -1.8199 -0.4318 -0.4420
  593SOL    HW2 2371   1.936   0.675   0.872  0.2787 -0.1679 -1.8794
  593SOL     MW 2372   1.897   0.747   0.850 -0.3769 -0.5671 -0.5855
  594SOL     OW 2373   2.725   1.123   1.377  0.1804 -0.3751  0.1293
  594SOL    HW1 2374   2.808   1.138   1.424  0.5263  1.1317  0.4168
  594SOL    HW2 2375   2.729   1.108   1.284  1.8911 -0.6443  0.2219
  594SOL     MW 2376   2.736   1.123   1.371  0.4517 -0.2118  0.1794
  595SOL     OW 2377   0.449   0.948   0.695 -0.1035  0.5039 -0.7369
  595SOL    HW1 2378   0.475   1.017   0.637 -0.1212  0.1324  1.0642
  595SOL    HW2 2379   0.450   0.993   0.781  1.1130 -0.1041 -3.1854
  595SOL     MW 2380   0.452   0.963   0.699  0.0547  0.3747 -0.8223
  596SOL     OW 2381   2.427   1.372   0.598 -0.5392  0.0159  0.1768
  596SOL    HW1 2382   2.446   1.441   0.534  3.0587  0.1442 -1.4495
  596SOL    HW2 2383   2.507   1.360   0.652  1.0592 -0.0144  0.0150
  596SOL     MW 2384   2.440   1.379   0.596  0.1464  0.0289 -0.0591
  597SOL     OW 2385   2.183   0.651   1.732 -0.1260 -0.1517  0.1787
  597SOL    HW1 2386   2.263   0.598   1.732 -0.6394 -0.1140  0.1246
  597SOL    HW2 2387   2.143   0.613   1.651  4.0332  0.1195  0.3070
  597SOL     MW 2388   2.188   0.639   1.722  0.3550 -0.1109  0.1885
  598SOL     OW 2389   2.605   1.017   2.844  0.1942 -0.1018  0.0581
  598SOL    HW1 2390   2.676   0.985   2.775 -0.8621  1.4635 -1.5787
  598SOL    HW2 2391   2.649   1.088   2.896 -1.4421  4.6242  0.1284
  598SOL     MW 2392   2.620   1.022   2.842 -0.1611  0.7283 -0.1486
  599SOL     OW 2393   2.927   0.342   2.026 -0.2149 -0.0367  0.5400
  599SOL    HW1 2394   2.887   0.363   2.112  0.4768 -2.6555 -1.3887
  599SOL    HW2 2395   2.961   0.425   1.987 -1.1429  0.6572  1.2566
  599SOL     MW 2396   2.926   0.355   2.032 -0.2461 -0.2907  0.3801
  600SOL     OW 2397   1.896   1.723   0.878  0.0239 -0.0966  0.0884
  600SOL    HW1 2398   1.894   1.744   0.971  1.0215  1.7914 -1.9915
  600SOL    HW2 2399   1.808   1.758   0.853  1.0642 -3.7971 -1.5064
  600SOL     MW 2400   1.884   1.730   0.887  0.2928 -0.3358 -0.3965
  601SOL     OW 2401   2.526   0.803   0.850 -0.2038 -0.1526 -0.0945
  601SOL    HW1 2402   2.506   0.826   0.944 -1.0751  0.0205 -2.5232
  601SOL    HW2 2403   2.466   0.736   0.821  0.0771 -2.5087 -2.0282
  601SOL     MW 2404   2.515   0.797   0.859 -0.2817 -0.4406 -0.6701
  602SOL     OW 2405   2.332   1.917   0.708  0.4072 -0.0685  0.0759
  602SOL    HW1 2406   2.260   1.864   0.743  1.6519 -1.4937  1.9119
  602SOL    HW2 2407   2.282   1.994   0.670  0.7623  1.7157  2.7384
  602SOL     MW 2408   2.316   1.920   0.708  0.6183 -0.0211  0.6694
  603SOL     OW 2409   2.997   1.399   1.788  0.4975  0.0615  0.0988
  603SOL    HW1 2410   3.074   1.420   1.831  0.2148 -1.8721 -0.9071
  603SOL    HW2 2411   3.004   1.306   1.760  1.3878 -1.3158 -1.0869
  603SOL     MW 2412   3.008   1.389   1.790  0.5777 -0.3753 -0.1903
  604SOL     OW 2413   2.114   1.583   0.443 -0.0583 -0.4572  0.1293
  604SOL    HW1 2414   2.151   1.527   0.510  0.0337 -2.0162  0.1502
  604SOL    HW2 2415   2.072   1.652   0.494  0.5780  1.1063 -0.9586
  604SOL     MW 2416   2.113   1.585   0.458  0.0378 -0.4566 -0.0115
  605SOL     OW 2417   2.687   1.567   0.850  0.1019 -0.3632 -0.4848
  605SOL    HW1 2418   2.601   1.601   0.831  1.1459 -1.9831  1.2660
  605SOL    HW2 2419   2.671   1.481   0.884 -2.4387  3.3304  1.8396
  605SOL     MW 2420   2.673   1.560   0.852 -0.0955 -0.0896  0.0529
  606SOL     OW 2421   2.570   1.761   1.953 -0.1313 -0.2340 -0.8935
  606SOL    HW1 2422   2.474   1.754   1.937  1.1096  1.3454 -4.0581
  606SOL    HW2 2423   2.606   1.685   1.903 -3.2695  0.2397 -2.8098
  606SOL     MW 2424   2.562   1.750   1.944 -0.3816  0.0369 -1.5639
  607SOL     OW 2425   2.348   1.010   3.011 -0.3268  0.4968  0.3323
  607SOL    HW1 2426   2.428   1.039   2.968 -0.4111 -0.5620 -1.3658
  607SOL    HW2 2427   2.362   1.041   3.105  3.0227  0.0709 -1.9299
  607SOL     MW 2428   2.361   1.018   3.017  0.1040  0.3009 -0.1902
  608SOL     OW 2429   1.881   0.314   0.571  0.0712  0.5893  0.4292
  608SOL    HW1 2430   1.898   0.349   0.486 -3.8917  2.1329  0.3473
  608SOL    HW2 2431   1.845   0.221   0.568 -0.6198 -1.0623  0.0993
  608SOL     MW 2432   1.878   0.306   0.559 -0.5428  0.5751  0.3749
  609SOL     OW 2433   2.166   1.952   3.046  0.4537  0.0807  0.2033
  609SOL    HW1 2434   2.104   1.893   2.996  0.1669  1.2374  0.1301
  609SOL    HW2 2435   2.163   1.925   3.136 -0.1198  1.1991 -0.0770
  609SOL     MW 2436   2.157   1.941   3.051  0.3402  0.3809  0.1567
  610SOL     OW 2437   1.873   1.071   1.275  0.2673 -0.1891 -0.8993
  610SOL    HW1 2438   1.874   0.995   1.208 -1.7356 -0.5369 -0.1797
  610SOL    HW2 2439   1.783   1.064   1.312 -0.8880 -0.4201  0.5171
  610SOL     MW 2440   1.861   1.060   1.271 -0.1494 -0.2654 -0.6175
  611SOL     OW 2441   2.447   1.662   0.718  0.2374  0.3319  0.5893
  611SOL    HW1 2442   2.395   1.734   0.678 -0.0361  0.0858 -3.3301
  611SOL    HW2 2443   2.478   1.614   0.637 -3.1810 -1.5359  3.3135
  611SOL     MW 2444   2.444   1.665   0.702 -0.2497  0.0530  0.4316
  612SOL     OW 2445   2.789   2.837   0.467 -0.1419 -0.0187 -0.5268
  612SOL    HW1 2446   2.816   2.887   0.548 -1.9928 -0.8324  0.6285
  612SOL    HW2 2447   2.868   2.820   0.414 -0.7465 -1.6653  0.1805
  612SOL     MW 2448   2.803   2.841   0.471 -0.4659 -0.3433 -0.2810
  613SOL     OW 2449   1.554   1.036   1.081  0.2331 -0.2968 -0.5714
  613SOL    HW1 2450   1.580   1.126   1.095 -0.8547 -2.6040  0.0606
  613SOL    HW2 2451   1.594   0.987   1.154 -2.5217 -0.9581 -1.2086
  613SOL     MW 2452   1.563   1.042   1.093 -0.2739 -0.6885 -0.5721
  614SOL     OW 2453   2.058   0.565   1.520 -0.2331 -0.0856  0.2470
  614SOL    HW1 2454   2.043   0.471   1.536  0.2345 -2.0577  0.7935
  614SOL    HW2 2455   2.031   0.568   1.428 -0.3216 -1.2467  0.4299
  614SOL     MW 2456   2.053   0.553   1.510 -0.1831 -0.4990  0.3433
  615SOL     OW 2457   2.243   0.838   0.228 -0.5396  0.1683  0.0748
  615SOL    HW1 2458   2.299   0.788   0.284  0.4012 -1.8967 -0.6908
  615SOL    HW2 2459   2.263   0.803   0.144 -2.7336 -1.4385  1.6865
  615SOL     MW 2460   2.253   0.827   0.224 -0.7049 -0.3161  0.1865
  616SOL     OW 2461   2.555   0.404   1.616  1.2226 -0.9348 -0.0001
  616SOL    HW1 2462   2.504   0.343   1.566  0.1586 -0.2722  0.8544
  616SOL    HW2 2463   2.618   0.450   1.557  0.9014 -2.9523 -2.2777
  616SOL     MW 2464   2.557   0.402   1.602  1.0398 -1.1135 -0.1878
  617SOL     OW 2465   2.837   0.584   1.735 -0.6544 -0.0777  0.0834
  617SOL    HW1 2466   2.760   0.605   1.786 -3.0194 -2.5170  0.3233
  617SOL    HW2 2467   2.841   0.491   1.726 -0.6795  0.5585  1.0774
  617SOL     MW 2468   2.827   0.575   1.740 -0.9697 -0.3156  0.2462
  618SOL     OW 2469   2.688   0.345   1.898  0.3657 -0.0259  0.2419
  618SOL    HW1 2470   2.666   0.437   1.903  0.4732  0.0076  1.0841
  618SOL    HW2 2471   2.773   0.332   1.941  0.1272 -1.5604 -1.7404
  618SOL     MW 2472   2.697   0.356   1.905  0.3484 -0.2240  0.0915
  619SOL     OW 2473   2.591   0.766   0.161  0.3356 -0.5169 -0.0004
  619SOL    HW1 2474   2.656   0.827   0.193 -0.3250 -1.1532 -2.9321
  619SOL    HW2 2475   2.533   0.738   0.241  0.6481 -0.5034  1.8903
  619SOL     MW 2476   2.592   0.770   0.176  0.2896 -0.5991 -0.1377
  620SOL     OW 2477   2.300   1.085   0.934  0.3164 -0.1792  0.3715
  620SOL    HW1 2478   2.376   1.047   0.889 -3.6307 -3.9432  0.1601
  620SOL    HW2 2479   2.245   1.009   0.941 -1.2052  3.0753  1.7404
  620SOL     MW 2480   2.303   1.070   0.929 -0.4051 -0.2465  0.5242
  621SOL     OW 2481   1.487   2.105   1.998 -0.1645  0.0283  0.0086
  621SOL    HW1 2482   1.429   2.038   2.029 -1.0239 -3.8588 -1.9616
  621SOL    HW2 2483   1.554   2.123   2.065  0.9016 -1.3131 -0.0932
  621SOL     MW 2484   1.488   2.098   2.011 -0.1373 -0.6616 -0.2648
  622SOL     OW 2485   2.644   0.144   0.236  0.2225  0.5185  0.3771
  622SOL    HW1 2486   2.727   0.138   0.276  1.0320 -0.8812 -0.9221
  622SOL    HW2 2487   2.631   0.071   0.172  1.6218  0.2585  1.6599
  622SOL     MW 2488   2.653   0.134   0.233  0.5139  0.2995  0.3749
  623SOL     OW 2489   2.346   2.712   0.892 -0.0184 -1.0913  0.3137
  623SOL    HW1 2490   2.415   2.777   0.881  1.3727 -0.4032 -0.0039
  623SOL    HW2 2491   2.298   2.739   0.969 -0.3474  0.4719  1.1924
  623SOL     MW 2492   2.349   2.724   0.901  0.1218 -0.7942  0.3877
  624SOL     OW 2493   2.260   1.658   3.043 -0.1018  0.0706 -0.1143
  624SOL    HW1 2494   2.174   1.612   3.061 -1.8414 -1.4614  0.1470
  624SOL    HW2 2495   2.247   1.751   3.055  0.6634  1.4278 -1.2807
  624SOL     MW 2496   2.247   1.664   3.047 -0.2304  0.0475 -0.2337
  625SOL     OW 2497   2.126   1.957   1.071  0.3357  0.2904  0.4979
  625SOL    HW1 2498   2.195   1.910   1.117 -0.7200  2.5768  1.1525
  625SOL    HW2 2499   2.150   1.940   0.979  0.9071 -0.0046  0.1558
  625SOL     MW 2500   2.139   1.949   1.065  0.2718  0.5531  0.5391
  626SOL     OW 2501   0.189   1.587   2.324  0.0611  0.7734 -0.2728
  626SOL    HW1 2502   0.143   1.548   2.253  0.5949  0.3183 -3.4260
  626SOL    HW2 2503   0.134   1.575   2.401  1.0558 -1.4964  0.4532
  626SOL     MW 2504   0.176   1.581   2.324  0.2628  0.4139 -0.5931
  627SOL     OW 2505   2.496   0.833   2.609  0.7954  0.5145  0.4717
  627SOL    HW1 2506   2.426   0.901   2.612 -1.8254 -3.0870 -1.1092
  627SOL    HW2 2507   2.459   0.774   2.542 -0.4752 -2.2374  2.5856
  627SOL     MW 2508   2.482   0.834   2.601  0.2820 -0.3238  0.5420
  628SOL     OW 2509   2.255   1.353   1.369 -0.2724 -0.3849 -0.0492
  628SOL    HW1 2510   2.230   1.294   1.304  0.4275 -0.4097  0.0409
  628SOL    HW2 2511   2.350   1.340   1.369  0.7210 -1.8953  1.1185
  628SOL     MW 2512   2.265   1.343   1.360 -0.0490 -0.5874  0.1168
  629SOL     OW 2513   1.995   0.540   1.237 -0.3868 -0.2164  0.4390
  629SOL    HW1 2514   2.043   0.617   1.202  0.2746  2.4014  1.5186
  629SOL    HW2 2515   1.902   0.566   1.235 -1.4642 -2.6446  0.9571
  629SOL     MW 2516   1.989   0.554   1.232 -0.4417 -0.1914  0.6498
  630SOL     OW 2517   2.504   1.823   3.008  0.0026  0.5927 -0.4317
  630SOL    HW1 2518   2.450   1.899   2.975  0.7099  2.0827 -0.2376
  630SOL    HW2 2519   2.444   1.754   3.031 -4.1404 -1.6071 -0.9185
  630SOL     MW 2520   2.489   1.824   3.007 -0.4507  0.4991 -0.4703
  631SOL     OW 2521   1.988   1.812   1.568  0.4697  0.3115  0.1338
  631SOL    HW1 2522   2.031   1.734   1.606 -2.1358 -1.3568  0.4831
  631SOL    HW2 2523   1.929   1.779   1.498 -0.7888  1.0349 -0.4190
  631SOL     MW 2524   1.986   1.797   1.564 -0.0401  0.1868  0.1069
  632SOL     OW 2525   0.111   2.087   1.522 -0.8118  0.2267 -0.2278
  632SOL    HW1 2526   0.052   2.067   1.599  0.6609 -1.6486 -2.8238
  632SOL    HW2 2527   0.141   1.992   1.495 -0.9955 -0.8833  0.1027
  632SOL     MW 2528   0.107   2.072   1.528 -0.6417 -0.1672 -0.5267
  633SOL     OW 2529   2.435   0.663   0.370  0.4683 -0.0535  0.4227
  633SOL    HW1 2530   2.515   0.642   0.423  1.2168  0.2332  1.9250
  633SOL    HW2 2531   2.369   0.590   0.362  2.5233  0.3733 -0.1632
  633SOL     MW 2532   2.437   0.650   0.376  0.8382  0.0406  0.5436
  634SOL     OW 2533   2.644   0.013   0.677 -0.5074  0.3187  0.4200
  634SOL    HW1 2534   2.673   0.102   0.673  0.6135  1.2101  0.1608
  634SOL    HW2 2535   2.614  -0.003   0.585  1.5281 -0.0284  1.2246
  634SOL     MW 2536   2.644   0.022   0.664 -0.0909  0.3905  0.4920
  635SOL     OW 2537   2.591   0.083   1.806 -0.1975  0.4200  0.1495
  635SOL    HW1 2538   2.667   0.031   1.784 -1.2759 -1.1535  3.1912
  635SOL    HW2 2539   2.628   0.170   1.810 -1.7503  1.0208  0.0491
  635SOL     MW 2540   2.606   0.088   1.804 -0.5446  0.2916  0.5376
  636SOL     OW 2541   2.911   1.690   0.964 -0.2610  0.3970  0.1318
  636SOL    HW1 2542   2.823   1.722   0.936  0.0739  1.2765 -1.4523
  636SOL    HW2 2543   2.902   1.714   1.056 -0.3543  2.0969  0.1626
  636SOL     MW 2544   2.898   1.697   0.973 -0.2291  0.7373 -0.0732
  637SOL     OW 2545   2.875   1.501   0.677  0.2768  0.3519  0.0091
  637SOL    HW1 2546   2.919   1.583   0.682  1.3525  1.7594 -0.7928
  637SOL    HW2 2547   2.791   1.514   0.730  1.5621  0.7780  0.5826
  637SOL     MW 2548   2.870   1.513   0.685  0.5883  0.5938 -0.0210
  638SOL     OW 2549   2.677   0.625   0.510  0.3105 -0.5571 -0.1944
  638SOL    HW1 2550   2.759   0.619   0.462  2.4660 -0.1866 -0.7725
  638SOL    HW2 2551   2.702   0.615   0.602 -0.3167  2.9413 -0.3816
  638SOL     MW 2552   2.691   0.623   0.516  0.5121 -0.0466 -0.2954
  639SOL     OW 2553   1.819   0.040   0.509 -0.5261  0.2075 -0.6160
  639SOL    HW1 2554   1.743   0.092   0.512  0.1046 -0.1255  0.6130
  639SOL    HW2 2555   1.797  -0.043   0.466 -3.3877 -0.5452  2.8003
  639SOL     MW 2556   1.806   0.036   0.504 -0.8205  0.0642 -0.0031
  640SOL     OW 2557   0.336   1.371   0.059 -0.0046  0.5177 -0.0094
  640SOL    HW1 2558   0.365   1.383  -0.035  1.4658 -0.2027 -1.0819
  640SOL    HW2 2559   0.300   1.285   0.072  1.6516  2.4493  3.0051
  640SOL     MW 2560   0.335   1.361   0.048  0.4079  0.6775  0.2468
  641SOL     OW 2561   2.255   0.458   0.366 -0.2107  0.0555 -0.4276
  641SOL    HW1 2562   2.266   0.448   0.269 -3.8916 -0.7572  0.3847
  641SOL    HW2 2563   2.297   0.382   0.404 -1.4175 -1.7860 -0.6631
  641SOL     MW 2564   2.262   0.447   0.359 -0.8556 -0.2947 -0.3515
  642SOL     OW 2565   0.031   3.081   0.571  0.1004 -0.0883  0.1236
  642SOL    HW1 2566  -0.017   3.158   0.543 -2.5365 -2.1004  0.3764
  642SOL    HW2 2567  -0.034   3.012   0.598  1.7764 -1.2195 -0.6745
  642SOL     MW 2568   0.016   3.082   0.571 -0.0264 -0.5030  0.0516
  643SOL     OW 2569   2.032   0.345   1.700  0.4202 -0.0442  0.1469
  643SOL    HW1 2570   2.099   0.357   1.765  0.2955  0.8122  0.3109
  643SOL    HW2 2571   2.064   0.268   1.660 -0.5536  0.9670  0.7706
  643SOL     MW 2572   2.045   0.336   1.703  0.2753  0.2022  0.2508
  644SOL     OW 2573   2.707   1.903   1.051  0.0591  0.5656  0.6103
  644SOL    HW1 2574   2.655   1.843   1.110 -2.8862  2.7647 -2.1518
  644SOL    HW2 2575   2.642   1.928   0.988  1.5663 -0.7899 -1.2319
  644SOL     MW 2576   2.692   1.899   1.050 -0.1307  0.6769  0.0028
  645SOL     OW 2577   2.832   0.893   0.656  0.1525  0.1228 -0.2965
  645SOL    HW1 2578   2.905   0.866   0.710  0.3047  0.4507  2.3478
  645SOL    HW2 2579   2.804   0.807   0.621 -2.1963 -1.3811  1.1808
  645SOL     MW 2580   2.838   0.878   0.659 -0.1373 -0.0323  0.2473
  646SOL     OW 2581   0.171   2.257   0.856 -0.3507 -0.0054 -0.6711
  646SOL    HW1 2582   0.207   2.165   0.867  0.6007 -0.7894  0.5389
  646SOL    HW2 2583   0.108   2.270   0.779  1.8668  0.9937 -0.0992
  646SOL     MW 2584   0.168   2.247   0.848  0.0674  0.0230 -0.4360
  647SOL     OW 2585   2.681   0.505   2.980 -0.2568 -0.5278  0.0458
  647SOL    HW1 2586   2.614   0.437   3.013 -0.1931 -1.6318  0.3997
  647SOL    HW2 2587   2.643   0.588   2.988  1.6992 -3.4172  2.2410
  647SOL     MW 2588   2.667   0.507   2.986  0.0097 -1.0547  0.3822
  648SOL     OW 2589   2.185   0.722   1.170  0.1432  0.0154  0.0646
  648SOL    HW1 2590   2.177   0.748   1.081 -0.9706  0.3135  1.2887
  648SOL    HW2 2591   2.220   0.801   1.213 -0.0330  0.4276 -2.6695
  648SOL     MW 2592   2.189   0.736   1.164 -0.0270  0.1091 -0.1347
  649SOL     OW 2593   2.404   2.737   1.261  0.0463 -0.0084  0.1434
  649SOL    HW1 2594   2.486   2.781   1.261 -1.4166 -0.0577 -0.1129
  649SOL    HW2 2595   2.415   2.650   1.220  1.0398  2.7272 -3.5005
  649SOL     MW 2596   2.416   2.731   1.255 -0.0156  0.3460 -0.3712
  650SOL     OW 2597   2.815   0.223   0.671  0.0994 -0.3707  0.0941
  650SOL    HW1 2598   2.854   0.282   0.739 -1.0242  1.7442  0.1567
  650SOL    HW2 2599   2.873   0.224   0.595  0.4790 -2.7144  1.5046
  650SOL     MW 2600   2.828   0.231   0.670  0.0013 -0.4009  0.2885
  651SOL     OW 2601   2.972   0.381   0.834 -0.1064  0.4161 -0.3998
  651SOL    HW1 2602   3.060   0.407   0.793 -0.0044  0.1717  0.7077
  651SOL    HW2 2603   2.963   0.441   0.908 -1.6986 -1.1048 -1.1360
  651SOL     MW 2604   2.982   0.392   0.838 -0.3030  0.1832 -0.3508
  652SOL     OW 2605   2.403   1.439   2.975 -0.1649  1.0231  0.1147
  652SOL    HW1 2606   2.467   1.449   2.902  0.8105  1.6328  3.8762
  652SOL    HW2 2607   2.346   1.520   2.980  0.3216  0.4336  0.4711
  652SOL     MW 2608   2.404   1.451   2.966  0.0280  1.0258  0.6580
  653SOL     OW 2609   1.951   0.427   0.320 -0.3376  0.0946 -0.3608
  653SOL    HW1 2610   1.928   0.351   0.268  4.0212 -1.0125 -1.5050
  653SOL    HW2 2611   2.040   0.445   0.293  0.5504  0.3380 -1.6577
  653SOL     MW 2612   1.960   0.419   0.310  0.3546 -0.0194 -0.6829
  654SOL     OW 2613   2.475   1.039   0.731  0.2102 -0.0182 -0.1662
  654SOL    HW1 2614   2.381   1.030   0.714 -0.7623 -0.5568  1.4568
  654SOL    HW2 2615   2.509   0.954   0.755 -0.5832 -0.9898 -2.3374
  654SOL     MW 2616   2.467   1.027   0.732 -0.0228 -0.2175 -0.2385
  655SOL     OW 2617   2.990   0.920   0.408 -0.1612  0.0919 -0.1015
  655SOL    HW1 2618   2.976   0.949   0.496  1.8717  2.6246 -0.4806
  655SOL    HW2 2619   2.974   0.822   0.412  0.6844 -2.6632  0.4038
  655SOL     MW 2620   2.986   0.911   0.420  0.2186  0.0626 -0.0849
  656SOL     OW 2621   1.953   2.698   1.214 -0.0466 -0.8210 -0.0227
  656SOL    HW1 2622   1.934   2.781   1.265 -2.3985  1.3549 -0.9804
  656SOL    HW2 2623   1.980   2.632   1.277 -2.1232 -0.9332 -2.9033
  656SOL     MW 2624   1.954   2.700   1.229 -0.6309 -0.5487 -0.5291
  657SOL     OW 2625   0.221   1.535   1.241 -0.2652  0.7132  0.3632
  657SOL    HW1 2626   0.129   1.520   1.241  1.7581  0.1012  0.8790
  657SOL    HW2 2627   0.239   1.520   1.150 -0.8442 -2.3641  0.5448
  657SOL     MW 2628   0.211   1.531   1.229 -0.0746  0.2264  0.4552
  658SOL     OW 2629   2.709   1.380   0.246 -0.1299 -0.3764 -0.3591
  658SOL    HW1 2630   2.665   1.314   0.298 -0.0225  1.6433  1.7751
  658SOL    HW2 2631   2.754   1.426   0.317 -3.2756 -1.1119  0.4207
  658SOL     MW 2632   2.709   1.377   0.262 -0.5308 -0.2070  0.0254
  659SOL     OW 2633   2.293   1.530   1.039  0.6646 -0.4212 -0.4082
  659SOL    HW1 2634   2.376   1.513   1.075 -3.9461  0.4633 -2.7355
  659SOL    HW2 2635   2.225   1.534   1.109 -0.6295 -0.2345 -1.1546
  659SOL     MW 2636   2.295   1.528   1.053 -0.1145 -0.2799 -0.8137
  660SOL     OW 2637   2.079   1.564   1.694  0.2019  0.0239  0.4931
  660SOL    HW1 2638   2.089   1.576   1.795  0.7440 -3.8419 -0.6490
  660SOL    HW2 2639   2.017   1.496   1.680 -0.0062 -0.0685 -0.0486
  660SOL     MW 2640   2.072   1.556   1.706  0.2460 -0.4983  0.2709
  661SOL     OW 2641   2.402   1.117   0.149 -0.2332 -0.3014 -0.5716
  661SOL    HW1 2642   2.452   1.153   0.219  0.8362  0.8185 -1.4369
  661SOL    HW2 2643   2.383   1.033   0.188  0.5214  1.3609  0.8105
  661SOL     MW 2644   2.406   1.111   0.164  0.0074  0.0657 -0.5034
  662SOL     OW 2645   2.534   2.955   0.881  0.2118 -0.5031  0.3912
  662SOL    HW1 2646   2.484   3.023   0.928  2.2871 -1.9516  0.0487
  662SOL    HW2 2647   2.572   3.001   0.805 -0.5275  0.0238 -1.2553
  662SOL     MW 2648   2.533   2.970   0.877  0.3881 -0.6247  0.1288
  663SOL     OW 2649   2.833   1.566   0.417  0.7204 -0.0679 -0.3204
  663SOL    HW1 2650   2.892   1.628   0.386 -0.2485 -0.8227 -0.6275
  663SOL    HW2 2651   2.845   1.557   0.509 -1.1503  0.0101 -2.9724
  663SOL     MW 2652   2.842   1.573   0.425  0.3457 -0.1572 -0.7108
  664SOL     OW 2653   2.481   1.582   1.552 -0.4434 -0.3818  0.4024
  664SOL    HW1 2654   2.483   1.672   1.570  0.3793 -2.8476  1.7932
  664SOL    HW2 2655   2.398   1.543   1.579 -0.0086 -0.2320  3.4392
  664SOL     MW 2656   2.471   1.588   1.558 -0.2775 -0.6873  0.9866
  665SOL     OW 2657   2.873   0.808   2.062 -0.2240  0.1110  0.1319
  665SOL    HW1 2658   2.853   0.860   1.988 -1.7986  1.7007  0.7591
  665SOL    HW2 2659   2.942   0.746   2.040  2.3141  0.0739  1.2278
  665SOL     MW 2660   2.880   0.807   2.049 -0.0969  0.3159  0.3592
  666SOL     OW 2661   2.780   3.050   1.688  0.4803  0.5289 -0.0982
  666SOL    HW1 2662   2.798   3.071   1.597 -1.8401 -0.2020 -0.0509
  666SOL    HW2 2663   2.759   2.957   1.684 -1.4632 -1.2921 -1.6383
  666SOL     MW 2664   2.780   3.040   1.676 -0.0823  0.1922 -0.2951
  667SOL     OW 2665   1.974   2.704   1.614  0.1610 -0.0647  0.0214
  667SOL    HW1 2666   1.952   2.631   1.675  0.6856 -1.4371 -1.5749
  667SOL    HW2 2667   2.055   2.748   1.651 -1.5115 -1.7774  0.3522
  667SOL     MW 2668   1.981   2.700   1.627  0.0095 -0.4718 -0.1456
  668SOL     OW 2669   2.740   0.622   0.777  0.1098  0.4144  0.5018
  668SOL    HW1 2670   2.829   0.620   0.802 -0.7430 -0.9470  0.4285
  668SOL    HW2 2671   2.699   0.695   0.823  0.0136 -1.5191 -3.6059
  668SOL     MW 2672   2.746   0.631   0.786 -0.0154 -0.0203 -0.0498
  669SOL     OW 2673   0.181   0.931   0.700  0.0742  0.1534 -0.8634
  669SOL    HW1 2674   0.138   1.017   0.719 -0.5398  0.6550  1.8386
  669SOL    HW2 2675   0.285   0.952   0.706 -0.5692  0.1625  1.8129
  669SOL     MW 2676   0.189   0.945   0.703 -0.0917  0.2208 -0.1538
  670SOL     OW 2677   2.947   0.290   0.191  0.1331  0.0744  0.1331
  670SOL    HW1 2678   2.933   0.222   0.118 -0.3844 -0.5608 -0.9235
  670SOL    HW2 2679   2.941   0.378   0.147  0.6497  0.6864 -1.1741
  670SOL     MW 2680   2.944   0.292   0.175  0.1330  0.0713 -0.1787
  671SOL     OW 2681   2.157   3.067   1.598  0.0557 -0.5898 -0.6566
  671SOL    HW1 2682   2.140   3.116   1.521  2.1631 -0.0349  1.0110
  671SOL    HW2 2683   2.084   3.100   1.659 -2.2565 -0.0431  0.8342
  671SOL     MW 2684   2.145   3.078   1.596  0.0286 -0.4444 -0.2399
  672SOL     OW 2685   1.874   1.704   1.333  0.5439 -0.2396 -0.4561
  672SOL    HW1 2686   1.785   1.715   1.372 -2.4114 -0.4459  2.2443
  672SOL    HW2 2687   1.879   1.768   1.259 -1.3574 -3.0712  1.9832
  672SOL     MW 2688   1.863   1.714   1.329 -0.0969 -0.6404  0.2220
  673SOL     OW 2689   2.780   1.110   0.499  0.3978 -0.0836  0.1496
  673SOL    HW1 2690   2.780   1.029   0.553 -0.7309  0.1980  0.6335
  673SOL    HW2 2691   2.860   1.158   0.543  2.1404  1.0024  0.5754
  673SOL     MW 2692   2.790   1.106   0.512  0.4788  0.0968  0.2696
  674SOL     OW 2693   2.490   0.082   1.250  0.3587 -0.1058 -0.8275
  674SOL    HW1 2694   2.436   0.072   1.172  0.5209 -1.4313  3.0598
  674SOL    HW2 2695   2.526  -0.010   1.260 -0.5924  1.8654 -0.8377
  674SOL     MW 2696   2.488   0.068   1.241  0.2546 -0.0206 -0.3160
  675SOL     OW 2697   3.001   1.023   1.106  0.3441 -0.5495 -0.0640
  675SOL    HW1 2698   3.039   0.965   1.168  0.2557  1.3599 -0.3589
  675SOL    HW2 2699   3.068   1.072   1.065 -1.8158 -0.9699 -2.1626
  675SOL     MW 2700   3.015   1.022   1.109  0.0474 -0.3531 -0.3798
  676SOL     OW 2701   2.812   1.510   1.602  0.7231  0.1657  0.3444
  676SOL    HW1 2702   2.790   1.415   1.587 -0.2052 -2.4064 -0.9720
  676SOL    HW2 2703   2.872   1.505   1.676 -0.5026  1.3402 -2.6901
  676SOL     MW 2704   2.817   1.497   1.610  0.4389 -0.0187 -0.2296
  677SOL     OW 2705   2.412   0.792   1.885 -0.1756 -0.5173 -0.4014
  677SOL    HW1 2706   2.386   0.699   1.863  0.4274 -2.7278  0.9582
  677SOL    HW2 2707   2.362   0.807   1.968  0.6902  0.7526  3.8756
  677SOL     MW 2708   2.402   0.782   1.893  0.0182 -0.6414  0.3423
  678SOL     OW 2709   2.536   1.598   0.460 -0.1672 -0.1198 -0.2647
  678SOL    HW1 2710   2.493   1.673   0.409 -3.5922  0.2938 -0.3291
  678SOL    HW2 2711   2.626   1.577   0.425  3.1909  2.0608 -0.6113
  678SOL     MW 2712   2.542   1.605   0.449 -0.1760  0.2225 -0.3189
  679SOL     OW 2713   2.325   0.501   1.100 -0.7729  0.3653  0.1295
  679SOL    HW1 2714   2.264   0.426   1.116 -0.3709 -0.6262  2.3838
  679SOL    HW2 2715   2.293   0.581   1.146 -2.2657  2.1196 -1.2965
  679SOL     MW 2716   2.313   0.501   1.108 -0.9168  0.4659  0.2388
  680SOL     OW 2717   2.382   0.274   1.437  0.3500  0.0831 -0.4808
  680SOL    HW1 2718   2.350   0.231   1.520 -1.9115  0.0187  4.2298
  680SOL    HW2 2719   2.418   0.215   1.369 -0.5062  2.2179 -2.2699
  680SOL     MW 2720   2.382   0.261   1.439 -0.0614  0.3562 -0.0953
  681SOL     OW 2721   0.302   0.551   1.586  0.1408  0.5934  0.0044
  681SOL    HW1 2722   0.278   0.461   1.614  4.5242 -0.4429 -2.9647
  681SOL    HW2 2723   0.394   0.545   1.578 -0.9037 -0.1053 -1.6418
  681SOL     MW 2724   0.311   0.538   1.589  0.5813  0.3645 -0.6045
  682SOL     OW 2725   0.136   2.984   1.488 -0.2180 -0.3944 -0.3307
  682SOL    HW1 2726   0.135   3.082   1.465 -0.7731  0.3851  0.7256
  682SOL    HW2 2727   0.081   2.972   1.571  1.2789  3.9435  1.3219
  682SOL     MW 2728   0.129   2.996   1.496 -0.0937  0.2808  0.0267
  683SOL     OW 2729   2.071   0.812   3.015  0.1626 -0.1988  0.2946
  683SOL    HW1 2730   1.986   0.787   2.983  0.1773 -0.2265  1.3142
  683SOL    HW2 2731   2.057   0.880   3.076  1.5243  1.1840  0.3987
  683SOL     MW 2732   2.058   0.818   3.019  0.3442 -0.0200  0.4428
  684SOL     OW 2733   2.168   1.763   0.870  0.0189 -0.5401  0.7602
  684SOL    HW1 2734   2.079   1.730   0.863  1.2713  1.9321 -0.4427
  684SOL    HW2 2735   2.211   1.700   0.926 -1.2775  2.3788 -0.2478
  684SOL     MW 2736   2.162   1.750   0.876  0.0131  0.1712  0.4685
  685SOL     OW 2737   2.564   1.730   1.230  0.0473 -0.0809  0.4029
  685SOL    HW1 2738   2.620   1.723   1.306 -0.5837 -2.2808  0.9748
  685SOL    HW2 2739   2.563   1.640   1.195  3.9225 -1.5909  0.6460
  685SOL     MW 2740   2.572   1.717   1.235  0.4753 -0.5704  0.5105
  686SOL     OW 2741   2.891   0.714   1.479 -0.0764  0.0498 -0.6149
  686SOL    HW1 2742   2.880   0.641   1.542 -0.0562  0.3321  0.6232
  686SOL    HW2 2743   2.918   0.672   1.403  0.1534 -1.3217 -0.1172
  686SOL     MW 2744   2.893   0.699   1.477 -0.0434 -0.0939 -0.3859
  687SOL     OW 2745   2.162   0.309   1.212 -0.3875 -0.1051  0.1666
  687SOL    HW1 2746   2.143   0.276   1.120  2.1438 -0.6789 -1.7924
  687SOL    HW2 2747   2.098   0.371   1.242  1.1083 -0.3634 -0.5640
  687SOL     MW 2748   2.151   0.313   1.204  0.1438 -0.2149 -0.1882
  688SOL     OW 2749   2.392   0.568   1.459  0.2509  0.7725  0.1128
  688SOL    HW1 2750   2.427   0.507   1.525 -0.0114  0.8601 -0.6241
  688SOL    HW2 2751   2.306   0.539   1.431 -2.0606  2.2841 -0.1171
  688SOL     MW 2752   2.385   0.556   1.464 -0.0887  0.9835 -0.0148
  689SOL     OW 2753   2.574   0.759   2.993 -0.4605 -0.2441 -0.2465
  689SOL    HW1 2754   2.576   0.839   2.941 -1.6501 -0.6948 -1.0138
  689SOL    HW2 2755   2.597   0.792   3.082 -0.0354 -1.1461  3.2439
  689SOL     MW 2756   2.577   0.774   2.998 -0.5614 -0.4226  0.1128
  690SOL     OW 2757   2.100   0.972   1.940  0.2536 -0.0024 -0.2787
  690SOL    HW1 2758   2.044   0.894   1.950  0.2859 -0.2807  0.4590
  690SOL    HW2 2759   2.096   0.985   1.843 -0.9787  0.3066 -2.2517
  690SOL     MW 2760   2.092   0.964   1.929  0.0953  0.0017 -0.4417
  691SOL     OW 2761   2.444   0.253   0.817  0.1085  0.3667 -0.3259
  691SOL    HW1 2762   2.521   0.293   0.857 -1.3222 -0.9296  0.4246
  691SOL    HW2 2763   2.374   0.322   0.835 -2.8493  2.3850  1.0690
  691SOL     MW 2764   2.445   0.268   0.825 -0.4705  0.4620 -0.0428
  692SOL     OW 2765   2.808   1.706   1.414  0.2778  0.0205  0.6465
  692SOL    HW1 2766   2.814   1.631   1.471 -2.6573  1.5918 -1.2553
  692SOL    HW2 2767   2.837   1.771   1.465 -0.8852 -0.4009 -2.4836
  692SOL     MW 2768   2.812   1.705   1.428 -0.2629  0.1722 -0.0174
  693SOL     OW 2769   2.302   0.459   0.097  0.6587 -0.1882  0.1072
  693SOL    HW1 2770   2.229   0.432   0.058  2.5595  1.8680  2.4690
  693SOL    HW2 2771   2.321   0.550   0.064  1.5248  0.2452  2.0623
  693SOL     MW 2772   2.295   0.468   0.088  1.0237  0.1402  0.6768
  694SOL     OW 2773   1.958   1.252   1.116 -0.0165  0.4605 -1.0667
  694SOL    HW1 2774   2.047   1.221   1.133 -0.1612  0.2377  0.2783
  694SOL    HW2 2775   1.920   1.173   1.161 -0.3639  0.7993  1.6005
  694SOL     MW 2776   1.965   1.237   1.124 -0.0814  0.4758 -0.5373
  695SOL     OW 2777   2.949   1.451   1.307  0.1605 -0.1073  0.1572
  695SOL    HW1 2778   2.938   1.413   1.216 -1.2566  0.0726 -1.3445
  695SOL    HW2 2779   2.901   1.536   1.314 -0.8089 -0.3092  1.6271
  695SOL     MW 2780   2.941   1.457   1.296 -0.1543 -0.1102  0.1530
  696SOL     OW 2781   2.096   1.391   0.915  0.7025  0.0280 -0.0847
  696SOL    HW1 2782   2.178   1.427   0.948  0.9028 -1.0799  5.2771
  696SOL    HW2 2783   2.037   1.361   0.990 -2.9025 -0.5476  0.1408
  696SOL     MW 2784   2.099   1.392   0.929  0.2533 -0.1941  0.6525
  697SOL     OW 2785   2.883   1.031   2.242  0.3086  1.0876 -1.0493
  697SOL    HW1 2786   2.821   1.082   2.199  1.3460 -1.5595  1.0757
  697SOL    HW2 2787   2.870   0.943   2.201 -1.6670  1.5834 -0.0838
  697SOL     MW 2788   2.873   1.026   2.231  0.1848  0.8038 -0.6416
  698SOL     OW 2789   2.527   0.345   0.021 -0.3034  0.0584 -0.5626
  698SOL    HW1 2790   2.457   0.392   0.055  1.2663 -1.4903  2.9414
  698SOL    HW2 2791   2.557   0.281   0.092  0.3631 -1.8551  1.1920
  698SOL     MW 2792   2.522   0.343   0.035 -0.0083 -0.3984  0.1312
  699SOL     OW 2793   1.862   1.633   2.068 -0.2377  0.2955 -0.0489
  699SOL    HW1 2794   1.839   1.538   2.071 -0.0095  2.1701  0.4163
  699SOL    HW2 2795   1.948   1.631   2.022  0.7164 -0.7686  1.8332
  699SOL     MW 2796   1.870   1.620   2.062 -0.0817  0.4024  0.2608
  700SOL     OW 2797   2.714   0.907   1.556 -0.0204  0.0297  0.0956
  700SOL    HW1 2798   2.728   0.977   1.493 -2.5546  0.2261 -1.1525
  700SOL    HW2 2799   2.780   0.841   1.527 -2.4358  1.4197  1.8336
  700SOL     MW 2800   2.724   0.908   1.544 -0.6735  0.2390  0.1603
  701SOL     OW 2801   1.666   1.275   2.624 -0.3604 -0.4197 -0.2713
  701SOL    HW1 2802   1.759   1.307   2.623 -1.3026  2.1915 -1.5109
  701SOL    HW2 2803   1.625   1.343   2.675 -1.3950 -1.7834 -2.0830
  701SOL     MW 2804   1.673   1.288   2.631 -0.6212 -0.2551 -0.6739
  702SOL     OW 2805   2.238   0.425   0.827 -0.4539 -0.0902  0.7814
  702SOL    HW1 2806   2.211   0.360   0.757 -1.1029 -1.0366 -0.5532
  702SOL    HW2 2807   2.284   0.491   0.770 -1.4056  0.2008 -2.8612
  702SOL     MW 2808   2.240   0.425   0.810 -0.6651 -0.1767  0.1247
  703SOL     OW 2809   2.679   1.297   0.983  0.8888  0.5512  0.0782
  703SOL    HW1 2810   2.692   1.272   0.894  0.5277  1.7391 -0.4929
  703SOL    HW2 2811   2.675   1.212   1.031 -0.1137 -2.3137  0.9202
  703SOL     MW 2812   2.680   1.283   0.978  0.7089  0.3299  0.1140
  704SOL     OW 2813   0.014   1.327   0.268 -0.0349  0.6709  0.5887
  704SOL    HW1 2814  -0.052   1.297   0.202  2.2485 -1.5957 -1.3988
  704SOL    HW2 2815   0.065   1.240   0.277 -3.4921 -1.9614 -0.0093
  704SOL     MW 2816   0.012   1.311   0.261 -0.1898  0.0245  0.2476
  705SOL     OW 2817   2.135   1.619   1.259 -0.3309  0.6614 -0.3483
  705SOL    HW1 2818   2.038   1.637   1.283 -2.0812  1.3232  0.7249
  705SOL    HW2 2819   2.153   1.543   1.326 -1.9515  0.6490  1.7323
  705SOL     MW 2820   2.125   1.611   1.271 -0.7756  0.7471  0.0678
  706SOL     OW 2821   3.001   1.243   0.594 -0.3068 -0.3132  0.1313
  706SOL    HW1 2822   3.090   1.215   0.598  0.7736  2.0577 -1.4378
  706SOL    HW2 2823   3.006   1.337   0.607 -0.2404  1.0896  0.5031
  706SOL     MW 2824   3.013   1.252   0.596 -0.1555  0.1847 -0.0267
  707SOL     OW 2825   2.378   0.063   0.994 -0.4287  0.2275 -0.2760
  707SOL    HW1 2826   2.409   0.129   0.931  0.0574 -0.2594  0.6060
  707SOL    HW2 2827   2.286   0.076   1.006  1.1062 -0.5007 -0.8093
  707SOL     MW 2828   2.370   0.073   0.987 -0.1620  0.0672 -0.2300
  708SOL     OW 2829   2.535   1.577   0.097 -0.2796  0.2777  0.1970
  708SOL    HW1 2830   2.565   1.497   0.135  0.1270  0.2333  1.7004
  708SOL    HW2 2831   2.473   1.549   0.028  1.0954  0.1211  2.7457
  708SOL     MW 2832   2.531   1.562   0.093 -0.0445  0.2512  0.7317
  709SOL     OW 2833   1.676   1.777   0.088 -0.2828 -0.5009  0.1227
  709SOL    HW1 2834   1.608   1.832   0.054  1.8120 -3.7311  0.7653
  709SOL    HW2 2835   1.633   1.739   0.168  1.5642  0.3411  1.7984
  709SOL     MW 2836   1.661   1.779   0.094  0.2373 -0.8160  0.4286
  710SOL     OW 2837   2.193   1.145   1.184 -0.7298 -0.1313  0.2110
  710SOL    HW1 2838   2.226   1.126   1.091 -1.3635 -0.6192  0.1453
  710SOL    HW2 2839   2.229   1.067   1.235  1.5284 -0.7305  1.5760
  710SOL     MW 2840   2.202   1.132   1.178 -0.5155 -0.2747  0.3825
  711SOL     OW 2841   2.334   0.143   1.699 -0.1565 -0.4841  0.6762
  711SOL    HW1 2842   2.415   0.100   1.727 -0.7037  2.5697  0.8306
  711SOL    HW2 2843   2.257   0.092   1.660 -1.5586 -2.5899 -1.1525
  711SOL     MW 2844   2.335   0.131   1.698 -0.4137 -0.3590  0.4553
  712SOL     OW 2845   1.653   0.611   3.051  0.9575  0.5225  0.1172
  712SOL    HW1 2846   1.705   0.660   2.984  1.3434  0.8967  2.0604
  712SOL    HW2 2847   1.648   0.673   3.118 -0.8413 -0.9958  3.3009
  712SOL     MW 2848   1.659   0.625   3.051  0.7711  0.3715  0.7936
  713SOL     OW 2849   2.583   0.825   1.135 -0.1906 -0.1156 -0.3327
  713SOL    HW1 2850   2.598   0.734   1.101  0.3913 -2.3348  0.5285
  713SOL    HW2 2851   2.551   0.818   1.232  0.7611  1.0552 -1.1920
  713SOL     MW 2852   2.581   0.812   1.143  0.0118 -0.2539 -0.3325
  714SOL     OW 2853   2.233   0.147   1.962 -0.4307  0.5184 -0.1708
  714SOL    HW1 2854   2.282   0.123   2.042  0.6191 -0.4471 -1.5190
  714SOL    HW2 2855   2.301   0.144   1.893 -1.0315 -0.1513 -2.8857
  714SOL     MW 2856   2.249   0.143   1.963 -0.3714  0.3027 -0.7069
  715SOL     OW 2857   1.740   1.913   1.719 -0.6387  0.5703 -0.1623
  715SOL    HW1 2858   1.836   1.911   1.689  1.6853 -0.3790  0.7847
  715SOL    HW2 2859   1.725   1.836   1.778 -2.3961 -0.8509  0.5183
  715SOL     MW 2860   1.751   1.903   1.723 -0.5639  0.2576  0.0525
  716SOL     OW 2861   2.391   0.624   0.694  0.4992 -0.4570  0.6076
  716SOL    HW1 2862   2.411   0.559   0.623  0.3967 -0.3212  0.4961
  716SOL    HW2 2863   2.336   0.691   0.657  1.2338 -0.8930 -0.0283
  716SOL     MW 2864   2.386   0.624   0.680  0.5826 -0.4966  0.5089
  717SOL     OW 2865   2.837   1.462   2.942  0.2358  0.2110 -0.2108
  717SOL    HW1 2866   2.932   1.465   2.966  0.8153 -2.6157  0.8207
  717SOL    HW2 2867   2.801   1.527   3.014 -1.2212  1.6327  0.8438
  717SOL     MW 2868   2.844   1.471   2.954  0.1200  0.0256  0.0644
  718SOL     OW 2869   2.537   1.323   1.395 -0.0529 -0.2211 -0.1284
  718SOL    HW1 2870   2.558   1.385   1.461  0.8373  1.8661 -0.7777
  718SOL    HW2 2871   2.587   1.241   1.410  0.7855  2.0130 -0.6675
  718SOL     MW 2872   2.546   1.321   1.406  0.1752  0.3490 -0.2852
  719SOL     OW 2873   2.155   1.379   0.646  0.0869  0.4683 -0.0520
  719SOL    HW1 2874   2.252   1.404   0.635  1.5702  1.6139 -2.4362
  719SOL    HW2 2875   2.128   1.389   0.741 -2.0654  0.0937 -0.0455
  719SOL     MW 2876   2.164   1.383   0.657 -0.0014  0.5701 -0.3657
  720SOL     OW 2877   2.890   1.218   0.136  0.1334 -0.3146 -0.1544
  720SOL    HW1 2878   2.875   1.127   0.158 -0.7398 -0.5226 -1.0249
  720SOL    HW2 2879   2.824   1.278   0.167 -1.8510 -1.0348 -1.5473
  720SOL     MW 2880   2.879   1.214   0.143 -0.2436 -0.4371 -0.4530
  721SOL     OW 2881   2.506   0.814   1.402  0.1650 -0.1763 -0.2383
  721SOL    HW1 2882   2.474   0.722   1.400 -1.7053  1.9918 -3.6518
  721SOL    HW2 2883   2.572   0.833   1.472  0.7442  3.2972 -1.9412
  721SOL     MW 2884   2.510   0.804   1.411 -0.0054  0.5680 -0.9133
  722SOL     OW 2885   2.553   1.196   0.373  0.1185  0.2593  0.2929
  722SOL    HW1 2886   2.508   1.244   0.437  1.6703  0.4073  0.2240
  722SOL    HW2 2887   2.639   1.162   0.403 -1.1202  0.5287 -2.9094
  722SOL     MW 2888   2.558   1.198   0.386  0.1598  0.3143 -0.1387
  723SOL     OW 2889   2.279   1.394   1.633 -0.5979 -0.0683 -0.0570
  723SOL    HW1 2890   2.270   1.373   1.538  2.4623  1.3060 -0.3974
  723SOL    HW2 2891   2.202   1.445   1.654  0.9162  0.5288 -1.2664
  723SOL     MW 2892   2.268   1.398   1.623  0.0057  0.1918 -0.2615
  724SOL     OW 2893   2.450   0.364   0.574  0.1604  0.0602  0.5167
  724SOL    HW1 2894   2.438   0.308   0.649 -0.3462 -0.6039  1.9465
  724SOL    HW2 2895   2.537   0.398   0.581  0.4482 -2.1914 -1.0309
  724SOL     MW 2896   2.460   0.361   0.585  0.1315 -0.3245  0.5012
  725SOL     OW 2897   2.594   0.530   1.143 -0.2936 -0.0290 -0.3390
  725SOL    HW1 2898   2.623   0.479   1.221  2.3252 -3.2737  2.0054
  725SOL    HW2 2899   2.499   0.517   1.127  0.3437  0.3049  1.5500
  725SOL     MW 2900   2.586   0.522   1.151  0.1360 -0.4130  0.2195
  726SOL     OW 2901   2.576   2.427   0.501  0.2332  0.2064 -0.9591
  726SOL    HW1 2902   2.509   2.439   0.432 -0.0640  1.1948 -0.7708
  726SOL    HW2 2903   2.535   2.393   0.580 -0.2207  0.4361  3.7309
  726SOL     MW 2904   2.562   2.424   0.502  0.1341  0.3671 -0.3154
  727SOL     OW 2905   2.798   0.272   1.638  0.7518 -0.0254 -0.0380
  727SOL    HW1 2906   2.826   0.287   1.551  0.4824 -1.0647 -2.4494
  727SOL    HW2 2907   2.706   0.300   1.648  1.3726 -0.0749 -1.3049
  727SOL     MW 2908   2.790   0.277   1.628  0.7982 -0.1691 -0.5233
  728SOL     OW 2909   2.792   1.184   2.956  0.3276  0.2154 -0.1644
  728SOL    HW1 2910   2.834   1.273   2.961  2.7955  2.0101 -2.3556
  728SOL    HW2 2911   2.792   1.151   3.046 -2.5479  1.8661  1.8233
  728SOL     MW 2912   2.798   1.191   2.968  0.2738  0.6700 -0.1913
  729SOL     OW 2913   2.530   1.459   1.167 -0.4141  0.4957  0.6106
  729SOL    HW1 2914   2.552   1.398   1.236 -0.5662  1.5943 -2.7028
  729SOL    HW2 2915   2.553   1.402   1.096 -0.0674  1.7807  1.7716
  729SOL     MW 2916   2.536   1.443   1.166 -0.3884  0.8102  0.3266
  730SOL     OW 2917   2.141   1.136   0.284 -0.1927 -0.8349  0.6750
  730SOL    HW1 2918   2.226   1.160   0.243  1.5133  0.8014 -3.4195
  730SOL    HW2 2919   2.095   1.217   0.295  0.0855 -1.3829  1.8150
  730SOL     MW 2920   2.146   1.150   0.280  0.0691 -0.6913  0.2852
  731SOL     OW 2921   2.822   1.858   2.913 -0.4372  0.3603 -0.5497
  731SOL    HW1 2922   2.756   1.862   2.843 -1.9669 -1.0190  2.8541
  731SOL    HW2 2923   2.875   1.936   2.894 -1.5531  1.0082  0.3020
  731SOL     MW 2924   2.820   1.869   2.901 -0.7863  0.2638  0.0117
  732SOL     OW 2925   2.283   0.927   1.309  0.0331 -0.1550  0.0095
  732SOL    HW1 2926   2.205   0.936   1.368 -1.7528  1.1184 -2.2348
  732SOL    HW2 2927   2.360   0.878   1.348  4.0186 -0.7345  2.9585
  732SOL     MW 2928   2.283   0.922   1.322  0.3233 -0.0635  0.1025
  733SOL     OW 2929   2.342   2.837   3.048  0.4380 -0.1287  0.1950
  733SOL    HW1 2930   2.282   2.912   3.040  0.6064  0.8641  0.7942
  733SOL    HW2 2931   2.293   2.764   3.083  3.0545 -0.4747  0.6188
  733SOL     MW 2932   2.327   2.837   3.051  0.8055 -0.0434  0.3300
  734SOL     OW 2933   1.496   0.374   2.445 -0.2748 -0.3447  0.2544
  734SOL    HW1 2934   1.462   0.329   2.520  0.4201 -0.6317  2.4794
  734SOL    HW2 2935   1.507   0.308   2.377  0.1320  0.5676  1.3633
  734SOL     MW 2936   1.493   0.359   2.446 -0.1294 -0.2622  0.6943
  735SOL     OW 2937   3.084   0.938   2.646 -0.4283  1.0335 -0.5593
  735SOL    HW1 2938   3.054   0.851   2.628  0.2651  1.7220 -0.6410
  735SOL    HW2 2939   3.070   0.951   2.738  0.3960 -0.1911  0.4150
  735SOL     MW 2940   3.078   0.928   2.655 -0.2281  0.9628 -0.4416
  736SOL     OW 2941   0.051   0.590   2.490 -0.0401  0.2293  0.3776
  736SOL    HW1 2942   0.080   0.637   2.409  0.1767 -2.3317 -1.3630
  736SOL    HW2 2943   0.037   0.499   2.459  0.4266 -1.2048  0.2079
  736SOL     MW 2944   0.053   0.584   2.475  0.0501 -0.2978  0.1256
  737SOL     OW 2945   2.925   0.720   2.590  0.4107  0.0166  0.7577
  737SOL    HW1 2946   2.851   0.693   2.536  0.9241 -0.9955  1.5826
  737SOL    HW2 2947   3.005   0.678   2.558 -0.2654  1.3936 -0.5032
  737SOL     MW 2948   2.925   0.711   2.578  0.3892  0.0647  0.7002
  738SOL     OW 2949   0.178   0.479   1.980  0.3350  0.6100 -0.1867
  738SOL    HW1 2950   0.263   0.504   1.947 -0.5383 -0.0058 -0.9198
  738SOL    HW2 2951   0.170   0.391   2.019 -2.0387  2.0162  1.4389
  738SOL     MW 2952   0.188   0.471   1.981 -0.0934  0.7143 -0.0690
  739SOL     OW 2953   2.536   0.966   2.151  0.4536 -0.5628  0.1056
  739SOL    HW1 2954   2.439   0.955   2.149 -1.7520 -2.6128 -0.8188
  739SOL    HW2 2955   2.541   1.017   2.071 -3.5629 -1.6531  0.8526
  739SOL     MW 2956   2.524   0.971   2.141 -0.3674 -0.9771  0.0822
  740SOL     OW 2957   0.172   1.713   2.979 -0.0985  0.7332  0.1361
  740SOL    HW1 2958   0.117   1.634   2.980 -2.3304  3.2504 -0.8276
  740SOL    HW2 2959   0.254   1.703   3.023  0.0586  0.0168 -0.8050
  740SOL     MW 2960   0.175   1.702   2.985 -0.3723  0.9708 -0.1152
  741SOL     OW 2961   2.222   1.198   2.742 -0.2205 -0.4381 -0.0069
  741SOL    HW1 2962   2.229   1.289   2.704 -0.1482  1.5783  3.2290
  741SOL    HW2 2963   2.186   1.230   2.826 -3.4519 -0.2860 -1.8293
  741SOL     MW 2964   2.218   1.214   2.748 -0.6373 -0.1520  0.1796
  742SOL     OW 2965   1.671   1.350   2.317 -0.2570  0.0234 -0.5362
  742SOL    HW1 2966   1.585   1.307   2.296 -0.2933 -3.1923  0.7096
  742SOL    HW2 2967   1.681   1.329   2.415  1.6764 -0.0004 -1.1037
  742SOL     MW 2968   1.661   1.341   2.327 -0.0067 -0.4041 -0.4467
  743SOL     OW 2969   2.479   1.222   2.694  0.5667  0.4663 -0.5836
  743SOL    HW1 2970   2.395   1.239   2.744 -0.1487  0.6976  4.3259
  743SOL    HW2 2971   2.531   1.156   2.738 -1.2034 -1.8023  1.4389
  743SOL     MW 2972   2.474   1.215   2.707  0.2387  0.1975  0.3310
  744SOL     OW 2973   2.767   0.901   1.838  0.4264  0.2517  0.4818
  744SOL    HW1 2974   2.706   0.970   1.854 -0.6591  1.9687 -3.2753
  744SOL    HW2 2975   2.736   0.870   1.753  0.3264 -3.2722  2.9536
  744SOL     MW 2976   2.755   0.906   1.829  0.2700  0.0133  0.3122
  745SOL     OW 2977   1.765   0.460   2.495 -0.0547 -0.6157 -0.0585
  745SOL    HW1 2978   1.772   0.504   2.410  4.0141 -0.8992 -0.0608
  745SOL    HW2 2979   1.675   0.432   2.485  0.6442  1.1004  0.4512
  745SOL     MW 2980   1.754   0.462   2.483  0.5744 -0.4267  0.0085
  746SOL     OW 2981   1.548   1.464   1.671 -0.4781 -0.6649 -0.0057
  746SOL    HW1 2982   1.603   1.540   1.694 -0.5197 -0.6448 -0.7365
  746SOL    HW2 2983   1.528   1.419   1.752  1.3962  0.2281 -1.8727
  746SOL     MW 2984   1.553   1.468   1.685 -0.2363 -0.5444 -0.3484
  747SOL     OW 2985   2.569   1.093   1.918 -0.4198 -0.4435  0.1638
  747SOL    HW1 2986   2.482   1.076   1.891 -1.6686 -1.1672  3.4961
  747SOL    HW2 2987   2.560   1.188   1.946 -0.1125 -0.6371  0.4044
  747SOL     MW 2988   2.556   1.104   1.918 -0.5440 -0.5645  0.6352
  748SOL     OW 2989   0.093   3.081   1.912 -0.2952 -0.2385 -0.4212
  748SOL    HW1 2990   0.181   3.102   1.879  1.5808 -2.2300 -0.5966
  748SOL    HW2 2991   0.083   3.148   1.976 -1.5910 -1.8990 -0.7922
  748SOL     MW 2992   0.103   3.092   1.916 -0.2187 -0.7203 -0.4933
  749SOL     OW 2993   2.391   0.630   2.785  0.1518 -0.3514 -0.0640
  749SOL    HW1 2994   2.430   0.691   2.717 -0.1664 -0.2191 -2.6023
  749SOL    HW2 2995   2.396   0.684   2.870 -1.1849  1.4022 -0.9503
  749SOL     MW 2996   2.397   0.645   2.788 -0.0666 -0.1025 -0.5159
  750SOL     OW 2997   2.106   3.016   1.951 -0.7798  0.1740  0.2013
  750SOL    HW1 2998   2.158   3.093   1.947  0.9070  0.3941  0.2263
  750SOL    HW2 2999   2.165   2.936   1.969 -1.0698  0.5170  0.2595
  750SOL     MW 3000   2.121   3.015   1.953 -0.5955  0.2483  0.2122
  751SOL     OW 3001   3.069   0.341   2.415  0.1471 -0.0401 -0.3826
  751SOL    HW1 3002   2.997   0.352   2.352 -0.8867  0.0492 -0.6519
  751SOL    HW2 3003   3.148   0.331   2.365 -1.9534 -1.5576  0.3744
  751SOL     MW 3004   3.070   0.341   2.400 -0.2665 -0.2285 -0.3182
  752SOL     OW 3005   2.148   0.905   2.774  0.6314 -0.5796  0.2602
  752SOL    HW1 3006   2.178   0.996   2.768 -1.3464  1.1801 -0.4306
  752SOL    HW2 3007   2.144   0.875   2.869 -0.7913 -1.4650 -0.2981
  752SOL     MW 3008   2.152   0.913   2.786  0.1827 -0.4643  0.0954
  753SOL     OW 3009   2.819   0.378   2.287 -0.2577  0.2157  0.2688
  753SOL    HW1 3010   2.768   0.297   2.297 -1.9276 -0.6376  0.4380
  753SOL    HW2 3011   2.773   0.445   2.333  0.6198 -0.3020 -1.8738
  753SOL     MW 3012   2.806   0.376   2.294 -0.3623  0.0348  0.0084
  754SOL     OW 3013   2.305   2.956   2.641 -0.0035 -0.1060  0.3047
  754SOL    HW1 3014   2.303   2.920   2.556  0.4403  1.6467  1.6982
  754SOL    HW2 3015   2.374   2.906   2.688  0.3360 -0.4529  0.2048
  754SOL     MW 3016   2.314   2.945   2.636  0.0999  0.0795  0.4754
  755SOL     OW 3017   2.790   1.594   2.465 -0.0745  0.1213  0.5123
  755SOL    HW1 3018   2.741   1.515   2.484 -0.6483 -0.9874 -1.5996
  755SOL    HW2 3019   2.835   1.614   2.549  1.7314  1.1088  1.2834
  755SOL     MW 3020   2.790   1.586   2.479  0.0881  0.1053  0.3354
  756SOL     OW 3021   2.159   1.261   2.997  0.5503 -0.2574 -0.3106
  756SOL    HW1 3022   2.241   1.325   3.005 -0.6149  0.9565  2.0385
  756SOL    HW2 3023   2.195   1.177   3.027 -1.7940 -0.0438 -1.9598
  756SOL     MW 3024   2.175   1.258   3.002  0.0873 -0.0690 -0.2183
  757SOL     OW 3025   2.168   0.959   1.679  0.1829  0.2958 -0.4897
  757SOL    HW1 3026   2.187   0.867   1.693 -3.5012 -0.1111 -1.7214
  757SOL    HW2 3027   2.103   0.964   1.608 -1.2490  1.9203 -2.9185
  757SOL     MW 3028   2.162   0.948   1.672 -0.4921  0.4565 -0.9727
  758SOL     OW 3029   2.237   1.842   2.646 -0.4997 -0.0436  0.3596
  758SOL    HW1 3030   2.243   1.842   2.553  0.0440 -2.9051 -0.9457
  758SOL    HW2 3031   2.319   1.790   2.671  0.3327  2.4998  0.8678
  758SOL     MW 3032   2.249   1.835   2.637 -0.3181 -0.0855  0.2544
  759SOL     OW 3033   1.544   1.473   2.797 -0.4430 -0.0767  0.1885
  759SOL    HW1 3034   1.566   1.544   2.730  1.6592 -1.1652 -1.3561
  759SOL    HW2 3035   1.610   1.465   2.869  0.0849  0.3131  3.4188
  759SOL     MW 3036   1.555   1.481   2.798 -0.0960 -0.1689  0.4109
  760SOL     OW 3037   2.614   1.966   2.718 -0.2860 -0.3320  0.2141
  760SOL    HW1 3038   2.568   1.883   2.709  1.6200 -1.7220  1.3752
  760SOL    HW2 3039   2.686   1.946   2.661  0.7790 -0.5878  1.9612
  760SOL     MW 3040   2.617   1.953   2.709  0.1060 -0.5491  0.5978
  761SOL     OW 3041   2.208   0.458   2.473  0.0676  0.3191  0.0950
  761SOL    HW1 3042   2.132   0.402   2.472  1.3790 -0.5546 -1.6516
  761SOL    HW2 3043   2.168   0.520   2.534 -0.8549  2.4246 -1.0854
  761SOL     MW 3044   2.193   0.459   2.480  0.1189  0.4816 -0.2912
  762SOL     OW 3045   0.027   0.173   2.098  0.3902 -0.2517  0.0954
  762SOL    HW1 3046  -0.005   0.119   2.173 -1.4845  1.0420  1.5248
  762SOL    HW2 3047  -0.040   0.234   2.063  1.0774 -0.4022  0.4916
  762SOL     MW 3048   0.014   0.174   2.104  0.2336 -0.1009  0.3363
  763SOL     OW 3049   2.455   1.158   2.335 -0.0661 -0.4958  0.5862
  763SOL    HW1 3050   2.501   1.093   2.287  1.8477  0.0433 -0.6514
  763SOL    HW2 3051   2.517   1.224   2.366 -1.0068 -1.0913  1.9437
  763SOL     MW 3052   2.469   1.158   2.333  0.0623 -0.5033  0.6020
  764SOL     OW 3053   0.397   0.174   2.797  0.1800 -0.1060  0.0057
  764SOL    HW1 3054   0.304   0.191   2.780 -1.2753 -0.0426 -3.6066
  764SOL    HW2 3055   0.435   0.260   2.814 -0.9202  1.7840  2.5430
  764SOL     MW 3056   0.390   0.188   2.797 -0.1572  0.1517 -0.1361
  765SOL     OW 3057   2.697   0.130   2.294  0.2786  0.7365  0.1030
  765SOL    HW1 3058   2.682   0.099   2.204  0.2178  0.1262 -0.4785
  765SOL    HW2 3059   2.751   0.061   2.340  0.1479 -1.7024 -2.2425
  765SOL     MW 3060   2.702   0.117   2.288  0.2534  0.3342 -0.2832
  766SOL     OW 3061   1.891   3.052   2.101 -0.5634 -0.1294  0.0879
  766SOL    HW1 3062   1.970   3.061   2.047 -0.3712 -1.6979 -1.0589
  766SOL    HW2 3063   1.838   2.979   2.062 -1.4206 -1.3910 -1.8087
  766SOL     MW 3064   1.894   3.043   2.089 -0.6512 -0.5028 -0.3136
  767SOL     OW 3065   2.657   0.653   1.922  0.6689 -0.2102 -0.2425
  767SOL    HW1 3066   2.713   0.692   1.993  0.4520  0.8587 -0.2005
  767SOL    HW2 3067   2.576   0.703   1.915  1.4463 -1.3892 -0.9057
  767SOL     MW 3068   2.654   0.665   1.931  0.7429 -0.2248 -0.3244
  768SOL     OW 3069   0.010   1.458   2.986  0.3045 -0.4500  0.1466
  768SOL    HW1 3070   0.037   1.486   3.073  1.1609  1.5919 -3.3178
  768SOL    HW2 3071   0.053   1.369   2.981  1.9905 -1.6584  0.9223
  768SOL     MW 3072   0.019   1.450   2.997  0.6399 -0.3400 -0.2082
  769SOL     OW 3073   2.341   0.685   2.383  0.0060  0.2802  0.6182
  769SOL    HW1 3074   2.290   0.604   2.387  0.8264 -2.1123  2.1615
  769SOL    HW2 3075   2.394   0.666   2.304 -0.4018  1.0139 -1.1414
  769SOL     MW 3076   2.341   0.672   2.373  0.0605  0.0614  0.5897
  770SOL     OW 3077   0.072   1.624   2.621  0.3066  0.5829  0.5052
  770SOL    HW1 3078  -0.006   1.613   2.673  1.6248  0.4973 -0.0185
  770SOL    HW2 3079   0.113   1.540   2.638  0.2639 -1.0115 -0.1373
  770SOL     MW 3080   0.067   1.611   2.630  0.4749  0.3613  0.3513
  771SOL     OW 3081   3.015   0.586   1.939 -0.3786 -0.5394  0.2049
  771SOL    HW1 3082   2.952   0.609   1.862  0.8447  0.7303  0.0190
  771SOL    HW2 3083   3.103   0.585   1.912 -1.3989 -1.6429 -2.9249
  771SOL     MW 3084   3.019   0.589   1.925 -0.3518 -0.5175 -0.2326
  772SOL     OW 3085   0.012   3.072   2.329 -0.0030 -0.0866 -0.1560
  772SOL    HW1 3086  -0.079   3.043   2.359 -2.3644  2.5470 -1.7787
  772SOL    HW2 3087   0.065   2.992   2.326 -0.0235  0.2954 -1.4705
  772SOL     MW 3088   0.007   3.058   2.333 -0.3172  0.3113 -0.5435
  773SOL     OW 3089   2.490   2.831   2.822 -0.0903  0.3668  0.1114
  773SOL    HW1 3090   2.470   2.750   2.781 -0.6314 -0.1296  3.9437
  773SOL    HW2 3091   2.423   2.842   2.899 -0.6550  0.1048  1.6369
  773SOL     MW 3092   2.479   2.822   2.827 -0.2362  0.2668  0.8183
  774SOL     OW 3093   2.331   1.179   1.785 -0.2300  0.7119  0.8380
  774SOL    HW1 3094   2.320   1.251   1.719  1.5763  1.8130 -0.8061
  774SOL    HW2 3095   2.265   1.111   1.751  4.4234 -1.9673  1.0456
  774SOL     MW 3096   2.321   1.179   1.772  0.6223  0.5037  0.6485
  775SOL     OW 3097   2.258   2.951   2.328 -0.3599 -0.0616  0.0397
  775SOL    HW1 3098   2.299   3.027   2.285 -0.8764 -0.5424  1.5843
  775SOL    HW2 3099   2.333   2.891   2.329 -0.3320  1.3809  1.1126
  775SOL     MW 3100   2.274   2.953   2.322 -0.4244  0.0653  0.3851
  776SOL     OW 3101   0.135   1.532   0.123  0.0111  0.1031 -0.0364
  776SOL    HW1 3102   0.217   1.479   0.112  0.6980 -0.3247 -1.2986
  776SOL    HW2 3103   0.086   1.481   0.194 -2.6520  1.5914  0.3257
  776SOL     MW 3104   0.139   1.518   0.131 -0.2496  0.2430 -0.1551
  777SOL     OW 3105   2.979   1.116   1.741  0.0084  0.2559  0.0642
  777SOL    HW1 3106   2.936   1.147   1.658 -1.1314  3.3104 -1.6706
  777SOL    HW2 3107   2.915   1.054   1.769  1.3562 -1.0948 -1.7949
  777SOL     MW 3108   2.965   1.112   1.734  0.0358  0.4807 -0.4100
  778SOL     OW 3109   2.852   0.436   2.770 -0.5577 -0.2749  0.1335
  778SOL    HW1 3110   2.776   0.455   2.829  0.8728  1.0121 -0.4082
  778SOL    HW2 3111   2.882   0.521   2.738 -0.2522 -1.8477 -2.1642
  778SOL     MW 3112   2.846   0.450   2.774 -0.3287 -0.3126 -0.2411
  779SOL     OW 3113   2.266   0.500   2.112 -0.4190  0.6756 -0.0542
  779SOL    HW1 3114   2.194   0.519   2.169  0.5230 -1.0646 -1.2450
  779SOL    HW2 3115   2.286   0.410   2.145 -0.3632  3.7881  3.1242
  779SOL     MW 3116   2.259   0.490   2.124 -0.2874  0.8567  0.2080
  780SOL     OW 3117   0.134   0.247   2.683 -0.7066  0.1357 -0.2255
  780SOL    HW1 3118   0.045   0.255   2.665 -1.5886  2.5280 -1.4249
  780SOL    HW2 3119   0.168   0.334   2.662 -2.3415  3.9846  0.4038
  780SOL     MW 3120   0.127   0.259   2.678 -1.0386  0.9592 -0.3007
  781SOL     OW 3121   3.044   1.318   2.485 -0.4644 -0.3889 -0.3365
  781SOL    HW1 3122   3.030   1.357   2.401  3.9509 -0.8034 -0.9524
  781SOL    HW2 3123   3.066   1.223   2.463  0.9287 -1.5411  0.6719
  781SOL     MW 3124   3.045   1.310   2.471  0.3019 -0.5956 -0.2847
  782SOL     OW 3125   0.629   1.506   0.065 -0.7282  0.7024 -0.8345
  782SOL    HW1 3126   0.560   1.570   0.038  0.6858 -3.0070  0.8959
  782SOL    HW2 3127   0.679   1.530   0.145  0.5382 -1.7333 -0.3577
  782SOL     MW 3128   0.627   1.517   0.072 -0.3746 -0.1084 -0.5433
  783SOL     OW 3129   2.676   0.605   2.400  0.2580  0.5737  0.2832
  783SOL    HW1 3130   2.622   0.624   2.320 -1.9738 -0.1805 -0.7273
  783SOL    HW2 3131   2.615   0.562   2.466 -1.0346  1.7673  1.5888
  783SOL     MW 3132   2.661   0.602   2.398 -0.2070  0.6317  0.3222
  784SOL     OW 3133   0.196   0.851   2.886 -0.0516 -0.2505  0.5826
  784SOL    HW1 3134   0.120   0.894   2.911  0.6016  0.5788 -1.5950
  784SOL    HW2 3135   0.243   0.915   2.831  2.4943  0.1313 -0.2042
  784SOL     MW 3136   0.192   0.865   2.882  0.3705 -0.0907  0.1915
  785SOL     OW 3137   0.465   0.421   2.193 -0.0338 -0.0509  0.4575
  785SOL    HW1 3138   0.471   0.436   2.095 -0.1879 -1.3222  0.6428
  785SOL    HW2 3139   0.401   0.352   2.215 -0.2688  1.5443 -0.0868
  785SOL     MW 3140   0.457   0.414   2.183 -0.0851 -0.0082  0.4101
  786SOL     OW 3141   1.901   0.420   3.023 -0.1330 -0.0990 -0.8966
  786SOL    HW1 3142   1.828   0.484   3.045  2.8439  0.3676 -1.1063
  786SOL    HW2 3143   1.928   0.439   2.935 -0.0996 -0.0741 -0.0503
  786SOL     MW 3144   1.895   0.431   3.014  0.2642 -0.0342 -0.8126
  787SOL     OW 3145   2.472   0.127   2.945 -0.1993 -0.0670  0.7914
  787SOL    HW1 3146   2.543   0.078   2.908  0.6445 -4.4342  2.4091
  787SOL    HW2 3147   2.511   0.205   2.986  3.5951 -1.9560  2.0784
  787SOL     MW 3148   2.486   0.131   2.946  0.4127 -0.8924  1.1746
  788SOL     OW 3149   2.837   3.028   2.409  0.5023 -0.1393 -0.0025
  788SOL    HW1 3150   2.819   2.986   2.494 -1.8005 -0.6560  0.3355
  788SOL    HW2 3151   2.859   2.951   2.354 -0.5424 -1.2530 -1.2492
  788SOL     MW 3152   2.837   3.012   2.413  0.0607 -0.3544 -0.1224
  789SOL     OW 3153   0.093   0.194   3.052  0.3607 -0.2407  0.0104
  789SOL    HW1 3154   0.036   0.122   3.080 -1.6052  1.3427 -1.4285
  789SOL    HW2 3155   0.051   0.251   2.991  2.8112  0.9162 -2.6632
  789SOL     MW 3156   0.080   0.192   3.048  0.4246  0.1208 -0.5322
  790SOL     OW 3157   3.102   1.058   2.393  0.1628  0.1443  0.2546
  790SOL    HW1 3158   3.105   0.986   2.462  0.2684 -0.1278  0.6252
  790SOL    HW2 3159   3.014   1.049   2.346 -2.3620 -0.5456 -2.9819
  790SOL     MW 3160   3.091   1.048   2.396 -0.1564  0.0174 -0.1235
  791SOL     OW 3161   2.537   0.479   2.598 -0.0236 -0.2878 -0.0335
  791SOL    HW1 3162   2.483   0.506   2.674 -1.7617  2.4513  3.3278
  791SOL    HW2 3163   2.523   0.382   2.588  2.0248 -1.6617 -1.2340
  791SOL     MW 3164   2.528   0.470   2.606  0.0174 -0.1077  0.2516
  792SOL     OW 3165   2.357   0.221   2.435  0.3522 -0.7227 -0.1415
  792SOL    HW1 3166   2.310   0.301   2.438  0.8396 -1.8634  0.8235
  792SOL    HW2 3167   2.318   0.174   2.510  0.6714  0.2318  0.8204
  792SOL     MW 3168   2.345   0.226   2.445  0.4586 -0.7473  0.1127
  793SOL     OW 3169   1.864   1.090   2.002  0.8889  0.0669 -0.0597
  793SOL    HW1 3170   1.831   1.079   1.911  0.1659  0.9730 -3.7426
  793SOL    HW2 3171   1.960   1.074   2.004  3.3240 -0.5571  0.9408
  793SOL     MW 3172   1.872   1.087   1.990  1.1148  0.1041 -0.4136
  794SOL     OW 3173   1.359   2.349   0.138  0.5089 -0.1267 -0.1699
  794SOL    HW1 3174   1.404   2.398   0.077  1.0270  2.1423 -0.6378
  794SOL    HW2 3175   1.432   2.332   0.203  2.4879  1.7311 -0.0970
  794SOL     MW 3176   1.375   2.354   0.139  0.8383  0.4178 -0.2220
  795SOL     OW 3177   2.318   1.031   2.515 -0.1340 -0.4869 -0.3688
  795SOL    HW1 3178   2.324   1.093   2.586  0.5938  1.0898 -1.5078
  795SOL    HW2 3179   2.380   1.073   2.451  2.3917 -0.5264 -0.9307
  795SOL     MW 3180   2.327   1.044   2.516  0.2953 -0.2841 -0.5932
  796SOL     OW 3181   0.258   0.625   2.714  0.2841  0.0229  1.1768
  796SOL    HW1 3182   0.230   0.685   2.782  2.8579  1.6799 -0.4860
  796SOL    HW2 3183   0.191   0.626   2.647 -1.4515 -1.7958  1.6291
  796SOL     MW 3184   0.245   0.633   2.714  0.3947  0.0016  1.0171
  797SOL     OW 3185   2.585   0.158   2.569  0.1933 -0.2717 -0.3530
  797SOL    HW1 3186   2.486   0.183   2.564 -4.7342 -0.4916  0.7858
  797SOL    HW2 3187   2.612   0.176   2.479 -2.9347  1.7297 -1.3401
  797SOL     MW 3188   2.575   0.164   2.557 -0.8695 -0.0367 -0.3330
  798SOL     OW 3189   2.366   0.092   2.195 -0.3607  0.6642  0.0243
  798SOL    HW1 3190   2.372   0.127   2.285 -1.6770 -1.2596 -2.5245
  798SOL    HW2 3191   2.459   0.088   2.177 -0.1472  3.9068 -0.5695
  798SOL     MW 3192   2.379   0.096   2.205 -0.5062  0.8382 -0.3903
  799SOL     OW 3193   2.555   2.980   0.151 -0.3826 -0.3993  0.1262
  799SOL    HW1 3194   2.467   2.992   0.110  1.8967  1.4529 -1.1903
  799SOL    HW2 3195   2.547   2.973   0.248 -0.4652  1.5210  2.5661
  799SOL     MW 3196   2.542   2.981   0.158 -0.0928  0.0985  0.2744
  800SOL     OW 3197   1.938   0.016   1.746 -0.1496  1.1508  0.0271
  800SOL    HW1 3198   1.872  -0.045   1.714 -1.2453  1.8983 -0.1657
  800SOL    HW2 3199   1.989  -0.036   1.811  0.4732  1.4120 -3.7225
  800SOL     MW 3200   1.936   0.001   1.750 -0.2120  1.2839 -0.4931
  801SOL     OW 3201   2.794   1.217   2.589 -0.0853 -0.3404 -0.0900
  801SOL    HW1 3202   2.799   1.127   2.615 -2.6147  0.8289  0.2191
  801SOL    HW2 3203   2.883   1.248   2.561  0.6258  0.8961 -0.6486
  801SOL     MW 3204   2.806   1.210   2.589 -0.3252 -0.0230 -0.1229
  802SOL     OW 3205   2.593   1.471   2.785  0.2638 -0.2965  0.1083
  802SOL    HW1 3206   2.571   1.392   2.741 -2.5871  0.5008  1.8226
  802SOL    HW2 3207   2.668   1.461   2.843 -2.3069  1.7901 -2.8827
  802SOL     MW 3208   2.600   1.459   2.787 -0.4516  0.0840 -0.0601
  803SOL     OW 3209   2.269   1.379   2.038 -0.6559  0.1748 -0.1662
  803SOL    HW1 3210   2.262   1.336   2.124 -1.3715  0.8562 -1.1839
  803SOL    HW2 3211   2.265   1.311   1.972 -0.4722  0.1837 -1.9149
  803SOL     MW 3212   2.268   1.364   2.041 -0.7261  0.2659 -0.5312
  804SOL     OW 3213   2.294   0.053   0.051 -0.3751  0.0863 -0.3383
  804SOL    HW1 3214   2.235   0.128   0.053  1.7066  1.3082  0.0793
  804SOL    HW2 3215   2.351   0.075  -0.024 -0.6412 -0.8582  2.0939
  804SOL     MW 3216   2.294   0.066   0.042 -0.1356  0.1229  0.0377
  805SOL     OW 3217   2.737   0.952   2.626 -0.0451  0.5248 -0.5263
  805SOL    HW1 3218   2.648   0.919   2.611  1.7262  0.0000 -1.6729
  805SOL    HW2 3219   2.799   0.875   2.620  0.7049  0.3368  0.6801
  805SOL     MW 3220   2.734   0.937   2.623  0.2876  0.4308 -0.5184
  806SOL     OW 3221   2.523   0.695   2.203 -0.5151  0.4686 -0.1403
  806SOL    HW1 3222   2.504   0.637   2.130 -4.3089  1.3500  0.0352
  806SOL    HW2 3223   2.550   0.785   2.177 -0.9333  0.0406  1.3219
  806SOL     MW 3224   2.524   0.699   2.190 -1.0709  0.5284  0.0758
  807SOL     OW 3225   0.086   1.076   2.050 -0.3718  0.3252 -0.1301
  807SOL    HW1 3226   0.097   1.000   1.996  1.4893 -1.4456  0.9220
  807SOL    HW2 3227   0.000   1.071   2.089 -2.7323  0.7393  1.0871
  807SOL     MW 3228   0.076   1.065   2.048 -0.4377  0.1462  0.1693
  808SOL     OW 3229   2.635   3.075   2.787 -0.2964 -0.2321 -0.6114
  808SOL    HW1 3230   2.599   2.991   2.767  1.2127  0.1852 -2.2941
  808SOL    HW2 3231   2.634   3.133   2.711 -0.8246 -0.3153  2.0689
  808SOL     MW 3232   2.630   3.071   2.774 -0.1670 -0.1880 -0.4798
  809SOL     OW 3233   2.629   1.332   2.408 -0.6515  0.3428 -0.1436
  809SOL    HW1 3234   2.678   1.281   2.478  0.1264 -3.4730  0.2012
  809SOL    HW2 3235   2.683   1.330   2.323 -4.3492 -2.2204 -0.7244
  809SOL     MW 3236   2.643   1.325   2.406 -1.0367 -0.4989 -0.1747
  810SOL     OW 3237   2.241   1.321   2.306 -0.3811 -0.1464  0.3001
  810SOL    HW1 3238   2.299   1.245   2.320 -0.7448  2.0381 -1.8653
  810SOL    HW2 3239   2.156   1.300   2.346 -1.1033  0.2904  0.9447
  810SOL     MW 3240   2.237   1.308   2.313 -0.5243  0.1994  0.0995
  811SOL     OW 3241   1.547   0.134   2.310 -0.4704 -0.2941 -0.1260
  811SOL    HW1 3242   1.632   0.121   2.345 -0.9472 -0.6025  0.4195
  811SOL    HW2 3243   1.562   0.134   2.215  1.7984 -0.5224 -1.1651
  811SOL     MW 3244   1.560   0.132   2.302 -0.2340 -0.3649 -0.1911
  812SOL     OW 3245   1.480   2.819   2.013 -0.0863  0.0804 -0.4736
  812SOL    HW1 3246   1.571   2.847   1.997 -1.2879  1.0797 -0.0387
  812SOL    HW2 3247   1.476   2.804   2.109 -1.9552 -1.2215 -0.0872
  812SOL     MW 3248   1.491   2.820   2.023 -0.4914  0.0404 -0.3652
  813SOL     OW 3249   1.992   0.613   2.236  0.1295  0.1623 -0.0364
  813SOL    HW1 3250   1.909   0.577   2.213 -1.5609 -2.2418 -1.7488
  813SOL    HW2 3251   1.980   0.698   2.264 -0.2993  1.4233 -0.0579
  813SOL     MW 3252   1.980   0.619   2.237 -0.1501  0.0115 -0.2652
  814SOL     OW 3253   2.732   1.232   1.643  0.0477  0.5440  0.1230
  814SOL    HW1 3254   2.700   1.235   1.729  0.1705  0.1696  1.0620
  814SOL    HW2 3255   2.702   1.151   1.605  0.9172  2.0447 -0.0818
  814SOL     MW 3256   2.724   1.222   1.649  0.1786  0.6926  0.2199
  815SOL     OW 3257   2.580   1.779   2.386  0.4287  0.1379 -0.0672
  815SOL    HW1 3258   2.518   1.706   2.366 -2.3128 -3.0479 -0.0225
  815SOL    HW2 3259   2.659   1.727   2.378  1.0425 -2.7092 -0.0429
  815SOL     MW 3260   2.582   1.763   2.382  0.1480 -0.6581 -0.0581
  816SOL     OW 3261   0.737   0.708   2.732 -0.7391  0.4761 -0.2066
  816SOL    HW1 3262   0.738   0.619   2.765 -3.1206 -1.7144 -2.1488
  816SOL    HW2 3263   0.651   0.717   2.677  3.2008  0.7696  2.0692
  816SOL     MW 3264   0.725   0.698   2.729 -0.5335  0.2258 -0.1626
  817SOL     OW 3265   2.984   1.223   1.470 -0.2479 -0.4798 -0.0974
  817SOL    HW1 3266   3.081   1.217   1.470  2.1435  0.1907  0.2595
  817SOL    HW2 3267   2.971   1.313   1.430 -0.3001  0.1715  1.9176
  817SOL     MW 3268   2.995   1.234   1.465  0.0607 -0.3054  0.2155
  818SOL     OW 3269   1.927   1.064   2.641 -0.2743  1.0013  0.6103
  818SOL    HW1 3270   1.897   1.028   2.553  0.5700 -0.0318 -2.2771
  818SOL    HW2 3271   1.995   1.004   2.671 -0.8959  0.5296 -1.0578
  818SOL     MW 3272   1.932   1.051   2.634 -0.2449  0.8028  0.0093
  819SOL     OW 3273   1.986   0.288   2.521  0.3132 -0.3048  0.3640
  819SOL    HW1 3274   1.915   0.357   2.517 -2.6556 -0.2778  2.0567
  819SOL    HW2 3275   2.006   0.287   2.617 -0.8400  1.0129  1.0505
  819SOL     MW 3276   1.979   0.297   2.533 -0.2306 -0.1274  0.6779
  820SOL     OW 3277   2.473   1.710   2.683  1.1209  0.5039  0.5584
  820SOL    HW1 3278   2.502   1.627   2.725 -1.3452 -0.1930 -1.2809
  820SOL    HW2 3279   2.512   1.704   2.596  1.4906  0.2542  0.6319
  820SOL     MW 3280   2.482   1.698   2.677  0.8443  0.3790  0.3254
  821SOL     OW 3281   2.527   1.354   1.997 -0.1830  0.3394  0.1442
  821SOL    HW1 3282   2.535   1.416   1.920  1.7407 -2.4073  0.5698
  821SOL    HW2 3283   2.431   1.364   2.012 -2.9727 -3.4126  1.7053
  821SOL     MW 3284   2.515   1.363   1.988 -0.2972 -0.5180  0.4063
  822SOL     OW 3285   2.846   2.673   1.447 -0.7858 -0.4441 -0.7074
  822SOL    HW1 3286   2.871   2.648   1.538  1.3966 -1.3704  0.2295
  822SOL    HW2 3287   2.893   2.749   1.427 -0.5506  0.2750  0.0832
  822SOL     MW 3288   2.856   2.680   1.457 -0.4668 -0.4714 -0.4795
  823SOL     OW 3289   2.396   0.497   1.839 -0.0316 -0.3825  0.2435
  823SOL    HW1 3290   2.446   0.453   1.759 -2.0705  0.2744 -2.1470
  823SOL    HW2 3291   2.406   0.443   1.920  0.4201  0.6179 -0.5358
  823SOL     MW 3292   2.404   0.484   1.839 -0.2410 -0.1638 -0.1747
  824SOL     OW 3293   2.238   1.457   2.630 -0.6073  0.1325 -0.6598
  824SOL    HW1 3294   2.296   1.489   2.560 -1.0996  1.3655 -1.5986
  824SOL    HW2 3295   2.180   1.528   2.653 -1.1920 -0.0833 -1.6852
  824SOL     MW 3296   2.238   1.471   2.624 -0.7494  0.2667 -0.9189
  825SOL     OW 3297   1.905   2.557   0.260  0.6056 -0.5926  0.5594
  825SOL    HW1 3298   1.893   2.511   0.347  0.4214  0.3275 -1.4567
  825SOL    HW2 3299   1.971   2.504   0.218 -1.9659 -1.8771 -1.6653
  825SOL     MW 3300   1.912   2.544   0.266  0.2420 -0.6407 -0.0001
  826SOL     OW 3301   1.815   2.378   0.470  0.1001  0.1907  0.2912
  826SOL    HW1 3302   1.761   2.310   0.512 -0.0773  0.8170  1.9453
  826SOL    HW2 3303   1.795   2.455   0.514 -0.0846 -2.4679  0.9329
  826SOL     MW 3304   1.805   2.379   0.481  0.0523 -0.0775  0.5941
  827SOL     OW 3305   1.895   2.187   0.793  0.2352 -0.0380 -0.3572
  827SOL    HW1 3306   1.822   2.207   0.735  1.5646  3.2553 -0.2110
  827SOL    HW2 3307   1.866   2.136   0.865  1.8064  0.3602  2.7958
  827SOL     MW 3308   1.882   2.183   0.795  0.6179  0.4491  0.0781
  828SOL     OW 3309   0.047   2.601   0.567  0.9505 -0.7533 -0.1562
  828SOL    HW1 3310   0.144   2.591   0.572 -0.0364 -0.1185 -0.7285
  828SOL    HW2 3311   0.016   2.650   0.490  1.3393 -0.1957  2.2727
  828SOL     MW 3312   0.056   2.606   0.557  0.8716 -0.5960  0.0888
  829SOL     OW 3313   2.994   2.929   1.202 -0.2910 -0.4664 -0.4390
  829SOL    HW1 3314   2.917   2.936   1.145  0.0670  0.9351 -2.3684
  829SOL    HW2 3315   3.038   2.850   1.166  1.5997  2.1242 -0.2545
  829SOL     MW 3316   2.990   2.919   1.190  0.0057  0.0603 -0.6692
  830SOL     OW 3317   2.579   2.835   2.024 -0.2605 -0.5490 -0.0434
  830SOL    HW1 3318   2.476   2.831   2.002  1.3910 -1.5657 -0.4886
  830SOL    HW2 3319   2.622   2.791   1.950  1.4780  3.6265 -0.3285
  830SOL     MW 3320   2.571   2.829   2.011  0.1868 -0.1322 -0.1398
  831SOL     OW 3321   2.346   2.469   1.170  0.4530  0.0714  0.5288
  831SOL    HW1 3322   2.313   2.413   1.238  1.0783  0.7489 -0.9520
  831SOL    HW2 3323   2.438   2.432   1.165  0.5667  1.9947  1.8117
  831SOL     MW 3324   2.354   2.457   1.178  0.5505  0.4146  0.5027
  832SOL     OW 3325   2.357   2.206   1.873 -0.0544  0.5708  0.1659
  832SOL    HW1 3326   2.390   2.286   1.919  1.0605  1.6858  1.3306
  832SOL    HW2 3327   2.437   2.151   1.855  1.0128 -0.6430 -0.0526
  832SOL     MW 3328   2.372   2.209   1.876  0.2335  0.5578  0.2907
  833SOL     OW 3329   1.719   2.460   0.868 -0.5401  0.3546  0.0441
  833SOL    HW1 3330   1.653   2.406   0.914 -0.3661 -0.1261 -1.8295
  833SOL    HW2 3331   1.722   2.538   0.922 -1.7012 -4.0835 -2.9021
  833SOL     MW 3332   1.710   2.463   0.881 -0.6703 -0.2944 -0.5918
  834SOL     OW 3333   2.048   2.441   0.561  0.2592  0.0325 -0.7098
  834SOL    HW1 3334   1.964   2.404   0.548  2.0149  0.8985  2.0973
  834SOL    HW2 3335   2.113   2.411   0.494  0.7011  0.3291 -0.4268
  834SOL     MW 3336   2.045   2.432   0.550  0.5491  0.1859 -0.3021
  835SOL     OW 3337   1.794   2.616   0.632  0.6476  0.6547  0.6971
  835SOL    HW1 3338   1.738   2.566   0.696  0.9370 -1.9505  1.8430
  835SOL    HW2 3339   1.867   2.667   0.672 -1.6078 -0.0683 -2.6234
  835SOL     MW 3340   1.796   2.616   0.646  0.3882  0.2156  0.4102
  836SOL     OW 3341   1.938   2.196   1.596  0.7512  0.2146  0.3725
  836SOL    HW1 3342   2.023   2.240   1.620  0.3563  2.7069  0.0674
  836SOL    HW2 3343   1.867   2.251   1.632  0.3046  1.4382 -2.3883
  836SOL     MW 3344   1.940   2.209   1.604  0.6402  0.7048 -0.0320
  837SOL     OW 3345   2.143   0.219   0.673 -0.5367 -0.3861 -0.4168
  837SOL    HW1 3346   2.064   0.256   0.633 -0.6953  0.2110  0.2072
  837SOL    HW2 3347   2.162   0.138   0.619  1.5079 -1.9045  1.0733
  837SOL     MW 3348   2.135   0.213   0.660 -0.2879 -0.5077 -0.1379
  838SOL     OW 3349   2.936   2.039   0.926  0.2445  0.1950 -0.2119
  838SOL    HW1 3350   2.875   1.979   0.970  0.5402 -0.6116 -0.9731
  838SOL    HW2 3351   3.019   1.996   0.898 -0.1105 -0.9413 -1.0974
  838SOL     MW 3352   2.939   2.025   0.928  0.2366 -0.0613 -0.4291
  839SOL     OW 3353   1.498   2.313   1.025 -0.1624  0.2984 -0.4404
  839SOL    HW1 3354   1.507   2.382   1.093  1.0471  0.3317 -2.0296
  839SOL    HW2 3355   1.537   2.241   1.071 -2.0311  4.4664 -0.5627
  839SOL     MW 3356   1.504   2.313   1.040 -0.2494  0.8527 -0.6662
  840SOL     OW 3357   2.359   2.166   2.470  0.3516  0.1523 -0.0270
  840SOL    HW1 3358   2.313   2.235   2.418 -1.6847 -1.1273  0.4305
  840SOL    HW2 3359   2.364   2.191   2.560 -0.1105 -3.6587 -1.3203
  840SOL     MW 3360   2.353   2.178   2.475  0.0219 -0.5194 -0.1372
  841SOL     OW 3361   2.140   2.437   0.123 -0.1798 -0.1953 -0.0721
  841SOL    HW1 3362   2.149   2.493   0.047 -0.3324 -3.7392 -2.9230
  841SOL    HW2 3363   2.098   2.354   0.089  0.2359 -1.9155  1.3009
  841SOL     MW 3364   2.135   2.433   0.109 -0.1451 -0.8898 -0.2671
  842SOL     OW 3365   2.626   2.080   1.539 -0.8396 -0.1607  0.4280
  842SOL    HW1 3366   2.572   2.012   1.581  0.7031 -2.4361 -1.8127
  842SOL    HW2 3367   2.575   2.111   1.461  2.6051  0.1470 -0.1995
  842SOL     MW 3368   2.612   2.075   1.534 -0.1816 -0.4203  0.0496
  843SOL     OW 3369   2.708   2.796   1.761 -0.3861 -0.5555  0.2562
  843SOL    HW1 3370   2.776   2.718   1.751  1.3380 -0.9039 -1.1173
  843SOL    HW2 3371   2.636   2.759   1.719  1.0604  2.8415 -1.2849
  843SOL     MW 3372   2.708   2.781   1.754  0.0322 -0.1533 -0.1283
  844SOL     OW 3373   2.591   2.349   1.153 -0.3866 -0.2946 -0.5394
  844SOL    HW1 3374   2.634   2.366   1.069 -2.4025  1.4895  0.0970
  844SOL    HW2 3375   2.660   2.373   1.219 -0.2578 -1.4664  2.5445
  844SOL     MW 3376   2.606   2.355   1.151 -0.6356 -0.2138 -0.0485
  845SOL     OW 3377   2.831   2.484   0.304  0.0255 -0.6902  0.2477
  845SOL    HW1 3378   2.787   2.400   0.295  1.8184 -1.8154  0.8782
  845SOL    HW2 3379   2.819   2.505   0.398 -2.6464 -1.3584 -2.9027
  845SOL     MW 3380   2.823   2.475   0.315 -0.0905 -0.9268 -0.0848
  846SOL     OW 3381   1.527   2.847   0.815 -0.0690  0.3722 -0.4586
  846SOL    HW1 3382   1.562   2.904   0.882 -1.1877  1.4931 -0.0112
  846SOL    HW2 3383   1.434   2.856   0.832 -2.2395 -0.3786  1.0830
  846SOL     MW 3384   1.520   2.856   0.826 -0.5030  0.4210 -0.1962
  847SOL     OW 3385   2.619   1.910   0.191 -0.0225  0.4275 -0.0535
  847SOL    HW1 3386   2.701   1.865   0.185  2.1244  0.8809 -1.7270
  847SOL    HW2 3387   2.560   1.858   0.138 -2.4261 -1.1875 -1.4403
  847SOL     MW 3388   2.622   1.897   0.183 -0.0564  0.2742 -0.4573
  848SOL     OW 3389   2.484   2.151   1.305 -0.3197  0.2530  0.2421
  848SOL    HW1 3390   2.526   2.221   1.245  3.1517  1.7401 -1.0734
  848SOL    HW2 3391   2.505   2.072   1.253  0.7131 -3.0118  1.0853
  848SOL     MW 3392   2.492   2.150   1.290  0.2746  0.0185  0.1798
  849SOL     OW 3393   1.977   2.761   0.786 -0.6546  0.4954 -0.5245
  849SOL    HW1 3394   1.986   2.692   0.852  1.9151 -2.1490 -1.6666
  849SOL    HW2 3395   2.063   2.761   0.740  2.3001  0.8055 -1.2471
  849SOL     MW 3396   1.990   2.752   0.789  0.0743  0.1874 -0.7705
  850SOL     OW 3397   2.183   1.965   1.687  0.1856 -0.2840 -0.0657
  850SOL    HW1 3398   2.093   1.942   1.648 -1.6734 -0.0523  1.0075
  850SOL    HW2 3399   2.196   2.056   1.679 -0.4935 -1.0459  0.7786
  850SOL     MW 3400   2.173   1.974   1.681 -0.1493 -0.3539  0.1873
  851SOL     OW 3401   2.233   2.369   0.372  0.5030  0.0558  0.0553
  851SOL    HW1 3402   2.191   2.389   0.296  3.4485  0.2781  3.4401
  851SOL    HW2 3403   2.300   2.437   0.380 -1.0072  0.6607  0.5487
  851SOL     MW 3404   2.236   2.381   0.363  0.6924  0.1649  0.5670
  852SOL     OW 3405   2.275   2.162   0.160  0.0358  0.3238  0.1670
  852SOL    HW1 3406   2.299   2.205   0.241  2.0173  0.4351  0.4586
  852SOL    HW2 3407   2.361   2.136   0.121 -0.2201  1.7895  1.0445
  852SOL     MW 3408   2.289   2.165   0.165  0.2635  0.5319  0.3213
  853SOL     OW 3409   2.455   2.442   1.980  0.1003 -0.4860  0.0637
  853SOL    HW1 3410   2.473   2.497   1.903 -0.4688  2.2628  2.6908
  853SOL    HW2 3411   2.549   2.426   2.018 -0.4872  1.8391  0.2281
  853SOL     MW 3412   2.470   2.447   1.975 -0.0523  0.1835  0.4320
  854SOL     OW 3413   2.877   2.249   0.756 -0.5789  0.3112  0.4064
  854SOL    HW1 3414   2.793   2.212   0.729 -1.5251  1.9599  2.8306
  854SOL    HW2 3415   2.909   2.191   0.827 -0.5400 -0.0026  0.2186
  854SOL     MW 3416   2.870   2.237   0.762 -0.6986  0.4873  0.7014
  855SOL     OW 3417   2.674   2.238   0.323 -0.2552 -0.2052  0.2288
  855SOL    HW1 3418   2.653   2.286   0.406 -1.6105  3.6955  2.1123
  855SOL    HW2 3419   2.761   2.194   0.335 -1.1091  2.0456  1.1712
  855SOL     MW 3420   2.683   2.238   0.336 -0.5467  0.6064  0.6017
  856SOL     OW 3421   2.173   1.920   0.234 -0.1004  0.8939  0.0676
  856SOL    HW1 3422   2.078   1.918   0.246 -0.3799  1.1965 -0.1053
  856SOL    HW2 3423   2.198   2.012   0.214  1.8377  2.1444  0.5997
  856SOL     MW 3424   2.164   1.932   0.233  0.1185  1.0988  0.1150
  857SOL     OW 3425   2.547   1.929   0.483  0.7423  0.9302  0.2704
  857SOL    HW1 3426   2.574   1.926   0.398 -0.5644 -1.8585  0.7207
  857SOL    HW2 3427   2.458   1.885   0.471 -0.9152  0.3761 -1.4913
  857SOL     MW 3428   2.539   1.923   0.470  0.3512  0.4892  0.0973
  858SOL     OW 3429   2.904   2.631   1.709 -0.2233 -0.4325 -0.0543
  858SOL    HW1 3430   2.977   2.669   1.763 -1.8003  0.3066  0.6080
  858SOL    HW2 3431   2.879   2.555   1.760  2.5030  2.8259 -0.1373
  858SOL     MW 3432   2.911   2.626   1.723 -0.0717  0.0949  0.0222
  859SOL     OW 3433   2.101   2.492   0.841  0.6253  0.1805  0.1897
  859SOL    HW1 3434   2.056   2.448   0.768 -1.1248 -3.0209 -0.0515
  859SOL    HW2 3435   2.191   2.462   0.835 -0.8751  0.4989  0.7149
  859SOL     MW 3436   2.107   2.482   0.831  0.1964 -0.1999  0.2272
  860SOL     OW 3437   2.641   2.593   0.147 -0.2679 -0.1897  0.1350
  860SOL    HW1 3438   2.699   2.566   0.227 -1.9714 -2.2625  0.8592
  860SOL    HW2 3439   2.681   2.669   0.111 -0.5610 -0.3770 -1.5436
  860SOL     MW 3440   2.654   2.599   0.153 -0.5313 -0.4879  0.0091
  861SOL     OW 3441   1.597   2.126   1.205 -0.3943  0.5940  0.3412
  861SOL    HW1 3442   1.673   2.100   1.263  3.4528 -1.1955  1.2063
  861SOL    HW2 3443   1.520   2.071   1.234 -0.4958 -0.3869  0.2183
  861SOL     MW 3444   1.597   2.115   1.217  0.0999  0.2285  0.4391
  862SOL     OW 3445   2.406   1.870   1.516  0.2950  0.5578 -0.5464
  862SOL    HW1 3446   2.340   1.921   1.566 -0.0589  2.7844 -1.9971
  862SOL    HW2 3447   2.383   1.900   1.430 -2.0813 -0.4869  3.0873
  862SOL     MW 3448   2.394   1.881   1.511 -0.0652  0.7137 -0.2584
  863SOL     OW 3449   3.064   1.777   1.205  0.5099 -0.3346 -0.0930
  863SOL    HW1 3450   3.143   1.787   1.153 -1.2254  0.9698  0.0110
  863SOL    HW2 3451   3.049   1.865   1.224  2.3180 -4.0568  0.8349
  863SOL     MW 3452   3.072   1.790   1.200  0.5195 -0.6536  0.0432
  864SOL     OW 3453   0.033   1.834   0.816 -0.0792  0.1978 -0.4661
  864SOL    HW1 3454  -0.037   1.788   0.864  0.1179 -2.6872 -0.8374
  864SOL    HW2 3455   0.016   1.811   0.720 -1.0981  0.3354 -2.0809
  864SOL     MW 3456   0.022   1.825   0.810 -0.1876 -0.1647 -0.7282
  865SOL     OW 3457   2.526   2.173   0.063 -0.0323 -0.2551 -0.1045
  865SOL    HW1 3458   2.577   2.108   0.101 -5.4904  1.1609  0.8749
  865SOL    HW2 3459   2.526   2.153  -0.031 -0.2851 -1.8829 -1.2043
  865SOL     MW 3460   2.533   2.162   0.055 -0.7858 -0.2831 -0.1204
  866SOL     OW 3461   2.641   2.350   1.625 -0.5630  0.1661  0.4891
  866SOL    HW1 3462   2.643   2.255   1.596  2.6816 -0.1844 -1.7154
  866SOL    HW2 3463   2.693   2.386   1.553  1.1466 -2.7817  0.0590
  866SOL     MW 3464   2.648   2.342   1.612  0.0906 -0.2691  0.1415
  867SOL     OW 3465   0.023   2.756   1.817 -0.1225  0.1006 -0.2955
  867SOL    HW1 3466   0.096   2.776   1.872  1.4379 -1.1951  1.9895
  867SOL    HW2 3467  -0.028   2.836   1.804 -1.2047  1.1924 -0.5779
  867SOL     MW 3468   0.026   2.769   1.823 -0.0594  0.0737 -0.0313
  868SOL     OW 3469   2.786   2.589   0.556 -0.4885 -0.2487  0.1473
  868SOL    HW1 3470   2.697   2.548   0.547 -1.8754  1.5170 -0.9912
  868SOL    HW2 3471   2.773   2.681   0.518 -0.1463 -0.1201 -2.0733
  868SOL     MW 3472   2.773   2.596   0.550 -0.6263  0.0012 -0.2959
  869SOL     OW 3473   1.949   2.336   1.038  0.2609 -0.0452 -0.5676
  869SOL    HW1 3474   2.016   2.379   0.986  0.4519 -1.5115  0.1620
  869SOL    HW2 3475   1.894   2.299   0.971  3.6016  1.9514  2.0674
  869SOL     MW 3476   1.950   2.337   1.023  0.7269  0.0248 -0.1236
  870SOL     OW 3477   2.207   0.018   0.507 -0.2195  0.2165 -0.7014
  870SOL    HW1 3478   2.268   0.063   0.452 -2.1433 -3.1560  0.1891
  870SOL    HW2 3479   2.251  -0.052   0.551 -0.6425 -0.5772 -0.2679
  870SOL     MW 3480   2.221   0.015   0.506 -0.5291 -0.3332 -0.5267
  871SOL     OW 3481   2.477   1.983   0.925 -0.2092  0.5455  0.4162
  871SOL    HW1 3482   2.428   1.942   0.855  2.3036  0.7507 -1.0733
  871SOL    HW2 3483   2.413   2.048   0.952 -0.2159 -0.3629 -1.0692
  871SOL     MW 3484   2.462   1.986   0.919  0.1214  0.4527  0.0237
  872SOL     OW 3485   2.020   2.519   1.403  0.3839  0.5646  0.9491
  872SOL    HW1 3486   2.006   2.563   1.482  3.1803 -3.0788  2.1797
  872SOL    HW2 3487   1.949   2.459   1.395  0.2985  1.7319 -1.0839
  872SOL     MW 3488   2.009   2.517   1.413  0.7416  0.2379  0.8432
  873SOL     OW 3489   2.828   2.078   1.945  0.0551  0.6367  0.3181
  873SOL    HW1 3490   2.861   2.126   2.019  0.7130  2.9446  0.0555
  873SOL    HW2 3491   2.902   2.063   1.876 -1.1578  0.9154 -1.5460
  873SOL     MW 3492   2.842   2.082   1.946 -0.0181  0.9779  0.0375
  874SOL     OW 3493   2.432   1.501   2.401 -0.0796  0.1095  0.6307
  874SOL    HW1 3494   2.362   1.454   2.347 -0.6907 -0.5208 -1.4504
  874SOL    HW2 3495   2.508   1.436   2.416  2.8303 -0.1027  1.8358
  874SOL     MW 3496   2.433   1.486   2.396  0.2237 -0.0016  0.5151
  875SOL     OW 3497   2.328   2.283   0.963  0.1928 -0.1082 -0.1195
  875SOL    HW1 3498   2.386   2.309   0.893  1.1045 -0.9222  1.3104
  875SOL    HW2 3499   2.325   2.358   1.024 -1.8609  1.5891  1.8334
  875SOL     MW 3500   2.335   2.296   0.962  0.0421  0.0084  0.3268
  876SOL     OW 3501   3.038   2.326   1.280 -0.4442  0.2184  0.0491
  876SOL    HW1 3502   3.102   2.324   1.198 -1.4323  1.3480 -0.0409
  876SOL    HW2 3503   3.077   2.387   1.345 -2.3094  1.2005 -1.8785
  876SOL     MW 3504   3.052   2.334   1.277 -0.8207  0.4970 -0.2171
  877SOL     OW 3505   3.026   2.724   0.352  0.2730  0.3734 -0.5892
  877SOL    HW1 3506   3.043   2.805   0.305  1.1459  0.9528  0.3048
  877SOL    HW2 3507   3.068   2.660   0.297  0.8401 -0.5354  1.4463
  877SOL     MW 3508   3.033   2.726   0.338  0.4630  0.3300 -0.2027
  878SOL     OW 3509   2.300   1.831   1.225  0.3504  0.1284 -0.7228
  878SOL    HW1 3510   2.251   1.744   1.235  2.4770  1.4914  2.8493
  878SOL    HW2 3511   2.393   1.810   1.225 -1.4829 -0.7686 -0.5264
  878SOL     MW 3512   2.306   1.817   1.226  0.3891  0.1899 -0.2256
  879SOL     OW 3513   2.716   2.424   0.916 -0.9141  0.1622  0.6500
  879SOL    HW1 3514   2.779   2.495   0.937 -2.1849 -3.0926 -2.2515
  879SOL    HW2 3515   2.765   2.364   0.855 -0.1486 -3.0688 -0.5505
  879SOL     MW 3516   2.731   2.425   0.910 -0.9807 -0.6935  0.1088
  880SOL     OW 3517   2.615   2.171   0.684 -0.1032  0.5330  0.0855
  880SOL    HW1 3518   2.576   2.119   0.749 -0.2419  2.4209  0.2039
  880SOL    HW2 3519   2.577   2.139   0.599  0.1711  1.2392  1.0053
  880SOL     MW 3520   2.605   2.160   0.681 -0.0853  0.8753  0.2225
  881SOL     OW 3521   2.960   2.697   0.748  0.2145  0.0867 -0.0544
  881SOL    HW1 3522   2.903   2.646   0.692  2.7105 -0.5901 -0.6993
  881SOL    HW2 3523   3.042   2.673   0.700  1.2006  2.9491  0.0907
  881SOL     MW 3524   2.963   2.687   0.734  0.6739  0.3751 -0.1203
  882SOL     OW 3525   2.321   2.824   1.955  0.1545 -0.5423  0.3301
  882SOL    HW1 3526   2.319   2.815   1.856 -0.7394 -0.0384 -1.5941
  882SOL    HW2 3527   2.269   2.752   1.993  1.6574 -2.2964  0.3200
  882SOL     MW 3528   2.314   2.813   1.947  0.2349 -0.7073  0.0749
  883SOL     OW 3529   2.281   2.295   1.412  0.3358  0.8326  0.4286
  883SOL    HW1 3530   2.354   2.229   1.396  0.3600 -1.6605 -0.7477
  883SOL    HW2 3531   2.200   2.252   1.377 -2.7277 -1.4949  3.2692
  883SOL     MW 3532   2.280   2.281   1.405 -0.0652  0.1966  0.6482
  884SOL     OW 3533   1.875   1.881   1.131  0.4546  0.2349 -0.1227
  884SOL    HW1 3534   1.830   1.958   1.094 -2.2773  0.3576  1.1516
  884SOL    HW2 3535   1.965   1.903   1.110 -2.9489 -0.8309 -1.7550
  884SOL     MW 3536   1.881   1.894   1.124 -0.3549  0.1105 -0.1700
  885SOL     OW 3537   2.808   2.416   1.836  0.2920  0.4116 -0.8121
  885SOL    HW1 3538   2.887   2.371   1.853 -1.7788 -0.6488 -1.7525
  885SOL    HW2 3539   2.752   2.361   1.779 -2.4672 -0.9652 -0.2709
  885SOL     MW 3540   2.811   2.403   1.830 -0.3453  0.0901 -0.8648
  886SOL     OW 3541   2.777   2.452   1.342 -0.2312 -0.2145  0.0234
  886SOL    HW1 3542   2.860   2.422   1.303 -1.0893 -2.5304 -0.0570
  886SOL    HW2 3543   2.796   2.543   1.366  0.3200 -2.3455 -0.6527
  886SOL     MW 3544   2.790   2.460   1.340 -0.2717 -0.8012 -0.0764
  887SOL     OW 3545   2.294   2.627   1.493 -0.2799  0.3376  0.0429
  887SOL    HW1 3546   2.335   2.679   1.419 -0.0274  0.3129  1.2075
  887SOL    HW2 3547   2.246   2.553   1.457  2.4314 -0.8540  1.4607
  887SOL     MW 3548   2.293   2.624   1.479  0.1111  0.1771  0.3837
  888SOL     OW 3549   1.846   2.088   1.368  0.5833 -0.6000  0.6013
  888SOL    HW1 3550   1.938   2.098   1.335  0.6015 -0.2121  3.2236
  888SOL    HW2 3551   1.863   2.125   1.455  1.9085 -0.4666  1.3049
  888SOL     MW 3552   1.860   2.094   1.375  0.7606 -0.5312  1.0401
  889SOL     OW 3553   2.347   2.003   2.076 -0.2165 -0.2300 -0.3655
  889SOL    HW1 3554   2.436   1.994   2.109 -0.0807 -0.4444  1.9149
  889SOL    HW2 3555   2.353   2.084   2.018 -1.8980  2.7792  1.4840
  889SOL     MW 3556   2.359   2.013   2.073 -0.4205  0.1387  0.1794
  890SOL     OW 3557   0.088   2.278   0.133 -0.0811  0.1158  0.6053
  890SOL    HW1 3558   0.051   2.367   0.126  0.9516  0.3477 -1.5858
  890SOL    HW2 3559   0.099   2.262   0.229  0.1108 -0.0884 -1.3059
  890SOL     MW 3560   0.084   2.288   0.145  0.0805  0.1195  0.0641
  891SOL     OW 3561   3.039   2.037   1.284 -0.2531 -0.4542  0.3492
  891SOL    HW1 3562   3.113   2.085   1.331  0.3222  0.8311  1.3680
  891SOL    HW2 3563   2.996   2.109   1.239  0.3499  1.2049 -1.4899
  891SOL     MW 3564   3.043   2.052   1.284 -0.0976 -0.0657  0.2409
  892SOL     OW 3565   2.356   2.413   2.955  0.1932 -0.3983  0.0169
  892SOL    HW1 3566   2.358   2.348   3.030 -0.6001 -2.5748 -0.4198
  892SOL    HW2 3567   2.439   2.408   2.901  0.8097 -0.0679 -1.1241
  892SOL     MW 3568   2.367   2.404   2.958  0.1699 -0.6419 -0.1913
  893SOL     OW 3569   1.582   2.493   1.234  0.4157 -0.5403 -0.6007
  893SOL    HW1 3570   1.495   2.512   1.278 -2.1423  0.1296  1.1412
  893SOL    HW2 3571   1.647   2.433   1.272 -0.9124 -0.2779  1.4174
  893SOL     MW 3572   1.579   2.488   1.245 -0.0970 -0.4173 -0.1046
  894SOL     OW 3573   2.837   1.916   0.466 -0.1820 -0.2226 -0.2699
  894SOL    HW1 3574   2.746   1.920   0.478  2.5316 -1.7574 -1.7408
  894SOL    HW2 3575   2.850   1.854   0.385 -1.1976  0.2221 -0.5967
  894SOL     MW 3576   2.827   1.908   0.457  0.0420 -0.3664 -0.5071
  895SOL     OW 3577   2.086   2.165   1.255 -0.2851  0.2900  0.4147
  895SOL    HW1 3578   2.051   2.236   1.195 -0.8916  0.1201 -0.9133
  895SOL    HW2 3579   2.108   2.087   1.204 -1.9472 -0.3544  2.2468
  895SOL     MW 3580   2.084   2.164   1.240 -0.5845  0.1825  0.4812
  896SOL     OW 3581   2.170   2.826   1.114 -0.0471  0.2850  0.2334
  896SOL    HW1 3582   2.241   2.801   1.169 -0.6639  1.1369 -0.7855
  896SOL    HW2 3583   2.093   2.771   1.148 -0.6763 -2.4016  0.6109
  896SOL     MW 3584   2.169   2.815   1.125 -0.2115  0.0430  0.1488
  897SOL     OW 3585   2.994   2.954   0.188  0.2212 -0.6281 -0.3265
  897SOL    HW1 3586   3.080   2.960   0.143 -1.3598  1.2091 -1.2213
  897SOL    HW2 3587   2.941   2.888   0.141 -0.3308 -6.3552  2.5815
  897SOL     MW 3588   2.999   2.946   0.176 -0.0602 -1.1413 -0.0608
  898SOL     OW 3589   2.077   0.198   1.449 -0.6074 -0.3282 -0.2230
  898SOL    HW1 3590   2.001   0.151   1.411  0.0593 -1.3762  2.4019
  898SOL    HW2 3591   2.138   0.198   1.374 -0.2832  1.8004 -0.9588
  898SOL     MW 3592   2.075   0.192   1.434 -0.4767 -0.1856  0.0263
  899SOL     OW 3593   2.892   2.953   0.691  0.8515  0.7135 -0.1394
  899SOL    HW1 3594   2.902   2.864   0.727  0.3364  0.3567  0.3830
  899SOL    HW2 3595   2.810   2.988   0.727  1.8760 -0.2058 -1.1374
  899SOL     MW 3596   2.882   2.946   0.701  0.9187  0.5451 -0.2022
  900SOL     OW 3597   0.136   2.354   1.102  0.5943  0.4793 -0.2849
  900SOL    HW1 3598   0.156   2.445   1.084  1.1954  0.8427  0.5341
  900SOL    HW2 3599   0.101   2.320   1.018 -1.8922  0.9845 -1.5322
  900SOL     MW 3600   0.134   2.361   1.089  0.3455  0.5939 -0.3414
  901SOL     OW 3601   1.782   2.900   1.705  0.1545  0.1222 -0.4004
  901SOL    HW1 3602   1.847   2.831   1.684 -0.5341  0.0860  0.4453
  901SOL    HW2 3603   1.704   2.894   1.646  0.7266 -2.7246  0.8360
  901SOL     MW 3604   1.780   2.890   1.695  0.1391 -0.2582 -0.1257
  902SOL     OW 3605   2.572   2.037   1.849  0.0700  0.3628 -0.1313
  902SOL    HW1 3606   2.565   1.940   1.871 -1.9620  1.5003  0.2906
  902SOL    HW2 3607   2.657   2.073   1.882 -3.3606  2.0400 -0.8700
  902SOL     MW 3608   2.583   2.029   1.856 -0.6508  0.7342 -0.1731
  903SOL     OW 3609   1.571   2.775   0.529 -0.5112 -0.1132  0.0485
  903SOL    HW1 3610   1.631   2.720   0.574 -0.0317 -2.2648 -2.7751
  903SOL    HW2 3611   1.535   2.818   0.607 -0.4927  0.0192 -3.0591
  903SOL     MW 3612   1.574   2.773   0.545 -0.4455 -0.3796 -0.7341
  904SOL     OW 3613   2.484   2.562   1.734  0.2933 -0.5419  0.3869
  904SOL    HW1 3614   2.411   2.575   1.671  0.2196 -0.2796 -0.9157
  904SOL    HW2 3615   2.521   2.481   1.701 -0.9543  2.8960 -1.7657
  904SOL     MW 3616   2.480   2.553   1.721  0.1190 -0.0537 -0.0690
  905SOL     OW 3617   2.314   2.543   2.186  0.1715 -0.5807  0.2073
  905SOL    HW1 3618   2.374   2.496   2.129 -0.2335 -1.7119 -1.1397
  905SOL    HW2 3619   2.274   2.478   2.255  2.3513 -2.9696  2.2156
  905SOL     MW 3620   2.316   2.528   2.188  0.4057 -1.0451  0.2945
  906SOL     OW 3621   2.445   2.472   0.787 -1.0719  0.2707  1.4611
  906SOL    HW1 3622   2.537   2.464   0.818 -0.5309  0.8439 -1.4187
  906SOL    HW2 3623   2.407   2.550   0.827  0.5501 -0.0705 -0.5669
  906SOL     MW 3624   2.452   2.481   0.796 -0.7865  0.3013  0.8136
  907SOL     OW 3625   2.628   2.943   1.257 -0.2803  0.4245  0.4744
  907SOL    HW1 3626   2.702   2.974   1.312  0.6706  2.3245  0.2980
  907SOL    HW2 3627   2.673   2.934   1.171 -0.4529 -0.0451 -3.0226
  907SOL     MW 3628   2.644   2.946   1.253 -0.1776  0.6132 -0.0103
  908SOL     OW 3629   2.721   2.370   0.002  0.0680 -0.3311 -0.6507
  908SOL    HW1 3630   2.653   2.305   0.015 -2.6629 -1.1769 -1.6389
  908SOL    HW2 3631   2.701   2.443   0.053 -2.0289 -0.3669  1.7254
  908SOL     MW 3632   2.709   2.371   0.010 -0.5690 -0.4474 -0.4676
  909SOL     OW 3633   1.583   0.165   1.067 -0.1400 -0.1620  0.7553
  909SOL    HW1 3634   1.648   0.218   1.019 -0.8504  1.2852 -0.4981
  909SOL    HW2 3635   1.559   0.214   1.148 -1.5428  0.4532  0.2187
  909SOL     MW 3636   1.589   0.179   1.071 -0.4188  0.1101  0.5191
  910SOL     OW 3637   2.317   1.778   0.419  0.2869  0.0191 -0.0942
  910SOL    HW1 3638   2.260   1.699   0.431 -0.2773  0.5540 -0.6780
  910SOL    HW2 3639   2.273   1.822   0.350  0.6109 -1.4115  1.1643
  910SOL     MW 3640   2.304   1.773   0.411  0.2552 -0.0991 -0.0052
  911SOL     OW 3641   2.188   2.283   1.667  0.1888 -0.4002  0.2660
  911SOL    HW1 3642   2.264   2.263   1.732  2.5373 -3.0726  0.8721
  911SOL    HW2 3643   2.222   2.298   1.576  0.3929 -1.1035 -0.7699
  911SOL     MW 3644   2.203   2.283   1.664  0.5256 -0.8456  0.2092
  912SOL     OW 3645   2.885   1.976   1.517 -0.3359  0.7705  0.0711
  912SOL    HW1 3646   2.941   1.988   1.440  2.8209 -1.1826  2.7356
  912SOL    HW2 3647   2.802   2.025   1.510 -2.3501  1.8322  0.7643
  912SOL     MW 3648   2.882   1.984   1.506 -0.1851  0.6529  0.5141
  913SOL     OW 3649   2.519   2.953   0.412 -0.3099  0.3548 -0.2387
  913SOL    HW1 3650   2.597   2.900   0.435 -0.6189 -0.7098  2.9029
  913SOL    HW2 3651   2.435   2.903   0.417 -0.1713 -0.3057  0.5278
  913SOL     MW 3652   2.518   2.940   0.415 -0.3324  0.1272  0.2770
  914SOL     OW 3653   2.777   1.654   0.022 -0.2495  0.1967 -0.8306
  914SOL    HW1 3654   2.785   1.730  -0.042  3.7904 -0.6396 -1.8510
  914SOL    HW2 3655   2.683   1.644   0.039  0.5969 -2.3088  1.9286
  914SOL     MW 3656   2.766   1.662   0.016  0.3952 -0.2442 -0.6011
  915SOL     OW 3657   1.825   0.185   0.248 -0.4734  0.0564 -0.3144
  915SOL    HW1 3658   1.861   0.101   0.280  2.2569 -0.2907  2.9481
  915SOL    HW2 3659   1.725   0.176   0.247 -1.3370  0.0469  0.3487
  915SOL     MW 3660   1.816   0.173   0.252 -0.2271  0.0094  0.2035
  916SOL     OW 3661   1.786   2.077   1.971 -0.4423 -0.2633  0.1369
  916SOL    HW1 3662   1.852   2.139   1.943  0.5105 -1.7107  0.0060
  916SOL    HW2 3663   1.770   2.020   1.893  0.3699 -0.4276 -1.6110
  916SOL     MW 3664   1.793   2.078   1.957 -0.2094 -0.4759 -0.1110
  917SOL     OW 3665   2.379   2.317   2.696  0.9072 -0.5254 -0.5154
  917SOL    HW1 3666   2.331   2.312   2.780  2.7711 -0.3124  1.1299
  917SOL    HW2 3667   2.335   2.388   2.651  1.0371  0.5113 -1.2293
  917SOL     MW 3668   2.367   2.326   2.701  1.1703 -0.3605 -0.3925
  918SOL     OW 3669   2.052   1.655   2.680 -0.0298 -0.4217  0.4866
  918SOL    HW1 3670   1.968   1.672   2.627  0.0617 -0.7094  0.6251
  918SOL    HW2 3671   2.108   1.730   2.641 -1.5415 -0.5762  0.8198
  918SOL     MW 3672   2.048   1.667   2.668 -0.2172 -0.4801  0.5488
  919SOL     OW 3673   0.001   2.356   2.265 -0.2882 -0.4810 -0.4302
  919SOL    HW1 3674  -0.070   2.297   2.226  2.6957  0.4074  0.3867
  919SOL    HW2 3675   0.079   2.346   2.210 -0.4868 -1.8331 -1.8824
  919SOL     MW 3676   0.002   2.347   2.252  0.0793 -0.5422 -0.5140
  920SOL     OW 3677   2.769   2.842   0.014  0.1877  0.0272 -0.4316
  920SOL    HW1 3678   2.698   2.895   0.054  1.4748  0.5690 -2.6956
  920SOL    HW2 3679   2.745   2.807  -0.072 -1.0734  0.7815  2.1059
  920SOL     MW 3680   2.757   2.845   0.008  0.1911  0.1982 -0.3956
  921SOL     OW 3681   2.486   2.618   2.650 -0.5745 -0.0966 -0.3945
  921SOL    HW1 3682   2.560   2.640   2.589 -2.1187 -1.8617  1.7817
  921SOL    HW2 3683   2.514   2.543   2.698  0.8184 -2.9947  0.6062
  921SOL     MW 3684   2.499   2.611   2.648 -0.5944 -0.7119  0.0246
  922SOL     OW 3685   2.025   2.782   0.282 -0.4611 -0.2129  0.1332
  922SOL    HW1 3686   2.020   2.796   0.179 -1.3025  2.3337 -1.2411
  922SOL    HW2 3687   1.999   2.686   0.295  1.0637  1.0077  0.4462
  922SOL     MW 3688   2.021   2.771   0.270 -0.3710  0.2841 -0.0068
  923SOL     OW 3689   2.230   2.812   1.685  0.3046 -0.5794  0.6239
  923SOL    HW1 3690   2.248   2.749   1.610  2.0071  2.0558 -0.9089
  923SOL    HW2 3691   2.216   2.900   1.641 -1.5421 -0.3808  2.6070
  923SOL     MW 3692   2.230   2.815   1.669  0.2856 -0.2055  0.6833
  924SOL     OW 3693   1.179   2.761   2.546  0.1124 -0.8103  0.5132
  924SOL    HW1 3694   1.234   2.823   2.494  0.3579 -1.0294  1.4800
  924SOL    HW2 3695   1.248   2.719   2.598 -1.1391  1.5370 -0.0583
  924SOL     MW 3696   1.195   2.763   2.546 -0.0203 -0.5295  0.5654
  925SOL     OW 3697   2.945   0.208   2.624  0.1324  0.0373 -0.5405
  925SOL    HW1 3698   2.982   0.231   2.542  1.5206  1.9046  2.2483
  925SOL    HW2 3699   2.884   0.280   2.646  3.3722 -0.5088 -3.9946
  925SOL     MW 3700   2.942   0.221   2.616  0.7430  0.2116 -0.6283
  926SOL     OW 3701   2.703   2.393   2.088 -0.1800 -0.1162 -0.0602
  926SOL    HW1 3702   2.761   2.457   2.131  0.4112 -1.3604  0.4475
  926SOL    HW2 3703   2.740   2.364   2.003 -0.2348 -1.8097  0.7345
  926SOL     MW 3704   2.715   2.397   2.082 -0.1092 -0.5038  0.1117
  927SOL     OW 3705   2.361   0.130   0.307 -0.2173 -0.2717  0.2258
  927SOL    HW1 3706   2.458   0.118   0.292  2.8487  0.2824  2.0373
  927SOL    HW2 3707   2.321   0.106   0.219  1.6675 -0.4514 -0.6962
  927SOL     MW 3708   2.368   0.125   0.293  0.4360 -0.2223  0.3432
  928SOL     OW 3709   2.011   2.500   1.793  0.9074  0.1187  0.2114
  928SOL    HW1 3710   2.089   2.454   1.762  1.2175  2.2918  1.7363
  928SOL    HW2 3711   2.049   2.543   1.876  1.6609 -0.8997  1.7901
  928SOL     MW 3712   2.027   2.499   1.800  1.0477  0.2710  0.6209
  929SOL     OW 3713   2.750   2.387   2.458 -0.1970  0.5213 -0.4176
  929SOL    HW1 3714   2.774   2.303   2.416 -0.9832  0.4910  1.4803
  929SOL    HW2 3715   2.742   2.365   2.551 -1.3773 -2.6975  2.0995
  929SOL     MW 3716   2.752   2.373   2.465 -0.4565  0.0926  0.1649
  930SOL     OW 3717   2.036   2.915   2.695  0.3565  0.4997  0.4705
  930SOL    HW1 3718   2.034   2.827   2.737  1.8300 -0.3786 -1.5835
  930SOL    HW2 3719   2.126   2.950   2.701 -1.2024 -1.8453  1.0777
  930SOL     MW 3720   2.048   2.908   2.701  0.3453  0.0744  0.2796
  931SOL     OW 3721   2.943   2.808   2.248 -0.1827  0.6182  0.3306
  931SOL    HW1 3722   3.035   2.788   2.271  1.8996  1.3136  1.1551
  931SOL    HW2 3723   2.934   2.855   2.168 -2.9339 -0.2583  2.5635
  931SOL     MW 3724   2.954   2.812   2.241 -0.2710  0.5943  0.7340
  932SOL     OW 3725   2.822   1.928   2.558  0.7996 -0.1097 -0.3623
  932SOL    HW1 3726   2.906   1.964   2.581  0.5510 -0.8519  0.0938
  932SOL    HW2 3727   2.819   1.910   2.466 -0.3903 -1.3385 -2.8825
  932SOL     MW 3728   2.832   1.930   2.549  0.6098 -0.3698 -0.6346
  933SOL     OW 3729   2.046   2.813   2.211  0.5417  0.5507 -0.2238
  933SOL    HW1 3730   2.123   2.842   2.264  0.4269 -2.1871  0.8896
  933SOL    HW2 3731   1.988   2.892   2.198 -2.3173 -1.1577 -0.2461
  933SOL     MW 3732   2.048   2.827   2.216  0.1493 -0.0359 -0.0799
  934SOL     OW 3733   2.044   2.746   2.475  0.0431  0.2237 -0.4641
  934SOL    HW1 3734   2.021   2.818   2.536 -1.0749  1.3152  0.2389
  934SOL    HW2 3735   2.000   2.763   2.390 -0.5377  0.0336  1.9463
  934SOL     MW 3736   2.035   2.757   2.471 -0.1810  0.3427 -0.0533
  935SOL     OW 3737   2.617   1.541   1.809  0.5773 -0.1530 -0.9761
  935SOL    HW1 3738   2.697   1.535   1.760  1.0921 -2.0017  2.3206
  935SOL    HW2 3739   2.550   1.550   1.740 -3.8313  0.1211 -0.0198
  935SOL     MW 3740   2.618   1.541   1.793  0.0636 -0.3607 -0.4149
  936SOL     OW 3741   2.963   2.237   3.064  0.3461 -0.2273  0.0449
  936SOL    HW1 3742   3.020   2.253   3.140  2.1814 -0.4454 -3.2033
  936SOL    HW2 3743   2.887   2.289   3.077  0.2788 -0.5991 -1.3854
  936SOL     MW 3744   2.960   2.246   3.076  0.5794 -0.3052 -0.5724
  937SOL     OW 3745   2.016   2.187   2.638  0.7999  0.3685  0.5451
  937SOL    HW1 3746   2.082   2.143   2.692 -0.4274  2.0128 -0.3468
  937SOL    HW2 3747   2.033   2.164   2.548 -1.2308 -0.7847  1.1217
  937SOL     MW 3748   2.027   2.178   2.633  0.3700  0.4333  0.5035
  938SOL     OW 3749   2.299   1.797   1.909 -0.2108 -0.4726  0.4113
  938SOL    HW1 3750   2.270   1.853   1.831 -1.0097  2.0470  1.0109
  938SOL    HW2 3751   2.318   1.867   1.971 -1.9486 -0.5320 -2.7039
  938SOL     MW 3752   2.298   1.814   1.907 -0.5455 -0.1480  0.0794
  939SOL     OW 3753   2.826   1.972   2.288  0.2487  0.5272  0.0067
  939SOL    HW1 3754   2.834   1.920   2.206  1.8069 -0.6051 -0.0356
  939SOL    HW2 3755   2.734   2.007   2.295  0.4475  0.1967  0.2287
  939SOL     MW 3756   2.815   1.970   2.278  0.4805  0.3342  0.0304
  940SOL     OW 3757   2.324   0.128   2.684 -0.1235  0.2005 -0.4106
  940SOL    HW1 3758   2.311   0.030   2.695  3.3783 -1.2871  2.7860
  940SOL    HW2 3759   2.373   0.138   2.763 -2.8429 -0.8945 -1.3630
  940SOL     MW 3760   2.329   0.116   2.696 -0.0202 -0.1403 -0.1145
  941SOL     OW 3761   0.189   2.326   2.048  0.9060 -0.1795  0.2833
  941SOL    HW1 3762   0.274   2.281   2.050 -1.9465  2.6442 -1.8097
  941SOL    HW2 3763   0.146   2.300   1.974  2.7505  3.4164  1.7700
  941SOL     MW 3764   0.195   2.317   2.039  0.7730  0.6675  0.2033
  942SOL     OW 3765   2.873   2.201   2.196  0.6504 -0.1361  0.3035
  942SOL    HW1 3766   2.781   2.238   2.173 -1.5279  0.7140 -0.9279
  942SOL    HW2 3767   2.859   2.110   2.225 -1.2474  2.0134  0.1945
  942SOL     MW 3768   2.859   2.194   2.197  0.1126  0.2596  0.1266
  943SOL     OW 3769   0.351   2.038   2.327  0.8135  0.1412 -0.3167
  943SOL    HW1 3770   0.275   2.085   2.375 -1.1337 -0.2074 -1.0427
  943SOL    HW2 3771   0.425   2.037   2.390  1.3661 -1.2337 -0.9390
  943SOL     MW 3772   0.350   2.044   2.342  0.6295 -0.0862 -0.4946
  944SOL     OW 3773   2.128   2.623   2.015 -0.1886  0.1632 -0.2378
  944SOL    HW1 3774   2.190   2.586   2.083 -0.7651 -0.9356  1.2788
  944SOL    HW2 3775   2.070   2.675   2.073  1.1251  1.3085  2.7809
  944SOL     MW 3776   2.129   2.625   2.032 -0.0913  0.1693  0.3606
  945SOL     OW 3777   2.785   2.691   2.866 -0.0093  0.6233 -0.4360
  945SOL    HW1 3778   2.719   2.628   2.859  1.8839  1.5899 -1.3950
  945SOL    HW2 3779   2.837   2.673   2.788  1.7487  0.0042 -0.6995
  945SOL     MW 3780   2.783   2.680   2.855  0.4725  0.6692 -0.5973
  946SOL     OW 3781   2.481   2.756   2.268 -0.6901 -0.0508 -0.6450
  946SOL    HW1 3782   2.527   2.760   2.184 -1.6907  0.3955 -0.2842
  946SOL    HW2 3783   2.411   2.696   2.255 -2.4836 -1.8974 -1.0637
  946SOL     MW 3784   2.478   2.749   2.255 -1.0588 -0.2356 -0.6526
  947SOL     OW 3785   2.031   3.083   0.266 -0.1759  0.5960 -0.4664
  947SOL    HW1 3786   2.015   2.995   0.285 -2.8088  0.4306 -2.0155
  947SOL    HW2 3787   2.081   3.114   0.354  3.4907 -1.5505  2.2129
  947SOL     MW 3788   2.035   3.076   0.280 -0.0395  0.2910 -0.3173
  948SOL     OW 3789   1.818   3.069   2.639 -0.0968  0.3092  0.2223
  948SOL    HW1 3790   1.900   3.012   2.654  0.8882 -0.3946 -2.5640
  948SOL    HW2 3791   1.827   3.080   2.542  0.6626 -0.5766 -1.7563
  948SOL     MW 3792   1.830   3.063   2.628  0.1333  0.0995 -0.4064
  949SOL     OW 3793   2.564   2.042   2.301 -0.3023  0.4468  0.3662
  949SOL    HW1 3794   2.559   1.950   2.337  2.1203 -1.9097 -0.4956
  949SOL    HW2 3795   2.505   2.098   2.352  0.0329  0.2669 -3.3992
  949SOL     MW 3796   2.555   2.037   2.313  0.0616  0.1122 -0.2443
  950SOL     OW 3797   2.179   2.605   3.014 -0.8335 -0.0630 -0.2984
  950SOL    HW1 3798   2.243   2.542   2.979 -0.1609 -1.4927 -1.3164
  950SOL    HW2 3799   2.133   2.628   2.929  3.2558 -0.2709 -0.0802
  950SOL     MW 3800   2.182   2.600   2.998 -0.2052 -0.2791 -0.4039
  951SOL     OW 3801   2.968   2.071   2.839  0.2764  0.1565  0.7542
  951SOL    HW1 3802   2.975   2.158   2.886 -0.0027  2.4757 -1.1730
  951SOL    HW2 3803   3.029   2.065   2.758  1.3418  1.8844  1.8368
  951SOL     MW 3804   2.977   2.082   2.835  0.3801  0.6905  0.6428
  952SOL     OW 3805   3.047   1.683   2.041  0.6101  0.1513  0.0872
  952SOL    HW1 3806   2.958   1.717   2.050 -0.4673 -1.9492  1.6955
  952SOL    HW2 3807   3.098   1.750   2.083  0.7554  2.6041  0.2475
  952SOL     MW 3808   3.042   1.696   2.047  0.4871  0.1978  0.3206
  953SOL     OW 3809   1.994   1.813   2.896 -0.0032 -0.4266 -0.0938
  953SOL    HW1 3810   1.905   1.806   2.926 -0.9483 -4.0412  1.9481
  953SOL    HW2 3811   2.009   1.750   2.831 -2.4248  0.1730 -0.8094
  953SOL     MW 3812   1.984   1.804   2.891 -0.4474 -0.8244  0.0812
  954SOL     OW 3813   2.454   2.114   2.910  0.5730 -0.0052  0.1112
  954SOL    HW1 3814   2.367   2.115   2.859 -3.4794  3.3614  1.1448
  954SOL    HW2 3815   2.518   2.080   2.846  1.5978 -1.9316  2.0391
  954SOL     MW 3816   2.451   2.110   2.895  0.1736  0.1848  0.5020
  955SOL     OW 3817   1.586   1.611   2.549 -0.4470  0.3012 -0.9507
  955SOL    HW1 3818   1.593   1.601   2.451 -2.1633 -0.8844  0.4814
  955SOL    HW2 3819   1.678   1.644   2.559 -0.7334 -0.2914  0.7845
  955SOL     MW 3820   1.599   1.614   2.537 -0.7112  0.0666 -0.5328
  956SOL     OW 3821   2.611   2.470   2.844 -0.0873  0.1918 -0.0352
  956SOL    HW1 3822   2.609   2.461   2.939 -1.7931  0.6071  1.2329
  956SOL    HW2 3823   2.661   2.393   2.808  1.0008 -0.6978  0.2259
  956SOL     MW 3824   2.618   2.458   2.852 -0.1688  0.1292  0.1665
  957SOL     OW 3825   2.291   2.794   0.395  0.1082  0.2641 -0.0913
  957SOL    HW1 3826   2.214   2.800   0.332  2.1905 -2.9001 -1.3739
  957SOL    HW2 3827   2.249   2.748   0.474  0.1145 -0.9238  1.1491
  957SOL     MW 3828   2.276   2.788   0.397  0.3837 -0.3101 -0.0969
  958SOL     OW 3829   2.021   2.667   2.810  0.1842 -0.5187  0.0617
  958SOL    HW1 3830   1.984   2.602   2.744 -0.2050  1.3735  1.7153
  958SOL    HW2 3831   1.950   2.665   2.874  3.3102  0.7075 -2.6914
  958SOL     MW 3832   2.007   2.658   2.810  0.5453 -0.1073 -0.0833
  959SOL     OW 3833   2.426   2.557   0.309 -0.0296 -0.6692 -0.0506
  959SOL    HW1 3834   2.490   2.573   0.237  0.2359  1.9221 -1.6207
  959SOL    HW2 3835   2.394   2.650   0.336  0.0535  2.5625  0.5476
  959SOL     MW 3836   2.430   2.572   0.303  0.0164  0.0991 -0.1788
  960SOL     OW 3837   1.916   2.372   2.310 -0.3610 -0.3190  0.0729
  960SOL    HW1 3838   1.894   2.276   2.296  0.8208 -2.0156 -0.6184
  960SOL    HW2 3839   1.872   2.398   2.392  0.1217  1.5714  0.2073
  960SOL     MW 3840   1.907   2.362   2.319 -0.1414 -0.2934 -0.0005
  961SOL     OW 3841   2.199   2.352   2.353  0.0781 -0.0256 -0.0139
  961SOL    HW1 3842   2.108   2.352   2.317 -4.0141 -0.2080  1.2360
  961SOL    HW2 3843   2.191   2.413   2.430 -3.9275  1.1370 -2.6027
  961SOL     MW 3844   2.186   2.360   2.358 -0.9903  0.1037 -0.1906
  962SOL     OW 3845   2.201   2.086   2.777  0.1675 -0.1560  0.1078
  962SOL    HW1 3846   2.176   2.021   2.839  0.9941 -1.9923 -0.7774
  962SOL    HW2 3847   2.209   2.026   2.709  0.6966  0.1042  1.4736
  962SOL     MW 3848   2.199   2.070   2.776  0.3463 -0.3639  0.1712
  963SOL     OW 3849   1.788   2.582   2.067  0.2605 -0.2913 -0.8156
  963SOL    HW1 3850   1.829   2.592   2.154  2.7842  0.3369  1.1280
  963SOL    HW2 3851   1.791   2.496   2.038  2.9241 -0.6503  0.0177
  963SOL     MW 3852   1.793   2.572   2.075  0.9449 -0.2558 -0.4492
  964SOL     OW 3853   1.846   1.986   2.713  0.3244 -0.2594  0.5995
  964SOL    HW1 3854   1.898   2.059   2.679  1.3007  3.2018 -0.0513
  964SOL    HW2 3855   1.906   1.951   2.781 -0.1102 -1.0991 -2.5415
  964SOL     MW 3856   1.861   1.991   2.717  0.3958  0.0865  0.0992
  965SOL     OW 3857   2.203   2.672   0.618 -0.1682 -0.1520 -0.1840
  965SOL    HW1 3858   2.143   2.602   0.626  0.9032 -0.3890  0.3925
  965SOL    HW2 3859   2.257   2.673   0.699  0.4760  3.8652  0.7496
  965SOL     MW 3860   2.202   2.663   0.629  0.0582  0.3468  0.0152
  966SOL     OW 3861   2.674   2.645   2.468  0.2601 -0.2487 -0.3404
  966SOL    HW1 3862   2.639   2.687   2.387  0.1117  0.2081 -0.0691
  966SOL    HW2 3863   2.702   2.551   2.450 -0.9194 -0.2861 -0.4487
  966SOL     MW 3864   2.673   2.638   2.455  0.0849 -0.1933 -0.3189
  967SOL     OW 3865   2.898   2.992   2.926 -0.1279  0.3660  0.1461
  967SOL    HW1 3866   2.855   2.942   2.998 -1.1757 -1.6814  1.7642
  967SOL    HW2 3867   2.828   3.023   2.865 -0.5681  0.2323  0.0650
  967SOL     MW 3868   2.883   2.989   2.927 -0.3242  0.0783  0.3489
  968SOL     OW 3869   2.998   2.586   2.992  0.3149  0.0364 -0.1573
  968SOL    HW1 3870   2.916   2.633   2.964 -0.7012  0.8811  0.1897
  968SOL    HW2 3871   3.037   2.523   2.935  2.7153  1.0380 -0.0658
  968SOL     MW 3872   2.993   2.584   2.981  0.4975  0.2800 -0.0995
  969SOL     OW 3873   1.534   2.096   1.733  0.3685 -0.3133  0.0322
  969SOL    HW1 3874   1.604   2.034   1.735 -0.0009 -0.9227 -2.6389
  969SOL    HW2 3875   1.500   2.097   1.827 -0.4219 -0.5850  3.2048
  969SOL     MW 3876   1.539   2.088   1.745  0.2155 -0.4295  0.0984
  970SOL     OW 3877   1.623   1.721   1.873 -0.4951 -0.0943 -0.1098
  970SOL    HW1 3878   1.670   1.678   1.946  0.6811  1.3842  1.0907
  970SOL    HW2 3879   1.527   1.725   1.880  0.5287 -1.7262  0.0674
  970SOL     MW 3880   1.616   1.716   1.884 -0.2049 -0.1145  0.0720
  971SOL     OW 3881   1.821   0.110   2.349 -0.7319 -0.9454 -0.0738
  971SOL    HW1 3882   1.866   0.080   2.272  3.0150  2.0393 -4.2715
  971SOL    HW2 3883   1.881   0.176   2.395  2.8083 -0.0922  1.1069
  971SOL     MW 3884   1.835   0.114   2.345  0.2295 -0.4390 -0.4719
  972SOL     OW 3885   0.278   2.787   2.512  0.0709  0.2213  0.3405
  972SOL    HW1 3886   0.308   2.694   2.521  1.7473  1.6213  0.2976
  972SOL    HW2 3887   0.333   2.841   2.566 -0.4380 -0.4448 -0.7470
  972SOL     MW 3888   0.290   2.782   2.520  0.2249  0.3181  0.1913
  973SOL     OW 3889   2.619   3.088   2.066  0.7096  0.2637  0.4827
  973SOL    HW1 3890   2.607   2.996   2.046 -3.0766  1.5328  1.6021
  973SOL    HW2 3891   2.612   3.133   1.982  3.3663 -1.0477  2.1102
  973SOL     MW 3892   2.617   3.082   2.052  0.5606  0.2581  0.8451
  974SOL     OW 3893   2.111   0.313   2.765 -0.0575 -0.8981  0.3180
  974SOL    HW1 3894   2.188   0.268   2.735 -1.2313 -0.5068  2.2323
  974SOL    HW2 3895   2.049   0.244   2.782 -1.5457  1.9617 -1.3928
  974SOL     MW 3896   2.113   0.298   2.763 -0.4087 -0.4692  0.3449
  975SOL     OW 3897   2.232   2.558   2.564 -0.4567 -0.4856 -0.1884
  975SOL    HW1 3898   2.317   2.594   2.580 -0.8318  0.3302  2.2479
  975SOL    HW2 3899   2.175   2.633   2.547 -0.6806 -1.5306 -1.6803
  975SOL     MW 3900   2.236   2.572   2.564 -0.5357 -0.5158 -0.0638
  976SOL     OW 3901   0.213   0.325   1.700 -0.4232  0.4716  0.3375
  976SOL    HW1 3902   0.261   0.250   1.753  0.7831 -1.8617  2.3700
  976SOL    HW2 3903   0.125   0.289   1.705  0.3959  2.0725 -4.1848
  976SOL     MW 3904   0.208   0.310   1.707 -0.1560  0.3750  0.0090
  977SOL     OW 3905   1.709   2.751   2.485  0.1606  0.0494 -0.3011
  977SOL    HW1 3906   1.703   2.655   2.465  0.6547  0.4401 -0.0924
  977SOL    HW2 3907   1.796   2.774   2.509  0.1899  0.1261 -0.9788
  977SOL     MW 3908   1.719   2.741   2.485  0.2297  0.1111 -0.3630
   3.10000   3.10000   3.10000
