977 TIP4P/2005f water molecules t=   0.75000 step= 750
 3908
    1SOL     OW    1   0.230   0.850   3.061  0.7620 -0.6933  0.0058
    1SOL    HW1    2   0.199   0.829   2.973 -1.6211  0.7194  3.9626
    1SOL    HW2    3   0.220   0.760   3.093  1.6848  0.8831 -1.7275
    1SOL     MW    4   0.224   0.836   3.054  0.5693 -0.2989  0.2991
    2SOL     OW    5   0.282   3.011   1.162  1.0004  0.6535 -0.2470
    2SOL    HW1    6   0.357   3.068   1.135  1.2340  0.2673  1.9737
    2SOL    HW2    7   0.207   3.071   1.167  0.1396  0.1133 -0.1948
    2SOL     MW    8   0.282   3.027   1.160  0.9177  0.5313  0.0529
    3SOL     OW    9   2.642   0.420   0.935  0.3856  0.5349  0.0371
    3SOL    HW1   10   2.687   0.502   0.890 -0.3923  1.8321  0.7507
    3SOL    HW2   11   2.610   0.458   1.021 -0.4866 -0.6540 -1.2115
    3SOL     MW   12   2.643   0.436   0.940  0.1679  0.5492 -0.0335
    4SOL     OW   13   3.049   1.706   0.620 -0.5608  0.0868  0.6203
    4SOL    HW1   14   2.968   1.736   0.576  2.7386  1.9368  1.3276
    4SOL    HW2   15   3.098   1.646   0.561  0.8087 -2.2675  2.1198
    4SOL     MW   16   3.045   1.702   0.607  0.0552  0.0202  0.9115
    5SOL     OW   17   1.712   1.505   0.515  0.0871 -0.0541 -0.0028
    5SOL    HW1   18   1.756   1.488   0.598 -1.3522  0.8822  0.6357
    5SOL    HW2   19   1.619   1.462   0.517 -2.4648 -0.2239 -0.2875
    5SOL     MW   20   1.706   1.497   0.526 -0.4395  0.0470  0.0439
    6SOL     OW   21   0.856   1.416   0.644 -0.1426  0.2785  0.0980
    6SOL    HW1   22   0.762   1.420   0.663 -1.5456  2.0612 -0.1265
    6SOL    HW2   23   0.887   1.345   0.699  1.3362 -2.2241 -1.3557
    6SOL     MW   24   0.848   1.407   0.654 -0.1326  0.1835 -0.1234
    7SOL     OW   25   2.022   1.143   3.077  0.5243 -0.0592 -0.8891
    7SOL    HW1   26   2.065   1.177   2.999 -0.7700  0.6489  1.2855
    7SOL    HW2   27   2.068   1.180   3.153 -0.6762  0.7699 -0.8038
    7SOL     MW   28   2.034   1.153   3.077  0.1951  0.1436 -0.5909
    8SOL     OW   29   0.959   1.335   1.031 -0.7764  0.2787  0.2179
    8SOL    HW1   30   1.041   1.281   1.028  0.7560 -3.0578  0.4200
    8SOL    HW2   31   0.901   1.295   1.095 -0.3351  3.5931 -1.0147
    8SOL     MW   32   0.962   1.323   1.039 -0.5160  0.2758  0.0819
    9SOL     OW   33   1.049   0.467   1.375  0.0389  0.2166  0.0245
    9SOL    HW1   34   0.997   0.391   1.347  1.1490 -1.0103 -1.6838
    9SOL    HW2   35   1.111   0.429   1.438  0.3436 -1.0065  2.7345
    9SOL     MW   36   1.050   0.452   1.380  0.2256 -0.1067  0.1567
   10SOL     OW   37   0.281   0.803   0.455  0.3355  0.4681 -0.1345
   10SOL    HW1   38   0.371   0.802   0.419 -2.2974 -0.2475  2.3486
   10SOL    HW2   39   0.290   0.834   0.549  0.0330  0.8214 -0.7326
   10SOL     MW   40   0.294   0.807   0.463 -0.0518  0.4203  0.1142
   11SOL     OW   41   0.779   1.156   1.712  0.4180 -0.1281  0.4721
   11SOL    HW1   42   0.840   1.141   1.790 -0.6262 -1.3610  1.6143
   11SOL    HW2   43   0.781   1.062   1.664  1.5539 -3.4196  2.3590
   11SOL     MW   44   0.787   1.141   1.716  0.4301 -0.7250  0.8718
   12SOL     OW   45   0.021   1.061   0.871  0.7321 -0.4736 -0.4251
   12SOL    HW1   46   0.066   1.142   0.915  0.3292  1.5994  1.5208
   12SOL    HW2   47  -0.044   1.104   0.809  1.0222 -0.1997  1.4407
   12SOL     MW   48   0.018   1.078   0.869  0.7172 -0.1640  0.0778
   13SOL     OW   49   1.858   1.380   1.346  0.0815 -0.4513 -0.3791
   13SOL    HW1   50   1.893   1.332   1.277 -0.9878 -0.9993  0.5652
   13SOL    HW2   51   1.877   1.474   1.332  0.9786 -1.5997 -0.0628
   13SOL     MW   52   1.865   1.386   1.335  0.0588 -0.6751 -0.2128
   14SOL     OW   53   0.629   0.375   1.839  0.7185  0.4234  0.6542
   14SOL    HW1   54   0.566   0.296   1.831  1.1902  0.1446 -3.9698
   14SOL    HW2   55   0.687   0.351   1.909  0.8561 -0.5359 -1.1833
   14SOL     MW   56   0.628   0.361   1.847  0.7989  0.2601 -0.1983
   15SOL     OW   57   1.965   0.451   0.972 -0.4999 -0.1793  0.5255
   15SOL    HW1   58   1.967   0.463   1.067 -1.8501 -0.8562 -0.7815
   15SOL    HW2   59   2.056   0.437   0.943 -1.5257  1.1973  0.8484
   15SOL     MW   60   1.977   0.451   0.981 -0.8134 -0.0870  0.3956
   16SOL     OW   61   0.219   1.842   0.324 -0.4506 -0.3711 -0.2174
   16SOL    HW1   62   0.305   1.796   0.339  1.1994 -0.3108  0.5809
   16SOL    HW2   63   0.204   1.926   0.375 -0.2284  2.7149 -0.5967
   16SOL     MW   64   0.228   1.847   0.332 -0.2036  0.0440 -0.1621
   17SOL     OW   65   1.065   0.927   1.527  0.5941  0.0819 -0.1188
   17SOL    HW1   66   1.111   0.874   1.591  2.1852 -0.2807  0.2338
   17SOL    HW2   67   0.975   0.930   1.550  2.3192  0.7395  0.5174
   17SOL     MW   68   1.059   0.921   1.539  1.0317  0.1208  0.0117
   18SOL     OW   69   0.090   1.599   0.386 -0.5023 -0.0320 -0.6003
   18SOL    HW1   70   0.157   1.666   0.388 -0.5108  0.8877  0.9231
   18SOL    HW2   71   0.091   1.575   0.293  0.5261  0.3456  0.5133
   18SOL     MW   72   0.099   1.605   0.374 -0.3677  0.1392 -0.2524
   19SOL     OW   73   0.121   1.284   0.968  0.1684 -0.0613 -0.1726
   19SOL    HW1   74   0.148   1.350   0.904 -1.4053 -2.3957  2.8414
   19SOL    HW2   75   0.025   1.295   0.988  2.1168 -1.3698 -3.2396
   19SOL     MW   76   0.112   1.294   0.962  0.2179 -0.5420 -0.1796
   20SOL     OW   77   0.421   2.112   1.170  0.2543 -0.1997 -0.3869
   20SOL    HW1   78   0.369   2.027   1.147  0.9885 -0.8769 -1.6199
   20SOL    HW2   79   0.375   2.147   1.253  0.8915  0.3542 -1.2757
   20SOL     MW   80   0.408   2.105   1.178  0.4352 -0.2160 -0.6668
   21SOL     OW   81   0.545   0.815   0.355  0.1442  0.1477  0.0088
   21SOL    HW1   82   0.618   0.819   0.421 -0.9319 -0.8471 -0.5933
   21SOL    HW2   83   0.591   0.808   0.273  0.0387 -1.7083 -0.1770
   21SOL     MW   84   0.561   0.814   0.353 -0.0117 -0.2285 -0.0951
   22SOL     OW   85   1.471   0.630   1.099  0.4908  0.0704 -0.2117
   22SOL    HW1   86   1.467   0.582   1.015  1.3611 -0.1246 -3.8819
   22SOL    HW2   87   1.390   0.680   1.105  0.7347 -0.1044  1.5959
   22SOL     MW   88   1.460   0.630   1.089  0.6378  0.0216 -0.4574
   23SOL     OW   89   0.042   0.771   0.642  0.0324  0.0368  0.1027
   23SOL    HW1   90   0.086   0.708   0.699 -2.8716  0.2585  0.2517
   23SOL    HW2   91   0.101   0.850   0.650  2.8544  0.9662  2.6058
   23SOL     MW   92   0.055   0.773   0.651  0.0216  0.1887  0.4526
   24SOL     OW   93   1.980   2.205   0.110 -0.1134  0.0008  0.3872
   24SOL    HW1   94   2.018   2.190   0.199 -0.4903  2.1148  2.5159
   24SOL    HW2   95   2.028   2.142   0.053 -0.3604  1.5506 -0.7320
   24SOL     MW   96   1.991   2.194   0.114 -0.1957  0.4842  0.5204
   25SOL     OW   97   0.224   1.383   0.482  0.8557 -0.3150 -0.3334
   25SOL    HW1   98   0.185   1.466   0.448  1.1500 -0.6500 -1.0212
   25SOL    HW2   99   0.305   1.379   0.441 -3.2047 -2.6173 -2.9143
   25SOL     MW  100   0.230   1.393   0.472  0.3588 -0.6629 -0.7647
   26SOL     OW  101   2.000   0.994   0.378  0.0561  0.0790 -0.1245
   26SOL    HW1  102   1.947   1.033   0.454  1.9435 -0.8544  0.4029
   26SOL    HW2  103   2.039   1.073   0.326  2.2757  1.7192  0.8278
   26SOL     MW  104   1.998   1.010   0.381  0.5980  0.1722  0.0707
   27SOL     OW  105   2.070   1.428   0.254  0.0843  0.4214  0.7397
   27SOL    HW1  106   1.981   1.400   0.287 -0.7704 -0.4823  1.7677
   27SOL    HW2  107   2.110   1.484   0.325 -0.1396  0.5233  0.5374
   27SOL     MW  108   2.063   1.432   0.268 -0.0580  0.3156  0.8487
   28SOL     OW  109   0.411   1.074   2.029  0.1324 -0.3837 -0.1127
   28SOL    HW1  110   0.478   1.036   2.080 -0.5746  2.6567  0.8628
   28SOL    HW2  111   0.357   0.993   2.024 -1.4375 -2.7171  0.9685
   28SOL     MW  112   0.412   1.059   2.035 -0.1680 -0.2904  0.1587
   29SOL     OW  113   0.220   1.444   0.764  0.3909 -0.1675  0.0592
   29SOL    HW1  114   0.221   1.538   0.769 -0.2764  0.0648 -0.7811
   29SOL    HW2  115   0.234   1.423   0.669 -1.7890 -2.2170 -1.0429
   29SOL     MW  116   0.222   1.454   0.752  0.0152 -0.4072 -0.1970
   30SOL     OW  117   0.786   1.214   1.215 -0.1067 -0.0668 -0.2696
   30SOL    HW1  118   0.702   1.214   1.262  0.2833 -0.8094  1.3168
   30SOL    HW2  119   0.859   1.209   1.281 -0.6117  2.4313  1.1376
   30SOL     MW  120   0.784   1.213   1.230 -0.1219  0.1648  0.1254
   31SOL     OW  121   0.415   0.186   0.189  0.0543 -0.6179  0.1253
   31SOL    HW1  122   0.391   0.116   0.248  0.0985  0.4340 -2.1870
   31SOL    HW2  123   0.417   0.135   0.106 -1.1679 -2.2368  0.7988
   31SOL     MW  124   0.412   0.170   0.186 -0.1011 -0.6927 -0.0909
   32SOL     OW  125   2.789   0.996   1.131  0.1500  0.0689 -0.0410
   32SOL    HW1  126   2.714   0.926   1.138 -1.2838  0.3879 -1.9324
   32SOL    HW2  127   2.875   0.954   1.104 -0.9186  0.2274 -0.3269
   32SOL     MW  128   2.790   0.981   1.128 -0.1802  0.1319 -0.3283
   33SOL     OW  129   1.833   1.298   0.351 -0.4057  0.0317  0.1467
   33SOL    HW1  130   1.848   1.212   0.393  1.4149 -1.6608 -2.3883
   33SOL    HW2  131   1.809   1.366   0.414  3.1163 -0.5131 -0.0468
   33SOL     MW  132   1.832   1.295   0.365  0.2992 -0.2635 -0.2133
   34SOL     OW  133   1.243   1.864   1.066  0.2810 -0.1362 -0.6555
   34SOL    HW1  134   1.148   1.871   1.077  2.9119 -0.2960 -1.4576
   34SOL    HW2  135   1.284   1.900   1.148  0.6666 -0.8512  1.6451
   34SOL     MW  136   1.236   1.870   1.078  0.6790 -0.2516 -0.4578
   35SOL     OW  137   0.440   0.177   1.879 -0.0831 -0.0162  0.4159
   35SOL    HW1  138   0.388   0.126   1.942  0.0735  1.2520  1.5953
   35SOL    HW2  139   0.453   0.121   1.803  3.2045  0.3427 -0.7934
   35SOL     MW  140   0.435   0.163   1.877  0.3713  0.1985  0.4119
   36SOL     OW  141   1.888   1.933   0.525  0.6450 -0.2143  0.3775
   36SOL    HW1  142   1.919   1.928   0.437  1.3828  1.9068  1.4146
   36SOL    HW2  143   1.930   1.852   0.566  0.7279  0.7467  0.0574
   36SOL     MW  144   1.898   1.922   0.519  0.7533  0.1924  0.4721
   37SOL     OW  145   1.752   2.000   1.028 -0.4051 -0.5953  0.1780
   37SOL    HW1  146   1.731   1.942   0.952 -0.1362  1.1049  0.5606
   37SOL    HW2  147   1.670   2.037   1.054  1.2647 -0.7286 -0.5212
   37SOL     MW  148   1.738   1.997   1.021 -0.1493 -0.3886  0.1362
   38SOL     OW  149   2.788   0.902   0.127 -0.1394  0.2940 -0.1918
   38SOL    HW1  150   2.850   0.921   0.199 -0.4257  2.7829 -2.1489
   38SOL    HW2  151   2.847   0.862   0.063 -0.7957 -0.5673 -2.8524
   38SOL     MW  152   2.804   0.899   0.128 -0.2638  0.5087 -0.8011
   39SOL     OW  153   1.424   0.608   0.786 -0.0069 -0.0650  0.3121
   39SOL    HW1  154   1.395   0.516   0.808  2.9732 -0.2799  0.4615
   39SOL    HW2  155   1.347   0.662   0.775 -0.9040 -0.1319 -2.5190
   39SOL     MW  156   1.410   0.603   0.787  0.2679 -0.1022 -0.0417
   40SOL     OW  157   1.149   1.912   0.253  0.3910  0.1562  0.2850
   40SOL    HW1  158   1.192   1.855   0.312 -0.6185  2.7644  1.5024
   40SOL    HW2  159   1.120   1.987   0.310 -0.6932 -1.8311 -0.1133
   40SOL     MW  160   1.151   1.915   0.269  0.1147  0.2381  0.3930
   41SOL     OW  161   0.622   0.548   1.577  0.3703  0.1721  0.6003
   41SOL    HW1  162   0.715   0.575   1.559  0.1025  0.1120  0.4149
   41SOL    HW2  163   0.630   0.473   1.631 -1.4252  2.5863 -1.0472
   41SOL     MW  164   0.635   0.541   1.582  0.0980  0.4827  0.3584
   42SOL     OW  165   1.246   3.035   1.967  0.3373  0.0024  0.1850
   42SOL    HW1  166   1.167   3.026   2.022 -1.3942 -1.3602 -1.0204
   42SOL    HW2  167   1.316   2.970   1.991  3.4125  0.3459  0.5980
   42SOL     MW  168   1.245   3.026   1.977  0.5146 -0.1320  0.0805
   43SOL     OW  169   1.562   0.133   1.729  0.4192  0.1566  0.2894
   43SOL    HW1  170   1.597   0.080   1.653 -0.7804 -1.8021 -0.9980
   43SOL    HW2  171   1.478   0.088   1.757 -0.7572  0.8012  1.5316
   43SOL     MW  172   1.555   0.120   1.723  0.1057 -0.0167  0.2834
   44SOL     OW  173   1.183   0.762   1.059 -1.3396  0.5074  0.0672
   44SOL    HW1  174   1.185   0.849   1.020 -1.2179  0.1042  0.4316
   44SOL    HW2  175   1.137   0.771   1.143  1.3341  1.0450 -0.9563
   44SOL     MW  176   1.177   0.775   1.065 -0.9708  0.5252 -0.0198
   45SOL     OW  177   1.183   0.759   0.732  0.2023 -0.1509  0.0229
   45SOL    HW1  178   1.122   0.738   0.805 -3.0329 -0.1300 -1.4429
   45SOL    HW2  179   1.137   0.715   0.659 -0.0886 -0.3520  1.5572
   45SOL     MW  180   1.169   0.750   0.732 -0.2629 -0.1747  0.0319
   46SOL     OW  181   0.570   1.166   0.561  0.7884  0.7796  0.0326
   46SOL    HW1  182   0.518   1.171   0.482  1.0322  0.5164 -1.1929
   46SOL    HW2  183   0.652   1.136   0.536 -1.8744 -2.2731  2.0564
   46SOL     MW  184   0.574   1.163   0.547  0.4692  0.3421  0.1379
   47SOL     OW  185   0.156   1.962   1.833 -0.0314  0.2379  0.8842
   47SOL    HW1  186   0.219   1.895   1.797 -0.9370  2.2387 -0.1724
   47SOL    HW2  187   0.118   1.928   1.911 -0.1575  4.1624 -0.0810
   47SOL     MW  188   0.160   1.948   1.839 -0.1675  1.0197  0.6174
   48SOL     OW  189   1.109   0.517   0.953 -0.1109 -0.7372 -0.1624
   48SOL    HW1  190   1.028   0.475   0.973 -1.5314 -0.4333  0.1315
   48SOL    HW2  191   1.118   0.601   1.001 -0.1368 -0.8349 -2.3001
   48SOL     MW  192   1.099   0.523   0.962 -0.3017 -0.7100 -0.4056
   49SOL     OW  193   1.833   0.736   1.594 -0.1166 -0.1244  0.4825
   49SOL    HW1  194   1.793   0.703   1.671 -1.4177 -2.7535 -1.5834
   49SOL    HW2  195   1.887   0.661   1.556 -0.5904  0.0252  0.7119
   49SOL     MW  196   1.835   0.722   1.599 -0.3508 -0.4515  0.2402
   50SOL     OW  197   1.207   1.069   0.528  0.1931 -0.4447 -0.0651
   50SOL    HW1  198   1.174   1.135   0.583  0.5105  1.0907 -0.7436
   50SOL    HW2  199   1.269   1.018   0.583  1.2999  1.6350  2.1423
   50SOL     MW  200   1.211   1.071   0.542  0.3810  0.0323  0.1366
   51SOL     OW  201   0.325   2.894   0.919  0.7635 -0.4441  0.2525
   51SOL    HW1  202   0.411   2.842   0.935  0.2356 -1.4257  0.2942
   51SOL    HW2  203   0.311   2.941   1.001  2.6474  0.5195 -4.0002
   51SOL     MW  204   0.335   2.893   0.932  0.9425 -0.4465 -0.3031
   52SOL     OW  205   0.819   1.846   0.440 -0.0682 -0.1889 -0.3560
   52SOL    HW1  206   0.754   1.914   0.462  1.4220  2.7653  2.6420
   52SOL    HW2  207   0.806   1.825   0.350  0.3617  1.3195 -1.3337
   52SOL     MW  208   0.809   1.852   0.431  0.1851  0.3999 -0.0895
   53SOL     OW  209   0.426   2.135   0.640 -0.2975 -0.3102 -0.1372
   53SOL    HW1  210   0.378   2.128   0.561 -0.3821  0.5226 -1.4408
   53SOL    HW2  211   0.478   2.219   0.638 -0.2822 -1.9972 -0.2579
   53SOL     MW  212   0.427   2.145   0.630 -0.3067 -0.4229 -0.3251
   54SOL     OW  213   2.100   0.911   0.857 -0.1166  0.8249  0.1261
   54SOL    HW1  214   2.149   0.923   0.773 -0.8598  2.1913 -1.5636
   54SOL    HW2  215   2.044   0.833   0.844  0.1007 -0.3727 -0.6467
   54SOL     MW  216   2.099   0.902   0.844 -0.1860  0.8471 -0.1988
   55SOL     OW  217   0.555   1.541   1.643  0.2789  0.1401  0.4041
   55SOL    HW1  218   0.469   1.561   1.604 -0.9584 -1.2613  3.1175
   55SOL    HW2  219   0.596   1.477   1.588 -2.9425  0.9039  2.2072
   55SOL     MW  220   0.549   1.535   1.630 -0.3094  0.0560  1.0000
   56SOL     OW  221   0.580   0.773   0.048  0.8702  0.1703  0.0415
   56SOL    HW1  222   0.567   0.871   0.047 -1.4994  0.1787  1.4369
   56SOL    HW2  223   0.511   0.730  -0.002 -0.1464 -1.4054 -1.5057
   56SOL     MW  224   0.569   0.781   0.041  0.4234 -0.0365  0.0215
   57SOL     OW  225   1.191   1.211   1.092  0.6153 -0.7474 -0.1279
   57SOL    HW1  226   1.273   1.245   1.051  2.5596 -0.2827  2.1168
   57SOL    HW2  227   1.215   1.167   1.181  0.7909 -1.4392  1.3632
   57SOL     MW  228   1.205   1.209   1.098  0.8950 -0.7774  0.3650
   58SOL     OW  229   0.545   1.156   1.320  0.0836 -0.1321  0.1370
   58SOL    HW1  230   0.518   1.251   1.293  0.0648  0.7057  0.4179
   58SOL    HW2  231   0.536   1.150   1.417  2.4128  3.6275 -0.6497
   58SOL     MW  232   0.540   1.168   1.330  0.3885  0.4745  0.0703
   59SOL     OW  233   1.545   1.690   0.333  0.0823 -0.0422  0.0873
   59SOL    HW1  234   1.582   1.657   0.415 -0.7091  0.3146  3.6230
   59SOL    HW2  235   1.457   1.715   0.351  1.5859  0.1131 -3.6018
   59SOL     MW  236   1.538   1.689   0.346  0.1763  0.0254  0.0671
   60SOL     OW  237   0.044   0.182   1.601 -0.8574  0.0390 -0.2396
   60SOL    HW1  238  -0.036   0.226   1.619 -0.6379  0.4343  0.8654
   60SOL    HW2  239   0.052   0.125   1.678 -1.8659 -0.2562 -0.0515
   60SOL     MW  240   0.035   0.180   1.614 -0.9615  0.0522 -0.0690
   61SOL     OW  241   2.043   1.498   3.064  0.0020  0.1626  0.3946
   61SOL    HW1  242   2.039   1.508   3.160 -3.4463  3.2619 -0.1796
   61SOL    HW2  243   2.097   1.420   3.058  0.7166 -0.6698  2.5595
   61SOL     MW  244   2.049   1.489   3.076 -0.3587  0.4617  0.6045
   62SOL     OW  245   0.570   1.697   0.630 -0.1946 -0.3613 -0.3026
   62SOL    HW1  246   0.662   1.704   0.588 -0.9329 -0.3193 -2.2038
   62SOL    HW2  247   0.553   1.603   0.644  1.2686 -0.3137  1.8589
   62SOL     MW  248   0.580   1.685   0.626 -0.0990 -0.3495 -0.2682
   63SOL     OW  249   1.685   0.683   0.741  0.4019 -0.0157  0.0873
   63SOL    HW1  250   1.666   0.734   0.662 -0.2562 -0.9689 -1.3303
   63SOL    HW2  251   1.599   0.667   0.778  2.7097 -0.4380  1.1722
   63SOL     MW  252   1.671   0.687   0.736  0.6196 -0.1972  0.0434
   64SOL     OW  253   0.233   1.748   0.748 -0.7129  0.4069  0.1019
   64SOL    HW1  254   0.305   1.807   0.757  0.7543 -0.8584  2.6179
   64SOL    HW2  255   0.159   1.812   0.753  1.0796 -2.0562  1.8257
   64SOL     MW  256   0.233   1.764   0.750 -0.2828 -0.0850  0.6613
   65SOL     OW  257   1.537   2.350   0.399 -0.1018 -0.2459 -0.4785
   65SOL    HW1  258   1.632   2.335   0.383  1.0703  1.5390 -0.1718
   65SOL    HW2  259   1.528   2.384   0.487  1.9301 -1.6622 -3.5878
   65SOL     MW  260   1.548   2.353   0.409  0.3209 -0.1973 -0.8483
   66SOL     OW  261   0.277   0.556   0.571 -0.4175 -0.7681  0.1027
   66SOL    HW1  262   0.329   0.492   0.525 -0.4124  1.7791 -1.4991
   66SOL    HW2  263   0.287   0.640   0.518  1.9650  1.0012 -1.4678
   66SOL     MW  264   0.285   0.559   0.558 -0.1025 -0.1986 -0.3159
   67SOL     OW  265   1.516   0.076   2.039  0.0839 -0.0098  0.2992
   67SOL    HW1  266   1.571   0.123   1.978 -0.0139  0.3009 -1.1172
   67SOL    HW2  267   1.514  -0.020   2.019  1.7785 -0.8922  0.6506
   67SOL     MW  268   1.523   0.069   2.028  0.2946 -0.0852  0.1587
   68SOL     OW  269   0.649   0.119   2.938  0.1446 -0.3971 -0.0488
   68SOL    HW1  270   0.641   0.151   2.846 -0.5025 -1.9361 -2.4144
   68SOL    HW2  271   0.718   0.178   2.967  3.5530  0.8572 -1.9881
   68SOL     MW  272   0.657   0.131   2.930  0.5090 -0.4347 -0.6168
   69SOL     OW  273   1.001   0.190   2.006  0.0405  0.3275 -0.2619
   69SOL    HW1  274   1.097   0.223   2.014  0.6640  2.5607  3.6121
   69SOL    HW2  275   1.004   0.099   2.026 -0.3476 -0.9021 -0.7817
   69SOL     MW  276   1.014   0.183   2.010  0.0716  0.4599  0.1807
   70SOL     OW  277   0.512   1.731   1.111 -0.3352  0.4301  0.2270
   70SOL    HW1  278   0.558   1.660   1.158 -1.8329 -0.3642 -0.6428
   70SOL    HW2  279   0.577   1.783   1.061  3.0579 -0.6701 -3.1162
   70SOL     MW  280   0.527   1.729   1.111 -0.0851  0.1802 -0.3288
   71SOL     OW  281   1.609   0.530   1.327 -0.3879 -0.1911 -0.6143
   71SOL    HW1  282   1.585   0.603   1.385 -3.2879 -1.9433  0.6671
   71SOL    HW2  283   1.564   0.552   1.241  1.9818  0.1660 -0.4556
   71SOL     MW  284   1.600   0.542   1.323 -0.4578 -0.3751 -0.4243
   72SOL     OW  285   0.760   1.804   0.991  0.1314  0.6507  0.1239
   72SOL    HW1  286   0.776   1.853   0.907 -1.0721  1.8716 -0.5421
   72SOL    HW2  287   0.770   1.711   0.969 -1.5783 -0.0934 -1.4458
   72SOL     MW  288   0.763   1.798   0.977 -0.2529  0.7136 -0.1711
   73SOL     OW  289   1.161   0.732   1.341  0.1348  0.6805 -0.5932
   73SOL    HW1  290   1.113   0.650   1.360  0.7334  0.1869  1.6225
   73SOL    HW2  291   1.135   0.794   1.405  0.1798  0.7163 -0.9869
   73SOL     MW  292   1.151   0.730   1.352  0.2197  0.6201 -0.3528
   74SOL     OW  293   2.792   0.168   0.941 -0.3486 -0.0108  0.0935
   74SOL    HW1  294   2.840   0.160   0.855 -0.1759  1.0229 -1.3351
   74SOL    HW2  295   2.742   0.251   0.925 -2.0107 -1.0906 -0.2213
   74SOL     MW  296   2.792   0.178   0.927 -0.5451 -0.0168 -0.1365
   75SOL     OW  297   1.651   1.383   0.094 -0.2153 -0.1557  0.2441
   75SOL    HW1  298   1.673   1.421   0.178  2.0563  1.3491  0.6677
   75SOL    HW2  299   1.681   1.294   0.095 -0.0278 -0.5691  1.1597
   75SOL     MW  300   1.658   1.376   0.105  0.1091 -0.0117  0.4208
   76SOL     OW  301   3.013   0.623   0.458 -0.1335 -0.2217  0.0895
   76SOL    HW1  302   3.067   0.678   0.519 -1.2285 -2.1266  2.1445
   76SOL    HW2  303   3.070   0.566   0.412 -0.7116  2.0243  0.2991
   76SOL     MW  304   3.028   0.623   0.460 -0.3543 -0.1767  0.3883
   77SOL     OW  305   0.783   0.553   0.404 -0.0122 -0.2069  0.4309
   77SOL    HW1  306   0.755   0.564   0.316 -2.4980 -0.4877  1.1138
   77SOL    HW2  307   0.728   0.480   0.445 -0.5547  0.2562  0.3765
   77SOL     MW  308   0.772   0.545   0.398 -0.4117 -0.1828  0.5138
   78SOL     OW  309   0.736   0.909   1.291 -0.1069  0.4217  0.3640
   78SOL    HW1  310   0.749   0.989   1.244 -0.0298  1.9311 -2.2827
   78SOL    HW2  311   0.650   0.890   1.263 -0.7386 -1.5625  0.1751
   78SOL     MW  312   0.727   0.917   1.281 -0.1800  0.3590 -0.0101
   79SOL     OW  313   1.936   1.671   0.587  0.2370 -0.4104  0.1659
   79SOL    HW1  314   1.843   1.656   0.548  0.4681  1.8463  2.8543
   79SOL    HW2  315   1.934   1.682   0.681 -1.2902  0.8169 -2.5528
   79SOL     MW  316   1.923   1.670   0.594  0.0660  0.0493  0.1619
   80SOL     OW  317   0.079   0.943   0.315  0.0008 -0.1788  0.5740
   80SOL    HW1  318  -0.005   0.900   0.337  0.6445 -0.0032 -1.3926
   80SOL    HW2  319   0.135   0.886   0.370  0.1760  0.0451 -0.1084
   80SOL     MW  320   0.075   0.930   0.325  0.1088 -0.1261  0.2245
   81SOL     OW  321   1.904   1.890   0.215  0.4238  0.1130 -0.1755
   81SOL    HW1  322   1.855   1.813   0.177  2.4386 -2.0118 -0.5350
   81SOL    HW2  323   1.833   1.963   0.209  1.7009  1.4357  0.5172
   81SOL     MW  324   1.888   1.890   0.209  0.8582  0.0071 -0.1315
   82SOL     OW  325   0.825   1.049   0.515 -0.1120 -0.5610 -0.4252
   82SOL    HW1  326   0.834   1.065   0.419  2.9177 -0.5915  1.1167
   82SOL    HW2  327   0.821   0.956   0.525 -2.0566  3.8915  1.4634
   82SOL     MW  328   0.825   1.039   0.504  0.0312  0.0225  0.0274
   83SOL     OW  329   0.102   0.619   1.390 -0.4926  0.3411  1.0130
   83SOL    HW1  330   0.114   0.709   1.361 -0.0886  1.5279 -1.4977
   83SOL    HW2  331   0.180   0.609   1.442 -1.4124  2.5546 -1.5024
   83SOL     MW  332   0.114   0.629   1.393 -0.5607  0.7897  0.3498
   84SOL     OW  333   0.099   0.261   0.951  0.4789 -0.5685  0.2873
   84SOL    HW1  334   0.040   0.311   0.889 -0.1747  1.7668  0.4269
   84SOL    HW2  335   0.048   0.192   1.001  0.9438 -3.1000 -0.5716
   84SOL     MW  336   0.085   0.258   0.950  0.4540 -0.5944  0.1924
   85SOL     OW  337   0.480   0.421   0.738  0.4654 -0.1790  0.1007
   85SOL    HW1  338   0.401   0.475   0.732 -3.1391 -0.4365  0.8069
   85SOL    HW2  339   0.454   0.347   0.785  0.6828  0.3507  0.6047
   85SOL     MW  340   0.466   0.419   0.743  0.0185 -0.1430  0.2604
   86SOL     OW  341   1.214   0.319   1.114  0.0360 -0.2597  0.8089
   86SOL    HW1  342   1.151   0.389   1.094 -0.9186 -0.2985 -0.2574
   86SOL    HW2  343   1.270   0.347   1.187 -0.8569  0.2513 -1.1501
   86SOL     MW  344   1.213   0.332   1.121 -0.2077 -0.1974  0.4097
   87SOL     OW  345   1.181   1.429   1.295  0.9180  0.5043 -0.1272
   87SOL    HW1  346   1.217   1.496   1.237  3.0842 -0.8870  1.8429
   87SOL    HW2  347   1.165   1.357   1.235 -2.1207 -0.0966  0.7874
   87SOL     MW  348   1.183   1.428   1.279  0.8029  0.2415  0.2534
   88SOL     OW  349   1.208   0.995   0.930 -0.0944  0.0805  0.3804
   88SOL    HW1  350   1.302   0.986   0.921  0.6956 -0.0885  1.4994
   88SOL    HW2  351   1.188   1.076   0.976 -0.5090 -1.9008  1.1993
   88SOL     MW  352   1.218   1.005   0.935 -0.0448 -0.2032  0.6361
   89SOL     OW  353   1.777   0.679   0.364  0.3099 -0.2510  0.2559
   89SOL    HW1  354   1.816   0.597   0.385 -4.0629  0.5630 -1.8964
   89SOL    HW2  355   1.830   0.719   0.295  1.6230  2.2131  2.0514
   89SOL     MW  356   1.789   0.674   0.358 -0.0938  0.1815  0.2088
   90SOL     OW  357   0.678   1.142   2.778 -0.4668 -0.6493 -0.2274
   90SOL    HW1  358   0.742   1.059   2.791  2.7319 -1.4759 -2.6097
   90SOL    HW2  359   0.696   1.209   2.842  1.4738  1.2201 -1.3219
   90SOL     MW  360   0.689   1.140   2.788  0.2113 -0.5117 -0.6862
   91SOL     OW  361   2.171   0.667   0.495 -0.1081  0.2118 -0.8212
   91SOL    HW1  362   2.232   0.705   0.431 -0.3803  0.3714  0.6167
   91SOL    HW2  363   2.142   0.589   0.449 -0.8142 -0.0232 -3.1419
   91SOL     MW  364   2.175   0.662   0.480 -0.2372  0.2019 -0.9377
   92SOL     OW  365   1.644   0.854   0.529  0.2133  0.6469  0.2285
   92SOL    HW1  366   1.552   0.852   0.531 -0.4091  0.7811 -0.6891
   92SOL    HW2  367   1.675   0.784   0.466  1.3070 -1.4474  2.0035
   92SOL     MW  368   1.636   0.844   0.521  0.2755  0.3883  0.3416
   93SOL     OW  369   0.971   0.268   0.414 -0.5544  0.0382  0.1315
   93SOL    HW1  370   0.882   0.282   0.387 -1.4004 -3.5603 -0.3336
   93SOL    HW2  371   1.023   0.272   0.334  0.9863  1.3440  1.9347
   93SOL     MW  372   0.966   0.271   0.400 -0.4628 -0.2643  0.3081
   94SOL     OW  373   1.810   1.437   1.620 -0.8580  0.6665  0.3257
   94SOL    HW1  374   1.822   1.410   1.526 -2.3651 -0.5038 -1.8368
   94SOL    HW2  375   1.789   1.353   1.663 -1.6236 -2.5962  0.6095
   94SOL     MW  376   1.809   1.423   1.613 -1.1579  0.0816  0.0778
   95SOL     OW  377   0.762   1.518   0.960  0.0735  0.6870 -0.6927
   95SOL    HW1  378   0.824   1.455   0.999 -1.1835  0.6464 -1.9185
   95SOL    HW2  379   0.673   1.493   0.978  1.0256  0.3984  1.2962
   95SOL     MW  380   0.758   1.506   0.968  0.0333  0.6436 -0.5920
   96SOL     OW  381   1.235   1.844   1.642  0.1696 -0.4570 -0.1697
   96SOL    HW1  382   1.170   1.829   1.705 -2.5015  2.7252  1.4330
   96SOL    HW2  383   1.233   1.758   1.592  1.9673  0.8779  2.3682
   96SOL     MW  384   1.226   1.831   1.643  0.0544  0.1390  0.3766
   97SOL     OW  385   1.288   1.433   0.788  0.1763 -0.2803 -0.3330
   97SOL    HW1  386   1.340   1.463   0.859  0.7900  0.9486 -4.6025
   97SOL    HW2  387   1.199   1.473   0.801 -1.5652  0.8621  0.1969
   97SOL     MW  388   1.283   1.442   0.799  0.0275  0.0326 -0.8264
   98SOL     OW  389   1.457   1.278   1.036 -0.4272 -0.3170 -0.5327
   98SOL    HW1  390   1.484   1.341   1.109  1.8684  1.1217 -0.3304
   98SOL    HW2  391   1.501   1.302   0.956  2.2084 -2.3892 -1.9259
   98SOL     MW  392   1.467   1.290   1.035  0.2235 -0.4006 -0.6898
   99SOL     OW  393   1.360   0.391   1.329 -0.0784  0.0186 -0.4200
   99SOL    HW1  394   1.421   0.463   1.311  1.1185 -0.8796  0.1485
   99SOL    HW2  395   1.377   0.380   1.423  0.7790  0.4742 -0.4429
   99SOL     MW  396   1.370   0.399   1.339  0.1927 -0.0398 -0.3480
  100SOL     OW  397   1.021   1.148   1.362  0.1062 -0.2901  0.1779
  100SOL    HW1  398   1.069   1.207   1.421 -2.0197  0.2202 -0.6358
  100SOL    HW2  399   1.035   1.064   1.410  1.8897  0.6785 -1.1283
  100SOL     MW  400   1.029   1.145   1.376  0.0610 -0.0950 -0.1018
  101SOL     OW  401   0.495   1.078   0.303 -0.3453 -0.2314 -0.5125
  101SOL    HW1  402   0.500   0.986   0.315  2.1675  1.0318  1.3051
  101SOL    HW2  403   0.475   1.095   0.205  1.0491  2.0677 -2.3057
  101SOL     MW  404   0.493   1.068   0.292  0.1702  0.2386 -0.5093
  102SOL     OW  405   2.904   0.599   1.009 -0.0388  0.5154  0.6964
  102SOL    HW1  406   2.940   0.684   1.034 -1.9354 -2.0012 -0.5066
  102SOL    HW2  407   2.938   0.539   1.076  1.7748  2.7268 -0.1125
  102SOL     MW  408   2.913   0.602   1.021 -0.0498  0.4751  0.4310
  103SOL     OW  409   1.732   0.340   1.791 -0.4669 -0.8692 -0.4788
  103SOL    HW1  410   1.668   0.276   1.780  0.0249 -0.1555  0.2809
  103SOL    HW2  411   1.786   0.317   1.868  2.4598  1.0929  2.7159
  103SOL     MW  412   1.731   0.329   1.800 -0.0159 -0.5162  0.0429
  104SOL     OW  413   0.094   1.727   1.526 -0.8969 -0.2590 -0.8107
  104SOL    HW1  414   0.009   1.698   1.532 -2.2067 -2.3495  1.5604
  104SOL    HW2  415   0.126   1.704   1.433  1.3714  0.3660  0.5390
  104SOL     MW  416   0.087   1.720   1.515 -0.7704 -0.4524 -0.3198
  105SOL     OW  417   0.028   1.157   0.472  0.5332  0.2143 -0.2401
  105SOL    HW1  418   0.069   1.070   0.437  0.0098 -1.4303 -1.0828
  105SOL    HW2  419   0.102   1.224   0.487 -0.9344  2.4985  0.6713
  105SOL     MW  420   0.044   1.154   0.470  0.2705  0.2987 -0.2310
  106SOL     OW  421   0.876   0.363   1.029  0.0207 -0.0901 -0.1391
  106SOL    HW1  422   0.808   0.418   0.988  0.1648  1.7090  0.3934
  106SOL    HW2  423   0.907   0.312   0.950 -1.5476  1.8527  1.1033
  106SOL     MW  424   0.871   0.363   1.013 -0.1672  0.4036  0.0951
  107SOL     OW  425   0.765   2.183   2.960 -0.5188  0.3123 -0.2831
  107SOL    HW1  426   0.690   2.129   2.922  0.3187  1.1919 -1.0449
  107SOL    HW2  427   0.783   2.130   3.037  1.6584  1.1236 -0.7164
  107SOL     MW  428   0.758   2.169   2.965 -0.1210  0.5354 -0.4408
  108SOL     OW  429   1.277   1.567   1.545 -0.3710  0.2811  0.6007
  108SOL    HW1  430   1.271   1.527   1.455 -1.0924  2.6893  2.9537
  108SOL    HW2  431   1.351   1.520   1.590 -0.4619  1.1577  0.1956
  108SOL     MW  432   1.286   1.556   1.539 -0.4782  0.7145  0.8577
  109SOL     OW  433   1.982   0.787   0.177 -0.1957  0.2175 -0.2587
  109SOL    HW1  434   2.063   0.808   0.136 -0.8234 -0.0349  0.3826
  109SOL    HW2  435   1.964   0.853   0.251  2.9372  0.1472  4.5670
  109SOL     MW  436   1.990   0.799   0.182  0.1349  0.1749  0.4626
  110SOL     OW  437   0.456   1.920   0.795 -0.4197  0.3310  0.3836
  110SOL    HW1  438   0.509   1.853   0.751 -2.6764 -2.2451  0.5976
  110SOL    HW2  439   0.470   2.003   0.749 -0.5854  0.6155  3.3113
  110SOL     MW  440   0.465   1.922   0.783 -0.7393  0.0287  0.7981
  111SOL     OW  441   0.800   0.930   1.562  0.2566 -0.2648  0.2665
  111SOL    HW1  442   0.782   0.932   1.465 -2.0365  3.0169  0.3836
  111SOL    HW2  443   0.728   0.879   1.601  0.5146 -3.4093 -0.6845
  111SOL     MW  444   0.788   0.924   1.554 -0.0119 -0.2467  0.1565
  112SOL     OW  445   1.332   1.070   1.597  0.4191  0.6200 -0.2268
  112SOL    HW1  446   1.258   1.135   1.611 -1.6431 -0.7124 -0.6668
  112SOL    HW2  447   1.308   0.990   1.644  1.4142 -0.2319 -2.2081
  112SOL     MW  448   1.319   1.068   1.605  0.2783  0.3318 -0.5462
  113SOL     OW  449   1.298   0.052   1.735  0.0825  0.2691 -0.7436
  113SOL    HW1  450   1.266  -0.003   1.808 -0.1030 -1.8980 -1.5277
  113SOL    HW2  451   1.318  -0.019   1.668  0.2243  1.3820 -0.6748
  113SOL     MW  452   1.296   0.035   1.736  0.0767  0.1300 -0.8380
  114SOL     OW  453   0.316   2.860   1.938 -0.8198  0.1226 -0.5638
  114SOL    HW1  454   0.335   2.925   2.005  1.0181 -0.3826 -0.3367
  114SOL    HW2  455   0.310   2.914   1.856 -0.0021  1.6142  2.6443
  114SOL     MW  456   0.318   2.876   1.936 -0.4694  0.2527 -0.1105
  115SOL     OW  457   0.505   0.830   1.139 -0.3719  0.2012  0.2407
  115SOL    HW1  458   0.532   0.740   1.119  0.4222  0.1474 -2.1512
  115SOL    HW2  459   0.463   0.822   1.229 -3.9770 -0.5438  1.1158
  115SOL     MW  460   0.503   0.817   1.148 -0.7428  0.0958  0.0406
  116SOL     OW  461   0.803   1.021   0.983  0.2817  0.0303 -0.6624
  116SOL    HW1  462   0.836   1.068   0.907 -1.2737 -1.9687 -4.0091
  116SOL    HW2  463   0.830   1.068   1.064  0.8133  2.5555  0.3236
  116SOL     MW  464   0.811   1.033   0.983  0.1466  0.0998 -0.9739
  117SOL     OW  465   1.117   1.202   0.775 -0.3523 -0.1063 -0.6807
  117SOL    HW1  466   1.159   1.128   0.820 -0.9290  0.3074  4.4305
  117SOL    HW2  467   1.188   1.273   0.778  1.4633  0.6980  1.1815
  117SOL     MW  468   1.132   1.202   0.781 -0.1888  0.0544  0.2393
  118SOL     OW  469   3.043   2.929   1.755 -0.1224  0.9134  0.6682
  118SOL    HW1  470   3.102   2.991   1.804  0.0155  0.0814  3.0737
  118SOL    HW2  471   2.963   2.973   1.748 -0.3894 -2.8327  1.7843
  118SOL     MW  472   3.040   2.943   1.760 -0.1394  0.3093  1.1328
  119SOL     OW  473   0.480   1.440   1.217  0.0924  0.2086  0.4859
  119SOL    HW1  474   0.459   1.436   1.120 -1.4194 -3.3676 -0.2701
  119SOL    HW2  475   0.390   1.415   1.247  2.9449 -0.6904 -2.1689
  119SOL     MW  476   0.466   1.436   1.208  0.2693 -0.3818  0.0359
  120SOL     OW  477   0.272   0.700   0.970 -0.3171 -0.2152 -0.3630
  120SOL    HW1  478   0.265   0.629   1.038 -1.4869  0.0948  1.5522
  120SOL    HW2  479   0.337   0.761   1.006  1.2353 -0.4318 -0.3253
  120SOL     MW  480   0.280   0.698   0.983 -0.2666 -0.2029 -0.1053
  121SOL     OW  481   1.761   1.192   1.702 -0.2818  0.9295  0.1636
  121SOL    HW1  482   1.692   1.138   1.732  0.1669 -0.3834  0.3634
  121SOL    HW2  483   1.803   1.138   1.632 -0.5600  0.5742  0.6362
  121SOL     MW  484   1.757   1.178   1.697 -0.2593  0.7094  0.2523
  122SOL     OW  485   0.124   0.558   0.785  0.7605  0.0006 -0.1807
  122SOL    HW1  486   0.181   0.570   0.706  1.2698  0.1823 -0.4332
  122SOL    HW2  487   0.177   0.609   0.847 -1.5051  1.0518 -1.3112
  122SOL     MW  488   0.139   0.566   0.783  0.5287  0.1632 -0.3632
  123SOL     OW  489   1.817   1.056   0.566  0.1878  0.3152 -0.4547
  123SOL    HW1  490   1.742   0.992   0.577 -0.6111 -2.1092  1.6951
  123SOL    HW2  491   1.871   1.056   0.648  0.2060 -1.7926 -1.5268
  123SOL     MW  492   1.814   1.047   0.578  0.0848 -0.2828 -0.3125
  124SOL     OW  493   0.697   0.535   0.891  0.1205 -0.0928 -0.7187
  124SOL    HW1  494   0.645   0.487   0.828 -1.4568  2.6880  0.1819
  124SOL    HW2  495   0.702   0.626   0.861 -0.0565 -1.1101  2.4514
  124SOL     MW  496   0.691   0.541   0.879 -0.1110  0.1399 -0.1816
  125SOL     OW  497   0.718   1.782   1.704 -0.0670  0.3551 -0.0616
  125SOL    HW1  498   0.663   1.706   1.678  1.4691  0.2757  0.1506
  125SOL    HW2  499   0.672   1.858   1.685  2.7479 -0.0862 -0.5649
  125SOL     MW  500   0.704   1.782   1.698  0.5071  0.2864 -0.1000
  126SOL     OW  501   2.123   1.607   1.973 -0.2670  0.2979  0.6330
  126SOL    HW1  502   2.178   1.685   1.947  1.4100 -0.6260 -1.7513
  126SOL    HW2  503   2.177   1.526   1.978 -0.0030 -1.5375  1.5063
  126SOL     MW  504   2.137   1.606   1.970 -0.0109 -0.0662  0.4336
  127SOL     OW  505   0.691   0.801   1.858  0.0844 -0.3906 -0.1641
  127SOL    HW1  506   0.757   0.741   1.877 -1.5665 -0.1789  1.6842
  127SOL    HW2  507   0.706   0.870   1.925 -0.7446  0.1767  1.2311
  127SOL     MW  508   0.702   0.803   1.869 -0.2428 -0.2878  0.2639
  128SOL     OW  509   1.824   0.742   2.907 -0.6759 -0.4500 -0.3439
  128SOL    HW1  510   1.852   0.704   2.824 -0.6534 -2.5734  0.1207
  128SOL    HW2  511   1.770   0.816   2.877  0.4216 -1.8860 -2.9134
  128SOL     MW  512   1.821   0.747   2.892 -0.5281 -0.9197 -0.6216
  129SOL     OW  513   1.650   0.937   0.213 -0.2012  0.2702  0.1795
  129SOL    HW1  514   1.592   0.866   0.192  2.3759  1.3963  0.9727
  129SOL    HW2  515   1.675   0.920   0.302  1.1958  1.4072  2.2172
  129SOL     MW  516   1.646   0.925   0.222  0.3232  0.5688  0.5531
  130SOL     OW  517   0.742   1.346   0.357 -0.4096 -0.4967 -0.3635
  130SOL    HW1  518   0.759   1.344   0.457  2.9561  0.8718  0.0019
  130SOL    HW2  519   0.822   1.390   0.322  4.7209 -1.3394 -0.8528
  130SOL     MW  520   0.755   1.351   0.365  0.7114 -0.4273 -0.3799
  131SOL     OW  521   2.989   0.835   3.066 -0.0900 -0.2629  0.4026
  131SOL    HW1  522   2.979   0.899   2.997  2.2351 -0.5549  0.7351
  131SOL    HW2  523   3.063   0.862   3.117  2.5340  1.0755 -1.2237
  131SOL     MW  524   2.997   0.847   3.064  0.5630 -0.1248  0.2319
  132SOL     OW  525   2.711   0.168   1.218 -0.7266 -0.3705  0.2929
  132SOL    HW1  526   2.749   0.134   1.134 -0.2758  1.4157  0.3030
  132SOL    HW2  527   2.619   0.136   1.230 -0.0703  3.2975  0.3691
  132SOL     MW  528   2.704   0.159   1.209 -0.5805  0.3491  0.3043
  133SOL     OW  529   1.062   0.164   1.724  0.0004 -0.3085  0.2489
  133SOL    HW1  530   1.149   0.127   1.748  1.6802  0.6313 -1.4486
  133SOL    HW2  531   1.026   0.195   1.807  1.9453  0.4477  2.2760
  133SOL     MW  532   1.069   0.163   1.738  0.4787 -0.0847  0.2924
  134SOL     OW  533   1.414   2.517   1.437 -0.3730  0.2688 -0.0318
  134SOL    HW1  534   1.368   2.598   1.412 -1.6446  3.6673  1.9126
  134SOL    HW2  535   1.462   2.543   1.518 -0.7691 -1.1939  3.8336
  134SOL     MW  536   1.414   2.531   1.444 -0.5930  0.5242  0.7348
  135SOL     OW  537   3.066   1.031   2.841 -0.0400 -0.0558  0.1872
  135SOL    HW1  538   3.130   1.096   2.859 -1.5007 -1.6417 -3.4018
  135SOL    HW2  539   2.996   1.072   2.886  3.8889  0.4355  1.4491
  135SOL     MW  540   3.065   1.045   2.849  0.2857 -0.2003 -0.1198
  136SOL     OW  541   0.228   2.061   0.902 -0.5767 -0.1255 -0.4471
  136SOL    HW1  542   0.151   2.018   0.861  1.2282 -0.3367  1.3354
  136SOL    HW2  543   0.305   2.014   0.858 -1.1790 -1.3248 -2.0513
  136SOL     MW  544   0.228   2.049   0.891 -0.4180 -0.3116 -0.4235
  137SOL     OW  545   0.679   2.066   0.541  0.0916  0.3347 -0.3508
  137SOL    HW1  546   0.723   2.033   0.621 -4.0909 -2.1584  0.4556
  137SOL    HW2  547   0.588   2.095   0.557  0.8901 -1.7570  0.5542
  137SOL     MW  548   0.673   2.066   0.554 -0.3549 -0.2702 -0.1250
  138SOL     OW  549   0.507   0.549   1.108  0.3328 -0.1440 -0.2257
  138SOL    HW1  550   0.424   0.499   1.091 -0.5137  4.0100 -2.1492
  138SOL    HW2  551   0.569   0.510   1.047 -0.1379 -1.1902 -1.4877
  138SOL     MW  552   0.504   0.537   1.097  0.1590  0.2661 -0.6460
  139SOL     OW  553   2.764   0.576   1.364  0.3341 -0.1048 -0.4809
  139SOL    HW1  554   2.810   0.494   1.349 -1.6050  1.5113 -0.7602
  139SOL    HW2  555   2.831   0.635   1.388 -2.3423 -1.0429  1.2851
  139SOL     MW  556   2.779   0.573   1.365 -0.2748 -0.0153 -0.2847
  140SOL     OW  557   0.804   0.373   2.074  0.2983  0.3621 -0.2456
  140SOL    HW1  558   0.864   0.312   2.039 -2.5482  1.8640  0.1989
  140SOL    HW2  559   0.845   0.385   2.157  0.2458 -0.4829  0.4391
  140SOL     MW  560   0.817   0.367   2.081 -0.0842  0.4488 -0.0966
  141SOL     OW  561   1.075   0.571   1.770  0.2440  0.2417 -0.1883
  141SOL    HW1  562   1.104   0.505   1.708  0.5039  1.4445  0.9077
  141SOL    HW2  563   1.137   0.639   1.759  0.1243 -1.4445 -2.7600
  141SOL     MW  564   1.087   0.571   1.761  0.2625  0.1779 -0.3830
  142SOL     OW  565   0.849   1.152   0.769 -0.5205  0.7856 -0.2572
  142SOL    HW1  566   0.836   1.111   0.681 -1.8670  1.2711  0.4261
  142SOL    HW2  567   0.947   1.164   0.778 -1.2389  1.2515  0.9850
  142SOL     MW  568   0.860   1.148   0.759 -0.7930  0.9111 -0.0031
  143SOL     OW  569   1.747   0.784   1.094  0.1446 -0.0945  0.3071
  143SOL    HW1  570   1.792   0.737   1.023 -2.0111 -1.5904  0.5208
  143SOL    HW2  571   1.650   0.763   1.089 -1.9418  4.2995  1.1509
  143SOL     MW  572   1.740   0.775   1.084 -0.4151  0.2879  0.4466
  144SOL     OW  573   0.250   1.207   1.527 -0.1647 -0.7512  0.5549
  144SOL    HW1  574   0.344   1.202   1.502 -0.2367 -2.0521  1.0638
  144SOL    HW2  575   0.260   1.220   1.620  1.2721  0.0936  1.1705
  144SOL     MW  576   0.264   1.208   1.536  0.0153 -0.8114  0.7033
  145SOL     OW  577   0.256   0.429   1.090  0.4267  0.9214  0.9367
  145SOL    HW1  578   0.288   0.367   1.163  1.5061 -4.1621  2.2367
  145SOL    HW2  579   0.213   0.368   1.019 -0.4717  0.0591 -2.6927
  145SOL     MW  580   0.255   0.413   1.090  0.4506  0.1369  0.6294
  146SOL     OW  581   0.832   1.937   1.325 -0.7417 -0.1743 -0.8523
  146SOL    HW1  582   0.889   1.926   1.247  0.7545 -1.1335 -0.9416
  146SOL    HW2  583   0.751   1.934   1.283 -0.4226  1.3315 -1.2280
  146SOL     MW  584   0.829   1.935   1.309 -0.5022 -0.1021 -0.9136
  147SOL     OW  585   0.376   0.390   3.005 -0.5651  0.2251 -0.6036
  147SOL    HW1  586   0.329   0.396   3.086  0.2664 -0.6541  0.1556
  147SOL    HW2  587   0.342   0.461   2.950 -2.7755  0.9785  1.2422
  147SOL     MW  588   0.365   0.400   3.008 -0.7471  0.2085 -0.2599
  148SOL     OW  589   0.115   0.872   1.285  0.3963 -0.5029 -0.0552
  148SOL    HW1  590   0.210   0.900   1.303  1.9223  0.8199 -0.7044
  148SOL    HW2  591   0.072   0.905   1.361  1.3083 -1.4612 -3.0395
  148SOL     MW  592   0.122   0.880   1.297  0.7180 -0.4548 -0.5346
  149SOL     OW  593   1.365   1.163   1.330 -0.0824 -0.9237  0.2444
  149SOL    HW1  594   1.358   1.124   1.418  0.2261  0.2638  1.9473
  149SOL    HW2  595   1.423   1.239   1.351  0.4718 -1.9067  1.1203
  149SOL     MW  596   1.371   1.168   1.345  0.0315 -0.8967  0.5846
  150SOL     OW  597   1.843   1.410   0.740 -0.2811  0.1820 -0.1393
  150SOL    HW1  598   1.903   1.333   0.733 -2.4467  0.3873  0.8077
  150SOL    HW2  599   1.880   1.461   0.810  0.6406 -0.1735  0.1169
  150SOL     MW  600   1.856   1.407   0.748 -0.4452  0.1622  0.0195
  151SOL     OW  601   1.663   1.806   0.831 -0.0268 -0.4443 -0.4625
  151SOL    HW1  602   1.638   1.832   0.740  2.6143 -0.1940 -0.9471
  151SOL    HW2  603   1.600   1.749   0.862  2.0697 -0.9408  1.2543
  151SOL     MW  604   1.651   1.802   0.823  0.5983 -0.4768 -0.2999
  152SOL     OW  605   0.716   1.385   1.486 -0.0323  0.5715 -0.3728
  152SOL    HW1  606   0.727   1.325   1.558 -0.7463  0.7258 -0.3011
  152SOL    HW2  607   0.805   1.418   1.481 -0.8274 -0.6562  0.7077
  152SOL     MW  608   0.729   1.381   1.495 -0.2314  0.4299 -0.2208
  153SOL     OW  609   2.602   1.246   0.765 -0.4264 -0.8323 -0.0662
  153SOL    HW1  610   2.667   1.190   0.719 -2.8933  2.8002 -0.4104
  153SOL    HW2  611   2.526   1.186   0.774  1.1907 -3.6738  0.8191
  153SOL     MW  612   2.600   1.231   0.760 -0.5385 -0.7279  0.0052
  154SOL     OW  613   0.355   1.779   1.741 -0.4064  0.8064  0.0872
  154SOL    HW1  614   0.350   1.754   1.652 -1.6856  1.9142  1.5226
  154SOL    HW2  615   0.352   1.691   1.791 -0.0852  1.9688  0.1503
  154SOL     MW  616   0.354   1.764   1.736 -0.5328  1.1059  0.2849
  155SOL     OW  617   1.181   0.701   0.272  0.2273 -0.4970 -0.1755
  155SOL    HW1  618   1.164   0.662   0.363  1.8813  1.3455 -0.7778
  155SOL    HW2  619   1.153   0.794   0.278 -0.0979 -2.0402 -0.2903
  155SOL     MW  620   1.175   0.708   0.285  0.4026 -0.4575 -0.2701
  156SOL     OW  621   1.577   3.042   1.058 -0.6506  0.1816  0.4721
  156SOL    HW1  622   1.622   3.105   1.111 -0.8278  0.6008  1.6225
  156SOL    HW2  623   1.566   2.962   1.106  1.1282  2.6552 -0.0841
  156SOL     MW  624   1.582   3.040   1.071 -0.4393  0.5633  0.5505
  157SOL     OW  625   1.455   1.137   0.115 -0.1722 -0.0425  0.0264
  157SOL    HW1  626   1.498   1.051   0.147  1.5389 -2.7376  2.2521
  157SOL    HW2  627   1.522   1.189   0.069  1.3116 -0.6914  0.5138
  157SOL     MW  628   1.470   1.133   0.113  0.2493 -0.4837  0.3844
  158SOL     OW  629   0.487   1.618   2.207 -0.0162 -0.1553 -0.1261
  158SOL    HW1  630   0.478   1.677   2.131 -0.0848 -0.4786 -3.3758
  158SOL    HW2  631   0.398   1.624   2.247 -1.3815  0.1674 -0.2387
  158SOL     MW  632   0.474   1.627   2.202 -0.2054 -0.1554 -0.5698
  159SOL     OW  633   1.264   1.704   0.407  0.3176 -0.1267  0.4625
  159SOL    HW1  634   1.260   1.622   0.350 -0.9677 -1.9197 -1.5785
  159SOL    HW2  635   1.186   1.705   0.465  0.7639 -3.2490 -0.1897
  159SOL     MW  636   1.253   1.694   0.407  0.2069 -0.7752  0.1072
  160SOL     OW  637   0.515   1.155   1.578  0.2322  0.0574 -0.1205
  160SOL    HW1  638   0.505   1.065   1.614 -0.6126 -3.1553  0.0415
  160SOL    HW2  639   0.603   1.183   1.611 -0.6686 -1.8119  0.2457
  160SOL     MW  640   0.525   1.147   1.587  0.0019 -0.6131 -0.0508
  161SOL     OW  641   0.485   2.207   2.560 -0.4310  0.0701  0.2862
  161SOL    HW1  642   0.391   2.200   2.540 -0.4869  0.8965 -0.4385
  161SOL    HW2  643   0.531   2.181   2.479 -0.4413  0.9843  0.2012
  161SOL     MW  644   0.479   2.203   2.546 -0.4398  0.2997  0.1793
  162SOL     OW  645   1.077   1.801   1.858  0.3222  0.7522  0.0970
  162SOL    HW1  646   1.071   1.892   1.893 -0.5519  2.7763  2.5381
  162SOL    HW2  647   0.989   1.759   1.882  0.2987  1.2618  1.3227
  162SOL     MW  648   1.065   1.807   1.866  0.2038  1.0865  0.5808
  163SOL     OW  649   2.133   0.046   0.949  0.2077  0.0821 -0.6731
  163SOL    HW1  650   2.104   0.079   0.858 -1.7213  2.4340 -2.3574
  163SOL    HW2  651   2.083  -0.030   0.977  1.7696  2.3398  1.2772
  163SOL     MW  652   2.122   0.040   0.940  0.1592  0.6903 -0.6380
  164SOL     OW  653   0.346   0.190   0.886 -0.0708 -0.1454  0.6579
  164SOL    HW1  654   0.257   0.214   0.904 -1.3690 -0.9452  0.7603
  164SOL    HW2  655   0.344   0.111   0.828 -0.6886 -1.1646  1.3369
  164SOL     MW  656   0.334   0.183   0.881 -0.3236 -0.3854  0.7610
  165SOL     OW  657   1.330   1.241   0.348  0.2383 -0.6127 -0.6719
  165SOL    HW1  658   1.302   1.163   0.397 -0.8792  2.8311 -0.0266
  165SOL    HW2  659   1.362   1.216   0.257  1.1469  2.2405 -0.3493
  165SOL     MW  660   1.331   1.228   0.342  0.2107  0.2181 -0.5442
  166SOL     OW  661   0.530   1.108   0.999  0.1023  0.3416  0.5229
  166SOL    HW1  662   0.506   1.048   1.070 -0.1308  2.5501 -0.0274
  166SOL    HW2  663   0.622   1.092   0.981 -0.7367  2.7275 -0.2940
  166SOL     MW  664   0.539   1.098   1.006 -0.0391  0.9478  0.3425
  167SOL     OW  665   0.797   1.041   0.245 -0.2064  0.0483 -0.5131
  167SOL    HW1  666   0.707   1.064   0.267 -2.3311  0.7726 -1.6360
  167SOL    HW2  667   0.821   1.113   0.180 -0.4336 -1.4255  2.3992
  167SOL     MW  668   0.788   1.054   0.239 -0.5167 -0.0506 -0.2770
  168SOL     OW  669   1.650   1.675   2.963 -0.0658  0.3680  0.2848
  168SOL    HW1  670   1.562   1.692   2.999  0.2800  0.8251  2.0763
  168SOL    HW2  671   1.662   1.578   2.944  0.0736 -3.5859  0.1332
  168SOL     MW  672   1.640   1.665   2.966 -0.0018 -0.0934  0.5012
  169SOL     OW  673   0.379   0.915   1.390 -0.0077 -0.3813  0.3629
  169SOL    HW1  674   0.423   0.875   1.463 -0.8795  0.7488  1.7795
  169SOL    HW2  675   0.441   0.972   1.340  0.7649 -2.5938  0.6442
  169SOL     MW  676   0.393   0.917   1.393 -0.0208 -0.5241  0.5869
  170SOL     OW  677   0.987   1.495   1.514  0.2570  0.2590  0.5545
  170SOL    HW1  678   0.965   1.590   1.506  3.4441  0.6506 -0.2770
  170SOL    HW2  679   1.057   1.475   1.443  2.7164 -4.0283 -0.4457
  170SOL     MW  680   0.993   1.505   1.504  1.0020 -0.2550  0.3128
  171SOL     OW  681   0.582   1.425   0.682  0.3050  0.0741 -0.2556
  171SOL    HW1  682   0.561   1.406   0.781  0.4996 -0.7380  0.2223
  171SOL    HW2  683   0.548   1.347   0.639  0.1234 -0.8433  1.0765
  171SOL     MW  684   0.575   1.412   0.690  0.3067 -0.1541 -0.0168
  172SOL     OW  685   0.855   0.279   1.289  0.0278  0.0342 -0.3382
  172SOL    HW1  686   0.861   0.307   1.197  2.1714  0.8666 -1.5933
  172SOL    HW2  687   0.765   0.297   1.328 -0.4919  1.8532  1.4523
  172SOL     MW  688   0.844   0.285   1.282  0.2421  0.3841 -0.2676
  173SOL     OW  689   0.448   1.696   0.388  0.1410  0.8647  0.3166
  173SOL    HW1  690   0.469   1.600   0.393 -1.8447  2.0670  1.0523
  173SOL    HW2  691   0.468   1.725   0.479  1.0908  0.0600 -0.4901
  173SOL     MW  692   0.453   1.687   0.401  0.0043  0.9171  0.3072
  174SOL     OW  693   1.856   0.998   1.531 -0.5887 -0.1318 -0.3906
  174SOL    HW1  694   1.840   0.903   1.545  1.6579  1.1530  1.7995
  174SOL    HW2  695   1.847   1.017   1.435  2.7057  0.9963  2.9358
  174SOL     MW  696   1.853   0.988   1.520  0.1424  0.1865  0.3373
  175SOL     OW  697   0.463   1.418   0.380 -0.2184  0.6528  0.1677
  175SOL    HW1  698   0.435   1.361   0.302 -2.3901 -2.2566 -1.9063
  175SOL    HW2  699   0.563   1.406   0.378 -0.2328 -0.9527 -1.2758
  175SOL     MW  700   0.473   1.409   0.369 -0.5068  0.0571 -0.2964
  176SOL     OW  701   0.203   1.379   1.230  0.3327  0.7883 -0.1426
  176SOL    HW1  702   0.179   1.345   1.146  2.5036  0.5582 -0.4599
  176SOL    HW2  703   0.147   1.325   1.285 -0.1682 -0.6107  2.9001
  176SOL     MW  704   0.193   1.367   1.226  0.5530  0.5733  0.2170
  177SOL     OW  705   0.571   0.401   1.337  0.0632  0.6707 -0.1513
  177SOL    HW1  706   0.576   0.481   1.273 -0.3401  0.5359  0.3816
  177SOL    HW2  707   0.561   0.442   1.423  0.2304  0.6539 -0.6982
  177SOL     MW  708   0.570   0.417   1.340  0.0320  0.6507 -0.1531
  178SOL     OW  709   0.025   0.421   2.935  0.3978  0.3147  0.6485
  178SOL    HW1  710  -0.034   0.451   3.004 -1.6420  0.6717 -0.4443
  178SOL    HW2  711  -0.036   0.411   2.865 -0.9937  0.8345  1.2016
  178SOL     MW  712   0.009   0.424   2.935 -0.0549  0.4304  0.5773
  179SOL     OW  713   1.585   1.352   1.402  0.1159  0.1112 -0.0344
  179SOL    HW1  714   1.571   1.370   1.495 -2.2881  1.8129 -0.0827
  179SOL    HW2  715   1.681   1.351   1.390  1.1828 -0.5322  1.8458
  179SOL     MW  716   1.596   1.354   1.412 -0.0605  0.2508  0.2073
  180SOL     OW  717   3.030   0.207   0.474  0.4385  0.2505 -0.2705
  180SOL    HW1  718   2.980   0.221   0.397 -1.8158 -0.4284  3.8040
  180SOL    HW2  719   3.095   0.277   0.474  0.9706 -1.5058 -1.1110
  180SOL     MW  720   3.032   0.218   0.464  0.2113 -0.0708  0.1562
  181SOL     OW  721   1.136   1.365   3.081  0.5101  0.2158  0.2412
  181SOL    HW1  722   1.213   1.414   3.097 -1.5870 -0.6485  1.2680
  181SOL    HW2  723   1.172   1.279   3.063 -3.7877 -0.1524  1.0822
  181SOL     MW  724   1.151   1.360   3.081 -0.3336  0.0532  0.4876
  182SOL     OW  725   0.520   0.892   1.666 -0.2011  0.4397 -0.3709
  182SOL    HW1  726   0.436   0.883   1.710  0.9439  1.2244  1.8864
  182SOL    HW2  727   0.579   0.862   1.733 -1.6077 -3.3458 -1.7381
  182SOL     MW  728   0.517   0.887   1.681 -0.2356  0.0437 -0.2535
  183SOL     OW  729   1.541   1.550   1.223  0.7034 -0.2409  0.3055
  183SOL    HW1  730   1.454   1.574   1.259 -0.5102 -0.4091  0.1132
  183SOL    HW2  731   1.574   1.483   1.290 -0.5061  0.1841 -1.5360
  183SOL     MW  732   1.534   1.544   1.236  0.3837 -0.2071  0.0372
  184SOL     OW  733   0.911   0.619   1.987  0.2688 -0.0001 -0.3055
  184SOL    HW1  734   0.955   0.592   1.905  1.9851  0.2319  0.6327
  184SOL    HW2  735   0.879   0.529   2.016 -1.5775  0.4425  0.5023
  184SOL     MW  736   0.913   0.603   1.980  0.2517  0.0889 -0.0751
  185SOL     OW  737   1.231   1.010   1.930  0.9465  0.6699  0.1799
  185SOL    HW1  738   1.256   0.932   1.988 -2.2238 -1.5659  0.2570
  185SOL    HW2  739   1.244   1.083   1.986 -0.3007 -2.0237 -0.4802
  185SOL     MW  740   1.236   1.009   1.945  0.3637  0.0195  0.1030
  186SOL     OW  741   0.387   1.634   1.464 -0.2551  0.2167 -0.3673
  186SOL    HW1  742   0.462   1.634   1.410 -1.3699 -0.8846  0.3544
  186SOL    HW2  743   0.309   1.621   1.410 -1.6314  0.7284 -0.8259
  186SOL     MW  744   0.387   1.632   1.450 -0.5838  0.1389 -0.3326
  187SOL     OW  745   1.428   0.712   1.437 -0.6107 -0.0358  0.0024
  187SOL    HW1  746   1.425   0.680   1.528 -1.2472  2.3141  0.7896
  187SOL    HW2  747   1.344   0.696   1.399  0.8783  0.9478  0.1611
  187SOL     MW  748   1.416   0.706   1.444 -0.4982  0.4040  0.1272
  188SOL     OW  749   1.957   1.140   0.822 -0.0946 -0.0031 -0.2964
  188SOL    HW1  750   1.894   1.129   0.889 -0.7057 -0.8136  0.7893
  188SOL    HW2  751   2.022   1.068   0.823  2.9569  1.9719 -0.0586
  188SOL     MW  752   1.957   1.129   0.831  0.2274  0.1506 -0.1218
  189SOL     OW  753   0.721   0.799   0.825 -0.4525  0.3950  0.8397
  189SOL    HW1  754   0.639   0.851   0.812 -0.7087 -0.5941 -0.1038
  189SOL    HW2  755   0.778   0.861   0.879  0.7220 -1.3380 -0.0865
  189SOL     MW  756   0.718   0.814   0.830 -0.3313  0.0358  0.5930
  190SOL     OW  757   1.878   0.266   2.067  0.1807  0.9426  0.0184
  190SOL    HW1  758   1.915   0.179   2.051  1.9347 -0.7273  1.6307
  190SOL    HW2  759   1.934   0.333   2.025 -1.5466 -0.6741 -0.6357
  190SOL     MW  760   1.891   0.263   2.060  0.1842  0.5090  0.1448
  191SOL     OW  761   1.502   0.931   1.229 -0.8593  0.4047  0.3763
  191SOL    HW1  762   1.448   1.010   1.233 -0.5629 -0.8799 -0.5287
  191SOL    HW2  763   1.458   0.871   1.289  1.2647 -0.2238 -0.3545
  191SOL     MW  764   1.489   0.934   1.238 -0.5399  0.1523  0.1605
  192SOL     OW  765   0.571   2.071   2.797  0.0620  0.2633 -0.0183
  192SOL    HW1  766   0.539   2.119   2.716 -1.5572  2.6189 -3.7526
  192SOL    HW2  767   0.553   1.979   2.783  1.3991  0.8608  0.1240
  192SOL     MW  768   0.564   2.065   2.784  0.0248  0.6530 -0.4923
  193SOL     OW  769   1.035   1.566   0.800 -0.4686 -0.2223  0.2797
  193SOL    HW1  770   0.992   1.581   0.877 -1.1462 -1.0823 -0.7579
  193SOL    HW2  771   0.964   1.538   0.736 -1.6258  0.8700  0.6968
  193SOL     MW  772   1.020   1.564   0.802 -0.7107 -0.1917  0.1979
  194SOL     OW  773   0.445   1.386   0.917 -0.4403  0.3703  0.5267
  194SOL    HW1  774   0.428   1.297   0.940 -2.7059  0.3838  0.4363
  194SOL    HW2  775   0.370   1.427   0.880 -0.0571 -0.9113  0.4637
  194SOL     MW  776   0.433   1.380   0.915 -0.6887  0.2030  0.5064
  195SOL     OW  777   1.285   1.116   2.992  0.3290  0.6062  0.3463
  195SOL    HW1  778   1.338   1.095   3.067 -2.7117  2.8179 -2.2295
  195SOL    HW2  779   1.219   1.042   2.992  0.1277 -1.8657 -0.4740
  195SOL     MW  780   1.283   1.103   3.002 -0.0987  0.5719 -0.1018
  196SOL     OW  781   2.169   1.036   0.617 -0.1627 -0.3844 -0.6610
  196SOL    HW1  782   2.129   0.999   0.534  0.7663 -3.6760 -1.1670
  196SOL    HW2  783   2.173   1.131   0.601  2.4967  0.5844  0.4676
  196SOL     MW  784   2.164   1.043   0.604  0.3108 -0.6909 -0.5789
  197SOL     OW  785   0.682   1.242   2.051  0.5311  0.2214 -0.0991
  197SOL    HW1  786   0.683   1.143   2.052  0.7433 -2.7401  0.2548
  197SOL    HW2  787   0.641   1.266   1.972 -0.5570 -1.7191 -0.5148
  197SOL     MW  788   0.677   1.232   2.041  0.4155 -0.4254 -0.1073
  198SOL     OW  789   2.977   1.362   1.070  0.0754 -0.4015  0.1708
  198SOL    HW1  790   2.947   1.452   1.078 -1.7259  0.6321  0.9741
  198SOL    HW2  791   2.889   1.319   1.049 -1.3493  1.5885  1.1473
  198SOL     MW  792   2.961   1.368   1.068 -0.3502 -0.0026  0.4057
  199SOL     OW  793   0.523   1.354   1.849 -0.1452  0.3262  0.5473
  199SOL    HW1  794   0.435   1.315   1.853 -0.2556 -0.9061 -0.5892
  199SOL    HW2  795   0.527   1.407   1.768  0.5755 -0.1764  1.2966
  199SOL     MW  796   0.512   1.356   1.839 -0.0647  0.0973  0.4962
  200SOL     OW  797   1.876   0.016   1.341 -0.2087  0.0552  0.0585
  200SOL    HW1  798   1.876  -0.004   1.241 -0.3948 -0.1484 -0.7224
  200SOL    HW2  799   1.785   0.015   1.375 -4.1804  0.4880 -1.9804
  200SOL     MW  800   1.864   0.014   1.332 -0.7573  0.0854 -0.3136
  201SOL     OW  801   0.950   0.213   0.827  0.0154 -0.2330  0.4894
  201SOL    HW1  802   0.938   0.123   0.792 -1.3893  0.0568 -1.6133
  201SOL    HW2  803   1.032   0.245   0.777 -1.3121  0.3974  2.0755
  201SOL     MW  804   0.959   0.205   0.815 -0.3451 -0.1116  0.4213
  202SOL     OW  805   1.504   1.589   0.950 -0.2364 -0.5966 -0.1236
  202SOL    HW1  806   1.529   1.528   0.883  0.8442 -0.7833 -1.7887
  202SOL    HW2  807   1.550   1.570   1.034  1.1020  1.5493  0.2226
  202SOL     MW  808   1.513   1.578   0.952  0.0827 -0.3381 -0.2976
  203SOL     OW  809   0.002   0.463   1.165 -0.2475  0.3231  0.7958
  203SOL    HW1  810   0.082   0.429   1.128  1.6097  2.3133 -1.7205
  203SOL    HW2  811   0.036   0.522   1.236  0.8196  0.6961 -1.1328
  203SOL     MW  812   0.017   0.466   1.170  0.1383  0.6349  0.2093
  204SOL     OW  813   1.051   1.787   0.589  0.2506 -0.6168  0.0668
  204SOL    HW1  814   1.025   1.730   0.665  1.7263  0.1045  2.1181
  204SOL    HW2  815   0.969   1.784   0.541  0.2203 -0.1062 -0.3916
  204SOL     MW  816   1.037   1.779   0.592  0.4413 -0.4543  0.2770
  205SOL     OW  817   1.347   0.091   1.362  0.4619 -0.2877  0.5530
  205SOL    HW1  818   1.305   0.065   1.280 -1.0052  0.1996  0.6890
  205SOL    HW2  819   1.343   0.186   1.358 -0.1092 -3.4131  0.7413
  205SOL     MW  820   1.341   0.100   1.350  0.1930 -0.6358  0.5958
  206SOL     OW  821   0.418   3.029   1.413 -0.3369 -0.1338  0.2949
  206SOL    HW1  822   0.364   2.995   1.338 -1.1761  1.0386 -1.9686
  206SOL    HW2  823   0.496   2.957   1.417  0.0288 -0.4928  1.6299
  206SOL     MW  824   0.421   3.015   1.404 -0.3994 -0.0265  0.1724
  207SOL     OW  825   0.928   1.490   0.206 -0.7768 -0.2735 -0.0000
  207SOL    HW1  826   0.929   1.585   0.192  1.3862  0.8764  1.0941
  207SOL    HW2  827   1.022   1.465   0.202  0.9733 -3.7244 -0.2552
  207SOL     MW  828   0.941   1.499   0.204 -0.2605 -0.5771  0.1107
  208SOL     OW  829   0.704   1.631   1.313 -0.0546  0.2793  0.0187
  208SOL    HW1  830   0.774   1.653   1.374  2.3858 -2.2295 -0.8424
  208SOL    HW2  831   0.680   1.544   1.338  1.9528 -0.5697 -0.0166
  208SOL     MW  832   0.710   1.623   1.324  0.5323 -0.1637 -0.0996
  209SOL     OW  833   1.564   0.534   2.931 -0.0139  0.2358  0.7094
  209SOL    HW1  834   1.636   0.597   2.931 -0.3721  2.3140 -0.8797
  209SOL    HW2  835   1.605   0.449   2.906 -2.6068  2.0575  1.7981
  209SOL     MW  836   1.579   0.531   2.928 -0.4032  0.7503  0.6434
  210SOL     OW  837   1.595   1.364   0.804 -0.2527 -0.2932 -0.4207
  210SOL    HW1  838   1.693   1.360   0.788  1.0247 -1.5639  1.3885
  210SOL    HW2  839   1.556   1.372   0.712  0.5826 -1.4400 -0.7393
  210SOL     MW  840   1.603   1.364   0.790  0.0260 -0.6122 -0.2241
  211SOL     OW  841   1.643   0.374   0.962  0.1549 -0.2602 -0.5420
  211SOL    HW1  842   1.647   0.378   0.870  0.1279 -0.2007  2.6009
  211SOL    HW2  843   1.720   0.426   0.987  0.4613  1.4039  1.4858
  211SOL     MW  844   1.654   0.381   0.953  0.1917 -0.0328  0.1402
  212SOL     OW  845   0.201   1.087   0.095  0.3209 -0.2582  0.3807
  212SOL    HW1  846   0.166   1.048   0.176  0.6801  1.2233 -0.9185
  212SOL    HW2  847   0.208   1.004   0.043  1.1935 -1.8859  3.2949
  212SOL     MW  848   0.197   1.071   0.098  0.4834 -0.2775  0.5938
  213SOL     OW  849   0.467   1.691   3.036  0.6141  0.6526  0.2731
  213SOL    HW1  850   0.495   1.727   3.119  1.0223  0.1942 -0.5065
  213SOL    HW2  851   0.515   1.744   2.963 -1.2461 -0.3517 -3.2111
  213SOL     MW  852   0.477   1.702   3.037  0.4226  0.4596 -0.2895
  214SOL     OW  853   0.567   0.293   2.241 -0.5680 -0.5063  0.7493
  214SOL    HW1  854   0.514   0.373   2.224 -1.9212  1.9352 -0.4924
  214SOL    HW2  855   0.644   0.301   2.181  1.4242  1.6272 -0.6283
  214SOL     MW  856   0.570   0.305   2.231 -0.4837  0.0973  0.4037
  215SOL     OW  857   0.516   0.695   2.662 -0.1297  0.9052 -0.2327
  215SOL    HW1  858   0.516   0.663   2.570  2.2801  0.0207 -2.2028
  215SOL    HW2  859   0.446   0.653   2.718  1.6840 -4.8392  2.1965
  215SOL     MW  860   0.507   0.685   2.657  0.4275  0.0306 -0.1721
  216SOL     OW  861   2.935   3.078   2.650 -0.5509 -0.1812 -0.0185
  216SOL    HW1  862   2.899   3.063   2.741 -0.9422  0.9875  2.0753
  216SOL    HW2  863   2.915   3.179   2.639 -2.0367  2.1602  0.6115
  216SOL     MW  864   2.927   3.090   2.660 -0.7985  0.2819  0.3409
  217SOL     OW  865   0.922   1.192   0.053  0.0861 -0.8582  0.8529
  217SOL    HW1  866   0.961   1.108   0.041 -1.0915 -2.2106  1.6854
  217SOL    HW2  867   0.994   1.257   0.050  2.5741 -1.7846 -2.4674
  217SOL     MW  868   0.937   1.190   0.051  0.2590 -1.1589  0.5247
  218SOL     OW  869   0.925   1.334   2.528  0.5723  0.3811 -0.3878
  218SOL    HW1  870   0.932   1.247   2.566  3.9950  0.4118 -2.3836
  218SOL    HW2  871   1.003   1.375   2.559 -0.5384  0.6102  1.7955
  218SOL     MW  872   0.936   1.328   2.537  0.8774  0.4154 -0.3630
  219SOL     OW  873   1.095   0.473   2.613  0.3601 -0.4127 -0.1203
  219SOL    HW1  874   1.151   0.513   2.680 -3.2837 -0.3190  3.3606
  219SOL    HW2  875   1.063   0.539   2.553 -0.8969  0.7133  4.1646
  219SOL     MW  876   1.098   0.487   2.614 -0.2865 -0.2518  0.9043
  220SOL     OW  877   1.763   0.453   2.232 -1.0407  0.2263 -0.0176
  220SOL    HW1  878   1.684   0.479   2.186 -0.9476 -0.1848 -0.9665
  220SOL    HW2  879   1.812   0.390   2.173  3.9393 -0.1519 -0.5847
  220SOL     MW  880   1.759   0.448   2.218 -0.3714  0.1221 -0.2177
  221SOL     OW  881   0.339   1.337   2.908 -0.4546  0.1057  0.5897
  221SOL    HW1  882   0.377   1.250   2.886  1.0168 -1.6165 -3.0674
  221SOL    HW2  883   0.374   1.388   2.836 -0.0163 -0.2997 -0.5239
  221SOL     MW  884   0.349   1.332   2.895 -0.2027 -0.1750 -0.0398
  222SOL     OW  885   0.392   0.926   2.675  0.6960  0.1007  0.2147
  222SOL    HW1  886   0.349   0.947   2.589  0.7409 -1.1705  2.5485
  222SOL    HW2  887   0.423   0.840   2.658 -0.4289  1.2654  0.1911
  222SOL     MW  888   0.390   0.918   2.661  0.5535  0.0867  0.5195
  223SOL     OW  889   0.016   2.081   2.592 -0.0363  0.0815 -0.4890
  223SOL    HW1  890   0.072   2.015   2.641  0.4727 -0.8166 -0.5439
  223SOL    HW2  891   0.088   2.129   2.550 -0.6552 -2.0976 -2.1112
  223SOL     MW  892   0.033   2.079   2.593 -0.0508 -0.3245 -0.7103
  224SOL     OW  893   1.545   0.818   2.599 -0.0150  0.0474  0.0728
  224SOL    HW1  894   1.542   0.866   2.682  3.5187  0.0167 -1.9527
  224SOL    HW2  895   1.505   0.876   2.533 -0.8591  2.2643 -1.5372
  224SOL     MW  896   1.539   0.832   2.601  0.3399  0.3358 -0.4069
  225SOL     OW  897   2.944   1.500   2.306 -0.4373 -0.3372  0.2188
  225SOL    HW1  898   2.990   1.576   2.264 -1.1436  1.8210  0.0351
  225SOL    HW2  899   2.872   1.542   2.355  2.7665  2.0890  0.6596
  225SOL     MW  900   2.940   1.516   2.307 -0.1077  0.2677  0.2527
  226SOL     OW  901   0.461   1.429   2.678 -0.2903  0.3260  0.7044
  226SOL    HW1  902   0.548   1.427   2.636  1.9908 -1.1223 -0.9200
  226SOL    HW2  903   0.429   1.516   2.667 -0.6351 -1.6196  0.0693
  226SOL     MW  904   0.468   1.440   2.671 -0.0349 -0.1218  0.4063
  227SOL     OW  905   0.442   1.090   2.874  0.7445 -0.0668  0.1936
  227SOL    HW1  906   0.536   1.106   2.847  2.7045  0.9192  0.2100
  227SOL    HW2  907   0.418   1.021   2.817  0.1899 -0.5931 -1.3527
  227SOL     MW  908   0.451   1.083   2.863  0.9299 -0.0061 -0.0083
  228SOL     OW  909   0.717   0.985   2.057 -0.3539  0.1135  0.0789
  228SOL    HW1  910   0.813   1.013   2.035 -1.2872 -1.6168  2.7405
  228SOL    HW2  911   0.730   0.932   2.140 -0.6685  0.2516  1.7216
  228SOL     MW  912   0.732   0.982   2.065 -0.5186 -0.0966  0.6468
  229SOL     OW  913   0.166   0.600   0.027  0.3046  0.0733 -0.2378
  229SOL    HW1  914   0.131   0.541  -0.044  0.5460  0.4983 -1.5716
  229SOL    HW2  915   0.144   0.558   0.111  1.8243  2.5407  1.8286
  229SOL     MW  916   0.159   0.587   0.029  0.5369  0.4549 -0.1412
  230SOL     OW  917   1.771   1.381   2.023 -0.3885  0.1357  0.1316
  230SOL    HW1  918   1.714   1.364   2.097  0.1190 -0.4657  0.6823
  230SOL    HW2  919   1.825   1.304   2.008 -1.7469 -0.9079  1.0023
  230SOL     MW  920   1.770   1.368   2.031 -0.5008 -0.0813  0.3192
  231SOL     OW  921   2.771   1.331   2.190 -0.3288  0.5627 -0.6220
  231SOL    HW1  922   2.813   1.409   2.228 -0.3330 -1.6193 -1.7003
  231SOL    HW2  923   2.731   1.361   2.104 -0.6863 -0.4405 -1.5100
  231SOL     MW  924   2.771   1.345   2.183 -0.3765  0.1424 -0.8814
  232SOL     OW  925   2.236   0.809   2.112  0.1181  0.3082 -0.4016
  232SOL    HW1  926   2.205   0.878   2.053  2.1426 -1.3824  2.2153
  232SOL    HW2  927   2.209   0.832   2.202  0.2441 -0.1679  0.1149
  232SOL     MW  928   2.228   0.821   2.116  0.4018  0.0223  0.0118
  233SOL     OW  929   2.038   0.463   1.954 -0.3250 -0.0378  0.2626
  233SOL    HW1  930   2.114   0.417   1.923  0.2797 -1.8474  3.6337
  233SOL    HW2  931   2.078   0.482   2.044  0.9082 -2.1082 -0.3382
  233SOL     MW  932   2.053   0.460   1.962 -0.0825 -0.5497  0.6281
  234SOL     OW  933   0.290   1.011   2.446  0.4346  0.2684  0.0606
  234SOL    HW1  934   0.198   1.044   2.437 -2.5078 -2.5744  2.3853
  234SOL    HW2  935   0.342   1.097   2.447 -1.5319  0.3955  1.7786
  234SOL     MW  936   0.285   1.027   2.445 -0.2131 -0.0899  0.5940
  235SOL     OW  937   1.147   3.036   2.715 -0.1292 -0.5938 -0.0435
  235SOL    HW1  938   1.158   2.973   2.790  0.7238  0.1833 -2.3945
  235SOL    HW2  939   1.143   3.121   2.763 -1.9348 -1.8667  0.8850
  235SOL     MW  940   1.148   3.039   2.731 -0.2549 -0.6592 -0.2312
  236SOL     OW  941   2.936   0.528   0.002 -0.2767  0.1321 -0.0078
  236SOL    HW1  942   2.841   0.516   0.004  2.4314  0.4872  0.9033
  236SOL    HW2  943   2.947   0.622  -0.020 -1.3198  0.4889 -0.4496
  236SOL     MW  944   2.925   0.539  -0.001 -0.0570  0.2261  0.0541
  237SOL     OW  945   1.947   1.094   2.236  0.2195  1.0941  0.4975
  237SOL    HW1  946   1.928   1.099   2.146  1.2483  3.0421 -0.3416
  237SOL    HW2  947   1.865   1.073   2.278  1.8526 -2.1894  3.2658
  237SOL     MW  948   1.934   1.092   2.230  0.5707  0.9179  0.7520
  238SOL     OW  949   1.080   1.785   2.989 -0.4952 -0.2910  0.0189
  238SOL    HW1  950   1.049   1.695   2.981  0.0444  1.0974 -2.0210
  238SOL    HW2  951   1.170   1.765   3.018  2.1034  2.1350 -0.2575
  238SOL     MW  952   1.088   1.770   2.991 -0.0811  0.2122 -0.2867
  239SOL     OW  953   1.255   1.367   2.355 -0.0721 -0.0210 -0.0816
  239SOL    HW1  954   1.197   1.425   2.413 -2.8974 -0.7103  0.7037
  239SOL    HW2  955   1.258   1.285   2.414  1.5015 -4.3320  2.6679
  239SOL     MW  956   1.248   1.364   2.370 -0.2373 -0.6808  0.3848
  240SOL     OW  957   0.738   0.817   2.275  0.3461  0.2864  0.5028
  240SOL    HW1  958   0.737   0.879   2.346 -1.4044  1.1164 -1.2876
  240SOL    HW2  959   0.830   0.786   2.277 -1.1952  1.1877  0.1048
  240SOL     MW  960   0.750   0.821   2.284 -0.0882  0.5148  0.2140
  241SOL     OW  961   0.633   0.391   0.001 -0.0929 -0.1790  0.0250
  241SOL    HW1  962   0.664   0.473   0.040 -1.2328 -0.7158 -0.3302
  241SOL    HW2  963   0.542   0.409  -0.035 -1.1228  0.3423  2.6316
  241SOL     MW  964   0.625   0.404   0.001 -0.3792 -0.1810  0.3220
  242SOL     OW  965   1.500   1.683   2.375  0.5329 -0.5659  0.5409
  242SOL    HW1  966   1.458   1.773   2.386 -0.6324  3.4244 -0.1163
  242SOL    HW2  967   1.436   1.638   2.314 -0.0276  2.8992 -1.1826
  242SOL     MW  968   1.486   1.689   2.368  0.3052  0.4178  0.2268
  243SOL     OW  969   1.033   0.247   2.468  0.0704  0.0615  0.6428
  243SOL    HW1  970   1.113   0.235   2.411  0.9074 -1.3995 -0.0912
  243SOL    HW2  971   1.053   0.300   2.547 -0.6382  0.3169  1.2629
  243SOL     MW  972   1.046   0.252   2.471  0.0874 -0.0976  0.6277
  244SOL     OW  973   0.246   0.747   2.347 -0.1927  0.3609  0.0152
  244SOL    HW1  974   0.245   0.839   2.372  1.8171  1.2126  0.9080
  244SOL    HW2  975   0.339   0.724   2.343  2.2392  0.8902 -0.1343
  244SOL     MW  976   0.258   0.756   2.350  0.3933  0.5431  0.1133
  245SOL     OW  977   1.275   0.230   2.322 -0.3951 -0.3237 -0.1085
  245SOL    HW1  978   1.303   0.135   2.322 -0.4971 -1.9652  0.4905
  245SOL    HW2  979   1.346   0.273   2.373  1.2078  2.3465  1.7821
  245SOL     MW  980   1.288   0.223   2.329 -0.1971 -0.1879  0.2200
  246SOL     OW  981   1.184   1.209   2.149  0.2309 -0.6325 -0.1283
  246SOL    HW1  982   1.142   1.125   2.188 -2.7174 -1.1287 -0.0868
  246SOL    HW2  983   1.205   1.265   2.219 -0.4693 -3.6879  0.7202
  246SOL     MW  984   1.182   1.205   2.163 -0.2505 -1.1011 -0.0109
  247SOL     OW  985   0.765   0.585   0.142 -0.3770  0.1717  0.2680
  247SOL    HW1  986   0.733   0.672   0.122  0.3588 -1.4978  0.4045
  247SOL    HW2  987   0.859   0.573   0.124  0.9476 -0.7442  1.0337
  247SOL     MW  988   0.773   0.595   0.137 -0.1051 -0.1694  0.3870
  248SOL     OW  989   0.474   1.213   2.451 -0.0710  0.5465  0.3737
  248SOL    HW1  990   0.481   1.265   2.371 -2.0538 -1.0761  0.3916
  248SOL    HW2  991   0.483   1.273   2.527  1.4229 -1.1084  1.1578
  248SOL     MW  992   0.476   1.228   2.451 -0.1355  0.1141  0.4795
  249SOL     OW  993   0.159   1.845   2.717  0.5325  0.1836 -0.3809
  249SOL    HW1  994   0.084   1.784   2.693 -1.0725  3.2379  1.1181
  249SOL    HW2  995   0.162   1.845   2.815  1.1575  0.3315  3.3327
  249SOL     MW  996   0.149   1.837   2.727  0.4032  0.6061  0.3068
  250SOL     OW  997   2.180   0.865   2.373  0.1662  0.0566 -0.7355
  250SOL    HW1  998   2.251   0.799   2.403  1.4404 -0.1782 -0.9074
  250SOL    HW2  999   2.217   0.951   2.383 -1.2047 -0.4492 -1.3673
  250SOL     MW 1000   2.194   0.868   2.378  0.1534 -0.0411 -0.8415
  251SOL     OW 1001   0.142   0.922   2.025 -0.2465 -0.5430 -0.6543
  251SOL    HW1 1002   0.140   0.908   2.124  1.3277 -2.5283  0.4525
  251SOL    HW2 1003   0.115   0.842   1.982 -0.7582  0.1761  2.3213
  251SOL     MW 1004   0.138   0.910   2.033 -0.1063 -0.7101 -0.1156
  252SOL     OW 1005   1.717   0.986   2.865  0.1203 -0.0066  0.0312
  252SOL    HW1 1006   1.729   1.038   2.947 -1.4226  0.8596 -2.6897
  252SOL    HW2 1007   1.779   1.020   2.797  1.4858 -1.3443 -0.5015
  252SOL     MW 1008   1.726   0.998   2.867  0.0969 -0.0688 -0.3981
  253SOL     OW 1009   1.221   1.776   2.554  0.3671  0.4090  0.0968
  253SOL    HW1 1010   1.211   1.766   2.458 -0.2578  1.2171 -0.9777
  253SOL    HW2 1011   1.146   1.827   2.565  0.9321 -1.6090 -2.6802
  253SOL     MW 1012   1.210   1.781   2.543  0.3592  0.2494 -0.4114
  254SOL     OW 1013   1.041   1.014   2.272  0.7480 -0.7074 -0.1086
  254SOL    HW1 1014   1.020   0.925   2.250 -2.0210  0.6015  1.0597
  254SOL    HW2 1015   0.966   1.076   2.266  3.3187 -1.4650 -1.1938
  254SOL     MW 1016   1.029   1.011   2.269  0.7218 -0.6347 -0.0976
  255SOL     OW 1017   0.808   2.565   2.216 -0.5927  0.9157 -0.8201
  255SOL    HW1 1018   0.745   2.500   2.245  0.4354  0.1104  1.3538
  255SOL    HW2 1019   0.883   2.553   2.279 -0.1778  0.5550  0.5052
  255SOL     MW 1020   0.810   2.555   2.228 -0.4023  0.7619 -0.3584
  256SOL     OW 1021   1.235   2.757   2.847  0.4501 -0.5073  0.5106
  256SOL    HW1 1022   1.243   2.669   2.816  1.0906 -3.7962  0.6851
  256SOL    HW2 1023   1.302   2.791   2.788 -0.7628 -0.0913  0.8215
  256SOL     MW 1024   1.245   2.750   2.835  0.3746 -0.8864  0.5746
  257SOL     OW 1025   0.099   1.924   0.095 -0.6462 -0.0960  0.0987
  257SOL    HW1 1026   0.144   1.879   0.165 -0.6527 -0.4506 -1.6988
  257SOL    HW2 1027   0.127   1.875   0.013 -0.5209 -1.8678  0.6990
  257SOL     MW 1028   0.109   1.911   0.093 -0.6305 -0.3765 -0.0592
  258SOL     OW 1029   0.682   1.016   2.463 -0.2768 -0.3104 -0.3491
  258SOL    HW1 1030   0.687   1.100   2.431  0.2898 -0.2879  0.5553
  258SOL    HW2 1031   0.600   1.027   2.516 -2.7073  1.0638  0.8621
  258SOL     MW 1032   0.672   1.029   2.466 -0.5227 -0.1261 -0.0700
  259SOL     OW 1033   0.761   0.457   2.378 -0.1396 -0.2623  0.1164
  259SOL    HW1 1034   0.682   0.507   2.387  0.2842 -2.3259 -0.4285
  259SOL    HW2 1035   0.731   0.369   2.394  0.5242 -0.6965  1.6131
  259SOL     MW 1036   0.746   0.452   2.381  0.0039 -0.5919  0.2420
  260SOL     OW 1037   0.513   0.135   1.609 -0.2913  0.1687  0.0238
  260SOL    HW1 1038   0.498   0.102   1.519 -2.5329  0.5444  0.1132
  260SOL    HW2 1039   0.607   0.143   1.618 -3.5825  1.4721 -3.1419
  260SOL     MW 1040   0.523   0.132   1.598 -1.0213  0.3903 -0.3821
  261SOL     OW 1041   1.301   0.756   2.018  0.3314  0.5235  0.0004
  261SOL    HW1 1042   1.307   0.766   2.115  0.3595  2.0393 -1.2852
  261SOL    HW2 1043   1.307   0.664   2.009  1.4735  2.3841  0.4075
  261SOL     MW 1044   1.302   0.745   2.030  0.4858  0.9690 -0.1155
  262SOL     OW 1045   1.103   0.311   0.159 -0.2630  0.0262  0.5318
  262SOL    HW1 1046   1.195   0.311   0.125 -2.0672 -0.0103 -0.4845
  262SOL    HW2 1047   1.055   0.264   0.093 -2.0061  2.2035 -0.1018
  262SOL     MW 1048   1.109   0.305   0.146 -0.7310  0.3086  0.3141
  263SOL     OW 1049   0.432   3.080   2.508 -0.1409  0.7347 -0.5269
  263SOL    HW1 1050   0.353   3.136   2.509 -0.6745 -0.8931 -0.2633
  263SOL    HW2 1051   0.474   3.090   2.419  3.6052 -1.5593  1.3613
  263SOL     MW 1052   0.427   3.089   2.496  0.2830  0.2172 -0.2430
  264SOL     OW 1053   1.519   1.281   1.931 -0.0926  0.3865 -0.1533
  264SOL    HW1 1054   1.483   1.248   2.011  0.4450  2.3383  1.2079
  264SOL    HW2 1055   1.605   1.319   1.950 -1.5446 -1.0580 -0.7017
  264SOL     MW 1056   1.525   1.282   1.944 -0.2132  0.4534 -0.0460
  265SOL     OW 1057   0.668   2.803   2.275  0.4543  0.1143  0.4977
  265SOL    HW1 1058   0.708   2.723   2.231  0.4164 -1.2165  0.9774
  265SOL    HW2 1059   0.709   2.792   2.361 -1.3047  2.0256 -1.8262
  265SOL     MW 1060   0.679   2.791   2.281  0.2172  0.1909  0.2544
  266SOL     OW 1061   1.009   0.734   2.224 -0.5213 -0.0478  0.0935
  266SOL    HW1 1062   0.988   0.692   2.139  0.0274 -3.7420  4.1530
  266SOL    HW2 1063   1.105   0.722   2.224  0.5107  0.6158 -1.7405
  266SOL     MW 1064   1.019   0.727   2.213 -0.3128 -0.4476  0.3871
  267SOL     OW 1065   1.383   1.694   2.767  0.4800  0.3402  0.4647
  267SOL    HW1 1066   1.462   1.671   2.712  2.9555  0.6605  2.1630
  267SOL    HW2 1067   1.320   1.729   2.699  1.2060  1.0133  1.0362
  267SOL     MW 1068   1.385   1.695   2.751  0.9024  0.4713  0.7642
  268SOL     OW 1069   0.270   0.831   1.737 -0.6175 -0.3110 -0.6274
  268SOL    HW1 1070   0.190   0.861   1.692  1.4231  0.1925 -0.3153
  268SOL    HW2 1071   0.281   0.737   1.721 -0.7289  0.4993 -0.1921
  268SOL     MW 1072   0.261   0.823   1.729 -0.3629 -0.1377 -0.5288
  269SOL     OW 1073   1.398   1.951   2.355 -0.0541 -0.2002 -0.2168
  269SOL    HW1 1074   1.455   2.021   2.324 -0.6995  1.3860 -1.4574
  269SOL    HW2 1075   1.341   2.000   2.421 -0.5280  2.2482  3.8839
  269SOL     MW 1076   1.398   1.967   2.359 -0.2017  0.3322  0.1606
  270SOL     OW 1077   1.168   0.372   1.600 -0.2023  0.2354  0.3452
  270SOL    HW1 1078   1.111   0.298   1.631  0.9734  2.0821  1.5342
  270SOL    HW2 1079   1.257   0.352   1.618 -1.8534 -1.6602  0.8553
  270SOL     MW 1080   1.172   0.360   1.606 -0.2651  0.2289  0.5693
  271SOL     OW 1081   0.897   0.019   2.504  0.0512  0.6806  0.3403
  271SOL    HW1 1082   0.931  -0.027   2.579  1.9862 -1.0298  0.8888
  271SOL    HW2 1083   0.959   0.100   2.498 -0.1678 -2.5972  0.1651
  271SOL     MW 1084   0.910   0.023   2.513  0.2776  0.0224  0.3896
  272SOL     OW 1085   1.487   2.904   2.777  0.5030  0.2396 -0.3667
  272SOL    HW1 1086   1.467   2.971   2.714  0.1362 -1.5407 -0.5449
  272SOL    HW2 1087   1.493   2.939   2.860 -1.3774 -0.5358  0.7379
  272SOL     MW 1088   1.485   2.917   2.780  0.2065 -0.0976 -0.2445
  273SOL     OW 1089   1.433   0.948   2.848  0.3699  0.5821 -0.2022
  273SOL    HW1 1090   1.522   0.975   2.863 -0.7365 -0.6991 -0.0347
  273SOL    HW2 1091   1.382   1.020   2.892 -1.5040  1.1359 -1.1721
  273SOL     MW 1092   1.438   0.961   2.856 -0.0233  0.4862 -0.3081
  274SOL     OW 1093   1.466   0.732   0.177  0.5768 -0.4366 -0.5346
  274SOL    HW1 1094   1.502   0.646   0.187  1.5458  1.4186  1.6893
  274SOL    HW2 1095   1.371   0.729   0.208  1.0226 -2.4698 -1.7786
  274SOL     MW 1096   1.458   0.721   0.182  0.7634 -0.4601 -0.4053
  275SOL     OW 1097   1.708   0.631   1.820  0.3358 -0.1947 -0.2172
  275SOL    HW1 1098   1.777   0.660   1.885  2.8251  0.0960  0.9549
  275SOL    HW2 1099   1.719   0.536   1.811 -0.5745  0.3026  1.3534
  275SOL     MW 1100   1.718   0.622   1.827  0.5442 -0.0907  0.1447
  276SOL     OW 1101   0.260   1.201   1.830 -0.4147 -0.3780  0.2035
  276SOL    HW1 1102   0.309   1.157   1.899 -0.8418  0.5499 -1.7087
  276SOL    HW2 1103   0.193   1.249   1.878 -1.7878 -0.4058  2.9449
  276SOL     MW 1104   0.258   1.201   1.846 -0.6522 -0.2592  0.3129
  277SOL     OW 1105   1.870   1.271   2.437  0.3075 -0.2934 -0.5991
  277SOL    HW1 1106   1.942   1.334   2.460 -1.7246 -0.6637 -2.9689
  277SOL    HW2 1107   1.909   1.184   2.433  1.3465  1.4350 -0.9794
  277SOL     MW 1108   1.884   1.268   2.440  0.1765 -0.1143 -0.9619
  278SOL     OW 1109   1.453   0.609   1.697  0.3807  0.0326 -0.0813
  278SOL    HW1 1110   1.430   0.563   1.779  0.9951  0.3947  0.8185
  278SOL    HW2 1111   1.528   0.656   1.726  3.1820 -2.4303  0.4399
  278SOL     MW 1112   1.460   0.609   1.712  0.8314 -0.2446  0.1062
  279SOL     OW 1113   0.520   0.022   2.272 -0.0445 -0.3208  0.0106
  279SOL    HW1 1114   0.588  -0.035   2.235 -0.5675 -2.6943 -1.4946
  279SOL    HW2 1115   0.550   0.113   2.276  0.8290  1.0857 -0.0197
  279SOL     MW 1116   0.533   0.027   2.268  0.0018 -0.4484 -0.1920
  280SOL     OW 1117   1.479   1.046   2.145 -0.1264 -0.2894 -0.6853
  280SOL    HW1 1118   1.537   0.978   2.107  1.2702 -0.0752 -1.1560
  280SOL    HW2 1119   1.454   1.006   2.234 -1.7734 -1.7182 -0.5822
  280SOL     MW 1120   1.483   1.032   2.152 -0.1594 -0.4496 -0.7338
  281SOL     OW 1121   1.285   1.301   2.737  0.3704  0.4305  0.5044
  281SOL    HW1 1122   1.377   1.316   2.733 -1.7156 -0.6123  3.7085
  281SOL    HW2 1123   1.266   1.273   2.827 -2.6229  0.6362  0.5383
  281SOL     MW 1124   1.294   1.299   2.749 -0.2998  0.3200  0.9316
  282SOL     OW 1125   1.156   1.269   1.646  0.1016 -0.0680 -0.1151
  282SOL    HW1 1126   1.156   1.356   1.609  1.0108  2.5301 -1.8202
  282SOL    HW2 1127   1.096   1.272   1.720  0.7197 -2.5018 -0.8968
  282SOL     MW 1128   1.148   1.281   1.651  0.3031 -0.0463 -0.4432
  283SOL     OW 1129   0.708   1.281   3.001  0.5952 -0.5452 -0.7283
  283SOL    HW1 1130   0.780   1.259   3.059 -1.1765 -1.0715  1.0585
  283SOL    HW2 1131   0.690   1.382   3.005 -0.1644  1.7320 -2.1833
  283SOL     MW 1132   0.715   1.291   3.009  0.2612 -0.3142 -0.6845
  284SOL     OW 1133   0.516   0.639   2.401 -0.1459 -0.2772  0.4512
  284SOL    HW1 1134   0.576   0.702   2.359  2.1128 -1.2352  0.4525
  284SOL    HW2 1135   0.482   0.575   2.341 -1.0986  0.6108 -0.2180
  284SOL     MW 1136   0.519   0.639   2.388  0.0264 -0.2865  0.3631
  285SOL     OW 1137   0.850   0.915   2.814 -0.0017  0.2557 -0.0692
  285SOL    HW1 1138   0.890   0.961   2.735  4.2223 -0.6335 -0.4664
  285SOL    HW2 1139   0.831   0.825   2.787  0.1224 -1.2315  0.8725
  285SOL     MW 1140   0.853   0.909   2.800  0.5720 -0.0578  0.0027
  286SOL     OW 1141   1.170   1.503   2.576  0.2036 -0.2897  0.2624
  286SOL    HW1 1142   1.220   1.448   2.636  0.4684  3.1939  0.6478
  286SOL    HW2 1143   1.184   1.596   2.590 -0.6575  0.4357 -0.9698
  286SOL     MW 1144   1.179   1.508   2.586  0.1249  0.2656  0.1507
  287SOL     OW 1145   1.074   0.974   0.287  0.5570  0.5283  0.3358
  287SOL    HW1 1146   1.105   1.014   0.367 -3.6823  0.2181 -0.0136
  287SOL    HW2 1147   0.983   1.003   0.278  0.6554  1.0429  0.3397
  287SOL     MW 1148   1.066   0.984   0.297  0.0107  0.5553  0.2902
  288SOL     OW 1149   1.564   0.596   2.118 -0.4698 -0.6614  0.1660
  288SOL    HW1 1150   1.532   0.609   2.207  2.3550  1.8614  0.7250
  288SOL    HW2 1151   1.587   0.689   2.091  2.1587 -0.0103  1.0618
  288SOL     MW 1152   1.563   0.610   2.126  0.2497 -0.2426  0.3579
  289SOL     OW 1153   0.948   1.034   2.579  0.5893  0.1273  0.1878
  289SOL    HW1 1154   1.000   0.953   2.568 -0.3321  1.8180 -1.4176
  289SOL    HW2 1155   0.863   1.013   2.538 -0.4335  0.0938 -0.8754
  289SOL     MW 1156   0.944   1.021   2.572  0.3328  0.3459 -0.1643
  290SOL     OW 1157   0.893   0.588   1.566 -0.7287  0.8788 -0.1879
  290SOL    HW1 1158   0.935   0.564   1.483 -1.1546  1.4566 -2.0199
  290SOL    HW2 1159   0.962   0.585   1.636  0.5777  1.2813  0.2101
  290SOL     MW 1160   0.908   0.585   1.564 -0.6125  1.0081 -0.3771
  291SOL     OW 1161   0.193   0.316   0.150  0.2665 -0.0525 -0.0572
  291SOL    HW1 1162   0.273   0.269   0.175 -2.4130 -1.2490  2.1375
  291SOL    HW2 1163   0.162   0.249   0.075 -0.0779  0.0169  1.2759
  291SOL     MW 1164   0.200   0.301   0.144 -0.1325 -0.2012  0.4082
  292SOL     OW 1165   1.041   0.570   0.090 -0.3626  0.5293 -0.3647
  292SOL    HW1 1166   1.087   0.627   0.162 -1.7603  1.4274  0.3210
  292SOL    HW2 1167   1.064   0.480   0.131  1.2617  1.3573 -1.4938
  292SOL     MW 1168   1.050   0.566   0.105 -0.3327  0.7571 -0.4232
  293SOL     OW 1169   0.227   0.137   2.459 -0.7091 -0.0477  0.4198
  293SOL    HW1 1170   0.159   0.087   2.412 -1.0480 -0.7982  2.4058
  293SOL    HW2 1171   0.180   0.205   2.513 -3.3570 -0.2555  1.4723
  293SOL     MW 1172   0.212   0.140   2.460 -1.1032 -0.1741  0.8207
  294SOL     OW 1173   1.501   0.644   2.386  0.1610  0.1527  0.0294
  294SOL    HW1 1174   1.521   0.708   2.459  3.9093 -0.3674 -0.1342
  294SOL    HW2 1175   1.522   0.562   2.416 -2.0018  3.2705 -2.4959
  294SOL     MW 1176   1.506   0.642   2.399  0.3702  0.4955 -0.3253
  295SOL     OW 1177   0.904   0.664   2.507 -0.0534 -0.1231  0.1839
  295SOL    HW1 1178   0.870   0.582   2.462  3.2867  1.4890  3.4536
  295SOL    HW2 1179   0.846   0.667   2.587  0.1752  0.5535 -1.9637
  295SOL     MW 1180   0.892   0.654   2.512  0.4175  0.1789  0.3319
  296SOL     OW 1181   1.270   0.251   2.043  0.5625 -0.7815 -0.3316
  296SOL    HW1 1182   1.333   0.184   2.020 -0.7862  1.5191  0.0073
  296SOL    HW2 1183   1.255   0.256   2.137  1.6819  1.0124 -1.4071
  296SOL     MW 1184   1.276   0.243   2.052  0.5322 -0.2413 -0.4288
  297SOL     OW 1185   1.440   0.346   1.597 -0.9977  0.1890 -0.1900
  297SOL    HW1 1186   1.485   0.422   1.635 -2.5242 -2.1563  2.3497
  297SOL    HW2 1187   1.481   0.264   1.630  2.9378  0.1216 -3.2248
  297SOL     MW 1188   1.452   0.345   1.606 -0.6799 -0.1294 -0.2553
  298SOL     OW 1189   1.641   0.871   1.989 -0.4469 -0.0676  0.0237
  298SOL    HW1 1190   1.606   0.930   1.914 -1.3498  1.9544  0.9877
  298SOL    HW2 1191   1.734   0.858   1.978 -0.4732 -0.9794  1.2781
  298SOL     MW 1192   1.649   0.877   1.977 -0.5695  0.0789  0.3164
  299SOL     OW 1193   0.544   1.048   0.027 -0.3360 -0.0610  0.3773
  299SOL    HW1 1194   0.614   1.098  -0.005 -0.4094 -0.8739  1.6330
  299SOL    HW2 1195   0.472   1.040  -0.038 -0.6805  0.0805  0.5708
  299SOL     MW 1196   0.543   1.054   0.014 -0.3911 -0.1496  0.5685
  300SOL     OW 1197   1.230   1.139   2.504  0.8142 -0.4817 -0.4803
  300SOL    HW1 1198   1.151   1.089   2.504  2.7324  1.8132  2.1387
  300SOL    HW2 1199   1.240   1.162   2.601  0.0255 -2.5466 -1.0227
  300SOL     MW 1200   1.221   1.135   2.517  0.9633 -0.4514 -0.2063
  301SOL     OW 1201   1.389   0.942   0.680  0.6309  0.9399 -0.5136
  301SOL    HW1 1202   1.444   0.956   0.760 -0.5402  0.1518 -2.1051
  301SOL    HW2 1203   1.306   0.889   0.700  0.8307 -1.2891  0.1755
  301SOL     MW 1204   1.385   0.937   0.693  0.5028  0.5418 -0.6326
  302SOL     OW 1205   0.126   1.471   2.034  0.3390 -0.3285 -0.4958
  302SOL    HW1 1206   0.135   1.407   2.114  0.3665  0.5823 -1.6797
  302SOL    HW2 1207   0.061   1.544   2.062 -0.8477 -0.6676  1.6620
  302SOL     MW 1208   0.119   1.472   2.048  0.1860 -0.2531 -0.3673
  303SOL     OW 1209   0.394   1.701   2.643 -0.3138  0.3971  0.1494
  303SOL    HW1 1210   0.368   1.702   2.553  0.5818 -0.4261  1.4890
  303SOL    HW2 1211   0.309   1.735   2.671  0.0318 -4.3444 -0.9695
  303SOL     MW 1212   0.379   1.705   2.635 -0.1500 -0.3371  0.1785
  304SOL     OW 1213   0.620   2.036   2.349 -0.8718  0.0796  0.0106
  304SOL    HW1 1214   0.694   2.088   2.315  1.3828 -0.1457 -0.7366
  304SOL    HW2 1215   0.663   1.963   2.394 -1.0563 -1.5577 -0.9114
  304SOL     MW 1216   0.636   2.034   2.350 -0.5987 -0.1662 -0.2097
  305SOL     OW 1217   1.101   0.575   0.517 -0.0061 -0.0073 -0.0395
  305SOL    HW1 1218   1.021   0.536   0.489  0.0374  0.3204 -0.8667
  305SOL    HW2 1219   1.142   0.502   0.557 -0.3169  2.4483 -2.6809
  305SOL     MW 1220   1.096   0.560   0.518 -0.0414  0.3599 -0.4972
  306SOL     OW 1221   1.241   1.481   0.269 -0.0761  0.0903 -0.4139
  306SOL    HW1 1222   1.261   1.396   0.302 -1.3058  0.0863  1.9054
  306SOL    HW2 1223   1.304   1.491   0.195 -0.6424 -1.1306  4.6321
  306SOL     MW 1224   1.252   1.471   0.263 -0.3130 -0.0713  0.5579
  307SOL     OW 1225   1.398   0.501   1.942 -0.3021  0.0659 -0.2358
  307SOL    HW1 1226   1.360   0.428   1.995 -0.8601 -2.9961 -0.0207
  307SOL    HW2 1227   1.467   0.521   2.008  0.3493  0.7582  2.4295
  307SOL     MW 1228   1.402   0.494   1.958 -0.2898 -0.2468  0.1443
  308SOL     OW 1229   2.148   0.598   2.704 -0.0615  0.1137 -0.1851
  308SOL    HW1 1230   2.229   0.570   2.758  0.5351 -0.2481  0.7117
  308SOL    HW2 1231   2.138   0.688   2.724 -1.5857 -2.3054  2.9787
  308SOL     MW 1232   2.157   0.606   2.714 -0.1839 -0.2532  0.3506
  309SOL     OW 1233   0.402   0.364   0.397 -0.0043 -0.1391  0.0387
  309SOL    HW1 1234   0.483   0.360   0.447  0.4767  0.9886 -0.6385
  309SOL    HW2 1235   0.418   0.309   0.320  0.4852  2.3715 -2.0674
  309SOL     MW 1236   0.415   0.356   0.393  0.1238  0.3410 -0.3285
  310SOL     OW 1237   0.500   0.613   1.933  0.7320  0.5457  0.1233
  310SOL    HW1 1238   0.526   0.523   1.903 -0.4637  0.3565 -0.0265
  310SOL    HW2 1239   0.576   0.674   1.907 -0.1110 -0.1576  1.1564
  310SOL     MW 1240   0.514   0.609   1.926  0.4630  0.4280  0.2398
  311SOL     OW 1241   1.938   0.706   1.955  0.2495 -0.0449 -0.1282
  311SOL    HW1 1242   1.908   0.706   2.045  0.6699 -2.2783 -2.4705
  311SOL    HW2 1243   1.984   0.614   1.943  1.1815 -0.8775 -0.3031
  311SOL     MW 1244   1.940   0.693   1.965  0.4279 -0.4494 -0.4603
  312SOL     OW 1245   1.675   2.491   0.094  0.0368 -0.2140  0.0568
  312SOL    HW1 1246   1.733   2.523   0.166  1.4067  0.0513 -2.7387
  312SOL    HW2 1247   1.600   2.546   0.095 -0.8489  0.2721 -3.7650
  312SOL     MW 1248   1.673   2.503   0.104  0.1007 -0.1148 -0.8163
  313SOL     OW 1249   0.111   1.225   2.951 -0.1283  0.0661 -0.3562
  313SOL    HW1 1250   0.115   1.178   3.033  0.6620 -0.8445 -1.4189
  313SOL    HW2 1251   0.196   1.277   2.940  2.6996  1.7309 -1.1667
  313SOL     MW 1252   0.123   1.226   2.961  0.3491  0.1656 -0.6034
  314SOL     OW 1253   2.116   2.986   3.002  0.1719  0.0233  0.1694
  314SOL    HW1 1254   2.060   3.028   2.936  2.2135  2.0586 -0.3870
  314SOL    HW2 1255   2.164   3.063   3.035 -1.2013  2.0133  1.0093
  314SOL     MW 1256   2.115   3.002   2.998  0.2601  0.5544  0.2068
  315SOL     OW 1257   1.514   1.906   0.021  0.5135  0.0318 -0.8332
  315SOL    HW1 1258   1.439   1.963   0.051 -0.5230  0.9890  0.2773
  315SOL    HW2 1259   1.554   1.959  -0.048 -0.1122 -0.0375  0.0985
  315SOL     MW 1260   1.509   1.920   0.016  0.2942  0.1490 -0.5638
  316SOL     OW 1261   1.296   0.671   2.714 -0.7701  0.0086  0.1502
  316SOL    HW1 1262   1.382   0.710   2.691  0.7877 -1.0784  1.2518
  316SOL    HW2 1263   1.284   0.686   2.812  2.3156  2.1723  0.3084
  316SOL     MW 1264   1.306   0.678   2.724 -0.1575  0.1506  0.3164
  317SOL     OW 1265   0.725   1.517   2.562 -0.0442  0.0038  0.0339
  317SOL    HW1 1266   0.776   1.437   2.553  0.0215  0.4913  0.7797
  317SOL    HW2 1267   0.729   1.561   2.476  0.7267 -0.0298 -0.3764
  317SOL     MW 1268   0.732   1.512   2.549  0.0662  0.0637  0.0781
  318SOL     OW 1269   1.340   0.392   2.928  0.3903 -0.1954 -0.0397
  318SOL    HW1 1270   1.256   0.431   2.931 -1.7575  0.0774 -0.3275
  318SOL    HW2 1271   1.407   0.461   2.936  1.2872  0.0424 -1.1871
  318SOL     MW 1272   1.338   0.407   2.930  0.2253 -0.1280 -0.2291
  319SOL     OW 1273   0.769   0.388   2.855  0.2332  0.1452 -0.5417
  319SOL    HW1 1274   0.703   0.348   2.793  1.3395 -1.0322 -1.9627
  319SOL    HW2 1275   0.730   0.394   2.946 -0.4867 -0.4302 -0.3881
  319SOL     MW 1276   0.755   0.384   2.859  0.2842 -0.0861 -0.7089
  320SOL     OW 1277   1.054   1.324   1.922 -0.1895 -0.3957  0.0274
  320SOL    HW1 1278   1.116   1.288   1.990 -0.7050 -2.2374  1.4946
  320SOL    HW2 1279   1.100   1.409   1.906  1.3515  0.9309  0.4134
  320SOL     MW 1280   1.068   1.331   1.929 -0.0542 -0.4637  0.2719
  321SOL     OW 1281   1.036   0.961   3.018 -0.1875 -0.7674 -0.7225
  321SOL    HW1 1282   0.960   0.937   2.961 -1.2400 -2.9015  1.1609
  321SOL    HW2 1283   1.067   0.871   3.029 -0.4992 -0.5964  1.3434
  321SOL     MW 1284   1.030   0.946   3.012 -0.3675 -1.0264 -0.2015
  322SOL     OW 1285   1.258   0.814   1.700  0.3443  0.3333 -0.1118
  322SOL    HW1 1286   1.341   0.770   1.725  1.7143  0.1368  1.9740
  322SOL    HW2 1287   1.237   0.845   1.789 -0.4265 -0.7140  1.1017
  322SOL     MW 1288   1.266   0.813   1.715  0.4233  0.1692  0.3235
  323SOL     OW 1289   1.222   1.559   1.879  0.5837  0.6465 -0.4024
  323SOL    HW1 1290   1.223   1.530   1.792 -0.3343  2.2598 -0.4456
  323SOL    HW2 1291   1.169   1.641   1.884 -1.2776 -1.0623  0.0173
  323SOL     MW 1292   1.215   1.566   1.868  0.2170  0.6339 -0.3527
  324SOL     OW 1293   1.452   1.012   2.432 -0.6675  0.3327  0.0359
  324SOL    HW1 1294   1.368   1.063   2.462  1.1966 -3.1457 -0.0234
  324SOL    HW2 1295   1.522   1.070   2.468 -0.6154 -2.5163  1.4007
  324SOL     MW 1296   1.451   1.027   2.441 -0.4147 -0.5021  0.2082
  325SOL     OW 1297   1.084   0.486   2.931 -0.4178 -0.3748  0.6709
  325SOL    HW1 1298   1.057   0.532   3.011  0.3813 -1.0246  2.0718
  325SOL    HW2 1299   1.002   0.493   2.872 -0.3425 -0.1177 -0.7994
  325SOL     MW 1300   1.069   0.493   2.934 -0.3024 -0.4266  0.6618
  326SOL     OW 1301   0.462   1.341   2.164 -0.8807  0.7698 -0.1610
  326SOL    HW1 1302   0.546   1.318   2.121  1.4494 -0.2598  1.3611
  326SOL    HW2 1303   0.458   1.434   2.159  1.4729 -1.2704 -0.4617
  326SOL     MW 1304   0.472   1.350   2.158 -0.2627  0.3648  0.0002
  327SOL     OW 1305   1.917   0.837   2.458  0.2103 -0.3376 -0.1520
  327SOL    HW1 1306   1.902   0.765   2.521  0.7179 -1.9820  1.6346
  327SOL    HW2 1307   2.016   0.836   2.438  0.6087  1.0183  0.0486
  327SOL     MW 1308   1.928   0.828   2.463  0.3298 -0.3757  0.1102
  328SOL     OW 1309   0.201   1.287   2.189 -0.1277 -0.0747  0.1308
  328SOL    HW1 1310   0.171   1.243   2.112 -1.1835  0.0760 -1.0149
  328SOL    HW2 1311   0.298   1.305   2.176  1.6049  0.4132  0.4136
  328SOL     MW 1312   0.210   1.283   2.177 -0.0384  0.0095  0.0169
  329SOL     OW 1313   0.112   0.062   1.351 -0.4003  0.2396 -0.1322
  329SOL    HW1 1314   0.088   0.130   1.409 -0.9492  1.7345 -2.0748
  329SOL    HW2 1315   0.213   0.067   1.339  3.0930  2.4240 -2.1499
  329SOL     MW 1316   0.122   0.072   1.357 -0.0118  0.7251 -0.6547
  330SOL     OW 1317   0.313   3.101   2.083  0.6854  0.1182 -0.1135
  330SOL    HW1 1318   0.394   3.120   2.132 -2.5238  2.8999  3.5664
  330SOL    HW2 1319   0.263   3.055   2.140  0.3768 -0.4245  0.1655
  330SOL     MW 1320   0.317   3.098   2.097  0.2212  0.4136  0.4088
  331SOL     OW 1321   0.834   1.209   2.278  0.2660  0.1801  0.2550
  331SOL    HW1 1322   0.791   1.245   2.203  0.7169 -1.5832 -0.3981
  331SOL    HW2 1323   0.835   1.278   2.346 -2.0883 -0.9348 -0.2062
  331SOL     MW 1324   0.829   1.223   2.277  0.0149 -0.1996  0.1080
  332SOL     OW 1325   1.371   1.713   3.036 -0.2269  0.1246  0.7627
  332SOL    HW1 1326   1.365   1.715   2.932 -0.4227  1.3787 -0.9670
  332SOL    HW2 1327   1.408   1.797   3.061  1.6135  1.5779  2.1707
  332SOL     MW 1328   1.375   1.724   3.025 -0.0099  0.4818  0.7203
  333SOL     OW 1329   1.772   1.432   2.945 -0.4620 -0.0268 -0.5846
  333SOL    HW1 1330   1.866   1.451   2.979 -1.7920 -0.5821  3.1605
  333SOL    HW2 1331   1.732   1.397   3.021  0.7476 -3.4429 -2.4230
  333SOL     MW 1332   1.779   1.430   2.960 -0.4779 -0.5508 -0.3331
  334SOL     OW 1333   1.409   3.093   2.582 -0.0774  0.1855  0.4620
  334SOL    HW1 1334   1.313   3.088   2.590 -0.3937  0.3821  2.4967
  334SOL    HW2 1335   1.432   3.182   2.603 -0.0684 -0.3435  1.1319
  334SOL     MW 1336   1.400   3.104   2.586 -0.1179  0.1417  0.8188
  335SOL     OW 1337   1.265   0.759   2.997  0.1373 -0.3257 -0.7065
  335SOL    HW1 1338   1.320   0.726   3.068  1.4127  4.0159  1.3371
  335SOL    HW2 1339   1.314   0.830   2.964 -0.5811  0.2880 -0.1283
  335SOL     MW 1340   1.279   0.764   3.002  0.2108  0.3281 -0.3606
  336SOL     OW 1341   0.959   1.069   1.926 -0.1945 -0.0936  0.1232
  336SOL    HW1 1342   0.979   1.163   1.937  0.4690  0.4916  3.1590
  336SOL    HW2 1343   1.047   1.035   1.911  1.5312  1.5538 -0.0654
  336SOL     MW 1344   0.973   1.077   1.926  0.1208  0.2009  0.4989
  337SOL     OW 1345   0.603   1.781   2.792 -0.5603  0.0571 -0.0499
  337SOL    HW1 1346   0.530   1.758   2.732 -0.5002  2.4308 -2.4666
  337SOL    HW2 1347   0.686   1.756   2.741 -1.4670 -0.8661 -3.4673
  337SOL     MW 1348   0.604   1.775   2.777 -0.6720  0.2484 -0.8196
  338SOL     OW 1349   1.130   0.797   2.518 -0.5468 -0.5541  0.1751
  338SOL    HW1 1350   1.042   0.752   2.512  0.1887 -1.1433  2.1969
  338SOL    HW2 1351   1.175   0.763   2.602  1.3133 -0.4618  0.6096
  338SOL     MW 1352   1.125   0.786   2.528 -0.2043 -0.6197  0.4992
  339SOL     OW 1353   1.543   1.048   1.802 -0.3796 -0.3912 -0.3636
  339SOL    HW1 1354   1.472   1.047   1.731 -0.9562 -2.0990 -2.5574
  339SOL    HW2 1355   1.527   1.128   1.856 -1.9544 -1.2333 -0.7328
  339SOL     MW 1356   1.531   1.058   1.800 -0.6635 -0.7276 -0.7017
  340SOL     OW 1357   1.392   1.461   0.044 -0.5105  0.4082 -0.3378
  340SOL    HW1 1358   1.392   1.544  -0.004 -1.7972 -1.6646 -2.6117
  340SOL    HW2 1359   1.485   1.432   0.051 -1.4031 -1.6666 -1.3368
  340SOL     MW 1360   1.404   1.468   0.039 -0.7980 -0.1390 -0.7696
  341SOL     OW 1361   0.145   1.405   2.695  0.5051  0.2901  0.0621
  341SOL    HW1 1362   0.225   1.353   2.685  1.7293  0.7220  1.1155
  341SOL    HW2 1363   0.070   1.356   2.655  2.0446  1.2801  1.0211
  341SOL     MW 1364   0.146   1.392   2.689  0.8697  0.4777  0.3276
  342SOL     OW 1365   1.360   0.293   0.088 -0.4576 -0.0315  0.2255
  342SOL    HW1 1366   1.408   0.371   0.120 -0.2943 -0.9269 -1.9666
  342SOL    HW2 1367   1.362   0.296  -0.008 -0.5451 -0.2113  0.1081
  342SOL     MW 1368   1.367   0.304   0.080 -0.4476 -0.1734 -0.0792
  343SOL     OW 1369   0.234   0.313   2.192  0.0677  0.2187 -0.8792
  343SOL    HW1 1370   0.277   0.244   2.240 -0.2316  3.0428  0.3330
  343SOL    HW2 1371   0.171   0.263   2.142 -0.0244 -0.6175 -0.1768
  343SOL     MW 1372   0.231   0.297   2.192  0.0160  0.4810 -0.6266
  344SOL     OW 1373   1.697   2.074   0.171  0.0135  0.3536 -0.0856
  344SOL    HW1 1374   1.698   2.153   0.115 -1.4132 -1.0574  0.2128
  344SOL    HW2 1375   1.639   2.018   0.125 -1.4795  1.3084 -0.7342
  344SOL     MW 1376   1.690   2.077   0.158 -0.3717  0.2934 -0.1318
  345SOL     OW 1377   0.733   1.642   2.311  0.2955 -0.2395  0.4126
  345SOL    HW1 1378   0.640   1.645   2.283 -1.9551 -3.1272  1.0412
  345SOL    HW2 1379   0.787   1.580   2.262  2.4259 -1.1588 -1.1119
  345SOL     MW 1380   0.728   1.634   2.301  0.2796 -0.7418  0.2944
  346SOL     OW 1381   1.733   1.131   0.007  0.2644 -0.2852 -0.3644
  346SOL    HW1 1382   1.824   1.161   0.013 -0.3963 -0.7239 -2.7203
  346SOL    HW2 1383   1.718   1.065   0.075 -1.7827 -0.1463  0.4310
  346SOL     MW 1384   1.743   1.127   0.017 -0.0929 -0.3248 -0.5703
  347SOL     OW 1385   1.295   0.772   2.286  0.3408  0.0203 -0.1671
  347SOL    HW1 1386   1.379   0.727   2.310 -1.1824 -0.8428 -1.7966
  347SOL    HW2 1387   1.247   0.779   2.365  0.8482 -2.7771 -1.6664
  347SOL     MW 1388   1.299   0.767   2.300  0.2068 -0.4627 -0.5799
  348SOL     OW 1389   1.392   2.610   1.861  0.8666 -0.0445  0.0690
  348SOL    HW1 1390   1.418   2.525   1.909  0.8936 -1.0423 -2.6825
  348SOL    HW2 1391   1.411   2.685   1.923 -0.9396  1.8152  1.1646
  348SOL     MW 1392   1.398   2.609   1.876  0.6318  0.0692 -0.1495
  349SOL     OW 1393   1.445   0.254   2.701  1.1680 -0.1457 -0.3041
  349SOL    HW1 1394   1.393   0.302   2.765  1.5970 -0.7433 -2.3278
  349SOL    HW2 1395   1.537   0.256   2.733  0.8164 -0.2789 -0.7391
  349SOL     MW 1396   1.450   0.260   2.714  1.1782 -0.2421 -0.6285
  350SOL     OW 1397   1.869   0.645   2.638 -0.8277  0.0243  0.7074
  350SOL    HW1 1398   1.843   0.569   2.586 -0.3046  0.7874  0.9888
  350SOL    HW2 1399   1.942   0.603   2.684  1.6982 -1.5248  1.9125
  350SOL     MW 1400   1.875   0.629   2.637 -0.4254 -0.0794  0.9035
  351SOL     OW 1401   0.063   0.957   1.536  0.2215  0.1023 -0.7629
  351SOL    HW1 1402  -0.000   0.970   1.607 -1.5131  1.9099 -1.1808
  351SOL    HW2 1403   0.134   1.014   1.552 -2.3080 -0.2470  0.4229
  351SOL     MW 1404   0.064   0.967   1.548 -0.3411  0.2947 -0.6616
  352SOL     OW 1405   0.870   1.675   2.718  0.4256  0.3207  0.5368
  352SOL    HW1 1406   0.891   1.643   2.802  1.9992 -1.0585  0.7793
  352SOL    HW2 1407   0.818   1.610   2.667  1.1293 -0.7975 -0.0727
  352SOL     MW 1408   0.866   1.662   2.722  0.7261 -0.0088  0.4884
  353SOL     OW 1409   3.093   2.443   2.724  0.3345  0.1046 -0.1798
  353SOL    HW1 1410   3.186   2.432   2.733  1.5359 -1.7468 -2.2827
  353SOL    HW2 1411   3.103   2.464   2.628 -1.8302 -0.1836 -0.1800
  353SOL     MW 1412   3.107   2.444   2.712  0.2074 -0.1777 -0.4573
  354SOL     OW 1413   0.352   2.506   0.837 -0.2396  0.4284 -0.0886
  354SOL    HW1 1414   0.377   2.490   0.931 -2.0006 -0.4999  0.2948
  354SOL    HW2 1415   0.278   2.443   0.825 -1.7980 -0.3154 -1.2056
  354SOL     MW 1416   0.345   2.496   0.848 -0.6776  0.2078 -0.1854
  355SOL     OW 1417   0.023   2.253   0.391 -0.3272  0.2933  0.5141
  355SOL    HW1 1418  -0.035   2.177   0.389  0.4488  1.2784  0.1074
  355SOL    HW2 1419  -0.008   2.296   0.468  1.1512  0.6138  1.2026
  355SOL     MW 1420   0.011   2.248   0.401 -0.0297  0.4656  0.5513
  356SOL     OW 1421   0.823   2.868   1.039 -0.5582 -0.2770 -0.0319
  356SOL    HW1 1422   0.833   2.859   0.943  0.7272 -0.4211 -0.8181
  356SOL    HW2 1423   0.731   2.859   1.044 -0.8879  0.5554 -0.7853
  356SOL     MW 1424   0.812   2.865   1.027 -0.4321 -0.1862 -0.2350
  357SOL     OW 1425   1.804   2.939   0.421  0.3904 -0.1596 -0.0803
  357SOL    HW1 1426   1.753   2.860   0.450  1.9349  1.6834  1.0877
  357SOL    HW2 1427   1.887   2.913   0.386 -4.9926 -0.6232  2.3670
  357SOL     MW 1428   1.808   2.925   0.420 -0.1160  0.0224  0.3967
  358SOL     OW 1429   0.473   0.066   1.075 -0.1139  0.0081  0.2098
  358SOL    HW1 1430   0.565   0.038   1.061  0.2145  0.3943  1.6921
  358SOL    HW2 1431   0.429   0.104   0.997 -0.9139 -1.6242 -0.9918
  358SOL     MW 1432   0.479   0.067   1.063 -0.1761 -0.1563  0.2469
  359SOL     OW 1433   0.881   2.860   1.830 -0.0645  0.6373  0.1887
  359SOL    HW1 1434   0.859   2.770   1.864 -1.9883  0.7469 -1.0979
  359SOL    HW2 1435   0.923   2.836   1.739  0.2407  2.0462 -2.3822
  359SOL     MW 1436   0.884   2.845   1.822 -0.2781  0.8376 -0.3203
  360SOL     OW 1437   0.570   2.802   1.012 -0.8752 -0.1882 -0.3449
  360SOL    HW1 1438   0.585   2.758   0.925 -0.0323  0.2562  0.9125
  360SOL    HW2 1439   0.572   2.734   1.079  1.7305 -0.1088 -2.0974
  360SOL     MW 1440   0.572   2.788   1.009 -0.4202 -0.1191 -0.4102
  361SOL     OW 1441   0.198   2.710   1.338 -0.1337 -0.1898 -0.0584
  361SOL    HW1 1442   0.170   2.780   1.400  1.1020 -0.2772 -2.4826
  361SOL    HW2 1443   0.289   2.683   1.369  1.8138 -1.7135 -1.3589
  361SOL     MW 1444   0.207   2.716   1.351  0.2863 -0.4024 -0.5498
  362SOL     OW 1445   1.474   2.439   0.659 -0.1485 -0.2423  0.0259
  362SOL    HW1 1446   1.483   2.371   0.727  2.1417 -2.8342  1.0810
  362SOL    HW2 1447   1.484   2.517   0.717  2.0085 -2.2580  1.2527
  362SOL     MW 1448   1.476   2.441   0.676  0.4382 -0.8502  0.3270
  363SOL     OW 1449   0.294   3.065   0.734 -0.1027  0.7026  0.4025
  363SOL    HW1 1450   0.296   2.991   0.805 -2.2735 -0.4317 -2.0924
  363SOL    HW2 1451   0.204   3.081   0.707 -0.1887 -1.1993  0.7048
  363SOL     MW 1452   0.282   3.057   0.740 -0.4005  0.3020  0.1132
  364SOL     OW 1453   0.705   0.190   0.234  0.4148 -0.0784 -0.1394
  364SOL    HW1 1454   0.647   0.127   0.273  0.8508 -2.9696  0.6963
  364SOL    HW2 1455   0.649   0.243   0.181 -1.7802 -3.1423  0.4739
  364SOL     MW 1456   0.690   0.189   0.232  0.1827 -0.8641  0.0517
  365SOL     OW 1457   0.973   1.931   1.099 -0.6735  0.0794  0.2122
  365SOL    HW1 1458   0.975   2.021   1.053 -0.8950 -0.0738 -2.2479
  365SOL    HW2 1459   0.896   1.873   1.073 -1.8204 -2.3684 -1.4797
  365SOL     MW 1460   0.963   1.935   1.090 -0.8540 -0.2638 -0.3356
  366SOL     OW 1461   2.842   2.617   1.048 -0.2311  0.2220 -0.8549
  366SOL    HW1 1462   2.915   2.654   1.089  0.6616 -0.5701 -3.0188
  366SOL    HW2 1463   2.868   2.643   0.955  0.0804  0.4125 -0.9035
  366SOL     MW 1464   2.855   2.626   1.041 -0.0722  0.1426 -1.1468
  367SOL     OW 1465   1.252   2.865   0.911  0.2279  0.2229  0.3933
  367SOL    HW1 1466   1.160   2.887   0.927 -1.8420  1.1318  3.3838
  367SOL    HW2 1467   1.253   2.825   0.821  1.0471  3.4366 -2.2744
  367SOL     MW 1468   1.240   2.863   0.901  0.0629  0.7668  0.4359
  368SOL     OW 1469   1.661   0.418   0.681 -0.0651 -0.7420  0.4497
  368SOL    HW1 1470   1.743   0.370   0.680  1.6227  1.0806  1.2646
  368SOL    HW2 1471   1.701   0.509   0.694 -0.2163 -0.3202  0.3192
  368SOL     MW 1472   1.677   0.424   0.682  0.1376 -0.4459  0.5400
  369SOL     OW 1473   0.180   2.491   1.654  0.0098  0.0822 -0.0093
  369SOL    HW1 1474   0.260   2.462   1.698  1.6358  0.3850  0.0092
  369SOL    HW2 1475   0.145   2.565   1.705  3.9632  1.1423 -1.4203
  369SOL     MW 1476   0.186   2.497   1.666  0.7459  0.2620 -0.1930
  370SOL     OW 1477   0.727   0.045   0.986 -0.3903 -0.2173 -0.2070
  370SOL    HW1 1478   0.782   0.120   1.014  1.0362 -1.8916 -1.5448
  370SOL    HW2 1479   0.777  -0.034   0.997  1.5995 -1.0112 -5.7604
  370SOL     MW 1480   0.741   0.045   0.991  0.0604 -0.5430 -1.1163
  371SOL     OW 1481   1.339   2.969   1.523  0.3200  0.2232  0.2761
  371SOL    HW1 1482   1.306   2.888   1.475 -0.5834 -0.0402  0.5589
  371SOL    HW2 1483   1.342   3.046   1.460 -0.1405  1.3870 -0.7326
  371SOL     MW 1484   1.335   2.968   1.508  0.1400  0.3420  0.1803
  372SOL     OW 1485   0.744   2.341   0.465 -0.4053  0.0774  0.7024
  372SOL    HW1 1486   0.713   2.248   0.485 -0.7601  0.0062 -1.9109
  372SOL    HW2 1487   0.783   2.357   0.376 -2.9133  1.0575 -2.0574
  372SOL     MW 1488   0.745   2.331   0.456 -0.7830  0.1973 -0.0065
  373SOL     OW 1489   2.785   3.034   1.421 -0.2282  0.3200  0.3530
  373SOL    HW1 1490   2.850   2.997   1.362 -0.4392  0.1576  2.7973
  373SOL    HW2 1491   2.787   3.125   1.402 -0.4357 -0.8880 -0.7128
  373SOL     MW 1492   2.794   3.041   1.411 -0.2834  0.1392  0.5349
  374SOL     OW 1493   1.535   0.468   0.194 -0.0617 -0.3042 -0.6914
  374SOL    HW1 1494   1.592   0.399   0.168 -1.6948  1.0239  3.5683
  374SOL    HW2 1495   1.531   0.459   0.290  2.7758 -1.7201 -0.7828
  374SOL     MW 1496   1.542   0.458   0.203  0.0972 -0.3157 -0.1415
  375SOL     OW 1497   1.119   2.075   2.290 -0.2346 -0.4750 -0.4476
  375SOL    HW1 1498   1.154   2.077   2.379  0.4833 -1.6100  1.3593
  375SOL    HW2 1499   1.134   1.984   2.261  1.9653 -1.1620 -1.4845
  375SOL     MW 1500   1.126   2.063   2.298  0.1504 -0.7154 -0.3460
  376SOL     OW 1501   0.664   2.528   0.060 -0.6454  0.5378 -0.0152
  376SOL    HW1 1502   0.646   2.470   0.137 -0.3033 -1.9392  3.1946
  376SOL    HW2 1503   0.646   2.475  -0.020 -0.5763  1.0433 -1.8860
  376SOL     MW 1504   0.660   2.513   0.060 -0.5911  0.2777  0.1615
  377SOL     OW 1505   1.352   1.993   0.848 -0.1710  0.0824  0.1440
  377SOL    HW1 1506   1.267   1.993   0.803 -3.2275 -0.6158  3.8355
  377SOL    HW2 1507   1.337   1.939   0.926  2.0675 -1.5614 -2.2322
  377SOL     MW 1508   1.339   1.986   0.852 -0.2789 -0.2266  0.3175
  378SOL     OW 1509   1.040   2.808   1.600  0.2987 -0.0532  0.5469
  378SOL    HW1 1510   1.001   2.722   1.579 -1.8350  1.2006 -2.2296
  378SOL    HW2 1511   1.001   2.851   1.523  0.7261  0.8291  0.2639
  378SOL     MW 1512   1.030   2.802   1.587  0.0736  0.2287  0.1432
  379SOL     OW 1513   1.124   1.773   2.293  0.1971  0.1692 -0.5789
  379SOL    HW1 1514   1.030   1.768   2.286  0.7154  0.8070  1.2566
  379SOL    HW2 1515   1.157   1.721   2.219 -1.7044 -0.5923  0.4989
  379SOL     MW 1516   1.116   1.765   2.283  0.0146  0.1529 -0.1945
  380SOL     OW 1517   0.813   0.068   1.567 -0.1590  0.1743 -0.0014
  380SOL    HW1 1518   0.848   0.060   1.483 -0.8190 -1.8432 -1.0253
  380SOL    HW2 1519   0.887   0.110   1.614  0.4704 -0.3847 -0.5930
  380SOL     MW 1520   0.827   0.073   1.562 -0.1630 -0.1657 -0.2146
  381SOL     OW 1521   0.798   1.999   0.780  0.0720 -0.3444  0.1048
  381SOL    HW1 1522   0.880   2.010   0.732  2.8715 -1.5872  1.5246
  381SOL    HW2 1523   0.804   2.069   0.848 -0.8693 -0.3373  0.7380
  381SOL     MW 1524   0.810   2.010   0.783  0.3172 -0.5075  0.3757
  382SOL     OW 1525   0.646   0.099   0.700 -0.6133  0.1330 -0.0890
  382SOL    HW1 1526   0.646   0.107   0.792  0.3471 -1.0686 -3.5012
  382SOL    HW2 1527   0.634   0.002   0.678 -0.1033 -0.3471 -1.1274
  382SOL     MW 1528   0.644   0.087   0.710 -0.4193 -0.0889 -0.6762
  383SOL     OW 1529   0.546   3.089   0.358  0.7700 -0.2368 -0.4555
  383SOL    HW1 1530   0.549   3.032   0.281 -0.0673 -2.9157 -0.8124
  383SOL    HW2 1531   0.495   3.035   0.418 -0.3881  1.5009 -2.0403
  383SOL     MW 1532   0.540   3.074   0.356  0.5067 -0.3609 -0.7117
  384SOL     OW 1533   0.637   2.939   0.628  0.3810  0.2688 -0.3846
  384SOL    HW1 1534   0.715   2.907   0.664 -2.5115  1.8008  1.0645
  384SOL    HW2 1535   0.573   2.866   0.630  1.2448  1.7116  1.3846
  384SOL     MW 1536   0.639   2.925   0.633  0.1133  0.6613  0.0400
  385SOL     OW 1537   1.323   2.066   1.487 -0.6187 -0.0029  0.0365
  385SOL    HW1 1538   1.394   2.097   1.542 -1.1254 -2.4330  1.9072
  385SOL    HW2 1539   1.286   1.986   1.527  1.7975  0.4399 -0.5408
  385SOL     MW 1540   1.328   2.060   1.500 -0.3667 -0.2651  0.2071
  386SOL     OW 1541   1.317   0.360   0.832 -0.4321 -0.9183 -0.2429
  386SOL    HW1 1542   1.250   0.337   0.765  4.0184 -0.0788 -1.0195
  386SOL    HW2 1543   1.268   0.420   0.889 -3.1392 -3.1056  0.6913
  386SOL     MW 1544   1.302   0.365   0.831 -0.2021 -1.0961 -0.2221
  387SOL     OW 1545   0.870   2.163   1.473  0.2325 -0.4218  0.3850
  387SOL    HW1 1546   0.912   2.214   1.403  2.2089 -1.0697 -0.1933
  387SOL    HW2 1547   0.846   2.077   1.429 -1.0957 -0.0116 -0.4473
  387SOL     MW 1548   0.872   2.159   1.458  0.3180 -0.4532  0.1989
  388SOL     OW 1549   1.532   2.771   1.200  0.4649  0.7761  0.0065
  388SOL    HW1 1550   1.449   2.724   1.181 -0.4985 -0.2884  1.8020
  388SOL    HW2 1551   1.596   2.711   1.160 -2.2897  0.0437 -0.3508
  388SOL     MW 1552   1.529   2.757   1.192 -0.0257  0.5390  0.1962
  389SOL     OW 1553   0.396   0.006   3.037  0.1273  0.2630  0.1209
  389SOL    HW1 1554   0.461  -0.057   3.006  1.9966  3.1623  1.4360
  389SOL    HW2 1555   0.379   0.071   2.962  0.4053  0.5235 -2.1524
  389SOL     MW 1556   0.403   0.006   3.023  0.4106  0.6799 -0.0056
  390SOL     OW 1557   1.297   0.099   0.650 -0.0901 -0.0184 -0.2163
  390SOL    HW1 1558   1.384   0.119   0.604 -0.0385 -0.3894  2.6522
  390SOL    HW2 1559   1.327   0.081   0.740 -1.2108 -0.2427  0.9872
  390SOL     MW 1560   1.312   0.099   0.656 -0.2312 -0.0970  0.3210
  391SOL     OW 1561   0.282   2.220   1.375  0.5138  0.1069 -0.5324
  391SOL    HW1 1562   0.222   2.145   1.396 -1.5469 -2.7993  0.8140
  391SOL    HW2 1563   0.215   2.297   1.372 -0.0749  0.8459  1.1803
  391SOL     MW 1564   0.265   2.220   1.378  0.1642 -0.1791 -0.1288
  392SOL     OW 1565   2.070   2.143   0.383 -0.6121  0.6538  0.0278
  392SOL    HW1 1566   2.105   2.076   0.440  0.9918 -0.0704 -0.3957
  392SOL    HW2 1567   2.013   2.214   0.426 -1.4306  1.5062 -0.7495
  392SOL     MW 1568   2.067   2.144   0.396 -0.5085  0.6707 -0.1306
  393SOL     OW 1569   0.180   3.014   2.716 -0.3802 -0.0882  0.4893
  393SOL    HW1 1570   0.246   3.030   2.776  0.0326  0.8690 -1.5669
  393SOL    HW2 1571   0.118   3.083   2.713  0.2293  0.9524  1.2409
  393SOL     MW 1572   0.181   3.025   2.723 -0.2453  0.1754  0.3171
  394SOL     OW 1573   0.903   1.743   1.516  0.1684  0.0286  0.5627
  394SOL    HW1 1574   0.851   1.775   1.590 -2.1280  1.8936  1.5437
  394SOL    HW2 1575   0.890   1.818   1.452 -2.4364  0.5312  0.1221
  394SOL     MW 1576   0.895   1.757   1.517 -0.4783  0.3410  0.6340
  395SOL     OW 1577   1.018   2.797   2.624  0.4284  0.1213 -0.6677
  395SOL    HW1 1578   1.062   2.880   2.649 -0.3738 -1.4229 -0.2739
  395SOL    HW2 1579   1.091   2.736   2.603 -1.2265 -0.1943  3.2369
  395SOL     MW 1580   1.034   2.800   2.624  0.1042 -0.1241 -0.1006
  396SOL     OW 1581   0.830   1.884   2.386 -0.6500  0.2242  0.1107
  396SOL    HW1 1582   0.877   1.891   2.472  0.2731 -1.4627  0.4786
  396SOL    HW2 1583   0.804   1.790   2.371  2.3184  0.8755  2.6929
  396SOL     MW 1584   0.833   1.872   2.395 -0.1365  0.0876  0.4999
  397SOL     OW 1585   1.047   2.343   1.273 -0.0518 -0.0426 -0.4160
  397SOL    HW1 1586   1.094   2.359   1.187 -0.3596 -0.5114 -3.1844
  397SOL    HW2 1587   1.113   2.356   1.344 -0.5065 -1.0047  0.7802
  397SOL     MW 1588   1.062   2.347   1.271 -0.1524 -0.2314 -0.6234
  398SOL     OW 1589   0.571   2.677   0.764 -0.7250  0.1904  0.0104
  398SOL    HW1 1590   0.497   2.625   0.790  3.0004  1.5560  1.0820
  398SOL    HW2 1591   0.640   2.620   0.724  0.4945 -0.5219 -1.2414
  398SOL     MW 1592   0.570   2.662   0.762 -0.0726  0.2766 -0.0134
  399SOL     OW 1593   0.256   2.101   0.418 -0.5107  0.0917 -0.9753
  399SOL    HW1 1594   0.177   2.152   0.390 -0.4571 -0.0203  1.8131
  399SOL    HW2 1595   0.330   2.122   0.356  1.3221  2.6315 -1.3878
  399SOL     MW 1596   0.256   2.111   0.406 -0.2618  0.4120 -0.6618
  400SOL     OW 1597   0.548   1.851   0.174 -0.6587  0.7014 -0.2060
  400SOL    HW1 1598   0.536   1.938   0.209  3.1655 -2.0211  1.2854
  400SOL    HW2 1599   0.546   1.802   0.249  0.8207  1.2547 -1.5584
  400SOL     MW 1600   0.546   1.856   0.188  0.0411  0.4152 -0.1877
  401SOL     OW 1601   0.888   2.058   0.138 -0.4257 -0.1439  0.0531
  401SOL    HW1 1602   0.895   1.962   0.140 -0.9975  0.3765  1.4121
  401SOL    HW2 1603   0.947   2.086   0.205 -5.3587 -0.9534 -0.9398
  401SOL     MW 1604   0.896   2.049   0.147 -1.1520 -0.1821  0.1014
  402SOL     OW 1605   0.661   2.956   1.690 -0.3778 -0.1675  0.0921
  402SOL    HW1 1606   0.738   2.920   1.738  0.8424  2.7366  2.4689
  402SOL    HW2 1607   0.695   3.035   1.634 -0.6367  0.6276 -2.6242
  402SOL     MW 1608   0.675   2.962   1.689 -0.2510  0.3206  0.0473
  403SOL     OW 1609   0.093   0.405   0.405  0.0173 -0.0323  0.0611
  403SOL    HW1 1610   0.153   0.446   0.465 -0.0109 -1.0789 -2.2120
  403SOL    HW2 1611   0.157   0.361   0.348  0.9354 -0.3277 -0.6725
  403SOL     MW 1612   0.109   0.404   0.405  0.1347 -0.2093 -0.3356
  404SOL     OW 1613   0.885   2.838   0.771 -0.5981 -0.1469 -0.6733
  404SOL    HW1 1614   0.950   2.781   0.731 -1.0645  1.9260 -0.4815
  404SOL    HW2 1615   0.918   2.928   0.758 -0.3544  0.0029  0.2492
  404SOL     MW 1616   0.898   2.843   0.764 -0.6275  0.1464 -0.5263
  405SOL     OW 1617   0.491   2.369   1.508  0.1429 -0.0322 -0.4938
  405SOL    HW1 1618   0.492   2.456   1.463  0.7750  2.2086  0.6684
  405SOL    HW2 1619   0.406   2.327   1.466  0.1922  0.6775 -1.0129
  405SOL     MW 1620   0.480   2.375   1.496  0.2328  0.3571 -0.4090
  406SOL     OW 1621   0.339   2.409   1.133  0.1244  0.2639 -0.0007
  406SOL    HW1 1622   0.246   2.424   1.110  1.7498  0.0746 -0.4329
  406SOL    HW2 1623   0.348   2.311   1.133  1.5870 -0.4266 -1.9166
  406SOL     MW 1624   0.328   2.398   1.130  0.5318  0.1478 -0.3105
  407SOL     OW 1625   3.090   2.727   1.141 -0.2762 -0.6353  0.7461
  407SOL    HW1 1626   3.152   2.709   1.215  1.5155  0.8018  2.5333
  407SOL    HW2 1627   3.126   2.689   1.063  4.3284  2.0027 -2.8526
  407SOL     MW 1628   3.103   2.720   1.140  0.5677 -0.0977  0.5071
  408SOL     OW 1629   2.063   2.066   0.763  0.8495  0.0957  0.8312
  408SOL    HW1 1630   2.039   2.123   0.836  0.8705 -0.3046  1.5425
  408SOL    HW2 1631   1.983   2.060   0.713 -2.0580 -0.9462  0.2641
  408SOL     MW 1632   2.049   2.073   0.766  0.4686 -0.0946  0.8503
  409SOL     OW 1633   1.373   0.080   0.917  0.3287  1.1970 -0.3439
  409SOL    HW1 1634   1.393   0.169   0.893  3.1552  1.0208 -0.3885
  409SOL    HW2 1635   1.450   0.042   0.960 -1.0292 -1.6822 -0.1969
  409SOL     MW 1636   1.386   0.087   0.919  0.5225  0.7938 -0.3304
  410SOL     OW 1637   1.163   2.443   1.045  0.1537  0.5753  0.1329
  410SOL    HW1 1638   1.077   2.453   1.005  2.1511  4.2452  0.2459
  410SOL    HW2 1639   1.201   2.385   0.981 -2.0742 -1.5313 -0.8525
  410SOL     MW 1640   1.157   2.436   1.031  0.1233  0.7816  0.0178
  411SOL     OW 1641   1.939   0.015   2.837 -0.1665 -0.3233 -0.3124
  411SOL    HW1 1642   1.868  -0.029   2.787 -1.3155 -1.1516  0.5615
  411SOL    HW2 1643   1.901   0.049   2.921 -0.3555 -1.6426  1.5241
  411SOL     MW 1644   1.925   0.014   2.841 -0.3430 -0.6066  0.0452
  412SOL     OW 1645   0.974   2.246   0.593  0.0030 -0.2823  0.2331
  412SOL    HW1 1646   1.040   2.314   0.625 -2.1121  0.5736 -0.7403
  412SOL    HW2 1647   0.901   2.306   0.555 -2.8926  1.1464  1.3695
  412SOL     MW 1648   0.973   2.263   0.592 -0.6581  0.0191  0.2546
  413SOL     OW 1649   0.528   2.757   3.072  0.1093  0.8182 -0.6528
  413SOL    HW1 1650   0.582   2.677   3.102 -0.2605 -1.3627 -1.1551
  413SOL    HW2 1651   0.590   2.811   3.030 -0.4890 -2.6043  0.9181
  413SOL     MW 1652   0.543   2.754   3.070 -0.0184  0.0789 -0.5118
  414SOL     OW 1653   1.934   2.989   1.077 -0.1979 -0.6463  0.0050
  414SOL    HW1 1654   1.878   2.978   0.995  1.1485 -0.5108  0.4709
  414SOL    HW2 1655   2.001   2.921   1.070  1.4752 -1.8173  0.4629
  414SOL     MW 1656   1.935   2.979   1.065  0.2005 -0.7829  0.1269
  415SOL     OW 1657   1.730   2.552   1.133  0.1287  0.0496  0.2637
  415SOL    HW1 1658   1.690   2.496   1.202 -4.1549 -1.2582  1.9720
  415SOL    HW2 1659   1.805   2.577   1.185 -0.2774 -0.2579  1.6632
  415SOL     MW 1660   1.735   2.548   1.149 -0.4900 -0.1636  0.6737
  416SOL     OW 1661   0.541   1.950   1.357  0.1525  0.2665 -0.0373
  416SOL    HW1 1662   0.514   2.022   1.301  0.3997 -0.6542 -0.2746
  416SOL    HW2 1663   0.507   1.868   1.321  0.6372 -3.4144 -1.1671
  416SOL     MW 1664   0.533   1.949   1.345  0.2491 -0.3407 -0.2177
  417SOL     OW 1665   0.986   3.015   2.057  0.2173  0.1354  0.1656
  417SOL    HW1 1666   0.938   3.015   2.132  3.5166  0.0709 -2.5058
  417SOL    HW2 1667   0.930   2.966   1.993 -0.8001  1.2195 -0.0680
  417SOL     MW 1668   0.972   3.008   2.058  0.5184  0.2700 -0.2177
  418SOL     OW 1669   0.644   2.950   0.146  0.4694 -0.3886 -0.6503
  418SOL    HW1 1670   0.734   2.963   0.107  0.5730  1.2296  2.0081
  418SOL    HW2 1671   0.602   2.878   0.096 -0.9156  1.5375  1.0605
  418SOL     MW 1672   0.651   2.942   0.134  0.3003  0.0790 -0.0739
  419SOL     OW 1673   0.451   2.623   1.406  0.0170  0.2821  0.0917
  419SOL    HW1 1674   0.510   2.685   1.451 -0.8508  2.2905  4.1788
  419SOL    HW2 1675   0.489   2.614   1.322 -0.8094  1.7328 -2.5219
  419SOL     MW 1676   0.464   2.630   1.401 -0.2065  0.7385  0.2861
  420SOL     OW 1677   0.870   2.192   0.983  0.5939  0.0711  0.2052
  420SOL    HW1 1678   0.806   2.230   1.043  1.5236  2.4459 -1.3185
  420SOL    HW2 1679   0.894   2.264   0.929 -0.5754  2.7094  0.1723
  420SOL     MW 1680   0.865   2.206   0.984  0.5623  0.7326 -0.0002
  421SOL     OW 1681   2.944   0.056   0.023  0.0036  0.1410 -0.0376
  421SOL    HW1 1682   2.907   0.011  -0.054 -1.4583  0.3884  0.0842
  421SOL    HW2 1683   2.959  -0.027   0.073  2.9335 -0.4126  0.4723
  421SOL     MW 1684   2.941   0.039   0.019  0.1973  0.1006  0.0457
  422SOL     OW 1685   0.902   2.457   0.901  0.0087  0.4619 -0.2031
  422SOL    HW1 1686   0.826   2.483   0.951  0.1802  2.3319 -0.0433
  422SOL    HW2 1687   0.890   2.482   0.815 -1.0319 -1.0590  0.4170
  422SOL     MW 1688   0.891   2.463   0.896 -0.1060  0.5079 -0.1002
  423SOL     OW 1689   1.529   0.137   0.489  0.1866 -0.2088 -0.4153
  423SOL    HW1 1690   1.493   0.098   0.409 -0.7881 -1.7953 -0.0204
  423SOL    HW2 1691   1.553   0.221   0.467 -0.3925 -0.8080 -1.6348
  423SOL     MW 1692   1.527   0.143   0.475 -0.0184 -0.4972 -0.5241
  424SOL     OW 1693   0.661   2.252   1.196 -0.3996 -0.0190 -0.1848
  424SOL    HW1 1694   0.575   2.200   1.194 -0.5511  1.5652  1.7396
  424SOL    HW2 1695   0.664   2.296   1.283  2.2133 -0.2565 -2.4770
  424SOL     MW 1696   0.650   2.251   1.208 -0.0748  0.1587 -0.2333
  425SOL     OW 1697   1.723   2.861   1.952 -0.1014  0.1607  0.3572
  425SOL    HW1 1698   1.731   2.868   1.854 -0.5819 -0.1432 -1.0305
  425SOL    HW2 1699   1.763   2.782   1.987  0.3215 -2.0059 -1.4113
  425SOL     MW 1700   1.729   2.852   1.943 -0.1090 -0.1653 -0.0593
  426SOL     OW 1701   0.823   1.672   1.936 -0.0106 -0.2874 -0.3410
  426SOL    HW1 1702   0.760   1.689   1.862 -0.4229  2.1699 -0.8180
  426SOL    HW2 1703   0.809   1.747   2.004 -1.1307  1.6131  1.3548
  426SOL     MW 1704   0.813   1.685   1.935 -0.2128  0.2875 -0.1802
  427SOL     OW 1705   0.340   1.563   1.894  0.2227  0.3267 -0.2328
  427SOL    HW1 1706   0.403   1.499   1.932  0.2819  0.5595  2.1141
  427SOL    HW2 1707   0.258   1.536   1.936  2.3878  0.9337 -1.4561
  427SOL     MW 1708   0.337   1.551   1.905  0.5162  0.4375 -0.0845
  428SOL     OW 1709   0.580   2.571   1.165 -0.1251  0.1302 -0.1013
  428SOL    HW1 1710   0.645   2.520   1.212 -1.9641 -0.1022 -0.0850
  428SOL    HW2 1711   0.509   2.506   1.155  2.7838 -1.9785  0.5843
  428SOL     MW 1712   0.579   2.556   1.170  0.0161 -0.1787 -0.0087
  429SOL     OW 1713   1.324   2.662   1.071 -0.1229  0.6735 -0.0162
  429SOL    HW1 1714   1.253   2.597   1.070 -0.9940 -1.7316 -0.6323
  429SOL    HW2 1715   1.292   2.744   1.024 -0.3629 -0.8111 -4.7963
  429SOL     MW 1716   1.310   2.664   1.065 -0.2695  0.1603 -0.7282
  430SOL     OW 1717   1.182   2.733   0.693  0.3455  0.0897  0.7077
  430SOL    HW1 1718   1.178   2.636   0.697 -0.8276 -0.3184 -1.1433
  430SOL    HW2 1719   1.133   2.755   0.617  1.1698 -0.9385 -1.4696
  430SOL     MW 1720   1.175   2.723   0.683  0.2995 -0.0998  0.1762
  431SOL     OW 1721   0.292   1.888   1.110  0.6639 -0.3283 -0.0132
  431SOL    HW1 1722   0.361   1.825   1.096  0.2128  2.3064  1.7215
  431SOL    HW2 1723   0.267   1.938   1.029  1.3221 -2.1658 -2.2062
  431SOL     MW 1724   0.298   1.886   1.097  0.6912 -0.2231 -0.0736
  432SOL     OW 1725   0.036   0.050   1.099  0.5792  0.0219 -0.4968
  432SOL    HW1 1726   0.041   0.075   1.194  2.8239 -0.4066 -1.6911
  432SOL    HW2 1727  -0.034  -0.013   1.099  0.4159  1.7684 -3.6338
  432SOL     MW 1728   0.027   0.045   1.111  0.8538  0.1958 -1.0683
  433SOL     OW 1729   0.614   2.850   1.458  0.0752 -0.3859  0.8440
  433SOL    HW1 1730   0.632   2.889   1.548 -0.7634  0.1655  0.6383
  433SOL    HW2 1731   0.705   2.850   1.420  0.6627  0.4021 -0.1330
  433SOL     MW 1732   0.628   2.855   1.465  0.0421 -0.2091  0.6879
  434SOL     OW 1733   1.579   2.855   1.466 -0.0690 -0.6687 -0.1209
  434SOL    HW1 1734   1.489   2.901   1.473  0.8545 -1.2291 -1.1964
  434SOL    HW2 1735   1.571   2.816   1.380 -0.3809 -2.4938 -0.6090
  434SOL     MW 1736   1.566   2.856   1.456  0.0117 -0.9834 -0.3272
  435SOL     OW 1737   2.822   1.827   0.182  0.1127  0.2506  0.1353
  435SOL    HW1 1738   2.873   1.896   0.140  3.7099 -1.2066 -1.2789
  435SOL    HW2 1739   2.803   1.768   0.107 -0.9766  0.6468  0.8434
  435SOL     MW 1740   2.826   1.829   0.167  0.4436  0.1106  0.0421
  436SOL     OW 1741   1.282   2.794   0.314  0.5818  0.7074  0.1960
  436SOL    HW1 1742   1.342   2.751   0.376 -0.5962 -0.3750  0.0075
  436SOL    HW2 1743   1.252   2.865   0.367  1.3465 -1.3592 -1.8926
  436SOL     MW 1744   1.286   2.798   0.329  0.5273  0.2919 -0.1044
  437SOL     OW 1745   0.894   2.882   1.380  0.1267 -0.6360  0.8384
  437SOL    HW1 1746   0.899   2.967   1.336  1.8404 -2.1976 -2.0262
  437SOL    HW2 1747   0.936   2.820   1.317 -0.9182 -1.6565  2.1534
  437SOL     MW 1748   0.900   2.885   1.366  0.2149 -0.9767  0.6340
  438SOL     OW 1749   0.874   2.601   1.937 -0.4418  0.3833  0.2081
  438SOL    HW1 1750   0.845   2.583   2.023  2.3431 -1.3034 -2.5746
  438SOL    HW2 1751   0.817   2.540   1.891 -1.5665  1.8316  0.3837
  438SOL     MW 1752   0.863   2.591   1.942 -0.2227  0.3519 -0.1359
  439SOL     OW 1753   1.075   2.133   0.375 -0.0838  0.1627  0.2193
  439SOL    HW1 1754   1.028   2.165   0.453  1.0595  1.3150  3.6809
  439SOL    HW2 1755   1.100   2.210   0.324 -0.1311 -0.0453  1.9417
  439SOL     MW 1756   1.072   2.148   0.378  0.0608  0.2873  0.9033
  440SOL     OW 1757   1.677   2.955   3.066 -0.0287  0.7988  0.4499
  440SOL    HW1 1758   1.628   2.938   3.147 -1.1489  0.5828  2.9860
  440SOL    HW2 1759   1.738   2.885   3.053  1.4994 -1.6940  2.2591
  440SOL     MW 1760   1.679   2.943   3.075  0.0252  0.4414  1.0232
  441SOL     OW 1761   0.357   2.647   0.503  0.3322 -0.0707 -0.4426
  441SOL    HW1 1762   0.360   2.630   0.412 -1.0997  1.6765  1.6620
  441SOL    HW2 1763   0.355   2.746   0.502 -1.5941  4.0523 -0.3823
  441SOL     MW 1764   0.357   2.658   0.491 -0.1109  0.7038 -0.1569
  442SOL     OW 1765   3.060   2.349   0.627  0.3268 -0.1045 -0.2241
  442SOL    HW1 1766   3.074   2.442   0.626  0.7711 -2.6318  0.1197
  442SOL    HW2 1767   2.966   2.338   0.643  1.6661  0.1600 -1.5142
  442SOL     MW 1768   3.050   2.360   0.629  0.5621 -0.4030 -0.3490
  443SOL     OW 1769   1.413   1.764   1.909  0.7124  0.7709  0.7392
  443SOL    HW1 1770   1.374   1.801   1.832  1.3446 -0.9133  3.1401
  443SOL    HW2 1771   1.375   1.673   1.897 -0.4471  0.8404 -0.7134
  443SOL     MW 1772   1.403   1.757   1.898  0.6429  0.5578  0.8643
  444SOL     OW 1773   0.928   2.572   1.584 -0.7173 -0.1290  0.0218
  444SOL    HW1 1774   0.999   2.529   1.636 -0.2691 -0.0739  1.2333
  444SOL    HW2 1775   0.849   2.535   1.624  0.8555  1.7534  1.8422
  444SOL     MW 1776   0.927   2.562   1.596 -0.4507  0.1266  0.4218
  445SOL     OW 1777   0.931   0.034   1.253 -0.4657 -0.0024  0.0521
  445SOL    HW1 1778   0.901   0.128   1.270 -1.9693  0.6591 -0.0609
  445SOL    HW2 1779   1.021   0.054   1.241 -1.5907  0.1908  1.7741
  445SOL     MW 1780   0.939   0.049   1.254 -0.8125  0.1103  0.2644
  446SOL     OW 1781   2.682   2.845   1.084 -0.2047  0.1994 -0.5386
  446SOL    HW1 1782   2.660   2.873   0.992 -1.6503  1.1536  0.2683
  446SOL    HW2 1783   2.737   2.765   1.074 -1.3761 -0.4593 -1.6500
  446SOL     MW 1784   2.686   2.838   1.070 -0.5500  0.2384 -0.5788
  447SOL     OW 1785   3.077   2.069   1.674  1.2354 -0.5058  0.3736
  447SOL    HW1 1786   3.141   2.019   1.734 -0.4923 -3.5988  0.6190
  447SOL    HW2 1787   3.017   2.002   1.628  1.1432  0.3149  2.7805
  447SOL     MW 1788   3.077   2.054   1.676  0.9953 -0.8056  0.7236
  448SOL     OW 1789   1.726   2.364   1.699  0.7477  0.4606  0.9287
  448SOL    HW1 1790   1.645   2.311   1.676  0.8707  1.4067 -0.6787
  448SOL    HW2 1791   1.719   2.448   1.664  1.3307 -0.2903 -0.2542
  448SOL     MW 1792   1.715   2.368   1.691  0.8409  0.4863  0.5605
  449SOL     OW 1793   0.761   2.852   0.402  0.1394 -0.1859  0.5703
  449SOL    HW1 1794   0.727   2.877   0.314 -1.3999  1.8053  1.8092
  449SOL    HW2 1795   0.714   2.911   0.459 -3.0726  0.6228  1.4462
  449SOL     MW 1796   0.751   2.863   0.398 -0.4875  0.1835  0.8493
  450SOL     OW 1797   1.191   2.442   0.677  0.0040 -0.1702 -0.4488
  450SOL    HW1 1798   1.196   2.397   0.762  2.4348 -0.5853  0.5779
  450SOL    HW2 1799   1.279   2.450   0.638  0.9271  0.1885  2.2969
  450SOL     MW 1800   1.203   2.437   0.683  0.4465 -0.1776  0.0489
  451SOL     OW 1801   0.604   2.029   1.654 -1.0198 -0.9876  0.1716
  451SOL    HW1 1802   0.636   2.121   1.657 -1.9828  0.8566  2.1514
  451SOL    HW2 1803   0.579   2.004   1.565  0.6009  0.7698 -1.0784
  451SOL     MW 1804   0.605   2.038   1.643 -0.9330 -0.5124  0.2679
  452SOL     OW 1805   0.262   2.717   0.040 -0.3257 -0.0077 -0.7394
  452SOL    HW1 1806   0.355   2.722   0.030 -1.5040 -1.7860  1.7352
  452SOL    HW2 1807   0.217   2.734  -0.049 -1.5368 -0.0381 -0.7506
  452SOL     MW 1808   0.268   2.720   0.027 -0.6410 -0.2463 -0.4144
  453SOL     OW 1809   0.373   3.002   1.706 -0.4301 -0.7549  0.0221
  453SOL    HW1 1810   0.469   3.004   1.684 -0.9567 -3.8803  1.2202
  453SOL    HW2 1811   0.329   2.996   1.622  0.5436 -2.3859 -1.6307
  453SOL     MW 1812   0.380   3.001   1.692 -0.3711 -1.3824 -0.0379
  454SOL     OW 1813   0.964   2.701   1.199 -0.8131  0.3257 -0.1746
  454SOL    HW1 1814   0.916   2.625   1.235 -0.8384  1.7796  0.3601
  454SOL    HW2 1815   0.902   2.738   1.134 -2.0961 -0.1632 -1.0671
  454SOL     MW 1816   0.949   2.696   1.195 -0.9857  0.4530 -0.2218
  455SOL     OW 1817   1.535   2.924   0.184  0.2710 -0.1707  0.2900
  455SOL    HW1 1818   1.584   2.904   0.261  0.7124 -0.5998 -2.3799
  455SOL    HW2 1819   1.472   2.856   0.181  1.5408 -1.8065 -0.6625
  455SOL     MW 1820   1.533   2.913   0.193  0.4968 -0.4432 -0.1879
  456SOL     OW 1821   2.894   0.341   1.327 -0.1952 -0.4179  0.5008
  456SOL    HW1 1822   2.821   0.285   1.282 -0.8608 -0.9503 -0.9362
  456SOL    HW2 1823   2.967   0.366   1.265 -0.5832 -0.8551  1.1856
  456SOL     MW 1824   2.894   0.337   1.313 -0.3342 -0.5458  0.4016
  457SOL     OW 1825   0.949   1.548   2.970  0.3286  0.2774 -1.1961
  457SOL    HW1 1826   0.872   1.534   3.026  3.5895  0.0404  1.3853
  457SOL    HW2 1827   1.008   1.480   3.002  1.1703  0.6488  2.9766
  457SOL     MW 1828   0.947   1.537   2.981  0.8699  0.2951 -0.3050
  458SOL     OW 1829   1.459   1.393   0.551  0.5739 -0.0221  0.4363
  458SOL    HW1 1830   1.380   1.407   0.600  0.8494  1.5376 -0.6272
  458SOL    HW2 1831   1.440   1.327   0.483  0.1338  3.0361  1.0715
  458SOL     MW 1832   1.446   1.386   0.548  0.5522  0.5872  0.3798
  459SOL     OW 1833   1.504   0.107   0.220 -0.7059  0.3469  0.1157
  459SOL    HW1 1834   1.477   0.024   0.181 -2.4308 -1.7467 -0.0325
  459SOL    HW2 1835   1.457   0.172   0.168  1.4840  2.0055  1.1150
  459SOL     MW 1836   1.495   0.105   0.208 -0.6446  0.2895  0.2280
  460SOL     OW 1837   1.804   2.167   0.675 -0.1423  0.4201 -0.4425
  460SOL    HW1 1838   1.708   2.176   0.698  0.6826  0.4069 -0.7727
  460SOL    HW2 1839   1.809   2.077   0.634 -1.4166  0.2938 -0.7644
  460SOL     MW 1840   1.792   2.156   0.673 -0.2016  0.4017 -0.5286
  461SOL     OW 1841   0.503   2.411   0.613 -0.3409  0.6161  0.1656
  461SOL    HW1 1842   0.475   2.485   0.558 -0.6415  0.3429 -0.3018
  461SOL    HW2 1843   0.460   2.437   0.694 -0.6540 -0.8551  0.3547
  461SOL     MW 1844   0.494   2.424   0.616 -0.4219  0.3860  0.1289
  462SOL     OW 1845   0.355   0.220   1.260  0.4293 -0.1274 -0.5406
  462SOL    HW1 1846   0.391   0.161   1.183  2.3178  0.8612  0.3127
  462SOL    HW2 1847   0.428   0.259   1.308  3.9142  0.3372  1.3989
  462SOL     MW 1848   0.369   0.217   1.256  1.1383  0.0643 -0.1721
  463SOL     OW 1849   0.894  -0.001   0.684 -0.3222 -0.0040 -0.4180
  463SOL    HW1 1850   0.908  -0.013   0.586  0.5830  1.6206 -0.2690
  463SOL    HW2 1851   0.806   0.043   0.695  1.9231 -0.1317  1.5436
  463SOL     MW 1852   0.884   0.004   0.672  0.0935  0.1935 -0.1395
  464SOL     OW 1853   0.800   3.030   2.264  0.6013 -0.0186  0.0512
  464SOL    HW1 1854   0.776   2.938   2.271 -1.5500 -2.0509 -0.1797
  464SOL    HW2 1855   0.829   3.056   2.347 -2.6667 -0.7342  0.9379
  464SOL     MW 1856   0.801   3.021   2.276 -0.1138 -0.3812  0.1378
  465SOL     OW 1857   0.656   0.331   0.481  0.4702  0.4630  0.0543
  465SOL    HW1 1858   0.643   0.271   0.559 -2.3441 -0.1078 -0.3657
  465SOL    HW2 1859   0.670   0.274   0.400  0.5369 -2.1758  0.6985
  465SOL     MW 1860   0.657   0.315   0.481  0.1077  0.0395  0.0839
  466SOL     OW 1861   1.087   2.020   0.734 -0.0381  0.0520 -0.6008
  466SOL    HW1 1862   1.084   1.941   0.684  0.2498  2.3600 -0.6266
  466SOL    HW2 1863   1.060   2.095   0.678  0.2047  0.3629  0.6872
  466SOL     MW 1864   1.083   2.019   0.720  0.0320  0.3975 -0.4343
  467SOL     OW 1865   1.277   2.263   0.889  0.3989 -0.0512 -0.4792
  467SOL    HW1 1866   1.363   2.303   0.908 -1.2222 -1.6723  1.0999
  467SOL    HW2 1867   1.291   2.168   0.883  0.0721 -0.0558  0.1802
  467SOL     MW 1868   1.290   2.256   0.891  0.1419 -0.2657 -0.1839
  468SOL     OW 1869   0.357   2.581   1.982  0.2185 -0.1330 -0.2725
  468SOL    HW1 1870   0.382   2.528   1.907 -0.7836 -0.5978 -0.2571
  468SOL    HW2 1871   0.352   2.672   1.943  1.2581  2.6434  2.4147
  468SOL     MW 1872   0.360   2.586   1.967  0.2235  0.1720  0.0841
  469SOL     OW 1873   0.365   2.136   1.774 -0.1390  0.2324 -0.0114
  469SOL    HW1 1874   0.297   2.078   1.801  2.0345 -0.8201  2.9244
  469SOL    HW2 1875   0.433   2.082   1.725  0.8587 -0.1581  0.9479
  469SOL     MW 1876   0.365   2.121   1.771  0.2794  0.0420  0.5025
  470SOL     OW 1877   3.031   2.561   0.090 -0.2353 -0.5704  0.1848
  470SOL    HW1 1878   2.947   2.550   0.137 -0.9336  0.5604  3.0814
  470SOL    HW2 1879   3.023   2.595   0.003 -1.0856 -1.4115  0.1730
  470SOL     MW 1880   3.019   2.564   0.085 -0.4396 -0.5322  0.5654
  471SOL     OW 1881   1.237   2.743   1.422 -0.4202 -0.4538 -0.1074
  471SOL    HW1 1882   1.155   2.770   1.467 -0.3511  0.9953  1.2505
  471SOL    HW2 1883   1.217   2.738   1.325 -0.6854  2.4955 -0.5099
  471SOL     MW 1884   1.224   2.746   1.415 -0.4461  0.1265  0.0187
  472SOL     OW 1885   2.912   2.057   0.399  0.1027  0.1954  0.1584
  472SOL    HW1 1886   2.890   2.027   0.312  3.0088 -0.2931  1.7306
  472SOL    HW2 1887   2.864   1.987   0.440  2.0918 -1.1720  0.7047
  472SOL     MW 1888   2.903   2.044   0.393  0.7486 -0.0495  0.4379
  473SOL     OW 1889   0.824   2.509   1.334  0.7224  0.8600 -0.4772
  473SOL    HW1 1890   0.891   2.443   1.314 -2.3679  1.6690 -0.6497
  473SOL    HW2 1891   0.857   2.538   1.415  3.5161  0.4438  0.6679
  473SOL     MW 1892   0.837   2.504   1.342  0.6833  0.9118 -0.3489
  474SOL     OW 1893   0.763   2.257   1.692  0.5294 -0.0504  0.4592
  474SOL    HW1 1894   0.815   2.269   1.772  1.9890 -0.8033  1.5319
  474SOL    HW2 1895   0.820   2.225   1.614 -2.1026  2.1976  2.1653
  474SOL     MW 1896   0.777   2.254   1.692  0.3747  0.1469  0.8258
  475SOL     OW 1897   1.619   0.034   1.481  0.2332  0.3356 -1.0179
  475SOL    HW1 1898   1.550   0.057   1.417  0.9453  0.2472  1.2653
  475SOL    HW2 1899   1.636  -0.061   1.465  0.0709 -2.6637  1.6328
  475SOL     MW 1900   1.612   0.025   1.470  0.3057 -0.0718 -0.3669
  476SOL     OW 1901   1.494   2.614   0.860 -0.3210 -0.4905  0.1415
  476SOL    HW1 1902   1.435   2.619   0.937  0.1550  2.1124  0.4279
  476SOL    HW2 1903   1.523   2.700   0.831  1.1326  0.3943  2.7594
  476SOL     MW 1904   1.490   2.626   0.867 -0.0664 -0.0303  0.5247
  477SOL     OW 1905   0.789   2.546   0.654 -0.4882  0.6071 -0.3777
  477SOL    HW1 1906   0.851   2.601   0.603  3.2174  0.7220  2.1518
  477SOL    HW2 1907   0.750   2.476   0.603  0.9982  1.1436 -0.1143
  477SOL     MW 1908   0.792   2.544   0.641  0.1969  0.6930 -0.0092
  478SOL     OW 1909   0.146   2.682   0.903 -0.2688 -0.1699  0.1577
  478SOL    HW1 1910   0.177   2.770   0.908 -1.7228 -1.3600  0.5481
  478SOL    HW2 1911   0.218   2.637   0.867  1.0190 -1.3106 -4.3568
  478SOL     MW 1912   0.159   2.688   0.899 -0.2907 -0.4774 -0.3864
  479SOL     OW 1913   1.418   1.939   1.272  0.1168  0.2171 -0.2232
  479SOL    HW1 1914   1.379   1.991   1.343  1.2852  0.9568 -1.3470
  479SOL    HW2 1915   1.496   1.899   1.306  4.0143  1.4484 -1.6483
  479SOL     MW 1916   1.423   1.941   1.286  0.7852  0.4771 -0.5595
  480SOL     OW 1917   1.839   2.403   1.377  0.0430 -0.2945 -0.0601
  480SOL    HW1 1918   1.879   2.345   1.437 -0.3888  0.9676  0.7624
  480SOL    HW2 1919   1.861   2.367   1.296  1.5352  0.2143  1.2381
  480SOL     MW 1920   1.847   2.391   1.374  0.1829 -0.0608  0.2197
  481SOL     OW 1921   1.187   0.061   1.148  0.2635 -0.5843  0.3795
  481SOL    HW1 1922   1.240   0.044   1.071 -1.6238  1.0109 -2.0413
  481SOL    HW2 1923   1.183   0.161   1.129  2.7967  1.6199  0.9298
  481SOL     MW 1924   1.193   0.072   1.135  0.3487 -0.0830  0.1327
  482SOL     OW 1925   0.924   3.093   0.420 -0.3924 -0.8630  0.3631
  482SOL    HW1 1926   0.858   3.063   0.361 -0.6795  1.7903  1.6689
  482SOL    HW2 1927   0.937   3.186   0.395  0.3262 -0.0123  0.2505
  482SOL     MW 1928   0.917   3.102   0.409 -0.3355 -0.4007  0.5205
  483SOL     OW 1929   0.366   2.929   0.510 -0.5947 -0.0032 -0.1420
  483SOL    HW1 1930   0.280   2.920   0.474 -0.4126 -0.1222  0.1869
  483SOL    HW2 1931   0.345   2.974   0.594 -0.8325  0.7089  2.0813
  483SOL     MW 1932   0.352   2.934   0.516 -0.6021  0.0751  0.1947
  484SOL     OW 1933   1.674   1.858   1.366  0.0696 -0.0055 -0.2379
  484SOL    HW1 1934   1.722   1.935   1.334  0.5473  1.7837  0.5279
  484SOL    HW2 1935   1.692   1.856   1.460 -0.1521 -2.4912  1.0074
  484SOL     MW 1936   1.683   1.868   1.374  0.1034 -0.0974  0.0275
  485SOL     OW 1937   0.526   2.399   0.286 -0.2106 -0.1988  0.0872
  485SOL    HW1 1938   0.580   2.366   0.367 -0.2371 -0.6209 -0.1504
  485SOL    HW2 1939   0.464   2.477   0.294  2.1724 -1.1076 -0.6378
  485SOL     MW 1940   0.525   2.405   0.298  0.1004 -0.3744 -0.0398
  486SOL     OW 1941   0.117   2.449   1.390 -0.0680 -0.1007 -0.4270
  486SOL    HW1 1942   0.120   2.542   1.362 -2.2628 -2.1818 -1.1797
  486SOL    HW2 1943   0.145   2.456   1.484 -2.7937  0.3557  2.5671
  486SOL     MW 1944   0.121   2.462   1.399 -0.7172 -0.3150 -0.1313
  487SOL     OW 1945   1.278   1.603   1.095 -0.2066 -0.2108  0.0233
  487SOL    HW1 1946   1.246   1.695   1.084 -1.0726  1.3398  0.0816
  487SOL    HW2 1947   1.360   1.610   1.037  1.6775  0.7942 -2.3914
  487SOL     MW 1948   1.284   1.616   1.086 -0.0723  0.1264 -0.2876
  488SOL     OW 1949   1.617   1.853   0.569  0.2302 -0.0270 -0.2509
  488SOL    HW1 1950   1.699   1.883   0.530 -0.6054 -1.2330 -0.4410
  488SOL    HW2 1951   1.550   1.857   0.504  0.6342  0.0707  0.4944
  488SOL     MW 1952   1.619   1.858   0.555  0.1733 -0.1732 -0.1777
  489SOL     OW 1953   0.747   0.780   0.548 -0.3829 -0.4916  0.1188
  489SOL    HW1 1954   0.751   0.696   0.497 -0.8265  1.4487  0.1558
  489SOL    HW2 1955   0.758   0.766   0.643 -0.1146 -2.8005 -0.1007
  489SOL     MW 1956   0.749   0.767   0.554 -0.4061 -0.5402  0.0947
  490SOL     OW 1957   1.413   2.111   0.465 -0.2257 -0.0200  0.8337
  490SOL    HW1 1958   1.443   2.198   0.429  1.0460  0.5384  0.8077
  490SOL    HW2 1959   1.319   2.120   0.464  1.7736 -0.5830  0.8993
  490SOL     MW 1960   1.405   2.123   0.460  0.2059 -0.0206  0.8389
  491SOL     OW 1961   1.200   3.017   0.471 -0.0716  0.6043  0.4908
  491SOL    HW1 1962   1.236   3.063   0.549  3.1438 -1.5740  1.1085
  491SOL    HW2 1963   1.121   3.056   0.437 -1.2409  2.2165  1.0787
  491SOL     MW 1964   1.194   3.028   0.477  0.1984  0.5296  0.6498
  492SOL     OW 1965   1.526   2.149   0.714 -0.4101  0.3579 -0.6780
  492SOL    HW1 1966   1.494   2.123   0.625  2.8176  1.0655 -0.2884
  492SOL    HW2 1967   1.478   2.078   0.767  0.6273  0.1510  1.6218
  492SOL     MW 1968   1.515   2.136   0.709  0.1526  0.4239 -0.3232
  493SOL     OW 1969   0.123   2.908   0.374 -0.2660 -0.4797 -0.1053
  493SOL    HW1 1970   0.099   2.978   0.433 -2.3048 -3.4678  0.1032
  493SOL    HW2 1971   0.164   2.948   0.295 -1.7404  1.6629  0.9822
  493SOL     MW 1972   0.125   2.923   0.371 -0.7296 -0.5913  0.0657
  494SOL     OW 1973   0.410   2.415   1.769 -0.5734  0.0272  0.3467
  494SOL    HW1 1974   0.410   2.313   1.788 -0.1992  1.3878 -0.6510
  494SOL    HW2 1975   0.445   2.408   1.677 -0.3730 -0.8313 -0.5996
  494SOL     MW 1976   0.415   2.400   1.760 -0.4976  0.0935  0.0902
  495SOL     OW 1977   2.872   1.662   2.722 -0.2671  0.2711 -0.1551
  495SOL    HW1 1978   2.887   1.745   2.777  1.6149 -0.6696  3.3354
  495SOL    HW2 1979   2.880   1.599   2.797 -1.3621  0.0706  0.3990
  495SOL     MW 1980   2.875   1.665   2.739 -0.1633  0.1205  0.3785
  496SOL     OW 1981   2.854   2.318   2.633  0.1662 -0.0419  0.1821
  496SOL    HW1 1982   2.872   2.225   2.643 -0.9032  0.3153 -1.9515
  496SOL    HW2 1983   2.921   2.368   2.676  1.0123  0.3061 -2.7744
  496SOL     MW 1984   2.866   2.312   2.640  0.1367  0.0511 -0.4895
  497SOL     OW 1985   1.528   2.306   2.557  0.3906 -0.2062  0.6198
  497SOL    HW1 1986   1.491   2.270   2.477 -1.0078 -2.4059  1.5398
  497SOL    HW2 1987   1.504   2.247   2.621  1.1828 -0.5263  1.0946
  497SOL     MW 1988   1.520   2.294   2.555  0.3106 -0.5386  0.8038
  498SOL     OW 1989   1.557   2.708   2.271 -0.4859 -0.6027  0.5309
  498SOL    HW1 1990   1.566   2.632   2.220 -2.0765  0.9138  0.9901
  498SOL    HW2 1991   1.629   2.701   2.328 -2.5496  2.5902  1.4833
  498SOL     MW 1992   1.567   2.697   2.272 -0.9680  0.0187  0.7172
  499SOL     OW 1993   0.912   0.171   0.003 -0.4167 -0.1383  0.3321
  499SOL    HW1 1994   0.850   0.208   0.062  0.8569  0.8994  2.5511
  499SOL    HW2 1995   0.904   0.077   0.017  0.2906  4.5079 -1.2779
  499SOL     MW 1996   0.903   0.164   0.013 -0.1553  0.6116  0.4125
  500SOL     OW 1997   1.006   2.433   2.802  0.2483 -0.4987  0.0083
  500SOL    HW1 1998   1.066   2.403   2.872  0.4788 -0.4910  1.6964
  500SOL    HW2 1999   0.986   2.525   2.820  0.5767  0.4889  0.7589
  500SOL     MW 2000   1.011   2.441   2.814  0.3220 -0.3674  0.3301
  501SOL     OW 2001   1.748   2.254   3.078 -0.1333  0.5769  0.1392
  501SOL    HW1 2002   1.736   2.341   3.118  1.7652  1.1249  1.3848
  501SOL    HW2 2003   1.837   2.233   3.112 -0.7815 -0.8469 -1.7830
  501SOL     MW 2004   1.758   2.263   3.088  0.0317  0.4614  0.0499
  502SOL     OW 2005   0.110   2.822   2.945 -0.0844  0.8762  0.1231
  502SOL    HW1 2006   0.038   2.761   2.913  0.5676 -0.9866 -0.8871
  502SOL    HW2 2007   0.126   2.888   2.879  0.1239 -0.9216  2.3560
  502SOL     MW 2008   0.103   2.823   2.932  0.0291  0.3933  0.2844
  503SOL     OW 2009   1.147   2.615   2.053  0.3897 -0.0321  0.1321
  503SOL    HW1 2010   1.213   2.627   1.993 -1.5800  0.0138 -0.1173
  503SOL    HW2 2011   1.066   2.593   2.001  1.6477 -1.1644 -2.0190
  503SOL     MW 2012   1.145   2.614   2.038  0.2958 -0.1754 -0.1846
  504SOL     OW 2013   0.099   2.649   2.047 -0.2093  0.1484  0.0705
  504SOL    HW1 2014   0.171   2.586   2.038  1.0822  1.0776 -0.7331
  504SOL    HW2 2015   0.033   2.612   2.104 -1.0827 -1.4161  0.5826
  504SOL     MW 2016   0.100   2.635   2.053 -0.1541  0.0646  0.0321
  505SOL     OW 2017   1.643   2.669   2.733  0.0670 -0.0377  0.3019
  505SOL    HW1 2018   1.694   2.669   2.648 -1.0126  0.8824  0.1002
  505SOL    HW2 2019   1.605   2.759   2.743 -0.6041 -0.3569  1.7713
  505SOL     MW 2020   1.644   2.681   2.723 -0.1640  0.0416  0.4691
  506SOL     OW 2021   1.639   0.030   2.859 -0.0866  0.8211  0.0171
  506SOL    HW1 2022   1.666  -0.025   2.937  2.5896  0.1601 -1.9808
  506SOL    HW2 2023   1.668  -0.030   2.785  0.1690 -0.4678 -2.7181
  506SOL     MW 2024   1.647   0.015   2.859  0.3002  0.5639 -0.6074
  507SOL     OW 2025   0.917   2.689   2.861  0.2099  0.1337 -0.3402
  507SOL    HW1 2026   0.966   2.749   2.802  2.1712 -1.4082 -1.9835
  507SOL    HW2 2027   0.840   2.660   2.813 -0.0710  1.3434  1.5470
  507SOL     MW 2028   0.913   2.693   2.847  0.4316  0.0899 -0.3080
  508SOL     OW 2029   1.243   2.104   2.524 -0.0393  0.0371 -0.1423
  508SOL    HW1 2030   1.294   2.108   2.606 -0.6211 -2.8165 -0.0364
  508SOL    HW2 2031   1.178   2.180   2.542  1.2237 -3.9819 -1.0514
  508SOL     MW 2032   1.241   2.115   2.538  0.0506 -0.8697 -0.2482
  509SOL     OW 2033   0.659   2.603   2.790  0.3263 -0.8674 -0.4323
  509SOL    HW1 2034   0.614   2.547   2.734  2.0022 -0.1036  3.9171
  509SOL    HW2 2035   0.620   2.690   2.763  1.6214 -0.0092  4.6791
  509SOL     MW 2036   0.648   2.607   2.779  0.7183 -0.6534  0.8160
  510SOL     OW 2037   1.566   2.602   1.626 -0.0349 -0.1325  0.1637
  510SOL    HW1 2038   1.570   2.695   1.613  1.0307  1.0709 -0.9523
  510SOL    HW2 2039   1.519   2.584   1.714  1.4060  0.5311 -3.2913
  510SOL     MW 2040   1.561   2.612   1.636  0.2958  0.1138 -0.4394
  511SOL     OW 2041   0.402   2.614   2.505  0.3258  0.0436 -0.4141
  511SOL    HW1 2042   0.471   2.551   2.516  1.2202 -3.2649  0.5702
  511SOL    HW2 2043   0.389   2.616   2.408  1.3544  0.4756 -0.1780
  511SOL     MW 2044   0.409   2.606   2.494  0.5795 -0.3359 -0.2530
  512SOL     OW 2045   0.989   2.029   2.883  0.0716 -0.0249 -0.2331
  512SOL    HW1 2046   0.906   2.069   2.910  0.7382  0.4160  1.7555
  512SOL    HW2 2047   0.982   1.948   2.931  0.5754 -0.5562 -1.5528
  512SOL     MW 2048   0.977   2.023   2.893  0.2260 -0.0368 -0.1448
  513SOL     OW 2049   1.658   2.461   2.202 -0.6407 -0.0725  0.3320
  513SOL    HW1 2050   1.743   2.512   2.175  0.4008  2.7651 -0.2485
  513SOL    HW2 2051   1.694   2.399   2.265 -1.5850 -1.7985 -2.4704
  513SOL     MW 2052   1.674   2.460   2.206 -0.6279  0.0741 -0.1144
  514SOL     OW 2053   0.253   2.424   2.671  0.3375  0.6972 -0.2325
  514SOL    HW1 2054   0.313   2.493   2.649 -0.0278 -2.5287 -3.1949
  514SOL    HW2 2055   0.290   2.368   2.741 -0.1062 -0.9648 -2.0793
  514SOL     MW 2056   0.266   2.426   2.677  0.2307  0.0523 -0.8670
  515SOL     OW 2057   1.069   2.068   1.936 -0.0800 -0.2722  0.0190
  515SOL    HW1 2058   1.016   2.141   1.921  0.5191 -1.0680  1.2836
  515SOL    HW2 2059   1.131   2.093   2.008  1.4414 -0.7250 -2.0037
  515SOL     MW 2060   1.070   2.081   1.943  0.1998 -0.4369 -0.0811
  516SOL     OW 2061   1.399   2.473   2.984 -0.0416 -0.6968  0.4657
  516SOL    HW1 2062   1.421   2.495   2.893  0.5273  0.3807 -0.2255
  516SOL    HW2 2063   1.310   2.511   3.000 -0.8721  0.5972 -0.4572
  516SOL     MW 2064   1.390   2.481   2.974 -0.0761 -0.3839  0.2527
  517SOL     OW 2065   0.583   2.401   2.270 -0.5499  0.2816  0.1476
  517SOL    HW1 2066   0.520   2.464   2.242 -2.5179 -0.6282  3.6378
  517SOL    HW2 2067   0.545   2.327   2.214 -0.8320 -2.3152 -3.8230
  517SOL     MW 2068   0.569   2.400   2.259 -0.8468 -0.1810  0.0842
  518SOL     OW 2069   1.860   0.064   0.024  0.1827  0.6293  0.2228
  518SOL    HW1 2070   1.814   0.128   0.076  2.0237 -0.6110  1.8820
  518SOL    HW2 2071   1.786  -0.003   0.013 -0.6433 -2.4169  0.7777
  518SOL     MW 2072   1.844   0.064   0.029  0.3166  0.0637  0.5149
  519SOL     OW 2073   0.711   2.509   1.725 -0.4802 -0.3338  0.3971
  519SOL    HW1 2074   0.716   2.414   1.695  0.6424 -2.8874 -0.5403
  519SOL    HW2 2075   0.618   2.524   1.751 -0.8305  1.6536 -1.5450
  519SOL     MW 2076   0.699   2.499   1.725 -0.3783 -0.4085  0.0172
  520SOL     OW 2077   1.195   2.201   2.933 -0.4682  0.1468 -0.5625
  520SOL    HW1 2078   1.119   2.140   2.946 -0.7921 -0.5261  2.0625
  520SOL    HW2 2079   1.260   2.182   3.002 -0.8845 -0.1407  1.4118
  520SOL     MW 2080   1.194   2.190   2.944 -0.5659  0.0201  0.0444
  521SOL     OW 2081   1.750   2.037   2.219 -0.1739  0.1689 -0.2666
  521SOL    HW1 2082   1.755   2.055   2.125  0.3537 -2.2979  1.5222
  521SOL    HW2 2083   1.755   1.942   2.219  2.4497  0.3920  2.1664
  521SOL     MW 2084   1.751   2.026   2.207  0.2418 -0.1271  0.2905
  522SOL     OW 2085   2.922   2.520   2.285  0.0746  0.1171 -0.1567
  522SOL    HW1 2086   3.008   2.480   2.301 -1.2838  0.3681  0.6232
  522SOL    HW2 2087   2.929   2.610   2.279 -0.1800 -1.0598  2.1421
  522SOL     MW 2088   2.935   2.526   2.286 -0.1382 -0.0051  0.2495
  523SOL     OW 2089   0.913   1.488   2.117  0.1078 -0.3716 -0.0460
  523SOL    HW1 2090   0.864   1.553   2.058 -0.3517 -0.8720  1.7701
  523SOL    HW2 2091   0.939   1.411   2.067 -1.8940 -1.1084 -1.4534
  523SOL     MW 2092   0.910   1.487   2.103 -0.2169 -0.5349  0.0080
  524SOL     OW 2093   0.594   2.392   2.952  0.3290  0.0853  0.1876
  524SOL    HW1 2094   0.622   2.465   2.892 -0.6296  0.1877 -2.5553
  524SOL    HW2 2095   0.666   2.321   2.947  1.7793 -2.7060 -0.5278
  524SOL     MW 2096   0.607   2.393   2.943  0.3939 -0.2694 -0.2687
  525SOL     OW 2097   0.451   2.226   2.117 -0.1077  0.2182 -0.7008
  525SOL    HW1 2098   0.411   2.152   2.167 -1.4707 -0.8992  0.9922
  525SOL    HW2 2099   0.519   2.178   2.074 -0.3898  2.1302 -0.9648
  525SOL     MW 2100   0.455   2.210   2.118 -0.3248  0.3230 -0.5123
  526SOL     OW 2101   0.691   2.126   1.991 -0.4499  0.2500 -0.1151
  526SOL    HW1 2102   0.703   2.126   1.901  2.3125  0.6039 -2.3744
  526SOL    HW2 2103   0.769   2.157   2.023 -2.0290 -3.1457  0.2005
  526SOL     MW 2104   0.703   2.130   1.983 -0.2938 -0.1513 -0.3716
  527SOL     OW 2105   1.322   1.965   2.093 -0.0221  0.3294  0.2205
  527SOL    HW1 2106   1.333   1.935   2.178  1.9224  0.7179 -1.0250
  527SOL    HW2 2107   1.338   1.889   2.040 -2.2205 -1.6140  1.4569
  527SOL     MW 2108   1.326   1.951   2.097 -0.0556  0.1242  0.2193
  528SOL     OW 2109   0.676   2.935   2.931 -0.2975  0.7001  0.4314
  528SOL    HW1 2110   0.681   3.031   2.944  0.1680  2.2982 -2.3172
  528SOL    HW2 2111   0.639   2.914   2.839 -1.1341  1.7505 -1.0695
  528SOL     MW 2112   0.672   2.945   2.921 -0.3465  1.0495 -0.1293
  529SOL     OW 2113   0.960   2.314   1.866  0.7824 -0.6160 -1.0651
  529SOL    HW1 2114   1.004   2.335   1.950  0.8195 -1.2683  1.4156
  529SOL    HW2 2115   1.026   2.330   1.796 -2.7192 -1.6061 -0.3298
  529SOL     MW 2116   0.974   2.319   1.868  0.3253 -0.8327 -0.6408
  530SOL     OW 2117   1.151   2.463   3.048  0.1959 -0.2764 -0.5989
  530SOL    HW1 2118   1.069   2.483   3.102  0.6751  2.1189  2.3558
  530SOL    HW2 2119   1.170   2.372   3.036  2.6993 -0.4767  1.0389
  530SOL     MW 2120   1.142   2.454   3.053  0.5894  0.0132  0.0070
  531SOL     OW 2121   0.993   1.911   2.636  0.3121  0.0655 -0.3382
  531SOL    HW1 2122   0.990   1.953   2.723  0.6983  1.1044 -3.5687
  531SOL    HW2 2123   0.944   1.832   2.664 -0.4222 -0.6796 -0.4129
  531SOL     MW 2124   0.986   1.906   2.651  0.2662  0.1043 -0.7743
  532SOL     OW 2125   1.710   0.292   2.848  0.0366 -0.1808  0.1463
  532SOL    HW1 2126   1.700   0.199   2.850  1.8777 -2.2574 -0.4878
  532SOL    HW2 2127   1.813   0.309   2.842  0.0291 -1.1211  0.5969
  532SOL     MW 2128   1.722   0.282   2.847  0.2785 -0.5788  0.1221
  533SOL     OW 2129   1.770   2.640   2.985 -0.2290  0.4694 -0.1034
  533SOL    HW1 2130   1.732   2.573   3.043  1.8472 -0.5449  2.1788
  533SOL    HW2 2131   1.718   2.628   2.897 -2.0871  0.1292 -1.6919
  533SOL     MW 2132   1.758   2.630   2.981 -0.2002  0.2907 -0.0119
  534SOL     OW 2133   1.776   2.359   2.469 -0.4401 -0.4664 -0.3550
  534SOL    HW1 2134   1.693   2.325   2.505 -1.6280 -1.5584  1.2050
  534SOL    HW2 2135   1.852   2.328   2.532  2.1045 -0.8378  0.2454
  534SOL     MW 2136   1.775   2.351   2.482 -0.2611 -0.6595 -0.0699
  535SOL     OW 2137   1.835   2.324   1.950 -0.1523  0.2546 -0.2553
  535SOL    HW1 2138   1.779   2.339   1.871  1.2123  1.7956 -2.0292
  535SOL    HW2 2139   1.930   2.342   1.933  0.6382 -1.7037  1.9542
  535SOL     MW 2140   1.840   2.329   1.938  0.1320  0.1996 -0.1978
  536SOL     OW 2141   0.462   1.835   2.014 -0.1689  0.2928  0.2311
  536SOL    HW1 2142   0.455   1.832   1.917 -0.5196 -1.0954 -0.3888
  536SOL    HW2 2143   0.544   1.874   2.032  1.1700  1.3191 -3.8349
  536SOL     MW 2144   0.472   1.840   2.004 -0.0385  0.2451 -0.3871
  537SOL     OW 2145   1.107   0.209   2.891 -0.2370  0.4328 -0.2484
  537SOL    HW1 2146   1.030   0.189   2.947 -1.7814 -1.5368  1.8772
  537SOL    HW2 2147   1.112   0.303   2.911  0.4545 -1.6405 -0.6072
  537SOL     MW 2148   1.098   0.219   2.901 -0.3495 -0.1006 -0.0153
  538SOL     OW 2149   1.376   0.070   2.971  0.4862  0.0080  0.0733
  538SOL    HW1 2150   1.319   0.138   2.935 -0.0909 -0.2048 -1.1215
  538SOL    HW2 2151   1.458   0.075   2.923 -0.3826  0.7085  0.3817
  538SOL     MW 2152   1.380   0.080   2.960  0.2954  0.0723 -0.0436
  539SOL     OW 2153   0.768   2.755   2.525  0.1351 -0.3981 -0.1486
  539SOL    HW1 2154   0.850   2.785   2.569  1.9697 -0.4980  0.2316
  539SOL    HW2 2155   0.786   2.655   2.521  0.7829  0.0017  0.3621
  539SOL     MW 2156   0.781   2.746   2.530  0.4627 -0.3585 -0.0310
  540SOL     OW 2157   0.340   2.293   2.890 -0.3061  0.2306  0.0864
  540SOL    HW1 2158   0.412   2.327   2.938 -3.3917  1.8454  1.7827
  540SOL    HW2 2159   0.295   2.237   2.954 -0.3574 -0.3170  0.7895
  540SOL     MW 2160   0.344   2.290   2.905 -0.7200  0.3714  0.4030
  541SOL     OW 2161   0.153   2.907   2.189 -0.0729 -0.2292 -0.3203
  541SOL    HW1 2162   0.166   2.842   2.120  1.5287 -0.6934 -0.9114
  541SOL    HW2 2163   0.170   2.859   2.272  1.0019 -0.4911  0.8860
  541SOL     MW 2164   0.157   2.892   2.191  0.2802 -0.3250 -0.2391
  542SOL     OW 2165   1.045   2.289   2.568  0.3054  0.7235  0.2268
  542SOL    HW1 2166   0.991   2.209   2.563 -1.2352 -2.2883  0.0152
  542SOL    HW2 2167   1.040   2.325   2.657 -0.2144  0.0962  0.0573
  542SOL     MW 2168   1.037   2.283   2.579  0.0336  0.2434  0.1766
  543SOL     OW 2169   1.428   2.513   2.701  0.3089 -0.1666  0.9629
  543SOL    HW1 2170   1.455   2.433   2.650  1.8621 -2.5786  1.1437
  543SOL    HW2 2171   1.506   2.568   2.689  1.1366  1.1927 -2.2450
  543SOL     MW 2172   1.442   2.510   2.693  0.6230 -0.3055  0.5635
  544SOL     OW 2173   0.591   0.244   2.700  0.2788  0.0845  0.0066
  544SOL    HW1 2174   0.500   0.216   2.726  2.8638  3.3185  0.4340
  544SOL    HW2 2175   0.617   0.177   2.634 -1.8023  0.0579  0.1867
  544SOL     MW 2176   0.583   0.232   2.694  0.3453  0.5077  0.0868
  545SOL     OW 2177   1.524   2.177   2.261  0.0169  0.3060  0.3559
  545SOL    HW1 2178   1.498   2.206   2.173 -0.3877  2.0856  0.9519
  545SOL    HW2 2179   1.617   2.141   2.252  3.0083  2.3896 -1.3849
  545SOL     MW 2180   1.533   2.176   2.248  0.3582  0.8157  0.2049
  546SOL     OW 2181   2.958   2.039   0.115 -0.2726 -0.1927  0.2040
  546SOL    HW1 2182   2.968   2.105   0.037  2.2482  0.3169  1.3141
  546SOL    HW2 2183   3.049   1.998   0.108  2.2447 -1.6195 -2.9343
  546SOL     MW 2184   2.971   2.042   0.104  0.3921 -0.3137 -0.0636
  547SOL     OW 2185   0.239   2.983   0.147  0.5108  0.0325 -0.4791
  547SOL    HW1 2186   0.244   3.043   0.074  1.7809  2.3100 -4.3360
  547SOL    HW2 2187   0.260   2.898   0.106  0.5528 -0.3596 -1.1574
  547SOL     MW 2188   0.242   2.980   0.132  0.6839  0.2813 -1.0775
  548SOL     OW 2189   0.312   2.545   0.239 -0.6012 -0.2175  0.0345
  548SOL    HW1 2190   0.308   2.598   0.160  0.4077  0.1856  1.4664
  548SOL    HW2 2191   0.265   2.468   0.219  0.2323 -0.2333  2.0589
  548SOL     MW 2192   0.305   2.542   0.226 -0.3581 -0.1664  0.4905
  549SOL     OW 2193   0.773   1.881   2.118  0.4256  0.1329  0.4781
  549SOL    HW1 2194   0.750   1.973   2.082 -0.9680  0.4577  2.6065
  549SOL    HW2 2195   0.777   1.897   2.211  2.4732  1.4959 -0.6073
  549SOL     MW 2196   0.770   1.895   2.126  0.5119  0.3556  0.6157
  550SOL     OW 2197   1.810   1.744   2.514 -0.2012 -0.1960  0.2266
  550SOL    HW1 2198   1.798   1.751   2.424  3.0298  0.9337 -0.5080
  550SOL    HW2 2199   1.793   1.828   2.558 -1.2839  1.5349  1.6863
  550SOL     MW 2200   1.806   1.756   2.508  0.0823  0.1814  0.3223
  551SOL     OW 2201   0.904   2.337   0.213  0.1380 -0.5091 -0.2693
  551SOL    HW1 2202   1.000   2.355   0.222  1.0973  1.2589 -0.5209
  551SOL    HW2 2203   0.890   2.292   0.129  1.5095 -0.7994 -1.7827
  551SOL     MW 2204   0.915   2.334   0.203  0.4455 -0.3142 -0.5022
  552SOL     OW 2205   1.739   1.756   2.231 -0.3164 -0.6631  0.3345
  552SOL    HW1 2206   1.670   1.699   2.263  0.0168 -2.0707  0.4427
  552SOL    HW2 2207   1.780   1.715   2.151  3.6209 -3.0394 -2.6353
  552SOL     MW 2208   1.735   1.743   2.225  0.2470 -1.1624 -0.0430
  553SOL     OW 2209   1.233   2.319   1.485 -0.4349 -0.0136 -0.2743
  553SOL    HW1 2210   1.235   2.222   1.473 -0.8653 -1.5159  0.9852
  553SOL    HW2 2211   1.317   2.357   1.477  1.3891 -2.1638 -1.8240
  553SOL     MW 2212   1.244   2.311   1.483 -0.2510 -0.4955 -0.3126
  554SOL     OW 2213   0.577   2.869   2.679 -0.7993  0.3135  0.0060
  554SOL    HW1 2214   0.522   2.929   2.628  3.1226  0.3910 -0.2914
  554SOL    HW2 2215   0.641   2.844   2.609  2.5771  1.1720  0.1504
  554SOL     MW 2216   0.578   2.874   2.663  0.1636  0.4370 -0.0142
  555SOL     OW 2217   0.601   2.435   2.584  0.0339 -0.1601  0.3689
  555SOL    HW1 2218   0.567   2.339   2.580 -2.1590 -0.6233 -0.4313
  555SOL    HW2 2219   0.689   2.431   2.541  3.6553 -0.6016 -2.9163
  555SOL     MW 2220   0.608   2.422   2.578  0.2224 -0.2794 -0.1702
  556SOL     OW 2221   0.923   1.770   0.158 -0.5513 -0.5539 -0.7147
  556SOL    HW1 2222   0.954   1.745   0.072 -0.7316  1.6156 -0.2512
  556SOL    HW2 2223   1.003   1.804   0.198 -0.9843 -1.5607  0.6540
  556SOL     MW 2224   0.937   1.771   0.152 -0.6323 -0.4005 -0.4729
  557SOL     OW 2225   0.969   2.710   0.499  0.1255 -0.3136 -0.6564
  557SOL    HW1 2226   1.010   2.668   0.428  1.0783  1.6632  2.2831
  557SOL    HW2 2227   0.898   2.760   0.462 -1.3640  0.8052 -1.6542
  557SOL     MW 2228   0.965   2.711   0.485  0.0547  0.0948 -0.4002
  558SOL     OW 2229   0.266   2.151   0.026  0.6548  0.1955 -0.3564
  558SOL    HW1 2230   0.211   2.079   0.049 -0.6892  1.2613 -1.4821
  558SOL    HW2 2231   0.222   2.233   0.055 -2.4074  0.4327 -2.8067
  558SOL     MW 2232   0.253   2.153   0.033  0.0734  0.3675 -0.8282
  559SOL     OW 2233   1.116   2.318   2.108 -0.2982  0.0982  0.6334
  559SOL    HW1 2234   1.174   2.389   2.121  0.1426  0.1089 -1.6849
  559SOL    HW2 2235   1.140   2.259   2.186  2.7088  1.8627  0.5358
  559SOL     MW 2236   1.127   2.320   2.120  0.1567  0.3324  0.3146
  560SOL     OW 2237   1.918   2.862   0.074  0.1729 -0.3120  0.6870
  560SOL    HW1 2238   1.984   2.899   0.009 -1.0527 -0.7963 -2.9807
  560SOL    HW2 2239   1.909   2.774   0.043  1.1441 -0.1278  1.0133
  560SOL     MW 2240   1.925   2.855   0.061  0.1394 -0.3516  0.2461
  561SOL     OW 2241   0.456   2.124   0.245 -0.1156  0.3622 -0.0141
  561SOL    HW1 2242   0.407   2.109   0.159  1.9510 -2.3303 -1.1525
  561SOL    HW2 2243   0.454   2.221   0.252  0.1036 -3.3760  2.0314
  561SOL     MW 2244   0.450   2.135   0.235  0.1860 -0.4862  0.1056
  562SOL     OW 2245   0.843   2.181   2.226 -0.2188  0.0311  0.3154
  562SOL    HW1 2246   0.878   2.265   2.211 -0.7605 -0.3989  0.0272
  562SOL    HW2 2247   0.922   2.128   2.251  0.4597  2.6268 -1.3036
  562SOL     MW 2248   0.858   2.185   2.227 -0.2008  0.3169  0.0638
  563SOL     OW 2249   1.133   0.311   0.637 -0.0609  0.1115 -0.3619
  563SOL    HW1 2250   1.064   0.277   0.578 -0.4913 -0.8744 -0.4798
  563SOL    HW2 2251   1.188   0.230   0.635 -0.8931 -1.0654 -1.5599
  563SOL     MW 2252   1.132   0.295   0.629 -0.2275 -0.1738 -0.5356
  564SOL     OW 2253   1.065   2.543   2.313  0.0924  0.2317 -0.5678
  564SOL    HW1 2254   1.109   2.583   2.231  0.0024  0.1886  0.3780
  564SOL    HW2 2255   1.131   2.552   2.383 -1.9029  1.4824  0.2029
  564SOL     MW 2256   1.080   2.550   2.311 -0.1827  0.3910 -0.3413
  565SOL     OW 2257   2.880   2.694   2.615  0.2540  0.0937  0.8381
  565SOL    HW1 2258   2.920   2.777   2.610 -1.4502  1.9610 -0.3088
  565SOL    HW2 2259   2.801   2.697   2.558 -1.9535  2.7987  0.3371
  565SOL     MW 2260   2.875   2.705   2.607 -0.2621  0.6970  0.6207
  566SOL     OW 2261   2.155   1.860   2.429 -0.1933  0.6086 -0.1377
  566SOL    HW1 2262   2.156   1.783   2.373 -0.7947  0.7940 -0.8536
  566SOL    HW2 2263   2.228   1.919   2.401 -3.3765 -0.0793  0.4675
  566SOL     MW 2264   2.165   1.857   2.418 -0.6927  0.5423 -0.1523
  567SOL     OW 2265   1.126   2.966   3.018 -0.0400  0.1685 -0.5694
  567SOL    HW1 2266   1.211   3.010   3.049  3.1714  0.1454  0.0372
  567SOL    HW2 2267   1.163   2.892   2.972 -0.3143  2.7059 -3.3599
  567SOL     MW 2268   1.142   2.962   3.016  0.3475  0.5002 -0.8575
  568SOL     OW 2269   1.602   2.074   2.917  0.4538  0.9042 -0.2161
  568SOL    HW1 2270   1.662   2.129   2.959 -2.1317 -0.1068  0.8232
  568SOL    HW2 2271   1.640   2.016   2.851  0.0348 -0.7126  0.3148
  568SOL     MW 2272   1.615   2.073   2.914  0.0573  0.5575 -0.0089
  569SOL     OW 2273   0.207   2.236   2.466 -0.0928 -0.0303  0.3085
  569SOL    HW1 2274   0.158   2.283   2.396  0.9465 -1.2874  3.1437
  569SOL    HW2 2275   0.209   2.289   2.549  0.9527  2.4353  0.5517
  569SOL     MW 2276   0.201   2.250   2.468  0.1823  0.1292  0.7146
  570SOL     OW 2277   1.478   0.436   0.484 -0.3526 -0.0895  0.2884
  570SOL    HW1 2278   1.419   0.429   0.555 -0.7944 -0.3113 -1.8030
  570SOL    HW2 2279   1.553   0.451   0.541  0.0344 -0.0166  1.8432
  570SOL     MW 2280   1.480   0.437   0.501 -0.3599 -0.1092  0.2176
  571SOL     OW 2281   1.493   2.399   1.995 -0.1724 -0.1474 -0.4593
  571SOL    HW1 2282   1.546   2.417   2.075 -0.8264  0.5210  2.4452
  571SOL    HW2 2283   1.497   2.304   1.980 -1.1612 -2.8540  0.0779
  571SOL     MW 2284   1.501   2.389   2.004 -0.3892 -0.4163 -0.0052
  572SOL     OW 2285   0.922   2.577   0.024  0.0008 -0.4217  0.4253
  572SOL    HW1 2286   0.920   2.618  -0.062  1.6111 -3.5798  0.9009
  572SOL    HW2 2287   0.831   2.562   0.051 -0.1492 -0.4401 -0.7700
  572SOL     MW 2288   0.910   2.580   0.016  0.1935 -0.8408  0.3303
  573SOL     OW 2289   1.164   2.373   0.263  0.9506 -0.0701 -0.0558
  573SOL    HW1 2290   1.251   2.373   0.221 -2.1587 -0.3619  0.3714
  573SOL    HW2 2291   1.138   2.461   0.274 -1.4441  0.1555  0.5300
  573SOL     MW 2292   1.172   2.384   0.259  0.2244 -0.0789  0.0778
  574SOL     OW 2293   1.063   2.620   0.261  0.0921  0.3337 -0.4854
  574SOL    HW1 2294   1.135   2.684   0.250 -2.1257  0.4394  0.4423
  574SOL    HW2 2295   1.023   2.623   0.176  1.4761  1.6107  1.0402
  574SOL     MW 2296   1.067   2.629   0.248 -0.0179  0.5161 -0.1617
  575SOL     OW 2297   3.094   2.311   1.783 -0.0130  0.3355  0.2157
  575SOL    HW1 2298   3.107   2.224   1.734  1.0080  1.1338 -0.6095
  575SOL    HW2 2299   3.154   2.375   1.739  0.3579 -1.1947 -3.8637
  575SOL     MW 2300   3.104   2.308   1.770  0.1706  0.2390 -0.4314
  576SOL     OW 2301   2.888   1.805   2.029  0.3117  0.0592 -0.1472
  576SOL    HW1 2302   2.907   1.891   1.979 -0.3928  1.2000 -0.3337
  576SOL    HW2 2303   2.815   1.768   1.982 -1.6177  1.0463  1.3104
  576SOL     MW 2304   2.881   1.812   2.016 -0.0358  0.3400  0.0205
  577SOL     OW 2305   2.135   0.257   0.058 -0.2226 -0.4719 -0.0687
  577SOL    HW1 2306   2.072   0.259  -0.014 -0.0630 -3.1457  0.2295
  577SOL    HW2 2307   2.086   0.198   0.130  1.4802 -0.8559  3.5267
  577SOL     MW 2308   2.120   0.250   0.058  0.0232 -0.8753  0.4451
  578SOL     OW 2309   1.912   2.045   2.441  0.0173 -0.5000 -0.6097
  578SOL    HW1 2310   1.873   2.073   2.363 -1.0051 -0.0561  1.2678
  578SOL    HW2 2311   1.989   1.997   2.418  0.4796  0.9984  1.1763
  578SOL     MW 2312   1.917   2.043   2.427 -0.0566 -0.2437 -0.1263
  579SOL     OW 2313   0.875   2.486   2.498 -0.3489  0.5977 -0.1403
  579SOL    HW1 2314   0.927   2.415   2.540  2.7713  0.4776 -1.1311
  579SOL    HW2 2315   0.949   2.519   2.444  1.5879  1.0916  1.7611
  579SOL     MW 2316   0.892   2.481   2.496  0.3183  0.6470 -0.0202
  580SOL     OW 2317   0.877   2.991   0.020  0.9025  0.0608  0.2210
  580SOL    HW1 2318   0.973   2.978   0.003 -1.0626 -0.8832 -0.7877
  580SOL    HW2 2319   0.835   2.933  -0.043  1.2269  0.4662 -0.1622
  580SOL     MW 2320   0.884   2.981   0.009  0.6860 -0.0103  0.0373
  581SOL     OW 2321   1.131   2.458   1.707  0.2058 -0.1072  0.1486
  581SOL    HW1 2322   1.198   2.520   1.721  0.7505 -0.2513  0.4614
  581SOL    HW2 2323   1.168   2.409   1.634  2.5396 -0.7775  2.5666
  581SOL     MW 2324   1.145   2.460   1.699  0.5856 -0.2147  0.5089
  582SOL     OW 2325   3.075   2.871   2.527 -0.2247  0.1153  0.6052
  582SOL    HW1 2326   3.045   2.956   2.561 -0.7710 -1.7930 -0.7940
  582SOL    HW2 2327   3.168   2.867   2.553 -0.9344 -0.7304 -0.7285
  582SOL     MW 2328   3.083   2.882   2.535 -0.3904 -0.2481  0.2447
  583SOL     OW 2329   1.977   2.379   2.654  0.7325 -0.2402  0.6412
  583SOL    HW1 2330   2.066   2.392   2.622  1.9092 -2.0421  1.4424
  583SOL    HW2 2331   1.979   2.288   2.689 -2.1960 -0.3479 -1.1479
  583SOL     MW 2332   1.989   2.369   2.654  0.5014 -0.4922  0.5108
  584SOL     OW 2333   0.177   1.886   2.120 -0.5720 -0.7178  0.1316
  584SOL    HW1 2334   0.259   1.895   2.062 -0.1475 -1.0734 -0.2691
  584SOL    HW2 2335   0.199   1.918   2.206 -1.9781  3.1112 -2.1194
  584SOL     MW 2336   0.191   1.891   2.124 -0.7015 -0.2595 -0.2183
  585SOL     OW 2337   1.437   2.655   0.107 -0.1114  0.0803  0.6745
  585SOL    HW1 2338   1.415   2.585   0.049 -0.0623 -2.7578 -1.2084
  585SOL    HW2 2339   1.356   2.677   0.157 -0.9838 -2.0519  0.1587
  585SOL     MW 2340   1.424   2.648   0.106 -0.2200 -0.5755  0.3580
  586SOL     OW 2341   1.415   2.813   2.480  0.0743 -0.3134  0.0148
  586SOL    HW1 2342   1.444   2.751   2.412  1.4533 -2.0582 -1.0540
  586SOL    HW2 2343   1.455   2.903   2.463  2.6007 -0.9629  1.5529
  586SOL     MW 2344   1.424   2.816   2.469  0.5895 -0.6293  0.0767
  587SOL     OW 2345   1.301   1.565   2.184  0.2293 -0.1021  0.3159
  587SOL    HW1 2346   1.282   1.504   2.257 -1.3427  1.3148  0.2464
  587SOL    HW2 2347   1.320   1.506   2.111 -0.8165 -0.0752 -0.7676
  587SOL     MW 2348   1.301   1.549   2.184 -0.1161  0.0884  0.1638
  588SOL     OW 2349   1.385   2.137   2.749  0.3811  0.0366 -0.0365
  588SOL    HW1 2350   1.462   2.114   2.799 -2.0382  1.2312  0.7596
  588SOL    HW2 2351   1.302   2.152   2.796 -1.3619  1.5648 -0.7206
  588SOL     MW 2352   1.384   2.136   2.762 -0.1681  0.3959 -0.0217
  589SOL     OW 2353   1.299   2.066   0.067 -0.6447 -0.4153  0.1822
  589SOL    HW1 2354   1.328   2.152   0.102 -0.5808  1.3494 -0.8344
  589SOL    HW2 2355   1.250   2.016   0.133 -1.4020  0.4822  0.4105
  589SOL     MW 2356   1.296   2.071   0.080 -0.7362 -0.0641  0.0782
  590SOL     OW 2357   0.443   2.670   2.233 -0.2684  0.6086 -0.8896
  590SOL    HW1 2358   0.425   2.647   2.136  1.0794 -0.4413  0.5176
  590SOL    HW2 2359   0.528   2.718   2.251  1.8126 -1.8090 -1.0336
  590SOL     MW 2360   0.452   2.673   2.222  0.1840  0.1511 -0.7229
  591SOL     OW 2361   2.279   0.728   3.072 -0.4531 -0.1732  0.3307
  591SOL    HW1 2362   2.229   0.796   3.019  0.0851 -0.1848  2.0854
  591SOL    HW2 2363   2.373   0.741   3.046  3.5955 -0.4536  0.6675
  591SOL     MW 2364   2.285   0.739   3.061  0.1521 -0.2117  0.6066
  592SOL     OW 2365   1.804   2.929   0.827 -0.1417  0.2433  0.0490
  592SOL    HW1 2366   1.809   2.996   0.759  1.2254 -0.6241 -0.4944
  592SOL    HW2 2367   1.874   2.866   0.811 -0.7615 -0.1847 -2.4012
  592SOL     MW 2368   1.814   2.930   0.816 -0.0431  0.0724 -0.3460
  593SOL     OW 2369   1.899   0.702   0.890  0.2687 -0.4908 -0.0901
  593SOL    HW1 2370   1.821   0.711   0.833 -0.6572 -2.2102  1.5413
  593SOL    HW2 2371   1.916   0.608   0.892  3.3594  0.0750  0.5099
  593SOL     MW 2372   1.891   0.691   0.883  0.5543 -0.6430  0.2043
  594SOL     OW 2373   2.789   1.168   1.349  0.3803 -0.1395  0.4891
  594SOL    HW1 2374   2.880   1.189   1.368  1.8102  0.5158  0.8985
  594SOL    HW2 2375   2.794   1.110   1.271  2.1924  0.9748 -1.5396
  594SOL     MW 2376   2.801   1.163   1.341  0.8080  0.0940  0.2755
  595SOL     OW 2377   0.495   0.965   0.764 -0.3697 -0.6077  0.2871
  595SOL    HW1 2378   0.522   1.042   0.708  1.2486 -1.6544  3.6262
  595SOL    HW2 2379   0.502   0.998   0.855  3.3224  2.0275  1.0349
  595SOL     MW 2380   0.499   0.980   0.769  0.3310 -0.3981  0.8264
  596SOL     OW 2381   2.488   1.358   0.536 -0.8338 -0.0188  0.2766
  596SOL    HW1 2382   2.560   1.404   0.484  2.4419  3.0182  0.3848
  596SOL    HW2 2383   2.540   1.314   0.609  2.1139 -0.9757 -1.0643
  596SOL     MW 2384   2.505   1.358   0.539 -0.0127  0.2557  0.1140
  597SOL     OW 2385   2.196   0.704   1.592 -0.3106  0.3695 -0.6054
  597SOL    HW1 2386   2.234   0.642   1.654 -1.5693  0.1001  0.0120
  597SOL    HW2 2387   2.131   0.649   1.545  3.6410 -1.1575 -1.6520
  597SOL     MW 2388   2.193   0.689   1.594  0.0447  0.1325 -0.6620
  598SOL     OW 2389   2.607   0.975   2.854  0.2128  0.0054 -0.1928
  598SOL    HW1 2390   2.603   0.956   2.756  1.4228  1.7646 -1.7333
  598SOL    HW2 2391   2.689   1.021   2.863 -0.1645  1.4737 -0.4572
  598SOL     MW 2392   2.617   0.979   2.842  0.3227  0.4312 -0.4310
  599SOL     OW 2393   2.955   0.404   2.074  0.4882  0.2464 -0.6377
  599SOL    HW1 2394   2.913   0.401   2.162  0.6840 -1.7967  0.1619
  599SOL    HW2 2395   3.004   0.492   2.055 -1.1712  0.5819  0.5187
  599SOL     MW 2396   2.956   0.415   2.083  0.2951  0.0211 -0.3796
  600SOL     OW 2397   1.924   1.726   0.869  0.1271 -1.0247 -0.2523
  600SOL    HW1 2398   1.948   1.749   0.958  1.6338 -1.7477 -3.2513
  600SOL    HW2 2399   1.828   1.718   0.860  2.4725 -3.0204 -4.4026
  600SOL     MW 2400   1.915   1.728   0.880  0.6354 -1.3834 -1.1956
  601SOL     OW 2401   2.533   0.778   0.829  0.3062  0.1306 -0.1177
  601SOL    HW1 2402   2.545   0.778   0.930  2.6737 -1.3628  3.1832
  601SOL    HW2 2403   2.445   0.734   0.816 -0.9154  1.6034  1.5675
  601SOL     MW 2404   2.523   0.772   0.841  0.4574  0.1279  0.5402
  602SOL     OW 2405   2.321   1.946   0.834  0.3357 -0.2544  0.1548
  602SOL    HW1 2406   2.289   1.860   0.866 -0.1409  0.4218  0.4160
  602SOL    HW2 2407   2.246   1.990   0.795 -1.4642  0.3804 -0.3843
  602SOL     MW 2408   2.307   1.940   0.833  0.0354 -0.0815  0.1182
  603SOL     OW 2409   3.056   1.392   1.816  0.1790  0.5515  0.1380
  603SOL    HW1 2410   3.135   1.425   1.859  1.1919  0.2049  1.6993
  603SOL    HW2 2411   3.056   1.305   1.860  0.7028 -2.0346 -2.6649
  603SOL     MW 2412   3.066   1.385   1.828  0.3817  0.1646 -0.0258
  604SOL     OW 2413   2.156   1.551   0.464  0.1413 -0.0457  0.0041
  604SOL    HW1 2414   2.206   1.493   0.524  0.3629  0.8253  0.9087
  604SOL    HW2 2415   2.075   1.574   0.510  2.6679  0.7997 -3.4895
  604SOL     MW 2416   2.152   1.546   0.478  0.5039  0.1808 -0.3375
  605SOL     OW 2417   2.622   1.553   0.827 -0.4498  0.2797 -0.0053
  605SOL    HW1 2418   2.583   1.638   0.791 -3.3723  1.8622  1.4691
  605SOL    HW2 2419   2.565   1.483   0.794  0.0252  2.6113 -0.7572
  605SOL     MW 2420   2.609   1.555   0.818 -0.7727  0.7961  0.0900
  606SOL     OW 2421   2.597   1.853   1.894 -0.2224 -0.1120 -0.2345
  606SOL    HW1 2422   2.503   1.837   1.913 -1.2024  2.2876  2.0738
  606SOL    HW2 2423   2.621   1.764   1.866 -0.6398 -2.2173  1.7045
  606SOL     MW 2424   2.587   1.839   1.892 -0.4067 -0.0731  0.3259
  607SOL     OW 2425   2.354   1.033   3.047  0.3451  0.3751 -0.0289
  607SOL    HW1 2426   2.436   0.985   3.021 -0.2702 -1.1453 -1.7645
  607SOL    HW2 2427   2.359   1.036   3.148 -1.3518 -0.5107  1.8146
  607SOL     MW 2428   2.366   1.027   3.057  0.0401  0.0576 -0.0146
  608SOL     OW 2429   1.900   0.297   0.623 -0.3022  0.1143  0.0960
  608SOL    HW1 2430   1.908   0.353   0.542  0.7304 -0.7968  0.7673
  608SOL    HW2 2431   1.849   0.215   0.601 -3.0899 -0.7467  3.9305
  608SOL     MW 2432   1.894   0.294   0.609 -0.5337 -0.1195  0.6905
  609SOL     OW 2433   2.096   2.009   3.047 -0.4817  0.1072 -0.1622
  609SOL    HW1 2434   2.019   1.956   3.045  1.4612 -0.4940  0.4310
  609SOL    HW2 2435   2.153   1.988   3.124 -1.0878  0.0961 -0.0379
  609SOL     MW 2436   2.093   1.999   3.057 -0.3054  0.0264 -0.0676
  610SOL     OW 2437   1.785   1.025   1.263  0.5593  0.0498 -0.0103
  610SOL    HW1 2438   1.802   0.960   1.196 -0.1409  2.7043  0.0526
  610SOL    HW2 2439   1.693   1.017   1.262  1.2334 -0.6981  0.3350
  610SOL     MW 2440   1.775   1.015   1.254  0.5558  0.3013  0.0436
  611SOL     OW 2441   2.535   1.765   0.695  0.0895  0.3790 -0.4560
  611SOL    HW1 2442   2.455   1.814   0.683  0.7843  0.6891  1.9873
  611SOL    HW2 2443   2.549   1.743   0.602  0.5545 -2.1155  1.4546
  611SOL     MW 2444   2.526   1.768   0.681  0.2425  0.0908  0.1185
  612SOL     OW 2445   2.799   2.834   0.398 -0.3015  0.0590  0.6401
  612SOL    HW1 2446   2.839   2.867   0.479  2.2540 -1.3468 -0.6513
  612SOL    HW2 2447   2.871   2.782   0.360 -1.7640  0.7361 -0.7395
  612SOL     MW 2448   2.814   2.832   0.404 -0.1573 -0.0372  0.2877
  613SOL     OW 2449   1.488   1.022   0.939  0.2859  0.5224  0.3844
  613SOL    HW1 2450   1.504   1.115   0.956  0.1704 -0.5156  0.0226
  613SOL    HW2 2451   1.511   0.979   1.020  0.8393  1.6450 -0.3300
  613SOL     MW 2452   1.493   1.029   0.952  0.3436  0.5336  0.2424
  614SOL     OW 2453   1.987   0.533   1.489  0.4566  0.3824 -0.4284
  614SOL    HW1 2454   2.018   0.447   1.515 -0.1841  0.2193  0.0213
  614SOL    HW2 2455   1.987   0.526   1.394  0.0949 -2.0977 -0.2354
  614SOL     MW 2456   1.991   0.521   1.480  0.3243  0.0337 -0.3436
  615SOL     OW 2457   2.378   0.724   0.301 -0.2708 -0.3626  0.0656
  615SOL    HW1 2458   2.465   0.684   0.310  0.8240  0.7935 -0.8338
  615SOL    HW2 2459   2.363   0.706   0.207  0.2588 -0.0100 -0.9770
  615SOL     MW 2460   2.388   0.717   0.290 -0.0565 -0.1635 -0.1906
  616SOL     OW 2461   2.499   0.447   1.599 -0.3983 -0.0448 -0.2965
  616SOL    HW1 2462   2.474   0.356   1.574  1.4173  0.6706  0.1538
  616SOL    HW2 2463   2.469   0.510   1.533 -0.5617  1.7119  0.4915
  616SOL     MW 2464   2.492   0.443   1.587 -0.1803  0.2814 -0.1331
  617SOL     OW 2465   2.925   0.533   1.739  0.1211 -0.0924 -0.4676
  617SOL    HW1 2466   2.831   0.556   1.761  1.0877  3.1117  3.6293
  617SOL    HW2 2467   2.916   0.453   1.680 -1.8671  3.1104 -2.0634
  617SOL     MW 2468   2.911   0.526   1.734 -0.0137  0.7530 -0.1376
  618SOL     OW 2469   2.728   0.345   1.909  0.8179  0.2182 -0.7135
  618SOL    HW1 2470   2.692   0.431   1.894  1.2960  1.0780  2.3110
  618SOL    HW2 2471   2.810   0.372   1.947  0.9104 -3.0309  0.1949
  618SOL     MW 2472   2.734   0.360   1.912  0.8932 -0.0971 -0.1946
  619SOL     OW 2473   2.679   0.657   0.114  0.3070  0.1251  0.0527
  619SOL    HW1 2474   2.703   0.739   0.156 -0.4584  1.3126 -0.7146
  619SOL    HW2 2475   2.663   0.591   0.181 -0.4239  0.7845 -1.0732
  619SOL     MW 2476   2.680   0.659   0.128  0.1096  0.3688 -0.1971
  620SOL     OW 2477   2.312   1.036   1.003 -0.3264 -0.2010 -0.4806
  620SOL    HW1 2478   2.356   1.014   0.922  0.8274  0.0674  1.1754
  620SOL    HW2 2479   2.236   0.986   1.006 -0.9439  0.0814  1.9670
  620SOL     MW 2480   2.308   1.027   0.993 -0.2556 -0.1284  0.0608
  621SOL     OW 2481   1.500   2.133   1.953  0.9669  0.1993  0.4146
  621SOL    HW1 2482   1.441   2.076   2.008 -0.3715  2.2492 -2.3491
  621SOL    HW2 2483   1.595   2.107   1.960 -0.1882 -0.4431 -2.6421
  621SOL     MW 2484   1.505   2.122   1.961  0.6379  0.3850 -0.3533
  622SOL     OW 2485   2.603   0.159   0.278  0.8383 -0.2790 -0.1031
  622SOL    HW1 2486   2.694   0.182   0.256 -1.3846  0.3659  1.0043
  622SOL    HW2 2487   2.603   0.067   0.303 -0.7103  1.5949  1.3668
  622SOL     MW 2488   2.615   0.150   0.278  0.3407  0.0533  0.2369
  623SOL     OW 2489   2.361   2.824   0.875 -0.5795  0.0509 -0.1716
  623SOL    HW1 2490   2.443   2.885   0.866  0.5715 -2.9859 -0.6342
  623SOL    HW2 2491   2.301   2.852   0.949 -0.7757 -0.3046  1.1725
  623SOL     MW 2492   2.364   2.835   0.884 -0.4535 -0.3967 -0.0553
  624SOL     OW 2493   2.162   1.738   3.008  0.1047  0.3814  0.1626
  624SOL    HW1 2494   2.133   1.650   3.015 -1.4415  0.3583 -3.4168
  624SOL    HW2 2495   2.082   1.792   2.982  0.2171 -1.2221 -0.4912
  624SOL     MW 2496   2.148   1.733   3.005 -0.0845  0.1668 -0.3959
  625SOL     OW 2497   2.201   1.972   1.120 -0.4967 -0.6737  0.0689
  625SOL    HW1 2498   2.297   1.964   1.142  0.2383  1.3868  2.3313
  625SOL    HW2 2499   2.211   1.998   1.030  2.8088 -1.0985  1.0756
  625SOL     MW 2500   2.215   1.975   1.111  0.0364 -0.4579  0.5002
  626SOL     OW 2501   0.253   1.612   2.374  0.9798  0.1560  0.2319
  626SOL    HW1 2502   0.249   1.514   2.380 -0.6082  0.7437  0.5248
  626SOL    HW2 2503   0.172   1.636   2.417  2.8020 -0.9240 -1.4339
  626SOL     MW 2504   0.241   1.602   2.380  1.0107  0.0910  0.0508
  627SOL     OW 2505   2.458   0.784   2.648  0.3052 -0.0977 -0.4047
  627SOL    HW1 2506   2.408   0.858   2.614 -0.3630  0.9588  0.6258
  627SOL    HW2 2507   2.436   0.716   2.588 -0.6153 -1.3504  2.0308
  627SOL     MW 2508   2.448   0.785   2.636  0.0956 -0.1236  0.0526
  628SOL     OW 2509   2.314   1.356   1.385  0.8148  0.3902 -0.0529
  628SOL    HW1 2510   2.279   1.291   1.318  1.1884  0.5712  0.7604
  628SOL    HW2 2511   2.413   1.362   1.371 -0.6168 -0.7312  1.1796
  628SOL     MW 2512   2.323   1.348   1.374  0.6752  0.2661  0.2170
  629SOL     OW 2513   1.866   0.550   1.198  0.0634 -0.3117 -0.0181
  629SOL    HW1 2514   1.861   0.643   1.176 -2.1878 -0.1866 -1.8764
  629SOL    HW2 2515   1.781   0.538   1.237 -1.5294 -0.5814 -0.7477
  629SOL     MW 2516   1.854   0.560   1.200 -0.4438 -0.3308 -0.3595
  630SOL     OW 2517   2.446   1.804   3.013  0.1065 -0.2182 -0.6317
  630SOL    HW1 2518   2.445   1.865   2.934  1.6842 -1.2749 -0.8721
  630SOL    HW2 2519   2.351   1.802   3.034 -1.1147  0.2119 -0.4021
  630SOL     MW 2520   2.433   1.812   3.005  0.1535 -0.3008 -0.6332
  631SOL     OW 2521   1.954   1.842   1.586  0.4634  0.1307  0.2071
  631SOL    HW1 2522   1.972   1.769   1.647 -2.0038 -1.3360  0.7135
  631SOL    HW2 2523   1.933   1.800   1.504 -1.4595 -0.6471 -0.3166
  631SOL     MW 2524   1.953   1.827   1.583 -0.1159 -0.1654  0.2048
  632SOL     OW 2525   0.148   2.010   1.473 -0.0650 -0.8878 -0.2233
  632SOL    HW1 2526   0.102   2.036   1.557  0.4608  2.4224  2.5965
  632SOL    HW2 2527   0.150   1.918   1.475 -2.3429  1.1829 -0.2019
  632SOL     MW 2528   0.142   2.002   1.485 -0.2962 -0.1778  0.1515
  633SOL     OW 2529   2.602   0.538   0.369  0.0305 -0.8488  0.1053
  633SOL    HW1 2530   2.672   0.511   0.437  0.2786  1.0325  2.8805
  633SOL    HW2 2531   2.533   0.481   0.394 -0.0345 -0.8097 -2.5989
  633SOL     MW 2532   2.602   0.527   0.381  0.0547 -0.5954  0.1147
  634SOL     OW 2533   2.697   3.063   0.617  0.0814  0.4874  0.0115
  634SOL    HW1 2534   2.717   3.157   0.622  1.5247  2.9756 -0.4819
  634SOL    HW2 2535   2.657   3.048   0.530 -0.9219 -1.3257 -0.4800
  634SOL     MW 2536   2.694   3.073   0.606  0.1394  0.5765 -0.1185
  635SOL     OW 2537   2.617   0.112   1.844 -0.1023  0.4189 -0.1291
  635SOL    HW1 2538   2.670   0.044   1.798  3.3140 -0.7328 -0.9559
  635SOL    HW2 2539   2.672   0.189   1.859  2.7329  1.0647  1.7298
  635SOL     MW 2540   2.631   0.113   1.840  0.7226  0.3522  0.0071
  636SOL     OW 2541   2.913   1.658   1.130 -0.5950 -0.9431  0.0262
  636SOL    HW1 2542   2.829   1.705   1.138  1.7125  0.6918  1.6017
  636SOL    HW2 2543   2.973   1.729   1.099 -0.2331  0.9188 -2.2906
  636SOL     MW 2544   2.910   1.674   1.127 -0.2428 -0.4817 -0.0716
  637SOL     OW 2545   2.866   1.476   0.695  0.8496 -0.0950  0.5694
  637SOL    HW1 2546   2.930   1.547   0.690 -0.6253  1.5806 -0.6727
  637SOL    HW2 2547   2.788   1.507   0.748 -1.0491  0.5736  0.2077
  637SOL     MW 2548   2.864   1.489   0.701  0.4045  0.2143  0.3578
  638SOL     OW 2549   2.789   0.477   0.561  0.1214  0.3440  0.1756
  638SOL    HW1 2550   2.875   0.501   0.521  2.4742  2.6762  0.0519
  638SOL    HW2 2551   2.783   0.524   0.644 -2.7559 -1.2854  2.2899
  638SOL     MW 2552   2.800   0.487   0.567  0.0522  0.4367  0.4382
  639SOL     OW 2553   1.776   0.054   0.583 -0.0896 -0.0731  0.7372
  639SOL    HW1 2554   1.678   0.077   0.582 -0.0466  0.0174  2.1186
  639SOL    HW2 2555   1.782  -0.021   0.517  1.2774  0.0558 -1.0641
  639SOL     MW 2556   1.764   0.047   0.574  0.0964 -0.0442  0.6818
  640SOL     OW 2557   0.375   1.311   0.119  0.0324 -0.5107  0.1005
  640SOL    HW1 2558   0.403   1.321   0.027  0.0427 -2.4983 -0.8548
  640SOL    HW2 2559   0.307   1.243   0.117  0.5839  0.1184  1.8797
  640SOL     MW 2560   0.369   1.303   0.106  0.1065 -0.6899  0.2092
  641SOL     OW 2561   2.205   0.415   0.321 -0.6107 -0.1318 -0.2285
  641SOL    HW1 2562   2.261   0.457   0.259 -3.1516  1.1637 -1.3495
  641SOL    HW2 2563   2.217   0.320   0.299 -0.5389 -1.1574 -2.8024
  641SOL     MW 2564   2.214   0.408   0.310 -0.9365 -0.0962 -0.7160
  642SOL     OW 2565   0.056   3.085   0.587  0.5291  0.2056  0.2364
  642SOL    HW1 2566   0.035   3.169   0.540 -0.9835 -0.8950 -2.3217
  642SOL    HW2 2567  -0.030   3.038   0.600 -1.3410  0.8628  1.7227
  642SOL     MW 2568   0.042   3.090   0.583  0.0828  0.1471  0.0950
  643SOL     OW 2569   2.074   0.328   1.642 -0.1310  0.1251  0.1266
  643SOL    HW1 2570   2.001   0.314   1.697 -1.9413  0.9635 -2.3935
  643SOL    HW2 2571   2.079   0.269   1.570  0.1586  1.8133  1.3710
  643SOL     MW 2572   2.065   0.319   1.640 -0.3316  0.4585 -0.0417
  644SOL     OW 2573   2.737   2.017   1.039 -0.3835  0.7008 -0.2076
  644SOL    HW1 2574   2.734   1.930   1.081  1.6814 -0.7153 -0.6710
  644SOL    HW2 2575   2.648   2.040   1.022  2.5704 -0.2003 -0.0789
  644SOL     MW 2576   2.725   2.009   1.042  0.2787  0.3951 -0.2517
  645SOL     OW 2577   2.859   0.838   0.668  0.1152 -0.4314  0.0644
  645SOL    HW1 2578   2.948   0.824   0.683 -0.0579 -1.7554 -0.6017
  645SOL    HW2 2579   2.812   0.756   0.676  1.5412  1.3621 -0.0342
  645SOL     MW 2580   2.864   0.825   0.671  0.2805 -0.3694 -0.0365
  646SOL     OW 2581   0.188   2.291   0.777 -0.3084  0.4284  0.2114
  646SOL    HW1 2582   0.207   2.209   0.826  1.0807 -2.1942  2.0789
  646SOL    HW2 2583   0.112   2.297   0.725 -0.3807  1.9768  0.1618
  646SOL     MW 2584   0.180   2.281   0.776 -0.1347  0.2867  0.4512
  647SOL     OW 2585   2.671   0.488   2.980 -0.0564  0.2584 -0.0111
  647SOL    HW1 2586   2.625   0.429   3.043 -1.1547 -0.0176 -1.7212
  647SOL    HW2 2587   2.634   0.574   2.979 -1.5309 -0.6670 -1.0528
  647SOL     MW 2588   2.660   0.491   2.988 -0.3959  0.0999 -0.3742
  648SOL     OW 2589   2.135   0.733   1.191  0.0286  0.3256  0.7030
  648SOL    HW1 2590   2.127   0.771   1.105 -0.8743 -0.8555  3.3697
  648SOL    HW2 2591   2.146   0.810   1.248  1.8982 -2.0101 -0.5201
  648SOL     MW 2592   2.136   0.748   1.187  0.1561 -0.1384  0.8934
  649SOL     OW 2593   2.334   2.725   1.285  0.4595 -0.1129 -0.2825
  649SOL    HW1 2594   2.398   2.787   1.319  1.3593 -1.3872  0.4529
  649SOL    HW2 2595   2.373   2.638   1.279  3.0814 -2.5915 -0.8418
  649SOL     MW 2596   2.347   2.722   1.289  0.9241 -0.6081 -0.2592
  650SOL     OW 2597   2.805   0.219   0.634  0.3223  0.1005 -0.2900
  650SOL    HW1 2598   2.790   0.311   0.648  0.2685  0.0296 -2.4792
  650SOL    HW2 2599   2.897   0.210   0.594  0.6491 -4.6857  0.3033
  650SOL     MW 2600   2.815   0.230   0.630  0.3583 -0.5403 -0.5005
  651SOL     OW 2601   2.988   0.404   0.819 -0.8053 -0.2305  0.6117
  651SOL    HW1 2602   3.048   0.473   0.777  0.8578  1.2106  1.9856
  651SOL    HW2 2603   2.944   0.450   0.894 -2.6360 -0.4739  1.2309
  651SOL     MW 2604   2.990   0.419   0.823 -0.8274 -0.0725  0.8747
  652SOL     OW 2605   2.430   1.481   2.959  0.3816  0.4961 -0.3401
  652SOL    HW1 2606   2.498   1.479   2.894 -0.3714  0.1529  1.2289
  652SOL    HW2 2607   2.409   1.578   2.957 -1.4085 -0.6723  0.3566
  652SOL     MW 2608   2.436   1.494   2.950  0.0461  0.2967 -0.0412
  653SOL     OW 2609   1.898   0.422   0.394  0.3267  0.2376 -0.0543
  653SOL    HW1 2610   1.863   0.387   0.315  2.0289 -0.9703  0.7648
  653SOL    HW2 2611   1.989   0.411   0.384 -0.1651 -1.6787  1.6670
  653SOL     MW 2612   1.905   0.416   0.382  0.4864 -0.1746  0.2809
  654SOL     OW 2613   2.418   1.052   0.732 -0.3575  0.0295  0.0685
  654SOL    HW1 2614   2.337   1.052   0.683  0.3096  1.3973 -1.3950
  654SOL    HW2 2615   2.458   0.966   0.721 -0.9463  0.3418  1.6625
  654SOL     MW 2616   2.413   1.041   0.724 -0.3471  0.2512  0.0857
  655SOL     OW 2617   2.896   0.858   0.379 -0.4686 -0.8776 -0.5112
  655SOL    HW1 2618   2.873   0.904   0.460  0.2130  1.2039 -1.1153
  655SOL    HW2 2619   2.903   0.762   0.407  1.1929 -0.7743  1.5076
  655SOL     MW 2620   2.894   0.851   0.394 -0.1595 -0.5893 -0.3246
  656SOL     OW 2621   1.856   2.729   1.311 -0.7724 -0.1721  0.1444
  656SOL    HW1 2622   1.905   2.785   1.246  1.9218 -0.7393 -1.4028
  656SOL    HW2 2623   1.925   2.719   1.381  0.2305 -0.8235  2.7649
  656SOL     MW 2624   1.871   2.735   1.312 -0.2846 -0.3329  0.2860
  657SOL     OW 2625   0.138   1.692   1.268  0.0319  0.5977 -0.1132
  657SOL    HW1 2626   0.186   1.744   1.203 -1.4567  0.4304  0.8398
  657SOL    HW2 2627   0.162   1.603   1.243 -0.4982  0.3429  0.2932
  657SOL     MW 2628   0.147   1.687   1.256 -0.2345  0.5420  0.0661
  658SOL     OW 2629   2.724   1.318   0.225  0.2391  0.3045  0.1626
  658SOL    HW1 2630   2.673   1.252   0.271  0.3377  0.6721 -3.2018
  658SOL    HW2 2631   2.753   1.368   0.300 -1.0544 -0.1886 -0.1662
  658SOL     MW 2632   2.721   1.315   0.241  0.0814  0.2880 -0.3247
  659SOL     OW 2633   2.267   1.498   1.083 -0.0400  0.4428  0.4085
  659SOL    HW1 2634   2.362   1.484   1.090  0.0531  1.4029  3.1754
  659SOL    HW2 2635   2.249   1.531   1.168  1.7652  0.4360 -0.6711
  659SOL     MW 2636   2.277   1.500   1.095  0.2105  0.5686  0.6311
  660SOL     OW 2637   2.047   1.603   1.703  0.4191  0.1500 -0.6491
  660SOL    HW1 2638   2.046   1.610   1.800 -0.8996  0.9803 -0.9175
  660SOL    HW2 2639   1.959   1.560   1.690 -0.5413 -1.0638  0.2388
  660SOL     MW 2640   2.035   1.598   1.714  0.1184  0.0994 -0.5673
  661SOL     OW 2641   2.377   1.001   0.223  0.4512 -0.2455 -0.0303
  661SOL    HW1 2642   2.440   1.053   0.283  0.4267  2.4241  1.2811
  661SOL    HW2 2643   2.366   0.915   0.261  1.0694 -0.8369  0.2185
  661SOL     MW 2644   2.384   0.997   0.236  0.5296  0.0287  0.1755
  662SOL     OW 2645   2.575   2.969   0.858  0.3743 -0.3092 -0.1022
  662SOL    HW1 2646   2.519   3.030   0.903  3.1726  0.3721  0.0334
  662SOL    HW2 2647   2.592   3.010   0.773 -0.7821 -0.8514 -0.1812
  662SOL     MW 2648   2.570   2.983   0.853  0.5909 -0.2908 -0.0947
  663SOL     OW 2649   2.733   1.472   0.451 -0.6045  0.1198  0.5531
  663SOL    HW1 2650   2.678   1.554   0.438 -1.5738 -1.5970 -1.1294
  663SOL    HW2 2651   2.778   1.489   0.536  0.5199  0.4332  1.7487
  663SOL     MW 2652   2.732   1.485   0.461 -0.5840 -0.0654  0.4888
  664SOL     OW 2653   2.503   1.534   1.605  0.0973  0.2683  0.3449
  664SOL    HW1 2654   2.461   1.620   1.588  0.6339 -1.5233  0.3722
  664SOL    HW2 2655   2.428   1.476   1.618  1.9556 -2.1420 -1.1905
  664SOL     MW 2656   2.487   1.538   1.604  0.4133 -0.2861  0.1459
  665SOL     OW 2657   2.850   0.880   2.016 -0.3315 -0.0378 -0.3032
  665SOL    HW1 2658   2.800   0.914   1.940  0.3267 -0.6520  3.2213
  665SOL    HW2 2659   2.923   0.826   1.991  0.1944 -0.8641  0.0483
  665SOL     MW 2660   2.853   0.877   2.003 -0.1753 -0.2279  0.2082
  666SOL     OW 2661   2.757   3.022   1.696 -0.3380 -0.2689 -0.0994
  666SOL    HW1 2662   2.761   3.007   1.601  3.0299  1.2828  1.6068
  666SOL    HW2 2663   2.722   2.950   1.741  0.7728 -0.5432  0.3918
  666SOL     MW 2664   2.753   3.011   1.690  0.2529 -0.1003  0.1905
  667SOL     OW 2665   1.983   2.657   1.759 -0.2271  0.2094  0.6040
  667SOL    HW1 2666   2.008   2.591   1.823  1.7085  1.5982  0.1177
  667SOL    HW2 2667   2.062   2.713   1.752  1.0650  0.1410  0.5516
  667SOL     MW 2668   1.997   2.656   1.767  0.1988  0.3836  0.5329
  668SOL     OW 2669   2.736   0.629   0.792 -0.2893 -0.0906  0.1338
  668SOL    HW1 2670   2.798   0.636   0.867  1.4309 -1.8060 -1.8496
  668SOL    HW2 2671   2.656   0.694   0.805  1.5427 -0.2205 -2.6079
  668SOL     MW 2672   2.733   0.639   0.804  0.1794 -0.3341 -0.4897
  669SOL     OW 2673   0.230   0.959   0.708 -0.6468  0.5324  0.2307
  669SOL    HW1 2674   0.172   0.993   0.767  1.9888 -0.0286  1.7504
  669SOL    HW2 2675   0.315   0.975   0.754  0.5093  1.0014  1.9785
  669SOL     MW 2676   0.234   0.966   0.722 -0.1465  0.5203  0.6618
  670SOL     OW 2677   2.872   0.226   0.217  0.7296 -0.0724 -0.0212
  670SOL    HW1 2678   2.903   0.155   0.154  1.8024 -1.4285  1.9060
  670SOL    HW2 2679   2.902   0.305   0.176 -1.7595  0.1872 -0.8925
  670SOL     MW 2680   2.880   0.227   0.203  0.5427 -0.2171  0.1182
  671SOL     OW 2681   2.056   2.947   1.469 -0.5283  0.4812 -0.1121
  671SOL    HW1 2682   2.000   2.993   1.405 -0.2454 -1.9059  1.3220
  671SOL    HW2 2683   2.044   3.008   1.544  0.8720 -1.3042  2.5963
  671SOL     MW 2684   2.047   2.961   1.470 -0.3062 -0.0693  0.4344
  672SOL     OW 2685   1.907   1.666   1.348  0.2739  0.1151 -0.7145
  672SOL    HW1 2686   1.821   1.712   1.341 -0.5485 -1.7124 -0.5792
  672SOL    HW2 2687   1.945   1.719   1.275 -2.5183 -0.1992  0.5892
  672SOL     MW 2688   1.900   1.679   1.337 -0.2030 -0.1675 -0.5247
  673SOL     OW 2689   2.766   1.071   0.585  0.1030 -0.1735  0.3639
  673SOL    HW1 2690   2.767   0.980   0.623 -2.5635  0.1544  2.3894
  673SOL    HW2 2691   2.842   1.110   0.627  0.1073 -0.2862  0.6770
  673SOL     MW 2692   2.776   1.064   0.596 -0.2482 -0.1451  0.6725
  674SOL     OW 2693   2.455   0.040   1.268 -0.1248 -1.1186  0.1427
  674SOL    HW1 2694   2.420   0.038   1.177 -0.6779  1.7142  0.5147
  674SOL    HW2 2695   2.453  -0.049   1.302  1.7135 -0.7842 -1.1508
  674SOL     MW 2696   2.451   0.028   1.260  0.0447 -0.7007  0.0211
  675SOL     OW 2697   3.017   0.868   1.068  0.0435 -0.2668 -0.0964
  675SOL    HW1 2698   3.089   0.854   1.130  2.1749  2.5676 -1.3226
  675SOL    HW2 2699   3.066   0.922   1.007 -2.8407 -3.2110  0.1300
  675SOL     MW 2700   3.033   0.873   1.068 -0.0558 -0.2813 -0.2283
  676SOL     OW 2701   2.847   1.481   1.685 -0.1091  0.6933  0.0073
  676SOL    HW1 2702   2.800   1.387   1.670  1.0501  0.1199 -1.5076
  676SOL    HW2 2703   2.933   1.443   1.718  0.1782 -2.0675 -2.7743
  676SOL     MW 2704   2.853   1.464   1.688  0.0818  0.2534 -0.5596
  677SOL     OW 2705   2.413   0.638   1.961 -0.1923 -0.1066 -0.0583
  677SOL    HW1 2706   2.370   0.593   1.890 -1.8606 -0.2869  3.1337
  677SOL    HW2 2707   2.353   0.691   2.019  0.6565  0.8297 -0.8923
  677SOL     MW 2708   2.399   0.639   1.959 -0.3004 -0.0068  0.2528
  678SOL     OW 2709   2.519   1.639   0.371 -0.0353  0.0002 -0.0682
  678SOL    HW1 2710   2.435   1.694   0.384 -0.3413  0.4934 -0.5097
  678SOL    HW2 2711   2.506   1.594   0.280  0.9862  0.0428 -2.8778
  678SOL     MW 2712   2.506   1.640   0.361  0.0591  0.0709 -0.4972
  679SOL     OW 2713   2.264   0.488   1.191  0.0691  0.6967  0.9624
  679SOL    HW1 2714   2.191   0.439   1.156  0.4786 -0.9827  0.1077
  679SOL    HW2 2715   2.235   0.579   1.178 -0.4601  0.5168 -0.2697
  679SOL     MW 2716   2.250   0.494   1.185  0.0533  0.4514  0.6870
  680SOL     OW 2717   2.327   0.152   1.499 -0.6778  0.3009  0.5914
  680SOL    HW1 2718   2.248   0.137   1.456  1.7132  1.4725  2.1492
  680SOL    HW2 2719   2.384   0.115   1.426  0.4176  0.4418  1.4000
  680SOL     MW 2720   2.324   0.145   1.483 -0.2178  0.4741  0.9036
  681SOL     OW 2721   0.317   0.560   1.578 -0.6732  0.4549  0.0166
  681SOL    HW1 2722   0.297   0.473   1.610  0.4411  3.7383 -0.1341
  681SOL    HW2 2723   0.410   0.577   1.566 -1.1533 -0.4403  1.2853
  681SOL     MW 2724   0.327   0.551   1.581 -0.5895  0.7700  0.1641
  682SOL     OW 2725   0.079   2.915   1.473  0.1023 -0.7841 -0.0014
  682SOL    HW1 2726   0.076   3.001   1.421  0.0961 -0.0154  0.1419
  682SOL    HW2 2727   0.052   2.931   1.564 -2.3172  1.3016 -0.0260
  682SOL     MW 2728   0.075   2.928   1.478 -0.2177 -0.4075  0.0143
  683SOL     OW 2729   2.068   0.887   3.000 -0.1654  0.0876  0.2199
  683SOL    HW1 2730   1.983   0.842   3.006  0.3077  2.1461 -0.9892
  683SOL    HW2 2731   2.060   0.970   3.047  0.4465  1.9782 -1.6900
  683SOL     MW 2732   2.056   0.892   3.007 -0.0222  0.6086 -0.1916
  684SOL     OW 2733   2.219   1.697   0.906  0.2081  0.0950 -0.5017
  684SOL    HW1 2734   2.135   1.657   0.881 -2.7012 -1.2203  2.3657
  684SOL    HW2 2735   2.231   1.649   0.988  2.1134 -2.4532  0.8421
  684SOL     MW 2736   2.210   1.685   0.913  0.0756 -0.4148  0.0539
  685SOL     OW 2737   2.676   1.755   1.216 -0.4371 -0.1055 -0.2873
  685SOL    HW1 2738   2.719   1.717   1.295 -1.2589 -0.9282  0.1616
  685SOL    HW2 2739   2.634   1.675   1.177 -0.4077  1.1038 -2.0498
  685SOL     MW 2740   2.676   1.739   1.221 -0.5416 -0.0545 -0.4606
  686SOL     OW 2741   2.926   0.745   1.543 -0.2931  0.0805  0.4938
  686SOL    HW1 2742   2.908   0.676   1.604  2.7977  1.4020  0.1203
  686SOL    HW2 2743   3.025   0.747   1.540  1.5148 -0.3787 -0.6656
  686SOL     MW 2744   2.937   0.736   1.551  0.3532  0.1943  0.2916
  687SOL     OW 2745   2.061   0.262   1.135  0.1900 -0.6946 -0.2090
  687SOL    HW1 2746   2.078   0.197   1.070  1.5233  3.5448 -0.5856
  687SOL    HW2 2747   1.987   0.304   1.092 -0.5591 -3.3255 -2.8720
  687SOL     MW 2748   2.053   0.259   1.121  0.2671 -0.4824 -0.6100
  688SOL     OW 2749   2.378   0.613   1.400 -0.4361 -0.5951  0.0908
  688SOL    HW1 2750   2.333   0.543   1.349 -3.3040 -1.2002  1.3753
  688SOL    HW2 2751   2.316   0.639   1.463  2.7237 -1.2054 -0.3104
  688SOL     MW 2752   2.364   0.607   1.402 -0.3976 -0.7554  0.2073
  689SOL     OW 2753   2.545   0.734   2.986  0.5565 -0.1676 -0.4219
  689SOL    HW1 2754   2.583   0.801   2.929 -1.9972 -1.8670  0.3984
  689SOL    HW2 2755   2.583   0.731   3.083 -1.0971  0.4986 -0.0534
  689SOL     MW 2756   2.555   0.743   2.992  0.0014 -0.3039 -0.2650
  690SOL     OW 2757   2.073   0.945   1.925  0.0509 -0.0349 -0.9753
  690SOL    HW1 2758   2.018   0.866   1.943  1.7040  0.4931 -1.5906
  690SOL    HW2 2759   2.099   0.946   1.834 -2.6318  0.1547 -1.2743
  690SOL     MW 2760   2.069   0.934   1.915 -0.0850  0.0598 -1.0960
  691SOL     OW 2761   2.429   0.255   0.858 -0.2345 -0.5293  0.4769
  691SOL    HW1 2762   2.497   0.319   0.880 -1.6737 -0.2165  2.0379
  691SOL    HW2 2763   2.343   0.284   0.889  0.0636  0.9667 -1.5540
  691SOL     MW 2764   2.427   0.267   0.865 -0.3850 -0.2907  0.4149
  692SOL     OW 2765   2.802   1.627   1.462 -0.7085  0.6269  0.6056
  692SOL    HW1 2766   2.804   1.568   1.540 -2.8080 -1.4204 -1.7369
  692SOL    HW2 2767   2.830   1.712   1.502 -1.3608 -0.5435 -1.2009
  692SOL     MW 2768   2.806   1.630   1.478 -1.0716  0.2024  0.0582
  693SOL     OW 2769   2.321   0.478   0.081 -0.6596 -0.5640  0.5575
  693SOL    HW1 2770   2.265   0.411   0.040 -1.3157 -0.4631 -1.3905
  693SOL    HW2 2771   2.294   0.561   0.025  3.2873 -2.6774 -0.3671
  693SOL     MW 2772   2.310   0.480   0.068 -0.2254 -0.8296  0.1785
  694SOL     OW 2773   1.919   1.206   1.116 -1.0663  0.0752  0.4762
  694SOL    HW1 2774   2.008   1.205   1.160  0.2164 -0.0514  1.7334
  694SOL    HW2 2775   1.862   1.151   1.170  1.1271 -0.0828  0.3792
  694SOL     MW 2776   1.923   1.199   1.129 -0.6076  0.0376  0.6293
  695SOL     OW 2777   3.019   1.472   1.368  0.0813 -0.1641 -0.0311
  695SOL    HW1 2778   3.011   1.447   1.275  0.6848  0.5678  0.7254
  695SOL    HW2 2779   2.945   1.529   1.385  2.9253 -1.4166  0.0212
  695SOL     MW 2780   3.008   1.476   1.358  0.5362 -0.2328  0.0756
  696SOL     OW 2781   2.127   1.372   0.890  0.3799 -0.0229 -0.0192
  696SOL    HW1 2782   2.181   1.391   0.974 -1.2064 -1.4132 -1.8600
  696SOL    HW2 2783   2.108   1.279   0.886  0.8648  0.4952  0.1488
  696SOL     MW 2784   2.131   1.363   0.900  0.2346 -0.1380 -0.2399
  697SOL     OW 2785   2.933   1.107   2.164  0.1703 -0.4540  0.3438
  697SOL    HW1 2786   2.882   1.182   2.162 -0.1576 -3.9357  2.7649
  697SOL    HW2 2787   2.889   1.037   2.113  2.6972 -0.9482  1.6770
  697SOL     MW 2788   2.920   1.108   2.157  0.4604 -0.9786  0.8391
  698SOL     OW 2789   2.523   0.320   0.047 -0.1572 -0.0734  0.1118
  698SOL    HW1 2790   2.447   0.380   0.068  0.6416  0.9070 -0.0952
  698SOL    HW2 2791   2.550   0.267   0.127  1.0594 -1.5166  2.2224
  698SOL     MW 2792   2.516   0.321   0.060  0.1087 -0.1345  0.3629
  699SOL     OW 2793   1.846   1.634   1.987  0.0140 -0.6665 -0.0101
  699SOL    HW1 2794   1.824   1.551   2.017  4.1174  1.7825  0.3134
  699SOL    HW2 2795   1.939   1.622   1.987 -2.9196 -0.9624  1.4621
  699SOL     MW 2796   1.856   1.622   1.991  0.1683 -0.3824  0.2269
  700SOL     OW 2797   2.703   0.940   1.496  0.0786  0.3897 -0.7661
  700SOL    HW1 2798   2.777   0.997   1.467  2.8333  0.3732  2.1382
  700SOL    HW2 2799   2.736   0.852   1.511 -0.2939 -0.9118 -0.0239
  700SOL     MW 2800   2.717   0.936   1.494  0.3929  0.2158 -0.2849
  701SOL     OW 2801   1.611   1.238   2.490  0.2600  0.4337 -0.4612
  701SOL    HW1 2802   1.710   1.249   2.478  1.9900 -2.7019  1.6228
  701SOL    HW2 2803   1.581   1.292   2.561  0.6784  0.2204 -1.2137
  701SOL     MW 2804   1.620   1.247   2.498  0.5435 -0.0082 -0.2855
  702SOL     OW 2805   2.213   0.433   0.872 -0.3995  0.1373  0.2557
  702SOL    HW1 2806   2.178   0.366   0.808 -1.8407 -1.0469 -1.3456
  702SOL    HW2 2807   2.242   0.507   0.816  0.5681 -0.2567 -0.3314
  702SOL     MW 2808   2.212   0.434   0.856 -0.4619 -0.0710 -0.0331
  703SOL     OW 2809   2.745   1.237   0.996  0.0471 -0.1002  0.1068
  703SOL    HW1 2810   2.690   1.227   0.914  0.1560  0.3007 -1.9972
  703SOL    HW2 2811   2.746   1.158   1.041  0.0931  0.0405 -2.4762
  703SOL     MW 2812   2.738   1.225   0.991  0.0675 -0.0287 -0.5116
  704SOL     OW 2813   0.005   1.276   0.225 -0.4978  0.0440 -0.6540
  704SOL    HW1 2814  -0.057   1.218   0.174  0.0886 -3.8071 -0.5399
  704SOL    HW2 2815  -0.000   1.234   0.308 -1.6257  0.7916 -5.4248
  704SOL     MW 2816  -0.004   1.263   0.229 -0.5693 -0.3655 -1.2684
  705SOL     OW 2817   2.216   1.634   1.331  0.1416  0.2161 -0.2250
  705SOL    HW1 2818   2.123   1.630   1.375 -4.1041  0.2539  1.1104
  705SOL    HW2 2819   2.276   1.586   1.385  1.4492 -0.5296  0.8952
  705SOL     MW 2820   2.212   1.627   1.344 -0.2460  0.1227  0.0990
  706SOL     OW 2821   2.953   1.216   0.692  0.1162  0.1209 -0.1656
  706SOL    HW1 2822   3.009   1.208   0.613  0.2708 -0.8720  2.8761
  706SOL    HW2 2823   2.936   1.313   0.699  2.3214 -0.6440 -0.5526
  706SOL     MW 2824   2.958   1.228   0.682  0.4275 -0.1110  0.1847
  707SOL     OW 2825   2.404   0.027   0.990  0.5684  0.0846  0.6990
  707SOL    HW1 2826   2.435   0.109   0.953 -0.3998  0.8594 -1.4532
  707SOL    HW2 2827   2.312   0.025   0.975  2.5553 -2.3900 -2.1442
  707SOL     MW 2828   2.396   0.038   0.983  0.7028 -0.1397  0.0399
  708SOL     OW 2829   2.536   1.492   0.123 -0.4836 -0.6665  0.0806
  708SOL    HW1 2830   2.607   1.430   0.132 -0.2990 -1.0288 -0.1790
  708SOL    HW2 2831   2.506   1.481   0.036 -1.5902  1.0638 -1.8897
  708SOL     MW 2832   2.541   1.483   0.113 -0.6053 -0.4860 -0.2136
  709SOL     OW 2833   1.748   1.686   0.121  0.4886 -0.7344  0.5210
  709SOL    HW1 2834   1.689   1.686   0.048 -1.3491 -2.9732 -2.2636
  709SOL    HW2 2835   1.687   1.695   0.197 -1.8201  1.7837  0.2916
  709SOL     MW 2836   1.732   1.687   0.121 -0.0585 -0.6976  0.1233
  710SOL     OW 2837   2.173   1.185   1.217  0.3767  0.1289  0.6567
  710SOL    HW1 2838   2.211   1.139   1.141  1.8124 -0.1069  1.5412
  710SOL    HW2 2839   2.169   1.117   1.286  2.3542 -0.4575  2.9057
  710SOL     MW 2840   2.177   1.170   1.216  0.8271  0.0204  1.0701
  711SOL     OW 2841   2.359   0.123   1.781  0.0669 -0.1685 -0.2390
  711SOL    HW1 2842   2.452   0.115   1.794 -1.4979 -0.0161  0.3421
  711SOL    HW2 2843   2.340   0.157   1.694 -0.5593  1.8251  4.2893
  711SOL     MW 2844   2.368   0.126   1.771 -0.2222  0.1147  0.4351
  712SOL     OW 2845   1.907   0.540   0.022  0.5035 -0.6796  0.7542
  712SOL    HW1 2846   1.886   0.608  -0.043 -1.1953 -2.4204 -0.7637
  712SOL    HW2 2847   1.942   0.601   0.095 -3.0107  1.3113  0.2838
  712SOL     MW 2848   1.909   0.557   0.023 -0.1843 -0.6466  0.4919
  713SOL     OW 2849   2.588   0.814   1.103 -0.1742 -0.3691 -0.2846
  713SOL    HW1 2850   2.609   0.746   1.168  1.3349 -0.6849  3.4876
  713SOL    HW2 2851   2.522   0.874   1.143 -1.0974 -2.6863 -0.1441
  713SOL     MW 2852   2.582   0.813   1.117 -0.0969 -0.7165  0.2316
  714SOL     OW 2853   2.203   0.226   1.975  0.1108  0.1821  0.6750
  714SOL    HW1 2854   2.240   0.193   2.062 -1.1623  0.4847 -2.1263
  714SOL    HW2 2855   2.255   0.190   1.897  0.6206 -4.6783  0.2533
  714SOL     MW 2856   2.215   0.217   1.976  0.0101 -0.4192  0.2497
  715SOL     OW 2857   1.724   1.941   1.672  0.7008  0.0791 -0.2686
  715SOL    HW1 2858   1.804   1.925   1.622 -2.9030  0.8039 -0.6901
  715SOL    HW2 2859   1.696   1.857   1.715 -3.7574  1.2424  0.9609
  715SOL     MW 2860   1.731   1.928   1.671 -0.3629  0.3282 -0.1620
  716SOL     OW 2861   2.343   0.617   0.735 -0.1003  0.7019 -0.4984
  716SOL    HW1 2862   2.399   0.545   0.704 -0.3977  0.0418 -0.1783
  716SOL    HW2 2863   2.291   0.646   0.662  0.6846  2.2988 -0.1436
  716SOL     MW 2864   2.343   0.611   0.721 -0.0360  0.8255 -0.4094
  717SOL     OW 2865   2.888   1.488   2.921  0.1642  0.8559  0.1676
  717SOL    HW1 2866   2.980   1.502   2.938  0.0583 -0.8335 -0.3702
  717SOL    HW2 2867   2.844   1.560   2.972  1.0443  2.0629  0.9027
  717SOL     MW 2868   2.894   1.499   2.930  0.2663  0.7923  0.1936
  718SOL     OW 2869   2.595   1.368   1.352  0.8797  0.1213  0.2564
  718SOL    HW1 2870   2.604   1.393   1.439  0.6208  0.2541 -3.0580
  718SOL    HW2 2871   2.645   1.290   1.347 -0.5916  0.3812 -0.4221
  718SOL     MW 2872   2.603   1.361   1.363  0.6514  0.1731 -0.2705
  719SOL     OW 2873   2.238   1.348   0.618 -0.2363  0.2948 -0.2035
  719SOL    HW1 2874   2.331   1.374   0.597  0.7187 -1.5410 -0.7604
  719SOL    HW2 2875   2.207   1.378   0.702  0.7168  2.7043 -0.9127
  719SOL     MW 2876   2.246   1.355   0.627  0.0154  0.3705 -0.3705
  720SOL     OW 2877   2.899   1.156   0.086 -0.4949 -0.4881 -0.3914
  720SOL    HW1 2878   2.842   1.075   0.088 -1.8820 -1.4230  0.6555
  720SOL    HW2 2879   2.846   1.229   0.135 -1.1741  3.3932 -1.1100
  720SOL     MW 2880   2.885   1.155   0.093 -0.7675 -0.0994 -0.3481
  721SOL     OW 2881   2.446   0.907   1.351 -0.5411 -0.1539  0.1506
  721SOL    HW1 2882   2.458   0.809   1.348 -0.2708 -1.1655  1.5758
  721SOL    HW2 2883   2.498   0.933   1.425 -1.2387 -1.0324 -2.4910
  721SOL     MW 2884   2.455   0.897   1.360 -0.5975 -0.4033 -0.0099
  722SOL     OW 2885   2.582   1.142   0.373 -0.3026  0.5340 -0.2889
  722SOL    HW1 2886   2.536   1.204   0.427 -2.0317 -1.4146 -1.0468
  722SOL    HW2 2887   2.652   1.103   0.431  3.0655  0.1201  1.7749
  722SOL     MW 2888   2.585   1.145   0.388 -0.0864  0.2223 -0.1166
  723SOL     OW 2889   2.259   1.414   1.624  0.3984 -0.0891 -0.0127
  723SOL    HW1 2890   2.264   1.391   1.528 -2.5578  0.1451 -2.1556
  723SOL    HW2 2891   2.172   1.454   1.635  1.3327  2.0283  2.6301
  723SOL     MW 2892   2.249   1.416   1.613  0.1317  0.2212  0.0532
  724SOL     OW 2893   2.490   0.409   0.628 -0.4733 -0.2941  0.0939
  724SOL    HW1 2894   2.471   0.331   0.683  0.5087 -0.6047 -1.7440
  724SOL    HW2 2895   2.583   0.418   0.626 -0.7877  0.1953  1.7624
  724SOL     MW 2896   2.500   0.400   0.635 -0.3853 -0.2705  0.0716
  725SOL     OW 2897   2.547   0.517   1.164  0.4144  0.4548  0.6084
  725SOL    HW1 2898   2.582   0.499   1.254 -1.4540  1.6246 -1.8647
  725SOL    HW2 2899   2.456   0.500   1.155  1.7420 -1.1834 -0.3849
  725SOL     MW 2900   2.540   0.513   1.175  0.3430  0.3930  0.1511
  726SOL     OW 2901   2.582   2.462   0.544  0.1853 -0.4355 -0.1890
  726SOL    HW1 2902   2.500   2.505   0.521  2.2062 -0.5777 -0.0841
  726SOL    HW2 2903   2.555   2.385   0.592 -2.8400  2.3839 -3.6541
  726SOL     MW 2904   2.568   2.458   0.547  0.0528 -0.0822 -0.6324
  727SOL     OW 2905   2.895   0.301   1.615 -0.2912  0.3141  0.8019
  727SOL    HW1 2906   2.862   0.302   1.529  2.1087 -1.9382 -0.9196
  727SOL    HW2 2907   2.826   0.266   1.670 -0.9539  1.7135  0.4541
  727SOL     MW 2908   2.882   0.297   1.611 -0.0620  0.2016  0.5289
  728SOL     OW 2909   2.816   1.134   2.919 -0.5406  0.1501 -0.4033
  728SOL    HW1 2910   2.786   1.211   2.869  0.8385  0.0446 -0.1850
  728SOL    HW2 2911   2.818   1.148   3.013 -0.8142 -0.2390 -0.0289
  728SOL     MW 2912   2.812   1.146   2.925 -0.3947  0.0849 -0.3251
  729SOL     OW 2913   2.552   1.551   1.080  0.2547  0.0805  0.2527
  729SOL    HW1 2914   2.575   1.463   1.108  1.7864  1.4100  2.1020
  729SOL    HW2 2915   2.597   1.562   0.990 -2.2714  0.1577  1.5279
  729SOL     MW 2916   2.561   1.541   1.072  0.1235  0.2661  0.6650
  730SOL     OW 2917   2.143   1.176   0.233 -0.0448  0.5101  0.2252
  730SOL    HW1 2918   2.229   1.144   0.246  1.3057  0.1030 -1.5801
  730SOL    HW2 2919   2.142   1.271   0.250 -1.1623 -0.3889 -0.0154
  730SOL     MW 2920   2.154   1.184   0.237 -0.0140  0.3378 -0.0447
  731SOL     OW 2921   2.862   1.899   2.876  0.3631 -0.2279  0.4290
  731SOL    HW1 2922   2.770   1.929   2.837 -2.9721  2.3190 -0.3864
  731SOL    HW2 2923   2.908   1.987   2.875 -0.2665  0.3000 -0.5953
  731SOL     MW 2924   2.856   1.915   2.871 -0.1600  0.1778  0.1863
  732SOL     OW 2925   2.176   0.929   1.383 -0.3375  0.2769  0.1921
  732SOL    HW1 2926   2.161   0.942   1.477 -4.6583 -0.9302 -0.3621
  732SOL    HW2 2927   2.270   0.914   1.377  1.7707 -1.4085 -0.9668
  732SOL     MW 2928   2.186   0.929   1.395 -0.6294 -0.1048 -0.0339
  733SOL     OW 2929   2.329   2.806   3.008  0.0336  0.2469  0.5659
  733SOL    HW1 2930   2.247   2.852   3.030  1.4994 -0.7548  0.3720
  733SOL    HW2 2931   2.329   2.712   3.039  1.2057 -0.8280  0.3324
  733SOL     MW 2932   2.318   2.800   3.015  0.3816 -0.0271  0.5095
  734SOL     OW 2933   1.497   0.360   2.454  0.1556  0.3715 -0.1476
  734SOL    HW1 2934   1.465   0.328   2.536  0.6396 -2.0688  1.4781
  734SOL    HW2 2935   1.540   0.279   2.409  1.3800 -1.1759  3.1668
  734SOL     MW 2936   1.499   0.345   2.459  0.3810 -0.1546  0.5042
  735SOL     OW 2937   2.948   0.946   2.590 -0.2958 -0.3606 -0.2455
  735SOL    HW1 2938   2.952   0.848   2.612  1.8290  0.9838 -1.3102
  735SOL    HW2 2939   2.973   0.983   2.672  0.4002 -2.2851  0.4307
  735SOL     MW 2940   2.952   0.938   2.604  0.0764 -0.4371 -0.2968
  736SOL     OW 2941   0.127   0.581   2.553  0.3606 -0.1505  0.0864
  736SOL    HW1 2942   0.164   0.644   2.492  0.2084  1.6800 -2.9733
  736SOL    HW2 2943   0.081   0.523   2.487  1.6044 -0.4667 -0.4553
  736SOL     MW 2944   0.126   0.581   2.537  0.5046  0.0493 -0.3888
  737SOL     OW 2945   2.929   0.666   2.620  0.2045  0.5802 -0.3874
  737SOL    HW1 2946   2.865   0.648   2.551  1.0487 -1.7377 -0.9832
  737SOL    HW2 2947   3.010   0.621   2.597 -0.0967 -0.6824  0.1774
  737SOL     MW 2948   2.931   0.657   2.608  0.2761  0.1077 -0.3915
  738SOL     OW 2949   0.223   0.546   1.905 -0.3035  0.9917 -0.1539
  738SOL    HW1 2950   0.305   0.594   1.895 -1.9572  0.7253  2.1678
  738SOL    HW2 2951   0.222   0.471   1.842  1.4672 -4.1628  0.5498
  738SOL     MW 2952   0.234   0.542   1.895 -0.2881  0.2765  0.2453
  739SOL     OW 2953   2.433   1.042   2.127 -0.4414  0.1258  0.1976
  739SOL    HW1 2954   2.444   0.952   2.103 -2.2604  0.1257 -1.2294
  739SOL    HW2 2955   2.443   1.094   2.048  0.3325  0.1792  0.5238
  739SOL     MW 2956   2.436   1.037   2.113 -0.5793  0.1329  0.0524
  740SOL     OW 2957   0.180   1.781   2.985  0.1695 -0.5147  0.2736
  740SOL    HW1 2958   0.118   1.707   2.971 -1.9202  0.0114  0.5853
  740SOL    HW2 2959   0.267   1.757   3.018  0.8968  0.8888  0.5482
  740SOL     MW 2960   0.183   1.768   2.988 -0.0102 -0.2601  0.3510
  741SOL     OW 2961   2.264   1.298   2.698 -0.0780 -0.0619 -0.1316
  741SOL    HW1 2962   2.191   1.332   2.648 -0.5547 -1.9297 -2.2577
  741SOL    HW2 2963   2.248   1.317   2.791  1.4090  0.8706  0.5975
  741SOL     MW 2964   2.252   1.305   2.704  0.0553 -0.1853 -0.3159
  742SOL     OW 2965   1.570   1.297   2.226  0.0527 -0.5256  0.1634
  742SOL    HW1 2966   1.520   1.221   2.198  0.6797 -1.0687 -0.5822
  742SOL    HW2 2967   1.564   1.294   2.322 -0.5098 -3.3481  2.0810
  742SOL     MW 2968   1.563   1.287   2.235  0.0612 -0.9697  0.3180
  743SOL     OW 2969   2.538   1.253   2.800  0.1764  0.6526  0.4219
  743SOL    HW1 2970   2.455   1.267   2.746 -1.5617  0.8256 -1.1827
  743SOL    HW2 2971   2.536   1.166   2.821 -0.7207 -0.2253 -1.7535
  743SOL     MW 2972   2.527   1.244   2.796 -0.1713  0.5596 -0.0768
  744SOL     OW 2973   2.745   1.000   1.775  0.0432 -0.2735  0.2096
  744SOL    HW1 2974   2.672   1.058   1.815  0.2285  2.4994 -0.0690
  744SOL    HW2 2975   2.723   0.985   1.678 -0.1436  1.4584 -0.1715
  744SOL     MW 2976   2.733   1.006   1.767  0.0430  0.3209  0.1226
  745SOL     OW 2977   1.785   0.421   2.496 -0.2432 -0.1127  0.6244
  745SOL    HW1 2978   1.765   0.420   2.397  2.4440  0.1670 -0.7354
  745SOL    HW2 2979   1.702   0.393   2.537 -0.0723  0.1791 -3.0389
  745SOL     MW 2980   1.772   0.417   2.488  0.1339 -0.0373 -0.0383
  746SOL     OW 2981   1.486   1.442   1.698 -0.4927 -0.4703 -0.4495
  746SOL    HW1 2982   1.532   1.523   1.723  0.1028 -1.3529 -0.3152
  746SOL    HW2 2983   1.512   1.374   1.758  1.6643 -1.5203 -1.2646
  746SOL     MW 2984   1.495   1.444   1.709 -0.1295 -0.7253 -0.5393
  747SOL     OW 2985   2.568   1.148   1.890 -0.1977  0.0271 -0.4584
  747SOL    HW1 2986   2.478   1.152   1.860  1.8748 -0.8762  1.4461
  747SOL    HW2 2987   2.589   1.233   1.931 -0.0447 -0.0240 -0.8872
  747SOL     MW 2988   2.559   1.160   1.891  0.0959 -0.0988 -0.2637
  748SOL     OW 2989   0.094   0.015   1.867 -0.0659  0.5903 -0.2607
  748SOL    HW1 2990   0.184   0.034   1.879 -1.2544  1.8004 -2.2612
  748SOL    HW2 2991   0.050   0.079   1.929 -1.1663  3.3433 -0.1806
  748SOL     MW 2992   0.100   0.026   1.877 -0.3679  1.1132 -0.5141
  749SOL     OW 2993   2.398   0.532   2.770  0.4796 -0.1662  0.1970
  749SOL    HW1 2994   2.422   0.616   2.739 -0.3912  0.2588  0.2222
  749SOL    HW2 2995   2.433   0.519   2.855 -0.9216 -0.9355  4.2927
  749SOL     MW 2996   2.406   0.541   2.777  0.1798 -0.2116  0.7407
  750SOL     OW 2997   2.040   3.086   1.959  0.0839  0.5887 -0.1271
  750SOL    HW1 2998   2.090   3.168   1.946  2.3953 -2.9078 -2.1206
  750SOL    HW2 2999   2.105   3.022   1.943  1.3195 -1.2317  0.8091
  750SOL     MW 3000   2.055   3.088   1.955  0.5519 -0.1128 -0.2666
  751SOL     OW 3001   0.023   0.439   2.356 -0.4466 -0.1642 -0.9572
  751SOL    HW1 3002  -0.049   0.381   2.336  2.7976 -0.6557  0.2117
  751SOL    HW2 3003   0.103   0.408   2.308  3.3485  1.0997 -0.7353
  751SOL     MW 3004   0.024   0.427   2.347  0.4821 -0.0623 -0.7737
  752SOL     OW 3005   2.129   0.867   2.727  0.3524 -0.4399 -0.7738
  752SOL    HW1 3006   2.189   0.928   2.689 -1.4448  0.1605 -1.2187
  752SOL    HW2 3007   2.111   0.892   2.820  0.8873  1.6548 -1.1166
  752SOL     MW 3008   2.135   0.879   2.734  0.1858 -0.0843 -0.8777
  753SOL     OW 3009   2.860   0.333   2.334  0.2988 -0.4433 -0.6049
  753SOL    HW1 3010   2.804   0.254   2.330 -1.0331  0.5989 -0.1089
  753SOL    HW2 3011   2.795   0.403   2.350 -0.7515 -3.1834  1.0858
  753SOL     MW 3012   2.844   0.332   2.336 -0.0155 -0.6673 -0.3164
  754SOL     OW 3013   2.216   3.017   2.661  0.1800  0.3804  0.1687
  754SOL    HW1 3014   2.223   3.002   2.566 -0.3580  0.0192  1.8778
  754SOL    HW2 3015   2.282   2.959   2.705 -2.3846  1.7598 -0.0308
  754SOL     MW 3016   2.225   3.007   2.654 -0.2293  0.5148  0.3679
  755SOL     OW 3017   2.763   1.576   2.491  0.3876 -0.6350  0.0519
  755SOL    HW1 3018   2.744   1.484   2.505  3.2368 -1.1196 -2.2197
  755SOL    HW2 3019   2.791   1.606   2.576 -3.6017 -0.0527 -0.5575
  755SOL     MW 3020   2.764   1.568   2.504  0.2372 -0.6221 -0.3282
  756SOL     OW 3021   2.257   1.290   3.010  0.0999  0.1937 -0.1004
  756SOL    HW1 3022   2.323   1.347   2.977  0.3566 -1.6426  1.5820
  756SOL    HW2 3023   2.306   1.209   3.027  0.4432  0.3548 -2.7849
  756SOL     MW 3024   2.272   1.287   3.008  0.1790 -0.0273 -0.2326
  757SOL     OW 3025   2.127   0.958   1.651  0.0414 -0.1845  0.7608
  757SOL    HW1 3026   2.153   0.863   1.645  2.0675  1.0721  2.4628
  757SOL    HW2 3027   2.045   0.968   1.601  0.0620 -1.1927  1.2833
  757SOL     MW 3028   2.120   0.947   1.643  0.3115 -0.1517  1.0543
  758SOL     OW 3029   2.234   1.779   2.687  0.0448 -0.1858  0.4619
  758SOL    HW1 3030   2.201   1.833   2.614 -0.8938 -3.6148 -0.7709
  758SOL    HW2 3031   2.326   1.754   2.652 -0.8469  2.0964 -2.3138
  758SOL     MW 3032   2.242   1.783   2.673 -0.1967 -0.3371 -0.0670
  759SOL     OW 3033   1.560   1.340   2.729 -0.0394 -1.1841 -0.3276
  759SOL    HW1 3034   1.569   1.436   2.703  1.1911  1.2324 -3.0970
  759SOL    HW2 3035   1.644   1.294   2.741 -1.3174 -0.1102  0.6107
  759SOL     MW 3036   1.572   1.346   2.727 -0.0456 -0.7236 -0.5692
  760SOL     OW 3037   2.654   1.950   2.705 -1.1061 -0.3809  0.0667
  760SOL    HW1 3038   2.621   1.862   2.681 -4.3865 -4.4504  0.5721
  760SOL    HW2 3039   2.725   1.966   2.641  1.1411  0.0175  1.5763
  760SOL     MW 3040   2.659   1.941   2.693 -1.2424 -0.8652  0.3326
  761SOL     OW 3041   2.106   0.440   2.449 -0.0385  0.2653  0.5313
  761SOL    HW1 3042   2.035   0.377   2.480 -2.7936 -2.8964  0.7932
  761SOL    HW2 3043   2.121   0.513   2.517  3.4191  0.5970 -0.5192
  761SOL     MW 3044   2.099   0.441   2.462  0.0542 -0.1081  0.4273
  762SOL     OW 3045   3.083   0.182   2.053 -0.2379  0.3227 -0.4477
  762SOL    HW1 3046   3.076   0.136   2.140  3.1009 -1.6529  0.9043
  762SOL    HW2 3047   3.039   0.270   2.058  1.3427  2.5113 -1.4612
  762SOL     MW 3048   3.076   0.187   2.065  0.4111  0.3508 -0.4031
  763SOL     OW 3049   2.385   1.144   2.377 -0.6213 -0.0583  0.0689
  763SOL    HW1 3050   2.407   1.108   2.287  1.0615 -0.2642 -0.7194
  763SOL    HW2 3051   2.459   1.199   2.406  0.1191 -0.9565 -0.8312
  763SOL     MW 3052   2.398   1.146   2.369 -0.3016 -0.2040 -0.1539
  764SOL     OW 3053   0.334   0.182   2.828  0.1649 -0.0090  0.0434
  764SOL    HW1 3054   0.267   0.205   2.767  1.5197  0.4904  0.5526
  764SOL    HW2 3055   0.343   0.258   2.892 -0.0025  0.4537  0.7045
  764SOL     MW 3056   0.326   0.195   2.829  0.3216  0.1180  0.1978
  765SOL     OW 3057   2.688   0.118   2.307 -0.1102 -0.2467 -0.1512
  765SOL    HW1 3058   2.634   0.119   2.230  1.2312  1.3756 -2.6143
  765SOL    HW2 3059   2.749   0.047   2.288 -1.2235 -0.3485  0.7420
  765SOL     MW 3060   2.689   0.109   2.294 -0.0801 -0.0461 -0.3583
  766SOL     OW 3061   1.844   3.023   2.153  0.1536  0.1513  0.0087
  766SOL    HW1 3062   1.913   3.042   2.085 -2.8398  2.6665 -1.6078
  766SOL    HW2 3063   1.787   2.964   2.099  1.3068 -0.9937 -0.3709
  766SOL     MW 3064   1.846   3.018   2.137 -0.0892  0.3321 -0.2546
  767SOL     OW 3065   2.682   0.615   1.863 -0.2183  0.7424  0.4215
  767SOL    HW1 3066   2.719   0.661   1.935  1.0197  0.7154 -2.2967
  767SOL    HW2 3067   2.589   0.620   1.892  1.2589 -0.0855  0.8977
  767SOL     MW 3068   2.674   0.622   1.877  0.1399  0.6296  0.1257
  768SOL     OW 3069   0.060   1.542   2.949  0.1034  0.8126  0.2084
  768SOL    HW1 3070   0.102   1.512   3.031  0.4987 -0.5846 -0.5771
  768SOL    HW2 3071   0.092   1.476   2.882 -1.4586 -0.5615  2.2286
  768SOL     MW 3072   0.070   1.529   2.951 -0.0505  0.4470  0.3713
  769SOL     OW 3073   2.375   0.646   2.368 -0.2483  0.2061 -0.4427
  769SOL    HW1 3074   2.292   0.619   2.323  0.2751  2.5080  0.7586
  769SOL    HW2 3075   2.436   0.609   2.305 -0.6773 -0.0084 -0.6773
  769SOL     MW 3076   2.372   0.638   2.354 -0.2359  0.4816 -0.3152
  770SOL     OW 3077   0.006   1.646   2.573 -0.1951  0.1834  0.5978
  770SOL    HW1 3078  -0.089   1.641   2.595  0.3825 -0.3044 -1.1425
  770SOL    HW2 3079   0.043   1.554   2.582  0.1822 -0.3850 -2.2618
  770SOL     MW 3080  -0.002   1.633   2.577 -0.0691  0.0441 -0.0091
  771SOL     OW 3081   3.080   0.634   1.954  0.1441  0.0931 -0.3377
  771SOL    HW1 3082   3.032   0.640   1.866  0.9245 -0.2802 -2.1579
  771SOL    HW2 3083   3.163   0.604   1.929 -0.8640  0.6133  1.0118
  771SOL     MW 3084   3.084   0.631   1.939  0.1141  0.1125 -0.3998
  772SOL     OW 3085   0.004   0.048   2.285 -0.3188  0.2036 -0.2745
  772SOL    HW1 3086  -0.080   0.014   2.320 -2.0199 -1.8993  2.1755
  772SOL    HW2 3087   0.057  -0.028   2.253  0.8370 -0.3655  1.4706
  772SOL     MW 3088  -0.000   0.034   2.285 -0.3908 -0.1489  0.2790
  773SOL     OW 3089   2.419   2.866   2.775  0.6098 -0.8819  0.2362
  773SOL    HW1 3090   2.415   2.781   2.732 -0.1686 -2.1167 -0.3413
  773SOL    HW2 3091   2.364   2.842   2.849  0.1179 -0.6220 -1.6422
  773SOL     MW 3092   2.411   2.851   2.779  0.4422 -1.0105 -0.0878
  774SOL     OW 3093   2.298   1.169   1.761 -0.6902 -0.1067 -0.9925
  774SOL    HW1 3094   2.287   1.255   1.715 -0.0891  2.1567 -0.4579
  774SOL    HW2 3095   2.244   1.110   1.705  1.1712 -1.0269  2.9666
  774SOL     MW 3096   2.289   1.173   1.747 -0.3653  0.0705 -0.3996
  775SOL     OW 3097   2.258   3.001   2.380 -0.3719  0.3786  0.4570
  775SOL    HW1 3098   2.263   3.080   2.327 -2.7363 -0.2041  1.7596
  775SOL    HW2 3099   2.340   2.952   2.378 -2.2888 -1.1447  2.5706
  775SOL     MW 3100   2.270   3.005   2.373 -0.9368  0.1007  0.9078
  776SOL     OW 3101   0.139   1.482   0.100 -0.0139 -0.7137  0.6922
  776SOL    HW1 3102   0.231   1.458   0.106  1.3921  1.1613  1.3178
  776SOL    HW2 3103   0.087   1.414   0.146 -2.6716  0.2562  3.1579
  776SOL     MW 3104   0.144   1.470   0.107 -0.1791 -0.3384  1.1001
  777SOL     OW 3105   2.992   1.074   1.720 -0.0155 -0.1349  0.1808
  777SOL    HW1 3106   2.982   1.152   1.666 -2.9687  0.3602 -0.7071
  777SOL    HW2 3107   2.903   1.046   1.758 -1.9907 -3.4396  0.1118
  777SOL     MW 3108   2.979   1.081   1.718 -0.6658 -0.5056  0.0545
  778SOL     OW 3109   2.823   0.462   2.749 -0.0674 -0.3361  0.1897
  778SOL    HW1 3110   2.768   0.468   2.828 -0.7834  2.2418 -0.2836
  778SOL    HW2 3111   2.870   0.541   2.724  1.5070  1.4537 -1.0553
  778SOL     MW 3112   2.822   0.474   2.756  0.0459  0.2402 -0.0370
  779SOL     OW 3113   2.123   0.554   2.188 -0.8804 -0.1071 -0.5455
  779SOL    HW1 3114   2.080   0.639   2.197  0.9839 -1.9895 -0.9948
  779SOL    HW2 3115   2.101   0.500   2.259 -0.0103  2.4122  1.7491
  779SOL     MW 3116   2.114   0.558   2.198 -0.5196 -0.0231 -0.3020
  780SOL     OW 3117   0.095   0.256   2.691  0.6382 -0.8230  0.2179
  780SOL    HW1 3118   0.122   0.330   2.750 -0.2500  0.0839  0.1787
  780SOL    HW2 3119  -0.001   0.239   2.689 -1.4389  0.8462  1.6135
  780SOL     MW 3120   0.086   0.264   2.698  0.2469 -0.4831  0.3968
  781SOL     OW 3121   3.044   1.305   2.509 -0.3390  0.2722  0.0883
  781SOL    HW1 3122   3.031   1.373   2.441  0.3547  0.1025  0.0323
  781SOL    HW2 3123   3.080   1.229   2.464 -0.9658 -0.7714  2.6482
  781SOL     MW 3124   3.047   1.304   2.494 -0.3302  0.1121  0.4187
  782SOL     OW 3125   0.678   1.540   3.079  0.3807 -0.8084  0.4423
  782SOL    HW1 3126   0.598   1.585   3.052  2.4780  1.9540 -1.1696
  782SOL    HW2 3127   0.667   1.514   3.166 -0.4488 -0.0863  1.3217
  782SOL     MW 3128   0.666   1.543   3.087  0.5480 -0.3486  0.3457
  783SOL     OW 3129   2.717   0.543   2.430 -0.3491 -0.7383  0.2844
  783SOL    HW1 3130   2.663   0.571   2.355 -0.2817  0.6314  1.5505
  783SOL    HW2 3131   2.660   0.488   2.489  1.2434  0.4066  0.5499
  783SOL     MW 3132   2.703   0.539   2.428 -0.1301 -0.4065  0.4865
  784SOL     OW 3133   0.158   0.829   2.795  0.3734  0.1827 -0.8376
  784SOL    HW1 3134   0.093   0.899   2.804  0.5754 -3.7674  3.3221
  784SOL    HW2 3135   0.240   0.871   2.756  0.9566  0.9781 -0.3269
  784SOL     MW 3136   0.160   0.844   2.791  0.4770 -0.2335 -0.2213
  785SOL     OW 3137   0.432   0.505   2.179 -0.0952  0.0969 -0.0589
  785SOL    HW1 3138   0.447   0.563   2.104 -0.5174 -3.3422 -2.4050
  785SOL    HW2 3139   0.348   0.459   2.166 -0.5346  0.8874 -0.1505
  785SOL     MW 3140   0.423   0.507   2.167 -0.2088 -0.2525 -0.3805
  786SOL     OW 3141   1.978   0.300   2.939  0.2367 -0.1047 -0.5330
  786SOL    HW1 3142   1.952   0.388   2.976  0.8225 -1.3795 -1.5866
  786SOL    HW2 3143   2.030   0.323   2.863 -3.5098  0.4506 -0.5325
  786SOL     MW 3144   1.981   0.315   2.934 -0.1803 -0.1996 -0.6719
  787SOL     OW 3145   2.448   0.170   2.908 -0.5406  0.7340 -0.4509
  787SOL    HW1 3146   2.504   0.087   2.879  0.3707 -1.6816 -0.1708
  787SOL    HW2 3147   2.489   0.203   2.984 -2.0570 -1.8346 -1.6451
  787SOL     MW 3148   2.460   0.164   2.914 -0.6205  0.0764 -0.5715
  788SOL     OW 3149   2.846   3.003   2.338  0.6133 -0.4376 -0.1895
  788SOL    HW1 3150   2.785   2.957   2.395 -0.8562 -1.3946  2.7959
  788SOL    HW2 3151   2.908   2.925   2.324  0.9283 -1.0176  0.7041
  788SOL     MW 3152   2.846   2.987   2.344  0.4610 -0.6404  0.3223
  789SOL     OW 3153   0.093   0.163   3.056  0.2146  0.2161  0.1088
  789SOL    HW1 3154   0.012   0.113   3.084 -2.5168 -0.4576  0.2020
  789SOL    HW2 3155   0.059   0.211   2.980 -1.6307 -2.3423 -0.0403
  789SOL     MW 3156   0.078   0.163   3.050 -0.3892 -0.2103  0.1014
  790SOL     OW 3157   0.018   1.070   2.378 -0.3856 -0.0090  0.2694
  790SOL    HW1 3158  -0.045   1.027   2.432 -1.1721 -1.7822  0.9805
  790SOL    HW2 3159  -0.019   1.088   2.292  1.7583  0.9615 -1.0380
  790SOL     MW 3160   0.005   1.067   2.374 -0.2065 -0.1149  0.1907
  791SOL     OW 3161   2.599   0.393   2.616  0.1821 -0.1499 -0.1627
  791SOL    HW1 3162   2.523   0.427   2.657  0.7266 -2.1086 -0.4283
  791SOL    HW2 3163   2.679   0.410   2.676  0.5597 -0.3518  2.6312
  791SOL     MW 3164   2.599   0.400   2.630  0.3038 -0.4350  0.1709
  792SOL     OW 3165   2.354   0.322   2.413 -0.3046  0.7051 -0.1949
  792SOL    HW1 3166   2.282   0.375   2.445  3.5528 -1.7671  1.1327
  792SOL    HW2 3167   2.384   0.290   2.497 -2.8343  0.6837 -1.7396
  792SOL     MW 3168   2.349   0.325   2.429 -0.1294  0.3761 -0.2236
  793SOL     OW 3169   1.920   1.160   1.944 -0.3844 -0.2876 -0.1594
  793SOL    HW1 3170   1.874   1.150   1.852 -2.4143 -0.6674 -0.2048
  793SOL    HW2 3171   1.991   1.093   1.944 -1.2255 -2.8646  0.4623
  793SOL     MW 3172   1.923   1.150   1.932 -0.7632 -0.6777 -0.0834
  794SOL     OW 3173   1.410   2.309   0.135  0.6441 -0.0702  0.3626
  794SOL    HW1 3174   1.442   2.346   0.057  0.5427 -3.0523  2.2870
  794SOL    HW2 3175   1.464   2.339   0.207 -0.8727 -0.0905 -0.9814
  794SOL     MW 3176   1.421   2.318   0.134  0.4306 -0.4664  0.4392
  795SOL     OW 3177   2.352   1.033   2.614 -0.3164 -0.5206  0.5217
  795SOL    HW1 3178   2.316   1.117   2.663  0.9273  2.1616  0.7164
  795SOL    HW2 3179   2.380   1.080   2.534  0.1299 -0.0000 -2.1616
  795SOL     MW 3180   2.351   1.050   2.610 -0.0934 -0.0981  0.1934
  796SOL     OW 3181   0.300   0.571   2.790  0.5644  0.0399  0.2645
  796SOL    HW1 3182   0.234   0.644   2.803  0.0364  2.3846 -2.5637
  796SOL    HW2 3183   0.265   0.539   2.703 -1.8082 -1.1209  3.3892
  796SOL     MW 3184   0.287   0.577   2.780  0.1817  0.1961  0.3036
  797SOL     OW 3185   2.642   0.127   2.602 -0.4146  0.7580 -0.1287
  797SOL    HW1 3186   2.614   0.214   2.592 -2.1655  2.3034 -0.1017
  797SOL    HW2 3187   2.647   0.109   2.514 -0.2153 -0.1851  2.4205
  797SOL     MW 3188   2.639   0.136   2.589 -0.6193  0.8374  0.2112
  798SOL     OW 3189   2.293   0.133   2.220  0.2555  0.2185 -0.1652
  798SOL    HW1 3190   2.305   0.193   2.296  2.9981  2.5009  0.1529
  798SOL    HW2 3191   2.380   0.101   2.186  1.3366 -1.1808 -1.2312
  798SOL     MW 3192   2.306   0.137   2.226  0.7600  0.3350 -0.2639
  799SOL     OW 3193   2.550   2.932   0.012 -0.5059  0.2036 -0.7608
  799SOL    HW1 3194   2.466   2.889  -0.008  0.8729 -2.8526 -1.4996
  799SOL    HW2 3195   2.547   3.028  -0.001  1.0763 -0.6014 -2.1127
  799SOL     MW 3196   2.538   2.939   0.007 -0.1153 -0.3059 -1.0367
  800SOL     OW 3197   1.975   3.098   1.678  0.1271 -0.3261  0.2816
  800SOL    HW1 3198   1.904   3.037   1.667  0.2596  0.6358 -1.7334
  800SOL    HW2 3199   1.994   3.095   1.767  0.0566  2.0605 -0.3606
  800SOL     MW 3200   1.968   3.090   1.688  0.1353  0.1157 -0.0690
  801SOL     OW 3201   2.803   1.284   2.650 -0.0393 -0.1838  0.1489
  801SOL    HW1 3202   2.768   1.194   2.626 -2.6442  1.1398 -0.0237
  801SOL    HW2 3203   2.893   1.301   2.627 -0.0540  0.4956  0.0039
  801SOL     MW 3204   2.810   1.275   2.644 -0.3849  0.0804  0.1070
  802SOL     OW 3205   2.611   1.522   2.768  0.2687  0.1796  0.0325
  802SOL    HW1 3206   2.612   1.422   2.753  0.4132 -0.6432 -2.9927
  802SOL    HW2 3207   2.683   1.535   2.835  0.0848  0.0985 -0.6987
  802SOL     MW 3208   2.621   1.510   2.775  0.2635  0.0603 -0.4631
  803SOL     OW 3209   2.298   1.350   1.969  0.5242 -0.3429 -0.2088
  803SOL    HW1 3210   2.252   1.314   2.046 -1.8753 -1.9752  0.2780
  803SOL    HW2 3211   2.271   1.287   1.899  0.7885 -2.6471  0.8821
  803SOL     MW 3212   2.288   1.337   1.970  0.2425 -0.8623 -0.0007
  804SOL     OW 3213   2.302   0.052   0.026 -0.1228 -0.4885 -0.4053
  804SOL    HW1 3214   2.231   0.121   0.040  2.2150 -2.5897 -0.0962
  804SOL    HW2 3215   2.372   0.092  -0.027  0.1224 -0.1707 -0.3657
  804SOL     MW 3216   2.302   0.066   0.021  0.2180 -0.7238 -0.3593
  805SOL     OW 3217   2.690   1.046   2.565 -0.2935  0.1504  0.2039
  805SOL    HW1 3218   2.639   0.967   2.548 -0.4660  0.0376 -1.0436
  805SOL    HW2 3219   2.782   1.013   2.549 -0.5599  3.1003  2.0933
  805SOL     MW 3220   2.695   1.031   2.561 -0.3514  0.5247  0.2886
  806SOL     OW 3221   2.542   0.531   2.194 -0.1796 -1.0609  0.0275
  806SOL    HW1 3222   2.510   0.440   2.208  0.2091 -0.1024  0.0214
  806SOL    HW2 3223   2.494   0.547   2.111  0.2379 -3.1371 -2.1040
  806SOL     MW 3224   2.531   0.521   2.185 -0.0732 -1.2084 -0.2545
  807SOL     OW 3225   0.017   1.178   1.989  0.2218 -0.2554 -0.1642
  807SOL    HW1 3226   0.044   1.098   1.943 -1.2305 -1.3619 -2.2240
  807SOL    HW2 3227  -0.047   1.144   2.045  1.8652 -1.1637  0.4365
  807SOL     MW 3228   0.012   1.163   1.991  0.2470 -0.5213 -0.3567
  808SOL     OW 3229   2.598   3.080   2.821 -0.3187 -0.4302 -0.1135
  808SOL    HW1 3230   2.540   3.007   2.783  0.1748  1.8433 -0.0804
  808SOL    HW2 3231   2.626   3.133   2.739 -1.5229 -0.8802 -0.6396
  808SOL     MW 3232   2.594   3.077   2.805 -0.4125 -0.1896 -0.1786
  809SOL     OW 3233   2.609   1.326   2.430 -0.2971 -0.2320 -0.1745
  809SOL    HW1 3234   2.672   1.311   2.505  0.9494  1.6695  0.7545
  809SOL    HW2 3235   2.663   1.313   2.354 -1.6205 -2.4514  1.5791
  809SOL     MW 3236   2.624   1.322   2.430 -0.3073 -0.2739  0.1794
  810SOL     OW 3237   2.195   1.288   2.228 -0.3039 -0.0906  0.2750
  810SOL    HW1 3238   2.245   1.220   2.278  1.8483 -2.1373 -0.6629
  810SOL    HW2 3239   2.113   1.235   2.209 -0.3769 -1.6341  0.3138
  810SOL     MW 3240   2.191   1.272   2.232 -0.0296 -0.5643  0.1563
  811SOL     OW 3241   1.564   0.137   2.326 -0.1011  0.2310  0.2464
  811SOL    HW1 3242   1.630   0.070   2.352 -1.2717  2.9630  3.2976
  811SOL    HW2 3243   1.555   0.124   2.230 -0.8449 -0.4132 -0.3768
  811SOL     MW 3244   1.572   0.126   2.317 -0.3537  0.5065  0.5667
  812SOL     OW 3245   1.469   2.848   2.039  0.3168  0.5938  0.9168
  812SOL    HW1 3246   1.556   2.852   2.006 -0.3115 -0.6651  2.6167
  812SOL    HW2 3247   1.471   2.825   2.132  0.8174  0.3002 -0.9346
  812SOL     MW 3248   1.480   2.845   2.047  0.2999  0.3890  0.8968
  813SOL     OW 3249   1.873   0.731   2.216  0.4163  0.3885 -0.7419
  813SOL    HW1 3250   1.859   0.634   2.242 -2.9555  0.0999 -1.8967
  813SOL    HW2 3251   1.886   0.781   2.297  0.3286  1.3844  0.1920
  813SOL     MW 3252   1.873   0.725   2.230 -0.0401  0.4818 -0.7710
  814SOL     OW 3253   2.718   1.252   1.617  0.2707 -0.0020 -0.8565
  814SOL    HW1 3254   2.646   1.186   1.615 -0.3308 -0.8324 -0.4773
  814SOL    HW2 3255   2.761   1.247   1.535 -0.6195  2.3369  3.3074
  814SOL     MW 3256   2.714   1.242   1.606  0.0739  0.1970 -0.2570
  815SOL     OW 3257   2.539   1.729   2.377 -0.8314 -0.6432 -0.4345
  815SOL    HW1 3258   2.470   1.665   2.378  1.1747  2.7388 -0.9252
  815SOL    HW2 3259   2.627   1.682   2.394  3.1862  0.4418 -0.9532
  815SOL     MW 3260   2.541   1.715   2.379 -0.0366 -0.0538 -0.5677
  816SOL     OW 3261   0.769   0.670   2.762  0.3789 -0.1170  0.0126
  816SOL    HW1 3262   0.781   0.579   2.776 -0.3660  0.9767  0.5416
  816SOL    HW2 3263   0.671   0.693   2.750  1.2330 -0.4829 -0.5596
  816SOL     MW 3264   0.757   0.661   2.762  0.3933 -0.0210  0.0069
  817SOL     OW 3265   3.034   1.240   1.484  0.0399  0.1743  0.1146
  817SOL    HW1 3266   3.119   1.210   1.521 -1.0071 -2.4378 -0.2686
  817SOL    HW2 3267   3.033   1.333   1.459  0.9105 -1.6396  0.8456
  817SOL     MW 3268   3.046   1.249   1.486  0.0166 -0.4097  0.1604
  818SOL     OW 3269   1.895   1.001   2.666  0.2738  0.2209 -0.4150
  818SOL    HW1 3270   1.863   0.937   2.605  1.4600  1.2585 -0.5955
  818SOL    HW2 3271   1.987   0.985   2.657 -0.0936  0.7958  0.4000
  818SOL     MW 3272   1.903   0.991   2.657  0.3818  0.4336 -0.3312
  819SOL     OW 3273   1.923   0.184   2.456 -0.5780 -0.2755  0.2933
  819SOL    HW1 3274   1.873   0.258   2.469  0.2379 -3.5427 -0.5734
  819SOL    HW2 3275   1.980   0.172   2.531  0.6826 -0.3363 -0.7972
  819SOL     MW 3276   1.924   0.192   2.468 -0.3040 -0.7146  0.0351
  820SOL     OW 3277   2.500   1.726   2.637 -0.4754  0.0817 -0.5425
  820SOL    HW1 3278   2.554   1.645   2.664 -0.8410 -0.8062 -0.1515
  820SOL    HW2 3279   2.514   1.741   2.543 -1.8973  0.5405 -0.3385
  820SOL     MW 3280   2.509   1.717   2.628 -0.7113  0.0251 -0.4640
  821SOL     OW 3281   2.580   1.438   2.018 -0.3298 -0.4729 -0.7280
  821SOL    HW1 3282   2.605   1.525   1.978  1.9014  2.0842  0.3623
  821SOL    HW2 3283   2.482   1.422   2.011  1.1037  0.9756  1.4161
  821SOL     MW 3284   2.570   1.447   2.012  0.1537  0.0556 -0.3012
  822SOL     OW 3285   2.719   2.635   1.391  0.1008 -0.4703  0.7680
  822SOL    HW1 3286   2.728   2.638   1.488  2.5660  2.2357  1.9840
  822SOL    HW2 3287   2.698   2.721   1.364  0.5854  1.1782 -1.7057
  822SOL     MW 3288   2.717   2.647   1.400  0.4900  0.1042  0.6021
  823SOL     OW 3289   2.279   0.499   1.737 -0.5108 -0.1363 -0.3010
  823SOL    HW1 3290   2.358   0.491   1.679  0.0239  2.3933  0.2945
  823SOL    HW2 3291   2.210   0.441   1.703  0.3999  1.1381 -0.6176
  823SOL     MW 3292   2.280   0.490   1.725 -0.3201  0.3656 -0.2642
  824SOL     OW 3293   2.082   1.421   2.524 -0.4455 -0.2238  0.7590
  824SOL    HW1 3294   2.170   1.448   2.501 -0.6642 -1.2791  0.1487
  824SOL    HW2 3295   2.043   1.482   2.588 -0.0419  0.5319  0.2874
  824SOL     MW 3296   2.089   1.433   2.530 -0.4211 -0.2633  0.6162
  825SOL     OW 3297   1.922   2.557   0.310  0.6379  0.1687 -0.2005
  825SOL    HW1 3298   1.904   2.483   0.365  2.9119  0.8837  1.8475
  825SOL    HW2 3299   1.997   2.527   0.261  1.6078 -0.4422  0.7607
  825SOL     MW 3300   1.929   2.543   0.311  1.0659  0.1824  0.1965
  826SOL     OW 3301   1.894   2.360   0.519  0.2306 -0.3471 -0.3510
  826SOL    HW1 3302   1.855   2.290   0.584 -1.0718 -3.7764 -3.1029
  826SOL    HW2 3303   1.854   2.440   0.554 -1.2764 -2.0735  1.6395
  826SOL     MW 3304   1.884   2.361   0.532 -0.1400 -1.0274 -0.4515
  827SOL     OW 3305   1.936   2.207   0.958  0.3119  0.6742 -0.4646
  827SOL    HW1 3306   1.879   2.247   0.902  0.8252 -1.2080  0.5635
  827SOL    HW2 3307   1.880   2.131   0.984  0.9606  1.1117  0.4118
  827SOL     MW 3308   1.921   2.202   0.954  0.4652  0.4836 -0.2133
  828SOL     OW 3309   0.079   2.603   0.604 -0.4327 -0.0970 -0.3843
  828SOL    HW1 3310   0.174   2.612   0.617  0.1902 -1.1788 -0.4489
  828SOL    HW2 3311   0.053   2.661   0.530 -1.9212 -0.7726  3.5276
  828SOL     MW 3312   0.088   2.612   0.596 -0.5469 -0.3288  0.1233
  829SOL     OW 3313   2.934   2.945   1.165 -0.4275  0.0639  0.6918
  829SOL    HW1 3314   2.847   2.928   1.133 -0.3103  0.3590  1.0520
  829SOL    HW2 3315   2.990   2.866   1.149 -0.3817 -0.1089  1.4633
  829SOL     MW 3316   2.930   2.933   1.158 -0.4060  0.0801  0.8411
  830SOL     OW 3317   2.511   2.860   2.043 -0.1851 -0.6150  0.3606
  830SOL    HW1 3318   2.429   2.854   1.993  0.3476 -1.2266  0.4337
  830SOL    HW2 3319   2.573   2.813   1.989  3.1322  0.8030 -0.1001
  830SOL     MW 3320   2.509   2.853   2.029  0.3229 -0.5086  0.3095
  831SOL     OW 3321   2.403   2.457   1.294  0.4319 -0.5004  0.0549
  831SOL    HW1 3322   2.371   2.411   1.378 -2.6625 -0.7431 -0.8907
  831SOL    HW2 3323   2.483   2.409   1.272 -1.5755  0.6398  0.5870
  831SOL     MW 3324   2.409   2.444   1.302 -0.2412 -0.3820  0.0004
  832SOL     OW 3325   2.392   2.184   1.907  0.4977 -0.1748 -0.1210
  832SOL    HW1 3326   2.419   2.278   1.917  2.3434 -0.7023 -1.4760
  832SOL    HW2 3327   2.479   2.143   1.897  1.3125 -0.6049 -0.6705
  832SOL     MW 3328   2.407   2.191   1.907  0.8488 -0.3011 -0.3723
  833SOL     OW 3329   1.774   2.452   0.880  0.1258  0.3903  0.3338
  833SOL    HW1 3330   1.696   2.403   0.890  5.2931  0.4883 -1.7842
  833SOL    HW2 3331   1.783   2.511   0.965 -2.1755  0.6274  1.2230
  833SOL     MW 3332   1.765   2.453   0.893  0.5039  0.4345  0.1717
  834SOL     OW 3333   2.169   2.472   0.574  1.0546  0.2674  0.1032
  834SOL    HW1 3334   2.085   2.428   0.564 -2.2422  3.0846 -0.5027
  834SOL    HW2 3335   2.200   2.461   0.491 -3.1932 -0.6120  2.0670
  834SOL     MW 3336   2.162   2.465   0.561  0.0592  0.5231  0.2824
  835SOL     OW 3337   1.776   2.594   0.631  0.0255  0.4390 -0.2295
  835SOL    HW1 3338   1.744   2.534   0.706 -1.0576  1.0325 -0.9252
  835SOL    HW2 3339   1.834   2.657   0.684  1.4669 -0.3736  2.5876
  835SOL     MW 3340   1.779   2.595   0.648  0.0728  0.4101  0.0504
  836SOL     OW 3341   1.929   2.187   1.595  0.6105 -0.0807  0.0261
  836SOL    HW1 3342   1.998   2.169   1.657 -0.9529 -2.2279  1.8905
  836SOL    HW2 3343   1.875   2.252   1.641 -0.5418  1.2583 -0.6045
  836SOL     MW 3344   1.931   2.193   1.609  0.2522 -0.1874  0.1889
  837SOL     OW 3345   2.121   0.194   0.716  0.1729 -0.1668  0.0270
  837SOL    HW1 3346   2.041   0.233   0.679 -1.1581  0.7613 -0.2682
  837SOL    HW2 3347   2.131   0.118   0.662 -0.0210 -0.0999  3.0129
  837SOL     MW 3348   2.112   0.189   0.704 -0.0283 -0.0355  0.3820
  838SOL     OW 3349   2.946   2.152   0.919 -0.2444  0.1132 -0.2038
  838SOL    HW1 3350   2.875   2.109   0.973 -0.7713 -0.5882 -0.4468
  838SOL    HW2 3351   2.991   2.078   0.869 -0.6668  0.6064 -1.7608
  838SOL     MW 3352   2.943   2.137   0.919 -0.3696  0.0857 -0.4413
  839SOL     OW 3353   1.528   2.338   0.946  0.0778 -0.1345 -0.0709
  839SOL    HW1 3354   1.508   2.415   0.996  1.5130 -1.3097 -0.3639
  839SOL    HW2 3355   1.538   2.267   1.012  0.3104 -0.4690  1.1558
  839SOL     MW 3356   1.526   2.339   0.961  0.2979 -0.3337  0.0523
  840SOL     OW 3357   2.313   2.071   2.415 -0.7676 -0.3295  0.0631
  840SOL    HW1 3358   2.297   2.141   2.354  0.4525  2.5898  0.1096
  840SOL    HW2 3359   2.350   2.118   2.494  0.4330  2.0663 -0.8954
  840SOL     MW 3360   2.315   2.087   2.418 -0.4482  0.3717 -0.0572
  841SOL     OW 3361   2.120   2.462   0.111  0.7426 -0.5092 -0.1263
  841SOL    HW1 3362   2.187   2.479   0.046 -1.4657  0.1063 -0.7472
  841SOL    HW2 3363   2.063   2.390   0.077 -1.8545  0.8849 -2.0081
  841SOL     MW 3364   2.121   2.454   0.098  0.1086 -0.2440 -0.4565
  842SOL     OW 3365   2.632   1.922   1.603  0.9528 -0.4200  0.3161
  842SOL    HW1 3366   2.555   1.865   1.584 -0.1941 -2.0417  0.0104
  842SOL    HW2 3367   2.609   2.000   1.560 -1.2470 -1.2762  1.5392
  842SOL     MW 3368   2.619   1.925   1.595  0.5112 -0.7469  0.4372
  843SOL     OW 3369   2.595   2.743   1.789  0.0122  0.0814 -0.1762
  843SOL    HW1 3370   2.685   2.716   1.761  0.8522 -0.0144 -0.5326
  843SOL    HW2 3371   2.558   2.658   1.777  1.2632 -3.1243 -1.3225
  843SOL     MW 3372   2.602   2.728   1.784  0.2881 -0.3542 -0.3744
  844SOL     OW 3373   2.598   2.296   1.206 -0.1782 -0.0163  0.0644
  844SOL    HW1 3374   2.626   2.315   1.118  3.5156  1.6258 -1.2173
  844SOL    HW2 3375   2.674   2.311   1.261 -3.1748 -0.9754 -1.4731
  844SOL     MW 3376   2.612   2.301   1.202 -0.0862  0.0738 -0.3076
  845SOL     OW 3377   2.855   2.475   0.294  0.1646 -0.4899  0.4580
  845SOL    HW1 3378   2.862   2.385   0.316 -1.7887 -1.0935  0.2053
  845SOL    HW2 3379   2.873   2.518   0.377  0.1911 -1.0282 -2.2422
  845SOL     MW 3380   2.858   2.469   0.308 -0.0896 -0.6406  0.0684
  846SOL     OW 3381   1.528   2.866   0.782 -0.0118  0.2120 -0.1842
  846SOL    HW1 3382   1.616   2.910   0.802  0.8097  0.7270  3.7069
  846SOL    HW2 3383   1.471   2.912   0.840 -0.7997 -1.5206 -2.9738
  846SOL     MW 3384   1.532   2.878   0.792 -0.0074  0.0513 -0.0389
  847SOL     OW 3385   2.554   1.928   0.168 -0.7154  0.1015 -0.5790
  847SOL    HW1 3386   2.627   1.867   0.180  0.9892 -2.3805 -0.2690
  847SOL    HW2 3387   2.509   1.899   0.089 -0.0031 -1.0311  1.3238
  847SOL     MW 3388   2.558   1.916   0.159 -0.3965 -0.3754 -0.2870
  848SOL     OW 3389   2.531   2.100   1.403  0.4258 -0.3995  0.1553
  848SOL    HW1 3390   2.581   2.153   1.343  0.0197 -1.5264  0.2186
  848SOL    HW2 3391   2.498   2.034   1.345  1.1898  0.5842 -1.3308
  848SOL     MW 3392   2.533   2.099   1.387  0.4730 -0.4184 -0.0325
  849SOL     OW 3393   1.979   2.745   0.780 -0.4610 -0.2793  0.0711
  849SOL    HW1 3394   2.017   2.668   0.817 -0.1873  0.7033  2.2101
  849SOL    HW2 3395   2.053   2.782   0.725 -1.3968 -0.1527 -1.3802
  849SOL     MW 3396   1.994   2.740   0.778 -0.5484 -0.1330  0.1619
  850SOL     OW 3397   2.221   1.953   1.633  0.0016  0.6260 -0.4398
  850SOL    HW1 3398   2.135   1.911   1.619 -0.6448 -1.3233 -1.1991
  850SOL    HW2 3399   2.196   2.043   1.639 -3.5107  0.1107  3.6911
  850SOL     MW 3400   2.206   1.960   1.632 -0.5471  0.3008  0.0050
  851SOL     OW 3401   2.276   2.410   0.324  0.2383  0.0244 -0.2626
  851SOL    HW1 3402   2.228   2.438   0.248  0.6008 -1.8267  0.6751
  851SOL    HW2 3403   2.357   2.463   0.319 -0.7920 -2.9217  1.4072
  851SOL     MW 3404   2.281   2.421   0.313  0.1502 -0.6085  0.0814
  852SOL     OW 3405   2.374   2.152   0.269  0.1372 -0.1331  0.4729
  852SOL    HW1 3406   2.327   2.223   0.316 -0.6262 -0.8783 -3.1926
  852SOL    HW2 3407   2.457   2.183   0.245  2.6407  2.6322  1.4649
  852SOL     MW 3408   2.379   2.166   0.272  0.3668  0.1335  0.1202
  853SOL     OW 3409   2.495   2.435   1.976  0.3985  0.3384  0.2533
  853SOL    HW1 3410   2.507   2.462   1.882 -0.2348  2.6319  0.1530
  853SOL    HW2 3411   2.581   2.424   2.006 -2.2557  1.0864 -1.5576
  853SOL     MW 3412   2.508   2.437   1.967 -0.0353  0.7397  0.0011
  854SOL     OW 3413   2.802   2.309   0.732  0.2894  1.0713 -0.2178
  854SOL    HW1 3414   2.726   2.256   0.722  1.3236  0.0648  1.1843
  854SOL    HW2 3415   2.862   2.255   0.787 -0.4875 -0.7675  0.2241
  854SOL     MW 3416   2.800   2.295   0.738  0.3234  0.6959  0.0255
  855SOL     OW 3417   2.717   2.249   0.368 -0.1818 -0.2722  0.3244
  855SOL    HW1 3418   2.715   2.325   0.430  0.9608  2.4873  0.3989
  855SOL    HW2 3419   2.795   2.201   0.393  2.7548  0.4270  0.3052
  855SOL     MW 3420   2.727   2.252   0.379  0.3564  0.1841  0.3317
  856SOL     OW 3421   2.190   1.957   0.190 -0.1989 -0.0716 -0.0623
  856SOL    HW1 3422   2.107   1.975   0.230  0.6846 -1.0944  0.8257
  856SOL    HW2 3423   2.245   2.028   0.224  0.1877  0.1134  0.8085
  856SOL     MW 3424   2.186   1.969   0.200 -0.0313 -0.1821  0.1698
  857SOL     OW 3425   2.592   1.969   0.471  0.5779  0.2292  0.7349
  857SOL    HW1 3426   2.620   2.049   0.415  0.0504 -0.3511 -0.6687
  857SOL    HW2 3427   2.525   1.923   0.406 -2.0454 -0.8984 -1.3915
  857SOL     MW 3428   2.587   1.974   0.455  0.1622  0.0039  0.2691
  858SOL     OW 3429   2.841   2.651   1.692  0.1249 -0.4066  0.4629
  858SOL    HW1 3430   2.933   2.679   1.694  0.6995  1.7601 -0.5674
  858SOL    HW2 3431   2.833   2.568   1.734  0.5780 -2.6499  1.5683
  858SOL     MW 3432   2.852   2.644   1.698  0.2605 -0.4167  0.4728
  859SOL     OW 3433   2.139   2.559   0.903  0.3958  0.4178 -0.1647
  859SOL    HW1 3434   2.118   2.485   0.854  2.5174  0.3301  2.2757
  859SOL    HW2 3435   2.235   2.558   0.904 -1.1465  2.0566  1.2063
  859SOL     MW 3436   2.149   2.549   0.897  0.4723  0.6225  0.3382
  860SOL     OW 3437   2.632   2.598   0.192  0.6191  0.3754 -0.0612
  860SOL    HW1 3438   2.705   2.568   0.242 -0.0446  0.5259 -3.4275
  860SOL    HW2 3439   2.675   2.624   0.110 -0.6187 -2.5220  0.9130
  860SOL     MW 3440   2.648   2.597   0.188  0.3683  0.0130 -0.3768
  861SOL     OW 3441   1.542   2.131   1.146 -0.2155 -0.0964  0.4929
  861SOL    HW1 3442   1.564   2.196   1.213  0.2401  2.1071 -0.2469
  861SOL    HW2 3443   1.498   2.068   1.208 -1.5962 -1.1404  1.2436
  861SOL     MW 3444   1.539   2.131   1.163 -0.3375  0.0566  0.4944
  862SOL     OW 3445   2.416   1.777   1.540  0.6486 -0.0100 -0.2802
  862SOL    HW1 3446   2.343   1.820   1.579  0.3798 -0.9156 -0.5962
  862SOL    HW2 3447   2.420   1.804   1.447 -3.6576  2.5157  2.3328
  862SOL     MW 3448   2.407   1.786   1.533  0.0450  0.2038  0.0228
  863SOL     OW 3449   3.058   1.881   1.073 -0.7059 -0.5221 -0.6202
  863SOL    HW1 3450   3.129   1.830   1.118 -0.2476 -1.3107  1.2910
  863SOL    HW2 3451   3.023   1.924   1.151 -1.9639 -0.3170 -2.2319
  863SOL     MW 3452   3.063   1.880   1.089 -0.8114 -0.5991 -0.5807
  864SOL     OW 3453   0.007   1.929   0.803 -0.4728  0.3300 -0.5631
  864SOL    HW1 3454  -0.021   1.898   0.890  0.4410 -1.7386 -1.3211
  864SOL    HW2 3455  -0.036   1.879   0.730  1.8341 -2.0381  2.5440
  864SOL     MW 3456  -0.003   1.919   0.805 -0.0479 -0.2554 -0.2532
  865SOL     OW 3457   2.627   2.131   0.010 -0.0325 -0.4968  0.3124
  865SOL    HW1 3458   2.603   2.076   0.087 -2.2212 -0.1904 -0.2122
  865SOL    HW2 3459   2.569   2.110  -0.064  0.9516  2.0160  0.0367
  865SOL     MW 3460   2.616   2.121   0.011 -0.1915 -0.1248  0.2068
  866SOL     OW 3461   2.676   2.304   1.640 -0.1952  0.2695  0.9365
  866SOL    HW1 3462   2.663   2.217   1.685 -0.0123 -0.2558 -1.5967
  866SOL    HW2 3463   2.749   2.300   1.581  1.1033 -1.4959 -0.0393
  866SOL     MW 3464   2.684   2.292   1.639  0.0003 -0.0327  0.4735
  867SOL     OW 3465   0.015   2.661   1.783 -0.0208  0.2195  0.2485
  867SOL    HW1 3466   0.025   2.652   1.875  0.1018 -0.2858  1.7172
  867SOL    HW2 3467  -0.006   2.756   1.773  1.7913  1.4205  1.1925
  867SOL     MW 3468   0.013   2.673   1.794  0.2345  0.3113  0.5669
  868SOL     OW 3469   2.820   2.602   0.551  0.3708  0.6025  0.5776
  868SOL    HW1 3470   2.736   2.558   0.537  0.3671  0.8917 -0.3270
  868SOL    HW2 3471   2.806   2.691   0.509  1.0569  0.6250  0.7779
  868SOL     MW 3472   2.807   2.608   0.544  0.4608  0.6436  0.4846
  869SOL     OW 3473   2.015   2.365   1.138  0.6433 -0.1039  0.0188
  869SOL    HW1 3474   2.097   2.403   1.106  1.6315 -1.0033  0.0142
  869SOL    HW2 3475   1.969   2.325   1.059 -0.5948  0.6268 -0.5020
  869SOL     MW 3476   2.020   2.365   1.123  0.6103 -0.1261 -0.0505
  870SOL     OW 3477   2.160   3.097   0.479 -0.3882 -0.5155 -0.0528
  870SOL    HW1 3478   2.223   3.125   0.413  1.7942  0.1059 -2.4280
  870SOL    HW2 3479   2.179   3.004   0.482  2.0785 -2.3106  2.3043
  870SOL     MW 3480   2.171   3.089   0.471  0.2252 -0.6704 -0.0552
  871SOL     OW 3481   2.496   2.111   0.948  0.0379 -0.0217 -0.2457
  871SOL    HW1 3482   2.430   2.051   0.909  3.7004  0.1723 -0.4539
  871SOL    HW2 3483   2.451   2.168   1.011 -0.7670 -2.0058  1.9656
  871SOL     MW 3484   2.482   2.111   0.951  0.4149 -0.2579  0.0186
  872SOL     OW 3485   2.055   2.570   1.490  0.0593 -0.0788  0.1926
  872SOL    HW1 3486   2.009   2.595   1.573 -0.6075 -0.8648  0.7990
  872SOL    HW2 3487   1.990   2.532   1.430 -1.1900 -0.2989  1.9566
  872SOL     MW 3488   2.041   2.568   1.493 -0.1935 -0.2115  0.5054
  873SOL     OW 3489   2.920   2.029   1.899  0.4455 -0.4477 -0.0429
  873SOL    HW1 3490   2.945   2.107   1.947  0.7088 -0.1918  1.4192
  873SOL    HW2 3491   2.961   2.048   1.818  1.0069  0.4937  2.9675
  873SOL     MW 3492   2.929   2.042   1.894  0.5543 -0.2897  0.5472
  874SOL     OW 3493   2.328   1.516   2.378 -0.9658 -0.3295 -0.1000
  874SOL    HW1 3494   2.299   1.461   2.302  0.8418 -1.0634  1.2165
  874SOL    HW2 3495   2.393   1.454   2.406 -0.7045  0.6787 -0.7290
  874SOL     MW 3496   2.333   1.501   2.372 -0.6928 -0.2933 -0.0093
  875SOL     OW 3497   2.296   2.324   1.077  0.7848 -0.1635  0.1911
  875SOL    HW1 3498   2.313   2.403   1.027  0.2076  1.3885  0.4397
  875SOL    HW2 3499   2.316   2.360   1.164 -2.3230 -0.1259 -0.6585
  875SOL     MW 3500   2.301   2.339   1.082  0.2986  0.0462  0.1118
  876SOL     OW 3501   3.041   2.329   1.231  0.1346  0.1802 -0.0907
  876SOL    HW1 3502   3.068   2.372   1.152  3.1663  0.3586  1.8749
  876SOL    HW2 3503   3.092   2.379   1.302  0.9865 -0.9112  0.6047
  876SOL     MW 3504   3.051   2.341   1.230  0.6470  0.0597  0.2604
  877SOL     OW 3505   3.039   2.703   0.336  0.0596  0.1308 -0.2281
  877SOL    HW1 3506   3.075   2.787   0.325 -0.5167 -0.9329 -2.9603
  877SOL    HW2 3507   3.051   2.665   0.246 -0.5302 -3.1880  0.4296
  877SOL     MW 3508   3.045   2.709   0.323 -0.0942 -0.4474 -0.5018
  878SOL     OW 3509   2.433   1.849   1.280 -0.2037 -0.3487 -0.4038
  878SOL    HW1 3510   2.353   1.798   1.289 -0.3435  1.6503 -0.1116
  878SOL    HW2 3511   2.502   1.795   1.248  0.7769 -2.2311  0.3296
  878SOL     MW 3512   2.431   1.835   1.277 -0.0927 -0.3333 -0.2685
  879SOL     OW 3513   2.673   2.428   0.962 -0.2472 -0.5295 -0.0994
  879SOL    HW1 3514   2.749   2.475   0.996  0.7619  0.1275 -0.9155
  879SOL    HW2 3515   2.711   2.394   0.881 -1.2918  0.4787  0.9441
  879SOL     MW 3516   2.688   2.430   0.956 -0.2519 -0.3098 -0.0694
  880SOL     OW 3517   2.554   2.192   0.690  0.5952  0.4939  0.1625
  880SOL    HW1 3518   2.515   2.163   0.777 -3.0319 -2.7000  1.7946
  880SOL    HW2 3519   2.575   2.105   0.651 -0.8635 -2.3743 -0.2965
  880SOL     MW 3520   2.551   2.177   0.697 -0.0758 -0.3059  0.3172
  881SOL     OW 3521   2.944   2.676   0.786 -0.3048  0.6388  0.0729
  881SOL    HW1 3522   2.888   2.630   0.716 -3.2791 -0.8545  1.1067
  881SOL    HW2 3523   3.037   2.668   0.759  0.4048 -0.0499 -0.4399
  881SOL     MW 3524   2.949   2.669   0.773 -0.6036  0.3509  0.1417
  882SOL     OW 3525   2.267   2.884   1.921 -0.3270 -0.1779  0.0057
  882SOL    HW1 3526   2.268   2.872   1.827  3.1323  0.3974 -0.5089
  882SOL    HW2 3527   2.207   2.823   1.955  0.6587  1.4630  0.1057
  882SOL     MW 3528   2.260   2.875   1.913  0.2594  0.1145 -0.0490
  883SOL     OW 3529   2.316   2.262   1.505 -0.2620 -0.0749  0.0431
  883SOL    HW1 3530   2.395   2.213   1.478  0.8852 -4.7581  2.8043
  883SOL    HW2 3531   2.237   2.228   1.464 -3.0522 -0.0017  2.1317
  883SOL     MW 3532   2.316   2.251   1.496 -0.4788 -0.6832  0.6830
  884SOL     OW 3533   1.956   1.846   1.147 -0.1324 -0.1446 -0.4675
  884SOL    HW1 3534   1.896   1.918   1.126  1.5032  1.8163  2.2096
  884SOL    HW2 3535   2.040   1.897   1.160  1.3660  0.1601 -1.5688
  884SOL     MW 3536   1.959   1.862   1.146  0.2811  0.1543 -0.2596
  885SOL     OW 3537   2.841   2.426   1.818  0.4111 -0.0541 -0.3841
  885SOL    HW1 3538   2.928   2.385   1.803  1.1760 -0.2268 -1.3813
  885SOL    HW2 3539   2.780   2.369   1.766  0.5838  0.6118 -1.5873
  885SOL     MW 3540   2.845   2.413   1.809  0.5348  0.0109 -0.6744
  886SOL     OW 3541   2.803   2.382   1.367  0.0212 -0.0198  0.5953
  886SOL    HW1 3542   2.875   2.360   1.312 -1.0747 -0.0404  0.4873
  886SOL    HW2 3543   2.778   2.474   1.355 -1.2562 -2.0852 -2.9314
  886SOL     MW 3544   2.809   2.391   1.358 -0.2920 -0.2950  0.1157
  887SOL     OW 3545   2.315   2.593   1.564  0.0446 -0.1755  0.1418
  887SOL    HW1 3546   2.365   2.612   1.485  0.1399  0.7189  1.5352
  887SOL    HW2 3547   2.223   2.563   1.534 -1.3604  0.5866 -0.3099
  887SOL     MW 3548   2.309   2.592   1.549 -0.1282  0.0430  0.2660
  888SOL     OW 3549   1.843   2.081   1.371  0.0181 -0.7717  0.2320
  888SOL    HW1 3550   1.922   2.100   1.318 -0.5623 -1.3284 -0.3443
  888SOL    HW2 3551   1.877   2.114   1.458  2.5329  1.5355 -0.0321
  888SOL     MW 3552   1.858   2.088   1.376  0.2734 -0.5408  0.1211
  889SOL     OW 3553   2.314   2.007   2.099 -0.3318 -0.1657  0.0303
  889SOL    HW1 3554   2.392   1.994   2.152  0.0624 -0.1743 -2.6737
  889SOL    HW2 3555   2.349   2.078   2.042 -1.8439  0.1114  0.8559
  889SOL     MW 3556   2.329   2.015   2.098 -0.4793 -0.1303 -0.2176
  890SOL     OW 3557   0.115   2.366   0.135  0.3758  0.0284 -0.4671
  890SOL    HW1 3558   0.062   2.449   0.134  1.7978 -1.2187 -0.2682
  890SOL    HW2 3559   0.082   2.317   0.213  3.5590 -0.4790 -0.8674
  890SOL     MW 3560   0.104   2.371   0.145  0.9834 -0.2031 -0.4937
  891SOL     OW 3561   3.015   2.064   1.301  0.4362 -0.1944 -0.1162
  891SOL    HW1 3562   3.097   2.048   1.348  0.6466  0.8973 -1.1030
  891SOL    HW2 3563   3.019   2.146   1.254 -0.8474  0.1838 -1.1613
  891SOL     MW 3564   3.027   2.072   1.301  0.2946 -0.0005 -0.3843
  892SOL     OW 3565   2.437   2.361   2.837 -0.5182 -0.0690 -0.4874
  892SOL    HW1 3566   2.447   2.265   2.843  2.4738  2.3819 -0.3157
  892SOL    HW2 3567   2.535   2.388   2.835 -1.2487 -0.0924  2.3570
  892SOL     MW 3568   2.451   2.352   2.838 -0.2198  0.2513 -0.0894
  893SOL     OW 3569   1.583   2.349   1.296  0.3279  0.4934 -0.2805
  893SOL    HW1 3570   1.512   2.401   1.338  1.0094 -1.0609 -0.0351
  893SOL    HW2 3571   1.659   2.359   1.352  0.1039 -0.8823  0.0857
  893SOL     MW 3572   1.584   2.357   1.309  0.3882  0.1068 -0.1998
  894SOL     OW 3573   2.830   1.795   0.485  0.0478  0.7880 -0.0244
  894SOL    HW1 3574   2.753   1.854   0.505  2.5351 -2.0379 -0.8799
  894SOL    HW2 3575   2.825   1.790   0.389 -2.6451 -1.3433 -2.2108
  894SOL     MW 3576   2.819   1.802   0.475  0.0206  0.1340 -0.4258
  895SOL     OW 3577   2.114   2.172   1.320  0.3685 -0.8112 -0.2306
  895SOL    HW1 3578   2.090   2.250   1.275  1.2077  1.5008 -1.6507
  895SOL    HW2 3579   2.154   2.117   1.253 -0.6127  3.2105  0.4141
  895SOL     MW 3580   2.116   2.175   1.305  0.3497  0.0245 -0.3329
  896SOL     OW 3581   2.142   2.795   1.061  0.2255 -0.1734 -0.1065
  896SOL    HW1 3582   2.184   2.788   1.146 -0.3423  1.5015  1.3283
  896SOL    HW2 3583   2.131   2.704   1.016 -0.5450 -1.7354 -0.8845
  896SOL     MW 3584   2.146   2.782   1.066  0.0489 -0.1585 -0.0199
  897SOL     OW 3585   2.995   2.922   0.114  0.0145 -0.1782  0.0830
  897SOL    HW1 3586   3.064   2.899   0.059 -1.4336 -1.6518  2.3288
  897SOL    HW2 3587   2.929   2.871   0.061  1.1164 -0.5435 -1.6744
  897SOL     MW 3588   2.995   2.912   0.100 -0.0312 -0.4208  0.1474
  898SOL     OW 3589   2.064   0.180   1.391  0.3481 -1.2849  0.0824
  898SOL    HW1 3590   1.989   0.123   1.387  0.5344 -0.7426 -0.5045
  898SOL    HW2 3591   2.076   0.212   1.300  1.0577  0.2421 -0.3686
  898SOL     MW 3592   2.055   0.177   1.378  0.4663 -1.0119 -0.0545
  899SOL     OW 3593   2.941   2.932   0.635 -0.1927 -0.1471 -0.0413
  899SOL    HW1 3594   2.929   2.860   0.694  0.1859  0.1788  2.0029
  899SOL    HW2 3595   2.863   2.985   0.645 -1.1824 -2.2341 -2.3459
  899SOL     MW 3596   2.929   2.929   0.644 -0.2733 -0.3795 -0.0757
  900SOL     OW 3597   0.062   2.439   1.021  0.2684  0.4132  0.1390
  900SOL    HW1 3598   0.087   2.522   0.979  0.3669 -0.1826 -1.3758
  900SOL    HW2 3599   0.075   2.367   0.953 -0.7125 -0.5751  0.6595
  900SOL     MW 3600   0.067   2.440   1.007  0.1520  0.2042  0.0078
  901SOL     OW 3601   1.763   2.866   1.686 -0.3876  0.5559 -0.1864
  901SOL    HW1 3602   1.820   2.792   1.682  0.8201  0.1764 -2.2485
  901SOL    HW2 3603   1.719   2.867   1.601 -2.5265 -0.8725  0.0691
  901SOL     MW 3604   1.765   2.856   1.674 -0.5104  0.3173 -0.4248
  902SOL     OW 3605   2.657   2.112   1.814 -0.4801 -0.0245 -0.4044
  902SOL    HW1 3606   2.641   2.021   1.785  0.9793 -2.1554 -1.0637
  902SOL    HW2 3607   2.738   2.112   1.862  1.6602 -1.9196  0.2970
  902SOL     MW 3608   2.666   2.100   1.817 -0.0052 -0.5557 -0.3989
  903SOL     OW 3609   1.612   2.771   0.518 -0.0787 -0.5094 -0.2128
  903SOL    HW1 3610   1.663   2.697   0.554 -0.3551 -2.0010  0.1691
  903SOL    HW2 3611   1.573   2.825   0.594 -1.0859  0.8756  0.1230
  903SOL     MW 3612   1.614   2.769   0.533 -0.2481 -0.5235 -0.1181
  904SOL     OW 3613   2.496   2.487   1.727 -0.2256 -0.2547 -0.3748
  904SOL    HW1 3614   2.426   2.506   1.666  1.2911  0.6486  0.0933
  904SOL    HW2 3615   2.551   2.427   1.679  0.3572  2.6206 -1.9107
  904SOL     MW 3616   2.494   2.481   1.713  0.0514  0.2438 -0.5157
  905SOL     OW 3617   2.330   2.569   2.159  0.4115  0.2871 -0.2156
  905SOL    HW1 3618   2.391   2.521   2.103  0.0368 -0.7405 -2.8359
  905SOL    HW2 3619   2.306   2.498   2.222 -1.3185 -2.0207  2.7467
  905SOL     MW 3620   2.335   2.554   2.160  0.1338 -0.1530 -0.1704
  906SOL     OW 3621   2.424   2.571   0.910 -0.2787  0.1008 -0.2787
  906SOL    HW1 3622   2.514   2.533   0.911 -1.9318 -1.3071  0.6593
  906SOL    HW2 3623   2.441   2.663   0.881  1.5849 -2.3037  1.1361
  906SOL     MW 3624   2.438   2.578   0.907 -0.2509 -0.4022  0.0317
  907SOL     OW 3625   2.551   2.886   1.337 -0.3941  0.7340 -0.0979
  907SOL    HW1 3626   2.631   2.932   1.359  0.3222 -0.5277 -0.2779
  907SOL    HW2 3627   2.570   2.849   1.251 -0.2328 -1.6451 -0.9505
  907SOL     MW 3628   2.564   2.887   1.329 -0.2783  0.2536 -0.2341
  908SOL     OW 3629   2.755   2.363   0.010  0.1154 -0.0854  0.0275
  908SOL    HW1 3630   2.728   2.273   0.006 -0.7675  2.8022  0.1519
  908SOL    HW2 3631   2.690   2.408   0.061 -1.8416  1.6762 -1.2081
  908SOL     MW 3632   2.743   2.357   0.016 -0.2593  0.5280 -0.1191
  909SOL     OW 3633   1.673   0.180   1.154  0.4923  0.0345 -0.4309
  909SOL    HW1 3634   1.652   0.243   1.079  2.0574  0.4307  0.5342
  909SOL    HW2 3635   1.706   0.227   1.228  2.6599  0.5419  1.5653
  909SOL     MW 3636   1.675   0.194   1.154  0.9848  0.1538 -0.0402
  910SOL     OW 3637   2.262   1.786   0.404 -0.1201 -0.1716 -0.5531
  910SOL    HW1 3638   2.217   1.701   0.411  1.5774  0.2925  1.0866
  910SOL    HW2 3639   2.242   1.822   0.314 -1.9052 -1.5253 -0.9812
  910SOL     MW 3640   2.253   1.780   0.393 -0.1316 -0.2890 -0.3932
  911SOL     OW 3641   2.194   2.210   1.735 -0.5452 -0.6034 -0.1203
  911SOL    HW1 3642   2.266   2.178   1.795  0.0195  0.9698 -0.3318
  911SOL    HW2 3643   2.241   2.245   1.657 -0.5781 -0.4410 -1.2049
  911SOL     MW 3644   2.210   2.210   1.733 -0.4750 -0.3744 -0.2913
  912SOL     OW 3645   2.901   1.907   1.529  0.6060 -0.4496  0.3753
  912SOL    HW1 3646   2.906   1.960   1.443  0.0828  0.4247 -1.7254
  912SOL    HW2 3647   2.814   1.918   1.572  3.3618  0.3480 -0.8102
  912SOL     MW 3648   2.890   1.916   1.524  0.9006 -0.2290 -0.0583
  913SOL     OW 3649   2.580   2.995   0.352 -0.0273 -0.2159  0.0616
  913SOL    HW1 3650   2.650   2.931   0.340 -0.8008 -0.1920  0.8394
  913SOL    HW2 3651   2.498   2.964   0.321 -1.0339  0.3166 -1.3778
  913SOL     MW 3652   2.578   2.983   0.346 -0.2622 -0.1425 -0.0257
  914SOL     OW 3653   2.776   1.697   3.045  0.3699  0.4232  0.2466
  914SOL    HW1 3654   2.801   1.772   2.991 -1.6843  2.7038 -0.3469
  914SOL    HW2 3655   2.681   1.708   3.025 -1.6444  3.3525 -1.8583
  914SOL     MW 3656   2.767   1.708   3.035 -0.1669  1.1106 -0.1094
  915SOL     OW 3657   1.755   0.242   0.233 -0.4666 -0.1349  0.2488
  915SOL    HW1 3658   1.832   0.191   0.260 -0.9878  1.0665  0.1744
  915SOL    HW2 3659   1.676   0.189   0.241  1.2826 -0.5053 -1.8129
  915SOL     MW 3660   1.754   0.228   0.238 -0.3046 -0.0253 -0.0331
  916SOL     OW 3661   1.760   2.065   1.950  0.4652  0.4518 -0.2391
  916SOL    HW1 3662   1.799   2.150   1.928  2.0056 -1.1414 -4.0556
  916SOL    HW2 3663   1.760   2.007   1.874  0.5791  0.5035 -0.3550
  916SOL     MW 3664   1.765   2.068   1.937  0.6835  0.2484 -0.7580
  917SOL     OW 3665   2.427   2.295   2.544  0.6103 -0.6766  0.2760
  917SOL    HW1 3666   2.458   2.320   2.633 -1.5257  3.2468  0.4897
  917SOL    HW2 3667   2.500   2.313   2.483 -0.0537 -0.2470  1.3146
  917SOL     MW 3668   2.441   2.300   2.548  0.2409 -0.1023  0.4412
  918SOL     OW 3669   1.987   1.640   2.697 -0.0722 -0.1745 -0.6962
  918SOL    HW1 3670   1.931   1.683   2.626  1.2163 -0.6062  0.3713
  918SOL    HW2 3671   2.072   1.691   2.707  1.9869 -0.0952 -3.1052
  918SOL     MW 3672   1.991   1.652   2.689  0.3695 -0.2210 -0.8732
  919SOL     OW 3673   0.062   2.346   2.242  0.6812 -0.3946 -0.1503
  919SOL    HW1 3674  -0.024   2.318   2.215  0.4569  0.0219  2.1745
  919SOL    HW2 3675   0.126   2.333   2.172  1.8443 -0.9613  0.4002
  919SOL     MW 3676   0.059   2.341   2.229  0.8051 -0.4144  0.2291
  920SOL     OW 3677   2.770   2.778   3.101 -0.3514  0.2443 -0.0088
  920SOL    HW1 3678   2.683   2.817   3.114 -1.4672 -0.0505  0.1977
  920SOL    HW2 3679   2.763   2.745   3.012  0.5187 -0.2610  2.1528
  920SOL     MW 3680   2.758   2.779   3.091 -0.3838  0.1387  0.3036
  921SOL     OW 3681   2.382   2.629   2.628  0.0953 -0.5170 -0.4277
  921SOL    HW1 3682   2.470   2.635   2.595  0.4609  4.4263  1.4280
  921SOL    HW2 3683   2.369   2.557   2.695 -0.2319  0.4715 -0.1654
  921SOL     MW 3684   2.392   2.621   2.633  0.1004  0.2657 -0.1483
  922SOL     OW 3685   2.027   2.830   0.316  0.6854  0.6140 -0.1598
  922SOL    HW1 3686   2.006   2.844   0.221  0.4987 -0.3715  2.3787
  922SOL    HW2 3687   1.981   2.741   0.335 -1.4268 -0.0068 -2.1835
  922SOL     MW 3688   2.018   2.820   0.306  0.3821  0.4021 -0.0919
  923SOL     OW 3689   2.196   2.803   1.668 -0.4175  0.5124 -0.6536
  923SOL    HW1 3690   2.259   2.737   1.628 -1.4791 -0.7448 -0.8580
  923SOL    HW2 3691   2.153   2.841   1.594 -0.0705  1.0330  1.8174
  923SOL     MW 3692   2.198   2.799   1.653 -0.5118  0.4152 -0.3545
  924SOL     OW 3693   1.224   2.626   2.527  0.0128 -0.3830 -0.9078
  924SOL    HW1 3694   1.290   2.694   2.511  1.1176  3.2174  1.8541
  924SOL    HW2 3695   1.256   2.566   2.593 -1.2573  0.7009 -2.3690
  924SOL     MW 3696   1.237   2.627   2.534 -0.0090  0.2351 -0.7362
  925SOL     OW 3697   2.944   0.247   2.588  0.3943  0.0443  0.3777
  925SOL    HW1 3698   2.927   0.273   2.499 -1.6245  0.2083 -1.9842
  925SOL    HW2 3699   2.894   0.311   2.632  1.7678 -3.7298  1.8599
  925SOL     MW 3700   2.935   0.259   2.582  0.3092 -0.4320  0.2616
  926SOL     OW 3701   2.748   2.408   2.082 -0.0666 -0.1341  0.5287
  926SOL    HW1 3702   2.782   2.477   2.138 -0.6590 -0.1998  0.0930
  926SOL    HW2 3703   2.785   2.406   1.992 -0.0599 -0.3422 -0.1154
  926SOL     MW 3704   2.757   2.416   2.077 -0.1439 -0.1702  0.3862
  927SOL     OW 3705   2.311   0.157   0.292 -0.7145  0.2477 -0.1293
  927SOL    HW1 3706   2.399   0.188   0.325  3.1298 -1.5082  1.7516
  927SOL    HW2 3707   2.347   0.109   0.215  0.3412 -0.4162  1.0253
  927SOL     MW 3708   2.327   0.155   0.286 -0.0680 -0.0716  0.2712
  928SOL     OW 3709   2.075   2.409   1.877 -0.2274  0.3052  0.4205
  928SOL    HW1 3710   2.132   2.362   1.819  0.0864  2.1202 -1.4657
  928SOL    HW2 3711   2.125   2.427   1.955 -2.1142 -2.2538 -0.6491
  928SOL     MW 3712   2.089   2.405   1.880 -0.4349  0.2071  0.0305
  929SOL     OW 3713   2.672   2.367   2.427  0.3365  0.0811  0.2405
  929SOL    HW1 3714   2.744   2.356   2.371  0.8861  1.1678  0.6861
  929SOL    HW2 3715   2.712   2.335   2.506 -2.2990  0.8855  3.3694
  929SOL     MW 3716   2.687   2.361   2.430  0.0613  0.3306  0.7121
  930SOL     OW 3717   1.994   2.833   2.697  0.0317 -0.2827  0.1097
  930SOL    HW1 3718   2.016   2.762   2.764 -0.5439  1.9585 -0.4400
  930SOL    HW2 3719   2.054   2.911   2.713  2.9413 -0.5896 -1.8808
  930SOL     MW 3720   2.005   2.834   2.708  0.3396 -0.0275 -0.2254
  931SOL     OW 3721   3.009   2.779   2.281  0.1640  0.4606 -0.5952
  931SOL    HW1 3722   3.032   2.802   2.375  1.4204 -0.1875 -0.1082
  931SOL    HW2 3723   3.061   2.824   2.215 -1.0238 -2.4092  1.8235
  931SOL     MW 3724   3.019   2.788   2.285  0.1730 -0.0035 -0.2118
  932SOL     OW 3725   2.852   1.989   2.510 -0.6172  0.2246 -0.0197
  932SOL    HW1 3726   2.947   2.006   2.513 -0.6711  1.1296 -1.2355
  932SOL    HW2 3727   2.838   1.977   2.417  1.4916 -2.7591 -0.2942
  932SOL     MW 3728   2.863   1.990   2.498 -0.3461 -0.0497 -0.2163
  933SOL     OW 3729   2.057   2.868   2.260 -0.3687  0.0036  0.0969
  933SOL    HW1 3730   2.118   2.915   2.318 -1.7943 -1.3378  0.1947
  933SOL    HW2 3731   1.988   2.932   2.241  0.3312 -0.0619 -2.2992
  933SOL     MW 3732   2.056   2.883   2.265 -0.4645 -0.1820 -0.2063
  934SOL     OW 3733   2.017   2.698   2.464  0.2477 -0.0785  0.3795
  934SOL    HW1 3734   2.017   2.751   2.547  0.3456 -3.4977  0.7179
  934SOL    HW2 3735   2.018   2.760   2.390 -1.4010  1.0851  0.1580
  934SOL     MW 3736   2.017   2.713   2.465  0.0431 -0.3761  0.3950
  935SOL     OW 3737   2.656   1.601   1.833 -0.1446  0.0244 -0.5131
  935SOL    HW1 3738   2.727   1.561   1.788 -2.1966  1.3369 -0.9221
  935SOL    HW2 3739   2.609   1.599   1.746 -0.8237  0.2619 -1.5590
  935SOL     MW 3740   2.659   1.595   1.816 -0.5050  0.2289 -0.7051
  936SOL     OW 3741   3.013   2.270   3.070 -0.1692  0.2758  0.1759
  936SOL    HW1 3742   3.088   2.307   3.118 -0.4764 -1.4948 -0.3997
  936SOL    HW2 3743   2.942   2.322   3.102 -1.7212 -1.8281 -0.0180
  936SOL     MW 3744   3.014   2.282   3.081 -0.4145 -0.2354  0.0743
  937SOL     OW 3745   1.979   2.094   2.706 -0.8148 -0.3127 -0.1633
  937SOL    HW1 3746   2.072   2.055   2.728 -1.2150 -1.7682  2.3473
  937SOL    HW2 3747   1.939   2.073   2.623 -0.6713  0.1753  0.7236
  937SOL     MW 3748   1.986   2.086   2.698 -0.8487 -0.4403  0.2850
  938SOL     OW 3749   2.270   1.829   1.883 -0.3852  0.4229  0.3659
  938SOL    HW1 3750   2.251   1.883   1.804 -0.9615 -1.7762  1.3156
  938SOL    HW2 3751   2.256   1.884   1.963  1.6142 -1.3583  4.3653
  938SOL     MW 3752   2.266   1.843   1.883 -0.1974 -0.1022  1.0189
  939SOL     OW 3753   2.808   1.985   2.235 -0.1673 -0.3435  0.7343
  939SOL    HW1 3754   2.829   1.923   2.157  2.0389 -0.6357 -1.0704
  939SOL    HW2 3755   2.714   1.990   2.245  0.7922  1.0871 -0.3763
  939SOL     MW 3756   2.799   1.977   2.226  0.2504 -0.1933  0.3496
  940SOL     OW 3757   2.315   0.183   2.661  0.0737 -0.2542 -0.5698
  940SOL    HW1 3758   2.289   0.089   2.655  1.5027  0.3339 -0.9931
  940SOL    HW2 3759   2.358   0.193   2.743 -2.1847  0.1706  0.8377
  940SOL     MW 3760   2.318   0.172   2.671 -0.0357 -0.1206 -0.4399
  941SOL     OW 3761   0.191   2.267   2.020  0.1476  0.3408  0.3428
  941SOL    HW1 3762   0.284   2.250   2.015  0.1472  0.3646 -0.6868
  941SOL    HW2 3763   0.164   2.276   1.937 -0.4761  2.4170 -0.3495
  941SOL     MW 3764   0.200   2.266   2.008  0.0652  0.6179  0.1156
  942SOL     OW 3765   2.933   2.223   2.147 -0.2266 -0.0538 -0.3318
  942SOL    HW1 3766   2.861   2.291   2.132 -0.0756  1.4692 -0.4020
  942SOL    HW2 3767   2.881   2.145   2.173  1.1095  0.4413  0.2392
  942SOL     MW 3768   2.917   2.221   2.149 -0.0304  0.2125 -0.2657
  943SOL     OW 3769   0.350   2.032   2.310 -0.2801  0.4742  0.2269
  943SOL    HW1 3770   0.291   2.096   2.359 -1.4581 -0.1692 -1.8688
  943SOL    HW2 3771   0.440   2.011   2.349  1.6397  0.8074  0.2171
  943SOL     MW 3772   0.354   2.037   2.322 -0.1822  0.4333 -0.0509
  944SOL     OW 3773   2.088   2.689   2.055  0.0974  0.6176 -0.2863
  944SOL    HW1 3774   2.175   2.653   2.072 -0.1938 -4.3426  1.1437
  944SOL    HW2 3775   2.075   2.750   2.125  0.0733 -1.5976  1.7683
  944SOL     MW 3776   2.097   2.693   2.066  0.0558 -0.3291  0.1734
  945SOL     OW 3777   2.747   2.685   2.856 -0.5372 -0.2535 -0.2994
  945SOL    HW1 3778   2.721   2.590   2.857  0.8258 -0.2766 -0.8071
  945SOL    HW2 3779   2.798   2.691   2.773  0.0484  0.9580  1.6272
  945SOL     MW 3780   2.751   2.673   2.845 -0.2801 -0.0967 -0.1122
  946SOL     OW 3781   2.503   2.741   2.299  0.0312  0.2555 -0.1534
  946SOL    HW1 3782   2.507   2.806   2.224 -1.4724  1.8736  3.0040
  946SOL    HW2 3783   2.454   2.663   2.264 -2.2765 -0.0018  3.9927
  946SOL     MW 3784   2.497   2.739   2.285 -0.4717  0.4351  0.8103
  947SOL     OW 3785   1.990   0.101   0.271 -0.3472  0.0491  0.2261
  947SOL    HW1 3786   1.976   0.033   0.208  1.0968  3.7455  2.2817
  947SOL    HW2 3787   2.024   0.064   0.351  0.8641  0.8636 -1.5371
  947SOL     MW 3788   1.993   0.087   0.273  0.0031  0.6443  0.2646
  948SOL     OW 3789   1.776   2.990   2.665 -0.3141 -0.3965  0.2089
  948SOL    HW1 3790   1.838   2.916   2.673 -1.0302  1.2140  1.9575
  948SOL    HW2 3791   1.764   3.007   2.564  0.7741 -2.6375  0.4427
  948SOL     MW 3792   1.782   2.983   2.653 -0.2650 -0.4797  0.4704
  949SOL     OW 3793   2.538   1.981   2.283 -0.2966  0.4813 -0.0341
  949SOL    HW1 3794   2.544   1.888   2.313 -0.1204 -1.1824 -0.7326
  949SOL    HW2 3795   2.467   2.019   2.343  1.4029  0.3259 -0.6278
  949SOL     MW 3796   2.530   1.974   2.295 -0.0491  0.2413 -0.2046
  950SOL     OW 3797   2.289   2.515   3.009 -0.0609 -0.1495 -0.1627
  950SOL    HW1 3798   2.338   2.453   2.952  1.4326 -1.9700 -0.9748
  950SOL    HW2 3799   2.223   2.540   2.941 -0.3331 -0.3671 -0.1628
  950SOL     MW 3800   2.287   2.510   2.992  0.1003 -0.4184 -0.2699
  951SOL     OW 3801   2.985   2.136   2.846  0.5023 -0.0090 -0.1150
  951SOL    HW1 3802   3.020   2.184   2.919 -4.3187  0.7392  0.6646
  951SOL    HW2 3803   3.045   2.122   2.769  0.1869  0.5867  0.5393
  951SOL     MW 3804   2.998   2.140   2.845 -0.1754  0.1683  0.0742
  952SOL     OW 3805   3.098   1.680   2.157  0.3847 -0.4618  0.1933
  952SOL    HW1 3806   3.046   1.731   2.088  1.0191  2.0684 -0.1801
  952SOL    HW2 3807   3.172   1.747   2.159  0.9522 -1.1847  0.8374
  952SOL     MW 3808   3.101   1.696   2.148  0.5433 -0.2233  0.2290
  953SOL     OW 3809   1.902   1.786   2.928  0.2628 -0.2009 -0.2049
  953SOL    HW1 3810   1.826   1.746   2.972  2.4944  2.8538  1.2862
  953SOL    HW2 3811   1.921   1.723   2.857  0.6840  3.5540 -0.5929
  953SOL     MW 3812   1.895   1.772   2.924  0.6128  0.6976 -0.0594
  954SOL     OW 3813   2.482   2.086   2.867 -0.2489  0.3838 -0.0377
  954SOL    HW1 3814   2.388   2.064   2.839 -1.4586 -2.0309  3.2046
  954SOL    HW2 3815   2.541   2.064   2.792 -0.4073  1.6863  0.6160
  954SOL     MW 3816   2.478   2.080   2.853 -0.4294  0.2371  0.4763
  955SOL     OW 3817   1.590   1.596   2.605 -0.2643  0.1834  0.0662
  955SOL    HW1 3818   1.543   1.627   2.516 -1.0320  0.6335  1.0350
  955SOL    HW2 3819   1.678   1.633   2.585 -0.5691  0.1322 -1.4677
  955SOL     MW 3820   1.595   1.605   2.591 -0.4058  0.2360 -0.0084
  956SOL     OW 3821   2.702   2.411   2.832 -0.0194 -0.1052 -0.3554
  956SOL    HW1 3822   2.742   2.368   2.906  0.6132  2.1753  0.0547
  956SOL    HW2 3823   2.749   2.386   2.755 -0.3468 -1.0741 -1.2783
  956SOL     MW 3824   2.713   2.402   2.832  0.0209  0.0679 -0.4231
  957SOL     OW 3825   2.309   2.870   0.375  0.0060 -0.4132  0.4048
  957SOL    HW1 3826   2.219   2.862   0.337  0.9419 -0.8942 -0.8908
  957SOL    HW2 3827   2.303   2.828   0.463 -0.1980  0.7919 -1.2598
  957SOL     MW 3828   2.296   2.864   0.381  0.1025 -0.3176  0.0142
  958SOL     OW 3829   2.046   2.612   2.851  0.3480 -0.0926  0.3471
  958SOL    HW1 3830   2.012   2.540   2.791  2.8088 -2.9291  0.2173
  958SOL    HW2 3831   1.977   2.638   2.916 -0.1164 -0.9143 -1.0483
  958SOL     MW 3832   2.032   2.606   2.851  0.6114 -0.5753  0.1459
  959SOL     OW 3833   2.432   2.631   0.372 -0.1604  0.1473  0.0193
  959SOL    HW1 3834   2.505   2.637   0.316  1.4568 -2.9662  3.8521
  959SOL    HW2 3835   2.391   2.718   0.359  1.6734 -1.1999 -1.6424
  959SOL     MW 3836   2.436   2.643   0.363  0.2949 -0.4413  0.3058
  960SOL     OW 3837   1.974   2.302   2.256  0.2139  0.1588 -0.4372
  960SOL    HW1 3838   1.907   2.281   2.192  0.7732 -3.4633 -2.7679
  960SOL    HW2 3839   1.927   2.320   2.339  1.0211 -0.2437  0.6904
  960SOL     MW 3840   1.959   2.302   2.259  0.3942 -0.3722 -0.5959
  961SOL     OW 3841   2.249   2.331   2.276 -0.0904 -0.0009 -0.6790
  961SOL    HW1 3842   2.159   2.311   2.244 -2.0731  0.8638  0.5870
  961SOL    HW2 3843   2.229   2.376   2.359  0.4611 -0.2309 -2.9577
  961SOL     MW 3844   2.234   2.335   2.283 -0.2792  0.0829 -0.8126
  962SOL     OW 3845   2.215   2.000   2.814  0.4294  0.3211  0.3221
  962SOL    HW1 3846   2.174   1.999   2.900 -1.8080 -0.0640 -0.8368
  962SOL    HW2 3847   2.227   1.904   2.790 -3.5359 -2.0841  0.1099
  962SOL     MW 3848   2.211   1.987   2.822 -0.3890 -0.0470  0.1412
  963SOL     OW 3849   1.828   2.618   2.053 -0.1266 -0.4730  0.4470
  963SOL    HW1 3850   1.927   2.630   2.049  2.9131  0.5453 -1.5567
  963SOL    HW2 3851   1.814   2.540   1.998 -0.6484  3.3004 -1.8119
  963SOL     MW 3852   1.839   2.609   2.045  0.2056  0.1592 -0.1154
  964SOL     OW 3853   1.756   1.933   2.742 -0.0984 -0.3341 -0.7216
  964SOL    HW1 3854   1.833   1.989   2.735 -1.4122 -2.1140 -0.2423
  964SOL    HW2 3855   1.774   1.878   2.826  0.3002  0.6688  2.2497
  964SOL     MW 3856   1.769   1.933   2.752 -0.2191 -0.4366 -0.2663
  965SOL     OW 3857   2.239   2.753   0.620 -0.0774  0.0436 -0.4848
  965SOL    HW1 3858   2.214   2.663   0.615  2.9763 -0.9049  0.3359
  965SOL    HW2 3859   2.289   2.773   0.699 -1.6768 -0.4784  2.6415
  965SOL     MW 3860   2.242   2.744   0.630  0.1145 -0.1504  0.0360
  966SOL     OW 3861   2.630   2.629   2.506  0.4413 -0.1114 -0.1232
  966SOL    HW1 3862   2.589   2.680   2.441  0.2197 -0.4394  2.1038
  966SOL    HW2 3863   2.639   2.538   2.473  0.3396 -1.5930 -1.3111
  966SOL     MW 3864   2.626   2.624   2.493  0.3986 -0.3502  0.0139
  967SOL     OW 3865   2.842   3.018   2.902 -0.6452 -0.0621 -0.3124
  967SOL    HW1 3866   2.834   2.930   2.931 -0.7301 -0.2918 -0.7763
  967SOL    HW2 3867   2.749   3.041   2.888  0.0522 -1.1071 -0.1901
  967SOL     MW 3868   2.829   3.009   2.904 -0.5644 -0.2303 -0.3575
  968SOL     OW 3869   3.009   2.657   2.904  0.6238  0.6064 -0.4168
  968SOL    HW1 3870   2.920   2.664   2.907  3.1169 -0.2726 -0.5673
  968SOL    HW2 3871   3.028   2.572   2.861 -0.9760 -1.3758 -0.2561
  968SOL     MW 3872   3.000   2.647   2.899  0.7417  0.2289 -0.4154
  969SOL     OW 3873   1.524   2.137   1.679 -0.6974  0.5064 -0.0093
  969SOL    HW1 3874   1.593   2.077   1.654  1.1151  0.4979  2.0533
  969SOL    HW2 3875   1.506   2.114   1.767  2.5931  0.4773 -2.6648
  969SOL     MW 3876   1.530   2.126   1.687 -0.0241  0.5014 -0.0876
  970SOL     OW 3877   1.620   1.710   1.765 -0.1456  0.4811  0.1238
  970SOL    HW1 3878   1.676   1.661   1.824  0.8837 -2.3920 -0.4329
  970SOL    HW2 3879   1.552   1.738   1.825  1.3989 -3.4168 -0.6979
  970SOL     MW 3880   1.619   1.707   1.781  0.1940 -0.4123 -0.0580
  971SOL     OW 3881   1.764   3.066   2.409 -0.0866  0.1084  0.2493
  971SOL    HW1 3882   1.798   3.035   2.331  2.5563  0.5738 -0.8866
  971SOL    HW2 3883   1.827   3.143   2.423  1.2878  3.4902 -0.5535
  971SOL     MW 3884   1.777   3.072   2.401  0.4434  0.6160 -0.0065
  972SOL     OW 3885   0.266   2.863   2.462 -0.1926  0.4725  0.2601
  972SOL    HW1 3886   0.323   2.789   2.480  3.3002  2.0795 -0.6062
  972SOL    HW2 3887   0.317   2.937   2.482 -0.1355 -1.6515  0.3590
  972SOL     MW 3888   0.280   2.863   2.467  0.2758  0.4043  0.1588
  973SOL     OW 3889   2.511   0.050   2.083 -0.8302  0.2057 -0.7415
  973SOL    HW1 3890   2.499  -0.039   2.063 -1.9858  0.5821 -0.2842
  973SOL    HW2 3891   2.569   0.086   2.014  0.5793  1.0690 -2.7491
  973SOL     MW 3892   2.517   0.043   2.071 -0.7967  0.3693 -0.9460
  974SOL     OW 3893   2.049   0.211   2.684 -0.2120  0.2621  0.0379
  974SOL    HW1 3894   2.144   0.200   2.669  2.3430  0.9003 -0.5497
  974SOL    HW2 3895   2.012   0.138   2.736  0.3362  1.0852  0.2992
  974SOL     MW 3896   2.056   0.200   2.689  0.1974  0.4549 -0.0051
  975SOL     OW 3897   2.183   2.473   2.496  0.0417 -0.1974 -0.2049
  975SOL    HW1 3898   2.251   2.522   2.539 -3.9511 -0.4226  1.2245
  975SOL    HW2 3899   2.114   2.540   2.474 -0.2002  2.2955 -0.6683
  975SOL     MW 3900   2.183   2.488   2.499 -0.5170  0.1018 -0.0774
  976SOL     OW 3901   0.258   0.338   1.708  0.3261 -0.4325 -0.2009
  976SOL    HW1 3902   0.323   0.270   1.738  1.0872 -0.7973  1.6072
  976SOL    HW2 3903   0.183   0.292   1.679 -1.5289  0.3773 -0.5056
  976SOL     MW 3904   0.256   0.323   1.708  0.1818 -0.3738 -0.0025
  977SOL     OW 3905   1.757   2.638   2.477 -0.0838 -0.5785 -0.0976
  977SOL    HW1 3906   1.765   2.542   2.468  1.1327 -0.5692  0.9819
  977SOL    HW2 3907   1.850   2.661   2.476 -0.8607  0.9364  2.9766
  977SOL     MW 3908   1.770   2.628   2.475 -0.0258 -0.3774  0.4504
   3.10000   3.10000   3.10000
