977 TIP4P/2005f water molecules t=   0.06000 step= 60
 3908
    1SOL     OW    1   0.190   0.774   3.089 -0.1409  0.0159  0.1850
    1SOL    HW1    2   0.147   0.787   3.000 -1.1124  3.4073  0.6884
    1SOL    HW2    3   0.231   0.685   3.085  0.2715 -1.2005  1.4698
    1SOL     MW    4   0.190   0.764   3.077 -0.2147  0.3029  0.4209
    2SOL     OW    5   0.339   3.043   1.099  0.0515 -0.0013  0.4228
    2SOL    HW1    6   0.398   3.107   1.055 -1.9813  0.7687 -0.3150
    2SOL    HW2    7   0.263   3.096   1.133  0.1925  2.0605  0.0576
    2SOL     MW    8   0.337   3.059   1.098 -0.1981  0.3723  0.2773
    3SOL     OW    9   2.761   0.371   0.880 -0.3329  0.3668 -0.5102
    3SOL    HW1   10   2.744   0.450   0.828  0.7018 -0.2592 -0.9826
    3SOL    HW2   11   2.740   0.394   0.979  0.5365 -1.0637  2.5124
    3SOL     MW   12   2.756   0.384   0.886 -0.0817  0.0955 -0.1737
    4SOL     OW   13   3.090   1.683   0.724 -0.2380  0.1665 -0.6362
    4SOL    HW1   14   3.039   1.705   0.643  2.2544  0.7247 -0.8013
    4SOL    HW2   15   3.162   1.625   0.693  1.2809 -0.1741  1.7392
    4SOL     MW   16   3.093   1.678   0.709  0.2912  0.1952 -0.3446
    5SOL     OW   17   1.675   1.438   0.541 -0.1126  0.0552 -0.5614
    5SOL    HW1   18   1.725   1.398   0.616 -0.4084 -0.2487  1.8675
    5SOL    HW2   19   1.590   1.434   0.570  1.6436  2.2256 -1.6981
    5SOL     MW   20   1.670   1.432   0.554  0.0801  0.3015 -0.3909
    6SOL     OW   21   0.835   1.344   0.569  0.1320 -0.5725  0.0261
    6SOL    HW1   22   0.750   1.368   0.609  2.8764  0.2355 -0.1959
    6SOL    HW2   23   0.872   1.270   0.626  0.9355 -0.4515  0.2630
    6SOL     MW   24   0.829   1.337   0.582  0.6001 -0.4499  0.0281
    7SOL     OW   25   1.982   1.063   3.034 -0.2878  0.0762  0.2749
    7SOL    HW1   26   2.029   1.082   2.953  0.0252 -2.2005  1.1000
    7SOL    HW2   27   2.013   1.113   3.106  0.5403 -1.4950  2.9712
    7SOL     MW   28   1.992   1.072   3.033 -0.1372 -0.4315  0.7395
    8SOL     OW   29   1.017   1.320   1.058  0.0145  0.0551 -0.0310
    8SOL    HW1   30   1.106   1.311   1.079  1.3953 -0.9337  2.7483
    8SOL    HW2   31   0.983   1.236   1.072  2.6974 -0.2856  0.5024
    8SOL     MW   32   1.024   1.308   1.063  0.5507 -0.1203  0.4060
    9SOL     OW   33   0.996   0.485   1.452 -0.0514 -0.0196 -0.4041
    9SOL    HW1   34   0.962   0.394   1.457 -0.9397  0.9251  1.3391
    9SOL    HW2   35   1.063   0.484   1.518  0.1430  2.1559 -2.3331
    9SOL     MW   36   1.000   0.472   1.462 -0.1430  0.3920 -0.4286
   10SOL     OW   37   0.303   0.857   0.425  0.0445  0.0625 -0.2845
   10SOL    HW1   38   0.404   0.866   0.416 -0.9351  0.0357  0.2561
   10SOL    HW2   39   0.282   0.917   0.500  2.3605 -0.8301  1.3742
   10SOL     MW   40   0.313   0.866   0.434  0.2208 -0.0588  0.0057
   11SOL     OW   41   0.927   1.076   1.572  0.1510  0.3389 -0.4015
   11SOL    HW1   42   0.920   1.095   1.669 -0.7227  0.4751  0.5854
   11SOL    HW2   43   0.831   1.052   1.549 -1.0648 -0.9080 -2.8184
   11SOL     MW   44   0.913   1.076   1.582 -0.1247  0.1924 -0.5902
   12SOL     OW   45   3.046   1.038   0.872  0.1998  0.1147  0.1900
   12SOL    HW1   46   3.103   1.114   0.889  1.1169  1.3483  0.2731
   12SOL    HW2   47   2.975   1.082   0.825 -3.0011  4.6157  0.1178
   12SOL     MW   48   3.044   1.054   0.868 -0.1015  0.8713  0.1914
   13SOL     OW   49   1.924   1.387   1.442 -0.1437  0.3965 -0.0654
   13SOL    HW1   50   1.944   1.348   1.357 -1.4246 -1.6951 -1.3173
   13SOL    HW2   51   1.913   1.479   1.415  1.4458  0.2065  1.8596
   13SOL     MW   52   1.925   1.394   1.427 -0.1030  0.0954  0.0234
   14SOL     OW   53   0.615   0.380   1.774 -0.2906  0.4712 -0.1544
   14SOL    HW1   54   0.639   0.310   1.713 -0.5799 -1.3709 -0.9418
   14SOL    HW2   55   0.691   0.398   1.834  0.7749  0.5082 -0.3818
   14SOL     MW   56   0.628   0.373   1.774 -0.1882  0.2330 -0.2883
   15SOL     OW   57   2.002   0.572   0.944  0.3865 -0.3162 -0.4409
   15SOL    HW1   58   2.020   0.561   1.038  1.4791 -2.8160 -0.1138
   15SOL    HW2   59   2.075   0.528   0.903  0.5279  0.6105 -1.1052
   15SOL     MW   60   2.014   0.565   0.951  0.5494 -0.5238 -0.4854
   16SOL     OW   61   0.136   1.762   0.277 -0.0015  0.2925 -0.6390
   16SOL    HW1   62   0.210   1.712   0.307  1.7354  0.0591 -0.1221
   16SOL    HW2   63   0.156   1.848   0.312 -0.3414 -0.3274 -2.8256
   16SOL     MW   64   0.148   1.767   0.286  0.1828  0.1799 -0.8593
   17SOL     OW   65   1.164   0.782   1.457  0.1695 -0.4588  0.2402
   17SOL    HW1   66   1.166   0.838   1.536  1.2929  0.7698  1.8164
   17SOL    HW2   67   1.083   0.804   1.413 -0.3654  0.7383 -1.3849
   17SOL     MW   68   1.153   0.792   1.462  0.2472 -0.1387  0.2338
   18SOL     OW   69   3.096   1.548   0.384  0.0889  0.2259  0.0361
   18SOL    HW1   70   3.131   1.628   0.339  1.1484  0.9093 -0.4235
   18SOL    HW2   71   3.098   1.481   0.316  0.9090  3.3290 -0.0026
   18SOL     MW   72   3.101   1.550   0.369  0.3369  0.7255 -0.0296
   19SOL     OW   73   0.051   1.260   1.031  0.4454 -0.8978 -0.1227
   19SOL    HW1   74   0.089   1.332   0.981 -2.2276 -0.3542 -0.4297
   19SOL    HW2   75  -0.040   1.293   1.050  2.3924 -0.0097  0.1417
   19SOL     MW   76   0.044   1.274   1.027  0.3496 -0.7089 -0.1283
   20SOL     OW   77   0.483   2.174   1.285  0.4087  0.3339  0.2294
   20SOL    HW1   78   0.436   2.120   1.220 -1.0914 -0.2490 -0.0446
   20SOL    HW2   79   0.411   2.195   1.345  0.4741 -0.0146  1.1912
   20SOL     MW   80   0.467   2.170   1.284  0.2194  0.2110  0.3201
   21SOL     OW   81   0.575   0.884   0.366 -0.2051  0.3689  0.1780
   21SOL    HW1   82   0.619   0.811   0.403 -0.8038 -0.0107 -0.2439
   21SOL    HW2   83   0.545   0.849   0.276 -0.6751 -0.9855 -0.3572
   21SOL     MW   84   0.577   0.869   0.359 -0.3461  0.1401  0.0517
   22SOL     OW   85   1.601   0.627   1.151  0.1994 -0.2258  0.4935
   22SOL    HW1   86   1.646   0.581   1.077 -0.7241  0.8490  1.9243
   22SOL    HW2   87   1.526   0.679   1.112 -2.1410  0.3888 -1.4005
   22SOL     MW   88   1.597   0.627   1.136 -0.2313 -0.0029  0.4324
   23SOL     OW   89   3.084   0.703   0.663 -0.1238  0.6162  0.8003
   23SOL    HW1   90   3.121   0.622   0.684 -1.0506  0.3674  0.3905
   23SOL    HW2   91   3.146   0.764   0.704  0.1263 -2.1982 -3.6193
   23SOL     MW   92   3.097   0.701   0.671 -0.2131  0.2120  0.1631
   24SOL     OW   93   2.064   2.225   3.078  0.7504  0.2579  0.3747
   24SOL    HW1   94   2.081   2.197   3.167 -0.4452 -0.0884 -0.0914
   24SOL    HW2   95   2.100   2.153   3.025  0.5174 -2.5034 -1.0264
   24SOL     MW   96   2.071   2.212   3.083  0.5619 -0.1521  0.1283
   25SOL     OW   97   0.168   1.487   0.571  0.1896 -0.5736  0.0016
   25SOL    HW1   98   0.104   1.501   0.503  2.0864 -1.4138 -0.4874
   25SOL    HW2   99   0.253   1.457   0.534 -1.5041  2.4861  0.2248
   25SOL     MW  100   0.171   1.485   0.557  0.2164 -0.2808 -0.0335
   26SOL     OW  101   1.981   1.027   0.392 -0.0832 -0.2700  0.2433
   26SOL    HW1  102   1.888   1.038   0.423  1.4265 -1.0246  0.5937
   26SOL    HW2  103   1.996   1.078   0.306  0.8646  2.1866  0.2068
   26SOL     MW  104   1.971   1.035   0.384  0.2410 -0.0455  0.2847
   27SOL     OW  105   2.012   1.412   0.237 -0.2262  1.0610 -0.3656
   27SOL    HW1  106   1.933   1.382   0.278 -0.0955 -0.4576 -1.4207
   27SOL    HW2  107   2.056   1.458   0.311  0.9967  0.4931  1.5452
   27SOL     MW  108   2.007   1.414   0.252 -0.0476  0.7857 -0.2527
   28SOL     OW  109   0.299   0.964   1.921  0.6964 -0.1075  0.0743
   28SOL    HW1  110   0.239   0.900   1.932  1.0109  1.5500  0.3729
   28SOL    HW2  111   0.362   0.925   1.857 -0.5933  0.3555 -1.5124
   28SOL     MW  112   0.299   0.951   1.914  0.5677  0.1723 -0.0957
   29SOL     OW  113   0.257   1.423   0.899  0.1123  0.3977  0.3869
   29SOL    HW1  114   0.267   1.518   0.929  3.2048 -1.4999 -1.6202
   29SOL    HW2  115   0.241   1.439   0.804 -0.7568 -1.6884  2.4049
   29SOL     MW  116   0.256   1.438   0.890  0.4056 -0.1279  0.3883
   30SOL     OW  117   0.896   1.027   1.146  0.2700 -0.3999 -0.3073
   30SOL    HW1  118   0.836   1.071   1.202  4.0185 -1.7702  2.1998
   30SOL    HW2  119   0.970   1.018   1.208 -0.9131 -0.3954 -0.0484
   30SOL     MW  120   0.898   1.031   1.162  0.6085 -0.5801  0.0577
   31SOL     OW  121   0.504   0.248   0.153 -0.0826  0.0055  0.5476
   31SOL    HW1  122   0.480   0.171   0.208 -1.7119  1.2658  0.1683
   31SOL    HW2  123   0.494   0.198   0.066 -0.5999  1.3319 -2.3713
   31SOL     MW  124   0.499   0.231   0.149 -0.3658  0.3468  0.1124
   32SOL     OW  125   2.696   1.032   1.162 -0.2260 -0.1012 -0.2855
   32SOL    HW1  126   2.642   0.958   1.132  1.3344  1.1084 -0.1041
   32SOL    HW2  127   2.792   1.003   1.143  1.8674  0.3384  3.0034
   32SOL     MW  128   2.702   1.018   1.155  0.2561  0.1164  0.1724
   33SOL     OW  129   1.785   1.280   0.329  0.1014  0.2653 -0.0129
   33SOL    HW1  130   1.776   1.189   0.356 -0.2244 -1.8294  0.0653
   33SOL    HW2  131   1.761   1.330   0.411  0.3354 -2.0690 -1.4581
   33SOL     MW  132   1.780   1.275   0.344  0.0893 -0.3191 -0.1932
   34SOL     OW  133   1.277   1.852   1.101  0.0765 -0.3412  0.1082
   34SOL    HW1  134   1.209   1.909   1.133  1.4998  3.0643  0.6517
   34SOL    HW2  135   1.347   1.861   1.163 -1.7922  0.2047  1.0651
   34SOL     MW  136   1.277   1.861   1.113  0.0177  0.1801  0.3061
   35SOL     OW  137   0.358   0.075   1.879  0.1463  0.0527 -0.4721
   35SOL    HW1  138   0.409   0.031   1.949  1.2271 -1.9155  2.0758
   35SOL    HW2  139   0.374   0.027   1.797 -0.7941  1.4700  1.1365
   35SOL     MW  140   0.367   0.063   1.878  0.1648 -0.0199  0.0763
   36SOL     OW  141   1.823   1.920   0.472  0.4080 -0.3134  0.3322
   36SOL    HW1  142   1.833   1.897   0.376  1.7232 -2.6049  1.1786
   36SOL    HW2  143   1.826   1.829   0.501 -2.8553  2.0379 -0.7491
   36SOL     MW  144   1.825   1.905   0.463  0.1510 -0.3055  0.3012
   37SOL     OW  145   1.825   1.978   0.949 -0.1130  0.0965 -0.2606
   37SOL    HW1  146   1.760   1.966   0.888  1.2110  0.2663  3.5782
   37SOL    HW2  147   1.778   2.040   1.014 -1.7795  3.1690  0.9848
   37SOL     MW  148   1.810   1.984   0.949 -0.1582  0.5243  0.4102
   38SOL     OW  149   2.820   0.917   0.267  0.3758  0.3076 -0.9271
   38SOL    HW1  150   2.843   0.932   0.358 -1.3804  1.5612 -4.3839
   38SOL    HW2  151   2.902   0.890   0.221 -0.5098 -0.6345 -1.4094
   38SOL     MW  152   2.834   0.915   0.273  0.0272  0.3487 -1.4468
   39SOL     OW  153   1.448   0.648   0.788  0.4879  0.5685 -0.1841
   39SOL    HW1  154   1.414   0.574   0.830  0.2626  2.2670 -0.3141
   39SOL    HW2  155   1.409   0.710   0.847 -2.9865 -0.3531 -2.4857
   39SOL     MW  156   1.438   0.647   0.801 -0.0002  0.6710 -0.5049
   40SOL     OW  157   1.294   1.904   0.233 -0.1010 -0.1251  0.3279
   40SOL    HW1  158   1.299   1.822   0.284  0.2352  1.2749 -0.3488
   40SOL    HW2  159   1.321   1.963   0.303 -1.0577 -0.0020  0.5649
   40SOL     MW  160   1.298   1.901   0.249 -0.1829  0.0758  0.2699
   41SOL     OW  161   0.589   0.558   1.556  0.1543 -0.6751  0.1292
   41SOL    HW1  162   0.677   0.604   1.552  3.8308  1.4775 -1.5657
   41SOL    HW2  163   0.599   0.509   1.632  1.3503  0.1768 -1.1377
   41SOL     MW  164   0.602   0.558   1.565  0.7972 -0.2787 -0.2616
   42SOL     OW  165   1.397   3.051   1.995  0.1409 -0.1861 -0.1694
   42SOL    HW1  166   1.308   3.034   2.020  4.0169 -0.4577  0.0318
   42SOL    HW2  167   1.437   2.963   2.014  0.5913  0.2733 -4.0924
   42SOL     MW  168   1.390   3.037   2.001  0.7118 -0.1613 -0.6605
   43SOL     OW  169   1.577   0.160   1.581 -0.0018 -0.2481 -0.0915
   43SOL    HW1  170   1.593   0.093   1.515 -0.9430  1.1550  1.3024
   43SOL    HW2  171   1.486   0.139   1.618 -4.1253 -1.2422 -0.7619
   43SOL     MW  172   1.567   0.148   1.577 -0.6701 -0.1941  0.0039
   44SOL     OW  173   1.336   0.740   1.081 -0.3212 -0.2182  0.1385
   44SOL    HW1  174   1.334   0.835   1.095  0.1849 -0.0768  2.4512
   44SOL    HW2  175   1.312   0.696   1.162  0.8197 -0.6945  0.3694
   44SOL     MW  176   1.332   0.747   1.093 -0.1039 -0.2624  0.4741
   45SOL     OW  177   1.007   0.831   0.798  0.1609 -0.3818 -0.1501
   45SOL    HW1  178   0.993   0.750   0.848  1.2477  0.5376  0.8255
   45SOL    HW2  179   0.951   0.824   0.711 -0.7066 -2.3878  2.5344
   45SOL     MW  180   0.997   0.819   0.793  0.1898 -0.5252  0.3328
   46SOL     OW  181   0.634   1.123   0.600 -0.3268  0.4683 -0.2848
   46SOL    HW1  182   0.651   1.147   0.505 -0.9772 -1.5105  1.9478
   46SOL    HW2  183   0.703   1.057   0.617 -0.1036  1.8250 -0.8950
   46SOL     MW  184   0.646   1.118   0.589 -0.3832  0.3862 -0.0707
   47SOL     OW  185   0.070   1.836   1.807  0.6814  0.6051 -0.0113
   47SOL    HW1  186   0.155   1.800   1.781  1.0461 -2.4161 -0.4778
   47SOL    HW2  187   0.081   1.836   1.905  2.9605  1.2069  0.4609
   47SOL     MW  188   0.082   1.831   1.817  1.0302  0.2859 -0.0106
   48SOL     OW  189   1.048   0.622   1.016 -0.1149 -0.0187  0.9841
   48SOL    HW1  190   0.987   0.677   1.069 -1.3737 -2.8755 -0.3210
   48SOL    HW2  191   1.131   0.679   0.997  0.0385  2.3260  1.6709
   48SOL     MW  192   1.051   0.637   1.020 -0.2608 -0.0862  0.9025
   49SOL     OW  193   1.877   0.740   1.588 -0.3333  0.7041  0.2102
   49SOL    HW1  194   1.795   0.709   1.624 -1.1257 -0.9377  0.9626
   49SOL    HW2  195   1.930   0.666   1.561 -0.3498  2.0091 -1.6654
   49SOL     MW  196   1.873   0.726   1.589 -0.4400  0.6596  0.0620
   50SOL     OW  197   1.275   1.026   0.579 -0.4437 -0.1546  0.6616
   50SOL    HW1  198   1.266   1.076   0.659 -0.4280 -1.0395 -2.1332
   50SOL    HW2  199   1.327   0.957   0.606 -0.0115 -1.1085 -1.9941
   50SOL     MW  200   1.280   1.023   0.593 -0.3846 -0.3972 -0.0575
   51SOL     OW  201   0.288   2.901   0.875  0.0007 -0.5500  0.3035
   51SOL    HW1  202   0.358   2.833   0.877 -0.2899  1.6424 -1.3022
   51SOL    HW2  203   0.305   2.956   0.958  1.4564  0.7702 -0.6068
   51SOL     MW  204   0.299   2.900   0.886  0.1544 -0.0865 -0.0284
   52SOL     OW  205   0.827   1.886   0.473  0.4328  0.1965 -0.3834
   52SOL    HW1  206   0.780   1.956   0.522 -0.5830 -1.0195 -0.1149
   52SOL    HW2  207   0.808   1.887   0.382 -2.1392  0.0736 -0.2512
   52SOL     MW  208   0.818   1.895   0.468 -0.0406  0.0198 -0.3305
   53SOL     OW  209   0.395   2.042   0.626 -0.6319 -0.5031 -0.5362
   53SOL    HW1  210   0.336   2.018   0.555  0.2656  1.8320  1.7376
   53SOL    HW2  211   0.384   2.145   0.627  2.6720 -3.3257 -0.4256
   53SOL     MW  212   0.386   2.052   0.617 -0.0776 -0.5674 -0.2216
   54SOL     OW  213   2.176   0.850   0.851 -0.1414  0.0518 -0.3496
   54SOL    HW1  214   2.190   0.819   0.763 -0.0017  1.1365 -0.9924
   54SOL    HW2  215   2.082   0.870   0.857 -1.5141 -0.1125  1.1546
   54SOL     MW  216   2.166   0.849   0.840 -0.3041  0.1733 -0.2359
   55SOL     OW  217   0.524   1.448   1.535 -0.0104 -0.3211  0.3871
   55SOL    HW1  218   0.517   1.508   1.458 -1.2548 -0.6674 -1.1319
   55SOL    HW2  219   0.606   1.395   1.507  1.6140 -0.0906  1.2256
   55SOL     MW  220   0.534   1.449   1.521  0.0397 -0.3363  0.2973
   56SOL     OW  221   0.478   0.810   0.115  0.0582  0.0068  0.2001
   56SOL    HW1  222   0.505   0.871   0.052 -0.2351 -0.1723  0.7400
   56SOL    HW2  223   0.390   0.785   0.086 -1.0735 -0.5425  2.2157
   56SOL     MW  224   0.470   0.815   0.103 -0.1298 -0.0893  0.5373
   57SOL     OW  225   1.258   1.218   1.169  0.2810  0.0933 -0.3595
   57SOL    HW1  226   1.347   1.243   1.194 -0.5116 -1.8648  0.3455
   57SOL    HW2  227   1.229   1.159   1.243 -0.5474  0.9153 -0.5175
   57SOL     MW  228   1.266   1.213   1.182  0.0671 -0.0566 -0.2873
   58SOL     OW  229   0.656   1.080   1.275  0.1419 -0.4467 -0.0531
   58SOL    HW1  230   0.575   1.138   1.292 -0.4387  0.4614 -0.7049
   58SOL    HW2  231   0.657   1.016   1.347 -1.0166  0.0972  0.2866
   58SOL     MW  232   0.646   1.079   1.287 -0.0875 -0.2551 -0.0942
   59SOL     OW  233   1.573   1.594   0.314 -0.2236 -0.3395 -0.3343
   59SOL    HW1  234   1.595   1.532   0.378  2.4487  0.7419 -2.9311
   59SOL    HW2  235   1.522   1.652   0.368  1.2095 -0.5395 -1.2083
   59SOL     MW  236   1.569   1.593   0.329  0.3181 -0.2232 -0.7923
   60SOL     OW  237   0.042   0.145   1.706 -0.0920  0.3408  0.5792
   60SOL    HW1  238  -0.024   0.206   1.739 -0.9420  0.2826  0.0791
   60SOL    HW2  239   0.015   0.060   1.736 -1.8738 -0.1702  0.3162
   60SOL     MW  240   0.030   0.142   1.714 -0.4392  0.2657  0.4785
   61SOL     OW  241   2.013   1.477   3.051 -0.2341 -0.0420  0.6155
   61SOL    HW1  242   2.028   1.499   3.145 -1.8435 -4.5005 -0.4684
   61SOL    HW2  243   2.067   1.407   3.031  0.2707  2.5290  0.9583
   61SOL     MW  244   2.022   1.471   3.061 -0.3799 -0.2910  0.5177
   62SOL     OW  245   0.587   1.619   0.551 -0.1931  0.1079  0.6484
   62SOL    HW1  246   0.654   1.618   0.475  0.7642 -0.0518  0.8801
   62SOL    HW2  247   0.579   1.531   0.599  2.0961 -0.7196  1.1178
   62SOL     MW  248   0.595   1.607   0.547  0.2352 -0.0223  0.7409
   63SOL     OW  249   1.709   0.784   0.744  0.4149 -0.1756 -0.0544
   63SOL    HW1  250   1.744   0.781   0.657 -0.4063 -0.0280  0.2157
   63SOL    HW2  251   1.630   0.731   0.762  0.9611 -0.3378 -1.6469
   63SOL     MW  252   1.703   0.776   0.735  0.3786 -0.1775 -0.2289
   64SOL     OW  253   0.261   1.683   0.955  0.6378  0.0923  0.0531
   64SOL    HW1  254   0.342   1.702   0.903  3.0606  0.4620  0.1975
   64SOL    HW2  255   0.190   1.734   0.917 -1.6963 -1.2479 -0.8216
   64SOL     MW  256   0.262   1.692   0.943  0.6495 -0.0358 -0.0433
   65SOL     OW  257   1.567   2.243   0.327 -1.3037 -1.0405  0.6761
   65SOL    HW1  258   1.622   2.237   0.248  0.3596  0.4115 -2.2626
   65SOL    HW2  259   1.598   2.325   0.376 -0.8298 -1.5472 -0.2496
   65SOL     MW  260   1.578   2.253   0.323 -1.0217 -0.9158  0.1662
   66SOL     OW  261   0.292   0.611   0.548 -0.4189  0.0100  0.0698
   66SOL    HW1  262   0.340   0.556   0.486 -1.6604  2.9255  0.9891
   66SOL    HW2  263   0.289   0.703   0.516 -1.4592 -2.7046 -0.9012
   66SOL     MW  264   0.298   0.616   0.536 -0.7199  0.0365  0.0630
   67SOL     OW  265   1.534   0.215   2.009  0.6287  0.2158  0.0293
   67SOL    HW1  266   1.577   0.238   1.930  0.9454 -1.1928 -0.2078
   67SOL    HW2  267   1.496   0.132   1.985  1.9740  0.8959 -0.6889
   67SOL     MW  268   1.535   0.207   1.996  0.8480  0.1197 -0.0968
   68SOL     OW  269   0.747   0.058   2.984 -0.8010 -0.2003 -0.7131
   68SOL    HW1  270   0.740   0.071   2.884  1.5479 -4.4215 -3.1600
   68SOL    HW2  271   0.758   0.147   3.011  0.3408 -1.0533 -0.0018
   68SOL     MW  272   0.747   0.071   2.975 -0.3404 -0.8698 -0.9421
   69SOL     OW  273   1.031   0.168   1.957  0.2105 -0.3131 -0.1734
   69SOL    HW1  274   1.121   0.202   1.983 -0.5983 -0.4234 -3.8544
   69SOL    HW2  275   1.013   0.081   1.994 -1.1383 -0.7138 -0.6018
   69SOL     MW  276   1.041   0.161   1.965 -0.0742 -0.3805 -0.7156
   70SOL     OW  277   0.591   1.824   1.155  0.4088 -0.3769  0.1781
   70SOL    HW1  278   0.599   1.745   1.209 -1.5824 -0.7047 -1.3233
   70SOL    HW2  279   0.666   1.822   1.088 -0.8954  0.3400  1.1402
   70SOL     MW  280   0.602   1.813   1.153 -0.0260 -0.3256  0.1069
   71SOL     OW  281   1.822   0.655   1.324 -0.6156  0.8945 -0.3387
   71SOL    HW1  282   1.801   0.681   1.413  0.7730  1.4127  1.9536
   71SOL    HW2  283   1.740   0.649   1.279 -0.3850  0.0711  1.2095
   71SOL     MW  284   1.808   0.658   1.330 -0.4020  0.8542  0.1680
   72SOL     OW  285   0.825   1.827   1.018 -0.1529 -0.2458  0.1466
   72SOL    HW1  286   0.824   1.869   0.934 -0.1836 -0.9238 -0.9732
   72SOL    HW2  287   0.841   1.731   1.011 -0.5871  1.5630  3.0051
   72SOL     MW  288   0.827   1.820   1.006 -0.2142 -0.0966  0.3760
   73SOL     OW  289   1.334   0.612   1.321  0.2883  0.3637  0.1393
   73SOL    HW1  290   1.289   0.544   1.268  1.3844 -0.3425 -0.0119
   73SOL    HW2  291   1.264   0.646   1.379  0.6133  1.8553 -0.7477
   73SOL     MW  292   1.319   0.608   1.322  0.4758  0.4673  0.0023
   74SOL     OW  293   2.792   0.096   1.026  0.0221  0.2241 -0.1598
   74SOL    HW1  294   2.747   0.076   0.949 -0.3620  0.2667 -0.4598
   74SOL    HW2  295   2.881   0.121   1.004 -1.8097  1.2687 -0.7878
   74SOL     MW  296   2.798   0.097   1.013 -0.2702  0.3676 -0.2822
   75SOL     OW  297   1.655   1.287   0.093  0.2175 -0.2036  0.5895
   75SOL    HW1  298   1.708   1.291   0.180  1.0895 -1.0279 -1.0546
   75SOL    HW2  299   1.672   1.194   0.057  0.8885  1.3292 -0.5417
   75SOL     MW  300   1.665   1.275   0.100  0.4211 -0.1101  0.2233
   76SOL     OW  301   2.937   0.628   0.461 -0.0869  0.2409  0.3901
   76SOL    HW1  302   2.992   0.657   0.543 -0.7323 -2.8596  1.0987
   76SOL    HW2  303   3.004   0.603   0.392 -1.0765 -2.8819  0.1584
   76SOL     MW  304   2.953   0.629   0.463 -0.3026 -0.5802  0.4531
   77SOL     OW  305   0.926   0.485   0.520  0.2309 -0.3707  0.0686
   77SOL    HW1  306   0.876   0.562   0.488 -1.2115 -0.1119  1.2636
   77SOL    HW2  307   0.851   0.424   0.512 -0.9192  0.1660  1.3630
   77SOL     MW  308   0.909   0.487   0.515 -0.1112 -0.2658  0.3970
   78SOL     OW  309   0.898   0.745   1.209 -0.5225 -0.1251  0.0341
   78SOL    HW1  310   0.838   0.693   1.260  0.0275  1.7683 -1.2596
   78SOL    HW2  311   0.856   0.826   1.179  1.0438  0.1229 -2.4721
   78SOL     MW  312   0.885   0.749   1.212 -0.2433  0.1575 -0.4673
   79SOL     OW  313   1.856   1.649   0.582 -0.1750  0.0277  0.5220
   79SOL    HW1  314   1.783   1.583   0.586 -2.0037  0.9957  2.8627
   79SOL    HW2  315   1.903   1.654   0.666  1.5907 -0.3662  2.5736
   79SOL     MW  316   1.852   1.641   0.594 -0.1833  0.1034  1.1015
   80SOL     OW  317   0.161   1.075   0.282  0.0411 -0.3668 -0.2720
   80SOL    HW1  318   0.095   1.021   0.325 -0.9552 -3.2567 -0.3993
   80SOL    HW2  319   0.238   1.025   0.284 -0.0392 -0.7315 -3.1533
   80SOL     MW  320   0.162   1.061   0.288 -0.1009 -0.7962 -0.6690
   81SOL     OW  321   1.906   1.899   0.212  0.4744  0.2496 -0.0345
   81SOL    HW1  322   1.855   1.824   0.174  0.0255  0.2910  1.5408
   81SOL    HW2  323   1.870   1.978   0.185 -0.7412 -0.9230  2.1924
   81SOL     MW  324   1.894   1.900   0.204  0.2548  0.1004  0.4672
   82SOL     OW  325   0.875   0.866   0.545 -0.5809  0.6009  0.0801
   82SOL    HW1  326   0.931   0.875   0.467  0.1459  1.2783 -0.5251
   82SOL    HW2  327   0.822   0.789   0.515 -0.4829 -1.5533  0.5954
   82SOL     MW  328   0.875   0.857   0.530 -0.4721  0.4061  0.0682
   83SOL     OW  329   0.067   0.580   1.362  0.1749  0.1122  0.0019
   83SOL    HW1  330   0.098   0.666   1.332 -2.4220 -0.3837 -0.8796
   83SOL    HW2  331   0.149   0.555   1.397  0.3695  2.3298  2.2251
   83SOL     MW  332   0.082   0.588   1.363 -0.1420  0.3394  0.1789
   84SOL     OW  333   0.056   0.282   1.069 -0.5448 -0.1956  0.0004
   84SOL    HW1  334   0.008   0.273   0.985  0.6804  0.3301  0.7266
   84SOL    HW2  335   0.048   0.193   1.111 -3.1453 -0.4813 -1.2493
   84SOL     MW  336   0.049   0.269   1.063 -0.7263 -0.1639 -0.0687
   85SOL     OW  337   0.474   0.401   0.717 -0.3130 -0.1625  0.3770
   85SOL    HW1  338   0.404   0.458   0.672  0.1053  3.0972 -0.6212
   85SOL    HW2  339   0.423   0.332   0.762 -0.6598 -3.3566  0.1167
   85SOL     MW  340   0.458   0.399   0.717 -0.3035 -0.1538  0.2109
   86SOL     OW  341   1.134   0.447   1.206  0.1447 -0.5614 -0.2926
   86SOL    HW1  342   1.096   0.523   1.151 -1.0900  0.8404  0.7733
   86SOL    HW2  343   1.073   0.440   1.282  2.1551  0.7137  2.2283
   86SOL     MW  344   1.121   0.456   1.209  0.2471 -0.2082  0.1806
   87SOL     OW  345   1.259   1.430   1.364  0.3172 -0.8336 -0.1420
   87SOL    HW1  346   1.267   1.483   1.282  0.7871 -2.2781 -0.2372
   87SOL    HW2  347   1.220   1.347   1.330 -1.9466  0.0102 -0.2018
   87SOL     MW  348   1.255   1.426   1.349  0.0805 -0.9129 -0.1625
   88SOL     OW  349   1.350   1.017   1.006  0.3961  0.5032  0.5252
   88SOL    HW1  350   1.441   1.016   1.002 -0.1334 -0.7798 -1.0686
   88SOL    HW2  351   1.336   1.092   1.058 -0.3427 -1.5416 -0.6316
   88SOL     MW  352   1.360   1.027   1.013  0.2288  0.0642  0.1623
   89SOL     OW  353   1.823   0.560   0.307  0.1266 -0.6848 -0.5161
   89SOL    HW1  354   1.885   0.493   0.341  0.1114  0.6846 -0.0320
   89SOL    HW2  355   1.875   0.629   0.258 -0.1737  1.8669  1.2768
   89SOL     MW  356   1.838   0.560   0.305  0.0850 -0.1674 -0.2157
   90SOL     OW  357   0.775   1.240   2.839 -0.6393  0.1038 -0.2562
   90SOL    HW1  358   0.793   1.145   2.849  1.6007 -0.4459  3.2047
   90SOL    HW2  359   0.836   1.285   2.891 -0.2501  1.6714  1.0154
   90SOL     MW  360   0.786   1.233   2.847 -0.2924  0.2381  0.3682
   91SOL     OW  361   1.950   0.772   0.472  0.8628 -0.4709  0.1728
   91SOL    HW1  362   1.981   0.849   0.413  1.1424 -2.5354  0.1113
   91SOL    HW2  363   1.917   0.712   0.402  0.0471 -0.7055 -2.0679
   91SOL     MW  364   1.949   0.774   0.455  0.7920 -0.7742 -0.1310
   92SOL     OW  365   1.650   0.761   0.459  0.3051 -0.1629  0.4276
   92SOL    HW1  366   1.560   0.729   0.479 -0.1839 -2.7119 -1.4168
   92SOL    HW2  367   1.688   0.690   0.406  1.8335 -2.1917 -0.6875
   92SOL     MW  368   1.643   0.748   0.455  0.4422 -0.7669  0.0371
   93SOL     OW  369   0.991   0.226   0.394 -0.0620 -0.5198  0.1777
   93SOL    HW1  370   0.975   0.318   0.409 -0.4367 -0.0935 -1.1762
   93SOL    HW2  371   0.934   0.190   0.326  2.5629 -0.0295 -1.1422
   93SOL     MW  372   0.982   0.234   0.387  0.2349 -0.3989 -0.1751
   94SOL     OW  373   1.968   1.294   1.696 -0.2691 -0.4004  0.3000
   94SOL    HW1  374   1.953   1.315   1.606 -0.6317  0.8717 -0.4571
   94SOL    HW2  375   1.915   1.222   1.705  1.3878 -0.3543 -3.3395
   94SOL     MW  376   1.959   1.288   1.686 -0.0983 -0.2265 -0.2801
   95SOL     OW  377   0.922   1.571   1.010 -0.4407  0.0804  0.0064
   95SOL    HW1  378   0.924   1.481   1.039 -0.2564  1.5264 -0.3367
   95SOL    HW2  379   1.000   1.606   1.041  0.7438 -0.1829  1.3532
   95SOL     MW  380   0.932   1.564   1.018 -0.2601  0.2365  0.1389
   96SOL     OW  381   1.286   1.796   1.708 -1.0628 -0.4976 -0.4320
   96SOL    HW1  382   1.191   1.776   1.726 -2.3488 -0.9164  2.0815
   96SOL    HW2  383   1.316   1.718   1.658 -2.4492 -0.1651 -0.0017
   96SOL     MW  384   1.278   1.783   1.704 -1.4154 -0.5090 -0.0436
   97SOL     OW  385   1.211   1.449   0.867  0.4400  0.0297  0.0128
   97SOL    HW1  386   1.225   1.492   0.951 -1.5313  1.0367 -2.0514
   97SOL    HW2  387   1.127   1.491   0.822 -1.8602 -0.9153 -1.1019
   97SOL     MW  388   1.201   1.460   0.872 -0.1236  0.0379 -0.4066
   98SOL     OW  389   1.544   1.277   1.160 -0.3105  0.3553  0.2674
   98SOL    HW1  390   1.537   1.358   1.214  1.2034 -0.2615  1.0401
   98SOL    HW2  391   1.550   1.307   1.070  1.2149  2.3300  0.8915
   98SOL     MW  392   1.544   1.291   1.155  0.0905  0.5345  0.4517
   99SOL     OW  393   1.442   0.381   1.202  0.2397  0.3517  0.1125
   99SOL    HW1  394   1.492   0.460   1.189  2.1281  1.1242 -1.3509
   99SOL    HW2  395   1.422   0.397   1.298  2.9041 -0.3338  1.9882
   99SOL     MW  396   1.446   0.394   1.213  0.8404  0.3632  0.1669
  100SOL     OW  397   1.091   1.057   1.352  0.6679 -0.0068 -0.3314
  100SOL    HW1  398   1.053   1.099   1.436 -0.7251  1.6634 -1.9944
  100SOL    HW2  399   1.152   0.996   1.385  1.6867  3.1983  0.4176
  100SOL     MW  400   1.094   1.054   1.367  0.6185  0.6364 -0.4520
  101SOL     OW  401   0.654   1.157   0.345  0.1574  0.5279 -0.8881
  101SOL    HW1  402   0.619   1.061   0.362  0.9923 -0.5530 -0.9724
  101SOL    HW2  403   0.672   1.166   0.251 -1.9187  0.3335 -0.1316
  101SOL     MW  404   0.652   1.146   0.335 -0.0064  0.3596 -0.7994
  102SOL     OW  405   2.915   0.644   0.926  0.2813 -0.7621 -0.2775
  102SOL    HW1  406   2.986   0.697   0.888  1.4532  1.2414 -1.5568
  102SOL    HW2  407   2.939   0.629   1.019 -0.6177 -1.3242 -0.8159
  102SOL     MW  408   2.927   0.649   0.933  0.3173 -0.5719 -0.5174
  103SOL     OW  409   1.684   0.348   1.766 -1.0408 -0.1268 -0.2132
  103SOL    HW1  410   1.693   0.299   1.686 -3.1382  1.2726  0.1054
  103SOL    HW2  411   1.773   0.341   1.818  0.7332 -0.7697  1.8987
  103SOL     MW  412   1.697   0.340   1.762 -1.0835 -0.0270  0.1075
  104SOL     OW  413   0.093   1.817   1.489  0.1890  0.4238  0.3905
  104SOL    HW1  414   0.178   1.803   1.453 -1.7667  2.1571  1.0393
  104SOL    HW2  415   0.083   1.756   1.559 -0.3344 -0.1370  3.8892
  104SOL     MW  416   0.103   1.807   1.494 -0.1381  0.5785  0.9377
  105SOL     OW  417   0.137   1.195   0.545  0.5452 -0.6715  0.0110
  105SOL    HW1  418   0.110   1.178   0.458 -0.5265  0.0618  0.5932
  105SOL    HW2  419   0.195   1.270   0.542 -0.1191 -1.9235  1.1769
  105SOL     MW  420   0.141   1.202   0.533  0.3162 -0.7399  0.2417
  106SOL     OW  421   0.839   0.318   0.918  0.3909  0.2394  0.1832
  106SOL    HW1  422   0.779   0.391   0.886 -1.0285  3.6256 -0.6950
  106SOL    HW2  423   0.922   0.330   0.879  0.2443 -2.2377  1.8044
  106SOL     MW  424   0.842   0.329   0.909  0.1842  0.3593  0.2812
  107SOL     OW  425   0.791   2.198   3.073 -0.3548  0.0566 -0.1862
  107SOL    HW1  426   0.755   2.144   3.004  0.8384  0.1917  2.8268
  107SOL    HW2  427   0.874   2.162   3.104  1.5768 -0.1948  0.9075
  107SOL     MW  428   0.797   2.186   3.068  0.0575  0.0413  0.3557
  108SOL     OW  429   1.388   1.583   1.572  0.2716  0.6232 -0.2421
  108SOL    HW1  430   1.359   1.545   1.494  1.6747 -2.4119 -1.3876
  108SOL    HW2  431   1.455   1.529   1.607  0.3800  3.0145  0.1678
  108SOL     MW  432   1.393   1.570   1.567  0.4710  0.5383 -0.3391
  109SOL     OW  433   1.967   0.767   0.175 -0.0278  0.4009 -0.1062
  109SOL    HW1  434   1.961   0.745   0.077  3.0421 -1.9303  1.0046
  109SOL    HW2  435   2.058   0.792   0.178  0.0059 -1.7859  0.6798
  109SOL     MW  436   1.978   0.768   0.162  0.3817 -0.1952  0.1441
  110SOL     OW  437   0.446   1.792   0.741 -0.5087 -0.3439 -0.1979
  110SOL    HW1  438   0.509   1.730   0.691  2.0037 -1.6781  1.6922
  110SOL    HW2  439   0.451   1.876   0.701  1.5294 -0.1971 -0.3527
  110SOL     MW  440   0.455   1.795   0.729  0.0917 -0.5005  0.0311
  111SOL     OW  441   0.694   0.916   1.492 -0.3193  0.2361  0.0281
  111SOL    HW1  442   0.746   0.836   1.527  1.8832  0.6409 -0.2738
  111SOL    HW2  443   0.607   0.912   1.530  0.2143  1.0599 -1.7046
  111SOL     MW  444   0.689   0.905   1.502  0.0417  0.3982 -0.2403
  112SOL     OW  445   1.300   1.145   1.598 -0.1998 -0.1883 -0.0054
  112SOL    HW1  446   1.246   1.220   1.643  0.1673  0.8322  0.2102
  112SOL    HW2  447   1.257   1.066   1.625  0.1356  0.6215 -2.6220
  112SOL     MW  448   1.287   1.145   1.608 -0.1071  0.0532 -0.3222
  113SOL     OW  449   1.359   0.042   1.701  0.4610  0.5134  0.3051
  113SOL    HW1  450   1.379   0.001   1.784 -0.2983 -1.2603 -0.3366
  113SOL    HW2  451   1.368  -0.015   1.630  0.6294 -0.4062  1.6333
  113SOL     MW  452   1.363   0.029   1.702  0.3830  0.1580  0.3957
  114SOL     OW  453   0.450   2.806   1.841  0.3501  0.5578 -0.4488
  114SOL    HW1  454   0.449   2.855   1.924 -2.2983  0.9677  1.2069
  114SOL    HW2  455   0.408   2.868   1.781 -2.2904  1.4267  0.4627
  114SOL     MW  456   0.444   2.820   1.844 -0.3477  0.7265 -0.1100
  115SOL     OW  457   0.372   0.846   1.053  0.1080  0.3315  0.2901
  115SOL    HW1  458   0.409   0.765   1.083  0.1344 -0.7752 -1.1723
  115SOL    HW2  459   0.346   0.897   1.135 -0.6318 -1.0961 -0.2709
  115SOL     MW  460   0.374   0.842   1.067  0.0139 -0.0029  0.0231
  116SOL     OW  461   0.772   0.959   0.913 -0.4522 -0.3587 -0.2647
  116SOL    HW1  462   0.849   0.981   0.855  0.8553  1.5234  0.8171
  116SOL    HW2  463   0.830   0.949   0.990  2.1415  0.8571  0.7074
  116SOL     MW  464   0.790   0.961   0.916  0.0625  0.0500  0.0063
  117SOL     OW  465   1.220   1.184   0.795  0.0247  0.0805 -0.3376
  117SOL    HW1  466   1.245   1.143   0.878 -0.4499  0.5760  2.7539
  117SOL    HW2  467   1.209   1.274   0.824 -1.2257  0.9334  0.4055
  117SOL     MW  468   1.222   1.191   0.810 -0.2029  0.2584  0.1683
  118SOL     OW  469   0.003   2.972   1.730  0.0205 -0.4335  0.2825
  118SOL    HW1  470   0.045   2.972   1.819  2.4508  0.4653  2.5105
  118SOL    HW2  471  -0.091   2.970   1.754  0.7244  2.7765 -0.4471
  118SOL     MW  472  -0.004   2.972   1.745  0.4340  0.1086  0.4802
  119SOL     OW  473   0.481   1.291   1.235 -0.3253  0.0456  0.2894
  119SOL    HW1  474   0.506   1.304   1.140  0.2128  1.0827  0.4364
  119SOL    HW2  475   0.379   1.298   1.236 -1.6793  0.3296  1.6088
  119SOL     MW  476   0.471   1.294   1.223 -0.4329  0.2199  0.4829
  120SOL     OW  477   0.179   0.598   0.961 -0.0147  0.0818  0.0307
  120SOL    HW1  478   0.223   0.529   1.009 -3.3481 -0.1732 -2.3614
  120SOL    HW2  479   0.232   0.677   0.968  0.1832 -2.6464 -0.3916
  120SOL     MW  480   0.191   0.600   0.968 -0.4284 -0.3118 -0.3406
  121SOL     OW  481   1.803   1.041   1.778  0.3469  0.0719 -0.4860
  121SOL    HW1  482   1.725   1.038   1.722 -2.7849  3.5395 -1.1334
  121SOL    HW2  483   1.827   0.946   1.797  1.2363 -2.0158  1.4923
  121SOL     MW  484   1.796   1.028   1.773  0.0511  0.2540 -0.3104
  122SOL     OW  485   0.120   0.478   0.716 -0.7804 -0.0658 -0.1319
  122SOL    HW1  486   0.195   0.533   0.681  0.6650 -1.5400 -0.5977
  122SOL    HW2  487   0.113   0.517   0.806  0.9741 -0.0517 -0.1757
  122SOL     MW  488   0.129   0.490   0.723 -0.3582 -0.2585 -0.1991
  123SOL     OW  489   1.726   1.039   0.471  0.1497 -0.2326  0.1872
  123SOL    HW1  490   1.714   0.946   0.462  0.5764  1.0455 -0.1509
  123SOL    HW2  491   1.752   1.069   0.560 -0.6608 -1.1364 -0.0623
  123SOL     MW  492   1.728   1.031   0.482  0.0991 -0.1832  0.1097
  124SOL     OW  493   0.636   0.535   0.888  0.3590 -0.0082 -0.8049
  124SOL    HW1  494   0.586   0.483   0.826 -1.7356  0.9337 -0.7870
  124SOL    HW2  495   0.645   0.620   0.843  1.3416 -0.1674  0.1071
  124SOL     MW  496   0.631   0.539   0.874  0.2123  0.0951 -0.6822
  125SOL     OW  497   0.628   1.642   1.693 -0.3953  0.0043 -0.3367
  125SOL    HW1  498   0.601   1.576   1.633  0.8295 -0.3396  1.0803
  125SOL    HW2  499   0.596   1.728   1.660 -1.0132  1.2930 -1.7181
  125SOL     MW  500   0.620   1.644   1.681 -0.3152  0.1290 -0.3320
  126SOL     OW  501   2.129   1.610   2.044 -0.1285  0.3354 -0.3646
  126SOL    HW1  502   2.177   1.689   2.037  0.2422 -0.1855  0.6671
  126SOL    HW2  503   2.204   1.553   2.058  2.5744  0.9552 -2.0093
  126SOL     MW  504   2.145   1.613   2.045  0.2770  0.3485 -0.4455
  127SOL     OW  505   0.631   0.680   1.863 -0.7521  0.1243  0.2596
  127SOL    HW1  506   0.694   0.616   1.904  3.3433  0.2317  1.0187
  127SOL    HW2  507   0.653   0.767   1.907  0.4750  1.6679 -1.1636
  127SOL     MW  508   0.642   0.683   1.875 -0.0499  0.3422  0.1720
  128SOL     OW  509   1.726   0.730   2.813 -0.2561 -0.0334  0.2060
  128SOL    HW1  510   1.796   0.728   2.744 -2.4125  1.3920  2.5946
  128SOL    HW2  511   1.698   0.822   2.801 -1.7253 -0.2945  1.0510
  128SOL     MW  512   1.732   0.742   2.802 -0.7344  0.1202  0.6327
  129SOL     OW  513   1.609   0.850   0.204 -0.9937  0.2241  0.0896
  129SOL    HW1  514   1.527   0.810   0.197 -0.3672  4.0324  1.2122
  129SOL    HW2  515   1.621   0.867   0.297  0.8078 -0.4621  1.1483
  129SOL     MW  516   1.600   0.847   0.215 -0.6734  0.6360  0.3774
  130SOL     OW  517   0.749   1.525   0.345  0.2588  0.2096 -0.2546
  130SOL    HW1  518   0.781   1.463   0.415  1.4195  1.8251 -1.4088
  130SOL    HW2  519   0.835   1.563   0.318 -1.5947 -1.7422 -1.0950
  130SOL     MW  520   0.765   1.522   0.351  0.1674  0.1652 -0.5177
  131SOL     OW  521   3.021   0.812   0.083  0.0386 -1.0023  0.1989
  131SOL    HW1  522   2.994   0.878   0.010  0.1385  2.6069 -1.5085
  131SOL    HW2  523   3.115   0.801   0.067 -0.8626 -1.7501 -0.5159
  131SOL     MW  524   3.030   0.819   0.071 -0.0671 -0.6247 -0.1207
  132SOL     OW  525   2.692   0.109   1.287 -0.3322 -0.2726 -0.3605
  132SOL    HW1  526   2.725   0.101   1.194 -0.8210  1.4619 -0.7646
  132SOL    HW2  527   2.594   0.105   1.287 -0.1548 -0.7880  1.1489
  132SOL     MW  528   2.684   0.107   1.275 -0.3733 -0.1118 -0.2146
  133SOL     OW  529   1.089   0.225   1.698  0.4127  0.0407  0.2250
  133SOL    HW1  530   1.154   0.158   1.691 -2.5686 -0.2036  1.4530
  133SOL    HW2  531   1.048   0.204   1.779  0.2146 -1.6644  0.1116
  133SOL     MW  532   1.092   0.214   1.708 -0.0068 -0.2165  0.3720
  134SOL     OW  533   1.393   2.514   1.474  0.0274 -0.3815 -0.5609
  134SOL    HW1  534   1.332   2.582   1.463  1.3247 -2.4179 -0.1397
  134SOL    HW2  535   1.448   2.559   1.544 -0.4069 -0.3006  0.8143
  134SOL     MW  536   1.392   2.529   1.482  0.1413 -0.6395 -0.3238
  135SOL     OW  537   3.003   1.026   2.990  0.4062 -0.2840 -0.5270
  135SOL    HW1  538   3.073   1.087   2.987 -1.1185  1.6635 -1.0777
  135SOL    HW2  539   2.934   1.085   3.016  1.6354 -1.2730 -1.4578
  135SOL     MW  540   3.003   1.042   2.993  0.3672 -0.1576 -0.7225
  136SOL     OW  541   0.234   2.080   0.884  0.5041 -0.3015  0.0219
  136SOL    HW1  542   0.179   2.001   0.888  2.7125 -1.8256  0.3426
  136SOL    HW2  543   0.298   2.070   0.810 -3.4999  1.6542  1.3301
  136SOL     MW  544   0.235   2.068   0.875  0.2672 -0.2446  0.2368
  137SOL     OW  545   0.662   2.079   0.606  0.0927  0.4796  0.2317
  137SOL    HW1  546   0.692   2.043   0.687 -0.8772 -0.3847 -1.1213
  137SOL    HW2  547   0.568   2.047   0.609 -0.5908 -3.5237 -1.8702
  137SOL     MW  548   0.654   2.070   0.617 -0.1255 -0.1626 -0.2241
  138SOL     OW  549   0.479   0.592   1.117  0.4462  0.4986 -0.6434
  138SOL    HW1  550   0.408   0.530   1.127  2.5972  0.9107 -1.0457
  138SOL    HW2  551   0.516   0.567   1.033  0.0683 -0.2879  1.3898
  138SOL     MW  552   0.474   0.581   1.107  0.6802  0.4492 -0.4282
  139SOL     OW  553   2.706   0.547   1.390 -0.0592  0.2816  0.1764
  139SOL    HW1  554   2.746   0.460   1.423  1.4500 -0.1419 -0.0158
  139SOL    HW2  555   2.752   0.613   1.435 -0.6802  0.5617  0.8177
  139SOL     MW  556   2.717   0.544   1.400  0.0580  0.2627  0.2356
  140SOL     OW  557   0.883   0.289   2.182 -0.2964  0.4759  0.8645
  140SOL    HW1  558   0.930   0.245   2.104  0.1255  0.3173 -6.0666
  140SOL    HW2  559   0.950   0.285   2.245  0.4549  1.9128 -0.1101
  140SOL     MW  560   0.898   0.282   2.180 -0.1416  0.6446 -0.1786
  141SOL     OW  561   1.047   0.676   1.763 -0.4946 -0.1686  0.1133
  141SOL    HW1  562   1.114   0.613   1.732  0.7767 -2.1980  2.0173
  141SOL    HW2  563   1.103   0.755   1.766  0.9333  0.8523 -1.8655
  141SOL     MW  564   1.063   0.678   1.759 -0.1385 -0.3017  0.1035
  142SOL     OW  565   0.951   1.140   0.712  0.1873 -0.0378 -0.6025
  142SOL    HW1  566   0.972   1.053   0.667  1.9603 -0.7876 -0.0929
  142SOL    HW2  567   1.040   1.148   0.747  1.5885  0.2460 -1.5685
  142SOL     MW  568   0.965   1.129   0.711  0.6061 -0.0993 -0.6627
  143SOL     OW  569   1.902   0.885   1.194  0.2554 -0.2480  0.0717
  143SOL    HW1  570   1.919   0.888   1.097  0.7560 -0.8554 -1.1420
  143SOL    HW2  571   1.863   0.798   1.216 -3.4903 -1.4285 -2.5556
  143SOL     MW  572   1.899   0.874   1.184 -0.1727 -0.4839 -0.4351
  144SOL     OW  573   0.162   1.251   1.541 -0.2558 -0.5104 -0.3910
  144SOL    HW1  574   0.252   1.215   1.537  1.6455  0.6189 -0.6207
  144SOL    HW2  575   0.149   1.300   1.622  0.2489  0.5870  0.2399
  144SOL     MW  576   0.172   1.253   1.551  0.0616 -0.2166 -0.3380
  145SOL     OW  577   0.295   0.406   1.152 -0.4665  0.3741  0.0652
  145SOL    HW1  578   0.319   0.357   1.228  1.2295  1.1556  0.1390
  145SOL    HW2  579   0.207   0.374   1.132  0.2578  0.0766  1.6688
  145SOL     MW  580   0.287   0.396   1.159 -0.1471  0.4379  0.2865
  146SOL     OW  581   0.868   1.940   1.366 -0.2136 -0.0559  0.4228
  146SOL    HW1  582   0.919   1.957   1.288  0.4750  0.0393 -3.6349
  146SOL    HW2  583   0.778   1.948   1.349 -0.2534 -2.1664  0.6651
  146SOL     MW  584   0.863   1.943   1.354 -0.1280 -0.3218 -0.0806
  147SOL     OW  585   0.471   0.435   2.851 -0.6616 -0.2447 -0.2137
  147SOL    HW1  586   0.424   0.449   2.934  1.1183  2.6456  1.4276
  147SOL    HW2  587   0.474   0.518   2.808 -5.0834 -0.3254  1.0339
  147SOL     MW  588   0.465   0.448   2.856 -1.0102  0.1260  0.1675
  148SOL     OW  589   0.079   0.880   1.291 -0.1751  0.2073  0.0957
  148SOL    HW1  590   0.158   0.937   1.278 -2.1324  3.5142 -1.7219
  148SOL    HW2  591   0.050   0.900   1.380  1.6197  0.0851 -0.8689
  148SOL     MW  592   0.085   0.890   1.301 -0.1965  0.6275 -0.2714
  149SOL     OW  593   1.433   1.115   1.376  0.0006 -0.6361 -0.0734
  149SOL    HW1  594   1.387   1.127   1.462  1.5310 -3.3549 -1.1099
  149SOL    HW2  595   1.488   1.193   1.372 -0.1764 -0.1456  0.7006
  149SOL     MW  596   1.434   1.127   1.387  0.1792 -0.9301 -0.1080
  150SOL     OW  597   1.853   1.344   0.708  0.1485  0.6183 -0.1511
  150SOL    HW1  598   1.893   1.261   0.691  1.9730 -0.3002  1.1024
  150SOL    HW2  599   1.903   1.377   0.784  0.4313  0.3022 -1.4820
  150SOL     MW  600   1.865   1.338   0.716  0.4265  0.4554 -0.1613
  151SOL     OW  601   1.608   1.801   0.829  0.0200 -0.0483 -0.2010
  151SOL    HW1  602   1.536   1.786   0.761  1.2345  0.3999 -2.3993
  151SOL    HW2  603   1.574   1.750   0.900 -0.1869  0.1790 -0.8241
  151SOL     MW  604   1.594   1.793   0.829  0.1529  0.0408 -0.5733
  152SOL     OW  605   0.752   1.329   1.457  0.4380  0.0392  0.5806
  152SOL    HW1  606   0.733   1.256   1.395 -0.9682  0.5533  2.4137
  152SOL    HW2  607   0.847   1.325   1.479  3.6392 -0.1469  1.2359
  152SOL     MW  608   0.762   1.319   1.452  0.6748  0.0825  0.9089
  153SOL     OW  609   2.621   1.220   0.732  0.0315  0.3650 -0.3869
  153SOL    HW1  610   2.684   1.223   0.658  3.3727  3.8362 -2.9664
  153SOL    HW2  611   2.588   1.132   0.719 -0.4269  3.1142  0.6189
  153SOL     MW  612   2.625   1.209   0.721  0.4119  1.1857 -0.5945
  154SOL     OW  613   0.317   1.747   1.723 -0.4273 -0.1410  0.2975
  154SOL    HW1  614   0.352   1.732   1.636 -1.8150 -1.3485 -3.4708
  154SOL    HW2  615   0.361   1.688   1.792  1.3097 -0.7102  0.2132
  154SOL     MW  616   0.327   1.737   1.721 -0.3812 -0.3754 -0.2108
  155SOL     OW  617   1.093   0.719   0.251 -0.1295  0.3302  0.5090
  155SOL    HW1  618   1.110   0.658   0.320 -1.1504 -0.1939 -0.4049
  155SOL    HW2  619   1.100   0.809   0.286 -0.8513  0.8134  0.9186
  155SOL     MW  620   1.096   0.723   0.265 -0.3594  0.3248  0.4425
  156SOL     OW  621   1.601   3.035   0.993 -0.1461  0.1039 -0.2310
  156SOL    HW1  622   1.684   3.080   1.013  2.7080 -2.9203 -0.2438
  156SOL    HW2  623   1.587   2.972   1.068 -0.3455  1.0660  0.3647
  156SOL     MW  624   1.610   3.033   1.006  0.2042 -0.1682 -0.1541
  157SOL     OW  625   1.374   1.211   0.093  0.7301 -0.2031 -0.5292
  157SOL    HW1  626   1.390   1.194   0.187  0.5920  1.7422  1.4930
  157SOL    HW2  627   1.461   1.250   0.073  0.1480  0.1406  3.7094
  157SOL     MW  628   1.388   1.214   0.103  0.6351  0.0989  0.2969
  158SOL     OW  629   0.385   1.597   2.238  0.1568  0.9051  0.2942
  158SOL    HW1  630   0.366   1.680   2.193 -0.9128  3.0900  1.6048
  158SOL    HW2  631   0.322   1.574   2.308  1.9934 -1.6912  2.9527
  158SOL     MW  632   0.374   1.605   2.241  0.2580  0.8509  0.8179
  159SOL     OW  633   1.252   1.699   0.399 -0.0783 -0.5835 -0.2183
  159SOL    HW1  634   1.229   1.603   0.401  1.3003  0.3748  1.5134
  159SOL    HW2  635   1.170   1.737   0.436 -2.3941  0.5377  0.0471
  159SOL     MW  636   1.238   1.691   0.404 -0.2020 -0.3091  0.0452
  160SOL     OW  637   0.410   1.078   1.545  0.4797 -0.3259  0.9358
  160SOL    HW1  638   0.428   1.001   1.600  0.0206 -2.5897 -1.7580
  160SOL    HW2  639   0.453   1.154   1.589 -0.7871 -0.7804  0.6941
  160SOL     MW  640   0.418   1.078   1.558  0.2520 -0.6846  0.5485
  161SOL     OW  641   0.531   2.145   2.656  0.6837 -0.2857 -0.2056
  161SOL    HW1  642   0.447   2.154   2.712 -0.7596  1.0184 -0.1239
  161SOL    HW2  643   0.517   2.087   2.588 -0.2078  1.4360  1.0019
  161SOL     MW  644   0.518   2.138   2.655  0.3757  0.1135 -0.0355
  162SOL     OW  645   1.021   1.739   1.836  0.0478 -0.4560 -0.1397
  162SOL    HW1  646   1.035   1.826   1.856 -1.9712 -0.6903  2.7411
  162SOL    HW2  647   0.941   1.708   1.869  1.6326 -3.7447 -0.8064
  162SOL     MW  648   1.012   1.746   1.843 -0.0095 -0.9208  0.1524
  163SOL     OW  649   2.157   0.163   0.995 -0.1814 -0.0053 -0.0741
  163SOL    HW1  650   2.164   0.193   0.897  0.2343 -1.8609 -2.1990
  163SOL    HW2  651   2.087   0.106   0.995  1.4759 -0.3752  0.8330
  163SOL     MW  652   2.149   0.159   0.982  0.0921 -0.2989 -0.2348
  164SOL     OW  653   0.308   0.231   0.844  0.0458 -0.6698 -0.4350
  164SOL    HW1  654   0.246   0.260   0.910 -1.9718  2.8156  0.9468
  164SOL    HW2  655   0.263   0.159   0.799 -2.1520 -2.0909  2.0626
  164SOL     MW  656   0.294   0.226   0.847 -0.5104 -0.3975  0.0768
  165SOL     OW  657   1.394   1.191   0.382 -0.2028 -0.0273  0.1715
  165SOL    HW1  658   1.356   1.116   0.425  1.2044  1.4457 -1.1377
  165SOL    HW2  659   1.487   1.186   0.407  2.5665  0.5088 -1.1395
  165SOL     MW  660   1.401   1.180   0.391  0.3482  0.2378 -0.1742
  166SOL     OW  661   0.526   1.074   0.969  0.5065  1.1592  0.2090
  166SOL    HW1  662   0.487   0.993   1.008 -2.1412  2.4525  1.4754
  166SOL    HW2  663   0.620   1.054   0.972  2.7004 -1.1723  1.5082
  166SOL     MW  664   0.533   1.061   0.975  0.4466  1.0223  0.5475
  167SOL     OW  665   0.960   1.161   0.354  0.3391 -0.5214  0.0624
  167SOL    HW1  666   0.907   1.214   0.414 -2.3551  0.3678  3.0514
  167SOL    HW2  667   0.959   1.202   0.262 -2.4494 -1.0495 -3.9043
  167SOL     MW  668   0.953   1.173   0.350 -0.3843 -0.4738 -0.0666
  168SOL     OW  669   1.683   1.748   2.923  0.0538  0.0823 -0.0045
  168SOL    HW1  670   1.646   1.806   2.993  1.1613  0.7310  0.6107
  168SOL    HW2  671   1.656   1.662   2.944 -0.5989  0.3759 -1.5290
  168SOL     MW  672   1.675   1.744   2.935  0.1138  0.2066 -0.1245
  169SOL     OW  673   0.331   0.998   1.279 -0.2795 -0.5214  0.2542
  169SOL    HW1  674   0.350   1.007   1.369  1.2681 -3.2135 -1.5311
  169SOL    HW2  675   0.318   1.093   1.252  0.2825  1.2270 -2.9428
  169SOL     MW  676   0.332   1.011   1.288 -0.0012 -0.6459 -0.4031
  170SOL     OW  677   1.023   1.455   1.539  0.3279 -0.5556 -0.2435
  170SOL    HW1  678   0.960   1.523   1.513 -0.0433 -1.4399  2.1346
  170SOL    HW2  679   1.107   1.473   1.504 -2.5904 -0.5160 -0.2249
  170SOL     MW  680   1.026   1.466   1.531 -0.1061 -0.6670  0.0727
  171SOL     OW  681   0.562   1.375   0.694 -0.1813  0.6595 -0.1759
  171SOL    HW1  682   0.545   1.378   0.790 -0.9027 -1.3268 -1.9502
  171SOL    HW2  683   0.573   1.280   0.666  0.0652 -1.2792  0.1235
  171SOL     MW  684   0.561   1.363   0.703 -0.2439  0.1417 -0.3705
  172SOL     OW  685   0.839   0.286   1.198 -0.0968  0.5147  0.5899
  172SOL    HW1  686   0.834   0.312   1.108  0.7308 -1.0432  0.8331
  172SOL    HW2  687   0.763   0.323   1.243 -0.7204  0.9225 -0.1085
  172SOL     MW  688   0.828   0.295   1.192 -0.0699  0.3629  0.5298
  173SOL     OW  689   0.403   1.632   0.360  0.3544  0.3345 -0.1737
  173SOL    HW1  690   0.372   1.544   0.355  1.1672  1.3004  0.2804
  173SOL    HW2  691   0.468   1.637   0.433  1.3182 -1.7149  0.3355
  173SOL     MW  692   0.407   1.621   0.369  0.5888  0.1916 -0.0466
  174SOL     OW  693   2.035   0.941   1.479 -0.4746  0.3824  0.9145
  174SOL    HW1  694   1.979   0.866   1.514 -0.5182 -1.9534 -0.0316
  174SOL    HW2  695   1.966   1.003   1.464 -1.8194  1.1200 -2.5606
  174SOL     MW  696   2.019   0.939   1.482 -0.6578  0.1715  0.3311
  175SOL     OW  697   0.369   1.364   0.388 -0.3406 -0.2046 -0.1629
  175SOL    HW1  698   0.391   1.374   0.295 -0.5608 -0.4439  1.5234
  175SOL    HW2  699   0.451   1.338   0.422  1.9455  1.1383 -2.2216
  175SOL     MW  700   0.383   1.362   0.380 -0.0680 -0.0590 -0.2120
  176SOL     OW  701   0.223   1.238   1.248  0.0529 -0.2518  0.1651
  176SOL    HW1  702   0.160   1.245   1.175  2.9132 -0.9608  0.0176
  176SOL    HW2  703   0.178   1.262   1.322  1.4358 -1.1875  1.3308
  176SOL     MW  704   0.209   1.242   1.248  0.6127 -0.4688  0.2995
  177SOL     OW  705   0.627   0.429   1.286  0.6490 -0.0939  0.2925
  177SOL    HW1  706   0.589   0.498   1.228  0.9611 -1.6739  1.4651
  177SOL    HW2  707   0.644   0.463   1.373 -1.7333 -0.7355  1.1047
  177SOL     MW  708   0.624   0.442   1.290  0.3758 -0.3870  0.5544
  178SOL     OW  709   3.096   0.436   3.038 -0.4384 -0.1217 -0.3014
  178SOL    HW1  710   3.050   0.480   3.114  0.0034 -0.5617 -2.1396
  178SOL    HW2  711   3.042   0.458   2.967  0.3925 -0.5259  0.3877
  178SOL     MW  712   3.083   0.444   3.039 -0.2705 -0.2331 -0.4531
  179SOL     OW  713   1.633   1.326   1.486  0.1930 -0.1350 -0.2160
  179SOL    HW1  714   1.620   1.375   1.572 -2.1703  0.5953  0.7051
  179SOL    HW2  715   1.730   1.302   1.487 -0.5349  0.5305  2.8874
  179SOL     MW  716   1.644   1.329   1.497 -0.2148  0.0492  0.3150
  180SOL     OW  717   2.976   0.297   0.495  0.5764  0.2143 -0.5820
  180SOL    HW1  718   2.940   0.307   0.407  1.4073  1.9324  1.2514
  180SOL    HW2  719   3.036   0.366   0.500 -2.5401 -0.2904  1.4696
  180SOL     MW  720   2.979   0.308   0.484  0.2749  0.3744 -0.0695
  181SOL     OW  721   1.137   1.360   3.038  0.1623  0.2108 -0.2473
  181SOL    HW1  722   1.182   1.377   3.117 -0.0461  1.6700 -1.3379
  181SOL    HW2  723   1.201   1.324   2.977 -0.7050 -0.3216  0.4860
  181SOL     MW  724   1.151   1.358   3.041  0.0204  0.3331 -0.2944
  182SOL     OW  725   0.455   0.861   1.720  0.4706 -0.5356 -0.4379
  182SOL    HW1  726   0.377   0.819   1.686  1.8550 -2.3105  2.6636
  182SOL    HW2  727   0.510   0.794   1.748 -1.4828 -1.5626 -1.1270
  182SOL     MW  728   0.452   0.847   1.719  0.3955 -0.9053 -0.1196
  183SOL     OW  729   1.574   1.516   1.292 -0.1442 -0.1487 -0.7379
  183SOL    HW1  730   1.588   1.601   1.325 -1.7872 -0.0359 -1.4424
  183SOL    HW2  731   1.593   1.450   1.369  1.1727  0.9232  0.9681
  183SOL     MW  732   1.578   1.519   1.307 -0.1872  0.0076 -0.6058
  184SOL     OW  733   0.812   0.477   1.946 -0.6320  0.5304  0.6272
  184SOL    HW1  734   0.894   0.502   1.914 -0.0064 -2.3570  0.9416
  184SOL    HW2  735   0.830   0.413   2.008  1.3672  0.5193 -1.8102
  184SOL     MW  736   0.825   0.472   1.950 -0.2857  0.1479  0.3471
  185SOL     OW  737   1.118   0.923   1.964  0.3782 -0.7187 -0.1474
  185SOL    HW1  738   1.102   0.835   1.993  0.3342  0.5018 -0.8837
  185SOL    HW2  739   1.149   0.979   2.040  1.9258  0.7289  1.2166
  185SOL     MW  740   1.120   0.919   1.978  0.5766 -0.3666 -0.0646
  186SOL     OW  741   0.364   1.779   1.451 -0.0909 -0.2700  0.0598
  186SOL    HW1  742   0.431   1.834   1.419 -2.6206  0.6522 -2.1308
  186SOL    HW2  743   0.333   1.724   1.382  3.0679 -0.8801 -2.0589
  186SOL     MW  744   0.369   1.779   1.438 -0.0079 -0.2288 -0.5087
  187SOL     OW  745   1.515   0.733   1.494  0.1521 -0.5165  0.0445
  187SOL    HW1  746   1.466   0.720   1.577 -0.7161 -0.6631  0.1688
  187SOL    HW2  747   1.457   0.699   1.430 -0.0100  1.2484  1.2622
  187SOL     MW  748   1.501   0.727   1.497  0.0161 -0.3030  0.2216
  188SOL     OW  749   1.918   1.077   0.701  0.1110  0.2766 -0.0799
  188SOL    HW1  750   1.901   1.020   0.776  1.5862  0.9303 -0.6891
  188SOL    HW2  751   1.994   1.044   0.658 -1.7275 -0.8685  1.2100
  188SOL     MW  752   1.926   1.065   0.705  0.0630  0.2117  0.0099
  189SOL     OW  753   0.633   0.784   0.741  0.0984 -0.2073  0.5173
  189SOL    HW1  754   0.544   0.810   0.742 -0.0580 -2.2207  0.3546
  189SOL    HW2  755   0.694   0.850   0.787 -0.8992  3.0264  5.0343
  189SOL     MW  756   0.629   0.796   0.747 -0.0539 -0.0463  1.0918
  190SOL     OW  757   1.888   0.347   1.946 -0.2085  0.2663  0.5888
  190SOL    HW1  758   1.944   0.285   1.982 -2.4933  0.2636  1.0483
  190SOL    HW2  759   1.942   0.432   1.942  1.4497  0.1862 -1.7591
  190SOL     MW  760   1.902   0.350   1.950 -0.2912  0.2554  0.3397
  191SOL     OW  761   1.625   0.984   1.497 -0.6147 -0.1623  0.0377
  191SOL    HW1  762   1.555   1.029   1.456  3.0536 -2.2846 -0.0183
  191SOL    HW2  763   1.594   0.893   1.505 -1.1189  1.8514  1.7239
  191SOL     MW  764   1.612   0.978   1.493 -0.1972 -0.1766  0.2527
  192SOL     OW  765   0.682   2.042   2.869  0.1375 -0.0456  0.2101
  192SOL    HW1  766   0.629   2.095   2.804  0.6201  1.9400 -0.6687
  192SOL    HW2  767   0.651   1.950   2.862  0.4858 -2.2645 -0.1359
  192SOL     MW  768   0.671   2.037   2.859  0.2471 -0.0764  0.0485
  193SOL     OW  769   0.995   1.539   0.754 -0.0372 -0.2819 -0.2916
  193SOL    HW1  770   0.946   1.542   0.833  1.7232  1.4631 -1.0776
  193SOL    HW2  771   0.936   1.490   0.691 -0.7576  0.3867 -0.0682
  193SOL     MW  772   0.981   1.533   0.756  0.1000  0.0366 -0.3658
  194SOL     OW  773   0.505   1.358   0.954 -0.3169  0.2274 -0.1204
  194SOL    HW1  774   0.510   1.263   0.940 -0.9984 -3.4789 -0.8727
  194SOL    HW2  775   0.410   1.372   0.955 -1.3028  1.9162  3.6047
  194SOL     MW  776   0.493   1.348   0.952 -0.5369 -0.0387  0.2718
  195SOL     OW  777   1.297   1.146   2.908  0.7136  0.1276  0.0238
  195SOL    HW1  778   1.316   1.136   3.003 -2.1813 -0.0019 -0.1657
  195SOL    HW2  779   1.212   1.099   2.895  0.1915  0.2367  0.1817
  195SOL     MW  780   1.288   1.139   2.919  0.2627  0.1249  0.0196
  196SOL     OW  781   2.200   1.087   0.595  0.6299 -0.0615  0.3255
  196SOL    HW1  782   2.153   1.073   0.508 -0.7941 -0.3072 -1.1159
  196SOL    HW2  783   2.165   1.175   0.628 -3.5768 -3.0335  2.4094
  196SOL     MW  784   2.189   1.097   0.588 -0.1131 -0.4860  0.4103
  197SOL     OW  785   0.536   1.168   1.961  0.0998  0.1985 -0.4369
  197SOL    HW1  786   0.564   1.073   1.946 -2.2927  1.9189 -3.3235
  197SOL    HW2  787   0.491   1.197   1.887  0.3396  1.9371  2.1937
  197SOL     MW  788   0.534   1.159   1.949 -0.1842  0.6549 -0.4707
  198SOL     OW  789   2.911   1.419   1.098 -0.0279 -0.7771 -0.4154
  198SOL    HW1  790   2.931   1.511   1.068 -3.0310  0.0154 -2.5439
  198SOL    HW2  791   2.842   1.397   1.039 -0.6621  0.8737 -1.9491
  198SOL     MW  792   2.905   1.428   1.087 -0.5078 -0.4547 -0.8986
  199SOL     OW  793   0.422   1.291   1.737  0.3152  0.0139 -0.1930
  199SOL    HW1  794   0.330   1.259   1.746 -1.2439  0.4392 -1.3048
  199SOL    HW2  795   0.429   1.347   1.655 -1.7452 -2.3836  1.7687
  199SOL     MW  796   0.411   1.294   1.728 -0.1623 -0.2463 -0.0809
  200SOL     OW  797   1.938   3.000   1.261  0.0704  0.2588  0.4575
  200SOL    HW1  798   1.980   3.014   1.177 -1.4370 -1.6449 -2.0351
  200SOL    HW2  799   1.850   3.023   1.240  0.1385 -0.8286  0.7186
  200SOL     MW  800   1.932   3.005   1.248 -0.1195 -0.1358  0.1631
  201SOL     OW  801   1.047   0.300   0.753  0.4353 -0.1603  0.2974
  201SOL    HW1  802   1.014   0.218   0.733 -1.3656  1.2864  0.8899
  201SOL    HW2  803   1.003   0.362   0.695 -0.8117  1.9365 -0.9657
  201SOL     MW  804   1.037   0.297   0.743  0.0332  0.3072  0.2089
  202SOL     OW  805   1.550   1.596   1.015  0.6262 -0.2294  0.3708
  202SOL    HW1  806   1.571   1.526   0.951  0.7997 -0.9874  2.3572
  202SOL    HW2  807   1.610   1.574   1.087  1.6962  2.2668 -0.4025
  202SOL     MW  808   1.561   1.584   1.016  0.7902 -0.0001  0.5309
  203SOL     OW  809   2.980   0.463   1.201  0.5363  0.4405  0.4147
  203SOL    HW1  810   3.021   0.378   1.159  2.8947 -0.2010 -0.2128
  203SOL    HW2  811   3.045   0.501   1.264 -0.7715  4.2522  5.6425
  203SOL     MW  812   2.994   0.457   1.204  0.6749  0.8588  1.0217
  204SOL     OW  813   1.047   1.783   0.565 -0.3162 -0.0475  0.1453
  204SOL    HW1  814   1.033   1.698   0.610  0.2910 -1.8314 -0.0683
  204SOL    HW2  815   0.962   1.812   0.528  0.9048 -0.4095 -0.0044
  204SOL     MW  816   1.034   1.775   0.566 -0.0750 -0.3306  0.0974
  205SOL     OW  817   1.459   0.083   1.214 -0.4734 -0.9080  0.2488
  205SOL    HW1  818   1.478   0.061   1.121 -1.8780  0.1913  0.7410
  205SOL    HW2  819   1.422   0.170   1.215  0.9635  0.0296 -1.8102
  205SOL     MW  820   1.457   0.091   1.202 -0.4691 -0.6392  0.0421
  206SOL     OW  821   0.474   3.074   1.365  0.7573  0.6362  0.1591
  206SOL    HW1  822   0.446   3.041   1.280  1.4426  2.0269  1.4919
  206SOL    HW2  823   0.554   3.017   1.390  0.4226 -0.1020  1.7844
  206SOL     MW  824   0.481   3.062   1.357  0.8036  0.7223  0.5494
  207SOL     OW  825   0.999   1.595   0.243  0.4738  0.5933 -0.3331
  207SOL    HW1  826   1.022   1.670   0.190 -2.3972 -2.9175  0.5102
  207SOL    HW2  827   1.075   1.536   0.240  0.5108 -2.2458  0.6902
  207SOL     MW  828   1.012   1.597   0.235  0.0999 -0.2445 -0.0868
  208SOL     OW  829   0.599   1.577   1.314  0.2796 -0.2961 -0.5347
  208SOL    HW1  830   0.681   1.576   1.357 -0.2828 -1.4683  2.3281
  208SOL    HW2  831   0.595   1.500   1.256 -0.2836  2.2995  0.0615
  208SOL     MW  832   0.609   1.567   1.312  0.1311 -0.1083 -0.0783
  209SOL     OW  833   1.504   0.556   2.798  0.3306 -0.1706  0.1335
  209SOL    HW1  834   1.576   0.619   2.799 -1.4527  0.2743  0.2069
  209SOL    HW2  835   1.557   0.481   2.764 -0.4389  0.8918  0.8861
  209SOL     MW  836   1.521   0.554   2.793 -0.0062  0.0283  0.2425
  210SOL     OW  837   1.622   1.345   0.869  0.3842 -0.7195  0.5038
  210SOL    HW1  838   1.714   1.363   0.849 -0.4434 -0.7988  0.7255
  210SOL    HW2  839   1.573   1.329   0.790  2.0013 -0.1746 -0.1080
  210SOL     MW  840   1.628   1.345   0.856  0.4884 -0.6581  0.4523
  211SOL     OW  841   1.736   0.491   0.956 -0.6823  0.0999 -0.2728
  211SOL    HW1  842   1.705   0.475   0.858 -1.9363  2.2764  0.7873
  211SOL    HW2  843   1.827   0.524   0.949 -0.3923 -0.3077 -1.0837
  211SOL     MW  844   1.744   0.494   0.942 -0.8095  0.3333 -0.2399
  212SOL     OW  845   0.326   1.132   0.048  0.2445  0.0153  0.0671
  212SOL    HW1  846   0.243   1.089   0.084 -1.6049 -0.7645 -1.1623
  212SOL    HW2  847   0.369   1.058  -0.001 -1.8141  0.0145 -0.0250
  212SOL     MW  848   0.320   1.117   0.046 -0.2711 -0.0877 -0.1072
  213SOL     OW  849   0.521   1.702   3.070 -0.5356  0.2379  0.2792
  213SOL    HW1  850   0.520   1.770   3.143  1.1005 -1.0267 -0.8705
  213SOL    HW2  851   0.567   1.740   2.991  0.5610  0.8453 -0.5308
  213SOL     MW  852   0.527   1.716   3.069 -0.1751  0.1512  0.0206
  214SOL     OW  853   0.617   0.233   2.283 -0.4443 -0.0716 -0.1221
  214SOL    HW1  854   0.568   0.305   2.231 -2.0360  1.4270  0.5350
  214SOL    HW2  855   0.709   0.232   2.245  1.4529 -1.2376 -1.5494
  214SOL     MW  856   0.623   0.242   2.271 -0.4040 -0.0277 -0.2237
  215SOL     OW  857   0.483   0.692   2.622  0.4454  0.4759 -0.1691
  215SOL    HW1  858   0.488   0.662   2.532  1.5603 -0.6508  1.6222
  215SOL    HW2  859   0.394   0.668   2.654  2.6223 -2.3839  0.8566
  215SOL     MW  860   0.472   0.685   2.615  0.8797 -0.0501  0.2026
  216SOL     OW  861   3.060  -0.001   2.839  0.3446 -0.0256 -0.2878
  216SOL    HW1  862   2.980  -0.021   2.893  4.6764  0.6536  3.4073
  216SOL    HW2  863   3.051   0.087   2.794  1.9246  0.1837  2.3179
  216SOL     MW  864   3.048   0.008   2.840  1.1246  0.0916  0.5435
  217SOL     OW  865   0.979   1.166   0.073 -0.4058 -0.4508  0.1559
  217SOL    HW1  866   1.003   1.076   0.052  2.0878 -0.4365 -0.9672
  217SOL    HW2  867   1.044   1.216   0.025  2.3325  2.2889 -0.3770
  217SOL     MW  868   0.991   1.160   0.064  0.2845 -0.0874 -0.0626
  218SOL     OW  869   0.926   1.318   2.490  0.0818  0.0454 -0.6336
  218SOL    HW1  870   0.942   1.224   2.507 -1.7501 -2.5408  2.2932
  218SOL    HW2  871   0.995   1.373   2.538  0.6830  2.1959  1.4491
  218SOL     MW  872   0.938   1.313   2.498 -0.0805 -0.0121  0.0274
  219SOL     OW  873   1.031   0.372   2.579  0.1051  0.1098 -0.7818
  219SOL    HW1  874   1.093   0.401   2.645  1.0504 -0.5908 -0.3453
  219SOL    HW2  875   0.944   0.407   2.609 -0.4973 -1.3319 -2.0705
  219SOL     MW  876   1.028   0.380   2.592  0.1504 -0.1729 -0.8942
  220SOL     OW  877   1.742   0.557   2.178  0.6271 -0.0489 -0.2929
  220SOL    HW1  878   1.657   0.590   2.148  4.4518  3.3970  3.2489
  220SOL    HW2  879   1.736   0.470   2.147  0.7930  0.7922 -1.5619
  220SOL     MW  880   1.730   0.550   2.170  1.1536  0.5167  0.0069
  221SOL     OW  881   0.385   1.410   2.920  0.3170  0.5944  0.2665
  221SOL    HW1  882   0.412   1.327   2.880 -6.7768 -1.3090 -0.0501
  221SOL    HW2  883   0.418   1.469   2.854 -0.4685  3.2359  0.0211
  221SOL     MW  884   0.393   1.407   2.906 -0.7226  0.6918  0.1923
  222SOL     OW  885   0.396   0.931   2.680  0.7031 -0.7660 -0.6132
  222SOL    HW1  886   0.335   0.944   2.602  3.6527 -2.3253 -1.0861
  222SOL    HW2  887   0.436   0.849   2.654 -0.3768  2.5126 -0.4993
  222SOL     MW  888   0.393   0.922   2.666  0.9498 -0.5391 -0.6606
  223SOL     OW  889   3.040   2.014   2.668 -0.2589 -0.0928  0.2241
  223SOL    HW1  890   3.097   1.950   2.705  0.0287 -1.3609  0.1937
  223SOL    HW2  891   3.092   2.080   2.619  0.4084 -0.6118 -0.2409
  223SOL     MW  892   3.054   2.014   2.667 -0.1329 -0.3286  0.1588
  224SOL     OW  893   1.546   0.798   2.561 -0.0038 -0.1567  0.8477
  224SOL    HW1  894   1.522   0.792   2.650  0.5325  0.7715  3.5107
  224SOL    HW2  895   1.516   0.885   2.542 -0.4988 -2.0611  0.4504
  224SOL     MW  896   1.539   0.808   2.570  0.0016 -0.2855  1.1466
  225SOL     OW  897   2.981   1.514   2.263 -0.3997 -0.6466  0.3645
  225SOL    HW1  898   3.006   1.583   2.197  2.3161  1.4321  0.8329
  225SOL    HW2  899   2.921   1.564   2.315  0.0859  0.9948  1.5385
  225SOL     MW  900   2.977   1.530   2.261  0.0227 -0.1557  0.5812
  226SOL     OW  901   0.423   1.536   2.673  0.2393 -0.2404 -0.0398
  226SOL    HW1  902   0.488   1.488   2.629 -1.0980  1.9006  0.9205
  226SOL    HW2  903   0.435   1.627   2.661  2.3727  0.3980  1.6221
  226SOL     MW  904   0.433   1.542   2.665  0.3443  0.1263  0.3062
  227SOL     OW  905   0.468   1.171   2.806 -1.0112 -0.1884  0.3722
  227SOL    HW1  906   0.560   1.189   2.784 -1.5584  0.4092 -1.4464
  227SOL    HW2  907   0.433   1.093   2.761  2.2398  3.8086 -0.3807
  227SOL     MW  908   0.476   1.163   2.798 -0.6545  0.4178  0.0329
  228SOL     OW  909   0.671   0.927   1.988 -0.0516  0.0995  0.0288
  228SOL    HW1  910   0.756   0.966   1.985  1.1463  0.2529  0.8161
  228SOL    HW2  911   0.645   0.912   2.085 -0.4339 -1.6438  0.1786
  228SOL     MW  912   0.679   0.930   2.001  0.0560 -0.1103  0.1524
  229SOL     OW  913   0.265   0.485   3.066  0.4794 -0.4090  0.0172
  229SOL    HW1  914   0.161   0.483   3.049 -2.9499  0.2977  0.2671
  229SOL    HW2  915   0.279   0.439   3.152  1.1490 -2.4623  0.0562
  229SOL     MW  916   0.253   0.479   3.075  0.1153 -0.5867  0.0553
  230SOL     OW  917   1.694   1.387   2.100  0.1767 -0.4464 -0.3025
  230SOL    HW1  918   1.666   1.385   2.189 -2.4941  1.2661  1.0896
  230SOL    HW2  919   1.767   1.321   2.096 -0.3999 -0.6128  1.6258
  230SOL     MW  920   1.700   1.378   2.111 -0.2518 -0.2424  0.1356
  231SOL     OW  921   2.829   1.305   2.193 -0.1876 -0.9329  0.0197
  231SOL    HW1  922   2.894   1.369   2.196 -1.5770 -3.8267  1.4235
  231SOL    HW2  923   2.761   1.322   2.125 -1.2698  1.8002 -2.1786
  231SOL     MW  924   2.829   1.316   2.184 -0.5137 -0.9541 -0.0851
  232SOL     OW  925   2.285   1.028   2.109  0.3421 -0.3624 -0.4149
  232SOL    HW1  926   2.227   1.007   2.046  2.3730  1.8932  0.4783
  232SOL    HW2  927   2.241   1.000   2.193 -0.4875  0.3409 -0.7730
  232SOL     MW  928   2.272   1.022   2.112  0.5006  0.0280 -0.3443
  233SOL     OW  929   2.027   0.598   1.886 -0.0870  0.1363  0.0528
  233SOL    HW1  930   2.027   0.603   1.788 -1.3002 -3.3102 -0.3102
  233SOL    HW2  931   2.113   0.574   1.919 -0.6308  0.3118  2.3045
  233SOL     MW  932   2.038   0.595   1.878 -0.3188 -0.2953  0.3020
  234SOL     OW  933   0.214   0.962   2.493  0.2416  0.6610 -0.0889
  234SOL    HW1  934   0.118   0.967   2.502 -0.5386  1.0579 -2.3128
  234SOL    HW2  935   0.224   1.045   2.436 -1.9121  1.0192 -0.7328
  234SOL     MW  936   0.203   0.973   2.487 -0.1455  0.7606 -0.4672
  235SOL     OW  937   0.986   3.050   2.788  0.1569 -0.1436  0.1379
  235SOL    HW1  938   0.985   2.978   2.852 -0.0640  0.7814  0.9362
  235SOL    HW2  939   0.976   3.125   2.851 -0.5681  0.6049 -0.6129
  235SOL     MW  940   0.985   3.051   2.805  0.0321  0.0772  0.1442
  236SOL     OW  941   2.946   0.557   0.117  0.2517 -0.2745 -0.3962
  236SOL    HW1  942   2.869   0.570   0.056 -3.1857 -0.8199  1.1277
  236SOL    HW2  943   2.987   0.635   0.095 -1.1680  0.8765 -3.4498
  236SOL     MW  944   2.941   0.569   0.106 -0.3892 -0.1946 -0.5980
  237SOL     OW  945   1.759   0.910   2.184 -0.3057 -0.4883 -0.2160
  237SOL    HW1  946   1.796   0.999   2.168 -0.0517 -2.5257 -1.4474
  237SOL    HW2  947   1.774   0.899   2.277 -0.1058 -1.7054  0.6591
  237SOL     MW  948   1.766   0.920   2.194 -0.2458 -0.9177 -0.2630
  238SOL     OW  949   1.035   1.769   2.961  0.1278 -0.1067  0.0800
  238SOL    HW1  950   0.996   1.682   2.972  0.8363 -1.8518  0.2166
  238SOL    HW2  951   1.125   1.752   2.944 -0.4008 -0.2883  0.6055
  238SOL     MW  952   1.042   1.755   2.960  0.1515 -0.3609  0.1674
  239SOL     OW  953   1.277   1.439   2.352 -0.3137 -0.3700 -0.6448
  239SOL    HW1  954   1.218   1.429   2.427 -0.7846 -0.9333  2.0894
  239SOL    HW2  955   1.369   1.436   2.385 -2.5150  2.0093  2.2864
  239SOL     MW  956   1.282   1.437   2.366 -0.6663 -0.1304  0.1026
  240SOL     OW  957   0.591   0.834   2.229  0.3582  0.2642 -0.0464
  240SOL    HW1  958   0.557   0.904   2.285  0.4651  0.3786 -0.8480
  240SOL    HW2  959   0.683   0.817   2.263  0.5375 -3.2472  2.5804
  240SOL     MW  960   0.599   0.841   2.241  0.3959 -0.1840  0.1944
  241SOL     OW  961   0.653   0.333   3.019  0.3407  0.0542  0.0963
  241SOL    HW1  962   0.626   0.377   3.103  0.0730  1.7502 -0.3889
  241SOL    HW2  963   0.575   0.352   2.966 -1.1128  1.6564  0.2802
  241SOL     MW  964   0.639   0.342   3.023  0.1136  0.4894  0.0566
  242SOL     OW  965   1.432   1.703   2.283 -0.6857 -0.6835  0.6474
  242SOL    HW1  966   1.410   1.764   2.353  0.2709 -2.3961 -0.8708
  242SOL    HW2  967   1.355   1.669   2.238 -2.0822 -2.7391  2.3072
  242SOL     MW  968   1.419   1.706   2.286 -0.7438 -1.1807  0.6661
  243SOL     OW  969   1.064   0.211   2.377 -0.1952 -0.3013 -0.2293
  243SOL    HW1  970   1.155   0.202   2.392 -0.6403 -0.5528 -0.0054
  243SOL    HW2  971   1.045   0.285   2.437  2.1780  0.4012  2.1506
  243SOL     MW  972   1.073   0.220   2.387  0.0592 -0.2418  0.1142
  244SOL     OW  973   0.233   0.756   2.317  0.4864 -0.0201  0.2174
  244SOL    HW1  974   0.230   0.820   2.387  0.2011  1.4082  0.7869
  244SOL    HW2  975   0.299   0.687   2.336 -2.8328  1.2284  1.8200
  244SOL     MW  976   0.241   0.755   2.329  0.0109  0.3331  0.5040
  245SOL     OW  977   1.340   0.137   2.319 -0.1540  0.1265  0.0943
  245SOL    HW1  978   1.328   0.045   2.304 -2.5628  0.5619 -1.5639
  245SOL    HW2  979   1.418   0.161   2.270 -0.1328  1.2858 -1.5347
  245SOL     MW  980   1.348   0.128   2.310 -0.4690  0.3369 -0.3394
  246SOL     OW  981   1.157   1.142   2.173  0.3973 -0.1023  0.1902
  246SOL    HW1  982   1.101   1.126   2.249  2.3489  0.2558 -3.1963
  246SOL    HW2  983   1.244   1.165   2.212  0.7728  0.0335 -0.3198
  246SOL     MW  984   1.161   1.143   2.188  0.7043 -0.0371 -0.3239
  247SOL     OW  985   0.630   0.578   0.124  0.3023  0.1255  0.0394
  247SOL    HW1  986   0.576   0.654   0.110 -1.1762 -2.4345 -3.7470
  247SOL    HW2  987   0.709   0.580   0.070  2.4462  1.1770  1.2213
  247SOL     MW  988   0.634   0.588   0.115  0.3901 -0.0735 -0.3042
  248SOL     OW  989   0.341   1.205   2.412  0.0481 -0.1403  0.5715
  248SOL    HW1  990   0.387   1.270   2.361 -2.1391 -1.1800 -0.7591
  248SOL    HW2  991   0.309   1.247   2.490 -1.7118 -0.2972  1.3401
  248SOL     MW  992   0.343   1.219   2.415 -0.4727 -0.2982  0.4974
  249SOL     OW  993   0.139   1.837   2.707  0.1104  0.1473  0.1816
  249SOL    HW1  994   0.081   1.765   2.672 -0.3338 -2.2893  0.5949
  249SOL    HW2  995   0.191   1.802   2.783 -0.4162 -2.0221  0.8218
  249SOL     MW  996   0.138   1.823   2.713 -0.0177 -0.4604  0.3206
  250SOL     OW  997   2.182   0.865   2.304 -0.3326  0.7467 -0.0531
  250SOL    HW1  998   2.259   0.808   2.305 -0.2974  1.9661 -0.0182
  250SOL    HW2  999   2.193   0.924   2.384  0.2189  0.0174  1.9985
  250SOL     MW 1000   2.194   0.866   2.315 -0.2552  0.8114  0.2222
  251SOL     OW 1001   0.079   0.817   2.084  0.4822  0.2949 -0.3975
  251SOL    HW1 1002   0.133   0.808   2.163  1.1249  1.2173 -2.6369
  251SOL    HW2 1003   0.089   0.737   2.037 -5.3107  2.0056 -0.5000
  251SOL     MW 1004   0.087   0.806   2.088 -0.1973  0.6423 -0.7065
  252SOL     OW 1005   1.698   1.001   2.790 -0.0027 -0.1100 -0.2380
  252SOL    HW1 1006   1.742   1.036   2.865 -0.1313 -0.5724 -0.3553
  252SOL    HW2 1007   1.748   1.031   2.716 -3.3279  1.2490  0.3330
  252SOL     MW 1008   1.710   1.009   2.790 -0.4584  0.0083 -0.1782
  253SOL     OW 1009   1.145   1.746   2.559 -0.1623  0.5135  0.4539
  253SOL    HW1 1010   1.149   1.778   2.470 -0.9864  0.4253  0.9886
  253SOL    HW2 1011   1.048   1.763   2.588 -1.4729 -1.8528  1.9513
  253SOL     MW 1012   1.133   1.752   2.551 -0.4439  0.1896  0.7220
  254SOL     OW 1013   0.958   1.056   2.340 -0.5536  0.7400 -0.2052
  254SOL    HW1 1014   0.936   0.968   2.303  2.5653 -2.4348 -0.7261
  254SOL    HW2 1015   0.893   1.105   2.288  0.1781 -1.9595 -0.3920
  254SOL     MW 1016   0.946   1.051   2.328 -0.0456 -0.0350 -0.2986
  255SOL     OW 1017   0.714   2.296   2.305  0.2613  0.8116 -0.5648
  255SOL    HW1 1018   0.626   2.271   2.314  1.8038  1.8937 -1.0890
  255SOL    HW2 1019   0.736   2.356   2.376 -0.6705  1.4206  0.9407
  255SOL     MW 1020   0.706   2.300   2.316  0.3418  1.0347 -0.4353
  256SOL     OW 1021   1.204   2.864   2.976 -0.3307  0.2591 -0.1424
  256SOL    HW1 1022   1.247   2.778   2.959  1.2547 -0.2177  1.2560
  256SOL    HW2 1023   1.248   2.911   2.902  0.7843 -2.2516  0.3304
  256SOL     MW 1024   1.216   2.859   2.964  0.0256 -0.1350  0.1045
  257SOL     OW 1025   0.134   1.854   0.014 -0.1470  0.0626 -0.2920
  257SOL    HW1 1026   0.132   1.797   0.092 -1.4723 -1.8180  2.5283
  257SOL    HW2 1027   0.185   1.803  -0.046 -0.3934 -1.4818  2.1109
  257SOL     MW 1028   0.140   1.839   0.016 -0.3544 -0.3893  0.3972
  258SOL     OW 1029   0.544   1.042   2.382  0.1913 -0.3247  0.5161
  258SOL    HW1 1030   0.606   1.102   2.342  2.4144 -0.9227  2.2540
  258SOL    HW2 1031   0.471   1.101   2.421  2.7001  0.9894  1.4722
  258SOL     MW 1032   0.542   1.058   2.382  0.8157 -0.2302  0.8715
  259SOL     OW 1033   0.607   0.369   2.537 -0.0504 -0.1935  0.1157
  259SOL    HW1 1034   0.513   0.405   2.547  1.8804  0.5686 -1.6875
  259SOL    HW2 1035   0.613   0.310   2.459  0.4738 -1.4595 -1.1991
  259SOL     MW 1036   0.595   0.366   2.528  0.2735 -0.2600 -0.2957
  260SOL     OW 1037   0.594   0.157   1.598 -0.2363 -0.1020 -0.2323
  260SOL    HW1 1038   0.509   0.182   1.561  2.4608 -1.7237 -2.6727
  260SOL    HW2 1039   0.660   0.141   1.528 -0.6288 -0.1441 -1.4028
  260SOL     MW 1040   0.591   0.158   1.584  0.0678 -0.3216 -0.7087
  261SOL     OW 1041   1.040   0.667   2.084  0.1805  0.3565 -0.5549
  261SOL    HW1 1042   1.081   0.660   2.173 -0.6429  0.6439  2.1190
  261SOL    HW2 1043   1.097   0.612   2.030 -1.3515  0.3658 -0.7898
  261SOL     MW 1044   1.053   0.659   2.088 -0.1302  0.3956 -0.2331
  262SOL     OW 1045   1.151   0.401   0.138 -0.2988  0.1063  0.0593
  262SOL    HW1 1046   1.165   0.306   0.139  0.0827 -0.5634  0.3682
  262SOL    HW2 1047   1.192   0.431   0.054 -0.2843 -1.9630  0.0112
  262SOL     MW 1048   1.159   0.393   0.127 -0.2466 -0.2551  0.0937
  263SOL     OW 1049   0.410   2.997   2.469  0.4857  0.0391  0.2331
  263SOL    HW1 1050   0.342   3.061   2.457  0.2427  0.4368 -2.5219
  263SOL    HW2 1051   0.466   3.004   2.394 -2.3065 -2.8638  0.7951
  263SOL     MW 1052   0.408   3.006   2.457  0.0852 -0.2914 -0.0563
  264SOL     OW 1053   1.464   1.330   1.984  0.7144 -0.3123 -0.2428
  264SOL    HW1 1054   1.412   1.376   2.044  1.2624 -1.7932  1.5259
  264SOL    HW2 1055   1.548   1.345   2.032  0.0758  1.3102  1.4059
  264SOL     MW 1056   1.468   1.338   1.998  0.7025 -0.2936  0.2081
  265SOL     OW 1057   0.752   2.757   2.204 -0.0452 -0.4256 -0.1803
  265SOL    HW1 1058   0.784   2.669   2.180  0.0355  1.5521 -0.4163
  265SOL    HW2 1059   0.716   2.754   2.296  1.4083  0.7237  2.3717
  265SOL     MW 1060   0.752   2.745   2.213  0.1572 -0.0130  0.1253
  266SOL     OW 1061   0.880   0.790   2.284  0.2205  0.6116 -0.0298
  266SOL    HW1 1062   0.900   0.746   2.206  0.8306  1.2399  1.5226
  266SOL    HW2 1063   0.867   0.719   2.346 -0.0166 -1.0468 -1.1874
  266SOL     MW 1064   0.881   0.775   2.282  0.2697  0.4757  0.0223
  267SOL     OW 1065   1.381   1.807   2.690  0.0015  0.5369 -0.1052
  267SOL    HW1 1066   1.441   1.731   2.667  0.8421 -0.8818 -3.7638
  267SOL    HW2 1067   1.301   1.792   2.650  2.0260 -1.2720 -0.2265
  267SOL     MW 1068   1.379   1.795   2.682  0.3795  0.1111 -0.6039
  268SOL     OW 1069   0.194   0.769   1.666 -0.0176 -0.3413 -0.4147
  268SOL    HW1 1070   0.155   0.846   1.614  0.0491  2.8756  0.2498
  268SOL    HW2 1071   0.169   0.679   1.626 -1.3539 -1.0883 -0.0493
  268SOL     MW 1072   0.186   0.767   1.654 -0.1851 -0.0154 -0.2788
  269SOL     OW 1073   1.369   1.950   2.448  0.6728 -0.1756 -0.1532
  269SOL    HW1 1074   1.396   1.897   2.522  1.4812  1.8611 -0.2900
  269SOL    HW2 1075   1.299   2.008   2.479  1.0244 -0.0949 -1.7981
  269SOL     MW 1076   1.363   1.951   2.462  0.8258  0.1038 -0.3883
  270SOL     OW 1077   1.199   0.489   1.649 -0.0058  0.1345 -0.2534
  270SOL    HW1 1078   1.164   0.403   1.668 -0.9078 -0.3821 -0.1328
  270SOL    HW2 1079   1.293   0.462   1.614  0.1718 -0.8121  0.1857
  270SOL     MW 1080   1.207   0.474   1.647 -0.1014 -0.0585 -0.1795
  271SOL     OW 1081   0.911   0.014   2.472 -0.0388 -0.0226 -0.6308
  271SOL    HW1 1082   0.990  -0.038   2.475  0.8473 -1.4502  0.1937
  271SOL    HW2 1083   0.940   0.094   2.422 -1.7471  0.4326  1.8468
  271SOL     MW 1084   0.925   0.018   2.466 -0.1472 -0.1509 -0.1951
  272SOL     OW 1085   1.357   2.995   2.772  0.1710  0.4861 -0.0564
  272SOL    HW1 1086   1.318   3.040   2.691  0.3422 -2.0259  2.2153
  272SOL    HW2 1087   1.350   3.074   2.836 -0.5004 -0.2486 -0.4939
  272SOL     MW 1088   1.351   3.011   2.770  0.1050  0.0577  0.1856
  273SOL     OW 1089   1.431   0.930   2.791  0.2010  0.1298 -0.1727
  273SOL    HW1 1090   1.518   0.957   2.756 -0.3160  2.6526 -0.6144
  273SOL    HW2 1091   1.405   1.010   2.843  1.8082 -0.3102 -2.1915
  273SOL     MW 1092   1.439   0.944   2.794  0.3448  0.4046 -0.4973
  274SOL     OW 1093   1.358   0.720   0.121  0.0128  0.0518  0.0239
  274SOL    HW1 1094   1.372   0.633   0.149  1.6420  0.2925 -0.0362
  274SOL    HW2 1095   1.268   0.734   0.157  1.8032 -1.4940  0.5666
  274SOL     MW 1096   1.348   0.711   0.129  0.4640 -0.1204  0.0875
  275SOL     OW 1097   1.677   0.630   1.769  0.1034  0.9955 -0.0605
  275SOL    HW1 1098   1.725   0.659   1.851 -0.8322  1.3851 -0.2511
  275SOL    HW2 1099   1.698   0.532   1.758 -0.3462 -1.1002 -2.1773
  275SOL     MW 1100   1.686   0.621   1.779 -0.0794  0.7704 -0.3650
  276SOL     OW 1101   0.163   1.179   1.827  0.6516 -0.1670 -0.3157
  276SOL    HW1 1102   0.219   1.099   1.851  2.1407  0.0935  2.1199
  276SOL    HW2 1103   0.071   1.146   1.833  1.8602  2.0194  2.3253
  276SOL     MW 1104   0.158   1.164   1.831  1.0076  0.1558  0.3541
  277SOL     OW 1105   1.901   1.369   2.728 -0.0094  0.2987  0.4365
  277SOL    HW1 1106   1.919   1.452   2.692  0.2099  0.5518 -1.2086
  277SOL    HW2 1107   1.950   1.302   2.692 -1.4416 -1.0183  0.7674
  277SOL     MW 1108   1.910   1.371   2.718 -0.1694  0.1583  0.2631
  278SOL     OW 1109   1.417   0.731   1.759  0.8652  0.2154 -0.0117
  278SOL    HW1 1110   1.377   0.655   1.811 -3.8178  0.7073  0.0725
  278SOL    HW2 1111   1.511   0.724   1.781 -0.4551  0.8367 -1.4872
  278SOL     MW 1112   1.424   0.720   1.769  0.0731  0.3623 -0.1952
  279SOL     OW 1113   0.587   3.032   2.264 -0.7282  0.3563  0.2964
  279SOL    HW1 1114   0.668   2.982   2.253  0.2047  1.2252 -3.5471
  279SOL    HW2 1115   0.617   3.126   2.262 -2.2254  0.1275  0.7064
  279SOL     MW 1116   0.602   3.038   2.262 -0.8026  0.4407 -0.1566
  280SOL     OW 1117   1.426   1.163   2.260 -0.0101  0.1454 -0.8388
  280SOL    HW1 1118   1.465   1.113   2.191 -1.0584  1.7779  1.2197
  280SOL    HW2 1119   1.430   1.106   2.338  0.0138  0.1272 -1.0434
  280SOL     MW 1120   1.432   1.149   2.261 -0.1452  0.3584 -0.5942
  281SOL     OW 1121   1.325   1.360   2.754 -0.0012  0.3905  0.8040
  281SOL    HW1 1122   1.412   1.393   2.781  0.1945  1.6554  3.1664
  281SOL    HW2 1123   1.322   1.282   2.814  1.8109 -0.3464  2.2703
  281SOL     MW 1124   1.336   1.354   2.766  0.2637  0.4601  1.3092
  282SOL     OW 1125   1.153   1.333   1.728 -0.3447 -0.1085 -0.0178
  282SOL    HW1 1126   1.101   1.370   1.657 -1.9691 -0.0477  3.9682
  282SOL    HW2 1127   1.091   1.265   1.761  0.0911 -0.2093 -1.4441
  282SOL     MW 1128   1.138   1.329   1.723 -0.5015 -0.1138  0.3199
  283SOL     OW 1129   0.708   1.198   0.086 -0.1149 -0.2430  0.1386
  283SOL    HW1 1130   0.807   1.181   0.075  1.6535 -0.3334 -2.3291
  283SOL    HW2 1131   0.714   1.292   0.069 -3.0777 -1.0183 -0.6543
  283SOL     MW 1132   0.722   1.208   0.082 -0.2725 -0.3572 -0.2916
  284SOL     OW 1133   0.458   0.617   2.364 -0.2641 -0.5766  0.1356
  284SOL    HW1 1134   0.499   0.692   2.312  0.5240 -0.7336  0.4330
  284SOL    HW2 1135   0.464   0.540   2.311 -1.5783  1.1330 -1.6447
  284SOL     MW 1136   0.464   0.617   2.350 -0.3335 -0.3718 -0.0601
  285SOL     OW 1137   0.850   0.915   2.784  0.2594 -0.5778 -0.1653
  285SOL    HW1 1138   0.819   0.955   2.701 -1.8742 -1.6524  0.0328
  285SOL    HW2 1139   0.787   0.844   2.794  2.8049  2.9232 -2.2058
  285SOL     MW 1140   0.838   0.911   2.774  0.3137 -0.2576 -0.4084
  286SOL     OW 1141   1.134   1.466   2.578  0.3280 -0.0393  0.1168
  286SOL    HW1 1142   1.205   1.442   2.645  1.8482 -2.8221  0.9031
  286SOL    HW2 1143   1.152   1.564   2.561 -1.5213  0.1565  1.0893
  286SOL     MW 1144   1.146   1.475   2.584  0.2846 -0.3806  0.3489
  287SOL     OW 1145   1.103   0.949   0.385  0.0309  0.1170  0.1460
  287SOL    HW1 1146   1.151   0.980   0.463  1.1057 -0.8098 -1.8146
  287SOL    HW2 1147   1.042   1.028   0.370  1.4080  0.5915  0.4180
  287SOL     MW 1148   1.101   0.964   0.393  0.3544  0.0574 -0.0768
  288SOL     OW 1149   1.470   0.655   2.141  0.0240  0.8813  0.6607
  288SOL    HW1 1150   1.470   0.629   2.238 -0.3022 -0.9998  1.9233
  288SOL    HW2 1151   1.481   0.753   2.141  0.6376  0.8678 -1.0290
  288SOL     MW 1152   1.471   0.665   2.154  0.0619  0.6313  0.6043
  289SOL     OW 1153   0.786   0.981   2.527  0.7446  0.8041  0.1485
  289SOL    HW1 1154   0.858   0.994   2.460  0.3370  3.8623 -4.5450
  289SOL    HW2 1155   0.695   0.986   2.490 -3.9246  1.2496 -1.5606
  289SOL     MW 1156   0.784   0.984   2.513  0.0748  1.2664 -0.6962
  290SOL     OW 1157   0.845   0.704   1.561 -0.4442  0.5939 -0.2776
  290SOL    HW1 1158   0.901   0.633   1.525  1.3566  0.3936  0.5945
  290SOL    HW2 1159   0.900   0.716   1.639  0.0176 -1.8686  0.3891
  290SOL     MW 1160   0.860   0.696   1.567 -0.1456  0.2426 -0.0746
  291SOL     OW 1161   0.262   0.372   0.219  0.0233  0.1595 -0.4085
  291SOL    HW1 1162   0.351   0.338   0.210 -2.8375 -0.1116 -0.1776
  291SOL    HW2 1163   0.204   0.302   0.194 -0.9945  1.4391 -0.0967
  291SOL     MW 1164   0.266   0.359   0.215 -0.4884  0.2925 -0.3369
  292SOL     OW 1165   0.918   0.544   0.093  0.4718  0.2636  0.2810
  292SOL    HW1 1166   0.942   0.627   0.132 -0.3608 -0.5561 -0.5564
  292SOL    HW2 1167   0.991   0.490   0.122 -0.6122  1.2823  2.0912
  292SOL     MW 1168   0.930   0.548   0.102  0.2189  0.2898  0.4093
  293SOL     OW 1169   0.235   0.111   2.429  0.3982 -0.4469  0.6180
  293SOL    HW1 1170   0.149   0.068   2.413 -0.0132 -0.3991 -0.0870
  293SOL    HW2 1171   0.252   0.115   2.523  1.3882  0.4048  2.7072
  293SOL     MW 1172   0.226   0.106   2.439  0.4746 -0.3282  0.8006
  294SOL     OW 1173   1.439   0.598   2.410  0.1441 -0.1742  0.0515
  294SOL    HW1 1174   1.480   0.675   2.456 -1.9865 -1.6448  3.6390
  294SOL    HW2 1175   1.463   0.515   2.454  0.5465  2.6166  0.3856
  294SOL     MW 1176   1.448   0.597   2.422 -0.0839 -0.0000  0.5689
  295SOL     OW 1177   0.797   0.583   2.458 -0.7707 -0.2202  1.3807
  295SOL    HW1 1178   0.755   0.498   2.458  0.4221 -2.0113 -3.7223
  295SOL    HW2 1179   0.800   0.613   2.542  2.0043  0.9564 -1.8261
  295SOL     MW 1180   0.792   0.576   2.469 -0.2472 -0.3013  0.2843
  296SOL     OW 1181   1.257   0.280   2.048 -0.5140  0.1261  0.1025
  296SOL    HW1 1182   1.333   0.243   2.006 -1.1311 -2.9695  3.8145
  296SOL    HW2 1183   1.261   0.248   2.138  2.1957  0.2838  1.8259
  296SOL     MW 1184   1.268   0.271   2.055 -0.2379 -0.2615  0.8196
  297SOL     OW 1185   1.442   0.442   1.536  0.0611 -0.1737 -0.1494
  297SOL    HW1 1186   1.469   0.532   1.533 -0.1402 -1.3272 -0.4451
  297SOL    HW2 1187   1.514   0.382   1.559 -1.2864  3.1589 -0.6203
  297SOL     MW 1188   1.455   0.446   1.539 -0.1432  0.1138 -0.2505
  298SOL     OW 1189   1.507   0.960   2.106 -0.0668  0.0941 -0.1798
  298SOL    HW1 1190   1.484   0.998   2.021  0.2281 -0.7629  0.3693
  298SOL    HW2 1191   1.602   0.960   2.126  0.7258 -1.0252 -0.2064
  298SOL     MW 1192   1.517   0.965   2.097  0.0767 -0.1667 -0.1109
  299SOL     OW 1193   0.557   0.996   3.017 -1.0190 -0.1474 -0.9509
  299SOL    HW1 1194   0.595   1.067   3.076 -0.9662  0.6005  3.6554
  299SOL    HW2 1195   0.547   1.027   2.931  2.0635  0.1989  3.1849
  299SOL     MW 1196   0.561   1.009   3.013 -0.6053 -0.0031  0.2026
  300SOL     OW 1197   1.179   1.040   2.554 -0.5838  0.2220  0.0685
  300SOL    HW1 1198   1.111   1.044   2.487  3.1534  0.3473  0.8825
  300SOL    HW2 1199   1.178   0.954   2.591  0.4728 -0.4420 -0.9488
  300SOL     MW 1200   1.170   1.029   2.550  0.0487  0.1510  0.0417
  301SOL     OW 1201   1.379   0.722   0.534  0.3716  0.3227  0.3273
  301SOL    HW1 1202   1.396   0.689   0.626 -0.8367 -2.9876  1.2687
  301SOL    HW2 1203   1.315   0.660   0.490  2.3036  0.3804  1.0839
  301SOL     MW 1204   1.373   0.710   0.540  0.4671 -0.1065  0.5514
  302SOL     OW 1205   0.136   1.490   1.978  0.2125  0.7695 -0.7410
  302SOL    HW1 1206   0.153   1.422   2.046  3.2880  1.4019 -0.0957
  302SOL    HW2 1207   0.059   1.540   2.013  0.7182 -0.3712  0.4803
  302SOL     MW 1208   0.128   1.487   1.991  0.6850  0.7024 -0.4947
  303SOL     OW 1209   0.446   1.817   2.671 -0.8475  0.3504 -0.0488
  303SOL    HW1 1210   0.453   1.823   2.573  1.1107 -0.9859 -0.8424
  303SOL    HW2 1211   0.351   1.822   2.672 -0.9963  1.6300  0.3363
  303SOL     MW 1212   0.435   1.818   2.658 -0.6088  0.3429 -0.1027
  304SOL     OW 1213   0.510   1.959   2.422  0.6714  0.4607 -0.3974
  304SOL    HW1 1214   0.516   2.026   2.354 -1.0196 -0.4310  0.3276
  304SOL    HW2 1215   0.588   1.908   2.416  0.1413 -0.6177  3.2433
  304SOL     MW 1216   0.521   1.961   2.412  0.3783  0.2008  0.1786
  305SOL     OW 1217   1.184   0.542   0.457  0.3597 -0.3432 -0.2409
  305SOL    HW1 1218   1.103   0.524   0.497 -2.2141 -0.8171  0.1012
  305SOL    HW2 1219   1.214   0.450   0.450  0.4638  1.3188 -0.6409
  305SOL     MW 1220   1.177   0.528   0.462  0.0339 -0.1865 -0.2485
  306SOL     OW 1221   1.218   1.437   0.271 -0.1294 -0.2394  0.1029
  306SOL    HW1 1222   1.220   1.341   0.285  0.7968 -2.3880 -0.9154
  306SOL    HW2 1223   1.297   1.458   0.212  0.2692 -0.8602  0.9109
  306SOL     MW 1224   1.229   1.427   0.265  0.0454 -0.6048  0.0752
  307SOL     OW 1225   1.314   0.538   1.953  0.1670  0.3231  0.0470
  307SOL    HW1 1226   1.306   0.445   1.981  1.0374  0.3631  3.7595
  307SOL    HW2 1227   1.356   0.583   2.025 -0.3355  1.0151  1.2284
  307SOL     MW 1228   1.319   0.532   1.966  0.2155  0.4197  0.6927
  308SOL     OW 1229   2.131   0.563   2.763  0.4363  0.0364  0.1877
  308SOL    HW1 1230   2.106   0.469   2.721  0.9995 -0.7858 -0.5408
  308SOL    HW2 1231   2.226   0.565   2.789 -0.4204 -0.0850  0.7760
  308SOL     MW 1232   2.140   0.551   2.761  0.3976 -0.0881  0.1692
  309SOL     OW 1233   0.529   0.502   0.368 -0.2892  0.3727 -0.0211
  309SOL    HW1 1234   0.571   0.425   0.411 -0.9877 -0.3290 -1.1794
  309SOL    HW2 1235   0.573   0.508   0.283 -1.6930 -1.2331  1.5084
  309SOL     MW 1236   0.541   0.493   0.363 -0.5666  0.0683  0.0279
  310SOL     OW 1237   0.401   0.519   1.900 -0.1563  0.1778  0.1291
  310SOL    HW1 1238   0.443   0.444   1.853  3.2319 -0.7672 -1.1672
  310SOL    HW2 1239   0.479   0.572   1.899  1.9837 -1.0428  0.0192
  310SOL     MW 1240   0.417   0.516   1.893  0.5731 -0.1079 -0.0564
  311SOL     OW 1241   1.822   0.778   1.933 -0.0060 -0.7036  0.4703
  311SOL    HW1 1242   1.802   0.795   2.025  1.0243 -0.0796 -0.3311
  311SOL    HW2 1243   1.889   0.719   1.935 -2.1079  1.0066 -0.1848
  311SOL     MW 1244   1.828   0.772   1.945 -0.1474 -0.3956  0.2781
  312SOL     OW 1245   1.755   2.650  -0.002 -0.3039 -0.4380 -0.6094
  312SOL    HW1 1246   1.783   2.623   0.085 -0.9735 -1.8560 -0.3863
  312SOL    HW2 1247   1.661   2.640  -0.002  2.7312  0.3776  2.3640
  312SOL     MW 1248   1.746   2.645   0.009  0.0082 -0.5175 -0.1877
  313SOL     OW 1249   0.144   1.174   2.901 -0.1796  0.3895  0.5923
  313SOL    HW1 1250   0.218   1.187   2.964 -1.6647 -1.6306  0.7612
  313SOL    HW2 1251   0.168   1.193   2.807  0.3807  2.0010 -0.2426
  313SOL     MW 1252   0.157   1.178   2.897 -0.3016  0.3356  0.5044
  314SOL     OW 1253   2.134   3.031   2.982  0.0274  0.4467 -0.1373
  314SOL    HW1 1254   2.080   3.098   2.936  0.8764  0.3448  0.4155
  314SOL    HW2 1255   2.190   3.093   3.042  2.1039  3.4281  2.6325
  314SOL     MW 1256   2.134   3.048   2.984  0.4134  0.8267  0.3011
  315SOL     OW 1257   1.572   1.992   3.010 -0.1972  0.0648 -0.1205
  315SOL    HW1 1258   1.478   2.008   3.040 -0.5073 -0.0754 -1.6466
  315SOL    HW2 1259   1.592   2.030   2.925 -0.0120 -0.1975  3.2360
  315SOL     MW 1260   1.562   1.999   3.003 -0.2136  0.0117  0.1210
  316SOL     OW 1261   1.210   0.614   2.712  0.1622  0.1780 -0.5763
  316SOL    HW1 1262   1.295   0.610   2.667  0.6362  2.3996  0.3667
  316SOL    HW2 1263   1.229   0.677   2.785 -0.8491  2.9512  0.2264
  316SOL     MW 1264   1.224   0.622   2.716  0.0913  0.8370 -0.3460
  317SOL     OW 1265   0.679   1.349   2.604 -0.1721 -0.0955 -0.4238
  317SOL    HW1 1266   0.704   1.322   2.690 -1.2132 -2.8749 -3.2449
  317SOL    HW2 1267   0.765   1.332   2.553  1.1219  1.7151 -2.0525
  317SOL     MW 1268   0.694   1.344   2.608 -0.1387 -0.2234 -1.0109
  318SOL     OW 1269   1.303   0.444   2.956 -0.4752 -0.2528 -0.4334
  318SOL    HW1 1270   1.223   0.471   2.915  0.7868 -0.8234 -0.3089
  318SOL    HW2 1271   1.369   0.503   2.909 -1.7279  0.4017 -1.9109
  318SOL     MW 1272   1.301   0.455   2.944 -0.4740 -0.2417 -0.6119
  319SOL     OW 1273   0.778   0.417   2.745 -0.4841  0.1849 -0.1435
  319SOL    HW1 1274   0.706   0.410   2.685 -1.3505  1.3528  0.1103
  319SOL    HW2 1275   0.746   0.374   2.824  1.1733 -3.0374 -1.2469
  319SOL     MW 1276   0.764   0.410   2.747 -0.3797 -0.0862 -0.2556
  320SOL     OW 1277   1.001   1.317   2.043 -0.2122 -0.2243 -0.5413
  320SOL    HW1 1278   1.054   1.256   2.091 -1.7422 -0.8306  1.0603
  320SOL    HW2 1279   1.063   1.384   2.020  0.1927 -0.8599  0.1919
  320SOL     MW 1280   1.016   1.318   2.046 -0.3607 -0.3881 -0.2332
  321SOL     OW 1281   1.067   0.993   2.975  0.6372  0.2771  0.3583
  321SOL    HW1 1282   0.991   0.972   2.903  1.9336 -2.2504  0.3908
  321SOL    HW2 1283   1.122   0.912   2.976  2.7444 -0.6041 -0.1570
  321SOL     MW 1284   1.064   0.980   2.965  1.0863 -0.1727  0.2946
  322SOL     OW 1285   1.215   0.917   1.706  0.5941  0.0606 -0.1154
  322SOL    HW1 1286   1.293   0.856   1.720  0.9498 -0.0755  0.2233
  322SOL    HW2 1287   1.181   0.940   1.792  1.4726 -0.4873  1.1244
  322SOL     MW 1288   1.221   0.912   1.719  0.7569 -0.0297  0.0929
  323SOL     OW 1289   1.176   1.518   1.920  0.5247  0.0637 -0.0149
  323SOL    HW1 1290   1.195   1.432   1.871 -1.9632  0.9537  0.8154
  323SOL    HW2 1291   1.111   1.570   1.874  1.0623 -0.0641 -0.7642
  323SOL     MW 1292   1.170   1.513   1.907  0.2674  0.1643 -0.0042
  324SOL     OW 1293   1.482   1.062   2.556  0.1696  0.1394 -0.3089
  324SOL    HW1 1294   1.392   1.068   2.566  3.9707  1.5631 -3.4254
  324SOL    HW2 1295   1.504   1.155   2.554  0.6055 -0.2582 -0.6814
  324SOL     MW 1296   1.473   1.075   2.557  0.7286  0.2748 -0.7693
  325SOL     OW 1297   0.990   0.440   2.921  0.0103  0.0732 -0.4522
  325SOL    HW1 1298   0.955   0.481   3.011 -2.8042  1.3109 -0.4700
  325SOL    HW2 1299   0.917   0.447   2.854 -0.7229 -0.5288 -0.4449
  325SOL     MW 1300   0.975   0.446   2.924 -0.4578  0.1570 -0.4536
  326SOL     OW 1301   0.418   1.331   2.167 -0.4944  0.2212  0.3394
  326SOL    HW1 1302   0.453   1.284   2.089 -1.6201  2.6287 -0.5406
  326SOL    HW2 1303   0.420   1.420   2.138  1.8235 -0.3227 -1.0675
  326SOL     MW 1304   0.423   1.337   2.153 -0.3371  0.4671  0.0376
  327SOL     OW 1305   1.900   0.867   2.422  0.0409 -0.6323  0.0732
  327SOL    HW1 1306   1.908   0.800   2.489 -1.9679 -2.2244 -2.9375
  327SOL    HW2 1307   1.991   0.893   2.397 -1.8241 -0.2130  0.3772
  327SOL     MW 1308   1.913   0.861   2.428 -0.4702 -0.7870 -0.2840
  328SOL     OW 1309   0.123   1.237   2.160  0.4338  0.2922  0.5544
  328SOL    HW1 1310   0.130   1.179   2.082 -1.0224 -0.6639  2.8307
  328SOL    HW2 1311   0.209   1.257   2.198 -1.5031  1.4211 -1.1483
  328SOL     MW 1312   0.135   1.232   2.155 -0.0139  0.3150  0.6301
  329SOL     OW 1313   0.117   0.157   1.427 -0.0175  0.2235 -1.0001
  329SOL    HW1 1314   0.077   0.152   1.519  1.5582 -0.4135  1.3244
  329SOL    HW2 1315   0.179   0.228   1.434 -1.1621 -2.0627 -0.6159
  329SOL     MW 1316   0.120   0.165   1.440  0.0393 -0.1622 -0.6427
  330SOL     OW 1317   0.413   2.970   2.058  0.2944 -0.2035  0.5956
  330SOL    HW1 1318   0.474   3.013   2.122 -1.8870  0.5592  0.4628
  330SOL    HW2 1319   0.328   2.967   2.102  1.6179 -1.9095 -0.6908
  330SOL     MW 1320   0.410   2.975   2.072  0.1812 -0.3279  0.4083
  331SOL     OW 1321   0.734   1.184   2.205  0.1376  0.0164  0.4848
  331SOL    HW1 1322   0.669   1.171   2.130  0.4264 -4.7800  1.1437
  331SOL    HW2 1323   0.733   1.278   2.220  1.2899  0.0438  1.1175
  331SOL     MW 1324   0.725   1.194   2.197  0.3277 -0.6128  0.6552
  332SOL     OW 1325   1.351   1.760   2.962 -0.0448 -0.2136 -0.3154
  332SOL    HW1 1326   1.357   1.803   2.873  0.7817  4.2441 -1.2289
  332SOL    HW2 1327   1.433   1.793   2.996  1.9990 -1.8827 -2.2922
  332SOL     MW 1328   1.363   1.770   2.954  0.3339  0.1543 -0.6967
  333SOL     OW 1329   1.737   1.482   3.044 -0.1509  0.3152 -0.1251
  333SOL    HW1 1330   1.835   1.499   3.044  0.4838  4.7184 -0.4205
  333SOL    HW2 1331   1.714   1.402   3.096  0.1729 -1.5740 -1.2410
  333SOL     MW 1332   1.747   1.473   3.051 -0.0245  0.6469 -0.3113
  334SOL     OW 1333   1.190   0.015   2.599 -0.6426 -0.2949 -0.2867
  334SOL    HW1 1334   1.119   0.008   2.667 -0.7660 -0.1118  1.5672
  334SOL    HW2 1335   1.218   0.107   2.610  0.8995 -1.7429  0.6569
  334SOL     MW 1336   1.184   0.026   2.610 -0.4554 -0.4618  0.0824
  335SOL     OW 1337   1.255   0.782   2.938  0.1021 -0.3139  0.0916
  335SOL    HW1 1338   1.292   0.755   3.026 -0.9553  1.8097 -0.0819
  335SOL    HW2 1339   1.324   0.836   2.891  0.8169 -0.2914 -3.3526
  335SOL     MW 1340   1.269   0.785   2.944  0.0569 -0.0307 -0.3858
  336SOL     OW 1341   0.959   1.132   1.849 -0.5523 -0.8601  0.1370
  336SOL    HW1 1342   0.944   1.203   1.915  1.5037  0.3552  3.0014
  336SOL    HW2 1343   1.006   1.065   1.896 -1.3270  2.9638  1.0186
  336SOL     MW 1344   0.963   1.132   1.864 -0.3833 -0.1952  0.6313
  337SOL     OW 1345   0.652   1.764   2.849  0.0799 -0.1067 -0.3593
  337SOL    HW1 1346   0.587   1.752   2.779 -0.1796 -1.5635 -1.4691
  337SOL    HW2 1347   0.727   1.725   2.818 -1.5189 -1.5270  1.3804
  337SOL     MW 1348   0.653   1.757   2.835 -0.1652 -0.4863 -0.2762
  338SOL     OW 1349   1.049   0.814   2.600 -0.3270  0.3262 -0.3994
  338SOL    HW1 1350   0.971   0.845   2.657 -1.4801  1.7052  0.3132
  338SOL    HW2 1351   1.069   0.729   2.638  1.2024 -0.0711 -3.7051
  338SOL     MW 1352   1.042   0.807   2.613 -0.2773  0.4557 -0.7416
  339SOL     OW 1353   1.402   1.089   1.873 -0.1333  0.2400 -0.4092
  339SOL    HW1 1354   1.412   1.091   1.781  0.1805  1.3696  0.6655
  339SOL    HW2 1355   1.415   1.179   1.894  2.1372  2.5383  0.2341
  339SOL     MW 1356   1.405   1.101   1.864  0.2076  0.6923 -0.1825
  340SOL     OW 1357   1.386   1.511   0.067 -0.3447  0.3491  0.2184
  340SOL    HW1 1358   1.376   1.578   0.006  0.1668 -0.5050  1.6331
  340SOL    HW2 1359   1.471   1.527   0.110 -1.3505 -0.3283  2.1840
  340SOL     MW 1360   1.396   1.522   0.065 -0.4099  0.1470  0.6644
  341SOL     OW 1361   0.229   1.288   2.650  0.1387 -1.0934 -0.3795
  341SOL    HW1 1362   0.268   1.372   2.654 -2.2859  0.8365 -1.0255
  341SOL    HW2 1363   0.141   1.306   2.624  1.7964 -1.6598 -2.1208
  341SOL     MW 1364   0.223   1.301   2.647  0.0375 -0.9135 -0.6945
  342SOL     OW 1365   1.405   0.254   0.070 -0.0407  0.0284  0.3716
  342SOL    HW1 1366   1.450   0.311   0.131 -2.9488 -0.9742  1.1441
  342SOL    HW2 1367   1.389   0.324   0.010  0.8952  0.3102  1.9529
  342SOL     MW 1368   1.409   0.271   0.070 -0.3009 -0.0667  0.6821
  343SOL     OW 1369   0.244   0.300   2.251 -0.2232  0.1442  0.3691
  343SOL    HW1 1370   0.238   0.238   2.320 -0.3868  1.0700 -1.1293
  343SOL    HW2 1371   0.186   0.265   2.184  0.8238 -0.4975 -1.7190
  343SOL     MW 1372   0.236   0.287   2.251 -0.1067  0.1817 -0.1041
  344SOL     OW 1373   1.697   2.180   0.071 -0.1432  0.1641  0.0697
  344SOL    HW1 1374   1.755   2.227   0.003 -0.0873  1.4263  1.9145
  344SOL    HW2 1375   1.648   2.111   0.025 -1.1974 -1.9729  1.9355
  344SOL     MW 1376   1.698   2.177   0.056 -0.2749  0.0487  0.5592
  345SOL     OW 1377   0.644   1.560   2.353  0.1732  0.2078  0.3867
  345SOL    HW1 1378   0.553   1.566   2.316 -0.7863 -1.2948 -1.1348
  345SOL    HW2 1379   0.705   1.534   2.276  3.4020 -0.7875  1.6666
  345SOL     MW 1380   0.640   1.557   2.338  0.4726 -0.1218  0.3549
  346SOL     OW 1381   1.680   1.014   3.091 -0.3392  0.1815  0.6266
  346SOL    HW1 1382   1.772   0.992   3.110  0.2932 -1.5426 -1.8489
  346SOL    HW2 1383   1.637   0.965   3.159 -0.8628  0.3173 -1.6374
  346SOL     MW 1384   1.687   1.004   3.103 -0.3249 -0.0280  0.0012
  347SOL     OW 1385   1.147   0.666   2.339  0.6748 -0.4047  0.2030
  347SOL    HW1 1386   1.232   0.630   2.365  3.6396  1.6813  0.1501
  347SOL    HW2 1387   1.112   0.724   2.412 -2.5843  1.4785  2.7605
  347SOL     MW 1388   1.154   0.669   2.352  0.6359  0.1190  0.5335
  348SOL     OW 1389   1.307   2.654   1.884 -0.0504  0.6693  0.3637
  348SOL    HW1 1390   1.348   2.573   1.908  2.0385 -0.7644 -2.1258
  348SOL    HW2 1391   1.344   2.721   1.937 -1.1095  1.6252 -0.1516
  348SOL     MW 1392   1.317   2.652   1.894  0.0855  0.6063 -0.0327
  349SOL     OW 1393   1.315   0.249   2.682 -0.0672 -0.5711 -0.1505
  349SOL    HW1 1394   1.281   0.269   2.771  0.2697  0.4072  0.5194
  349SOL    HW2 1395   1.391   0.193   2.701  0.9739 -1.2759 -0.1061
  349SOL     MW 1396   1.320   0.244   2.696  0.1146 -0.5350 -0.0563
  350SOL     OW 1397   1.913   0.700   2.631 -0.3092 -0.0789  0.3415
  350SOL    HW1 1398   1.865   0.646   2.566 -0.3236  0.1681  1.0662
  350SOL    HW2 1399   1.986   0.638   2.643  0.5893 -0.5816  0.0047
  350SOL     MW 1400   1.916   0.685   2.624 -0.1925 -0.1126  0.3927
  351SOL     OW 1401   0.083   0.985   1.544 -0.1890  0.1453  0.3761
  351SOL    HW1 1402   0.013   1.018   1.606  0.2448  0.1756 -0.0373
  351SOL    HW2 1403   0.125   1.071   1.518 -3.6620  0.9020  0.3870
  351SOL     MW 1404   0.079   1.001   1.549 -0.5900  0.2492  0.3230
  352SOL     OW 1405   0.824   1.593   2.718  0.0313 -0.2295  0.5232
  352SOL    HW1 1406   0.880   1.558   2.787  0.8745  1.7064 -1.5290
  352SOL    HW2 1407   0.803   1.520   2.664  1.7062 -0.2637 -0.2093
  352SOL     MW 1408   0.828   1.579   2.720  0.3635  0.0214  0.1558
  353SOL     OW 1409   3.047   2.451   2.786  0.6508 -0.1211  0.0349
  353SOL    HW1 1410   3.131   2.426   2.761 -3.3175  0.5298  1.5106
  353SOL    HW2 1411   3.017   2.526   2.734  1.4686 -0.7377  1.4659
  353SOL     MW 1412   3.054   2.457   2.776  0.2351 -0.1166  0.4184
  354SOL     OW 1413   0.320   2.472   0.880  0.5974  0.0160 -0.0037
  354SOL    HW1 1414   0.363   2.454   0.970 -1.1415 -0.2215  3.8562
  354SOL    HW2 1415   0.234   2.425   0.879  0.7768  0.5870 -0.8734
  354SOL     MW 1416   0.314   2.464   0.892  0.3917  0.0600  0.3908
  355SOL     OW 1417   0.064   2.252   0.359  0.2707  0.7151  0.7789
  355SOL    HW1 1418  -0.011   2.194   0.361 -0.4063 -1.8922 -1.2988
  355SOL    HW2 1419   0.061   2.299   0.442  1.8801  0.7575  1.0736
  355SOL     MW 1420   0.053   2.251   0.370  0.3937  0.3767  0.5436
  356SOL     OW 1421   0.734   2.930   0.986 -0.1804  0.1127 -0.5377
  356SOL    HW1 1422   0.810   2.900   0.937 -0.1007  0.8863  1.3431
  356SOL    HW2 1423   0.664   2.866   0.964 -0.4443 -2.2558 -2.1772
  356SOL     MW 1424   0.735   2.917   0.976 -0.2047 -0.0977 -0.5059
  357SOL     OW 1425   1.769   3.002   0.383 -0.1499  0.1092 -0.2842
  357SOL    HW1 1426   1.736   2.921   0.429 -2.0853 -1.2900  0.3540
  357SOL    HW2 1427   1.858   2.978   0.362  2.7021 -1.8545 -0.5621
  357SOL     MW 1428   1.777   2.988   0.386 -0.0289 -0.3345 -0.2367
  358SOL     OW 1429   0.497   0.140   1.020  0.4092 -0.2686  0.3719
  358SOL    HW1 1430   0.579   0.121   0.979  2.1351  0.2462 -0.0251
  358SOL    HW2 1431   0.439   0.182   0.954 -0.3681 -0.0029  1.0009
  358SOL     MW 1432   0.500   0.143   1.005  0.5343 -0.1656  0.4025
  359SOL     OW 1433   0.900   2.734   1.926  0.5257 -0.3807 -0.3786
  359SOL    HW1 1434   0.859   2.689   2.009 -1.8120 -3.6244 -2.0478
  359SOL    HW2 1435   0.939   2.662   1.878  0.0407  1.1845  1.9933
  359SOL     MW 1436   0.900   2.719   1.931  0.1533 -0.6022 -0.2859
  360SOL     OW 1437   0.513   2.742   0.941 -0.3722 -0.6981 -0.4293
  360SOL    HW1 1438   0.538   2.674   0.879  1.3973  0.4047  3.2687
  360SOL    HW2 1439   0.543   2.702   1.025 -1.5869  1.3399 -0.5473
  360SOL     MW 1440   0.520   2.728   0.944 -0.2990 -0.2837  0.0430
  361SOL     OW 1441   0.178   2.733   1.372 -0.0697  0.6961  0.0326
  361SOL    HW1 1442   0.162   2.800   1.426 -1.6694 -1.9485  0.3639
  361SOL    HW2 1443   0.272   2.736   1.363  0.8654 -0.3054  2.8739
  361SOL     MW 1444   0.188   2.742   1.378 -0.1574  0.2150  0.4512
  362SOL     OW 1445   1.446   2.421   0.626 -0.1515 -0.5142  0.4287
  362SOL    HW1 1446   1.455   2.331   0.654  0.3259 -1.2133 -1.2955
  362SOL    HW2 1447   1.472   2.480   0.695 -0.8836 -0.3177 -1.7976
  362SOL     MW 1448   1.451   2.417   0.639 -0.1851 -0.5805 -0.0926
  363SOL     OW 1449   0.290   3.096   0.699  0.0002 -0.3163  0.0415
  363SOL    HW1 1450   0.309   3.021   0.768  1.8251 -2.6874  2.5516
  363SOL    HW2 1451   0.197   3.078   0.679  0.6407  1.4145 -2.3082
  363SOL     MW 1452   0.280   3.084   0.705  0.3255 -0.4007  0.0627
  364SOL     OW 1453   0.758   0.156   0.244  0.2944 -0.4221 -0.0726
  364SOL    HW1 1454   0.722   0.069   0.272 -0.8407  0.3708 -0.4267
  364SOL    HW2 1455   0.696   0.186   0.180 -0.4398 -3.3698 -1.0727
  364SOL     MW 1456   0.745   0.148   0.240  0.0478 -0.7064 -0.2512
  365SOL     OW 1457   1.038   2.006   1.142  0.0910  0.1576 -0.0410
  365SOL    HW1 1458   1.016   2.080   1.091  0.4564  1.4483 -0.8168
  365SOL    HW2 1459   0.981   1.946   1.091  0.1658 -4.4889  1.1868
  365SOL     MW 1460   1.028   2.008   1.129  0.1491 -0.2852  0.0186
  366SOL     OW 1461   2.857   2.617   0.989  0.1182 -0.1121 -0.0605
  366SOL    HW1 1462   2.929   2.626   1.047 -3.1770  0.6904 -2.6409
  366SOL    HW2 1463   2.877   2.673   0.912  1.0897  0.0387 -1.1263
  366SOL     MW 1464   2.869   2.626   0.986 -0.1884  0.0137 -0.5416
  367SOL     OW 1465   1.244   2.938   0.826 -0.1096  0.1127  0.4183
  367SOL    HW1 1466   1.166   2.991   0.827  0.3532  2.2602  3.3617
  367SOL    HW2 1467   1.228   2.864   0.764 -1.6688  2.3615  2.6110
  367SOL     MW 1468   1.231   2.935   0.818 -0.2543  0.6928  1.0960
  368SOL     OW 1469   1.722   0.468   0.664 -0.6514 -0.1618 -0.4357
  368SOL    HW1 1470   1.792   0.402   0.666 -1.2285 -1.3501  1.6229
  368SOL    HW2 1471   1.765   0.549   0.668  3.5867  0.7725 -1.4411
  368SOL     MW 1472   1.737   0.470   0.664 -0.1684 -0.1953 -0.2967
  369SOL     OW 1473   0.129   2.453   1.739  0.0491 -0.2653  0.6819
  369SOL    HW1 1474   0.219   2.420   1.758  0.7747 -1.4965 -0.9006
  369SOL    HW2 1475   0.109   2.540   1.785  0.2000 -1.2498 -0.8226
  369SOL     MW 1476   0.138   2.461   1.747  0.1647 -0.5577  0.2746
  370SOL     OW 1477   0.737   0.085   0.867 -0.1571  0.1961 -0.5768
  370SOL    HW1 1478   0.789   0.161   0.899  1.5173 -0.6352 -1.1628
  370SOL    HW2 1479   0.755   0.006   0.928 -0.9255  1.1530 -0.0808
  370SOL     MW 1480   0.746   0.085   0.879 -0.0375  0.2127 -0.5887
  371SOL     OW 1481   1.386   2.981   1.445  0.2468  0.6778  0.5104
  371SOL    HW1 1482   1.316   2.913   1.424  0.0238 -4.6791 -2.4423
  371SOL    HW2 1483   1.412   3.015   1.357 -1.3638 -2.3174 -0.5475
  371SOL     MW 1484   1.380   2.977   1.430  0.0049 -0.4242 -0.0187
  372SOL     OW 1485   0.771   2.297   0.466  0.1012 -0.0379 -0.0189
  372SOL    HW1 1486   0.746   2.213   0.498  1.4158 -0.2716 -2.8749
  372SOL    HW2 1487   0.776   2.304   0.370 -2.2651 -1.5288  0.5841
  372SOL     MW 1488   0.768   2.287   0.458 -0.0376 -0.2655 -0.3162
  373SOL     OW 1489   2.825   2.970   1.427 -0.3414  0.5831 -0.7237
  373SOL    HW1 1490   2.885   2.962   1.346  1.3743 -2.1963 -3.2085
  373SOL    HW2 1491   2.787   3.055   1.400  0.1628 -0.8272 -1.6020
  373SOL     MW 1492   2.828   2.980   1.412 -0.0485  0.0303 -1.1674
  374SOL     OW 1493   1.516   0.473   0.212 -0.5719  0.5060  0.7223
  374SOL    HW1 1494   1.583   0.510   0.160 -0.1209  0.4262 -1.8012
  374SOL    HW2 1495   1.558   0.412   0.274  0.3335 -2.2877  2.5704
  374SOL     MW 1496   1.530   0.470   0.213 -0.3930  0.1269  0.6332
  375SOL     OW 1497   1.108   2.108   2.252  0.2683  0.2286 -0.1761
  375SOL    HW1 1498   1.141   2.159   2.325  1.7045 -0.4064  0.3147
  375SOL    HW2 1499   1.110   2.015   2.268  1.3375 -0.6825 -0.9561
  375SOL     MW 1500   1.112   2.102   2.264  0.5989  0.0246 -0.2143
  376SOL     OW 1501   0.658   2.539   0.131 -0.1743  0.2286  0.5839
  376SOL    HW1 1502   0.712   2.495   0.193 -0.7122 -0.0074 -0.2800
  376SOL    HW2 1503   0.627   2.465   0.072  1.7597 -1.0461 -1.9610
  376SOL     MW 1504   0.661   2.523   0.131  0.0099  0.0293  0.1341
  377SOL     OW 1505   1.296   2.047   0.904  0.0606  0.5388 -0.2451
  377SOL    HW1 1506   1.217   2.024   0.855  0.5334 -0.1893 -1.2825
  377SOL    HW2 1507   1.306   1.973   0.959 -3.7262  2.9773 -0.2260
  377SOL     MW 1508   1.287   2.034   0.905 -0.3767  0.7645 -0.3795
  378SOL     OW 1509   0.984   2.863   1.492  0.3415 -0.2547  0.2578
  378SOL    HW1 1510   0.944   2.781   1.526  2.1037 -0.7814  1.2543
  378SOL    HW2 1511   0.944   2.871   1.404 -0.8733  0.1939 -1.1476
  378SOL     MW 1512   0.974   2.853   1.485  0.4137 -0.2650  0.2038
  379SOL     OW 1513   1.062   1.837   2.260 -0.4910 -0.3865  0.0926
  379SOL    HW1 1514   0.968   1.812   2.259 -1.2132  1.4989 -0.5011
  379SOL    HW2 1515   1.099   1.759   2.210 -0.3312 -0.6746  1.7982
  379SOL     MW 1516   1.055   1.824   2.253 -0.5652 -0.1758  0.2393
  380SOL     OW 1517   0.926   0.219   1.468 -0.3155  0.2870 -0.2801
  380SOL    HW1 1518   0.951   0.159   1.403  1.5453  1.5181  1.6089
  380SOL    HW2 1519   0.985   0.210   1.541  1.1898  1.3721 -0.1550
  380SOL     MW 1520   0.937   0.210   1.469  0.1286  0.5926 -0.0144
  381SOL     OW 1521   0.838   1.994   0.820  0.5154  0.1739 -0.1237
  381SOL    HW1 1522   0.930   1.992   0.782 -1.4710 -0.3810 -0.0759
  381SOL    HW2 1523   0.856   2.082   0.867  1.4867  1.6616  0.0045
  381SOL     MW 1524   0.853   2.005   0.821  0.3814  0.2970 -0.1005
  382SOL     OW 1525   0.648   0.039   0.615  0.3127  0.0724  0.0646
  382SOL    HW1 1526   0.644   0.073   0.700 -2.8241  1.5731  1.0846
  382SOL    HW2 1527   0.663  -0.055   0.626  0.2764 -0.4381  1.8814
  382SOL     MW 1528   0.650   0.031   0.627 -0.1059  0.2031  0.4389
  383SOL     OW 1529   0.518   0.045   0.380  0.0828 -0.2593 -0.3194
  383SOL    HW1 1530   0.563   0.039   0.465  0.5230 -0.5576  0.0442
  383SOL    HW2 1531   0.436  -0.016   0.383 -1.9685 -1.2579 -2.7099
  383SOL     MW 1532   0.513   0.036   0.391 -0.1297 -0.4304 -0.5868
  384SOL     OW 1533   0.643   2.838   0.546 -0.4054 -0.0037  0.3456
  384SOL    HW1 1534   0.627   2.760   0.602 -1.3851 -1.5432 -1.2087
  384SOL    HW2 1535   0.547   2.868   0.531 -1.5471 -0.4949 -0.2915
  384SOL     MW 1536   0.628   2.831   0.551 -0.6853 -0.2716  0.0565
  385SOL     OW 1537   1.341   2.045   1.559 -0.1134  0.4480  0.1978
  385SOL    HW1 1538   1.387   2.084   1.633  1.3277 -0.3986 -2.1342
  385SOL    HW2 1539   1.310   1.957   1.599  1.9545 -1.2895 -2.6406
  385SOL     MW 1540   1.343   2.038   1.574  0.3495  0.1070 -0.4844
  386SOL     OW 1541   1.265   0.416   0.935 -0.0735  0.2748  0.3963
  386SOL    HW1 1542   1.181   0.377   0.894 -1.6200  1.7412  0.5860
  386SOL    HW2 1543   1.246   0.409   1.028  0.8561 -0.3660 -0.0301
  386SOL     MW 1544   1.252   0.409   0.942 -0.1549  0.3837  0.3651
  387SOL     OW 1545   0.856   2.222   1.469 -0.1992 -0.1251 -0.4803
  387SOL    HW1 1546   0.912   2.294   1.437  1.0954  2.6480 -0.2545
  387SOL    HW2 1547   0.904   2.142   1.449  0.2391  1.8069  0.1766
  387SOL     MW 1548   0.870   2.221   1.462  0.0294  0.4957 -0.3638
  388SOL     OW 1549   1.580   2.845   1.235 -0.5136  0.0292 -0.2285
  388SOL    HW1 1550   1.499   2.824   1.182  0.9121  0.2725 -2.4370
  388SOL    HW2 1551   1.650   2.784   1.194 -0.6118  0.3200  2.4159
  388SOL     MW 1552   1.579   2.834   1.223 -0.3384  0.0997 -0.1710
  389SOL     OW 1553   0.481   0.055   3.053 -0.8683  0.2076  0.7184
  389SOL    HW1 1554   0.574   0.035   3.020  0.5022  0.2019 -1.1160
  389SOL    HW2 1555   0.456  -0.028   3.096  1.3131  2.5032  1.5960
  389SOL     MW 1556   0.490   0.042   3.054 -0.3997  0.5097  0.5921
  390SOL     OW 1557   1.369   0.115   0.653 -0.6317 -0.2712 -0.1449
  390SOL    HW1 1558   1.458   0.117   0.624  0.0281 -1.2583  0.4455
  390SOL    HW2 1559   1.361   0.126   0.748  1.5102  2.4982 -0.3024
  390SOL     MW 1560   1.380   0.117   0.662 -0.2621 -0.0361 -0.0878
  391SOL     OW 1561   0.293   2.277   1.461 -0.4657  0.5894 -0.2293
  391SOL    HW1 1562   0.254   2.218   1.524  2.0453  1.3583 -1.9530
  391SOL    HW2 1563   0.222   2.338   1.448  4.1023 -0.1168  0.9236
  391SOL     MW 1564   0.279   2.277   1.467  0.4683  0.5977 -0.3046
  392SOL     OW 1565   2.052   2.192   0.253 -0.5369 -0.5293  0.4167
  392SOL    HW1 1566   1.984   2.243   0.294  1.4705 -3.3915  1.9038
  392SOL    HW2 1567   2.071   2.120   0.308 -2.0118  1.5697 -0.7037
  392SOL     MW 1568   2.045   2.189   0.266 -0.4666 -0.6300  0.4651
  393SOL     OW 1569   0.189   2.993   2.931 -0.1233  0.6594  0.0684
  393SOL    HW1 1570   0.246   3.040   2.875 -1.9213 -2.3016  0.4573
  393SOL    HW2 1571   0.110   3.043   2.921  2.5871 -0.1643  0.2375
  393SOL     MW 1572   0.186   3.006   2.922 -0.0029  0.1600  0.1420
  394SOL     OW 1573   0.843   1.670   1.491 -0.3984  0.6041 -0.5561
  394SOL    HW1 1574   0.782   1.682   1.568 -2.6157 -0.2098  3.9147
  394SOL    HW2 1575   0.869   1.759   1.473 -0.7942 -3.6528  0.0142
  394SOL     MW 1576   0.838   1.684   1.498 -0.7432 -0.0649  0.1090
  395SOL     OW 1577   0.912   2.827   2.623  0.2535  0.3468  0.0239
  395SOL    HW1 1578   0.912   2.917   2.660 -0.0116  1.3769  1.6344
  395SOL    HW2 1579   1.011   2.807   2.601  1.8819 -0.8895 -1.5851
  395SOL     MW 1580   0.925   2.836   2.625  0.4334  0.3196  0.0241
  396SOL     OW 1581   0.751   1.815   2.370  0.0901  0.3894  0.3697
  396SOL    HW1 1582   0.814   1.816   2.451  0.8220  0.1115  3.0711
  396SOL    HW2 1583   0.717   1.726   2.373  0.6246  1.5194  0.3841
  396SOL     MW 1584   0.755   1.803   2.381  0.2572  0.5018  0.7280
  397SOL     OW 1585   1.039   2.347   1.274 -0.2279 -0.1059 -0.0597
  397SOL    HW1 1586   1.051   2.402   1.197  0.6477 -1.4747  1.2794
  397SOL    HW2 1587   1.122   2.345   1.319  2.1092  1.0148  0.4736
  397SOL     MW 1588   1.052   2.354   1.270  0.1960 -0.1386  0.1873
  398SOL     OW 1589   0.570   2.604   0.696 -0.1320  0.0321 -0.1097
  398SOL    HW1 1590   0.509   2.617   0.624  4.0340  1.1119  0.8057
  398SOL    HW2 1591   0.661   2.580   0.660  1.5626 -1.7273 -1.1015
  398SOL     MW 1592   0.574   2.603   0.682  0.6412 -0.0576 -0.1198
  399SOL     OW 1593   0.225   2.017   0.358  0.3966  0.5407 -0.3202
  399SOL    HW1 1594   0.174   2.096   0.352  0.0649 -1.7265  1.6644
  399SOL    HW2 1595   0.306   2.033   0.292  3.6244 -1.8925 -3.4552
  399SOL     MW 1596   0.229   2.030   0.349  0.7787 -0.0795 -0.4720
  400SOL     OW 1597   0.563   1.817   0.217  0.0564  0.1149 -0.3832
  400SOL    HW1 1598   0.504   1.894   0.231  0.3505  0.0209 -0.6825
  400SOL    HW2 1599   0.524   1.739   0.256  1.8469 -0.1862 -2.3231
  400SOL     MW 1600   0.550   1.817   0.224  0.3314  0.0628 -0.6786
  401SOL     OW 1601   1.005   2.113   0.113  0.2094 -0.1803 -0.4488
  401SOL    HW1 1602   0.974   2.023   0.125  1.3551  1.0855  2.4055
  401SOL    HW2 1603   1.056   2.129   0.189 -1.1430  0.3529 -2.7268
  401SOL     MW 1604   1.008   2.103   0.124  0.1821  0.0570 -0.3727
  402SOL     OW 1605   0.690   2.670   1.745 -0.3167  0.3530 -0.1726
  402SOL    HW1 1606   0.607   2.713   1.769  0.5843 -0.9802 -2.0979
  402SOL    HW2 1607   0.755   2.694   1.813 -2.9504  0.4264 -1.7805
  402SOL     MW 1608   0.688   2.679   1.757 -0.5453  0.1868 -0.6388
  403SOL     OW 1609   0.080   0.558   0.330 -0.1888  0.5446  0.2786
  403SOL    HW1 1610   0.138   0.561   0.405 -1.2151 -1.6876 -0.2735
  403SOL    HW2 1611   0.131   0.500   0.265  0.3732  1.5828  0.7176
  403SOL     MW 1612   0.094   0.550   0.331 -0.2500  0.3871  0.2637
  404SOL     OW 1613   0.962   2.894   0.872  0.2614  0.5287  0.3084
  404SOL    HW1 1614   1.029   2.828   0.847  0.2088  2.7047  0.1598
  404SOL    HW2 1615   0.957   2.957   0.802  1.0450 -0.2086  0.1354
  404SOL     MW 1616   0.970   2.893   0.859  0.3579  0.7185  0.2660
  405SOL     OW 1617   0.449   2.471   1.587 -0.1827 -0.6747 -0.2033
  405SOL    HW1 1618   0.456   2.557   1.536 -0.1441 -0.4422  0.8134
  405SOL    HW2 1619   0.394   2.419   1.540 -0.0408  2.0194  0.2367
  405SOL     MW 1620   0.442   2.475   1.574 -0.1589 -0.2886 -0.0111
  406SOL     OW 1621   0.394   2.399   1.142  0.6940  0.2993  0.6004
  406SOL    HW1 1622   0.303   2.418   1.166  1.8192  0.3881 -0.2987
  406SOL    HW2 1623   0.431   2.333   1.193 -1.8888  1.9451 -1.1506
  406SOL     MW 1624   0.387   2.393   1.152  0.5017  0.5281  0.2507
  407SOL     OW 1625   3.065   2.742   1.163 -0.0530 -0.0113 -0.0071
  407SOL    HW1 1626   3.121   2.720   1.241  0.2337 -0.6556  2.7037
  407SOL    HW2 1627   3.130   2.740   1.093 -0.0134 -0.2168 -0.2753
  407SOL     MW 1628   3.081   2.739   1.164 -0.0099 -0.1234  0.3152
  408SOL     OW 1629   2.102   2.026   0.500 -0.1558  0.7440  1.0032
  408SOL    HW1 1630   2.109   2.074   0.582  0.4752  0.9968  1.0565
  408SOL    HW2 1631   2.020   1.980   0.493 -0.3734 -2.7677 -1.3168
  408SOL     MW 1632   2.092   2.027   0.510 -0.1013  0.3141  0.7041
  409SOL     OW 1633   1.423   0.159   0.945 -0.1493  0.1640 -0.7609
  409SOL    HW1 1634   1.414   0.248   0.973  1.1474 -1.1717  3.6450
  409SOL    HW2 1635   1.516   0.129   0.935  2.3752  0.1557 -1.3042
  409SOL     MW 1636   1.434   0.167   0.947  0.3549 -0.0133 -0.2512
  410SOL     OW 1637   1.069   2.521   1.050 -0.1817 -0.1092 -0.2226
  410SOL    HW1 1638   0.988   2.519   0.994  1.3895  1.4423  0.1799
  410SOL    HW2 1639   1.136   2.475   1.000  2.7718  0.7580 -0.2418
  410SOL     MW 1640   1.067   2.514   1.036  0.4153  0.2099 -0.1720
  411SOL     OW 1641   1.935   0.086   2.877  0.0936  0.0771  0.1640
  411SOL    HW1 1642   1.885   0.042   2.810 -1.0213  0.4681  1.5546
  411SOL    HW2 1643   1.865   0.129   2.924 -0.5922 -3.0256 -2.3796
  411SOL     MW 1644   1.919   0.086   2.875 -0.1440 -0.2807  0.0119
  412SOL     OW 1645   1.011   2.229   0.595  0.2975  0.2086 -0.3556
  412SOL    HW1 1646   1.054   2.316   0.607 -1.6680 -2.8044 -1.0427
  412SOL    HW2 1647   0.933   2.257   0.540 -0.3688  1.7899 -0.7496
  412SOL     MW 1648   1.006   2.244   0.589 -0.0497  0.0197 -0.4982
  413SOL     OW 1649   0.521   2.801   0.051  0.3805 -0.3292  0.4750
  413SOL    HW1 1650   0.558   2.709   0.056  2.5045 -1.9689  2.5733
  413SOL    HW2 1651   0.570   2.832  -0.030 -1.1475  0.5878  1.1791
  413SOL     MW 1652   0.532   2.793   0.041  0.4592 -0.4246  0.8447
  414SOL     OW 1653   2.018   3.010   1.000 -0.3659  0.1939  0.1165
  414SOL    HW1 1654   1.945   2.969   0.953 -0.3615  0.6989  4.2303
  414SOL    HW2 1655   2.081   2.936   0.998  0.0918 -0.5677  0.0335
  414SOL     MW 1656   2.017   2.995   0.993 -0.3050  0.1600  0.6483
  415SOL     OW 1657   1.730   2.663   1.110 -0.0371  0.3144 -0.1138
  415SOL    HW1 1658   1.692   2.604   1.181 -1.9926 -0.9988 -0.9613
  415SOL    HW2 1659   1.819   2.695   1.145 -0.6717 -2.2657  0.9574
  415SOL     MW 1660   1.737   2.660   1.124 -0.3788 -0.1993 -0.0842
  416SOL     OW 1661   0.572   1.940   1.386 -0.2960 -0.2939  0.4872
  416SOL    HW1 1662   0.536   2.030   1.372 -0.0957 -1.3471  0.0159
  416SOL    HW2 1663   0.568   1.903   1.297 -0.5385 -1.2145  2.0079
  416SOL     MW 1664   0.567   1.947   1.372 -0.3016 -0.5543  0.6256
  417SOL     OW 1665   1.049   2.977   2.035  0.2866  0.2280 -0.3178
  417SOL    HW1 1666   0.991   2.996   2.113  0.7719  0.3039 -0.7635
  417SOL    HW2 1667   0.999   2.905   1.999  0.5410 -0.0831  0.5433
  417SOL     MW 1668   1.034   2.970   2.041  0.3842  0.1970 -0.2630
  418SOL     OW 1669   0.717   2.979   0.164 -0.2306 -0.3916  0.2331
  418SOL    HW1 1670   0.769   2.926   0.101  1.2302 -0.1269 -1.2443
  418SOL    HW2 1671   0.629   2.941   0.161  0.1327  0.4627  3.3901
  418SOL     MW 1672   0.712   2.967   0.155  0.0100 -0.2440  0.4547
  419SOL     OW 1673   0.463   2.695   1.403  0.1984 -0.1906  0.0094
  419SOL    HW1 1674   0.502   2.767   1.444 -1.0631 -3.3173  0.3516
  419SOL    HW2 1675   0.526   2.655   1.345 -2.5059 -0.8082 -0.0168
  419SOL     MW 1676   0.476   2.699   1.401 -0.3248 -0.6846  0.0510
  420SOL     OW 1677   0.910   2.215   0.947  0.2000 -0.3093  0.0829
  420SOL    HW1 1678   0.862   2.219   1.033  3.0798  3.0099  0.1724
  420SOL    HW2 1679   0.922   2.307   0.924  0.0554  0.9064  3.2457
  420SOL     MW 1680   0.905   2.227   0.956  0.5609  0.2891  0.5120
  421SOL     OW 1681   2.942   0.083   0.111 -0.4142  0.5432 -0.4021
  421SOL    HW1 1682   2.901   0.058   0.033  2.2243  2.0048 -1.9470
  421SOL    HW2 1683   2.960   0.007   0.163  1.0290  0.7201 -3.0977
  421SOL     MW 1684   2.939   0.070   0.108  0.1243  0.7594 -0.9616
  422SOL     OW 1685   0.826   2.504   0.912  0.0464  0.0626  0.0531
  422SOL    HW1 1686   0.742   2.515   0.958 -0.1873  1.1421 -1.4196
  422SOL    HW2 1687   0.799   2.502   0.814  0.1660  1.5024 -3.4146
  422SOL     MW 1688   0.812   2.505   0.906  0.0314  0.3950 -0.5988
  423SOL     OW 1689   1.622   0.091   0.520 -0.0494  0.3056  0.0728
  423SOL    HW1 1690   1.663   0.036   0.456  0.6964  0.8012  0.5344
  423SOL    HW2 1691   1.606   0.177   0.478  0.5237 -1.1022 -1.0126
  423SOL     MW 1692   1.625   0.095   0.506  0.1246  0.1853 -0.0095
  424SOL     OW 1693   0.742   2.175   1.179 -0.2548 -0.1493  0.2920
  424SOL    HW1 1694   0.646   2.169   1.209 -1.5934  1.3430  0.1546
  424SOL    HW2 1695   0.790   2.234   1.244 -0.1309 -0.4722 -1.1831
  424SOL     MW 1696   0.736   2.182   1.192 -0.4151  0.0050  0.0792
  425SOL     OW 1697   1.760   2.797   2.061 -0.2478 -0.0461 -0.0472
  425SOL    HW1 1698   1.766   2.812   1.966  0.5347  0.8822  1.2826
  425SOL    HW2 1699   1.775   2.701   2.072  1.2906 -1.4631 -0.0823
  425SOL     MW 1700   1.763   2.786   2.050  0.0584 -0.1106  0.1236
  426SOL     OW 1701   0.769   1.646   1.916 -0.2946 -0.0126 -0.1196
  426SOL    HW1 1702   0.708   1.634   1.834 -1.3220  1.7672  0.3065
  426SOL    HW2 1703   0.714   1.692   1.982  1.2340  1.8823  0.0537
  426SOL     MW 1704   0.753   1.650   1.914 -0.2285  0.4723 -0.0405
  427SOL     OW 1705   0.391   1.545   1.909 -0.1410  0.2423 -1.2612
  427SOL    HW1 1706   0.425   1.457   1.869 -0.4291  1.3769 -0.4456
  427SOL    HW2 1707   0.302   1.527   1.938  0.4663  0.9596  1.8349
  427SOL     MW 1708   0.384   1.531   1.907 -0.0989  0.4867 -0.7451
  428SOL     OW 1709   0.587   2.597   1.159  0.1549 -0.2622  0.3134
  428SOL    HW1 1710   0.672   2.567   1.198 -1.2011 -0.8666  0.4426
  428SOL    HW2 1711   0.530   2.520   1.151  0.3526  0.6371 -0.7771
  428SOL     MW 1712   0.591   2.583   1.163  0.0021 -0.2233  0.1866
  429SOL     OW 1713   1.387   2.829   1.045 -0.0070 -0.6889  0.2288
  429SOL    HW1 1714   1.293   2.816   1.082 -0.0005 -0.8121  0.8422
  429SOL    HW2 1715   1.368   2.870   0.963  0.3271  0.7462  2.4496
  429SOL     MW 1716   1.372   2.833   1.039  0.0379 -0.5158  0.6027
  430SOL     OW 1717   1.114   2.721   0.700  0.4275 -0.0640 -0.2797
  430SOL    HW1 1718   1.157   2.639   0.711 -0.9767  1.2864  0.3579
  430SOL    HW2 1719   1.075   2.709   0.617  2.1423 -2.0948  1.8926
  430SOL     MW 1720   1.114   2.709   0.690  0.4685 -0.1538  0.0910
  431SOL     OW 1721   0.390   2.033   1.080 -0.0941  0.1207  0.9741
  431SOL    HW1 1722   0.442   1.950   1.057  0.9168  0.4171 -0.3176
  431SOL    HW2 1723   0.319   2.055   1.018  2.6881  2.0880  1.8886
  431SOL     MW 1724   0.388   2.025   1.069  0.4064  0.4194  0.9244
  432SOL     OW 1725   0.070   0.054   1.188  0.6994 -0.1055 -0.3970
  432SOL    HW1 1726   0.087   0.083   1.287 -1.4400  1.7382 -0.2539
  432SOL    HW2 1727  -0.013  -0.004   1.193  0.1205  2.1263 -1.1154
  432SOL     MW 1728   0.061   0.050   1.201  0.3408  0.4322 -0.4729
  433SOL     OW 1729   0.672   2.913   1.444  0.1767 -0.1103  0.1861
  433SOL    HW1 1730   0.710   2.870   1.514 -3.8864  0.8773 -0.6478
  433SOL    HW2 1731   0.732   2.914   1.367 -1.2741  0.0452  0.4764
  433SOL     MW 1732   0.685   2.907   1.443 -0.5508  0.0406  0.1144
  434SOL     OW 1733   1.626   2.873   1.517 -0.2478 -0.0972 -0.1212
  434SOL    HW1 1734   1.537   2.906   1.500 -1.4963 -2.4836  0.9641
  434SOL    HW2 1735   1.648   2.816   1.438  2.5061 -0.1408  0.0579
  434SOL     MW 1736   1.617   2.870   1.504 -0.0492 -0.4178  0.0456
  435SOL     OW 1737   2.823   1.797   0.290  0.1566 -0.0178 -0.4670
  435SOL    HW1 1738   2.877   1.861   0.244  0.8165  0.4930 -1.0255
  435SOL    HW2 1739   2.794   1.742   0.215  1.0771  0.1567  0.7040
  435SOL     MW 1740   2.826   1.798   0.274  0.3651  0.0727 -0.3862
  436SOL     OW 1741   1.489   2.794   0.320 -0.3869  0.1361 -0.0606
  436SOL    HW1 1742   1.551   2.783   0.396  0.2496  2.0229  0.3036
  436SOL    HW2 1743   1.440   2.877   0.345 -0.7163  1.2799 -3.6135
  436SOL     MW 1744   1.490   2.803   0.333 -0.3463  0.5360 -0.4813
  437SOL     OW 1745   0.860   2.892   1.235 -0.2325  1.0322 -0.0299
  437SOL    HW1 1746   0.875   2.992   1.225 -1.5254  1.2638  2.2152
  437SOL    HW2 1747   0.814   2.885   1.152 -0.3369 -0.3953 -2.4147
  437SOL     MW 1748   0.856   2.904   1.223 -0.4168  0.8744 -0.0483
  438SOL     OW 1749   0.815   2.493   2.082  0.1523  0.1918 -0.1746
  438SOL    HW1 1750   0.829   2.429   2.155 -0.3133  1.7646 -1.0679
  438SOL    HW2 1751   0.754   2.445   2.029 -0.1291  1.9641  1.3556
  438SOL     MW 1752   0.809   2.478   2.085  0.0537  0.6331 -0.0906
  439SOL     OW 1753   1.124   2.183   0.352  0.2133 -0.0353 -0.5087
  439SOL    HW1 1754   1.072   2.200   0.436 -0.7267 -0.9029 -2.5278
  439SOL    HW2 1755   1.143   2.268   0.310  0.0247  1.9037 -0.3500
  439SOL     MW 1756   1.120   2.197   0.358  0.0644  0.1061 -0.7542
  440SOL     OW 1757   1.628   3.064   2.977  0.0470 -0.6709  0.5868
  440SOL    HW1 1758   1.585   3.025   3.052 -0.0579 -0.3867 -1.4352
  440SOL    HW2 1759   1.695   3.002   2.949 -0.5008 -0.7922 -0.3914
  440SOL     MW 1760   1.631   3.051   2.983 -0.0391 -0.6494  0.1909
  441SOL     OW 1761   0.359   2.646   0.499 -0.3226 -0.4489  0.1767
  441SOL    HW1 1762   0.324   2.628   0.409  1.6743  1.8770  1.4423
  441SOL    HW2 1763   0.360   2.738   0.507 -1.3138  0.4565 -1.4975
  441SOL     MW 1764   0.355   2.656   0.488 -0.1899 -0.0226  0.1227
  442SOL     OW 1765   3.103   2.372   0.620  0.0831 -0.2421 -0.7751
  442SOL    HW1 1766   3.103   2.472   0.633 -0.1317  1.4677  2.8448
  442SOL    HW2 1767   3.015   2.336   0.640  0.9619 -1.6855  0.7187
  442SOL     MW 1768   3.091   2.380   0.624  0.1707 -0.2070 -0.1004
  443SOL     OW 1769   1.415   1.691   1.923  0.5498  0.3718 -0.3250
  443SOL    HW1 1770   1.386   1.727   1.841  0.6916 -2.5752  2.7746
  443SOL    HW2 1771   1.372   1.612   1.930 -0.0096 -0.3109  1.7446
  443SOL     MW 1772   1.405   1.685   1.913  0.4947 -0.1071  0.3570
  444SOL     OW 1773   0.890   2.610   1.557 -0.4031 -0.1274  0.2152
  444SOL    HW1 1774   0.958   2.591   1.619 -0.7794 -0.3594  2.7115
  444SOL    HW2 1775   0.817   2.625   1.614  2.0429 -1.2814 -2.9204
  444SOL     MW 1776   0.889   2.609   1.573 -0.1300 -0.3103  0.1309
  445SOL     OW 1777   0.949   0.060   1.239 -0.1624 -0.1350  0.4035
  445SOL    HW1 1778   0.904   0.155   1.234 -0.2632  1.7630 -1.0939
  445SOL    HW2 1779   1.025   0.077   1.185  2.0563  1.1104  0.9604
  445SOL     MW 1780   0.953   0.075   1.231  0.1171  0.2798  0.2794
  446SOL     OW 1781   2.727   2.847   1.061 -0.3009  0.1067 -0.0993
  446SOL    HW1 1782   2.682   2.883   0.981  1.1723 -1.2395 -1.3274
  446SOL    HW2 1783   2.780   2.768   1.031 -1.0774 -1.0505  0.8774
  446SOL     MW 1784   2.728   2.842   1.046 -0.2089 -0.2236 -0.1325
  447SOL     OW 1785   3.023   2.014   1.688  0.0070  0.4725 -0.8126
  447SOL    HW1 1786   3.060   1.929   1.724  1.8716  2.1787 -0.3660
  447SOL    HW2 1787   2.956   1.984   1.623 -0.8749 -0.1264 -0.4930
  447SOL     MW 1788   3.019   1.999   1.685  0.1367  0.6186 -0.7115
  448SOL     OW 1789   1.683   2.382   1.682  0.0235  0.1521  0.0408
  448SOL    HW1 1790   1.611   2.317   1.691 -0.6201  1.8698  0.3171
  448SOL    HW2 1791   1.640   2.469   1.682  1.1869  2.3505 -0.8493
  448SOL     MW 1792   1.668   2.385   1.683  0.0921  0.6688 -0.0402
  449SOL     OW 1793   0.857   2.868   0.390 -0.2168  0.7183  0.2670
  449SOL    HW1 1794   0.820   2.932   0.326  0.8796  0.7141 -0.6509
  449SOL    HW2 1795   0.785   2.838   0.446 -0.4246  0.0356 -2.3434
  449SOL     MW 1796   0.843   2.872   0.389 -0.0996  0.6277 -0.1985
  450SOL     OW 1797   1.184   2.437   0.648  0.6214 -0.1453 -0.7461
  450SOL    HW1 1798   1.195   2.401   0.732  0.3393  2.8187  0.7619
  450SOL    HW2 1799   1.274   2.423   0.612  1.9899 -1.3665 -0.4731
  450SOL     MW 1800   1.197   2.430   0.654  0.7647  0.0846 -0.5111
  451SOL     OW 1801   0.635   1.920   1.656  0.0218  0.4665 -0.5362
  451SOL    HW1 1802   0.722   1.955   1.662 -3.1102  1.5173 -0.1570
  451SOL    HW2 1803   0.602   1.937   1.567  1.0839  0.1973 -1.2072
  451SOL     MW 1804   0.642   1.927   1.645 -0.2513  0.5696 -0.5747
  452SOL     OW 1805   0.317   2.638   0.020  0.1143  0.1981  0.4661
  452SOL    HW1 1806   0.395   2.701   0.039  1.0475 -0.7779  0.2582
  452SOL    HW2 1807   0.321   2.636  -0.074 -0.1572  1.0071  1.4203
  452SOL     MW 1808   0.328   2.646   0.010  0.2016  0.1760  0.5646
  453SOL     OW 1809   0.408   3.027   1.669 -0.0711 -0.8279 -0.3305
  453SOL    HW1 1810   0.481   3.066   1.614  1.4649 -0.8755 -0.0534
  453SOL    HW2 1811   0.334   2.997   1.613  0.0019  0.3173  0.9307
  453SOL     MW 1812   0.408   3.028   1.654  0.1412 -0.6830 -0.1275
  454SOL     OW 1813   1.155   2.761   1.159 -0.3034 -0.2008 -0.2394
  454SOL    HW1 1814   1.134   2.668   1.132 -1.8199 -1.1050  1.2943
  454SOL    HW2 1815   1.075   2.807   1.139  2.1729  1.5906  0.4585
  454SOL     MW 1816   1.142   2.755   1.153 -0.1768 -0.0838  0.0550
  455SOL     OW 1817   1.614   2.937   0.131  0.4106  0.1738  0.2401
  455SOL    HW1 1818   1.701   2.915   0.161  0.3627  1.3612  1.1383
  455SOL    HW2 1819   1.567   2.888   0.195  1.1369  0.6614  1.1566
  455SOL     MW 1820   1.619   2.928   0.144  0.5001  0.3948  0.4796
  456SOL     OW 1821   2.842   0.314   1.383  0.3804 -0.0778 -0.0057
  456SOL    HW1 1822   2.777   0.259   1.344  0.3849 -0.3162  2.1188
  456SOL    HW2 1823   2.895   0.356   1.308  1.6667 -1.6397  1.2340
  456SOL     MW 1824   2.841   0.312   1.368  0.5507 -0.3153  0.4382
  457SOL     OW 1825   0.922   1.506   2.955  0.3348  0.6626 -0.1058
  457SOL    HW1 1826   0.861   1.513   3.033  0.2679  1.6421  1.2565
  457SOL    HW2 1827   0.996   1.456   2.983 -0.3259  1.6906  2.6698
  457SOL     MW 1828   0.924   1.501   2.969  0.2388  0.9274  0.4401
  458SOL     OW 1829   1.432   1.327   0.659  0.1325  0.1728 -0.4926
  458SOL    HW1 1830   1.362   1.352   0.729 -1.3242  2.1731 -0.4132
  458SOL    HW2 1831   1.381   1.271   0.601 -1.7341  0.3361 -0.5195
  458SOL     MW 1832   1.416   1.323   0.661 -0.3060  0.4582 -0.4857
  459SOL     OW 1833   1.611   0.114   0.201 -0.1670 -0.6398  0.3542
  459SOL    HW1 1834   1.619   0.021   0.174  1.1547  1.8780  0.7629
  459SOL    HW2 1835   1.538   0.152   0.152  1.0871  1.2597 -2.1992
  459SOL     MW 1836   1.602   0.107   0.191  0.1729 -0.0570  0.0713
  460SOL     OW 1837   1.755   2.152   0.623 -0.3763  0.2067  0.3567
  460SOL    HW1 1838   1.675   2.174   0.667  4.0761  1.3348  0.6711
  460SOL    HW2 1839   1.767   2.070   0.572 -1.1242 -0.0413 -0.8016
  460SOL     MW 1840   1.746   2.144   0.622  0.1125  0.3228  0.2453
  461SOL     OW 1841   0.358   2.312   0.638  0.1914  0.0085  0.3197
  461SOL    HW1 1842   0.288   2.336   0.585  0.8433  1.4878  3.1298
  461SOL    HW2 1843   0.378   2.382   0.699 -0.6385  0.9918  0.3121
  461SOL     MW 1844   0.351   2.324   0.639  0.1679  0.3334  0.6894
  462SOL     OW 1845   0.415   0.247   1.364 -0.5092 -0.2852  0.0677
  462SOL    HW1 1846   0.432   0.154   1.353 -0.2762  2.3061 -0.3324
  462SOL    HW2 1847   0.499   0.294   1.329  2.3992  0.2625  1.2329
  462SOL     MW 1848   0.428   0.241   1.358 -0.0947  0.1290  0.1686
  463SOL     OW 1849   0.970   3.082   0.683 -0.2756 -0.2661 -0.6330
  463SOL    HW1 1850   0.994   3.051   0.594  2.1180  1.0853 -0.4907
  463SOL    HW2 1851   0.882   3.123   0.665 -2.2786 -1.6163 -0.9188
  463SOL     MW 1852   0.962   3.083   0.669 -0.2241 -0.2660 -0.6519
  464SOL     OW 1853   0.869   2.993   2.241  0.3494 -0.0778 -0.7384
  464SOL    HW1 1854   0.847   2.898   2.250 -2.7957 -3.4301  1.3277
  464SOL    HW2 1855   0.863   3.027   2.331 -2.3638 -0.6945 -2.0010
  464SOL     MW 1856   0.866   2.985   2.254 -0.4235 -0.6014 -0.6324
  465SOL     OW 1857   0.709   0.307   0.477 -0.1699 -0.7275  0.2110
  465SOL    HW1 1858   0.657   0.251   0.536  0.1279 -2.2254  1.7779
  465SOL    HW2 1859   0.712   0.268   0.386 -0.7378  1.1274 -0.6585
  465SOL     MW 1860   0.703   0.295   0.473 -0.2055 -0.6804  0.3030
  466SOL     OW 1861   1.088   2.008   0.736  0.3677 -0.0201  0.5387
  466SOL    HW1 1862   1.078   1.933   0.678  0.9240  1.6843  2.2454
  466SOL    HW2 1863   1.062   2.081   0.682 -1.9976 -1.0530  1.1417
  466SOL     MW 1864   1.083   2.008   0.721  0.1290  0.0685  0.8434
  467SOL     OW 1865   1.249   2.351   0.895 -0.1584  0.2526  0.3388
  467SOL    HW1 1866   1.325   2.364   0.957  2.7198 -0.4752 -3.0394
  467SOL    HW2 1867   1.260   2.261   0.877  4.1203  1.0498  3.0600
  467SOL     MW 1868   1.260   2.341   0.901  0.7859  0.2618  0.2521
  468SOL     OW 1869   0.330   2.604   2.012 -0.2463  0.1704  0.3590
  468SOL    HW1 1870   0.361   2.519   1.976  2.8843  2.2020 -1.2645
  468SOL    HW2 1871   0.394   2.663   1.970 -0.0645 -0.7934 -0.6317
  468SOL     MW 1872   0.342   2.601   2.002  0.1907  0.3113  0.0141
  469SOL     OW 1873   0.406   2.084   1.748  0.4614 -0.3968  0.4994
  469SOL    HW1 1874   0.325   2.065   1.697  2.6256  0.4010 -2.2295
  469SOL    HW2 1875   0.470   2.029   1.700  1.5544 -0.1790  0.6002
  469SOL     MW 1876   0.403   2.074   1.735  0.8912 -0.2628  0.1527
  470SOL     OW 1877   3.101   2.595   0.210 -0.4500  0.4878 -0.2722
  470SOL    HW1 1878   3.067   2.529   0.268  0.2560  0.5241 -0.9196
  470SOL    HW2 1879   3.091   2.554   0.126  1.7713  1.5593  0.6118
  470SOL     MW 1880   3.095   2.581   0.207 -0.0638  0.6340 -0.2409
  471SOL     OW 1881   1.235   2.748   1.427 -0.2492 -0.3754  0.6955
  471SOL    HW1 1882   1.158   2.791   1.468 -1.2130  1.8236 -0.2683
  471SOL    HW2 1883   1.197   2.739   1.343  1.1543  0.0110 -1.0140
  471SOL     MW 1884   1.220   2.753   1.421 -0.1912 -0.0343  0.3428
  472SOL     OW 1885   2.953   2.079   0.403 -0.1332  0.7538 -0.1823
  472SOL    HW1 1886   2.963   2.050   0.310 -0.0303  0.1467  1.9444
  472SOL    HW2 1887   2.944   2.011   0.470 -0.3999 -0.1372  0.6958
  472SOL     MW 1888   2.953   2.066   0.399 -0.1548  0.5561  0.2141
  473SOL     OW 1889   0.827   2.505   1.298 -0.6396  0.2603  0.1910
  473SOL    HW1 1890   0.910   2.461   1.279  1.6005  1.9664 -1.1863
  473SOL    HW2 1891   0.837   2.545   1.385 -1.8448 -1.6669  2.3912
  473SOL     MW 1892   0.840   2.505   1.307 -0.5030  0.2311  0.2996
  474SOL     OW 1893   0.842   2.099   1.726  0.2838  0.7191 -0.0757
  474SOL    HW1 1894   0.926   2.073   1.750 -3.5139  1.6119  1.0607
  474SOL    HW2 1895   0.848   2.156   1.649  0.8017  0.9952 -0.3975
  474SOL     MW 1896   0.854   2.103   1.719 -0.1490  0.8734  0.0318
  475SOL     OW 1897   1.688   0.018   1.324 -0.2770 -0.4949  0.7170
  475SOL    HW1 1898   1.599   0.053   1.292 -0.4700  0.6976  1.0845
  475SOL    HW2 1899   1.667  -0.071   1.347 -2.2539  0.3718  0.1233
  475SOL     MW 1900   1.673   0.011   1.323 -0.5633 -0.2232  0.6871
  476SOL     OW 1901   1.451   2.617   0.840  0.4731 -0.2330 -0.6464
  476SOL    HW1 1902   1.458   2.635   0.932  1.1950  0.3543  2.4049
  476SOL    HW2 1903   1.454   2.707   0.800  4.1864  1.4110 -0.9373
  476SOL     MW 1904   1.452   2.631   0.847  1.0583  0.0614 -0.2822
  477SOL     OW 1905   0.825   2.539   0.613  0.3666 -0.2056 -0.2740
  477SOL    HW1 1906   0.884   2.572   0.552 -2.2430 -1.8609 -1.1171
  477SOL    HW2 1907   0.800   2.451   0.574  0.6808  1.3970 -2.8024
  477SOL     MW 1908   0.829   2.532   0.600  0.0637 -0.2126 -0.7188
  478SOL     OW 1909   0.150   2.694   0.973  0.3885 -0.7100  0.6453
  478SOL    HW1 1910   0.185   2.776   0.945 -0.6975 -0.1918 -1.5345
  478SOL    HW2 1911   0.208   2.625   0.940  1.6713  1.3375  1.3510
  478SOL     MW 1912   0.162   2.696   0.965  0.4145 -0.3715  0.4508
  479SOL     OW 1913   1.469   1.936   1.316  0.0382 -0.1377 -0.1112
  479SOL    HW1 1914   1.425   1.988   1.385  0.0049 -1.5683 -1.3768
  479SOL    HW2 1915   1.540   1.894   1.369 -1.7491 -1.0670 -0.5542
  479SOL     MW 1916   1.472   1.938   1.332 -0.2020 -0.4490 -0.3366
  480SOL     OW 1917   1.855   2.426   1.357 -0.1736 -0.1461  0.2663
  480SOL    HW1 1918   1.876   2.365   1.431 -0.5300  2.4890 -0.1955
  480SOL    HW2 1919   1.885   2.377   1.282 -0.2269  2.6782  0.7935
  480SOL     MW 1920   1.861   2.412   1.357 -0.2277  0.5742  0.2749
  481SOL     OW 1921   1.170   0.162   1.083 -0.1754 -0.3739 -0.2337
  481SOL    HW1 1922   1.251   0.176   1.038 -0.7663  0.6259  0.2505
  481SOL    HW2 1923   1.145   0.244   1.130 -0.0439  1.2134  0.6195
  481SOL     MW 1924   1.178   0.174   1.083 -0.2360 -0.0326 -0.0572
  482SOL     OW 1925   1.058   3.037   0.428 -0.2051  0.0695  0.4011
  482SOL    HW1 1926   0.974   2.996   0.430  0.0450 -0.2185  1.2200
  482SOL    HW2 1927   1.048   3.134   0.421  0.4856 -0.4493  0.2043
  482SOL     MW 1928   1.046   3.044   0.428 -0.0810 -0.0370  0.4832
  483SOL     OW 1929   0.387   2.925   0.481 -0.1669 -0.0575 -0.0143
  483SOL    HW1 1930   0.315   2.933   0.424  3.4744  2.2480 -0.4138
  483SOL    HW2 1931   0.366   2.995   0.540  1.0794 -0.4397 -2.2173
  483SOL     MW 1932   0.375   2.935   0.481  0.4780  0.1963 -0.3577
  484SOL     OW 1933   1.696   1.814   1.443 -0.4460  0.4787  0.4046
  484SOL    HW1 1934   1.736   1.898   1.414  2.5313 -0.3675 -1.0157
  484SOL    HW2 1935   1.690   1.823   1.541 -1.2574  0.4482  0.2653
  484SOL     MW 1936   1.701   1.826   1.452 -0.1602  0.3630  0.1988
  485SOL     OW 1937   0.404   2.325   0.328  1.0802 -0.3474 -0.4513
  485SOL    HW1 1938   0.454   2.355   0.405 -1.9244  2.1058  0.6613
  485SOL    HW2 1939   0.356   2.401   0.287  2.9798 -0.5368  1.9634
  485SOL     MW 1940   0.404   2.339   0.333  0.9344 -0.0487  0.0141
  486SOL     OW 1941   0.107   2.468   1.473 -0.1692  0.1562 -0.2656
  486SOL    HW1 1942   0.141   2.557   1.462  2.8171 -0.6828 -0.1987
  486SOL    HW2 1943   0.086   2.467   1.568 -1.1773 -0.3147  3.0373
  486SOL     MW 1944   0.109   2.480   1.484  0.0918 -0.0166  0.1790
  487SOL     OW 1945   1.295   1.552   1.110  0.4364 -0.1859  0.3797
  487SOL    HW1 1946   1.278   1.645   1.111  1.9979  0.1263 -0.8039
  487SOL    HW2 1947   1.392   1.554   1.088  2.3638 -0.7200 -0.6793
  487SOL     MW 1948   1.305   1.564   1.107  0.8968 -0.2152  0.0838
  488SOL     OW 1949   1.438   1.783   0.593 -0.6822  0.1966 -0.3525
  488SOL    HW1 1950   1.443   1.876   0.576 -0.2096  0.5312 -0.1365
  488SOL    HW2 1951   1.371   1.748   0.538  0.2115 -1.8004  1.9758
  488SOL     MW 1952   1.430   1.791   0.584 -0.5019 -0.0227 -0.0168
  489SOL     OW 1953   0.707   0.672   0.470 -0.1179 -0.1402  0.0910
  489SOL    HW1 1954   0.655   0.599   0.431 -0.6937 -0.0241 -0.4448
  489SOL    HW2 1955   0.686   0.665   0.566 -2.1928 -0.4399 -0.7066
  489SOL     MW 1956   0.698   0.662   0.477 -0.4677 -0.1645 -0.0850
  490SOL     OW 1957   1.365   2.071   0.426 -0.2114  0.5565  0.1284
  490SOL    HW1 1958   1.423   2.139   0.390  0.8607  1.5850  1.5171
  490SOL    HW2 1959   1.273   2.106   0.417  0.6730 -0.0309  3.3796
  490SOL     MW 1960   1.360   2.084   0.420  0.0468  0.6147  0.7406
  491SOL     OW 1961   1.334   3.013   0.416  0.0353 -0.3522 -0.3018
  491SOL    HW1 1962   1.336   3.054   0.502 -2.0052  0.7404 -1.3903
  491SOL    HW2 1963   1.238   2.999   0.424 -2.8227 -3.3741  0.3176
  491SOL     MW 1964   1.321   3.016   0.429 -0.6110 -0.6068 -0.3637
  492SOL     OW 1965   1.458   2.154   0.702  0.4123 -0.0088  0.0006
  492SOL    HW1 1966   1.417   2.121   0.625 -0.5115  0.8087  1.2081
  492SOL    HW2 1967   1.419   2.115   0.773  0.6957  0.7612  0.3332
  492SOL     MW 1968   1.448   2.144   0.701  0.3278  0.2006  0.2038
  493SOL     OW 1969   0.205   3.022   0.323  0.2148  0.4921  0.3743
  493SOL    HW1 1970   0.136   3.068   0.356  1.0157 -1.0652  1.7935
  493SOL    HW2 1971   0.188   2.983   0.239  0.6030 -0.2201  0.6321
  493SOL     MW 1972   0.194   3.023   0.316  0.3717  0.1927  0.5955
  494SOL     OW 1973   0.382   2.360   1.824  0.4549 -0.6983  0.4640
  494SOL    HW1 1974   0.401   2.262   1.809 -1.0733 -1.5592 -2.8983
  494SOL    HW2 1975   0.416   2.409   1.746  2.3856  1.5163 -1.0432
  494SOL     MW 1976   0.389   2.353   1.812  0.5080 -0.5197 -0.1784
  495SOL     OW 1977   2.814   1.633   2.672 -0.3256 -0.0445 -0.1330
  495SOL    HW1 1978   2.810   1.697   2.744 -0.3681  1.2664 -0.3876
  495SOL    HW2 1979   2.782   1.553   2.713 -3.2943  2.2388 -1.7845
  495SOL     MW 1980   2.809   1.631   2.687 -0.7229  0.4297 -0.3845
  496SOL     OW 1981   2.830   2.297   2.753 -0.3357  0.0079  0.0627
  496SOL    HW1 1982   2.852   2.214   2.789 -0.5064 -2.3126  0.3649
  496SOL    HW2 1983   2.910   2.345   2.773  0.8054 -2.2167  1.0424
  496SOL     MW 1984   2.844   2.292   2.760 -0.2077 -0.5918  0.2318
  497SOL     OW 1985   1.473   2.429   2.581  0.0132 -0.1209 -0.3476
  497SOL    HW1 1986   1.479   2.369   2.503 -0.6788 -3.4188 -1.3061
  497SOL    HW2 1987   1.425   2.376   2.643  1.5729 -0.7699 -1.5035
  497SOL     MW 1988   1.467   2.414   2.579  0.1277 -0.6416 -0.6266
  498SOL     OW 1989   1.483   2.732   2.318 -0.0805  0.3772  0.1181
  498SOL    HW1 1990   1.475   2.649   2.360 -0.4110 -0.3168 -1.8043
  498SOL    HW2 1991   1.575   2.749   2.333  0.8373 -1.3977 -4.3336
  498SOL     MW 1992   1.494   2.724   2.325 -0.0030  0.0514 -0.7229
  499SOL     OW 1993   0.965   0.058   0.104 -0.2617  0.6909  0.4930
  499SOL    HW1 1994   0.887   0.099   0.137  1.2132 -0.6352  1.2828
  499SOL    HW2 1995   0.937  -0.022   0.063 -0.0417  0.4708 -0.9633
  499SOL     MW 1996   0.951   0.053   0.103 -0.0380  0.4869  0.4050
  500SOL     OW 1997   1.035   2.538   2.730  0.4491 -0.0117  0.1264
  500SOL    HW1 1998   1.083   2.481   2.796 -2.6316 -0.2649  1.1551
  500SOL    HW2 1999   0.976   2.602   2.773 -0.3177  0.7870 -1.1503
  500SOL     MW 2000   1.034   2.539   2.745 -0.0585  0.0603  0.0937
  501SOL     OW 2001   1.802   2.308   2.948  0.0217 -0.4168 -0.5289
  501SOL    HW1 2002   1.816   2.403   2.939 -1.2640 -0.5798 -2.0308
  501SOL    HW2 2003   1.892   2.276   2.958  0.6008  1.6575 -0.2410
  501SOL     MW 2004   1.815   2.316   2.948 -0.0715 -0.1646 -0.6891
  502SOL     OW 2005   0.329   2.742   2.845 -0.0945  0.3416  0.4543
  502SOL    HW1 2006   0.316   2.769   2.751 -0.2215  1.7456 -1.1717
  502SOL    HW2 2007   0.299   2.812   2.902  0.5948 -0.8271  1.7172
  502SOL     MW 2008   0.323   2.754   2.840 -0.0203  0.3727  0.4064
  503SOL     OW 2009   1.108   2.473   2.073 -0.0982 -0.2817 -0.0995
  503SOL    HW1 2010   1.127   2.534   2.003  1.3086  3.9563  1.0347
  503SOL    HW2 2011   1.024   2.449   2.044  0.5188  0.7701 -2.0736
  503SOL     MW 2012   1.100   2.478   2.060  0.1688  0.4162 -0.2103
  504SOL     OW 2013   0.065   2.625   2.186 -0.2457  0.5753  0.1344
  504SOL    HW1 2014   0.106   2.565   2.121  2.3023 -0.9832  2.7946
  504SOL    HW2 2015   0.028   2.566   2.253 -2.9160 -0.5822  3.1629
  504SOL     MW 2016   0.066   2.609   2.186 -0.2618  0.2169  0.8849
  505SOL     OW 2017   1.592   2.848   2.733 -0.5046 -0.4375  0.6653
  505SOL    HW1 2018   1.616   2.864   2.639 -0.1633 -0.3873 -0.6679
  505SOL    HW2 2019   1.515   2.907   2.746  2.4536  1.8597  1.5826
  505SOL     MW 2020   1.585   2.858   2.722 -0.0693 -0.1278  0.6104
  506SOL     OW 2021   1.560   0.136   2.766  0.5246  0.3140 -0.2126
  506SOL    HW1 2022   1.536   0.073   2.829 -0.4058  1.6475  0.1820
  506SOL    HW2 2023   1.635   0.097   2.713 -0.0338 -0.7719  0.1856
  506SOL     MW 2024   1.566   0.122   2.767  0.3282  0.3467 -0.1080
  507SOL     OW 2025   0.797   2.695   2.835  0.0620 -0.6057 -0.2069
  507SOL    HW1 2026   0.820   2.751   2.757 -0.2313  1.8078  2.0712
  507SOL    HW2 2027   0.704   2.687   2.834  1.2348  0.1529 -0.6076
  507SOL     MW 2028   0.788   2.701   2.824  0.1780 -0.1872  0.0408
  508SOL     OW 2029   1.199   2.154   2.548  0.1655 -0.0775 -0.2888
  508SOL    HW1 2030   1.258   2.169   2.619  0.2791  1.1392  1.8405
  508SOL    HW2 2031   1.112   2.179   2.583  0.2009 -0.0530 -0.8465
  508SOL     MW 2032   1.195   2.159   2.562  0.1851  0.0863 -0.0814
  509SOL     OW 2033   0.554   2.581   2.869  0.6216 -0.9505 -0.4310
  509SOL    HW1 2034   0.571   2.522   2.794 -0.8463  1.2913  0.0830
  509SOL    HW2 2035   0.460   2.614   2.852 -0.0727 -4.4065  1.6475
  509SOL     MW 2036   0.544   2.577   2.857  0.3363 -1.1107 -0.0889
  510SOL     OW 2037   1.517   2.639   1.659 -0.0991 -0.1123 -1.1281
  510SOL    HW1 2038   1.534   2.717   1.608 -0.2984 -1.3193  0.3117
  510SOL    HW2 2039   1.460   2.658   1.736  0.4868  0.6167 -0.4100
  510SOL     MW 2040   1.512   2.652   1.663 -0.0481 -0.1754 -0.8434
  511SOL     OW 2041   0.396   2.586   2.515  0.1633 -0.5205 -0.0848
  511SOL    HW1 2042   0.476   2.566   2.565  2.8518 -1.4062  0.9695
  511SOL    HW2 2043   0.426   2.587   2.422  1.2098  1.5530 -0.5402
  511SOL     MW 2044   0.410   2.583   2.509  0.6561 -0.3638 -0.0058
  512SOL     OW 2045   0.933   1.989   2.809  0.2759 -0.3528  0.0690
  512SOL    HW1 2046   0.840   2.016   2.821 -1.0958 -1.3409  2.4169
  512SOL    HW2 2047   0.945   1.920   2.877 -0.9311 -0.8268 -0.0887
  512SOL     MW 2048   0.922   1.983   2.820 -0.0643 -0.5457  0.3580
  513SOL     OW 2049   1.490   2.406   2.230  0.7241 -0.0493  0.6634
  513SOL    HW1 2050   1.588   2.419   2.231  0.8655  2.2074  2.0026
  513SOL    HW2 2051   1.477   2.320   2.266 -0.9582  0.2060  0.4913
  513SOL     MW 2052   1.501   2.397   2.235  0.5208  0.2822  0.8174
  514SOL     OW 2053   0.214   2.380   2.666  0.3694  0.0639  0.8242
  514SOL    HW1 2054   0.278   2.426   2.610  0.4560 -2.7973 -3.0034
  514SOL    HW2 2055   0.277   2.346   2.733 -0.0326 -0.4200  0.3321
  514SOL     MW 2056   0.231   2.382   2.668  0.3278 -0.3774  0.2543
  515SOL     OW 2057   1.073   2.015   1.898  0.1401 -0.3363 -0.2676
  515SOL    HW1 2058   1.053   2.099   1.932 -0.4873  3.6221 -0.3575
  515SOL    HW2 2059   1.142   1.986   1.956 -2.1860 -0.1908  0.2947
  515SOL     MW 2060   1.080   2.022   1.910 -0.2496  0.2051 -0.2053
  516SOL     OW 2061   1.345   2.625   2.908  0.1152 -0.0882  0.2206
  516SOL    HW1 2062   1.357   2.660   2.823 -0.1281  0.1154  1.0823
  516SOL    HW2 2063   1.293   2.547   2.897  2.9765  1.9076 -0.9732
  516SOL     MW 2064   1.340   2.620   2.896  0.4606  0.2020  0.1768
  517SOL     OW 2065   0.441   2.267   2.325  0.1553 -0.1028  0.1684
  517SOL    HW1 2066   0.417   2.362   2.311  0.9548  1.7840  1.0291
  517SOL    HW2 2067   0.396   2.220   2.251 -0.3071 -0.2327 -0.1255
  517SOL     MW 2068   0.432   2.273   2.313  0.1998  0.1290  0.2432
  518SOL     OW 2069   1.747   0.197   3.029 -0.3856 -0.1977  0.2890
  518SOL    HW1 2070   1.755   0.194   3.122 -1.4911  0.9800  0.6058
  518SOL    HW2 2071   1.699   0.124   2.999 -3.3249  2.1390  0.3898
  518SOL     MW 2072   1.742   0.187   3.038 -0.9193  0.2660  0.3441
  519SOL     OW 2073   0.601   2.347   1.980 -0.1947  0.0772 -0.4860
  519SOL    HW1 2074   0.615   2.253   1.972 -3.4622  0.5285 -0.5451
  519SOL    HW2 2075   0.520   2.360   1.925 -0.4018 -2.8983  1.5153
  519SOL     MW 2076   0.592   2.336   1.971 -0.6532 -0.2559 -0.2297
  520SOL     OW 2077   1.140   2.134   2.892  0.7964 -0.7133  0.1139
  520SOL    HW1 2078   1.052   2.093   2.873  1.9525 -0.6663 -1.1876
  520SOL    HW2 2079   1.155   2.111   2.982 -0.9370  2.1276 -1.2674
  520SOL     MW 2080   1.131   2.126   2.901  0.7202 -0.3322 -0.2400
  521SOL     OW 2081   1.690   2.091   2.199 -0.2134 -1.1544  0.6371
  521SOL    HW1 2082   1.752   2.101   2.122 -1.4116  1.5349  2.2927
  521SOL    HW2 2083   1.669   1.993   2.215 -4.1035  0.9281  0.6841
  521SOL     MW 2084   1.695   2.080   2.191 -0.8848 -0.5248  0.8618
  522SOL     OW 2085   2.844   2.557   2.158  0.5047  0.3049  0.2907
  522SOL    HW1 2086   2.905   2.503   2.202 -1.6502  0.1540 -2.0904
  522SOL    HW2 2087   2.881   2.641   2.171 -3.9338 -0.8921 -0.4509
  522SOL     MW 2088   2.857   2.561   2.165 -0.3652  0.1270 -0.1213
  523SOL     OW 2089   0.812   1.492   2.136  0.6016 -0.5035  0.2276
  523SOL    HW1 2090   0.805   1.543   2.054 -0.8758  0.5414 -0.9981
  523SOL    HW2 2091   0.877   1.424   2.119 -1.1227  0.8795 -1.5938
  523SOL     MW 2092   0.819   1.490   2.123  0.1792 -0.1832 -0.1744
  524SOL     OW 2093   0.570   2.372   3.055  0.5454  0.1958 -0.1061
  524SOL    HW1 2094   0.567   2.457   3.009 -0.3328 -1.9336  0.4420
  524SOL    HW2 2095   0.645   2.322   3.034 -4.9254  2.3286  1.7402
  524SOL     MW 2096   0.580   2.377   3.046 -0.2923  0.1962  0.2098
  525SOL     OW 2097   0.304   2.169   2.114  0.0359  0.2401 -0.6496
  525SOL    HW1 2098   0.253   2.115   2.185  3.4400 -1.2277 -1.1264
  525SOL    HW2 2099   0.355   2.105   2.063 -1.2476  0.0662 -0.8643
  525SOL     MW 2100   0.304   2.154   2.117  0.3157  0.0235 -0.7409
  526SOL     OW 2101   0.656   2.097   1.944 -0.2533 -0.4789  0.4734
  526SOL    HW1 2102   0.712   2.082   1.874  4.0462  0.1661  0.2647
  526SOL    HW2 2103   0.718   2.107   2.012  1.8446  1.1322  0.9107
  526SOL     MW 2104   0.672   2.097   1.944  0.5908 -0.1813  0.5035
  527SOL     OW 2105   1.269   1.919   2.065  0.3992  0.1463  0.3261
  527SOL    HW1 2106   1.239   1.887   2.150 -1.2571  1.3100 -2.2471
  527SOL    HW2 2107   1.340   1.864   2.051 -1.8270  1.4104  0.6894
  527SOL     MW 2108   1.274   1.908   2.075 -0.1131  0.4667  0.0346
  528SOL     OW 2109   0.618   2.911   2.941  0.0566  0.6368  0.1978
  528SOL    HW1 2110   0.675   2.984   2.951  0.2435 -0.0029  0.1908
  528SOL    HW2 2111   0.590   2.912   2.853  0.3336  3.6866  1.2267
  528SOL     MW 2112   0.622   2.921   2.931  0.1178  0.9548  0.3326
  529SOL     OW 2113   1.108   2.299   1.781 -0.0732  0.4292  0.5793
  529SOL    HW1 2114   1.158   2.292   1.865  1.4281  0.6907  1.1230
  529SOL    HW2 2115   1.154   2.275   1.700 -2.1346  0.7073 -1.0106
  529SOL     MW 2116   1.120   2.295   1.782 -0.1471  0.5004  0.4413
  530SOL     OW 2117   1.128   2.406   2.948  0.3238  0.2536  0.0167
  530SOL    HW1 2118   1.052   2.437   2.993  0.0022  1.6731 -2.8199
  530SOL    HW2 2119   1.116   2.311   2.928 -0.6560 -0.5968 -1.5203
  530SOL     MW 2120   1.116   2.398   2.951  0.1521  0.3287 -0.5603
  531SOL     OW 2121   0.889   1.827   2.602  0.0045 -0.1613 -0.4616
  531SOL    HW1 2122   0.913   1.891   2.681 -0.2986 -0.1940  1.6472
  531SOL    HW2 2123   0.870   1.742   2.651 -0.1995 -0.4732 -0.2457
  531SOL     MW 2124   0.890   1.824   2.619 -0.0624 -0.2067 -0.1549
  532SOL     OW 2125   1.720   0.364   2.786  0.2768  0.0617  0.4973
  532SOL    HW1 2126   1.657   0.290   2.784 -0.9593 -2.4357  1.8555
  532SOL    HW2 2127   1.747   0.365   2.874  0.7626  0.5897 -0.2017
  532SOL     MW 2128   1.715   0.354   2.797  0.1778 -0.1982  0.5842
  533SOL     OW 2129   1.794   2.847   2.921 -0.0793  0.0230 -0.8615
  533SOL    HW1 2130   1.771   2.765   2.971  0.2670  0.3866 -0.8473
  533SOL    HW2 2131   1.733   2.838   2.848  0.3560 -1.0196  1.3415
  533SOL     MW 2132   1.783   2.835   2.918  0.0238 -0.0666 -0.5690
  534SOL     OW 2133   1.775   2.542   2.508  0.1670 -0.0989  0.2774
  534SOL    HW1 2134   1.689   2.496   2.538 -0.7174 -0.5448 -0.2388
  534SOL    HW2 2135   1.819   2.527   2.586  0.8868  2.6239 -1.6703
  534SOL     MW 2136   1.769   2.534   2.522  0.1453  0.2015 -0.0477
  535SOL     OW 2137   1.806   2.380   1.929 -0.0707  0.3509 -0.2285
  535SOL    HW1 2138   1.750   2.393   1.853 -0.4890 -2.7143  1.2511
  535SOL    HW2 2139   1.891   2.412   1.895  0.6326  2.4269 -1.6333
  535SOL     MW 2140   1.810   2.386   1.914 -0.0331  0.2204 -0.2186
  536SOL     OW 2141   0.386   1.936   1.988  0.1595 -0.6275 -0.4088
  536SOL    HW1 2142   0.389   1.971   1.894  0.8861  1.7010  0.2888
  536SOL    HW2 2143   0.477   1.910   2.007  1.4997 -0.7083 -1.6636
  536SOL     MW 2144   0.398   1.937   1.978  0.4322 -0.3309 -0.4823
  537SOL     OW 2145   1.021   0.160   2.961 -0.6104  0.3011 -0.0360
  537SOL    HW1 2146   0.996   0.131   3.047  0.4260  0.1526 -0.1374
  537SOL    HW2 2147   1.006   0.254   2.944 -1.9052 -3.0317  0.6594
  537SOL     MW 2148   1.016   0.169   2.970 -0.6445 -0.1582  0.0423
  538SOL     OW 2149   1.321   0.089   2.965 -0.4861 -0.5675 -0.1548
  538SOL    HW1 2150   1.229   0.090   2.976 -0.2966 -0.6320  1.0197
  538SOL    HW2 2151   1.359   0.133   3.038 -0.9222 -2.2724 -3.7361
  538SOL     MW 2152   1.314   0.095   2.976 -0.5187 -0.8009 -0.4724
  539SOL     OW 2153   0.686   2.742   2.467 -0.8119  0.3308 -0.0220
  539SOL    HW1 2154   0.758   2.797   2.511 -1.6424 -0.3722  1.3656
  539SOL    HW2 2155   0.720   2.649   2.474 -0.1525 -0.8432 -1.6279
  539SOL     MW 2156   0.700   2.737   2.474 -0.8345  0.0832 -0.0508
  540SOL     OW 2157   0.377   2.256   2.851  0.0012 -0.4047  0.5737
  540SOL    HW1 2158   0.447   2.296   2.903  2.0994  0.1084  0.2262
  540SOL    HW2 2159   0.332   2.210   2.919  1.2380 -0.5248 -0.0137
  540SOL     MW 2160   0.381   2.255   2.866  0.4413 -0.3528  0.4503
  541SOL     OW 2161   0.159   2.878   2.256  0.2910  0.3230 -0.3025
  541SOL    HW1 2162   0.127   2.787   2.242 -0.6650  0.5246 -1.8454
  541SOL    HW2 2163   0.190   2.870   2.343  2.3516 -0.3543 -1.8115
  541SOL     MW 2164   0.159   2.865   2.266  0.4367  0.2603 -0.7052
  542SOL     OW 2165   0.851   2.335   2.785 -0.3081  0.2166 -0.2963
  542SOL    HW1 2166   0.829   2.342   2.873  0.4791  1.2753 -4.8505
  542SOL    HW2 2167   0.894   2.420   2.768 -2.3481 -1.0156 -1.8886
  542SOL     MW 2168   0.854   2.347   2.794 -0.4734  0.1937 -1.1073
  543SOL     OW 2169   1.360   2.668   2.609 -0.0297  0.4813  0.5710
  543SOL    HW1 2170   1.390   2.579   2.594 -1.4990  0.0416  0.2430
  543SOL    HW2 2171   1.439   2.716   2.634 -0.0771 -2.3136  0.0670
  543SOL     MW 2172   1.374   2.663   2.610 -0.2298  0.0545  0.4613
  544SOL     OW 2173   0.674   0.098   2.704  0.3582  0.3704  0.2338
  544SOL    HW1 2174   0.583   0.082   2.701 -0.8510  1.0962 -0.7482
  544SOL    HW2 2175   0.717   0.079   2.618  0.0458  0.5984  2.2193
  544SOL     MW 2176   0.667   0.093   2.693  0.1575  0.4962  0.3662
  545SOL     OW 2177   1.538   2.183   2.399  0.0307 -0.0429 -0.3210
  545SOL    HW1 2178   1.500   2.102   2.427  1.3546 -2.2077  0.9512
  545SOL    HW2 2179   1.596   2.167   2.327  3.4489 -2.9473  0.7329
  545SOL     MW 2180   1.541   2.171   2.393  0.6563 -0.7117 -0.0141
  546SOL     OW 2181   2.992   1.986   0.154  0.0301  0.1053 -0.3049
  546SOL    HW1 2182   2.939   2.044   0.091  0.7727  2.8927 -2.7506
  546SOL    HW2 2183   3.064   1.958   0.103  0.6233  0.7443  1.5816
  546SOL     MW 2184   2.995   1.990   0.139  0.2064  0.5574 -0.3787
  547SOL     OW 2185   0.151   2.882   0.081  0.4655 -0.0452  0.1329
  547SOL    HW1 2186   0.161   2.927  -0.004  1.1844  1.5233  0.7791
  547SOL    HW2 2187   0.184   2.795   0.058  1.2526 -1.9210 -0.3954
  547SOL     MW 2188   0.157   2.876   0.066  0.6642 -0.0857  0.1484
  548SOL     OW 2189   0.273   2.550   0.263  0.1220  0.3126 -0.1900
  548SOL    HW1 2190   0.309   2.576   0.175  0.6144  0.8781 -3.6139
  548SOL    HW2 2191   0.177   2.558   0.249  1.4803  1.9272 -0.3558
  548SOL     MW 2192   0.265   2.554   0.249  0.3662  0.6003 -0.6637
  549SOL     OW 2193   0.693   1.841   2.112  0.8304  0.0464 -0.4825
  549SOL    HW1 2194   0.702   1.933   2.081 -1.4627 -2.4238 -0.7546
  549SOL    HW2 2195   0.740   1.831   2.195 -3.7676 -1.7691 -0.7409
  549SOL     MW 2196   0.701   1.852   2.119 -0.0788 -0.5190 -0.5525
  550SOL     OW 2197   1.760   1.806   2.482  0.6881 -0.2871  0.3874
  550SOL    HW1 2198   1.743   1.814   2.385 -1.4429 -3.7473 -2.3461
  550SOL    HW2 2199   1.791   1.891   2.521  0.3779  3.1762  0.3284
  550SOL     MW 2200   1.762   1.818   2.474  0.3660 -0.2867  0.0189
  551SOL     OW 2201   0.869   2.369   0.204  0.1815 -0.5756 -0.0409
  551SOL    HW1 2202   0.962   2.360   0.208 -0.1246  0.8360  0.4517
  551SOL    HW2 2203   0.842   2.302   0.147 -1.1948  0.2429  1.2033
  551SOL     MW 2204   0.878   2.359   0.197 -0.0405 -0.2814  0.1882
  552SOL     OW 2205   1.679   1.814   2.207  0.0132  0.4007  0.2882
  552SOL    HW1 2206   1.592   1.775   2.231 -0.5639 -3.0248 -0.5922
  552SOL    HW2 2207   1.735   1.750   2.164  1.3301 -0.8207  1.8203
  552SOL     MW 2208   1.675   1.801   2.205  0.1108 -0.2125  0.3742
  553SOL     OW 2209   1.246   2.299   1.538  0.1362  0.6387 -0.2291
  553SOL    HW1 2210   1.270   2.205   1.526  1.4706  1.5457  1.0167
  553SOL    HW2 2211   1.317   2.358   1.512 -1.3765 -0.6428 -2.3862
  553SOL     MW 2212   1.258   2.294   1.533  0.1127  0.5893 -0.3493
  554SOL     OW 2213   0.547   2.876   2.690  0.3698 -0.6215  0.6632
  554SOL    HW1 2214   0.508   2.961   2.662  0.1385 -0.4364 -0.7700
  554SOL    HW2 2215   0.572   2.836   2.606  0.7969 -0.4765 -0.6157
  554SOL     MW 2216   0.546   2.882   2.675  0.3957 -0.5779  0.3054
  555SOL     OW 2217   0.598   2.426   2.643 -0.1246  0.0729 -0.0524
  555SOL    HW1 2218   0.606   2.330   2.661  1.3054  0.5377 -0.3806
  555SOL    HW2 2219   0.691   2.426   2.616  1.4964  1.5759 -0.0149
  555SOL     MW 2220   0.611   2.413   2.642  0.2779  0.3326 -0.0908
  556SOL     OW 2221   1.051   1.844   0.124  0.0880  0.2000  0.1502
  556SOL    HW1 2222   1.050   1.825   0.031  1.6154  0.7095 -1.0517
  556SOL    HW2 2223   1.136   1.882   0.145  0.0863 -3.5372 -0.0727
  556SOL     MW 2224   1.062   1.847   0.114  0.2893 -0.2258 -0.0378
  557SOL     OW 2225   0.991   2.634   0.441  0.4039 -0.2585 -0.2298
  557SOL    HW1 2226   1.082   2.631   0.409 -1.3069 -1.7323 -1.4693
  557SOL    HW2 2227   0.949   2.702   0.392  0.8858  0.9247 -1.0292
  557SOL     MW 2228   0.997   2.643   0.431  0.2417 -0.2968 -0.4988
  558SOL     OW 2229   0.265   2.119   3.075 -0.0978 -0.0764 -0.3778
  558SOL    HW1 2230   0.208   2.040   3.083 -0.7565 -0.1299 -0.9341
  558SOL    HW2 2231   0.208   2.197   3.111  0.0703  4.0747  2.6468
  558SOL     MW 2232   0.250   2.119   3.081 -0.1625  0.4642 -0.0521
  559SOL     OW 2233   1.237   2.230   2.028 -0.0613  0.3905  0.0051
  559SOL    HW1 2234   1.248   2.323   2.050  3.0781  1.5844  2.6365
  559SOL    HW2 2235   1.192   2.200   2.105  0.8649 -0.5379 -0.0987
  559SOL     MW 2236   1.232   2.239   2.041  0.4751  0.4256  0.3386
  560SOL     OW 2237   1.930   2.943   0.046  0.0236  0.3826 -0.2440
  560SOL    HW1 2238   1.999   2.990   0.004 -0.0793  2.0771 -0.6396
  560SOL    HW2 2239   1.868   2.912  -0.022  0.8108 -0.3481 -3.4644
  560SOL     MW 2240   1.931   2.945   0.032  0.1139  0.5098 -0.7211
  561SOL     OW 2241   0.429   2.068   0.184  0.8912  0.0199 -0.0324
  561SOL    HW1 2242   0.369   2.092   0.115 -0.6162 -1.3449 -3.2010
  561SOL    HW2 2243   0.444   2.153   0.235  0.2531 -1.7382 -0.7923
  561SOL     MW 2244   0.423   2.083   0.182  0.6081 -0.3921 -0.5507
  562SOL     OW 2245   0.856   2.114   2.135 -0.5249 -0.2588 -0.0771
  562SOL    HW1 2246   0.830   2.187   2.190 -0.1391  1.3654 -1.0259
  562SOL    HW2 2247   0.950   2.099   2.167  2.3881  1.9900  4.1734
  562SOL     MW 2248   0.865   2.122   2.146 -0.0896  0.2522  0.3585
  563SOL     OW 2249   1.280   0.300   0.475 -0.2012  0.3349  0.5048
  563SOL    HW1 2250   1.203   0.260   0.425 -0.3901 -2.6762 -2.5207
  563SOL    HW2 2251   1.281   0.239   0.549  0.9445  2.2628 -1.0637
  563SOL     MW 2252   1.270   0.286   0.478 -0.0750  0.1920 -0.1013
  564SOL     OW 2253   1.018   2.540   2.341 -0.3800  0.2334 -0.0058
  564SOL    HW1 2254   1.062   2.537   2.254  1.1979  2.6683  0.6723
  564SOL    HW2 2255   1.059   2.614   2.385  1.4789 -2.0329 -3.4392
  564SOL     MW 2256   1.029   2.549   2.336  0.0734  0.2556 -0.3693
  565SOL     OW 2257   2.920   2.656   2.685  0.2289  0.3746  0.5827
  565SOL    HW1 2258   2.974   2.732   2.684  0.9876 -0.7764  1.7235
  565SOL    HW2 2259   2.865   2.647   2.610 -1.3490  2.0289 -1.2602
  565SOL     MW 2260   2.920   2.665   2.675  0.1208  0.4410  0.4901
  566SOL     OW 2261   2.158   2.091   2.339  0.0244 -0.6246 -0.0378
  566SOL    HW1 2262   2.193   2.090   2.249 -1.1209  0.6296  0.1029
  566SOL    HW2 2263   2.202   2.164   2.383 -1.3446 -1.3881  1.9507
  566SOL     MW 2264   2.168   2.101   2.333 -0.3073 -0.5599  0.2431
  567SOL     OW 2265   1.126   2.879   0.148  0.3571 -0.1238 -0.4943
  567SOL    HW1 2266   1.114   2.963   0.187  1.4159  2.2202 -1.7651
  567SOL    HW2 2267   1.160   2.898   0.061  0.5494  1.0122 -3.1657
  567SOL     MW 2268   1.129   2.892   0.142  0.5222  0.3354 -1.0144
  568SOL     OW 2269   1.636   2.148   2.786 -0.2234  0.1626  0.0158
  568SOL    HW1 2270   1.693   2.205   2.839  0.7478 -2.7222 -1.4290
  568SOL    HW2 2271   1.695   2.085   2.746 -0.6332 -0.3870 -1.8614
  568SOL     MW 2272   1.651   2.148   2.788 -0.1493 -0.2905 -0.4225
  569SOL     OW 2273   0.029   2.231   2.509 -0.1323  0.4538 -0.0250
  569SOL    HW1 2274  -0.010   2.280   2.443 -0.7874 -0.6640 -1.4260
  569SOL    HW2 2275   0.097   2.282   2.547 -0.8854 -1.8047 -0.6498
  569SOL     MW 2276   0.032   2.244   2.505 -0.3181  0.0083 -0.2923
  570SOL     OW 2277   1.560   0.341   0.460  0.1286  0.1588  0.0451
  570SOL    HW1 2278   1.464   0.355   0.454 -0.8520 -1.2003 -1.1098
  570SOL    HW2 2279   1.600   0.393   0.528 -1.3937  2.4172  1.2890
  570SOL     MW 2280   1.553   0.350   0.468 -0.2016  0.2774  0.0568
  571SOL     OW 2281   1.441   2.437   1.961 -0.1768  0.4347  0.7036
  571SOL    HW1 2282   1.445   2.458   2.055  0.5780 -0.2772 -2.1484
  571SOL    HW2 2283   1.472   2.348   1.945 -0.1638 -0.1949 -0.6610
  571SOL     MW 2284   1.446   2.428   1.971 -0.0755  0.2577  0.1472
  572SOL     OW 2285   0.909   2.540   3.047  0.2353 -0.4616  0.3009
  572SOL    HW1 2286   0.865   2.598   2.978 -0.2456  2.1465  0.6513
  572SOL    HW2 2287   0.844   2.521   3.115 -1.2564 -0.1749 -1.9609
  572SOL     MW 2288   0.895   2.545   3.047 -0.0250 -0.0797  0.0487
  573SOL     OW 2289   1.147   2.421   0.207  0.3948  0.1291 -0.1956
  573SOL    HW1 2290   1.223   2.391   0.161 -1.4280  2.0695  1.1852
  573SOL    HW2 2291   1.173   2.510   0.238 -0.3621  1.2045  1.6232
  573SOL     MW 2292   1.161   2.429   0.205  0.0544  0.5270  0.2266
  574SOL     OW 2293   1.241   2.652   0.279  0.3865 -0.3706 -0.2926
  574SOL    HW1 2294   1.322   2.694   0.302  0.2238 -1.7807 -0.3926
  574SOL    HW2 2295   1.182   2.714   0.239  2.2144  1.5388 -0.2728
  574SOL     MW 2296   1.244   2.666   0.277  0.6062 -0.3047 -0.3032
  575SOL     OW 2297   3.084   2.263   1.834 -0.1267  0.3790 -0.6737
  575SOL    HW1 2298   3.085   2.190   1.778  0.1408  1.9094 -2.3639
  575SOL    HW2 2299   3.143   2.328   1.790 -0.8117 -0.2002 -2.4805
  575SOL     MW 2300   3.092   2.262   1.821 -0.1818  0.5045 -1.1351
  576SOL     OW 2301   2.767   1.845   2.067  0.9695 -0.0096 -0.6181
  576SOL    HW1 2302   2.791   1.912   2.005 -1.5240  1.1024  3.0536
  576SOL    HW2 2303   2.687   1.802   2.036  2.0062 -1.9955 -1.2122
  576SOL     MW 2304   2.760   1.848   2.054  0.7773 -0.1249 -0.2121
  577SOL     OW 2305   2.055   0.348   0.079 -0.0432 -0.0800  0.0915
  577SOL    HW1 2306   1.994   0.387   0.021  2.0577 -3.2610 -1.2165
  577SOL    HW2 2307   1.996   0.291   0.141 -0.5320 -3.6388  1.1184
  577SOL     MW 2308   2.039   0.346   0.080  0.1695 -0.9693  0.0544
  578SOL     OW 2309   1.923   2.204   2.364  0.1276  0.3842 -0.6189
  578SOL    HW1 2310   1.860   2.136   2.351  0.0719 -2.7251  1.1522
  578SOL    HW2 2311   2.009   2.151   2.348  1.6081 -0.5110  0.7378
  578SOL     MW 2312   1.926   2.188   2.360  0.3156 -0.1442 -0.2062
  579SOL     OW 2313   0.817   2.500   2.497 -0.2756 -0.3376  0.0623
  579SOL    HW1 2314   0.866   2.485   2.572  0.1938 -0.6993 -1.2534
  579SOL    HW2 2315   0.892   2.520   2.430  0.8703  1.9897  0.1975
  579SOL     MW 2316   0.833   2.501   2.498 -0.0625 -0.0783 -0.0935
  580SOL     OW 2317   0.878   2.863   3.055 -0.6714 -0.2816 -0.0523
  580SOL    HW1 2318   0.957   2.815   3.091 -2.7932  0.4258 -0.1987
  580SOL    HW2 2319   0.824   2.803   2.998 -0.0376 -0.5576  0.4780
  580SOL     MW 2320   0.882   2.848   3.052 -0.8677 -0.2247 -0.0017
  581SOL     OW 2321   1.063   2.553   1.765  0.1988  0.4022  0.3391
  581SOL    HW1 2322   1.141   2.609   1.786 -1.2996  2.2160  1.3124
  581SOL    HW2 2323   1.083   2.449   1.755 -0.1825 -0.6886 -5.8394
  581SOL     MW 2324   1.076   2.547   1.766 -0.0492  0.4976 -0.3477
  582SOL     OW 2325  -0.005   2.887   2.635  0.2982 -0.0780  0.1836
  582SOL    HW1 2326  -0.003   2.961   2.695  0.6280  0.1033 -1.5045
  582SOL    HW2 2327   0.086   2.849   2.635 -1.6184 -0.5847 -1.9102
  582SOL     MW 2328   0.008   2.892   2.643  0.0889 -0.1209 -0.3154
  583SOL     OW 2329   1.941   2.509   2.728 -0.0534 -0.0361 -0.1514
  583SOL    HW1 2330   2.003   2.573   2.676 -1.0084  4.2667 -1.7911
  583SOL    HW2 2331   1.955   2.420   2.692 -0.1147  0.2304 -0.9736
  583SOL     MW 2332   1.951   2.506   2.716 -0.1875  0.5668 -0.4762
  584SOL     OW 2333   0.163   1.835   2.111 -0.3754 -0.1875 -0.1701
  584SOL    HW1 2334   0.245   1.853   2.061 -0.2916 -0.6657  2.0599
  584SOL    HW2 2335   0.179   1.875   2.195  0.1537  0.0181 -0.0794
  584SOL     MW 2336   0.176   1.842   2.116 -0.2945 -0.2234  0.1361
  585SOL     OW 2337   1.448   2.551   0.065 -0.7861  0.2082 -0.7633
  585SOL    HW1 2338   1.409   2.553  -0.019  3.0585 -0.0822  1.0610
  585SOL    HW2 2339   1.391   2.618   0.114 -1.8553 -1.2478 -3.0865
  585SOL     MW 2340   1.435   2.560   0.060 -0.4199 -0.0222 -0.8291
  586SOL     OW 2341   1.261   2.970   2.329  0.3843  0.1949  0.0684
  586SOL    HW1 2342   1.334   2.933   2.288 -1.5281 -1.0521  1.8657
  586SOL    HW2 2343   1.275   3.000   2.419 -1.1106  1.5451 -0.4742
  586SOL     MW 2344   1.273   2.969   2.335 -0.0653  0.2085  0.2340
  587SOL     OW 2345   1.203   1.616   2.168  0.2455  0.3049 -0.3033
  587SOL    HW1 2346   1.222   1.543   2.229  1.7603  2.0774 -1.6204
  587SOL    HW2 2347   1.192   1.579   2.073  1.3488 -2.8294 -1.1718
  587SOL     MW 2348   1.204   1.601   2.164  0.5909  0.1252 -0.5917
  588SOL     OW 2349   1.382   2.214   2.748  0.3823 -0.0450  0.1940
  588SOL    HW1 2350   1.464   2.167   2.766 -3.1301 -0.5469  1.6716
  588SOL    HW2 2351   1.336   2.193   2.839 -1.0335  1.3496  3.2903
  588SOL     MW 2352   1.387   2.205   2.763 -0.2680  0.0728  0.7975
  589SOL     OW 2353   1.318   2.054   0.003  0.1461  0.3213 -0.1806
  589SOL    HW1 2354   1.337   2.144   0.032 -2.1622  3.0658 -0.0111
  589SOL    HW2 2355   1.327   1.991   0.072  0.7213  1.8265 -1.0780
  589SOL     MW 2356   1.322   2.058   0.016 -0.0826  0.8820 -0.2766
  590SOL     OW 2357   0.454   2.550   2.241  0.3692 -0.0459  0.2141
  590SOL    HW1 2358   0.410   2.585   2.159  0.3610  2.0027  0.5809
  590SOL    HW2 2359   0.537   2.509   2.220 -0.0365  0.7492 -0.8465
  590SOL     MW 2360   0.459   2.549   2.227  0.3146  0.3293  0.1226
  591SOL     OW 2361   2.217   0.679   3.009 -0.1067  0.3233 -0.2700
  591SOL    HW1 2362   2.124   0.652   2.981 -3.1297 -0.4400  0.4469
  591SOL    HW2 2363   2.267   0.688   2.927 -3.1119 -0.1394 -1.2851
  591SOL     MW 2364   2.212   0.677   2.994 -0.9020  0.1615 -0.3093
  592SOL     OW 2365   1.842   2.886   0.814 -0.7168  0.3130 -0.0214
  592SOL    HW1 2366   1.870   2.954   0.745  2.2693  0.5843 -2.0630
  592SOL    HW2 2367   1.887   2.808   0.792 -4.6470 -1.0527 -0.0525
  592SOL     MW 2368   1.852   2.885   0.802 -0.8414  0.1686 -0.2949
  593SOL     OW 2369   1.916   0.841   0.910  0.3086  0.4004  0.2547
  593SOL    HW1 2370   1.847   0.831   0.846  1.1006 -1.0791 -0.0954
  593SOL    HW2 2371   1.955   0.751   0.905 -1.3071 -1.4635 -2.3338
  593SOL     MW 2372   1.912   0.828   0.901  0.1999 -0.0407 -0.1330
  594SOL     OW 2373   2.770   1.107   1.398 -0.0768  0.4694 -0.4459
  594SOL    HW1 2374   2.848   1.158   1.398  0.4302 -0.2915 -1.1007
  594SOL    HW2 2375   2.753   1.084   1.303  1.7482 -2.0406 -1.0674
  594SOL     MW 2376   2.778   1.111   1.385  0.2308  0.0379 -0.6143
  595SOL     OW 2377   0.416   0.998   0.728 -0.2279 -0.1883  0.8131
  595SOL    HW1 2378   0.479   1.053   0.666  2.6161  2.6062 -2.7072
  595SOL    HW2 2379   0.460   1.019   0.816  0.6223 -0.2356 -0.3073
  595SOL     MW 2380   0.430   1.008   0.731  0.2595  0.1742  0.2008
  596SOL     OW 2381   2.418   1.338   0.616 -0.2720 -0.3681  0.1654
  596SOL    HW1 2382   2.443   1.425   0.581  1.0799  0.7044  1.6691
  596SOL    HW2 2383   2.494   1.311   0.674  0.3853  1.4020 -0.5277
  596SOL     MW 2384   2.431   1.346   0.619 -0.0069  0.0070  0.2723
  597SOL     OW 2385   2.293   0.675   1.714 -0.5658  0.5038  0.1666
  597SOL    HW1 2386   2.324   0.612   1.774  0.0850  0.9250  4.0139
  597SOL    HW2 2387   2.282   0.630   1.630  0.6885  0.4942  0.3159
  597SOL     MW 2388   2.296   0.661   1.711 -0.3144  0.5581  0.6939
  598SOL     OW 2389   2.620   1.009   2.806  0.2162 -0.2265  0.2963
  598SOL    HW1 2390   2.677   0.945   2.760 -1.0882 -0.2435 -0.1334
  598SOL    HW2 2391   2.679   1.065   2.851  1.5461 -2.4589  2.6495
  598SOL     MW 2392   2.635   1.008   2.806  0.2196 -0.5233  0.5501
  599SOL     OW 2393   2.906   0.370   2.085  0.0033  0.0957 -0.5524
  599SOL    HW1 2394   2.928   0.358   2.175 -0.9541 -1.8633 -0.9634
  599SOL    HW2 2395   2.964   0.436   2.044 -0.1097  0.4129  0.6421
  599SOL     MW 2396   2.916   0.377   2.091 -0.1379 -0.1209 -0.4490
  600SOL     OW 2397   1.850   1.621   0.864  0.1152 -0.1181  0.0571
  600SOL    HW1 2398   1.888   1.632   0.953 -0.4435  0.3049 -2.4985
  600SOL    HW2 2399   1.784   1.687   0.852 -0.3653  1.5236  1.0625
  600SOL     MW 2400   1.846   1.631   0.874 -0.0219  0.1543 -0.1474
  601SOL     OW 2401   2.455   0.735   0.891 -0.1049  0.4695  0.2794
  601SOL    HW1 2402   2.485   0.726   0.984 -0.4940 -3.3118 -0.6426
  601SOL    HW2 2403   2.363   0.765   0.884  3.3181  1.0018 -0.0073
  601SOL     MW 2404   2.446   0.737   0.902  0.2954  0.0408  0.1200
  602SOL     OW 2405   2.269   1.931   0.726 -0.4367 -0.0862 -0.5038
  602SOL    HW1 2406   2.195   1.875   0.755  0.6949  0.2998 -1.0248
  602SOL    HW2 2407   2.265   1.924   0.628 -0.5173 -0.3286 -2.2531
  602SOL     MW 2408   2.259   1.922   0.717 -0.2980 -0.0673 -0.8034
  603SOL     OW 2409   3.011   1.351   1.843 -0.3149 -0.5587 -0.1534
  603SOL    HW1 2410   3.077   1.343   1.908  1.0177  0.3300 -0.5611
  603SOL    HW2 2411   2.988   1.270   1.803 -1.6918 -0.8572  0.7871
  603SOL     MW 2412   3.016   1.340   1.846 -0.3208 -0.4808 -0.0831
  604SOL     OW 2413   2.065   1.512   0.495 -0.6727 -0.5766  0.5068
  604SOL    HW1 2414   2.089   1.449   0.561 -0.1642  0.3140  1.1453
  604SOL    HW2 2415   1.984   1.548   0.519 -1.5802  0.3176 -0.3045
  604SOL     MW 2416   2.058   1.508   0.507 -0.7254 -0.3411  0.4840
  605SOL     OW 2417   2.665   1.544   0.810 -0.1232 -0.1695 -0.4894
  605SOL    HW1 2418   2.635   1.618   0.753 -0.9208  1.2259 -1.2215
  605SOL    HW2 2419   2.593   1.497   0.853 -1.4628 -1.6496  1.2702
  605SOL     MW 2420   2.651   1.548   0.808 -0.4052 -0.1807 -0.3538
  606SOL     OW 2421   2.533   1.826   1.894 -0.3994 -0.3494  0.1890
  606SOL    HW1 2422   2.441   1.829   1.922 -1.5368  1.5912 -1.4172
  606SOL    HW2 2423   2.573   1.741   1.869  2.5080  0.4144  1.3791
  606SOL     MW 2424   2.526   1.815   1.894 -0.1658  0.0074  0.1341
  607SOL     OW 2425   2.387   1.037   2.975 -0.4203 -0.2962  0.2790
  607SOL    HW1 2426   2.458   1.064   2.911 -0.2228 -1.0413  0.8036
  607SOL    HW2 2427   2.418   1.048   3.060 -0.8045  1.5667  0.0032
  607SOL     MW 2428   2.401   1.042   2.978 -0.4450 -0.1487  0.3119
  608SOL     OW 2429   1.910   0.261   0.667  0.4048 -1.1953 -0.6568
  608SOL    HW1 2430   1.930   0.288   0.577  2.8646  2.0472  0.7014
  608SOL    HW2 2431   1.908   0.161   0.673 -1.1731 -0.2872  3.0768
  608SOL     MW 2432   1.912   0.252   0.656  0.5212 -0.6476  0.0150
  609SOL     OW 2433   2.123   1.956   3.001  0.3035 -0.2729  0.0599
  609SOL    HW1 2434   2.034   1.923   3.003  0.1677  0.9804 -3.3204
  609SOL    HW2 2435   2.158   1.932   3.086 -1.4727  1.5325  1.3488
  609SOL     MW 2436   2.116   1.948   3.013  0.0512  0.1307 -0.2160
  610SOL     OW 2437   1.843   1.082   1.377  0.4024  0.5457 -0.2821
  610SOL    HW1 2438   1.869   1.009   1.320  1.8278  2.0699  0.4891
  610SOL    HW2 2439   1.758   1.051   1.422 -0.5431 -0.5780  0.1296
  610SOL     MW 2440   1.835   1.068   1.375  0.4657  0.5985 -0.1260
  611SOL     OW 2441   2.516   1.796   0.728 -0.2096 -0.6393 -0.3787
  611SOL    HW1 2442   2.429   1.845   0.738 -3.3750  0.1425 -0.7543
  611SOL    HW2 2443   2.536   1.763   0.640  0.5123 -1.8099  1.4182
  611SOL     MW 2444   2.507   1.798   0.718 -0.5320 -0.6906 -0.1912
  612SOL     OW 2445   2.768   2.778   0.386  0.3658 -0.0868  0.5908
  612SOL    HW1 2446   2.806   2.837   0.455 -2.2744 -1.3084  0.3675
  612SOL    HW2 2447   2.833   2.791   0.318  1.8793 -1.5919  1.9013
  612SOL     MW 2448   2.782   2.788   0.386  0.2171 -0.4466  0.7342
  613SOL     OW 2449   1.639   1.000   1.103 -0.1681  0.1672  0.0250
  613SOL    HW1 2450   1.629   1.093   1.117  0.4041 -1.4423 -0.3412
  613SOL    HW2 2451   1.706   0.975   1.162 -1.9344 -0.6275  0.8520
  613SOL     MW 2452   1.646   1.009   1.113 -0.3256 -0.1500  0.0858
  614SOL     OW 2453   2.019   0.513   1.518 -0.7883  0.4020  0.3111
  614SOL    HW1 2454   2.044   0.430   1.566 -2.6742 -0.5464 -0.8660
  614SOL    HW2 2455   2.058   0.505   1.434 -0.3732 -3.3839  0.8343
  614SOL     MW 2456   2.027   0.501   1.514 -0.9824 -0.2227  0.2249
  615SOL     OW 2457   2.234   0.790   0.178 -0.3732 -0.1063 -0.3763
  615SOL    HW1 2458   2.296   0.760   0.248 -1.1060 -1.4393  1.8338
  615SOL    HW2 2459   2.262   0.749   0.093  2.7460  1.4511  0.3236
  615SOL     MW 2460   2.246   0.781   0.176 -0.0584 -0.0767  0.0077
  616SOL     OW 2461   2.631   0.358   1.633  0.1419 -0.3654  0.2564
  616SOL    HW1 2462   2.560   0.301   1.606  0.2128 -0.0182 -0.4589
  616SOL    HW2 2463   2.621   0.439   1.584 -0.2311  2.7052  2.1847
  616SOL     MW 2464   2.620   0.361   1.623  0.1020  0.0856  0.4165
  617SOL     OW 2465   2.916   0.568   1.749  0.3422 -0.0371  0.0527
  617SOL    HW1 2466   2.848   0.596   1.809 -1.0173  1.5252  1.3569
  617SOL    HW2 2467   2.897   0.477   1.720  2.6873  1.0478 -0.9391
  617SOL     MW 2468   2.905   0.560   1.753  0.4722  0.3122  0.0939
  618SOL     OW 2469   2.671   0.358   1.929  0.2167  0.2920  0.0872
  618SOL    HW1 2470   2.663   0.453   1.906 -0.6663  0.8243 -2.1866
  618SOL    HW2 2471   2.739   0.368   1.997  0.1992  0.3536 -1.8150
  618SOL     MW 2472   2.679   0.372   1.935  0.0979  0.3703 -0.4638
  619SOL     OW 2473   2.572   0.804   0.154  0.4221  0.7575 -0.2505
  619SOL    HW1 2474   2.654   0.827   0.200 -1.2771  1.2538  0.5782
  619SOL    HW2 2475   2.519   0.759   0.218 -0.8463  1.4812  0.2614
  619SOL     MW 2476   2.576   0.801   0.168  0.0306  0.9184 -0.0736
  620SOL     OW 2477   2.294   1.144   0.939  0.0768  0.3135  0.1675
  620SOL    HW1 2478   2.365   1.125   0.874  1.0181 -1.8117 -0.1245
  620SOL    HW2 2479   2.228   1.083   0.908 -1.4855 -1.3703 -0.2271
  620SOL     MW 2480   2.295   1.134   0.926 -0.0051 -0.1890  0.0769
  621SOL     OW 2481   1.512   2.155   1.981  0.5383 -0.4230  0.6590
  621SOL    HW1 2482   1.424   2.132   2.003  0.6946 -0.7930 -2.2288
  621SOL    HW2 2483   1.575   2.142   2.054 -0.8306  0.9801  0.9472
  621SOL     MW 2484   1.509   2.150   1.993  0.3783 -0.2867  0.3160
  622SOL     OW 2485   2.631   0.229   0.095  0.0147 -0.1992  0.1806
  622SOL    HW1 2486   2.703   0.254   0.154  0.3687  1.8081  1.8890
  622SOL    HW2 2487   2.625   0.134   0.089 -1.3399  1.6920 -0.4811
  622SOL     MW 2488   2.640   0.220   0.102 -0.1173  0.3152  0.3187
  623SOL     OW 2489   2.421   2.765   0.827 -0.3954  0.0232 -0.3418
  623SOL    HW1 2490   2.481   2.837   0.856 -0.1260  1.6053  0.4920
  623SOL    HW2 2491   2.347   2.785   0.884  0.4828 -2.2235 -1.0216
  623SOL     MW 2492   2.419   2.777   0.838 -0.2439 -0.0645 -0.3215
  624SOL     OW 2493   2.205   1.626   2.902 -0.1143  0.0122  0.2271
  624SOL    HW1 2494   2.126   1.596   2.953 -1.1464  1.0970  0.0869
  624SOL    HW2 2495   2.209   1.722   2.901  0.0797 -0.7954  1.6512
  624SOL     MW 2496   2.195   1.635   2.909 -0.2249  0.0487  0.3965
  625SOL     OW 2497   2.214   1.942   1.090 -0.5320 -0.0756  0.3395
  625SOL    HW1 2498   2.293   1.906   1.128  0.2296  2.5032 -0.8718
  625SOL    HW2 2499   2.212   1.919   0.997 -0.7000 -2.9606 -1.3062
  625SOL     MW 2500   2.224   1.934   1.083 -0.4537 -0.1160 -0.0374
  626SOL     OW 2501   0.107   1.581   2.420  0.1492  0.2444 -0.2356
  626SOL    HW1 2502   0.029   1.544   2.380  0.9367  0.0508  2.8547
  626SOL    HW2 2503   0.065   1.631   2.494 -0.3746 -0.4578 -0.8966
  626SOL     MW 2504   0.091   1.582   2.425  0.1840  0.1262  0.0849
  627SOL     OW 2505   2.447   0.824   2.587  0.2932  0.6133 -0.2022
  627SOL    HW1 2506   2.386   0.902   2.566 -1.6401  0.6112 -0.3023
  627SOL    HW2 2507   2.435   0.774   2.505  0.6265  0.6926  0.9052
  627SOL     MW 2508   2.437   0.828   2.574  0.0821  0.6235 -0.0693
  628SOL     OW 2509   2.322   1.379   1.353  0.6625 -0.2978  0.2161
  628SOL    HW1 2510   2.287   1.302   1.299  1.4911  0.0904  0.3713
  628SOL    HW2 2511   2.410   1.399   1.319 -1.4737 -2.0298  0.6733
  628SOL     MW 2512   2.329   1.372   1.341  0.4900 -0.4751  0.2969
  629SOL     OW 2513   2.047   0.549   1.224  0.3123  0.4065 -0.2637
  629SOL    HW1 2514   2.105   0.620   1.201 -2.6409 -0.2246 -0.8509
  629SOL    HW2 2515   1.964   0.590   1.248 -0.6306  0.1592 -1.3500
  629SOL     MW 2516   2.044   0.563   1.224 -0.2017  0.2906 -0.4845
  630SOL     OW 2517   2.491   1.832   3.094 -0.0830 -0.1867  0.1032
  630SOL    HW1 2518   2.442   1.888   3.035 -1.1872 -0.0922  0.8272
  630SOL    HW2 2519   2.463   1.742   3.095  0.0047 -3.8001 -3.4261
  630SOL     MW 2520   2.481   1.827   3.086 -0.2171 -0.6510 -0.2669
  631SOL     OW 2521   1.978   1.769   1.623 -0.2648 -0.8614 -0.1132
  631SOL    HW1 2522   1.984   1.684   1.682  2.5795 -1.1457 -0.9726
  631SOL    HW2 2523   1.963   1.736   1.537  0.3126 -1.5554  3.3572
  631SOL     MW 2524   1.977   1.753   1.620  0.1867 -0.9904  0.2313
  632SOL     OW 2525   0.168   2.070   1.597 -0.1854  0.0517  0.1583
  632SOL    HW1 2526   0.080   2.068   1.643  1.2423 -1.6398 -1.7338
  632SOL    HW2 2527   0.157   1.987   1.542  1.7323  1.0515 -0.3257
  632SOL     MW 2528   0.155   2.059   1.595  0.2560 -0.0396 -0.1552
  633SOL     OW 2529   2.427   0.693   0.354 -0.4472 -0.3152 -0.0220
  633SOL    HW1 2530   2.515   0.671   0.392  0.3916 -2.0271  0.0162
  633SOL    HW2 2531   2.371   0.609   0.361  0.6487  3.1423 -1.4960
  633SOL     MW 2532   2.431   0.679   0.360 -0.1919 -0.0849 -0.2114
  634SOL     OW 2533   2.615   3.091   0.610  1.0229  0.1875  0.0316
  634SOL    HW1 2534   2.661   3.174   0.626  0.2545  1.2894 -1.3779
  634SOL    HW2 2535   2.586   3.093   0.517  0.3400 -0.3189  0.8863
  634SOL     MW 2536   2.617   3.102   0.600  0.8315  0.2661 -0.0416
  635SOL     OW 2537   2.630   0.092   1.837  0.1015  0.5141 -0.1448
  635SOL    HW1 2538   2.688   0.070   1.760 -0.2283 -2.1317 -0.2808
  635SOL    HW2 2539   2.642   0.188   1.848 -0.4995  2.4735  0.7295
  635SOL     MW 2540   2.639   0.102   1.829 -0.0213  0.4236 -0.0474
  636SOL     OW 2541   2.918   1.680   1.020 -0.2785 -0.1843  0.3314
  636SOL    HW1 2542   2.867   1.740   0.958  0.1032  0.1451  1.2337
  636SOL    HW2 2543   2.936   1.733   1.100 -1.1025 -3.1406  1.0348
  636SOL     MW 2544   2.913   1.695   1.023 -0.3369 -0.5309  0.5432
  637SOL     OW 2545   2.907   1.486   0.701  0.5986  0.3087  0.2115
  637SOL    HW1 2546   2.956   1.558   0.736  0.6359 -0.7606 -0.8483
  637SOL    HW2 2547   2.822   1.498   0.746  0.3941  0.2998  1.3978
  637SOL     MW 2548   2.902   1.497   0.711  0.5766  0.1664  0.2282
  638SOL     OW 2549   2.666   0.686   0.481  0.2618 -0.3849  0.0149
  638SOL    HW1 2550   2.756   0.666   0.451  1.7087 -0.0250  1.8835
  638SOL    HW2 2551   2.661   0.645   0.568  0.4056  0.1493  0.3237
  638SOL     MW 2552   2.677   0.678   0.488  0.4717 -0.2669  0.3022
  639SOL     OW 2553   1.912   3.087   0.635 -0.8107 -0.0788  0.0389
  639SOL    HW1 2554   1.826   3.080   0.599 -1.0664 -1.2601  0.2403
  639SOL    HW2 2555   1.969   3.070   0.563  3.7495 -1.0494  2.2415
  639SOL     MW 2556   1.908   3.084   0.621 -0.2427 -0.3627  0.3561
  640SOL     OW 2557   0.387   1.385   0.115  0.1779 -0.7677  0.1387
  640SOL    HW1 2558   0.437   1.404   0.034  0.5344  0.1756 -0.8576
  640SOL    HW2 2559   0.364   1.289   0.108 -1.7131 -0.2487 -2.3356
  640SOL     MW 2560   0.390   1.375   0.104 -0.0245 -0.5748 -0.3192
  641SOL     OW 2561   2.307   0.460   0.383  0.5257  0.5450 -0.5282
  641SOL    HW1 2562   2.327   0.424   0.298 -2.1367 -1.2154 -0.5169
  641SOL    HW2 2563   2.364   0.411   0.449  2.7419 -1.1485  0.3596
  641SOL     MW 2564   2.317   0.449   0.381  0.4668  0.0893 -0.4096
  642SOL     OW 2565   3.086   0.034   0.480 -0.1427 -0.1418 -0.0264
  642SOL    HW1 2566   3.058   0.126   0.490 -1.2857 -0.7723  0.9807
  642SOL    HW2 2567   3.011  -0.015   0.509  2.3394 -0.6292  2.0378
  642SOL     MW 2568   3.072   0.040   0.485  0.0340 -0.2893  0.3788
  643SOL     OW 2569   2.086   0.273   1.649 -0.6728  0.2644 -0.6835
  643SOL    HW1 2570   2.160   0.250   1.702 -0.9525  1.0183 -0.4793
  643SOL    HW2 2571   2.089   0.209   1.582 -0.0926  1.6408  0.8652
  643SOL     MW 2572   2.097   0.262   1.647 -0.6332  0.5455 -0.4522
  644SOL     OW 2573   2.734   1.837   0.912 -0.4023  0.1517 -0.1871
  644SOL    HW1 2574   2.694   1.796   0.989 -0.5258 -2.0218  1.8006
  644SOL    HW2 2575   2.677   1.827   0.837  0.4225  0.4296  0.5489
  644SOL     MW 2576   2.721   1.830   0.912 -0.3098 -0.0984  0.1722
  645SOL     OW 2577   2.762   0.912   0.609 -0.2494  0.0358  0.8750
  645SOL    HW1 2578   2.806   0.883   0.688 -1.0800  0.8396 -0.3099
  645SOL    HW2 2579   2.728   0.835   0.560  0.6026  1.4791 -1.2684
  645SOL     MW 2580   2.763   0.898   0.613 -0.2466  0.3323  0.4358
  646SOL     OW 2581   0.082   2.330   0.884  0.3683 -0.0336  0.5155
  646SOL    HW1 2582   0.125   2.242   0.873  1.6728 -1.3743 -2.3681
  646SOL    HW2 2583   0.039   2.361   0.794  1.6659 -0.8290 -0.8586
  646SOL     MW 2584   0.082   2.323   0.871  0.7116 -0.3154 -0.0463
  647SOL     OW 2585   2.748   0.595   3.012 -0.0250  0.1290 -0.3036
  647SOL    HW1 2586   2.684   0.533   3.014  3.3374 -2.1777  1.1304
  647SOL    HW2 2587   2.695   0.681   2.999 -3.7693  2.1544  1.5321
  647SOL     MW 2588   2.733   0.599   3.011 -0.0754  0.0919  0.1278
  648SOL     OW 2589   2.223   0.738   1.098  0.3178 -0.1168  0.0348
  648SOL    HW1 2590   2.202   0.773   1.014  1.3322 -0.8081  2.6911
  648SOL    HW2 2591   2.237   0.814   1.159 -3.0688  1.7495 -1.8135
  648SOL     MW 2592   2.222   0.753   1.095  0.0048  0.0382  0.1414
  649SOL     OW 2593   2.363   2.685   1.202 -0.0317 -0.3095 -0.0938
  649SOL    HW1 2594   2.428   2.754   1.209 -1.5639  1.9647  0.4172
  649SOL    HW2 2595   2.410   2.602   1.192 -0.9871 -1.8941 -1.3082
  649SOL     MW 2596   2.378   2.683   1.202 -0.3599 -0.2185 -0.1866
  650SOL     OW 2597   2.734   0.229   0.639  0.0443 -0.0898  0.0150
  650SOL    HW1 2598   2.730   0.274   0.726 -0.0493 -0.8411 -0.7485
  650SOL    HW2 2599   2.817   0.248   0.598 -2.1832  0.4920  0.8774
  650SOL     MW 2600   2.744   0.237   0.645 -0.2620 -0.1122  0.0280
  651SOL     OW 2601   3.046   0.287   0.821  0.1653  0.1786  0.2524
  651SOL    HW1 2602   3.096   0.346   0.765 -0.3921  0.8037 -0.2703
  651SOL    HW2 2603   2.962   0.332   0.845  0.7428  1.9526  0.8741
  651SOL     MW 2604   3.042   0.300   0.817  0.1680  0.4951  0.2654
  652SOL     OW 2605   2.399   1.448   2.980 -0.1169 -0.7508  0.3831
  652SOL    HW1 2606   2.478   1.451   2.926 -1.5730 -1.5411 -1.3334
  652SOL    HW2 2607   2.340   1.510   2.936 -0.7501  0.7429 -0.8036
  652SOL     MW 2608   2.402   1.457   2.967 -0.3926 -0.6580  0.0000
  653SOL     OW 2609   1.982   0.370   0.420 -0.4844  0.4263  0.1393
  653SOL    HW1 2610   1.961   0.283   0.378  1.2995 -0.8736 -0.1690
  653SOL    HW2 2611   2.062   0.400   0.383 -1.7136 -2.2114 -1.4653
  653SOL     MW 2612   1.990   0.362   0.410 -0.4112 -0.0932 -0.1131
  654SOL     OW 2613   2.456   0.981   0.749  0.0546 -0.5966 -0.4529
  654SOL    HW1 2614   2.382   0.982   0.688  0.7164  2.4407  0.8488
  654SOL    HW2 2615   2.483   0.890   0.764  1.2104 -1.2987 -1.5014
  654SOL     MW 2616   2.450   0.969   0.743  0.2944 -0.2885 -0.4195
  655SOL     OW 2617   3.072   0.932   0.441  0.5249 -0.3406  0.2584
  655SOL    HW1 2618   3.098   0.950   0.528 -0.6209  0.1301 -0.9997
  655SOL    HW2 2619   3.041   0.840   0.440 -2.9703  0.5797 -0.6231
  655SOL     MW 2620   3.071   0.922   0.452 -0.0874 -0.1570 -0.0239
  656SOL     OW 2621   1.971   2.728   1.232  0.1033 -0.0015 -0.5411
  656SOL    HW1 2622   1.975   2.822   1.255  0.6358 -2.6467  3.6188
  656SOL    HW2 2623   2.001   2.678   1.307  0.5909  1.7925 -1.4116
  656SOL     MW 2624   1.975   2.734   1.245  0.2379 -0.1138 -0.1071
  657SOL     OW 2625   0.213   1.634   1.281 -0.3581 -0.5004 -0.1242
  657SOL    HW1 2626   0.143   1.568   1.299 -1.4395 -0.1129 -0.0035
  657SOL    HW2 2627   0.226   1.633   1.190 -0.3776 -2.7207  0.9585
  657SOL     MW 2628   0.205   1.625   1.271 -0.5034 -0.7422  0.0346
  658SOL     OW 2629   2.664   1.354   0.268  0.3884  0.3192  0.1590
  658SOL    HW1 2630   2.620   1.295   0.330  0.6403  1.2846  0.2121
  658SOL    HW2 2631   2.732   1.406   0.321 -0.1705  1.3053 -2.7447
  658SOL     MW 2632   2.667   1.353   0.283  0.3479  0.5767 -0.2171
  659SOL     OW 2633   2.217   1.555   1.008 -0.4957  0.6546 -0.4501
  659SOL    HW1 2634   2.302   1.514   0.983  1.8046  1.0487 -1.2959
  659SOL    HW2 2635   2.224   1.558   1.100  1.2667  0.5772  2.6086
  659SOL     MW 2636   2.229   1.550   1.017  0.0403  0.6964 -0.1581
  660SOL     OW 2637   2.021   1.555   1.778 -0.0268 -0.1995 -0.4201
  660SOL    HW1 2638   2.058   1.554   1.864 -0.3116  1.9088  1.9718
  660SOL    HW2 2639   2.007   1.465   1.772  1.6791  4.1195  1.1689
  660SOL     MW 2640   2.024   1.543   1.789  0.1607  0.6485  0.1052
  661SOL     OW 2641   2.315   1.071   0.148 -0.1492 -0.2010 -0.6171
  661SOL    HW1 2642   2.382   1.087   0.213  2.2405  1.2549 -0.2647
  661SOL    HW2 2643   2.273   0.989   0.170 -0.1770 -0.2571 -3.3345
  661SOL     MW 2644   2.319   1.062   0.159  0.1624 -0.0163 -0.9291
  662SOL     OW 2645   2.584   2.991   0.854 -0.7564 -0.4258  0.1092
  662SOL    HW1 2646   2.524   3.060   0.875 -0.0618  0.4986 -1.6439
  662SOL    HW2 2647   2.586   2.993   0.756  0.8883  2.2234  0.1770
  662SOL     MW 2648   2.576   3.001   0.844 -0.4477  0.0457 -0.1131
  663SOL     OW 2649   2.811   1.519   0.422 -0.0170  0.4518 -0.4805
  663SOL    HW1 2650   2.882   1.548   0.375 -1.4163 -1.5029  0.1328
  663SOL    HW2 2651   2.849   1.500   0.503 -1.0276 -1.8272 -1.5309
  663SOL     MW 2652   2.825   1.520   0.426 -0.3350 -0.1068 -0.5382
  664SOL     OW 2653   2.465   1.571   1.641 -0.2882  0.3381 -0.0970
  664SOL    HW1 2654   2.452   1.666   1.619 -3.3298  1.3784  0.7004
  664SOL    HW2 2655   2.381   1.534   1.673  1.6968  2.1448 -0.3329
  664SOL     MW 2656   2.452   1.579   1.642 -0.4276  0.7138 -0.0229
  665SOL     OW 2657   2.866   0.824   2.032 -0.0388  0.0138 -0.5410
  665SOL    HW1 2658   2.859   0.866   1.944 -0.2321 -0.1918 -0.3843
  665SOL    HW2 2659   2.949   0.773   2.029  0.8022 -1.7512  1.1390
  665SOL     MW 2660   2.876   0.823   2.020  0.0467 -0.2462 -0.2986
  666SOL     OW 2661   2.791   3.036   1.681  0.2836  0.0348 -0.0085
  666SOL    HW1 2662   2.794   3.013   1.585 -1.4743 -1.4526 -1.5381
  666SOL    HW2 2663   2.745   2.964   1.726 -1.4891 -0.0737  0.9399
  666SOL     MW 2664   2.785   3.024   1.674 -0.1822 -0.1758 -0.0852
  667SOL     OW 2665   1.956   2.662   1.756 -0.7858  0.1244 -0.8595
  667SOL    HW1 2666   2.019   2.602   1.801 -2.5247  1.8217 -0.0577
  667SOL    HW2 2667   2.017   2.720   1.705 -2.0267  1.1696  1.1221
  667SOL     MW 2668   1.973   2.662   1.755 -1.1790  0.4863 -0.4922
  668SOL     OW 2669   2.678   0.610   0.760  0.3399  0.3937  0.7162
  668SOL    HW1 2670   2.752   0.630   0.812  1.1762  0.4639 -4.1289
  668SOL    HW2 2671   2.615   0.665   0.806  2.4732  0.8496 -1.5389
  668SOL     MW 2672   2.680   0.620   0.773  0.7317  0.4631 -0.2206
  669SOL     OW 2673   0.154   0.885   0.729 -0.0805  0.7188 -0.0593
  669SOL    HW1 2674   0.111   0.953   0.781 -3.0186  0.5479  1.5099
  669SOL    HW2 2675   0.244   0.913   0.725 -3.0837 -0.9160  0.6245
  669SOL     MW 2676   0.160   0.898   0.736 -0.8644  0.4806  0.2379
  670SOL     OW 2677   2.888   0.324   0.237  0.0164 -0.3747  0.2056
  670SOL    HW1 2678   2.904   0.272   0.158 -1.0026 -0.4950  0.2670
  670SOL    HW2 2679   2.898   0.419   0.219  0.3749 -1.4774  0.3641
  670SOL     MW 2680   2.892   0.330   0.224 -0.0707 -0.5361  0.2346
  671SOL     OW 2681   2.182   3.063   1.597 -0.9883  1.0838  0.1677
  671SOL    HW1 2682   2.193   3.064   1.498 -0.2199 -0.8562 -0.7868
  671SOL    HW2 2683   2.088   3.066   1.605  2.8601  0.2450 -1.5721
  671SOL     MW 2684   2.171   3.064   1.585 -0.3792  0.7172 -0.1878
  672SOL     OW 2685   1.915   1.662   1.361 -0.1895  0.6213 -0.1001
  672SOL    HW1 2686   1.834   1.714   1.374 -1.0865  0.3142 -0.6264
  672SOL    HW2 2687   1.935   1.674   1.268  0.7666  1.4195 -2.7297
  672SOL     MW 2688   1.907   1.671   1.350 -0.1817  0.6861 -0.5165
  673SOL     OW 2689   2.778   1.161   0.475  0.0137  0.3244 -0.1618
  673SOL    HW1 2690   2.766   1.078   0.522  3.3593 -2.2693 -0.3995
  673SOL    HW2 2691   2.859   1.191   0.517  2.2724 -2.0794 -0.0736
  673SOL     MW 2692   2.787   1.154   0.487  0.7531 -0.3350 -0.1815
  674SOL     OW 2693   2.428   0.066   1.285 -0.7533 -0.1728  0.1842
  674SOL    HW1 2694   2.420   0.122   1.206  0.8808  0.4807  0.6385
  674SOL    HW2 2695   2.451  -0.020   1.256 -0.0589 -1.1026  1.3426
  674SOL     MW 2696   2.430   0.062   1.271 -0.4461 -0.2093  0.3970
  675SOL     OW 2697   2.941   0.939   1.102 -0.0768  1.1525 -0.2668
  675SOL    HW1 2698   3.005   0.888   1.154 -0.9702 -0.4619 -1.2901
  675SOL    HW2 2699   2.990   0.956   1.019  3.0706  0.2872 -3.5417
  675SOL     MW 2700   2.956   0.935   1.098  0.2206  0.8253 -0.8339
  676SOL     OW 2701   2.875   1.523   1.671 -0.2456  0.2758  0.2912
  676SOL    HW1 2702   2.823   1.442   1.669 -0.4968  0.9103 -2.4234
  676SOL    HW2 2703   2.942   1.499   1.730 -0.1084  2.7204 -1.1711
  676SOL     MW 2704   2.877   1.509   1.678 -0.2607  0.6820 -0.2599
  677SOL     OW 2705   2.479   0.832   1.833 -0.1469  0.0467 -0.1073
  677SOL    HW1 2706   2.416   0.782   1.775 -1.3391  0.0462  3.1579
  677SOL    HW2 2707   2.501   0.898   1.774  0.5501  1.2018  0.7782
  677SOL     MW 2708   2.474   0.834   1.818 -0.2122  0.1990  0.4404
  678SOL     OW 2709   2.523   1.569   0.532 -0.2234  0.0305 -0.0174
  678SOL    HW1 2710   2.459   1.601   0.464 -0.7973 -1.7874  1.0822
  678SOL    HW2 2711   2.609   1.560   0.487  2.0643 -3.3400  2.0099
  678SOL     MW 2712   2.526   1.572   0.517  0.0027 -0.6541  0.3951
  679SOL     OW 2713   2.368   0.537   1.228  0.1362  0.0776 -0.1290
  679SOL    HW1 2714   2.305   0.469   1.196 -1.5241 -1.1475  1.2018
  679SOL    HW2 2715   2.340   0.624   1.202 -0.0953 -0.9941 -1.2258
  679SOL     MW 2716   2.356   0.539   1.220 -0.1134 -0.2254 -0.0981
  680SOL     OW 2717   2.416   0.215   1.524  0.2050  0.0108 -0.3921
  680SOL    HW1 2718   2.350   0.183   1.587  2.8854 -0.9073 -1.1998
  680SOL    HW2 2719   2.409   0.150   1.449  0.2532  1.1183  0.8643
  680SOL     MW 2720   2.406   0.202   1.523  0.5650  0.0358 -0.3329
  681SOL     OW 2721   0.315   0.511   1.520 -0.5267 -0.0064  0.3086
  681SOL    HW1 2722   0.330   0.421   1.560 -0.8906 -3.4363  1.2210
  681SOL    HW2 2723   0.396   0.553   1.542 -0.4029 -2.3751 -0.6497
  681SOL     MW 2724   0.328   0.505   1.529 -0.5583 -0.7715  0.3026
  682SOL     OW 2725   0.200   2.977   1.522 -0.6266  0.1147 -0.5678
  682SOL    HW1 2726   0.220   3.067   1.482 -0.1973  3.7899 -3.5064
  682SOL    HW2 2727   0.123   2.995   1.582  0.6291 -0.8096  1.2167
  682SOL     MW 2728   0.192   2.991   1.524 -0.4043  0.4776 -0.7201
  683SOL     OW 2729   1.937   0.786   2.993 -0.0479 -0.4275  0.0505
  683SOL    HW1 2730   1.855   0.788   2.936 -2.9715  0.6032  1.5744
  683SOL    HW2 2731   1.959   0.879   3.014  0.0284  0.3382  3.9160
  683SOL     MW 2732   1.929   0.799   2.988 -0.4236 -0.1904  0.7616
  684SOL     OW 2733   2.108   1.734   0.813  0.0087 -0.2360 -0.0012
  684SOL    HW1 2734   2.014   1.741   0.829 -0.5117 -0.3222 -1.2652
  684SOL    HW2 2735   2.151   1.677   0.879  0.8234 -1.2838  0.3293
  684SOL     MW 2736   2.102   1.727   0.824  0.0475 -0.3856 -0.1244
  685SOL     OW 2737   2.662   1.745   1.177 -0.7393 -0.0664  0.1859
  685SOL    HW1 2738   2.737   1.762   1.231  1.2392 -1.4432  0.5777
  685SOL    HW2 2739   2.635   1.657   1.203 -0.3824 -0.2270 -0.2451
  685SOL     MW 2740   2.668   1.736   1.188 -0.4312 -0.2692  0.1807
  686SOL     OW 2741   2.904   0.691   1.516  1.2299 -0.0776  0.0731
  686SOL    HW1 2742   2.929   0.652   1.604  0.8681 -1.1342 -1.4572
  686SOL    HW2 2743   2.984   0.665   1.469  2.4281  3.3462  0.6872
  686SOL     MW 2744   2.918   0.682   1.522  1.3403  0.2347 -0.0478
  687SOL     OW 2745   2.210   0.324   1.216 -0.3479  0.4531  0.6195
  687SOL    HW1 2746   2.187   0.273   1.137 -0.7728  0.5273 -1.4647
  687SOL    HW2 2747   2.143   0.393   1.223  1.4774  0.4243  1.7507
  687SOL     MW 2748   2.198   0.326   1.206 -0.1632  0.4591  0.4938
  688SOL     OW 2749   2.359   0.523   1.490 -0.1124  0.0520 -0.6108
  688SOL    HW1 2750   2.377   0.434   1.522  0.2137  0.5424  1.3333
  688SOL    HW2 2751   2.362   0.526   1.392  0.6570 -1.6436  0.8375
  688SOL     MW 2752   2.362   0.512   1.481  0.0321 -0.1070 -0.1632
  689SOL     OW 2753   2.568   0.783   2.977  0.3558  0.2888 -0.0489
  689SOL    HW1 2754   2.582   0.865   2.921  0.7673 -2.8958 -2.7986
  689SOL    HW2 2755   2.551   0.816   3.064  1.3115  1.6752 -3.2656
  689SOL     MW 2756   2.567   0.798   2.981  0.5362  0.0515 -0.8361
  690SOL     OW 2757   2.069   1.019   1.945 -0.6234  0.4522 -0.0772
  690SOL    HW1 2758   2.021   0.938   1.966  1.7899 -0.9298  0.0307
  690SOL    HW2 2759   2.106   0.999   1.860 -1.3761  1.1674  1.3256
  690SOL     MW 2760   2.067   1.005   1.936 -0.4043  0.3642  0.1221
  691SOL     OW 2761   2.463   0.380   0.867 -0.1028  0.1540 -0.3364
  691SOL    HW1 2762   2.535   0.421   0.907  0.0402 -1.8386 -2.0480
  691SOL    HW2 2763   2.396   0.448   0.864 -2.3151 -2.0166  0.7050
  691SOL     MW 2764   2.464   0.394   0.872 -0.3758 -0.3953 -0.4248
  692SOL     OW 2765   2.818   1.664   1.427  0.6008  0.3199 -0.8316
  692SOL    HW1 2766   2.839   1.610   1.496 -4.3273 -0.6791  0.8268
  692SOL    HW2 2767   2.838   1.749   1.466  0.2369 -3.2225 -0.8800
  692SOL     MW 2768   2.823   1.668   1.441 -0.0974 -0.2793 -0.6192
  693SOL     OW 2769   2.299   0.484   0.092  0.6678 -0.7479  0.4630
  693SOL    HW1 2770   2.229   0.421   0.098  2.8372  0.5477 -1.8974
  693SOL    HW2 2771   2.273   0.558   0.038  2.1038 -0.7869 -2.6444
  693SOL     MW 2772   2.286   0.486   0.086  1.1435 -0.5821 -0.2584
  694SOL     OW 2773   1.971   1.266   1.195  0.1268 -0.2460  0.3143
  694SOL    HW1 2774   2.059   1.226   1.206  2.0352 -0.2664  1.2533
  694SOL    HW2 2775   1.913   1.207   1.244 -1.3229 -0.8361 -0.1144
  694SOL     MW 2776   1.975   1.253   1.203  0.1873 -0.3265  0.3816
  695SOL     OW 2777   3.050   1.501   1.324  0.1637  0.3120  1.1876
  695SOL    HW1 2778   3.023   1.458   1.243 -1.9657 -1.3870  1.4390
  695SOL    HW2 2779   2.974   1.545   1.360 -2.0834  0.5428  0.1040
  695SOL     MW 2780   3.037   1.501   1.318 -0.4138  0.1183  1.0778
  696SOL     OW 2781   2.025   1.360   0.947 -0.4094 -0.2414  0.1914
  696SOL    HW1 2782   2.086   1.432   0.972  1.0580  0.8096 -2.0748
  696SOL    HW2 2783   1.973   1.344   1.026 -0.3883 -0.5044 -1.4518
  696SOL     MW 2784   2.027   1.367   0.961 -0.2130 -0.1374 -0.3244
  697SOL     OW 2785   2.873   1.019   2.267 -0.4114 -0.6779  0.0346
  697SOL    HW1 2786   2.849   1.104   2.244  0.5507 -0.1399  0.4748
  697SOL    HW2 2787   2.880   0.968   2.189 -0.2944  0.1379 -2.5096
  697SOL     MW 2788   2.871   1.023   2.254 -0.2690 -0.4993 -0.2430
  698SOL     OW 2789   2.519   0.399   3.011 -0.1642 -0.0934  0.4961
  698SOL    HW1 2790   2.468   0.471   3.047  1.7996  1.3559 -2.0242
  698SOL    HW2 2791   2.554   0.340   3.078  1.2338 -1.6958  2.0064
  698SOL     MW 2792   2.517   0.401   3.025  0.2793 -0.1136  0.3628
  699SOL     OW 2793   1.828   1.641   2.036  0.1364 -0.1364 -0.1113
  699SOL    HW1 2794   1.782   1.556   2.053  0.0064  0.4580  0.4915
  699SOL    HW2 2795   1.922   1.630   2.045  0.5897 -2.0831 -1.9027
  699SOL     MW 2796   1.834   1.628   2.039  0.1790 -0.3148 -0.2681
  700SOL     OW 2797   2.697   0.877   1.534  0.2999 -0.2733  0.4224
  700SOL    HW1 2798   2.724   0.957   1.485 -2.6953  1.3129 -2.6660
  700SOL    HW2 2799   2.768   0.814   1.546  0.5121  2.5842  0.5044
  700SOL     MW 2800   2.710   0.879   1.529 -0.0673  0.3130  0.0257
  701SOL     OW 2801   1.669   1.302   2.571  0.1195 -0.0869  0.1174
  701SOL    HW1 2802   1.764   1.295   2.597  1.6321  0.8420 -1.6249
  701SOL    HW2 2803   1.640   1.369   2.635  0.4306  1.7254  0.0988
  701SOL     MW 2804   1.678   1.310   2.583  0.3601  0.2748 -0.1149
  702SOL     OW 2805   2.228   0.512   0.789  0.1364 -0.4142 -0.8537
  702SOL    HW1 2806   2.220   0.431   0.748  0.0284 -0.3763  0.4145
  702SOL    HW2 2807   2.238   0.575   0.723 -2.3349 -0.6297 -1.3298
  702SOL     MW 2808   2.229   0.510   0.775 -0.2039 -0.4376 -0.7492
  703SOL     OW 2809   2.685   1.278   0.993  0.0961  0.6172  0.1403
  703SOL    HW1 2810   2.694   1.250   0.899  3.8875 -2.0121 -0.5746
  703SOL    HW2 2811   2.694   1.193   1.039  1.4299  0.6963 -0.9885
  703SOL     MW 2812   2.687   1.263   0.987  0.7724  0.2807 -0.1029
  704SOL     OW 2813   3.097   1.309   0.207  0.0642 -0.3380  0.4826
  704SOL    HW1 2814   3.020   1.257   0.181  0.1743 -1.0171 -0.8885
  704SOL    HW2 2815   3.159   1.244   0.211  1.9051  0.8563  1.1173
  704SOL     MW 2816   3.095   1.294   0.204  0.3216 -0.2700  0.3854
  705SOL     OW 2817   2.235   1.625   1.307  0.1752 -0.0255  0.8113
  705SOL    HW1 2818   2.152   1.644   1.347  0.3890  0.1244 -0.9134
  705SOL    HW2 2819   2.269   1.542   1.334 -2.9536 -0.1473 -0.1585
  705SOL     MW 2820   2.228   1.616   1.316 -0.2094 -0.0218  0.4558
  706SOL     OW 2821   2.984   1.228   0.636 -0.0653  0.3745 -0.2247
  706SOL    HW1 2822   3.075   1.214   0.605 -2.4788 -3.1498 -1.4266
  706SOL    HW2 2823   2.968   1.323   0.673 -0.1139  4.3138  0.6038
  706SOL     MW 2824   2.994   1.239   0.637 -0.3901  0.4292 -0.2740
  707SOL     OW 2825   2.439   0.104   0.997  0.8251 -0.0884  0.5668
  707SOL    HW1 2826   2.437   0.186   0.951 -1.0838  0.8283  0.1008
  707SOL    HW2 2827   2.347   0.076   0.999  1.6209  0.8899  0.7079
  707SOL     MW 2828   2.427   0.111   0.991  0.6782  0.1617  0.5239
  708SOL     OW 2829   2.523   1.543   0.126  0.3539 -0.1235  0.0635
  708SOL    HW1 2830   2.557   1.472   0.191  0.9530 -1.9954 -1.3173
  708SOL    HW2 2831   2.494   1.502   0.048  2.2962 -1.2339 -3.3099
  708SOL     MW 2832   2.524   1.528   0.125  0.6892 -0.5170 -0.5637
  709SOL     OW 2833   1.770   1.684   0.137  0.4569  0.1511 -0.1658
  709SOL    HW1 2834   1.769   1.611   0.081 -2.0695  0.1175  0.9811
  709SOL    HW2 2835   1.692   1.667   0.194 -0.0871 -1.2895  0.2836
  709SOL     MW 2836   1.760   1.672   0.137  0.0518 -0.0434  0.0448
  710SOL     OW 2837   2.223   1.180   1.188  0.0482  0.2573  0.0665
  710SOL    HW1 2838   2.255   1.165   1.101 -2.8656 -0.0104  0.9724
  710SOL    HW2 2839   2.211   1.093   1.231  1.0000 -2.5714  3.1447
  710SOL     MW 2840   2.225   1.166   1.182 -0.2106 -0.1513  0.5922
  711SOL     OW 2841   2.315   0.126   1.761  0.0763  0.3925 -0.2550
  711SOL    HW1 2842   2.402   0.088   1.759 -0.2032  2.9495  1.0393
  711SOL    HW2 2843   2.265   0.053   1.723 -1.6414 -3.2061 -5.8750
  711SOL     MW 2844   2.320   0.111   1.756 -0.1872  0.2550 -0.8257
  712SOL     OW 2845   1.612   0.647   3.094 -0.5830 -0.0542 -0.4967
  712SOL    HW1 2846   1.631   0.690   3.011  1.2863  4.0714  1.9329
  712SOL    HW2 2847   1.574   0.710   3.150 -2.3501 -0.5800 -2.8863
  712SOL     MW 2848   1.610   0.661   3.090 -0.5695  0.4208 -0.4914
  713SOL     OW 2849   2.573   0.773   1.142  0.1437  0.3807  0.1097
  713SOL    HW1 2850   2.619   0.687   1.142  2.0763 -2.1538 -0.6578
  713SOL    HW2 2851   2.545   0.783   1.237  2.6078 -2.7804 -0.2000
  713SOL     MW 2852   2.575   0.763   1.155  0.7238 -0.3708 -0.0324
  714SOL     OW 2853   2.252   0.157   2.036 -0.1065 -0.3135 -0.3934
  714SOL    HW1 2854   2.309   0.095   2.082 -1.2778 -1.9499 -2.2113
  714SOL    HW2 2855   2.295   0.159   1.947 -0.7875 -1.7384 -0.9610
  714SOL     MW 2856   2.265   0.149   2.030 -0.3509 -0.7174 -0.7081
  715SOL     OW 2857   1.742   1.912   1.703  0.0176  1.0313  0.3171
  715SOL    HW1 2858   1.835   1.889   1.679  2.5256  0.3296  0.6204
  715SOL    HW2 2859   1.717   1.838   1.761  2.5041 -3.1297 -0.7496
  715SOL     MW 2860   1.751   1.899   1.708  0.6765  0.3897  0.2164
  716SOL     OW 2861   2.194   0.725   0.565 -0.3213 -0.1212 -0.1076
  716SOL    HW1 2862   2.248   0.740   0.487 -1.9156  0.1281  1.1391
  716SOL    HW2 2863   2.104   0.752   0.535  0.7445 -0.1623 -1.4333
  716SOL     MW 2864   2.189   0.731   0.551 -0.3910 -0.0937 -0.1181
  717SOL     OW 2865   2.898   1.422   2.985  0.1253  0.3724 -0.2411
  717SOL    HW1 2866   2.987   1.425   2.950 -2.2856 -0.8602 -2.8537
  717SOL    HW2 2867   2.889   1.505   3.039 -0.5000  2.4089  1.4737
  717SOL     MW 2868   2.908   1.433   2.987 -0.2753  0.4784 -0.3595
  718SOL     OW 2869   2.569   1.495   1.270 -0.5379 -0.0387  0.5305
  718SOL    HW1 2870   2.604   1.542   1.351 -0.1067 -1.9934  0.6643
  718SOL    HW2 2871   2.643   1.438   1.241  1.8679 -0.2474 -0.5991
  718SOL     MW 2872   2.583   1.494   1.276 -0.1636 -0.3242  0.3991
  719SOL     OW 2873   2.166   1.323   0.690 -0.4791 -0.0844 -0.4522
  719SOL    HW1 2874   2.261   1.337   0.669 -0.3246 -1.6180  0.9333
  719SOL    HW2 2875   2.149   1.348   0.780  3.8244  1.3224 -1.6073
  719SOL     MW 2876   2.177   1.328   0.699  0.1091 -0.1012 -0.4218
  720SOL     OW 2877   2.872   1.172   0.162 -0.2533 -0.5706 -0.1577
  720SOL    HW1 2878   2.840   1.101   0.223  2.1594  2.1245  2.1289
  720SOL    HW2 2879   2.815   1.240   0.191 -0.3081  0.5206  1.7471
  720SOL     MW 2880   2.860   1.172   0.174  0.0578 -0.0710  0.3953
  721SOL     OW 2881   2.454   0.789   1.427  0.2915 -0.4762 -0.4415
  721SOL    HW1 2882   2.471   0.696   1.451  1.1730 -0.4970  1.9386
  721SOL    HW2 2883   2.536   0.822   1.477 -1.7670  3.1889 -0.7151
  721SOL     MW 2884   2.467   0.781   1.437  0.1362  0.0046 -0.1636
  722SOL     OW 2885   2.489   1.155   0.352  0.7035  0.4421 -0.3089
  722SOL    HW1 2886   2.442   1.200   0.423 -2.2468 -0.8846  1.4407
  722SOL    HW2 2887   2.524   1.077   0.385  0.5245  0.7903 -0.4974
  722SOL     MW 2888   2.487   1.151   0.366  0.2907  0.3130 -0.1029
  723SOL     OW 2889   2.253   1.377   1.645 -0.1457  0.2550 -0.2421
  723SOL    HW1 2890   2.255   1.392   1.551 -1.9945  1.7906 -0.3173
  723SOL    HW2 2891   2.166   1.341   1.666  1.1144 -1.9292  2.0748
  723SOL     MW 2892   2.242   1.374   1.635 -0.2234  0.1695  0.0536
  724SOL     OW 2893   2.502   0.360   0.594  0.2794 -0.1520  0.0171
  724SOL    HW1 2894   2.494   0.372   0.687 -1.3277 -0.5000 -1.9104
  724SOL    HW2 2895   2.578   0.306   0.579 -1.3029  1.0636 -0.8671
  724SOL     MW 2896   2.511   0.354   0.604 -0.1414 -0.0376 -0.3539
  725SOL     OW 2897   2.637   0.484   1.128  0.3092  0.2417  0.2873
  725SOL    HW1 2898   2.704   0.500   1.199  2.5258  0.2152  1.4462
  725SOL    HW2 2899   2.547   0.492   1.160 -0.0787  3.4181 -1.2452
  725SOL     MW 2900   2.634   0.487   1.142  0.5505  0.6573  0.2380
  726SOL     OW 2901   2.570   2.392   0.529 -0.1451  0.6416  0.4794
  726SOL    HW1 2902   2.505   2.445   0.481 -1.9561 -2.0464  3.0806
  726SOL    HW2 2903   2.528   2.369   0.607  2.4449  0.5104 -0.8170
  726SOL     MW 2904   2.556   2.396   0.533 -0.0423  0.2697  0.6516
  727SOL     OW 2905   2.896   0.294   1.662 -0.5524 -0.5012  0.0457
  727SOL    HW1 2906   2.916   0.272   1.573  1.4815 -0.5664 -1.7995
  727SOL    HW2 2907   2.798   0.302   1.671  0.8683  4.2791 -2.7986
  727SOL     MW 2908   2.885   0.292   1.652 -0.0966  0.1209 -0.5730
  728SOL     OW 2909   2.770   1.172   2.997 -0.0740 -0.0131  0.0335
  728SOL    HW1 2910   2.833   1.240   2.990 -0.3515 -3.6658 -2.2511
  728SOL    HW2 2911   2.757   1.156   3.085  3.3092 -3.5682  0.9521
  728SOL     MW 2912   2.777   1.178   3.008  0.3358 -0.9641 -0.1467
  729SOL     OW 2913   2.467   1.454   0.985  0.0464 -0.0250  0.3412
  729SOL    HW1 2914   2.505   1.483   1.062 -1.4695  1.1638 -1.6565
  729SOL    HW2 2915   2.523   1.378   0.969 -0.7179  1.1834 -0.1159
  729SOL     MW 2916   2.479   1.448   0.993 -0.2544  0.2913  0.0173
  730SOL     OW 2917   2.074   1.156   0.170  0.4078  0.7510  0.1065
  730SOL    HW1 2918   2.172   1.147   0.156  0.4056 -0.8243 -2.0682
  730SOL    HW2 2919   2.061   1.252   0.186 -1.2870  0.6161 -0.1700
  730SOL     MW 2920   2.085   1.168   0.171  0.1839  0.5253 -0.2169
  731SOL     OW 2921   2.780   1.799   2.879  0.4618 -0.3219 -0.4318
  731SOL    HW1 2922   2.699   1.834   2.845 -1.0883 -1.2361  1.0429
  731SOL    HW2 2923   2.829   1.881   2.876  0.8830  1.0959 -1.3530
  731SOL     MW 2924   2.776   1.815   2.874  0.3129 -0.2555 -0.3588
  732SOL     OW 2925   2.236   0.916   1.303 -0.4751  0.4259 -0.8638
  732SOL    HW1 2926   2.153   0.914   1.354  1.0446  3.3430 -0.6051
  732SOL    HW2 2927   2.315   0.894   1.367  0.5034 -0.3827  2.7047
  732SOL     MW 2928   2.236   0.913   1.318 -0.1455  0.7041 -0.3588
  733SOL     OW 2929   2.384   2.865   3.050 -0.0294 -0.9013 -0.4636
  733SOL    HW1 2930   2.302   2.902   3.021 -0.8867  0.9205 -1.5255
  733SOL    HW2 2931   2.373   2.770   3.042  0.6443 -1.5286  2.3710
  733SOL     MW 2932   2.372   2.858   3.045 -0.0536 -0.7437 -0.2297
  734SOL     OW 2933   1.515   0.364   2.520 -0.3817  1.0120  0.2774
  734SOL    HW1 2934   1.447   0.328   2.577  0.3330  1.0692  4.3700
  734SOL    HW2 2935   1.533   0.297   2.445 -0.0988  1.5284 -0.6383
  734SOL     MW 2936   1.509   0.351   2.518 -0.2501  1.0877  0.6965
  735SOL     OW 2937   2.995   0.888   2.748 -0.0651 -0.1761 -0.1374
  735SOL    HW1 2938   2.912   0.851   2.768 -0.3862  0.4697  1.8488
  735SOL    HW2 2939   3.009   0.943   2.822 -1.5494 -1.4544  1.9024
  735SOL     MW 2940   2.986   0.891   2.760 -0.3033 -0.2596  0.3938
  736SOL     OW 2941   0.042   0.642   2.496 -0.3955  0.3522 -0.3956
  736SOL    HW1 2942   0.078   0.673   2.412  1.7084 -1.8125 -0.0441
  736SOL    HW2 2943   0.050   0.546   2.484  1.6944  0.7206 -0.8901
  736SOL     MW 2944   0.048   0.633   2.483  0.1579  0.1152 -0.4145
  737SOL     OW 2945   2.869   0.614   2.560 -0.2444  0.4477 -0.2773
  737SOL    HW1 2946   2.819   0.590   2.479  1.6664  0.0867 -0.2970
  737SOL    HW2 2947   2.961   0.611   2.530  0.6445 -0.2586  0.6771
  737SOL     MW 2948   2.874   0.610   2.546  0.1250  0.3069 -0.1540
  738SOL     OW 2949   0.154   0.386   1.905  0.1059  0.2831 -0.0113
  738SOL    HW1 2950   0.226   0.440   1.909 -0.1014 -2.6828 -0.1526
  738SOL    HW2 2951   0.178   0.348   1.821  1.5297  0.7579 -0.4937
  738SOL     MW 2952   0.167   0.388   1.894  0.2664 -0.0456 -0.0936
  739SOL     OW 2953   2.554   1.023   2.183  0.5487  0.0782  0.4815
  739SOL    HW1 2954   2.463   1.028   2.162 -0.4066  0.0841  1.2933
  739SOL    HW2 2955   2.595   1.058   2.105  0.2528  0.0545  0.1476
  739SOL     MW 2956   2.548   1.028   2.170  0.3836  0.0758  0.5446
  740SOL     OW 2957   0.290   1.704   2.925 -0.1320  0.0278  0.0312
  740SOL    HW1 2958   0.271   1.610   2.928  1.2889  0.6109  1.5471
  740SOL    HW2 2959   0.377   1.706   2.972 -0.4354 -0.0783 -0.1670
  740SOL     MW 2960   0.299   1.692   2.932  0.0154  0.0908  0.2051
  741SOL     OW 2961   2.217   1.263   2.633  0.0476 -0.1662  0.3964
  741SOL    HW1 2962   2.217   1.340   2.577  0.9063  0.1893  2.9498
  741SOL    HW2 2963   2.162   1.290   2.700 -0.1376 -0.9235 -0.3750
  741SOL     MW 2964   2.209   1.277   2.635  0.1364 -0.2192  0.6315
  742SOL     OW 2965   1.554   1.378   2.350  0.1856 -0.7004 -0.0011
  742SOL    HW1 2966   1.505   1.303   2.325  4.1419 -1.2434  0.3779
  742SOL    HW2 2967   1.609   1.339   2.426  1.0687 -0.6692 -0.2505
  742SOL     MW 2968   1.555   1.363   2.357  0.8241 -0.7679  0.0160
  743SOL     OW 2969   2.504   1.220   2.685 -0.2399 -0.7044  0.4500
  743SOL    HW1 2970   2.408   1.210   2.677 -0.2694  1.1584 -0.7234
  743SOL    HW2 2971   2.537   1.134   2.701 -1.1979  2.5436 -1.0947
  743SOL     MW 2972   2.496   1.207   2.686 -0.3702 -0.0301  0.0914
  744SOL     OW 2973   2.785   0.967   1.802 -0.3131  0.1054  0.0274
  744SOL    HW1 2974   2.727   1.026   1.857  0.3291 -0.9272  3.8546
  744SOL    HW2 2975   2.723   0.930   1.734 -0.9954 -0.9292 -0.9496
  744SOL     MW 2976   2.769   0.970   1.800 -0.3184 -0.1674  0.4035
  745SOL     OW 2977   1.813   0.477   2.474 -0.7979  0.2432  0.0164
  745SOL    HW1 2978   1.796   0.506   2.377 -2.7501 -2.1260 -2.7133
  745SOL    HW2 2979   1.733   0.426   2.478 -0.0781 -1.0041 -0.0530
  745SOL     MW 2980   1.800   0.474   2.462 -0.9605 -0.2339 -0.3529
  746SOL     OW 2981   1.586   1.431   1.733  0.4225 -0.3232 -0.1166
  746SOL    HW1 2982   1.630   1.516   1.746 -0.7225  4.4659 -1.0472
  746SOL    HW2 2983   1.538   1.421   1.814  0.2647  1.4000 -3.1279
  746SOL     MW 2984   1.585   1.441   1.746  0.2506  0.5361 -0.6367
  747SOL     OW 2985   2.595   1.156   1.943  0.3374 -0.1295 -0.3321
  747SOL    HW1 2986   2.515   1.155   1.885 -0.3762  2.3228 -0.9414
  747SOL    HW2 2987   2.614   1.254   1.959  0.1012 -1.1861 -1.5911
  747SOL     MW 2988   2.587   1.169   1.938  0.2121  0.0546 -0.5786
  748SOL     OW 2989   0.128   2.996   1.962 -0.3645  0.4098  0.2076
  748SOL    HW1 2990   0.201   3.045   1.932 -0.8855 -0.5230 -4.4612
  748SOL    HW2 2991   0.106   3.011   2.053  0.2871  2.7518 -1.7113
  748SOL     MW 2992   0.135   3.004   1.970 -0.3473  0.5957 -0.6616
  749SOL     OW 2993   2.397   0.641   2.802  0.3639 -0.1631 -0.3411
  749SOL    HW1 2994   2.422   0.693   2.727 -0.4079 -1.6217  4.7325
  749SOL    HW2 2995   2.464   0.664   2.872 -1.4055 -1.2420  0.2045
  749SOL     MW 2996   2.409   0.651   2.802  0.0286 -0.4979  0.4003
  750SOL     OW 2997   2.058   3.060   1.997  0.7353  0.1142  0.5216
  750SOL    HW1 2998   2.114   3.143   2.003  0.1688 -1.2085 -1.7910
  750SOL    HW2 2999   2.114   2.986   1.962  0.3449 -0.3815  1.6249
  750SOL     MW 3000   2.073   3.062   1.993  0.6091 -0.1258  0.3620
  751SOL     OW 3001   0.028   0.375   2.427  0.1071 -0.0943  0.8967
  751SOL    HW1 3002  -0.054   0.362   2.378 -0.1203 -2.2827 -0.9844
  751SOL    HW2 3003   0.094   0.329   2.372 -2.6378  1.9989 -0.4393
  751SOL     MW 3004   0.026   0.367   2.413 -0.2851 -0.1069  0.4722
  752SOL     OW 3005   2.160   0.963   2.778 -0.0035  0.0068  0.1921
  752SOL    HW1 3006   2.205   0.992   2.853 -0.8147 -0.1548 -0.2018
  752SOL    HW2 3007   2.127   0.878   2.805  0.6878  0.6479  0.5736
  752SOL     MW 3008   2.161   0.955   2.792 -0.0193  0.0700  0.1905
  753SOL     OW 3009   2.858   0.287   2.347 -0.2802  0.1120 -0.6063
  753SOL    HW1 3010   2.808   0.201   2.332 -2.6764 -0.8547  0.5995
  753SOL    HW2 3011   2.787   0.349   2.342  2.4247 -1.0454  1.3497
  753SOL     MW 3012   2.842   0.284   2.344 -0.2395 -0.1683 -0.1891
  754SOL     OW 3013   2.245   3.005   2.629 -0.6970  0.2654 -0.3963
  754SOL    HW1 3014   2.239   2.971   2.539 -0.9597 -1.8531  1.1318
  754SOL    HW2 3015   2.333   2.980   2.664 -0.8821 -0.2636 -1.5746
  754SOL     MW 3016   2.256   2.997   2.622 -0.7561 -0.0839 -0.3502
  755SOL     OW 3017   2.776   1.616   2.391  0.0848 -0.6345 -0.5666
  755SOL    HW1 3018   2.726   1.536   2.414 -1.0878 -1.3853  1.1503
  755SOL    HW2 3019   2.818   1.643   2.476  0.4174 -0.2696 -2.5092
  755SOL     MW 3020   2.775   1.609   2.405 -0.0260 -0.6854 -0.5964
  756SOL     OW 3021   2.213   1.250   2.963 -0.2447 -0.1885  0.2947
  756SOL    HW1 3022   2.268   1.322   2.987 -0.6235 -0.8934  0.7189
  756SOL    HW2 3023   2.272   1.173   2.978 -0.1278 -1.4111 -0.9853
  756SOL     MW 3024   2.228   1.249   2.968 -0.2793 -0.4428  0.1818
  757SOL     OW 3025   2.196   0.971   1.696 -0.4797 -0.1356  0.5883
  757SOL    HW1 3026   2.223   0.882   1.704 -1.2142 -0.2077 -0.6663
  757SOL    HW2 3027   2.135   0.963   1.620 -0.5332 -0.6362  1.3672
  757SOL     MW 3028   2.192   0.959   1.687 -0.5837 -0.2112  0.5255
  758SOL     OW 3029   2.169   1.847   2.504  0.4501 -0.3064  0.7671
  758SOL    HW1 3030   2.142   1.921   2.445 -0.9289 -0.0985 -0.6520
  758SOL    HW2 3031   2.255   1.837   2.470 -0.8765  1.7614 -0.9020
  758SOL     MW 3032   2.177   1.856   2.492  0.0931 -0.0061  0.3596
  759SOL     OW 3033   1.584   1.460   2.804  0.1441 -0.0339  0.5516
  759SOL    HW1 3034   1.616   1.545   2.757  0.8431  2.1109 -3.2333
  759SOL    HW2 3035   1.652   1.440   2.869 -0.0078  0.0934  1.1760
  759SOL     MW 3036   1.597   1.468   2.806  0.2163  0.2659  0.1346
  760SOL     OW 3037   2.586   1.917   2.714 -0.3724  0.4924  0.0591
  760SOL    HW1 3038   2.547   1.840   2.680  2.6092  0.1555  0.6294
  760SOL    HW2 3039   2.666   1.936   2.664 -1.1976  1.2400  2.0418
  760SOL     MW 3040   2.592   1.910   2.703 -0.0878  0.5466  0.3959
  761SOL     OW 3041   2.327   0.433   2.367 -0.2415  0.0333  0.7122
  761SOL    HW1 3042   2.236   0.400   2.365  0.3810  1.8043  2.1410
  761SOL    HW2 3043   2.340   0.446   2.463 -1.0590 -0.6357 -1.7606
  761SOL     MW 3044   2.317   0.430   2.380 -0.2672  0.1787  0.5744
  762SOL     OW 3045   0.013   0.184   2.141 -0.0056 -0.0731 -0.0752
  762SOL    HW1 3046  -0.018   0.121   2.210 -0.3813  0.6371  1.4013
  762SOL    HW2 3047  -0.063   0.227   2.105  1.6497  2.6144  1.6517
  762SOL     MW 3048  -0.001   0.181   2.145  0.1632  0.3752  0.3474
  763SOL     OW 3049   2.449   1.195   2.394 -0.1554  0.5351  0.5723
  763SOL    HW1 3050   2.496   1.134   2.336 -1.0105 -0.1837 -1.8831
  763SOL    HW2 3051   2.521   1.244   2.429 -1.7894 -2.7637 -1.8351
  763SOL     MW 3052   2.465   1.194   2.391 -0.4838  0.0050 -0.0693
  764SOL     OW 3053   0.399   0.040   2.783 -0.4020  0.0539 -0.0354
  764SOL    HW1 3054   0.348   0.117   2.769  2.5052 -1.2847  0.7898
  764SOL    HW2 3055   0.435   0.048   2.873  1.5029 -0.9541  0.9036
  764SOL     MW 3056   0.397   0.051   2.793  0.2329 -0.2557  0.1974
  765SOL     OW 3057   2.774   0.035   2.343 -0.2250 -0.2950 -0.3568
  765SOL    HW1 3058   2.731   0.004   2.264  0.8624 -1.0902  2.3524
  765SOL    HW2 3059   2.803  -0.043   2.389  2.6734  1.5603 -1.6350
  765SOL     MW 3060   2.772   0.020   2.339  0.3009 -0.1551 -0.1680
  766SOL     OW 3061   1.921   2.974   2.219  0.3389  0.6574 -0.2676
  766SOL    HW1 3062   1.966   3.014   2.141 -2.8173  0.4045 -3.0203
  766SOL    HW2 3063   1.861   2.900   2.178 -1.2048  2.3969 -3.5409
  766SOL     MW 3064   1.919   2.969   2.203 -0.2812  0.8536 -1.0627
  767SOL     OW 3065   2.651   0.629   1.895 -0.2304 -0.0464  0.1345
  767SOL    HW1 3066   2.631   0.664   1.981  1.3158 -0.4062 -1.6434
  767SOL    HW2 3067   2.595   0.692   1.847 -1.0864 -1.7662 -0.5570
  767SOL     MW 3068   2.641   0.642   1.900 -0.1394 -0.3208 -0.1913
  768SOL     OW 3069   0.066   1.457   2.896  0.4764 -0.1473 -0.0537
  768SOL    HW1 3070   0.085   1.494   2.980 -2.4907  4.9652 -0.4339
  768SOL    HW2 3071   0.109   1.370   2.898  0.8063  1.0849  0.8587
  768SOL     MW 3072   0.074   1.450   2.907  0.1284  0.6898  0.0165
  769SOL     OW 3073   2.391   0.702   2.351 -0.2120 -0.1191 -0.0993
  769SOL    HW1 3074   2.354   0.608   2.361  0.5578  0.5587 -0.2261
  769SOL    HW2 3075   2.461   0.690   2.291  1.3471  0.7800 -1.0123
  769SOL     MW 3076   2.396   0.688   2.345  0.0953  0.0889 -0.2365
  770SOL     OW 3077   3.085   1.614   2.654  0.0720 -0.9087  0.0710
  770SOL    HW1 3078   2.990   1.621   2.650  0.8934 -1.3111  1.3818
  770SOL    HW2 3079   3.114   1.551   2.724  0.0551  0.1752  1.5871
  770SOL     MW 3080   3.076   1.606   2.663  0.1782 -0.8188  0.4440
  771SOL     OW 3081   3.068   0.561   1.992  0.1519 -0.0825 -0.0611
  771SOL    HW1 3082   3.015   0.584   1.915 -0.1233  2.2232  1.4527
  771SOL    HW2 3083   3.141   0.501   1.975 -2.8327 -1.4404 -1.5705
  771SOL     MW 3084   3.070   0.556   1.979 -0.2782  0.0426 -0.0606
  772SOL     OW 3085   3.099   3.105   2.341 -0.6587  0.3122 -0.0648
  772SOL    HW1 3086   3.011   3.087   2.366  1.9586  1.3089 -0.6055
  772SOL    HW2 3087   3.144   3.019   2.311 -1.5977 -2.8649  0.9699
  772SOL     MW 3088   3.094   3.092   2.341 -0.4373  0.0245  0.0004
  773SOL     OW 3089   2.478   2.913   2.772  0.0458  0.1183 -0.7124
  773SOL    HW1 3090   2.513   2.828   2.744  0.3330 -2.0905  1.7810
  773SOL    HW2 3091   2.429   2.882   2.849  0.3280  0.2121  1.6109
  773SOL     MW 3092   2.476   2.898   2.778  0.1209 -0.1607 -0.0769
  774SOL     OW 3093   2.387   1.173   1.782 -0.0674 -0.3561 -0.5974
  774SOL    HW1 3094   2.350   1.239   1.728  1.7431  1.7297 -0.7857
  774SOL    HW2 3095   2.328   1.099   1.754  0.1181  1.8038 -2.0965
  774SOL     MW 3096   2.375   1.172   1.772  0.1960  0.2041 -0.8200
  775SOL     OW 3097   2.334   2.882   2.389 -0.3624  0.0373  0.0542
  775SOL    HW1 3098   2.369   2.962   2.346 -1.0025  1.7987  1.1971
  775SOL    HW2 3099   2.406   2.826   2.373 -0.4642  1.1114 -1.6003
  775SOL     MW 3100   2.348   2.885   2.381 -0.4603  0.4114 -0.0133
  776SOL     OW 3101   0.135   1.504   0.053  0.1691  0.0654  0.5898
  776SOL    HW1 3102   0.224   1.473   0.075 -0.8374 -1.4921  0.2617
  776SOL    HW2 3103   0.074   1.447   0.106 -2.3868  1.8127  3.1952
  776SOL     MW 3104   0.139   1.493   0.063 -0.3009  0.0904  0.8903
  777SOL     OW 3105   2.996   1.123   1.679 -0.9668  0.1469  0.8218
  777SOL    HW1 3106   2.974   1.172   1.601 -0.1743  1.9409 -4.5119
  777SOL    HW2 3107   2.929   1.056   1.689  1.7959 -2.6115  1.0080
  777SOL     MW 3108   2.984   1.121   1.670 -0.4978  0.0197  0.1427
  778SOL     OW 3109   2.942   0.498   2.825 -0.0670 -0.1105  0.7588
  778SOL    HW1 3110   2.872   0.541   2.880 -0.5522  2.2045  2.1333
  778SOL    HW2 3111   2.907   0.506   2.737 -0.3622  0.4739  1.0392
  778SOL     MW 3112   2.928   0.505   2.821 -0.1700  0.2721  0.9772
  779SOL     OW 3113   2.216   0.553   2.103  0.6078 -0.4814  0.1208
  779SOL    HW1 3114   2.136   0.594   2.148 -0.7934 -2.0374  0.3101
  779SOL    HW2 3115   2.230   0.476   2.155 -1.5397  1.5493 -2.0547
  779SOL     MW 3116   2.207   0.548   2.116  0.1396 -0.4188 -0.1412
  780SOL     OW 3117   0.225   0.245   2.722 -0.4469  0.4081  0.1291
  780SOL    HW1 3118   0.139   0.271   2.689 -3.4224  3.6361 -2.0069
  780SOL    HW2 3119   0.275   0.322   2.734  1.1489 -0.3894 -1.9244
  780SOL     MW 3120   0.220   0.259   2.719 -0.6289  0.7288 -0.4237
  781SOL     OW 3121   0.005   1.205   2.431 -0.0220 -0.2492 -0.4337
  781SOL    HW1 3122   0.035   1.228   2.341  0.4913  0.0768 -2.0823
  781SOL    HW2 3123  -0.015   1.114   2.427 -0.8728  2.5476 -0.5932
  781SOL     MW 3124   0.007   1.196   2.419 -0.0665  0.1628 -0.6723
  782SOL     OW 3125   0.735   1.485   0.057  0.4263  0.0835 -0.2420
  782SOL    HW1 3126   0.678   1.549   0.016 -1.4221  1.6831 -1.4186
  782SOL    HW2 3127   0.720   1.506   0.151  0.4048  0.4140  0.5282
  782SOL     MW 3128   0.725   1.496   0.064  0.1796  0.3381 -0.2957
  783SOL     OW 3129   2.709   0.539   2.358 -0.1648 -0.3420 -0.0564
  783SOL    HW1 3130   2.695   0.608   2.297 -1.0980 -3.3209  0.1545
  783SOL    HW2 3131   2.633   0.542   2.414  2.3862  0.7993  0.0756
  783SOL     MW 3132   2.697   0.548   2.358  0.0486 -0.5845 -0.0112
  784SOL     OW 3133   0.134   0.804   2.835  0.1641 -0.1508  0.0265
  784SOL    HW1 3134   0.048   0.826   2.803 -0.0462  1.5408  0.3592
  784SOL    HW2 3135   0.181   0.881   2.807  0.5192 -0.4670 -2.3961
  784SOL     MW 3136   0.129   0.817   2.827  0.1832  0.0307 -0.2492
  785SOL     OW 3137   0.467   0.433   2.153 -0.5059  0.2674  0.0583
  785SOL    HW1 3138   0.437   0.465   2.064 -1.0450 -0.4430  1.9033
  785SOL    HW2 3139   0.387   0.390   2.191 -0.7062  1.6578  0.8733
  785SOL     MW 3140   0.452   0.431   2.146 -0.6035  0.3571  0.4092
  786SOL     OW 3141   1.876   0.514   3.035  0.2849  0.1291  0.1827
  786SOL    HW1 3142   1.857   0.565   2.954 -0.4452  1.0348 -3.5090
  786SOL    HW2 3143   1.814   0.559   3.091 -2.2351 -0.0829  1.0942
  786SOL     MW 3144   1.865   0.527   3.031 -0.1439  0.2206 -0.1841
  787SOL     OW 3145   2.386   0.198   2.915  0.2242  0.1189 -0.0630
  787SOL    HW1 3146   2.466   0.138   2.890  1.3278 -0.9303 -2.1491
  787SOL    HW2 3147   2.430   0.284   2.942 -0.2719  1.6563  1.1029
  787SOL     MW 3148   2.402   0.202   2.915  0.3043  0.1833 -0.1844
  788SOL     OW 3149   2.919   2.880   2.387  0.0013  0.1674 -0.0893
  788SOL    HW1 3150   2.985   2.867   2.452  1.2838  1.1195 -0.8741
  788SOL    HW2 3151   2.946   2.835   2.303  1.0097 -0.6473  0.0919
  788SOL     MW 3152   2.932   2.873   2.384  0.3036  0.1856 -0.1689
  789SOL     OW 3153   0.099   0.192   0.076  0.2390  0.2517 -0.5902
  789SOL    HW1 3154   0.027   0.141   0.109  1.1325 -3.9512  0.9258
  789SOL    HW2 3155   0.068   0.262   0.019  0.4502 -0.7651  0.2014
  789SOL     MW 3156   0.085   0.195   0.073  0.3848 -0.4370 -0.2857
  790SOL     OW 3157   3.046   0.939   2.479 -0.0261  0.0269  0.3005
  790SOL    HW1 3158   3.023   0.920   2.571 -0.1941  2.0007 -3.4770
  790SOL    HW2 3159   2.971   0.950   2.417 -0.0796  2.0277 -1.4511
  790SOL     MW 3160   3.033   0.938   2.483 -0.0553  0.5513 -0.4290
  791SOL     OW 3161   2.502   0.504   2.578  0.4446  0.2719  0.1192
  791SOL    HW1 3162   2.481   0.536   2.666  1.5366 -1.7723  0.1763
  791SOL    HW2 3163   2.543   0.417   2.596 -0.5562  1.0021  1.5062
  791SOL     MW 3164   2.505   0.497   2.592  0.4567  0.0986  0.3098
  792SOL     OW 3165   2.494   0.225   2.444 -0.1435  0.0506 -0.0585
  792SOL    HW1 3166   2.427   0.275   2.394 -0.6478  1.0998 -0.5102
  792SOL    HW2 3167   2.451   0.185   2.519 -1.9871  0.9315  1.0268
  792SOL     MW 3168   2.479   0.227   2.447 -0.4533  0.3053  0.0251
  793SOL     OW 3169   1.848   1.142   2.053 -0.2441 -0.3868 -0.2247
  793SOL    HW1 3170   1.810   1.137   1.964  0.7812  0.0947  2.8382
  793SOL    HW2 3171   1.942   1.129   2.036 -1.7401  0.0035 -0.7645
  793SOL     MW 3172   1.856   1.140   2.039 -0.3062 -0.2718  0.1082
  794SOL     OW 3173   1.378   2.291   0.115 -0.3353  0.5429  0.0901
  794SOL    HW1 3174   1.418   2.377   0.093 -1.0214 -2.4512 -2.1533
  794SOL    HW2 3175   1.413   2.280   0.198  0.6373 -2.5366 -2.9919
  794SOL     MW 3176   1.388   2.301   0.123 -0.2975 -0.2584 -0.6125
  795SOL     OW 3177   2.280   1.022   2.504  0.0512  0.5013  0.2648
  795SOL    HW1 3178   2.228   1.057   2.579 -2.0083 -0.5158 -1.2831
  795SOL    HW2 3179   2.333   1.103   2.466  3.8862  3.0349  0.5135
  795SOL     MW 3180   2.280   1.037   2.509  0.2855  0.7014  0.0934
  796SOL     OW 3181   0.249   0.580   2.676  0.1614  0.3475  0.0049
  796SOL    HW1 3182   0.206   0.636   2.738 -1.3649  0.2948 -0.5601
  796SOL    HW2 3183   0.210   0.607   2.595  1.7025  2.1665 -0.3335
  796SOL     MW 3184   0.238   0.591   2.674  0.1634  0.5806 -0.1143
  797SOL     OW 3185   2.771   0.218   2.659 -0.2872 -0.0415  0.2323
  797SOL    HW1 3186   2.744   0.190   2.568 -2.1306 -0.7935 -0.1034
  797SOL    HW2 3187   2.865   0.213   2.675 -1.0693  0.3860 -0.4345
  797SOL     MW 3188   2.780   0.214   2.649 -0.6336 -0.0843  0.1001
  798SOL     OW 3189   2.417   0.026   2.258 -0.2519 -0.8393  0.5398
  798SOL    HW1 3190   2.443   0.106   2.316  0.6371 -2.0554  1.9204
  798SOL    HW2 3191   2.495   0.008   2.204 -1.0813  3.2227  0.8880
  798SOL     MW 3192   2.430   0.034   2.259 -0.2440 -0.4638  0.7679
  799SOL     OW 3193   2.584   2.997   0.072 -0.0746  0.8116  0.1447
  799SOL    HW1 3194   2.508   2.951   0.039 -1.3817  2.2952  0.8838
  799SOL    HW2 3195   2.568   2.998   0.173 -1.7532 -0.6755  0.1166
  799SOL     MW 3196   2.572   2.991   0.081 -0.4685  0.8111  0.2385
  800SOL     OW 3197   1.945   3.003   1.750  0.2852 -0.1357 -0.4438
  800SOL    HW1 3198   1.872   2.937   1.751 -0.7667 -1.0330 -0.4454
  800SOL    HW2 3199   1.975   3.026   1.836 -3.7026 -2.9574  0.4219
  800SOL     MW 3200   1.939   2.997   1.761 -0.3798 -0.6264 -0.3298
  801SOL     OW 3201   2.894   1.274   2.584 -0.4310 -0.5087 -0.1601
  801SOL    HW1 3202   2.857   1.189   2.596 -0.1563  1.4968 -0.3481
  801SOL    HW2 3203   2.968   1.254   2.524  1.6554  0.2344  0.9226
  801SOL     MW 3204   2.899   1.260   2.577 -0.1194 -0.1460 -0.0421
  802SOL     OW 3205   2.636   1.427   2.827  0.0926 -0.6024 -0.0977
  802SOL    HW1 3206   2.580   1.347   2.791  2.5525 -1.5176 -0.4510
  802SOL    HW2 3207   2.707   1.383   2.864 -1.0571 -0.4453  0.5927
  802SOL     MW 3208   2.638   1.411   2.827  0.2654 -0.7025 -0.0532
  803SOL     OW 3209   2.351   1.402   1.989 -0.3007  0.1932  0.1503
  803SOL    HW1 3210   2.314   1.368   2.068 -1.9557  2.4835  0.8366
  803SOL    HW2 3211   2.334   1.339   1.919 -0.7868 -0.8129  0.4669
  803SOL     MW 3212   2.344   1.390   1.990 -0.5832  0.3626  0.2826
  804SOL     OW 3213   2.239   0.128   0.043  0.4165 -0.1465  0.3918
  804SOL    HW1 3214   2.168   0.188   0.048  2.4807 -1.3948 -2.1041
  804SOL    HW2 3215   2.295   0.168  -0.022 -0.6823  0.2336  3.0174
  804SOL     MW 3216   2.237   0.141   0.035  0.5439 -0.2610  0.4089
  805SOL     OW 3217   2.725   0.811   2.669 -0.2707 -0.0321 -0.1962
  805SOL    HW1 3218   2.641   0.803   2.625  0.2115 -0.6672 -2.3428
  805SOL    HW2 3219   2.776   0.758   2.615 -1.8500  1.3191 -2.4106
  805SOL     MW 3220   2.721   0.803   2.656 -0.4154  0.0624 -0.7716
  806SOL     OW 3221   2.639   0.760   2.195  0.8800 -0.6621  0.0769
  806SOL    HW1 3222   2.710   0.768   2.133 -0.0574 -0.0041 -0.9731
  806SOL    HW2 3223   2.608   0.853   2.193 -0.3995 -0.4654  2.0030
  806SOL     MW 3224   2.645   0.773   2.186  0.5875 -0.5494  0.1925
  807SOL     OW 3225   3.051   1.060   2.004  0.4320  0.4236  0.2976
  807SOL    HW1 3226   3.086   0.973   2.024 -3.0533 -0.8327  0.5156
  807SOL    HW2 3227   3.021   1.083   2.088 -1.0312 -3.2824  3.5286
  807SOL     MW 3228   3.052   1.051   2.017 -0.2209 -0.2311  0.7527
  808SOL     OW 3229   2.605   0.077   2.822  0.1224  0.0020 -0.0415
  808SOL    HW1 3230   2.576  -0.012   2.789  2.0118 -3.3120  2.6056
  808SOL    HW2 3231   2.652   0.116   2.752  0.8808  1.5151 -2.2931
  808SOL     MW 3232   2.607   0.070   2.808  0.4718 -0.2356  0.0107
  809SOL     OW 3233   2.698   1.357   2.439  0.1869 -0.0564  0.5043
  809SOL    HW1 3234   2.759   1.317   2.505  0.7362  0.9754 -1.8411
  809SOL    HW2 3235   2.728   1.327   2.354 -1.1568 -0.5468  1.5252
  809SOL     MW 3236   2.710   1.347   2.436  0.0821  0.0150  0.3296
  810SOL     OW 3237   2.239   1.298   2.203  0.1498  0.2086  0.5968
  810SOL    HW1 3238   2.283   1.299   2.287  0.2575  0.8880 -0.3537
  810SOL    HW2 3239   2.266   1.216   2.162 -3.5167  0.1806 -1.8868
  810SOL     MW 3240   2.249   1.287   2.209 -0.3197  0.2945  0.1437
  811SOL     OW 3241   1.619   0.219   2.279  0.3713 -0.3435 -0.3364
  811SOL    HW1 3242   1.699   0.163   2.287  1.3950 -5.2195 -2.0998
  811SOL    HW2 3243   1.601   0.223   2.178 -0.6603 -0.7979 -2.0065
  811SOL     MW 3244   1.627   0.212   2.267  0.3702 -1.0468 -0.7894
  812SOL     OW 3245   1.466   2.802   2.057  0.1360  0.1592  0.0231
  812SOL    HW1 3246   1.561   2.797   2.058 -1.3334  1.2872 -1.5896
  812SOL    HW2 3247   1.444   2.759   2.142  0.9933 -1.9206  0.5919
  812SOL     MW 3248   1.475   2.796   2.068  0.0553  0.0336 -0.1146
  813SOL     OW 3249   1.988   0.634   2.250 -0.4130 -0.2658  0.0143
  813SOL    HW1 3250   1.889   0.635   2.222 -3.2479  0.5837  2.1483
  813SOL    HW2 3251   2.011   0.721   2.296  0.1150  1.3531 -0.3964
  813SOL     MW 3252   1.978   0.646   2.252 -0.7174  0.0599  0.2417
  814SOL     OW 3253   2.710   1.295   1.647 -0.3539 -0.3273  0.1294
  814SOL    HW1 3254   2.714   1.212   1.690 -1.0394  1.9082  0.3554
  814SOL    HW2 3255   2.705   1.277   1.554  2.9237  0.9873 -0.1318
  814SOL     MW 3256   2.710   1.282   1.640 -0.0119  0.1411  0.1247
  815SOL     OW 3257   2.542   1.780   2.362 -0.1971 -0.3122  0.7444
  815SOL    HW1 3258   2.502   1.709   2.297  0.0790 -0.9811 -0.9524
  815SOL    HW2 3259   2.636   1.753   2.364  0.0047 -1.8376  0.4293
  815SOL     MW 3260   2.549   1.767   2.353 -0.1341 -0.6017  0.4790
  816SOL     OW 3261   0.698   0.680   2.772 -0.4333  0.1445  0.0468
  816SOL    HW1 3262   0.708   0.584   2.784  0.5868  2.9058  0.1067
  816SOL    HW2 3263   0.621   0.688   2.723  3.7322  1.0408  1.5539
  816SOL     MW 3264   0.689   0.669   2.767  0.2509  0.6271  0.2536
  817SOL     OW 3265   3.003   1.266   1.454 -0.1763  0.3465 -0.2720
  817SOL    HW1 3266   3.098   1.253   1.480  2.4818  0.6164 -0.1912
  817SOL    HW2 3267   3.014   1.340   1.397 -1.4057  1.0885 -0.7939
  817SOL     MW 3268   3.017   1.274   1.450  0.0122  0.4800 -0.3302
  818SOL     OW 3269   1.922   1.063   2.641  0.4101 -0.4171  0.2729
  818SOL    HW1 3270   1.892   1.018   2.559 -1.7242 -2.9705 -1.7931
  818SOL    HW2 3271   1.996   1.015   2.689 -0.0228 -0.2792  0.4525
  818SOL     MW 3272   1.928   1.050   2.636  0.0714 -0.7358  0.0240
  819SOL     OW 3273   2.069   0.316   2.410 -0.7374  0.4196  0.4553
  819SOL    HW1 3274   1.999   0.377   2.390 -0.5496  0.9111 -0.1455
  819SOL    HW2 3275   2.064   0.305   2.501 -1.2514 -1.0175  0.9831
  819SOL     MW 3276   2.059   0.323   2.420 -0.7805  0.2949  0.4457
  820SOL     OW 3277   2.480   1.670   2.595  0.1286  0.2851  0.8821
  820SOL    HW1 3278   2.536   1.601   2.627  1.3588  1.0480  1.8228
  820SOL    HW2 3279   2.500   1.684   2.503 -0.9565 -2.4939  0.2264
  820SOL     MW 3280   2.490   1.663   2.587  0.1477  0.0191  0.9197
  821SOL     OW 3281   2.624   1.398   2.061  0.3266 -1.1028 -0.3578
  821SOL    HW1 3282   2.650   1.457   1.989  0.7164 -2.9033 -0.3915
  821SOL    HW2 3283   2.524   1.402   2.050 -1.7621  2.4282 -1.3463
  821SOL     MW 3284   2.615   1.406   2.050  0.1024 -0.8745 -0.4927
  822SOL     OW 3285   2.958   2.731   1.515 -0.0460 -0.3812 -0.0874
  822SOL    HW1 3286   2.961   2.732   1.616 -0.6256 -2.0399 -0.6087
  822SOL    HW2 3287   2.900   2.802   1.495  0.0216 -2.9993  0.1272
  822SOL     MW 3288   2.951   2.740   1.526 -0.1136 -0.9455 -0.1279
  823SOL     OW 3289   2.376   0.472   1.884  0.0355 -0.4501 -0.1739
  823SOL    HW1 3290   2.463   0.436   1.886  4.2245  0.2221 -0.0312
  823SOL    HW2 3291   2.341   0.475   1.971 -0.9340 -0.0883 -0.8598
  823SOL     MW 3292   2.383   0.468   1.896  0.4603 -0.3136 -0.2455
  824SOL     OW 3293   2.255   1.544   2.495  0.3139 -0.2652  0.7751
  824SOL    HW1 3294   2.319   1.581   2.555 -0.3694 -1.0930  0.0751
  824SOL    HW2 3295   2.164   1.579   2.512 -0.2587  1.2009 -1.9961
  824SOL     MW 3296   2.251   1.553   2.505  0.1482 -0.1810  0.3171
  825SOL     OW 3297   1.893   2.629   0.230  0.3905 -0.0423  0.0461
  825SOL    HW1 3298   1.877   2.559   0.297 -1.4691  0.8387 -3.1003
  825SOL    HW2 3299   1.969   2.601   0.188 -0.5058  4.0479  0.2748
  825SOL     MW 3300   1.901   2.616   0.234  0.0269  0.6136 -0.3389
  826SOL     OW 3301   1.860   2.357   0.383 -0.2399 -0.9447  0.6416
  826SOL    HW1 3302   1.814   2.280   0.417  0.7596 -0.8411  1.7873
  826SOL    HW2 3303   1.864   2.400   0.462 -1.0279  0.8274 -2.3969
  826SOL     MW 3304   1.854   2.352   0.398 -0.2120 -0.6972  0.3918
  827SOL     OW 3305   1.984   2.179   0.778 -0.1889  0.4238 -0.9385
  827SOL    HW1 3306   1.904   2.201   0.725 -1.2632  2.0156 -1.1323
  827SOL    HW2 3307   1.947   2.116   0.847 -1.8797 -2.1657  0.0835
  827SOL     MW 3308   1.968   2.174   0.780 -0.5537  0.2921 -0.8292
  828SOL     OW 3309   0.063   2.645   0.630 -0.7582 -0.0328 -0.9613
  828SOL    HW1 3310   0.159   2.642   0.630 -1.6996 -0.7408 -0.6293
  828SOL    HW2 3311   0.031   2.706   0.560 -0.6914 -0.4229 -0.6241
  828SOL     MW 3312   0.072   2.653   0.621 -0.8736 -0.1777 -0.8730
  829SOL     OW 3313   2.953   2.986   1.182  0.4592  0.1871  0.1752
  829SOL    HW1 3314   2.876   2.990   1.122  1.7753 -1.3550  3.0233
  829SOL    HW2 3315   2.997   2.897   1.160 -0.7410 -3.6433 -0.4439
  829SOL     MW 3316   2.948   2.975   1.171  0.4745 -0.5217  0.4693
  830SOL     OW 3317   2.535   2.830   1.991 -0.1243  0.0266  0.3992
  830SOL    HW1 3318   2.443   2.855   1.987  0.1990  1.5725 -0.3317
  830SOL    HW2 3319   2.564   2.804   1.901  1.4090  0.0621 -1.1684
  830SOL     MW 3320   2.527   2.830   1.978  0.1207  0.2353  0.0959
  831SOL     OW 3321   2.432   2.412   1.212 -0.2391 -0.1941  0.4688
  831SOL    HW1 3322   2.374   2.355   1.255 -2.0609  3.4707 -2.2696
  831SOL    HW2 3323   2.524   2.388   1.239 -0.8509 -0.3398  1.1307
  831SOL     MW 3324   2.437   2.401   1.221 -0.5602  0.2702  0.1948
  832SOL     OW 3325   2.303   2.204   1.853 -0.2179 -0.6377 -0.5918
  832SOL    HW1 3326   2.345   2.297   1.863 -2.9537 -1.1490 -0.7174
  832SOL    HW2 3327   2.382   2.149   1.845 -1.3104 -2.5983  0.1086
  832SOL     MW 3328   2.319   2.209   1.854 -0.7230 -0.9638 -0.5160
  833SOL     OW 3329   1.726   2.511   0.879 -0.4847  0.4239  0.1607
  833SOL    HW1 3330   1.660   2.452   0.912  2.2495  1.3642  1.4752
  833SOL    HW2 3331   1.743   2.583   0.940  0.0260 -2.6000 -2.4059
  833SOL     MW 3332   1.720   2.513   0.891 -0.0566  0.1490 -0.0045
  834SOL     OW 3333   2.156   2.444   0.546 -1.0779  0.1093  0.4095
  834SOL    HW1 3334   2.103   2.374   0.585 -0.2976 -2.6621  1.1504
  834SOL    HW2 3335   2.178   2.421   0.455  1.3589  0.8094 -0.9239
  834SOL     MW 3336   2.152   2.432   0.539 -0.6535 -0.1640  0.3314
  835SOL     OW 3337   1.829   2.564   0.639  0.0731  0.1993  0.1541
  835SOL    HW1 3338   1.785   2.545   0.716  0.6714  2.0341  0.3150
  835SOL    HW2 3339   1.909   2.614   0.662  0.5770  1.8742 -1.4078
  835SOL     MW 3340   1.834   2.568   0.652  0.2185  0.6624 -0.0307
  836SOL     OW 3341   1.898   2.238   1.541  0.0970 -0.0783 -0.2507
  836SOL    HW1 3342   1.973   2.198   1.584  1.7737 -0.2482  1.2486
  836SOL    HW2 3343   1.827   2.256   1.609  1.2234 -0.0414  0.7018
  836SOL     MW 3344   1.898   2.235   1.556  0.4668 -0.0958  0.0728
  837SOL     OW 3345   2.171   0.247   0.741 -0.5533 -0.4895 -0.0076
  837SOL    HW1 3346   2.073   0.244   0.713 -1.4140  0.0851 -2.2999
  837SOL    HW2 3347   2.220   0.204   0.666  3.0527  1.6327 -0.4254
  837SOL     MW 3348   2.164   0.241   0.727 -0.1910 -0.1337 -0.3652
  838SOL     OW 3349   2.938   2.072   0.932  0.0188  0.4009  0.6225
  838SOL    HW1 3350   2.856   2.018   0.918  2.3442 -1.8802  0.3390
  838SOL    HW2 3351   3.005   2.003   0.923  1.7590  1.2417 -2.5593
  838SOL     MW 3352   2.936   2.056   0.929  0.5552  0.2109  0.1653
  839SOL     OW 3353   1.521   2.332   1.052 -0.3988  0.6370 -0.2343
  839SOL    HW1 3354   1.521   2.397   1.124  1.9708  0.5098 -0.9609
  839SOL    HW2 3355   1.534   2.245   1.098  0.1716 -0.2786  2.2967
  839SOL     MW 3356   1.523   2.329   1.068 -0.0109  0.4994  0.0038
  840SOL     OW 3357   2.393   2.237   2.444  0.3003  0.4693 -0.9947
  840SOL    HW1 3358   2.361   2.309   2.397 -1.5022 -2.6627  1.7744
  840SOL    HW2 3359   2.353   2.250   2.528 -1.2161  0.5443 -0.1683
  840SOL     MW 3360   2.384   2.248   2.449 -0.1376  0.0659 -0.5203
  841SOL     OW 3361   2.116   2.498   0.110 -1.1531  0.0699 -0.3849
  841SOL    HW1 3362   2.184   2.529   0.048 -1.3278 -0.6760 -0.6193
  841SOL    HW2 3363   2.091   2.415   0.064 -1.3889 -0.8365 -0.8569
  841SOL     MW 3364   2.122   2.491   0.096 -1.2073 -0.1481 -0.4781
  842SOL     OW 3365   2.663   2.100   1.565  0.1232 -0.3301 -0.2534
  842SOL    HW1 3366   2.624   2.116   1.653  0.7653  1.1997 -1.7077
  842SOL    HW2 3367   2.585   2.065   1.518  2.0321  0.0400  0.3755
  842SOL     MW 3368   2.648   2.098   1.571  0.4597 -0.0795 -0.3623
  843SOL     OW 3369   2.664   2.762   1.758  0.0263 -0.2277  0.1372
  843SOL    HW1 3370   2.750   2.722   1.771 -1.1559  1.2251 -0.1271
  843SOL    HW2 3371   2.606   2.681   1.729 -1.3007 -0.4188  3.8944
  843SOL     MW 3372   2.668   2.746   1.756 -0.3048 -0.0612  0.5981
  844SOL     OW 3373   2.696   2.315   1.233  0.2737  0.4432  0.3388
  844SOL    HW1 3374   2.713   2.338   1.141  1.5704 -0.0411  0.3176
  844SOL    HW2 3375   2.761   2.368   1.284  4.2728  1.9953  2.6285
  844SOL     MW 3376   2.707   2.325   1.227  0.9724  0.5841  0.6381
  845SOL     OW 3377   2.872   2.473   0.343 -0.2124 -0.0620  0.1758
  845SOL    HW1 3378   2.829   2.387   0.326 -0.2337  0.3623 -1.3161
  845SOL    HW2 3379   2.846   2.498   0.432  1.0441 -0.5745  0.1156
  845SOL     MW 3380   2.863   2.465   0.353 -0.0494 -0.0737 -0.0290
  846SOL     OW 3381   1.508   2.876   0.751 -0.0903  0.2283  0.1568
  846SOL    HW1 3382   1.571   2.902   0.819  1.9777 -1.9130  1.2827
  846SOL    HW2 3383   1.425   2.922   0.777  1.0242 -0.8403  1.8939
  846SOL     MW 3384   1.506   2.885   0.764  0.3296 -0.1952  0.5346
  847SOL     OW 3385   2.628   1.976   0.155 -0.0083  0.4018  0.7138
  847SOL    HW1 3386   2.633   1.948   0.243  0.9778  1.3057  1.2791
  847SOL    HW2 3387   2.587   1.908   0.103 -3.4313 -0.1134  0.8302
  847SOL     MW 3388   2.624   1.964   0.160 -0.3298  0.4531  0.8037
  848SOL     OW 3389   2.506   2.077   1.284  0.6171  0.4336 -0.2686
  848SOL    HW1 3390   2.584   2.085   1.231  2.9880 -1.1013  1.9030
  848SOL    HW2 3391   2.469   1.987   1.257 -0.3137 -0.6198  0.4742
  848SOL     MW 3392   2.512   2.066   1.273  0.8071  0.0921  0.1159
  849SOL     OW 3393   2.053   2.674   0.777 -0.4403 -0.1463 -0.4867
  849SOL    HW1 3394   2.052   2.584   0.803  0.0981  4.3749  2.1010
  849SOL    HW2 3395   2.120   2.673   0.707  0.0159  0.3677  0.0760
  849SOL     MW 3396   2.062   2.662   0.771 -0.3091  0.5180 -0.0710
  850SOL     OW 3397   2.218   1.891   1.711  0.1480  0.6057  0.2092
  850SOL    HW1 3398   2.140   1.842   1.685 -0.5741  1.9378  0.6931
  850SOL    HW2 3399   2.190   1.976   1.685 -2.7492 -0.4237  1.4733
  850SOL     MW 3400   2.204   1.896   1.704 -0.3295  0.6457  0.4398
  851SOL     OW 3401   2.287   2.383   0.313  0.0307  0.0012 -0.1663
  851SOL    HW1 3402   2.238   2.426   0.244 -0.8162 -0.0765  3.0883
  851SOL    HW2 3403   2.362   2.450   0.330  0.5022 -1.1862  1.7352
  851SOL     MW 3404   2.290   2.398   0.306 -0.0188 -0.1657  0.5140
  852SOL     OW 3405   2.337   2.106   0.286  0.6453  0.0439  0.2211
  852SOL    HW1 3406   2.302   2.190   0.327 -0.1707  1.0318  0.4990
  852SOL    HW2 3407   2.369   2.136   0.200 -1.2559 -0.2742 -0.9351
  852SOL     MW 3408   2.336   2.121   0.280  0.2868  0.1323  0.1052
  853SOL     OW 3409   2.431   2.432   1.863  0.2037  0.0816  0.2751
  853SOL    HW1 3410   2.438   2.476   1.778 -1.5895  2.1514  0.0881
  853SOL    HW2 3411   2.520   2.401   1.881 -3.2025 -0.9463  0.4244
  853SOL     MW 3412   2.444   2.433   1.854 -0.4823  0.2191  0.2702
  854SOL     OW 3413   2.812   2.251   0.757  0.0916 -0.1900 -0.3412
  854SOL    HW1 3414   2.760   2.180   0.719  0.7366  0.0615 -1.6739
  854SOL    HW2 3415   2.876   2.204   0.814  1.8766 -0.6912 -2.2064
  854SOL     MW 3416   2.814   2.235   0.760  0.4122 -0.2229 -0.7631
  855SOL     OW 3417   2.722   2.242   0.371 -0.3849  0.2431  0.0959
  855SOL    HW1 3418   2.662   2.290   0.431  1.3058 -1.8232 -1.6766
  855SOL    HW2 3419   2.789   2.209   0.431  0.0617 -1.3080 -0.4913
  855SOL     MW 3420   2.723   2.244   0.387 -0.1029 -0.2342 -0.2154
  856SOL     OW 3421   2.176   1.866   0.205  0.2632  0.1617 -0.3512
  856SOL    HW1 3422   2.081   1.890   0.219  0.7463  2.9374  1.4139
  856SOL    HW2 3423   2.222   1.938   0.246  1.3189 -0.9618 -1.2802
  856SOL     MW 3424   2.170   1.879   0.212  0.4663  0.3797 -0.2408
  857SOL     OW 3425   2.465   1.901   0.442 -0.0176 -0.3435  0.0542
  857SOL    HW1 3426   2.426   1.967   0.384 -2.3240 -0.6371 -2.5676
  857SOL    HW2 3427   2.399   1.829   0.445  0.4011  0.2601  0.7091
  857SOL     MW 3428   2.451   1.900   0.434 -0.2667 -0.3026 -0.2053
  858SOL     OW 3429   2.933   2.683   1.801  0.0887  0.2848 -0.2645
  858SOL    HW1 3430   3.029   2.681   1.827  0.3390 -2.7331 -0.6331
  858SOL    HW2 3431   2.910   2.595   1.812  2.0118 -0.6000 -2.4157
  858SOL     MW 3432   2.943   2.671   1.806  0.3755 -0.2301 -0.5970
  859SOL     OW 3433   2.056   2.417   0.878  0.1789  0.0792  0.0397
  859SOL    HW1 3434   2.040   2.332   0.838  1.1223 -1.4851  1.5265
  859SOL    HW2 3435   2.138   2.414   0.925 -1.9217 -1.4649 -1.6011
  859SOL     MW 3436   2.065   2.405   0.879  0.0262 -0.3309  0.0194
  860SOL     OW 3437   2.676   2.564   0.165 -0.1755  0.0691 -0.0292
  860SOL    HW1 3438   2.750   2.547   0.218 -1.8758  0.3435  1.3875
  860SOL    HW2 3439   2.692   2.658   0.134 -0.9830  0.7408 -2.1864
  860SOL     MW 3440   2.688   2.574   0.168 -0.5064  0.1939 -0.1269
  861SOL     OW 3441   1.644   2.111   1.174 -0.4612 -0.8937  0.1131
  861SOL    HW1 3442   1.708   2.113   1.247 -0.0470  0.4073  1.3109
  861SOL    HW2 3443   1.575   2.054   1.214 -0.1507  1.8123  3.1239
  861SOL     MW 3444   1.643   2.104   1.189 -0.3656 -0.3650  0.6684
  862SOL     OW 3445   2.440   1.859   1.543  0.2224 -0.1767  0.5535
  862SOL    HW1 3446   2.371   1.881   1.613  1.4202 -0.1847  1.0887
  862SOL    HW2 3447   2.414   1.888   1.458  0.7694 -0.5640  0.3207
  862SOL     MW 3448   2.428   1.866   1.541  0.4526 -0.2288  0.5934
  863SOL     OW 3449   3.006   1.819   1.234 -0.0783  0.3132  0.6087
  863SOL    HW1 3450   3.081   1.771   1.264  0.2886  1.7524  2.5488
  863SOL    HW2 3451   3.037   1.907   1.246 -1.3749 -1.7130 -2.8373
  863SOL     MW 3452   3.020   1.825   1.240 -0.2010  0.2358  0.4100
  864SOL     OW 3453   0.037   1.860   0.918  0.5880  0.3014  0.0573
  864SOL    HW1 3454   0.039   1.833   1.006 -2.3931  0.5767 -0.7728
  864SOL    HW2 3455   0.002   1.788   0.870  0.5060  0.9804  0.6744
  864SOL     MW 3456   0.032   1.847   0.924  0.1838  0.4273  0.0292
  865SOL     OW 3457   2.478   2.162   0.037 -0.2829  0.3093 -0.0823
  865SOL    HW1 3458   2.549   2.102   0.079  4.2692 -0.7821 -1.0796
  865SOL    HW2 3459   2.455   2.121  -0.044 -1.7814  0.8748  2.9525
  865SOL     MW 3460   2.484   2.149   0.032  0.1200  0.2399  0.1865
  866SOL     OW 3461   2.706   2.371   1.525  0.3304 -0.8820  0.0801
  866SOL    HW1 3462   2.695   2.278   1.508  2.8520 -0.6753  1.1295
  866SOL    HW2 3463   2.748   2.411   1.446 -0.5336 -1.3646  0.8071
  866SOL     MW 3464   2.710   2.364   1.512  0.5491 -0.9184  0.3145
  867SOL     OW 3465   0.102   2.695   1.855 -0.1423  0.4440 -0.0348
  867SOL    HW1 3466   0.172   2.679   1.914  0.0162  0.6690 -2.9282
  867SOL    HW2 3467   0.131   2.784   1.836 -1.3372 -1.5478 -0.4200
  867SOL     MW 3468   0.115   2.705   1.860 -0.2791  0.2109 -0.4674
  868SOL     OW 3469   2.769   2.583   0.608 -0.3368 -0.6713  0.1287
  868SOL    HW1 3470   2.693   2.529   0.607 -1.9166  0.5426 -2.7197
  868SOL    HW2 3471   2.750   2.654   0.550  1.9799 -2.7069  0.5166
  868SOL     MW 3472   2.756   2.585   0.600 -0.2396 -0.7797 -0.1959
  869SOL     OW 3473   1.902   2.309   1.088  0.1222 -0.0074  0.3459
  869SOL    HW1 3474   1.953   2.350   1.019 -2.4361 -1.5319 -0.7373
  869SOL    HW2 3475   1.819   2.350   1.094 -1.9865  0.9950  0.4895
  869SOL     MW 3476   1.898   2.320   1.080 -0.4936 -0.0763  0.2219
  870SOL     OW 3477   2.318   0.112   0.529  0.4128  0.2565  0.0734
  870SOL    HW1 3478   2.337   0.135   0.438  0.0555  1.6961 -2.0544
  870SOL    HW2 3479   2.384   0.146   0.588 -1.3451 -3.3214  1.8205
  870SOL     MW 3480   2.329   0.120   0.524  0.1337 -0.0256  0.0232
  871SOL     OW 3481   2.448   2.169   0.780  0.2592 -0.3089  0.3293
  871SOL    HW1 3482   2.380   2.109   0.772 -1.1442 -0.9789 -0.0460
  871SOL    HW2 3483   2.430   2.228   0.855  1.0122  1.7202 -1.1177
  871SOL     MW 3484   2.437   2.169   0.789  0.1734 -0.1295  0.0888
  872SOL     OW 3485   2.038   2.580   1.465 -0.0905  0.6566 -0.0914
  872SOL    HW1 3486   2.005   2.590   1.553 -0.5339 -0.8145  0.6449
  872SOL    HW2 3487   1.978   2.522   1.413  0.1677  0.0818 -2.4060
  872SOL     MW 3488   2.025   2.573   1.470 -0.1149  0.3867 -0.2997
  873SOL     OW 3489   2.836   2.031   1.884 -0.0835 -0.4266  0.3759
  873SOL    HW1 3490   2.855   2.102   1.954 -1.2264 -0.9589  0.4194
  873SOL    HW2 3491   2.905   2.035   1.814 -1.6110 -1.9298 -0.1592
  873SOL     MW 3492   2.848   2.041   1.884 -0.4358 -0.6952  0.3110
  874SOL     OW 3493   2.428   1.549   2.272  0.5471 -0.3248  0.0128
  874SOL    HW1 3494   2.362   1.536   2.341  0.3508  2.5976 -2.8243
  874SOL    HW2 3495   2.491   1.478   2.286  0.0065  0.6666 -0.4051
  874SOL     MW 3496   2.428   1.538   2.283  0.4499  0.1916 -0.4166
  875SOL     OW 3497   2.333   2.382   0.959  0.2350  0.0799 -0.2626
  875SOL    HW1 3498   2.385   2.442   0.895  0.6902  4.5216  0.9258
  875SOL    HW2 3499   2.387   2.378   1.038  0.3759  1.0694  0.7776
  875SOL     MW 3500   2.347   2.390   0.961  0.3136  0.7965  0.0315
  876SOL     OW 3501   3.043   2.323   1.321  0.3030 -0.4235  0.1275
  876SOL    HW1 3502   3.087   2.346   1.241  2.2121 -1.3548 -1.1533
  876SOL    HW2 3503   3.100   2.363   1.394 -1.6105  1.2254  1.6111
  876SOL     MW 3504   3.056   2.331   1.320  0.3024 -0.3288  0.1543
  877SOL     OW 3505   3.084   2.804   0.428  0.0935 -0.4050 -0.1298
  877SOL    HW1 3506   3.109   2.890   0.401  0.7359 -1.8521 -1.0022
  877SOL    HW2 3507   3.073   2.747   0.351 -1.6589 -0.8425 -0.5720
  877SOL     MW 3508   3.086   2.808   0.415 -0.0530 -0.6537 -0.3033
  878SOL     OW 3509   2.409   1.834   1.239 -0.0008  0.0301  0.1127
  878SOL    HW1 3510   2.347   1.755   1.257  1.6107 -4.8167  0.5165
  878SOL    HW2 3511   2.501   1.806   1.226 -1.9757  0.5574  1.7295
  878SOL     MW 3512   2.413   1.820   1.239 -0.0487 -0.5398  0.3793
  879SOL     OW 3513   2.698   2.411   0.964  0.0500  0.0367  0.0896
  879SOL    HW1 3514   2.763   2.484   0.967 -0.3695 -1.1480  0.0815
  879SOL    HW2 3515   2.713   2.361   0.884 -1.5035  2.6593 -0.5430
  879SOL     MW 3516   2.709   2.414   0.954 -0.2103  0.2264  0.0050
  880SOL     OW 3517   2.711   2.030   0.606 -0.2515 -0.6211  0.6208
  880SOL    HW1 3518   2.629   1.993   0.649 -1.5465  1.2235  1.0843
  880SOL    HW2 3519   2.684   2.034   0.514 -1.6665 -1.0299 -1.0579
  880SOL     MW 3520   2.697   2.026   0.600 -0.6090 -0.4316  0.4605
  881SOL     OW 3521   2.922   2.755   0.760  0.0722 -0.3477 -0.4368
  881SOL    HW1 3522   2.872   2.680   0.713  0.2986 -2.3060 -1.1850
  881SOL    HW2 3523   3.018   2.742   0.733  0.2909  2.0511  0.8642
  881SOL     MW 3524   2.928   2.744   0.750  0.1309 -0.2896 -0.3639
  882SOL     OW 3525   2.273   2.850   1.889  0.4717 -0.7886 -0.3227
  882SOL    HW1 3526   2.257   2.828   1.798  0.4937  0.9712 -0.5733
  882SOL    HW2 3527   2.227   2.781   1.930 -1.4599 -1.5415 -1.3439
  882SOL     MW 3528   2.265   2.838   1.882  0.2198 -0.6557 -0.4905
  883SOL     OW 3529   2.277   2.206   1.379 -0.4560  0.0228 -0.3269
  883SOL    HW1 3530   2.360   2.159   1.349 -0.6234 -1.2714  0.5146
  883SOL    HW2 3531   2.208   2.190   1.309 -3.4794 -3.1411 -2.0482
  883SOL     MW 3532   2.279   2.198   1.366 -0.8770 -0.5654 -0.4430
  884SOL     OW 3533   1.975   1.772   1.105 -0.1490  0.4735 -0.3728
  884SOL    HW1 3534   1.929   1.838   1.045  3.0973  0.7507  0.9082
  884SOL    HW2 3535   2.058   1.814   1.128  0.4994 -0.3320 -0.7680
  884SOL     MW 3536   1.980   1.786   1.100  0.3649  0.4038 -0.2559
  885SOL     OW 3537   2.843   2.431   1.761  0.0973 -0.8068  0.8700
  885SOL    HW1 3538   2.912   2.372   1.776 -1.6991  0.1398 -1.0161
  885SOL    HW2 3539   2.803   2.400   1.683  0.4591  0.0596  2.7486
  885SOL     MW 3540   2.847   2.419   1.753 -0.0920 -0.5676  0.8690
  886SOL     OW 3541   2.852   2.522   1.331 -0.1657  0.7898  0.1893
  886SOL    HW1 3542   2.937   2.473   1.323  0.7958  1.7571 -1.2549
  886SOL    HW2 3543   2.874   2.590   1.393 -3.4524 -0.9069 -0.1007
  886SOL     MW 3544   2.866   2.524   1.338 -0.4725  0.6935 -0.0395
  887SOL     OW 3545   2.328   2.617   1.464 -0.5776  0.0521 -0.4462
  887SOL    HW1 3546   2.340   2.648   1.373  0.5913  2.4239  1.4186
  887SOL    HW2 3547   2.244   2.573   1.454  0.5077 -1.8374 -1.2414
  887SOL     MW 3548   2.319   2.615   1.450 -0.2802  0.1157 -0.3051
  888SOL     OW 3549   1.839   2.039   1.383 -0.2087  0.1400 -0.4055
  888SOL    HW1 3550   1.932   2.034   1.351 -0.8321  1.6191  2.3321
  888SOL    HW2 3551   1.849   2.113   1.449 -0.4405  0.1809  1.7205
  888SOL     MW 3552   1.852   2.048   1.387 -0.3215  0.3405  0.2362
  889SOL     OW 3553   2.268   2.084   2.104 -0.0457 -0.0810 -0.1149
  889SOL    HW1 3554   2.356   2.059   2.141  0.1381  0.6748  0.5263
  889SOL    HW2 3555   2.277   2.131   2.019  0.5898  2.5072  2.1210
  889SOL     MW 3556   2.281   2.087   2.097  0.0624  0.3602  0.2647
  890SOL     OW 3557   0.103   2.300   0.087  0.1689  0.2048 -0.5493
  890SOL    HW1 3558   0.021   2.345   0.061 -1.0454  1.5038  0.8041
  890SOL    HW2 3559   0.104   2.300   0.184 -0.5812  0.5016 -0.9861
  890SOL     MW 3560   0.092   2.306   0.096 -0.0903  0.4154 -0.4284
  891SOL     OW 3561   3.064   2.059   1.361 -0.4559 -0.6826 -0.4986
  891SOL    HW1 3562   3.126   2.051   1.431  0.1263 -1.1137 -0.8409
  891SOL    HW2 3563   3.058   2.160   1.353  0.9959 -2.8206  0.1140
  891SOL     MW 3564   3.071   2.071   1.370 -0.1875 -1.0216 -0.4629
  892SOL     OW 3565   2.342   2.351   2.912 -0.0597  0.1907  0.7765
  892SOL    HW1 3566   2.344   2.284   2.978  0.1595  2.8582  0.8330
  892SOL    HW2 3567   2.433   2.384   2.909 -0.9622  0.6726 -1.6306
  892SOL     MW 3568   2.354   2.346   2.920 -0.1498  0.6062  0.4664
  893SOL     OW 3569   1.574   2.493   1.284  0.2421  0.3031 -0.4407
  893SOL    HW1 3570   1.506   2.524   1.351 -2.8654  1.2948  2.3909
  893SOL    HW2 3571   1.649   2.462   1.339  3.5832 -0.4064  0.5419
  893SOL     MW 3572   1.575   2.493   1.300  0.2729  0.3403  0.0625
  894SOL     OW 3573   2.898   1.823   0.555  0.0638 -0.1148 -0.4171
  894SOL    HW1 3574   2.825   1.886   0.582 -3.1637  4.6956  0.6881
  894SOL    HW2 3575   2.871   1.800   0.461 -0.2725 -0.7278  2.6293
  894SOL     MW 3576   2.885   1.828   0.546 -0.4064  0.4390  0.1307
  895SOL     OW 3577   2.070   2.134   1.220  0.1470  0.0990 -0.0050
  895SOL    HW1 3578   2.007   2.186   1.167  0.5184 -0.5982  1.0306
  895SOL    HW2 3579   2.129   2.083   1.161  2.0353  0.2050  1.1076
  895SOL     MW 3580   2.069   2.134   1.205  0.4452  0.0210  0.2784
  896SOL     OW 3581   2.194   2.805   0.990 -0.1065 -0.3241  0.7767
  896SOL    HW1 3582   2.238   2.773   1.070  0.6886  0.2550  0.8007
  896SOL    HW2 3583   2.133   2.745   0.961  0.3598  4.3664  1.2644
  896SOL     MW 3584   2.192   2.793   0.997  0.0599  0.3711  0.8442
  897SOL     OW 3585   2.993   2.931   0.189  0.0452  0.4976  0.3440
  897SOL    HW1 3586   3.073   2.894   0.146  0.0614  2.5712  1.5407
  897SOL    HW2 3587   2.918   2.879   0.147 -2.8202 -0.0652  0.4504
  897SOL     MW 3588   2.994   2.919   0.178 -0.3308  0.6969  0.5159
  898SOL     OW 3589   2.079   0.134   1.389  0.1755  0.1408  0.6004
  898SOL    HW1 3590   2.031   0.081   1.327  1.8347 -0.5881  0.2849
  898SOL    HW2 3591   2.129   0.196   1.335  3.0433  1.2451 -0.1403
  898SOL     MW 3592   2.080   0.135   1.374  0.7728  0.1903  0.4610
  899SOL     OW 3593   2.865   2.964   0.581 -0.2545 -0.4868  0.2759
  899SOL    HW1 3594   2.892   2.920   0.663  1.7639 -0.1825 -1.6788
  899SOL    HW2 3595   2.782   3.006   0.598  0.0567 -0.2807  0.0267
  899SOL     MW 3596   2.858   2.964   0.594  0.0529 -0.4195 -0.0149
  900SOL     OW 3597   0.123   2.451   1.131  0.0287 -0.6683 -0.0585
  900SOL    HW1 3598   0.121   2.543   1.107 -1.9499 -0.7896  2.6392
  900SOL    HW2 3599   0.105   2.396   1.052 -0.7294 -0.2525  1.0828
  900SOL     MW 3600   0.120   2.456   1.118 -0.3324 -0.6295  0.4481
  901SOL     OW 3601   1.727   2.837   1.779  0.2890 -0.2772  0.3710
  901SOL    HW1 3602   1.774   2.754   1.758 -0.7485 -0.5610 -0.0788
  901SOL    HW2 3603   1.692   2.857   1.691 -0.6014 -1.1853 -2.7842
  901SOL     MW 3604   1.729   2.829   1.765  0.0346 -0.4344 -0.1046
  902SOL     OW 3605   2.566   2.091   1.815  0.5667  0.2346  0.1034
  902SOL    HW1 3606   2.554   1.990   1.803 -0.0736 -0.6830 -2.3236
  902SOL    HW2 3607   2.656   2.080   1.853  0.2095  0.3526  1.7205
  902SOL     MW 3608   2.576   2.076   1.819  0.4351  0.1291 -0.0035
  903SOL     OW 3609   1.678   2.788   0.521  0.0653 -0.2636 -0.0564
  903SOL    HW1 3610   1.734   2.718   0.555 -2.9249  2.2000 -2.5029
  903SOL    HW2 3611   1.621   2.813   0.593  0.7819  0.6469 -0.5236
  903SOL     MW 3612   1.678   2.782   0.535 -0.2347  0.1816 -0.4408
  904SOL     OW 3613   2.524   2.551   1.638 -0.4878 -0.3917  0.0964
  904SOL    HW1 3614   2.477   2.582   1.561  0.7444 -1.0172 -1.9529
  904SOL    HW2 3615   2.589   2.490   1.600  1.1732  2.1116 -2.0185
  904SOL     MW 3616   2.527   2.547   1.622 -0.1061 -0.1440 -0.4530
  905SOL     OW 3617   2.403   2.552   2.108 -0.2256  0.1432 -0.0578
  905SOL    HW1 3618   2.414   2.492   2.033 -0.4576 -0.7296  0.8397
  905SOL    HW2 3619   2.358   2.518   2.189 -0.4708 -0.2619  0.6134
  905SOL     MW 3620   2.398   2.540   2.108 -0.2886 -0.0254  0.1492
  906SOL     OW 3621   2.514   2.512   0.787  0.5848 -0.1068 -0.5717
  906SOL    HW1 3622   2.582   2.484   0.850 -1.3956 -0.7301 -0.4412
  906SOL    HW2 3623   2.495   2.602   0.817  0.4290  2.3889  0.7918
  906SOL     MW 3624   2.520   2.520   0.799  0.3029  0.1403 -0.3746
  907SOL     OW 3625   2.549   2.899   1.256  0.6206 -0.5731  0.1308
  907SOL    HW1 3626   2.598   2.894   1.335  0.0470  1.4659  1.0677
  907SOL    HW2 3627   2.612   2.889   1.186 -0.2889 -0.6825 -0.7643
  907SOL     MW 3628   2.564   2.897   1.257  0.4249 -0.3185  0.1363
  908SOL     OW 3629   2.659   2.359  -0.003  0.6603 -0.0298 -0.2870
  908SOL    HW1 3630   2.592   2.289   0.022 -1.9066  0.0094  2.6538
  908SOL    HW2 3631   2.653   2.430   0.073 -1.3541  2.1801  0.9548
  908SOL     MW 3632   2.649   2.359   0.010  0.0559  0.2669  0.2649
  909SOL     OW 3633   1.751   0.168   1.035 -0.6497  0.1898 -0.1494
  909SOL    HW1 3634   1.767   0.259   1.021 -0.7189  0.4242  0.3587
  909SOL    HW2 3635   1.740   0.158   1.129  0.1841  0.6167  0.1453
  909SOL     MW 3636   1.752   0.179   1.045 -0.5488  0.2770 -0.0435
  910SOL     OW 3637   2.289   1.677   0.411  0.0889  0.3702  0.2474
  910SOL    HW1 3638   2.210   1.634   0.439 -2.5911  1.2776 -0.5449
  910SOL    HW2 3639   2.271   1.712   0.324  0.8554  0.7168 -0.1205
  910SOL     MW 3640   2.276   1.676   0.403 -0.1636  0.5356  0.0943
  911SOL     OW 3641   2.149   2.143   1.627 -0.1829  0.5841 -0.3912
  911SOL    HW1 3642   2.200   2.180   1.701  2.4855  1.1916 -2.1800
  911SOL    HW2 3643   2.192   2.168   1.545  0.5913  0.8639 -0.1958
  911SOL     MW 3644   2.162   2.151   1.626  0.2713  0.7012 -0.6014
  912SOL     OW 3645   2.850   1.920   1.509  0.1902  0.0158  0.0353
  912SOL    HW1 3646   2.896   1.961   1.436  0.8001 -0.0838  1.4735
  912SOL    HW2 3647   2.787   1.987   1.544  0.5449 -0.2185 -1.1786
  912SOL     MW 3648   2.848   1.934   1.504  0.3175 -0.0282  0.0649
  913SOL     OW 3649   2.563   2.947   0.334 -0.4994 -0.5159  0.3915
  913SOL    HW1 3650   2.637   2.892   0.361 -2.1598  0.8146 -0.8748
  913SOL    HW2 3651   2.484   2.903   0.362  0.1956  0.8358  0.1755
  913SOL     MW 3652   2.562   2.934   0.341 -0.6268 -0.1620  0.1960
  914SOL     OW 3653   2.803   1.645   0.020 -0.0749 -0.2877  0.0606
  914SOL    HW1 3654   2.796   1.715  -0.049 -0.5668 -0.9306  1.7057
  914SOL    HW2 3655   2.717   1.613   0.035 -2.0793 -2.1307  1.0619
  914SOL     MW 3656   2.791   1.650   0.013 -0.4042 -0.6157  0.4097
  915SOL     OW 3657   1.907   0.178   0.233 -0.5498  0.0832 -0.8525
  915SOL    HW1 3658   1.958   0.104   0.269 -1.7725  0.6713 -0.0931
  915SOL    HW2 3659   1.813   0.155   0.247  0.0844 -0.1064 -1.6188
  915SOL     MW 3660   1.901   0.165   0.239 -0.6274  0.1358 -0.8534
  916SOL     OW 3661   1.855   2.089   1.978 -0.1733  0.2922 -0.3714
  916SOL    HW1 3662   1.860   2.172   1.936 -0.9749  1.4925 -1.7863
  916SOL    HW2 3663   1.836   2.021   1.912 -0.1392  1.9888 -3.1846
  916SOL     MW 3664   1.853   2.091   1.964 -0.2746  0.6744 -0.9293
  917SOL     OW 3665   2.227   2.337   2.650 -0.2447  0.2339  0.3529
  917SOL    HW1 3666   2.264   2.327   2.742  0.2590 -1.2978  2.7837
  917SOL    HW2 3667   2.254   2.433   2.637  0.7744  0.3897  0.3307
  917SOL     MW 3668   2.235   2.349   2.661 -0.0438  0.0523  0.6707
  918SOL     OW 3669   1.976   1.666   2.595  0.1753 -0.1628  0.3375
  918SOL    HW1 3670   1.892   1.709   2.562 -2.6993  1.1071  2.1784
  918SOL    HW2 3671   2.043   1.731   2.568 -0.3762 -1.4620  1.1879
  918SOL     MW 3672   1.974   1.680   2.587 -0.2767 -0.1667  0.6926
  919SOL     OW 3673   3.004   2.370   2.294  0.1727 -0.0536 -0.9687
  919SOL    HW1 3674   2.936   2.308   2.252 -0.6507  2.5281  0.4591
  919SOL    HW2 3675   3.067   2.348   2.223 -1.7561 -1.7051  0.0474
  919SOL     MW 3676   3.003   2.359   2.279 -0.1904  0.0691 -0.6463
  920SOL     OW 3677   2.771   2.811   0.076 -0.2457  0.3549 -0.8309
  920SOL    HW1 3678   2.690   2.866   0.067  1.5388  2.5614  0.2828
  920SOL    HW2 3679   2.779   2.756  -0.004 -0.9306  0.1197 -0.6991
  920SOL     MW 3680   2.761   2.811   0.064 -0.1006  0.6150 -0.6666
  921SOL     OW 3681   2.570   2.653   2.689 -0.2351  0.2044 -0.1078
  921SOL    HW1 3682   2.632   2.648   2.620 -0.8299  2.1667  0.1531
  921SOL    HW2 3683   2.576   2.565   2.726 -2.0092  4.3404  2.6261
  921SOL     MW 3684   2.579   2.641   2.685 -0.5477  1.0090  0.2873
  922SOL     OW 3685   2.052   2.870   0.282 -0.6480 -0.2823  0.4597
  922SOL    HW1 3686   1.995   2.879   0.205  0.6134  1.2893  1.8193
  922SOL    HW2 3687   2.047   2.780   0.298 -2.8403 -1.6768 -0.8694
  922SOL     MW 3688   2.044   2.859   0.274 -0.7708 -0.2590  0.4637
  923SOL     OW 3689   2.173   2.782   1.637 -0.1845  0.1728 -1.2483
  923SOL    HW1 3690   2.240   2.749   1.574 -0.3892  2.0631  0.4027
  923SOL    HW2 3691   2.159   2.872   1.613  0.4331 -0.6985 -2.6814
  923SOL     MW 3692   2.180   2.790   1.625 -0.1300  0.3072 -1.2196
  924SOL     OW 3693   1.128   2.758   2.469  0.6015 -0.5804 -0.2471
  924SOL    HW1 3694   1.174   2.821   2.410  0.6184 -0.9743 -0.0219
  924SOL    HW2 3695   1.197   2.712   2.515 -0.1758  0.6960  0.6806
  924SOL     MW 3696   1.143   2.760   2.467  0.5012 -0.4639 -0.0950
  925SOL     OW 3697   3.053   0.276   2.675 -0.1268 -0.2771 -0.2160
  925SOL    HW1 3698   3.069   0.300   2.584  0.5915  0.9918 -1.5463
  925SOL    HW2 3699   3.038   0.349   2.735  0.4409  0.3495  0.1921
  925SOL     MW 3700   3.053   0.289   2.671  0.0428 -0.0270 -0.3377
  926SOL     OW 3701   2.691   2.387   1.984 -0.0720  0.0319  0.4939
  926SOL    HW1 3702   2.688   2.453   2.054 -0.5713  2.3102  3.2957
  926SOL    HW2 3703   2.749   2.413   1.909 -0.0273  1.9224  1.6541
  926SOL     MW 3704   2.698   2.399   1.984 -0.1320  0.5819  1.0166
  927SOL     OW 3705   2.386   0.168   0.269 -0.3669 -0.3604  0.1241
  927SOL    HW1 3706   2.465   0.191   0.220 -0.0211 -1.5288  0.0882
  927SOL    HW2 3707   2.311   0.154   0.203  2.7697 -2.8633  1.2776
  927SOL     MW 3708   2.387   0.169   0.254  0.0926 -0.8448  0.2716
  928SOL     OW 3709   2.087   2.446   1.855 -0.5831  0.1383 -0.4380
  928SOL    HW1 3710   2.129   2.359   1.876 -1.6465  1.1109 -0.4752
  928SOL    HW2 3711   2.116   2.510   1.924  2.0490 -1.2550  2.1161
  928SOL     MW 3712   2.097   2.443   1.867 -0.3761  0.0828 -0.1059
  929SOL     OW 3713   2.710   2.312   2.494  0.4764  0.0880 -0.0865
  929SOL    HW1 3714   2.621   2.280   2.496 -0.3899 -0.2184  1.5801
  929SOL    HW2 3715   2.763   2.283   2.569 -0.6126  0.5789 -1.5178
  929SOL     MW 3716   2.705   2.304   2.504  0.2184  0.1124 -0.0555
  930SOL     OW 3717   2.020   2.904   2.706  0.5926 -0.3731 -0.4348
  930SOL    HW1 3718   2.031   2.827   2.770 -1.4364 -1.1373 -1.5674
  930SOL    HW2 3719   2.116   2.937   2.688 -0.4044  0.3601 -0.2645
  930SOL     MW 3720   2.034   2.898   2.712  0.1933 -0.3772 -0.5618
  931SOL     OW 3721   2.968   2.804   2.094 -0.5983  0.4462  0.9565
  931SOL    HW1 3722   3.058   2.784   2.103  0.3709  0.0130 -0.2319
  931SOL    HW2 3723   2.949   2.813   2.000  0.0854  1.4902  1.2395
  931SOL     MW 3724   2.977   2.803   2.083 -0.3802  0.5268  0.8370
  932SOL     OW 3725   2.807   1.941   2.546  0.2900 -0.7814  0.3560
  932SOL    HW1 3726   2.892   1.981   2.561  0.6299  0.3905  2.0898
  932SOL    HW2 3727   2.792   1.969   2.455  2.7555  3.2933 -1.0838
  932SOL     MW 3728   2.816   1.950   2.536  0.6601 -0.0892  0.3948
  933SOL     OW 3729   2.108   2.780   2.269  0.1887  0.7616  0.0268
  933SOL    HW1 3730   2.192   2.821   2.296 -1.2204  0.6543  1.0418
  933SOL    HW2 3731   2.042   2.847   2.259 -0.1786 -0.7511 -0.5441
  933SOL     MW 3732   2.110   2.794   2.271 -0.0457  0.5479  0.0854
  934SOL     OW 3733   2.080   2.711   2.542  0.1777 -0.2684 -0.3728
  934SOL    HW1 3734   2.052   2.792   2.589  0.0337 -3.4730  0.1979
  934SOL    HW2 3735   2.072   2.734   2.446 -1.7043 -0.6085 -3.1174
  934SOL     MW 3736   2.075   2.725   2.535 -0.0896 -0.7361 -0.6596
  935SOL     OW 3737   2.658   1.572   1.840  0.0225  0.2387 -0.5872
  935SOL    HW1 3738   2.749   1.568   1.801  1.5000  1.0154 -3.1058
  935SOL    HW2 3739   2.585   1.558   1.765  0.0896 -0.3775 -2.1903
  935SOL     MW 3740   2.660   1.569   1.825  0.2263  0.2599 -1.1310
  936SOL     OW 3741   2.885   2.193   0.023 -0.2655 -0.1202 -0.4149
  936SOL    HW1 3742   2.909   2.273   0.070  0.4128 -1.3287 -1.4310
  936SOL    HW2 3743   2.804   2.223  -0.021 -0.9726  1.8237  2.0223
  936SOL     MW 3744   2.877   2.207   0.023 -0.2693 -0.0232 -0.2274
  937SOL     OW 3745   1.969   2.265   2.623  0.0784 -0.6952  0.2155
  937SOL    HW1 3746   2.063   2.288   2.636  2.1360  1.8469 -2.0723
  937SOL    HW2 3747   1.957   2.257   2.524 -0.3779 -0.3031  0.4619
  937SOL     MW 3748   1.980   2.267   2.612  0.2896 -0.3080 -0.0539
  938SOL     OW 3749   2.278   1.838   1.979 -0.1648  0.0261 -0.0205
  938SOL    HW1 3750   2.258   1.856   1.890  0.1501 -2.1081  1.7016
  938SOL    HW2 3751   2.260   1.910   2.043  1.9764  0.1254  1.7808
  938SOL     MW 3752   2.273   1.850   1.976  0.1593 -0.2424  0.4444
  939SOL     OW 3753   2.758   2.037   2.272  0.5124  0.1047 -0.2128
  939SOL    HW1 3754   2.768   1.954   2.224  0.2347  1.6293  1.2224
  939SOL    HW2 3755   2.662   2.049   2.276 -2.8084  2.3337 -0.5720
  939SOL     MW 3756   2.747   2.028   2.266  0.0376  0.6000 -0.0708
  940SOL     OW 3757   2.318   0.174   2.646 -0.4557 -0.5203  0.2975
  940SOL    HW1 3758   2.283   0.086   2.651  1.7196  3.1158  0.0444
  940SOL    HW2 3759   2.333   0.199   2.740 -0.9034 -0.5481  2.1117
  940SOL     MW 3760   2.315   0.166   2.659 -0.2278 -0.0442  0.5035
  941SOL     OW 3761   0.098   2.346   2.089 -0.1657 -0.0171 -0.3949
  941SOL    HW1 3762   0.168   2.289   2.081 -5.3892  2.9153 -2.1915
  941SOL    HW2 3763   0.034   2.313   2.022 -2.6403 -1.3618  1.5935
  941SOL     MW 3764   0.099   2.334   2.079 -1.1814  0.1924 -0.3696
  942SOL     OW 3765   2.874   2.224   2.094  0.5623  0.0595 -0.0905
  942SOL    HW1 3766   2.805   2.282   2.071  0.2935  2.0209  0.5785
  942SOL    HW2 3767   2.834   2.161   2.156  0.1990 -0.5453 -0.3352
  942SOL     MW 3768   2.860   2.223   2.099  0.4789  0.2385 -0.0345
  943SOL     OW 3769   0.194   2.032   2.329  0.3218 -0.2552  0.2031
  943SOL    HW1 3770   0.128   2.080   2.374  1.5807 -0.5110 -1.1783
  943SOL    HW2 3771   0.258   2.006   2.391  0.2298 -1.6999  0.1632
  943SOL     MW 3772   0.194   2.035   2.343  0.4757 -0.4795  0.0155
  944SOL     OW 3773   2.158   2.643   2.022 -0.3956  0.1983  0.0292
  944SOL    HW1 3774   2.248   2.614   2.054 -0.7993  2.4534 -0.1323
  944SOL    HW2 3775   2.119   2.670   2.107 -1.2136  1.2466 -1.8970
  944SOL     MW 3776   2.165   2.643   2.038 -0.5568  0.6342 -0.2462
  945SOL     OW 3777   2.787   2.630   2.952 -0.1831 -0.0341 -0.2784
  945SOL    HW1 3778   2.729   2.565   2.904  1.8427 -0.5423 -2.2611
  945SOL    HW2 3779   2.852   2.652   2.884 -3.6393  1.7285  0.7199
  945SOL     MW 3780   2.788   2.624   2.937 -0.3718  0.1314 -0.4083
  946SOL     OW 3781   2.553   2.719   2.285 -0.1979 -0.5899  0.1170
  946SOL    HW1 3782   2.623   2.744   2.230  0.4915 -0.2310 -0.4694
  946SOL    HW2 3783   2.502   2.664   2.220  2.5179  0.3664  0.7159
  946SOL     MW 3784   2.556   2.715   2.269  0.2513 -0.4164  0.1186
  947SOL     OW 3785   2.082   3.104   0.427 -0.1901  0.8343 -0.0486
  947SOL    HW1 3786   2.093   3.014   0.392 -1.2313 -0.4532  2.8266
  947SOL    HW2 3787   2.163   3.122   0.470 -3.8165 -1.3992 -1.7262
  947SOL     MW 3788   2.094   3.094   0.428 -0.8060  0.3698  0.1094
  948SOL     OW 3789   1.825   3.083   2.633  0.1275  0.2868  0.4210
  948SOL    HW1 3790   1.894   3.025   2.655 -1.0309 -3.2983 -0.2810
  948SOL    HW2 3791   1.862   3.115   2.552 -0.2119  0.4768 -0.3472
  948SOL     MW 3792   1.839   3.080   2.625 -0.0701 -0.1611  0.2270
  949SOL     OW 3793   2.481   2.013   2.264  0.4910  0.3826  0.1534
  949SOL    HW1 3794   2.499   1.927   2.300 -0.4572  0.5643  1.7162
  949SOL    HW2 3795   2.439   2.060   2.336 -0.9926  0.3830  0.1854
  949SOL     MW 3796   2.478   2.008   2.278  0.1701  0.4066  0.3638
  950SOL     OW 3797   2.281   2.604   3.012 -0.2146 -0.2124  0.3063
  950SOL    HW1 3798   2.287   2.518   2.974 -1.9956  0.2401 -1.0282
  950SOL    HW2 3799   2.194   2.630   2.971 -0.2216 -1.8460  0.4936
  950SOL     MW 3800   2.270   2.596   3.002 -0.4505 -0.3683  0.1550
  951SOL     OW 3801   2.882   2.066   2.879  0.1019  0.4057  0.0848
  951SOL    HW1 3802   2.932   2.100   2.949 -1.2929 -0.3072 -1.2715
  951SOL    HW2 3803   2.950   2.049   2.804  2.0796 -1.6745 -0.8248
  951SOL     MW 3804   2.898   2.068   2.878  0.1788  0.0372 -0.2142
  952SOL     OW 3805   3.045   1.675   2.077  0.0249 -0.1412 -0.2422
  952SOL    HW1 3806   2.984   1.747   2.063 -0.0525 -0.1342  0.0811
  952SOL    HW2 3807   3.135   1.711   2.101  0.5988 -1.8810 -0.5825
  952SOL     MW 3808   3.049   1.690   2.078  0.0904 -0.3699 -0.2445
  953SOL     OW 3809   1.929   1.823   2.803 -0.0635  0.7897 -0.4651
  953SOL    HW1 3810   1.849   1.793   2.841  1.3135 -1.2022  1.1244
  953SOL    HW2 3811   1.957   1.761   2.740 -0.4171 -0.6827  1.1050
  953SOL     MW 3812   1.922   1.811   2.799  0.0715  0.3326 -0.0482
  954SOL     OW 3813   2.415   2.049   2.908 -0.0097 -0.3598  0.0556
  954SOL    HW1 3814   2.341   2.052   2.842  1.9892  0.4994 -0.7374
  954SOL    HW2 3815   2.487   2.017   2.847  0.1234 -0.4340 -0.0525
  954SOL     MW 3816   2.415   2.045   2.891  0.2716 -0.2562 -0.0633
  955SOL     OW 3817   1.581   1.608   2.561  0.0364 -0.0111  0.2351
  955SOL    HW1 3818   1.565   1.572   2.472  2.9881 -0.4684  0.4978
  955SOL    HW2 3819   1.638   1.687   2.539 -4.0547  0.2525  0.6178
  955SOL     MW 3820   1.586   1.614   2.546 -0.1139 -0.0366  0.3202
  956SOL     OW 3821   2.614   2.427   2.850  0.0681 -1.3733  0.2029
  956SOL    HW1 3822   2.625   2.421   2.955 -0.3578 -1.4257 -1.3352
  956SOL    HW2 3823   2.688   2.368   2.816  0.6066  0.0313 -0.3690
  956SOL     MW 3824   2.626   2.419   2.859  0.0829 -1.1949 -0.0755
  957SOL     OW 3825   2.320   2.809   0.362 -0.1314  0.4709  1.0702
  957SOL    HW1 3826   2.239   2.835   0.316 -2.2426 -0.4782 -2.7709
  957SOL    HW2 3827   2.285   2.782   0.450 -2.9808  1.9953 -0.7421
  957SOL     MW 3828   2.305   2.809   0.367 -0.7859  0.5468  0.3243
  958SOL     OW 3829   2.026   2.707   2.919 -0.1372 -0.3657  0.1048
  958SOL    HW1 3830   1.967   2.638   2.888  1.2095 -0.4090  0.1865
  958SOL    HW2 3831   1.967   2.775   2.947  1.2809  1.0968 -0.1922
  958SOL     MW 3832   2.010   2.707   2.918  0.2276 -0.1784  0.0764
  959SOL     OW 3833   2.479   2.581   0.345  0.0394 -0.1466  0.2397
  959SOL    HW1 3834   2.550   2.593   0.282  0.8481 -1.9595  0.4183
  959SOL    HW2 3835   2.432   2.668   0.348 -2.5826  1.1210 -0.1864
  959SOL     MW 3836   2.482   2.594   0.337 -0.1998 -0.2186  0.2070
  960SOL     OW 3837   1.970   2.467   2.329 -0.0014 -0.6365 -0.7835
  960SOL    HW1 3838   1.938   2.385   2.290  2.4255  0.1554 -0.5026
  960SOL    HW2 3839   1.910   2.474   2.408  0.9089  1.4928 -0.9196
  960SOL     MW 3840   1.958   2.457   2.334  0.4389 -0.2511 -0.7644
  961SOL     OW 3841   2.243   2.459   2.326  0.0004  0.1318 -0.2670
  961SOL    HW1 3842   2.147   2.465   2.324 -1.8308  1.3388  1.4656
  961SOL    HW2 3843   2.278   2.505   2.406 -0.9915  0.2294  1.2758
  961SOL     MW 3844   2.235   2.466   2.337 -0.3721  0.3040  0.1651
  962SOL     OW 3845   2.181   2.009   2.738  0.0287  0.4378  0.4478
  962SOL    HW1 3846   2.145   1.976   2.817  0.8069  1.3620  2.2575
  962SOL    HW2 3847   2.159   1.948   2.667  4.1168  0.0937  1.6338
  962SOL     MW 3848   2.174   1.997   2.739  0.6708  0.5144  0.8430
  963SOL     OW 3849   1.742   2.524   2.159 -0.8135 -0.4373  0.3664
  963SOL    HW1 3850   1.822   2.529   2.211  1.4604  1.0654  3.4881
  963SOL    HW2 3851   1.757   2.468   2.075 -1.3561 -1.9832 -2.0948
  963SOL     MW 3852   1.754   2.517   2.154 -0.5851 -0.4430  0.4536
  964SOL     OW 3853   1.846   2.033   2.653  0.2289 -0.2313 -0.2431
  964SOL    HW1 3854   1.911   2.107   2.657 -1.1898  0.3213  1.0763
  964SOL    HW2 3855   1.896   1.971   2.700 -2.9804  0.7637 -2.1919
  964SOL     MW 3856   1.861   2.035   2.660 -0.3817 -0.0271 -0.3261
  965SOL     OW 3857   2.244   2.705   0.598  0.2168  0.1100  0.0805
  965SOL    HW1 3858   2.248   2.611   0.580  1.2393 -0.8878  0.6605
  965SOL    HW2 3859   2.298   2.727   0.675 -1.4472 -1.0399 -0.8514
  965SOL     MW 3860   2.251   2.696   0.606  0.1322 -0.1734  0.0341
  966SOL     OW 3861   2.730   2.589   2.455 -0.1067 -0.1657  0.6350
  966SOL    HW1 3862   2.694   2.612   2.368 -0.2148  2.1709  0.6315
  966SOL    HW2 3863   2.717   2.497   2.460 -0.1780  0.5202 -2.9728
  966SOL     MW 3864   2.724   2.580   2.444 -0.1304  0.2331  0.1585
  967SOL     OW 3865   2.817   3.085   2.994 -0.1403 -0.6996 -0.3828
  967SOL    HW1 3866   2.770   3.011   3.031 -1.3186 -0.7105 -4.0112
  967SOL    HW2 3867   2.754   3.122   2.932  2.1006  0.2040 -1.0592
  967SOL     MW 3868   2.802   3.080   2.991 -0.0001 -0.5818 -0.9508
  968SOL     OW 3869   3.018   2.477   3.061  0.3067  0.3478 -0.9489
  968SOL    HW1 3870   2.926   2.504   3.055  2.9110 -3.3426 -1.0523
  968SOL    HW2 3871   3.041   2.475   2.966 -1.3313 -0.1334 -0.1465
  968SOL     MW 3872   3.009   2.480   3.048  0.4342 -0.2026 -0.8567
  969SOL     OW 3873   1.548   2.138   1.715 -1.1483 -0.1221 -0.3632
  969SOL    HW1 3874   1.605   2.070   1.688  2.2930 -0.1909  0.2673
  969SOL    HW2 3875   1.547   2.125   1.808  2.6191 -1.4321 -0.7741
  969SOL     MW 3876   1.556   2.127   1.724 -0.1972 -0.3040 -0.3342
  970SOL     OW 3877   1.660   1.678   1.820  0.1038 -0.2839  0.0932
  970SOL    HW1 3878   1.730   1.669   1.885 -0.1439  1.0477  1.5356
  970SOL    HW2 3879   1.576   1.673   1.868  2.0494 -1.0817  1.8302
  970SOL     MW 3880   1.658   1.676   1.835  0.3278 -0.2134  0.5127
  971SOL     OW 3881   1.886   0.102   2.381  0.2391 -0.5628 -0.8413
  971SOL    HW1 3882   1.910   0.026   2.317  1.1789 -3.5275 -0.8819
  971SOL    HW2 3883   1.959   0.161   2.377 -1.9931 -0.2519  0.7054
  971SOL     MW 3884   1.898   0.099   2.372  0.0686 -0.9129 -0.6426
  972SOL     OW 3885   0.247   2.813   2.537 -0.2922 -0.5743 -0.0091
  972SOL    HW1 3886   0.274   2.719   2.506 -1.2012 -2.2655  3.1578
  972SOL    HW2 3887   0.317   2.879   2.542  0.3432  0.6864  1.0424
  972SOL     MW 3888   0.259   2.809   2.533 -0.3283 -0.6311  0.5475
  973SOL     OW 3889   2.647   3.056   2.115 -0.2888 -0.0915 -0.5084
  973SOL    HW1 3890   2.644   2.976   2.061  1.2766 -0.9499  0.3001
  973SOL    HW2 3891   2.667   3.119   2.040 -2.1871  2.9054 -2.1713
  973SOL     MW 3892   2.649   3.054   2.098 -0.3327  0.1906 -0.6211
  974SOL     OW 3893   1.996   0.314   2.690  0.6691  0.0204 -0.0440
  974SOL    HW1 3894   1.999   0.240   2.751  3.7778 -0.5413 -0.4404
  974SOL    HW2 3895   1.906   0.346   2.699  2.6839 -1.0187  1.0442
  974SOL     MW 3896   1.984   0.308   2.699  1.3451 -0.1908  0.0473
  975SOL     OW 3897   2.325   2.568   2.569 -0.5093  0.3812  0.1852
  975SOL    HW1 3898   2.421   2.590   2.570  0.3056  2.9471 -0.1763
  975SOL    HW2 3899   2.268   2.647   2.566 -0.8928 -1.0442  1.7814
  975SOL     MW 3900   2.330   2.581   2.569 -0.4524  0.5317  0.3481
  976SOL     OW 3901   0.282   0.257   1.691 -0.0350 -0.2132  0.1781
  976SOL    HW1 3902   0.338   0.206   1.747  0.4310 -1.4090  0.8700
  976SOL    HW2 3903   0.196   0.209   1.684 -1.3438 -0.9400 -1.6490
  976SOL     MW 3904   0.278   0.244   1.698 -0.1462 -0.4669  0.0283
  977SOL     OW 3905   1.722   2.815   2.464 -0.1502 -0.7945  0.2519
  977SOL    HW1 3906   1.763   2.735   2.486 -1.5090  1.3072  2.5595
  977SOL    HW2 3907   1.795   2.861   2.425 -2.3757  1.1057 -0.0249
  977SOL     MW 3908   1.737   2.811   2.462 -0.6231 -0.2665  0.5199
   3.10000   3.10000   3.10000
