977 TIP4P/2005f water molecules t=   0.14000 step= 140
 3908
    1SOL     OW    1   0.217   0.744   0.035  0.5937 -0.2738  0.1332
    1SOL    HW1    2   0.222   0.781  -0.054  0.8331  1.9292  2.0558
    1SOL    HW2    3   0.238   0.648   0.013  1.9412 -1.5990  1.3222
    1SOL     MW    4   0.221   0.736   0.020  0.8031 -0.1580  0.5437
    2SOL     OW    5   0.362   3.031   1.138  0.9606 -0.4793 -0.0255
    2SOL    HW1    6   0.407   3.096   1.086 -0.6847  0.7976  1.1110
    2SOL    HW2    7   0.272   3.063   1.148 -0.0477  0.4545 -0.1234
    2SOL     MW    8   0.356   3.044   1.133  0.6105 -0.1876  0.1115
    3SOL     OW    9   2.742   0.385   0.873 -0.7035  0.1063  0.5138
    3SOL    HW1   10   2.734   0.478   0.833 -1.1835  0.2820 -2.8764
    3SOL    HW2   11   2.730   0.405   0.970 -0.9124 -0.7151 -1.2331
    3SOL     MW   12   2.740   0.400   0.880 -0.7944  0.0211 -0.1640
    4SOL     OW   13   0.007   1.733   0.673 -0.0828  1.1023 -0.4854
    4SOL    HW1   14  -0.055   1.784   0.618  1.0285 -1.7991  0.1401
    4SOL    HW2   15   0.057   1.680   0.615  1.1454  2.1224 -0.1115
    4SOL     MW   16   0.005   1.733   0.658  0.2259  0.8541 -0.3535
    5SOL     OW   17   1.674   1.455   0.509  0.3000  0.4921 -0.1157
    5SOL    HW1   18   1.732   1.420   0.582 -1.9354 -0.2444  1.9937
    5SOL    HW2   19   1.590   1.427   0.548  2.6588  2.6439  0.0454
    5SOL     MW   20   1.671   1.447   0.524  0.3163  0.6788  0.1839
    6SOL     OW   21   0.842   1.357   0.575 -0.2469  0.5188  0.1272
    6SOL    HW1   22   0.776   1.370   0.644 -1.0930  0.6472  1.4758
    6SOL    HW2   23   0.905   1.282   0.598  0.6522 -0.1564 -0.1162
    6SOL     MW   24   0.842   1.349   0.587 -0.2399  0.4467  0.2730
    7SOL     OW   25   1.953   1.055   3.076  0.3296  0.2436  0.3866
    7SOL    HW1   26   1.977   1.104   2.998 -1.3310  2.0009 -0.1078
    7SOL    HW2   27   1.986   1.093   3.157 -2.0048 -2.7926  2.6734
    7SOL     MW   28   1.960   1.067   3.076 -0.1975  0.0748  0.6231
    8SOL     OW   29   0.998   1.303   1.071 -0.8350 -0.3759 -0.0843
    8SOL    HW1   30   1.094   1.298   1.096  4.0058  0.4559 -0.1184
    8SOL    HW2   31   0.964   1.214   1.072  1.6910 -0.2484  1.5948
    8SOL     MW   32   1.006   1.290   1.074  0.1370 -0.2493  0.1328
    9SOL     OW   33   0.998   0.505   1.421  0.1480 -0.3373 -0.2654
    9SOL    HW1   34   0.949   0.426   1.420 -0.7066  2.0742 -0.3558
    9SOL    HW2   35   1.059   0.485   1.490 -0.1080 -0.8237 -0.5979
    9SOL     MW   36   1.000   0.492   1.430  0.0015 -0.0833 -0.3212
   10SOL     OW   37   0.301   0.874   0.457 -0.4118  0.0791  0.7379
   10SOL    HW1   38   0.395   0.892   0.425  0.8219  0.2336  2.7611
   10SOL    HW2   39   0.279   0.939   0.523  2.0305  1.4026  0.9908
   10SOL     MW   40   0.311   0.885   0.461  0.0732  0.2741  1.0382
   11SOL     OW   41   0.921   1.088   1.535 -0.0214 -0.0182 -0.2351
   11SOL    HW1   42   0.915   1.058   1.625  0.6241  0.1895 -1.2408
   11SOL    HW2   43   0.840   1.040   1.500 -0.2171  1.8116 -0.4533
   11SOL     MW   44   0.910   1.078   1.542  0.0379  0.2506 -0.3966
   12SOL     OW   45   3.062   1.094   0.842  0.1247  0.3813  0.1674
   12SOL    HW1   46   3.113   1.146   0.899 -2.8455  1.7602 -0.4001
   12SOL    HW2   47   3.029   1.153   0.769 -0.9591  0.7560 -2.9365
   12SOL     MW   48   3.064   1.108   0.840 -0.4102  0.6126 -0.3170
   13SOL     OW   49   1.908   1.425   1.439 -0.0566  0.3688 -0.0568
   13SOL    HW1   50   1.935   1.394   1.354  3.6664  1.3528 -0.5721
   13SOL    HW2   51   1.886   1.514   1.418  0.8879  1.7429  0.7470
   13SOL     MW   52   1.909   1.433   1.425  0.5592  0.6799 -0.0188
   14SOL     OW   53   0.591   0.364   1.763 -0.2025 -0.4801  0.1689
   14SOL    HW1   54   0.601   0.291   1.696  0.1755 -1.0085 -0.0260
   14SOL    HW2   55   0.668   0.370   1.816 -0.3876 -1.9424  0.4343
   14SOL     MW   56   0.602   0.355   1.761 -0.1771 -0.7428  0.1782
   15SOL     OW   57   1.998   0.562   0.915 -0.4826 -0.0827 -0.3031
   15SOL    HW1   58   2.030   0.536   1.001 -1.2988 -0.9054 -0.6223
   15SOL    HW2   59   2.075   0.558   0.860  0.5012 -0.1019  1.4594
   15SOL     MW   60   2.012   0.558   0.919 -0.4605 -0.1938 -0.1127
   16SOL     OW   61   0.177   1.786   0.269  0.6741  0.6059  0.2079
   16SOL    HW1   62   0.267   1.747   0.284  1.2206 -0.2304 -1.2765
   16SOL    HW2   63   0.184   1.872   0.295  0.1869 -0.3180  1.6776
   16SOL     MW   64   0.190   1.792   0.274  0.6819  0.3737  0.2060
   17SOL     OW   65   1.139   0.789   1.479 -0.8739  0.1839 -0.1215
   17SOL    HW1   66   1.157   0.817   1.572 -0.6042  2.2098  0.3289
   17SOL    HW2   67   1.055   0.747   1.487 -0.6193  1.5147 -0.1058
   17SOL     MW   68   1.130   0.787   1.493 -0.8047  0.6268 -0.0600
   18SOL     OW   69  -0.002   1.561   0.376  0.0590  0.2139  0.2973
   18SOL    HW1   70   0.033   1.627   0.315  1.5464 -2.5923 -0.5282
   18SOL    HW2   71  -0.003   1.482   0.328  0.4072 -0.9830 -0.0475
   18SOL     MW   72   0.003   1.559   0.362  0.3012 -0.3143  0.1429
   19SOL     OW   73   0.072   1.244   1.030  0.2182  0.1208  0.1941
   19SOL    HW1   74   0.138   1.308   0.991  0.3749  0.8542  0.3786
   19SOL    HW2   75  -0.009   1.300   1.057  1.6731  1.6180 -3.1667
   19SOL     MW   76   0.070   1.260   1.028  0.4308  0.4151 -0.2250
   20SOL     OW   77   0.502   2.204   1.309  0.1384 -0.1905 -0.2719
   20SOL    HW1   78   0.444   2.144   1.251 -0.2527 -0.8770 -0.6095
   20SOL    HW2   79   0.430   2.242   1.367  0.1711  0.1693  1.0707
   20SOL     MW   80   0.485   2.201   1.309  0.0911 -0.2336 -0.1393
   21SOL     OW   81   0.565   0.906   0.347 -0.0828  0.1792 -0.1531
   21SOL    HW1   82   0.614   0.830   0.389  1.5753 -2.5021  0.2559
   21SOL    HW2   83   0.532   0.865   0.268  0.6185 -0.2540 -2.6736
   21SOL     MW   84   0.567   0.891   0.342  0.2285 -0.2317 -0.4317
   22SOL     OW   85   1.576   0.610   1.142 -0.4303 -0.1459 -0.4910
   22SOL    HW1   86   1.624   0.590   1.057  0.2216 -0.6975  0.7069
   22SOL    HW2   87   1.493   0.648   1.117  2.3264 -0.8289 -1.8786
   22SOL     MW   88   1.571   0.612   1.127  0.0194 -0.3088 -0.5160
   23SOL     OW   89   3.056   0.730   0.712  0.1553  0.8427  0.1989
   23SOL    HW1   90   3.102   0.644   0.718 -2.2056 -1.0947 -1.1323
   23SOL    HW2   91   3.119   0.801   0.725 -2.2818 -2.6333  2.0017
   23SOL     MW   92   3.070   0.728   0.715 -0.4777  0.1285  0.2611
   24SOL     OW   93   2.090   2.214   0.016  0.0102 -1.4962  0.4395
   24SOL    HW1   94   2.051   2.195   0.102 -2.1154 -0.1710 -0.0847
   24SOL    HW2   95   2.105   2.129  -0.024 -0.0622  1.1428  0.9807
   24SOL     MW   96   2.087   2.200   0.022 -0.2798 -0.9732  0.4418
   25SOL     OW   97   0.182   1.447   0.589  0.0790 -0.5601  0.0363
   25SOL    HW1   98   0.113   1.458   0.529  0.7205 -3.2492 -0.3857
   25SOL    HW2   99   0.259   1.459   0.536  0.0347  2.8696 -2.2007
   25SOL     MW  100   0.183   1.450   0.574  0.1578 -0.4623 -0.3145
   26SOL     OW  101   2.032   1.009   0.411  0.4865 -0.3201  0.2979
   26SOL    HW1  102   1.958   1.051   0.452  2.0052 -0.3385 -1.2912
   26SOL    HW2  103   2.034   1.061   0.322  0.4082 -2.5135 -1.9440
   26SOL     MW  104   2.023   1.021   0.404  0.6765 -0.6119 -0.2075
   27SOL     OW  105   1.982   1.462   0.242 -0.5273 -0.0685 -0.1591
   27SOL    HW1  106   1.894   1.426   0.261 -1.3569 -1.3612 -0.7579
   27SOL    HW2  107   2.020   1.476   0.332 -0.3893  0.4635 -0.5722
   27SOL     MW  108   1.976   1.459   0.256 -0.6185 -0.1689 -0.2926
   28SOL     OW  109   0.347   0.953   1.921  0.6476  0.1629 -0.2419
   28SOL    HW1  110   0.301   0.886   1.979 -1.9708 -2.1828 -0.7161
   28SOL    HW2  111   0.396   0.896   1.864  1.2453 -0.7881 -1.1036
   28SOL     MW  112   0.347   0.937   1.921  0.3810 -0.2720 -0.4182
   29SOL     OW  113   0.215   1.427   0.896 -0.4834  0.6818 -0.3756
   29SOL    HW1  114   0.213   1.522   0.906  1.6783 -1.6038 -1.4490
   29SOL    HW2  115   0.198   1.419   0.804  1.6408 -1.4280 -2.2749
   29SOL     MW  116   0.213   1.438   0.885  0.0821  0.1019 -0.7678
   30SOL     OW  117   0.922   1.013   1.154  0.6249  0.3279  0.1004
   30SOL    HW1  118   0.846   1.059   1.194 -0.2427 -2.2420  1.4499
   30SOL    HW2  119   0.991   1.040   1.216 -1.1085  2.0412  0.6472
   30SOL     MW  120   0.921   1.023   1.167  0.2817  0.2149  0.3506
   31SOL     OW  121   0.481   0.255   0.209 -0.2271  0.2638  0.3137
   31SOL    HW1  122   0.483   0.182   0.276 -0.5202  2.3761  1.0537
   31SOL    HW2  123   0.465   0.195   0.131 -2.2692 -0.9292  1.8280
   31SOL     MW  124   0.479   0.238   0.207 -0.5352  0.3851  0.6111
   32SOL     OW  125   2.683   1.040   1.109  0.0276 -0.1485 -0.4170
   32SOL    HW1  126   2.643   0.957   1.130 -0.0732  1.5034  1.8593
   32SOL    HW2  127   2.779   1.021   1.106  2.0107  2.8607  1.6313
   32SOL     MW  128   2.691   1.027   1.111  0.2760  0.4665  0.1536
   33SOL     OW  129   1.791   1.272   0.345 -0.1776 -0.3546 -0.0399
   33SOL    HW1  130   1.781   1.178   0.379  0.3560 -0.3587  0.4973
   33SOL    HW2  131   1.741   1.325   0.410  0.7321 -1.1791 -0.6917
   33SOL     MW  132   1.783   1.266   0.358  0.0129 -0.4640 -0.0551
   34SOL     OW  133   1.272   1.842   1.127 -0.1029  0.0370 -0.2469
   34SOL    HW1  134   1.186   1.874   1.154 -0.8126 -1.0054  2.7916
   34SOL    HW2  135   1.321   1.881   1.199 -2.7729 -0.0332  0.7592
   34SOL     MW  136   1.267   1.852   1.140 -0.5488 -0.1098  0.2867
   35SOL     OW  137   0.366   0.038   1.873  0.4211 -0.5617 -0.5168
   35SOL    HW1  138   0.400  -0.023   1.943 -5.1234 -0.4255  0.0229
   35SOL    HW2  139   0.399   0.002   1.791 -0.5224  0.8825 -1.2542
   35SOL     MW  140   0.375   0.025   1.871 -0.4350 -0.3532 -0.5429
   36SOL     OW  141   1.865   1.923   0.508  0.2792  0.2759  0.0978
   36SOL    HW1  142   1.898   1.903   0.416 -0.6955  0.1525  1.3202
   36SOL    HW2  143   1.854   1.832   0.539  3.3212  1.0710  0.2951
   36SOL     MW  144   1.868   1.908   0.500  0.5520  0.3645  0.2851
   37SOL     OW  145   1.796   1.992   0.962 -0.5545  0.3592  0.3473
   37SOL    HW1  146   1.733   1.949   0.896 -3.4068 -3.2741 -0.0495
   37SOL    HW2  147   1.730   2.036   1.027 -0.7044  1.4977 -2.7895
   37SOL     MW  148   1.779   1.992   0.962 -0.9506  0.0300 -0.1189
   38SOL     OW  149   2.850   0.910   0.223  0.2578 -0.0938  0.0560
   38SOL    HW1  150   2.879   0.868   0.306  1.6260 -0.9105  1.8476
   38SOL    HW2  151   2.923   0.880   0.160  0.1578 -0.1428 -1.6424
   38SOL     MW  152   2.864   0.900   0.225  0.4251 -0.2080  0.0683
   39SOL     OW  153   1.456   0.679   0.832 -0.0304  0.1486  0.5469
   39SOL    HW1  154   1.424   0.586   0.847  0.4294 -0.0228  4.7201
   39SOL    HW2  155   1.403   0.714   0.906 -1.7351 -0.3178  0.8313
   39SOL     MW  156   1.445   0.672   0.844 -0.1947  0.0645  1.1350
   40SOL     OW  157   1.301   1.893   0.245  0.0337 -0.2948  0.2792
   40SOL    HW1  158   1.309   1.804   0.277  0.4736  1.7734 -0.5911
   40SOL    HW2  159   1.287   1.942   0.327 -0.4767 -0.3958  0.6525
   40SOL     MW  160   1.300   1.888   0.260  0.0244 -0.0353  0.2137
   41SOL     OW  161   0.619   0.554   1.558  0.1154  0.3836  0.4636
   41SOL    HW1  162   0.702   0.611   1.572 -0.6259  1.2672  1.6905
   41SOL    HW2  163   0.618   0.489   1.623 -0.8902 -1.1562 -3.6273
   41SOL     MW  164   0.630   0.553   1.568 -0.1151  0.2971  0.0857
   42SOL     OW  165   1.395   3.074   1.956 -0.0200 -0.0476 -0.1364
   42SOL    HW1  166   1.306   3.042   1.982 -2.0989 -0.4031  1.5057
   42SOL    HW2  167   1.446   3.001   1.986 -1.6302  2.5997 -0.0904
   42SOL     MW  168   1.390   3.060   1.963 -0.5068  0.2547  0.0863
   43SOL     OW  169   1.587   0.180   1.571 -0.0104  0.6507  0.1601
   43SOL    HW1  170   1.616   0.129   1.498  0.1919 -0.0779 -0.9766
   43SOL    HW2  171   1.508   0.130   1.601 -0.0738 -0.2863 -1.3262
   43SOL     MW  172   1.580   0.167   1.565  0.0079  0.4309 -0.1860
   44SOL     OW  173   1.318   0.746   1.057 -0.0587  0.4860 -0.4259
   44SOL    HW1  174   1.354   0.836   1.043 -1.5631  1.0057 -0.5997
   44SOL    HW2  175   1.305   0.738   1.152  0.3101  0.3527  0.5762
   44SOL     MW  176   1.321   0.757   1.068 -0.2085  0.5370 -0.3166
   45SOL     OW  177   1.034   0.794   0.800  0.4408 -0.3993  0.6160
   45SOL    HW1  178   1.024   0.729   0.869 -0.8943  1.4589 -1.5978
   45SOL    HW2  179   1.038   0.749   0.715  1.0654 -3.2422 -3.3130
   45SOL     MW  180   1.033   0.779   0.798  0.3471 -0.5292 -0.1945
   46SOL     OW  181   0.600   1.127   0.605 -0.3072 -0.0939 -0.0487
   46SOL    HW1  182   0.614   1.141   0.511 -0.2204 -1.4063  0.6847
   46SOL    HW2  183   0.681   1.081   0.633  2.4515 -0.8626 -0.9105
   46SOL     MW  184   0.613   1.123   0.596  0.0682 -0.3685 -0.0657
   47SOL     OW  185   0.093   1.894   1.830  0.0589  0.6610  0.4329
   47SOL    HW1  186   0.168   1.850   1.797 -1.9552  1.0816 -0.7978
   47SOL    HW2  187   0.106   1.881   1.921  2.7252  1.4415  0.0863
   47SOL     MW  188   0.105   1.887   1.837  0.1450  0.8195  0.2248
   48SOL     OW  189   1.059   0.644   1.045  0.4396  0.4006  0.0864
   48SOL    HW1  190   0.999   0.705   1.092  0.0668  0.3683  0.2461
   48SOL    HW2  191   1.145   0.691   1.060 -1.2873 -1.5107 -1.2181
   48SOL     MW  192   1.062   0.658   1.053  0.1626  0.1442 -0.0646
   49SOL     OW  193   1.849   0.769   1.587  0.0362  0.6371 -0.3032
   49SOL    HW1  194   1.776   0.730   1.637 -1.9130 -1.5395  0.4284
   49SOL    HW2  195   1.901   0.687   1.572 -0.2752  3.5424 -0.6592
   49SOL     MW  196   1.846   0.753   1.592 -0.2621  0.7332 -0.2536
   50SOL     OW  197   1.295   1.011   0.593  0.6304  0.0392  0.2395
   50SOL    HW1  198   1.290   1.025   0.683  1.3683 -0.5736 -2.1551
   50SOL    HW2  199   1.352   0.927   0.587 -0.4859 -0.5317 -0.9730
   50SOL     MW  200   1.302   1.001   0.604  0.5805 -0.1170 -0.2364
   51SOL     OW  201   0.298   2.890   0.919  0.2286  0.1340  0.3101
   51SOL    HW1  202   0.377   2.826   0.912 -0.1928  1.2636  2.9239
   51SOL    HW2  203   0.318   2.946   0.996 -0.8471 -0.4136  1.4839
   51SOL     MW  204   0.311   2.889   0.928  0.0310  0.2108  0.8099
   52SOL     OW  205   0.820   1.896   0.427 -0.0580 -0.3812 -0.6605
   52SOL    HW1  206   0.761   1.935   0.491  1.7274  0.6270 -0.2272
   52SOL    HW2  207   0.785   1.910   0.340  0.6585  1.0513  1.2954
   52SOL     MW  208   0.807   1.903   0.424  0.2721 -0.0592 -0.3453
   53SOL     OW  209   0.344   2.028   0.603 -0.2576  0.5296  0.3031
   53SOL    HW1  210   0.314   2.021   0.514  2.5484  0.5145  0.9289
   53SOL    HW2  211   0.353   2.132   0.618 -1.3494 -1.5355 -0.0377
   53SOL     MW  212   0.341   2.041   0.593 -0.0314  0.2551  0.3407
   54SOL     OW  213   2.199   0.852   0.837  0.2519 -0.0822  0.5369
   54SOL    HW1  214   2.221   0.814   0.750  0.3802 -1.0416  0.1481
   54SOL    HW2  215   2.104   0.841   0.842 -0.4852 -0.2019  1.1620
   54SOL     MW  216   2.189   0.845   0.826  0.1716 -0.2246  0.5680
   55SOL     OW  217   0.509   1.437   1.529 -0.2310  0.1619 -0.4915
   55SOL    HW1  218   0.499   1.472   1.443  0.0169  0.5688 -0.2661
   55SOL    HW2  219   0.599   1.397   1.521  2.8252  0.8229  0.3833
   55SOL     MW  220   0.520   1.436   1.517  0.2050  0.3028 -0.3464
   56SOL     OW  221   0.465   0.811   0.111 -0.2116 -0.4287 -0.1535
   56SOL    HW1  222   0.486   0.856   0.033 -0.4865  0.4410 -0.5050
   56SOL    HW2  223   0.372   0.789   0.109 -0.0704 -0.5316  2.3244
   56SOL     MW  224   0.456   0.814   0.101 -0.2292 -0.3275  0.1271
   57SOL     OW  225   1.262   1.228   1.144  0.1615  0.2642 -0.3190
   57SOL    HW1  226   1.358   1.243   1.146 -0.6377  0.0483 -0.0663
   57SOL    HW2  227   1.240   1.156   1.211  0.8699 -0.8263 -0.6125
   57SOL     MW  228   1.271   1.220   1.153  0.1495  0.0919 -0.3244
   58SOL     OW  229   0.689   1.084   1.257  0.1283  0.3141  0.0464
   58SOL    HW1  230   0.644   1.169   1.245  1.2364 -1.4958 -1.7491
   58SOL    HW2  231   0.659   1.056   1.344  0.4137  2.2428  0.5792
   58SOL     MW  232   0.679   1.091   1.267  0.3121  0.3298 -0.1202
   59SOL     OW  233   1.551   1.584   0.272 -0.2369  0.1922 -0.4107
   59SOL    HW1  234   1.595   1.544   0.346  0.3579 -1.7845  1.8813
   59SOL    HW2  235   1.492   1.634   0.328 -1.3734 -1.1798  1.0473
   59SOL     MW  236   1.549   1.585   0.289 -0.3083 -0.2496  0.0841
   60SOL     OW  237   0.016   0.157   1.707  0.0282  0.0870 -0.2156
   60SOL    HW1  238  -0.067   0.203   1.722 -2.3651 -1.5986  0.2629
   60SOL    HW2  239  -0.005   0.061   1.704  3.3199 -0.0691  0.5867
   60SOL     MW  240   0.002   0.150   1.709  0.1468 -0.1560 -0.0466
   61SOL     OW  241   2.016   1.468   3.057 -0.0096 -0.0991 -0.0797
   61SOL    HW1  242   2.018   1.453   3.150  2.2091 -1.5848 -2.6093
   61SOL    HW2  243   2.062   1.390   3.009  0.2386 -2.3978 -0.5271
   61SOL     MW  244   2.023   1.456   3.063  0.3159 -0.5984 -0.4725
   62SOL     OW  245   0.597   1.647   0.568  0.2136  0.6992 -0.4779
   62SOL    HW1  246   0.668   1.652   0.508 -1.6369 -2.0168 -0.1860
   62SOL    HW2  247   0.585   1.555   0.601  1.1558 -1.4460  1.1959
   62SOL     MW  248   0.605   1.635   0.564  0.0938  0.0578 -0.2185
   63SOL     OW  249   1.721   0.764   0.736 -0.1850 -0.1840  0.1955
   63SOL    HW1  250   1.729   0.767   0.642 -0.2594 -4.4108 -0.3266
   63SOL    HW2  251   1.638   0.736   0.768  0.9312 -0.2778  2.0349
   63SOL     MW  252   1.711   0.760   0.728 -0.0476 -0.7541  0.3693
   64SOL     OW  253   0.299   1.698   0.978 -0.0260 -0.1515  0.9138
   64SOL    HW1  254   0.339   1.721   0.890  0.7080  0.5925 -2.0022
   64SOL    HW2  255   0.250   1.771   1.008 -0.2020 -1.7481  0.5327
   64SOL     MW  256   0.298   1.711   0.971  0.0476 -0.2640  0.4788
   65SOL     OW  257   1.524   2.215   0.319 -0.4265 -0.0768 -0.2338
   65SOL    HW1  258   1.568   2.166   0.245  1.0210 -1.7225  0.2305
   65SOL    HW2  259   1.584   2.271   0.361  0.5857  2.5788  1.2493
   65SOL     MW  260   1.538   2.216   0.315 -0.1020  0.0564  0.0232
   66SOL     OW  261   0.295   0.584   0.516  0.4492 -0.1693 -0.0437
   66SOL    HW1  262   0.371   0.561   0.462 -2.3918  2.6422 -0.2735
   66SOL    HW2  263   0.285   0.677   0.511  0.5082 -1.5702  0.2606
   66SOL     MW  264   0.304   0.593   0.509  0.0821  0.0168 -0.0339
   67SOL     OW  265   1.554   0.206   2.000 -0.4230 -0.4552  0.4576
   67SOL    HW1  266   1.544   0.260   1.922  0.3182  0.6371 -1.7759
   67SOL    HW2  267   1.511   0.124   1.976 -1.6540 -1.2773 -1.0146
   67SOL     MW  268   1.547   0.202   1.987 -0.4876 -0.4195 -0.0314
   68SOL     OW  269   0.700   0.090   2.977 -0.7936 -0.0628  0.6178
   68SOL    HW1  270   0.716   0.085   2.882  3.7791  0.4314 -0.7050
   68SOL    HW2  271   0.699   0.185   3.003 -1.9130  2.8824 -0.7704
   68SOL     MW  272   0.702   0.102   2.968 -0.3380  0.3910  0.2601
   69SOL     OW  273   1.010   0.156   1.960  0.0680  0.5331  0.0433
   69SOL    HW1  274   1.084   0.203   1.994 -2.9638  2.4723  1.8885
   69SOL    HW2  275   1.031   0.058   1.966 -0.1933 -1.0354 -0.6282
   69SOL     MW  276   1.022   0.150   1.965 -0.3665  0.5820  0.1982
   70SOL     OW  277   0.573   1.797   1.151 -0.3238 -0.0583 -0.5756
   70SOL    HW1  278   0.575   1.706   1.184  0.7244  0.1758  0.6318
   70SOL    HW2  279   0.665   1.814   1.108 -0.5829 -1.4233 -1.4203
   70SOL     MW  280   0.585   1.787   1.150 -0.2197 -0.2075 -0.5277
   71SOL     OW  281   1.791   0.696   1.308  0.0245  0.2061 -0.3810
   71SOL    HW1  282   1.778   0.733   1.396  0.6621 -0.4434  0.0897
   71SOL    HW2  283   1.707   0.665   1.278 -0.9130  1.3357 -2.2361
   71SOL     MW  284   1.778   0.697   1.315 -0.0150  0.2694 -0.5636
   72SOL     OW  285   0.828   1.842   1.030 -0.3778 -0.1775 -0.5090
   72SOL    HW1  286   0.825   1.903   0.955  0.2945  1.9205 -1.6608
   72SOL    HW2  287   0.857   1.758   1.000 -1.3462  0.3788  0.8445
   72SOL     MW  288   0.832   1.839   1.016 -0.4168  0.1727 -0.4824
   73SOL     OW  289   1.324   0.656   1.318 -0.5051  0.3710 -0.2620
   73SOL    HW1  290   1.297   0.565   1.315  1.1416  0.3411 -0.5071
   73SOL    HW2  291   1.262   0.698   1.382 -0.4238  0.1604 -0.2360
   73SOL     MW  292   1.312   0.649   1.326 -0.2771  0.3393 -0.2909
   74SOL     OW  293   2.777   0.103   1.011 -0.3918 -0.1742 -0.1625
   74SOL    HW1  294   2.737   0.029   0.970  1.8108  0.2955  0.6810
   74SOL    HW2  295   2.790   0.173   0.942 -0.4463  0.4294 -0.3425
   74SOL     MW  296   2.773   0.102   0.997 -0.1084 -0.0326 -0.0749
   75SOL     OW  297   1.664   1.284   0.096  0.3500  0.9346 -0.1979
   75SOL    HW1  298   1.711   1.287   0.185  1.3806  0.5426  0.1866
   75SOL    HW2  299   1.689   1.196   0.059  0.8231 -2.5379 -0.6791
   75SOL     MW  300   1.674   1.273   0.103  0.5484  0.4247 -0.2106
   76SOL     OW  301   2.945   0.631   0.470 -0.3360  0.1609  0.4537
   76SOL    HW1  302   2.975   0.651   0.561  1.0836 -1.5841 -1.3841
   76SOL    HW2  303   3.024   0.613   0.413  1.5550 -1.7422  1.5108
   76SOL     MW  304   2.959   0.632   0.474  0.1008 -0.3205  0.3507
   77SOL     OW  305   0.899   0.435   0.527 -0.1873 -0.5044 -0.1004
   77SOL    HW1  306   0.854   0.515   0.507 -1.4532 -0.5746  1.7673
   77SOL    HW2  307   0.817   0.380   0.533 -0.5651  0.0741 -0.8805
   77SOL     MW  308   0.882   0.439   0.525 -0.4042 -0.4374  0.0431
   78SOL     OW  309   0.849   0.758   1.226 -0.6960  0.0883  0.1356
   78SOL    HW1  310   0.775   0.709   1.183  0.1697 -0.3573 -0.1573
   78SOL    HW2  311   0.860   0.844   1.182 -0.1809 -0.3406  0.4737
   78SOL     MW  312   0.840   0.763   1.214 -0.5138 -0.0271  0.1416
   79SOL     OW  313   1.826   1.666   0.599 -0.4442 -0.0748  0.0517
   79SOL    HW1  314   1.751   1.614   0.573  0.7668 -1.1725 -0.0662
   79SOL    HW2  315   1.852   1.655   0.691 -0.4911 -0.2220 -1.1712
   79SOL     MW  316   1.820   1.657   0.607 -0.2906 -0.2391 -0.1252
   80SOL     OW  317   0.155   1.022   0.257  0.1276 -0.5704 -0.3949
   80SOL    HW1  318   0.071   0.979   0.284 -1.1579 -4.4883  1.3591
   80SOL    HW2  319   0.224   0.991   0.320  1.7138  0.9388  1.5625
   80SOL     MW  320   0.153   1.013   0.269  0.1673 -0.8882  0.0948
   81SOL     OW  321   1.930   1.906   0.232  0.7236  0.0646  0.5083
   81SOL    HW1  322   1.881   1.843   0.178 -0.8396 -2.6025  3.0024
   81SOL    HW2  323   1.877   1.993   0.226 -1.4198 -0.3830  1.1834
   81SOL     MW  324   1.916   1.909   0.224  0.2345 -0.3464  0.9264
   82SOL     OW  325   0.863   0.917   0.550 -0.6808 -0.2145 -0.1595
   82SOL    HW1  326   0.941   0.914   0.489  0.7749  1.6153 -0.1598
   82SOL    HW2  327   0.833   0.828   0.540  2.2105  1.2951  2.0446
   82SOL     MW  328   0.870   0.905   0.541 -0.1073  0.2261  0.1313
   83SOL     OW  329   0.088   0.634   1.387  0.1231  0.7738 -0.1748
   83SOL    HW1  330   0.125   0.705   1.342  1.4324 -1.8563  1.4666
   83SOL    HW2  331   0.167   0.605   1.435  2.5024 -1.7101 -2.1328
   83SOL     MW  332   0.103   0.640   1.388  0.6098  0.0990 -0.2166
   84SOL     OW  333   0.042   0.295   1.078 -0.1163 -0.2492 -0.2205
   84SOL    HW1  334  -0.010   0.286   0.996 -0.8559  0.5256 -0.1504
   84SOL    HW2  335   0.060   0.202   1.103  1.0736 -1.5068  1.4632
   84SOL     MW  336   0.037   0.281   1.070 -0.0569 -0.3129  0.0109
   85SOL     OW  337   0.441   0.413   0.723 -0.4550  0.3352  0.0846
   85SOL    HW1  338   0.401   0.478   0.674 -0.3877  2.5218 -0.5287
   85SOL    HW2  339   0.375   0.340   0.731 -0.8381 -2.4519 -0.7961
   85SOL     MW  340   0.427   0.412   0.718 -0.4967  0.2560 -0.1125
   86SOL     OW  341   1.145   0.405   1.194  0.1362  0.0236 -0.2736
   86SOL    HW1  342   1.120   0.481   1.130 -1.0044  0.7411 -0.6667
   86SOL    HW2  343   1.069   0.409   1.253 -0.6749 -0.4775 -2.3453
   86SOL     MW  344   1.131   0.416   1.194 -0.1213  0.0521 -0.5988
   87SOL     OW  345   1.264   1.416   1.363 -0.1381  0.6193 -0.0989
   87SOL    HW1  346   1.289   1.473   1.292  0.8570 -1.7740 -0.8788
   87SOL    HW2  347   1.258   1.330   1.324 -1.8616 -0.2351 -0.4435
   87SOL     MW  348   1.266   1.412   1.349 -0.2342  0.1908 -0.2473
   88SOL     OW  349   1.365   1.005   1.000 -0.2449 -0.5023 -0.0673
   88SOL    HW1  350   1.451   1.007   1.037 -1.8955 -1.7234 -2.1813
   88SOL    HW2  351   1.322   1.072   1.047  0.7358  0.4522 -3.0772
   88SOL     MW  352   1.371   1.014   1.011 -0.3333 -0.5375 -0.7434
   89SOL     OW  353   1.789   0.572   0.284 -1.0334  0.2383 -0.1155
   89SOL    HW1  354   1.847   0.505   0.327  0.6358  1.2815  0.3043
   89SOL    HW2  355   1.856   0.629   0.237 -0.3067  0.9587  1.6458
   89SOL     MW  356   1.806   0.570   0.283 -0.7173  0.4710  0.1723
   90SOL     OW  357   0.740   1.252   2.831 -0.7483  0.2849  0.1974
   90SOL    HW1  358   0.778   1.166   2.808  0.0315  0.8111 -4.5577
   90SOL    HW2  359   0.719   1.254   2.925  2.2164 -3.3585 -2.3742
   90SOL     MW  360   0.743   1.241   2.840 -0.2542 -0.1264 -0.7693
   91SOL     OW  361   1.979   0.732   0.466  0.8753 -0.1548  0.0549
   91SOL    HW1  362   1.995   0.818   0.420 -0.7384 -3.0913 -1.1900
   91SOL    HW2  363   1.911   0.692   0.419  0.9847  0.9866  3.0208
   91SOL     MW  364   1.972   0.738   0.453  0.6768 -0.3916  0.2820
   92SOL     OW  365   1.661   0.740   0.457  0.0512  0.1672 -0.4393
   92SOL    HW1  366   1.574   0.714   0.489 -1.6720 -0.3670 -1.9176
   92SOL    HW2  367   1.701   0.664   0.407  0.2915  0.5455 -0.3359
   92SOL     MW  368   1.655   0.727   0.455 -0.1444  0.1466 -0.6207
   93SOL     OW  369   1.027   0.212   0.387  0.3342  0.4662 -0.3768
   93SOL    HW1  370   0.977   0.287   0.425  2.3822  0.8320 -0.2825
   93SOL    HW2  371   1.001   0.197   0.295  1.1854  0.7110 -1.9497
   93SOL     MW  372   1.017   0.220   0.380  0.7167  0.5468 -0.5719
   94SOL     OW  373   1.970   1.272   1.699  0.0508 -0.0463 -0.1696
   94SOL    HW1  374   1.939   1.310   1.619 -1.8035 -1.3315 -0.2301
   94SOL    HW2  375   1.910   1.194   1.698 -2.6806 -0.2040  0.6249
   94SOL     MW  376   1.958   1.266   1.688 -0.5542 -0.2367 -0.0728
   95SOL     OW  377   0.928   1.554   1.010  0.2565 -0.3129  0.2497
   95SOL    HW1  378   0.942   1.462   1.006  0.2479  1.0734 -0.4565
   95SOL    HW2  379   0.898   1.565   1.095 -1.2914 -0.9849 -4.1907
   95SOL     MW  380   0.926   1.543   1.020  0.0512 -0.2186 -0.4294
   96SOL     OW  381   1.244   1.784   1.672  0.5460 -0.0891 -0.6715
   96SOL    HW1  382   1.154   1.777   1.706  3.4998  1.1550 -2.0668
   96SOL    HW2  383   1.266   1.694   1.640 -3.8540  0.2324 -0.0917
   96SOL     MW  384   1.235   1.771   1.672  0.3552  0.1174 -0.7791
   97SOL     OW  385   1.272   1.446   0.829  0.5231 -0.1453 -0.7237
   97SOL    HW1  386   1.290   1.494   0.913  1.7447  2.2137  0.3403
   97SOL    HW2  387   1.191   1.487   0.792  2.3304  0.0806  0.1154
   97SOL     MW  388   1.264   1.458   0.835  0.9227  0.1958 -0.4726
   98SOL     OW  389   1.522   1.279   1.160 -0.4178  0.1956  0.3960
   98SOL    HW1  390   1.561   1.350   1.212 -0.0166 -1.1487  1.4574
   98SOL    HW2  391   1.552   1.295   1.070 -0.3882  0.3512  0.3977
   98SOL     MW  392   1.531   1.291   1.155 -0.3610  0.0388  0.5362
   99SOL     OW  393   1.493   0.356   1.246  0.5551 -0.8328  0.8877
   99SOL    HW1  394   1.511   0.442   1.195 -0.3492  0.9638 -1.2256
   99SOL    HW2  395   1.473   0.386   1.330  1.9131 -1.8287  0.3937
   99SOL     MW  396   1.493   0.372   1.250  0.6150 -0.7271  0.5437
  100SOL     OW  397   1.140   1.068   1.335 -0.0592 -0.3510  0.2532
  100SOL    HW1  398   1.074   1.100   1.401  0.1841  0.8122 -2.6760
  100SOL    HW2  399   1.152   0.972   1.362 -0.5102 -0.4442  0.0454
  100SOL     MW  400   1.133   1.059   1.347 -0.0866 -0.2098 -0.1607
  101SOL     OW  401   0.631   1.162   0.330 -0.1629 -0.0435  0.1929
  101SOL    HW1  402   0.593   1.068   0.315 -1.5035  0.4686 -0.5389
  101SOL    HW2  403   0.636   1.203   0.244 -1.7691  0.4913 -1.1352
  101SOL     MW  404   0.627   1.155   0.317 -0.5517  0.0946 -0.0789
  102SOL     OW  405   2.943   0.594   0.921  0.4398 -0.2749  0.1224
  102SOL    HW1  406   2.992   0.652   0.854  0.5053 -1.1217  2.2314
  102SOL    HW2  407   2.983   0.620   1.005 -0.0571 -1.2056  2.1937
  102SOL     MW  408   2.955   0.605   0.923  0.3829 -0.5094  0.6739
  103SOL     OW  409   1.625   0.357   1.786  0.1035  0.6285  0.5801
  103SOL    HW1  410   1.632   0.284   1.728 -1.0067  0.3417 -3.3707
  103SOL    HW2  411   1.708   0.344   1.839 -0.7321  0.6201  0.3295
  103SOL     MW  412   1.637   0.346   1.785 -0.1532  0.5895  0.0258
  104SOL     OW  413   0.089   1.836   1.516  0.1558 -0.0725  0.1349
  104SOL    HW1  414   0.159   1.786   1.477 -0.7315 -0.7946 -1.5133
  104SOL    HW2  415   0.054   1.789   1.591  0.5959  3.3538 -2.7691
  104SOL     MW  416   0.094   1.823   1.521  0.0968  0.2843 -0.4657
  105SOL     OW  417   0.162   1.165   0.535  0.0939 -0.0717 -0.6947
  105SOL    HW1  418   0.155   1.197   0.445 -1.8271  1.1441  1.2996
  105SOL    HW2  419   0.212   1.232   0.581 -0.0502  1.3842  1.7083
  105SOL     MW  420   0.168   1.178   0.529 -0.1786  0.2808 -0.1145
  106SOL     OW  421   0.856   0.352   0.934  0.4492 -0.1283 -0.2061
  106SOL    HW1  422   0.781   0.408   0.895 -0.8379 -1.3845  0.0010
  106SOL    HW2  423   0.924   0.358   0.875  1.8345 -0.8683 -0.5334
  106SOL     MW  424   0.855   0.360   0.921  0.4622 -0.3917 -0.2219
  107SOL     OW  425   0.793   2.212   3.059  0.2867 -0.1449 -0.0207
  107SOL    HW1  426   0.756   2.144   3.005 -0.0597  3.8783 -1.4694
  107SOL    HW2  427   0.878   2.172   3.088  0.4212 -1.1377 -1.0259
  107SOL     MW  428   0.799   2.198   3.056  0.2588  0.2549 -0.3445
  108SOL     OW  429   1.407   1.589   1.533  0.0497 -0.0477 -0.4524
  108SOL    HW1  430   1.373   1.510   1.480 -1.0142 -3.2435 -1.1223
  108SOL    HW2  431   1.455   1.549   1.605  0.6602 -0.4399  1.9921
  108SOL     MW  432   1.409   1.573   1.535 -0.0102 -0.5211 -0.2183
  109SOL     OW  433   1.951   0.750   0.160 -0.0706 -0.5880 -0.3354
  109SOL    HW1  434   1.953   0.761   0.069  0.4056 -0.8623 -0.3807
  109SOL    HW2  435   2.041   0.777   0.188  0.3017  2.8498 -1.5715
  109SOL     MW  436   1.963   0.755   0.152  0.0413 -0.1706 -0.5045
  110SOL     OW  437   0.418   1.771   0.734 -0.2016  0.0810 -0.3728
  110SOL    HW1  438   0.480   1.720   0.677 -0.9080  1.8128 -1.0756
  110SOL    HW2  439   0.388   1.854   0.688 -2.4504 -0.1270  0.3755
  110SOL     MW  440   0.422   1.776   0.720 -0.5915  0.2821 -0.3668
  111SOL     OW  441   0.693   0.940   1.521  0.2748  0.1141  0.2785
  111SOL    HW1  442   0.738   0.851   1.505  1.8354  0.4168 -1.6408
  111SOL    HW2  443   0.599   0.919   1.538 -0.8579  0.0339  0.2937
  111SOL     MW  444   0.687   0.925   1.521  0.3313  0.1434  0.0273
  112SOL     OW  445   1.292   1.131   1.602 -0.1265 -0.2915 -0.0466
  112SOL    HW1  446   1.248   1.203   1.661 -0.5733  0.4283  0.7076
  112SOL    HW2  447   1.260   1.049   1.633  1.3869 -1.8219 -1.8365
  112SOL     MW  448   1.282   1.130   1.614  0.0142 -0.3985 -0.1832
  113SOL     OW  449   1.352   0.059   1.705 -0.1261  0.4968 -0.5883
  113SOL    HW1  450   1.355   0.021   1.789  0.6764  1.0949 -2.5561
  113SOL    HW2  451   1.343  -0.004   1.635 -0.6715 -2.3891 -1.8221
  113SOL     MW  452   1.351   0.046   1.707 -0.0922  0.1950 -1.0107
  114SOL     OW  453   0.456   2.809   1.859  0.0050  0.0204  0.2387
  114SOL    HW1  454   0.455   2.871   1.935  0.4945  2.1090  0.5241
  114SOL    HW2  455   0.428   2.869   1.787 -2.5042  0.3526  0.1577
  114SOL     MW  456   0.452   2.825   1.860 -0.2615  0.3398  0.2656
  115SOL     OW  457   0.391   0.851   1.050  0.1675 -0.0795  0.0669
  115SOL    HW1  458   0.447   0.772   1.038  1.4306  0.2780  0.0788
  115SOL    HW2  459   0.379   0.861   1.144  1.9362  1.3308 -1.7152
  115SOL     MW  460   0.397   0.842   1.061  0.5675  0.1537 -0.1667
  116SOL     OW  461   0.780   0.976   0.904  0.5373  0.5293 -0.1324
  116SOL    HW1  462   0.851   0.999   0.848 -0.2308 -0.6091 -1.6469
  116SOL    HW2  463   0.831   0.993   0.986  1.6794 -0.1016 -1.8125
  116SOL     MW  464   0.796   0.981   0.908  0.5867  0.2959 -0.5539
  117SOL     OW  465   1.211   1.149   0.825  0.3124 -1.0795  0.4586
  117SOL    HW1  466   1.235   1.097   0.903 -0.4038  0.5805 -1.4774
  117SOL    HW2  467   1.225   1.238   0.858  1.3416  0.1069  1.9988
  117SOL     MW  468   1.216   1.154   0.840  0.3537 -0.7040  0.4064
  118SOL     OW  469   3.092   2.972   1.726 -0.3397  0.4168  0.1914
  118SOL    HW1  470   3.119   3.009   1.807 -0.0287  1.8811 -1.2657
  118SOL    HW2  471   2.999   2.973   1.713  0.6144 -1.6654 -1.1533
  118SOL     MW  472   3.083   2.977   1.735 -0.1728  0.3353 -0.1783
  119SOL     OW  473   0.511   1.320   1.237  0.3198  0.3162 -0.1364
  119SOL    HW1  474   0.503   1.344   1.142 -0.5034 -0.2856  0.1519
  119SOL    HW2  475   0.417   1.317   1.270  2.8072 -0.0791  1.8165
  119SOL     MW  476   0.497   1.323   1.229  0.5394  0.1846  0.1593
  120SOL     OW  477   0.179   0.602   0.951  0.1485  0.1127  0.0311
  120SOL    HW1  478   0.212   0.539   1.012 -1.7436 -1.7113  0.3616
  120SOL    HW2  479   0.230   0.684   0.962  2.0018  1.4256 -1.5299
  120SOL     MW  480   0.190   0.604   0.960  0.1434  0.0452 -0.1313
  121SOL     OW  481   1.792   1.055   1.739 -0.3753 -0.1102 -0.5090
  121SOL    HW1  482   1.719   1.023   1.677 -0.9144  2.2728  0.1383
  121SOL    HW2  483   1.840   0.977   1.736  0.2056  0.9236 -0.1771
  121SOL     MW  484   1.789   1.040   1.731 -0.3697  0.3406 -0.3798
  122SOL     OW  485   0.094   0.491   0.712  0.2580  0.5584 -0.1390
  122SOL    HW1  486   0.158   0.494   0.643 -2.3049 -0.4235 -0.4776
  122SOL    HW2  487   0.143   0.502   0.797  0.7312  0.0962 -0.5408
  122SOL     MW  488   0.109   0.493   0.714 -0.0177  0.3679 -0.2367
  123SOL     OW  489   1.744   1.030   0.481  0.2950  0.0598  0.1300
  123SOL    HW1  490   1.725   0.935   0.491  1.9685 -1.7215 -1.1381
  123SOL    HW2  491   1.793   1.058   0.555  1.9515 -0.7213 -2.6765
  123SOL     MW  492   1.748   1.021   0.492  0.7343 -0.2783 -0.4076
  124SOL     OW  493   0.665   0.518   0.851 -0.0819 -0.1154 -0.4650
  124SOL    HW1  494   0.596   0.467   0.811  0.6756 -0.7887 -0.2922
  124SOL    HW2  495   0.652   0.607   0.818 -0.8118 -1.6306 -1.0751
  124SOL     MW  496   0.655   0.523   0.842 -0.0783 -0.4042 -0.5227
  125SOL     OW  497   0.637   1.676   1.665  0.7397  0.5670  0.1158
  125SOL    HW1  498   0.566   1.619   1.635 -3.1487 -1.4848 -1.6626
  125SOL    HW2  499   0.610   1.768   1.659  1.1854 -0.4336  0.7734
  125SOL     MW  500   0.624   1.681   1.660  0.2855  0.1642 -0.0321
  126SOL     OW  501   2.123   1.603   2.014 -0.2262 -0.3691  0.3011
  126SOL    HW1  502   2.160   1.688   2.024  0.6146 -1.1519 -1.8531
  126SOL    HW2  503   2.207   1.552   2.021 -0.2339  1.0007  0.5580
  126SOL     MW  504   2.139   1.607   2.017 -0.1163 -0.2917  0.0508
  127SOL     OW  505   0.605   0.698   1.887 -0.1404  0.0833  0.1638
  127SOL    HW1  506   0.663   0.627   1.922  0.1813  0.2609  1.5522
  127SOL    HW2  507   0.641   0.780   1.918  3.2660 -0.2088  1.2711
  127SOL     MW  508   0.617   0.699   1.896  0.3515  0.0682  0.4931
  128SOL     OW  509   1.715   0.759   2.868  0.5733  0.2955  0.1758
  128SOL    HW1  510   1.756   0.729   2.788 -0.9835  0.5915  1.7924
  128SOL    HW2  511   1.698   0.853   2.842  0.4714  0.7996 -0.2447
  128SOL     MW  512   1.718   0.768   2.854  0.3544  0.4010  0.3336
  129SOL     OW  513   1.534   0.899   0.214 -0.4695  0.8966  0.1149
  129SOL    HW1  514   1.453   0.849   0.196 -2.9360 -0.2874 -1.3248
  129SOL    HW2  515   1.558   0.894   0.304 -2.9425 -0.1758  1.0191
  129SOL     MW  516   1.527   0.892   0.223 -1.1212  0.5989  0.0443
  130SOL     OW  517   0.768   1.518   0.352 -0.3613 -0.4278  0.6706
  130SOL    HW1  518   0.801   1.457   0.412 -0.0086 -0.6619  0.5100
  130SOL    HW2  519   0.852   1.562   0.314  0.7764 -1.1309 -1.2362
  130SOL     MW  520   0.783   1.516   0.355 -0.1647 -0.5515  0.3978
  131SOL     OW  521   3.045   0.816   0.064  0.5642  0.1559 -0.6142
  131SOL    HW1  522   3.062   0.899   0.004  0.0832  0.7304  1.3789
  131SOL    HW2  523   3.134   0.781   0.074  1.7924  0.2302 -0.1858
  131SOL     MW  524   3.059   0.822   0.058  0.6628  0.2415 -0.2947
  132SOL     OW  525   2.683   0.123   1.269 -0.2036  0.8403 -0.4300
  132SOL    HW1  526   2.710   0.121   1.173 -0.5044  0.3007 -0.5339
  132SOL    HW2  527   2.594   0.092   1.276 -0.1978  2.9433  0.8260
  132SOL     MW  528   2.675   0.119   1.257 -0.2425  1.0466 -0.2780
  133SOL     OW  529   1.136   0.209   1.703  0.1597 -0.3409 -0.0381
  133SOL    HW1  530   1.214   0.156   1.704  0.9883  0.1625  3.1747
  133SOL    HW2  531   1.099   0.182   1.786  3.7370 -1.0414  1.9284
  133SOL     MW  532   1.141   0.199   1.714  0.7410 -0.3669  0.6453
  134SOL     OW  533   1.380   2.514   1.410  0.0009  0.0232 -0.3159
  134SOL    HW1  534   1.325   2.586   1.400  0.7235 -3.1506  0.5397
  134SOL    HW2  535   1.439   2.544   1.480 -2.4210  1.5370 -0.9131
  134SOL     MW  536   1.381   2.527   1.418 -0.2233 -0.1958 -0.2818
  135SOL     OW  537   3.040   1.008   2.968  0.1002 -0.2604 -0.0756
  135SOL    HW1  538   3.096   1.087   2.954  1.1842 -0.6127 -0.6475
  135SOL    HW2  539   2.960   1.060   2.983  3.8627  0.3802 -2.0368
  135SOL     MW  540   3.037   1.025   2.968  0.7396 -0.2223 -0.4098
  136SOL     OW  541   0.251   2.061   0.855  0.6592 -0.6136 -0.1329
  136SOL    HW1  542   0.185   1.991   0.877  0.5298  0.8426 -2.1264
  136SOL    HW2  543   0.264   2.049   0.765 -3.1459 -1.0281  0.0334
  136SOL     MW  544   0.244   2.050   0.846  0.1401 -0.4762 -0.3740
  137SOL     OW  545   0.671   2.070   0.591 -0.3992 -0.2168 -0.6598
  137SOL    HW1  546   0.704   2.047   0.679 -0.9184 -0.4832 -0.0438
  137SOL    HW2  547   0.582   2.042   0.598  3.3812 -2.0401  2.0084
  137SOL     MW  548   0.664   2.063   0.603  0.0311 -0.4925 -0.2265
  138SOL     OW  549   0.542   0.606   1.078  0.8348 -0.5267 -0.2334
  138SOL    HW1  550   0.475   0.542   1.093 -1.6180  0.6775  0.6359
  138SOL    HW2  551   0.570   0.584   0.989  0.1455  2.9816  1.5466
  138SOL     MW  552   0.537   0.594   1.069  0.4202  0.0951  0.1162
  139SOL     OW  553   2.727   0.555   1.419  0.4276 -0.0272  0.4281
  139SOL    HW1  554   2.754   0.467   1.448  2.0392  1.3563 -1.7408
  139SOL    HW2  555   2.793   0.621   1.459  0.5924  1.5585  0.0361
  139SOL     MW  556   2.739   0.552   1.428  0.6620  0.3646  0.0902
  140SOL     OW  557   0.853   0.303   2.165 -0.1420 -0.2015 -0.9547
  140SOL    HW1  558   0.878   0.224   2.105 -0.1026 -0.5021 -1.2515
  140SOL    HW2  559   0.894   0.291   2.248 -1.1102  1.9075  3.4958
  140SOL     MW  560   0.861   0.291   2.168 -0.2645  0.0371 -0.4067
  141SOL     OW  561   1.011   0.664   1.769 -0.4110 -0.3344  0.0469
  141SOL    HW1  562   1.076   0.605   1.727  0.2749 -0.1065 -0.5080
  141SOL    HW2  563   1.068   0.737   1.763 -0.4508 -1.2649 -2.1037
  141SOL     MW  564   1.027   0.666   1.762 -0.3257 -0.4271 -0.3101
  142SOL     OW  565   0.967   1.116   0.690 -0.4273  0.0833  0.1095
  142SOL    HW1  566   0.942   1.035   0.644  1.5390  2.4535  2.1269
  142SOL    HW2  567   1.054   1.092   0.726 -0.9441  0.3144  0.0379
  142SOL     MW  568   0.975   1.102   0.688 -0.2361  0.4265  0.3663
  143SOL     OW  569   1.902   0.911   1.173  0.1429  0.2996 -0.7458
  143SOL    HW1  570   1.914   0.875   1.083 -0.8757 -0.2734 -0.4930
  143SOL    HW2  571   1.878   0.835   1.228 -1.0379 -1.2277 -0.4054
  143SOL     MW  572   1.901   0.896   1.169 -0.1473  0.0225 -0.6676
  144SOL     OW  573   0.187   1.213   1.541  0.3303 -0.7249  0.5607
  144SOL    HW1  574   0.265   1.154   1.535  0.5827 -0.7907  1.3396
  144SOL    HW2  575   0.166   1.217   1.637  0.3098 -2.8190  0.5889
  144SOL     MW  576   0.194   1.206   1.553  0.3609 -1.0099  0.6672
  145SOL     OW  577   0.263   0.430   1.160 -0.0965  0.5771  0.0331
  145SOL    HW1  578   0.318   0.382   1.227  1.2332 -0.9747 -1.0405
  145SOL    HW2  579   0.185   0.380   1.158  1.3943  1.7333 -0.6475
  145SOL     MW  580   0.260   0.417   1.169  0.2756  0.5249 -0.1983
  146SOL     OW  581   0.865   1.942   1.388  0.1472 -0.0861  0.0346
  146SOL    HW1  582   0.930   1.964   1.314 -0.1470  0.1636 -0.9574
  146SOL    HW2  583   0.772   1.941   1.355 -0.6791 -1.2238  1.3319
  146SOL     MW  584   0.861   1.945   1.374 -0.0006 -0.2033  0.0749
  147SOL     OW  585   0.406   0.423   2.842 -0.2606 -0.8110 -0.5153
  147SOL    HW1  586   0.363   0.440   2.922 -0.6388  3.3756  0.2861
  147SOL    HW2  587   0.368   0.489   2.780 -2.9929 -1.7359  0.4321
  147SOL     MW  588   0.395   0.434   2.844 -0.6710 -0.3807 -0.2845
  148SOL     OW  589   0.041   0.880   1.286 -0.8177 -0.0161 -0.0427
  148SOL    HW1  590   0.082   0.962   1.272  0.0794 -1.4169 -1.6149
  148SOL    HW2  591  -0.010   0.883   1.364  2.3493  1.3881  0.0029
  148SOL     MW  592   0.040   0.891   1.294 -0.2815 -0.0157 -0.2441
  149SOL     OW  593   1.434   1.099   1.367  0.3775 -0.0694  0.1141
  149SOL    HW1  594   1.375   1.119   1.447  0.6827 -1.6166  0.0867
  149SOL    HW2  595   1.472   1.186   1.347 -0.4717 -0.1156  2.4161
  149SOL     MW  596   1.431   1.113   1.375  0.3057 -0.2797  0.4142
  150SOL     OW  597   1.829   1.359   0.728 -0.9554 -0.0275  0.4230
  150SOL    HW1  598   1.874   1.277   0.703  2.1650 -0.4877  0.1475
  150SOL    HW2  599   1.888   1.403   0.787 -0.9086  0.1215 -0.2759
  150SOL     MW  600   1.842   1.354   0.732 -0.5375 -0.0686  0.2944
  151SOL     OW  601   1.626   1.788   0.812 -0.1076 -0.2973 -0.1987
  151SOL    HW1  602   1.569   1.787   0.741  0.5744  2.3468  1.3396
  151SOL    HW2  603   1.583   1.724   0.868 -0.4189 -0.9637 -0.3017
  151SOL     MW  604   1.613   1.780   0.810 -0.0586 -0.0364 -0.0093
  152SOL     OW  605   0.767   1.326   1.502 -0.1637 -0.0070  0.5527
  152SOL    HW1  606   0.808   1.240   1.524 -1.5468 -3.0153 -0.2467
  152SOL    HW2  607   0.848   1.372   1.475 -2.1177 -1.5756  0.8363
  152SOL     MW  608   0.783   1.320   1.501 -0.6040 -0.6109  0.4847
  153SOL     OW  609   2.656   1.200   0.719 -0.1420 -0.6366  0.2835
  153SOL    HW1  610   2.714   1.187   0.640  1.9645  0.0203 -0.0367
  153SOL    HW2  611   2.615   1.118   0.718 -1.1791  0.1239  0.9265
  153SOL     MW  612   2.658   1.187   0.708 -0.0009 -0.4496  0.3261
  154SOL     OW  613   0.306   1.754   1.702 -0.1132  0.4540  0.3550
  154SOL    HW1  614   0.340   1.745   1.612  0.2459  0.1579 -3.3368
  154SOL    HW2  615   0.353   1.693   1.761  1.3709  0.3672  0.1963
  154SOL     MW  616   0.316   1.745   1.698  0.1300  0.4035 -0.1530
  155SOL     OW  617   1.107   0.725   0.238  0.0773  0.6524 -0.1924
  155SOL    HW1  618   1.124   0.659   0.304  2.2891  2.4205 -0.5881
  155SOL    HW2  619   1.116   0.811   0.287  1.1088  0.7915 -0.9376
  155SOL     MW  620   1.110   0.727   0.253  0.5052  0.9040 -0.3429
  156SOL     OW  621   1.582   3.034   0.981 -0.1100  0.5902  0.1295
  156SOL    HW1  622   1.638   3.099   1.018 -0.7033 -1.6928  0.5773
  156SOL    HW2  623   1.581   2.966   1.047 -1.6580  1.0597  2.1695
  156SOL     MW  624   1.589   3.034   0.995 -0.3925  0.3509  0.4577
  157SOL     OW  625   1.407   1.186   0.085 -0.1615 -0.3440  0.5349
  157SOL    HW1  626   1.387   1.167   0.173  2.0361  0.6214 -0.2091
  157SOL    HW2  627   1.497   1.225   0.091  0.7017  0.6060  3.4912
  157SOL     MW  628   1.416   1.188   0.097  0.2424 -0.0913  0.8268
  158SOL     OW  629   0.382   1.654   2.288  0.0445  0.2826  0.2403
  158SOL    HW1  630   0.376   1.722   2.223 -0.4761  2.5206  2.2229
  158SOL    HW2  631   0.288   1.626   2.314  1.4973 -2.2623  3.0143
  158SOL     MW  632   0.369   1.659   2.283  0.1675  0.2421  0.8679
  159SOL     OW  633   1.254   1.657   0.410  0.1823 -0.2331  0.2368
  159SOL    HW1  634   1.237   1.565   0.393  1.7110  2.0958  1.5259
  159SOL    HW2  635   1.171   1.673   0.461 -1.2831  0.4889  1.7302
  159SOL     MW  636   1.241   1.647   0.415  0.1906  0.1694  0.6039
  160SOL     OW  637   0.414   1.059   1.580 -0.3470 -0.2848 -0.0020
  160SOL    HW1  638   0.419   0.971   1.623  1.1738 -0.8277 -1.3820
  160SOL    HW2  639   0.437   1.126   1.646 -1.2325  1.1511 -0.7762
  160SOL     MW  640   0.418   1.056   1.595 -0.2632 -0.1670 -0.2862
  161SOL     OW  641   0.584   2.136   2.670  0.3962 -0.8280  0.9050
  161SOL    HW1  642   0.503   2.146   2.723  2.8541  0.7438  1.2793
  161SOL    HW2  643   0.564   2.083   2.588 -1.7889 -0.2934 -3.5394
  161SOL     MW  644   0.571   2.131   2.666  0.4322 -0.5501  0.3680
  162SOL     OW  645   1.013   1.705   1.841 -0.0780 -0.3025  0.0138
  162SOL    HW1  646   0.979   1.794   1.854 -2.2505  1.8368  1.5642
  162SOL    HW2  647   0.945   1.644   1.856  4.0905 -0.4354 -0.0319
  162SOL     MW  648   1.000   1.708   1.845  0.1853 -0.0378  0.2124
  163SOL     OW  649   2.175   0.148   1.009  0.7486 -0.1394  0.0413
  163SOL    HW1  650   2.170   0.171   0.913 -0.1850 -0.0543  0.0823
  163SOL    HW2  651   2.117   0.079   1.023 -2.5715  0.9659  1.0191
  163SOL     MW  652   2.167   0.142   0.998  0.1874  0.0177  0.1757
  164SOL     OW  653   0.303   0.187   0.848  0.0438 -0.4626  0.1721
  164SOL    HW1  654   0.236   0.215   0.905  2.9411  0.7456 -1.3772
  164SOL    HW2  655   0.267   0.116   0.796 -2.9043 -0.3382  0.5829
  164SOL     MW  656   0.289   0.181   0.849  0.0371 -0.2867  0.0219
  165SOL     OW  657   1.380   1.188   0.399 -0.2313 -0.1829  0.3535
  165SOL    HW1  658   1.338   1.136   0.465  0.4205 -0.1536  1.1141
  165SOL    HW2  659   1.468   1.165   0.403 -0.9027  0.2569  0.1223
  165SOL     MW  660   1.386   1.178   0.408 -0.2339 -0.1210  0.4234
  166SOL     OW  661   0.540   1.095   0.982 -0.0228  0.0095 -0.0060
  166SOL    HW1  662   0.487   1.038   1.038 -0.7865 -0.9350 -1.3938
  166SOL    HW2  663   0.621   1.040   0.958  1.2583 -2.1544  1.4871
  166SOL     MW  664   0.544   1.081   0.986  0.0454 -0.4007  0.0079
  167SOL     OW  665   0.949   1.171   0.342 -0.3790  0.0291 -0.4582
  167SOL    HW1  666   0.852   1.173   0.353  2.9267  0.7745  0.7084
  167SOL    HW2  667   0.966   1.192   0.245  0.3061 -2.2300 -0.1896
  167SOL     MW  668   0.938   1.174   0.330  0.1475 -0.1706 -0.2688
  168SOL     OW  669   1.689   1.779   2.910 -0.4775  0.2466 -0.0116
  168SOL    HW1  670   1.641   1.850   2.960 -0.5916 -1.1694  0.1003
  168SOL    HW2  671   1.636   1.699   2.932 -1.2021  0.6217 -1.4312
  168SOL     MW  672   1.676   1.778   2.919 -0.5881  0.1093 -0.1841
  169SOL     OW  673   0.327   0.971   1.312  0.0448 -0.0638  0.6477
  169SOL    HW1  674   0.376   0.983   1.400  0.9091 -0.6925  2.5471
  169SOL    HW2  675   0.303   1.065   1.294 -2.5704  1.0370 -0.0628
  169SOL     MW  676   0.331   0.985   1.321 -0.1862 -0.0015  0.8046
  170SOL     OW  677   1.017   1.447   1.502  0.3496  0.2043 -0.3061
  170SOL    HW1  678   0.997   1.539   1.486 -2.9679  0.8688  1.5546
  170SOL    HW2  679   1.097   1.421   1.450  1.8443  1.1620 -2.6389
  170SOL     MW  680   1.025   1.456   1.493  0.1091  0.4183 -0.3684
  171SOL     OW  681   0.573   1.386   0.692  0.2711  0.0801  0.2243
  171SOL    HW1  682   0.555   1.393   0.784  3.5794 -1.1584  1.0803
  171SOL    HW2  683   0.585   1.288   0.669 -0.4305 -0.6220  1.7163
  171SOL     MW  684   0.572   1.374   0.701  0.6150 -0.1760  0.5341
  172SOL     OW  685   0.849   0.316   1.210 -0.0572  0.4253  0.4923
  172SOL    HW1  686   0.843   0.337   1.120 -0.3165 -0.0738  1.6825
  172SOL    HW2  687   0.769   0.342   1.252 -0.4504 -0.7427 -0.3427
  172SOL     MW  688   0.838   0.322   1.204 -0.1433  0.2053  0.5391
  173SOL     OW  689   0.413   1.672   0.348  0.0809  0.6026 -0.1138
  173SOL    HW1  690   0.410   1.574   0.333  0.2022 -1.4002  0.7503
  173SOL    HW2  691   0.446   1.690   0.436  1.8041  0.5693  0.4034
  173SOL     MW  692   0.417   1.661   0.357  0.3243  0.3340  0.0684
  174SOL     OW  693   2.019   0.966   1.519  0.1714  0.2776 -0.0449
  174SOL    HW1  694   1.954   0.899   1.553  0.4329  0.5035  1.5202
  174SOL    HW2  695   1.958   1.023   1.471 -2.8096  0.4667 -2.6600
  174SOL     MW  696   2.002   0.964   1.517 -0.1874  0.3323 -0.1834
  175SOL     OW  697   0.376   1.350   0.375  0.1947 -0.2375  0.0347
  175SOL    HW1  698   0.380   1.341   0.280  2.9310  0.9213  0.0774
  175SOL    HW2  699   0.450   1.302   0.406 -0.2246  0.7789 -3.2588
  175SOL     MW  700   0.387   1.343   0.366  0.5004  0.0495 -0.3942
  176SOL     OW  701   0.220   1.222   1.252  0.6109 -0.2256 -0.2158
  176SOL    HW1  702   0.165   1.238   1.178  0.4342 -2.2835 -0.3589
  176SOL    HW2  703   0.157   1.242   1.331  0.5090 -1.7878  2.7677
  176SOL     MW  704   0.205   1.226   1.253  0.5742 -0.7032  0.1589
  177SOL     OW  705   0.591   0.431   1.301 -0.2782 -0.0086 -0.6899
  177SOL    HW1  706   0.591   0.501   1.242 -0.7524  0.0433 -0.6371
  177SOL    HW2  707   0.615   0.458   1.391 -1.0346  1.6802 -0.5708
  177SOL     MW  708   0.594   0.444   1.305 -0.4406  0.2210 -0.6672
  178SOL     OW  709   0.008   0.415   3.006 -0.3851  0.6767 -0.5750
  178SOL    HW1  710  -0.050   0.457   3.073  0.1508 -0.7499 -3.3370
  178SOL    HW2  711  -0.028   0.448   2.924 -1.6938  0.8529 -3.3978
  178SOL     MW  712  -0.004   0.425   3.004 -0.4871  0.5117 -1.3119
  179SOL     OW  713   1.652   1.326   1.452  0.0553 -0.3785 -0.2592
  179SOL    HW1  714   1.629   1.297   1.541  0.8878  1.3718 -1.2373
  179SOL    HW2  715   1.747   1.334   1.458  0.5365  3.5062 -0.4769
  179SOL     MW  716   1.662   1.323   1.464  0.2286  0.3650 -0.4170
  180SOL     OW  717   2.996   0.297   0.494  0.3737 -0.0622 -0.2369
  180SOL    HW1  718   2.933   0.302   0.415  0.1589  2.2899  1.6992
  180SOL    HW2  719   3.039   0.384   0.494 -0.4799 -2.1957  0.6788
  180SOL     MW  720   2.994   0.309   0.483  0.2327 -0.0333  0.1393
  181SOL     OW  721   1.159   1.379   3.043  0.2854  0.2108  0.1704
  181SOL    HW1  722   1.205   1.409   3.123 -2.5359 -0.1917  3.2535
  181SOL    HW2  723   1.222   1.391   2.970  2.1752  2.6523  0.0885
  181SOL     MW  724   1.173   1.385   3.044  0.1625  0.4798  0.5664
  182SOL     OW  725   0.468   0.809   1.674 -0.0271 -0.0992 -0.6020
  182SOL    HW1  726   0.403   0.754   1.639  2.4075  1.0082 -0.8194
  182SOL    HW2  727   0.528   0.751   1.713 -0.0798 -0.6315 -0.8345
  182SOL     MW  728   0.467   0.794   1.675  0.2872 -0.0233 -0.6614
  183SOL     OW  729   1.581   1.530   1.297  0.0365  0.3912  0.0367
  183SOL    HW1  730   1.542   1.598   1.357  2.6164 -0.3183  1.5555
  183SOL    HW2  731   1.610   1.454   1.359 -0.8543 -2.0338  0.2651
  183SOL     MW  732   1.579   1.529   1.313  0.2594 -0.0224  0.2673
  184SOL     OW  733   0.780   0.515   1.979 -0.2237  0.6838  0.0234
  184SOL    HW1  734   0.869   0.549   1.951  0.9407 -1.7583  1.3672
  184SOL    HW2  735   0.794   0.458   2.061  0.9098 -0.9446  4.2583
  184SOL     MW  736   0.794   0.512   1.986  0.0795  0.1468  0.7594
  185SOL     OW  737   1.137   0.934   1.962  0.1621  0.1959  0.0502
  185SOL    HW1  738   1.115   0.851   2.003  0.1804  2.2228  1.2336
  185SOL    HW2  739   1.166   1.002   2.036 -0.7939  1.1016 -1.7646
  185SOL     MW  740   1.138   0.932   1.977  0.0384  0.5828 -0.0331
  186SOL     OW  741   0.349   1.732   1.435 -0.3332 -0.8003 -0.5427
  186SOL    HW1  742   0.406   1.799   1.398  0.9116  0.1119 -2.9655
  186SOL    HW2  743   0.320   1.686   1.356  0.1025  0.9398 -3.6974
  186SOL     MW  744   0.352   1.734   1.419 -0.1115 -0.4504 -1.2786
  187SOL     OW  745   1.545   0.688   1.503  0.2975 -0.4498 -0.0775
  187SOL    HW1  746   1.492   0.707   1.580  1.3830 -0.9710 -0.1606
  187SOL    HW2  747   1.482   0.681   1.432  1.7647  2.6169  0.5130
  187SOL     MW  748   1.529   0.689   1.504  0.6343 -0.1140 -0.0105
  188SOL     OW  749   1.921   1.089   0.696  0.0068  0.4416  0.1047
  188SOL    HW1  750   1.906   1.037   0.777 -0.1471 -2.3162  0.2208
  188SOL    HW2  751   2.016   1.085   0.677  1.8556  0.4443  0.2280
  188SOL     MW  752   1.931   1.081   0.704  0.2304  0.0781  0.1363
  189SOL     OW  753   0.615   0.777   0.762 -0.1614  0.1174 -0.3476
  189SOL    HW1  754   0.518   0.790   0.758 -2.5290  0.9206  3.3145
  189SOL    HW2  755   0.662   0.851   0.803  0.8013 -1.7861  1.0297
  189SOL     MW  756   0.608   0.788   0.767 -0.3468 -0.0277  0.3173
  190SOL     OW  757   1.851   0.382   1.972 -0.6518  0.0789 -0.2391
  190SOL    HW1  758   1.902   0.303   1.976 -2.1299  2.0929 -0.8250
  190SOL    HW2  759   1.919   0.452   1.965 -1.4555  1.2277  2.0711
  190SOL     MW  760   1.867   0.381   1.972 -0.9529  0.4962 -0.0116
  191SOL     OW  761   1.645   0.959   1.526  0.0399  0.0129  0.0749
  191SOL    HW1  762   1.577   0.999   1.471  0.4268 -2.1193  1.7160
  191SOL    HW2  763   1.633   0.865   1.512  1.1944  0.9639 -1.1024
  191SOL     MW  764   1.634   0.952   1.517  0.2432 -0.1429  0.1361
  192SOL     OW  765   0.697   2.026   2.886  0.4842 -0.0479  0.3346
  192SOL    HW1  766   0.665   2.077   2.808  0.1848 -1.5646 -2.0019
  192SOL    HW2  767   0.681   1.932   2.863  4.2837 -1.5425  1.5472
  192SOL     MW  768   0.690   2.020   2.873  0.9460 -0.4452  0.1863
  193SOL     OW  769   0.982   1.539   0.708  0.2981 -0.1019 -0.2617
  193SOL    HW1  770   0.944   1.552   0.795 -1.5825 -0.1499  1.7943
  193SOL    HW2  771   0.936   1.463   0.673  0.1991  2.4416  0.6961
  193SOL     MW  772   0.971   1.531   0.715  0.0369  0.2273  0.1360
  194SOL     OW  773   0.507   1.379   0.969 -0.1072  0.0952 -0.2338
  194SOL    HW1  774   0.511   1.286   0.970 -1.2399  4.3048  0.6235
  194SOL    HW2  775   0.412   1.396   0.966 -0.2309 -0.5413  1.7921
  194SOL     MW  776   0.495   1.369   0.969 -0.2729  0.5666  0.1466
  195SOL     OW  777   1.323   1.147   2.935 -0.0452  0.1409 -0.3104
  195SOL    HW1  778   1.368   1.165   3.019  0.2546  1.4611 -0.6668
  195SOL    HW2  779   1.234   1.113   2.958 -1.1891  1.2213  2.4152
  195SOL     MW  780   1.317   1.145   2.949 -0.1565  0.4576  0.0022
  196SOL     OW  781   2.215   1.033   0.602 -0.2544 -0.2501 -0.1166
  196SOL    HW1  782   2.148   1.007   0.536  3.5420 -0.5360 -0.6888
  196SOL    HW2  783   2.225   1.127   0.595 -0.6198 -1.2683 -0.0141
  196SOL     MW  784   2.208   1.042   0.593  0.1983 -0.4221 -0.1786
  197SOL     OW  785   0.555   1.221   2.002  0.4137  0.4401  1.2910
  197SOL    HW1  786   0.566   1.131   2.003  1.8208  0.7619  0.7617
  197SOL    HW2  787   0.561   1.256   1.914  1.2203  0.4390 -1.5261
  197SOL     MW  788   0.557   1.213   1.990  0.7057  0.4824  0.8495
  198SOL     OW  789   2.954   1.376   1.077  0.8372 -0.2401  0.3623
  198SOL    HW1  790   2.941   1.460   1.028 -0.1125  0.7392  0.1878
  198SOL    HW2  791   2.879   1.322   1.050 -2.2582 -1.2965 -3.2011
  198SOL     MW  792   2.943   1.380   1.067  0.3035 -0.2503 -0.1309
  199SOL     OW  793   0.442   1.278   1.752  0.9767 -0.3608  0.6303
  199SOL    HW1  794   0.351   1.247   1.779 -0.1234 -1.6468  0.6570
  199SOL    HW2  795   0.437   1.324   1.663 -1.2076  2.7563 -1.6067
  199SOL     MW  796   0.429   1.280   1.744  0.5434 -0.1192  0.3386
  200SOL     OW  797   1.949   3.034   1.298  0.1161  0.2099  0.2288
  200SOL    HW1  798   1.948   3.033   1.200 -0.6603  3.6957 -1.1082
  200SOL    HW2  799   1.863   3.069   1.324 -1.6573  0.0224  0.2959
  200SOL     MW  800   1.938   3.039   1.288 -0.2203  0.6451  0.0612
  201SOL     OW  801   1.084   0.310   0.771  0.7106  0.1503  0.1620
  201SOL    HW1  802   1.054   0.214   0.771 -0.7324  1.7879  3.0313
  201SOL    HW2  803   1.062   0.344   0.688 -2.3870 -0.6319  1.2741
  201SOL     MW  804   1.077   0.302   0.760  0.1115  0.2631  0.6873
  202SOL     OW  805   1.595   1.571   1.012 -0.0707 -0.0878 -0.0990
  202SOL    HW1  806   1.628   1.495   0.967  1.3381  1.6365  0.6898
  202SOL    HW2  807   1.639   1.562   1.096 -0.0023 -1.4071  0.1122
  202SOL     MW  808   1.605   1.559   1.017  0.1242 -0.0344  0.0330
  203SOL     OW  809   3.005   0.493   1.219  0.0084  0.4129 -0.0416
  203SOL    HW1  810   3.062   0.439   1.158 -1.3854 -0.4979  0.9172
  203SOL    HW2  811   3.065   0.535   1.284  2.7663  1.4940  5.0926
  203SOL     MW  812   3.020   0.491   1.219  0.1884  0.4354  0.7623
  204SOL     OW  813   1.055   1.764   0.584 -0.0521 -0.1324 -0.3366
  204SOL    HW1  814   1.020   1.683   0.635 -0.9469 -0.1655 -0.5068
  204SOL    HW2  815   0.979   1.798   0.535  1.4052  0.4107 -1.1175
  204SOL     MW  816   1.040   1.758   0.584  0.0221 -0.0651 -0.4621
  205SOL     OW  817   1.406   0.041   1.246 -0.4631 -0.5433  0.8654
  205SOL    HW1  818   1.359   0.003   1.170 -0.3422  1.5398 -1.5090
  205SOL    HW2  819   1.435   0.131   1.230 -0.8825 -0.9989  1.8430
  205SOL     MW  820   1.403   0.048   1.234 -0.5025 -0.3286  0.6811
  206SOL     OW  821   0.502   3.094   1.343  0.4586 -0.2923 -0.2803
  206SOL    HW1  822   0.451   3.062   1.268 -1.0381 -0.6834  0.4938
  206SOL    HW2  823   0.576   3.032   1.356 -1.7235  0.9538  0.8366
  206SOL     MW  824   0.505   3.082   1.334 -0.0268 -0.1795 -0.0308
  207SOL     OW  825   0.992   1.595   0.224  0.1236 -0.2590 -0.4639
  207SOL    HW1  826   1.016   1.683   0.189 -1.0191 -0.5275  2.3621
  207SOL    HW2  827   1.074   1.536   0.220 -1.0876 -2.1476  1.6736
  207SOL     MW  828   1.006   1.598   0.219 -0.1870 -0.5436  0.1910
  208SOL     OW  829   0.627   1.559   1.282  0.3389 -0.1844 -0.1499
  208SOL    HW1  830   0.688   1.562   1.357  2.5015  0.6118 -1.0090
  208SOL    HW2  831   0.592   1.471   1.275 -0.8053 -2.7646 -0.1432
  208SOL     MW  832   0.631   1.548   1.291  0.4733 -0.4198 -0.2624
  209SOL     OW  833   1.493   0.527   2.806 -0.4914 -0.6227  0.3430
  209SOL    HW1  834   1.531   0.613   2.810 -1.8975  0.1602 -1.9429
  209SOL    HW2  835   1.567   0.475   2.779 -0.0387 -1.2722 -1.0641
  209SOL     MW  836   1.508   0.531   2.803 -0.6172 -0.6051 -0.1443
  210SOL     OW  837   1.637   1.317   0.913  0.0810 -0.2175 -0.0548
  210SOL    HW1  838   1.721   1.333   0.873 -0.3408  0.7759 -0.4827
  210SOL    HW2  839   1.575   1.320   0.838 -0.4908  0.5006  0.7915
  210SOL     MW  840   1.640   1.320   0.898 -0.0501  0.0083  0.0004
  211SOL     OW  841   1.711   0.489   0.925  0.2350 -0.3625 -0.5424
  211SOL    HW1  842   1.691   0.454   0.836 -0.2937  0.6840  2.2463
  211SOL    HW2  843   1.805   0.510   0.925 -1.1241 -0.2793  0.5014
  211SOL     MW  844   1.721   0.487   0.913 -0.0141 -0.2135 -0.0368
  212SOL     OW  845   0.278   1.113   0.027 -1.1601  0.0652  0.0882
  212SOL    HW1  846   0.228   1.056   0.089  0.8858  1.7097 -0.8667
  212SOL    HW2  847   0.354   1.052  -0.005 -0.7536 -1.2485  1.5774
  212SOL     MW  848   0.282   1.097   0.031 -0.8365  0.1088  0.1587
  213SOL     OW  849   0.519   1.687   3.072  0.3117 -0.3906 -0.1293
  213SOL    HW1  850   0.545   1.747   3.149 -0.0794  1.0300  1.5434
  213SOL    HW2  851   0.548   1.727   2.987  1.6527  0.3609 -0.5556
  213SOL     MW  852   0.526   1.700   3.071  0.4370 -0.1040  0.0351
  214SOL     OW  853   0.613   0.251   2.261  0.2281  0.6104 -0.3075
  214SOL    HW1  854   0.539   0.293   2.208 -1.9249  0.2883 -1.1702
  214SOL    HW2  855   0.697   0.268   2.215  2.1298  0.1381 -3.1613
  214SOL     MW  856   0.614   0.259   2.248  0.1949  0.5056 -0.7978
  215SOL     OW  857   0.507   0.669   2.615 -0.3889 -0.0185  0.6807
  215SOL    HW1  858   0.523   0.655   2.521 -0.0852  2.8822 -0.4495
  215SOL    HW2  859   0.413   0.649   2.628  2.1105 -0.8367 -0.7169
  215SOL     MW  860   0.497   0.665   2.604 -0.0191  0.2562  0.3472
  216SOL     OW  861   3.072   0.003   2.805 -0.1361  0.0648 -0.5084
  216SOL    HW1  862   2.999  -0.009   2.866  1.6509 -1.2057 -3.0168
  216SOL    HW2  863   3.067   0.088   2.768  1.6538 -0.7220 -0.2793
  216SOL     MW  864   3.061   0.013   2.808  0.3358 -0.2066 -0.8091
  217SOL     OW  865   0.974   1.161   0.058 -0.2674  0.2246 -0.3363
  217SOL    HW1  866   1.017   1.074   0.033  2.4069 -0.5480 -3.0408
  217SOL    HW2  867   1.019   1.221  -0.012  1.7162  1.8071 -0.0551
  217SOL     MW  868   0.985   1.157   0.045  0.3472  0.3314 -0.6560
  218SOL     OW  869   0.926   1.327   2.468 -0.0963  0.0780  0.1825
  218SOL    HW1  870   0.906   1.240   2.492 -1.0254  0.7553 -1.0264
  218SOL    HW2  871   0.991   1.367   2.537 -1.2109  0.8930  0.3491
  218SOL     MW  872   0.932   1.321   2.480 -0.3660  0.2749  0.0450
  219SOL     OW  873   1.032   0.406   2.569 -0.1923  0.3489 -0.3149
  219SOL    HW1  874   1.021   0.483   2.518  0.0878  0.1664 -1.1564
  219SOL    HW2  875   0.955   0.410   2.624 -1.6087 -0.4465  1.2514
  219SOL     MW  876   1.020   0.417   2.569 -0.3423  0.2198 -0.2193
  220SOL     OW  877   1.734   0.545   2.171 -0.1533 -0.1164  0.3151
  220SOL    HW1  878   1.650   0.586   2.174 -1.5823  0.7302  3.2843
  220SOL    HW2  879   1.717   0.456   2.137  1.8457  0.3496 -0.4068
  220SOL     MW  880   1.721   0.539   2.167 -0.0781  0.0568  0.6116
  221SOL     OW  881   0.396   1.443   2.933  0.3352 -0.2054 -0.4192
  221SOL    HW1  882   0.347   1.363   2.893 -2.6263 -1.4588  1.9897
  221SOL    HW2  883   0.428   1.497   2.859  0.6403  1.9809 -0.7035
  221SOL     MW  884   0.394   1.439   2.918 -0.0153 -0.0823 -0.1389
  222SOL     OW  885   0.400   0.952   2.666 -0.3933  0.1605  0.0355
  222SOL    HW1  886   0.324   0.946   2.597 -1.1568 -2.4683 -1.2945
  222SOL    HW2  887   0.449   0.874   2.655 -1.6337 -0.7472 -0.6749
  222SOL     MW  888   0.396   0.941   2.656 -0.6577 -0.3061 -0.2337
  223SOL     OW  889   3.071   2.018   2.667  0.1097  0.2842 -0.0152
  223SOL    HW1  890   3.147   1.960   2.665  2.7129 -0.7927  0.6854
  223SOL    HW2  891   3.081   2.095   2.615 -1.3523 -1.4787  2.0397
  223SOL     MW  892   3.082   2.021   2.660  0.2603 -0.0905  0.3484
  224SOL     OW  893   1.543   0.794   2.602 -0.0369  0.4523  0.5147
  224SOL    HW1  894   1.487   0.841   2.667  1.9339  0.3505 -1.1325
  224SOL    HW2  895   1.600   0.862   2.560  1.3419  2.2880 -0.0411
  224SOL     MW  896   1.543   0.810   2.605  0.4051  0.6811  0.2241
  225SOL     OW  897   2.985   1.454   2.269 -0.0866 -0.4104 -0.3714
  225SOL    HW1  898   3.033   1.504   2.201  0.6162 -1.5335 -0.2471
  225SOL    HW2  899   2.951   1.518   2.328 -0.6361  1.5520 -0.3920
  225SOL     MW  900   2.987   1.469   2.268 -0.0664 -0.2997 -0.3577
  226SOL     OW  901   0.444   1.510   2.669  0.1822 -0.2620 -0.0127
  226SOL    HW1  902   0.512   1.456   2.633  2.0800 -1.1367 -2.0238
  226SOL    HW2  903   0.448   1.595   2.623 -1.8558  0.6289 -0.8888
  226SOL     MW  904   0.454   1.514   2.658  0.1637 -0.2598 -0.3937
  227SOL     OW  905   0.412   1.168   2.826 -0.6401  0.3382  0.0725
  227SOL    HW1  906   0.497   1.207   2.806  0.3651  1.0164  2.2373
  227SOL    HW2  907   0.396   1.085   2.768  3.0392  1.8138 -0.6135
  227SOL     MW  908   0.421   1.162   2.816 -0.0220  0.6224  0.2676
  228SOL     OW  909   0.678   0.943   2.000  0.2229  0.6881  0.1777
  228SOL    HW1  910   0.761   0.969   1.966 -1.8570 -1.4365  0.1859
  228SOL    HW2  911   0.696   0.889   2.081 -0.4230  1.5820  2.0186
  228SOL     MW  912   0.691   0.939   2.006 -0.1368  0.5257  0.4217
  229SOL     OW  913   0.256   0.507   3.061 -0.3993  0.6627  0.2815
  229SOL    HW1  914   0.173   0.453   3.036 -3.1158 -2.8940  0.6403
  229SOL    HW2  915   0.269   0.481   3.154  1.6988 -0.2171  1.3170
  229SOL     MW  916   0.247   0.497   3.070 -0.4809  0.0773  0.4655
  230SOL     OW  917   1.748   1.376   2.111  0.5452 -0.5510  0.0925
  230SOL    HW1  918   1.714   1.383   2.198  1.1735 -1.7364  0.2161
  230SOL    HW2  919   1.764   1.282   2.097  1.2139  2.6112 -2.2802
  230SOL     MW  920   1.745   1.365   2.121  0.7164 -0.2902 -0.2042
  231SOL     OW  921   2.812   1.233   2.227  0.1220  0.2503  0.0610
  231SOL    HW1  922   2.891   1.286   2.258 -2.4310 -4.0122  0.4424
  231SOL    HW2  923   2.767   1.289   2.160 -2.5807 -3.6028 -0.0762
  231SOL     MW  924   2.817   1.248   2.222 -0.5715 -0.8205  0.0932
  232SOL     OW  925   2.298   1.005   2.102 -0.1919 -0.7260  0.4760
  232SOL    HW1  926   2.240   1.035   2.036 -0.2910  1.5594 -2.9053
  232SOL    HW2  927   2.242   0.993   2.173 -0.1583  0.1657 -2.1055
  232SOL     MW  928   2.283   1.008   2.103 -0.2005 -0.3068 -0.3107
  233SOL     OW  929   2.047   0.572   1.908  0.7982 -0.5570  0.4434
  233SOL    HW1  930   2.088   0.586   1.825 -0.2861 -1.4319  0.2178
  233SOL    HW2  931   2.117   0.530   1.966  0.8183  1.4309  2.0099
  233SOL     MW  932   2.062   0.568   1.905  0.6578 -0.4102  0.6203
  234SOL     OW  933   0.215   0.967   2.473  0.0416 -0.4805 -0.1930
  234SOL    HW1  934   0.116   0.982   2.482 -1.3859 -1.0270 -0.1481
  234SOL    HW2  935   0.254   1.060   2.463 -0.4847  1.5297  1.0160
  234SOL     MW  936   0.207   0.981   2.473 -0.2162 -0.2874 -0.0276
  235SOL     OW  937   1.011   3.021   2.815  0.3104 -0.5274  0.2980
  235SOL    HW1  938   1.060   2.971   2.881  0.6724 -0.2742  0.2534
  235SOL    HW2  939   1.015   3.107   2.857  0.3641 -1.0691 -1.0595
  235SOL     MW  940   1.018   3.026   2.829  0.3652 -0.5654  0.1130
  236SOL     OW  941   2.925   0.526   0.098 -0.1797 -0.6087 -0.2059
  236SOL    HW1  942   2.845   0.542   0.043  0.9016 -1.7563 -0.7180
  236SOL    HW2  943   2.952   0.614   0.117  2.7158  3.1423  1.1894
  236SOL     MW  944   2.918   0.540   0.093  0.3450 -0.2652 -0.0894
  237SOL     OW  945   1.755   0.889   2.181 -0.2309  0.3069  0.1629
  237SOL    HW1  946   1.785   0.977   2.158  0.6071 -1.7562 -2.9432
  237SOL    HW2  947   1.801   0.870   2.267  0.9232 -2.8640  1.7870
  237SOL     MW  948   1.765   0.898   2.189  0.0319 -0.3837 -0.0326
  238SOL     OW  949   1.097   1.774   2.970  1.1158  0.1722  0.3493
  238SOL    HW1  950   1.038   1.700   2.980  0.8678  0.8068 -1.4232
  238SOL    HW2  951   1.184   1.738   2.950  1.2241 -3.1263 -1.4692
  238SOL     MW  952   1.100   1.760   2.969  1.0973 -0.1792 -0.1245
  239SOL     OW  953   1.251   1.406   2.324 -0.2648 -0.4141 -0.3083
  239SOL    HW1  954   1.190   1.431   2.397 -0.3530  2.5161  1.1310
  239SOL    HW2  955   1.337   1.384   2.359  1.1136 -2.0923  1.4331
  239SOL     MW  956   1.254   1.406   2.338 -0.0946 -0.2489  0.1113
  240SOL     OW  957   0.622   0.805   2.250  0.3006  0.1194 -0.0556
  240SOL    HW1  958   0.595   0.889   2.289 -0.5633  0.2227  2.1957
  240SOL    HW2  959   0.719   0.799   2.265  1.3361  1.2561  1.8340
  240SOL     MW  960   0.631   0.815   2.257  0.3233  0.2830  0.4907
  241SOL     OW  961   0.681   0.357   3.016 -0.0636  0.5111 -0.1525
  241SOL    HW1  962   0.683   0.423   3.083  1.3586 -0.3642 -0.8318
  241SOL    HW2  963   0.594   0.377   2.975 -0.1470  4.1709  1.9612
  241SOL     MW  964   0.670   0.368   3.019  0.1131  0.8785  0.0367
  242SOL     OW  965   1.432   1.694   2.347  0.2262  0.0688  1.0072
  242SOL    HW1  966   1.429   1.786   2.347  0.9818 -2.1018 -0.5825
  242SOL    HW2  967   1.357   1.658   2.297 -1.4152  2.4946  0.0737
  242SOL     MW  968   1.422   1.701   2.340  0.1093  0.1024  0.6743
  243SOL     OW  969   1.063   0.210   2.344 -0.3452  0.2008  0.0808
  243SOL    HW1  970   1.145   0.179   2.309 -0.1481  0.9041 -1.1151
  243SOL    HW2  971   1.086   0.285   2.393 -0.3783  0.8762 -0.6741
  243SOL     MW  972   1.077   0.216   2.346 -0.3236  0.3827 -0.1766
  244SOL     OW  973   0.220   0.760   2.302  0.0362 -0.2912 -0.8933
  244SOL    HW1  974   0.233   0.831   2.365  0.9849 -1.2905  1.3925
  244SOL    HW2  975   0.301   0.715   2.310 -2.3444  1.7339 -1.3126
  244SOL     MW  976   0.232   0.763   2.311 -0.1528 -0.1558 -0.6470
  245SOL     OW  977   1.337   0.148   2.304  0.2385 -0.2191 -0.2723
  245SOL    HW1  978   1.326   0.055   2.327  0.3316 -1.6547 -0.7179
  245SOL    HW2  979   1.434   0.154   2.297  0.5528  0.3089  2.7739
  245SOL     MW  980   1.348   0.136   2.306  0.2922 -0.3389  0.0708
  246SOL     OW  981   1.165   1.125   2.131  0.1158 -0.2431 -0.5007
  246SOL    HW1  982   1.107   1.081   2.200  1.2288 -0.2657 -2.3377
  246SOL    HW2  983   1.251   1.148   2.180  0.5748  0.1461 -1.1411
  246SOL     MW  984   1.169   1.122   2.147  0.3232 -0.1948 -0.8276
  247SOL     OW  985   0.657   0.538   0.121  0.0801 -0.6478  0.0704
  247SOL    HW1  986   0.623   0.601   0.054  1.9018 -0.0837 -0.7391
  247SOL    HW2  987   0.748   0.567   0.136 -0.7635 -1.0963  1.8531
  247SOL     MW  988   0.664   0.550   0.114  0.2091 -0.6325  0.1988
  248SOL     OW  989   0.376   1.206   2.400  0.5263  0.1984 -0.5247
  248SOL    HW1  990   0.386   1.254   2.318  0.9774  0.2405 -2.4052
  248SOL    HW2  991   0.303   1.253   2.441  0.1334  2.6968  3.0674
  248SOL     MW  992   0.368   1.218   2.395  0.5340  0.5336 -0.2988
  249SOL     OW  993   0.150   1.806   2.724 -0.3399 -0.3107 -0.0473
  249SOL    HW1  994   0.107   1.728   2.690 -0.1114 -1.3304  0.0057
  249SOL    HW2  995   0.196   1.787   2.805 -0.5552 -0.5778 -1.3109
  249SOL     MW  996   0.150   1.793   2.730 -0.3382 -0.4805 -0.2070
  250SOL     OW  997   2.149   0.923   2.325  0.4602  0.7914  0.0196
  250SOL    HW1  998   2.183   0.831   2.311 -1.4034 -0.8825  2.1380
  250SOL    HW2  999   2.210   0.960   2.391  0.2040  0.2222  1.4145
  250SOL     MW 1000   2.162   0.915   2.332  0.1805  0.4954  0.4832
  251SOL     OW 1001   0.122   0.830   2.043  0.8646  0.2621 -0.1755
  251SOL    HW1 1002   0.175   0.808   2.115  0.0212  2.8217  0.5742
  251SOL    HW2 1003   0.069   0.753   2.029 -2.1126 -0.4068  0.0114
  251SOL     MW 1004   0.122   0.817   2.051  0.3605  0.5116 -0.0519
  252SOL     OW 1005   1.696   1.020   2.797 -0.2959  0.4358  0.2969
  252SOL    HW1 1006   1.743   1.077   2.858 -0.5792 -0.3036  1.4560
  252SOL    HW2 1007   1.729   1.052   2.712  2.4782  0.7538 -1.1861
  252SOL     MW 1008   1.707   1.032   2.794  0.0327  0.3802  0.2541
  253SOL     OW 1009   1.154   1.749   2.566  0.2502 -0.3280 -0.5134
  253SOL    HW1 1010   1.128   1.769   2.475 -1.1598  0.8879  0.4258
  253SOL    HW2 1011   1.067   1.754   2.612 -0.9479 -1.8692  0.9879
  253SOL     MW 1012   1.139   1.753   2.560 -0.0939 -0.3709 -0.1914
  254SOL     OW 1013   0.973   1.053   2.307  0.0529 -0.3196 -0.1495
  254SOL    HW1 1014   0.944   0.960   2.307  0.2407  0.8376 -2.0503
  254SOL    HW2 1015   0.899   1.095   2.265  2.5664 -0.9064  2.7445
  254SOL     MW 1016   0.959   1.047   2.302  0.4093 -0.2443 -0.0184
  255SOL     OW 1017   0.741   2.371   2.275  0.1780  0.6536  0.2837
  255SOL    HW1 1018   0.655   2.336   2.268 -0.8764  1.3354 -0.2497
  255SOL    HW2 1019   0.763   2.391   2.366  1.0528  0.8327 -1.2060
  255SOL     MW 1020   0.733   2.369   2.286  0.1543  0.7672  0.0168
  256SOL     OW 1021   1.191   2.866   2.935 -0.2175  0.1340 -0.5549
  256SOL    HW1 1022   1.213   2.769   2.929  0.1442  1.1886 -2.9034
  256SOL    HW2 1023   1.258   2.896   2.875 -0.6596 -2.4858 -0.6489
  256SOL     MW 1024   1.203   2.857   2.926 -0.2281 -0.0726 -0.8772
  257SOL     OW 1025   0.104   1.873   0.006 -0.6558 -0.0517  0.2870
  257SOL    HW1 1026   0.146   1.827   0.075 -0.4133 -0.0409 -1.8103
  257SOL    HW2 1027   0.139   1.820  -0.065 -1.5970 -0.7246  0.1736
  257SOL     MW 1028   0.114   1.860   0.005 -0.7480 -0.1390 -0.0047
  258SOL     OW 1029   0.591   1.042   2.401  0.5588 -0.0976 -0.2346
  258SOL    HW1 1030   0.641   1.098   2.342 -0.1543  2.3874  0.5909
  258SOL    HW2 1031   0.506   1.088   2.413  2.7083 -3.6163  0.1749
  258SOL     MW 1032   0.586   1.055   2.395  0.7483 -0.2340 -0.0717
  259SOL     OW 1033   0.597   0.376   2.491  0.1021  0.4376 -0.2988
  259SOL    HW1 1034   0.515   0.425   2.490 -4.6615  2.1809 -0.3074
  259SOL    HW2 1035   0.597   0.322   2.409  0.5047 -0.1948 -1.2454
  259SOL     MW 1036   0.586   0.375   2.480 -0.4733  0.5841 -0.4248
  260SOL     OW 1037   0.597   0.161   1.592  0.2121  0.1200  0.2800
  260SOL    HW1 1038   0.522   0.179   1.535 -0.5081  1.3227 -0.9723
  260SOL    HW2 1039   0.677   0.144   1.549  0.7085 -0.2203 -1.3334
  260SOL     MW 1040   0.598   0.161   1.579  0.1826  0.2338 -0.0981
  261SOL     OW 1041   1.080   0.690   2.093  0.6173 -0.0096  0.6184
  261SOL    HW1 1042   1.107   0.689   2.187 -0.2986  0.2310  2.1373
  261SOL    HW2 1043   1.149   0.638   2.058  2.6683  1.6010 -0.3679
  261SOL     MW 1044   1.092   0.683   2.101  0.7670  0.2347  0.6887
  262SOL     OW 1045   1.136   0.379   0.120 -0.3622 -0.2265 -0.3830
  262SOL    HW1 1046   1.158   0.299   0.162  1.4965 -0.4104  0.1120
  262SOL    HW2 1047   1.187   0.386   0.043 -0.7116 -1.3522 -1.2685
  262SOL     MW 1048   1.145   0.370   0.115 -0.1630 -0.3993 -0.4345
  263SOL     OW 1049   0.431   2.987   2.514 -0.1280 -0.1472  0.4600
  263SOL    HW1 1050   0.374   3.064   2.508  0.1164  2.5286 -0.4139
  263SOL    HW2 1051   0.498   3.004   2.452 -0.9717  3.3596 -0.3931
  263SOL     MW 1052   0.432   2.999   2.505 -0.2071  0.6685  0.2321
  264SOL     OW 1053   1.502   1.337   1.979  0.4666  0.2947 -0.0366
  264SOL    HW1 1054   1.435   1.346   2.047  3.1202  2.1826  0.9547
  264SOL    HW2 1055   1.581   1.352   2.035 -0.9676  1.6973 -0.8005
  264SOL     MW 1056   1.504   1.340   1.995  0.6275  0.7288 -0.0066
  265SOL     OW 1057   0.730   2.735   2.214 -0.4504 -0.0413  0.0935
  265SOL    HW1 1058   0.786   2.676   2.175  0.5767  2.9885  1.3923
  265SOL    HW2 1059   0.730   2.728   2.314  0.9874  1.0719  0.3393
  265SOL     MW 1060   0.737   2.726   2.222 -0.1252  0.5053  0.2973
  266SOL     OW 1061   0.886   0.799   2.280  0.3909 -0.2902  0.3691
  266SOL    HW1 1062   0.926   0.761   2.200  2.8508 -1.1521 -2.5531
  266SOL    HW2 1063   0.911   0.741   2.351  0.8494 -3.5871 -0.8780
  266SOL     MW 1064   0.895   0.786   2.279  0.7759 -0.8389 -0.1810
  267SOL     OW 1065   1.403   1.807   2.674  0.0274  0.0738  0.3143
  267SOL    HW1 1066   1.476   1.743   2.631  0.8567  0.1334 -2.5610
  267SOL    HW2 1067   1.317   1.776   2.645  3.4633 -1.1804  1.3905
  267SOL     MW 1068   1.401   1.795   2.664  0.5902 -0.0838  0.0769
  268SOL     OW 1069   0.211   0.747   1.654 -0.0673 -0.2421 -0.0304
  268SOL    HW1 1070   0.136   0.802   1.606 -1.5924  0.1008  0.3123
  268SOL    HW2 1071   0.191   0.656   1.652  1.4045 -1.9107  3.1442
  268SOL     MW 1072   0.198   0.742   1.647 -0.0744 -0.4170  0.4337
  269SOL     OW 1073   1.409   1.946   2.434 -0.1472 -0.0914 -0.0452
  269SOL    HW1 1074   1.419   1.907   2.527  2.0329 -0.0928 -2.5485
  269SOL    HW2 1075   1.339   2.010   2.436  0.0636  0.7341  0.3090
  269SOL     MW 1076   1.401   1.949   2.447  0.1682  0.0173 -0.3288
  270SOL     OW 1077   1.175   0.468   1.620 -0.0463 -0.0008 -0.3483
  270SOL    HW1 1078   1.174   0.377   1.646 -0.5761 -0.6262 -1.0349
  270SOL    HW2 1079   1.267   0.476   1.584 -2.5859 -0.8440 -0.3080
  270SOL     MW 1080   1.187   0.457   1.619 -0.4513 -0.1946 -0.4336
  271SOL     OW 1081   0.878   3.097   2.452 -0.2660 -0.3258 -0.6575
  271SOL    HW1 1082   0.924   3.019   2.470 -2.1544  0.0897 -0.7090
  271SOL    HW2 1083   0.943   3.162   2.423 -2.6025  0.4278  2.1141
  271SOL     MW 1084   0.892   3.096   2.450 -0.8234 -0.1716 -0.2986
  272SOL     OW 1085   1.370   3.002   2.767 -0.1024  0.2428 -0.4814
  272SOL    HW1 1086   1.303   3.019   2.706  0.1310 -1.1066  1.3658
  272SOL    HW2 1087   1.354   3.080   2.833 -0.2331  0.2178  4.0544
  272SOL     MW 1088   1.359   3.014   2.767 -0.0889  0.0615  0.3608
  273SOL     OW 1089   1.424   0.928   2.817  0.2545 -0.2016  0.3985
  273SOL    HW1 1090   1.511   0.972   2.808 -0.2983  1.7339  2.1384
  273SOL    HW2 1091   1.379   1.000   2.865 -0.4242  0.8658 -2.1948
  273SOL     MW 1092   1.430   0.943   2.822  0.0920  0.1946  0.2859
  274SOL     OW 1093   1.335   0.705   0.116 -0.4123  0.0193 -0.5564
  274SOL    HW1 1094   1.375   0.635   0.166  0.1982  1.0797  1.7192
  274SOL    HW2 1095   1.247   0.712   0.166  1.9978 -0.9008 -2.4382
  274SOL     MW 1096   1.329   0.697   0.129 -0.0138  0.0378 -0.5044
  275SOL     OW 1097   1.688   0.648   1.766  0.0075 -0.6467  0.7065
  275SOL    HW1 1098   1.733   0.693   1.846  1.5621  1.2263 -0.1195
  275SOL    HW2 1099   1.677   0.550   1.778  0.1963  0.3612  1.6853
  275SOL     MW 1100   1.693   0.641   1.778  0.2375 -0.2666  0.7267
  276SOL     OW 1101   0.191   1.173   1.817 -0.1907 -0.2216 -0.0475
  276SOL    HW1 1102   0.241   1.097   1.856  2.0148 -0.9509 -0.2596
  276SOL    HW2 1103   0.102   1.167   1.857 -1.8479  0.3723  2.5400
  276SOL     MW 1104   0.185   1.162   1.828 -0.1184 -0.2394  0.2659
  277SOL     OW 1105   1.926   1.377   2.728  0.7552  0.1201 -0.3084
  277SOL    HW1 1106   1.906   1.469   2.694 -0.4400 -0.3497 -0.3474
  277SOL    HW2 1107   1.999   1.335   2.674 -0.3042 -1.6499  0.5530
  277SOL     MW 1108   1.933   1.384   2.717  0.4577 -0.1754 -0.1999
  278SOL     OW 1109   1.425   0.720   1.768 -0.1149 -0.7582  0.2728
  278SOL    HW1 1110   1.366   0.663   1.825 -2.8269 -1.5744 -0.1915
  278SOL    HW2 1111   1.516   0.688   1.783  3.0108  0.3000  0.7453
  278SOL     MW 1112   1.429   0.708   1.778 -0.0603 -0.7263  0.2739
  279SOL     OW 1113   0.588   3.075   2.262  0.4680 -0.2163  0.0995
  279SOL    HW1 1114   0.670   3.080   2.213 -2.7523  2.6084 -2.2287
  279SOL    HW2 1115   0.570   3.170   2.267 -2.6746 -1.7379 -2.2692
  279SOL     MW 1116   0.597   3.088   2.257 -0.3715 -0.0444 -0.5202
  280SOL     OW 1117   1.431   1.156   2.240  0.0820 -0.1305 -0.5437
  280SOL    HW1 1118   1.451   1.077   2.179 -1.1055  0.7881 -0.5422
  280SOL    HW2 1119   1.453   1.126   2.335  0.8845 -1.8039 -0.1412
  280SOL     MW 1120   1.436   1.142   2.244  0.0312 -0.2301 -0.4904
  281SOL     OW 1121   1.316   1.403   2.818 -0.5977  0.0801  0.8721
  281SOL    HW1 1122   1.403   1.445   2.816  1.0469 -1.5769 -0.4277
  281SOL    HW2 1123   1.351   1.315   2.837 -1.8748  0.8751  1.3353
  281SOL     MW 1124   1.332   1.397   2.820 -0.5492 -0.0336  0.7617
  282SOL     OW 1125   1.110   1.289   1.744 -0.4332 -0.1597 -0.3377
  282SOL    HW1 1126   1.046   1.302   1.671 -0.4898 -3.2201  0.8498
  282SOL    HW2 1127   1.068   1.218   1.794 -1.9243 -0.6870 -1.9063
  282SOL     MW 1128   1.096   1.281   1.741 -0.6374 -0.6331 -0.3880
  283SOL     OW 1129   0.696   1.200   0.015  0.0317  0.4087 -0.8879
  283SOL    HW1 1130   0.791   1.205   0.030 -0.0778  1.6553 -0.1044
  283SOL    HW2 1131   0.682   1.295   0.020 -0.7287  1.9531 -1.7730
  283SOL     MW 1132   0.706   1.213   0.017 -0.0830  0.7770 -0.9013
  284SOL     OW 1133   0.475   0.619   2.337 -0.2574  0.0040 -0.2692
  284SOL    HW1 1134   0.546   0.687   2.301  1.2817 -0.0956 -1.9997
  284SOL    HW2 1135   0.472   0.540   2.282 -0.2561  0.1156  0.3752
  284SOL     MW 1136   0.484   0.617   2.325 -0.0541  0.0056 -0.4125
  285SOL     OW 1137   0.911   0.908   2.781  1.1204  0.0909  0.5817
  285SOL    HW1 1138   0.872   0.968   2.715  0.6633  1.3578 -1.6105
  285SOL    HW2 1139   0.844   0.836   2.803  0.8481  1.4121 -3.1386
  285SOL     MW 1140   0.897   0.906   2.775  1.0242  0.4324 -0.1984
  286SOL     OW 1141   1.160   1.463   2.596  0.0960  0.0307 -0.1100
  286SOL    HW1 1142   1.208   1.440   2.673  0.1836  0.3376  1.5367
  286SOL    HW2 1143   1.165   1.555   2.605 -0.1516  0.0327 -1.5122
  286SOL     MW 1144   1.167   1.472   2.607  0.0749  0.0715 -0.0778
  287SOL     OW 1145   1.083   0.941   0.412 -0.3001 -0.1869  0.2407
  287SOL    HW1 1146   1.139   0.975   0.483 -0.7997  0.9663 -1.9749
  287SOL    HW2 1147   1.041   1.024   0.378 -3.7903  0.5044 -1.5332
  287SOL     MW 1148   1.085   0.956   0.417 -0.8265  0.0564 -0.2857
  288SOL     OW 1149   1.499   0.689   2.162  0.2977 -0.3956 -0.3476
  288SOL    HW1 1150   1.483   0.672   2.258 -0.9314 -2.5791  0.9898
  288SOL    HW2 1151   1.490   0.782   2.158  1.4073 -1.4356 -0.3599
  288SOL     MW 1152   1.496   0.699   2.174  0.2820 -0.8209 -0.1728
  289SOL     OW 1153   0.817   1.073   2.576  0.5076  1.3930  0.5413
  289SOL    HW1 1154   0.873   1.047   2.503  1.5649  0.7195  0.2904
  289SOL    HW2 1155   0.727   1.070   2.566  1.9845  0.5776  2.9697
  289SOL     MW 1156   0.813   1.069   2.565  0.8420  1.1965  0.8286
  290SOL     OW 1157   0.848   0.691   1.545  0.0133 -0.1431 -0.1335
  290SOL    HW1 1158   0.892   0.625   1.485  2.6463 -0.9272 -0.3224
  290SOL    HW2 1159   0.894   0.670   1.631  2.6599 -0.5337  1.1288
  290SOL     MW 1160   0.860   0.679   1.548  0.7099 -0.2981  0.0082
  291SOL     OW 1161   0.239   0.375   0.206 -0.5128 -0.1944  0.0847
  291SOL    HW1 1162   0.328   0.346   0.226 -1.6751  1.9695 -0.0720
  291SOL    HW2 1163   0.196   0.301   0.159  0.0875  0.5318 -0.4496
  291SOL     MW 1164   0.245   0.362   0.202 -0.5869  0.1870 -0.0064
  292SOL     OW 1165   0.929   0.574   0.090 -0.0683  0.1295 -0.6223
  292SOL    HW1 1166   0.991   0.636   0.127  1.0566 -1.1227 -0.2749
  292SOL    HW2 1167   0.982   0.492   0.098 -1.7256 -0.9438 -0.3830
  292SOL     MW 1168   0.945   0.571   0.096 -0.1385 -0.1773 -0.5449
  293SOL     OW 1169   0.240   0.103   2.495 -0.2648  0.1607  0.2346
  293SOL    HW1 1170   0.152   0.081   2.462  0.9593 -2.2836 -0.9586
  293SOL    HW2 1171   0.234   0.168   2.571 -1.8725 -0.3528  2.7786
  293SOL     MW 1172   0.227   0.109   2.500 -0.3154 -0.2295  0.4128
  294SOL     OW 1173   1.429   0.633   2.427 -0.0194 -0.0098 -0.1183
  294SOL    HW1 1174   1.467   0.681   2.502 -2.4680  0.3954  1.5409
  294SOL    HW2 1175   1.423   0.546   2.465  2.4068  1.2532  3.4599
  294SOL     MW 1176   1.433   0.628   2.442 -0.0224  0.2103  0.5727
  295SOL     OW 1177   0.772   0.609   2.509  0.1344  0.6170  0.2055
  295SOL    HW1 1178   0.703   0.552   2.469  0.3031  0.7999 -2.6299
  295SOL    HW2 1179   0.736   0.629   2.604  1.1967  1.3932  1.6928
  295SOL     MW 1180   0.758   0.604   2.516  0.2968  0.7435  0.0276
  296SOL     OW 1181   1.261   0.291   2.071  0.0858  0.2621 -0.0342
  296SOL    HW1 1182   1.339   0.288   2.013  1.1444 -1.1716 -1.4361
  296SOL    HW2 1183   1.281   0.249   2.157  3.7222  1.0320 -1.5803
  296SOL     MW 1184   1.274   0.285   2.075  0.7053  0.1745 -0.4232
  297SOL     OW 1185   1.454   0.412   1.507 -0.1281 -0.5291 -0.5295
  297SOL    HW1 1186   1.507   0.490   1.498  1.2122 -1.3640 -1.3362
  297SOL    HW2 1187   1.505   0.336   1.529  0.1313 -2.1847  0.6269
  297SOL     MW 1188   1.467   0.412   1.509  0.0829 -0.8577 -0.4833
  298SOL     OW 1189   1.483   0.950   2.074 -0.2338  0.4446 -0.6345
  298SOL    HW1 1190   1.456   0.978   1.986 -0.2138 -0.0553 -1.0304
  298SOL    HW2 1191   1.580   0.956   2.077 -0.9047  0.3407  0.2787
  298SOL     MW 1192   1.492   0.954   2.063 -0.3196  0.3649 -0.5663
  299SOL     OW 1193   0.517   0.998   3.025  0.3621  0.4096  0.2191
  299SOL    HW1 1194   0.552   1.067   3.087 -1.0401 -2.0293 -0.1320
  299SOL    HW2 1195   0.524   1.036   2.940 -0.1389 -1.8328  0.3939
  299SOL     MW 1196   0.523   1.012   3.022  0.1110 -0.2081  0.1959
  300SOL     OW 1197   1.184   1.091   2.547  0.3865  0.7961 -0.3645
  300SOL    HW1 1198   1.132   1.139   2.476 -1.9232  0.5030 -1.4472
  300SOL    HW2 1199   1.157   0.999   2.557  1.2795 -1.3706  3.7415
  300SOL     MW 1200   1.174   1.085   2.539  0.1996  0.4716  0.0344
  301SOL     OW 1201   1.401   0.742   0.545 -0.0750  0.2381  0.1017
  301SOL    HW1 1202   1.415   0.710   0.636 -0.4762  0.6114  1.9051
  301SOL    HW2 1203   1.324   0.702   0.514  1.0068 -0.3772  2.2017
  301SOL     MW 1204   1.393   0.732   0.553  0.0148  0.2062  0.6167
  302SOL     OW 1205   0.132   1.495   1.944 -0.3368 -0.6183 -0.3535
  302SOL    HW1 1206   0.162   1.441   2.015  0.8598 -0.0659 -0.9962
  302SOL    HW2 1207   0.063   1.553   1.982  0.9613 -1.0335 -0.1047
  302SOL     MW 1208   0.127   1.496   1.958 -0.0077 -0.6002 -0.4055
  303SOL     OW 1209   0.418   1.816   2.637  0.4256 -0.2612 -0.7954
  303SOL    HW1 1210   0.414   1.873   2.564 -1.1613  0.6229  0.6069
  303SOL    HW2 1211   0.326   1.803   2.651  1.8483 -2.2024 -0.0584
  303SOL     MW 1212   0.405   1.822   2.629  0.4039 -0.4007 -0.5132
  304SOL     OW 1213   0.516   2.007   2.441 -0.6008  0.6219  0.1429
  304SOL    HW1 1214   0.504   2.098   2.407 -0.0688  3.6503  3.3200
  304SOL    HW2 1215   0.585   1.959   2.397  2.6506  2.0233  2.5975
  304SOL     MW 1216   0.523   2.013   2.430 -0.1016  1.2064  0.8860
  305SOL     OW 1217   1.184   0.570   0.458  0.0886 -0.0913  0.3541
  305SOL    HW1 1218   1.097   0.529   0.487 -2.6374 -0.6353  0.7961
  305SOL    HW2 1219   1.226   0.492   0.432  0.9524  1.6746  2.1421
  305SOL     MW 1220   1.178   0.554   0.459 -0.1571  0.0700  0.6483
  306SOL     OW 1221   1.217   1.413   0.291  0.2258 -0.1053  0.1193
  306SOL    HW1 1222   1.255   1.328   0.299 -0.6424  1.0059  0.6010
  306SOL    HW2 1223   1.275   1.462   0.223  0.2174 -2.2917 -1.4716
  306SOL     MW 1224   1.229   1.408   0.283  0.1102 -0.2472 -0.0271
  307SOL     OW 1225   1.314   0.587   1.977 -0.1351  0.7056  0.2151
  307SOL    HW1 1226   1.306   0.501   2.017 -1.1920  0.7474  1.7978
  307SOL    HW2 1227   1.373   0.638   2.036  2.3142  0.5046  3.6617
  307SOL     MW 1228   1.321   0.582   1.990  0.0487  0.6846  0.8786
  308SOL     OW 1229   2.138   0.564   2.745  0.5148  1.0231 -0.1067
  308SOL    HW1 1230   2.112   0.464   2.751 -1.7237 -1.9792  1.3628
  308SOL    HW2 1231   2.230   0.581   2.742  1.8913 -2.1067 -0.5331
  308SOL     MW 1232   2.147   0.553   2.746  0.4011  0.2141  0.0309
  309SOL     OW 1233   0.503   0.505   0.381  0.4894 -0.2758  0.2414
  309SOL    HW1 1234   0.528   0.422   0.420  1.6951  0.7980 -2.0272
  309SOL    HW2 1235   0.517   0.494   0.290 -0.5975 -0.9031  0.4326
  309SOL     MW 1236   0.508   0.493   0.374  0.5051 -0.2169 -0.0327
  310SOL     OW 1237   0.418   0.512   1.913 -0.1040 -0.3224  0.2803
  310SOL    HW1 1238   0.465   0.451   1.849  3.0384 -0.2981 -1.2626
  310SOL    HW2 1239   0.477   0.591   1.906  0.6874  2.4308 -1.0993
  310SOL     MW 1240   0.432   0.515   1.904  0.4150  0.0441 -0.1053
  311SOL     OW 1241   1.852   0.768   1.940  0.7162  0.0735 -0.0740
  311SOL    HW1 1242   1.809   0.790   2.025  3.7085 -0.1740 -0.3045
  311SOL    HW2 1243   1.907   0.695   1.952 -1.5513  3.4924 -2.0318
  311SOL     MW 1244   1.854   0.762   1.953  0.8118  0.4919 -0.3627
  312SOL     OW 1245   1.722   2.613   3.067 -0.2689 -0.6378 -0.1302
  312SOL    HW1 1246   1.747   2.620   3.159 -0.3417  0.0660 -0.8110
  312SOL    HW2 1247   1.623   2.607   3.071 -3.0459 -0.0556  3.2427
  312SOL     MW 1248   1.712   2.613   3.080 -0.6449 -0.4681  0.2250
  313SOL     OW 1249   0.130   1.204   2.929 -0.3816  0.1000 -0.0081
  313SOL    HW1 1250   0.189   1.160   2.993  1.7995  3.2101 -1.6461
  313SOL    HW2 1251   0.173   1.223   2.843 -1.8605 -0.1503  2.1705
  313SOL     MW 1252   0.144   1.201   2.926 -0.2889  0.4773  0.0632
  314SOL     OW 1253   2.160   3.031   2.979  0.1612 -0.2953 -0.4463
  314SOL    HW1 1254   2.092   3.072   2.926  1.9957 -0.5627  1.9186
  314SOL    HW2 1255   2.182   3.105   3.032  0.6851 -0.4469  1.0773
  314SOL     MW 1256   2.154   3.046   2.979  0.4724 -0.3506  0.0668
  315SOL     OW 1257   1.577   1.986   3.021  0.3115  0.1783  0.1827
  315SOL    HW1 1258   1.486   2.017   3.051 -0.2800 -1.7370  1.3736
  315SOL    HW2 1259   1.597   2.025   2.932 -1.4169  0.4169  1.2451
  315SOL     MW 1260   1.568   1.995   3.013  0.0054 -0.0429  0.4800
  316SOL     OW 1261   1.233   0.649   2.694  0.2947  0.5249 -0.0078
  316SOL    HW1 1262   1.280   0.568   2.681  0.9138 -0.1262  0.1851
  316SOL    HW2 1263   1.247   0.663   2.791  0.4577 -1.1406 -0.3895
  316SOL     MW 1264   1.241   0.640   2.705  0.3979  0.2192 -0.0327
  317SOL     OW 1265   0.658   1.368   2.596  0.0604  0.2080  0.2620
  317SOL    HW1 1266   0.703   1.325   2.665  1.3986  0.9878  0.3412
  317SOL    HW2 1267   0.727   1.374   2.531 -2.3614  1.2765  1.9613
  317SOL     MW 1268   0.673   1.363   2.597 -0.0826  0.4518  0.4966
  318SOL     OW 1269   1.270   0.396   2.933 -0.0233 -0.8184 -0.3073
  318SOL    HW1 1270   1.186   0.448   2.921 -0.8344  1.4084 -0.3466
  318SOL    HW2 1271   1.336   0.455   2.894 -1.1998 -1.2386  2.8584
  318SOL     MW 1272   1.268   0.410   2.926 -0.2856 -0.5800  0.1052
  319SOL     OW 1273   0.763   0.397   2.735  0.2805 -0.0375  0.0431
  319SOL    HW1 1274   0.708   0.354   2.672  0.0816 -1.2304 -0.3913
  319SOL    HW2 1275   0.735   0.353   2.814  1.3934  0.5466  0.2675
  319SOL     MW 1276   0.752   0.385   2.737  0.4011 -0.1178  0.0154
  320SOL     OW 1277   1.020   1.310   2.014  0.4496 -0.0222  0.0177
  320SOL    HW1 1278   1.077   1.244   2.053 -1.0613 -0.5633  1.2882
  320SOL    HW2 1279   1.077   1.381   1.987 -1.4224 -0.5152 -2.1057
  320SOL     MW 1280   1.035   1.311   2.016  0.0033 -0.1586 -0.0949
  321SOL     OW 1281   1.100   0.979   2.965 -0.2160 -0.1322 -0.4672
  321SOL    HW1 1282   1.023   0.949   2.914  2.7707  0.3729  3.3106
  321SOL    HW2 1283   1.161   0.900   2.976  0.8001 -3.6165 -1.4542
  321SOL     MW 1284   1.098   0.964   2.960  0.3121 -0.5252 -0.0990
  322SOL     OW 1285   1.221   0.886   1.711 -0.5379  0.0243  0.1974
  322SOL    HW1 1286   1.310   0.847   1.719  0.6365  0.7745  1.6855
  322SOL    HW2 1287   1.198   0.907   1.801 -0.4431  0.2763  1.4945
  322SOL     MW 1288   1.230   0.883   1.724 -0.3704  0.1565  0.5649
  323SOL     OW 1289   1.197   1.510   1.906 -0.1470 -0.3254 -0.2776
  323SOL    HW1 1290   1.173   1.439   1.842 -0.1279  1.6001  1.9394
  323SOL    HW2 1291   1.132   1.578   1.897  2.4442 -0.3264 -1.5046
  323SOL     MW 1292   1.186   1.509   1.896  0.1974 -0.0715 -0.1470
  324SOL     OW 1293   1.499   1.093   2.479  0.5243  0.1843 -0.3256
  324SOL    HW1 1294   1.409   1.101   2.507 -1.5025  2.0449  1.6371
  324SOL    HW2 1295   1.535   1.164   2.531 -3.4550 -1.4725  0.9103
  324SOL     MW 1296   1.492   1.103   2.489 -0.2682  0.2112  0.0964
  325SOL     OW 1297   0.992   0.462   2.923  0.1720  0.7224  0.4767
  325SOL    HW1 1298   0.955   0.516   2.996 -1.1219 -1.9803 -3.8050
  325SOL    HW2 1299   0.928   0.457   2.851  0.4805  0.0904  1.5489
  325SOL     MW 1300   0.979   0.469   2.923  0.0420  0.2824  0.0532
  326SOL     OW 1301   0.389   1.345   2.170  0.0951  0.3995  0.1134
  326SOL    HW1 1302   0.444   1.306   2.100 -0.0969  2.4237  0.6637
  326SOL    HW2 1303   0.410   1.440   2.174  0.9698 -0.9160 -2.5360
  326SOL     MW 1304   0.399   1.353   2.161  0.1852  0.4930 -0.1636
  327SOL     OW 1305   1.909   0.846   2.411  0.0463 -0.2496  0.1286
  327SOL    HW1 1306   1.904   0.779   2.481 -1.4916 -2.1265 -0.7330
  327SOL    HW2 1307   2.004   0.870   2.399 -1.3570 -3.1943  0.5236
  327SOL     MW 1308   1.921   0.841   2.418 -0.3418 -0.8857  0.0670
  328SOL     OW 1309   0.129   1.280   2.187 -0.0088  1.0733  0.0808
  328SOL    HW1 1310   0.096   1.200   2.145 -3.4451  3.3676 -1.0220
  328SOL    HW2 1311   0.222   1.296   2.172 -1.7232 -0.4115  0.3058
  328SOL     MW 1312   0.137   1.271   2.180 -0.6884  1.1801 -0.0350
  329SOL     OW 1313   0.139   0.166   1.402  0.3025 -0.1449 -0.4815
  329SOL    HW1 1314   0.063   0.217   1.391  1.2902  1.9028 -0.5194
  329SOL    HW2 1315   0.211   0.230   1.409  1.5200  0.8930 -0.9017
  329SOL     MW 1316   0.138   0.181   1.401  0.5934  0.2622 -0.5420
  330SOL     OW 1317   0.402   2.949   2.086  0.0476 -0.1916  0.5244
  330SOL    HW1 1318   0.454   2.987   2.161 -0.7588 -0.4310 -0.0139
  330SOL    HW2 1319   0.319   2.937   2.128 -1.4812  0.5253  0.8290
  330SOL     MW 1320   0.398   2.952   2.102 -0.2605 -0.1286  0.4936
  331SOL     OW 1321   0.720   1.191   2.218 -0.2947  0.7425 -0.2168
  331SOL    HW1 1322   0.675   1.204   2.138  0.0132 -3.5688 -0.1214
  331SOL    HW2 1323   0.724   1.284   2.245  2.7335  0.1382 -0.1012
  331SOL     MW 1324   0.715   1.205   2.211  0.1455  0.0939 -0.1890
  332SOL     OW 1325   1.354   1.741   2.932  0.1386 -0.3138  0.0622
  332SOL    HW1 1326   1.372   1.774   2.836 -1.0281  1.2967 -1.6762
  332SOL    HW2 1327   1.363   1.823   2.979 -0.4021  0.9137 -0.9362
  332SOL     MW 1328   1.357   1.756   2.926 -0.0867  0.0606 -0.2989
  333SOL     OW 1329   1.741   1.502   3.032  0.0693 -0.5346 -0.2902
  333SOL    HW1 1330   1.838   1.499   3.019  1.5116  2.1032  2.4879
  333SOL    HW2 1331   1.720   1.425   3.091 -2.3478 -0.4078  2.2725
  333SOL     MW 1332   1.751   1.491   3.038 -0.0593 -0.1698  0.4145
  334SOL     OW 1333   1.168   3.073   2.591  0.3782 -0.4607  0.2184
  334SOL    HW1 1334   1.091   3.075   2.657 -0.7625  0.5880  0.7119
  334SOL    HW2 1335   1.212   3.156   2.612  1.1294 -1.3604 -0.1351
  334SOL     MW 1336   1.164   3.084   2.602  0.3268 -0.4411  0.2369
  335SOL     OW 1337   1.261   0.750   2.951 -0.0569 -0.5826  0.5076
  335SOL    HW1 1338   1.281   0.744   3.043  0.8735 -1.2615  0.6685
  335SOL    HW2 1339   1.332   0.802   2.915  2.1190 -1.1807 -0.8689
  335SOL     MW 1340   1.273   0.756   2.959  0.3530 -0.7511  0.3472
  336SOL     OW 1341   0.941   1.075   1.851 -0.4398 -0.5250 -0.3455
  336SOL    HW1 1342   0.945   1.151   1.912  0.4475  0.5446  1.8142
  336SOL    HW2 1343   1.007   1.016   1.885  2.0874  0.3694  1.8054
  336SOL     MW 1344   0.950   1.077   1.864  0.0107 -0.2658  0.2233
  337SOL     OW 1345   0.616   1.771   2.827 -0.9547 -0.0469 -0.0337
  337SOL    HW1 1346   0.556   1.794   2.756 -1.1391  1.1060  0.5240
  337SOL    HW2 1347   0.652   1.686   2.801 -1.3138 -4.5118 -3.4003
  337SOL     MW 1348   0.613   1.763   2.814 -1.0264 -0.4839 -0.4043
  338SOL     OW 1349   1.037   0.792   2.547  0.1501 -0.1730 -0.8412
  338SOL    HW1 1350   1.013   0.838   2.632 -3.1443 -0.8565 -2.0067
  338SOL    HW2 1351   1.098   0.723   2.581  4.4208 -0.8374 -1.1771
  338SOL     MW 1352   1.042   0.789   2.563  0.2789 -0.3508 -1.0393
  339SOL     OW 1353   1.424   1.092   1.843  0.7408 -0.6131 -0.0825
  339SOL    HW1 1354   1.412   1.119   1.751 -2.0230  2.3545  0.5437
  339SOL    HW2 1355   1.441   1.180   1.881  0.5203  1.7804  2.0974
  339SOL     MW 1356   1.425   1.107   1.836  0.3471  0.0943  0.2877
  340SOL     OW 1357   1.358   1.555   0.081 -0.5801  0.4385 -0.2331
  340SOL    HW1 1358   1.374   1.591  -0.011 -0.3867  0.1627 -0.9071
  340SOL    HW2 1359   1.440   1.562   0.124 -0.8546  1.9434  1.0460
  340SOL     MW 1360   1.371   1.561   0.074 -0.5908  0.6006 -0.1532
  341SOL     OW 1361   0.170   1.265   2.652 -1.0372  0.1800  0.4152
  341SOL    HW1 1362   0.203   1.355   2.645 -0.0552 -1.4178 -1.0620
  341SOL    HW2 1363   0.105   1.256   2.583  0.0037  1.3685 -3.2799
  341SOL     MW 1364   0.166   1.275   2.642 -0.7703  0.1260 -0.2673
  342SOL     OW 1365   1.409   0.268   0.080  0.2105 -0.2092 -0.1565
  342SOL    HW1 1366   1.421   0.346   0.131  0.2809  1.0800  1.1597
  342SOL    HW2 1367   1.378   0.310  -0.001  1.5174  4.1711  1.3714
  342SOL     MW 1368   1.406   0.284   0.076  0.3922  0.5389  0.2187
  343SOL     OW 1369   0.202   0.304   2.279 -0.5814 -0.4039  0.4816
  343SOL    HW1 1370   0.233   0.247   2.347  2.3683 -0.5380  0.4492
  343SOL    HW2 1371   0.142   0.262   2.214  0.4931 -0.8490 -0.4394
  343SOL     MW 1372   0.198   0.291   2.280 -0.0504 -0.4803  0.3558
  344SOL     OW 1373   1.682   2.171   0.098 -0.0001 -0.4562  0.0604
  344SOL    HW1 1374   1.723   2.224   0.033  0.3495  2.9849 -0.3759
  344SOL    HW2 1375   1.656   2.088   0.048 -1.0533 -2.4911  0.6631
  344SOL     MW 1376   1.684   2.167   0.083 -0.0929 -0.2707  0.0823
  345SOL     OW 1377   0.671   1.588   2.363 -0.0467  0.1732 -0.2184
  345SOL    HW1 1378   0.584   1.594   2.320  0.9659  1.6505  1.1432
  345SOL    HW2 1379   0.734   1.539   2.300  1.0437 -1.1374  0.7018
  345SOL     MW 1380   0.668   1.583   2.349  0.2308  0.1952  0.0826
  346SOL     OW 1381   1.688   1.026   0.003 -0.1490 -0.1227  0.0617
  346SOL    HW1 1382   1.778   1.029   0.029 -1.1186  0.9224 -1.3891
  346SOL    HW2 1383   1.635   0.977   0.062  0.4490 -2.2700 -1.4496
  346SOL     MW 1384   1.693   1.020   0.014 -0.1980 -0.2681 -0.3291
  347SOL     OW 1385   1.171   0.659   2.343 -0.6163  0.3956 -0.1371
  347SOL    HW1 1386   1.267   0.651   2.374  1.3578  0.3015  1.1596
  347SOL    HW2 1387   1.129   0.717   2.405 -0.7329 -2.5215 -1.9928
  347SOL     MW 1388   1.178   0.665   2.356 -0.3712 -0.0017 -0.2109
  348SOL     OW 1389   1.321   2.666   1.887  0.5953 -0.5230  0.1541
  348SOL    HW1 1390   1.363   2.587   1.915  0.6638  1.6862 -1.7435
  348SOL    HW2 1391   1.373   2.728   1.939  2.3076  1.7020 -0.9670
  348SOL     MW 1392   1.333   2.664   1.897  0.8303  0.0620 -0.2442
  349SOL     OW 1393   1.340   0.203   2.685  0.2281 -0.5037 -0.0035
  349SOL    HW1 1394   1.316   0.248   2.765  1.5332 -0.5149  0.9831
  349SOL    HW2 1395   1.433   0.178   2.701  2.4121  0.5862 -2.6240
  349SOL     MW 1396   1.349   0.206   2.697  0.6885 -0.3614 -0.2191
  350SOL     OW 1397   1.893   0.647   2.642 -0.5283 -0.4647  0.0704
  350SOL    HW1 1398   1.857   0.571   2.595 -0.3769 -0.0582 -2.5542
  350SOL    HW2 1399   1.975   0.612   2.685  0.9479  1.0579  1.9827
  350SOL     MW 1400   1.899   0.632   2.642 -0.3136 -0.2102 -0.0236
  351SOL     OW 1401   0.040   0.965   1.568 -0.5834 -0.4840  0.1754
  351SOL    HW1 1402  -0.037   0.998   1.614  0.7897  0.5486 -0.2028
  351SOL    HW2 1403   0.094   1.041   1.554 -2.4909  0.2773  1.2988
  351SOL     MW 1404   0.037   0.979   1.572 -0.6539 -0.2473  0.2737
  352SOL     OW 1405   0.811   1.563   2.715 -0.3515 -0.2417 -0.0210
  352SOL    HW1 1406   0.855   1.517   2.781 -2.4433  1.7228  0.3266
  352SOL    HW2 1407   0.746   1.499   2.675 -0.5014 -0.7086 -0.9453
  352SOL     MW 1408   0.808   1.548   2.719 -0.6473 -0.0441 -0.0971
  353SOL     OW 1409   3.081   2.429   2.768 -0.1444 -0.0176 -0.4954
  353SOL    HW1 1410   3.173   2.425   2.744 -2.7016  0.2918  0.0765
  353SOL    HW2 1411   3.042   2.507   2.736 -2.6426 -0.8542  2.5895
  353SOL     MW 1412   3.088   2.439   2.761 -0.8114 -0.0871 -0.0129
  354SOL     OW 1413   0.354   2.460   0.900  0.4683 -0.3060  0.2463
  354SOL    HW1 1414   0.397   2.413   0.980  1.0031  1.0169 -0.7587
  354SOL    HW2 1415   0.280   2.402   0.875  0.3979 -0.9084 -0.8754
  354SOL     MW 1416   0.350   2.446   0.907  0.5296 -0.2109 -0.0343
  355SOL     OW 1417   0.084   2.262   0.371  0.1085 -0.2161 -0.2490
  355SOL    HW1 1418   0.017   2.192   0.378  0.7300 -2.6644 -1.5077
  355SOL    HW2 1419   0.079   2.302   0.457 -0.2131  0.7724  0.1435
  355SOL     MW 1420   0.075   2.258   0.383  0.1481 -0.4087 -0.3633
  356SOL     OW 1421   0.706   2.937   0.977  0.0294  0.1541  0.0873
  356SOL    HW1 1422   0.793   2.911   0.948 -1.0696 -0.5486  1.4691
  356SOL    HW2 1423   0.647   2.865   0.939  1.8396  0.1862 -0.0022
  356SOL     MW 1424   0.710   2.924   0.968  0.1232  0.0656  0.2578
  357SOL     OW 1425   1.780   2.972   0.369 -0.3672  0.0186  0.2062
  357SOL    HW1 1426   1.754   2.915   0.443 -0.1606 -4.1559 -0.0292
  357SOL    HW2 1427   1.869   2.929   0.350  0.3149  0.3370 -1.2200
  357SOL     MW 1428   1.789   2.959   0.376 -0.2500 -0.4902 -0.0130
  358SOL     OW 1429   0.495   0.147   1.043 -1.0780  0.2943  0.4604
  358SOL    HW1 1430   0.580   0.133   0.993  1.7119 -0.6424 -0.5263
  358SOL    HW2 1431   0.428   0.167   0.977 -1.4615 -0.3833  0.6297
  358SOL     MW 1432   0.497   0.148   1.028 -0.7605  0.0813  0.3525
  359SOL     OW 1433   0.893   2.733   1.916 -0.6146  0.4381 -0.0343
  359SOL    HW1 1434   0.870   2.658   1.972  1.6653  1.4180 -4.2277
  359SOL    HW2 1435   0.951   2.691   1.848  1.3404  0.0340  0.9387
  359SOL     MW 1436   0.897   2.717   1.914 -0.0558  0.5140 -0.4592
  360SOL     OW 1437   0.528   2.729   0.921  0.6756  0.2204  0.0803
  360SOL    HW1 1438   0.514   2.659   0.859 -0.5557  1.9210  1.2693
  360SOL    HW2 1439   0.554   2.678   1.000  0.5761  0.0534 -2.2861
  360SOL     MW 1440   0.529   2.713   0.923  0.5000  0.4228 -0.0750
  361SOL     OW 1441   0.178   2.746   1.376 -0.0084  0.2225 -0.1094
  361SOL    HW1 1442   0.154   2.820   1.420  2.7421 -3.4209 -0.5800
  361SOL    HW2 1443   0.270   2.754   1.371 -0.4824  0.1604  0.8672
  361SOL     MW 1444   0.187   2.757   1.381  0.2920 -0.2664 -0.0427
  362SOL     OW 1445   1.490   2.407   0.615  0.3636 -0.0219 -0.2705
  362SOL    HW1 1446   1.489   2.324   0.660  1.1001  0.4984 -1.4871
  362SOL    HW2 1447   1.492   2.480   0.676  1.4673  2.0903 -1.3642
  362SOL     MW 1448   1.490   2.405   0.629  0.6064  0.3255 -0.5753
  363SOL     OW 1449   0.277   3.063   0.683 -0.3014 -0.2440  0.4693
  363SOL    HW1 1450   0.282   3.003   0.752 -2.4570 -1.8195  1.1948
  363SOL    HW2 1451   0.184   3.068   0.673 -2.3127  0.6511 -1.1751
  363SOL     MW 1452   0.266   3.056   0.691 -0.8512 -0.3338  0.3481
  364SOL     OW 1453   0.745   0.157   0.235  0.2670  0.1577 -0.2697
  364SOL    HW1 1454   0.715   0.066   0.236  1.0102  1.2106 -1.5738
  364SOL    HW2 1455   0.674   0.208   0.193 -1.9257 -0.0137 -2.1352
  364SOL     MW 1456   0.732   0.152   0.230  0.0758  0.2740 -0.6879
  365SOL     OW 1457   1.032   1.981   1.138 -0.0164 -0.2356  0.4964
  365SOL    HW1 1458   0.996   2.057   1.087  1.0011  1.2048 -0.7046
  365SOL    HW2 1459   0.969   1.923   1.104  1.7206  1.4377 -0.2271
  365SOL     MW 1460   1.019   1.984   1.127  0.3470  0.1752  0.2425
  366SOL     OW 1461   2.872   2.635   1.000 -0.0945 -0.0825  0.2870
  366SOL    HW1 1462   2.938   2.665   1.057 -0.0406  2.1289  0.4558
  366SOL    HW2 1463   2.893   2.678   0.914 -0.4896  1.3232 -0.6548
  366SOL     MW 1464   2.883   2.645   0.996 -0.1395  0.3947  0.1850
  367SOL     OW 1465   1.279   2.949   0.864  0.0976 -0.1425  0.2603
  367SOL    HW1 1466   1.194   2.983   0.876  3.0029 -0.2161 -1.0267
  367SOL    HW2 1467   1.277   2.906   0.785  0.5304  0.8197 -0.4568
  367SOL     MW 1468   1.267   2.948   0.855  0.5381 -0.0253 -0.0041
  368SOL     OW 1469   1.706   0.442   0.662 -0.0110  0.0311  0.1277
  368SOL    HW1 1470   1.790   0.391   0.659  1.2381 -0.3936  1.6026
  368SOL    HW2 1471   1.735   0.536   0.667 -0.2033 -3.8377  2.1802
  368SOL     MW 1472   1.721   0.448   0.663  0.1284 -0.5354  0.5931
  369SOL     OW 1473   0.151   2.461   1.741 -0.6136  0.2005  0.0761
  369SOL    HW1 1474   0.237   2.428   1.773  0.2736  1.1937  0.7844
  369SOL    HW2 1475   0.129   2.537   1.790  1.0576 -1.9264 -2.5099
  369SOL     MW 1476   0.159   2.467   1.752 -0.2760  0.0509 -0.1717
  370SOL     OW 1477   0.703   0.093   0.867 -0.3872  0.0372  0.0785
  370SOL    HW1 1478   0.771   0.153   0.901 -0.2018  1.2750  0.2756
  370SOL    HW2 1479   0.701   0.010   0.925  0.2361  0.1047 -2.3205
  370SOL     MW 1480   0.712   0.090   0.879 -0.2805  0.2094 -0.2120
  371SOL     OW 1481   1.369   2.994   1.493 -0.1336 -0.0658  0.7067
  371SOL    HW1 1482   1.310   2.916   1.481 -5.0634 -0.0473  0.6359
  371SOL    HW2 1483   1.348   3.049   1.422 -2.7999  1.0202  1.8772
  371SOL     MW 1484   1.358   2.991   1.482 -1.1358  0.0799  0.8518
  372SOL     OW 1485   0.776   2.285   0.469 -0.0986 -0.3769  0.0804
  372SOL    HW1 1486   0.750   2.201   0.508  1.6350 -3.0439  1.1143
  372SOL    HW2 1487   0.807   2.271   0.382  3.1542 -1.4761  1.7530
  372SOL     MW 1488   0.777   2.272   0.463  0.5593 -0.8738  0.4375
  373SOL     OW 1489   2.786   2.984   1.390 -0.0213 -0.2150  0.3830
  373SOL    HW1 1490   2.853   2.964   1.321  0.2781 -1.6375 -1.0130
  373SOL    HW2 1491   2.757   3.070   1.363 -0.5161 -0.9232  1.1265
  373SOL     MW 1492   2.791   2.993   1.377 -0.0471 -0.4961  0.2969
  374SOL     OW 1493   1.475   0.514   0.239 -0.0979  0.3559 -0.0020
  374SOL    HW1 1494   1.556   0.540   0.188 -1.5509 -1.0286 -2.0302
  374SOL    HW2 1495   1.513   0.464   0.311  1.1927 -0.8031  1.9451
  374SOL     MW 1496   1.491   0.511   0.242 -0.1193  0.0203 -0.0127
  375SOL     OW 1497   1.121   2.113   2.258 -0.1975 -0.2529  0.1844
  375SOL    HW1 1498   1.150   2.142   2.344  0.2213 -0.5855  0.5315
  375SOL    HW2 1499   1.108   2.014   2.246  1.2262 -1.9644 -2.5099
  375SOL     MW 1500   1.123   2.104   2.268  0.0456 -0.5226 -0.1253
  376SOL     OW 1501   0.688   2.543   0.156  0.4548 -0.3962 -0.2262
  376SOL    HW1 1502   0.752   2.487   0.205  0.4746 -4.3461  1.0255
  376SOL    HW2 1503   0.631   2.473   0.117 -1.0821 -0.0462 -0.0942
  376SOL     MW 1504   0.689   2.526   0.157  0.2546 -0.8711 -0.0437
  377SOL     OW 1505   1.312   2.099   0.903 -0.0133  0.1123 -0.2207
  377SOL    HW1 1506   1.247   2.048   0.853  0.4852  0.2367  2.6097
  377SOL    HW2 1507   1.322   2.042   0.985 -2.1125 -0.0680  2.9341
  377SOL     MW 1508   1.305   2.085   0.908 -0.2245  0.1049  0.5690
  378SOL     OW 1509   0.977   2.831   1.501 -0.5752 -0.4135 -0.1181
  378SOL    HW1 1510   0.943   2.743   1.525 -1.7729  0.1912  1.3484
  378SOL    HW2 1511   0.944   2.852   1.415  1.8417  1.1249  0.5970
  378SOL     MW 1512   0.968   2.822   1.493 -0.4144 -0.1308  0.1697
  379SOL     OW 1513   1.036   1.832   2.285 -0.1505  0.0713  0.7179
  379SOL    HW1 1514   0.946   1.825   2.311 -0.9208  1.0994 -1.5426
  379SOL    HW2 1515   1.052   1.746   2.250 -0.4511  3.1389 -0.0800
  379SOL     MW 1516   1.026   1.820   2.284 -0.2918  0.6117  0.3144
  380SOL     OW 1517   0.912   0.237   1.521 -0.0918  0.2474  0.9515
  380SOL    HW1 1518   0.919   0.176   1.448 -0.2233 -2.5362 -1.5966
  380SOL    HW2 1519   0.984   0.215   1.580 -0.1650 -0.5523  1.4476
  380SOL     MW 1520   0.922   0.226   1.519 -0.1188 -0.2254  0.6807
  381SOL     OW 1521   0.834   2.014   0.820  0.2834  0.4087  0.5368
  381SOL    HW1 1522   0.922   1.998   0.783 -2.3944 -0.7693  1.3378
  381SOL    HW2 1523   0.846   2.106   0.859  0.7440  1.6347  1.0285
  381SOL     MW 1524   0.847   2.024   0.820 -0.0091  0.4151  0.7074
  382SOL     OW 1525   0.673   0.019   0.597  0.5174  0.0699 -0.0030
  382SOL    HW1 1526   0.666   0.036   0.688  0.8996 -1.5002  0.4381
  382SOL    HW2 1527   0.673  -0.079   0.589 -3.6633 -0.0975  0.2882
  382SOL     MW 1528   0.672   0.008   0.608  0.0162 -0.1594  0.0936
  383SOL     OW 1529   0.504   0.020   0.359 -0.8657 -1.0552  0.5354
  383SOL    HW1 1530   0.524  -0.037   0.435 -2.6242 -1.0028 -0.9832
  383SOL    HW2 1531   0.415   0.007   0.345  3.2507  1.9731 -2.2042
  383SOL     MW 1532   0.495   0.011   0.367 -0.5546 -0.6487 -0.0265
  384SOL     OW 1533   0.634   2.858   0.582  0.1961  0.2123  0.4142
  384SOL    HW1 1534   0.620   2.773   0.629 -0.0159 -0.8129 -0.0318
  384SOL    HW2 1535   0.540   2.875   0.546  0.5296 -0.5987 -0.2526
  384SOL     MW 1536   0.620   2.849   0.583  0.2122 -0.0300  0.2674
  385SOL     OW 1537   1.325   2.035   1.533 -0.3394 -0.2601  0.2187
  385SOL    HW1 1538   1.400   2.062   1.588 -0.5711  0.7870 -2.1595
  385SOL    HW2 1539   1.291   1.953   1.568 -1.3196  2.1555 -1.3466
  385SOL     MW 1540   1.331   2.028   1.545 -0.4993  0.1968 -0.3016
  386SOL     OW 1541   1.302   0.438   0.931  0.8632 -0.0614 -0.4724
  386SOL    HW1 1542   1.224   0.423   0.885  0.9749 -0.9851  0.1416
  386SOL    HW2 1543   1.276   0.427   1.022  1.1507  0.0621 -0.3950
  386SOL     MW 1544   1.288   0.435   0.937  0.9159 -0.1670 -0.3812
  387SOL     OW 1545   0.865   2.201   1.433  0.5137 -0.0412  0.1513
  387SOL    HW1 1546   0.945   2.244   1.384  1.1297 -1.3287  0.2290
  387SOL    HW2 1547   0.881   2.107   1.438  1.0993 -1.9011 -0.1336
  387SOL     MW 1548   0.878   2.194   1.427  0.6722 -0.4565  0.1240
  388SOL     OW 1549   1.585   2.861   1.224  0.0687  0.0632 -0.1904
  388SOL    HW1 1550   1.505   2.810   1.194 -0.3296 -0.2032  0.5933
  388SOL    HW2 1551   1.656   2.822   1.165  0.7059 -1.4716 -1.7163
  388SOL     MW 1552   1.584   2.849   1.212  0.1002 -0.1744 -0.2883
  389SOL     OW 1553   0.441   0.092   3.075 -0.3104  0.8864 -0.0776
  389SOL    HW1 1554   0.531   0.055   3.067 -0.6084  0.2969  0.0997
  389SOL    HW2 1555   0.380   0.015   3.093 -0.5492 -1.0671  2.3691
  389SOL     MW 1556   0.445   0.077   3.076 -0.3812  0.5509  0.2686
  390SOL     OW 1557   1.375   0.076   0.645  0.3680 -0.8051 -0.4903
  390SOL    HW1 1558   1.462   0.064   0.607  2.0437  0.0161  0.3804
  390SOL    HW2 1559   1.388   0.105   0.736 -0.3363 -1.8840 -0.0183
  390SOL     MW 1560   1.389   0.078   0.652  0.4962 -0.8391 -0.3132
  391SOL     OW 1561   0.273   2.299   1.428 -0.8499  0.7192 -0.2878
  391SOL    HW1 1562   0.235   2.218   1.468  1.2199  0.2693  0.1029
  391SOL    HW2 1563   0.204   2.369   1.442  4.7070  0.6412 -0.6303
  391SOL     MW 1564   0.259   2.298   1.435  0.1563  0.6495 -0.2814
  392SOL     OW 1565   2.002   2.171   0.281 -0.4999  0.1894  0.0281
  392SOL    HW1 1566   1.943   2.234   0.316  0.5947 -0.8658  1.5240
  392SOL    HW2 1567   2.030   2.126   0.365 -2.4273 -0.3056  3.6815
  392SOL     MW 1568   1.998   2.173   0.297 -0.6098 -0.0152  0.7075
  393SOL     OW 1569   0.219   2.997   2.951  0.0966  0.2905  0.1059
  393SOL    HW1 1570   0.277   3.044   2.893 -1.0339  0.2913  3.6747
  393SOL    HW2 1571   0.133   3.008   2.915  2.0773 -3.5207  0.8841
  393SOL     MW 1572   0.215   3.005   2.938  0.2088 -0.2122  0.6794
  394SOL     OW 1573   0.811   1.667   1.457 -0.0074 -0.1831 -0.7080
  394SOL    HW1 1574   0.740   1.679   1.528 -1.8299 -0.6821  0.5263
  394SOL    HW2 1575   0.823   1.749   1.424  2.2139 -1.5304 -2.3181
  394SOL     MW 1576   0.803   1.680   1.462  0.0452 -0.4267 -0.7576
  395SOL     OW 1577   0.915   2.846   2.611 -0.0133  0.1645 -0.1281
  395SOL    HW1 1578   0.972   2.905   2.668  2.0728  0.1022  0.7808
  395SOL    HW2 1579   0.992   2.803   2.560 -1.3776 -1.3838 -0.2945
  395SOL     MW 1580   0.933   2.848   2.612  0.0820 -0.0480 -0.0302
  396SOL     OW 1581   0.746   1.845   2.363  0.2517  0.4418 -0.4464
  396SOL    HW1 1582   0.782   1.840   2.453 -1.1138  1.7451  2.1458
  396SOL    HW2 1583   0.716   1.751   2.362  1.6757  1.2697  1.2881
  396SOL     MW 1584   0.747   1.832   2.375  0.2594  0.7230  0.1245
  397SOL     OW 1585   1.043   2.343   1.292 -0.1984  0.0065  0.5460
  397SOL    HW1 1586   1.058   2.373   1.200  1.5149  1.4530 -1.9909
  397SOL    HW2 1587   1.101   2.390   1.350 -1.2726 -0.7683 -1.5271
  397SOL     MW 1588   1.053   2.353   1.287 -0.1141  0.0951 -0.0622
  398SOL     OW 1589   0.574   2.603   0.678 -0.2348 -0.0268 -0.0923
  398SOL    HW1 1590   0.500   2.604   0.623  0.0953 -1.5670 -1.5182
  398SOL    HW2 1591   0.649   2.568   0.622 -0.5844  0.6308 -2.1862
  398SOL     MW 1592   0.574   2.599   0.663 -0.2373 -0.1432 -0.5567
  399SOL     OW 1593   0.258   2.041   0.348  0.0547  0.2551 -0.1179
  399SOL    HW1 1594   0.214   2.121   0.355 -1.2676  0.0192 -1.7589
  399SOL    HW2 1595   0.324   2.058   0.285  0.6690 -0.9731 -2.4293
  399SOL     MW 1596   0.261   2.054   0.341 -0.0387  0.0619 -0.6394
  400SOL     OW 1597   0.598   1.834   0.206  0.4859  0.2843  0.0494
  400SOL    HW1 1598   0.562   1.925   0.192  3.1411  0.5931 -0.4593
  400SOL    HW2 1599   0.540   1.787   0.267 -0.0564 -0.6257  0.3211
  400SOL     MW 1600   0.586   1.840   0.212  0.7647  0.2050  0.0182
  401SOL     OW 1601   1.011   2.102   0.070 -0.0064 -0.0576 -0.5948
  401SOL    HW1 1602   1.018   2.015   0.102  0.8101  0.8269 -2.6361
  401SOL    HW2 1603   1.043   2.149   0.146  0.2234 -1.1687  2.7717
  401SOL     MW 1604   1.016   2.097   0.084  0.1317 -0.0875 -0.4200
  402SOL     OW 1605   0.682   2.720   1.731  0.5489  1.0061  0.2179
  402SOL    HW1 1606   0.609   2.722   1.788  1.3126 -3.4849 -0.2988
  402SOL    HW2 1607   0.754   2.740   1.789 -2.0406  1.0650  0.2943
  402SOL     MW 1608   0.682   2.723   1.746  0.3080  0.4214  0.1598
  403SOL     OW 1609   0.079   0.575   0.351  0.1322 -0.2203 -0.2961
  403SOL    HW1 1610   0.131   0.556   0.430 -0.3582 -2.4208 -1.1485
  403SOL    HW2 1611   0.125   0.530   0.288  1.2475  2.5498  1.1019
  403SOL     MW 1612   0.092   0.566   0.353  0.2146 -0.1451 -0.2241
  404SOL     OW 1613   0.979   2.907   0.878 -0.0088  0.0819 -0.1466
  404SOL    HW1 1614   1.030   2.839   0.837 -0.6454 -2.0946 -1.8548
  404SOL    HW2 1615   0.962   2.974   0.809  0.7348 -1.7898 -0.4797
  404SOL     MW 1616   0.983   2.907   0.863  0.0053 -0.4522 -0.4159
  405SOL     OW 1617   0.452   2.457   1.582  0.1695  0.1884 -0.3747
  405SOL    HW1 1618   0.468   2.524   1.522 -1.3919 -3.7694  1.9105
  405SOL    HW2 1619   0.399   2.395   1.529 -0.2983 -0.3927 -1.8478
  405SOL     MW 1620   0.447   2.458   1.567 -0.0982 -0.4104 -0.2675
  406SOL     OW 1621   0.398   2.408   1.161 -0.1152 -0.0426  0.1424
  406SOL    HW1 1622   0.305   2.395   1.185  0.6134  1.7637 -0.4044
  406SOL    HW2 1623   0.447   2.337   1.198 -0.6970  1.5732 -0.8581
  406SOL     MW 1624   0.392   2.397   1.169 -0.0958  0.4089 -0.0618
  407SOL     OW 1625   3.090   2.705   1.177  0.6431 -0.7657  0.2507
  407SOL    HW1 1626   3.139   2.707   1.261 -1.2517  1.7876 -1.0994
  407SOL    HW2 1627   3.158   2.679   1.119 -1.1233  1.2037  0.4075
  407SOL     MW 1628   3.106   2.702   1.181  0.1601 -0.1690  0.0933
  408SOL     OW 1629   2.075   2.069   0.542  0.4592  0.1935 -0.2727
  408SOL    HW1 1630   2.059   2.123   0.619 -0.1138  3.3925  0.6355
  408SOL    HW2 1631   1.990   2.014   0.537 -2.6307 -0.3282 -2.0572
  408SOL     MW 1632   2.062   2.069   0.551 -0.0241  0.5467 -0.3883
  409SOL     OW 1633   1.415   0.166   0.902 -0.5241  0.5012 -0.2106
  409SOL    HW1 1634   1.401   0.264   0.901 -0.2573  0.0446 -0.1255
  409SOL    HW2 1635   1.504   0.138   0.915 -2.1139  0.4746  1.3890
  409SOL     MW 1636   1.425   0.175   0.904 -0.6987  0.4375  0.0117
  410SOL     OW 1637   1.073   2.507   1.053 -0.3560 -0.1518  0.3626
  410SOL    HW1 1638   0.997   2.515   0.997  1.6129 -1.0237  2.5565
  410SOL    HW2 1639   1.148   2.455   1.020  2.6059  2.7895  0.1021
  410SOL     MW 1640   1.073   2.501   1.041  0.2946  0.1212  0.6177
  411SOL     OW 1641   1.955   0.101   2.877  0.4127  0.1590  0.3256
  411SOL    HW1 1642   1.917   0.071   2.793 -1.3626  0.6306  2.0350
  411SOL    HW2 1643   1.876   0.104   2.928 -0.2602 -0.1078 -1.9328
  411SOL     MW 1644   1.940   0.098   2.873  0.0897  0.1860  0.2532
  412SOL     OW 1645   1.033   2.212   0.564  0.1701 -0.3386 -0.1249
  412SOL    HW1 1646   1.092   2.293   0.582 -0.5893 -0.0951  0.2149
  412SOL    HW2 1647   0.947   2.258   0.539 -0.8010 -2.3317  0.8716
  412SOL     MW 1648   1.029   2.229   0.563 -0.0582 -0.5694  0.0514
  413SOL     OW 1649   0.532   2.772   0.114 -1.0183 -0.0182  0.1492
  413SOL    HW1 1650   0.593   2.698   0.119  2.9550  1.1616  1.0782
  413SOL    HW2 1651   0.543   2.796   0.020  1.4349 -1.7870  1.8974
  413SOL     MW 1652   0.541   2.766   0.103 -0.1704 -0.0959  0.5024
  414SOL     OW 1653   1.996   3.019   1.014 -0.2885 -0.0393  0.1128
  414SOL    HW1 1654   1.927   2.989   0.960  2.8341 -0.1309 -0.4597
  414SOL    HW2 1655   2.067   2.975   0.974 -0.9658  0.2426  2.9492
  414SOL     MW 1656   1.996   3.009   1.002  0.0341 -0.0142  0.4115
  415SOL     OW 1657   1.744   2.689   1.099  0.3033  0.5901 -0.6413
  415SOL    HW1 1658   1.700   2.629   1.158 -0.1561 -0.7307  1.3274
  415SOL    HW2 1659   1.838   2.699   1.135  1.9004  0.1722 -0.5291
  415SOL     MW 1660   1.751   2.683   1.112  0.4534  0.3607 -0.3667
  416SOL     OW 1661   0.568   1.949   1.379  0.0990  0.2382 -0.0486
  416SOL    HW1 1662   0.559   2.045   1.365  0.5349 -0.4777  3.3758
  416SOL    HW2 1663   0.559   1.904   1.291  2.0932  0.2190 -1.4329
  416SOL     MW 1664   0.566   1.956   1.365  0.4196  0.1412  0.2206
  417SOL     OW 1665   1.086   2.990   1.987  0.2304 -0.1753 -0.5998
  417SOL    HW1 1666   1.021   3.001   2.057  1.8051 -0.5653 -0.4217
  417SOL    HW2 1667   1.037   2.934   1.926  1.6674  0.1632 -1.1547
  417SOL     MW 1668   1.071   2.984   1.988  0.6277 -0.1821 -0.6495
  418SOL     OW 1669   0.726   2.975   0.176  0.3329  1.0690  0.2032
  418SOL    HW1 1670   0.779   2.942   0.097  0.6855 -1.0588  0.6088
  418SOL    HW2 1671   0.642   2.928   0.180  1.4690 -3.1536  0.6944
  418SOL     MW 1672   0.722   2.964   0.166  0.5293  0.2311  0.3215
  419SOL     OW 1673   0.465   2.676   1.407  0.0704  0.1664  0.0011
  419SOL    HW1 1674   0.520   2.753   1.433  2.7997  0.7466  0.7197
  419SOL    HW2 1675   0.484   2.658   1.316 -1.6827 -0.9809  0.1810
  419SOL     MW 1676   0.475   2.684   1.398  0.1992  0.0916  0.1197
  420SOL     OW 1677   0.902   2.220   1.000 -0.1848 -0.2633  0.0579
  420SOL    HW1 1678   0.841   2.217   1.077 -0.6930  3.4272  3.1565
  420SOL    HW2 1679   0.918   2.316   0.991 -0.6688  0.4623  1.4961
  420SOL     MW 1680   0.896   2.232   1.009 -0.3157  0.3193  0.6565
  421SOL     OW 1681   2.948   0.100   0.059  0.5004  0.1853 -0.4525
  421SOL    HW1 1682   2.899   0.061  -0.016 -1.7565 -3.2203 -1.4017
  421SOL    HW2 1683   2.972   0.023   0.107  0.5083  2.3230 -2.3231
  421SOL     MW 1684   2.945   0.085   0.056  0.2037  0.0180 -0.8245
  422SOL     OW 1685   0.852   2.495   0.881  0.6290 -0.3092 -0.1479
  422SOL    HW1 1686   0.775   2.540   0.918 -0.6400 -0.6140 -0.6841
  422SOL    HW2 1687   0.846   2.513   0.778 -0.0014 -1.1108 -0.7078
  422SOL     MW 1688   0.841   2.503   0.873  0.3784 -0.4552 -0.2925
  423SOL     OW 1689   1.619   0.096   0.526  0.0094  0.1723 -0.4071
  423SOL    HW1 1690   1.595   0.042   0.450 -1.6114  0.0542 -0.0948
  423SOL    HW2 1691   1.601   0.185   0.501 -0.3665 -0.5654  1.8280
  423SOL     MW 1692   1.613   0.101   0.513 -0.2540  0.0594 -0.0710
  424SOL     OW 1693   0.749   2.182   1.208 -0.2573  0.2561  0.5376
  424SOL    HW1 1694   0.668   2.225   1.231  1.9259 -1.8319 -1.4006
  424SOL    HW2 1695   0.805   2.196   1.288  0.0393 -2.7777 -1.2296
  424SOL     MW 1696   0.745   2.189   1.222  0.0699 -0.4197  0.0487
  425SOL     OW 1697   1.749   2.787   2.068 -0.0020 -0.3169 -0.1067
  425SOL    HW1 1698   1.754   2.798   1.972  0.7884 -2.0072 -0.4941
  425SOL    HW2 1699   1.754   2.691   2.091  2.7537  0.7573  2.1703
  425SOL     MW 1700   1.750   2.776   2.058  0.4659 -0.3982  0.1426
  426SOL     OW 1701   0.773   1.614   1.913 -0.2851 -0.7101 -0.2846
  426SOL    HW1 1702   0.708   1.632   1.841 -0.1170 -3.6998  1.5442
  426SOL    HW2 1703   0.745   1.681   1.979  0.8759 -0.0234  1.6354
  426SOL     MW 1704   0.761   1.625   1.912 -0.1098 -1.0139  0.2100
  427SOL     OW 1705   0.411   1.528   1.846  0.1743 -0.3204 -0.2072
  427SOL    HW1 1706   0.413   1.442   1.812 -2.8071 -1.1737 -3.6227
  427SOL    HW2 1707   0.321   1.534   1.877  0.7562  0.5319  1.8916
  427SOL     MW 1708   0.400   1.518   1.845 -0.1423 -0.3205 -0.3809
  428SOL     OW 1709   0.589   2.620   1.156 -0.4568  0.4424 -0.3553
  428SOL    HW1 1710   0.663   2.611   1.221 -0.5357  1.8695  1.7360
  428SOL    HW2 1711   0.532   2.538   1.170  1.7236 -0.1414 -2.2161
  428SOL     MW 1712   0.591   2.608   1.166 -0.1795  0.5536 -0.3249
  429SOL     OW 1713   1.357   2.759   1.040 -0.2704 -1.0417 -0.0093
  429SOL    HW1 1714   1.275   2.721   1.080  0.0303 -1.0146  0.1261
  429SOL    HW2 1715   1.338   2.828   0.975 -1.7641  0.6297  0.3317
  429SOL     MW 1716   1.343   2.763   1.037 -0.4278 -0.8176  0.0536
  430SOL     OW 1717   1.142   2.727   0.686  0.0840  0.3223  0.2315
  430SOL    HW1 1718   1.162   2.633   0.673  1.8099  0.0337 -2.4049
  430SOL    HW2 1719   1.097   2.749   0.603  2.4328  0.9658 -3.4320
  430SOL     MW 1720   1.139   2.718   0.673  0.6216  0.3691 -0.5997
  431SOL     OW 1721   0.394   2.004   1.142 -0.1128 -0.3858 -0.0127
  431SOL    HW1 1722   0.459   1.934   1.119 -1.6026  1.0824  3.3378
  431SOL    HW2 1723   0.361   2.041   1.065 -0.5444 -1.4487  1.0198
  431SOL     MW 1724   0.398   2.000   1.129 -0.3663 -0.3323  0.5656
  432SOL     OW 1725   0.101   0.043   1.151  0.0361  0.4465 -0.4237
  432SOL    HW1 1726   0.118   0.077   1.243  2.0537  0.7466  3.1429
  432SOL    HW2 1727   0.018  -0.009   1.147  0.1372  0.5335  0.4951
  432SOL     MW 1728   0.092   0.040   1.162  0.3156  0.4976  0.1681
  433SOL     OW 1729   0.662   2.882   1.450 -0.1187 -0.2855 -0.0414
  433SOL    HW1 1730   0.718   2.856   1.529 -2.6001 -2.3197 -0.5945
  433SOL    HW2 1731   0.720   2.892   1.373 -1.7248 -0.0168 -0.7694
  433SOL     MW 1732   0.677   2.880   1.451 -0.6580 -0.5184 -0.2104
  434SOL     OW 1733   1.602   2.852   1.512 -0.4547 -0.0167 -0.5163
  434SOL    HW1 1734   1.516   2.891   1.499 -0.0686  0.2144 -0.8525
  434SOL    HW2 1735   1.620   2.833   1.423  0.2437  0.6381  1.6684
  434SOL     MW 1736   1.593   2.855   1.498 -0.3116  0.1002 -0.2724
  435SOL     OW 1737   2.843   1.799   0.243 -0.2542 -0.3227 -0.5074
  435SOL    HW1 1738   2.906   1.854   0.197  1.5143  0.7041  0.9091
  435SOL    HW2 1739   2.827   1.731   0.181  1.1601 -0.3613  1.0510
  435SOL     MW 1740   2.849   1.797   0.229  0.1657 -0.1923 -0.1149
  436SOL     OW 1741   1.484   2.804   0.320  0.2991 -0.1985  0.0648
  436SOL    HW1 1742   1.554   2.779   0.389  0.0633  0.0591 -0.6063
  436SOL    HW2 1743   1.442   2.880   0.362 -0.9033 -0.3464  0.4192
  436SOL     MW 1744   1.488   2.810   0.334  0.1094 -0.1840  0.0230
  437SOL     OW 1745   0.829   2.938   1.241 -0.2469  0.3212  0.2286
  437SOL    HW1 1746   0.868   3.022   1.238  1.2471 -0.9876  0.1567
  437SOL    HW2 1747   0.771   2.949   1.161 -0.9558 -0.7358 -2.0362
  437SOL     MW 1748   0.827   2.950   1.230 -0.1433  0.0090 -0.0797
  438SOL     OW 1749   0.813   2.519   2.067  0.4056  0.3408 -0.2743
  438SOL    HW1 1750   0.809   2.479   2.155  0.8885  3.0900 -2.4880
  438SOL    HW2 1751   0.732   2.482   2.027  0.4586  1.4858  1.9120
  438SOL     MW 1752   0.802   2.509   2.073  0.4763  0.8546 -0.2779
  439SOL     OW 1753   1.142   2.177   0.325  0.3698 -0.4582 -0.4818
  439SOL    HW1 1754   1.079   2.160   0.403  0.8269 -2.8131  0.4095
  439SOL    HW2 1755   1.139   2.274   0.308 -2.0313  1.5588 -0.3062
  439SOL     MW 1756   1.134   2.187   0.333  0.1133 -0.5028 -0.3410
  440SOL     OW 1757   1.608   3.042   2.994  0.0463  0.2822  0.1761
  440SOL    HW1 1758   1.599   2.997   3.076 -0.6799  0.8608 -2.8501
  440SOL    HW2 1759   1.666   2.984   2.946 -2.2279 -1.0194 -0.1471
  440SOL     MW 1760   1.615   3.028   2.999 -0.3496  0.1868 -0.2658
  441SOL     OW 1761   0.319   2.632   0.545 -0.6075 -0.2378  0.6403
  441SOL    HW1 1762   0.331   2.594   0.460 -0.8988  1.0472  2.9368
  441SOL    HW2 1763   0.340   2.727   0.532  1.1240  0.5314 -1.5468
  441SOL     MW 1764   0.323   2.639   0.532 -0.4175  0.0333  0.6547
  442SOL     OW 1765   3.100   2.355   0.645 -0.1473 -0.7553  0.6966
  442SOL    HW1 1766   3.098   2.452   0.635 -0.8256  2.0433  2.1501
  442SOL    HW2 1767   3.013   2.320   0.670  0.8207 -0.7247  2.6645
  442SOL     MW 1768   3.088   2.363   0.647 -0.1091 -0.3821  1.1480
  443SOL     OW 1769   1.410   1.732   1.907 -0.5520  0.4545 -0.9040
  443SOL    HW1 1770   1.371   1.761   1.829  3.4714  1.9720 -0.0513
  443SOL    HW2 1771   1.357   1.650   1.925  1.1293  2.2736  1.2708
  443SOL     MW 1772   1.398   1.725   1.899  0.2007  0.8947 -0.5046
  444SOL     OW 1773   0.864   2.602   1.575 -0.3632  0.2571  0.4321
  444SOL    HW1 1774   0.939   2.582   1.638  1.6906 -2.0788  2.3758
  444SOL    HW2 1775   0.788   2.642   1.632  1.9559 -3.6013  1.2251
  444SOL     MW 1776   0.864   2.605   1.591  0.2138 -0.5602  0.7932
  445SOL     OW 1777   0.972   0.092   1.275 -0.0734  0.6547  0.8874
  445SOL    HW1 1778   0.923   0.165   1.235 -1.2996 -0.9363 -1.5613
  445SOL    HW2 1779   1.046   0.097   1.213  2.3902  0.9639 -0.1184
  445SOL     MW 1780   0.976   0.102   1.261  0.0899  0.4856  0.4316
  446SOL     OW 1781   2.719   2.872   1.038 -0.0231  0.5139 -0.1520
  446SOL    HW1 1782   2.651   2.892   0.973  0.1984 -1.8065  1.5593
  446SOL    HW2 1783   2.756   2.783   1.015 -0.4454  2.4023  0.4975
  446SOL     MW 1784   2.715   2.863   1.026 -0.0496  0.4569  0.1595
  447SOL     OW 1785   3.024   2.033   1.690 -0.1865 -0.4088  0.1673
  447SOL    HW1 1786   3.090   1.971   1.730  1.3799  0.4233 -1.2275
  447SOL    HW2 1787   2.974   1.975   1.628  0.2761 -2.6834 -2.1600
  447SOL     MW 1788   3.026   2.017   1.687  0.0812 -0.5992 -0.3238
  448SOL     OW 1789   1.682   2.393   1.685 -0.0623 -0.1924  0.2308
  448SOL    HW1 1790   1.600   2.347   1.684  0.1416  0.2070 -0.2211
  448SOL    HW2 1791   1.661   2.485   1.657  0.4594 -1.5026  0.9509
  448SOL     MW 1792   1.669   2.399   1.681  0.0334 -0.3125  0.2662
  449SOL     OW 1793   0.843   2.887   0.407  0.1221 -0.3536  0.4590
  449SOL    HW1 1794   0.814   2.888   0.313  1.1434  1.4381  1.3248
  449SOL    HW2 1795   0.767   2.876   0.462 -1.4058 -0.4672 -1.3791
  449SOL     MW 1796   0.829   2.885   0.402  0.0553 -0.1322  0.3307
  450SOL     OW 1797   1.197   2.431   0.644  0.4774  0.0473  0.5556
  450SOL    HW1 1798   1.233   2.434   0.737  0.1389 -0.4633  3.3182
  450SOL    HW2 1799   1.269   2.416   0.582 -0.7311 -0.0502 -0.7061
  450SOL     MW 1800   1.211   2.430   0.648  0.2733 -0.0329  0.7536
  451SOL     OW 1801   0.633   1.957   1.655  0.1595  0.0690  0.0614
  451SOL    HW1 1802   0.703   2.016   1.677  3.9374 -1.7180 -1.1859
  451SOL    HW2 1803   0.620   1.954   1.555 -3.3280  2.8153 -0.7053
  451SOL     MW 1804   0.641   1.964   1.645  0.1978  0.1956 -0.2043
  452SOL     OW 1805   0.309   2.679   0.019 -0.2631  0.1624  0.6689
  452SOL    HW1 1806   0.389   2.717   0.057 -0.1300  1.7593  0.5907
  452SOL    HW2 1807   0.320   2.691  -0.073  0.7679  2.3550  0.6467
  452SOL     MW 1808   0.321   2.685   0.012 -0.1095  0.6624  0.6556
  453SOL     OW 1809   0.421   3.006   1.628  0.1599  0.3835 -0.3772
  453SOL    HW1 1810   0.492   3.054   1.592 -0.9883 -3.1482  0.9079
  453SOL    HW2 1811   0.348   3.012   1.565 -0.5203 -0.7038  0.8212
  453SOL     MW 1812   0.421   3.013   1.615 -0.0814 -0.2259 -0.0495
  454SOL     OW 1813   1.111   2.742   1.183 -0.7661 -0.3938  0.4048
  454SOL    HW1 1814   1.075   2.660   1.144 -1.9451 -0.5994 -0.2905
  454SOL    HW2 1815   1.036   2.803   1.196  0.3827  2.0269  1.5500
  454SOL     MW 1816   1.097   2.739   1.180 -0.7701 -0.1016  0.4642
  455SOL     OW 1817   1.643   2.937   0.152  0.1311 -0.1358  0.0942
  455SOL    HW1 1818   1.720   2.941   0.209 -0.6705 -1.1477 -1.7090
  455SOL    HW2 1819   1.587   2.881   0.206 -1.2597  0.2481  0.4626
  455SOL     MW 1820   1.646   2.930   0.167 -0.1581 -0.2187 -0.0951
  456SOL     OW 1821   2.877   0.301   1.386  0.5782 -0.3055 -0.2513
  456SOL    HW1 1822   2.818   0.234   1.343 -2.4767 -1.5740 -0.2149
  456SOL    HW2 1823   2.934   0.342   1.321  0.7241  0.8987  1.6019
  456SOL     MW 1824   2.877   0.298   1.372  0.1944 -0.3140 -0.0020
  457SOL     OW 1825   0.941   1.536   2.979  0.2234  0.0977  0.1763
  457SOL    HW1 1826   0.884   1.533   3.060  1.0226  0.3013  1.8640
  457SOL    HW2 1827   1.012   1.479   3.000 -2.9251  0.8344  0.6856
  457SOL     MW 1828   0.943   1.528   2.992 -0.0866  0.2218  0.4662
  458SOL     OW 1829   1.453   1.376   0.625  0.0271  0.3854  0.0006
  458SOL    HW1 1830   1.399   1.411   0.696  1.0868 -1.4908 -1.9223
  458SOL    HW2 1831   1.403   1.304   0.587 -1.7802  3.9379  1.4186
  458SOL     MW 1832   1.439   1.371   0.630 -0.0715  0.6065 -0.0660
  459SOL     OW 1833   1.604   0.111   0.223 -0.7773  0.1567  0.3664
  459SOL    HW1 1834   1.583   0.021   0.225 -1.7679  2.2949  1.1776
  459SOL    HW2 1835   1.540   0.161   0.168  0.6622  0.5403  1.6772
  459SOL     MW 1836   1.593   0.105   0.216 -0.7181  0.4894  0.6464
  460SOL     OW 1837   1.726   2.146   0.604 -0.1296 -1.0296 -0.5751
  460SOL    HW1 1838   1.638   2.144   0.658  3.5344 -0.5533  2.0360
  460SOL    HW2 1839   1.739   2.068   0.544  1.9183 -0.8850  3.3644
  460SOL     MW 1840   1.716   2.136   0.603  0.6240 -0.9477  0.2892
  461SOL     OW 1841   0.370   2.312   0.652  0.1499 -0.3710 -0.6173
  461SOL    HW1 1842   0.303   2.364   0.602  1.9412 -0.1266  1.4963
  461SOL    HW2 1843   0.403   2.362   0.730 -1.5570 -1.2885  2.1379
  461SOL     MW 1844   0.366   2.325   0.655  0.1610 -0.4598  0.0251
  462SOL     OW 1845   0.396   0.269   1.353 -0.5381  0.2651 -0.0736
  462SOL    HW1 1846   0.426   0.180   1.337 -0.2388  1.4047 -1.0109
  462SOL    HW2 1847   0.483   0.325   1.332  2.1860  0.4236 -1.2685
  462SOL     MW 1848   0.412   0.265   1.348 -0.1392  0.4364 -0.3549
  463SOL     OW 1849   0.929   3.098   0.681 -0.2437  0.3910 -0.0148
  463SOL    HW1 1850   0.973   3.071   0.599 -0.5922  0.3905  1.9678
  463SOL    HW2 1851   0.843   3.119   0.652  0.8937 -1.5040  1.0033
  463SOL     MW 1852   0.923   3.097   0.666 -0.1396  0.1409  0.3811
  464SOL     OW 1853   0.861   2.987   2.177 -0.1010  0.1912 -0.5406
  464SOL    HW1 1854   0.819   2.903   2.185 -1.1112 -0.9946  0.2375
  464SOL    HW2 1855   0.857   3.009   2.269 -3.7449 -1.5257 -0.3242
  464SOL     MW 1856   0.855   2.979   2.190 -0.7150 -0.1918 -0.4094
  465SOL     OW 1857   0.692   0.271   0.487 -0.1888 -0.3398 -0.0459
  465SOL    HW1 1858   0.683   0.178   0.519 -0.5698  1.0242 -0.8830
  465SOL    HW2 1859   0.721   0.262   0.395 -0.2167  1.3561  0.1012
  465SOL     MW 1860   0.694   0.257   0.479 -0.2428  0.0639 -0.1369
  466SOL     OW 1861   1.106   1.995   0.715 -0.0343 -0.0430 -0.2652
  466SOL    HW1 1862   1.093   1.913   0.661 -0.3008  1.9060 -0.6365
  466SOL    HW2 1863   1.079   2.066   0.654  1.6059 -0.3370 -1.2491
  466SOL     MW 1864   1.100   1.994   0.700  0.1470  0.1754 -0.4440
  467SOL     OW 1865   1.268   2.372   0.921  0.2801  0.4961 -0.2382
  467SOL    HW1 1866   1.354   2.373   0.961  0.8473 -0.7456 -2.2515
  467SOL    HW2 1867   1.254   2.271   0.910  1.6807 -4.0251  4.5144
  467SOL     MW 1868   1.278   2.359   0.925  0.5397 -0.2643  0.1232
  468SOL     OW 1869   0.321   2.624   1.991 -0.2604 -0.1588 -0.0532
  468SOL    HW1 1870   0.351   2.535   1.977  0.7906  0.1735 -0.8832
  468SOL    HW2 1871   0.388   2.683   1.950  2.0842 -0.7279 -1.0722
  468SOL     MW 1872   0.334   2.620   1.984  0.1876 -0.1900 -0.2972
  469SOL     OW 1873   0.412   2.072   1.771 -0.6064 -0.1621  0.4153
  469SOL    HW1 1874   0.373   2.046   1.685 -0.1782  1.7176 -0.6452
  469SOL    HW2 1875   0.506   2.054   1.746 -0.4593 -0.7575 -1.5614
  469SOL     MW 1876   0.419   2.066   1.756 -0.5305  0.0073  0.0146
  470SOL     OW 1877   3.071   2.590   0.189 -0.3215 -1.1215 -0.4465
  470SOL    HW1 1878   2.997   2.544   0.231 -2.5524  0.4723 -1.2404
  470SOL    HW2 1879   3.052   2.572   0.097 -1.7053  1.5824 -1.6831
  470SOL     MW 1880   3.059   2.582   0.183 -0.7984 -0.5545 -0.7144
  471SOL     OW 1881   1.242   2.742   1.420  0.3300  0.2877 -0.6027
  471SOL    HW1 1882   1.159   2.758   1.464  0.6266  1.8268 -0.2027
  471SOL    HW2 1883   1.213   2.739   1.333 -0.6099  1.4394 -0.4193
  471SOL     MW 1884   1.227   2.744   1.415  0.2452  0.6428 -0.5257
  472SOL     OW 1885   2.953   2.101   0.395  0.2111 -0.1914 -0.5864
  472SOL    HW1 1886   2.968   2.060   0.314  0.4085  3.1157  2.5151
  472SOL    HW2 1887   2.948   2.040   0.469 -2.3205 -0.0741 -1.4198
  472SOL     MW 1888   2.955   2.088   0.394 -0.0968  0.2604 -0.2871
  473SOL     OW 1889   0.799   2.520   1.330 -0.0754 -0.2877  0.0522
  473SOL    HW1 1890   0.842   2.436   1.323 -0.0251  1.0878 -0.5305
  473SOL    HW2 1891   0.822   2.553   1.421  1.3967  0.9365  0.6548
  473SOL     MW 1892   0.808   2.513   1.341  0.1254  0.0553  0.0548
  474SOL     OW 1893   0.819   2.138   1.729 -0.3165  0.8568  0.1212
  474SOL    HW1 1894   0.918   2.121   1.736  2.3989 -2.3643  0.2347
  474SOL    HW2 1895   0.813   2.187   1.651 -1.7502 -2.3334 -2.0481
  474SOL     MW 1896   0.831   2.142   1.720 -0.1474  0.0109 -0.1500
  475SOL     OW 1897   1.678   3.090   1.395  0.1586 -0.4214  0.7370
  475SOL    HW1 1898   1.622   3.084   1.316 -0.0558  1.0181  1.8445
  475SOL    HW2 1899   1.668   3.007   1.445  0.1097  0.9493  2.4111
  475SOL     MW 1900   1.669   3.078   1.392  0.1239 -0.0507  1.1040
  476SOL     OW 1901   1.467   2.612   0.804  0.1100 -0.0210 -0.0369
  476SOL    HW1 1902   1.421   2.613   0.888  0.3843  1.7232 -3.1405
  476SOL    HW2 1903   1.472   2.704   0.770  0.7773 -1.0398 -1.1521
  476SOL     MW 1904   1.462   2.625   0.811  0.2342  0.0747 -0.5936
  477SOL     OW 1905   0.826   2.512   0.617  0.1528  0.1968  0.3544
  477SOL    HW1 1906   0.896   2.565   0.572  2.5279  1.4731 -4.8280
  477SOL    HW2 1907   0.812   2.438   0.555  1.4683 -1.1283 -0.3710
  477SOL     MW 1908   0.834   2.509   0.603  0.6397  0.1903 -0.4251
  478SOL     OW 1909   0.186   2.643   1.002  0.3922 -0.6044  0.0527
  478SOL    HW1 1910   0.226   2.725   0.978  1.9637 -0.7466  0.6087
  478SOL    HW2 1911   0.249   2.578   0.974  1.5118  0.2279  2.3855
  478SOL     MW 1912   0.200   2.645   0.995  0.7472 -0.5133  0.4338
  479SOL     OW 1913   1.438   1.914   1.324 -0.0512 -0.1688  0.3917
  479SOL    HW1 1914   1.384   1.966   1.389 -0.6418 -0.6531 -1.0481
  479SOL    HW2 1915   1.515   1.884   1.375 -1.6417  0.4923 -0.2676
  479SOL     MW 1916   1.441   1.917   1.340 -0.3390 -0.1455  0.1148
  480SOL     OW 1917   1.843   2.412   1.358  0.3459 -0.7230  0.3739
  480SOL    HW1 1918   1.857   2.340   1.421  2.4301  2.5016  0.2749
  480SOL    HW2 1919   1.866   2.384   1.271 -0.0923  3.5475 -1.1936
  480SOL     MW 1920   1.848   2.399   1.355  0.5631  0.2659  0.1540
  481SOL     OW 1921   1.157   0.154   1.078  0.1863  0.0081 -0.4516
  481SOL    HW1 1922   1.240   0.145   1.027 -0.0817 -0.8643  0.4860
  481SOL    HW2 1923   1.155   0.246   1.111  4.2825 -0.5914  0.2405
  481SOL     MW 1924   1.167   0.165   1.076  0.6914 -0.1861 -0.2366
  482SOL     OW 1925   1.059   3.044   0.429 -0.6312 -0.2180 -0.0070
  482SOL    HW1 1926   0.985   2.990   0.399  0.0385 -1.2288 -0.4311
  482SOL    HW2 1927   1.042   3.134   0.399  0.6301 -0.0644  2.1643
  482SOL     MW 1928   1.047   3.049   0.421 -0.3764 -0.3311  0.2235
  483SOL     OW 1929   0.366   2.901   0.491 -0.3977 -0.7286 -0.3145
  483SOL    HW1 1930   0.303   2.938   0.423  1.8836  1.6950  3.0345
  483SOL    HW2 1931   0.347   2.962   0.565 -1.7061 -1.3765 -0.0750
  483SOL     MW 1932   0.355   2.914   0.492 -0.2693 -0.4943  0.1590
  484SOL     OW 1933   1.678   1.845   1.448  0.0204  0.1729 -0.0150
  484SOL    HW1 1934   1.730   1.921   1.410  2.0822 -1.0328 -2.1179
  484SOL    HW2 1935   1.688   1.848   1.542 -0.8751  1.4197  0.4453
  484SOL     MW 1936   1.686   1.856   1.456  0.1743  0.1783 -0.2317
  485SOL     OW 1937   0.486   2.301   0.316  0.9135  0.0414  0.0770
  485SOL    HW1 1938   0.520   2.316   0.404  2.7064  1.8749 -0.2428
  485SOL    HW2 1939   0.431   2.369   0.280 -1.3393  1.1678  0.6334
  485SOL     MW 1940   0.483   2.312   0.323  0.8528  0.4320  0.1082
  486SOL     OW 1941   0.099   2.506   1.487 -0.2072  0.0506 -0.1800
  486SOL    HW1 1942   0.145   2.578   1.445 -1.3194  1.2702  1.0361
  486SOL    HW2 1943   0.142   2.503   1.576  1.2005 -0.5639  2.9964
  486SOL     MW 1944   0.110   2.515   1.493 -0.1682  0.1304  0.3995
  487SOL     OW 1945   1.329   1.582   1.116  0.3520  0.1718 -0.2345
  487SOL    HW1 1946   1.315   1.678   1.116  1.4791  1.0815  2.3124
  487SOL    HW2 1947   1.427   1.568   1.115 -0.4879  1.5069  0.1271
  487SOL     MW 1948   1.340   1.593   1.116  0.3899  0.4680  0.1492
  488SOL     OW 1949   1.424   1.814   0.577  0.1258  0.5562 -0.0927
  488SOL    HW1 1950   1.381   1.899   0.570  1.0494  0.5425 -0.2020
  488SOL    HW2 1951   1.357   1.751   0.544 -0.4285 -3.3066  1.0739
  488SOL     MW 1952   1.409   1.817   0.571  0.1745  0.0447  0.0468
  489SOL     OW 1953   0.696   0.686   0.515 -0.3260  0.4687  0.5873
  489SOL    HW1 1954   0.641   0.615   0.476 -0.2816  0.3909  0.1626
  489SOL    HW2 1955   0.666   0.702   0.603  2.0939  1.6118  0.9636
  489SOL     MW 1956   0.685   0.678   0.521 -0.0009  0.6092  0.5809
  490SOL     OW 1957   1.329   2.067   0.500 -0.5187 -0.5445  0.4964
  490SOL    HW1 1958   1.408   2.101   0.455 -0.4824 -0.0422  0.3389
  490SOL    HW2 1959   1.258   2.110   0.451  1.8795  0.1920 -0.3004
  490SOL     MW 1960   1.330   2.077   0.488 -0.1975 -0.3810  0.3705
  491SOL     OW 1961   1.333   3.005   0.413  0.3483  0.4378  0.2511
  491SOL    HW1 1962   1.333   3.058   0.492  0.8934  0.2632  1.4073
  491SOL    HW2 1963   1.243   3.037   0.396  1.0515 -1.0733 -0.2318
  491SOL     MW 1964   1.321   3.016   0.421  0.5130  0.2154  0.3399
  492SOL     OW 1965   1.487   2.133   0.706 -0.4748 -0.2892  0.5277
  492SOL    HW1 1966   1.421   2.118   0.638  0.7923 -0.5726  1.6182
  492SOL    HW2 1967   1.450   2.099   0.783  0.9736  0.8740 -2.0766
  492SOL     MW 1968   1.474   2.126   0.707 -0.1165 -0.1731  0.3280
  493SOL     OW 1969   0.205   3.055   0.325  0.2471  0.0747  0.0691
  493SOL    HW1 1970   0.134   3.098   0.368  0.2720  3.5813 -1.3958
  493SOL    HW2 1971   0.172   3.002   0.252  0.9188  0.4963 -1.4067
  493SOL     MW 1972   0.191   3.054   0.321  0.3390  0.5929 -0.3189
  494SOL     OW 1973   0.388   2.334   1.811  0.2621  0.2540 -0.0253
  494SOL    HW1 1974   0.399   2.235   1.795  0.0890 -0.8507 -1.6118
  494SOL    HW2 1975   0.420   2.372   1.727  4.3583 -0.7374  4.1354
  494SOL     MW 1976   0.394   2.326   1.797  0.7797 -0.0226  0.3143
  495SOL     OW 1977   2.792   1.595   2.665  0.1495 -0.3586  0.4091
  495SOL    HW1 1978   2.816   1.672   2.716 -0.1786 -0.9884  0.3654
  495SOL    HW2 1979   2.750   1.534   2.726  1.9023 -1.7967  1.5691
  495SOL     MW 1980   2.789   1.597   2.680  0.3375 -0.6314  0.5564
  496SOL     OW 1981   2.836   2.279   2.720  0.3086 -0.1327 -0.3438
  496SOL    HW1 1982   2.843   2.215   2.788  0.2633 -0.2152 -3.5385
  496SOL    HW2 1983   2.923   2.317   2.728 -1.7020 -1.0523  1.8353
  496SOL     MW 1984   2.848   2.276   2.730  0.0373 -0.2649 -0.4778
  497SOL     OW 1985   1.497   2.410   2.567  0.8361  0.4662  0.3473
  497SOL    HW1 1986   1.495   2.333   2.509 -1.4944  2.1267  2.1239
  497SOL    HW2 1987   1.453   2.374   2.647 -2.0255 -1.1551 -0.3318
  497SOL     MW 1988   1.491   2.395   2.570  0.1510  0.4714  0.4921
  498SOL     OW 1989   1.461   2.743   2.329 -0.2125 -0.0268  0.0958
  498SOL    HW1 1990   1.441   2.652   2.356 -3.4984 -0.1143  1.9571
  498SOL    HW2 1991   1.551   2.748   2.362  0.1345 -1.4045  1.6814
  498SOL     MW 1992   1.470   2.731   2.337 -0.6002 -0.2201  0.5506
  499SOL     OW 1993   0.984   0.065   0.099  0.1376 -0.1059 -0.2810
  499SOL    HW1 1994   0.901   0.105   0.101  1.3491 -0.8448  0.1927
  499SOL    HW2 1995   0.974  -0.026   0.079  1.0301  1.3782  0.6746
  499SOL     MW 1996   0.972   0.058   0.097  0.4152 -0.0076 -0.0924
  500SOL     OW 1997   1.035   2.532   2.713  0.0228 -0.2808  0.1117
  500SOL    HW1 1998   1.103   2.521   2.777 -1.5506  1.2325 -1.1316
  500SOL    HW2 1999   0.972   2.598   2.745  2.4739  1.2476 -2.2251
  500SOL     MW 2000   1.035   2.539   2.726  0.1386  0.1205 -0.3607
  501SOL     OW 2001   1.826   2.297   2.939  0.4287 -0.0527  0.4199
  501SOL    HW1 2002   1.848   2.381   2.977  1.0335 -0.4655  1.4791
  501SOL    HW2 2003   1.910   2.255   2.931  0.4532  2.4083 -0.2125
  501SOL     MW 2004   1.840   2.302   2.943  0.5117  0.2175  0.4762
  502SOL     OW 2005   0.318   2.768   2.853  0.3017  0.2712 -0.4538
  502SOL    HW1 2006   0.388   2.799   2.798 -1.3391 -1.7811 -1.7808
  502SOL    HW2 2007   0.272   2.846   2.891  0.3763 -0.3949 -2.4589
  502SOL     MW 2008   0.322   2.782   2.851  0.0950 -0.0875 -0.8934
  503SOL     OW 2009   1.123   2.505   2.071  0.4555  0.2395 -0.3336
  503SOL    HW1 2010   1.145   2.563   1.998 -1.6034 -1.0284  0.8434
  503SOL    HW2 2011   1.033   2.480   2.033  0.7324 -0.3031 -2.7498
  503SOL     MW 2012   1.114   2.510   2.057  0.2204  0.0006 -0.4971
  504SOL     OW 2013   0.053   2.649   2.210 -0.0914  0.1596  0.0937
  504SOL    HW1 2014   0.054   2.623   2.118  3.4636 -0.4541  0.0390
  504SOL    HW2 2015   0.047   2.571   2.261 -0.2312  3.1199 -2.7435
  504SOL     MW 2016   0.053   2.636   2.205  0.3592  0.4692 -0.2879
  505SOL     OW 2017   1.572   2.816   2.727  0.2447  0.0050  0.2581
  505SOL    HW1 2018   1.622   2.819   2.635  0.6203  0.7857 -0.9472
  505SOL    HW2 2019   1.506   2.890   2.725  0.0958  0.4827  1.4177
  505SOL     MW 2020   1.570   2.826   2.714  0.2746  0.1711  0.2521
  506SOL     OW 2021   1.608   0.128   2.744  0.8048 -0.6077 -0.0286
  506SOL    HW1 2022   1.581   0.078   2.827 -1.8793 -0.7559  0.3042
  506SOL    HW2 2023   1.667   0.072   2.703 -1.5311  0.9601  0.1202
  506SOL     MW 2024   1.612   0.114   2.749  0.1425 -0.4204  0.0349
  507SOL     OW 2025   0.833   2.672   2.834  0.5991  0.0290 -0.2095
  507SOL    HW1 2026   0.846   2.738   2.767  0.4548  0.9587  1.0713
  507SOL    HW2 2027   0.745   2.635   2.826  0.9759  0.2573 -0.7699
  507SOL     MW 2028   0.823   2.676   2.824  0.6298  0.1818 -0.1144
  508SOL     OW 2029   1.215   2.136   2.512  0.2446 -0.3952 -0.5947
  508SOL    HW1 2030   1.267   2.194   2.574  0.8632  0.8767  2.3427
  508SOL    HW2 2031   1.171   2.071   2.567 -0.1117 -2.9360 -0.5296
  508SOL     MW 2032   1.216   2.135   2.527  0.2792 -0.5626 -0.1986
  509SOL     OW 2033   0.589   2.554   2.851  0.3229 -0.0217 -0.1587
  509SOL    HW1 2034   0.605   2.481   2.781 -0.9303 -3.1616 -0.1549
  509SOL    HW2 2035   0.496   2.561   2.854 -1.1804  0.2801  0.4685
  509SOL     MW 2036   0.579   2.545   2.842 -0.0408 -0.3962 -0.0754
  510SOL     OW 2037   1.525   2.609   1.640 -0.1213 -0.7508 -0.1305
  510SOL    HW1 2038   1.551   2.686   1.592 -1.9004 -0.7127  1.0703
  510SOL    HW2 2039   1.478   2.637   1.717 -0.2154 -1.3876  0.2383
  510SOL     MW 2040   1.522   2.623   1.644 -0.3684 -0.8298  0.0766
  511SOL     OW 2041   0.373   2.548   2.508 -1.0246 -0.4434 -0.0175
  511SOL    HW1 2042   0.447   2.487   2.525  1.5034 -1.3447 -0.5193
  511SOL    HW2 2043   0.396   2.572   2.416 -0.9478 -0.1661 -0.9442
  511SOL     MW 2044   0.386   2.543   2.498 -0.6809 -0.5257 -0.2060
  512SOL     OW 2045   0.962   1.961   2.828  0.4038  0.1251  0.2904
  512SOL    HW1 2046   0.886   1.991   2.875 -0.8679  1.2091  1.7146
  512SOL    HW2 2047   0.998   1.897   2.890 -0.4603  0.5597 -0.1235
  512SOL     MW 2048   0.957   1.957   2.842  0.1220  0.3254  0.4237
  513SOL     OW 2049   1.502   2.444   2.274 -0.0699  0.8494 -0.1809
  513SOL    HW1 2050   1.597   2.456   2.257  0.5463  3.3175  2.4875
  513SOL    HW2 2051   1.493   2.356   2.309 -0.6913  0.8937  1.9181
  513SOL     MW 2052   1.514   2.434   2.276 -0.0706  1.1809  0.4481
  514SOL     OW 2053   0.236   2.375   2.695  0.7101 -0.1537  0.2017
  514SOL    HW1 2054   0.294   2.432   2.646  0.8923 -2.9680 -1.6284
  514SOL    HW2 2055   0.290   2.348   2.769 -0.3864 -0.2889 -1.8323
  514SOL     MW 2056   0.250   2.379   2.699  0.5894 -0.5429 -0.3081
  515SOL     OW 2057   1.075   2.008   1.874 -0.0429  0.2052 -0.3621
  515SOL    HW1 2058   1.086   2.104   1.874  0.7223 -2.6477  1.6072
  515SOL    HW2 2059   1.140   1.979   1.934  2.7383 -1.5926 -1.8794
  515SOL     MW 2060   1.085   2.017   1.882  0.4250 -0.4084 -0.3024
  516SOL     OW 2061   1.308   2.628   2.901 -0.7718  0.0806  0.5815
  516SOL    HW1 2062   1.343   2.637   2.811  1.2508  1.8287  1.3366
  516SOL    HW2 2063   1.275   2.535   2.906  2.0612  2.1297 -0.6524
  516SOL     MW 2064   1.308   2.617   2.890 -0.1312  0.5816  0.5183
  517SOL     OW 2065   0.482   2.266   2.306  0.5916 -0.0754 -0.8880
  517SOL    HW1 2066   0.481   2.361   2.293  1.6364 -2.1931  0.4680
  517SOL    HW2 2067   0.424   2.231   2.233  1.9333 -0.1635 -1.2789
  517SOL     MW 2068   0.474   2.274   2.295  0.9065 -0.3664 -0.7607
  518SOL     OW 2069   1.722   0.196   3.047  0.1816 -0.3921  0.1096
  518SOL    HW1 2070   1.770   0.191   3.128  1.0764  1.0014 -2.3340
  518SOL    HW2 2071   1.667   0.122   3.025 -1.0334  0.2187 -1.6282
  518SOL     MW 2072   1.721   0.186   3.055  0.1393 -0.1276 -0.4421
  519SOL     OW 2073   0.607   2.359   1.982 -0.2758 -0.1309 -0.3031
  519SOL    HW1 2074   0.643   2.269   1.977 -0.4881 -2.2515  0.0546
  519SOL    HW2 2075   0.523   2.346   1.938  2.3874 -2.3465  0.0359
  519SOL     MW 2076   0.601   2.345   1.975  0.0475 -0.7030 -0.2112
  520SOL     OW 2077   1.174   2.130   2.886 -0.2905  0.2158 -0.1632
  520SOL    HW1 2078   1.104   2.075   2.854  1.3631  0.0107  1.3534
  520SOL    HW2 2079   1.205   2.084   2.962  2.6672  1.6048 -0.9212
  520SOL     MW 2080   1.169   2.116   2.892  0.3179  0.3720 -0.0631
  521SOL     OW 2081   1.730   2.056   2.195  1.0247 -0.0103 -0.4291
  521SOL    HW1 2082   1.751   2.074   2.099 -3.1716 -1.3306 -0.6046
  521SOL    HW2 2083   1.741   1.956   2.214  1.6657 -1.3170 -0.2068
  521SOL     MW 2084   1.734   2.045   2.185  0.5557 -0.3569 -0.4229
  522SOL     OW 2085   2.831   2.567   2.169  0.0029  0.1331  0.5813
  522SOL    HW1 2086   2.903   2.523   2.210 -0.7088 -0.6741  1.0256
  522SOL    HW2 2087   2.852   2.649   2.125 -0.9727  3.4639 -2.2887
  522SOL     MW 2088   2.843   2.572   2.168 -0.2198  0.4661  0.2613
  523SOL     OW 2089   0.810   1.462   2.161 -0.4770 -0.3685  0.2129
  523SOL    HW1 2090   0.765   1.504   2.082  0.1154  1.0101 -0.4612
  523SOL    HW2 2091   0.867   1.396   2.127  0.7345  0.9590 -0.8351
  523SOL     MW 2092   0.812   1.459   2.146 -0.2390 -0.0115 -0.0143
  524SOL     OW 2093   0.554   2.357   3.061  0.1105 -0.0321  0.3441
  524SOL    HW1 2094   0.594   2.432   3.005  0.2691  1.2948  1.3399
  524SOL    HW2 2095   0.633   2.295   3.068 -2.1245  2.2116  2.1651
  524SOL     MW 2096   0.570   2.359   3.055 -0.1635  0.4390  0.7158
  525SOL     OW 2097   0.301   2.165   2.107 -0.1818 -0.1810  0.3467
  525SOL    HW1 2098   0.256   2.108   2.177  2.3679  0.6908 -0.7364
  525SOL    HW2 2099   0.327   2.100   2.042  0.3277  0.1536  1.1299
  525SOL     MW 2100   0.298   2.149   2.108  0.2219 -0.0219  0.3071
  526SOL     OW 2101   0.699   2.079   1.959  0.5409  0.8087  0.3709
  526SOL    HW1 2102   0.752   2.097   1.883  2.5967 -2.0851 -3.1128
  526SOL    HW2 2103   0.760   2.109   2.035 -0.2810  0.7080 -2.0326
  526SOL     MW 2104   0.714   2.085   1.959  0.7037  0.4136 -0.4059
  527SOL     OW 2105   1.282   1.912   2.060 -0.0645  0.0547 -0.3282
  527SOL    HW1 2106   1.279   1.870   2.146  0.0009 -1.2618  1.6428
  527SOL    HW2 2107   1.341   1.852   2.016 -0.6220 -2.0382 -0.3680
  527SOL     MW 2108   1.290   1.899   2.065 -0.1294 -0.3951 -0.0734
  528SOL     OW 2109   0.584   2.899   2.967 -0.2344 -0.3687  0.5510
  528SOL    HW1 2110   0.605   2.989   2.959 -0.7997 -1.4336 -2.4037
  528SOL    HW2 2111   0.581   2.881   2.875 -1.4645 -0.6249  1.7701
  528SOL     MW 2112   0.587   2.909   2.954 -0.4713 -0.5430  0.3220
  529SOL     OW 2113   1.111   2.284   1.800  0.0039 -0.4523  0.0692
  529SOL    HW1 2114   1.165   2.279   1.881 -0.7753 -0.0043  1.5825
  529SOL    HW2 2115   1.164   2.269   1.719 -0.0641  2.5857 -1.7853
  529SOL     MW 2116   1.125   2.282   1.800 -0.1079  0.0077  0.0242
  530SOL     OW 2117   1.168   2.421   2.947 -0.2135 -0.6322  0.1753
  530SOL    HW1 2118   1.098   2.451   3.008 -1.2115  0.8979  0.6304
  530SOL    HW2 2119   1.160   2.327   2.934  0.7792  2.0065 -0.3940
  530SOL     MW 2120   1.157   2.413   2.953 -0.2142 -0.0822  0.1602
  531SOL     OW 2121   0.887   1.807   2.615 -0.1663 -0.4127 -0.0435
  531SOL    HW1 2122   0.878   1.866   2.683  0.4258 -0.4453 -0.6814
  531SOL    HW2 2123   0.858   1.728   2.660  0.3861 -0.9167  0.8216
  531SOL     MW 2124   0.882   1.804   2.630 -0.0153 -0.4835 -0.0135
  532SOL     OW 2125   1.748   0.359   2.812  0.1457 -0.1366  0.0733
  532SOL    HW1 2126   1.695   0.282   2.785 -0.8051 -0.7504 -1.3608
  532SOL    HW2 2127   1.759   0.344   2.909  2.2418 -1.4374  0.9488
  532SOL     MW 2128   1.742   0.347   2.821  0.2968 -0.3892 -0.0004
  533SOL     OW 2129   1.780   2.822   2.914 -0.2807 -0.3547  0.3230
  533SOL    HW1 2130   1.749   2.746   2.972 -1.2719 -2.1543 -0.3387
  533SOL    HW2 2131   1.706   2.827   2.852  0.4452  2.7040  0.5121
  533SOL     MW 2132   1.766   2.813   2.913 -0.3157 -0.1886  0.2606
  534SOL     OW 2133   1.750   2.521   2.504 -0.8870 -0.6399 -0.0379
  534SOL    HW1 2134   1.668   2.494   2.542  3.3176  1.3493 -1.2095
  534SOL    HW2 2135   1.810   2.508   2.575 -0.3770 -0.4757 -4.7517
  534SOL     MW 2136   1.747   2.516   2.519 -0.2649 -0.3558 -0.8144
  535SOL     OW 2137   1.795   2.386   1.932 -0.7416 -0.0201 -0.1472
  535SOL    HW1 2138   1.746   2.402   1.856  2.0357 -0.0487 -0.8116
  535SOL    HW2 2139   1.883   2.400   1.897  0.1833 -1.3048  0.2224
  535SOL     MW 2140   1.800   2.390   1.918 -0.2531 -0.1934 -0.1861
  536SOL     OW 2141   0.407   1.891   1.990  0.4385 -0.5806  0.6866
  536SOL    HW1 2142   0.409   1.922   1.895  0.4254 -0.3797 -0.5169
  536SOL    HW2 2143   0.497   1.872   2.013  1.6050  0.9988 -1.9736
  536SOL     MW 2144   0.419   1.893   1.980  0.5907 -0.3457  0.1768
  537SOL     OW 2145   1.027   0.190   2.949  0.2579  0.2683 -0.1915
  537SOL    HW1 2146   0.979   0.159   3.024 -1.4685  0.4005 -1.6593
  537SOL    HW2 2147   1.011   0.284   2.944 -0.3685 -2.3479  0.0277
  537SOL     MW 2148   1.019   0.198   2.958 -0.0525 -0.0594 -0.3563
  538SOL     OW 2149   1.256   0.079   2.983 -0.5927 -0.0165  0.2466
  538SOL    HW1 2150   1.176   0.131   2.970 -0.8669  1.4350  0.7388
  538SOL    HW2 2151   1.273   0.076   3.082  0.6670 -0.4053  4.1782
  538SOL     MW 2152   1.248   0.085   2.995 -0.4627  0.1237  0.8303
  539SOL     OW 2153   0.694   2.731   2.479  0.9107 -0.6926  0.2265
  539SOL    HW1 2154   0.745   2.793   2.531  1.6353 -1.9444  0.4389
  539SOL    HW2 2155   0.729   2.640   2.487  2.1446  0.0525 -2.2298
  539SOL     MW 2156   0.705   2.727   2.487  1.1691 -0.7594 -0.0696
  540SOL     OW 2157   0.400   2.235   2.874  0.0718 -0.4136 -0.1880
  540SOL    HW1 2158   0.440   2.294   2.948 -0.6231  1.8216  1.2365
  540SOL    HW2 2159   0.339   2.181   2.919  0.8840 -1.3927 -1.8982
  540SOL     MW 2160   0.397   2.235   2.890  0.0873 -0.2479 -0.2257
  541SOL     OW 2161   0.193   2.906   2.261  0.4873  0.2634  0.5040
  541SOL    HW1 2162   0.166   2.815   2.243 -2.1996  0.8021  0.2573
  541SOL    HW2 2163   0.226   2.893   2.353  1.3963 -0.1655  0.0283
  541SOL     MW 2164   0.194   2.893   2.271  0.2527  0.2779  0.4087
  542SOL     OW 2165   0.842   2.352   2.750  0.1602  0.0594 -0.5774
  542SOL    HW1 2166   0.864   2.273   2.809 -1.3189  1.8411  0.7642
  542SOL    HW2 2167   0.917   2.406   2.758 -0.6195 -1.1869  0.4955
  542SOL     MW 2168   0.855   2.348   2.759 -0.1378  0.1301 -0.2589
  543SOL     OW 2169   1.365   2.676   2.641 -0.1049 -0.5132 -0.8835
  543SOL    HW1 2170   1.397   2.588   2.620 -0.1354 -2.0618 -0.5638
  543SOL    HW2 2171   1.445   2.717   2.678 -0.9969 -3.6387  0.6252
  543SOL     MW 2172   1.380   2.670   2.643 -0.2266 -1.1299 -0.6423
  544SOL     OW 2173   0.701   0.118   2.681 -0.2057 -0.1571 -0.6768
  544SOL    HW1 2174   0.610   0.109   2.651  1.3177  0.6090 -1.1490
  544SOL    HW2 2175   0.756   0.137   2.602  3.8218  1.2423 -2.3462
  544SOL     MW 2176   0.696   0.119   2.666  0.5266  0.1286 -0.9594
  545SOL     OW 2177   1.534   2.184   2.397  0.0302  0.3649 -0.3730
  545SOL    HW1 2178   1.491   2.097   2.413  1.0751 -1.8473  1.8157
  545SOL    HW2 2179   1.621   2.156   2.364  3.9941 -1.7632 -1.4205
  545SOL     MW 2180   1.540   2.169   2.395  0.6911 -0.2078 -0.2224
  546SOL     OW 2181   3.009   1.987   0.145  0.4287  0.6241  0.0396
  546SOL    HW1 2182   2.977   2.052   0.076 -1.1923 -0.6674 -2.1578
  546SOL    HW2 2183   3.077   1.936   0.098  1.3407 -2.1439 -0.9687
  546SOL     MW 2184   3.014   1.989   0.130  0.3352  0.0885 -0.3833
  547SOL     OW 2185   0.160   2.900   0.104 -0.3966  0.4288  0.3151
  547SOL    HW1 2186   0.185   2.941   0.020 -3.2019  1.2418 -0.0142
  547SOL    HW2 2187   0.208   2.813   0.097  1.1645  0.8429  1.6825
  547SOL     MW 2188   0.170   2.894   0.092 -0.5607  0.5907  0.4520
  548SOL     OW 2189   0.263   2.538   0.279 -0.0129 -0.6218  0.3194
  548SOL    HW1 2190   0.290   2.584   0.196  0.5748  1.5878 -1.0380
  548SOL    HW2 2191   0.169   2.536   0.274 -1.6766  0.9211 -0.2367
  548SOL     MW 2192   0.254   2.544   0.267 -0.1549 -0.1267  0.0669
  549SOL     OW 2193   0.703   1.840   2.071 -0.2182  0.0932 -0.2513
  549SOL    HW1 2194   0.714   1.927   2.013 -0.4421 -1.0197 -2.6759
  549SOL    HW2 2195   0.727   1.854   2.166 -2.5495 -3.9071  2.0864
  549SOL     MW 2196   0.708   1.853   2.076 -0.5554 -0.5814 -0.2628
  550SOL     OW 2197   1.786   1.765   2.491  0.3761 -1.0352  0.1531
  550SOL    HW1 2198   1.736   1.755   2.403 -3.6824 -2.8743 -0.0822
  550SOL    HW2 2199   1.781   1.860   2.522  0.0863  2.3307  1.9109
  550SOL     MW 2200   1.779   1.776   2.483 -0.1976 -0.8338  0.3540
  551SOL     OW 2201   0.849   2.350   0.212 -0.2299 -0.2659 -0.0471
  551SOL    HW1 2202   0.940   2.375   0.191  1.6244  2.4688  1.1393
  551SOL    HW2 2203   0.816   2.291   0.141  0.2049 -3.3948 -0.5356
  551SOL     MW 2204   0.857   2.345   0.200  0.0721 -0.3179  0.0450
  552SOL     OW 2205   1.677   1.754   2.244  0.3685 -0.9066  0.3517
  552SOL    HW1 2206   1.585   1.721   2.246 -1.1690 -0.8506  0.2088
  552SOL    HW2 2207   1.726   1.710   2.169  0.0381 -0.2872 -4.1253
  552SOL     MW 2208   1.671   1.744   2.235  0.1221 -0.8175 -0.2579
  553SOL     OW 2209   1.192   2.298   1.532 -0.5315 -0.3003 -0.0218
  553SOL    HW1 2210   1.226   2.211   1.505  0.4216  0.8827 -3.3155
  553SOL    HW2 2211   1.258   2.362   1.504 -0.8849 -1.3892  1.4366
  553SOL     MW 2212   1.205   2.295   1.525 -0.4524 -0.2879 -0.2640
  554SOL     OW 2213   0.545   2.837   2.707 -0.4683 -0.4517  0.8697
  554SOL    HW1 2214   0.515   2.907   2.644  1.4715 -1.2433  0.9553
  554SOL    HW2 2215   0.577   2.766   2.646 -0.7782 -0.6124 -0.8235
  554SOL     MW 2216   0.545   2.837   2.691 -0.2532 -0.5774  0.6576
  555SOL     OW 2217   0.574   2.393   2.612  0.1115 -0.1348 -0.3463
  555SOL    HW1 2218   0.598   2.307   2.649 -2.5414 -0.1034 -1.4658
  555SOL    HW2 2219   0.657   2.435   2.599 -0.8333  1.9889 -2.0655
  555SOL     MW 2220   0.588   2.387   2.615 -0.3632  0.1496 -0.7209
  556SOL     OW 2221   1.054   1.843   0.127  0.1722  0.2981  0.0995
  556SOL    HW1 2222   1.073   1.814   0.037 -0.7340 -0.0730 -0.2555
  556SOL    HW2 2223   1.143   1.846   0.169 -0.4849 -1.7064 -1.1803
  556SOL     MW 2224   1.068   1.840   0.121 -0.0340 -0.0154 -0.1162
  557SOL     OW 2225   1.032   2.671   0.431  0.2828  0.8627  0.3222
  557SOL    HW1 2226   1.103   2.664   0.371 -0.9949  0.1826 -2.9978
  557SOL    HW2 2227   0.983   2.749   0.402  0.4500  1.2696  1.1283
  557SOL     MW 2228   1.035   2.680   0.419  0.1363  0.8267 -0.0095
  558SOL     OW 2229   0.250   2.088   3.072 -0.0212 -0.1111  0.0082
  558SOL    HW1 2230   0.202   2.008   3.091  2.6128  1.5974  0.1609
  558SOL    HW2 2231   0.190   2.151   3.108 -0.8385  0.6366  3.1912
  558SOL     MW 2232   0.236   2.086   3.079  0.2185  0.2130  0.4483
  559SOL     OW 2233   1.255   2.238   2.037  0.0188  0.2292  0.2874
  559SOL    HW1 2234   1.234   2.334   2.046  0.8867  0.6127 -1.0337
  559SOL    HW2 2235   1.196   2.198   2.099 -0.9208  0.8142  1.9117
  559SOL     MW 2236   1.244   2.245   2.046  0.0093  0.3570  0.3274
  560SOL     OW 2237   1.942   2.974   0.039  0.2900  0.0921  0.3609
  560SOL    HW1 2238   2.024   2.995   0.002 -0.1564 -0.3341 -0.0148
  560SOL    HW2 2239   1.888   2.941  -0.027  1.2069 -0.0672  1.5863
  560SOL     MW 2240   1.946   2.973   0.026  0.3521  0.0149  0.4730
  561SOL     OW 2241   0.467   2.076   0.167  0.4417  0.1603 -0.1580
  561SOL    HW1 2242   0.424   2.075   0.078 -5.0684 -0.5303 -3.6375
  561SOL    HW2 2243   0.471   2.168   0.197 -0.2346 -3.6814  0.0443
  561SOL     MW 2244   0.462   2.088   0.159 -0.3745 -0.4377 -0.5904
  562SOL     OW 2245   0.850   2.132   2.185  0.3602  0.1002  0.7426
  562SOL    HW1 2246   0.796   2.203   2.226 -0.3770  1.0096  2.0498
  562SOL    HW2 2247   0.930   2.138   2.242 -2.0065  1.1145 -0.1128
  562SOL     MW 2248   0.853   2.142   2.198 -0.0494  0.3540  0.8022
  563SOL     OW 2249   1.275   0.286   0.480 -0.5924 -0.2672  0.0088
  563SOL    HW1 2250   1.195   0.258   0.435  1.7448  3.0544  0.4367
  563SOL    HW2 2251   1.287   0.216   0.548  2.6689  1.1306  0.0649
  563SOL     MW 2252   1.266   0.273   0.483  0.1463  0.3555  0.0726
  564SOL     OW 2253   1.001   2.563   2.316 -0.3568  0.4115  0.6409
  564SOL    HW1 2254   1.059   2.530   2.242 -1.4886  2.9686 -1.5302
  564SOL    HW2 2255   1.057   2.633   2.350  3.4257 -0.9868 -1.5065
  564SOL     MW 2256   1.016   2.568   2.310 -0.0071  0.5644  0.0711
  565SOL     OW 2257   2.916   2.680   2.714 -0.0699 -0.1637  0.1891
  565SOL    HW1 2258   2.969   2.755   2.693 -0.3689 -1.3842 -0.2881
  565SOL    HW2 2259   2.858   2.653   2.636 -1.2707 -0.7077  0.4958
  565SOL     MW 2260   2.915   2.686   2.701 -0.2677 -0.3965  0.1666
  566SOL     OW 2261   2.172   2.036   2.369  0.2459 -0.1834  0.0428
  566SOL    HW1 2262   2.200   2.044   2.279  0.1298 -0.3064 -0.3769
  566SOL    HW2 2263   2.234   2.089   2.419  2.7904 -2.0980  0.1917
  566SOL     MW 2264   2.184   2.044   2.364  0.5663 -0.4523  0.0071
  567SOL     OW 2265   1.158   2.878   0.115  0.3548  0.4468 -0.2351
  567SOL    HW1 2266   1.223   2.937   0.143  0.5343 -2.0003 -1.2170
  567SOL    HW2 2267   1.168   2.884   0.021  1.6821  0.0686 -1.3894
  567SOL     MW 2268   1.168   2.887   0.106  0.5536  0.0740 -0.5169
  568SOL     OW 2269   1.637   2.119   2.798 -0.1228 -0.2330 -0.0600
  568SOL    HW1 2270   1.702   2.182   2.830 -1.2034 -2.9612  2.7341
  568SOL    HW2 2271   1.684   2.072   2.723 -0.4968  0.0400 -0.4955
  568SOL     MW 2272   1.652   2.121   2.792 -0.3147 -0.5569  0.2512
  569SOL     OW 2273   0.039   2.222   2.490  0.5834 -0.4628 -0.3904
  569SOL    HW1 2274  -0.013   2.272   2.424 -0.1728  1.6922 -2.4832
  569SOL    HW2 2275   0.113   2.279   2.519  3.0062  0.4509  2.1801
  569SOL     MW 2276   0.042   2.237   2.485  0.8033 -0.0579 -0.3274
  570SOL     OW 2277   1.543   0.362   0.456 -0.4153 -0.1381 -0.0449
  570SOL    HW1 2278   1.454   0.327   0.463  0.4109 -0.8104 -0.9133
  570SOL    HW2 2279   1.573   0.392   0.538 -2.5174 -0.5397  0.9184
  570SOL     MW 2280   1.536   0.362   0.468 -0.5836 -0.2798 -0.0324
  571SOL     OW 2281   1.442   2.458   2.006  0.1899  0.0170  0.6137
  571SOL    HW1 2282   1.471   2.473   2.092 -3.2551  2.2762 -0.5044
  571SOL    HW2 2283   1.432   2.365   1.993 -0.4372  2.1278 -1.0483
  571SOL     MW 2284   1.445   2.448   2.015 -0.3474  0.5936  0.2469
  572SOL     OW 2285   0.905   2.525   3.064  0.0994  0.1295  0.0943
  572SOL    HW1 2286   0.851   2.567   3.003  1.0677 -2.0713  1.7196
  572SOL    HW2 2287   0.858   2.511   3.146 -0.1004  0.8773  0.7707
  572SOL     MW 2288   0.892   2.528   3.067  0.2008 -0.0622  0.3980
  573SOL     OW 2289   1.123   2.421   0.190 -0.4308  0.1002 -0.3444
  573SOL    HW1 2290   1.202   2.396   0.143 -3.2685 -1.3708  1.2871
  573SOL    HW2 2291   1.138   2.515   0.211 -0.1493  1.7222 -3.4365
  573SOL     MW 2292   1.135   2.430   0.187 -0.7681  0.1201 -0.5371
  574SOL     OW 2293   1.254   2.670   0.242 -0.0562 -0.1394 -0.4033
  574SOL    HW1 2294   1.335   2.693   0.287 -0.6714  2.9782 -0.7122
  574SOL    HW2 2295   1.222   2.750   0.200  0.1487 -3.0670  1.2735
  574SOL     MW 2296   1.261   2.684   0.242 -0.1104 -0.1144 -0.2228
  575SOL     OW 2297   3.064   2.270   1.822  0.5174  0.9912  0.4659
  575SOL    HW1 2298   3.056   2.219   1.741 -0.0638 -0.4334 -2.2099
  575SOL    HW2 2299   3.143   2.329   1.800  0.9712 -0.5683 -0.9645
  575SOL     MW 2300   3.073   2.271   1.808  0.5006  0.5975 -0.0759
  576SOL     OW 2301   2.830   1.818   2.074 -0.2328  0.2943  0.0016
  576SOL    HW1 2302   2.826   1.878   1.999  1.0644  1.4375  2.1757
  576SOL    HW2 2303   2.760   1.757   2.054  1.6162 -1.4131  0.5156
  576SOL     MW 2304   2.820   1.818   2.061  0.1823  0.2199  0.3563
  577SOL     OW 2305   2.067   0.318   0.066 -0.1434 -0.3680 -0.1374
  577SOL    HW1 2306   2.018   0.358  -0.003  0.1725  1.2601 -2.1011
  577SOL    HW2 2307   2.000   0.286   0.133  0.8279 -1.9282 -1.8805
  577SOL     MW 2308   2.051   0.319   0.066  0.0264 -0.3591 -0.6265
  578SOL     OW 2309   1.912   2.192   2.344  0.1583 -0.1833  0.1249
  578SOL    HW1 2310   1.837   2.138   2.300  0.1577  0.4114 -1.9386
  578SOL    HW2 2311   1.983   2.123   2.336  0.7853 -1.3879 -1.9455
  578SOL     MW 2312   1.911   2.176   2.337  0.2410 -0.2638 -0.4205
  579SOL     OW 2313   0.824   2.489   2.504 -0.0929 -0.1048  0.1490
  579SOL    HW1 2314   0.860   2.435   2.580  2.5253 -1.4312  1.1471
  579SOL    HW2 2315   0.901   2.513   2.450  0.4143  2.1107 -1.7697
  579SOL     MW 2316   0.839   2.485   2.507  0.3195  0.0125  0.0276
  580SOL     OW 2317   0.873   2.855   3.080  0.1280 -0.0968  0.2985
  580SOL    HW1 2318   0.956   2.806   3.073  2.5876  0.4573  0.9260
  580SOL    HW2 2319   0.819   2.834   3.010  2.0780 -0.1136 -0.7680
  580SOL     MW 2320   0.876   2.846   3.070  0.7098 -0.0259  0.2406
  581SOL     OW 2321   1.098   2.592   1.745  0.3182 -0.2559 -0.6752
  581SOL    HW1 2322   1.187   2.622   1.767  0.4529 -1.3846 -1.8955
  581SOL    HW2 2323   1.101   2.489   1.744  0.2700 -0.4590 -0.3937
  581SOL     MW 2324   1.111   2.582   1.747  0.3296 -0.4316 -0.7990
  582SOL     OW 2325   3.081   2.881   2.622  0.2400  0.2702 -0.3935
  582SOL    HW1 2326   3.079   2.956   2.685 -3.5134 -0.2316  0.2918
  582SOL    HW2 2327   3.166   2.877   2.578 -1.0836 -0.6106  2.2472
  582SOL     MW 2328   3.092   2.890   2.624 -0.4299  0.0878  0.0453
  583SOL     OW 2329   1.954   2.517   2.705  0.0340 -0.6672 -0.2093
  583SOL    HW1 2330   1.991   2.564   2.619 -2.6507  0.0002 -2.0731
  583SOL    HW2 2331   1.977   2.426   2.685 -0.2056 -0.1205 -1.7426
  583SOL     MW 2332   1.962   2.512   2.691 -0.3518 -0.5070 -0.6575
  584SOL     OW 2333   0.166   1.847   2.101 -0.3274  0.0118 -0.0881
  584SOL    HW1 2334   0.260   1.855   2.074 -0.6340  1.7776 -1.0465
  584SOL    HW2 2335   0.165   1.893   2.187  1.3293  0.0450  0.0316
  584SOL     MW 2336   0.178   1.854   2.109 -0.1493  0.2491 -0.1988
  585SOL     OW 2337   1.446   2.573   0.043  0.4406  0.5025 -0.0699
  585SOL    HW1 2338   1.396   2.577  -0.042  1.9829  0.4033  2.3389
  585SOL    HW2 2339   1.386   2.596   0.109 -1.6075 -1.0886 -2.2040
  585SOL     MW 2340   1.432   2.577   0.041  0.3739  0.2795 -0.0337
  586SOL     OW 2341   1.290   2.973   2.365  0.5694  0.1072  0.4781
  586SOL    HW1 2342   1.345   2.892   2.362  2.0408 -1.0941  0.9270
  586SOL    HW2 2343   1.256   2.990   2.452 -0.8836  2.5840 -0.8150
  586SOL     MW 2344   1.293   2.964   2.376  0.5718  0.2755  0.3667
  587SOL     OW 2345   1.190   1.631   2.171 -0.2778  0.2453  0.5179
  587SOL    HW1 2346   1.216   1.553   2.222  0.4486 -0.2004 -2.0532
  587SOL    HW2 2347   1.193   1.594   2.077  0.2257 -0.0338  0.4967
  587SOL     MW 2348   1.194   1.616   2.165 -0.1155  0.1496  0.1759
  588SOL     OW 2349   1.374   2.247   2.732  0.2637  0.3886 -0.5118
  588SOL    HW1 2350   1.452   2.216   2.771  1.8603  0.3489 -1.5931
  588SOL    HW2 2351   1.309   2.206   2.800 -1.7418 -0.8402  0.9684
  588SOL     MW 2352   1.376   2.237   2.746  0.2098  0.2213 -0.4591
  589SOL     OW 2353   1.335   2.060   0.011  0.3598 -0.2064  0.6268
  589SOL    HW1 2354   1.347   2.154   0.031 -0.6072 -0.1405 -1.9871
  589SOL    HW2 2355   1.331   2.008   0.092  0.0675 -1.4764  2.2494
  589SOL     MW 2356   1.336   2.065   0.025  0.1936 -0.3653  0.4960
  590SOL     OW 2357   0.488   2.546   2.248  0.2043  0.1339 -0.3526
  590SOL    HW1 2358   0.435   2.575   2.175 -0.6764 -0.0651  1.6953
  590SOL    HW2 2359   0.580   2.574   2.232 -0.5331  1.6627  0.1308
  590SOL     MW 2360   0.493   2.554   2.236 -0.0092  0.3093 -0.0186
  591SOL     OW 2361   2.199   0.683   3.035 -0.1776 -0.6259  0.1767
  591SOL    HW1 2362   2.105   0.716   3.036  0.9691 -0.6720 -2.1694
  591SOL    HW2 2363   2.227   0.689   2.942  1.2142  1.1020  1.0746
  591SOL     MW 2364   2.190   0.688   3.023  0.1573 -0.4040 -0.0144
  592SOL     OW 2365   1.816   2.897   0.847  0.4499 -0.0007  0.4710
  592SOL    HW1 2366   1.852   2.944   0.768 -0.5895 -1.6838 -1.0325
  592SOL    HW2 2367   1.851   2.805   0.835 -0.9030 -0.5367  0.6081
  592SOL     MW 2368   1.826   2.891   0.835  0.1343 -0.2935  0.2907
  593SOL     OW 2369   1.923   0.813   0.915  0.1216 -0.6217 -0.3876
  593SOL    HW1 2370   1.855   0.808   0.850  2.3049  1.2006 -2.6113
  593SOL    HW2 2371   1.947   0.717   0.918 -0.9537 -1.2392  4.6225
  593SOL     MW 2372   1.917   0.800   0.907  0.2678 -0.4628 -0.0200
  594SOL     OW 2373   2.749   1.126   1.407 -0.5666 -0.2556 -0.0345
  594SOL    HW1 2374   2.841   1.151   1.414  1.5277  1.0533 -2.6764
  594SOL    HW2 2375   2.740   1.096   1.315 -3.0388 -1.4535 -0.5722
  594SOL     MW 2376   2.760   1.125   1.396 -0.6164 -0.2410 -0.4540
  595SOL     OW 2377   0.431   0.973   0.760 -0.0482 -0.6723  0.3908
  595SOL    HW1 2378   0.468   1.046   0.697  1.3686  3.3145 -1.9706
  595SOL    HW2 2379   0.457   1.016   0.840 -1.2742  0.5508 -1.1795
  595SOL     MW 2380   0.440   0.988   0.762 -0.0230  0.0151 -0.1279
  596SOL     OW 2381   2.427   1.322   0.589  0.4462 -0.5165 -0.4812
  596SOL    HW1 2382   2.432   1.416   0.561  2.4573  2.1300 -0.2547
  596SOL    HW2 2383   2.513   1.304   0.630  0.1626  1.0676 -0.8338
  596SOL     MW 2384   2.439   1.332   0.591  0.6741  0.0417 -0.4978
  597SOL     OW 2385   2.246   0.677   1.739 -0.5563 -0.6195  0.0063
  597SOL    HW1 2386   2.292   0.625   1.797  0.7737  1.8999 -0.7391
  597SOL    HW2 2387   2.259   0.634   1.657  0.1478  2.1217 -0.4628
  597SOL     MW 2388   2.254   0.665   1.736 -0.2879  0.0746 -0.1539
  598SOL     OW 2389   2.623   1.013   2.856 -0.3014  0.1762 -0.0352
  598SOL    HW1 2390   2.682   0.997   2.785 -1.8613 -1.0235  1.9270
  598SOL    HW2 2391   2.668   1.083   2.899 -2.1161  0.9544  0.2331
  598SOL     MW 2392   2.637   1.020   2.852 -0.7466  0.1206  0.2591
  599SOL     OW 2393   2.921   0.344   2.051  0.4328 -0.2003 -0.3716
  599SOL    HW1 2394   2.880   0.325   2.135  0.0158  0.1242 -1.2806
  599SOL    HW2 2395   2.962   0.430   2.055  0.8055 -0.7258  2.0431
  599SOL     MW 2396   2.921   0.353   2.063  0.4270 -0.2269 -0.1730
  600SOL     OW 2397   1.851   1.656   0.895  0.5163  0.7140 -0.0645
  600SOL    HW1 2398   1.863   1.703   0.975 -1.8734 -1.9101  1.0205
  600SOL    HW2 2399   1.765   1.692   0.857 -0.9839 -0.2812 -0.2663
  600SOL     MW 2400   1.841   1.667   0.900  0.0031  0.2365  0.0520
  601SOL     OW 2401   2.483   0.757   0.892  0.5634  0.4014  0.2015
  601SOL    HW1 2402   2.497   0.746   0.985  0.4525  1.0877 -1.8493
  601SOL    HW2 2403   2.387   0.753   0.875 -1.9413  0.3758 -0.8761
  601SOL     MW 2404   2.472   0.755   0.902  0.2183  0.4886 -0.2113
  602SOL     OW 2405   2.271   1.933   0.696  0.1213  0.0886  0.0506
  602SOL    HW1 2406   2.210   1.861   0.718 -0.3375  0.4337 -0.7089
  602SOL    HW2 2407   2.228   1.984   0.622  0.1860 -0.5864 -1.2203
  602SOL     MW 2408   2.257   1.931   0.689  0.0693  0.0451 -0.2173
  603SOL     OW 2409   2.994   1.377   1.845  0.0984  0.8887 -0.0580
  603SOL    HW1 2410   3.081   1.391   1.880 -2.4233  1.3221  2.0682
  603SOL    HW2 2411   2.979   1.293   1.810 -0.8841 -0.5095 -1.2954
  603SOL     MW 2412   3.003   1.368   1.845 -0.3639  0.7614  0.0593
  604SOL     OW 2413   2.048   1.515   0.497  0.3336  0.5814  0.3295
  604SOL    HW1 2414   2.068   1.454   0.564 -0.5891  0.5237 -1.4370
  604SOL    HW2 2415   1.967   1.558   0.514 -0.9092  3.8817  0.5535
  604SOL     MW 2416   2.040   1.513   0.508  0.0479  1.0092  0.1260
  605SOL     OW 2417   2.654   1.539   0.803 -0.0881  0.1102  0.4951
  605SOL    HW1 2418   2.615   1.617   0.766  0.5237 -1.4586  1.6349
  605SOL    HW2 2419   2.612   1.513   0.883  2.5586  0.0914 -1.1212
  605SOL     MW 2420   2.643   1.546   0.809  0.3418 -0.0993  0.4323
  606SOL     OW 2421   2.540   1.825   1.912 -0.1088  0.2113  0.6305
  606SOL    HW1 2422   2.443   1.816   1.936  0.0376  2.4867  1.8588
  606SOL    HW2 2423   2.577   1.741   1.872  2.5087 -0.1965  0.3780
  606SOL     MW 2424   2.532   1.813   1.910  0.2558  0.4577  0.7593
  607SOL     OW 2425   2.348   1.019   2.956 -0.0672  0.1885  0.0140
  607SOL    HW1 2426   2.426   1.005   2.904  2.1369 -0.8568  0.3198
  607SOL    HW2 2427   2.375   1.043   3.040 -0.5432 -3.0397  0.2823
  607SOL     MW 2428   2.362   1.020   2.960  0.1608 -0.3753  0.0898
  608SOL     OW 2429   1.892   0.249   0.637 -0.1334  0.2853 -0.2968
  608SOL    HW1 2430   1.947   0.285   0.566  0.9760  2.2774 -1.2782
  608SOL    HW2 2431   1.877   0.155   0.627 -1.8324 -0.6251  1.5266
  608SOL     MW 2432   1.897   0.241   0.626 -0.2112  0.4280 -0.1857
  609SOL     OW 2433   2.121   1.920   3.019  0.3569 -0.1737  0.3912
  609SOL    HW1 2434   2.034   1.897   2.988 -0.4442 -0.9111 -2.7394
  609SOL    HW2 2435   2.131   1.892   3.111 -0.6174 -2.4744  0.9999
  609SOL     MW 2436   2.111   1.913   3.027  0.1227 -0.5745  0.0585
  610SOL     OW 2437   1.819   1.079   1.357 -0.4979 -0.0277  0.3996
  610SOL    HW1 2438   1.840   1.020   1.280 -2.5941  0.8804  0.4868
  610SOL    HW2 2439   1.745   1.033   1.411 -0.9593  1.4951 -1.0843
  610SOL     MW 2440   1.812   1.065   1.354 -0.8354  0.2930  0.2153
  611SOL     OW 2441   2.498   1.752   0.716 -0.5167 -0.4466  0.0635
  611SOL    HW1 2442   2.442   1.831   0.722  3.1696 -1.3235 -2.0245
  611SOL    HW2 2443   2.499   1.713   0.629  1.0041  1.7867  2.1189
  611SOL     MW 2444   2.491   1.757   0.706  0.1703 -0.2676  0.0592
  612SOL     OW 2445   2.781   2.770   0.426 -0.0721  0.3486 -0.1300
  612SOL    HW1 2446   2.825   2.848   0.472  1.2467 -0.2185  1.5058
  612SOL    HW2 2447   2.853   2.740   0.370 -1.0404  1.5758 -1.5392
  612SOL     MW 2448   2.796   2.776   0.424 -0.0259  0.4357 -0.1001
  613SOL     OW 2449   1.620   1.009   1.105  0.3578 -0.3864 -0.1280
  613SOL    HW1 2450   1.616   1.102   1.136 -1.5383  1.2263  0.6294
  613SOL    HW2 2451   1.711   0.989   1.092  0.7703  2.4435  2.6218
  613SOL     MW 2452   1.631   1.019   1.107  0.1620  0.1997  0.3347
  614SOL     OW 2453   1.975   0.541   1.541 -0.0480  0.2878 -0.0786
  614SOL    HW1 2454   1.976   0.454   1.591  2.7952  0.5144 -0.3046
  614SOL    HW2 2455   2.034   0.528   1.469 -1.2971 -1.6580  1.3181
  614SOL     MW 2456   1.983   0.528   1.538  0.1623  0.0610  0.0759
  615SOL     OW 2457   2.238   0.823   0.169 -0.0794  0.5783  0.3398
  615SOL    HW1 2458   2.309   0.784   0.228  0.5038  0.5873  0.4427
  615SOL    HW2 2459   2.247   0.784   0.081 -1.6538 -1.4975  2.1451
  615SOL     MW 2460   2.249   0.813   0.165 -0.2102  0.3056  0.5916
  616SOL     OW 2461   2.623   0.380   1.629  0.2197  0.6909 -0.0888
  616SOL    HW1 2462   2.558   0.340   1.567 -0.7274  0.2856  0.1214
  616SOL    HW2 2463   2.598   0.470   1.637 -0.0311  0.5028 -0.8396
  616SOL     MW 2464   2.611   0.387   1.622  0.0617  0.6126 -0.1601
  617SOL     OW 2465   2.914   0.556   1.766 -0.4691 -0.1838 -0.1152
  617SOL    HW1 2466   2.817   0.580   1.779  0.1667  1.8817 -1.1489
  617SOL    HW2 2467   2.920   0.460   1.749  1.4409 -0.7246  0.8832
  617SOL     MW 2468   2.902   0.546   1.765 -0.1332  0.0174 -0.1198
  618SOL     OW 2469   2.655   0.362   1.940 -0.3257  0.1459  0.2775
  618SOL    HW1 2470   2.650   0.457   1.921 -3.0753 -0.2955  0.8771
  618SOL    HW2 2471   2.746   0.349   1.960 -0.9407  0.4631 -1.6800
  618SOL     MW 2472   2.666   0.373   1.940 -0.7697  0.1295  0.0983
  619SOL     OW 2473   2.589   0.871   0.131  0.1729  0.6177 -0.1804
  619SOL    HW1 2474   2.679   0.886   0.159 -1.0141  0.5823  0.0479
  619SOL    HW2 2475   2.541   0.847   0.210 -0.2817  2.0229 -1.8843
  619SOL     MW 2476   2.594   0.870   0.145 -0.0437  0.7984 -0.3751
  620SOL     OW 2477   2.295   1.121   0.923 -0.0329 -0.6578 -0.3217
  620SOL    HW1 2478   2.375   1.131   0.876 -0.3003 -0.9335  0.3907
  620SOL    HW2 2479   2.274   1.030   0.916  1.3031  1.8139  2.7749
  620SOL     MW 2480   2.303   1.110   0.916  0.1081 -0.3681  0.1809
  621SOL     OW 2481   1.516   2.135   1.995 -0.3483 -0.0903 -0.2344
  621SOL    HW1 2482   1.424   2.104   2.007 -0.5929 -2.6339 -1.4184
  621SOL    HW2 2483   1.558   2.130   2.079 -0.3155  1.3262  1.0926
  621SOL     MW 2484   1.509   2.130   2.007 -0.3762 -0.2390 -0.2155
  622SOL     OW 2485   2.624   0.207   0.142 -0.0592 -0.4506  0.5287
  622SOL    HW1 2486   2.711   0.239   0.181 -0.9435  3.0736 -1.9003
  622SOL    HW2 2487   2.615   0.113   0.125 -0.9879 -1.9115  0.3694
  622SOL     MW 2488   2.634   0.199   0.145 -0.2984 -0.1784  0.1872
  623SOL     OW 2489   2.389   2.766   0.834 -0.2137  0.1187  0.3969
  623SOL    HW1 2490   2.414   2.859   0.849 -0.0951 -0.3469  0.4341
  623SOL    HW2 2491   2.312   2.762   0.891  2.9897 -1.9987  0.7690
  623SOL     MW 2492   2.383   2.778   0.843  0.2246 -0.2221  0.4509
  624SOL     OW 2493   2.203   1.625   2.947  0.2263 -0.0244  0.8018
  624SOL    HW1 2494   2.140   1.578   3.003  0.4005  0.5729 -0.8462
  624SOL    HW2 2495   2.169   1.714   2.930 -0.0947  0.8429  0.6096
  624SOL     MW 2496   2.190   1.630   2.952  0.2069  0.1689  0.5590
  625SOL     OW 2497   2.199   1.920   1.068  0.2606 -0.0721 -0.3419
  625SOL    HW1 2498   2.265   1.891   1.129  0.4681  0.2936  0.5674
  625SOL    HW2 2499   2.238   1.922   0.985 -0.4348 -2.8225  0.9066
  625SOL     MW 2500   2.213   1.917   1.065  0.1962 -0.3867 -0.0572
  626SOL     OW 2501   0.142   1.583   2.390  0.2657 -0.1115 -0.2930
  626SOL    HW1 2502   0.094   1.500   2.380  0.1067 -1.3536  0.2758
  626SOL    HW2 2503   0.122   1.603   2.477  0.2910 -0.4305 -0.5273
  626SOL     MW 2504   0.133   1.575   2.400  0.2481 -0.3174 -0.2489
  627SOL     OW 2505   2.439   0.833   2.571 -0.6507 -0.0877 -0.6074
  627SOL    HW1 2506   2.386   0.916   2.564  1.4750  0.2756 -0.8105
  627SOL    HW2 2507   2.418   0.788   2.486 -0.7455  1.5216 -1.7581
  627SOL     MW 2508   2.429   0.838   2.559 -0.3827  0.1726 -0.7860
  628SOL     OW 2509   2.339   1.367   1.387 -0.0023  0.2679  0.1256
  628SOL    HW1 2510   2.311   1.292   1.326  1.4844 -0.5959  0.4133
  628SOL    HW2 2511   2.421   1.405   1.356 -1.5401 -0.3612 -1.9334
  628SOL     MW 2512   2.346   1.362   1.375 -0.0091  0.0709 -0.1081
  629SOL     OW 2513   2.027   0.568   1.206 -0.4263  0.1646 -0.1184
  629SOL    HW1 2514   2.078   0.639   1.169 -2.6342 -0.8357  1.3148
  629SOL    HW2 2515   1.949   0.614   1.245 -2.1089 -0.6234 -1.8071
  629SOL     MW 2516   2.023   0.584   1.206 -0.9396 -0.0714 -0.1521
  630SOL     OW 2517   2.490   1.808   3.089  0.1719 -0.0289  0.3225
  630SOL    HW1 2518   2.456   1.890   3.045  1.9408  1.7763  1.8477
  630SOL    HW2 2519   2.421   1.759   3.122  2.0383  1.8315 -1.7240
  630SOL     MW 2520   2.476   1.812   3.088  0.6515  0.4548  0.2537
  631SOL     OW 2521   1.979   1.781   1.611  0.1760  0.9079  0.1696
  631SOL    HW1 2522   1.951   1.697   1.661 -0.1924 -1.4170 -0.5248
  631SOL    HW2 2523   1.959   1.758   1.523 -0.8403 -1.2000 -2.3433
  631SOL     MW 2524   1.973   1.767   1.606 -0.0067  0.3230 -0.2536
  632SOL     OW 2525   0.212   2.080   1.571  0.3863 -0.3802 -0.0524
  632SOL    HW1 2526   0.178   2.107   1.652  2.1169 -0.3366 -1.2613
  632SOL    HW2 2527   0.179   1.987   1.559  0.6373  1.9340  0.7133
  632SOL     MW 2528   0.203   2.071   1.580  0.6477 -0.0691 -0.1109
  633SOL     OW 2529   2.424   0.712   0.366  0.0830  0.2088  0.2397
  633SOL    HW1 2530   2.506   0.717   0.418  0.9432 -0.6879  0.6766
  633SOL    HW2 2531   2.396   0.617   0.353 -0.5216 -2.8413  0.1003
  633SOL     MW 2532   2.431   0.700   0.371  0.1167 -0.3120  0.2789
  634SOL     OW 2533   2.634   3.077   0.600 -0.1455 -0.1157  0.1172
  634SOL    HW1 2534   2.648   3.170   0.576 -2.4481 -0.2892 -0.8492
  634SOL    HW2 2535   2.596   3.035   0.524  1.8799  0.3372  1.3817
  634SOL     MW 2536   2.631   3.084   0.587 -0.1821 -0.0788  0.1565
  635SOL     OW 2537   2.596   0.116   1.836 -0.5762 -0.2368 -0.4898
  635SOL    HW1 2538   2.679   0.082   1.805 -0.0842  1.0288 -0.4838
  635SOL    HW2 2539   2.621   0.205   1.856 -2.7794  1.7331 -0.6913
  635SOL     MW 2540   2.610   0.123   1.835 -0.8020  0.1901 -0.5156
  636SOL     OW 2541   2.916   1.647   1.027 -0.0563 -0.5328 -0.6471
  636SOL    HW1 2542   2.867   1.701   0.967  1.0678  1.0811  0.3477
  636SOL    HW2 2543   2.946   1.701   1.104 -3.3506 -2.2769  0.1236
  636SOL     MW 2544   2.914   1.662   1.029 -0.3427 -0.5500 -0.4141
  637SOL     OW 2545   2.905   1.492   0.700 -0.1746  0.2006  0.0492
  637SOL    HW1 2546   2.938   1.579   0.695 -1.2858  1.2686 -1.8673
  637SOL    HW2 2547   2.823   1.506   0.745 -1.2800 -1.0489 -1.2705
  637SOL     MW 2548   2.899   1.506   0.705 -0.4671  0.1767 -0.3778
  638SOL     OW 2549   2.658   0.680   0.516 -0.5627  0.2820  0.3711
  638SOL    HW1 2550   2.746   0.641   0.499  1.6269  0.0959  1.7584
  638SOL    HW2 2551   2.640   0.657   0.608  1.3634  0.8024  0.6229
  638SOL     MW 2552   2.667   0.672   0.526 -0.0197  0.3262  0.5874
  639SOL     OW 2553   1.854   3.070   0.618 -0.7953  0.1358  0.0637
  639SOL    HW1 2554   1.761   3.101   0.619 -3.5918 -0.1336  0.9927
  639SOL    HW2 2555   1.876   3.082   0.523 -1.2642 -0.1852 -3.4645
  639SOL     MW 2556   1.845   3.076   0.606 -1.2261  0.0579 -0.2793
  640SOL     OW 2557   0.387   1.370   0.096 -0.0265 -0.0275 -0.1091
  640SOL    HW1 2558   0.398   1.431   0.022 -1.0562 -0.8392 -0.2701
  640SOL    HW2 2559   0.372   1.280   0.056 -0.3597 -0.5594 -0.2198
  640SOL     MW 2560   0.386   1.366   0.081 -0.2063 -0.2048 -0.1449
  641SOL     OW 2561   2.317   0.436   0.377 -0.2857 -0.0729  0.0723
  641SOL    HW1 2562   2.325   0.353   0.324  1.0901 -1.0480 -0.5006
  641SOL    HW2 2563   2.371   0.419   0.459 -1.2482 -1.1039  2.6927
  641SOL     MW 2564   2.325   0.423   0.381 -0.2312 -0.3376  0.3425
  642SOL     OW 2565   3.086   0.010   0.494  0.2108 -0.1763  0.2941
  642SOL    HW1 2566   3.055   0.099   0.506  0.4716 -0.7306  0.9369
  642SOL    HW2 2567   3.027  -0.042   0.546  0.4657  1.1586  0.9588
  642SOL     MW 2568   3.074   0.015   0.502  0.2788 -0.0733  0.4666
  643SOL     OW 2569   2.041   0.292   1.627 -0.4692 -0.0303  0.2786
  643SOL    HW1 2570   2.121   0.293   1.678 -0.3749 -0.4088 -1.0635
  643SOL    HW2 2571   2.068   0.243   1.554  0.3948  2.2262  1.4739
  643SOL     MW 2572   2.055   0.286   1.624 -0.3428  0.2175  0.2592
  644SOL     OW 2573   2.710   1.861   0.932 -0.0098  0.1248  0.6249
  644SOL    HW1 2574   2.678   1.794   0.995  1.1693  0.4971 -1.5575
  644SOL    HW2 2575   2.649   1.869   0.857 -1.9178  2.0387  0.5596
  644SOL     MW 2576   2.697   1.853   0.931 -0.1060  0.4264  0.3283
  645SOL     OW 2577   2.748   0.915   0.630  0.0467 -0.5531  0.1441
  645SOL    HW1 2578   2.813   0.888   0.696 -0.1407  0.3205 -0.3721
  645SOL    HW2 2579   2.711   0.835   0.596 -0.7369  1.1413 -0.2199
  645SOL     MW 2580   2.752   0.901   0.635 -0.0814 -0.2143  0.0280
  646SOL     OW 2581   0.135   2.306   0.873  0.2736 -0.0743 -0.3474
  646SOL    HW1 2582   0.170   2.218   0.886  2.6007 -0.3763 -1.8688
  646SOL    HW2 2583   0.097   2.321   0.786  1.8861 -3.0278  2.2307
  646SOL     MW 2584   0.135   2.296   0.863  0.7934 -0.5039 -0.2080
  647SOL     OW 2585   2.741   0.566   3.002  0.1968 -0.3695 -0.3557
  647SOL    HW1 2586   2.699   0.488   2.999 -0.9685  1.2870  0.4367
  647SOL    HW2 2587   2.667   0.630   3.017  0.8142  0.9599 -0.2004
  647SOL     MW 2588   2.726   0.564   3.003  0.1245  0.0244 -0.2306
  648SOL     OW 2589   2.219   0.739   1.097  0.1119  0.0361  0.1475
  648SOL    HW1 2590   2.198   0.783   1.013  1.1039  0.5811 -3.5145
  648SOL    HW2 2591   2.239   0.808   1.162 -2.5018  2.1609 -0.9258
  648SOL     MW 2592   2.219   0.754   1.094 -0.1020  0.3884 -0.4773
  649SOL     OW 2593   2.371   2.682   1.198  0.2923  0.0003  0.0895
  649SOL    HW1 2594   2.445   2.730   1.237  0.1373  1.1120  0.6089
  649SOL    HW2 2595   2.402   2.591   1.198 -0.0914 -0.2094 -0.3792
  649SOL     MW 2596   2.385   2.676   1.203  0.2212  0.1193  0.0962
  650SOL     OW 2597   2.767   0.248   0.618 -0.0753  0.0728 -0.3041
  650SOL    HW1 2598   2.781   0.280   0.706  1.1852 -1.4275 -2.2005
  650SOL    HW2 2599   2.850   0.267   0.575 -0.7136 -1.2114 -0.1812
  650SOL     MW 2600   2.780   0.255   0.624  0.0068 -0.2946 -0.5381
  651SOL     OW 2601   2.999   0.301   0.835 -0.8425  0.0305  0.4507
  651SOL    HW1 2602   3.064   0.329   0.766  1.1502  0.1529  0.0678
  651SOL    HW2 2603   2.942   0.375   0.851  0.3895  0.5004 -2.0175
  651SOL     MW 2604   3.000   0.314   0.828 -0.4171  0.1087  0.0745
  652SOL     OW 2605   2.395   1.425   2.985 -0.1772 -0.0477 -0.2619
  652SOL    HW1 2606   2.438   1.427   2.901  0.4870  0.1958 -2.0223
  652SOL    HW2 2607   2.340   1.504   2.976 -1.5459 -0.0842 -1.7645
  652SOL     MW 2608   2.393   1.436   2.973 -0.2702 -0.0204 -0.6924
  653SOL     OW 2609   1.973   0.365   0.398 -0.1123 -0.2617 -0.6650
  653SOL    HW1 2610   1.951   0.282   0.355  0.9711  0.9334  0.7138
  653SOL    HW2 2611   2.061   0.398   0.364  1.0914 -0.9594 -2.1195
  653SOL     MW 2612   1.982   0.358   0.388  0.1894 -0.1961 -0.6750
  654SOL     OW 2613   2.467   1.016   0.707  0.1117  0.6216 -0.0981
  654SOL    HW1 2614   2.379   1.015   0.668  0.9611  1.0159 -1.5404
  654SOL    HW2 2615   2.468   0.956   0.777  0.5902  2.2558 -0.2947
  654SOL     MW 2616   2.456   1.008   0.711  0.2869  0.8892 -0.3143
  655SOL     OW 2617   3.072   0.915   0.441 -0.2811  0.2774  0.0655
  655SOL    HW1 2618   3.129   0.963   0.503  0.7206 -0.1983  0.8498
  655SOL    HW2 2619   3.082   0.824   0.468 -0.7766 -2.3897 -1.4672
  655SOL     MW 2620   3.080   0.909   0.453 -0.2143 -0.1372 -0.0332
  656SOL     OW 2621   1.978   2.739   1.209  0.4971  0.6067 -0.6178
  656SOL    HW1 2622   1.958   2.820   1.256 -1.3561  1.2943  1.7323
  656SOL    HW2 2623   2.004   2.679   1.282 -2.0503  0.9943  4.4158
  656SOL     MW 2624   1.979   2.742   1.225 -0.0835  0.7486  0.3564
  657SOL     OW 2625   0.202   1.584   1.261  0.3662 -0.2600 -0.0994
  657SOL    HW1 2626   0.115   1.558   1.293  0.6950 -2.2732 -3.6398
  657SOL    HW2 2627   0.187   1.605   1.169  1.7515 -1.1948  1.4475
  657SOL     MW 2628   0.189   1.583   1.253  0.5923 -0.6490 -0.3624
  658SOL     OW 2629   2.686   1.365   0.241 -0.0424  0.4478  0.2613
  658SOL    HW1 2630   2.637   1.288   0.272 -1.7186  0.2297  0.1965
  658SOL    HW2 2631   2.726   1.410   0.315  0.3193 -1.1089 -2.0241
  658SOL     MW 2632   2.685   1.361   0.255 -0.2158  0.2137 -0.0488
  659SOL     OW 2633   2.203   1.562   1.017 -0.0902 -0.1795  0.5596
  659SOL    HW1 2634   2.294   1.536   1.006  2.7657 -2.1242  1.9914
  659SOL    HW2 2635   2.202   1.575   1.116 -0.1771 -0.9908 -1.2667
  659SOL     MW 2636   2.215   1.561   1.029  0.2752 -0.5431  0.5075
  660SOL     OW 2637   2.018   1.524   1.765 -0.4415 -0.7308 -0.9655
  660SOL    HW1 2638   2.058   1.538   1.853 -0.7023 -0.9519 -2.0773
  660SOL    HW2 2639   1.994   1.440   1.778  1.9803  4.2569  0.9957
  660SOL     MW 2640   2.020   1.515   1.778 -0.1563 -0.1019 -0.8534
  661SOL     OW 2641   2.341   1.063   0.140  0.0892  0.3144  0.1840
  661SOL    HW1 2642   2.403   1.070   0.218  1.2101  3.6708  1.8624
  661SOL    HW2 2643   2.301   0.978   0.147  0.3397  0.3376  0.5146
  661SOL     MW 2644   2.344   1.053   0.151  0.2702  0.7603  0.4491
  662SOL     OW 2645   2.539   2.995   0.865 -0.0579  0.3137 -0.3487
  662SOL    HW1 2646   2.511   3.067   0.924 -1.7670  1.0482  1.7002
  662SOL    HW2 2647   2.572   3.041   0.786 -2.6406  3.1202  1.0566
  662SOL     MW 2648   2.539   3.011   0.862 -0.6241  0.7809  0.1071
  663SOL     OW 2649   2.816   1.547   0.455 -0.3124  0.1817  0.5286
  663SOL    HW1 2650   2.900   1.565   0.407  4.0786  0.5781 -0.5559
  663SOL    HW2 2651   2.840   1.516   0.544 -0.2755  0.6170  2.1035
  663SOL     MW 2652   2.831   1.545   0.460  0.2718  0.2915  0.5933
  664SOL     OW 2653   2.459   1.588   1.616  0.4577 -0.4664 -0.4439
  664SOL    HW1 2654   2.441   1.679   1.592 -1.8324  0.2442 -0.2341
  664SOL    HW2 2655   2.380   1.539   1.631 -2.0984 -0.3006 -2.9513
  664SOL     MW 2656   2.446   1.593   1.615 -0.1817 -0.3507 -0.7471
  665SOL     OW 2657   2.867   0.819   2.016  0.8313 -0.4305  0.1182
  665SOL    HW1 2658   2.850   0.850   1.927  0.5257  2.5848  1.0361
  665SOL    HW2 2659   2.930   0.750   2.005 -1.3665 -2.2223 -2.1219
  665SOL     MW 2660   2.873   0.814   2.003  0.5010 -0.2691 -0.0563
  666SOL     OW 2661   2.817   2.999   1.694  0.3558 -0.6787  0.0480
  666SOL    HW1 2662   2.796   2.983   1.599 -1.4440  0.9169  1.4214
  666SOL    HW2 2663   2.765   2.934   1.746 -0.0649 -0.0500 -0.9900
  666SOL     MW 2664   2.807   2.988   1.689  0.0628 -0.3852  0.0922
  667SOL     OW 2665   1.934   2.667   1.666  0.4265  0.0540 -0.7775
  667SOL    HW1 2666   1.975   2.612   1.729 -0.7277  2.5500  0.0828
  667SOL    HW2 2667   2.007   2.726   1.640 -0.3892 -0.8458  0.0755
  667SOL     MW 2668   1.949   2.668   1.671  0.1666  0.2646 -0.5515
  668SOL     OW 2669   2.702   0.650   0.787  0.1502  0.2150  0.5805
  668SOL    HW1 2670   2.766   0.653   0.856 -0.2855  2.9141 -1.6757
  668SOL    HW2 2671   2.615   0.680   0.820  2.0680  0.7026 -2.3151
  668SOL     MW 2672   2.699   0.655   0.800  0.3458  0.6355 -0.0992
  669SOL     OW 2673   0.154   0.937   0.719 -0.0977 -0.3411 -0.4339
  669SOL    HW1 2674   0.080   0.995   0.752 -0.4415  0.9883  1.2625
  669SOL    HW2 2675   0.234   0.962   0.762  4.1687 -2.4745 -0.9079
  669SOL     MW 2676   0.155   0.948   0.729  0.4199 -0.4472 -0.2726
  670SOL     OW 2677   2.851   0.295   0.253 -0.3362 -0.2602  0.3241
  670SOL    HW1 2678   2.887   0.227   0.195 -3.4470 -1.1318  1.5332
  670SOL    HW2 2679   2.867   0.378   0.207  2.1337 -2.7046 -2.2502
  670SOL     MW 2680   2.858   0.297   0.239 -0.4207 -0.6977  0.1440
  671SOL     OW 2681   2.167   3.088   1.607  0.8648  0.3409  0.2691
  671SOL    HW1 2682   2.135   3.114   1.517 -1.9716  3.8474  3.1841
  671SOL    HW2 2683   2.088   3.080   1.666 -0.4480 -0.0368 -2.6637
  671SOL     MW 2684   2.152   3.091   1.603  0.3174  0.7537  0.2667
  672SOL     OW 2685   1.905   1.700   1.351 -0.3812  0.1486  0.0470
  672SOL    HW1 2686   1.821   1.728   1.383  0.7334  1.3546  1.1854
  672SOL    HW2 2687   1.908   1.743   1.261 -0.0545  2.8298 -1.4808
  672SOL     MW 2688   1.894   1.709   1.343 -0.1910  0.6615 -0.0044
  673SOL     OW 2689   2.767   1.134   0.485 -0.2514 -0.2501 -0.1500
  673SOL    HW1 2690   2.784   1.052   0.530  1.9670  0.0487 -0.1966
  673SOL    HW2 2691   2.857   1.161   0.502  1.5449 -1.7226 -0.5824
  673SOL     MW 2692   2.781   1.127   0.493  0.2783 -0.4050 -0.2132
  674SOL     OW 2693   2.404   0.028   1.288  0.5516 -0.5667 -0.1835
  674SOL    HW1 2694   2.409   0.074   1.203 -1.2823 -0.1547  0.0149
  674SOL    HW2 2695   2.432  -0.066   1.273 -1.2519 -0.4047 -0.6185
  674SOL     MW 2696   2.408   0.022   1.275  0.0717 -0.4909 -0.2147
  675SOL     OW 2697   2.959   1.003   1.102  0.0178  0.6472  0.2068
  675SOL    HW1 2698   3.016   0.934   1.130  1.9958  0.7761 -0.3329
  675SOL    HW2 2699   2.999   1.032   1.017  1.5866  0.9070 -3.1246
  675SOL     MW 2700   2.972   0.997   1.094  0.4858  0.6985 -0.3039
  676SOL     OW 2701   2.851   1.510   1.646 -0.3196 -0.8206 -0.4387
  676SOL    HW1 2702   2.806   1.428   1.640 -1.2966  1.0497 -1.8715
  676SOL    HW2 2703   2.914   1.500   1.714  1.2782  1.7535  1.4624
  676SOL     MW 2704   2.853   1.497   1.654 -0.2377 -0.2342 -0.3769
  677SOL     OW 2705   2.475   0.853   1.829 -0.1897 -0.1905  0.3312
  677SOL    HW1 2706   2.392   0.830   1.795 -1.4623  0.4639  0.4804
  677SOL    HW2 2707   2.455   0.842   1.918  2.9563  2.1201 -1.6242
  677SOL     MW 2708   2.461   0.849   1.836  0.0575  0.2007  0.0929
  678SOL     OW 2709   2.510   1.589   0.500 -0.1764  0.1559 -1.0927
  678SOL    HW1 2710   2.456   1.615   0.427 -0.9262  2.8759  0.3783
  678SOL    HW2 2711   2.596   1.571   0.466 -0.2921 -0.6549  1.7861
  678SOL     MW 2712   2.514   1.590   0.486 -0.2906  0.4078 -0.5188
  679SOL     OW 2713   2.398   0.511   1.186 -0.1851 -0.6836 -0.1983
  679SOL    HW1 2714   2.336   0.435   1.186  0.8454 -1.4962  0.4705
  679SOL    HW2 2715   2.347   0.587   1.164 -0.7205 -0.4881 -1.6735
  679SOL     MW 2716   2.383   0.511   1.183 -0.1198 -0.7650 -0.3047
  680SOL     OW 2717   2.425   0.250   1.488 -0.1968  0.1177 -0.6175
  680SOL    HW1 2718   2.393   0.206   1.566 -0.7875  3.6202 -1.0843
  680SOL    HW2 2719   2.401   0.191   1.419 -1.5578  0.6321  3.9594
  680SOL     MW 2720   2.418   0.236   1.489 -0.4543  0.6477 -0.0752
  681SOL     OW 2721   0.272   0.494   1.552 -0.2347 -0.0630  0.4627
  681SOL    HW1 2722   0.271   0.404   1.599 -0.5028 -0.2751 -1.0113
  681SOL    HW2 2723   0.366   0.521   1.557 -0.0271 -0.3997  0.9982
  681SOL     MW 2724   0.284   0.485   1.559 -0.2427 -0.1354  0.3389
  682SOL     OW 2725   0.122   3.001   1.483 -0.8397  0.5675 -0.1623
  682SOL    HW1 2726   0.126   3.100   1.453 -3.7597 -1.6500 -1.1643
  682SOL    HW2 2727   0.093   3.004   1.573  2.9362 -0.9173 -0.2081
  682SOL     MW 2728   0.119   3.014   1.491 -0.7268  0.0790 -0.3005
  683SOL     OW 2729   1.962   0.801   2.971  0.4527  0.3161 -0.2673
  683SOL    HW1 2730   1.866   0.787   2.939  0.4873  1.0411 -1.2980
  683SOL    HW2 2731   1.973   0.898   2.991  1.8300  2.1208  0.1304
  683SOL     MW 2732   1.951   0.812   2.969  0.6390  0.6498 -0.3508
  684SOL     OW 2733   2.110   1.736   0.793 -0.0243  0.1720 -0.3783
  684SOL    HW1 2734   2.019   1.718   0.796  0.7126  1.5547  0.0498
  684SOL    HW2 2735   2.152   1.688   0.865  1.7723  0.4628 -0.5985
  684SOL     MW 2736   2.103   1.727   0.803  0.3100  0.3928 -0.3509
  685SOL     OW 2737   2.641   1.726   1.190 -0.1702 -0.0379  0.0828
  685SOL    HW1 2738   2.719   1.728   1.248 -0.9248 -0.0023 -0.7742
  685SOL    HW2 2739   2.613   1.633   1.195  0.7627  0.3241 -0.8008
  685SOL     MW 2740   2.647   1.714   1.198 -0.1467  0.0146 -0.1469
  686SOL     OW 2741   2.965   0.712   1.508 -0.0673  0.1906  0.3157
  686SOL    HW1 2742   2.953   0.669   1.590 -1.5977  0.0027 -2.0407
  686SOL    HW2 2743   3.054   0.683   1.487 -1.6375  0.6832  1.8013
  686SOL     MW 2744   2.975   0.702   1.516 -0.4764  0.2308  0.2008
  687SOL     OW 2745   2.183   0.331   1.215 -0.0708  0.4597 -0.6835
  687SOL    HW1 2746   2.161   0.269   1.145  0.0906 -1.4734 -1.2939
  687SOL    HW2 2747   2.121   0.402   1.214  1.8337 -0.0219 -1.7781
  687SOL     MW 2748   2.172   0.332   1.205  0.2018  0.1411 -0.9084
  688SOL     OW 2749   2.360   0.525   1.484  0.1110 -0.0197 -0.2142
  688SOL    HW1 2750   2.360   0.433   1.510 -3.7747  1.0130 -2.8365
  688SOL    HW2 2751   2.366   0.520   1.390 -0.4941  3.0834  1.1666
  688SOL     MW 2752   2.361   0.512   1.475 -0.4815  0.5260 -0.3780
  689SOL     OW 2753   2.563   0.767   2.982 -0.0315 -0.3289  0.2754
  689SOL    HW1 2754   2.599   0.845   2.935 -1.5353 -0.6337  2.4316
  689SOL    HW2 2755   2.566   0.800   3.072 -3.3974 -2.7438  2.4285
  689SOL     MW 2756   2.568   0.781   2.988 -0.6740 -0.6878  0.8440
  690SOL     OW 2757   2.058   1.025   1.974  0.0691 -0.0996  0.6689
  690SOL    HW1 2758   2.008   0.947   1.989 -0.2402 -0.8197 -0.4941
  690SOL    HW2 2759   2.105   0.999   1.896 -2.3721 -0.0746  2.3139
  690SOL     MW 2760   2.058   1.012   1.966 -0.2938 -0.1913  0.7325
  691SOL     OW 2761   2.439   0.353   0.856 -0.1573 -0.3624 -0.2860
  691SOL    HW1 2762   2.510   0.421   0.859 -0.8221 -0.2985  3.4698
  691SOL    HW2 2763   2.368   0.400   0.819 -0.2678 -0.3446 -0.2576
  691SOL     MW 2764   2.439   0.368   0.852 -0.2596 -0.3516  0.2133
  692SOL     OW 2765   2.801   1.657   1.426 -0.8373  0.0512  0.6249
  692SOL    HW1 2766   2.827   1.607   1.504  1.0636 -1.6440  2.7847
  692SOL    HW2 2767   2.832   1.751   1.442 -1.6407 -2.5775 -1.0388
  692SOL     MW 2768   2.809   1.663   1.439 -0.6925 -0.5193  0.6904
  693SOL     OW 2769   2.313   0.451   0.082 -0.6557  0.1635 -0.4131
  693SOL    HW1 2770   2.246   0.390   0.082 -0.5953 -0.1144  0.2805
  693SOL    HW2 2771   2.280   0.536   0.050  1.5176 -0.2733 -0.6889
  693SOL     MW 2772   2.300   0.454   0.078 -0.3610  0.0692 -0.3580
  694SOL     OW 2773   1.976   1.289   1.205  0.1718  0.5853  0.1395
  694SOL    HW1 2774   2.062   1.263   1.228 -1.0983  0.6601 -0.0490
  694SOL    HW2 2775   1.914   1.227   1.247 -1.0988 -0.5713 -2.2792
  694SOL     MW 2776   1.979   1.277   1.214 -0.1634  0.4426 -0.2045
  695SOL     OW 2777   3.046   1.533   1.332 -0.0930 -0.1002 -0.5496
  695SOL    HW1 2778   3.010   1.467   1.270 -0.4282 -1.7621 -0.3606
  695SOL    HW2 2779   2.972   1.568   1.378  0.3293  0.9260 -0.3129
  695SOL     MW 2780   3.032   1.529   1.330 -0.0815 -0.1841 -0.4935
  696SOL     OW 2781   2.017   1.372   0.946  0.1206  0.4285  0.0625
  696SOL    HW1 2782   2.075   1.439   0.987 -0.9767  2.9225 -0.5793
  696SOL    HW2 2783   1.987   1.320   1.020 -0.4268 -2.3885 -2.1131
  696SOL     MW 2784   2.020   1.374   0.961 -0.0964  0.3859 -0.3092
  697SOL     OW 2785   2.871   0.956   2.255  0.2911 -1.1782 -0.0463
  697SOL    HW1 2786   2.841   1.044   2.263 -0.1105 -0.2003  1.7718
  697SOL    HW2 2787   2.900   0.946   2.162 -2.1773  0.3946  0.8204
  697SOL     MW 2788   2.871   0.966   2.244 -0.0876 -0.8417  0.3079
  698SOL     OW 2789   2.546   0.396   3.059 -0.1560 -1.0536  0.6904
  698SOL    HW1 2790   2.471   0.431   3.110  1.4665 -0.6761 -1.7368
  698SOL    HW2 2791   2.596   0.347   3.123  1.2913 -0.9128  0.4269
  698SOL     MW 2792   2.543   0.394   3.074  0.2490 -0.9852  0.3354
  699SOL     OW 2793   1.840   1.618   2.062  0.2659 -0.1725  0.3644
  699SOL    HW1 2794   1.805   1.527   2.071  1.3743  0.9940  2.3001
  699SOL    HW2 2795   1.936   1.615   2.054  0.1548  1.8592  0.9702
  699SOL     MW 2796   1.848   1.606   2.062  0.3975  0.2495  0.6998
  700SOL     OW 2797   2.727   0.884   1.544  0.3937 -0.0601 -0.5474
  700SOL    HW1 2798   2.726   0.979   1.514 -1.0421  1.0610  1.2712
  700SOL    HW2 2799   2.808   0.841   1.515  1.1795  0.4232 -1.4820
  700SOL     MW 2800   2.738   0.891   1.536  0.3080  0.1516 -0.4308
  701SOL     OW 2801   1.669   1.282   2.623 -0.2057 -0.6399  0.3185
  701SOL    HW1 2802   1.762   1.278   2.646  0.6795  1.6457 -1.1036
  701SOL    HW2 2803   1.634   1.343   2.694 -0.3555 -0.4521  1.9600
  701SOL     MW 2804   1.677   1.290   2.635 -0.1087 -0.3136  0.3475
  702SOL     OW 2805   2.218   0.488   0.751  0.0665 -0.6177  0.3111
  702SOL    HW1 2806   2.194   0.404   0.724 -2.2573  1.9950  3.6542
  702SOL    HW2 2807   2.237   0.547   0.679 -0.9156  0.1256  0.0494
  702SOL     MW 2808   2.217   0.485   0.738 -0.3697 -0.1749  0.7177
  703SOL     OW 2809   2.671   1.271   0.992 -0.5392  0.1365 -0.2115
  703SOL    HW1 2810   2.666   1.256   0.893 -0.0316 -0.8706 -0.9517
  703SOL    HW2 2811   2.662   1.180   1.027  0.6114 -2.2306 -4.7579
  703SOL     MW 2812   2.669   1.257   0.983 -0.3205 -0.3087 -0.9090
  704SOL     OW 2813   0.014   1.302   0.250  0.1387 -0.0615  0.4036
  704SOL    HW1 2814  -0.065   1.264   0.216 -1.2209  1.2386  0.0205
  704SOL    HW2 2815   0.073   1.222   0.243  0.5244 -3.0040 -0.0328
  704SOL     MW 2816   0.011   1.287   0.245  0.0102 -0.2782  0.2955
  705SOL     OW 2817   2.220   1.610   1.326 -0.5436 -0.8308 -0.1432
  705SOL    HW1 2818   2.135   1.628   1.371 -0.6977 -0.1195  0.0423
  705SOL    HW2 2819   2.252   1.526   1.343  0.4997  2.0039  1.0907
  705SOL     MW 2820   2.213   1.601   1.334 -0.4263 -0.3630  0.0441
  706SOL     OW 2821   2.998   1.232   0.636  0.3684  0.0311 -0.7048
  706SOL    HW1 2822   3.084   1.201   0.615 -0.1732 -0.4652 -1.0034
  706SOL    HW2 2823   2.976   1.323   0.667 -2.4258  0.1982  2.2316
  706SOL     MW 2824   3.006   1.240   0.637 -0.0717 -0.0123 -0.3567
  707SOL     OW 2825   2.455   0.121   1.022 -0.5660  0.4125  0.3104
  707SOL    HW1 2826   2.473   0.204   0.972 -0.4211 -1.0728 -1.9600
  707SOL    HW2 2827   2.365   0.108   0.998 -0.2555 -3.1100 -0.3792
  707SOL     MW 2828   2.445   0.130   1.012 -0.5059 -0.2482 -0.0801
  708SOL     OW 2829   2.544   1.525   0.079 -0.3895 -0.1433 -0.3318
  708SOL    HW1 2830   2.572   1.452   0.134 -1.4638  0.3894  1.5420
  708SOL    HW2 2831   2.482   1.495   0.006 -2.0473 -3.0343 -2.8090
  708SOL     MW 2832   2.540   1.511   0.077 -0.7500 -0.4545 -0.4114
  709SOL     OW 2833   1.772   1.703   0.139 -0.0424  0.5217  0.1511
  709SOL    HW1 2834   1.743   1.666   0.049 -2.5130  1.7303 -2.5168
  709SOL    HW2 2835   1.708   1.662   0.194 -1.8690 -0.3139 -3.0985
  709SOL     MW 2836   1.760   1.693   0.134 -0.6094  0.5709 -0.6296
  710SOL     OW 2837   2.236   1.192   1.191  0.1928  0.3308 -0.8333
  710SOL    HW1 2838   2.258   1.183   1.102 -1.2595 -1.7885  1.9364
  710SOL    HW2 2839   2.231   1.099   1.210 -0.2173 -1.9253  0.2044
  710SOL     MW 2840   2.238   1.179   1.181 -0.0529 -0.2465 -0.3310
  711SOL     OW 2841   2.343   0.153   1.741  0.5552  0.3097 -0.2899
  711SOL    HW1 2842   2.431   0.134   1.767 -1.6486 -0.8167 -1.3580
  711SOL    HW2 2843   2.308   0.073   1.713  2.6265  1.7557 -1.1122
  711SOL     MW 2844   2.350   0.140   1.741  0.5377  0.3519 -0.5394
  712SOL     OW 2845   1.596   0.634   3.081 -0.1427 -0.5631  0.7658
  712SOL    HW1 2846   1.646   0.680   3.014 -0.2580 -0.7746 -1.5816
  712SOL    HW2 2847   1.501   0.654   3.062  0.2599 -0.2837 -2.4436
  712SOL     MW 2848   1.590   0.642   3.070 -0.1048 -0.5542  0.0327
  713SOL     OW 2849   2.593   0.781   1.152 -0.0624  0.2183 -0.4228
  713SOL    HW1 2850   2.654   0.700   1.140  1.3610 -0.5024  2.2780
  713SOL    HW2 2851   2.556   0.784   1.243 -0.1200 -2.7397 -1.5735
  713SOL     MW 2852   2.596   0.771   1.162  0.1178 -0.2671 -0.2183
  714SOL     OW 2853   2.262   0.170   2.013  0.2064  0.4119 -0.2177
  714SOL    HW1 2854   2.327   0.135   2.074  0.1855 -0.4431 -0.5510
  714SOL    HW2 2855   2.308   0.167   1.924  1.7464  0.6803  1.7505
  714SOL     MW 2856   2.276   0.165   2.009  0.4068  0.3345 -0.0020
  715SOL     OW 2857   1.766   1.943   1.735  0.4564  0.1199 -0.0368
  715SOL    HW1 2858   1.855   1.940   1.695  0.2504  0.0873  2.1935
  715SOL    HW2 2859   1.757   1.863   1.792  1.4232 -0.8185  2.9915
  715SOL     MW 2860   1.777   1.932   1.737  0.5568 -0.0082  0.6570
  716SOL     OW 2861   2.245   0.709   0.603  0.7181  0.1185 -0.0666
  716SOL    HW1 2862   2.314   0.732   0.540  2.1776 -0.9086 -2.9522
  716SOL    HW2 2863   2.166   0.722   0.544  1.3525  3.1164 -0.1814
  716SOL     MW 2864   2.244   0.714   0.587  0.9944  0.3786 -0.4625
  717SOL     OW 2865   2.873   1.423   2.948 -0.4286 -0.1906 -0.2028
  717SOL    HW1 2866   2.959   1.448   2.918  0.8814 -0.7754 -4.3931
  717SOL    HW2 2867   2.848   1.493   3.012  1.2309 -0.3418  2.7867
  717SOL     MW 2868   2.881   1.436   2.952 -0.0368 -0.2877 -0.3612
  718SOL     OW 2869   2.573   1.478   1.298  0.2703 -0.4328  0.5665
  718SOL    HW1 2870   2.591   1.543   1.362  2.4092 -1.7563 -1.3583
  718SOL    HW2 2871   2.649   1.423   1.299 -0.9821  2.8728 -0.5662
  718SOL     MW 2872   2.585   1.479   1.306  0.3873 -0.1713  0.1631
  719SOL     OW 2873   2.137   1.320   0.691 -0.1833 -0.3756 -0.0683
  719SOL    HW1 2874   2.231   1.321   0.671  1.1891  3.9875  0.3120
  719SOL    HW2 2875   2.129   1.339   0.788  1.3284 -3.3345  2.3328
  719SOL     MW 2876   2.149   1.322   0.701  0.1972 -0.1903  0.2987
  720SOL     OW 2877   2.868   1.188   0.155  1.0571 -0.0580  0.4798
  720SOL    HW1 2878   2.840   1.104   0.194 -0.8377  3.8049 -2.1145
  720SOL    HW2 2879   2.806   1.249   0.198 -0.8973 -1.7577  2.0798
  720SOL     MW 2880   2.856   1.185   0.166  0.5493  0.2274  0.3486
  721SOL     OW 2881   2.475   0.781   1.394  0.3577  0.1148  0.2497
  721SOL    HW1 2882   2.471   0.688   1.411 -0.7747  1.8316 -1.2344
  721SOL    HW2 2883   2.535   0.798   1.460  0.4206 -0.9720 -2.4087
  721SOL     MW 2884   2.482   0.771   1.405  0.2166  0.1980 -0.2968
  722SOL     OW 2885   2.521   1.184   0.365  0.6090  0.4471  0.3960
  722SOL    HW1 2886   2.467   1.236   0.428  0.8281  1.7968 -0.4554
  722SOL    HW2 2887   2.593   1.137   0.413  1.2079 -0.5140  2.0410
  722SOL     MW 2888   2.524   1.185   0.379  0.7169  0.4984  0.5007
  723SOL     OW 2889   2.255   1.394   1.634  0.2503  0.3812  0.5559
  723SOL    HW1 2890   2.274   1.364   1.544 -0.5105 -1.0285 -0.3466
  723SOL    HW2 2891   2.161   1.413   1.639 -0.1878 -0.1428  2.1959
  723SOL     MW 2892   2.245   1.392   1.623  0.0921  0.1260  0.6532
  724SOL     OW 2893   2.499   0.368   0.556  0.4901  0.0808 -0.3911
  724SOL    HW1 2894   2.468   0.337   0.641 -2.4247 -0.1619  1.3569
  724SOL    HW2 2895   2.594   0.360   0.560  1.4486  1.1110  0.7922
  724SOL     MW 2896   2.507   0.363   0.568  0.2320  0.1847 -0.0043
  725SOL     OW 2897   2.669   0.512   1.126  0.9947  0.1521 -0.2406
  725SOL    HW1 2898   2.713   0.538   1.212 -0.8307  0.9721  0.2888
  725SOL    HW2 2899   2.580   0.492   1.154 -1.6343  0.8943 -0.9279
  725SOL     MW 2900   2.663   0.513   1.141  0.4070  0.3582 -0.2614
  726SOL     OW 2901   2.563   2.390   0.551 -0.1933 -0.2334 -0.1233
  726SOL    HW1 2902   2.512   2.465   0.532  0.9221  1.1821  3.5022
  726SOL    HW2 2903   2.563   2.383   0.643 -1.2298 -0.1356 -1.4641
  726SOL     MW 2904   2.556   2.399   0.560 -0.1829 -0.0337  0.1781
  727SOL     OW 2905   2.887   0.295   1.666 -0.6342  0.5064  0.2818
  727SOL    HW1 2906   2.920   0.302   1.572 -0.3838  4.3640 -1.1802
  727SOL    HW2 2907   2.793   0.307   1.658  1.4959 -0.8742  0.2822
  727SOL     MW 2908   2.879   0.298   1.653 -0.3201  0.8332  0.0889
  728SOL     OW 2909   2.816   1.155   2.992  1.0409  0.1020 -0.2312
  728SOL    HW1 2910   2.823   1.246   2.967 -0.0848  0.3004 -2.1941
  728SOL    HW2 2911   2.822   1.159   3.092  1.8818  2.5576 -2.9657
  728SOL     MW 2912   2.818   1.168   3.002  1.0034  0.4522 -0.8510
  729SOL     OW 2913   2.470   1.463   1.024  0.3062  0.0932  0.6539
  729SOL    HW1 2914   2.496   1.479   1.119 -1.6688 -0.4825  1.3295
  729SOL    HW2 2915   2.532   1.397   1.007  0.1578 -0.2967  1.3598
  729SOL     MW 2916   2.482   1.457   1.034  0.0261 -0.0342  0.8362
  730SOL     OW 2917   2.074   1.188   0.188  0.0865  0.1361  0.4211
  730SOL    HW1 2918   2.169   1.175   0.193  1.0650 -2.7755 -0.2778
  730SOL    HW2 2919   2.064   1.282   0.200  0.3782  1.9633  0.9114
  730SOL     MW 2920   2.085   1.199   0.190  0.2541 -0.0070  0.3936
  731SOL     OW 2921   2.786   1.792   2.884 -0.5490 -0.6471  0.1222
  731SOL    HW1 2922   2.704   1.816   2.843 -0.4424 -1.5274  0.7322
  731SOL    HW2 2923   2.818   1.884   2.883  0.1301 -0.0515  0.2003
  731SOL     MW 2924   2.780   1.807   2.879 -0.4454 -0.6847  0.2130
  732SOL     OW 2925   2.223   0.933   1.304  0.2768  0.0183  0.6224
  732SOL    HW1 2926   2.147   0.946   1.358 -0.6390 -0.6249  3.0313
  732SOL    HW2 2927   2.277   0.859   1.343 -5.0029 -1.8423 -1.7609
  732SOL     MW 2928   2.220   0.925   1.316 -0.5407 -0.3121  0.6258
  733SOL     OW 2929   2.370   2.859   2.993 -0.1983  0.7173 -0.6234
  733SOL    HW1 2930   2.281   2.903   2.994 -0.9414  2.0952  0.8714
  733SOL    HW2 2931   2.355   2.765   3.003 -0.8125 -1.2679 -0.8395
  733SOL     MW 2932   2.357   2.852   2.995 -0.3774  0.6372 -0.4547
  734SOL     OW 2933   1.509   0.378   2.532 -0.0490 -0.4601 -0.2654
  734SOL    HW1 2934   1.424   0.345   2.577 -1.3175  1.4757  0.2433
  734SOL    HW2 2935   1.543   0.303   2.491 -0.7619 -0.9795 -1.4671
  734SOL     MW 2936   1.502   0.363   2.532 -0.3104 -0.2732 -0.3568
  735SOL     OW 2937   2.970   0.869   2.720  0.2529 -0.1481 -0.3696
  735SOL    HW1 2938   2.876   0.842   2.716  1.3952  0.2763 -0.4207
  735SOL    HW2 2939   2.984   0.886   2.812 -2.1571 -1.9371 -1.4637
  735SOL     MW 2940   2.959   0.868   2.731  0.0856 -0.3281 -0.5207
  736SOL     OW 2941   0.048   0.630   2.470  0.3382 -0.5172  0.1373
  736SOL    HW1 2942   0.108   0.665   2.401  0.0100 -1.5147 -0.8650
  736SOL    HW2 2943   0.031   0.538   2.439 -0.7226 -0.5993 -2.3022
  736SOL     MW 2944   0.054   0.623   2.456  0.1549 -0.6596 -0.3168
  737SOL     OW 2945   2.888   0.618   2.558 -0.1997 -0.2840 -0.0558
  737SOL    HW1 2946   2.842   0.582   2.483  1.3211  2.7324  0.3369
  737SOL    HW2 2947   2.980   0.635   2.523  0.4524  0.2492  0.2457
  737SOL     MW 2948   2.894   0.615   2.543  0.0870  0.1843  0.0358
  738SOL     OW 2949   0.166   0.425   1.918 -0.0964  0.5786  0.4059
  738SOL    HW1 2950   0.238   0.480   1.909 -0.1193 -0.4391 -0.3421
  738SOL    HW2 2951   0.175   0.376   1.839  0.1577  2.2762 -0.3143
  738SOL     MW 2952   0.177   0.426   1.907 -0.0659  0.6683  0.2122
  739SOL     OW 2953   2.554   1.029   2.204 -0.1859 -0.3455 -0.1389
  739SOL    HW1 2954   2.474   1.012   2.155 -0.4854  1.7774 -1.4930
  739SOL    HW2 2955   2.627   1.049   2.145 -0.3048  1.8827  1.5267
  739SOL     MW 2956   2.553   1.029   2.190 -0.2411  0.2286 -0.0978
  740SOL     OW 2957   0.259   1.703   2.953 -0.1868 -0.0467  0.5892
  740SOL    HW1 2958   0.239   1.610   2.959 -2.7436 -0.5805  2.8105
  740SOL    HW2 2959   0.336   1.709   3.012  0.4584 -0.3259 -0.7276
  740SOL     MW 2960   0.266   1.692   2.961 -0.4390 -0.1540  0.7086
  741SOL     OW 2961   2.222   1.280   2.700 -0.1199  0.0553  0.8004
  741SOL    HW1 2962   2.251   1.367   2.669 -1.8575  0.3455  2.6306
  741SOL    HW2 2963   2.196   1.294   2.797  1.3670 -0.4545  2.3085
  741SOL     MW 2964   2.222   1.293   2.709 -0.1530  0.0263  1.2409
  742SOL     OW 2965   1.592   1.373   2.336  0.3378  0.2173  0.2454
  742SOL    HW1 2966   1.548   1.291   2.320  2.5342  1.5856 -0.1504
  742SOL    HW2 2967   1.629   1.363   2.427 -1.7558 -2.3921 -0.9770
  742SOL     MW 2968   1.591   1.361   2.346  0.3514  0.0536  0.0319
  743SOL     OW 2969   2.490   1.211   2.703  0.2349  0.4160  0.2297
  743SOL    HW1 2970   2.398   1.205   2.720  2.5465 -1.3606 -2.3911
  743SOL    HW2 2971   2.536   1.144   2.754  0.3728 -0.6329  3.2589
  743SOL     MW 2972   2.483   1.202   2.712  0.5581  0.0432  0.2836
  744SOL     OW 2973   2.776   0.934   1.807  0.2033 -0.5882 -0.3242
  744SOL    HW1 2974   2.702   0.990   1.835 -2.6509 -2.1513  1.1604
  744SOL    HW2 2975   2.744   0.905   1.719  2.8470 -2.1155 -0.9630
  744SOL     MW 2976   2.762   0.937   1.799  0.1755 -0.9959 -0.2126
  745SOL     OW 2977   1.751   0.491   2.454 -0.3474  0.4272 -0.4775
  745SOL    HW1 2978   1.744   0.525   2.360 -4.0643 -3.0546  2.8346
  745SOL    HW2 2979   1.654   0.477   2.477  0.1629 -1.1718 -2.8559
  745SOL     MW 2980   1.737   0.493   2.444 -0.7705 -0.2432 -0.3543
  746SOL     OW 2981   1.578   1.447   1.714 -0.4632  0.4691 -0.5135
  746SOL    HW1 2982   1.634   1.512   1.754  0.5990  1.0901  1.5141
  746SOL    HW2 2983   1.537   1.410   1.793  0.5821 -0.4197  3.1470
  746SOL     MW 2984   1.580   1.451   1.730 -0.1851  0.4337  0.2370
  747SOL     OW 2985   2.603   1.135   1.907 -0.1706 -0.0187 -0.2435
  747SOL    HW1 2986   2.520   1.121   1.854 -2.6552  1.2760 -0.3627
  747SOL    HW2 2987   2.599   1.229   1.940 -2.2324  1.7840 -0.5139
  747SOL     MW 2988   2.591   1.145   1.904 -0.7705  0.3900 -0.2949
  748SOL     OW 2989   0.112   3.083   1.967 -0.4725  1.0963 -0.2344
  748SOL    HW1 2990   0.202   3.098   1.926  1.1687  0.5738 -2.8670
  748SOL    HW2 2991   0.081   3.160   2.019 -3.9383  1.7107  0.5328
  748SOL     MW 2992   0.120   3.095   1.968 -0.7132  1.1085 -0.4805
  749SOL     OW 2993   2.422   0.653   2.766  0.0578  0.3867 -0.5162
  749SOL    HW1 2994   2.437   0.723   2.700 -0.3493 -1.5622  1.5260
  749SOL    HW2 2995   2.469   0.682   2.854 -1.4635 -0.7321 -1.1593
  749SOL     MW 2996   2.430   0.666   2.769 -0.1966 -0.0180 -0.3316
  750SOL     OW 2997   2.117   3.008   1.963  0.7521 -0.9864 -1.0277
  750SOL    HW1 2998   2.160   3.095   1.989  0.1554 -0.1402 -1.6789
  750SOL    HW2 2999   2.181   2.942   1.938  0.3161  0.9775  0.9841
  750SOL     MW 3000   2.131   3.011   1.963  0.6159 -0.6156 -0.8482
  751SOL     OW 3001   0.001   0.368   2.438 -0.6156  0.1189  0.4205
  751SOL    HW1 3002  -0.077   0.318   2.396  0.0872 -1.7135 -2.6694
  751SOL    HW2 3003   0.076   0.346   2.382 -2.4466  0.5156  1.0865
  751SOL     MW 3004   0.001   0.359   2.425 -0.7644 -0.0705  0.1007
  752SOL     OW 3005   2.140   0.945   2.811 -0.8175 -0.8217  0.2338
  752SOL    HW1 3006   2.221   0.943   2.864  1.6860 -1.4570 -1.7121
  752SOL    HW2 3007   2.100   0.860   2.829 -1.0099 -0.6606  0.2847
  752SOL     MW 3008   2.146   0.934   2.820 -0.5126 -0.8843 -0.0163
  753SOL     OW 3009   2.874   0.301   2.324  0.0714 -0.0850 -0.3459
  753SOL    HW1 3010   2.835   0.209   2.313  1.0542  0.3666  1.3224
  753SOL    HW2 3011   2.799   0.359   2.339  1.3106 -2.7579 -0.4397
  753SOL     MW 3012   2.859   0.296   2.324  0.3646 -0.3781 -0.1382
  754SOL     OW 3013   2.259   3.004   2.614 -0.1154 -0.2377 -0.0194
  754SOL    HW1 3014   2.281   2.951   2.537  2.6603  0.2328  0.9382
  754SOL    HW2 3015   2.333   2.991   2.679 -1.7244  0.4784  1.8467
  754SOL     MW 3016   2.272   2.995   2.612  0.0386 -0.0811  0.3531
  755SOL     OW 3017   2.763   1.616   2.396  0.4008  0.2896  0.2737
  755SOL    HW1 3018   2.723   1.525   2.410  0.4481 -1.5318  0.2035
  755SOL    HW2 3019   2.797   1.637   2.481 -2.6924 -0.6762 -1.0655
  755SOL     MW 3020   2.762   1.607   2.409 -0.0010 -0.0782  0.0877
  756SOL     OW 3021   2.176   1.251   2.961 -0.3511  0.4254 -0.0111
  756SOL    HW1 3022   2.253   1.301   2.982 -0.7243  0.1100  1.3200
  756SOL    HW2 3023   2.208   1.161   2.958 -2.5925  1.4413 -0.2563
  756SOL     MW 3024   2.190   1.246   2.963 -0.6961  0.5178  0.1322
  757SOL     OW 3025   2.193   0.949   1.746  0.3185 -0.2883  0.5300
  757SOL    HW1 3026   2.195   0.852   1.727 -2.7706 -0.8914  0.5433
  757SOL    HW2 3027   2.151   0.977   1.660 -0.2224 -2.7601 -0.0752
  757SOL     MW 3028   2.187   0.940   1.732 -0.1604 -0.6940  0.4519
  758SOL     OW 3029   2.198   1.834   2.560  0.5039 -0.1472  1.0563
  758SOL    HW1 3030   2.204   1.887   2.474  1.1604 -0.3108  1.6590
  758SOL    HW2 3031   2.287   1.800   2.572 -0.1402  2.1047 -0.6547
  758SOL     MW 3032   2.210   1.836   2.550  0.5055  0.1283  0.9100
  759SOL     OW 3033   1.583   1.461   2.800 -0.0493  0.0783  0.0017
  759SOL    HW1 3034   1.595   1.540   2.737  0.4395  1.1865 -2.1086
  759SOL    HW2 3035   1.648   1.482   2.870  2.2585 -0.2442  1.8049
  759SOL     MW 3036   1.593   1.474   2.801  0.3197  0.1819 -0.0388
  760SOL     OW 3037   2.592   1.927   2.711  0.6261  0.0368  0.0080
  760SOL    HW1 3038   2.551   1.843   2.692 -0.3366 -0.1401  2.0517
  760SOL    HW2 3039   2.675   1.923   2.669 -1.1453 -0.9620 -0.1084
  760SOL     MW 3040   2.598   1.915   2.703  0.2654 -0.1183  0.2623
  761SOL     OW 3041   2.293   0.446   2.413 -0.3952  0.3749  0.2725
  761SOL    HW1 3042   2.196   0.432   2.415  0.7897 -0.4123  3.3157
  761SOL    HW2 3043   2.320   0.446   2.505 -3.0777 -2.1611 -0.3004
  761SOL     MW 3044   2.284   0.444   2.426 -0.5928 -0.0636  0.5984
  762SOL     OW 3045   0.027   0.178   2.110  0.1295 -0.3624 -0.3177
  762SOL    HW1 3046  -0.010   0.128   2.186  0.6113 -2.4956 -2.0918
  762SOL    HW2 3047  -0.047   0.228   2.072  0.1428  2.9079  0.9917
  762SOL     MW 3048   0.012   0.178   2.115  0.1948 -0.2124 -0.3790
  763SOL     OW 3049   2.455   1.217   2.372  0.2874 -0.2616 -0.3485
  763SOL    HW1 3050   2.485   1.146   2.311  0.7650  1.8622 -0.9726
  763SOL    HW2 3051   2.536   1.246   2.401  0.1759 -1.6372 -0.6803
  763SOL     MW 3052   2.470   1.211   2.368  0.3357 -0.1629 -0.4746
  764SOL     OW 3053   0.390   0.063   2.808  0.1828  0.7562  0.4381
  764SOL    HW1 3054   0.308   0.102   2.794 -1.5542 -0.1586 -0.0900
  764SOL    HW2 3055   0.418   0.092   2.898  0.2998  2.1979 -0.9685
  764SOL     MW 3056   0.383   0.072   2.818 -0.0310  0.8257  0.1828
  765SOL     OW 3057   2.762   0.021   2.319 -0.1663  0.6006 -0.3542
  765SOL    HW1 3058   2.702   0.008   2.247 -1.3922  2.1111 -1.8711
  765SOL    HW2 3059   2.780  -0.065   2.357 -3.3863  0.6166 -0.3290
  765SOL     MW 3060   2.756   0.008   2.315 -0.7529  0.8020 -0.5510
  766SOL     OW 3061   1.906   2.981   2.168 -0.2852  0.2818 -0.5583
  766SOL    HW1 3062   1.963   2.976   2.098 -2.3010 -2.2479  0.1453
  766SOL    HW2 3063   1.855   2.897   2.155  2.4671 -0.6134  0.5309
  766SOL     MW 3064   1.906   2.969   2.157 -0.1881 -0.1701 -0.3218
  767SOL     OW 3065   2.672   0.643   1.879  0.5580  0.2419 -0.2988
  767SOL    HW1 3066   2.687   0.700   1.958  0.5793  1.0591  0.6437
  767SOL    HW2 3067   2.611   0.700   1.834  2.2183  0.9336 -1.5861
  767SOL     MW 3068   2.666   0.658   1.883  0.7799  0.4410 -0.3443
  768SOL     OW 3069   0.068   1.465   2.928 -0.3753 -0.1638  0.8467
  768SOL    HW1 3070   0.046   1.505   3.015  0.4447  1.5970  4.0593
  768SOL    HW2 3071   0.089   1.374   2.946 -0.3673  1.6911  1.1249
  768SOL     MW 3072   0.068   1.459   2.942 -0.2661  0.3133  1.3073
  769SOL     OW 3073   2.394   0.709   2.325  0.0531 -0.1880 -0.1274
  769SOL    HW1 3074   2.348   0.625   2.350 -2.3812  2.5960 -3.1695
  769SOL    HW2 3075   2.449   0.680   2.250 -1.4697  2.6201  1.4853
  769SOL     MW 3076   2.395   0.694   2.319 -0.4690  0.5498 -0.3160
  770SOL     OW 3077   3.101   1.578   2.667  0.3667  0.0390 -0.2315
  770SOL    HW1 3078   3.006   1.581   2.664 -1.4125 -1.6652 -0.6443
  770SOL    HW2 3079   3.131   1.514   2.732  0.4276 -0.0185 -2.4764
  770SOL     MW 3080   3.093   1.570   2.675  0.1400 -0.1934 -0.5822
  771SOL     OW 3081   3.077   0.596   1.985 -0.0191  0.3165 -0.2614
  771SOL    HW1 3082   3.019   0.563   1.913 -0.4482  1.9061 -0.1465
  771SOL    HW2 3083   3.162   0.535   1.976 -1.4178 -0.6806  1.5260
  771SOL     MW 3084   3.081   0.584   1.974 -0.2603  0.3947 -0.0104
  772SOL     OW 3085   0.005   0.017   2.339  0.8630  0.0579 -0.3834
  772SOL    HW1 3086  -0.061  -0.041   2.382 -0.8139 -0.7546  2.0047
  772SOL    HW2 3087   0.064  -0.039   2.288 -0.9342 -1.3646  2.8910
  772SOL     MW 3088   0.004   0.002   2.338  0.4046 -0.2370  0.3637
  773SOL     OW 3089   2.466   2.934   2.757  0.0485  0.2311  0.0720
  773SOL    HW1 3090   2.481   2.842   2.730 -0.3874 -0.5742 -1.3321
  773SOL    HW2 3091   2.436   2.917   2.851  1.0382 -1.9039  0.7086
  773SOL     MW 3092   2.464   2.919   2.766  0.1215 -0.1568 -0.0292
  774SOL     OW 3093   2.379   1.155   1.741  0.2855 -0.2205 -0.2534
  774SOL    HW1 3094   2.330   1.219   1.683 -1.4352 -0.3425 -1.5716
  774SOL    HW2 3095   2.317   1.087   1.744 -2.2365  3.7926  1.0554
  774SOL     MW 3096   2.364   1.155   1.734 -0.2743  0.2929 -0.2547
  775SOL     OW 3097   2.333   2.866   2.381  0.1172 -0.2342 -0.2828
  775SOL    HW1 3098   2.372   2.948   2.351  1.6464 -1.5310 -1.0167
  775SOL    HW2 3099   2.405   2.807   2.350  1.7659 -3.2055  0.0035
  775SOL     MW 3100   2.348   2.869   2.373  0.5365 -0.7973 -0.3419
  776SOL     OW 3101   0.142   1.493   0.093 -0.0022 -0.3972  0.3771
  776SOL    HW1 3102   0.224   1.446   0.076 -0.0745 -1.7350  0.0584
  776SOL    HW2 3103   0.086   1.428   0.133 -1.2713  0.8862 -1.8654
  776SOL     MW 3104   0.146   1.479   0.096 -0.1792 -0.4044  0.0392
  777SOL     OW 3105   2.951   1.118   1.710 -0.3824 -0.1043  0.4356
  777SOL    HW1 3106   2.898   1.174   1.650 -2.5948  2.8378 -3.4783
  777SOL    HW2 3107   2.890   1.063   1.755  1.7594  2.7708  1.2881
  777SOL     MW 3108   2.936   1.118   1.708 -0.3918  0.6632  0.0317
  778SOL     OW 3109   2.932   0.495   2.795  0.1251 -0.0992 -0.7266
  778SOL    HW1 3110   2.892   0.544   2.866  1.6804  0.9678 -1.1432
  778SOL    HW2 3111   2.904   0.542   2.713  0.7607  0.0585 -2.0703
  778SOL     MW 3112   2.923   0.508   2.794  0.4142  0.0624 -0.9588
  779SOL     OW 3113   2.223   0.503   2.114  0.1953 -0.7398 -0.2184
  779SOL    HW1 3114   2.151   0.558   2.156  0.4913 -1.1386  3.1120
  779SOL    HW2 3115   2.249   0.439   2.187  0.6558 -2.2230  1.4847
  779SOL     MW 3116   2.217   0.502   2.129  0.2951 -0.9881  0.4457
  780SOL     OW 3117   0.214   0.259   2.700  0.4904  0.0928  0.0195
  780SOL    HW1 3118   0.127   0.307   2.718 -1.6533  1.2641  2.2503
  780SOL    HW2 3119   0.292   0.311   2.731  0.9802  0.7330 -1.3274
  780SOL     MW 3120   0.213   0.272   2.707  0.2722  0.3318  0.1362
  781SOL     OW 3121   0.023   1.236   2.436  0.1580  0.5774  0.9465
  781SOL    HW1 3122   0.038   1.242   2.338  0.9902  1.1789  0.2602
  781SOL    HW2 3123  -0.022   1.153   2.443 -1.7292  0.8567  0.1143
  781SOL     MW 3124   0.019   1.226   2.424  0.0188  0.6936  0.7462
  782SOL     OW 3125   0.711   1.496   0.045 -0.6797 -0.2114 -0.0045
  782SOL    HW1 3126   0.638   1.564   0.022 -2.8344  0.6446  0.9664
  782SOL    HW2 3127   0.712   1.507   0.140  1.6640  0.7245 -0.4758
  782SOL     MW 3128   0.702   1.506   0.054 -0.6547  0.0250  0.0614
  783SOL     OW 3129   2.695   0.503   2.370  0.2456 -0.0954  0.0131
  783SOL    HW1 3130   2.689   0.580   2.315  1.6806 -1.1602  2.4477
  783SOL    HW2 3131   2.622   0.511   2.435  0.3786 -1.8886 -2.2882
  783SOL     MW 3132   2.684   0.514   2.372  0.4524 -0.4725  0.0307
  784SOL     OW 3133   0.173   0.816   2.818  0.3480  0.5336  0.3965
  784SOL    HW1 3134   0.084   0.827   2.783 -0.9138  2.8239 -0.6785
  784SOL    HW2 3135   0.216   0.891   2.780  0.4010 -1.2834 -1.9334
  784SOL     MW 3136   0.167   0.828   2.808  0.1885  0.5961 -0.0527
  785SOL     OW 3137   0.428   0.406   2.161 -0.1609 -0.6985 -0.0039
  785SOL    HW1 3138   0.425   0.433   2.068 -2.1861 -0.1672  0.4722
  785SOL    HW2 3139   0.336   0.380   2.184 -1.4308  0.2562 -0.6220
  785SOL     MW 3140   0.415   0.406   2.152 -0.5957 -0.5024 -0.0227
  786SOL     OW 3141   1.878   0.493   3.061 -0.1479 -0.1634  0.9641
  786SOL    HW1 3142   1.875   0.536   3.141  0.0004 -1.6215  0.2717
  786SOL    HW2 3143   1.786   0.493   3.041  2.6334 -0.1893  0.2577
  786SOL     MW 3144   1.866   0.499   3.069  0.2386 -0.3592  0.7795
  787SOL     OW 3145   2.405   0.196   2.923  0.4441  0.3418  0.0796
  787SOL    HW1 3146   2.475   0.139   2.884  2.3349 -3.2992  1.2772
  787SOL    HW2 3147   2.451   0.277   2.959  1.4901  1.7124  1.0430
  787SOL     MW 3148   2.421   0.199   2.923  0.8316  0.0422  0.3648
  788SOL     OW 3149   2.913   2.906   2.412 -0.1681  0.6334  0.6271
  788SOL    HW1 3150   2.969   2.893   2.494 -0.2307  0.2576  1.1055
  788SOL    HW2 3151   2.936   2.850   2.337 -0.2522 -0.8627  3.5738
  788SOL     MW 3152   2.923   2.897   2.413 -0.1875  0.3865  1.0790
  789SOL     OW 3153   0.104   0.193   0.045 -0.2338 -0.6531 -0.1278
  789SOL    HW1 3154   0.028   0.133   0.064  2.5121 -1.2446 -0.7365
  789SOL    HW2 3155   0.068   0.264  -0.013  1.2891  0.3885  1.2210
  789SOL     MW 3156   0.089   0.195   0.040  0.3295 -0.5937 -0.0302
  790SOL     OW 3157   3.033   0.972   2.470  0.0856  0.4646  0.0057
  790SOL    HW1 3158   3.012   0.930   2.548 -0.8349  2.8271 -1.4077
  790SOL    HW2 3159   2.961   0.957   2.400  0.8815  0.1857  0.5358
  790SOL     MW 3160   3.021   0.964   2.471  0.0692  0.7395 -0.1108
  791SOL     OW 3161   2.538   0.487   2.584  0.1806 -0.3503  0.1535
  791SOL    HW1 3162   2.501   0.533   2.666  0.6984 -1.5695  1.6571
  791SOL    HW2 3163   2.591   0.413   2.614 -1.9970 -1.8511  3.4066
  791SOL     MW 3164   2.540   0.483   2.599 -0.0384 -0.7092  0.7811
  792SOL     OW 3165   2.466   0.206   2.457 -0.4443 -0.2799  0.0712
  792SOL    HW1 3166   2.437   0.275   2.396  2.1722 -0.9568  0.1785
  792SOL    HW2 3167   2.409   0.208   2.537 -1.9627  1.1506  1.3244
  792SOL     MW 3168   2.455   0.215   2.459 -0.2994 -0.1805  0.2507
  793SOL     OW 3169   1.794   1.118   2.032 -0.7493  0.0291 -0.5019
  793SOL    HW1 3170   1.759   1.091   1.948 -0.0769 -0.8858 -2.0918
  793SOL    HW2 3171   1.888   1.126   2.011 -1.9074 -2.6646  0.8661
  793SOL     MW 3172   1.802   1.116   2.018 -0.8134 -0.4470 -0.5312
  794SOL     OW 3173   1.376   2.313   0.109  0.0870  0.4092 -0.0333
  794SOL    HW1 3174   1.427   2.395   0.067  0.3930 -1.8945 -3.7100
  794SOL    HW2 3175   1.415   2.299   0.195  1.5186 -0.7318  3.0867
  794SOL     MW 3176   1.388   2.322   0.115  0.3163 -0.0453 -0.1067
  795SOL     OW 3177   2.282   1.062   2.516 -0.1322  0.3940  0.3356
  795SOL    HW1 3178   2.233   1.112   2.579 -0.2679  1.8042 -0.5238
  795SOL    HW2 3179   2.348   1.117   2.479  2.5466  0.0577 -0.9204
  795SOL     MW 3180   2.284   1.076   2.520  0.2033  0.5357  0.0565
  796SOL     OW 3181   0.251   0.593   2.676  0.2958  0.0104 -0.4506
  796SOL    HW1 3182   0.221   0.653   2.742  1.3549 -0.7793 -0.1257
  796SOL    HW2 3183   0.188   0.606   2.599 -2.8696 -1.2981  0.5935
  796SOL     MW 3184   0.239   0.603   2.674  0.0179 -0.2664 -0.2700
  797SOL     OW 3185   2.735   0.215   2.631 -0.3461 -0.0178 -0.6715
  797SOL    HW1 3186   2.728   0.190   2.544 -2.0536 -1.0918  0.6003
  797SOL    HW2 3187   2.820   0.250   2.654 -2.3468  0.8364  0.6078
  797SOL     MW 3188   2.745   0.216   2.623 -0.8354 -0.0468 -0.3349
  798SOL     OW 3189   2.430   0.016   2.271  0.2128  0.2746 -0.3169
  798SOL    HW1 3190   2.453   0.087   2.340  0.9994 -0.0947 -0.6533
  798SOL    HW2 3191   2.503   0.010   2.208  2.2193  1.2697 -0.1330
  798SOL     MW 3192   2.442   0.024   2.272  0.5813  0.3572 -0.3371
  799SOL     OW 3193   2.563   3.045   0.089  0.0659 -0.0518  0.2543
  799SOL    HW1 3194   2.484   3.028   0.032 -1.8172 -0.0522  0.0627
  799SOL    HW2 3195   2.542   3.012   0.182 -2.2716  1.6043  0.1330
  799SOL     MW 3196   2.550   3.038   0.094 -0.4909  0.1666  0.2130
  800SOL     OW 3197   1.942   2.992   1.753 -0.3244  0.1266  0.4458
  800SOL    HW1 3198   1.861   2.942   1.771 -1.1153  0.2984  3.7316
  800SOL    HW2 3199   2.003   2.990   1.830  0.5116 -1.9668  2.7119
  800SOL     MW 3200   1.939   2.985   1.766 -0.3184 -0.1269  1.1783
  801SOL     OW 3201   2.894   1.230   2.604 -0.1593 -0.4328  0.3190
  801SOL    HW1 3202   2.926   1.145   2.640 -0.8435  0.2702 -0.5777
  801SOL    HW2 3203   2.974   1.265   2.565  0.0729 -1.1807 -0.7538
  801SOL     MW 3204   2.909   1.223   2.604 -0.2189 -0.4387  0.0591
  802SOL     OW 3205   2.629   1.431   2.808 -0.9996  0.3449 -0.7191
  802SOL    HW1 3206   2.617   1.343   2.758  2.0900  0.7745  1.8590
  802SOL    HW2 3207   2.711   1.422   2.870  2.3912  1.2216  0.6374
  802SOL     MW 3208   2.638   1.418   2.810 -0.1445  0.5172 -0.2000
  803SOL     OW 3209   2.321   1.422   2.001 -0.4191  0.0521  0.0162
  803SOL    HW1 3210   2.293   1.376   2.076  1.0363  1.8811  0.7235
  803SOL    HW2 3211   2.284   1.377   1.926  0.5301 -2.8481  1.9925
  803SOL     MW 3212   2.313   1.410   2.001 -0.1019 -0.0892  0.3703
  804SOL     OW 3213   2.268   0.135   0.044  0.4980 -0.0928 -0.1121
  804SOL    HW1 3214   2.201   0.202   0.051 -0.9658  0.3356 -1.5604
  804SOL    HW2 3215   2.317   0.165  -0.037 -2.1852  0.3337  1.9599
  804SOL     MW 3216   2.266   0.148   0.034 -0.0492  0.0200 -0.0298
  805SOL     OW 3217   2.717   0.835   2.649  0.2858  0.6270  0.0464
  805SOL    HW1 3218   2.627   0.834   2.616 -0.0502  1.5635 -0.1980
  805SOL    HW2 3219   2.741   0.748   2.618 -1.9394 -2.0291  0.8248
  805SOL     MW 3220   2.709   0.823   2.641 -0.0521  0.4001  0.1168
  806SOL     OW 3221   2.673   0.726   2.207 -0.3249 -0.1741  0.5829
  806SOL    HW1 3222   2.750   0.761   2.160 -0.4628 -0.6938 -1.6850
  806SOL    HW2 3223   2.648   0.805   2.249  0.1992 -0.6638  2.2775
  806SOL     MW 3224   2.680   0.741   2.206 -0.2739 -0.3073  0.5072
  807SOL     OW 3225   0.010   1.092   2.042  0.8691 -0.2026 -0.2641
  807SOL    HW1 3226   0.038   0.996   2.034 -1.5099 -1.1459 -1.7051
  807SOL    HW2 3227  -0.058   1.101   1.983  3.6867 -0.8672  2.4658
  807SOL     MW 3228   0.005   1.080   2.033  0.9269 -0.4147 -0.0940
  808SOL     OW 3229   2.602   0.049   2.823  0.1777 -0.0799 -0.2647
  808SOL    HW1 3230   2.576  -0.037   2.783 -3.9564  0.9310  0.7459
  808SOL    HW2 3231   2.647   0.097   2.758 -3.9188 -0.5437  3.2874
  808SOL     MW 3232   2.604   0.044   2.809 -0.9083 -0.0077  0.3373
  809SOL     OW 3233   2.678   1.352   2.423 -0.0615 -0.2833  0.0358
  809SOL    HW1 3234   2.718   1.323   2.502 -0.7626  0.3832 -2.7081
  809SOL    HW2 3235   2.728   1.315   2.346  1.5961  2.1595  1.1777
  809SOL     MW 3236   2.690   1.343   2.423  0.0647  0.1269 -0.1756
  810SOL     OW 3237   2.238   1.302   2.246 -0.3388  0.1524  0.2465
  810SOL    HW1 3238   2.314   1.277   2.300  0.3796  1.6018 -0.5248
  810SOL    HW2 3239   2.173   1.236   2.264 -1.2299  1.6198  0.0202
  810SOL     MW 3240   2.240   1.290   2.255 -0.3616  0.5372  0.1148
  811SOL     OW 3241   1.622   0.179   2.280 -0.4502 -0.4584  0.5502
  811SOL    HW1 3242   1.697   0.127   2.319 -0.7287  1.3967  0.1243
  811SOL    HW2 3243   1.649   0.207   2.187  1.0825 -0.5506 -0.7228
  811SOL     MW 3244   1.635   0.176   2.273 -0.2848 -0.2258  0.3260
  812SOL     OW 3245   1.481   2.825   2.044 -0.2920  0.8062  0.0326
  812SOL    HW1 3246   1.568   2.788   2.044 -2.2178 -0.6754  0.0650
  812SOL    HW2 3247   1.454   2.815   2.137  0.5202  2.9227  0.0845
  812SOL     MW 3248   1.489   2.818   2.057 -0.4390  0.8900  0.0438
  813SOL     OW 3249   2.024   0.629   2.249  0.0877  0.0445 -0.1272
  813SOL    HW1 3250   1.928   0.615   2.219  0.6149  1.0638  0.9291
  813SOL    HW2 3251   2.014   0.678   2.326  0.2919 -0.0159 -0.2126
  813SOL     MW 3252   2.010   0.634   2.255  0.1842  0.1710  0.0009
  814SOL     OW 3253   2.709   1.288   1.641 -0.0641  0.1364  0.3192
  814SOL    HW1 3254   2.637   1.265   1.703 -0.8625 -2.5149  0.1098
  814SOL    HW2 3255   2.671   1.263   1.557  3.5430 -1.5763 -1.9828
  814SOL     MW 3256   2.695   1.282   1.638  0.3065 -0.4394 -0.0121
  815SOL     OW 3257   2.527   1.765   2.402 -0.5183  0.1894  0.6843
  815SOL    HW1 3258   2.482   1.688   2.359 -0.0940 -1.9841 -1.1754
  815SOL    HW2 3259   2.616   1.736   2.379 -0.0003  0.6739  0.0496
  815SOL     MW 3260   2.532   1.751   2.393 -0.3940 -0.0335  0.3552
  816SOL     OW 3261   0.726   0.680   2.805 -0.1385 -0.5778  0.2394
  816SOL    HW1 3262   0.744   0.589   2.797  3.7701 -0.1689 -1.9583
  816SOL    HW2 3263   0.637   0.698   2.782  2.8950  3.4886  0.6596
  816SOL     MW 3264   0.717   0.670   2.801  0.7774  0.0127  0.0049
  817SOL     OW 3265   2.995   1.263   1.438  0.0330 -0.3465  0.1868
  817SOL    HW1 3266   3.054   1.227   1.502  0.5192  0.9086 -1.2980
  817SOL    HW2 3267   2.987   1.357   1.460 -1.6235  3.3819 -0.9819
  817SOL     MW 3268   3.002   1.271   1.450 -0.1214  0.3110 -0.1633
  818SOL     OW 3269   1.943   1.039   2.641  0.1021 -0.1621 -0.3407
  818SOL    HW1 3270   1.971   1.005   2.560 -0.2924 -1.0493  4.9326
  818SOL    HW2 3271   2.002   1.020   2.713 -1.8651  4.5479 -0.1677
  818SOL     MW 3272   1.954   1.032   2.640 -0.2095  0.3423  0.3779
  819SOL     OW 3273   2.008   0.353   2.440 -0.6944  0.4608  0.5212
  819SOL    HW1 3274   1.924   0.400   2.434  0.0924  0.7560 -2.4718
  819SOL    HW2 3275   2.032   0.344   2.528 -2.1589 -1.7994 -1.1050
  819SOL     MW 3276   2.000   0.358   2.451 -0.7838  0.2016 -0.0883
  820SOL     OW 3277   2.481   1.682   2.668 -0.2209 -0.1303  0.1136
  820SOL    HW1 3278   2.556   1.638   2.708 -1.0475  0.2412  0.6599
  820SOL    HW2 3279   2.502   1.693   2.577 -0.7708 -1.3889  0.8968
  820SOL     MW 3280   2.493   1.678   2.662 -0.4025 -0.2474  0.2890
  821SOL     OW 3281   2.611   1.388   1.997 -0.3421 -0.1972 -0.4541
  821SOL    HW1 3282   2.641   1.445   1.927 -1.0376  2.3625 -1.0875
  821SOL    HW2 3283   2.513   1.413   2.005 -0.3419  0.4079 -0.9312
  821SOL     MW 3284   2.602   1.399   1.989 -0.4338  0.2204 -0.6006
  822SOL     OW 3285   2.945   2.726   1.512 -0.1503  0.5746 -0.1756
  822SOL    HW1 3286   2.949   2.697   1.607 -0.4080  0.4687 -2.4601
  822SOL    HW2 3287   2.922   2.820   1.515  0.3886 -0.3273  1.2714
  822SOL     MW 3288   2.942   2.735   1.525 -0.1132  0.4417 -0.2861
  823SOL     OW 3289   2.366   0.469   1.860 -0.1110  0.0596 -0.1851
  823SOL    HW1 3290   2.440   0.413   1.849 -2.7966  2.6441 -1.4090
  823SOL    HW2 3291   2.337   0.459   1.953 -2.0436 -0.2952  0.7629
  823SOL     MW 3292   2.372   0.460   1.871 -0.7203  0.3538 -0.2215
  824SOL     OW 3293   2.279   1.495   2.561  0.2467 -0.3997  1.3572
  824SOL    HW1 3294   2.344   1.551   2.600  1.1370 -1.7665  0.1768
  824SOL    HW2 3295   2.195   1.536   2.560 -0.0469 -0.1841 -0.5640
  824SOL     MW 3296   2.276   1.508   2.566  0.3254 -0.5516  0.9480
  825SOL     OW 3297   1.880   2.618   0.231 -0.3278 -0.2073  0.1165
  825SOL    HW1 3298   1.889   2.568   0.315 -1.3643 -2.0306  2.8952
  825SOL    HW2 3299   1.951   2.588   0.176 -5.1983  0.3087 -1.1772
  825SOL     MW 3300   1.891   2.608   0.235 -1.1071 -0.3798  0.3124
  826SOL     OW 3301   1.841   2.321   0.444  0.1675  0.2641  0.2866
  826SOL    HW1 3302   1.797   2.258   0.506  0.9065  1.9642 -0.2352
  826SOL    HW2 3303   1.845   2.399   0.505 -2.7446  3.7232 -1.0905
  826SOL     MW 3304   1.835   2.323   0.460 -0.1192  0.9448  0.0361
  827SOL     OW 3305   1.968   2.203   0.759 -0.0693  0.5748  0.9629
  827SOL    HW1 3306   1.900   2.215   0.688 -3.4007  0.1030  1.1192
  827SOL    HW2 3307   1.936   2.129   0.805 -2.4251  4.0338  0.3696
  827SOL     MW 3308   1.955   2.195   0.756 -0.8197  0.9690  0.9052
  828SOL     OW 3309   0.050   2.624   0.604  0.3374  0.3381 -0.3226
  828SOL    HW1 3310   0.146   2.613   0.599  1.1573 -1.2911 -3.1290
  828SOL    HW2 3311   0.029   2.699   0.546  0.3919  0.4578 -0.1073
  828SOL     MW 3312   0.060   2.632   0.595  0.4528  0.1389 -0.6645
  829SOL     OW 3313   2.992   2.966   1.175  0.3521 -0.3963 -0.1030
  829SOL    HW1 3314   2.915   2.974   1.119 -3.3707 -2.2909 -1.1337
  829SOL    HW2 3315   3.031   2.885   1.163 -0.4895 -0.7685  0.2353
  829SOL     MW 3316   2.987   2.957   1.166 -0.2501 -0.6954 -0.1943
  830SOL     OW 3317   2.535   2.831   2.010  0.1045  0.0805 -0.0374
  830SOL    HW1 3318   2.449   2.811   1.971  0.0398 -2.7402  0.3218
  830SOL    HW2 3319   2.604   2.807   1.944  0.7338 -0.0727  1.5252
  830SOL     MW 3320   2.533   2.825   1.996  0.1790 -0.3119  0.2161
  831SOL     OW 3321   2.414   2.412   1.222  0.2422  0.1067 -0.5717
  831SOL    HW1 3322   2.364   2.362   1.286 -1.0912  2.2682  1.3933
  831SOL    HW2 3323   2.505   2.398   1.240  0.0297  2.6501 -0.9493
  831SOL     MW 3324   2.420   2.403   1.233  0.0382  0.7275 -0.3622
  832SOL     OW 3325   2.327   2.190   1.827  0.8787  0.3073  0.1549
  832SOL    HW1 3326   2.365   2.283   1.839 -0.3812  2.5185 -0.5047
  832SOL    HW2 3327   2.414   2.144   1.829  1.1741 -2.1099 -1.0013
  832SOL     MW 3328   2.344   2.196   1.829  0.7514  0.2801 -0.0846
  833SOL     OW 3329   1.728   2.509   0.886  0.5177  0.3091 -0.2058
  833SOL    HW1 3330   1.636   2.498   0.859 -1.4754 -1.0360  0.4605
  833SOL    HW2 3331   1.730   2.587   0.939 -1.8114 -4.1060 -2.3213
  833SOL     MW 3332   1.716   2.518   0.890 -0.0526 -0.4509 -0.3970
  834SOL     OW 3333   2.114   2.442   0.556 -0.1962 -0.2754 -0.1096
  834SOL    HW1 3334   2.109   2.365   0.610 -1.1387 -1.8216  0.6417
  834SOL    HW2 3335   2.167   2.414   0.478  0.9799 -0.0936 -1.3698
  834SOL     MW 3336   2.120   2.428   0.553 -0.1654 -0.4554 -0.1768
  835SOL     OW 3337   1.808   2.585   0.608 -0.1383  0.0180 -0.2742
  835SOL    HW1 3338   1.771   2.543   0.684 -1.1074 -0.0802  2.3637
  835SOL    HW2 3339   1.879   2.630   0.657 -2.6213 -1.2425 -1.3830
  835SOL     MW 3340   1.813   2.585   0.624 -0.5937 -0.1613 -0.0724
  836SOL     OW 3341   1.878   2.246   1.559 -0.8676 -0.0524 -0.1183
  836SOL    HW1 3342   1.967   2.240   1.586 -0.1542 -0.4044  0.1296
  836SOL    HW2 3343   1.830   2.292   1.626  0.9305 -0.1498 -1.1492
  836SOL     MW 3344   1.883   2.252   1.571 -0.5362 -0.1117 -0.2216
  837SOL     OW 3345   2.168   0.221   0.728 -0.1021 -0.3901  0.1017
  837SOL    HW1 3346   2.074   0.229   0.715 -1.4846 -1.0436 -0.6425
  837SOL    HW2 3347   2.221   0.175   0.659 -1.5312 -1.0338  1.4571
  837SOL     MW 3348   2.163   0.216   0.717 -0.4731 -0.5612  0.1823
  838SOL     OW 3349   2.925   2.065   0.942 -0.5548 -0.3394 -0.2323
  838SOL    HW1 3350   2.847   2.015   0.959  2.0099 -3.2728  1.3095
  838SOL    HW2 3351   2.993   2.002   0.946 -1.0585  0.5965 -0.6395
  838SOL     MW 3352   2.924   2.050   0.945 -0.2828 -0.6029 -0.0826
  839SOL     OW 3353   1.505   2.360   1.040 -0.3001 -0.3139 -0.0532
  839SOL    HW1 3354   1.524   2.428   1.104 -2.8501 -1.0379  1.6708
  839SOL    HW2 3355   1.521   2.277   1.076 -0.9758  0.8142 -2.8852
  839SOL     MW 3356   1.510   2.358   1.053 -0.7257 -0.2606 -0.1994
  840SOL     OW 3357   2.375   2.245   2.426 -0.3290 -0.4089  0.4190
  840SOL    HW1 3358   2.334   2.316   2.382 -0.4612 -3.4092  2.1321
  840SOL    HW2 3359   2.356   2.275   2.522 -1.9255  2.6343  0.4727
  840SOL     MW 3360   2.367   2.259   2.433 -0.5571 -0.4033  0.6521
  841SOL     OW 3361   2.069   2.468   0.089 -0.1626 -0.2032  0.1357
  841SOL    HW1 3362   2.123   2.521   0.028 -0.4861  2.4519  2.4176
  841SOL    HW2 3363   2.082   2.380   0.047 -0.3998  0.0179  1.5885
  841SOL     MW 3364   2.078   2.463   0.076 -0.2366  0.1763  0.6284
  842SOL     OW 3365   2.658   2.073   1.539  0.1239 -0.1336 -0.2757
  842SOL    HW1 3366   2.589   2.043   1.600  1.6257 -0.1264 -0.5756
  842SOL    HW2 3367   2.607   2.081   1.459 -0.2367 -4.0321 -0.1896
  842SOL     MW 3368   2.642   2.070   1.536  0.2745 -0.6470 -0.3039
  843SOL     OW 3369   2.673   2.771   1.768 -0.0658 -0.0229  0.3408
  843SOL    HW1 3370   2.761   2.738   1.786  0.3622 -1.4276 -2.5416
  843SOL    HW2 3371   2.629   2.697   1.733  0.8404  5.3783 -2.3795
  843SOL     MW 3372   2.679   2.757   1.766  0.1103  0.5044 -0.3984
  844SOL     OW 3373   2.690   2.342   1.224 -1.1596 -0.1528 -0.1981
  844SOL    HW1 3374   2.677   2.355   1.129 -0.1775  2.4590 -1.6259
  844SOL    HW2 3375   2.751   2.411   1.266 -0.5608  1.2032  1.0635
  844SOL     MW 3376   2.697   2.353   1.217 -0.9510  0.3707 -0.2200
  845SOL     OW 3377   2.860   2.483   0.337  0.1214  0.2029 -0.4375
  845SOL    HW1 3378   2.811   2.396   0.328  0.5591 -1.0245  0.3085
  845SOL    HW2 3379   2.858   2.502   0.433  1.6387  1.8344 -2.6648
  845SOL     MW 3380   2.853   2.474   0.348  0.3794  0.2562 -0.6330
  846SOL     OW 3381   1.534   2.883   0.739  0.3013  0.2985 -0.2296
  846SOL    HW1 3382   1.618   2.871   0.789  0.1072 -2.2899  1.4838
  846SOL    HW2 3383   1.515   2.949   0.803  2.3147 -2.4324  2.4405
  846SOL     MW 3384   1.543   2.890   0.754  0.5414 -0.4033  0.3487
  847SOL     OW 3385   2.617   1.993   0.179 -0.0301 -0.3531 -0.2428
  847SOL    HW1 3386   2.680   1.952   0.236 -0.5377  0.5059 -0.1073
  847SOL    HW2 3387   2.575   1.921   0.130 -1.5765 -2.7406 -3.4320
  847SOL     MW 3388   2.619   1.978   0.180 -0.3011 -0.5547 -0.6457
  848SOL     OW 3389   2.539   2.127   1.308  0.3784  0.9316  0.2894
  848SOL    HW1 3390   2.612   2.189   1.280  2.3695 -0.3124  1.5068
  848SOL    HW2 3391   2.541   2.068   1.239 -0.4429  1.7218  0.9987
  848SOL     MW 3392   2.549   2.128   1.295  0.5327  0.8717  0.5437
  849SOL     OW 3393   2.011   2.683   0.791 -0.3037 -0.2081  0.4120
  849SOL    HW1 3394   2.031   2.606   0.842 -2.5808  2.7000  0.7436
  849SOL    HW2 3395   2.095   2.697   0.743 -2.1725  2.2811 -0.6870
  849SOL     MW 3396   2.025   2.675   0.792 -0.8507  0.5040  0.3108
  850SOL     OW 3397   2.191   1.920   1.701 -0.4214  0.0682 -0.4371
  850SOL    HW1 3398   2.122   1.870   1.654 -0.5598  0.8067  0.1750
  850SOL    HW2 3399   2.180   2.013   1.672 -1.0061  0.7159 -2.7365
  850SOL     MW 3400   2.181   1.925   1.691 -0.5168  0.2511 -0.6597
  851SOL     OW 3401   2.253   2.375   0.327 -0.5148 -0.0605  0.1822
  851SOL    HW1 3402   2.187   2.400   0.258 -3.7068 -1.8939 -0.3282
  851SOL    HW2 3403   2.325   2.433   0.304 -1.8902 -0.9092 -0.3536
  851SOL     MW 3404   2.254   2.386   0.315 -1.1174 -0.4144  0.0442
  852SOL     OW 3405   2.352   2.098   0.295 -0.4651  0.1559  0.0816
  852SOL    HW1 3406   2.292   2.164   0.327  1.0578 -1.5550  0.1952
  852SOL    HW2 3407   2.392   2.137   0.216 -0.1592  0.2247  0.1202
  852SOL     MW 3408   2.349   2.112   0.289 -0.2238 -0.0608  0.1017
  853SOL     OW 3409   2.439   2.415   1.903  0.1936 -0.1267  0.5235
  853SOL    HW1 3410   2.465   2.449   1.815 -0.2012 -1.4390 -2.2506
  853SOL    HW2 3411   2.518   2.401   1.960 -2.2659 -1.1250  1.9443
  853SOL     MW 3412   2.453   2.418   1.899 -0.1830 -0.4315  0.3449
  854SOL     OW 3413   2.854   2.235   0.731  0.6524 -0.1726 -0.0570
  854SOL    HW1 3414   2.792   2.175   0.688  0.9025  0.2887 -0.0837
  854SOL    HW2 3415   2.877   2.187   0.815  1.0225 -1.4983 -0.9222
  854SOL     MW 3416   2.849   2.221   0.736  0.7342 -0.2866 -0.1747
  855SOL     OW 3417   2.717   2.247   0.344  0.2387 -0.2544 -0.5940
  855SOL    HW1 3418   2.666   2.259   0.419  0.1656  3.4151 -0.1487
  855SOL    HW2 3419   2.791   2.185   0.370 -0.6155 -0.4107 -0.2215
  855SOL     MW 3420   2.720   2.240   0.357  0.1164  0.2092 -0.4861
  856SOL     OW 3421   2.206   1.892   0.171  0.0693  0.0902 -0.3004
  856SOL    HW1 3422   2.115   1.886   0.202  1.2107  1.3856  0.6504
  856SOL    HW2 3423   2.235   1.977   0.212 -1.0696  1.5060 -0.2840
  856SOL     MW 3424   2.198   1.903   0.180  0.0696  0.4479 -0.1728
  857SOL     OW 3425   2.482   1.902   0.454  0.6746  0.2100  0.5056
  857SOL    HW1 3426   2.442   1.977   0.398 -0.4971  0.7873 -0.8236
  857SOL    HW2 3427   2.410   1.844   0.472 -0.6278 -1.4980 -0.0731
  857SOL     MW 3428   2.467   1.904   0.449  0.3481  0.0608  0.2539
  858SOL     OW 3429   2.926   2.663   1.775  0.1152 -0.1506  0.0668
  858SOL    HW1 3430   3.011   2.679   1.824 -1.1919 -3.0183 -0.1478
  858SOL    HW2 3431   2.909   2.568   1.786 -1.2455 -1.3120  1.1168
  858SOL     MW 3432   2.935   2.653   1.783 -0.2368 -0.6822  0.1771
  859SOL     OW 3433   2.077   2.423   0.896  0.0765  0.3936  0.3022
  859SOL    HW1 3434   2.038   2.346   0.848 -0.2649  0.1697 -0.0336
  859SOL    HW2 3435   2.169   2.398   0.912 -3.3265 -2.5887 -0.8463
  859SOL     MW 3436   2.084   2.409   0.892 -0.4175 -0.0294  0.1064
  860SOL     OW 3437   2.673   2.597   0.184  0.1202  0.6270  0.2495
  860SOL    HW1 3438   2.735   2.564   0.243 -1.8929 -0.1243 -1.2806
  860SOL    HW2 3439   2.715   2.665   0.134 -1.7478 -0.9825  1.0561
  860SOL     MW 3440   2.686   2.601   0.185 -0.3919  0.3155  0.1541
  861SOL     OW 3441   1.628   2.074   1.159 -0.1307 -0.2760 -0.7053
  861SOL    HW1 3442   1.700   2.072   1.232 -2.2202 -0.2421  3.0812
  861SOL    HW2 3443   1.554   2.025   1.204 -0.6716 -0.3951 -1.8297
  861SOL     MW 3444   1.628   2.067   1.174 -0.4778 -0.2872 -0.3541
  862SOL     OW 3445   2.433   1.857   1.577 -0.7966  0.4757  0.0849
  862SOL    HW1 3446   2.351   1.887   1.623  0.5731  1.3268 -0.1320
  862SOL    HW2 3447   2.423   1.871   1.481  1.3854 -0.9073  0.5460
  862SOL     MW 3448   2.421   1.863   1.571 -0.3280  0.4055  0.1171
  863SOL     OW 3449   3.022   1.791   1.228  0.8132 -0.1688 -0.5347
  863SOL    HW1 3450   3.068   1.750   1.301 -2.0268  1.4267  1.7552
  863SOL    HW2 3451   3.016   1.878   1.261  1.1860  1.5604 -0.8305
  863SOL     MW 3452   3.027   1.797   1.242  0.4877  0.2698 -0.2716
  864SOL     OW 3453   0.063   1.876   0.918 -0.2973 -0.0487  0.0544
  864SOL    HW1 3454   0.050   1.810   0.989 -0.5688  0.1733 -1.0615
  864SOL    HW2 3455   0.026   1.829   0.846 -0.5633 -0.9634 -0.8926
  864SOL     MW 3456   0.056   1.862   0.918 -0.3682 -0.1401 -0.2177
  865SOL     OW 3457   2.481   2.171   0.038  0.3632 -0.5454 -0.3147
  865SOL    HW1 3458   2.546   2.126   0.090 -3.7901  0.7722  1.1989
  865SOL    HW2 3459   2.468   2.126  -0.046 -0.6948  2.3363  1.9475
  865SOL     MW 3460   2.488   2.159   0.034 -0.3244  0.0087  0.1834
  866SOL     OW 3461   2.732   2.348   1.579 -0.0791 -0.2610  0.5233
  866SOL    HW1 3462   2.709   2.260   1.549 -0.5369  0.8102  1.1358
  866SOL    HW2 3463   2.786   2.387   1.512  0.5477  0.9091 -0.4439
  866SOL     MW 3464   2.736   2.342   1.566 -0.0568  0.0347  0.4765
  867SOL     OW 3465   0.100   2.713   1.857 -0.1130 -0.1389  0.1734
  867SOL    HW1 3466   0.173   2.723   1.919  1.4967  0.8389 -0.1754
  867SOL    HW2 3467   0.102   2.798   1.812 -1.7773  1.9489  0.2036
  867SOL     MW 3468   0.110   2.725   1.859 -0.1202  0.2656  0.1314
  868SOL     OW 3469   2.790   2.552   0.580  0.2454 -0.5629  0.0153
  868SOL    HW1 3470   2.716   2.496   0.561  2.9554 -0.0354 -2.5719
  868SOL    HW2 3471   2.774   2.628   0.524 -1.2165 -3.5199  0.5233
  868SOL     MW 3472   2.778   2.554   0.570  0.4101 -0.8835 -0.2590
  869SOL     OW 3473   1.894   2.334   1.099 -0.1824  0.3563 -0.5450
  869SOL    HW1 3474   1.962   2.346   1.035  0.5463  0.6933 -0.8421
  869SOL    HW2 3475   1.813   2.366   1.059  2.4371  0.9444  3.3869
  869SOL     MW 3476   1.892   2.340   1.086  0.2594  0.4784 -0.0655
  870SOL     OW 3477   2.315   0.100   0.536 -0.2500 -0.8205 -0.3580
  870SOL    HW1 3478   2.357   0.140   0.456  0.3692  1.0095 -0.1617
  870SOL    HW2 3479   2.370   0.029   0.571 -1.2140 -0.2512  2.6269
  870SOL     MW 3480   2.328   0.096   0.530 -0.2955 -0.5039  0.0617
  871SOL     OW 3481   2.463   2.129   0.804  0.1438 -0.8177  0.1710
  871SOL    HW1 3482   2.388   2.073   0.767  0.0941 -1.6430  3.0315
  871SOL    HW2 3483   2.425   2.215   0.829 -0.1215  1.5243  0.1831
  871SOL     MW 3484   2.448   2.133   0.802  0.1023 -0.6175  0.5501
  872SOL     OW 3485   2.016   2.592   1.434 -0.4385 -0.6239 -0.8988
  872SOL    HW1 3486   1.973   2.624   1.517 -0.8393  1.5226 -1.9707
  872SOL    HW2 3487   1.950   2.523   1.403 -1.9258 -0.8444 -0.8183
  872SOL     MW 3488   2.001   2.587   1.441 -0.6876 -0.3698 -1.0296
  873SOL     OW 3489   2.838   2.049   1.890  0.0423 -0.2289 -0.1473
  873SOL    HW1 3490   2.882   2.117   1.950 -0.2050  2.1398 -0.2808
  873SOL    HW2 3491   2.896   2.048   1.813 -1.2649  1.2450 -0.6264
  873SOL     MW 3492   2.852   2.058   1.888 -0.1628  0.2781 -0.2281
  874SOL     OW 3493   2.449   1.518   2.277  0.2236 -0.2621  0.2258
  874SOL    HW1 3494   2.367   1.473   2.293 -2.2977 -1.2362  0.2060
  874SOL    HW2 3495   2.504   1.438   2.285  0.2265 -2.0848 -0.0943
  874SOL     MW 3496   2.445   1.501   2.280 -0.1086 -0.6311  0.1810
  875SOL     OW 3497   2.340   2.376   0.931 -0.1153 -0.8393 -0.0120
  875SOL    HW1 3498   2.395   2.444   0.883  2.2616  1.2872  0.2132
  875SOL    HW2 3499   2.351   2.390   1.027 -2.3654 -0.4172  0.3956
  875SOL     MW 3500   2.349   2.387   0.938 -0.0986 -0.5030  0.0715
  876SOL     OW 3501   3.046   2.336   1.334 -0.4813  1.0538  0.8314
  876SOL    HW1 3502   3.101   2.355   1.257  1.0366  2.5357 -1.8856
  876SOL    HW2 3503   3.079   2.397   1.400 -1.2082  1.1130  0.6233
  876SOL     MW 3504   3.058   2.346   1.333 -0.3769  1.2571  0.4455
  877SOL     OW 3505   3.072   2.793   0.380 -0.3928 -0.0129 -0.2410
  877SOL    HW1 3506   3.072   2.889   0.362  0.1258  1.0435  0.4372
  877SOL    HW2 3507   3.099   2.743   0.302  2.3336  0.6387  0.9862
  877SOL     MW 3508   3.076   2.799   0.367  0.0354  0.2124  0.0104
  878SOL     OW 3509   2.381   1.832   1.278 -0.3974  0.6645  0.4990
  878SOL    HW1 3510   2.311   1.770   1.302 -0.7883 -2.3317 -0.4852
  878SOL    HW2 3511   2.456   1.787   1.251 -0.6008 -0.8481  1.4191
  878SOL     MW 3512   2.381   1.818   1.278 -0.4758  0.0696  0.4905
  879SOL     OW 3513   2.713   2.392   0.949  0.9276  0.1190 -0.4839
  879SOL    HW1 3514   2.770   2.468   0.969 -1.0951 -2.3406  2.1263
  879SOL    HW2 3515   2.768   2.333   0.896  0.7535  0.2039 -0.8964
  879SOL     MW 3516   2.728   2.394   0.944  0.6378 -0.1943 -0.1939
  880SOL     OW 3517   2.653   1.998   0.643 -0.6547 -0.0889  0.4466
  880SOL    HW1 3518   2.583   2.035   0.695 -2.4840 -0.2867 -0.4140
  880SOL    HW2 3519   2.605   1.967   0.563 -0.0958  1.1142  0.0326
  880SOL     MW 3520   2.637   1.999   0.639 -0.8223  0.0437  0.2784
  881SOL     OW 3521   2.930   2.711   0.737  0.4340 -0.2932  0.1445
  881SOL    HW1 3522   2.868   2.645   0.697 -3.1105 -1.2865 -1.3489
  881SOL    HW2 3523   3.017   2.678   0.706 -0.1290 -0.9693  1.3621
  881SOL     MW 3524   2.933   2.698   0.727 -0.1079 -0.5134  0.1081
  882SOL     OW 3525   2.274   2.829   1.866 -0.1777  0.0905 -0.2370
  882SOL    HW1 3526   2.242   2.828   1.774  0.7369 -1.9810 -0.7624
  882SOL    HW2 3527   2.220   2.760   1.904 -0.9962  1.3949  1.3707
  882SOL     MW 3528   2.262   2.820   1.859 -0.1651 -0.0107 -0.0942
  883SOL     OW 3529   2.290   2.220   1.364  0.5096  0.1092 -0.1823
  883SOL    HW1 3530   2.379   2.184   1.348 -1.9510  0.0204 -0.9513
  883SOL    HW2 3531   2.235   2.185   1.296 -0.6146 -0.5681 -1.8073
  883SOL     MW 3532   2.295   2.210   1.353  0.0366  0.0081 -0.4982
  884SOL     OW 3533   1.934   1.802   1.094 -0.6398  0.3657  0.2620
  884SOL    HW1 3534   1.883   1.872   1.046  1.2265 -2.3785  0.4228
  884SOL    HW2 3535   2.026   1.809   1.067 -1.5861  1.1564 -1.7448
  884SOL     MW 3536   1.939   1.812   1.084 -0.5184  0.1079  0.0184
  885SOL     OW 3537   2.822   2.422   1.816 -0.3434  0.3167  0.3721
  885SOL    HW1 3538   2.897   2.355   1.829 -2.1129  0.7930  2.6129
  885SOL    HW2 3539   2.783   2.393   1.731  1.1739  3.0752  0.5545
  885SOL     MW 3540   2.826   2.409   1.807 -0.3767  0.7435  0.6918
  886SOL     OW 3541   2.847   2.529   1.330  0.1637 -0.4502 -0.1547
  886SOL    HW1 3542   2.926   2.518   1.280 -0.4035 -0.3138 -1.7166
  886SOL    HW2 3543   2.867   2.601   1.388 -0.7667 -2.5025  1.0376
  886SOL     MW 3544   2.860   2.537   1.331 -0.0339 -0.7030 -0.2034
  887SOL     OW 3545   2.291   2.618   1.454 -0.1312 -0.0692 -0.0825
  887SOL    HW1 3546   2.319   2.650   1.372  0.4326  0.0294  2.0313
  887SOL    HW2 3547   2.202   2.586   1.434  1.0296 -2.7900 -0.5446
  887SOL     MW 3548   2.283   2.618   1.441  0.0963 -0.4152  0.1354
  888SOL     OW 3549   1.831   2.051   1.352 -0.4942  0.3486  0.2704
  888SOL    HW1 3550   1.916   2.064   1.303 -1.0589  0.4146  0.4634
  888SOL    HW2 3551   1.838   2.117   1.426  1.3626 -1.1425  2.1462
  888SOL     MW 3552   1.843   2.061   1.356 -0.3237  0.1606  0.5433
  889SOL     OW 3553   2.290   2.082   2.098  0.5939 -0.1741  0.1738
  889SOL    HW1 3554   2.376   2.088   2.142 -0.9648  1.7984  0.5991
  889SOL    HW2 3555   2.277   2.143   2.025 -0.6903  0.7451  0.1321
  889SOL     MW 3556   2.299   2.091   2.094  0.2188  0.2074  0.2244
  890SOL     OW 3557   0.098   2.307   0.073 -0.2101 -0.2609 -0.0500
  890SOL    HW1 3558   0.063   2.393   0.055  3.8807 -0.0833  0.5463
  890SOL    HW2 3559   0.093   2.305   0.169 -0.8126  1.4135  0.8900
  890SOL     MW 3560   0.093   2.318   0.083  0.2501 -0.0165  0.1527
  891SOL     OW 3561   3.040   2.063   1.341  0.2016 -0.0283 -0.3424
  891SOL    HW1 3562   3.119   2.064   1.391 -2.3689 -1.0879  1.1950
  891SOL    HW2 3563   3.015   2.162   1.346  0.7202  1.1309 -1.4423
  891SOL     MW 3564   3.047   2.076   1.348 -0.0692 -0.0151 -0.2847
  892SOL     OW 3565   2.341   2.364   2.945  0.0127  0.0883  0.2691
  892SOL    HW1 3566   2.354   2.292   3.009 -0.8598  0.9589  2.7705
  892SOL    HW2 3567   2.425   2.373   2.903 -0.7573 -1.9359  0.0926
  892SOL     MW 3568   2.354   2.356   2.948 -0.2040 -0.0639  0.5758
  893SOL     OW 3569   1.601   2.507   1.252 -0.0051  0.3630 -0.5041
  893SOL    HW1 3570   1.528   2.495   1.313 -2.6529  1.2427  1.1929
  893SOL    HW2 3571   1.676   2.466   1.289 -0.7396 -1.4016 -0.5833
  893SOL     MW 3572   1.601   2.500   1.265 -0.4514  0.2462 -0.2907
  894SOL     OW 3573   2.901   1.865   0.532  0.2223  0.5626 -0.4719
  894SOL    HW1 3574   2.819   1.882   0.590 -4.3234  0.3865  2.4558
  894SOL    HW2 3575   2.865   1.807   0.474  1.0092  4.3385  1.1515
  894SOL     MW 3576   2.885   1.859   0.532 -0.2736  1.0376  0.1285
  895SOL     OW 3577   2.046   2.118   1.213  0.2411 -0.1498 -0.6110
  895SOL    HW1 3578   2.011   2.191   1.162  0.9318 -0.6399  0.8912
  895SOL    HW2 3579   2.070   2.047   1.151  0.6486 -0.0699  0.2831
  895SOL     MW 3580   2.044   2.118   1.198  0.3860 -0.2040 -0.2948
  896SOL     OW 3581   2.199   2.803   1.012 -0.0812 -0.0304  0.2023
  896SOL    HW1 3582   2.264   2.768   1.073 -0.3098  0.0047 -1.4115
  896SOL    HW2 3583   2.110   2.783   1.053 -2.6855  2.2608  2.1560
  896SOL     MW 3584   2.196   2.795   1.025 -0.4550  0.2765  0.2471
  897SOL     OW 3585   2.990   2.956   0.177 -0.0304 -0.0886 -0.6730
  897SOL    HW1 3586   3.068   2.946   0.125  0.7053  2.8266 -1.4042
  897SOL    HW2 3587   2.933   2.886   0.134 -0.2601  0.3779  0.7155
  897SOL     MW 3588   2.993   2.945   0.164  0.0364  0.3576 -0.5863
  898SOL     OW 3589   2.080   0.151   1.395 -0.3116  0.0511 -0.0550
  898SOL    HW1 3590   2.007   0.108   1.348 -1.0541 -2.0764  0.6598
  898SOL    HW2 3591   2.127   0.206   1.331 -0.3370  1.2228 -0.6973
  898SOL     MW 3592   2.076   0.153   1.380 -0.4129 -0.0750 -0.0455
  899SOL     OW 3593   2.898   2.960   0.601  0.4993  0.0890  0.4363
  899SOL    HW1 3594   2.884   2.875   0.643  0.8093  0.4638  0.4401
  899SOL    HW2 3595   2.818   3.012   0.616  1.1837  1.5212  0.9641
  899SOL     MW 3596   2.886   2.956   0.608  0.6305  0.3274  0.5065
  900SOL     OW 3597   0.133   2.391   1.134  0.5804 -0.6785 -0.6103
  900SOL    HW1 3598   0.130   2.484   1.107  0.1350  0.6769  1.1493
  900SOL    HW2 3599   0.130   2.343   1.050 -1.2230 -0.1263 -0.1120
  900SOL     MW 3600   0.132   2.397   1.120  0.2837 -0.4268 -0.3124
  901SOL     OW 3601   1.731   2.832   1.795 -0.0182  0.0611  0.0228
  901SOL    HW1 3602   1.784   2.763   1.749  0.8714 -0.5193 -0.6037
  901SOL    HW2 3603   1.683   2.864   1.714 -0.6363 -0.7700  1.4498
  901SOL     MW 3604   1.732   2.827   1.778  0.0176 -0.1251  0.1285
  902SOL     OW 3605   2.567   2.063   1.813 -0.3126 -0.7867 -0.0517
  902SOL    HW1 3606   2.563   1.974   1.859 -0.3420 -1.8572 -0.0457
  902SOL    HW2 3607   2.658   2.080   1.838 -0.0515  1.7342 -3.1767
  902SOL     MW 3608   2.579   2.054   1.823 -0.2820 -0.5953 -0.4632
  903SOL     OW 3609   1.651   2.790   0.528 -0.1654 -0.0186 -0.0497
  903SOL    HW1 3610   1.718   2.717   0.555 -0.7957  3.8676 -1.0274
  903SOL    HW2 3611   1.593   2.815   0.603 -2.6711  0.0482 -1.0049
  903SOL     MW 3612   1.653   2.783   0.541 -0.5792  0.5030 -0.3047
  904SOL     OW 3613   2.506   2.529   1.636  0.0914 -0.3063  0.6082
  904SOL    HW1 3614   2.435   2.549   1.569 -0.8850  2.1738 -1.2190
  904SOL    HW2 3615   2.568   2.468   1.589 -2.7752 -1.0883 -3.2958
  904SOL     MW 3616   2.505   2.523   1.621 -0.4156 -0.0822 -0.1480
  905SOL     OW 3617   2.370   2.571   2.118 -0.2563 -0.0318  0.0415
  905SOL    HW1 3618   2.414   2.527   2.045 -0.6950  1.2691 -0.4759
  905SOL    HW2 3619   2.350   2.513   2.195  1.9591 -0.5533  1.0505
  905SOL     MW 3620   2.373   2.557   2.119 -0.0219  0.0710  0.1064
  906SOL     OW 3621   2.515   2.527   0.807 -0.1754  0.4645  0.3999
  906SOL    HW1 3622   2.591   2.514   0.863  0.6612 -0.1153 -1.7477
  906SOL    HW2 3623   2.485   2.623   0.815 -1.0783  2.4716  2.1979
  906SOL     MW 3624   2.521   2.538   0.816 -0.1841  0.6528  0.3538
  907SOL     OW 3625   2.564   2.858   1.281  0.1348 -0.2844  0.0257
  907SOL    HW1 3626   2.635   2.887   1.342  0.7333 -3.0377 -0.2568
  907SOL    HW2 3627   2.606   2.850   1.197 -1.1491 -1.8835  0.2126
  907SOL     MW 3628   2.579   2.861   1.278  0.0444 -0.8587  0.0131
  908SOL     OW 3629   2.672   2.364   0.013  0.3588  0.3220 -0.1497
  908SOL    HW1 3630   2.598   2.317   0.039  1.3293 -1.1822  0.5074
  908SOL    HW2 3631   2.667   2.449   0.065 -2.0534  2.4510  2.0728
  908SOL     MW 3632   2.662   2.369   0.023  0.1685  0.4045  0.2302
  909SOL     OW 3633   1.707   0.214   1.029 -0.7275  0.6690 -0.1945
  909SOL    HW1 3634   1.734   0.300   0.990  0.9120 -0.8322  0.5304
  909SOL    HW2 3635   1.698   0.225   1.123 -3.0478  1.4372 -0.5232
  909SOL     MW 3636   1.709   0.227   1.036 -0.8173  0.5723 -0.1422
  910SOL     OW 3637   2.265   1.697   0.408 -0.6817  0.1857 -0.2119
  910SOL    HW1 3638   2.184   1.647   0.434  0.2412  0.0577 -0.2875
  910SOL    HW2 3639   2.266   1.709   0.313  0.3407 -0.7549 -0.6044
  910SOL     MW 3640   2.254   1.692   0.399 -0.4251  0.0447 -0.2737
  911SOL     OW 3641   2.156   2.189   1.604  0.1160  0.3538  0.2314
  911SOL    HW1 3642   2.221   2.198   1.674  2.4375  1.6478 -1.7978
  911SOL    HW2 3643   2.204   2.196   1.524 -0.9029 -0.1416  2.0067
  911SOL     MW 3644   2.171   2.191   1.603  0.2878  0.4592  0.1979
  912SOL     OW 3645   2.871   1.909   1.488 -0.0954 -0.0854  0.3587
  912SOL    HW1 3646   2.923   1.972   1.433 -0.5436  2.0304 -1.0304
  912SOL    HW2 3647   2.784   1.959   1.497 -0.3917  1.2323 -2.4940
  912SOL     MW 3648   2.867   1.924   1.482 -0.1936  0.3676 -0.2010
  913SOL     OW 3649   2.560   2.949   0.369  0.2717  0.0487  0.4153
  913SOL    HW1 3650   2.616   2.872   0.375  0.5519 -0.0259 -0.6735
  913SOL    HW2 3651   2.469   2.924   0.392  0.1032  1.9095 -1.3032
  913SOL     MW 3652   2.555   2.935   0.373  0.2865  0.2844  0.0449
  914SOL     OW 3653   2.789   1.630   0.030  0.3048  0.3475 -0.5574
  914SOL    HW1 3654   2.774   1.698  -0.029  0.4880  0.4061  1.6964
  914SOL    HW2 3655   2.706   1.594   0.049  2.6707  0.3835 -1.5945
  914SOL     MW 3656   2.776   1.635   0.025  0.6411  0.3600 -0.3969
  915SOL     OW 3657   1.873   0.174   0.220  0.1564  0.4459  0.3710
  915SOL    HW1 3658   1.900   0.086   0.242  0.2121 -0.2417 -1.3493
  915SOL    HW2 3659   1.774   0.170   0.228 -0.2076 -2.1819 -1.0989
  915SOL     MW 3660   1.863   0.162   0.224  0.1157  0.0085 -0.0499
  916SOL     OW 3661   1.817   2.125   1.952 -0.2361 -0.3019  0.1759
  916SOL    HW1 3662   1.811   2.223   1.943 -2.1108  2.0607 -1.1001
  916SOL    HW2 3663   1.790   2.083   1.870 -3.3541  0.8720  0.2553
  916SOL     MW 3664   1.813   2.132   1.940 -0.8948  0.1647  0.0180
  917SOL     OW 3665   2.264   2.337   2.673  0.6471 -0.1557  0.0105
  917SOL    HW1 3666   2.247   2.327   2.769 -1.8760  0.1725 -0.6916
  917SOL    HW2 3667   2.288   2.432   2.664  0.5347  0.5269 -3.5179
  917SOL     MW 3668   2.265   2.348   2.685  0.2994 -0.0224 -0.5476
  918SOL     OW 3669   2.010   1.653   2.620  0.5806  0.0561  0.4104
  918SOL    HW1 3670   1.935   1.674   2.561  0.3877 -0.9947 -1.6415
  918SOL    HW2 3671   2.075   1.715   2.588  1.5398 -1.3143  3.1596
  918SOL     MW 3672   2.009   1.664   2.608  0.6817 -0.2634  0.5024
  919SOL     OW 3673   3.031   2.389   2.274  0.2023 -0.1450 -0.0540
  919SOL    HW1 3674   2.956   2.337   2.264  3.1049  4.2380 -1.3158
  919SOL    HW2 3675   3.080   2.356   2.186 -0.2059 -0.6422  0.5567
  919SOL     MW 3676   3.027   2.378   2.261  0.5314  0.3677 -0.1399
  920SOL     OW 3677   2.769   2.830   0.021  0.0324  0.4696 -0.4829
  920SOL    HW1 3678   2.689   2.884   0.030 -2.4577 -0.8833  1.1020
  920SOL    HW2 3679   2.757   2.772  -0.057 -0.4230 -1.1256 -0.2983
  920SOL     MW 3680   2.757   2.830   0.012 -0.3562  0.0806 -0.2495
  921SOL     OW 3681   2.538   2.671   2.689 -0.3939 -0.0782  0.0742
  921SOL    HW1 3682   2.611   2.639   2.642 -0.3329  2.0257  1.1863
  921SOL    HW2 3683   2.518   2.601   2.756 -3.0123 -0.6050  4.7262
  921SOL     MW 3684   2.545   2.658   2.692 -0.7313  0.1299  0.8347
  922SOL     OW 3685   2.009   2.870   0.296  0.4379  0.0426 -0.8254
  922SOL    HW1 3686   2.010   2.908   0.212 -0.0568  1.9252  1.6875
  922SOL    HW2 3687   1.958   2.793   0.279 -0.0684 -0.7139 -1.5924
  922SOL     MW 3688   2.002   2.865   0.283  0.3058  0.1912 -0.5951
  923SOL     OW 3689   2.175   2.820   1.605  0.0385  0.1716  0.5153
  923SOL    HW1 3690   2.225   2.796   1.530 -0.0042 -0.3621  2.9187
  923SOL    HW2 3691   2.153   2.917   1.597 -2.6589  1.1595 -2.2496
  923SOL     MW 3692   2.179   2.830   1.594 -0.3230  0.2315  0.4676
  924SOL     OW 3693   1.163   2.740   2.460 -0.1966 -0.1370  0.1142
  924SOL    HW1 3694   1.197   2.800   2.396 -1.4908  0.2209  1.1129
  924SOL    HW2 3695   1.233   2.711   2.518  0.9435 -0.0360 -1.4679
  924SOL     MW 3696   1.176   2.744   2.459 -0.2169 -0.0765  0.0372
  925SOL     OW 3697   3.015   0.267   2.704 -0.5770 -0.1791  0.2181
  925SOL    HW1 3698   3.057   0.285   2.625 -1.9920 -2.3970  2.4118
  925SOL    HW2 3699   2.976   0.349   2.745 -0.3549 -0.4268 -0.4358
  925SOL     MW 3700   3.015   0.280   2.699 -0.7344 -0.5044  0.4213
  926SOL     OW 3701   2.672   2.395   2.027 -0.5086 -0.3671  0.4827
  926SOL    HW1 3702   2.723   2.453   2.084  2.0812 -0.3850 -0.3438
  926SOL    HW2 3703   2.715   2.398   1.934  0.0460 -0.7888  1.1120
  926SOL     MW 3704   2.684   2.403   2.022 -0.0937 -0.4251  0.4567
  927SOL     OW 3705   2.413   0.158   0.282  0.0673  0.0360  0.2025
  927SOL    HW1 3706   2.501   0.181   0.245  0.3870  0.1957 -0.1416
  927SOL    HW2 3707   2.353   0.144   0.202  3.9353  1.9496  0.9241
  927SOL     MW 3708   2.417   0.159   0.267  0.6198  0.3096  0.2523
  928SOL     OW 3709   2.041   2.465   1.837 -0.2994  1.1380 -0.2290
  928SOL    HW1 3710   2.106   2.396   1.809  0.7218 -1.7498 -1.5717
  928SOL    HW2 3711   2.070   2.510   1.920  2.5066 -0.5020  1.8633
  928SOL     MW 3712   2.054   2.462   1.844  0.2056  0.5406 -0.1301
  929SOL     OW 3713   2.727   2.326   2.468  0.0963  0.3316 -0.2696
  929SOL    HW1 3714   2.671   2.254   2.453  2.2822 -0.4071 -1.1072
  929SOL    HW2 3715   2.769   2.313   2.551 -0.9917  1.6678 -3.2686
  929SOL     MW 3716   2.725   2.314   2.477  0.2411  0.4104 -0.7758
  930SOL     OW 3717   2.008   2.876   2.670 -0.3038 -0.2084 -0.5719
  930SOL    HW1 3718   2.009   2.814   2.741  0.2034  0.7946 -1.7819
  930SOL    HW2 3719   2.088   2.928   2.698  1.3875  0.1776 -1.8613
  930SOL     MW 3720   2.018   2.874   2.683 -0.0137 -0.0251 -0.9016
  931SOL     OW 3721   2.933   2.828   2.153 -0.4623  0.1111  0.2573
  931SOL    HW1 3722   3.022   2.790   2.172 -0.3312 -0.8534  2.7785
  931SOL    HW2 3723   2.940   2.888   2.077  2.4876  2.6596  0.1519
  931SOL     MW 3724   2.946   2.831   2.146 -0.0558  0.3201  0.5761
  932SOL     OW 3725   2.802   1.915   2.548 -0.1036  0.0296 -0.4024
  932SOL    HW1 3726   2.890   1.939   2.581 -0.0292 -2.0265  0.4934
  932SOL    HW2 3727   2.812   1.935   2.455  2.0142  0.2223  2.0557
  932SOL     MW 3728   2.815   1.921   2.540  0.1857 -0.2163  0.0401
  933SOL     OW 3729   2.088   2.797   2.268 -0.2455 -0.2899 -0.2329
  933SOL    HW1 3730   2.172   2.837   2.296 -2.6735  0.2129 -0.3251
  933SOL    HW2 3731   2.019   2.861   2.248  0.1574 -1.8760  2.9501
  933SOL     MW 3732   2.090   2.811   2.269 -0.5127 -0.4328  0.1749
  934SOL     OW 3733   2.038   2.667   2.497 -0.9838 -0.0374 -0.4079
  934SOL    HW1 3734   2.017   2.750   2.541 -1.6863 -0.3318  2.7885
  934SOL    HW2 3735   2.037   2.696   2.400 -0.0709  1.3386 -3.5885
  934SOL     MW 3736   2.035   2.682   2.490 -0.9561  0.1053 -0.4058
  935SOL     OW 3737   2.633   1.586   1.821 -0.2979  0.1327 -0.0932
  935SOL    HW1 3738   2.715   1.565   1.778  1.2141  0.0280 -0.7113
  935SOL    HW2 3739   2.568   1.591   1.752 -1.2520 -2.8055 -2.6876
  935SOL     MW 3740   2.635   1.584   1.806 -0.2243 -0.2688 -0.5171
  936SOL     OW 3741   2.923   2.211   0.001  0.7599  0.2565 -0.0750
  936SOL    HW1 3742   2.977   2.290   0.010  0.2167  2.1695 -0.3730
  936SOL    HW2 3743   2.840   2.244   0.037  3.2355  1.1284  0.2621
  936SOL     MW 3744   2.920   2.226   0.007  1.0148  0.6240 -0.0698
  937SOL     OW 3745   1.975   2.258   2.623 -0.1520  0.1299 -0.0530
  937SOL    HW1 3746   2.070   2.248   2.633  2.5935 -1.2263 -2.2553
  937SOL    HW2 3747   1.965   2.272   2.529  0.8414 -0.1649  0.7117
  937SOL     MW 3748   1.986   2.259   2.612  0.3413 -0.0880 -0.2427
  938SOL     OW 3749   2.257   1.843   1.962 -0.0744  0.4516 -0.7093
  938SOL    HW1 3750   2.216   1.860   1.879  0.5979 -3.5780  0.5849
  938SOL    HW2 3751   2.264   1.929   2.014 -2.7541 -0.8371 -0.9106
  938SOL     MW 3752   2.253   1.857   1.958 -0.3392 -0.2501 -0.5651
  939SOL     OW 3753   2.787   2.018   2.253  0.4708 -1.1097  0.0259
  939SOL    HW1 3754   2.802   1.951   2.188  0.4994  0.1062  0.1680
  939SOL    HW2 3755   2.690   2.032   2.255 -2.0059  0.6734 -0.6732
  939SOL     MW 3756   2.776   2.011   2.245  0.1478 -0.7140 -0.0476
  940SOL     OW 3757   2.288   0.180   2.662 -0.3301  0.0182  0.2110
  940SOL    HW1 3758   2.281   0.082   2.640 -1.0243  2.3111  1.2255
  940SOL    HW2 3759   2.325   0.188   2.754  0.0427  0.7494  1.4357
  940SOL     MW 3760   2.292   0.168   2.671 -0.3725  0.4172  0.5064
  941SOL     OW 3761   0.086   2.351   2.039  0.1854  0.0824 -0.4625
  941SOL    HW1 3762   0.164   2.306   2.048 -0.9525  1.3172  2.2953
  941SOL    HW2 3763   0.033   2.300   1.977  3.5783  0.1496 -0.0540
  941SOL     MW 3764   0.090   2.339   2.032  0.4829  0.2542 -0.0447
  942SOL     OW 3765   2.875   2.228   2.097 -0.1800  0.5992  0.4566
  942SOL    HW1 3766   2.796   2.269   2.070 -0.9683  0.5270 -1.3120
  942SOL    HW2 3767   2.848   2.152   2.151  0.6469  1.4793  1.5688
  942SOL     MW 3768   2.861   2.223   2.101 -0.1749  0.7058  0.3700
  943SOL     OW 3769   0.220   2.016   2.318  0.4257 -0.1060 -0.1485
  943SOL    HW1 3770   0.149   2.061   2.371 -2.7059  0.5291 -0.3730
  943SOL    HW2 3771   0.302   2.033   2.362 -0.4428  1.5786 -1.1892
  943SOL     MW 3772   0.221   2.024   2.331 -0.1021  0.2001 -0.3154
  944SOL     OW 3773   2.136   2.658   2.039 -0.5754  0.0756 -0.0643
  944SOL    HW1 3774   2.227   2.627   2.064  0.4223 -0.9109 -0.5790
  944SOL    HW2 3775   2.105   2.705   2.117 -2.8097 -0.1882 -2.2033
  944SOL     MW 3776   2.144   2.660   2.052 -0.7385 -0.0894 -0.4145
  945SOL     OW 3777   2.771   2.631   2.929  0.0925  0.0229 -0.0377
  945SOL    HW1 3778   2.719   2.568   2.887 -0.0360  0.9167  0.8993
  945SOL    HW2 3779   2.836   2.663   2.863 -2.0227 -2.9489  0.8242
  945SOL     MW 3780   2.773   2.627   2.915 -0.2035 -0.2513  0.1996
  946SOL     OW 3781   2.536   2.707   2.290 -0.2213  0.1819  0.0186
  946SOL    HW1 3782   2.587   2.757   2.227 -1.2274 -0.9077  2.0703
  946SOL    HW2 3783   2.491   2.643   2.234  2.0439  3.1667 -0.9629
  946SOL     MW 3784   2.536   2.705   2.275 -0.0552  0.4319  0.1598
  947SOL     OW 3785   2.062   0.050   0.411 -0.1232  0.2960 -0.3367
  947SOL    HW1 3786   2.073  -0.032   0.375  0.8024  1.7315  3.0389
  947SOL    HW2 3787   2.139   0.059   0.456 -1.2095 -0.8021 -2.4871
  947SOL     MW 3788   2.073   0.040   0.412 -0.1444  0.3405 -0.1750
  948SOL     OW 3789   1.818   3.102   2.646 -0.1327  0.2399 -0.3200
  948SOL    HW1 3790   1.860   3.020   2.634  1.8022 -0.9596 -0.4620
  948SOL    HW2 3791   1.835   3.136   2.560  0.9706 -1.2463 -0.0318
  948SOL     MW 3792   1.826   3.096   2.633  0.2682 -0.1144 -0.3007
  949SOL     OW 3793   2.516   2.060   2.276  0.3916  0.4359 -0.0281
  949SOL    HW1 3794   2.513   1.980   2.328 -0.3964 -2.2538  1.3606
  949SOL    HW2 3795   2.494   2.127   2.338  2.0519 -0.8761  0.5095
  949SOL     MW 3796   2.513   2.058   2.291  0.5067 -0.0921  0.2261
  950SOL     OW 3797   2.250   2.611   3.050  0.1214  0.2516  0.4455
  950SOL    HW1 3798   2.288   2.528   3.017 -0.0508  0.4818  1.0291
  950SOL    HW2 3799   2.179   2.624   2.980 -1.3681 -0.7172 -0.1605
  950SOL     MW 3800   2.246   2.602   3.036 -0.0979  0.1541  0.4425
  951SOL     OW 3801   2.861   2.057   2.881  0.1950  0.2770 -0.1499
  951SOL    HW1 3802   2.892   2.104   2.961 -0.7957 -1.6850 -2.5009
  951SOL    HW2 3803   2.946   2.047   2.829 -0.5804 -0.1746 -0.1025
  951SOL     MW 3804   2.877   2.062   2.885 -0.0380 -0.0415 -0.4539
  952SOL     OW 3805   3.042   1.654   2.054  0.6787 -0.6935  0.2425
  952SOL    HW1 3806   2.956   1.699   2.067 -0.7536 -0.4250 -1.4966
  952SOL    HW2 3807   3.111   1.713   2.089  0.4158 -0.5435 -1.8382
  952SOL     MW 3808   3.039   1.668   2.060  0.4551 -0.6383 -0.2615
  953SOL     OW 3809   1.929   1.850   2.829  0.3732  0.3855 -0.0805
  953SOL    HW1 3810   1.847   1.812   2.867  1.5851 -1.0623 -0.5179
  953SOL    HW2 3811   1.960   1.777   2.777 -0.7976 -1.9399 -0.6631
  953SOL     MW 3812   1.922   1.835   2.827  0.3786 -0.1124 -0.2151
  954SOL     OW 3813   2.429   2.024   2.926  0.2745 -0.0267  0.6221
  954SOL    HW1 3814   2.345   2.056   2.883  1.9611  1.3034  1.0868
  954SOL    HW2 3815   2.485   1.994   2.846 -1.1131 -0.0217 -0.6645
  954SOL     MW 3816   2.425   2.024   2.909  0.3139  0.1494  0.5137
  955SOL     OW 3817   1.570   1.633   2.592 -0.1795  0.6086  0.0774
  955SOL    HW1 3818   1.531   1.640   2.504 -0.1084  0.6812 -0.2986
  955SOL    HW2 3819   1.646   1.690   2.582  0.6537 -2.5330 -0.5710
  955SOL     MW 3820   1.575   1.642   2.579 -0.0602  0.2037 -0.0577
  956SOL     OW 3821   2.593   2.396   2.854  0.1126  0.4324 -0.1799
  956SOL    HW1 3822   2.630   2.375   2.940  0.2484  1.1301  3.2694
  956SOL    HW2 3823   2.649   2.347   2.790 -0.0682 -1.6042  1.7153
  956SOL     MW 3824   2.605   2.387   2.857  0.1066  0.2557  0.5252
  957SOL     OW 3825   2.281   2.837   0.389 -0.5470  0.0776 -0.0608
  957SOL    HW1 3826   2.210   2.848   0.325  0.4312 -0.7183  2.8800
  957SOL    HW2 3827   2.235   2.777   0.452  0.2937 -0.2111  0.5922
  957SOL     MW 3828   2.266   2.831   0.389 -0.3070 -0.0655  0.4134
  958SOL     OW 3829   2.041   2.691   2.891  0.1445  0.3345 -0.3102
  958SOL    HW1 3830   1.995   2.624   2.840  1.1892  0.2185 -2.8113
  958SOL    HW2 3831   1.968   2.722   2.948 -1.1389 -0.3741 -2.3219
  958SOL     MW 3832   2.025   2.686   2.892  0.1130  0.2257 -0.9057
  959SOL     OW 3833   2.444   2.590   0.361 -0.5091  0.2328  0.1065
  959SOL    HW1 3834   2.521   2.589   0.302  0.9624 -1.1539  0.0751
  959SOL    HW2 3835   2.406   2.680   0.349 -1.4339 -1.1006  1.1164
  959SOL     MW 3836   2.449   2.602   0.352 -0.4370 -0.1261  0.2356
  960SOL     OW 3837   1.968   2.471   2.281  0.1311 -0.2379  0.2479
  960SOL    HW1 3838   1.959   2.379   2.274 -1.0311  1.8074 -0.5984
  960SOL    HW2 3839   1.927   2.494   2.360  3.0753  1.1250 -1.3093
  960SOL     MW 3840   1.962   2.462   2.290  0.3662  0.2118 -0.0692
  961SOL     OW 3841   2.242   2.458   2.326 -0.3445  0.2266  0.1655
  961SOL    HW1 3842   2.147   2.464   2.308 -2.3964  0.4554  1.8837
  961SOL    HW2 3843   2.269   2.509   2.403 -0.2279 -0.5266 -0.6894
  961SOL     MW 3844   2.233   2.466   2.334 -0.5999  0.1574  0.2794
  962SOL     OW 3845   2.196   2.054   2.765 -0.2920  0.2031  0.2051
  962SOL    HW1 3846   2.152   1.997   2.830 -1.6945  0.3313  1.8162
  962SOL    HW2 3847   2.222   1.995   2.693  1.3511 -1.6357 -1.2605
  962SOL     MW 3848   2.194   2.039   2.764 -0.2603 -0.0226  0.2243
  963SOL     OW 3849   1.744   2.525   2.145 -0.0815  0.6447 -0.5322
  963SOL    HW1 3850   1.823   2.502   2.190  2.7175 -0.8962 -0.3478
  963SOL    HW2 3851   1.753   2.493   2.055 -0.1597  1.4317 -2.5615
  963SOL     MW 3852   1.756   2.517   2.139  0.2775  0.5452 -0.7756
  964SOL     OW 3853   1.813   2.012   2.615 -0.1228 -0.1980  0.0555
  964SOL    HW1 3854   1.884   2.078   2.616 -0.3404 -0.1345  0.5439
  964SOL    HW2 3855   1.847   1.945   2.676 -4.4803  1.7641 -1.2317
  964SOL     MW 3856   1.827   2.012   2.623 -0.7265  0.0692 -0.0499
  965SOL     OW 3857   2.230   2.682   0.610 -0.4458  0.0962 -0.0328
  965SOL    HW1 3858   2.213   2.584   0.599 -3.7722 -1.6837  0.5276
  965SOL    HW2 3859   2.306   2.697   0.665 -3.2134 -3.5359  1.3783
  965SOL     MW 3860   2.238   2.671   0.616 -1.2498 -0.6178  0.2273
  966SOL     OW 3861   2.737   2.597   2.524  0.4791 -0.0926  0.3940
  966SOL    HW1 3862   2.683   2.640   2.460 -0.1054  0.3813  3.0109
  966SOL    HW2 3863   2.736   2.510   2.488 -0.9469  2.0044 -2.0715
  966SOL     MW 3864   2.730   2.591   2.511  0.2139  0.2466  0.4139
  967SOL     OW 3865   2.849   3.046   2.952  0.9044 -0.2525 -0.2047
  967SOL    HW1 3866   2.804   2.965   2.974  1.1029 -1.3535 -2.0208
  967SOL    HW2 3867   2.775   3.089   2.910  2.2793 -3.3769 -1.8935
  967SOL     MW 3868   2.833   3.041   2.949  1.1120 -0.8100 -0.6671
  968SOL     OW 3869   3.026   2.515   3.035 -0.0606  0.6909 -0.1071
  968SOL    HW1 3870   2.934   2.524   3.009 -2.8466 -1.2689 -1.3755
  968SOL    HW2 3871   3.071   2.509   2.946 -1.0208  0.1571  1.0658
  968SOL     MW 3872   3.020   2.515   3.020 -0.5549  0.3619 -0.1197
  969SOL     OW 3873   1.551   2.132   1.721  0.2270  0.1241  0.0923
  969SOL    HW1 3874   1.637   2.081   1.726  1.9211 -1.1340  2.7146
  969SOL    HW2 3875   1.530   2.128   1.814  1.1362  0.3797  1.7102
  969SOL     MW 3876   1.559   2.125   1.734  0.5705 -0.0081  0.6517
  970SOL     OW 3877   1.697   1.692   1.821  0.2542  0.4436  0.0103
  970SOL    HW1 3878   1.755   1.673   1.894 -1.8268  1.0215  1.6347
  970SOL    HW2 3879   1.612   1.707   1.857  0.3471 -2.1089 -0.9836
  970SOL     MW 3880   1.693   1.691   1.836 -0.0081  0.1831  0.0935
  971SOL     OW 3881   1.869   0.085   2.381 -0.3837 -0.1170  0.7296
  971SOL    HW1 3882   1.914   0.025   2.315  1.1180 -0.4790 -2.5479
  971SOL    HW2 3883   1.922   0.167   2.384 -2.3252  4.6257 -0.2794
  971SOL     MW 3884   1.882   0.088   2.373 -0.4417  0.4610  0.1640
  972SOL     OW 3885   0.237   2.774   2.532  0.0581  0.0738 -0.3214
  972SOL    HW1 3886   0.289   2.692   2.536 -1.1198  2.9086 -3.0821
  972SOL    HW2 3887   0.294   2.851   2.523  0.0078  0.9607 -0.5325
  972SOL     MW 3888   0.252   2.773   2.531 -0.1040  0.5648 -0.7135
  973SOL     OW 3889   2.608   3.094   2.071 -0.4734  0.1484 -0.0066
  973SOL    HW1 3890   2.583   3.007   2.051 -2.7335  1.5764  1.2103
  973SOL    HW2 3891   2.605   3.130   1.980 -1.2966  3.4108  1.0166
  973SOL     MW 3892   2.604   3.088   2.056 -0.8802  0.7672  0.2890
  974SOL     OW 3893   2.043   0.313   2.713  0.4533 -0.1276  0.2345
  974SOL    HW1 3894   2.099   0.240   2.733  0.4823  0.3338 -0.5018
  974SOL    HW2 3895   1.975   0.305   2.777 -0.8929 -1.2886  1.2992
  974SOL     MW 3896   2.042   0.302   2.724  0.2795 -0.2199  0.2778
  975SOL     OW 3897   2.319   2.580   2.569  0.2124 -0.3604 -0.2128
  975SOL    HW1 3898   2.396   2.625   2.610 -2.3284  0.0192 -0.2808
  975SOL    HW2 3899   2.245   2.639   2.556  1.2389 -0.0995 -0.9877
  975SOL     MW 3900   2.320   2.594   2.572  0.0126 -0.2759 -0.3240
  976SOL     OW 3901   0.267   0.256   1.683 -0.4641 -0.0066  0.1307
  976SOL    HW1 3902   0.313   0.208   1.758  0.4379 -2.0669 -0.1633
  976SOL    HW2 3903   0.182   0.209   1.672 -0.5118 -1.8555 -1.4005
  976SOL     MW 3904   0.262   0.244   1.692 -0.3514 -0.5223 -0.1101
  977SOL     OW 3905   1.680   2.786   2.496 -0.3460 -0.4010 -0.3353
  977SOL    HW1 3906   1.721   2.696   2.500 -1.3086  2.0369  1.5345
  977SOL    HW2 3907   1.750   2.833   2.451 -0.4842  0.5592  1.0123
  977SOL     MW 3908   1.695   2.780   2.491 -0.4913  0.0474  0.0892
   3.10000   3.10000   3.10000
