977 TIP4P/2005f water molecules t=   1.90000 step= 1900
 3908
    1SOL     OW    1   0.446   0.770   0.152  0.4574 -0.4397  0.5654
    1SOL    HW1    2   0.441   0.737   0.062 -0.2710 -2.3624  2.2977
    1SOL    HW2    3   0.453   0.703   0.216  1.5427  1.4340  1.0255
    1SOL     MW    4   0.446   0.757   0.148  0.5045 -0.4462  0.8547
    2SOL     OW    5   0.271   2.997   1.119 -0.1133 -0.0904  0.6090
    2SOL    HW1    6   0.335   3.070   1.097  0.6614 -0.1904 -0.1146
    2SOL    HW2    7   0.184   3.037   1.130  1.7925 -0.2307  1.7149
    2SOL     MW    8   0.268   3.012   1.117  0.2404 -0.1221  0.6595
    3SOL     OW    9   2.702   0.342   0.914 -0.3099  0.3215 -0.7048
    3SOL    HW1   10   2.726   0.422   0.881 -2.3067  1.3914 -0.9914
    3SOL    HW2   11   2.687   0.359   1.003  0.2393  0.6214  0.1179
    3SOL     MW   12   2.703   0.355   0.922 -0.5009  0.5022 -0.6341
    4SOL     OW   13   2.936   1.740   0.535 -0.3672  0.4975  0.2628
    4SOL    HW1   14   2.916   1.830   0.506 -1.6621 -1.7386 -0.0940
    4SOL    HW2   15   2.993   1.708   0.459 -0.0062  1.4590 -1.9863
    4SOL     MW   16   2.941   1.748   0.521 -0.4904  0.3293 -0.0810
    5SOL     OW   17   1.620   1.465   0.622  0.0066  0.0852  0.0268
    5SOL    HW1   18   1.650   1.447   0.710 -0.3246  0.1720  0.3429
    5SOL    HW2   19   1.524   1.477   0.650 -1.9003 -0.8647  1.5778
    5SOL     MW   20   1.611   1.464   0.637 -0.2887 -0.0287  0.2731
    6SOL     OW   21   0.767   1.426   0.608 -0.1688  0.1392 -0.0643
    6SOL    HW1   22   0.671   1.419   0.617  0.4818 -0.3151  1.4497
    6SOL    HW2   23   0.805   1.349   0.650 -0.1364  1.8022  3.0829
    6SOL     MW   24   0.759   1.415   0.615 -0.0787  0.2987  0.5507
    7SOL     OW   25   2.008   1.009   0.020  0.2021 -0.5372 -0.0072
    7SOL    HW1   26   2.068   1.082   0.052  3.2028  1.6325  1.2375
    7SOL    HW2   27   1.946   0.995   0.094  0.9171 -0.8150 -2.1896
    7SOL     MW   28   2.008   1.017   0.034  0.6924 -0.2876 -0.1310
    8SOL     OW   29   0.846   1.382   0.983  0.3112  0.0661  0.4110
    8SOL    HW1   30   0.889   1.458   1.018  0.2891  2.7057 -1.2902
    8SOL    HW2   31   0.840   1.310   1.049  0.6100 -0.9495 -3.1747
    8SOL     MW   32   0.851   1.382   0.997  0.3477  0.2804 -0.2866
    9SOL     OW   33   0.873   0.541   1.283 -0.0739 -0.0724 -0.0376
    9SOL    HW1   34   0.843   0.452   1.266  1.3037  0.0596  2.2987
    9SOL    HW2   35   0.920   0.541   1.367 -1.6681  1.8222  1.2853
    9SOL     MW   36   0.875   0.529   1.292 -0.1025  0.1950  0.4452
   10SOL     OW   37   0.322   0.829   0.513  0.0856  0.8568  0.0146
   10SOL    HW1   38   0.408   0.873   0.489 -0.3399  4.4425 -1.8473
   10SOL    HW2   39   0.273   0.883   0.573  0.6245 -1.7526 -0.9638
   10SOL     MW   40   0.327   0.842   0.518  0.1006  0.9856 -0.3602
   11SOL     OW   41   0.743   1.100   1.478 -0.1323 -0.5041 -0.3493
   11SOL    HW1   42   0.802   1.111   1.556  2.5460  0.2044 -1.3204
   11SOL    HW2   43   0.773   1.013   1.450  0.3962  1.3952 -2.5431
   11SOL     MW   44   0.755   1.090   1.485  0.2908 -0.1600 -0.7669
   12SOL     OW   45   3.095   1.074   0.914 -0.5013 -0.6560  0.2550
   12SOL    HW1   46   3.138   1.148   0.963  0.4206  1.4151 -2.0571
   12SOL    HW2   47   3.079   1.106   0.821 -2.9110 -0.4795  0.3711
   12SOL     MW   48   3.099   1.088   0.908 -0.6976 -0.3594 -0.0347
   13SOL     OW   49   1.843   1.428   1.294  0.3522  0.2513 -0.1851
   13SOL    HW1   50   1.870   1.345   1.249 -0.9039 -0.7773  0.7284
   13SOL    HW2   51   1.913   1.490   1.272  1.0436 -2.6064 -2.8393
   13SOL     MW   52   1.856   1.425   1.285  0.2777 -0.2615 -0.4148
   14SOL     OW   53   0.590   0.259   1.854 -0.0606 -0.2315  0.6546
   14SOL    HW1   54   0.633   0.206   1.790 -0.0714  0.5289 -1.6031
   14SOL    HW2   55   0.507   0.285   1.812 -3.0553 -0.0400  1.2241
   14SOL     MW   56   0.585   0.255   1.840 -0.4571 -0.1059  0.4319
   15SOL     OW   57   2.028   0.401   0.956 -0.7523  0.1789  0.2764
   15SOL    HW1   58   2.058   0.480   1.003 -0.2708 -0.9530  3.2108
   15SOL    HW2   59   2.059   0.421   0.860 -1.0239 -0.8129 -2.0904
   15SOL     MW   60   2.036   0.414   0.950 -0.7246 -0.1013  0.3513
   16SOL     OW   61   0.218   1.841   0.260  0.2850 -0.1027 -0.2212
   16SOL    HW1   62   0.296   1.776   0.269  0.6408 -0.6356  1.2234
   16SOL    HW2   63   0.245   1.914   0.315 -1.6053 -0.8052  1.9001
   16SOL     MW   64   0.232   1.842   0.268  0.0825 -0.2657  0.2493
   17SOL     OW   65   1.134   0.869   1.392  0.1955 -0.6397 -0.1752
   17SOL    HW1   66   1.147   0.835   1.479  1.6936  0.5798 -1.1342
   17SOL    HW2   67   1.036   0.880   1.391 -1.5023  1.5540 -2.2905
   17SOL     MW   68   1.123   0.866   1.403  0.1691 -0.1893 -0.5808
   18SOL     OW   69   0.007   1.627   0.349 -0.3525  0.0195 -0.2273
   18SOL    HW1   70   0.083   1.685   0.350 -2.8305  1.3123  0.4047
   18SOL    HW2   71   0.007   1.595   0.258  0.5066  0.8998  0.7189
   18SOL     MW   72   0.017   1.631   0.337 -0.5661  0.3062 -0.0191
   19SOL     OW   73   0.079   1.388   0.954  0.3667  0.2298 -0.3587
   19SOL    HW1   74   0.087   1.406   0.859  0.6451 -0.2806 -0.0688
   19SOL    HW2   75  -0.010   1.369   0.970  0.4824 -0.3239  0.0684
   19SOL     MW   76   0.068   1.388   0.943  0.4187  0.0894 -0.2641
   20SOL     OW   77   0.442   2.117   1.267  0.1167  0.1866  0.0213
   20SOL    HW1   78   0.388   2.048   1.222 -0.7852 -0.5292 -4.5361
   20SOL    HW2   79   0.399   2.133   1.347  1.9492 -0.0183  1.0051
   20SOL     MW   80   0.430   2.110   1.271  0.2395  0.0651 -0.4502
   21SOL     OW   81   0.564   0.926   0.453  0.2142  0.0468  0.3242
   21SOL    HW1   82   0.628   0.888   0.509 -3.4701  0.4169 -0.0673
   21SOL    HW2   83   0.607   0.927   0.365 -1.9427 -0.8544  1.1593
   21SOL     MW   84   0.578   0.921   0.449 -0.5565 -0.0233  0.3828
   22SOL     OW   85   1.544   0.760   0.955  0.1123  0.7273 -0.2050
   22SOL    HW1   86   1.540   0.700   0.877 -1.5313 -1.8729  1.5977
   22SOL    HW2   87   1.469   0.815   0.951 -0.6904 -0.0324 -1.9901
   22SOL     MW   88   1.534   0.759   0.944 -0.2105  0.2840 -0.2027
   23SOL     OW   89  -0.002   0.806   0.679 -0.2160 -0.0310 -0.8112
   23SOL    HW1   90   0.050   0.741   0.736  1.4560  0.2109  0.4319
   23SOL    HW2   91   0.055   0.887   0.675  2.2966  1.6448  1.3767
   23SOL     MW   92   0.012   0.808   0.686  0.3361  0.2220 -0.3585
   24SOL     OW   93   2.020   2.171   0.066 -0.9106  0.2098 -0.1944
   24SOL    HW1   94   1.994   2.144   0.158  2.0992 -0.0410 -2.7117
   24SOL    HW2   95   2.066   2.100   0.023  1.9593  1.9374 -2.6885
   24SOL     MW   96   2.023   2.158   0.072 -0.1349  0.4046 -0.8556
   25SOL     OW   97   0.225   1.451   0.387  0.1342  0.1000  0.4971
   25SOL    HW1   98   0.148   1.502   0.400 -4.3131  1.8967 -1.9001
   25SOL    HW2   99   0.258   1.455   0.304 -0.0333 -4.3853  1.9201
   25SOL     MW  100   0.219   1.458   0.378 -0.4746 -0.2548  0.3685
   26SOL     OW  101   1.943   1.021   0.328 -0.3418 -0.5334  0.2894
   26SOL    HW1  102   1.903   1.066   0.406  1.5311  0.1764  0.5948
   26SOL    HW2  103   1.995   1.095   0.294  0.2107  1.2736 -1.0414
   26SOL     MW  104   1.945   1.037   0.334 -0.0217 -0.2013  0.1541
   27SOL     OW  105   1.841   1.377   0.153 -0.2698 -0.5899 -0.1270
   27SOL    HW1  106   1.772   1.431   0.197 -1.9064 -2.7151  1.5467
   27SOL    HW2  107   1.910   1.367   0.218  0.4465 -0.4020 -1.4040
   27SOL     MW  108   1.841   1.383   0.167 -0.3912 -0.8455 -0.0747
   28SOL     OW  109   0.441   0.922   2.089  0.0159 -0.2206 -0.0098
   28SOL    HW1  110   0.491   0.889   2.165 -1.4606 -1.3346 -0.8346
   28SOL    HW2  111   0.365   0.873   2.073  1.4779 -0.1756 -0.4800
   28SOL     MW  112   0.437   0.911   2.097  0.0140 -0.3616 -0.1807
   29SOL     OW  113   0.169   1.432   0.685 -0.0654  0.2965 -0.0894
   29SOL    HW1  114   0.182   1.517   0.645 -0.1563 -0.0690  1.1889
   29SOL    HW2  115   0.195   1.368   0.619  1.3418  0.7621  1.1009
   29SOL     MW  116   0.174   1.435   0.671  0.1083  0.3097  0.2363
   30SOL     OW  117   0.710   1.278   1.231  0.7201  0.3912  0.0466
   30SOL    HW1  118   0.613   1.269   1.218  1.5678 -0.7598 -3.2600
   30SOL    HW2  119   0.736   1.206   1.291 -1.9272 -0.5734  2.3764
   30SOL     MW  120   0.701   1.267   1.237  0.4826  0.1121 -0.0823
   31SOL     OW  121   0.480   0.253   0.176 -0.6812 -0.1439 -0.4405
   31SOL    HW1  122   0.513   0.178   0.228 -0.4393 -1.9731  0.6273
   31SOL    HW2  123   0.439   0.211   0.098 -0.1221  0.3537  1.7373
   31SOL     MW  124   0.479   0.237   0.173 -0.5755 -0.3196 -0.0123
   32SOL     OW  125   2.740   1.000   1.080 -0.6408  0.0066 -0.4865
   32SOL    HW1  126   2.678   0.944   1.134  0.4305  1.1123 -0.4055
   32SOL    HW2  127   2.815   0.934   1.078  1.4633 -2.8393 -0.2649
   32SOL     MW  128   2.742   0.984   1.087 -0.2218 -0.2230 -0.4466
   33SOL     OW  129   1.629   1.265   0.395 -0.0304  1.1600 -0.2954
   33SOL    HW1  130   1.705   1.231   0.447 -0.3508 -0.8317  1.0103
   33SOL    HW2  131   1.586   1.328   0.454  0.3434  2.2315 -1.1805
   33SOL     MW  132   1.634   1.269   0.410 -0.0234  1.0386 -0.2399
   34SOL     OW  133   1.144   2.000   1.177  0.3565  0.3316 -0.2230
   34SOL    HW1  134   1.062   2.000   1.227 -1.0075 -2.6769 -2.6834
   34SOL    HW2  135   1.203   2.008   1.247 -0.7766  0.9226  3.3563
   34SOL     MW  136   1.141   2.001   1.193  0.0270  0.0127 -0.0754
   35SOL     OW  137   0.339   0.144   1.665  0.5843 -0.3544 -0.1772
   35SOL    HW1  138   0.359   0.106   1.750 -2.4783 -0.6015  0.1760
   35SOL    HW2  139   0.330   0.067   1.612  2.3754 -1.2606  0.4976
   35SOL     MW  140   0.340   0.128   1.669  0.4165 -0.5066 -0.0416
   36SOL     OW  141   1.952   2.016   0.573 -0.2904  0.0242  1.1629
   36SOL    HW1  142   1.967   2.011   0.480  0.8541  0.9924 -0.5875
   36SOL    HW2  143   1.981   1.931   0.596  0.7784  2.6716 -0.7669
   36SOL     MW  144   1.958   2.004   0.564  0.0016  0.5012  0.6773
   37SOL     OW  145   1.724   2.061   0.959 -0.2449 -0.4258 -0.4308
   37SOL    HW1  146   1.667   1.987   0.930  1.2793  1.2560  1.1704
   37SOL    HW2  147   1.681   2.096   1.043 -1.1765  1.4129 -3.6474
   37SOL     MW  148   1.711   2.056   0.966 -0.1667  0.0387 -0.6439
   38SOL     OW  149   2.850   0.969   0.057  0.6125  0.0018  0.4636
   38SOL    HW1  150   2.903   0.971   0.138  1.9280  1.4815 -2.6270
   38SOL    HW2  151   2.897   0.956  -0.031 -0.8818  0.1876  0.7630
   38SOL     MW  152   2.863   0.967   0.056  0.5889  0.2216  0.0953
   39SOL     OW  153   1.524   0.615   0.705 -0.6592 -0.7944 -0.7150
   39SOL    HW1  154   1.492   0.533   0.735 -1.0370  1.6401  2.4849
   39SOL    HW2  155   1.448   0.672   0.688  2.8281 -1.3090 -0.9737
   39SOL     MW  156   1.510   0.612   0.707 -0.2489 -0.5411 -0.3269
   40SOL     OW  157   1.279   1.882   0.232 -0.0124  0.0236 -0.5107
   40SOL    HW1  158   1.325   1.798   0.242  1.4147  0.0100  0.8365
   40SOL    HW2  159   1.230   1.892   0.312 -0.1949  0.7191  0.2719
   40SOL     MW  160   1.279   1.872   0.244  0.1518  0.1136 -0.2297
   41SOL     OW  161   0.477   0.497   1.579 -1.2203  0.1899 -0.2238
   41SOL    HW1  162   0.548   0.563   1.554  0.2520 -0.7957 -1.9426
   41SOL    HW2  163   0.398   0.551   1.556 -2.6871 -1.3951 -0.6238
   41SOL     MW  164   0.476   0.513   1.572 -1.2196 -0.1493 -0.5034
   42SOL     OW  165   1.253   2.897   1.983  0.3583 -0.3387  0.1860
   42SOL    HW1  166   1.199   2.920   2.058  2.4023 -0.0376 -2.2246
   42SOL    HW2  167   1.329   2.841   2.029  1.4946 -0.7783  1.9419
   42SOL     MW  168   1.256   2.893   1.999  0.7779 -0.3570  0.0997
   43SOL     OW  169   1.388   0.130   1.686  0.2333  0.1716 -0.0318
   43SOL    HW1  170   1.453   0.063   1.683  0.4233  1.1140 -3.3797
   43SOL    HW2  171   1.311   0.074   1.699  0.0344  0.5750  1.1475
   43SOL     MW  172   1.386   0.114   1.687  0.2321  0.3492 -0.3179
   44SOL     OW  173   1.199   0.844   0.936 -0.2437  0.2767 -0.1043
   44SOL    HW1  174   1.184   0.935   0.961  0.9791  1.1165 -0.5413
   44SOL    HW2  175   1.135   0.791   0.981  0.5935 -0.4218  0.5124
   44SOL     MW  176   1.188   0.849   0.945  0.0281  0.2954 -0.0806
   45SOL     OW  177   1.316   0.775   0.708  0.3506 -0.0724  0.5396
   45SOL    HW1  178   1.268   0.768   0.791 -1.9079 -0.1598  0.4686
   45SOL    HW2  179   1.255   0.723   0.647 -1.4619 -0.2464 -3.2438
   45SOL     MW  180   1.302   0.767   0.711 -0.1865 -0.1069  0.0310
   46SOL     OW  181   0.436   1.119   0.683  0.3923  0.1302  0.4808
   46SOL    HW1  182   0.462   1.140   0.594  1.0436 -0.4392 -1.4522
   46SOL    HW2  183   0.434   1.208   0.729  2.0044  0.6365 -0.5934
   46SOL     MW  184   0.439   1.134   0.677  0.6910  0.1218  0.0841
   47SOL     OW  185   0.152   2.016   1.926  0.4978  0.7709  0.0670
   47SOL    HW1  186   0.131   1.938   1.872  0.2039 -0.5403 -3.9918
   47SOL    HW2  187   0.184   1.984   2.013 -1.3871  0.0769 -1.5843
   47SOL     MW  188   0.154   2.001   1.931  0.2103  0.5064 -0.6864
   48SOL     OW  189   1.286   0.495   1.056 -0.1961  0.4928 -0.5661
   48SOL    HW1  190   1.226   0.452   0.994 -0.8800 -0.2970  1.9650
   48SOL    HW2  191   1.226   0.562   1.085  0.9896  0.4542 -1.3843
   48SOL     MW  192   1.270   0.499   1.051 -0.1299  0.3835 -0.3401
   49SOL     OW  193   1.724   0.707   1.527  0.9084 -0.1925 -0.2023
   49SOL    HW1  194   1.756   0.655   1.605 -1.4441 -0.7174  1.7365
   49SOL    HW2  195   1.774   0.665   1.456  0.3400 -0.6405 -2.2918
   49SOL     MW  196   1.735   0.695   1.528  0.5231 -0.3208 -0.2222
   50SOL     OW  197   1.292   1.239   0.594 -0.5148  0.2639 -0.4959
   50SOL    HW1  198   1.213   1.226   0.654  2.0275  4.1022 -2.6428
   50SOL    HW2  199   1.350   1.163   0.612  1.8427  0.5288  0.5162
   50SOL     MW  200   1.289   1.227   0.604  0.1316  0.8053 -0.6456
   51SOL     OW  201   0.340   2.915   0.855 -0.3833 -0.1940  0.1024
   51SOL    HW1  202   0.424   2.872   0.878  0.5414  0.6665  2.2196
   51SOL    HW2  203   0.318   2.958   0.938  0.1282  2.8333 -1.1507
   51SOL     MW  204   0.348   2.915   0.869 -0.1938  0.3189  0.2164
   52SOL     OW  205   0.809   1.851   0.456 -0.2608  0.0021 -0.1787
   52SOL    HW1  206   0.793   1.943   0.472  0.9964  0.3511 -1.8687
   52SOL    HW2  207   0.826   1.840   0.361 -1.1699  0.8158 -0.8843
   52SOL     MW  208   0.809   1.862   0.446 -0.2148  0.1555 -0.4948
   53SOL     OW  209   0.479   2.154   0.606  0.1299  0.1647  0.8026
   53SOL    HW1  210   0.421   2.110   0.540  1.2344 -0.0182 -0.9520
   53SOL    HW2  211   0.469   2.249   0.594 -0.4730 -1.4700  0.8114
   53SOL     MW  212   0.470   2.160   0.596  0.1961 -0.0751  0.5723
   54SOL     OW  213   2.040   0.978   0.688 -0.1525  0.0352 -0.3787
   54SOL    HW1  214   2.117   0.958   0.638 -0.2903  0.7173  0.7729
   54SOL    HW2  215   1.988   0.896   0.696  1.7229 -2.2635 -1.0218
   54SOL     MW  216   2.043   0.964   0.682  0.0768 -0.1781 -0.3116
   55SOL     OW  217   0.432   1.532   1.716 -0.0723 -0.1542 -0.1575
   55SOL    HW1  218   0.384   1.579   1.641 -0.0137  1.0266 -2.1723
   55SOL    HW2  219   0.523   1.521   1.687  1.6488  0.1885 -0.1987
   55SOL     MW  220   0.438   1.537   1.703  0.1625  0.0468 -0.4288
   56SOL     OW  221   0.657   0.898   0.194  0.3377  0.2142  0.1683
   56SOL    HW1  222   0.636   0.978   0.143  1.1702  0.0169  1.2973
   56SOL    HW2  223   0.570   0.856   0.185  2.4295  0.6980 -1.5385
   56SOL     MW  224   0.643   0.903   0.186  0.7236  0.2520  0.0920
   57SOL     OW  225   1.099   1.340   1.192 -0.0419  0.3167  0.2465
   57SOL    HW1  226   1.196   1.358   1.203 -1.4309  0.4099 -1.7423
   57SOL    HW2  227   1.082   1.297   1.277 -1.1309 -1.3973 -0.5171
   57SOL     MW  228   1.109   1.336   1.205 -0.3689  0.1028 -0.1166
   58SOL     OW  229   0.443   1.249   1.295 -0.3127 -0.5394  0.1385
   58SOL    HW1  230   0.428   1.346   1.319 -1.4310 -1.1831  1.2462
   58SOL    HW2  231   0.462   1.210   1.379 -1.0325  4.3577 -0.2469
   58SOL     MW  232   0.443   1.257   1.309 -0.5552  0.0218  0.2338
   59SOL     OW  233   1.483   1.664   0.387 -0.3016  0.1334  0.4170
   59SOL    HW1  234   1.529   1.727   0.432 -2.5276 -3.3887 -1.0556
   59SOL    HW2  235   1.403   1.660   0.440  1.1436 -0.4578 -2.0810
   59SOL     MW  236   1.478   1.672   0.400 -0.4046 -0.4093 -0.1069
   60SOL     OW  237   3.054   0.157   1.616 -0.2962 -0.4359  0.1430
   60SOL    HW1  238   2.970   0.208   1.628  0.1845 -0.5726  0.4115
   60SOL    HW2  239   3.090   0.143   1.699  0.1621  1.9180 -4.0268
   60SOL     MW  240   3.048   0.162   1.628 -0.1723 -0.1434 -0.3717
   61SOL     OW  241   1.979   1.363   2.993 -0.5012  0.4124  0.3170
   61SOL    HW1  242   1.966   1.373   3.092 -2.3932 -0.0054 -1.5359
   61SOL    HW2  243   2.050   1.305   2.984 -1.6493  0.9150  1.2817
   61SOL     MW  244   1.987   1.357   3.005 -0.9024  0.4236  0.1998
   62SOL     OW  245   0.544   1.787   0.560 -0.4305  0.5625 -0.7158
   62SOL    HW1  246   0.637   1.811   0.550  2.7049  0.2393  0.7004
   62SOL    HW2  247   0.539   1.694   0.573 -0.7218  1.0324  0.9098
   62SOL     MW  248   0.556   1.778   0.561 -0.0552  0.5819 -0.3144
   63SOL     OW  249   1.713   0.666   0.505  0.0101  0.1052 -0.3307
   63SOL    HW1  250   1.707   0.761   0.490 -0.9647  1.2441  2.7140
   63SOL    HW2  251   1.635   0.655   0.560 -1.1329 -1.1527  0.0386
   63SOL     MW  252   1.702   0.677   0.511 -0.2693  0.0895  0.1197
   64SOL     OW  253   0.192   1.707   0.635  0.0319 -0.2812 -0.3779
   64SOL    HW1  254   0.258   1.770   0.659 -1.3286 -1.0292  0.6611
   64SOL    HW2  255   0.119   1.734   0.693 -2.8127  0.9141  0.4595
   64SOL     MW  256   0.191   1.719   0.645 -0.5229 -0.2222 -0.1303
   65SOL     OW  257   1.545   2.321   0.371  0.9656  0.1034 -0.7291
   65SOL    HW1  258   1.625   2.368   0.396  0.1005 -0.2989  1.2431
   65SOL    HW2  259   1.482   2.355   0.435 -0.1959  0.7031  1.3484
   65SOL     MW  260   1.547   2.332   0.383  0.6982  0.1294 -0.1948
   66SOL     OW  261   0.399   0.569   0.526  0.4423  0.2459 -0.4049
   66SOL    HW1  262   0.469   0.551   0.461 -0.4470  0.7901  1.2185
   66SOL    HW2  263   0.388   0.665   0.531  2.3262  0.1596  0.4881
   66SOL     MW  264   0.406   0.579   0.518  0.5735  0.3063 -0.0729
   67SOL     OW  265   1.341   0.078   1.993  0.1458  0.4063 -0.4898
   67SOL    HW1  266   1.360   0.115   1.910 -0.4634  0.3937 -0.1987
   67SOL    HW2  267   1.295  -0.004   1.973  1.3638  0.2397  0.7654
   67SOL     MW  268   1.337   0.072   1.979  0.2262  0.3826 -0.2858
   68SOL     OW  269   0.799   0.101   2.836  0.2066 -0.1598 -0.6981
   68SOL    HW1  270   0.751   0.181   2.805 -1.3285 -0.6345  1.4256
   68SOL    HW2  271   0.865   0.127   2.895 -1.6103 -0.0326 -0.9445
   68SOL     MW  272   0.802   0.115   2.840 -0.2357 -0.2057 -0.4504
   69SOL     OW  273   1.085   0.276   1.955  0.1182 -0.0156  0.3047
   69SOL    HW1  274   1.171   0.306   1.979 -0.2673 -3.5463 -1.1874
   69SOL    HW2  275   1.049   0.208   2.020 -2.1099  0.3170 -2.9646
   69SOL     MW  276   1.092   0.271   1.967 -0.2266 -0.4375 -0.3235
   70SOL     OW  277   0.530   1.692   1.131 -0.3428 -0.0467  0.0312
   70SOL    HW1  278   0.623   1.717   1.143  1.9646 -4.0634 -1.6161
   70SOL    HW2  279   0.550   1.648   1.046  3.8459 -1.2834 -1.3073
   70SOL     MW  280   0.545   1.690   1.121  0.5143 -0.7398 -0.3628
   71SOL     OW  281   1.584   0.617   1.212 -0.0965  0.4624  0.3061
   71SOL    HW1  282   1.535   0.670   1.266  3.2633  1.6659 -2.0172
   71SOL    HW2  283   1.563   0.661   1.128  1.2530 -2.0566  1.4911
   71SOL     MW  284   1.575   0.630   1.208  0.5248  0.2889  0.1559
   72SOL     OW  285   0.793   1.848   1.083  0.1611 -0.0153  0.3727
   72SOL    HW1  286   0.810   1.914   1.016 -1.0404 -1.5915  1.1224
   72SOL    HW2  287   0.875   1.799   1.089 -0.7814 -0.9613  1.7059
   72SOL     MW  288   0.806   1.850   1.075 -0.1218 -0.3481  0.6475
   73SOL     OW  289   1.074   0.656   1.126  0.3237 -0.3717 -0.3230
   73SOL    HW1  290   1.005   0.602   1.170 -2.0493  0.1371 -1.6498
   73SOL    HW2  291   1.095   0.713   1.201  1.0521  1.9217  3.9535
   73SOL     MW  292   1.068   0.656   1.142  0.1067 -0.0020  0.0662
   74SOL     OW  293   2.826   0.093   0.982 -0.1899 -0.0011 -0.1604
   74SOL    HW1  294   2.917   0.116   0.957  0.4327 -0.7910  2.6055
   74SOL    HW2  295   2.772   0.165   0.949 -0.0256  0.8267 -0.7445
   74SOL     MW  296   2.831   0.106   0.975 -0.0861  0.0039  0.1275
   75SOL     OW  297   1.465   1.313   0.173 -0.2554 -0.0608  0.1836
   75SOL    HW1  298   1.539   1.274   0.122  1.5554  3.6342 -0.1698
   75SOL    HW2  299   1.502   1.308   0.258  0.4358 -1.4282  0.6443
   75SOL     MW  300   1.479   1.307   0.177  0.0747  0.2463  0.1978
   76SOL     OW  301   3.042   0.689   0.438 -0.2067  0.1610  1.4151
   76SOL    HW1  302   3.051   0.729   0.527 -0.0345 -0.0461  0.5104
   76SOL    HW2  303   3.101   0.616   0.431  0.9628  0.6749  2.1292
   76SOL     MW  304   3.051   0.684   0.449 -0.0296  0.2015  1.3899
   77SOL     OW  305   0.846   0.603   0.437  0.0130  0.2293  0.3394
   77SOL    HW1  306   0.843   0.611   0.339 -0.3566 -2.6329  0.2674
   77SOL    HW2  307   0.840   0.504   0.448 -2.6353 -0.7275 -2.2456
   77SOL     MW  308   0.845   0.591   0.425 -0.3852 -0.2746 -0.0112
   78SOL     OW  309   0.799   0.871   1.097 -0.2763 -0.2760  0.4336
   78SOL    HW1  310   0.801   0.960   1.065 -1.5014  0.9889  0.6705
   78SOL    HW2  311   0.710   0.861   1.139 -0.7472 -0.9608 -1.3684
   78SOL     MW  312   0.788   0.881   1.099 -0.5001 -0.1995  0.2271
   79SOL     OW  313   1.892   1.502   0.559  0.9000 -0.3316  0.2410
   79SOL    HW1  314   1.807   1.480   0.586  1.6416 -0.3523 -1.6981
   79SOL    HW2  315   1.951   1.463   0.629  1.0514 -0.3031  0.9161
   79SOL     MW  316   1.889   1.494   0.572  1.0178 -0.3306  0.0742
   80SOL     OW  317   0.225   0.979   0.297 -0.1117  0.0057  0.1392
   80SOL    HW1  318   0.181   0.927   0.234  0.0153  0.7653  0.9509
   80SOL    HW2  319   0.258   0.917   0.369  0.3632  0.8321  0.8381
   80SOL     MW  320   0.224   0.964   0.298 -0.0323  0.2150  0.3385
   81SOL     OW  321   1.802   1.825   0.287 -0.3276 -0.1141 -0.7910
   81SOL    HW1  322   1.776   1.741   0.259 -2.4661  1.4000 -1.8800
   81SOL    HW2  323   1.757   1.890   0.237 -0.4544  1.2727 -0.4101
   81SOL     MW  324   1.793   1.822   0.276 -0.6265  0.2686 -0.8844
   82SOL     OW  325   0.962   1.030   0.562 -0.3041 -0.2785  0.4363
   82SOL    HW1  326   0.895   1.080   0.508 -0.5004  1.1826 -1.0147
   82SOL    HW2  327   0.912   0.950   0.570  0.2473 -0.9131 -2.1708
   82SOL     MW  328   0.946   1.026   0.556 -0.2572 -0.1695 -0.0991
   83SOL     OW  329   0.002   0.713   1.521  0.1377 -0.3381 -0.4728
   83SOL    HW1  330  -0.010   0.776   1.450 -0.6716  0.4749  0.4105
   83SOL    HW2  331   0.087   0.673   1.487  1.5057 -1.5767 -0.0804
   83SOL     MW  332   0.012   0.716   1.507  0.2114 -0.3943 -0.3045
   84SOL     OW  333   3.085   0.189   0.921  0.5457  0.5281  0.1819
   84SOL    HW1  334   3.082   0.287   0.947 -0.0094 -0.6717  1.2393
   84SOL    HW2  335   3.091   0.135   1.000  0.5424  1.3481  0.4041
   84SOL     MW  336   3.085   0.195   0.935  0.4720  0.4780  0.3507
   85SOL     OW  337   0.365   0.470   0.787  0.2645 -0.3129 -0.1376
   85SOL    HW1  338   0.357   0.503   0.694 -2.8302 -0.4454 -1.1037
   85SOL    HW2  339   0.343   0.375   0.783 -0.9912 -0.4480  0.0382
   85SOL     MW  340   0.361   0.462   0.774 -0.3095 -0.3482 -0.2419
   86SOL     OW  341   1.291   0.274   1.205  0.0688 -0.4902  0.1127
   86SOL    HW1  342   1.276   0.353   1.156  2.4256  0.5372 -0.1450
   86SOL    HW2  343   1.381   0.292   1.239  0.7171  1.3238  0.8676
   86SOL     MW  344   1.301   0.287   1.203  0.4653 -0.1153  0.1783
   87SOL     OW  345   0.987   1.584   1.189 -0.4257  0.4104 -0.1563
   87SOL    HW1  346   1.052   1.653   1.166 -0.8479  0.6920  1.4805
   87SOL    HW2  347   1.032   1.501   1.181 -1.1959 -1.1049  0.0690
   87SOL     MW  348   1.002   1.582   1.185 -0.5830  0.2476  0.0893
   88SOL     OW  349   1.159   1.132   1.018  0.3852  0.0698 -0.3830
   88SOL    HW1  350   1.252   1.126   1.025 -1.6657  0.2712  1.9306
   88SOL    HW2  351   1.132   1.189   1.090 -0.9688 -2.5511  1.5471
   88SOL     MW  352   1.168   1.139   1.029 -0.0640 -0.2494  0.1769
   89SOL     OW  353   1.788   0.737   0.214 -0.1506  0.1090  0.0536
   89SOL    HW1  354   1.735   0.671   0.260 -0.1586  0.7692 -2.4696
   89SOL    HW2  355   1.867   0.745   0.273  0.8873 -0.2085  1.7742
   89SOL     MW  356   1.791   0.729   0.228 -0.0147  0.1542 -0.0523
   90SOL     OW  357   0.793   1.181   2.755  0.1515  0.6920 -0.2703
   90SOL    HW1  358   0.832   1.094   2.771 -2.5076  2.7271 -0.0058
   90SOL    HW2  359   0.799   1.225   2.839 -0.6613 -4.1963  2.1027
   90SOL     MW  360   0.799   1.175   2.768 -0.3066  0.3155  0.0777
   91SOL     OW  361   2.278   0.612   0.536  0.1990  0.1774 -0.5467
   91SOL    HW1  362   2.319   0.673   0.473  2.2766  0.2616  2.1489
   91SOL    HW2  363   2.273   0.531   0.481 -0.7291 -1.9514 -0.7643
   91SOL     MW  364   2.283   0.610   0.520  0.3506 -0.0924 -0.2197
   92SOL     OW  365   1.642   0.943   0.484 -0.0449 -0.3518  0.1420
   92SOL    HW1  366   1.588   0.986   0.555  0.1009  1.4702  0.8654
   92SOL    HW2  367   1.598   0.963   0.405  0.8055 -2.5083 -0.1612
   92SOL     MW  368   1.629   0.951   0.483  0.0865 -0.3960  0.1975
   93SOL     OW  369   1.120   0.223   0.408  0.2237 -0.1460  0.1486
   93SOL    HW1  370   1.030   0.254   0.424 -1.6494 -1.3019 -1.0672
   93SOL    HW2  371   1.125   0.262   0.319 -1.9445 -1.2975 -0.5897
   93SOL     MW  372   1.108   0.232   0.398 -0.3095 -0.4505 -0.1092
   94SOL     OW  373   1.909   1.379   1.589  0.0033  0.0920 -0.0428
   94SOL    HW1  374   1.877   1.373   1.498 -1.9920 -1.0774 -0.1424
   94SOL    HW2  375   1.890   1.290   1.614 -2.1491 -2.7065 -1.7302
   94SOL     MW  376   1.902   1.366   1.580 -0.5440 -0.4315 -0.2786
   95SOL     OW  377   0.602   1.510   0.931  0.1584 -0.4258 -0.0399
   95SOL    HW1  378   0.676   1.457   0.954  0.3160  0.3995 -1.7185
   95SOL    HW2  379   0.529   1.446   0.902 -0.4341 -1.0934 -0.0990
   95SOL     MW  380   0.602   1.494   0.930  0.1010 -0.4050 -0.2692
   96SOL     OW  381   1.328   1.811   1.695 -0.2231 -0.3770  0.1590
   96SOL    HW1  382   1.258   1.815   1.757 -1.5688 -0.1511 -2.5337
   96SOL    HW2  383   1.324   1.722   1.654 -1.5473 -1.3107 -1.7595
   96SOL     MW  384   1.318   1.800   1.698 -0.5754 -0.4704 -0.4494
   97SOL     OW  385   1.089   1.565   0.842 -0.0261 -0.0646  0.3139
   97SOL    HW1  386   1.116   1.649   0.885 -0.3329  0.6219 -2.1564
   97SOL    HW2  387   1.007   1.584   0.797  1.6313  0.3824  1.1643
   97SOL     MW  388   1.082   1.578   0.842  0.1521  0.0850  0.1002
   98SOL     OW  389   1.354   1.394   1.200 -0.0586  0.0865  0.2028
   98SOL    HW1  390   1.415   1.412   1.275  0.9250 -0.0646 -1.2239
   98SOL    HW2  391   1.394   1.405   1.114 -0.4217  1.1367  1.2742
   98SOL     MW  392   1.367   1.398   1.198  0.0232  0.2051  0.1559
   99SOL     OW  393   1.535   0.334   1.315 -0.0429 -0.0160 -0.2910
   99SOL    HW1  394   1.559   0.428   1.293  0.2057  0.6241 -1.0607
   99SOL    HW2  395   1.491   0.347   1.404 -1.4023  0.4432 -1.1382
   99SOL     MW  396   1.533   0.348   1.324 -0.1895  0.1290 -0.5043
  100SOL     OW  397   1.084   1.159   1.400 -0.2268 -0.1106  0.3391
  100SOL    HW1  398   1.100   1.206   1.483  1.6417  0.5811 -1.4689
  100SOL    HW2  399   1.105   1.069   1.411  0.0351 -1.9697  2.1139
  100SOL     MW  400   1.089   1.153   1.413  0.0543 -0.2646  0.3347
  101SOL     OW  401   0.528   1.257   0.472  0.4832 -0.3067  0.2987
  101SOL    HW1  402   0.478   1.256   0.385 -3.1352  1.9695  0.7084
  101SOL    HW2  403   0.614   1.230   0.436  2.2538 -0.4969 -1.2135
  101SOL     MW  404   0.533   1.253   0.455  0.2394 -0.0315  0.1533
  102SOL     OW  405   2.880   0.588   1.070  0.1012  0.1226 -0.3317
  102SOL    HW1  406   2.916   0.680   1.073  0.9138 -3.8947  0.6580
  102SOL    HW2  407   2.886   0.575   1.165 -0.5522 -0.4196  2.9328
  102SOL     MW  408   2.885   0.599   1.083  0.1222 -0.4790  0.2296
  103SOL     OW  409   1.900   0.268   1.766  0.0249 -0.4372  0.1795
  103SOL    HW1  410   1.905   0.186   1.715  0.3716  0.9191  1.0962
  103SOL    HW2  411   1.896   0.242   1.860  0.7654  0.3500 -1.1487
  103SOL     MW  412   1.900   0.254   1.771  0.1683 -0.1544  0.1252
  104SOL     OW  413   0.043   1.532   1.676 -0.0285  0.2571  0.0734
  104SOL    HW1  414   0.092   1.461   1.715  0.4636  1.4350 -1.9126
  104SOL    HW2  415  -0.050   1.504   1.697 -0.3068  0.6146 -1.9187
  104SOL     MW  416   0.037   1.519   1.684 -0.0003  0.4597 -0.4515
  105SOL     OW  417   0.107   1.210   0.427  0.7852  0.1294 -0.8071
  105SOL    HW1  418   0.151   1.135   0.384  0.3521 -1.3873 -0.0701
  105SOL    HW2  419   0.155   1.291   0.407 -1.3168  2.7196 -1.9076
  105SOL     MW  420   0.119   1.211   0.419  0.4508  0.2710 -0.8551
  106SOL     OW  421   0.853   0.235   0.856  0.9827 -0.2137 -0.0726
  106SOL    HW1  422   0.800   0.316   0.838 -2.7961  0.2763  2.5928
  106SOL    HW2  423   0.900   0.246   0.938 -1.8617 -1.4606  0.6202
  106SOL     MW  424   0.852   0.247   0.864  0.1088 -0.3136  0.3705
  107SOL     OW  425   0.798   2.191   2.872 -0.1613 -0.0744  0.0925
  107SOL    HW1  426   0.700   2.213   2.874 -1.0788 -0.2940  1.1007
  107SOL    HW2  427   0.802   2.121   2.933  0.2123 -2.0411 -1.2907
  107SOL     MW  428   0.785   2.185   2.881 -0.2330 -0.3628  0.0430
  108SOL     OW  429   1.314   1.561   1.633  0.3924  0.0214  0.2021
  108SOL    HW1  430   1.261   1.554   1.546 -0.3110  4.3104 -0.1524
  108SOL    HW2  431   1.405   1.523   1.630 -1.5490  2.9215  3.0554
  108SOL     MW  432   1.319   1.555   1.621  0.0434  0.9699  0.5318
  109SOL     OW  433   2.031   0.751   0.381 -0.4525  0.3045  0.4654
  109SOL    HW1  434   2.026   0.843   0.385 -0.5567 -1.5274 -0.0747
  109SOL    HW2  435   2.084   0.728   0.458 -0.1637 -2.0414 -1.5339
  109SOL     MW  436   2.037   0.760   0.391 -0.4282 -0.2467  0.1304
  110SOL     OW  437   0.396   1.891   0.785 -0.0520  0.0391 -0.4158
  110SOL    HW1  438   0.462   1.854   0.724  0.8327  1.3001  0.1511
  110SOL    HW2  439   0.397   1.988   0.768  0.3798 -1.2583 -1.0749
  110SOL     MW  440   0.405   1.899   0.775  0.1217  0.0343 -0.4280
  111SOL     OW  441   0.859   0.883   1.366 -0.3435 -0.3461  0.1589
  111SOL    HW1  442   0.856   0.879   1.264  3.5380  1.4373 -1.1969
  111SOL    HW2  443   0.814   0.812   1.406  0.3067 -0.3790 -0.4504
  111SOL     MW  444   0.853   0.873   1.358  0.2544 -0.1152 -0.1004
  112SOL     OW  445   1.339   1.161   1.665 -0.3852 -0.0263 -0.6396
  112SOL    HW1  446   1.250   1.192   1.667  0.9046  1.1397 -0.6792
  112SOL    HW2  447   1.341   1.064   1.664  1.3836 -1.7119 -0.5913
  112SOL     MW  448   1.327   1.152   1.665  0.0184 -0.0948 -0.6384
  113SOL     OW  449   1.225   2.993   1.729  0.3992  0.4908 -0.4149
  113SOL    HW1  450   1.195   2.932   1.796  0.4011 -1.2489 -1.0631
  113SOL    HW2  451   1.191   2.961   1.643 -2.4028 -0.0976 -0.5355
  113SOL     MW  452   1.217   2.981   1.727  0.0297  0.1837 -0.5164
  114SOL     OW  453   0.338   2.901   1.831  0.1328  0.8732  1.3325
  114SOL    HW1  454   0.424   2.940   1.837  0.3807 -3.1638 -0.8654
  114SOL    HW2  455   0.283   2.922   1.908 -0.8980 -2.5466 -0.3738
  114SOL     MW  456   0.342   2.909   1.842  0.0295 -0.1107  0.8174
  115SOL     OW  457   0.529   0.873   1.175 -1.0035 -0.5644  0.1840
  115SOL    HW1  458   0.524   0.789   1.132 -1.2626  1.7398 -1.8268
  115SOL    HW2  459   0.450   0.880   1.236 -0.2584 -0.3679  1.0418
  115SOL     MW  460   0.518   0.863   1.177 -0.9394 -0.2344  0.0319
  116SOL     OW  461   0.706   1.120   0.995  0.2206 -0.2714 -0.3111
  116SOL    HW1  462   0.743   1.148   0.907 -1.8826  2.6137 -0.6980
  116SOL    HW2  463   0.686   1.196   1.046  1.7302 -0.6266 -1.4456
  116SOL     MW  464   0.708   1.133   0.990  0.1423  0.0624 -0.5118
  117SOL     OW  465   1.072   1.270   0.781 -0.3217 -0.6017  0.4323
  117SOL    HW1  466   1.110   1.214   0.849  0.9161 -2.0173  2.7017
  117SOL    HW2  467   1.073   1.354   0.829  0.2804 -1.5044  0.0609
  117SOL     MW  468   1.077   1.274   0.796 -0.0789 -0.9076  0.6827
  118SOL     OW  469   3.102   2.963   1.833 -0.0969 -0.2260  0.2640
  118SOL    HW1  470   3.132   3.051   1.860  1.1896 -4.1500  1.4204
  118SOL    HW2  471   3.010   2.966   1.823  0.2154 -0.8790  1.2087
  118SOL     MW  472   3.094   2.975   1.835  0.1140 -0.8299  0.5412
  119SOL     OW  473   0.384   1.504   1.307 -0.5970  0.2524  0.2941
  119SOL    HW1  474   0.441   1.554   1.246  2.2103  0.0549  0.4054
  119SOL    HW2  475   0.304   1.485   1.256  0.1060  1.0768 -0.8788
  119SOL     MW  476   0.381   1.508   1.292 -0.1339  0.3351  0.1540
  120SOL     OW  477   0.297   0.880   0.962  0.0057  0.0040 -0.2783
  120SOL    HW1  478   0.312   0.925   1.043  0.0501 -1.8972  1.7888
  120SOL    HW2  479   0.388   0.883   0.928  0.0424 -0.4987 -0.6787
  120SOL     MW  480   0.311   0.886   0.968  0.0164 -0.3132 -0.0584
  121SOL     OW  481   1.767   1.121   1.610  0.0856  0.5645  0.5038
  121SOL    HW1  482   1.677   1.106   1.580  0.8172 -0.2906 -1.9562
  121SOL    HW2  483   1.822   1.045   1.572  0.6353  0.9295 -2.9762
  121SOL     MW  484   1.762   1.109   1.601  0.2546  0.4998 -0.2799
  122SOL     OW  485   0.144   0.650   0.853  0.0827 -0.9482 -0.1524
  122SOL    HW1  486   0.204   0.571   0.832 -0.1565 -0.1069 -1.6014
  122SOL    HW2  487   0.189   0.706   0.919 -2.4334 -1.1471 -0.8860
  122SOL     MW  488   0.158   0.647   0.859 -0.2809 -0.8635 -0.4404
  123SOL     OW  489   1.854   1.132   0.560  0.0393  0.0634  0.3406
  123SOL    HW1  490   1.781   1.068   0.559  0.1991  1.6187 -0.8143
  123SOL    HW2  491   1.919   1.089   0.620  0.3477  0.1158  1.0879
  123SOL     MW  492   1.853   1.118   0.568  0.1011  0.2755  0.2868
  124SOL     OW  493   0.668   0.468   0.813  0.1630  0.4412 -0.4565
  124SOL    HW1  494   0.573   0.470   0.795  1.7930  0.6975  0.3347
  124SOL    HW2  495   0.695   0.556   0.828 -1.2639 -0.3091  1.0713
  124SOL     MW  496   0.659   0.480   0.812  0.1898  0.3760 -0.1505
  125SOL     OW  497   0.648   1.764   1.710 -0.4337  0.9547  0.0759
  125SOL    HW1  498   0.633   1.734   1.616  0.1777  0.7064  0.2182
  125SOL    HW2  499   0.598   1.850   1.712 -0.7718  0.2905  1.0192
  125SOL     MW  500   0.640   1.772   1.698 -0.3976  0.8343  0.2192
  126SOL     OW  501   2.123   1.545   1.862 -0.1127 -0.4964 -0.0250
  126SOL    HW1  502   2.188   1.613   1.869  0.1600  0.8524  2.1308
  126SOL    HW2  503   2.167   1.465   1.895  1.1098  0.3778  0.1412
  126SOL     MW  504   2.137   1.543   1.867  0.0845 -0.2031  0.2814
  127SOL     OW  505   0.529   0.772   1.834  0.5723  0.2394 -0.0981
  127SOL    HW1  506   0.620   0.765   1.828 -1.7687 -1.9170  0.0251
  127SOL    HW2  507   0.513   0.819   1.916  0.1772  1.0522  2.8761
  127SOL     MW  508   0.539   0.777   1.844  0.2113  0.0621  0.3106
  128SOL     OW  509   1.732   0.756   2.860 -0.2516 -0.8938 -0.1148
  128SOL    HW1  510   1.785   0.748   2.780  0.1094 -1.5825  1.2073
  128SOL    HW2  511   1.722   0.851   2.879 -0.2728 -0.5125  0.7239
  128SOL     MW  512   1.738   0.767   2.852 -0.2068 -0.9344  0.1703
  129SOL     OW  513   1.621   0.952   0.155  0.4251  0.0066 -0.0583
  129SOL    HW1  514   1.536   0.926   0.118 -0.6730 -0.9658  0.7349
  129SOL    HW2  515   1.663   0.873   0.182  0.1318  2.3634  1.7735
  129SOL     MW  516   1.615   0.938   0.153  0.2415  0.1893  0.2880
  130SOL     OW  517   0.855   1.463   0.334 -0.2345 -0.1574  0.4039
  130SOL    HW1  518   0.823   1.483   0.424  1.6144  1.8119  3.7675
  130SOL    HW2  519   0.945   1.458   0.348 -1.2671  1.5941  1.4925
  130SOL     MW  520   0.863   1.465   0.348 -0.1268  0.3335  0.9913
  131SOL     OW  521   0.065   0.831   0.055  0.1742  0.3909 -0.2168
  131SOL    HW1  522   0.025   0.816  -0.035 -2.4971 -2.3714  0.2882
  131SOL    HW2  523   0.133   0.760   0.070 -0.3243  1.0435 -0.3744
  131SOL     MW  524   0.069   0.820   0.045 -0.2441  0.1126 -0.1709
  132SOL     OW  525   2.724   0.065   1.232 -0.5337 -0.4410  0.3395
  132SOL    HW1  526   2.773   0.067   1.152 -0.0647 -0.3561  0.9073
  132SOL    HW2  527   2.642   0.025   1.211 -1.5028  2.1129  2.4448
  132SOL     MW  528   2.719   0.060   1.219 -0.5997 -0.0928  0.6922
  133SOL     OW  529   1.091   0.114   1.736  0.1381  0.2449 -0.2207
  133SOL    HW1  530   1.129   0.024   1.753 -2.8636 -2.7154 -3.1510
  133SOL    HW2  531   1.078   0.159   1.823  2.4714  0.1695 -0.8096
  133SOL     MW  532   1.095   0.108   1.750  0.0499 -0.1557 -0.6850
  134SOL     OW  533   1.407   2.466   1.464 -0.2814 -0.4860  0.4265
  134SOL    HW1  534   1.363   2.542   1.425  0.0631  1.2689 -1.3200
  134SOL    HW2  535   1.438   2.510   1.553  0.6343  1.2301  0.4024
  134SOL     MW  536   1.405   2.482   1.471 -0.1151 -0.0280  0.1929
  135SOL     OW  537   2.986   1.004   2.923 -0.3871 -0.0286  0.3615
  135SOL    HW1  538   3.048   1.054   2.969  0.1647  0.5182  1.3432
  135SOL    HW2  539   2.918   1.066   2.885  0.3617  3.0368 -0.5617
  135SOL     MW  540   2.985   1.019   2.924 -0.2155  0.4480  0.3693
  136SOL     OW  541   0.143   2.001   0.852 -0.3880  0.0849 -0.1670
  136SOL    HW1  542   0.056   1.963   0.838  2.2608 -1.2616  0.6652
  136SOL    HW2  543   0.205   1.926   0.851 -1.5351 -2.0131 -2.1257
  136SOL     MW  544   0.140   1.986   0.850 -0.1899 -0.3696 -0.3156
  137SOL     OW  545   0.742   2.079   0.620 -0.2351  0.3949  0.2148
  137SOL    HW1  546   0.787   2.078   0.703 -0.2931 -0.7450 -1.3502
  137SOL    HW2  547   0.647   2.103   0.635  0.4404  0.8791  1.5098
  137SOL     MW  548   0.735   2.082   0.633 -0.1536  0.3084  0.1792
  138SOL     OW  549   0.524   0.630   1.061  0.0758  0.4823  0.0289
  138SOL    HW1  550   0.449   0.570   1.048  0.7381  0.2128 -0.4826
  138SOL    HW2  551   0.594   0.583   1.008  1.2454  0.4918 -1.6630
  138SOL     MW  552   0.523   0.616   1.053  0.3175  0.4480 -0.2618
  139SOL     OW  553   2.856   0.482   1.321 -0.2507 -0.0045 -0.0651
  139SOL    HW1  554   2.952   0.465   1.324 -1.5295 -0.0035 -1.7968
  139SOL    HW2  555   2.836   0.542   1.394  0.1867 -1.8611 -0.9294
  139SOL     MW  556   2.866   0.488   1.331 -0.3617 -0.2493 -0.4076
  140SOL     OW  557   0.907   0.469   1.948 -0.3306  0.5101  0.0783
  140SOL    HW1  558   0.968   0.397   1.958  0.3392  0.5263  0.2935
  140SOL    HW2  559   0.851   0.457   2.029 -0.5310 -1.9238 -0.9230
  140SOL     MW  560   0.908   0.458   1.960 -0.2687  0.1911 -0.0255
  141SOL     OW  561   1.132   0.685   1.721  0.4260  0.1403 -0.1171
  141SOL    HW1  562   1.127   0.609   1.659  0.1774  0.7099  1.0412
  141SOL    HW2  563   1.173   0.655   1.804 -0.4780  0.8139 -2.2558
  141SOL     MW  564   1.137   0.671   1.724  0.2739  0.3043 -0.2465
  142SOL     OW  565   0.831   1.173   0.761 -0.3288  0.1170 -0.7804
  142SOL    HW1  566   0.854   1.108   0.699  0.9407  0.4755  0.3663
  142SOL    HW2  567   0.922   1.215   0.786  1.2693  0.3461  1.5435
  142SOL     MW  568   0.846   1.170   0.756  0.0496  0.1945 -0.3225
  143SOL     OW  569   1.824   0.756   1.038 -0.2036  0.8779 -0.0651
  143SOL    HW1  570   1.851   0.746   0.946 -1.8339 -0.4110 -3.1453
  143SOL    HW2  571   1.746   0.702   1.042  1.2890  1.7097  0.0883
  143SOL     MW  572   1.817   0.748   1.026 -0.2217  0.8176 -0.4512
  144SOL     OW  573   0.234   1.341   1.759  0.2547  0.4902 -0.0252
  144SOL    HW1  574   0.297   1.411   1.755 -3.5680  1.3721  1.4139
  144SOL    HW2  575   0.291   1.271   1.800  0.5003 -2.5683 -0.6538
  144SOL     MW  576   0.250   1.341   1.764 -0.2172  0.2030  0.0817
  145SOL     OW  577   0.226   0.490   1.181 -0.1052 -0.0134  0.2069
  145SOL    HW1  578   0.255   0.400   1.196 -2.0684  2.4107  0.9255
  145SOL    HW2  579   0.148   0.496   1.118 -0.4548 -2.5330 -1.0654
  145SOL     MW  580   0.219   0.479   1.175 -0.4103 -0.0260  0.1338
  146SOL     OW  581   0.805   2.011   1.547  0.3081 -0.1634 -0.2730
  146SOL    HW1  582   0.829   2.006   1.456 -0.6256  0.8544  1.2179
  146SOL    HW2  583   0.752   1.934   1.564  0.1931  0.7404 -1.0500
  146SOL     MW  584   0.801   2.000   1.538  0.1697  0.0901 -0.1788
  147SOL     OW  585   0.423   0.516   3.002 -0.7774 -0.2437  0.1248
  147SOL    HW1  586   0.340   0.554   3.042 -1.0023  3.1084 -0.1372
  147SOL    HW2  587   0.429   0.571   2.920 -1.0414  1.4619  0.0953
  147SOL     MW  588   0.413   0.529   2.996 -0.8419  0.4236  0.0864
  148SOL     OW  589   0.026   0.892   1.298  0.2103  0.2672 -0.5417
  148SOL    HW1  590   0.121   0.902   1.305  1.5896  0.0861 -2.9801
  148SOL    HW2  591  -0.011   0.984   1.301  2.1728  1.6734  0.1579
  148SOL     MW  592   0.034   0.906   1.299  0.6512  0.4289 -0.7711
  149SOL     OW  593   1.508   1.216   1.459 -0.1733 -0.3451  0.2836
  149SOL    HW1  594   1.444   1.205   1.540 -2.3864 -0.7509  2.2668
  149SOL    HW2  595   1.533   1.309   1.458 -0.1632  0.6891  0.2692
  149SOL     MW  596   1.503   1.227   1.470 -0.4640 -0.2622  0.5434
  150SOL     OW  597   1.702   1.448   0.886  0.0709 -0.5304  0.4508
  150SOL    HW1  598   1.761   1.373   0.899  0.6221 -1.6323 -0.4172
  150SOL    HW2  599   1.752   1.534   0.885 -1.9482  1.9706 -3.2589
  150SOL     MW  600   1.716   1.450   0.887 -0.1228 -0.3458 -0.1532
  151SOL     OW  601   1.599   1.837   0.810  0.3427 -0.5605 -0.0374
  151SOL    HW1  602   1.606   1.846   0.712 -0.2201  3.7269  0.1808
  151SOL    HW2  603   1.533   1.769   0.838  0.2720  0.6934 -0.7431
  151SOL     MW  604   1.591   1.829   0.801  0.2591  0.1706 -0.1017
  152SOL     OW  605   0.646   1.416   1.606 -0.3296 -0.4126  0.3634
  152SOL    HW1  606   0.696   1.469   1.547  0.3238  0.5205  2.7786
  152SOL    HW2  607   0.597   1.367   1.546 -0.8096 -2.8713  3.7614
  152SOL     MW  608   0.646   1.417   1.590 -0.3067 -0.6138  1.1304
  153SOL     OW  609   2.622   1.228   0.737 -0.1858  0.2421  0.0063
  153SOL    HW1  610   2.704   1.188   0.715  1.5944  0.8242 -1.4357
  153SOL    HW2  611   2.578   1.149   0.750  1.4489  2.4636 -3.2832
  153SOL     MW  612   2.627   1.212   0.736  0.2647  0.6120 -0.6179
  154SOL     OW  613   0.111   1.783   1.772  0.0438  0.1822  0.1882
  154SOL    HW1  614   0.077   1.691   1.731 -0.0618 -2.9928  1.2621
  154SOL    HW2  615   0.210   1.780   1.781  1.6025 -0.5592 -0.5237
  154SOL     MW  616   0.120   1.770   1.768  0.2355 -0.3345  0.2360
  155SOL     OW  617   1.170   0.699   0.286  0.4008 -0.2030  0.0256
  155SOL    HW1  618   1.163   0.685   0.376 -1.5480 -0.7491 -3.5317
  155SOL    HW2  619   1.151   0.795   0.279  1.7861  2.8329 -1.8001
  155SOL     MW  620   1.166   0.710   0.297  0.3264  0.1255 -0.6846
  156SOL     OW  621   1.562   3.093   1.103 -0.4249 -0.3291  0.0397
  156SOL    HW1  622   1.607   3.136   1.178  1.2477  0.6189  4.3577
  156SOL    HW2  623   1.603   3.003   1.104 -2.7077  0.2400 -1.2434
  156SOL     MW  624   1.573   3.087   1.113 -0.5054 -0.1290  0.4401
  157SOL     OW  625   1.265   1.125   0.165  0.3316 -0.7438 -0.0376
  157SOL    HW1  626   1.294   1.045   0.196 -0.7474  1.0828  1.6984
  157SOL    HW2  627   1.337   1.188   0.158  1.0147  2.4056  0.6623
  157SOL     MW  628   1.278   1.123   0.168  0.2794 -0.0873  0.2838
  158SOL     OW  629   0.327   1.631   2.348 -0.4908 -0.4232  0.5538
  158SOL    HW1  630   0.268   1.646   2.272  0.4954 -1.3636  0.1965
  158SOL    HW2  631   0.359   1.708   2.391 -1.3332 -0.4861  0.2626
  158SOL     MW  632   0.323   1.643   2.343 -0.4719 -0.5556  0.4682
  159SOL     OW  633   1.225   1.716   0.479  0.5950  0.0617 -0.1593
  159SOL    HW1  634   1.188   1.651   0.416  1.2690 -0.8410  0.2227
  159SOL    HW2  635   1.150   1.746   0.531 -2.1006  0.3711 -0.1515
  159SOL     MW  636   1.210   1.711   0.477  0.3283 -0.0165 -0.1079
  160SOL     OW  637   0.469   1.158   1.563 -0.2466 -0.0375  0.7108
  160SOL    HW1  638   0.425   1.090   1.618 -0.1268  2.6808  0.8316
  160SOL    HW2  639   0.560   1.131   1.558  2.9512 -0.2356 -3.0797
  160SOL     MW  640   0.475   1.146   1.570  0.1911  0.2950  0.2266
  161SOL     OW  641   0.483   2.285   2.651  0.1117 -0.6422  0.2741
  161SOL    HW1  642   0.402   2.341   2.622  0.4238  3.0026  2.6694
  161SOL    HW2  643   0.479   2.204   2.606 -0.6192 -1.1433 -1.6841
  161SOL     MW  644   0.472   2.282   2.641  0.0565 -0.2274  0.3317
  162SOL     OW  645   1.083   1.817   1.857 -0.5206 -0.0257  0.3088
  162SOL    HW1  646   1.121   1.908   1.872 -0.1899  0.1553  4.4680
  162SOL    HW2  647   0.986   1.812   1.886 -1.4009  0.2738  1.4153
  162SOL     MW  648   1.075   1.828   1.863 -0.5931  0.0377  1.0036
  163SOL     OW  649   2.100   3.038   0.799 -0.7314  0.2291 -0.1034
  163SOL    HW1  650   2.080   3.102   0.730 -0.8614  0.9976  0.2714
  163SOL    HW2  651   2.032   2.968   0.780 -1.0308  0.3731 -0.5985
  163SOL     MW  652   2.088   3.037   0.787 -0.7880  0.3495 -0.1193
  164SOL     OW  653   0.214   0.205   0.778  0.1092  0.0406  0.0480
  164SOL    HW1  654   0.120   0.177   0.803  0.5667  1.3129 -0.4330
  164SOL    HW2  655   0.247   0.131   0.727  1.0513 -0.5774 -0.6932
  164SOL     MW  656   0.206   0.192   0.775  0.2939  0.1269 -0.1133
  165SOL     OW  657   1.152   1.282   0.392 -0.2443 -0.2457 -0.4113
  165SOL    HW1  658   1.205   1.264   0.472 -1.9549 -1.0554  4.3047
  165SOL    HW2  659   1.152   1.210   0.329  1.8902  1.5059  0.8463
  165SOL     MW  660   1.159   1.270   0.394 -0.1884 -0.1214  0.3768
  166SOL     OW  661   0.325   1.188   1.048 -0.2708 -0.0812 -0.0027
  166SOL    HW1  662   0.348   1.215   1.137  1.2684  1.1776  0.0313
  166SOL    HW2  663   0.388   1.114   1.036 -0.3922 -0.4162 -0.3160
  166SOL     MW  664   0.336   1.182   1.058 -0.0837  0.0407 -0.0396
  167SOL     OW  665   0.792   1.148   0.391 -0.2207  0.2780 -0.6300
  167SOL    HW1  666   0.847   1.222   0.390 -0.9315 -2.7164  2.1433
  167SOL    HW2  667   0.805   1.100   0.309 -1.9205 -0.3553 -0.7674
  167SOL     MW  668   0.801   1.151   0.380 -0.5387 -0.2006 -0.2822
  168SOL     OW  669   1.685   1.649   3.058  0.0923  0.2447  0.1739
  168SOL    HW1  670   1.634   1.732   3.055  1.3156  1.1180  0.7000
  168SOL    HW2  671   1.634   1.592   3.002  0.2259  0.5261 -0.9701
  168SOL     MW  672   1.671   1.652   3.050  0.2713  0.3971  0.0924
  169SOL     OW  673   0.301   0.895   1.342 -0.2413 -0.4943 -0.4273
  169SOL    HW1  674   0.296   0.827   1.416  2.0444 -0.9670  2.4827
  169SOL    HW2  675   0.325   0.971   1.403  1.2886 -2.3977  1.5986
  169SOL     MW  676   0.303   0.896   1.360  0.2622 -0.8078  0.2240
  170SOL     OW  677   1.091   1.558   1.451 -0.4384 -0.2982  0.0092
  170SOL    HW1  678   1.035   1.623   1.492  0.7177 -0.6830 -1.4375
  170SOL    HW2  679   1.041   1.558   1.367 -1.9569  0.6696  1.8237
  170SOL     MW  680   1.077   1.567   1.445 -0.4862 -0.2213  0.0577
  171SOL     OW  681   0.486   1.516   0.494 -0.1181  0.2357 -0.1055
  171SOL    HW1  682   0.396   1.531   0.524 -1.6610  3.2888  1.6131
  171SOL    HW2  683   0.486   1.416   0.501 -2.1517  2.1478 -1.8423
  171SOL     MW  684   0.474   1.505   0.499 -0.5900  0.8908 -0.1079
  172SOL     OW  685   0.783   0.284   1.310  0.3455 -0.6499  0.2932
  172SOL    HW1  686   0.730   0.245   1.236 -1.1144  0.7468 -0.9275
  172SOL    HW2  687   0.835   0.223   1.355 -0.3212  0.6395  2.0949
  172SOL     MW  688   0.783   0.271   1.306  0.0649 -0.2955  0.3699
  173SOL     OW  689   0.492   1.741   0.286 -0.3784 -0.1995 -0.5574
  173SOL    HW1  690   0.515   1.652   0.262 -0.2626  2.4843  0.2229
  173SOL    HW2  691   0.540   1.754   0.370 -0.0042 -0.4430 -0.1813
  173SOL     MW  692   0.501   1.731   0.294 -0.3137  0.1225 -0.4048
  174SOL     OW  693   1.930   0.927   1.486  0.0624  0.6469 -0.5015
  174SOL    HW1  694   1.883   0.854   1.525 -0.5127 -1.2587  0.4620
  174SOL    HW2  695   1.893   0.926   1.392 -0.7168  1.8771 -1.9302
  174SOL     MW  696   1.919   0.917   1.479 -0.1163  0.5578 -0.5629
  175SOL     OW  697   0.608   1.496   0.257  0.1221  0.3243  0.2044
  175SOL    HW1  698   0.577   1.521   0.348 -0.9236 -1.0128  1.1182
  175SOL    HW2  699   0.704   1.487   0.279 -0.5243  3.2994  0.5113
  175SOL     MW  700   0.616   1.498   0.272 -0.1011  0.5404  0.3654
  176SOL     OW  701   0.108   1.513   1.198  0.8354  0.2253 -0.7455
  176SOL    HW1  702   0.120   1.489   1.105 -1.2680 -0.7552  0.5005
  176SOL    HW2  703   0.017   1.485   1.222 -0.8223  0.3406  1.4725
  176SOL     MW  704   0.097   1.506   1.189  0.3392  0.1111 -0.2885
  177SOL     OW  705   0.555   0.282   1.443  0.5300 -0.0928  0.3025
  177SOL    HW1  706   0.643   0.302   1.407  0.7266 -0.3677  1.6207
  177SOL    HW2  707   0.527   0.356   1.497 -1.2571  0.1333 -0.8722
  177SOL     MW  708   0.563   0.295   1.445  0.3201 -0.0992  0.3214
  178SOL     OW  709   3.092   0.646   2.912 -0.2026  0.3672 -0.3694
  178SOL    HW1  710   3.018   0.591   2.872 -1.6032 -0.6033 -2.0747
  178SOL    HW2  711   3.171   0.647   2.850  3.7321  3.2428 -1.9578
  178SOL     MW  712   3.092   0.639   2.899  0.1317  0.6186 -0.8040
  179SOL     OW  713   1.594   1.474   1.382  0.1442 -0.1427  0.3077
  179SOL    HW1  714   1.598   1.491   1.475  3.4056 -2.2206 -0.4807
  179SOL    HW2  715   1.683   1.455   1.345  0.0488  1.2956  0.4902
  179SOL     MW  716   1.606   1.474   1.389  0.5619 -0.2271  0.2278
  180SOL     OW  717   0.044   0.231   0.433 -0.5220 -0.1377 -0.3382
  180SOL    HW1  718  -0.033   0.240   0.381  0.5298  0.1394  0.3118
  180SOL    HW2  719   0.062   0.314   0.483  0.9694 -1.2134  0.9479
  180SOL     MW  720   0.037   0.243   0.433 -0.1865 -0.2431 -0.0828
  181SOL     OW  721   1.060   1.318   0.031 -0.8620  0.0056 -0.2528
  181SOL    HW1  722   1.122   1.385   0.070  1.3472  2.0570 -2.6985
  181SOL    HW2  723   1.099   1.282  -0.054  1.1299 -1.0741 -1.5873
  181SOL     MW  724   1.074   1.322   0.025 -0.3077  0.1338 -0.7515
  182SOL     OW  725   0.358   0.931   1.651  0.0052  0.7807  1.0914
  182SOL    HW1  726   0.268   0.907   1.675 -0.0555 -1.9079 -2.4399
  182SOL    HW2  727   0.424   0.887   1.711  1.8760  1.4151  0.3729
  182SOL     MW  728   0.355   0.922   1.662  0.2440  0.5097  0.5307
  183SOL     OW  729   1.531   1.736   1.254 -0.6471 -0.1429 -0.4598
  183SOL    HW1  730   1.623   1.753   1.257 -1.2131 -0.4944 -1.4409
  183SOL    HW2  731   1.516   1.672   1.323  2.0509  4.2404 -1.4148
  183SOL     MW  732   1.541   1.730   1.263 -0.3658  0.3891 -0.7152
  184SOL     OW  733   0.849   0.639   1.690  0.2830  0.0814  0.1559
  184SOL    HW1  734   0.939   0.671   1.697 -2.3004  0.0543 -2.2860
  184SOL    HW2  735   0.850   0.565   1.749  2.7237  0.9255 -0.4102
  184SOL     MW  736   0.861   0.634   1.699  0.2642  0.1892 -0.2410
  185SOL     OW  737   1.076   0.953   1.859  0.3727 -0.3901 -0.5507
  185SOL    HW1  738   1.052   0.875   1.910  0.3538  2.1832 -0.1955
  185SOL    HW2  739   1.091   1.018   1.929  0.1185  0.8427  2.9179
  185SOL     MW  740   1.075   0.951   1.875  0.3367  0.1121 -0.0462
  186SOL     OW  741   0.301   1.644   1.516  0.2356  0.2715 -0.1920
  186SOL    HW1  742   0.336   1.592   1.444  0.7557 -1.2104  1.1526
  186SOL    HW2  743   0.214   1.611   1.533  1.7655 -2.0609 -1.2160
  186SOL     MW  744   0.294   1.633   1.509  0.5061 -0.2318 -0.1497
  187SOL     OW  745   1.402   0.853   1.362 -0.2036  0.1829 -0.0004
  187SOL    HW1  746   1.427   0.863   1.451  1.9264  1.5431 -1.7486
  187SOL    HW2  747   1.306   0.855   1.352 -0.2358  1.3221  2.0253
  187SOL     MW  748   1.393   0.855   1.373  0.0732  0.5126  0.0362
  188SOL     OW  749   1.873   1.218   0.916  0.0411 -0.0922 -0.0838
  188SOL    HW1  750   1.930   1.218   0.995  0.5970  1.1524 -0.9203
  188SOL    HW2  751   1.849   1.132   0.894  0.5281  0.7114 -0.7947
  188SOL     MW  752   1.877   1.207   0.923  0.1787  0.1780 -0.2880
  189SOL     OW  753   0.731   0.740   0.852  0.1472  0.6780 -0.0814
  189SOL    HW1  754   0.666   0.806   0.830 -0.8828  1.1408  0.2639
  189SOL    HW2  755   0.760   0.766   0.940 -1.0935  0.4902 -2.1298
  189SOL     MW  756   0.726   0.752   0.861 -0.1524  0.7143 -0.3061
  190SOL     OW  757   1.877   0.302   2.037 -0.6785  0.2881  0.1600
  190SOL    HW1  758   1.888   0.247   2.113  0.6638  1.7674 -0.7019
  190SOL    HW2  759   1.962   0.355   2.031  0.9668 -0.4661  1.3527
  190SOL     MW  760   1.889   0.302   2.046 -0.2843  0.3838  0.2037
  191SOL     OW  761   1.500   1.061   1.213 -0.1420  0.3378 -0.6998
  191SOL    HW1  762   1.490   1.135   1.276  0.1888  2.3668  2.0619
  191SOL    HW2  763   1.464   0.989   1.265  0.5426 -0.4058  1.8689
  191SOL     MW  764   1.494   1.061   1.228 -0.0080  0.5074  0.0035
  192SOL     OW  765   0.529   2.202   2.941  0.3138  0.0161 -0.3262
  192SOL    HW1  766   0.477   2.253   2.876  2.0595  1.3228  0.6526
  192SOL    HW2  767   0.542   2.112   2.905  0.2648  2.0976 -1.0446
  192SOL     MW  768   0.524   2.197   2.928  0.5376  0.4631 -0.2918
  193SOL     OW  769   0.819   1.676   0.778  0.0896 -0.1287  0.2422
  193SOL    HW1  770   0.791   1.700   0.861 -0.5204  0.9917 -5.4901
  193SOL    HW2  771   0.768   1.599   0.749 -3.8678 -1.4491 -1.6206
  193SOL     MW  772   0.809   1.669   0.785 -0.5130 -0.1551 -0.7599
  194SOL     OW  773   0.403   1.345   0.840  0.3309  0.3994  0.0846
  194SOL    HW1  774   0.369   1.306   0.918  0.6568  3.5036 -3.9876
  194SOL    HW2  775   0.331   1.391   0.800  1.7343 -1.5598 -0.3609
  194SOL     MW  776   0.389   1.346   0.845  0.5591  0.5505 -0.5115
  195SOL     OW  777   1.225   1.120   2.973 -0.4670  0.1236  0.3148
  195SOL    HW1  778   1.266   1.142   3.057 -0.3232  0.8372  3.0516
  195SOL    HW2  779   1.132   1.085   2.984 -0.5443  0.2725  1.2181
  195SOL     MW  780   1.218   1.118   2.986 -0.4583  0.2374  0.7951
  196SOL     OW  781   2.253   0.972   0.516  0.2494 -0.0949 -0.3044
  196SOL    HW1  782   2.305   0.958   0.430  1.9357 -2.2492  0.8524
  196SOL    HW2  783   2.217   1.057   0.507 -0.9475 -0.5010  1.4096
  196SOL     MW  784   2.255   0.981   0.504  0.3140 -0.4327  0.0744
  197SOL     OW  785   0.622   1.283   2.192  0.5398 -0.8257  0.3658
  197SOL    HW1  786   0.634   1.212   2.127 -0.9066 -0.5147  0.4920
  197SOL    HW2  787   0.655   1.365   2.147 -0.2630 -1.3341  0.3105
  197SOL     MW  788   0.628   1.285   2.178  0.2431 -0.8517  0.3752
  198SOL     OW  789   2.916   1.368   1.047 -0.0332  0.3812  0.3991
  198SOL    HW1  790   2.901   1.456   1.009  0.6641  1.0908  1.2527
  198SOL    HW2  791   2.841   1.313   1.012 -2.4373 -3.2253  0.0300
  198SOL     MW  792   2.904   1.373   1.038 -0.2584 -0.0010  0.4630
  199SOL     OW  793   0.648   1.208   1.827 -0.1023 -0.1309 -0.9084
  199SOL    HW1  794   0.562   1.184   1.863  2.8960  1.9196  1.7602
  199SOL    HW2  795   0.631   1.281   1.766 -1.0162 -2.5533  2.9276
  199SOL     MW  796   0.635   1.214   1.823  0.1728 -0.1800 -0.0502
  200SOL     OW  797   1.868   2.957   1.300  0.1606 -0.1852 -0.0607
  200SOL    HW1  798   1.941   2.953   1.231  2.8369 -0.5543 -0.0518
  200SOL    HW2  799   1.821   3.042   1.303  0.8849  0.3535  1.2837
  200SOL     MW  800   1.872   2.968   1.291  0.6093 -0.1628  0.1179
  201SOL     OW  801   1.201   0.308   0.863  0.6615  0.4862  0.0757
  201SOL    HW1  802   1.162   0.234   0.818 -1.3702  3.8585  1.0062
  201SOL    HW2  803   1.296   0.294   0.877 -0.0772 -0.4285  1.3209
  201SOL     MW  804   1.208   0.297   0.859  0.2960  0.8104  0.3628
  202SOL     OW  805   1.421   1.670   1.009 -0.7583 -0.4278 -0.1848
  202SOL    HW1  806   1.430   1.577   1.005 -1.2598  1.1222 -2.2415
  202SOL    HW2  807   1.463   1.704   1.096 -0.8732 -1.1487  3.8026
  202SOL     MW  808   1.428   1.662   1.020 -0.8396 -0.3184  0.0700
  203SOL     OW  809   0.006   0.412   1.343 -0.0755  0.2783 -0.2111
  203SOL    HW1  810   0.007   0.318   1.363  1.2163 -0.6335 -3.6637
  203SOL    HW2  811   0.088   0.423   1.297 -0.7960 -0.3341  0.8481
  203SOL     MW  812   0.017   0.401   1.339 -0.0001  0.0772 -0.5269
  204SOL     OW  813   1.021   1.826   0.652  0.5781 -0.5657 -0.1834
  204SOL    HW1  814   0.966   1.766   0.701 -0.0667  1.2833  0.2855
  204SOL    HW2  815   0.956   1.849   0.583 -0.7319 -1.4834  0.7174
  204SOL     MW  816   1.005   1.821   0.649  0.3202 -0.4428 -0.0027
  205SOL     OW  817   1.387   2.992   1.366 -0.0849 -0.0331  0.7444
  205SOL    HW1  818   1.428   3.028   1.285 -0.5092 -2.5619  0.1993
  205SOL    HW2  819   1.302   3.032   1.379  1.3514  1.0005 -0.5330
  205SOL     MW  820   1.381   3.002   1.357  0.0486 -0.2304  0.5039
  206SOL     OW  821   0.349   2.867   1.381 -0.2449 -0.0755  0.0523
  206SOL    HW1  822   0.338   2.918   1.301 -0.8916  0.4412 -0.0685
  206SOL    HW2  823   0.444   2.852   1.396 -0.6495 -1.0457  0.7066
  206SOL     MW  824   0.360   2.872   1.372 -0.3836 -0.1353  0.1227
  207SOL     OW  825   0.856   1.718   0.220 -0.0413  0.0759 -0.0578
  207SOL    HW1  826   0.933   1.757   0.177 -0.0256 -3.0070 -1.5082
  207SOL    HW2  827   0.888   1.628   0.242  0.2746 -0.8112 -1.0923
  207SOL     MW  828   0.871   1.711   0.217  0.0025 -0.4479 -0.3856
  208SOL     OW  829   0.775   1.496   1.376 -0.4036 -0.1471 -0.2265
  208SOL    HW1  830   0.851   1.506   1.327  0.0155  1.9356 -0.1021
  208SOL    HW2  831   0.726   1.428   1.321  2.4175  1.1084  2.0967
  208SOL     MW  832   0.779   1.488   1.362  0.0240  0.2934  0.0965
  209SOL     OW  833   1.621   0.503   2.818  0.1590  0.3657 -0.1170
  209SOL    HW1  834   1.679   0.581   2.799  0.0222 -0.3594 -1.0908
  209SOL    HW2  835   1.675   0.443   2.865 -1.0568  0.1980  1.2319
  209SOL     MW  836   1.636   0.506   2.822 -0.0194  0.2479 -0.0675
  210SOL     OW  837   1.444   1.403   0.951  0.6211  0.0783 -0.4545
  210SOL    HW1  838   1.541   1.419   0.948 -1.5605 -1.7112 -1.8989
  210SOL    HW2  839   1.408   1.424   0.860 -0.1464 -0.9735 -0.6632
  210SOL     MW  840   1.452   1.408   0.938  0.2320 -0.2966 -0.6726
  211SOL     OW  841   1.747   0.420   0.864 -0.1650 -1.3143 -0.5830
  211SOL    HW1  842   1.767   0.391   0.777  0.8694  0.1727 -1.8801
  211SOL    HW2  843   1.832   0.415   0.902  2.1698 -2.7448  1.6538
  211SOL     MW  844   1.761   0.416   0.858  0.2795 -1.3068 -0.4590
  212SOL     OW  845   0.405   1.222   0.239 -0.2119 -0.3962 -0.0381
  212SOL    HW1  846   0.362   1.136   0.228 -1.7801 -0.2965  1.8687
  212SOL    HW2  847   0.494   1.219   0.183  4.8188  1.3641 -1.0853
  212SOL     MW  848   0.411   1.210   0.230  0.2450 -0.1508  0.0754
  213SOL     OW  849   0.425   1.807   3.075  0.1591  0.3524  0.1671
  213SOL    HW1  850   0.462   1.854   3.149 -0.9574 -0.3432  2.2491
  213SOL    HW2  851   0.459   1.843   2.990  0.0252  0.0024  0.8462
  213SOL     MW  852   0.434   1.818   3.074 -0.0059  0.2145  0.5314
  214SOL     OW  853   0.570   0.357   2.121  0.2756 -0.2901 -0.0763
  214SOL    HW1  854   0.515   0.433   2.111 -0.0631 -3.3341 -1.6005
  214SOL    HW2  855   0.592   0.312   2.034  0.5957  1.7282  1.0203
  214SOL     MW  856   0.565   0.361   2.108  0.2731 -0.4254 -0.1327
  215SOL     OW  857   0.551   0.570   2.501  0.7782  0.9021  0.4377
  215SOL    HW1  858   0.485   0.612   2.449  0.2564 -1.5700 -0.6850
  215SOL    HW2  859   0.580   0.484   2.467  2.1005  1.6801  0.2397
  215SOL     MW  860   0.546   0.564   2.489  0.8838  0.6786  0.2634
  216SOL     OW  861   2.918   3.086   2.850  0.4206 -0.3143 -0.4390
  216SOL    HW1  862   2.831   3.042   2.854  1.1982  0.6202  0.1638
  216SOL    HW2  863   2.916   3.121   2.766 -1.8212  1.4635 -0.6750
  216SOL     MW  864   2.906   3.084   2.840  0.2274  0.0436 -0.3906
  217SOL     OW  865   0.932   1.099   0.141 -0.6183  0.1240 -0.1901
  217SOL    HW1  866   0.938   1.032   0.073  0.8253  1.4731  1.5454
  217SOL    HW2  867   0.985   1.176   0.108  0.3068  3.1350  1.4354
  217SOL     MW  868   0.940   1.101   0.128 -0.3058  0.6993  0.2533
  218SOL     OW  869   0.816   1.409   2.613  0.5126 -0.4761  0.3382
  218SOL    HW1  870   0.789   1.333   2.665 -0.5524  0.2866 -0.8202
  218SOL    HW2  871   0.906   1.432   2.650  1.0502  0.8535  2.5919
  218SOL     MW  872   0.825   1.402   2.625  0.4430 -0.2001  0.4827
  219SOL     OW  873   1.074   0.452   2.539  0.1874 -0.3749 -0.3217
  219SOL    HW1  874   1.154   0.471   2.498  0.2519 -0.4752 -3.8752
  219SOL    HW2  875   1.021   0.530   2.526  2.5537 -0.2213 -2.1234
  219SOL     MW  876   1.078   0.465   2.531  0.5081 -0.3678 -1.0283
  220SOL     OW  877   1.673   0.503   2.206 -0.0863  0.0763 -0.4545
  220SOL    HW1  878   1.601   0.565   2.184  1.7544  1.1997 -0.9783
  220SOL    HW2  879   1.673   0.433   2.139 -0.5784  2.1557 -1.3374
  220SOL     MW  880   1.664   0.502   2.194  0.0916  0.4989 -0.6401
  221SOL     OW  881   0.342   1.364   2.931 -0.1177 -0.0953 -0.0227
  221SOL    HW1  882   0.362   1.280   2.882 -1.0129  0.6466 -1.7532
  221SOL    HW2  883   0.419   1.414   2.924 -1.9942 -1.9561 -0.9739
  221SOL     MW  884   0.355   1.359   2.924 -0.4834 -0.2429 -0.3765
  222SOL     OW  885   0.517   0.909   2.731 -0.1775  0.1585 -0.0662
  222SOL    HW1  886   0.442   0.945   2.686 -0.7637 -0.4287  0.0201
  222SOL    HW2  887   0.524   0.815   2.712 -0.6317  1.3284  0.1558
  222SOL     MW  888   0.508   0.901   2.722 -0.3148  0.2354 -0.0255
  223SOL     OW  889   3.055   2.058   2.532  0.0911  0.6674  0.4021
  223SOL    HW1  890   3.026   2.020   2.613 -0.2974 -1.5500  0.6354
  223SOL    HW2  891   3.117   2.125   2.545 -0.9319 -0.0003  3.1088
  223SOL     MW  892   3.059   2.062   2.544 -0.0951  0.2867  0.7900
  224SOL     OW  893   1.447   0.607   2.410 -0.1838 -1.0702 -0.0940
  224SOL    HW1  894   1.515   0.554   2.451 -3.1291  0.1106  0.2606
  224SOL    HW2  895   1.444   0.693   2.453 -2.1450 -0.3208 -0.4340
  224SOL     MW  896   1.455   0.611   2.421 -0.8312 -0.8155 -0.0921
  225SOL     OW  897   2.913   1.508   2.190 -0.2417  0.3011  0.2210
  225SOL    HW1  898   2.955   1.592   2.173 -0.9189 -1.6472 -0.7498
  225SOL    HW2  899   2.848   1.533   2.253 -2.2891 -0.7871 -0.5817
  225SOL     MW  900   2.910   1.522   2.196 -0.6012 -0.0995 -0.0130
  226SOL     OW  901   0.452   1.573   2.711 -0.2320  0.0687  0.7548
  226SOL    HW1  902   0.529   1.586   2.654 -0.7266  1.8096 -1.0038
  226SOL    HW2  903   0.394   1.640   2.676  1.2533  0.0772 -0.2473
  226SOL     MW  904   0.454   1.584   2.699 -0.1013  0.2995  0.3906
  227SOL     OW  905   0.506   1.142   2.885 -0.3646 -0.0827 -0.4927
  227SOL    HW1  906   0.579   1.168   2.835 -1.2970  0.8047 -0.0872
  227SOL    HW2  907   0.487   1.051   2.846  0.5239 -3.1398 -1.3215
  227SOL     MW  908   0.513   1.133   2.873 -0.3704 -0.3690 -0.5485
  228SOL     OW  909   0.796   1.105   2.023  0.2825  0.0625  0.6195
  228SOL    HW1  910   0.736   1.142   1.964  2.6125  0.0091  3.0928
  228SOL    HW2  911   0.872   1.162   2.018 -0.3533 -0.3570 -2.0555
  228SOL     MW  912   0.798   1.117   2.015  0.5060  0.0001  0.5929
  229SOL     OW  913   0.173   0.583   0.030 -0.0916  0.4295  0.0728
  229SOL    HW1  914   0.101   0.587  -0.039 -0.6720 -2.3193 -0.4761
  229SOL    HW2  915   0.164   0.500   0.079 -0.9007  1.2658 -1.5812
  229SOL     MW  916   0.163   0.573   0.027 -0.2749  0.1772 -0.2179
  230SOL     OW  917   1.762   1.367   2.163 -0.4645  0.9927  0.6591
  230SOL    HW1  918   1.732   1.362   2.253  2.6068  0.9049 -0.9533
  230SOL    HW2  919   1.812   1.282   2.162  0.0475  0.3295 -0.9180
  230SOL     MW  920   1.764   1.355   2.175  0.0083  0.8936  0.2383
  231SOL     OW  921   2.707   1.249   2.217  0.0185 -0.4239 -0.4514
  231SOL    HW1  922   2.740   1.339   2.213  0.6689 -0.7019  1.9609
  231SOL    HW2  923   2.648   1.236   2.136 -0.5379 -3.4052 -1.4550
  231SOL     MW  924   2.704   1.259   2.206  0.0309 -0.8539 -0.2655
  232SOL     OW  925   2.260   0.886   1.998 -0.1903  0.1347  0.5621
  232SOL    HW1  926   2.192   0.948   1.979  0.4352 -0.6913 -0.4292
  232SOL    HW2  927   2.244   0.847   2.089  3.2413 -0.0307  0.4236
  232SOL     MW  928   2.249   0.889   2.008  0.3450  0.0039  0.4130
  233SOL     OW  929   2.099   0.448   2.053  0.2767  0.0078 -0.1093
  233SOL    HW1  930   2.151   0.374   2.048 -3.6201  3.4080 -2.6047
  233SOL    HW2  931   2.085   0.474   2.140  2.4682  2.0160 -0.9711
  233SOL     MW  932   2.104   0.442   2.064  0.0517  0.7214 -0.5522
  234SOL     OW  933   0.265   1.059   2.622 -0.0057 -0.1073 -0.1619
  234SOL    HW1  934   0.183   1.059   2.568 -0.4101 -0.6806 -0.5596
  234SOL    HW2  935   0.297   1.145   2.615  2.5914  0.2901  2.5570
  234SOL     MW  936   0.258   1.070   2.614  0.2836 -0.1305  0.1444
  235SOL     OW  937   1.107   0.032   2.817 -0.5123 -0.1576 -0.1635
  235SOL    HW1  938   1.112   0.023   2.909 -1.4993 -1.1219 -1.9237
  235SOL    HW2  939   1.096   0.125   2.793 -0.6413  1.0195  0.5940
  235SOL     MW  940   1.106   0.043   2.826 -0.6595 -0.1295 -0.2958
  236SOL     OW  941   2.954   0.626   0.163 -0.2992  0.3576 -0.5531
  236SOL    HW1  942   2.962   0.679   0.238  0.1680 -1.5986 -0.9826
  236SOL    HW2  943   3.030   0.653   0.112  1.5589  0.3875 -2.0671
  236SOL     MW  944   2.965   0.636   0.166  0.0076  0.1034 -0.8096
  237SOL     OW  945   1.914   1.124   2.126  0.3716 -0.2434  0.4676
  237SOL    HW1  946   1.835   1.055   2.128  0.5916 -2.7103 -0.9180
  237SOL    HW2  947   1.920   1.144   2.031  4.0912  1.4968 -1.2789
  237SOL     MW  948   1.904   1.118   2.113  0.8914 -0.3393  0.0544
  238SOL     OW  949   1.098   1.708   2.901  0.1121 -0.2415  0.0167
  238SOL    HW1  950   1.070   1.638   2.844  1.2994 -2.3502 -1.4110
  238SOL    HW2  951   1.190   1.681   2.929 -1.7775  0.2032  4.2866
  238SOL     MW  952   1.107   1.696   2.897  0.0194 -0.4610  0.3917
  239SOL     OW  953   1.172   1.272   2.373  0.0471 -0.3289  0.3539
  239SOL    HW1  954   1.135   1.363   2.374  3.1163  1.8890 -1.0471
  239SOL    HW2  955   1.156   1.246   2.463 -0.0760  1.8315  0.5746
  239SOL     MW  956   1.165   1.281   2.385  0.4358  0.2488  0.1982
  240SOL     OW  957   0.583   0.839   2.302  0.4284  0.1654  0.2999
  240SOL    HW1  958   0.601   0.885   2.383  1.5475  0.6076 -1.2361
  240SOL    HW2  959   0.659   0.827   2.249 -1.4290 -1.4018 -4.1671
  240SOL     MW  960   0.595   0.844   2.306  0.3310  0.0169 -0.4921
  241SOL     OW  961   0.670   0.457   3.084 -0.2305  0.3110 -0.2903
  241SOL    HW1  962   0.698   0.537   3.136  2.4134 -0.5378  2.3310
  241SOL    HW2  963   0.576   0.474   3.064  0.6137 -3.3052  1.3740
  241SOL     MW  964   0.661   0.470   3.088  0.2297 -0.2781  0.2752
  242SOL     OW  965   1.519   1.612   2.288 -0.0486  0.0098  0.0335
  242SOL    HW1  966   1.491   1.696   2.327  1.3749  0.8315 -1.1623
  242SOL    HW2  967   1.447   1.582   2.239 -0.6885 -0.1141  0.2088
  242SOL     MW  968   1.506   1.619   2.287  0.0548  0.1019 -0.1012
  243SOL     OW  969   0.961   0.210   2.432  0.0505 -0.7131  0.7495
  243SOL    HW1  970   1.042   0.165   2.413  0.0095 -0.0367  0.7358
  243SOL    HW2  971   0.989   0.291   2.478  0.8229 -2.9054 -1.7391
  243SOL     MW  972   0.975   0.215   2.436  0.1470 -0.9131  0.4193
  244SOL     OW  973   0.114   0.798   2.385 -0.6899  0.0119 -0.1426
  244SOL    HW1  974   0.103   0.895   2.398 -2.0959  2.2389 -0.6934
  244SOL    HW2  975   0.207   0.783   2.373  2.6351 -0.9457  1.1909
  244SOL     MW  976   0.125   0.809   2.385 -0.4367  0.1794 -0.0393
  245SOL     OW  977   1.256   0.097   2.397 -0.5967 -0.0882  0.2115
  245SOL    HW1  978   1.319   0.077   2.331 -2.1579  0.3150  1.7915
  245SOL    HW2  979   1.288   0.056   2.474 -3.7789  0.8892 -0.9541
  245SOL     MW  980   1.268   0.089   2.399 -1.2225  0.0940  0.2662
  246SOL     OW  981   1.179   1.072   2.086 -0.4611  0.0148 -0.0863
  246SOL    HW1  982   1.103   1.062   2.142 -0.2438 -2.1909  1.6947
  246SOL    HW2  983   1.255   1.032   2.135  0.8578 -1.6029 -2.0235
  246SOL     MW  984   1.179   1.065   2.100 -0.2584 -0.4896 -0.1069
  247SOL     OW  985   0.782   0.651   0.176 -0.1636  0.0537 -0.7369
  247SOL    HW1  986   0.765   0.747   0.166 -1.1847  1.1715  0.1988
  247SOL    HW2  987   0.865   0.636   0.135  2.5068  0.7371 -0.0711
  247SOL     MW  988   0.791   0.662   0.169  0.0540  0.2914 -0.5256
  248SOL     OW  989   0.352   1.320   2.630  0.0733 -0.4124 -0.2637
  248SOL    HW1  990   0.360   1.326   2.536  0.9920 -0.9273 -0.9604
  248SOL    HW2  991   0.373   1.407   2.661  0.1692 -1.8795  0.5189
  248SOL     MW  992   0.356   1.333   2.622  0.2072 -0.6739 -0.2524
  249SOL     OW  993   3.023   1.895   2.803  0.0607 -0.9558 -0.2249
  249SOL    HW1  994   2.993   1.808   2.774 -0.3724  0.3951  0.1423
  249SOL    HW2  995   3.108   1.874   2.842 -0.2430  0.7881  3.2270
  249SOL     MW  996   3.030   1.881   2.804 -0.0365 -0.5475  0.2790
  250SOL     OW  997   2.270   0.699   2.202  0.0298 -0.1800  0.4418
  250SOL    HW1  998   2.216   0.632   2.236  4.1088 -2.2289  0.5395
  250SOL    HW2  999   2.350   0.694   2.263 -2.4802 -0.0015  0.0437
  250SOL     MW 1000   2.274   0.689   2.214  0.2368 -0.4268  0.4022
  251SOL     OW 1001   0.162   0.879   1.994 -0.1599  0.2125 -0.6787
  251SOL    HW1 1002   0.094   0.814   2.023 -3.4156 -1.1557  1.2410
  251SOL    HW2 1003   0.131   0.902   1.906 -3.3534  1.0935 -0.5624
  251SOL     MW 1004   0.149   0.873   1.986 -1.0108  0.1482 -0.4101
  252SOL     OW 1005   1.713   1.024   2.891  0.3296  0.3518  0.2166
  252SOL    HW1 1006   1.699   1.083   2.964 -2.1347 -1.7285  1.8106
  252SOL    HW2 1007   1.797   1.036   2.848  4.6925 -1.2400  0.4100
  252SOL     MW 1008   1.722   1.034   2.895  0.5801 -0.1327  0.4525
  253SOL     OW 1009   1.141   1.669   2.549  0.3144  0.1866  0.4875
  253SOL    HW1 1010   1.124   1.617   2.467 -2.6506 -2.9825 -1.2311
  253SOL    HW2 1011   1.067   1.724   2.559  1.3491 -0.6034 -0.3165
  253SOL     MW 1012   1.129   1.670   2.539  0.0598 -0.3357  0.1547
  254SOL     OW 1013   0.977   1.043   2.283 -0.3587 -0.2284  0.3933
  254SOL    HW1 1014   0.910   0.974   2.259 -2.4764 -1.0781 -0.0441
  254SOL    HW2 1015   0.928   1.113   2.325  1.9557  0.6900 -2.3230
  254SOL     MW 1016   0.962   1.043   2.285 -0.3328 -0.2194 -0.0228
  255SOL     OW 1017   0.870   2.457   2.158  0.3756 -0.7712  0.6461
  255SOL    HW1 1018   0.779   2.425   2.148 -1.7611 -3.0952  0.9255
  255SOL    HW2 1019   0.914   2.382   2.211 -2.2274 -1.1835  0.4936
  255SOL     MW 1020   0.864   2.443   2.164 -0.2497 -1.1322  0.6628
  256SOL     OW 1021   1.330   2.825   3.064 -0.9985  0.6093  0.2420
  256SOL    HW1 1022   1.310   2.741   3.103  1.3530  0.5277  2.4264
  256SOL    HW2 1023   1.373   2.814   2.976 -1.7598  3.4313  0.2721
  256SOL     MW 1024   1.333   2.812   3.057 -0.7887  0.9709  0.5342
  257SOL     OW 1025   0.065   1.979   0.035  0.4740 -0.0899 -0.0245
  257SOL    HW1 1026   0.120   1.920   0.091  1.5945 -2.4114 -1.2460
  257SOL    HW2 1027   0.067   1.935  -0.047  0.3209  1.0768 -0.7521
  257SOL     MW 1028   0.072   1.965   0.032  0.6016 -0.2423 -0.2816
  258SOL     OW 1029   0.702   0.980   2.535  0.1762 -0.2609  0.1441
  258SOL    HW1 1030   0.706   1.078   2.517  0.4012 -0.0832 -1.6032
  258SOL    HW2 1031   0.669   0.992   2.625 -0.6936  0.2986 -2.2733
  258SOL     MW 1032   0.698   0.994   2.544  0.0911 -0.1636 -0.4054
  259SOL     OW 1033   0.810   0.418   2.261  0.0600  0.1010 -0.0145
  259SOL    HW1 1034   0.730   0.398   2.213  0.7633  0.7378  0.5792
  259SOL    HW2 1035   0.848   0.340   2.299 -2.1671  2.6955  0.7648
  259SOL     MW 1036   0.804   0.405   2.259 -0.1411  0.5273  0.1667
  260SOL     OW 1037   0.672   0.076   1.609  0.3348  0.4616 -0.2002
  260SOL    HW1 1038   0.610   0.131   1.564 -0.6909  1.4490  0.3512
  260SOL    HW2 1039   0.755   0.122   1.584  2.4148 -3.6445  4.0318
  260SOL     MW 1040   0.675   0.089   1.600  0.4739  0.0501  0.4309
  261SOL     OW 1041   1.012   0.739   2.019 -0.1096 -0.5739 -0.1025
  261SOL    HW1 1042   1.103   0.732   2.054 -0.5449 -0.1294  0.4587
  261SOL    HW2 1043   0.991   0.646   1.982 -2.2104 -1.9862 -0.3685
  261SOL     MW 1044   1.022   0.726   2.018 -0.4442 -0.7016 -0.0635
  262SOL     OW 1045   1.104   0.325   0.139  0.0907  0.3368 -0.1130
  262SOL    HW1 1046   1.190   0.340   0.096  1.2425 -2.3145  1.8412
  262SOL    HW2 1047   1.059   0.265   0.077  0.4959  0.4752 -2.4615
  262SOL     MW 1048   1.109   0.319   0.125  0.2961  0.0053 -0.1650
  263SOL     OW 1049   0.376   0.009   2.480 -0.8137  0.0466 -0.1758
  263SOL    HW1 1050   0.297   0.059   2.503 -0.4859  2.3607  0.3285
  263SOL    HW2 1051   0.412   0.065   2.414 -0.0464  2.7192 -1.1786
  263SOL     MW 1052   0.370   0.023   2.474 -0.6692  0.7045 -0.2416
  264SOL     OW 1053   1.538   1.461   1.940  0.0137 -0.2839  0.5472
  264SOL    HW1 1054   1.445   1.425   1.947 -0.8113  3.5201  0.1825
  264SOL    HW2 1055   1.578   1.414   2.012 -1.2104  2.4584  6.4918
  264SOL     MW 1056   1.531   1.450   1.950 -0.2566  0.5799  1.2834
  265SOL     OW 1057   0.709   2.771   2.335  0.0320  0.1352 -0.4259
  265SOL    HW1 1058   0.792   2.730   2.305  0.0917 -1.2023  2.5598
  265SOL    HW2 1059   0.728   2.799   2.428  2.2759  0.7168  0.4351
  265SOL     MW 1060   0.722   2.770   2.344  0.3360  0.0354  0.0816
  266SOL     OW 1061   0.797   0.852   2.138 -0.5069  0.3202 -0.2769
  266SOL    HW1 1062   0.777   0.925   2.083  0.1858 -1.0818 -0.8564
  266SOL    HW2 1063   0.880   0.809   2.104 -1.0614  0.0469 -0.0162
  266SOL     MW 1064   0.805   0.856   2.126 -0.4887  0.0992 -0.3190
  267SOL     OW 1065   1.381   1.735   2.697 -0.2182 -0.4956  0.4411
  267SOL    HW1 1066   1.444   1.677   2.658 -0.7325 -1.0937 -1.1119
  267SOL    HW2 1067   1.299   1.708   2.645 -0.5383  0.7417 -2.5521
  267SOL     MW 1068   1.378   1.724   2.685 -0.3283 -0.4113 -0.1588
  268SOL     OW 1069   0.084   0.905   1.709  0.0962  0.0041 -0.4299
  268SOL    HW1 1070   0.005   0.936   1.752 -1.8698 -2.0124 -2.4988
  268SOL    HW2 1071   0.042   0.831   1.654 -0.0006 -3.2382 -0.7814
  268SOL     MW 1072   0.068   0.899   1.707 -0.1760 -0.6898 -0.7493
  269SOL     OW 1073   1.351   1.822   2.406 -0.4296 -0.6695  0.2882
  269SOL    HW1 1074   1.395   1.866   2.479 -0.1573  1.9653 -2.0756
  269SOL    HW2 1075   1.271   1.785   2.452 -3.9241  0.3291 -2.7027
  269SOL     MW 1076   1.346   1.823   2.422 -0.8548 -0.1901 -0.4183
  270SOL     OW 1077   1.096   0.472   1.535  0.3966  0.2545  0.1341
  270SOL    HW1 1078   1.041   0.399   1.563 -1.9512  2.7242 -0.4615
  270SOL    HW2 1079   1.171   0.434   1.501 -2.5227  0.6390  2.9769
  270SOL     MW 1080   1.098   0.457   1.534 -0.2983  0.6311  0.4306
  271SOL     OW 1081   0.736   0.094   2.572 -0.7281  0.1756  0.3624
  271SOL    HW1 1082   0.778   0.063   2.651  1.0080  2.3181 -0.3736
  271SOL    HW2 1083   0.813   0.114   2.525 -2.0730  2.5343 -0.1037
  271SOL     MW 1084   0.752   0.092   2.576 -0.6765  0.7695  0.2038
  272SOL     OW 1085   1.474   2.795   2.833  0.9944  0.3814  0.3248
  272SOL    HW1 1086   1.426   2.796   2.755  0.4809  2.8266  1.8113
  272SOL    HW2 1087   1.526   2.881   2.840 -1.5806 -0.3287  1.3385
  272SOL     MW 1088   1.475   2.807   2.824  0.5869  0.6104  0.6547
  273SOL     OW 1089   1.452   0.797   2.811 -0.1344 -0.1310  0.2762
  273SOL    HW1 1090   1.532   0.750   2.841 -0.0119 -1.6189  1.0602
  273SOL    HW2 1091   1.484   0.885   2.787 -1.2267  0.1299  0.0290
  273SOL     MW 1092   1.467   0.803   2.812 -0.2624 -0.2929  0.3470
  274SOL     OW 1093   1.397   0.651   0.132 -0.1425  0.3352  0.8296
  274SOL    HW1 1094   1.461   0.586   0.172  0.8947  0.4223 -0.8686
  274SOL    HW2 1095   1.322   0.665   0.197  0.0533 -1.2124 -0.7655
  274SOL     MW 1096   1.396   0.644   0.146  0.0202  0.1425  0.3951
  275SOL     OW 1097   1.871   0.554   1.707  0.4793 -0.0397  0.2846
  275SOL    HW1 1098   1.924   0.607   1.763 -0.2359  1.9008  0.5980
  275SOL    HW2 1099   1.876   0.466   1.738  2.0878  0.4640 -0.6073
  275SOL     MW 1100   1.879   0.549   1.719  0.5972  0.2828  0.2083
  276SOL     OW 1101   0.419   1.170   1.946  0.3207 -0.0400  0.3209
  276SOL    HW1 1102   0.425   1.088   1.998  0.1460  1.9200  0.4406
  276SOL    HW2 1103   0.377   1.235   2.007 -0.2954  1.3229  1.5517
  276SOL     MW 1104   0.414   1.168   1.961  0.2164  0.3985  0.4991
  277SOL     OW 1105   1.969   1.145   2.452  0.6800  0.3242 -0.2563
  277SOL    HW1 1106   2.019   1.223   2.475  1.7288  1.1426 -1.6819
  277SOL    HW2 1107   1.910   1.168   2.377 -4.7503  1.3723  0.8774
  277SOL     MW 1108   1.968   1.158   2.445  0.1019  0.5705 -0.2948
  278SOL     OW 1109   1.451   0.618   1.608 -0.2721 -0.2496  0.4572
  278SOL    HW1 1110   1.455   0.599   1.700 -3.6206  0.7981 -1.5337
  278SOL    HW2 1111   1.542   0.630   1.581  0.3416 -0.5929  1.1028
  278SOL     MW 1112   1.464   0.617   1.617 -0.6329 -0.1566  0.2797
  279SOL     OW 1113   0.502   0.085   2.202 -0.0155 -0.2136 -0.2372
  279SOL    HW1 1114   0.581   0.035   2.239 -0.7385 -1.0410  1.5691
  279SOL    HW2 1115   0.521   0.178   2.174  0.8377 -1.6760 -2.1969
  279SOL     MW 1116   0.515   0.091   2.203  0.0017 -0.5157 -0.2574
  280SOL     OW 1117   1.384   0.989   2.234  0.4974 -0.1676  0.3009
  280SOL    HW1 1118   1.477   0.978   2.225  1.4372  0.1480 -0.3655
  280SOL    HW2 1119   1.380   0.955   2.323  1.3057 -0.1479  1.1200
  280SOL     MW 1120   1.396   0.983   2.244  0.7280 -0.1234  0.3210
  281SOL     OW 1121   1.394   1.069   2.774  0.0236 -0.1321 -0.1015
  281SOL    HW1 1122   1.434   1.153   2.756 -0.5103 -0.7957  0.8850
  281SOL    HW2 1123   1.339   1.071   2.853  0.2728  2.0595 -0.0053
  281SOL     MW 1124   1.392   1.081   2.782 -0.0140  0.0695  0.0413
  282SOL     OW 1125   1.077   1.327   1.622 -0.5407  0.3855 -0.6057
  282SOL    HW1 1126   1.055   1.401   1.573  0.1424  0.1801  3.0723
  282SOL    HW2 1127   0.999   1.287   1.655  1.0419 -2.3845  0.0366
  282SOL     MW 1128   1.064   1.332   1.620 -0.2418 -0.0071 -0.0356
  283SOL     OW 1129   0.824   1.330   3.005 -0.0849 -0.6330 -0.5907
  283SOL    HW1 1130   0.891   1.336   3.078 -0.6742 -0.9661  0.9443
  283SOL    HW2 1131   0.765   1.406   3.010 -0.5337  0.7530  1.0282
  283SOL     MW 1132   0.825   1.341   3.015 -0.2219 -0.4941 -0.1746
  284SOL     OW 1133   0.358   0.684   2.350  0.8743  0.3403  0.1227
  284SOL    HW1 1134   0.441   0.737   2.334  0.3399 -0.0271 -0.0597
  284SOL    HW2 1135   0.354   0.623   2.275 -2.4208 -1.8082  2.3691
  284SOL     MW 1136   0.368   0.683   2.338  0.3691  0.0083  0.3950
  285SOL     OW 1137   0.870   0.934   2.795  0.4689  0.3083 -0.0710
  285SOL    HW1 1138   0.927   0.944   2.716 -0.1335 -2.1085  1.2239
  285SOL    HW2 1139   0.813   0.868   2.767  0.4324  0.0903 -1.3104
  285SOL     MW 1140   0.870   0.927   2.781  0.3846 -0.0393 -0.0636
  286SOL     OW 1141   1.058   1.442   2.736 -0.5628  0.3319 -0.0742
  286SOL    HW1 1142   1.094   1.355   2.719  1.7939  1.5114 -1.7495
  286SOL    HW2 1143   1.093   1.502   2.671 -0.5601  0.2341  3.4782
  286SOL     MW 1144   1.067   1.439   2.725 -0.2515  0.4747  0.1735
  287SOL     OW 1145   1.090   0.965   0.326  0.1474  0.3913  0.2809
  287SOL    HW1 1146   1.066   1.000   0.411 -1.0083 -0.4753 -2.2190
  287SOL    HW2 1147   1.038   1.012   0.259 -2.2748 -2.4189 -1.5604
  287SOL     MW 1148   1.080   0.976   0.328 -0.3247 -0.0938 -0.2919
  288SOL     OW 1149   1.495   0.722   2.089 -0.0233  0.4753  0.2938
  288SOL    HW1 1150   1.411   0.718   2.132  3.6799  0.3005 -1.3782
  288SOL    HW2 1151   1.533   0.798   2.124 -1.8188 -1.0719 -2.1726
  288SOL     MW 1152   1.489   0.731   2.100  0.2284  0.2481 -0.2522
  289SOL     OW 1153   1.010   1.023   2.586  0.2502  0.6607 -0.2083
  289SOL    HW1 1154   1.058   0.964   2.534  0.2790  0.6995  0.3384
  289SOL    HW2 1155   0.936   1.037   2.528  3.2279 -0.1757  2.3353
  289SOL     MW 1156   1.007   1.017   2.571  0.6469  0.5554  0.1994
  290SOL     OW 1157   0.694   0.648   1.478  0.4800  0.1868 -0.0466
  290SOL    HW1 1158   0.749   0.613   1.411 -2.0128  0.5174 -0.4870
  290SOL    HW2 1159   0.750   0.645   1.558 -2.3796  0.4641 -1.2904
  290SOL     MW 1160   0.708   0.643   1.480 -0.2262  0.2670 -0.2688
  291SOL     OW 1161   0.201   0.346   0.214 -0.7606 -0.0513  0.0071
  291SOL    HW1 1162   0.284   0.310   0.225 -3.0332 -0.6836  1.0675
  291SOL    HW2 1163   0.145   0.296   0.271 -0.0244 -0.3006  0.8628
  291SOL     MW 1164   0.204   0.334   0.223 -0.9633 -0.1677  0.2599
  292SOL     OW 1165   1.026   0.565   0.077 -0.1361  0.0871  0.2095
  292SOL    HW1 1166   1.066   0.617   0.145 -0.5457  2.0900 -2.0943
  292SOL    HW2 1167   1.044   0.469   0.104  0.8948 -1.8263 -0.6004
  292SOL     MW 1168   1.033   0.559   0.090 -0.0541  0.0989 -0.2013
  293SOL     OW 1169   0.129   0.119   2.524 -0.9631 -0.3897 -0.0588
  293SOL    HW1 1170   0.102   0.102   2.434  1.4595 -1.6807 -1.1768
  293SOL    HW2 1171   0.044   0.105   2.573  0.5471 -1.1266 -3.0690
  293SOL     MW 1172   0.114   0.115   2.518 -0.4442 -0.6573 -0.6034
  294SOL     OW 1173   1.254   0.438   2.296 -0.2858  0.0321 -0.0900
  294SOL    HW1 1174   1.327   0.495   2.330  1.3426  1.5007  0.4080
  294SOL    HW2 1175   1.264   0.348   2.318 -0.1970  0.3355 -0.6615
  294SOL     MW 1176   1.265   0.434   2.303 -0.0592  0.2659 -0.0997
  295SOL     OW 1177   0.866   0.663   2.480  0.6419  0.2247  0.0027
  295SOL    HW1 1178   0.821   0.607   2.417  0.2627 -0.3903 -0.8425
  295SOL    HW2 1179   0.798   0.693   2.542 -0.5508 -0.8367 -0.5520
  295SOL     MW 1180   0.851   0.659   2.480  0.4345  0.0035 -0.1820
  296SOL     OW 1181   1.374   0.351   2.055  0.1887  0.3219 -0.3109
  296SOL    HW1 1182   1.388   0.259   2.073 -1.0191  1.8917 -2.3653
  296SOL    HW2 1183   1.340   0.391   2.133  0.2120  1.2510 -1.4051
  296SOL     MW 1184   1.372   0.344   2.068  0.0324  0.6516 -0.7263
  297SOL     OW 1185   1.372   0.379   1.515  0.0116  0.0950  0.2931
  297SOL    HW1 1186   1.405   0.457   1.556 -0.4246 -0.1922  0.8986
  297SOL    HW2 1187   1.410   0.304   1.565  1.8307  1.2430 -1.5115
  297SOL     MW 1188   1.381   0.380   1.527  0.1940  0.2086  0.1349
  298SOL     OW 1189   1.693   0.932   2.141 -0.4239  0.2917 -0.1718
  298SOL    HW1 1190   1.711   0.958   2.046 -0.1061 -0.7181  0.2084
  298SOL    HW2 1191   1.741   0.847   2.146  1.4349 -0.8985 -0.5895
  298SOL     MW 1192   1.702   0.924   2.129 -0.1367  0.0015 -0.1768
  299SOL     OW 1193   0.606   1.158   0.038  0.3212 -0.3144  0.4964
  299SOL    HW1 1194   0.567   1.136  -0.056  0.0942 -4.3686 -1.4040
  299SOL    HW2 1195   0.683   1.207   0.010 -0.5366 -0.1672  0.4999
  299SOL     MW 1196   0.611   1.162   0.022  0.1780 -0.8299  0.2461
  300SOL     OW 1197   1.167   1.215   2.671  0.2965  0.0720  0.4390
  300SOL    HW1 1198   1.109   1.153   2.630  0.4236  2.6232 -0.9879
  300SOL    HW2 1199   1.241   1.163   2.697 -0.3296 -0.1330 -2.9369
  300SOL     MW 1200   1.169   1.200   2.669  0.2306  0.3816 -0.1947
  301SOL     OW 1201   1.467   1.023   0.679 -0.4489  0.4620 -0.1651
  301SOL    HW1 1202   1.478   1.059   0.764  2.5285  0.0530 -0.7736
  301SOL    HW2 1203   1.422   0.940   0.686 -3.5079  0.2792 -0.2549
  301SOL     MW 1204   1.463   1.017   0.691 -0.4597  0.3839 -0.2573
  302SOL     OW 1205   0.235   1.584   2.044  0.0783 -0.4587  0.8716
  302SOL    HW1 1206   0.247   1.490   2.059  0.6458 -2.5174 -0.2470
  302SOL    HW2 1207   0.142   1.599   2.052 -1.3533 -1.1795 -1.1273
  302SOL     MW 1208   0.225   1.574   2.047 -0.0357 -0.8254  0.4603
  303SOL     OW 1209   0.297   1.790   2.688  0.3104  0.0932  0.1124
  303SOL    HW1 1210   0.248   1.819   2.612  2.4311  0.1417 -1.0693
  303SOL    HW2 1211   0.231   1.758   2.754  0.2694  2.2807  3.7989
  303SOL     MW 1212   0.282   1.790   2.687  0.5848  0.3882  0.4429
  304SOL     OW 1213   0.535   2.108   2.457  0.4220  0.3933 -0.7090
  304SOL    HW1 1214   0.591   2.174   2.423 -1.4012  0.8317 -0.1780
  304SOL    HW2 1215   0.597   2.032   2.454  1.4713  0.2687  0.7922
  304SOL     MW 1216   0.551   2.106   2.452  0.3199  0.4347 -0.4409
  305SOL     OW 1217   1.129   0.624   0.557 -0.2970  0.1506 -0.3665
  305SOL    HW1 1218   1.031   0.613   0.549 -1.1245 -1.8675 -0.4913
  305SOL    HW2 1219   1.171   0.530   0.551  1.6738 -3.8113 -2.3854
  305SOL     MW 1220   1.122   0.610   0.555 -0.1461 -0.6384 -0.6493
  306SOL     OW 1221   1.142   1.541   0.299 -0.0036 -0.2932  0.4076
  306SOL    HW1 1222   1.146   1.451   0.336 -0.2818  1.1769 -1.9634
  306SOL    HW2 1223   1.206   1.545   0.222  0.2095  0.8032  0.5563
  306SOL     MW 1224   1.151   1.530   0.294 -0.0122  0.0454  0.1144
  307SOL     OW 1225   1.451   0.558   1.864 -0.2309 -0.0358 -0.2957
  307SOL    HW1 1226   1.439   0.475   1.910 -0.2294  1.0381  1.2262
  307SOL    HW2 1227   1.472   0.616   1.942 -4.3896  1.0473 -1.5549
  307SOL     MW 1228   1.452   0.554   1.880 -0.7794  0.2488 -0.2610
  308SOL     OW 1229   2.272   0.579   2.727 -0.2473  0.0719 -0.2799
  308SOL    HW1 1230   2.357   0.584   2.772 -2.4763  0.9079  0.1966
  308SOL    HW2 1231   2.225   0.660   2.755  1.7772  1.0310 -1.4879
  308SOL     MW 1232   2.277   0.590   2.737 -0.2743  0.3088 -0.3764
  309SOL     OW 1233   0.548   0.517   0.297  0.0218  0.2541  0.3737
  309SOL    HW1 1234   0.632   0.550   0.260 -0.4918 -1.4840 -2.2252
  309SOL    HW2 1235   0.519   0.447   0.237  3.7891  1.1049 -1.2989
  309SOL     MW 1236   0.555   0.512   0.284  0.4511  0.1370 -0.1899
  310SOL     OW 1237   0.393   0.532   1.834  0.2406  0.1124 -1.0315
  310SOL    HW1 1238   0.418   0.486   1.754  2.8184 -1.7302  0.6830
  310SOL    HW2 1239   0.447   0.612   1.842  0.1021  1.0605  0.1161
  310SOL     MW 1240   0.403   0.536   1.824  0.5624 -0.0056 -0.6539
  311SOL     OW 1241   1.995   0.712   1.908 -0.0215  0.1640 -0.5015
  311SOL    HW1 1242   1.930   0.725   1.985 -0.0126 -0.1413  0.7230
  311SOL    HW2 1243   2.078   0.711   1.946 -0.5692 -0.7022  2.9747
  311SOL     MW 1244   1.997   0.714   1.923 -0.0926  0.0094  0.1187
  312SOL     OW 1245   1.749   2.455   0.151  0.6626 -0.6814 -0.0667
  312SOL    HW1 1246   1.762   2.441   0.243 -0.3571  0.1428  0.1782
  312SOL    HW2 1247   1.683   2.531   0.145  0.8391  2.1361  0.9643
  312SOL     MW 1248   1.742   2.463   0.162  0.5514 -0.2009  0.1016
  313SOL     OW 1249   0.081   1.145   3.076 -0.7841  0.0289 -0.0055
  313SOL    HW1 1250   0.050   1.170   3.164  0.3190  0.4174 -0.2398
  313SOL    HW2 1251   0.119   1.220   3.039  1.1869 -0.6422 -0.4984
  313SOL     MW 1252   0.082   1.158   3.083 -0.3785 -0.0084 -0.1014
  314SOL     OW 1253   2.223   2.870   3.071  0.3237  0.1774 -0.0773
  314SOL    HW1 1254   2.137   2.892   3.025  0.3304 -0.5302  1.6491
  314SOL    HW2 1255   2.264   2.947   3.082 -0.9430 -0.2182 -1.6250
  314SOL     MW 1256   2.217   2.883   3.066  0.1575  0.0319 -0.0537
  315SOL     OW 1257   1.517   1.874   3.024  0.3002  0.0073 -0.2764
  315SOL    HW1 1258   1.446   1.920   3.062 -1.7267  0.1792  0.0792
  315SOL    HW2 1259   1.561   1.940   2.971  2.3198  1.4928  0.7194
  315SOL     MW 1260   1.513   1.888   3.022  0.2992  0.2260 -0.0981
  316SOL     OW 1261   1.214   0.696   2.713 -0.4373 -0.3535 -0.3456
  316SOL    HW1 1262   1.291   0.736   2.741  0.4319 -1.3024  1.7177
  316SOL    HW2 1263   1.166   0.665   2.792  1.7776 -0.8722  0.5041
  316SOL     MW 1264   1.218   0.697   2.727 -0.0304 -0.5471  0.0387
  317SOL     OW 1265   0.671   1.631   2.566 -0.7414  0.7712 -0.2914
  317SOL    HW1 1266   0.718   1.546   2.585  0.2438 -1.0338 -0.9326
  317SOL    HW2 1267   0.659   1.624   2.477  0.6473 -0.6895 -0.8139
  317SOL     MW 1268   0.676   1.619   2.557 -0.4282  0.3403 -0.4449
  318SOL     OW 1269   1.357   0.395   2.862  0.0377 -0.1778 -0.2161
  318SOL    HW1 1270   1.282   0.448   2.859  1.5990 -1.3797  0.1683
  318SOL    HW2 1271   1.428   0.442   2.827 -1.5760  0.4739  1.7243
  318SOL     MW 1272   1.357   0.408   2.857  0.0308 -0.2504  0.0906
  319SOL     OW 1273   0.830   0.499   2.871  0.0179 -0.5988  0.0986
  319SOL    HW1 1274   0.798   0.425   2.821 -0.7732  1.3934  1.7196
  319SOL    HW2 1275   0.800   0.473   2.956  1.6294  0.7386  2.0118
  319SOL     MW 1276   0.822   0.486   2.876  0.1261 -0.1595  0.5649
  320SOL     OW 1277   1.010   1.298   2.008 -0.0972 -0.4332  0.5254
  320SOL    HW1 1278   1.082   1.258   2.057  0.8704 -3.2203  0.1214
  320SOL    HW2 1279   1.057   1.356   1.947 -0.4784  0.3521  0.5486
  320SOL     MW 1280   1.026   1.301   2.006 -0.0199 -0.6973  0.4752
  321SOL     OW 1281   1.013   0.944   3.030 -0.1252  0.1291 -0.4869
  321SOL    HW1 1282   0.943   0.923   2.966  1.1270  2.6906 -1.2362
  321SOL    HW2 1283   1.073   0.870   3.032 -0.6201  1.2952 -1.2992
  321SOL     MW 1284   1.012   0.931   3.022 -0.0253  0.6209 -0.6929
  322SOL     OW 1285   1.336   0.858   1.649 -0.4242 -0.0121 -0.0139
  322SOL    HW1 1286   1.374   0.769   1.636 -0.9716  1.2471  0.6595
  322SOL    HW2 1287   1.266   0.844   1.712 -0.0355  0.3970 -0.4686
  322SOL     MW 1288   1.332   0.844   1.656 -0.4451  0.2081  0.0150
  323SOL     OW 1289   1.145   1.520   1.910 -0.1470 -0.2582  0.1491
  323SOL    HW1 1290   1.153   1.519   1.813 -2.8500  0.5630  0.0779
  323SOL    HW2 1291   1.141   1.613   1.931 -1.7500  0.9767  0.4444
  323SOL     MW 1292   1.146   1.532   1.900 -0.7152  0.0131  0.1787
  324SOL     OW 1293   1.437   0.881   2.502 -0.1533 -0.5683 -0.4749
  324SOL    HW1 1294   1.388   0.892   2.578 -0.8908 -0.1740  1.2206
  324SOL    HW2 1295   1.516   0.940   2.519 -1.8849 -2.2767  3.1210
  324SOL     MW 1296   1.441   0.890   2.515 -0.4790 -0.7417  0.2233
  325SOL     OW 1297   1.106   0.551   2.912 -0.1095  0.2240 -0.1549
  325SOL    HW1 1298   1.082   0.588   2.997  2.4644  2.2295  1.0078
  325SOL    HW2 1299   1.019   0.536   2.868 -0.3700 -2.7033 -2.4378
  325SOL     MW 1300   1.091   0.554   2.918  0.1958  0.1024 -0.3027
  326SOL     OW 1301   0.377   1.369   2.338 -0.3356  0.1588 -0.1651
  326SOL    HW1 1302   0.467   1.359   2.304  1.6031 -0.9181 -0.6767
  326SOL    HW2 1303   0.367   1.467   2.350  2.2401  2.8155 -1.3192
  326SOL     MW 1304   0.388   1.381   2.335  0.2601  0.3672 -0.3848
  327SOL     OW 1305   1.959   0.746   2.417 -0.0873 -0.0555  0.1980
  327SOL    HW1 1306   1.943   0.716   2.508  2.2210  0.0106  1.1788
  327SOL    HW2 1307   2.007   0.829   2.426  0.3068 -0.0755 -0.4622
  327SOL     MW 1308   1.963   0.753   2.430  0.2693 -0.0494  0.2403
  328SOL     OW 1309   0.254   1.327   2.108 -0.1442 -0.6424 -0.4954
  328SOL    HW1 1310   0.181   1.271   2.117  0.4719  2.1484  1.0406
  328SOL    HW2 1311   0.281   1.328   2.202 -2.3534 -2.1750  3.2672
  328SOL     MW 1312   0.248   1.320   2.121 -0.3544 -0.4764  0.2037
  329SOL     OW 1313   0.027   0.156   1.356 -0.2943  0.1237 -0.2746
  329SOL    HW1 1314   0.008   0.144   1.453 -1.0873  1.3636 -3.7171
  329SOL    HW2 1315   0.123   0.147   1.337 -0.9100  2.6097 -1.4725
  329SOL     MW 1316   0.037   0.153   1.366 -0.4801  0.6153 -0.8869
  330SOL     OW 1317   0.341   0.059   1.968  0.3380 -0.0172  0.1045
  330SOL    HW1 1318   0.435   0.055   1.983  0.5667 -0.5286  0.1635
  330SOL    HW2 1319   0.303  -0.010   2.024 -1.9345  0.8984  0.1579
  330SOL     MW 1320   0.349   0.049   1.977  0.0684  0.0361  0.1193
  331SOL     OW 1321   0.807   1.217   2.404  0.3487 -0.3100  0.6460
  331SOL    HW1 1322   0.747   1.256   2.333  2.8850 -1.0777 -0.2640
  331SOL    HW2 1323   0.801   1.290   2.472 -0.7221 -4.7029 -2.6341
  331SOL     MW 1324   0.798   1.232   2.403  0.5421 -0.9909  0.0931
  332SOL     OW 1325   1.358   1.631   2.946  0.2022 -0.3313 -0.0430
  332SOL    HW1 1326   1.356   1.657   2.854 -0.1544  1.1828  0.2982
  332SOL    HW2 1327   1.428   1.685   2.981  2.3512 -1.0489  0.6959
  332SOL     MW 1328   1.367   1.642   2.938  0.4387 -0.2262  0.0995
  333SOL     OW 1329   1.714   1.348   2.929  0.2847  0.3390 -0.1545
  333SOL    HW1 1330   1.801   1.377   2.959  1.1271  0.7301 -3.1343
  333SOL    HW2 1331   1.673   1.288   2.997  0.0339 -0.6327  2.3352
  333SOL     MW 1332   1.720   1.344   2.942  0.3628  0.2624 -0.2192
  334SOL     OW 1333   1.326   3.045   2.618 -0.0077 -0.0988 -0.6013
  334SOL    HW1 1334   1.247   3.066   2.661  3.3901  0.0777  1.1002
  334SOL    HW2 1335   1.392   3.106   2.659 -1.8587 -0.5197  1.3903
  334SOL     MW 1336   1.324   3.056   2.629  0.1964 -0.1310 -0.1140
  335SOL     OW 1337   1.263   0.780   3.039 -0.0535  0.5190  0.4069
  335SOL    HW1 1338   1.319   0.723   3.103 -1.1598  1.6339 -2.5895
  335SOL    HW2 1339   1.321   0.782   2.964  1.0592 -3.4043  1.5052
  335SOL     MW 1340   1.278   0.773   3.037 -0.0527  0.1484  0.1565
  336SOL     OW 1341   0.903   1.106   1.711 -1.1366  0.3281 -0.3547
  336SOL    HW1 1342   0.820   1.118   1.758 -2.0873 -1.5266  1.4319
  336SOL    HW2 1343   0.960   1.041   1.759  0.7465 -1.2409  2.8896
  336SOL     MW 1344   0.900   1.099   1.723 -1.0136 -0.1236  0.3091
  337SOL     OW 1345   0.529   1.941   2.860  0.2126 -0.4674  0.3397
  337SOL    HW1 1346   0.477   1.888   2.798  1.6779 -2.9303  1.3438
  337SOL    HW2 1347   0.617   1.903   2.859  1.7230  0.8319  3.3268
  337SOL     MW 1348   0.534   1.929   2.851  0.6053 -0.6209  0.8663
  338SOL     OW 1349   1.124   0.774   2.463  0.1024 -0.0905  0.0666
  338SOL    HW1 1350   1.033   0.740   2.455  2.8784  0.2315 -0.9514
  338SOL    HW2 1351   1.159   0.735   2.542  0.5014  0.0275 -1.5354
  338SOL     MW 1352   1.117   0.764   2.472  0.5213 -0.0324 -0.2790
  339SOL     OW 1353   1.344   1.278   1.925 -0.3455 -0.0860  0.8333
  339SOL    HW1 1354   1.352   1.254   1.833  1.8528  0.0186  0.5472
  339SOL    HW2 1355   1.293   1.203   1.961 -1.6282  1.0435  0.7371
  339SOL     MW 1356   1.338   1.265   1.917 -0.2247  0.0768  0.7829
  340SOL     OW 1357   1.324   1.549   0.105  0.6825 -0.0273  0.1063
  340SOL    HW1 1358   1.299   1.572   0.009 -0.3322  0.9455 -2.9236
  340SOL    HW2 1359   1.372   1.465   0.106 -0.5374  0.0117  1.2407
  340SOL     MW 1360   1.327   1.541   0.093  0.3877  0.1062 -0.1438
  341SOL     OW 1361   0.097   1.392   2.834 -0.5775  0.3427 -0.0035
  341SOL    HW1 1362   0.192   1.383   2.871  1.9755  0.4902  4.0404
  341SOL    HW2 1363   0.094   1.345   2.750 -2.1251 -0.5528  1.2070
  341SOL     MW 1364   0.109   1.385   2.828 -0.4448  0.2440  0.6898
  342SOL     OW 1365   1.384   0.335   0.020 -0.1731  0.5341  0.1129
  342SOL    HW1 1366   1.446   0.385   0.064  2.1487 -1.2742  0.0558
  342SOL    HW2 1367   1.393   0.353  -0.076 -1.7377  1.6009 -0.9514
  342SOL     MW 1368   1.394   0.344   0.013 -0.0732  0.4363 -0.0350
  343SOL     OW 1369   0.251   0.288   2.119 -0.2308  0.8273 -1.0800
  343SOL    HW1 1370   0.301   0.212   2.091 -1.8664 -1.1378  0.4311
  343SOL    HW2 1371   0.155   0.260   2.127 -0.4681 -0.7584  2.1659
  343SOL     MW 1372   0.245   0.275   2.117 -0.4779  0.3588 -0.4523
  344SOL     OW 1373   1.678   2.044   0.191 -0.5049  0.2078 -0.0460
  344SOL    HW1 1374   1.681   2.094   0.107 -1.2444  2.3037 -3.6190
  344SOL    HW2 1375   1.591   2.017   0.206  4.9267  1.4376  1.9587
  344SOL     MW 1376   1.667   2.047   0.182  0.1141  0.6466 -0.2529
  345SOL     OW 1377   0.627   1.572   2.286 -0.4522 -0.2785 -0.2014
  345SOL    HW1 1378   0.559   1.577   2.219  0.6767  2.1414 -2.9779
  345SOL    HW2 1379   0.707   1.537   2.240 -0.9042 -0.6309  1.4417
  345SOL     MW 1380   0.629   1.568   2.271 -0.3629 -0.0057 -0.3509
  346SOL     OW 1381   1.664   1.191   0.031 -0.0508  0.6775 -0.2771
  346SOL    HW1 1382   1.727   1.252   0.068 -2.1067 -0.6056  4.1054
  346SOL    HW2 1383   1.675   1.112   0.076  2.5948  0.1767 -0.1071
  346SOL     MW 1384   1.674   1.188   0.042  0.0270  0.4421  0.3236
  347SOL     OW 1385   1.229   0.713   2.196  0.9104  0.8534  0.1661
  347SOL    HW1 1386   1.213   0.626   2.229 -0.5183  2.4722 -1.1290
  347SOL    HW2 1387   1.223   0.758   2.281  0.3141 -0.3045 -0.9906
  347SOL     MW 1388   1.226   0.707   2.212  0.6432  0.9142 -0.1574
  348SOL     OW 1389   1.293   2.533   1.935  0.0888 -0.2854  0.0718
  348SOL    HW1 1390   1.289   2.452   1.994  1.5973 -3.0051 -0.3318
  348SOL    HW2 1391   1.334   2.595   2.002 -0.6909 -0.1384 -1.2603
  348SOL     MW 1392   1.298   2.530   1.952  0.1849 -0.6248 -0.1572
  349SOL     OW 1393   1.448   0.147   2.786 -0.3656 -0.7860 -0.0100
  349SOL    HW1 1394   1.410   0.222   2.839  0.6922 -1.4275  0.4661
  349SOL    HW2 1395   1.494   0.093   2.850  0.3933  2.7911 -1.0230
  349SOL     MW 1396   1.449   0.150   2.801 -0.1259 -0.3987 -0.0808
  350SOL     OW 1397   1.877   0.607   2.650  0.0851 -0.5190  0.0507
  350SOL    HW1 1398   1.806   0.560   2.601 -1.2598  0.0650 -0.6288
  350SOL    HW2 1399   1.916   0.541   2.718  0.8740  2.2297  0.4419
  350SOL     MW 1400   1.873   0.592   2.653  0.0118 -0.0793  0.0127
  351SOL     OW 1401   0.120   1.158   1.547  0.3720 -0.7873 -0.2872
  351SOL    HW1 1402   0.116   1.078   1.600 -1.6927 -3.0534 -2.9427
  351SOL    HW2 1403   0.169   1.222   1.600 -0.4582 -0.5767 -0.1938
  351SOL     MW 1404   0.126   1.156   1.561 -0.0099 -1.0585 -0.6252
  352SOL     OW 1405   0.745   1.792   2.829  0.1188 -0.3347  0.3320
  352SOL    HW1 1406   0.779   1.734   2.899  1.1865  0.1532 -0.2724
  352SOL    HW2 1407   0.736   1.745   2.744  0.4629  2.2130 -2.2895
  352SOL     MW 1408   0.748   1.778   2.827  0.3050  0.0658 -0.0936
  353SOL     OW 1409   3.085   2.568   2.669 -0.1171 -0.2262  0.3817
  353SOL    HW1 1410   3.176   2.545   2.644  1.7510 -1.5232  2.9026
  353SOL    HW2 1411   3.082   2.652   2.622  0.5573  2.0140 -0.3541
  353SOL     MW 1412   3.097   2.576   2.660  0.2183 -0.1018  0.6172
  354SOL     OW 1413   0.338   2.416   0.789 -0.2271 -0.0437  0.2530
  354SOL    HW1 1414   0.363   2.417   0.878  0.0247  0.8811 -0.7168
  354SOL    HW2 1415   0.254   2.359   0.796 -0.8904  0.7302 -0.5610
  354SOL     MW 1416   0.330   2.408   0.802 -0.2814  0.1804  0.0176
  355SOL     OW 1417   0.107   2.266   0.387  0.4272  0.0209 -0.9185
  355SOL    HW1 1418   0.031   2.201   0.378 -0.9444  0.7798 -0.3349
  355SOL    HW2 1419   0.085   2.325   0.458 -3.2974 -3.1099 -1.8521
  355SOL     MW 1420   0.094   2.265   0.395 -0.2452 -0.2920 -0.9647
  356SOL     OW 1421   0.746   2.956   0.995  0.3226 -0.1979 -0.2887
  356SOL    HW1 1422   0.816   2.970   0.931  0.4478 -0.8542 -1.8285
  356SOL    HW2 1423   0.704   2.873   0.963 -0.5314  1.0255  2.7063
  356SOL     MW 1424   0.749   2.947   0.982  0.2264 -0.1231 -0.0967
  357SOL     OW 1425   1.881   2.807   0.450  0.3396  0.2891 -0.2770
  357SOL    HW1 1426   1.844   2.745   0.513  0.3395 -0.4764 -1.6689
  357SOL    HW2 1427   1.965   2.764   0.437  0.9190  0.1144 -2.4142
  357SOL     MW 1428   1.887   2.793   0.456  0.4160  0.1651 -0.7426
  358SOL     OW 1429   0.401   0.116   1.050 -0.5821 -0.3252 -0.5649
  358SOL    HW1 1430   0.499   0.109   1.037  0.8590  0.1741 -0.5393
  358SOL    HW2 1431   0.361   0.136   0.966 -1.3794  1.0175  0.9187
  358SOL     MW 1432   0.408   0.118   1.037 -0.4971 -0.0821 -0.3658
  359SOL     OW 1433   0.915   2.936   1.907 -0.0792  0.1615  0.3702
  359SOL    HW1 1434   0.891   2.848   1.947 -0.5319 -0.1623  1.2173
  359SOL    HW2 1435   0.911   2.909   1.810  0.7251 -3.6280 -1.7398
  359SOL     MW 1436   0.911   2.921   1.900 -0.0328 -0.3812  0.2036
  360SOL     OW 1437   0.564   2.758   0.900  0.0075 -0.1414  0.0274
  360SOL    HW1 1438   0.611   2.731   0.823 -1.0912  1.1767 -0.0965
  360SOL    HW2 1439   0.575   2.691   0.965 -3.1616 -1.0210 -1.4548
  360SOL     MW 1440   0.572   2.745   0.899 -0.5556 -0.0835 -0.1845
  361SOL     OW 1441   0.123   2.714   1.332 -0.4898  0.1594  0.2024
  361SOL    HW1 1442   0.053   2.748   1.380 -1.0001 -0.6448 -1.6862
  361SOL    HW2 1443   0.197   2.769   1.348  0.8378  1.4936 -0.8406
  361SOL     MW 1444   0.123   2.726   1.340 -0.3820  0.2293 -0.1844
  362SOL     OW 1445   1.399   2.422   0.594  0.1026 -0.3289 -0.0374
  362SOL    HW1 1446   1.432   2.364   0.666 -1.6179  0.5645  1.5490
  362SOL    HW2 1447   1.455   2.502   0.576  0.1781  1.9671 -2.0203
  362SOL     MW 1448   1.411   2.425   0.601 -0.1144  0.0919 -0.0897
  363SOL     OW 1449   0.322   0.007   0.642  0.8100 -0.1179  0.0941
  363SOL    HW1 1450   0.298  -0.045   0.715 -1.7242  0.9770 -0.7011
  363SOL    HW2 1451   0.245  -0.007   0.585  2.2354  0.0322 -0.8360
  363SOL     MW 1452   0.308  -0.002   0.644  0.6637  0.0463 -0.1336
  364SOL     OW 1453   0.782   0.236   0.148  0.5498  0.5472  0.2688
  364SOL    HW1 1454   0.728   0.163   0.191 -1.4727 -0.9252  1.4481
  364SOL    HW2 1455   0.716   0.279   0.088  2.1569 -1.9129 -0.2163
  364SOL     MW 1456   0.766   0.232   0.146  0.4949  0.0283  0.3604
  365SOL     OW 1457   0.874   1.986   1.293  0.0896 -0.3482  0.2392
  365SOL    HW1 1458   0.865   2.079   1.266 -2.5162  0.1495  2.6395
  365SOL    HW2 1459   0.816   1.944   1.223 -0.3551  1.0042  2.8003
  365SOL     MW 1460   0.865   1.992   1.280 -0.3128 -0.1041  0.8938
  366SOL     OW 1461   2.871   2.656   0.954 -0.2750 -0.0111  0.8097
  366SOL    HW1 1462   2.935   2.613   1.019  0.2186 -1.4885 -1.4958
  366SOL    HW2 1463   2.914   2.675   0.869 -0.5468 -0.5397  1.8778
  366SOL     MW 1464   2.885   2.653   0.951 -0.2457 -0.2758  0.6464
  367SOL     OW 1465   1.325   3.061   0.984  0.5891  0.2897 -0.2993
  367SOL    HW1 1466   1.410   3.069   1.015  0.8785  2.0614  0.0675
  367SOL    HW2 1467   1.347   3.070   0.892  0.7093 -2.2608 -0.0349
  367SOL     MW 1468   1.339   3.064   0.976  0.6432  0.1870 -0.2160
  368SOL     OW 1469   1.718   0.373   0.595  0.3322 -0.3402 -0.0771
  368SOL    HW1 1470   1.779   0.323   0.533  3.1560 -0.9698 -1.3172
  368SOL    HW2 1471   1.730   0.464   0.575  2.1456 -3.5596  0.8207
  368SOL     MW 1472   1.728   0.379   0.584  0.9440 -0.8481 -0.1223
  369SOL     OW 1473   0.165   2.437   1.752  0.3804  0.6527  0.4639
  369SOL    HW1 1474   0.248   2.406   1.796  0.3764  1.8482  0.6200
  369SOL    HW2 1475   0.171   2.532   1.746 -1.3124  1.5242 -1.6366
  369SOL     MW 1476   0.177   2.445   1.757  0.1565  0.9254  0.2074
  370SOL     OW 1477   0.668   0.140   1.064 -0.3929  0.0809 -0.1562
  370SOL    HW1 1478   0.724   0.170   0.991  1.1527 -2.1746 -2.5473
  370SOL    HW2 1479   0.681   0.046   1.047 -0.8758  0.2207  2.4703
  370SOL     MW 1480   0.677   0.131   1.052 -0.2527 -0.1982 -0.1251
  371SOL     OW 1481   1.105   2.901   1.497 -0.1919 -0.1375  0.1085
  371SOL    HW1 1482   1.122   2.814   1.458 -1.6508  0.4117  0.7596
  371SOL    HW2 1483   1.089   2.968   1.433  0.8193  0.8679  2.6171
  371SOL     MW 1484   1.105   2.898   1.483 -0.2510  0.0676  0.5254
  372SOL     OW 1485   0.813   2.302   0.458  0.1537 -0.3311 -0.0745
  372SOL    HW1 1486   0.780   2.230   0.514  0.5354  1.6593  1.3960
  372SOL    HW2 1487   0.843   2.270   0.372 -0.9617 -0.9098 -0.2800
  372SOL     MW 1488   0.812   2.288   0.454  0.0569 -0.1449  0.0924
  373SOL     OW 1489   2.792   2.978   1.412 -0.2042 -0.1733 -0.2848
  373SOL    HW1 1490   2.859   2.936   1.360  0.6784  0.5584 -2.6579
  373SOL    HW2 1491   2.778   3.055   1.364 -0.8604  0.0262  0.9407
  373SOL     MW 1492   2.799   2.982   1.399 -0.1744 -0.0504 -0.4362
  374SOL     OW 1493   1.581   0.452   0.235 -0.6292  0.0034 -0.3486
  374SOL    HW1 1494   1.676   0.433   0.226  0.1065 -0.8692 -0.8060
  374SOL    HW2 1495   1.551   0.404   0.311 -0.8634 -2.1667  1.4239
  374SOL     MW 1496   1.589   0.443   0.244 -0.5630 -0.3981 -0.1751
  375SOL     OW 1497   1.097   2.012   2.180 -0.4087 -0.2127 -0.4162
  375SOL    HW1 1498   1.116   2.037   2.271 -0.1627 -2.5683 -2.3067
  375SOL    HW2 1499   1.001   1.989   2.173  0.6616  0.1177 -0.3080
  375SOL     MW 1500   1.087   2.012   2.191 -0.2350 -0.4799 -0.6514
  376SOL     OW 1501   0.851   2.533   0.117 -0.5515  0.0752 -0.7757
  376SOL    HW1 1502   0.796   2.482   0.192 -3.1486  0.4069  0.1467
  376SOL    HW2 1503   0.827   2.490   0.029  1.3148  0.6116 -3.2724
  376SOL     MW 1504   0.841   2.521   0.116 -0.6479  0.1898 -0.9834
  377SOL     OW 1505   1.336   2.083   0.966 -0.6162  0.0617  0.0993
  377SOL    HW1 1506   1.254   2.057   0.929 -0.6056  1.3511  0.2217
  377SOL    HW2 1507   1.341   2.052   1.059  1.2236 -1.2947  2.8281
  377SOL     MW 1508   1.326   2.075   0.973 -0.3720  0.0529  0.4755
  378SOL     OW 1509   0.881   2.851   1.610 -0.4360 -0.0137 -0.1056
  378SOL    HW1 1510   0.896   2.759   1.632 -1.3129 -0.4056  0.9775
  378SOL    HW2 1511   0.945   2.873   1.539  0.9994 -1.2103 -3.6852
  378SOL     MW 1512   0.891   2.842   1.603 -0.3623 -0.2233 -0.4350
  379SOL     OW 1513   1.069   1.553   2.315 -0.4225 -0.1396  0.4126
  379SOL    HW1 1514   0.983   1.534   2.281 -1.2903  0.8725  1.0389
  379SOL    HW2 1515   1.120   1.531   2.235 -0.0652 -1.4051  1.8325
  379SOL     MW 1516   1.064   1.547   2.300 -0.4898 -0.1730  0.6826
  380SOL     OW 1517   0.910   0.153   1.526 -0.1375  0.5640 -0.2068
  380SOL    HW1 1518   0.905   0.066   1.475  0.1749  0.9142 -1.3241
  380SOL    HW2 1519   0.969   0.135   1.605 -0.5520  0.0883  1.0374
  380SOL     MW 1520   0.917   0.139   1.530 -0.1510  0.5474 -0.1901
  381SOL     OW 1521   0.852   2.064   0.886 -0.2097 -0.0746 -0.3053
  381SOL    HW1 1522   0.952   2.058   0.890 -1.6491 -0.6669  2.3433
  381SOL    HW2 1523   0.828   2.139   0.939  1.7029 -1.3391 -0.8083
  381SOL     MW 1524   0.862   2.073   0.894 -0.1473 -0.3196 -0.0222
  382SOL     OW 1525   0.849   0.129   0.582 -0.3913 -0.8788  0.9679
  382SOL    HW1 1526   0.846   0.184   0.663 -0.3022  1.0347 -0.9972
  382SOL    HW2 1527   0.788   0.054   0.599 -0.5956 -3.4099  3.0583
  382SOL     MW 1528   0.841   0.126   0.595 -0.4065 -0.9603  0.9844
  383SOL     OW 1529   0.663   0.016   0.273  0.2172  0.3172 -0.5001
  383SOL    HW1 1530   0.693  -0.066   0.243  0.5464  1.3116 -2.2460
  383SOL    HW2 1531   0.623  -0.001   0.355  1.6776  1.5730 -3.1610
  383SOL     MW 1532   0.662   0.003   0.280  0.4533  0.6141 -1.0815
  384SOL     OW 1533   0.801   2.954   0.615  0.2342 -0.3017  0.4873
  384SOL    HW1 1534   0.878   2.945   0.679  0.3395  0.0483 -2.4992
  384SOL    HW2 1535   0.753   2.872   0.626 -0.0605  0.5529  0.9600
  384SOL     MW 1536   0.805   2.942   0.625  0.2092 -0.1428  0.1556
  385SOL     OW 1537   1.394   2.047   1.557 -0.4313 -0.0612  0.4468
  385SOL    HW1 1538   1.467   2.071   1.626  3.3238  1.1996  0.4650
  385SOL    HW2 1539   1.364   1.960   1.595  0.2420 -2.3915  0.7100
  385SOL     MW 1540   1.399   2.038   1.571  0.1530 -0.2023  0.4839
  386SOL     OW 1541   1.464   0.391   0.859  0.4297  0.3492  0.7759
  386SOL    HW1 1542   1.431   0.434   0.939 -1.1773  1.8864 -1.6948
  386SOL    HW2 1543   1.559   0.386   0.861  0.3271  0.9501 -2.7783
  386SOL     MW 1544   1.472   0.396   0.870  0.2041  0.6313 -0.0190
  387SOL     OW 1545   0.833   2.258   1.574 -0.1217  0.0170  0.0179
  387SOL    HW1 1546   0.908   2.285   1.510  1.7556  0.2024  0.4561
  387SOL    HW2 1547   0.824   2.159   1.565 -0.2043  3.5318  2.1491
  387SOL     MW 1548   0.841   2.249   1.564  0.1151  0.5052  0.3569
  388SOL     OW 1549   1.500   2.789   1.515  0.6333 -0.3473  0.7985
  388SOL    HW1 1550   1.461   2.830   1.442  1.3611 -1.3310  0.9332
  388SOL    HW2 1551   1.572   2.731   1.480  2.2828 -0.0822  3.5478
  388SOL     MW 1552   1.504   2.787   1.501  0.9469 -0.4421  1.1790
  389SOL     OW 1553   0.416   0.104   3.057 -0.7333  0.6359  0.2016
  389SOL    HW1 1554   0.470   0.024   3.036  1.0547 -1.0723 -0.2634
  389SOL    HW2 1555   0.431   0.170   2.986 -2.9635 -0.0996  0.9691
  389SOL     MW 1556   0.425   0.102   3.045 -0.7917  0.3135  0.2415
  390SOL     OW 1557   1.366   3.081   0.728 -0.2558 -0.1496  0.1435
  390SOL    HW1 1558   1.360   3.038   0.641 -2.4258  0.5516  0.3561
  390SOL    HW2 1559   1.438   3.145   0.725 -4.5143 -1.1628  1.7831
  390SOL     MW 1560   1.375   3.084   0.716 -1.1040 -0.1908  0.3879
  391SOL     OW 1561   0.310   2.150   1.506  0.3782  0.2748  0.2050
  391SOL    HW1 1562   0.298   2.161   1.598 -1.1690  0.0825 -3.0780
  391SOL    HW2 1563   0.252   2.226   1.473 -2.5254  0.0250  1.8298
  391SOL     MW 1564   0.301   2.162   1.514 -0.2091  0.2164 -0.0138
  392SOL     OW 1565   1.957   2.090   0.319  0.0919 -0.2329 -0.8399
  392SOL    HW1 1566   1.999   2.167   0.360 -1.9778 -0.6948 -0.5154
  392SOL    HW2 1567   1.861   2.109   0.308  0.0892 -0.8315 -1.5685
  392SOL     MW 1568   1.950   2.103   0.323 -0.1815 -0.3729 -0.8932
  393SOL     OW 1569   0.263   2.956   2.792  0.5414  0.0616 -0.0016
  393SOL    HW1 1570   0.339   2.954   2.737 -1.1977  0.2765  0.4975
  393SOL    HW2 1571   0.266   3.046   2.823 -0.0765  0.6410  0.2919
  393SOL     MW 1572   0.274   2.968   2.789  0.2304  0.1664  0.1030
  394SOL     OW 1573   0.953   1.771   1.612 -0.3118 -0.0730  0.7713
  394SOL    HW1 1574   0.996   1.790   1.693  2.2124  1.5500  0.1050
  394SOL    HW2 1575   0.933   1.855   1.575 -0.4010  0.8739  0.9534
  394SOL     MW 1576   0.956   1.785   1.618  0.0095  0.2660  0.7074
  395SOL     OW 1577   0.954   2.936   2.707 -0.0232  0.5052 -0.1678
  395SOL    HW1 1578   1.012   3.005   2.741 -3.1834 -1.9885 -0.1884
  395SOL    HW2 1579   1.000   2.857   2.673  1.9160 -0.7687 -0.1215
  395SOL     MW 1580   0.968   2.935   2.707 -0.1843  0.0081 -0.1644
  396SOL     OW 1581   0.702   1.917   2.382  0.0490  0.2880  0.4233
  396SOL    HW1 1582   0.764   1.900   2.455 -0.1293 -0.7771  1.2295
  396SOL    HW2 1583   0.662   1.832   2.366 -0.3981  0.5741  3.5348
  396SOL     MW 1584   0.705   1.904   2.390 -0.0335  0.1852  0.9402
  397SOL     OW 1585   1.044   2.296   1.416  0.3200  0.1966 -0.0627
  397SOL    HW1 1586   1.077   2.345   1.343  1.2609  1.8175  0.1919
  397SOL    HW2 1587   1.130   2.310   1.471 -0.9498  1.7798  1.5743
  397SOL     MW 1588   1.060   2.305   1.414  0.2766  0.6193  0.1869
  398SOL     OW 1589   0.672   2.700   0.654  0.5068 -0.2492 -0.0513
  398SOL    HW1 1590   0.602   2.683   0.586  3.5595 -0.3772 -1.7978
  398SOL    HW2 1591   0.744   2.638   0.646 -0.5034  1.2971  0.2781
  398SOL     MW 1592   0.672   2.690   0.644  0.7763 -0.0620 -0.2382
  399SOL     OW 1593   0.322   2.055   0.390 -0.2489  0.5409 -0.4510
  399SOL    HW1 1594   0.260   2.125   0.399 -1.8691  1.8618  1.0576
  399SOL    HW2 1595   0.366   2.077   0.305 -1.5375  1.7404  0.0718
  399SOL     MW 1596   0.320   2.067   0.380 -0.6327  0.8734 -0.1830
  400SOL     OW 1597   0.601   1.956   0.136 -0.1642  0.5614  0.2105
  400SOL    HW1 1598   0.544   2.033   0.170 -1.1555 -0.5232 -0.7713
  400SOL    HW2 1599   0.579   1.891   0.204  1.7402 -1.2934  1.9229
  400SOL     MW 1600   0.591   1.958   0.150 -0.0438  0.1735  0.3069
  401SOL     OW 1601   0.838   2.007   0.002  0.2922  0.2716  0.4570
  401SOL    HW1 1602   0.891   1.931   0.025 -3.4007 -0.8653  0.9877
  401SOL    HW2 1603   0.749   1.988   0.041 -0.8005 -3.9262 -0.4868
  401SOL     MW 1604   0.833   1.994   0.010 -0.3392 -0.4323  0.4025
  402SOL     OW 1605   0.584   3.025   1.856 -0.5437  0.1151  0.5057
  402SOL    HW1 1606   0.654   3.008   1.919  0.6273 -0.0275 -2.2548
  402SOL    HW2 1607   0.629   3.074   1.784  0.5181  2.8741  0.4371
  402SOL     MW 1608   0.599   3.029   1.855 -0.2491  0.4603  0.1324
  403SOL     OW 1609   0.138   0.492   0.432 -0.0240  0.0627  0.0388
  403SOL    HW1 1610   0.226   0.505   0.476 -3.0805  0.2908  0.8115
  403SOL    HW2 1611   0.159   0.466   0.347 -0.2955  2.0558  0.7722
  403SOL     MW 1612   0.153   0.490   0.427 -0.4631  0.3558  0.2375
  404SOL     OW 1613   0.969   2.980   0.833  0.5944 -0.1065  0.1355
  404SOL    HW1 1614   1.045   2.919   0.825  0.4756  3.4447 -0.2019
  404SOL    HW2 1615   1.001   3.069   0.801  0.8251  1.3367  1.0831
  404SOL     MW 1616   0.984   2.983   0.828  0.6092  0.5525  0.2160
  405SOL     OW 1617   0.520   2.510   1.496  0.1749  0.5715 -0.6460
  405SOL    HW1 1618   0.535   2.587   1.449 -3.5365  0.0037  0.0637
  405SOL    HW2 1619   0.554   2.438   1.445 -1.9780  1.9294  1.4910
  405SOL     MW 1620   0.527   2.511   1.483 -0.5989  0.6757 -0.2704
  406SOL     OW 1621   0.432   2.321   1.081 -0.3731 -0.3690 -0.5512
  406SOL    HW1 1622   0.346   2.346   1.128 -1.8102  0.0368 -0.0601
  406SOL    HW2 1623   0.446   2.230   1.114 -3.8073  0.5241  1.0422
  406SOL     MW 1624   0.422   2.312   1.092 -1.0158 -0.1976 -0.2762
  407SOL     OW 1625   0.045   2.625   1.099 -0.6319 -0.2798 -0.8296
  407SOL    HW1 1626   0.073   2.658   1.186 -0.2375  1.8361 -0.3385
  407SOL    HW2 1627   0.094   2.666   1.026 -1.3039 -0.7235 -1.8869
  407SOL     MW 1628   0.055   2.635   1.101 -0.6685 -0.0592 -0.9043
  408SOL     OW 1629   2.114   2.181   0.706  0.0069  0.1121  0.2179
  408SOL    HW1 1630   2.056   2.200   0.787 -3.0382  0.1069 -1.0445
  408SOL    HW2 1631   2.065   2.122   0.642 -0.8170 -1.3505  0.3778
  408SOL     MW 1632   2.100   2.176   0.709 -0.5036 -0.0815  0.0725
  409SOL     OW 1633   1.610   0.074   0.839  0.5256 -0.4082 -0.6016
  409SOL    HW1 1634   1.679   0.137   0.837  0.8895  0.0748 -0.5923
  409SOL    HW2 1635   1.597   0.055   0.932 -2.4165  0.3265  1.5745
  409SOL     MW 1636   1.617   0.080   0.851  0.1854 -0.2476 -0.3133
  410SOL     OW 1637   1.083   2.449   1.182  0.3268 -0.0726  0.1815
  410SOL    HW1 1638   1.013   2.485   1.132  2.6077  0.7555  0.1562
  410SOL    HW2 1639   1.144   2.405   1.123 -0.0004 -0.0704 -0.3265
  410SOL     MW 1640   1.082   2.448   1.167  0.5846  0.0370  0.1111
  411SOL     OW 1641   1.988   2.922   2.949 -0.1515  0.5440  0.2931
  411SOL    HW1 1642   2.020   2.902   2.856 -0.7380 -0.3184 -0.5969
  411SOL    HW2 1643   1.965   3.015   2.957 -0.0570 -0.6099 -1.8926
  411SOL     MW 1644   1.989   2.932   2.938 -0.2164  0.2780 -0.1127
  412SOL     OW 1645   1.051   2.244   0.622  1.3141  0.2804  0.8079
  412SOL    HW1 1646   1.080   2.327   0.659 -1.1690  0.2061 -0.9353
  412SOL    HW2 1647   0.978   2.271   0.567 -0.5843 -1.2226 -2.1991
  412SOL     MW 1648   1.045   2.259   0.620  0.7360  0.0723  0.1811
  413SOL     OW 1649   0.609   2.680   0.038 -0.3614 -0.0375  0.9619
  413SOL    HW1 1650   0.681   2.636   0.085 -0.9512 -0.3074 -2.0296
  413SOL    HW2 1651   0.585   2.633  -0.041 -0.0838  0.4459  0.7160
  413SOL     MW 1652   0.615   2.668   0.033 -0.4026 -0.0094  0.5348
  414SOL     OW 1653   2.061   2.996   1.093  0.4856  0.2523 -0.1005
  414SOL    HW1 1654   2.042   3.090   1.108 -2.5599  0.9808 -0.8965
  414SOL    HW2 1655   2.040   2.991   0.997  1.8995  1.9227  0.5311
  414SOL     MW 1656   2.055   3.008   1.082  0.2703  0.5688 -0.1222
  415SOL     OW 1657   1.649   2.852   1.167  0.5254 -0.2793  0.2336
  415SOL    HW1 1658   1.724   2.881   1.225 -1.5008  1.9824  0.9577
  415SOL    HW2 1659   1.685   2.787   1.100 -0.7825 -0.9486  0.7785
  415SOL     MW 1660   1.664   2.847   1.166  0.0855 -0.0692  0.4011
  416SOL     OW 1661   0.661   1.778   1.429  0.7568 -0.6500  0.1880
  416SOL    HW1 1662   0.581   1.819   1.394 -1.6187  2.6429 -1.3356
  416SOL    HW2 1663   0.689   1.701   1.384  1.1357 -1.8808  0.0336
  416SOL     MW 1664   0.654   1.773   1.418  0.4934 -0.3780 -0.0334
  417SOL     OW 1665   0.923   0.061   2.095  0.3568  0.3114  0.2301
  417SOL    HW1 1666   0.862   0.019   2.152  2.2208 -0.2765  0.1289
  417SOL    HW2 1667   0.924   0.005   2.023 -1.0739  1.7387 -1.3310
  417SOL     MW 1668   0.915   0.048   2.093  0.4140  0.4221  0.0108
  418SOL     OW 1669   0.760   2.855   0.195 -0.7503 -0.5152 -0.2759
  418SOL    HW1 1670   0.825   2.853   0.122  0.4106  2.4641 -0.2553
  418SOL    HW2 1671   0.697   2.799   0.158  3.0366 -0.9224 -0.5677
  418SOL     MW 1672   0.760   2.847   0.180 -0.0975 -0.1758 -0.3117
  419SOL     OW 1673   0.639   2.693   1.343  0.3825 -0.0760  0.2432
  419SOL    HW1 1674   0.664   2.759   1.407 -0.5930  0.0649  2.9719
  419SOL    HW2 1675   0.719   2.643   1.349 -2.2481 -2.3073  0.2592
  419SOL     MW 1676   0.652   2.695   1.352 -0.0933 -0.3518  0.6053
  420SOL     OW 1677   0.824   2.232   1.140 -0.1883  0.3472  0.5006
  420SOL    HW1 1678   0.763   2.282   1.191  0.0191 -1.9526 -1.5736
  420SOL    HW2 1679   0.872   2.293   1.087 -0.1244 -0.0177  2.0548
  420SOL     MW 1680   0.822   2.246   1.140 -0.1525 -0.0044  0.4320
  421SOL     OW 1681   2.925   0.125   0.071 -0.1309 -0.3152 -0.3904
  421SOL    HW1 1682   2.833   0.109   0.056  0.4681  1.0705 -0.5281
  421SOL    HW2 1683   2.985   0.062   0.031 -2.1373  3.2727  1.6015
  421SOL     MW 1684   2.921   0.115   0.064 -0.3166  0.3410 -0.1457
  422SOL     OW 1685   0.903   2.446   0.968 -0.1681 -0.0601 -0.0729
  422SOL    HW1 1686   0.814   2.465   0.967  0.5834  1.3104  0.5671
  422SOL    HW2 1687   0.928   2.461   0.876 -2.0248 -0.4628 -0.4250
  422SOL     MW 1688   0.894   2.451   0.956 -0.3139  0.0676 -0.0349
  423SOL     OW 1689   1.557   0.047   0.489  0.6126  0.3579  0.0092
  423SOL    HW1 1690   1.558   0.001   0.406  2.2609 -0.3866 -1.3640
  423SOL    HW2 1691   1.536   0.136   0.469  1.5521 -0.0623  0.4526
  423SOL     MW 1692   1.554   0.053   0.475  0.9540  0.2042 -0.1135
  424SOL     OW 1693   0.646   2.310   1.340  0.3691  0.0499  0.1951
  424SOL    HW1 1694   0.603   2.232   1.302  0.5827 -0.2962  0.2963
  424SOL    HW2 1695   0.695   2.283   1.420  2.0801  2.3529 -0.5876
  424SOL     MW 1696   0.647   2.296   1.345  0.6231  0.3081  0.1052
  425SOL     OW 1697   1.737   2.813   2.047  0.0287  0.3057 -0.3677
  425SOL    HW1 1698   1.764   2.844   1.955  0.7311 -1.8027 -1.5187
  425SOL    HW2 1699   1.761   2.720   2.044  2.7149 -0.5659 -0.1262
  425SOL     MW 1700   1.744   2.805   2.035  0.4758 -0.0875 -0.4877
  426SOL     OW 1701   0.832   1.738   1.944 -0.1800  0.7240 -0.0135
  426SOL    HW1 1702   0.778   1.766   1.867  1.3684  3.1456  0.7844
  426SOL    HW2 1703   0.841   1.813   1.997 -3.0613  0.5027  2.8015
  426SOL     MW 1704   0.826   1.751   1.940 -0.3559  1.0143  0.4632
  427SOL     OW 1705   0.393   1.760   1.883  0.9873  0.3330 -0.1535
  427SOL    HW1 1706   0.441   1.703   1.829 -0.8194  3.1143  1.1470
  427SOL    HW2 1707   0.342   1.702   1.942 -3.6907  1.5478  0.5668
  427SOL     MW 1708   0.393   1.745   1.884  0.1317  0.8602  0.1131
  428SOL     OW 1709   0.639   2.546   1.073 -0.0197  0.0208 -0.9715
  428SOL    HW1 1710   0.565   2.484   1.063  0.0889 -0.3272 -0.3644
  428SOL    HW2 1711   0.648   2.552   1.165 -0.4680  1.4396  1.3692
  428SOL     MW 1712   0.631   2.538   1.084 -0.0645  0.1621 -0.5826
  429SOL     OW 1713   1.233   2.811   1.062  0.8489  0.4555  0.0094
  429SOL    HW1 1714   1.143   2.824   1.093  2.0726 -0.7961 -0.6489
  429SOL    HW2 1715   1.264   2.891   1.022 -1.0142 -1.5319 -2.3141
  429SOL     MW 1716   1.225   2.823   1.061  0.7646  0.0281 -0.3840
  430SOL     OW 1717   1.195   2.816   0.790  0.1504 -0.2565 -0.2349
  430SOL    HW1 1718   1.190   2.781   0.880 -1.4223  3.0167  1.2356
  430SOL    HW2 1719   1.160   2.753   0.726  0.3676 -0.2516 -2.2901
  430SOL     MW 1720   1.189   2.803   0.793 -0.0285  0.1760 -0.3120
  431SOL     OW 1721   0.354   1.894   1.129  0.4480 -0.4726  0.0367
  431SOL    HW1 1722   0.411   1.814   1.125  0.1355 -2.2836 -0.7373
  431SOL    HW2 1723   0.353   1.915   1.033  0.0353 -1.3652  0.1740
  431SOL     MW 1724   0.361   1.887   1.116  0.3523 -0.8293 -0.0473
  432SOL     OW 1725   0.021   0.009   1.123  0.0162  0.0831 -0.3451
  432SOL    HW1 1726   0.006   0.030   1.220  2.9674 -3.0033  1.6934
  432SOL    HW2 1727  -0.020  -0.077   1.113  0.9116  4.4283  4.4867
  432SOL     MW 1728   0.014   0.000   1.135  0.5237  0.2492  0.5614
  433SOL     OW 1729   0.644   2.913   1.488  0.1458 -0.0842 -0.2245
  433SOL    HW1 1730   0.635   3.006   1.488 -0.4523 -1.5845  0.9967
  433SOL    HW2 1731   0.712   2.880   1.550  0.0519 -1.1980 -0.0684
  433SOL     MW 1732   0.652   2.921   1.496  0.0545 -0.4291 -0.0428
  434SOL     OW 1733   1.481   2.795   1.794  0.2641  0.2628 -0.2981
  434SOL    HW1 1734   1.403   2.840   1.828 -0.4696  1.6037  1.3413
  434SOL    HW2 1735   1.461   2.800   1.698  1.2562 -1.1521 -1.4609
  434SOL     MW 1736   1.468   2.801   1.786  0.2982  0.2530 -0.2352
  435SOL     OW 1737   2.687   1.785   0.277  0.3740 -0.0419 -0.1476
  435SOL    HW1 1738   2.735   1.824   0.211 -1.9150  1.3703  2.9376
  435SOL    HW2 1739   2.597   1.801   0.249 -0.4349 -0.5365 -1.0548
  435SOL     MW 1740   2.681   1.792   0.264 -0.0347  0.0792  0.1397
  436SOL     OW 1741   1.375   2.747   0.364  0.1237  0.2304  0.3342
  436SOL    HW1 1742   1.454   2.726   0.416 -2.5382  0.5492 -2.0853
  436SOL    HW2 1743   1.338   2.830   0.386  0.3855 -1.2008  0.2398
  436SOL     MW 1744   1.381   2.755   0.374 -0.1930  0.0837  0.0025
  437SOL     OW 1745   0.903   0.003   1.306 -0.1340  0.5155  0.1179
  437SOL    HW1 1746   0.987   0.028   1.260  0.2751  1.3423  0.3216
  437SOL    HW2 1747   0.861  -0.058   1.241 -2.6171  0.1623 -1.5220
  437SOL     MW 1748   0.909  -0.001   1.292 -0.4077  0.5780 -0.0716
  438SOL     OW 1749   0.854   2.693   2.002 -0.1279  0.2830  0.3243
  438SOL    HW1 1750   0.880   2.613   2.053 -0.4363 -2.8077  1.0214
  438SOL    HW2 1751   0.814   2.653   1.926 -0.7233  2.7369  2.0652
  438SOL     MW 1752   0.852   2.677   1.998 -0.2472  0.1990  0.6460
  439SOL     OW 1753   1.156   2.073   0.433  0.0463  0.5700 -0.6954
  439SOL    HW1 1754   1.120   2.121   0.510  0.5737 -1.6207  0.4993
  439SOL    HW2 1755   1.163   2.138   0.365 -0.8984  0.0649  1.3265
  439SOL     MW 1756   1.152   2.088   0.434 -0.0087  0.2143 -0.2710
  440SOL     OW 1757   1.815   2.745   3.023  0.2913  0.0852  0.3762
  440SOL    HW1 1758   1.782   2.770   3.112 -3.0720  0.9353 -0.9128
  440SOL    HW2 1759   1.870   2.812   2.989  0.3949  1.4324  0.8531
  440SOL     MW 1760   1.818   2.757   3.030 -0.1388  0.3751  0.2690
  441SOL     OW 1761   0.513   2.705   0.453  0.3278 -0.5010  0.8991
  441SOL    HW1 1762   0.456   2.679   0.375 -0.6726  0.1973  2.0979
  441SOL    HW2 1763   0.491   2.791   0.469 -0.3457 -2.0300  2.0541
  441SOL     MW 1764   0.502   2.713   0.445  0.1070 -0.6106  1.2097
  442SOL     OW 1765   0.039   2.404   0.631 -0.0897  1.0151  0.0631
  442SOL    HW1 1766   0.040   2.491   0.603  1.0528 -1.8453  0.2590
  442SOL    HW2 1767  -0.050   2.385   0.660  0.1597  1.2642  0.6588
  442SOL     MW 1768   0.027   2.413   0.631  0.0939  0.6706  0.1676
  443SOL     OW 1769   1.472   1.791   1.948  0.2303 -0.2876 -0.4050
  443SOL    HW1 1770   1.443   1.792   1.859  0.6430 -0.5816  0.2746
  443SOL    HW2 1771   1.473   1.699   1.976 -3.1028 -1.7339  1.7432
  443SOL     MW 1772   1.468   1.779   1.940 -0.1550 -0.5172 -0.0319
  444SOL     OW 1773   0.917   2.594   1.615 -0.4205  0.2115  0.7546
  444SOL    HW1 1774   0.977   2.543   1.671 -0.9759 -2.5198 -0.1717
  444SOL    HW2 1775   0.839   2.582   1.665  1.4074  0.8429  0.9369
  444SOL     MW 1776   0.915   2.586   1.629 -0.2526 -0.0656  0.6564
  445SOL     OW 1777   1.171   0.086   1.387 -0.5976  0.0302  0.5067
  445SOL    HW1 1778   1.123   0.142   1.447 -0.8498  1.7086 -0.5042
  445SOL    HW2 1779   1.202   0.150   1.323  1.5942  0.2425  2.0353
  445SOL     MW 1780   1.169   0.102   1.387 -0.3417  0.2796  0.5750
  446SOL     OW 1781   2.684   2.825   1.054 -0.1188 -0.3669  0.0149
  446SOL    HW1 1782   2.652   2.895   0.998 -0.1941 -3.5205 -0.9059
  446SOL    HW2 1783   2.719   2.760   0.991  1.1735 -0.0695 -1.7661
  446SOL     MW 1784   2.685   2.825   1.038  0.0417 -0.7437 -0.3416
  447SOL     OW 1785   0.075   1.971   1.558  0.0679  0.1148 -0.0071
  447SOL    HW1 1786   0.085   1.906   1.634  0.0368  0.0778  2.6027
  447SOL    HW2 1787   0.007   1.936   1.507  0.9068  1.1815  0.6368
  447SOL     MW 1788   0.067   1.958   1.561  0.1745  0.2507  0.4222
  448SOL     OW 1789   1.690   2.348   1.664  0.2651  0.5395 -0.0489
  448SOL    HW1 1790   1.679   2.257   1.691  0.0165  3.1038  1.5504
  448SOL    HW2 1791   1.613   2.396   1.698 -0.1915  1.8786  0.1126
  448SOL     MW 1792   1.678   2.342   1.672  0.1721  1.0545  0.1834
  449SOL     OW 1793   0.941   2.902   0.398 -0.2242  0.2057 -0.2572
  449SOL    HW1 1794   0.872   2.886   0.333 -0.3038 -0.8205 -1.2677
  449SOL    HW2 1795   0.888   2.915   0.482 -2.1785  1.6143  0.0115
  449SOL     MW 1796   0.925   2.901   0.401 -0.4926  0.2562 -0.3551
  450SOL     OW 1797   1.191   2.487   0.775  0.3270 -0.4827 -0.3307
  450SOL    HW1 1798   1.211   2.439   0.856 -3.1553 -2.0792 -3.8872
  450SOL    HW2 1799   1.262   2.456   0.711  1.5055  0.8219  1.0460
  450SOL     MW 1800   1.203   2.477   0.777  0.0231 -0.5212 -0.6183
  451SOL     OW 1801   0.530   1.997   1.684 -0.4100 -0.2009 -0.3479
  451SOL    HW1 1802   0.574   2.072   1.638 -0.6033  0.1796  1.7299
  451SOL    HW2 1803   0.490   1.944   1.613 -1.3495  2.2050 -0.4007
  451SOL     MW 1804   0.531   2.000   1.669 -0.5594  0.1667 -0.0807
  452SOL     OW 1805   0.275   2.645   0.005 -0.3464  0.5824 -0.1575
  452SOL    HW1 1806   0.369   2.663   0.010 -2.3959  0.9970  0.5312
  452SOL    HW2 1807   0.221   2.719  -0.014 -0.6425 -0.6112 -0.5090
  452SOL     MW 1808   0.280   2.657   0.003 -0.6559  0.4796 -0.1130
  453SOL     OW 1809   0.193   2.983   1.584 -0.2066  0.0469  0.1976
  453SOL    HW1 1810   0.219   2.959   1.674 -0.2086 -0.4519  0.1742
  453SOL    HW2 1811   0.248   2.937   1.523 -1.7876  1.3028 -2.0168
  453SOL     MW 1812   0.204   2.974   1.588 -0.4154  0.1468 -0.0977
  454SOL     OW 1813   0.953   2.791   1.179 -0.1976  0.6156 -0.2394
  454SOL    HW1 1814   0.945   2.705   1.224 -0.2492 -1.3598  2.7273
  454SOL    HW2 1815   0.869   2.808   1.136 -1.0746 -0.4266 -0.5150
  454SOL     MW 1816   0.941   2.782   1.180 -0.3201  0.2174  0.1157
  455SOL     OW 1817   1.754   2.805   0.191 -0.1365 -0.4275  0.1925
  455SOL    HW1 1818   1.764   2.814   0.286  2.1541 -1.3795 -2.1290
  455SOL    HW2 1819   1.675   2.755   0.174  0.7936 -1.7370  1.0153
  455SOL     MW 1820   1.745   2.800   0.202  0.2884 -0.7259 -0.0052
  456SOL     OW 1821   2.770   0.239   1.464  0.3751 -0.4949 -0.2359
  456SOL    HW1 1822   2.759   0.165   1.405  2.0850  0.6603  0.5340
  456SOL    HW2 1823   2.798   0.311   1.408 -2.6425  1.0007 -0.9392
  456SOL     MW 1824   2.772   0.238   1.449  0.2026 -0.1452 -0.2271
  457SOL     OW 1825   0.810   1.652   3.044 -0.3303 -0.5004 -0.2493
  457SOL    HW1 1826   0.717   1.617   3.049  0.8222 -1.8686 -3.0240
  457SOL    HW2 1827   0.832   1.687   3.132 -2.1175  0.7987  0.8144
  457SOL     MW 1828   0.801   1.652   3.056 -0.4141 -0.5095 -0.4750
  458SOL     OW 1829   1.340   1.475   0.696 -0.8205  0.6758 -0.4460
  458SOL    HW1 1830   1.249   1.502   0.723  1.3016  0.6583 -2.1646
  458SOL    HW2 1831   1.319   1.387   0.657 -3.0591 -0.0645 -1.5385
  458SOL     MW 1832   1.325   1.467   0.694 -0.8358  0.5758 -0.8169
  459SOL     OW 1833   1.577   3.045   0.233  0.1124 -0.1028 -0.2147
  459SOL    HW1 1834   1.605   2.967   0.183 -1.3692  0.1334  0.4504
  459SOL    HW2 1835   1.513   3.095   0.174 -0.4163 -1.1554 -0.7501
  459SOL     MW 1836   1.573   3.041   0.219 -0.1528 -0.2105 -0.1976
  460SOL     OW 1837   1.780   2.233   0.640 -0.0509 -0.4269  0.2322
  460SOL    HW1 1838   1.697   2.208   0.681  2.9306  0.9843 -0.9355
  460SOL    HW2 1839   1.812   2.154   0.605  0.1847  1.9200  1.3801
  460SOL     MW 1840   1.773   2.219   0.641  0.3736  0.0690  0.2296
  461SOL     OW 1841   0.426   2.453   0.543  0.6807 -0.1337  0.0999
  461SOL    HW1 1842   0.466   2.541   0.541  1.0695 -1.5549 -0.7727
  461SOL    HW2 1843   0.391   2.442   0.630 -1.1710  3.0026  0.3438
  461SOL     MW 1844   0.427   2.463   0.554  0.4877  0.0926  0.0170
  462SOL     OW 1845   0.300   0.237   1.272  0.7000 -0.0565 -0.0340
  462SOL    HW1 1846   0.336   0.186   1.195  0.2627 -0.6757  0.2414
  462SOL    HW2 1847   0.373   0.256   1.328 -1.1483 -2.1375 -1.2125
  462SOL     MW 1848   0.314   0.233   1.269  0.3984 -0.4128 -0.1532
  463SOL     OW 1849   1.104   0.100   0.721  0.3308  0.2599 -0.0384
  463SOL    HW1 1850   1.175   0.037   0.719  0.3853  0.6874 -1.7945
  463SOL    HW2 1851   1.059   0.102   0.639  1.1446 -1.2217  1.5417
  463SOL     MW 1852   1.108   0.092   0.710  0.4454  0.1208 -0.0616
  464SOL     OW 1853   0.751   3.058   2.281 -0.5954 -0.7163  0.9008
  464SOL    HW1 1854   0.725   2.965   2.285  3.1737  0.3650 -0.3843
  464SOL    HW2 1855   0.732   3.106   2.365  0.7479  0.0756 -3.4302
  464SOL     MW 1856   0.745   3.052   2.293  0.0791 -0.4692  0.1598
  465SOL     OW 1857   0.840   0.316   0.413  0.2483 -0.0761 -0.7505
  465SOL    HW1 1858   0.824   0.246   0.479 -0.6637 -0.9880  0.4174
  465SOL    HW2 1859   0.815   0.284   0.327  1.3304  2.3613 -0.8530
  465SOL     MW 1860   0.834   0.303   0.410  0.2708  0.1252 -0.6099
  466SOL     OW 1861   1.104   2.046   0.807  0.2937  0.0974  0.6365
  466SOL    HW1 1862   1.076   1.966   0.755 -0.4110  0.6572 -5.5349
  466SOL    HW2 1863   1.092   2.114   0.733 -0.9067 -0.3263  1.5837
  466SOL     MW 1864   1.099   2.044   0.790  0.0424  0.1153 -0.0528
  467SOL     OW 1865   1.261   2.361   0.992  0.6591 -0.4024  1.1465
  467SOL    HW1 1866   1.352   2.393   0.990 -0.4751  0.4195  0.0946
  467SOL    HW2 1867   1.267   2.266   0.977  0.3976  0.2611  3.2239
  467SOL     MW 1868   1.274   2.353   0.990  0.4750 -0.2064  1.2818
  468SOL     OW 1869   0.447   2.669   1.935 -0.6069 -0.1498  0.7646
  468SOL    HW1 1870   0.443   2.603   1.859 -1.3133 -0.6329 -0.2911
  468SOL    HW2 1871   0.423   2.756   1.903 -4.2420  2.3561 -2.5091
  468SOL     MW 1872   0.443   2.672   1.921 -1.1797  0.1171  0.1933
  469SOL     OW 1873   0.324   2.135   1.789  0.5343 -0.2170 -0.1995
  469SOL    HW1 1874   0.252   2.091   1.839 -1.7058  0.3238 -4.7638
  469SOL    HW2 1875   0.400   2.080   1.767 -0.9624 -0.9393 -0.5133
  469SOL     MW 1876   0.324   2.122   1.793  0.0413 -0.2409 -0.8431
  470SOL     OW 1877   3.039   2.601   0.107  0.1851  0.1143  0.0639
  470SOL    HW1 1878   2.942   2.599   0.138 -1.4627  2.1371  1.3207
  470SOL    HW2 1879   3.038   2.612   0.010 -0.0443  2.0459  1.3196
  470SOL     MW 1880   3.026   2.602   0.099 -0.0625  0.6360  0.3954
  471SOL     OW 1881   1.168   2.648   1.376  1.2162  0.6320  0.0983
  471SOL    HW1 1882   1.129   2.573   1.328  1.1977  0.1604 -1.0031
  471SOL    HW2 1883   1.229   2.683   1.311  2.0125 -4.1461 -0.5918
  471SOL     MW 1884   1.171   2.643   1.361  1.3188 -0.0607 -0.1381
  472SOL     OW 1885   2.969   2.141   0.358  0.3453  0.0430 -0.2416
  472SOL    HW1 1886   2.971   2.076   0.285  2.5440 -2.4643 -0.9478
  472SOL    HW2 1887   2.910   2.109   0.434 -0.9413 -0.3151  3.9038
  472SOL     MW 1888   2.961   2.128   0.359  0.4656 -0.3351  0.2122
  473SOL     OW 1889   0.874   2.565   1.343 -0.4624  0.3682  0.0515
  473SOL    HW1 1890   0.903   2.474   1.340 -0.4385  0.8757 -1.4890
  473SOL    HW2 1891   0.884   2.586   1.441 -1.2486  1.2226 -1.4801
  473SOL     MW 1892   0.879   2.556   1.355 -0.5630  0.5479 -0.3538
  474SOL     OW 1893   0.765   2.266   1.832  0.4822 -0.4310  0.0426
  474SOL    HW1 1894   0.852   2.252   1.875  0.7361  1.0379 -2.0215
  474SOL    HW2 1895   0.795   2.267   1.743 -0.1861  0.3826 -1.3204
  474SOL     MW 1896   0.780   2.265   1.826  0.4275 -0.1299 -0.4096
  475SOL     OW 1897   1.580   3.081   1.538 -0.3465 -0.0849  0.4763
  475SOL    HW1 1898   1.498   3.070   1.481 -0.2366  1.6652 -3.4412
  475SOL    HW2 1899   1.582   2.997   1.583 -0.5127 -0.3607  1.2394
  475SOL     MW 1900   1.570   3.069   1.537 -0.3540  0.1096  0.0601
  476SOL     OW 1901   1.440   2.674   1.203  0.0081 -0.2645  0.1195
  476SOL    HW1 1902   1.380   2.729   1.161  1.1529 -0.1081 -0.6972
  476SOL    HW2 1903   1.522   2.722   1.208 -2.3200 -1.3216 -0.6143
  476SOL     MW 1904   1.443   2.688   1.198 -0.1480 -0.3833 -0.0850
  477SOL     OW 1905   0.880   2.518   0.682  0.0098 -0.4710 -0.8269
  477SOL    HW1 1906   0.957   2.577   0.659  1.7360 -1.0981  1.0638
  477SOL    HW2 1907   0.861   2.453   0.620 -0.5092 -0.7426  0.7176
  477SOL     MW 1908   0.888   2.517   0.671  0.1691 -0.5896 -0.3736
  478SOL     OW 1909   0.205   2.650   0.848 -0.2598  0.3215 -0.4507
  478SOL    HW1 1910   0.259   2.726   0.858 -2.3531  1.3639  0.5108
  478SOL    HW2 1911   0.260   2.577   0.810 -0.8256 -0.4129  0.6340
  478SOL     MW 1912   0.219   2.650   0.845 -0.6106  0.3621 -0.1807
  479SOL     OW 1913   1.407   1.994   1.299  0.0998 -0.1306  0.3572
  479SOL    HW1 1914   1.426   2.022   1.393  0.5767 -1.1261 -0.5912
  479SOL    HW2 1915   1.449   1.908   1.280 -0.2781  1.1309 -1.0353
  479SOL     MW 1916   1.415   1.986   1.309  0.1129 -0.0955  0.0483
  480SOL     OW 1917   1.935   2.441   1.348 -0.9327 -0.1426 -0.0923
  480SOL    HW1 1918   1.938   2.349   1.355  0.4514  3.5232  3.4990
  480SOL    HW2 1919   1.955   2.459   1.258 -0.2186 -1.0093 -0.7989
  480SOL     MW 1920   1.938   2.431   1.337 -0.6559  0.2267  0.2883
  481SOL     OW 1921   1.073   0.064   1.107  0.0094 -0.3588  0.5934
  481SOL    HW1 1922   1.130   0.010   1.055 -3.9079  1.5683 -2.4138
  481SOL    HW2 1923   1.128   0.141   1.127  0.8780 -0.5604 -1.6242
  481SOL     MW 1924   1.088   0.067   1.103 -0.3928 -0.1311 -0.0960
  482SOL     OW 1925   1.062   3.095   0.245  0.6007  0.0336 -0.1953
  482SOL    HW1 1926   1.028   3.029   0.299  1.0873 -0.5463 -2.9312
  482SOL    HW2 1927   1.080   3.169   0.306  1.2415  2.0921 -1.1868
  482SOL     MW 1928   1.060   3.096   0.260  0.7494  0.2287 -0.6871
  483SOL     OW 1929   0.488   3.010   0.459  0.3695  0.3528 -0.3206
  483SOL    HW1 1930   0.436   2.999   0.381 -1.1724  2.0897  0.2735
  483SOL    HW2 1931   0.436   3.057   0.530 -0.5259  2.7889 -0.7896
  483SOL     MW 1932   0.474   3.015   0.458  0.0479  0.9034 -0.3041
  484SOL     OW 1933   1.853   2.041   1.431  0.6232 -0.1345 -0.1733
  484SOL    HW1 1934   1.922   2.113   1.425  1.6511 -0.3837  0.6919
  484SOL    HW2 1935   1.846   2.008   1.522  1.4492  0.4453  1.1468
  484SOL     MW 1936   1.861   2.046   1.442  0.8678 -0.0909  0.1150
  485SOL     OW 1937   0.632   2.421   0.281  0.1147  0.0513 -0.5498
  485SOL    HW1 1938   0.684   2.373   0.354 -1.5069 -2.9423 -0.5709
  485SOL    HW2 1939   0.547   2.447   0.326 -1.4222 -0.9616 -1.3054
  485SOL     MW 1940   0.628   2.418   0.297 -0.3020 -0.4773 -0.6523
  486SOL     OW 1941   0.160   2.374   1.490 -0.3192  0.2985 -0.0208
  486SOL    HW1 1942   0.182   2.458   1.452  0.2103 -0.6663  0.3918
  486SOL    HW2 1943   0.128   2.391   1.577 -0.7228  1.6737  0.2362
  486SOL     MW 1944   0.158   2.387   1.497 -0.3026  0.3527  0.0675
  487SOL     OW 1945   1.163   1.752   1.055 -0.6836 -0.6024 -0.0057
  487SOL    HW1 1946   1.161   1.837   1.087  0.2847 -5.2186  2.2508
  487SOL    HW2 1947   1.259   1.729   1.039  1.1972 -0.2435  0.3622
  487SOL     MW 1948   1.176   1.760   1.057 -0.3077 -1.1641  0.3405
  488SOL     OW 1949   1.623   1.861   0.521  0.4573  0.2208 -0.6936
  488SOL    HW1 1950   1.704   1.852   0.465  0.7549  0.7967 -1.0718
  488SOL    HW2 1951   1.576   1.935   0.482  2.0270  0.4600 -1.3058
  488SOL     MW 1952   1.628   1.870   0.508  0.7037  0.3284 -0.8243
  489SOL     OW 1953   0.777   0.817   0.584  0.0889 -0.2532  0.0470
  489SOL    HW1 1954   0.835   0.753   0.538  0.3404  1.1572  3.3712
  489SOL    HW2 1955   0.777   0.778   0.671  0.2616  3.7411 -0.2415
  489SOL     MW 1956   0.785   0.803   0.589  0.1449  0.4599  0.4475
  490SOL     OW 1957   1.437   2.086   0.463  0.2321  0.3904 -0.4003
  490SOL    HW1 1958   1.466   2.172   0.423  0.7203 -0.8060  0.0746
  490SOL    HW2 1959   1.344   2.077   0.451 -0.9612 -0.1287 -0.6253
  490SOL     MW 1960   1.428   2.096   0.456  0.1390  0.1641 -0.3673
  491SOL     OW 1961   1.322   3.031   0.419  0.1222 -0.0669  0.1618
  491SOL    HW1 1962   1.403   3.086   0.447  1.6890  1.9995  4.2591
  491SOL    HW2 1963   1.255   3.093   0.392  0.4847  1.4923 -0.0967
  491SOL     MW 1964   1.324   3.046   0.419  0.3767  0.4114  0.6683
  492SOL     OW 1965   1.488   2.200   0.743 -0.2651 -0.1765 -0.4906
  492SOL    HW1 1966   1.443   2.155   0.672 -3.1901  0.0709 -2.0016
  492SOL    HW2 1967   1.470   2.156   0.830 -0.0510  2.0778  0.1958
  492SOL     MW 1968   1.480   2.188   0.745 -0.6228  0.1536 -0.5994
  493SOL     OW 1969   0.279   2.981   0.276  0.2287  0.0679 -0.4142
  493SOL    HW1 1970   0.209   3.001   0.341  0.4179  1.8154 -1.3507
  493SOL    HW2 1971   0.252   3.025   0.193 -0.2436  1.0676  0.4076
  493SOL     MW 1972   0.266   2.990   0.274  0.1913  0.4303 -0.4293
  494SOL     OW 1973   0.459   2.430   1.759  0.4535  0.1177 -0.3254
  494SOL    HW1 1974   0.492   2.342   1.778 -0.9753 -0.6924 -2.3739
  494SOL    HW2 1975   0.468   2.444   1.662 -1.9860 -0.4167  2.5904
  494SOL     MW 1976   0.464   2.420   1.749 -0.0569 -0.0597 -0.2110
  495SOL     OW 1977   2.826   1.759   2.568  0.0868  0.3706  0.0854
  495SOL    HW1 1978   2.830   1.841   2.527 -3.5165  1.1834  1.4973
  495SOL    HW2 1979   2.797   1.760   2.656 -0.4289 -3.2839 -2.5820
  495SOL     MW 1980   2.822   1.770   2.574 -0.4566 -0.0043 -0.0802
  496SOL     OW 1981   2.895   2.330   2.646 -0.4497 -0.0954 -0.1006
  496SOL    HW1 1982   2.934   2.282   2.719 -1.4470  2.4930 -1.2229
  496SOL    HW2 1983   2.958   2.402   2.632 -1.2105  1.9945  1.7980
  496SOL     MW 1984   2.908   2.333   2.654 -0.6817  0.5219  0.0018
  497SOL     OW 1985   1.544   2.204   2.682  0.2285 -0.3733  0.4806
  497SOL    HW1 1986   1.458   2.169   2.656 -0.8327  0.1442 -2.1359
  497SOL    HW2 1987   1.583   2.130   2.729  0.1743  1.6041 -0.1132
  497SOL     MW 1988   1.538   2.190   2.685  0.0813 -0.0442  0.0570
  498SOL     OW 1989   1.484   2.691   2.352 -0.4025 -0.1448 -0.0922
  498SOL    HW1 1990   1.454   2.600   2.341 -0.6058 -0.5032 -0.4626
  498SOL    HW2 1991   1.578   2.685   2.352 -2.5887 -1.6439 -2.0436
  498SOL     MW 1992   1.492   2.678   2.351 -0.7178 -0.3899 -0.3985
  499SOL     OW 1993   0.970   0.164   3.084  0.3180  0.1555  0.4607
  499SOL    HW1 1994   0.888   0.203   3.117 -1.7764  0.4585  0.6806
  499SOL    HW2 1995   0.975   0.074   3.118  0.5079  1.0667 -2.8737
  499SOL     MW 1996   0.960   0.157   3.093  0.0667  0.3157  0.0497
  500SOL     OW 1997   1.015   2.500   2.776 -0.3461  0.6220  0.1634
  500SOL    HW1 1998   1.082   2.474   2.844 -0.5131  0.7349  1.1290
  500SOL    HW2 1999   0.937   2.500   2.837 -0.5114 -1.0383  2.0492
  500SOL     MW 2000   1.014   2.497   2.793 -0.3900  0.4178  0.5396
  501SOL     OW 2001   1.763   2.197   3.055  0.1691 -0.5117 -0.1172
  501SOL    HW1 2002   1.729   2.279   3.026 -0.7919 -0.3543  1.1940
  501SOL    HW2 2003   1.835   2.217   3.110  0.9495  0.3576 -0.3214
  501SOL     MW 2004   1.768   2.210   3.058  0.1453 -0.3763  0.0289
  502SOL     OW 2005   0.112   2.818   2.985  0.8083 -0.9951 -0.7629
  502SOL    HW1 2006   0.037   2.762   2.969 -0.7913  0.9910  1.7380
  502SOL    HW2 2007   0.153   2.846   2.907  0.2631  0.1723  1.3585
  502SOL     MW 2008   0.108   2.814   2.973  0.5253 -0.5790 -0.1531
  503SOL     OW 2009   1.049   2.926   2.166  0.5254  0.0493  0.4811
  503SOL    HW1 2010   1.032   2.892   2.078 -1.1481  2.9428 -0.5192
  503SOL    HW2 2011   1.000   3.012   2.164 -0.8791  0.0042 -0.5137
  503SOL     MW 2012   1.040   2.933   2.154  0.1193  0.4251  0.2178
  504SOL     OW 2013   0.136   2.705   2.116  0.4968 -0.0331  0.0280
  504SOL    HW1 2014   0.131   2.608   2.105 -0.6102  2.4320  1.4888
  504SOL    HW2 2015   0.046   2.722   2.159 -1.4604 -1.6194 -3.6912
  504SOL     MW 2016   0.124   2.695   2.120  0.0925  0.0829 -0.2700
  505SOL     OW 2017   1.719   2.705   2.692  0.2929 -0.2377  0.2246
  505SOL    HW1 2018   1.658   2.717   2.618 -2.3550  0.1336 -0.6554
  505SOL    HW2 2019   1.661   2.717   2.768 -1.9835 -2.7531  0.8276
  505SOL     MW 2020   1.703   2.708   2.692 -0.3568 -0.5206  0.1881
  506SOL     OW 2021   1.644   3.000   2.871  0.1127 -0.0869  0.1085
  506SOL    HW1 2022   1.674   2.939   2.939 -1.7047 -0.5436 -0.4329
  506SOL    HW2 2023   1.699   2.981   2.795  1.7952 -0.7679  1.4187
  506SOL     MW 2024   1.655   2.990   2.870  0.0949 -0.2370  0.2099
  507SOL     OW 2025   0.785   2.854   2.909 -0.4328  0.9271  0.3497
  507SOL    HW1 2026   0.844   2.903   2.856  0.2651  1.7503  2.0724
  507SOL    HW2 2027   0.723   2.918   2.949  1.2869 -2.0802 -0.4132
  507SOL     MW 2028   0.784   2.869   2.907 -0.1138  0.6389  0.4764
  508SOL     OW 2029   1.106   2.086   2.472 -0.3453  0.1206 -0.2461
  508SOL    HW1 2030   1.174   2.075   2.537 -2.8770  2.7740  0.7996
  508SOL    HW2 2031   1.051   2.152   2.523 -1.1337 -0.1469 -0.1687
  508SOL     MW 2032   1.108   2.093   2.487 -0.7834  0.4354 -0.0979
  509SOL     OW 2033   0.575   2.547   2.900  0.2011  0.4902 -0.0582
  509SOL    HW1 2034   0.618   2.579   2.813 -2.3010 -0.6480 -3.2907
  509SOL    HW2 2035   0.479   2.525   2.886 -0.9512  0.5958 -0.8471
  509SOL     MW 2036   0.568   2.548   2.887 -0.2811  0.3540 -0.5888
  510SOL     OW 2037   1.473   2.538   1.741 -0.3581 -0.5652  0.0490
  510SOL    HW1 2038   1.496   2.632   1.743  0.5653 -0.4483  0.9194
  510SOL    HW2 2039   1.421   2.529   1.827  2.2987 -1.4241  0.7947
  510SOL     MW 2040   1.469   2.549   1.753  0.1143 -0.6631  0.2623
  511SOL     OW 2041   0.410   2.594   2.489 -0.2459  0.3543  0.1633
  511SOL    HW1 2042   0.501   2.581   2.523 -0.2772 -0.8668 -2.7264
  511SOL    HW2 2043   0.429   2.609   2.392  1.1509  0.9938  2.0602
  511SOL     MW 2044   0.424   2.594   2.481 -0.0657  0.2776  0.0323
  512SOL     OW 2045   1.006   1.960   2.822 -0.1583 -0.4420 -0.6580
  512SOL    HW1 2046   0.917   1.948   2.857 -0.3151 -0.9742 -1.1572
  512SOL    HW2 2047   1.047   1.874   2.836 -0.8423 -1.2202 -2.5100
  512SOL     MW 2048   0.999   1.947   2.829 -0.2693 -0.6149 -0.9682
  513SOL     OW 2049   1.460   2.381   2.371 -0.0931  0.0686 -0.5022
  513SOL    HW1 2050   1.548   2.399   2.406 -0.1292 -3.5757 -1.6171
  513SOL    HW2 2051   1.454   2.286   2.375  0.1104  0.5337  2.3353
  513SOL     MW 2052   1.471   2.371   2.377 -0.0710 -0.3509 -0.2750
  514SOL     OW 2053   0.252   2.426   2.603 -0.1297 -0.4333 -0.3195
  514SOL    HW1 2054   0.296   2.491   2.548 -1.3042  0.3448  0.0200
  514SOL    HW2 2055   0.268   2.443   2.696  2.2290 -0.7550  1.9409
  514SOL     MW 2056   0.260   2.437   2.608  0.0266 -0.3731  0.0235
  515SOL     OW 2057   1.180   2.067   1.911  0.0593 -0.0830 -0.2155
  515SOL    HW1 2058   1.140   2.150   1.895  2.9306  2.7558  0.7185
  515SOL    HW2 2059   1.168   2.059   2.005  0.3852 -0.4342  2.4584
  515SOL     MW 2060   1.173   2.077   1.922  0.4812  0.2452  0.2605
  516SOL     OW 2061   1.446   2.495   3.069 -0.2342 -0.3958 -0.5804
  516SOL    HW1 2062   1.483   2.512   2.983 -0.6985 -2.6610  1.3787
  516SOL    HW2 2063   1.352   2.480   3.052  2.3310 -0.8924  0.5181
  516SOL     MW 2064   1.439   2.495   3.056  0.0430 -0.7602 -0.1770
  517SOL     OW 2065   0.578   2.417   2.086  0.5286 -0.1543 -0.2347
  517SOL    HW1 2066   0.537   2.508   2.076  0.6623 -2.4044 -1.1256
  517SOL    HW2 2067   0.495   2.366   2.057 -0.9271 -0.4449 -3.7446
  517SOL     MW 2068   0.561   2.423   2.081  0.3541 -0.4895 -0.8153
  518SOL     OW 2069   1.883   0.078   3.012 -0.1528 -0.2323  0.6516
  518SOL    HW1 2070   1.809   0.115   2.956  1.8236  1.6449 -0.4332
  518SOL    HW2 2071   1.857   0.087   3.106  0.6797  0.6495  0.7288
  518SOL     MW 2072   1.870   0.084   3.017  0.2178  0.1317  0.5186
  519SOL     OW 2073   0.727   2.542   1.806 -0.2204 -0.3205  0.2790
  519SOL    HW1 2074   0.768   2.455   1.843 -2.5444  1.2044 -1.0273
  519SOL    HW2 2075   0.627   2.542   1.820 -2.5742  0.0831  0.9871
  519SOL     MW 2076   0.720   2.530   1.813 -0.8376 -0.0661  0.2001
  520SOL     OW 2077   1.180   2.155   2.901 -0.5919  0.2421 -0.2016
  520SOL    HW1 2078   1.119   2.081   2.888  0.5816  1.0353  2.0715
  520SOL    HW2 2079   1.237   2.117   2.971  2.1345 -0.0089 -2.5250
  520SOL     MW 2080   1.179   2.140   2.908 -0.0774  0.3136 -0.2082
  521SOL     OW 2081   1.743   2.001   2.227  0.1551 -0.1214 -0.1233
  521SOL    HW1 2082   1.756   2.023   2.136  2.8097 -1.4352  0.7109
  521SOL    HW2 2083   1.745   1.905   2.231  0.3652  0.9585  0.1339
  521SOL     MW 2084   1.745   1.991   2.216  0.5331 -0.1523  0.0207
  522SOL     OW 2085   2.882   2.616   2.235  0.2442 -0.1244  0.0348
  522SOL    HW1 2086   2.944   2.551   2.278 -0.4596 -1.8285  0.8647
  522SOL    HW2 2087   2.825   2.620   2.310  0.8060 -1.6649 -0.1684
  522SOL     MW 2088   2.883   2.608   2.251  0.2255 -0.5525  0.1175
  523SOL     OW 2089   0.837   1.508   2.112 -0.1956  0.2923 -0.5332
  523SOL    HW1 2090   0.832   1.578   2.044 -0.6884 -0.0601 -0.2713
  523SOL    HW2 2091   0.904   1.447   2.076  0.3860 -0.0329 -1.0235
  523SOL     MW 2092   0.845   1.510   2.098 -0.1839  0.2029 -0.5634
  524SOL     OW 2093   0.815   2.453   2.953  0.6218 -0.5301  0.3827
  524SOL    HW1 2094   0.724   2.467   2.934 -0.6126  0.0860 -1.3531
  524SOL    HW2 2095   0.819   2.360   2.934 -4.0724 -0.3069 -0.2426
  524SOL     MW 2096   0.804   2.443   2.948 -0.1604 -0.4194  0.0711
  525SOL     OW 2097   0.347   2.295   2.021 -0.2777 -0.5232 -0.0331
  525SOL    HW1 2098   0.334   2.240   2.100  1.5447 -2.0939  0.8836
  525SOL    HW2 2099   0.327   2.231   1.954  0.3466  0.5864 -2.8479
  525SOL     MW 2100   0.343   2.279   2.023  0.0451 -0.5840 -0.2835
  526SOL     OW 2101   0.634   2.127   2.095  0.2876  0.2078 -0.2327
  526SOL    HW1 2102   0.677   2.166   2.019 -0.4380  0.1649 -1.7617
  526SOL    HW2 2103   0.614   2.201   2.156  0.8756 -0.1863  1.9323
  526SOL     MW 2104   0.637   2.142   2.093  0.2695  0.1502 -0.1488
  527SOL     OW 2105   1.415   1.979   2.159 -0.2733  0.1762  0.1212
  527SOL    HW1 2106   1.362   1.936   2.228  0.4082  2.8712 -1.3724
  527SOL    HW2 2107   1.436   1.907   2.097 -0.4173 -0.8260  1.5575
  527SOL     MW 2108   1.411   1.964   2.160 -0.2024  0.3995  0.1137
  528SOL     OW 2109   0.597   3.035   2.930  0.1398  0.4483 -0.1388
  528SOL    HW1 2110   0.665   3.102   2.918  1.2516 -0.7648  1.0355
  528SOL    HW2 2111   0.575   3.012   2.837  1.6086  1.6261  0.2121
  528SOL     MW 2112   0.603   3.041   2.916  0.4803  0.4436  0.0624
  529SOL     OW 2113   1.013   2.285   1.946  1.2571 -0.0705  0.0419
  529SOL    HW1 2114   0.975   2.329   2.020 -0.9215  2.4236 -1.6482
  529SOL    HW2 2115   1.035   2.355   1.885 -0.5679 -1.6964  1.4577
  529SOL     MW 2116   1.011   2.300   1.948  0.7289  0.0441  0.0057
  530SOL     OW 2117   1.174   2.439   2.992 -0.7257  0.1965  0.2736
  530SOL    HW1 2118   1.132   2.471   3.074 -1.3784 -2.2296  2.2651
  530SOL    HW2 2119   1.170   2.344   2.987  0.8870  0.6776 -0.5368
  530SOL     MW 2120   1.168   2.431   3.002 -0.5991 -0.0601  0.4294
  531SOL     OW 2121   0.949   1.877   2.557  0.0974  0.5340 -0.4428
  531SOL    HW1 2122   1.009   1.937   2.510  3.3648  1.2332  0.3131
  531SOL    HW2 2123   0.976   1.875   2.653  1.5980 -1.0372  3.7724
  531SOL     MW 2124   0.961   1.884   2.563  0.7265  0.4190  0.2131
  532SOL     OW 2125   1.768   0.211   2.775  0.6637  0.4403  0.3864
  532SOL    HW1 2126   1.741   0.124   2.749  0.0399 -1.5647 -1.1516
  532SOL    HW2 2127   1.827   0.248   2.707 -0.7389  2.2415  1.0935
  532SOL     MW 2128   1.772   0.204   2.763  0.3964  0.4134  0.2768
  533SOL     OW 2129   1.966   2.540   0.005  0.1400 -0.9785  0.5227
  533SOL    HW1 2130   1.903   2.494   0.065 -0.9290  0.4483  0.8878
  533SOL    HW2 2131   1.917   2.622  -0.018 -0.0005  2.0587  0.5023
  533SOL     MW 2132   1.951   2.545   0.010 -0.0196 -0.3895  0.5682
  534SOL     OW 2133   1.703   2.378   2.520  0.0415  0.4896  0.2361
  534SOL    HW1 2134   1.654   2.302   2.554 -2.4247  0.1140  1.4627
  534SOL    HW2 2135   1.776   2.403   2.582  1.4691 -1.2979  1.3937
  534SOL     MW 2136   1.706   2.371   2.533 -0.0955  0.2042  0.5507
  535SOL     OW 2137   1.893   2.366   1.870 -0.1223 -0.4805  0.0322
  535SOL    HW1 2138   1.831   2.369   1.795  0.2433 -0.1121  3.6188
  535SOL    HW2 2139   1.984   2.352   1.836 -0.3245 -0.7249  0.5310
  535SOL     MW 2140   1.897   2.364   1.856 -0.1007 -0.4641  0.5712
  536SOL     OW 2141   0.492   1.881   2.113 -0.1143  0.2053 -0.0094
  536SOL    HW1 2142   0.489   1.861   2.016 -0.5301 -0.7784 -3.6546
  536SOL    HW2 2143   0.531   1.969   2.122  0.4104 -1.1744 -1.4875
  536SOL     MW 2144   0.497   1.890   2.101 -0.0999 -0.1065 -0.6854
  537SOL     OW 2145   1.053   0.297   2.765 -0.2554  0.4789 -0.0159
  537SOL    HW1 2146   1.080   0.355   2.835 -1.3943 -2.6585 -1.3560
  537SOL    HW2 2147   1.057   0.352   2.689 -0.5406  1.4600  2.4999
  537SOL     MW 2148   1.057   0.312   2.764 -0.4433  0.1944  0.1392
  538SOL     OW 2149   1.432   0.069   0.045 -0.3107  0.2180 -0.6555
  538SOL    HW1 2150   1.431   0.164   0.040 -1.3952  0.4852 -1.9628
  538SOL    HW2 2151   1.343   0.035   0.036  2.6446 -2.3788  2.2129
  538SOL     MW 2152   1.420   0.077   0.043 -0.0639 -0.0893 -0.4495
  539SOL     OW 2153   0.735   2.855   2.601  0.1997  0.4331  0.4592
  539SOL    HW1 2154   0.810   2.913   2.620  0.9314 -0.1457  0.9758
  539SOL    HW2 2155   0.745   2.783   2.654  2.5369  1.6425 -1.8730
  539SOL     MW 2156   0.746   2.853   2.611  0.6046  0.5163  0.2197
  540SOL     OW 2157   0.303   2.435   2.880 -0.3419  0.2198 -0.3216
  540SOL    HW1 2158   0.264   2.495   2.941  1.5728 -2.4580  0.6322
  540SOL    HW2 2159   0.272   2.349   2.917  2.0001  0.3485  1.8749
  540SOL     MW 2160   0.294   2.431   2.893  0.2197 -0.1166  0.0941
  541SOL     OW 2161   0.264   2.937   2.108  0.4534  0.1866 -0.1220
  541SOL    HW1 2162   0.211   2.856   2.121 -0.5633 -0.4750 -0.8159
  541SOL    HW2 2163   0.328   2.917   2.173  0.4704 -0.1684 -1.3216
  541SOL     MW 2164   0.265   2.924   2.118  0.3215  0.0525 -0.3718
  542SOL     OW 2165   0.966   2.263   2.616 -0.2345 -0.6425  0.3350
  542SOL    HW1 2166   0.913   2.211   2.673  0.0074 -0.5107  1.9108
  542SOL    HW2 2167   0.998   2.339   2.671 -0.8661 -0.2423  1.8168
  542SOL     MW 2168   0.963   2.266   2.631 -0.2859 -0.5723  0.7384
  543SOL     OW 2169   1.609   2.462   2.837  0.3601 -0.0271  0.3351
  543SOL    HW1 2170   1.582   2.393   2.785  1.9148  1.5707  0.0822
  543SOL    HW2 2171   1.696   2.489   2.806  0.0104  4.3269  2.2339
  543SOL     MW 2172   1.617   2.456   2.826  0.5191  0.7582  0.5523
  544SOL     OW 2173   0.667   0.312   2.719 -0.2593  0.1969 -0.0527
  544SOL    HW1 2174   0.573   0.307   2.747 -2.8573 -2.7839  0.5975
  544SOL    HW2 2175   0.686   0.246   2.649 -2.1027 -0.4483  1.3307
  544SOL     MW 2176   0.657   0.303   2.713 -0.8453 -0.2815  0.2156
  545SOL     OW 2177   1.539   2.115   2.349  0.5632  0.1551  0.5867
  545SOL    HW1 2178   1.495   2.061   2.282  1.3425  0.5911  0.5612
  545SOL    HW2 2179   1.620   2.099   2.313 -0.2469 -0.3872  1.4610
  545SOL     MW 2180   1.544   2.106   2.336  0.5592  0.1411  0.6987
  546SOL     OW 2181   2.914   1.971   0.151  0.2149  0.1363  0.3786
  546SOL    HW1 2182   2.900   2.047   0.091  0.6535 -0.6044 -0.1066
  546SOL    HW2 2183   2.997   1.937   0.123 -0.6877 -0.3760 -1.6228
  546SOL     MW 2184   2.923   1.977   0.140  0.1537 -0.0290  0.0505
  547SOL     OW 2185   0.198   0.060   0.089  0.0276 -0.2370 -0.1047
  547SOL    HW1 2186   0.285   0.062   0.039  0.8402  2.9170 -0.8858
  547SOL    HW2 2187   0.142   0.007   0.040 -0.9655  0.0009  1.3041
  547SOL     MW 2188   0.202   0.053   0.076  0.0038  0.2105 -0.0219
  548SOL     OW 2189   0.376   2.574   0.253  0.1134  0.0295  0.1646
  548SOL    HW1 2190   0.347   2.589   0.162  0.1517 -0.6350 -1.1949
  548SOL    HW2 2191   0.298   2.549   0.294 -2.4382  1.9937 -0.9308
  548SOL     MW 2192   0.362   2.573   0.246 -0.2182  0.2010 -0.1593
  549SOL     OW 2193   0.846   1.925   2.141  0.2343  0.1079  0.5743
  549SOL    HW1 2194   0.795   1.969   2.075 -2.5771 -1.3844 -1.7825
  549SOL    HW2 2195   0.782   1.924   2.213 -0.9688  1.1287 -0.3195
  549SOL     MW 2196   0.831   1.931   2.142 -0.2954  0.0457  0.1454
  550SOL     OW 2197   1.802   1.623   2.533  0.1182  0.2598  0.1786
  550SOL    HW1 2198   1.789   1.633   2.442 -2.2852  2.7795  2.9274
  550SOL    HW2 2199   1.768   1.708   2.565 -0.4558 -1.1741 -1.8609
  550SOL     MW 2200   1.796   1.636   2.525 -0.2747  0.4030  0.2722
  551SOL     OW 2201   0.917   2.233   0.206 -0.0133 -0.0079  0.4192
  551SOL    HW1 2202   1.018   2.235   0.212  1.0240  0.7596  2.4612
  551SOL    HW2 2203   0.894   2.168   0.145 -2.7901  2.8356  0.4220
  551SOL     MW 2204   0.927   2.225   0.199 -0.2428  0.4686  0.6890
  552SOL     OW 2205   1.760   1.712   2.235  0.0664 -0.6272 -0.8145
  552SOL    HW1 2206   1.674   1.673   2.255 -0.9118 -3.0571  3.7999
  552SOL    HW2 2207   1.789   1.692   2.148  2.5885  1.1817 -0.2561
  552SOL     MW 2208   1.752   1.704   2.226  0.2701 -0.7091 -0.1320
  553SOL     OW 2209   1.250   2.305   1.588  0.4107 -0.1587  0.3318
  553SOL    HW1 2210   1.283   2.217   1.582  1.1752  1.6929  2.5010
  553SOL    HW2 2211   1.316   2.356   1.532 -1.8001 -1.3183  1.3425
  553SOL     MW 2212   1.263   2.300   1.580  0.2199 -0.0674  0.7514
  554SOL     OW 2213   0.504   2.977   2.678 -0.1357 -0.1081 -0.2585
  554SOL    HW1 2214   0.467   3.033   2.613 -0.2282  0.6166  0.8948
  554SOL    HW2 2215   0.576   2.931   2.630  0.0662  0.8188 -0.3106
  554SOL     MW 2216   0.509   2.978   2.663 -0.1213  0.1098 -0.1132
  555SOL     OW 2217   0.646   2.532   2.635  0.4003  0.4883  0.6929
  555SOL    HW1 2218   0.607   2.444   2.642 -1.0787 -2.3201 -1.4795
  555SOL    HW2 2219   0.725   2.508   2.583  0.6492  0.4980 -1.1350
  555SOL     MW 2220   0.652   2.517   2.629  0.2380  0.1190  0.1651
  556SOL     OW 2221   1.048   1.829   0.053 -0.4655 -0.4614  0.5073
  556SOL    HW1 2222   1.085   1.787  -0.023 -0.0458  1.7906 -0.8867
  556SOL    HW2 2223   1.127   1.876   0.087 -1.3075 -0.6015  0.5274
  556SOL     MW 2224   1.063   1.829   0.047 -0.5212 -0.1828  0.3260
  557SOL     OW 2225   1.034   2.711   0.596 -0.1722 -0.2342 -0.0094
  557SOL    HW1 2226   1.073   2.657   0.527  1.9173 -3.2924  0.4528
  557SOL    HW2 2227   0.983   2.766   0.544 -1.3180 -1.6003  2.7239
  557SOL     MW 2228   1.033   2.711   0.580 -0.0477 -0.8180  0.4122
  558SOL     OW 2229   0.213   2.227   3.008 -0.3429 -0.2130 -0.6192
  558SOL    HW1 2230   0.287   2.195   3.058 -1.7619 -1.1529 -0.3159
  558SOL    HW2 2231   0.151   2.263   3.081 -2.7955  2.2246  1.9041
  558SOL     MW 2232   0.215   2.228   3.024 -0.8537 -0.0154 -0.2462
  559SOL     OW 2233   1.051   2.289   2.251  0.0019 -0.3604 -0.3325
  559SOL    HW1 2234   1.124   2.340   2.224 -1.6776 -1.0709 -0.4873
  559SOL    HW2 2235   1.078   2.205   2.219 -0.2737 -0.1870  0.0921
  559SOL     MW 2236   1.065   2.285   2.243 -0.2560 -0.4313 -0.2969
  560SOL     OW 2237   2.169   2.663   0.145 -0.2098 -0.5721  0.0875
  560SOL    HW1 2238   2.169   2.741   0.091 -4.1546  1.8882  1.9636
  560SOL    HW2 2239   2.105   2.604   0.102  0.8177 -0.1238 -0.8713
  560SOL     MW 2240   2.161   2.665   0.132 -0.5947 -0.1883  0.2085
  561SOL     OW 2241   0.490   2.205   0.170  0.2163 -0.0968 -0.4028
  561SOL    HW1 2242   0.517   2.224   0.080  3.5731  0.3723  0.9539
  561SOL    HW2 2243   0.527   2.273   0.227 -1.2676 -0.1431  1.3194
  561SOL     MW 2244   0.498   2.216   0.166  0.4634 -0.0410  0.0034
  562SOL     OW 2245   0.660   2.329   2.366 -0.1187  0.4065  0.0320
  562SOL    HW1 2246   0.599   2.377   2.318  3.3760  2.1546 -0.5996
  562SOL    HW2 2247   0.729   2.397   2.375 -1.2657  1.3983  0.6002
  562SOL     MW 2248   0.661   2.344   2.361  0.1911  0.7680  0.0236
  563SOL     OW 2249   1.268   0.385   0.574  0.2088 -0.8752 -0.1235
  563SOL    HW1 2250   1.227   0.319   0.515 -2.3626  0.1349  0.5541
  563SOL    HW2 2251   1.224   0.379   0.664 -4.0122 -1.6797  1.9174
  563SOL     MW 2252   1.257   0.375   0.578 -0.6874 -0.8481  0.2352
  564SOL     OW 2253   0.998   2.732   2.345 -0.1717  0.7338  0.7770
  564SOL    HW1 2254   1.024   2.810   2.302  0.1045 -0.7142  2.7944
  564SOL    HW2 2255   1.030   2.741   2.437 -1.4491  0.2691 -3.8938
  564SOL     MW 2256   1.006   2.744   2.352 -0.3038  0.4814  0.4269
  565SOL     OW 2257   2.755   2.799   2.618  0.1267 -0.5509 -0.3352
  565SOL    HW1 2258   2.721   2.869   2.563 -0.4102  1.7119  1.9822
  565SOL    HW2 2259   2.721   2.729   2.571  0.3876 -2.6001  0.1277
  565SOL     MW 2260   2.746   2.799   2.605  0.0903 -0.5227  0.0316
  566SOL     OW 2261   2.184   1.927   2.376  0.0710 -0.4822 -0.1066
  566SOL    HW1 2262   2.181   1.858   2.303 -0.1827  1.0687 -2.0356
  566SOL    HW2 2263   2.262   1.982   2.364 -2.8505 -2.2151 -0.1034
  566SOL     MW 2264   2.194   1.925   2.365 -0.3480 -0.5062 -0.3607
  567SOL     OW 2265   1.178   3.040   0.007  0.6610 -0.4935  0.1266
  567SOL    HW1 2266   1.129   3.031   0.088  0.9365 -1.0950 -1.0712
  567SOL    HW2 2267   1.237   2.959  -0.006  1.0974  0.1140 -1.5780
  567SOL     MW 2268   1.179   3.028   0.016  0.7549 -0.4927 -0.2563
  568SOL     OW 2269   1.643   2.037   2.862 -0.2348  0.0921 -0.1268
  568SOL    HW1 2270   1.691   2.099   2.918  0.7816  0.7136  1.6394
  568SOL    HW2 2271   1.707   1.985   2.811 -1.3619 -2.2794  1.6283
  568SOL     MW 2272   1.658   2.038   2.863 -0.2494 -0.1388  0.3378
  569SOL     OW 2273   0.125   2.242   2.415 -0.0848  0.1415 -0.2660
  569SOL    HW1 2274   0.075   2.299   2.358  3.3906 -1.3065  0.2550
  569SOL    HW2 2275   0.163   2.300   2.483 -0.2578 -0.9195  0.6798
  569SOL     MW 2276   0.123   2.257   2.417  0.3509 -0.1895 -0.0725
  570SOL     OW 2277   1.503   0.313   0.458  0.4342  0.2769 -0.0335
  570SOL    HW1 2278   1.423   0.357   0.499  0.3558  1.9020 -1.1917
  570SOL    HW2 2279   1.584   0.342   0.519 -0.8410  0.6487  1.6524
  570SOL     MW 2280   1.503   0.323   0.471  0.2556  0.5404  0.0361
  571SOL     OW 2281   1.347   2.360   2.133 -0.3192 -0.2596 -0.2528
  571SOL    HW1 2282   1.390   2.379   2.219  3.1816 -1.2924 -0.1266
  571SOL    HW2 2283   1.413   2.313   2.078 -3.2659 -2.3224  1.4298
  571SOL     MW 2284   1.361   2.357   2.137 -0.2461 -0.6681 -0.0141
  572SOL     OW 2285   1.104   2.596   0.104 -0.1339  0.4032 -0.1057
  572SOL    HW1 2286   1.083   2.674   0.063  0.5593 -4.0834  1.2985
  572SOL    HW2 2287   1.009   2.560   0.126 -1.5429 -0.4342 -2.2847
  572SOL     MW 2288   1.089   2.601   0.101 -0.2283 -0.2993 -0.2079
  573SOL     OW 2289   1.205   2.306   0.293 -0.2889  0.1069  0.0474
  573SOL    HW1 2290   1.285   2.289   0.238  1.6674 -0.3305  0.6517
  573SOL    HW2 2291   1.207   2.394   0.335  1.4483  0.8162  0.4023
  573SOL     MW 2292   1.216   2.315   0.291  0.1984  0.1428  0.1740
  574SOL     OW 2293   1.170   2.580   0.373  0.4532  0.3228  0.0304
  574SOL    HW1 2294   1.246   2.640   0.385  0.3746 -0.8544  0.5159
  574SOL    HW2 2295   1.139   2.599   0.287  2.3576 -0.8167 -2.2883
  574SOL     MW 2296   1.176   2.591   0.363  0.6941  0.0171 -0.2114
  575SOL     OW 2297   3.087   2.216   1.671  0.5873 -0.3200  1.1443
  575SOL    HW1 2298   3.132   2.132   1.651  0.7282 -0.4520 -0.0852
  575SOL    HW2 2299   3.160   2.266   1.710 -0.3396 -0.0520  1.9372
  575SOL     MW 2300   3.102   2.212   1.673  0.4836 -0.3020  1.0867
  576SOL     OW 2301   2.918   1.857   1.913 -0.4170 -0.3055 -0.0840
  576SOL    HW1 2302   2.961   1.931   1.876  0.2308 -0.4954 -1.5427
  576SOL    HW2 2303   2.831   1.831   1.873 -0.2045  1.0134  1.6596
  576SOL     MW 2304   2.912   1.863   1.903 -0.3035 -0.1566 -0.0464
  577SOL     OW 2305   2.148   0.164   0.042  0.0687  0.2702  0.2619
  577SOL    HW1 2306   2.084   0.139  -0.022 -1.0731  1.3000  3.1246
  577SOL    HW2 2307   2.111   0.121   0.123 -0.0255 -0.2683  2.4661
  577SOL     MW 2308   2.135   0.155   0.044 -0.0944  0.3350  0.9304
  578SOL     OW 2309   1.984   2.115   2.357 -0.0600 -0.0955  0.1536
  578SOL    HW1 2310   1.918   2.089   2.289 -2.6118 -1.2639 -0.0268
  578SOL    HW2 2311   2.067   2.056   2.339  1.5089 -1.5447  0.2629
  578SOL     MW 2312   1.986   2.104   2.346 -0.1897 -0.4409  0.1442
  579SOL     OW 2313   0.866   2.478   2.464  0.3230 -0.6778 -0.7755
  579SOL    HW1 2314   0.932   2.418   2.480  0.6241 -1.1730  0.2145
  579SOL    HW2 2315   0.894   2.533   2.394 -1.4734 -1.2508 -0.4802
  579SOL     MW 2316   0.878   2.477   2.457  0.1257 -0.8187 -0.6059
  580SOL     OW 2317   1.002   2.816   3.097  0.2094 -0.6758 -0.0597
  580SOL    HW1 2318   1.063   2.862   3.038 -2.6839  1.1149 -1.0104
  580SOL    HW2 2319   0.921   2.823   3.030 -2.7916 -2.9096  2.2761
  580SOL     MW 2320   0.999   2.823   3.080 -0.5683 -0.7343  0.1230
  581SOL     OW 2321   1.095   2.468   1.760  0.0865 -0.2811 -0.6381
  581SOL    HW1 2322   1.153   2.529   1.809 -0.6813  1.4958 -0.5528
  581SOL    HW2 2323   1.151   2.419   1.700  0.3781  0.2547 -1.0848
  581SOL     MW 2324   1.110   2.470   1.759  0.0236  0.0240 -0.6858
  582SOL     OW 2325  -0.001   2.948   2.652 -0.0831 -0.5686 -0.3341
  582SOL    HW1 2326  -0.057   2.954   2.734 -1.5271  0.5869  0.3330
  582SOL    HW2 2327   0.082   2.984   2.678 -0.1854 -2.3863 -1.6728
  582SOL     MW 2328   0.003   2.953   2.666 -0.2871 -0.6560 -0.4227
  583SOL     OW 2329   1.944   2.399   2.676  0.3537  0.0999  0.0468
  583SOL    HW1 2330   2.014   2.422   2.613  2.3749 -0.7060  1.1466
  583SOL    HW2 2331   1.937   2.301   2.675  1.2618 -2.2849  0.1000
  583SOL     MW 2332   1.953   2.389   2.668  0.7402 -0.3211  0.1990
  584SOL     OW 2333   0.188   1.880   2.191  0.4113 -0.3915 -0.1818
  584SOL    HW1 2334   0.186   1.902   2.288 -0.2816  0.6174  1.4040
  584SOL    HW2 2335   0.271   1.853   2.158 -2.6937  0.2515 -2.0509
  584SOL     MW 2336   0.198   1.879   2.199 -0.0898 -0.1736 -0.2192
  585SOL     OW 2337   1.542   2.648   0.166  0.4408 -0.6236  0.4039
  585SOL    HW1 2338   1.493   2.608   0.089  1.5802 -2.3788  0.3690
  585SOL    HW2 2339   1.471   2.693   0.220  2.0762 -1.9273 -0.3813
  585SOL     MW 2340   1.526   2.649   0.163  0.8069 -1.0272  0.2957
  586SOL     OW 2341   1.344   2.770   2.584 -0.1417 -0.1043 -0.1640
  586SOL    HW1 2342   1.390   2.732   2.508 -2.0080 -1.2984  4.0739
  586SOL    HW2 2343   1.345   2.870   2.577  0.4919  0.1450 -1.7279
  586SOL     MW 2344   1.350   2.778   2.573 -0.3044 -0.2290  0.1888
  587SOL     OW 2345   1.267   1.496   2.155  0.0607  0.8415 -0.1767
  587SOL    HW1 2346   1.292   1.413   2.192 -1.7994  0.2892  0.2775
  587SOL    HW2 2347   1.243   1.484   2.066 -0.1644 -1.5508  1.8335
  587SOL     MW 2348   1.267   1.483   2.148 -0.2145  0.4530  0.1484
  588SOL     OW 2349   1.306   2.039   2.662 -0.4890  0.2623 -0.4259
  588SOL    HW1 2350   1.352   1.959   2.691  2.8867  0.2106 -1.4977
  588SOL    HW2 2351   1.288   2.085   2.746  0.7411  0.1505 -1.4270
  588SOL     MW 2352   1.309   2.035   2.677  0.1187  0.2408 -0.6994
  589SOL     OW 2353   1.358   2.056   0.038 -0.4256  0.0002  0.1640
  589SOL    HW1 2354   1.413   2.125   0.079 -0.9933 -1.9586  1.4817
  589SOL    HW2 2355   1.331   1.995   0.108 -1.4637 -1.3566  1.6815
  589SOL     MW 2356   1.362   2.057   0.052 -0.6375 -0.4372  0.5381
  590SOL     OW 2357   0.474   2.668   2.234 -0.2106  0.3788 -0.2008
  590SOL    HW1 2358   0.471   2.694   2.134 -1.0300  1.4777 -0.0384
  590SOL    HW2 2359   0.559   2.710   2.269  2.8143 -0.8788 -0.8226
  590SOL     MW 2360   0.484   2.677   2.225  0.0804  0.3579 -0.2614
  591SOL     OW 2361   2.201   0.686   0.164  0.1855 -0.1280  0.2365
  591SOL    HW1 2362   2.133   0.698   0.231  1.7951  0.2856 -2.8361
  591SOL    HW2 2363   2.183   0.734   0.085 -1.2426 -0.7697  2.0329
  591SOL     MW 2364   2.190   0.694   0.162  0.2094 -0.1581  0.0681
  592SOL     OW 2365   1.630   2.905   0.727 -0.2077  0.4926 -0.3563
  592SOL    HW1 2366   1.612   2.997   0.741  0.7588 -0.8368  0.4849
  592SOL    HW2 2367   1.717   2.896   0.770  1.8949 -0.3378 -0.7784
  592SOL     MW 2368   1.639   2.916   0.735  0.1973  0.2076 -0.3010
  593SOL     OW 2369   1.931   0.744   0.703 -0.6145 -0.0455 -0.6390
  593SOL    HW1 2370   1.856   0.710   0.656  1.0279  2.3670  0.4151
  593SOL    HW2 2371   1.989   0.670   0.725  0.3694 -1.1435 -1.6126
  593SOL     MW 2372   1.929   0.729   0.699 -0.2680  0.1279 -0.6284
  594SOL     OW 2373   2.831   1.066   1.361  0.3998  0.9988  0.6008
  594SOL    HW1 2374   2.912   1.122   1.338  2.9604  1.4071  0.6148
  594SOL    HW2 2375   2.767   1.090   1.287 -1.5038  0.6397 -0.4847
  594SOL     MW 2376   2.833   1.077   1.348  0.4865  1.0053  0.4594
  595SOL     OW 2377   0.550   0.944   0.848  0.1985 -0.1828  0.0376
  595SOL    HW1 2378   0.509   0.993   0.772 -0.9559 -1.2083  0.1382
  595SOL    HW2 2379   0.593   1.016   0.904 -0.3346 -0.9667 -0.2603
  595SOL     MW 2380   0.550   0.959   0.845 -0.0241 -0.4216  0.0116
  596SOL     OW 2381   2.449   1.346   0.500 -0.2543 -0.1984  0.1305
  596SOL    HW1 2382   2.443   1.415   0.435 -1.1948 -3.4930 -0.4129
  596SOL    HW2 2383   2.487   1.371   0.583  0.6464 -2.7285 -0.7031
  596SOL     MW 2384   2.453   1.359   0.502 -0.2596 -0.9669 -0.0512
  597SOL     OW 2385   2.238   0.673   1.636  0.0889  0.2102  0.8520
  597SOL    HW1 2386   2.262   0.595   1.697  1.0130 -2.1602  0.0901
  597SOL    HW2 2387   2.164   0.636   1.581  2.9239  0.4648  3.9895
  597SOL     MW 2388   2.231   0.658   1.637  0.5848 -0.0690  1.1654
  598SOL     OW 2389   2.580   1.006   2.868 -0.1709 -0.4427 -0.4266
  598SOL    HW1 2390   2.588   0.914   2.853  0.9043  0.0794 -2.6445
  598SOL    HW2 2391   2.668   1.038   2.882  0.0989  0.5610  4.2018
  598SOL     MW 2392   2.592   0.998   2.868  0.0065 -0.2414 -0.1086
  599SOL     OW 2393   3.007   0.520   2.230 -0.5702  0.3705 -0.3883
  599SOL    HW1 2394   3.078   0.564   2.287  0.7294  2.1364  1.4572
  599SOL    HW2 2395   3.045   0.543   2.135  1.4092  0.4333 -1.0600
  599SOL     MW 2396   3.021   0.529   2.225 -0.1375  0.6118 -0.2334
  600SOL     OW 2397   1.835   1.690   0.820  0.0883 -0.1480 -0.0029
  600SOL    HW1 2398   1.847   1.740   0.904 -0.9087 -1.2253  0.5143
  600SOL    HW2 2399   1.748   1.719   0.801  0.4528  0.3107  0.2835
  600SOL     MW 2400   1.826   1.700   0.829  0.0049 -0.2296  0.1032
  601SOL     OW 2401   2.538   0.766   0.849  0.3093  0.2705 -0.3273
  601SOL    HW1 2402   2.545   0.736   0.944 -0.8455 -0.6653 -2.3138
  601SOL    HW2 2403   2.497   0.684   0.809 -2.6752 -0.4792  1.1092
  601SOL     MW 2404   2.534   0.752   0.857 -0.2369  0.0481 -0.3998
  602SOL     OW 2405   2.240   1.951   0.765 -0.4441  0.6047 -0.0443
  602SOL    HW1 2406   2.185   1.879   0.728 -1.9122 -0.8370 -3.0455
  602SOL    HW2 2407   2.188   2.038   0.760 -0.8241 -1.9945  0.5360
  602SOL     MW 2408   2.226   1.953   0.760 -0.6879  0.0715 -0.3637
  603SOL     OW 2409   3.027   1.341   1.981  0.4363 -0.4057  0.0947
  603SOL    HW1 2410   2.985   1.401   2.040 -1.0473  0.8811  1.9816
  603SOL    HW2 2411   3.064   1.267   2.037  2.1129 -2.1954  1.0625
  603SOL     MW 2412   3.027   1.339   1.996  0.4617 -0.4721  0.4713
  604SOL     OW 2413   2.020   1.386   0.349  0.0210  0.2510  0.9102
  604SOL    HW1 2414   2.074   1.328   0.405  1.9152 -1.2827 -1.0879
  604SOL    HW2 2415   1.948   1.409   0.407 -1.1058 -1.9222 -0.9103
  604SOL     MW 2416   2.017   1.381   0.364  0.1222 -0.2381  0.4064
  605SOL     OW 2417   2.437   1.444   0.784  0.0025 -0.3491 -0.0771
  605SOL    HW1 2418   2.396   1.500   0.719 -0.2962  0.7549  0.6932
  605SOL    HW2 2419   2.512   1.392   0.754  1.2907  1.3904  0.6379
  605SOL     MW 2420   2.441   1.444   0.771  0.1331  0.0260  0.1189
  606SOL     OW 2421   2.689   1.783   1.779  0.1612  0.1455 -0.1008
  606SOL    HW1 2422   2.608   1.805   1.735  0.1608  1.0395 -1.8655
  606SOL    HW2 2423   2.680   1.700   1.817 -2.2277  3.7692  1.5849
  606SOL     MW 2424   2.677   1.775   1.778 -0.1540  0.7416 -0.1112
  607SOL     OW 2425   2.394   1.009   3.085 -0.2224  0.6109 -0.1424
  607SOL    HW1 2426   2.476   1.015   3.026  0.9019 -0.9882  1.1374
  607SOL    HW2 2427   2.426   1.037   3.167  1.6871 -2.4811 -0.4300
  607SOL     MW 2428   2.409   1.013   3.088  0.1779 -0.0080 -0.0115
  608SOL     OW 2429   1.916   0.252   0.449 -0.2184 -0.1792 -0.6194
  608SOL    HW1 2430   1.898   0.298   0.362  0.5880 -0.2291  0.4285
  608SOL    HW2 2431   1.878   0.162   0.436 -0.2307 -0.7172  0.6949
  608SOL     MW 2432   1.908   0.246   0.436 -0.1137 -0.2568 -0.3077
  609SOL     OW 2433   2.092   1.895   3.084 -0.4425  0.4526 -0.3213
  609SOL    HW1 2434   2.064   1.824   3.026  0.5216 -0.1553  2.4881
  609SOL    HW2 2435   2.075   1.857   3.171  0.3219 -0.8420 -1.6530
  609SOL     MW 2436   2.086   1.881   3.088 -0.2144  0.2016 -0.1263
  610SOL     OW 2437   1.794   0.972   1.240 -0.2692  0.0095  0.7135
  610SOL    HW1 2438   1.765   0.906   1.173 -1.8468 -2.0843 -2.4202
  610SOL    HW2 2439   1.705   1.013   1.259  0.4135 -0.2179  0.7357
  610SOL     MW 2440   1.778   0.969   1.234 -0.3873 -0.2968  0.3030
  611SOL     OW 2441   2.475   1.661   0.576 -0.3980  0.2572 -0.6015
  611SOL    HW1 2442   2.453   1.628   0.489  0.0920 -0.9098  0.8546
  611SOL    HW2 2443   2.488   1.755   0.558  0.9559  2.8755 -1.3671
  611SOL     MW 2444   2.474   1.669   0.562 -0.1547  0.4487 -0.5104
  612SOL     OW 2445   2.897   2.850   0.399  0.1773 -0.3467 -0.2821
  612SOL    HW1 2446   2.922   2.889   0.480 -1.5131 -1.6638 -2.4285
  612SOL    HW2 2447   2.977   2.841   0.342  1.0247  0.5381  1.9154
  612SOL     MW 2448   2.911   2.854   0.402  0.0661 -0.4037 -0.2753
  613SOL     OW 2449   1.440   1.141   0.940  0.3365  0.0974 -0.4585
  613SOL    HW1 2450   1.461   1.235   0.933 -0.9862  1.0965 -1.4842
  613SOL    HW2 2451   1.472   1.113   1.031  0.2619 -1.5810 -1.6319
  613SOL     MW 2452   1.447   1.150   0.951  0.1521  0.0077 -0.7486
  614SOL     OW 2453   2.067   0.500   1.438  0.4267  0.7133 -0.0636
  614SOL    HW1 2454   2.060   0.445   1.516 -0.1155 -1.3908 -1.1255
  614SOL    HW2 2455   1.973   0.512   1.399 -0.5374  0.5882  0.4471
  614SOL     MW 2456   2.054   0.494   1.443  0.2280  0.4192 -0.1363
  615SOL     OW 2457   2.406   0.738   0.339 -0.0356  0.6960  0.3735
  615SOL    HW1 2458   2.482   0.672   0.339 -1.3022  1.1770  0.3961
  615SOL    HW2 2459   2.345   0.698   0.272  3.2801 -1.7660 -1.9097
  615SOL     MW 2460   2.408   0.724   0.330  0.2348  0.4346  0.0753
  616SOL     OW 2461   2.575   0.385   1.647 -0.1224 -0.0246 -0.1517
  616SOL    HW1 2462   2.558   0.301   1.606 -2.6898  0.4591  3.8629
  616SOL    HW2 2463   2.549   0.456   1.583 -2.9029 -0.2526  0.8907
  616SOL     MW 2464   2.569   0.383   1.633 -0.8280  0.0091  0.5155
  617SOL     OW 2465   2.802   0.566   1.820 -0.0558 -0.0526 -0.9543
  617SOL    HW1 2466   2.713   0.557   1.839  1.5570 -0.4566 -0.5571
  617SOL    HW2 2467   2.827   0.471   1.786 -1.6788  0.9014  0.0000
  617SOL     MW 2468   2.793   0.552   1.818 -0.0571  0.0200 -0.7760
  618SOL     OW 2469   2.823   0.207   1.993  0.7858 -0.3102  0.3548
  618SOL    HW1 2470   2.775   0.241   2.071  0.6538  3.0533 -1.8930
  618SOL    HW2 2471   2.912   0.187   2.026  1.0074 -1.7284 -2.5804
  618SOL     MW 2472   2.828   0.209   2.008  0.7976 -0.0535 -0.3291
  619SOL     OW 2473   2.725   0.724   0.047 -0.1824 -0.2649 -0.2730
  619SOL    HW1 2474   2.758   0.812   0.051  1.0170 -1.6981  0.1456
  619SOL    HW2 2475   2.768   0.677   0.115  0.5669 -0.5709 -4.0055
  619SOL     MW 2476   2.735   0.730   0.057  0.0747 -0.4943 -0.7102
  620SOL     OW 2477   2.230   1.013   0.908  0.1556 -0.1085 -0.4987
  620SOL    HW1 2478   2.290   0.997   0.834 -1.7888 -1.9585  0.3401
  620SOL    HW2 2479   2.143   1.029   0.874  0.2761  0.1636 -1.3687
  620SOL     MW 2480   2.227   1.013   0.893 -0.0851 -0.3167 -0.5028
  621SOL     OW 2481   1.513   2.184   1.981 -0.3328 -0.4476  0.7256
  621SOL    HW1 2482   1.451   2.139   2.034  0.7149  0.0084 -0.2446
  621SOL    HW2 2483   1.598   2.150   2.008 -0.5059  1.6766 -0.6187
  621SOL     MW 2484   1.516   2.173   1.991 -0.2174 -0.1071  0.4202
  622SOL     OW 2485   2.645   0.282   0.191 -0.2322  0.2143 -0.0479
  622SOL    HW1 2486   2.732   0.322   0.214 -2.5347  1.0196 -3.6360
  622SOL    HW2 2487   2.665   0.186   0.174  1.1891  1.2317 -0.1960
  622SOL     MW 2488   2.659   0.274   0.192 -0.3485  0.4548 -0.5408
  623SOL     OW 2489   2.347   2.789   0.805  0.3187  0.0757  0.5696
  623SOL    HW1 2490   2.414   2.856   0.790 -0.8935 -1.9077 -1.1855
  623SOL    HW2 2491   2.338   2.800   0.904 -1.8813 -2.4725  0.0835
  623SOL     MW 2492   2.355   2.799   0.816 -0.1315 -0.5222  0.2739
  624SOL     OW 2493   2.133   1.585   3.016 -0.0428  0.3487  0.1385
  624SOL    HW1 2494   2.069   1.513   2.996  0.0197 -1.7843 -0.8159
  624SOL    HW2 2495   2.165   1.563   3.099  0.9915 -0.5420 -3.5534
  624SOL     MW 2496   2.129   1.572   3.024  0.1019 -0.0503 -0.4745
  625SOL     OW 2497   2.137   1.945   1.038 -0.2789 -0.0219  0.1464
  625SOL    HW1 2498   2.189   1.869   1.070  0.3851 -1.4650 -2.3255
  625SOL    HW2 2499   2.146   1.946   0.942 -0.5068 -0.1832 -1.3281
  625SOL     MW 2500   2.145   1.935   1.030 -0.2213 -0.2336 -0.3743
  626SOL     OW 2501   0.115   1.844   2.469  0.2849 -0.0076 -0.0852
  626SOL    HW1 2502   0.076   1.753   2.496 -4.4947 -1.2342  2.4228
  626SOL    HW2 2503   0.054   1.917   2.484 -0.8468  2.6013 -1.1119
  626SOL     MW 2504   0.102   1.841   2.474 -0.4950  0.1748  0.1103
  627SOL     OW 2505   2.607   0.805   2.606  0.4736  0.6899 -0.2498
  627SOL    HW1 2506   2.524   0.856   2.589  0.1985  1.9426  0.0488
  627SOL    HW2 2507   2.613   0.747   2.532 -2.4638 -0.7600 -0.0959
  627SOL     MW 2508   2.596   0.804   2.594  0.0497  0.6639 -0.1901
  628SOL     OW 2509   2.333   1.369   1.273  0.1530 -0.6119  0.0405
  628SOL    HW1 2510   2.328   1.298   1.212  1.8788  0.8126 -0.2330
  628SOL    HW2 2511   2.429   1.371   1.284 -0.3122  3.8726 -3.3583
  628SOL     MW 2512   2.345   1.360   1.266  0.3193  0.1678 -0.4440
  629SOL     OW 2513   1.846   0.600   1.314 -0.1575 -0.4503 -0.6639
  629SOL    HW1 2514   1.910   0.653   1.265  0.8341 -0.1157  0.7416
  629SOL    HW2 2515   1.763   0.602   1.264 -1.6618  1.5874  0.6058
  629SOL     MW 2516   1.844   0.607   1.301 -0.2252 -0.1373 -0.3110
  630SOL     OW 2517   2.385   1.951   3.061 -0.6137  0.3602 -0.1961
  630SOL    HW1 2518   2.396   2.009   2.982 -1.6563  1.0149 -2.6293
  630SOL    HW2 2519   2.290   1.942   3.059  1.3990 -0.3797  0.9892
  630SOL     MW 2520   2.374   1.958   3.050 -0.4857  0.3489 -0.3608
  631SOL     OW 2521   2.094   1.876   1.475  0.0184  0.4361  0.0693
  631SOL    HW1 2522   2.059   1.807   1.534  0.6014  0.6688 -1.3582
  631SOL    HW2 2523   2.025   1.938   1.455 -1.0114  0.3317 -1.2287
  631SOL     MW 2524   2.080   1.875   1.480 -0.0406  0.4530 -0.2903
  632SOL     OW 2525   0.389   1.890   1.491  0.0978  0.3561  0.2677
  632SOL    HW1 2526   0.321   1.955   1.500  0.6976 -1.2333  2.9625
  632SOL    HW2 2527   0.342   1.800   1.506  0.7550 -3.0570  0.7859
  632SOL     MW 2528   0.374   1.887   1.494  0.2637 -0.3039  0.6916
  633SOL     OW 2529   2.618   0.580   0.362  0.1150  0.2362 -0.0807
  633SOL    HW1 2530   2.682   0.579   0.430  0.2523 -0.7286 -0.0713
  633SOL    HW2 2531   2.588   0.491   0.361  1.5735  1.9061 -0.2040
  633SOL     MW 2532   2.623   0.568   0.371  0.3255  0.3292 -0.0957
  634SOL     OW 2533   2.711   3.092   0.629  0.3878  0.5126  0.4194
  634SOL    HW1 2534   2.751   3.175   0.621  1.9879 -0.6925  0.2303
  634SOL    HW2 2535   2.686   3.073   0.538  0.2111  0.5700 -0.0005
  634SOL     MW 2536   2.713   3.101   0.616  0.5756  0.3611  0.3391
  635SOL     OW 2537   2.658   0.071   1.835 -0.3843 -0.0438 -0.6617
  635SOL    HW1 2538   2.709   0.019   1.775 -0.0952  2.4015  3.1753
  635SOL    HW2 2539   2.722   0.123   1.886  0.4576 -2.2441 -2.1926
  635SOL     MW 2540   2.673   0.071   1.834 -0.2351 -0.0115 -0.3574
  636SOL     OW 2541   2.692   1.635   0.749 -0.0311 -0.1344 -0.1673
  636SOL    HW1 2542   2.640   1.612   0.673  1.7986  0.3471 -2.8985
  636SOL    HW2 2543   2.683   1.728   0.757  2.4690 -0.7516  0.7736
  636SOL     MW 2544   2.684   1.645   0.740  0.5402 -0.1523 -0.4035
  637SOL     OW 2545   2.945   1.433   0.713  0.3760 -0.0997 -0.0829
  637SOL    HW1 2546   2.980   1.525   0.715  0.5812 -0.1109 -2.1867
  637SOL    HW2 2547   2.853   1.450   0.699  1.5187 -1.2747 -1.3540
  637SOL     MW 2548   2.938   1.447   0.711  0.5538 -0.2562 -0.5282
  638SOL     OW 2549   2.828   0.531   0.557  0.1338  0.0119  0.1688
  638SOL    HW1 2550   2.909   0.573   0.534 -0.9529 -2.3626 -2.2134
  638SOL    HW2 2551   2.799   0.561   0.645  0.3431 -1.9858  1.1130
  638SOL     MW 2552   2.835   0.541   0.566  0.0180 -0.5649 -0.0209
  639SOL     OW 2553   1.825   3.084   0.521  0.0354  0.0490 -0.3670
  639SOL    HW1 2554   1.741   3.095   0.561  2.5628  1.3369 -4.7151
  639SOL    HW2 2555   1.810   2.995   0.490 -0.8787 -0.0209  1.2328
  639SOL     MW 2556   1.812   3.073   0.523  0.2483  0.2097 -0.7296
  640SOL     OW 2557   0.291   1.442   0.128  0.3711 -0.0224  0.0821
  640SOL    HW1 2558   0.321   1.472   0.039 -1.5360 -0.8270 -1.5844
  640SOL    HW2 2559   0.347   1.369   0.153 -1.3213  2.0840  0.2342
  640SOL     MW 2560   0.303   1.437   0.119 -0.1038  0.1494 -0.1177
  641SOL     OW 2561   2.327   0.381   0.392  0.4933  0.7754  0.2846
  641SOL    HW1 2562   2.302   0.300   0.346 -0.2399  0.7367  2.8152
  641SOL    HW2 2563   2.360   0.345   0.476  2.4769  0.7142  2.5090
  641SOL     MW 2564   2.328   0.366   0.397  0.6583  0.7622  0.9120
  642SOL     OW 2565   0.123   3.062   0.468 -0.2938 -0.5612  0.0067
  642SOL    HW1 2566   0.071   3.146   0.466  2.2532  0.7699  0.5408
  642SOL    HW2 2567   0.062   2.995   0.495 -0.0208  0.8319 -3.3601
  642SOL     MW 2568   0.108   3.064   0.472  0.0782 -0.2018 -0.3670
  643SOL     OW 2569   2.130   0.345   1.670  0.2371 -0.2646 -0.5330
  643SOL    HW1 2570   2.040   0.323   1.710  0.0750 -1.7395  2.0886
  643SOL    HW2 2571   2.142   0.288   1.593 -1.2115  0.1727  0.9624
  643SOL     MW 2572   2.120   0.335   1.665  0.0246 -0.4015  0.0102
  644SOL     OW 2573   2.701   1.905   0.942 -0.1127 -0.1605 -0.2755
  644SOL    HW1 2574   2.671   1.844   1.003 -0.2011  0.2659 -1.4595
  644SOL    HW2 2575   2.627   1.956   0.905 -0.1362 -2.0554  2.0959
  644SOL     MW 2576   2.687   1.903   0.945 -0.1275 -0.3542 -0.1188
  645SOL     OW 2577   2.829   0.990   0.785  0.0054 -0.0604  0.3500
  645SOL    HW1 2578   2.924   0.975   0.783  1.0737 -0.5410  1.5582
  645SOL    HW2 2579   2.808   0.970   0.878  1.9810 -2.0455  0.2129
  645SOL     MW 2580   2.839   0.986   0.797  0.4070 -0.3857  0.4914
  646SOL     OW 2581   0.127   2.274   0.847  0.1702  0.1137  0.0108
  646SOL    HW1 2582   0.124   2.171   0.841  2.0187 -5.4732 -1.3255
  646SOL    HW2 2583   0.084   2.317   0.770 -2.2366  0.3493 -0.6722
  646SOL     MW 2584   0.121   2.266   0.836  0.0965 -0.5923 -0.2556
  647SOL     OW 2585   2.799   0.477   3.025  0.1545 -0.7031 -0.1301
  647SOL    HW1 2586   2.706   0.454   3.044 -0.5179 -0.9953 -2.9926
  647SOL    HW2 2587   2.800   0.564   3.068 -0.6742 -2.2157  3.3533
  647SOL     MW 2588   2.787   0.486   3.033 -0.0436 -0.9412 -0.0482
  648SOL     OW 2589   2.116   0.629   1.122 -0.3312 -0.0280 -0.0394
  648SOL    HW1 2590   2.190   0.581   1.170  0.2224  1.2979  2.5610
  648SOL    HW2 2591   2.141   0.721   1.124  1.1850 -1.8862 -3.1509
  648SOL     MW 2592   2.129   0.635   1.128 -0.0581 -0.0983 -0.1069
  649SOL     OW 2593   2.402   2.681   1.310 -0.5859 -0.7119 -0.4154
  649SOL    HW1 2594   2.490   2.718   1.325 -0.4781 -0.4390 -1.8777
  649SOL    HW2 2595   2.436   2.591   1.288 -0.2378 -0.0443  2.8620
  649SOL     MW 2596   2.418   2.674   1.309 -0.5257 -0.5878 -0.1759
  650SOL     OW 2597   2.736   0.253   0.517  0.6951  0.4507  0.2304
  650SOL    HW1 2598   2.772   0.340   0.543  1.6920 -0.1162 -0.1514
  650SOL    HW2 2599   2.729   0.258   0.422  1.2032  2.7721  1.0256
  650SOL     MW 2600   2.740   0.265   0.508  0.8937  0.6822  0.2850
  651SOL     OW 2601   0.006   0.467   0.995  0.5363  0.1661 -0.2216
  651SOL    HW1 2602   0.036   0.534   0.931 -0.4555 -1.3329 -3.0650
  651SOL    HW2 2603  -0.090   0.488   1.016 -0.5383  1.0950  0.0903
  651SOL     MW 2604  -0.003   0.479   0.990  0.2637  0.0909 -0.5556
  652SOL     OW 2605   2.325   1.429   2.889  0.3578  0.0594 -0.4695
  652SOL    HW1 2606   2.378   1.466   2.817  0.1127 -1.7767 -0.0184
  652SOL    HW2 2607   2.256   1.492   2.915 -0.1777 -2.7077 -1.0224
  652SOL     MW 2608   2.323   1.442   2.883  0.2548 -0.5479 -0.4830
  653SOL     OW 2609   1.845   0.376   0.209 -0.1114  0.1405 -0.5283
  653SOL    HW1 2610   1.840   0.280   0.189 -0.5029  0.4625 -1.3126
  653SOL    HW2 2611   1.875   0.409   0.126  1.0249  0.7448  1.6040
  653SOL     MW 2612   1.849   0.368   0.195 -0.0131  0.2627 -0.3504
  654SOL     OW 2613   2.454   0.996   0.739  0.4172 -0.3497  0.1938
  654SOL    HW1 2614   2.399   0.978   0.666 -1.9767 -0.7788  1.4556
  654SOL    HW2 2615   2.478   0.902   0.770 -0.9186  1.8816  2.9626
  654SOL     MW 2616   2.450   0.981   0.734 -0.0749 -0.1119  0.7256
  655SOL     OW 2617   2.932   0.957   0.307  1.0003 -0.2778  0.1901
  655SOL    HW1 2618   2.889   1.005   0.375  2.2968  1.4493 -1.8989
  655SOL    HW2 2619   2.983   0.888   0.348  1.0231  0.1670  0.9338
  655SOL     MW 2620   2.933   0.954   0.321  1.1743  0.0088  0.0126
  656SOL     OW 2621   1.729   2.673   1.440 -0.6062  0.2869  0.0075
  656SOL    HW1 2622   1.802   2.732   1.431  0.5826 -1.0286  0.2044
  656SOL    HW2 2623   1.768   2.587   1.446 -1.5623  0.7466  1.2335
  656SOL     MW 2624   1.744   2.669   1.440 -0.5755  0.1740  0.1952
  657SOL     OW 2625   0.087   1.777   1.120 -0.0479 -0.1946  0.1542
  657SOL    HW1 2626   0.174   1.808   1.126  0.6336 -0.2482  1.4276
  657SOL    HW2 2627   0.098   1.694   1.165  2.5058  2.8196  2.9304
  657SOL     MW 2628   0.100   1.770   1.126  0.3790  0.1960  0.6885
  658SOL     OW 2629   2.646   1.343   0.213 -0.4807 -0.1233 -0.1187
  658SOL    HW1 2630   2.628   1.270   0.273 -1.8604  0.6258  1.0956
  658SOL    HW2 2631   2.673   1.418   0.273 -0.9492 -3.2064 -0.0708
  658SOL     MW 2632   2.647   1.343   0.229 -0.7245 -0.4313  0.0478
  659SOL     OW 2633   2.110   1.404   1.038  0.7432  0.7996 -0.4745
  659SOL    HW1 2634   2.173   1.336   1.037 -3.1569 -1.4789 -0.4324
  659SOL    HW2 2635   2.144   1.458   1.104 -0.3386 -1.7516 -0.5445
  659SOL     MW 2636   2.123   1.402   1.046  0.0859  0.1624 -0.4782
  660SOL     OW 2637   2.080   1.615   1.598 -0.2557 -0.1476 -0.4340
  660SOL    HW1 2638   2.089   1.590   1.689 -1.7343  0.1437 -1.7591
  660SOL    HW2 2639   2.003   1.552   1.588 -0.5399 -0.1936 -0.9571
  660SOL     MW 2640   2.071   1.604   1.609 -0.4883 -0.1153 -0.6779
  661SOL     OW 2641   2.377   0.988   0.279 -0.0004 -0.4934  0.6582
  661SOL    HW1 2642   2.455   1.036   0.326  1.9347 -1.0487  0.5531
  661SOL    HW2 2643   2.401   0.891   0.278 -0.6674  0.8034  0.3479
  661SOL     MW 2644   2.390   0.982   0.285  0.1669 -0.3956  0.6034
  662SOL     OW 2645   2.502   2.989   0.785 -0.2131  0.0655 -0.0349
  662SOL    HW1 2646   2.465   3.049   0.850 -0.5050  1.8746  0.5602
  662SOL    HW2 2647   2.578   3.025   0.738  3.5579 -4.3515 -0.3524
  662SOL     MW 2648   2.507   3.002   0.788  0.2459 -0.2786  0.0017
  663SOL     OW 2649   2.729   1.541   0.398  0.1082  0.2514  0.1359
  663SOL    HW1 2650   2.700   1.626   0.366  0.9827 -2.0123  0.1359
  663SOL    HW2 2651   2.816   1.562   0.431  4.5637  0.7619 -0.7547
  663SOL     MW 2652   2.737   1.555   0.398  0.8115  0.0201  0.0184
  664SOL     OW 2653   2.533   1.491   1.562 -0.0326  0.2011  0.6459
  664SOL    HW1 2654   2.524   1.584   1.544 -3.0213  0.1725 -0.3587
  664SOL    HW2 2655   2.456   1.453   1.520  3.0755 -0.7213 -1.3935
  664SOL     MW 2656   2.522   1.498   1.554 -0.0169  0.0757  0.2443
  665SOL     OW 2657   2.875   0.761   2.162 -0.4670  0.5536  0.4422
  665SOL    HW1 2658   2.884   0.792   2.071  2.3149 -0.9084  0.1608
  665SOL    HW2 2659   2.932   0.683   2.165 -1.6607 -1.9826  0.6144
  665SOL     MW 2660   2.884   0.755   2.151 -0.2574  0.0261  0.4278
  666SOL     OW 2661   2.808   2.960   1.684  0.3732  0.0514 -0.3612
  666SOL    HW1 2662   2.784   2.985   1.594  1.5657 -0.7402  0.4154
  666SOL    HW2 2663   2.737   2.898   1.719 -0.8739 -1.6356  1.4086
  666SOL     MW 2664   2.796   2.955   1.677  0.3660 -0.2756 -0.0252
  667SOL     OW 2665   1.996   2.695   1.738 -0.2861  0.0582 -0.1814
  667SOL    HW1 2666   2.020   2.670   1.829 -0.2997 -0.9563  1.0092
  667SOL    HW2 2667   2.064   2.749   1.700 -2.3683 -4.0219 -0.5644
  667SOL     MW 2668   2.008   2.699   1.745 -0.5626 -0.6140 -0.0749
  668SOL     OW 2669   2.763   0.620   0.813 -0.6606  0.3123 -0.2167
  668SOL    HW1 2670   2.803   0.628   0.899 -1.2946 -0.8430  0.2730
  668SOL    HW2 2671   2.696   0.687   0.807 -2.0949 -0.6313 -2.2134
  668SOL     MW 2672   2.759   0.630   0.824 -0.9335  0.0354 -0.4156
  669SOL     OW 2673   0.196   0.997   0.684  0.1148 -0.5223  0.3086
  669SOL    HW1 2674   0.165   1.007   0.780  0.2425 -1.5716  1.8910
  669SOL    HW2 2675   0.277   1.057   0.675  1.1244 -2.9667  0.7541
  669SOL     MW 2676   0.202   1.007   0.696  0.2648 -0.9833  0.5762
  670SOL     OW 2677   2.911   0.336   0.247  0.1563 -0.2459 -0.3694
  670SOL    HW1 2678   2.923   0.267   0.180 -0.2072  1.5672  1.3508
  670SOL    HW2 2679   2.940   0.423   0.209  2.3967  1.0142  0.3677
  670SOL     MW 2680   2.916   0.338   0.233  0.4040  0.1596 -0.0452
  671SOL     OW 2681   2.064   3.022   1.493  0.3087  0.0699  0.9326
  671SOL    HW1 2682   1.988   3.005   1.436  1.1248  1.2609  1.7199
  671SOL    HW2 2683   2.020   3.040   1.577 -0.5338  1.5460  2.0516
  671SOL     MW 2684   2.049   3.022   1.497  0.3052  0.4218  1.1842
  672SOL     OW 2685   1.796   1.806   1.299  0.2168  0.7812 -0.1268
  672SOL    HW1 2686   1.809   1.888   1.360 -0.1407  1.6580 -0.7804
  672SOL    HW2 2687   1.827   1.831   1.212 -1.5591 -0.4512 -1.4675
  672SOL     MW 2688   1.802   1.820   1.296 -0.0647  0.7343 -0.3899
  673SOL     OW 2689   2.826   1.091   0.524  0.2454  0.0039 -0.0081
  673SOL    HW1 2690   2.822   1.037   0.600 -0.7261  1.1996  2.8119
  673SOL    HW2 2691   2.907   1.142   0.546 -1.7583  2.4843  2.7919
  673SOL     MW 2692   2.836   1.091   0.537 -0.1472  0.4889  0.7334
  674SOL     OW 2693   2.475   3.044   1.190  0.4570 -0.2440 -0.4293
  674SOL    HW1 2694   2.432   3.094   1.120 -0.4934  1.2745  0.2369
  674SOL    HW2 2695   2.417   2.972   1.192 -0.4074  1.9178 -1.6624
  674SOL     MW 2696   2.462   3.041   1.181  0.2176  0.2416 -0.5041
  675SOL     OW 2697   3.004   0.841   1.041  0.5411  0.1267 -0.4986
  675SOL    HW1 2698   3.070   0.840   1.112  0.6007  0.3339  1.1531
  675SOL    HW2 2699   3.031   0.919   0.983  0.6292  0.2083 -3.6548
  675SOL     MW 2700   3.016   0.851   1.043  0.5606  0.1648 -0.6971
  676SOL     OW 2701   2.894   1.423   1.735  0.1501 -0.1546  0.2828
  676SOL    HW1 2702   2.873   1.349   1.679  0.7335 -4.3458  0.4875
  676SOL    HW2 2703   2.937   1.388   1.811 -0.8381 -2.3026 -0.9915
  676SOL     MW 2704   2.897   1.408   1.738  0.0967 -0.9910  0.1417
  677SOL     OW 2705   2.490   0.721   1.874  0.3923  0.0277  0.0697
  677SOL    HW1 2706   2.458   0.632   1.859  4.3739 -1.4140  0.7846
  677SOL    HW2 2707   2.406   0.775   1.876 -1.5090  2.1611  0.3557
  677SOL     MW 2708   2.474   0.716   1.872  0.6668  0.1190  0.2017
  678SOL     OW 2709   2.384   1.567   0.323  0.4209  0.1071 -0.0367
  678SOL    HW1 2710   2.297   1.568   0.365  1.6608 -0.3280  0.3274
  678SOL    HW2 2711   2.378   1.517   0.238  0.0989 -0.2883 -0.7997
  678SOL     MW 2712   2.371   1.561   0.317  0.5420 -0.0025 -0.0893
  679SOL     OW 2713   2.272   0.466   1.253 -0.1405  0.5124 -0.4765
  679SOL    HW1 2714   2.248   0.394   1.193  1.6746 -1.7093 -0.4088
  679SOL    HW2 2715   2.196   0.481   1.308  0.0607  1.7772 -1.2713
  679SOL     MW 2716   2.259   0.458   1.252  0.1256  0.3862 -0.5724
  680SOL     OW 2717   2.433   0.169   1.488 -0.7643  0.0332 -0.2382
  680SOL    HW1 2718   2.345   0.184   1.468  0.1493  0.1168  1.2268
  680SOL    HW2 2719   2.471   0.146   1.406 -1.5014  2.7394  3.3859
  680SOL     MW 2720   2.426   0.168   1.475 -0.7410  0.4013  0.4332
  681SOL     OW 2721   0.242   0.585   1.456  0.4648  0.2366  0.4541
  681SOL    HW1 2722   0.208   0.506   1.491 -1.0897 -1.2585 -2.4801
  681SOL    HW2 2723   0.247   0.569   1.359  2.6964  0.7638 -1.9447
  681SOL     MW 2724   0.238   0.572   1.448  0.5541  0.1089 -0.2496
  682SOL     OW 2725   3.039   2.850   1.533 -0.2670 -0.1912  0.2522
  682SOL    HW1 2726   3.118   2.899   1.550 -3.8762  0.9200 -1.2208
  682SOL    HW2 2727   2.985   2.896   1.593  5.0186 -1.5223  0.0411
  682SOL     MW 2728   3.042   2.862   1.543 -0.0458 -0.2202  0.0300
  683SOL     OW 2729   2.118   0.801   3.024  0.0876  0.3415  0.2149
  683SOL    HW1 2730   2.052   0.730   3.023 -1.1721  3.3828  0.7946
  683SOL    HW2 2731   2.054   0.873   3.048 -1.8577  0.3111 -0.5523
  683SOL     MW 2732   2.101   0.801   3.027 -0.3353  0.7388  0.1902
  684SOL     OW 2733   2.059   1.766   0.692 -0.1599  0.2402  0.0339
  684SOL    HW1 2734   2.097   1.712   0.617  2.4464  1.1703  0.7453
  684SOL    HW2 2735   1.979   1.720   0.723 -0.9662  0.1096  2.3417
  684SOL     MW 2736   2.053   1.753   0.686  0.0776  0.3457  0.4323
  685SOL     OW 2737   2.625   1.749   1.170 -0.4252  0.3453 -0.0831
  685SOL    HW1 2738   2.661   1.726   1.256  2.9954 -2.6935 -2.4854
  685SOL    HW2 2739   2.598   1.664   1.137  1.3986 -3.3676  0.4037
  685SOL     MW 2740   2.626   1.735   1.177  0.2667 -0.5455 -0.3358
  686SOL     OW 2741   2.829   0.653   1.532  0.5341  0.4189 -0.3360
  686SOL    HW1 2742   2.819   0.622   1.623  0.7979 -0.2859  2.0757
  686SOL    HW2 2743   2.926   0.667   1.525  0.9197 -2.2810 -0.9833
  686SOL     MW 2744   2.840   0.650   1.543  0.6198 -0.0303 -0.1032
  687SOL     OW 2745   2.167   0.216   1.100  0.4904  0.5676  0.6681
  687SOL    HW1 2746   2.204   0.154   1.043  2.3333 -1.2559  0.7480
  687SOL    HW2 2747   2.128   0.271   1.033 -0.9315 -0.5717  0.9894
  687SOL     MW 2748   2.167   0.215   1.084  0.5460  0.1767  0.7210
  688SOL     OW 2749   2.476   0.588   1.496 -0.0576 -0.4119  0.3239
  688SOL    HW1 2750   2.439   0.542   1.421 -0.2397  0.0872  1.6827
  688SOL    HW2 2751   2.402   0.623   1.549 -0.9853  0.1309  1.4143
  688SOL     MW 2752   2.462   0.587   1.493 -0.2040 -0.2744  0.6470
  689SOL     OW 2753   2.499   0.753   3.017 -0.2039  0.4470 -0.0728
  689SOL    HW1 2754   2.449   0.825   3.057  0.3259 -1.6504  2.6955
  689SOL    HW2 2755   2.573   0.728   3.071  0.6731  0.8857  1.1704
  689SOL     MW 2756   2.502   0.759   3.029 -0.0183  0.2281  0.4564
  690SOL     OW 2757   2.027   0.969   1.835  0.6878 -0.2309  0.1189
  690SOL    HW1 2758   2.026   0.873   1.838 -1.7320 -0.5833  0.0444
  690SOL    HW2 2759   2.086   0.994   1.757  0.0176  1.2071 -1.7788
  690SOL     MW 2760   2.035   0.960   1.825  0.2801 -0.0877 -0.1413
  691SOL     OW 2761   2.428   0.296   0.889  0.2316 -0.2976  0.2118
  691SOL    HW1 2762   2.525   0.295   0.898  0.5326  0.9750 -2.4000
  691SOL    HW2 2763   2.424   0.385   0.863 -0.2233 -3.1245  2.2796
  691SOL     MW 2764   2.440   0.308   0.887  0.2113 -0.5027  0.1400
  692SOL     OW 2765   2.759   1.638   1.382  0.1823  0.2416  0.0518
  692SOL    HW1 2766   2.693   1.638   1.452 -2.1924 -0.6722  0.9143
  692SOL    HW2 2767   2.821   1.704   1.410  3.7695 -0.3624 -2.8900
  692SOL     MW 2768   2.758   1.647   1.395  0.3423  0.0414 -0.2226
  693SOL     OW 2769   2.221   0.427   3.084 -0.5814 -0.5127 -0.4024
  693SOL    HW1 2770   2.201   0.343   3.121 -0.2705 -2.9152  2.2161
  693SOL    HW2 2771   2.177   0.494   3.134 -1.7474 -1.4306  0.5671
  693SOL     MW 2772   2.212   0.425   3.096 -0.6942 -0.9508  0.0710
  694SOL     OW 2773   1.971   1.187   1.187  0.1245 -0.1363 -0.0088
  694SOL    HW1 2774   2.067   1.159   1.193  1.1642 -0.3399 -1.6805
  694SOL    HW2 2775   1.911   1.109   1.193 -0.4435 -1.6898  0.9501
  694SOL     MW 2776   1.976   1.173   1.188  0.1867 -0.3681 -0.1028
  695SOL     OW 2777   2.923   1.441   1.309 -0.1958  0.3522  0.5083
  695SOL    HW1 2778   2.904   1.414   1.216 -3.1849 -0.9669  0.0515
  695SOL    HW2 2779   2.860   1.510   1.331 -0.1429 -3.2289 -1.0647
  695SOL     MW 2780   2.912   1.446   1.300 -0.5832 -0.2943  0.2405
  696SOL     OW 2781   2.042   1.339   0.753  0.0846 -0.8364 -0.2292
  696SOL    HW1 2782   2.075   1.389   0.829 -0.3988  1.1608  1.1009
  696SOL    HW2 2783   1.985   1.271   0.788 -0.8382  0.0883  1.4596
  696SOL     MW 2784   2.039   1.336   0.768 -0.1010 -0.4509  0.1691
  697SOL     OW 2785   2.930   1.044   2.245  0.1264 -0.2531  0.5845
  697SOL    HW1 2786   2.865   1.114   2.229 -1.1484  1.4156 -1.6803
  697SOL    HW2 2787   2.887   0.955   2.246  1.6228 -0.1769  1.4910
  697SOL     MW 2788   2.916   1.042   2.243  0.1556 -0.0229  0.4053
  698SOL     OW 2789   2.499   0.368   3.062 -0.4782 -0.6137 -0.1940
  698SOL    HW1 2790   2.431   0.439   3.077  1.6574 -3.2469  1.0534
  698SOL    HW2 2791   2.524   0.345   3.149  0.4211  0.0573 -0.2551
  698SOL     MW 2792   2.493   0.375   3.075 -0.0778 -0.8726 -0.0375
  699SOL     OW 2793   1.853   1.571   1.989 -0.5632  0.1972 -0.0514
  699SOL    HW1 2794   1.816   1.489   2.032  0.0154 -1.6566 -2.0424
  699SOL    HW2 2795   1.941   1.547   1.960  0.6196  0.4130  0.7607
  699SOL     MW 2796   1.860   1.557   1.991 -0.3308 -0.0189 -0.2069
  700SOL     OW 2797   2.716   0.891   1.571  0.2864 -0.2709 -0.4594
  700SOL    HW1 2798   2.795   0.939   1.603  1.4567  1.1513  1.7418
  700SOL    HW2 2799   2.747   0.801   1.563  1.9307 -0.5047  2.1566
  700SOL     MW 2800   2.731   0.886   1.574  0.6578 -0.1141  0.1762
  701SOL     OW 2801   1.627   1.061   2.578 -0.0129 -0.1690 -0.5565
  701SOL    HW1 2802   1.719   1.036   2.607  1.4956  0.2199  0.0114
  701SOL    HW2 2803   1.599   1.145   2.626  0.0813 -2.0041 -2.5933
  701SOL     MW 2804   1.636   1.068   2.588  0.1986 -0.3598 -0.7503
  702SOL     OW 2805   2.075   0.494   0.696  0.0986 -0.0020  0.5169
  702SOL    HW1 2806   2.080   0.399   0.657  1.6642  2.2315 -1.9052
  702SOL    HW2 2807   2.149   0.549   0.656 -0.8182  0.3540 -0.1184
  702SOL     MW 2808   2.086   0.489   0.685  0.1842  0.3397  0.1135
  703SOL     OW 2809   2.668   1.257   0.996 -0.8675 -0.0555  0.3013
  703SOL    HW1 2810   2.643   1.243   0.904  1.7068 -1.0668 -0.4447
  703SOL    HW2 2811   2.677   1.163   1.025 -0.9145 -0.0532  0.8019
  703SOL     MW 2812   2.666   1.243   0.988 -0.5341 -0.1886  0.2689
  704SOL     OW 2813   3.071   1.276   0.185  0.4575 -0.4011  0.7747
  704SOL    HW1 2814   2.975   1.275   0.164 -0.6530 -2.0375  1.0272
  704SOL    HW2 2815   3.075   1.212   0.255  3.3000  0.3558  0.6115
  704SOL     MW 2816   3.059   1.268   0.192  0.6860 -0.5172  0.7865
  705SOL     OW 2817   2.053   1.614   1.303  0.2601  0.0763 -0.0813
  705SOL    HW1 2818   1.974   1.672   1.300 -3.0212  1.7551  2.7240
  705SOL    HW2 2819   2.080   1.622   1.395 -2.2308  0.7600  1.1842
  705SOL     MW 2820   2.046   1.623   1.314 -0.5014  0.3880  0.4558
  706SOL     OW 2821   3.062   1.183   0.646 -0.1795  0.2995 -0.4717
  706SOL    HW1 2822   3.106   1.192   0.561  1.9732  0.6361 -2.0657
  706SOL    HW2 2823   3.052   1.276   0.670  0.0164  1.3561  0.5925
  706SOL     MW 2824   3.066   1.196   0.638  0.1304  0.4833 -0.5416
  707SOL     OW 2825   2.332   0.044   0.937 -0.1170 -0.3880 -0.3546
  707SOL    HW1 2826   2.371   0.134   0.919 -0.0244  1.5258  1.4731
  707SOL    HW2 2827   2.260   0.028   0.880  3.3032  0.1607  1.0671
  707SOL     MW 2828   2.327   0.054   0.927  0.3465 -0.0631  0.0741
  708SOL     OW 2829   2.386   1.424   0.081 -0.1334 -0.0542 -0.5320
  708SOL    HW1 2830   2.473   1.389   0.096 -1.2050  0.3069  2.1465
  708SOL    HW2 2831   2.381   1.422  -0.012  0.9906 -0.0248  0.0893
  708SOL     MW 2832   2.396   1.419   0.070 -0.1265 -0.0027 -0.0966
  709SOL     OW 2833   1.699   1.576   0.228  0.1091 -0.0258  0.0551
  709SOL    HW1 2834   1.694   1.591   0.133 -0.8974 -0.6761 -0.6078
  709SOL    HW2 2835   1.614   1.608   0.266 -0.3225 -1.5963  0.6323
  709SOL     MW 2836   1.687   1.582   0.221 -0.0806 -0.3188  0.0438
  710SOL     OW 2837   2.251   1.161   1.117 -0.0191 -0.5277 -0.3805
  710SOL    HW1 2838   2.252   1.106   1.037 -2.9741 -0.3834 -1.1239
  710SOL    HW2 2839   2.288   1.101   1.184  2.1609  0.5399  1.9083
  710SOL     MW 2840   2.256   1.146   1.115 -0.1213 -0.3678 -0.1766
  711SOL     OW 2841   2.398   0.090   1.766  0.2282  0.0055 -0.4530
  711SOL    HW1 2842   2.490   0.065   1.783  0.8134  2.4683  0.7353
  711SOL    HW2 2843   2.398   0.077   1.671 -0.5826  3.4726  0.0239
  711SOL     MW 2844   2.410   0.085   1.755  0.1984  0.7879 -0.2333
  712SOL     OW 2845   1.886   0.622   3.084 -0.1544  0.1890 -0.2995
  712SOL    HW1 2846   1.826   0.660   3.023  0.9281 -0.4897  1.2264
  712SOL    HW2 2847   1.851   0.666   3.169 -0.4232 -0.8203 -0.1128
  712SOL     MW 2848   1.873   0.633   3.087 -0.0471 -0.0337 -0.0735
  713SOL     OW 2849   2.594   0.687   1.110  0.3417  0.2691 -0.3102
  713SOL    HW1 2850   2.615   0.591   1.122 -0.9267  1.0505  0.0435
  713SOL    HW2 2851   2.603   0.732   1.194 -2.5596 -0.9962  1.5540
  713SOL     MW 2852   2.598   0.680   1.123 -0.2085  0.2052 -0.0176
  714SOL     OW 2853   2.227   0.201   1.983  0.5341  0.0062 -0.1908
  714SOL    HW1 2854   2.276   0.164   2.055  1.0324  0.1702 -0.4423
  714SOL    HW2 2855   2.282   0.169   1.913  1.0921 -1.0590  0.9233
  714SOL     MW 2856   2.241   0.192   1.984  0.6735 -0.1127 -0.0770
  715SOL     OW 2857   1.829   1.978   1.704 -0.3503 -0.0845  0.2929
  715SOL    HW1 2858   1.923   2.009   1.724 -0.3382 -0.5377  0.3878
  715SOL    HW2 2859   1.816   1.889   1.743  0.6961 -2.3798 -0.0581
  715SOL     MW 2860   1.840   1.970   1.711 -0.2106 -0.4472  0.2591
  716SOL     OW 2861   2.440   0.551   0.733 -0.2286  0.2971  0.0477
  716SOL    HW1 2862   2.522   0.522   0.689  2.7227 -0.5699 -1.0190
  716SOL    HW2 2863   2.379   0.581   0.668  0.7996  2.0595 -0.7230
  716SOL     MW 2864   2.443   0.551   0.719  0.2964  0.4152 -0.1947
  717SOL     OW 2865   2.785   1.682   2.835 -0.3612  0.1146 -0.2414
  717SOL    HW1 2866   2.858   1.627   2.868  0.3547 -2.4311  1.5542
  717SOL    HW2 2867   2.744   1.707   2.914  1.1166 -0.9046 -2.6639
  717SOL     MW 2868   2.789   1.678   2.849 -0.0718 -0.3558 -0.3241
  718SOL     OW 2869   2.635   1.303   1.319 -0.1259 -0.2189  0.7275
  718SOL    HW1 2870   2.616   1.347   1.397 -1.2811  0.0049 -2.5042
  718SOL    HW2 2871   2.721   1.340   1.293 -0.2254  1.9521  0.6120
  718SOL     MW 2872   2.644   1.314   1.326 -0.2915  0.0971  0.2859
  719SOL     OW 2873   2.180   1.229   0.521 -0.1867 -0.1269  0.0647
  719SOL    HW1 2874   2.275   1.246   0.512 -1.5541 -3.9692  0.1247
  719SOL    HW2 2875   2.147   1.266   0.610  0.3062 -0.1764  0.2401
  719SOL     MW 2876   2.188   1.236   0.531 -0.3021 -0.6404  0.0958
  720SOL     OW 2877   2.838   1.262   0.034 -0.2410  0.1882 -0.2762
  720SOL    HW1 2878   2.842   1.165   0.045 -1.1237 -2.2717 -2.3044
  720SOL    HW2 2879   2.769   1.296   0.089  1.3809 -0.1013  1.2565
  720SOL     MW 2880   2.829   1.254   0.043 -0.1435 -0.1746 -0.3416
  721SOL     OW 2881   2.566   0.812   1.371 -0.4724  0.1373 -0.2637
  721SOL    HW1 2882   2.540   0.738   1.429 -0.7552 -1.9818  0.2656
  721SOL    HW2 2883   2.632   0.863   1.418  0.0923  3.6199  2.6053
  721SOL     MW 2884   2.571   0.809   1.385 -0.4352  0.3172  0.1847
  722SOL     OW 2885   2.590   1.132   0.393  0.0864  0.2475 -0.6095
  722SOL    HW1 2886   2.548   1.207   0.442  1.2713 -2.7393  2.1246
  722SOL    HW2 2887   2.674   1.121   0.442 -0.2597 -1.4901 -0.4011
  722SOL     MW 2888   2.596   1.141   0.406  0.1971 -0.3759 -0.2213
  723SOL     OW 2889   2.280   1.349   1.547 -0.2038  0.1676  0.1445
  723SOL    HW1 2890   2.286   1.341   1.452 -0.1106  1.1842  0.4099
  723SOL    HW2 2891   2.187   1.362   1.576 -2.0442  0.9862  1.9121
  723SOL     MW 2892   2.268   1.349   1.538 -0.4343  0.4098  0.4127
  724SOL     OW 2893   2.469   0.241   0.608 -0.8598 -0.2452 -0.2735
  724SOL    HW1 2894   2.448   0.247   0.699 -1.2527 -0.6682 -1.1904
  724SOL    HW2 2895   2.564   0.249   0.600  0.8096 -2.2585 -0.2242
  724SOL     MW 2896   2.479   0.243   0.619 -0.6914 -0.5666 -0.3880
  725SOL     OW 2897   2.644   0.404   1.163 -0.1354 -0.4701 -0.4573
  725SOL    HW1 2898   2.723   0.419   1.207 -2.6301  0.0425 -1.3787
  725SOL    HW2 2899   2.599   0.330   1.207  0.1928 -0.2475 -0.7751
  725SOL     MW 2900   2.649   0.396   1.175 -0.4212 -0.3731 -0.6208
  726SOL     OW 2901   2.478   2.482   0.436 -0.2523 -0.1305 -0.1450
  726SOL    HW1 2902   2.505   2.560   0.385 -2.2619  1.7641  0.2582
  726SOL    HW2 2903   2.429   2.524   0.514 -1.9708 -2.3919  0.8399
  726SOL     MW 2904   2.475   2.498   0.440 -0.7441 -0.1789  0.0382
  727SOL     OW 2905   2.869   0.321   1.731 -0.0920  0.4116  0.0395
  727SOL    HW1 2906   2.794   0.310   1.672 -1.5885  2.2205  1.6821
  727SOL    HW2 2907   2.856   0.264   1.804 -0.5201 -1.0812  1.9833
  727SOL     MW 2908   2.858   0.312   1.733 -0.3459  0.4533  0.5127
  728SOL     OW 2909   2.796   1.198   2.861  0.0341  0.4221  0.4000
  728SOL    HW1 2910   2.829   1.264   2.802  0.1975  1.8759 -0.4649
  728SOL    HW2 2911   2.794   1.239   2.947 -0.0297  0.3601 -2.0627
  728SOL     MW 2912   2.800   1.212   2.864  0.0473  0.6057 -0.0390
  729SOL     OW 2913   2.554   1.495   1.064 -0.1958 -0.1816 -0.1178
  729SOL    HW1 2914   2.617   1.424   1.055  1.0435 -0.5813  0.9153
  729SOL    HW2 2915   2.495   1.479   0.990  0.6959 -1.7363 -2.3668
  729SOL     MW 2916   2.555   1.484   1.053  0.0854 -0.4395 -0.2782
  730SOL     OW 2917   2.180   1.148   0.201 -0.3437  0.4554  0.0277
  730SOL    HW1 2918   2.250   1.081   0.228  1.7811 -1.4430 -0.4590
  730SOL    HW2 2919   2.216   1.236   0.209  0.0417  0.1079 -0.6486
  730SOL     MW 2920   2.194   1.151   0.205 -0.0125  0.1590 -0.1257
  731SOL     OW 2921   2.785   1.978   2.928  0.0663 -0.2659  0.4320
  731SOL    HW1 2922   2.731   1.974   2.849 -2.1662  1.4172 -2.1543
  731SOL    HW2 2923   2.855   1.920   2.905 -0.7934  0.2583 -0.7528
  731SOL     MW 2924   2.787   1.970   2.914 -0.3417  0.0253 -0.0655
  732SOL     OW 2925   2.334   0.980   1.349  0.3300  0.0375  0.1014
  732SOL    HW1 2926   2.281   0.930   1.417  0.2130 -1.7559  0.2412
  732SOL    HW2 2927   2.416   0.928   1.350 -0.4915 -1.1242 -1.4488
  732SOL     MW 2928   2.338   0.967   1.358  0.2062 -0.3524 -0.0847
  733SOL     OW 2929   2.392   2.685   2.985  0.2881 -0.4737 -0.2823
  733SOL    HW1 2930   2.322   2.734   3.030 -2.0097  3.1215 -0.7724
  733SOL    HW2 2931   2.363   2.595   2.982  1.9299  1.7410 -1.8390
  733SOL     MW 2932   2.379   2.679   2.990  0.2015  0.2929 -0.5524
  734SOL     OW 2933   1.516   0.279   2.513 -0.0602 -0.0892  0.5031
  734SOL    HW1 2934   1.499   0.249   2.602  0.2589 -2.6665 -1.1770
  734SOL    HW2 2935   1.512   0.205   2.453  0.7047 -1.0841 -0.4725
  734SOL     MW 2936   1.513   0.266   2.516  0.0828 -0.5605  0.1527
  735SOL     OW 2937   3.021   0.864   2.689  0.2181 -0.2452 -0.3843
  735SOL    HW1 2938   3.037   0.773   2.705  1.1628  1.4954 -0.2645
  735SOL    HW2 2939   3.018   0.903   2.778 -1.5432 -0.4423 -0.9879
  735SOL     MW 2940   3.022   0.857   2.703  0.1103 -0.0416 -0.4481
  736SOL     OW 2941   0.141   0.548   2.527  0.0017  0.1241  0.4580
  736SOL    HW1 2942   0.137   0.634   2.474 -0.9770  2.5551 -0.4163
  736SOL    HW2 2943   0.201   0.489   2.472 -0.5238  0.3675 -0.3979
  736SOL     MW 2944   0.148   0.551   2.513 -0.1968  0.4770  0.2297
  737SOL     OW 2945   3.003   0.561   2.655  0.1875  0.0086 -0.4171
  737SOL    HW1 2946   2.940   0.573   2.581 -0.3291  0.9988 -0.3052
  737SOL    HW2 2947   3.084   0.562   2.605 -0.8949 -2.7902  1.9318
  737SOL     MW 2948   3.006   0.563   2.639 -0.0235 -0.2300 -0.0924
  738SOL     OW 2949   0.109   0.413   1.857  0.3727 -0.3161  0.2355
  738SOL    HW1 2950   0.192   0.370   1.883  0.8258 -1.3092 -0.7848
  738SOL    HW2 2951   0.128   0.419   1.760 -0.3840  0.6120 -0.3904
  738SOL     MW 2952   0.123   0.408   1.847  0.3326 -0.3247  0.0183
  739SOL     OW 2953   2.521   0.983   2.115 -0.3187 -0.1926  0.3145
  739SOL    HW1 2954   2.460   0.937   2.060 -1.6756 -4.0248 -2.3756
  739SOL    HW2 2955   2.603   0.941   2.088  2.1772  3.0032 -0.6365
  739SOL     MW 2956   2.524   0.971   2.104 -0.1685 -0.2765 -0.1659
  740SOL     OW 2957   0.160   1.792   2.934  0.5404  0.5463 -0.3562
  740SOL    HW1 2958   0.124   1.705   2.973  0.4049 -1.2942  1.1316
  740SOL    HW2 2959   0.236   1.810   2.995  0.8604  0.7374 -0.1045
  740SOL     MW 2960   0.166   1.783   2.948  0.5648  0.3287 -0.1267
  741SOL     OW 2961   2.267   1.163   2.712  0.7655  0.3525 -0.2035
  741SOL    HW1 2962   2.207   1.224   2.674 -0.6988 -0.6223 -0.0284
  741SOL    HW2 2963   2.227   1.151   2.804  0.4973 -2.7781 -0.3683
  741SOL     MW 2964   2.254   1.169   2.719  0.5369 -0.1891 -0.2021
  742SOL     OW 2965   1.530   1.233   2.351  0.0279  0.0502  0.7151
  742SOL    HW1 2966   1.464   1.187   2.303  0.1584  4.6161  0.6812
  742SOL    HW2 2967   1.556   1.168   2.416 -4.7590 -1.2984  1.4483
  742SOL     MW 2968   1.525   1.218   2.353 -0.5865  0.4747  0.8074
  743SOL     OW 2969   2.561   1.232   2.679  0.3252 -0.1756  0.3054
  743SOL    HW1 2970   2.461   1.206   2.681 -2.0271 -1.5427 -0.7899
  743SOL    HW2 2971   2.606   1.154   2.714  3.1320 -0.9801 -1.0114
  743SOL     MW 2972   2.554   1.218   2.684  0.3851 -0.4621 -0.0129
  744SOL     OW 2973   2.722   0.879   1.925 -0.9802  0.2832  0.6699
  744SOL    HW1 2974   2.690   0.968   1.894  0.1012  0.8175 -2.9851
  744SOL    HW2 2975   2.662   0.817   1.884  0.8986  0.4331  0.4592
  744SOL     MW 2976   2.710   0.883   1.915 -0.5897  0.3735  0.1599
  745SOL     OW 2977   1.715   0.467   2.488  0.6483  0.0130 -0.1390
  745SOL    HW1 2978   1.720   0.479   2.393  1.9991  3.0818  1.0243
  745SOL    HW2 2979   1.648   0.398   2.505 -1.1654 -0.4499  0.7852
  745SOL     MW 2980   1.707   0.460   2.477  0.5872  0.3568  0.1364
  746SOL     OW 2981   1.594   1.511   1.660  0.3259  0.4776  0.0855
  746SOL    HW1 2982   1.661   1.582   1.650  1.4184  3.3879  2.1629
  746SOL    HW2 2983   1.591   1.496   1.754 -0.4299 -0.8361 -0.2371
  746SOL     MW 2984   1.603   1.518   1.671  0.3703  0.6883  0.3171
  747SOL     OW 2985   2.604   1.130   1.819 -0.3570 -0.3411 -0.1178
  747SOL    HW1 2986   2.523   1.109   1.779  0.2963  2.4802  1.1193
  747SOL    HW2 2987   2.582   1.209   1.868  1.2855 -3.1147  0.3238
  747SOL     MW 2988   2.590   1.137   1.820 -0.0541 -0.3348  0.1037
  748SOL     OW 2989   0.078   0.129   1.863 -0.0302  0.7600 -0.6145
  748SOL    HW1 2990   0.169   0.111   1.863 -3.6730 -0.1797 -1.5491
  748SOL    HW2 2991   0.068   0.221   1.885  0.2978 -1.1208  3.9851
  748SOL     MW 2992   0.088   0.139   1.866 -0.4675  0.3879 -0.1309
  749SOL     OW 2993   2.578   0.590   2.798 -0.0669 -0.2669  0.1719
  749SOL    HW1 2994   2.602   0.666   2.745  1.1091  0.5116  0.6082
  749SOL    HW2 2995   2.560   0.623   2.889  0.3852  0.7382 -0.3579
  749SOL     MW 2996   2.579   0.605   2.803  0.1479 -0.0316  0.1595
  750SOL     OW 2997   2.058   0.005   1.953 -0.2868  0.2864 -0.4697
  750SOL    HW1 2998   2.117   0.082   1.970  0.0230  0.4503  0.6041
  750SOL    HW2 2999   2.120  -0.073   1.948  1.8350 -1.5861  1.4713
  750SOL     MW 3000   2.074   0.005   1.954  0.0340  0.0610 -0.0719
  751SOL     OW 3001   0.277   0.367   2.406 -0.0056  0.1474 -0.4758
  751SOL    HW1 3002   0.223   0.305   2.453  0.4724 -1.4489  2.5374
  751SOL    HW2 3003   0.275   0.341   2.315  3.2757  0.7586 -1.8918
  751SOL     MW 3004   0.270   0.355   2.400  0.4904  0.0174 -0.2651
  752SOL     OW 3005   2.138   0.829   2.764 -0.1346 -0.0539  0.1015
  752SOL    HW1 3006   2.208   0.879   2.727  0.4095 -1.0149 -2.6400
  752SOL    HW2 3007   2.137   0.843   2.861 -0.9533 -0.8006  0.6513
  752SOL     MW 3008   2.147   0.838   2.772 -0.1708 -0.2792 -0.1877
  753SOL     OW 3009   2.791   0.130   2.415  0.1222 -0.4936  0.5472
  753SOL    HW1 3010   2.781   0.035   2.410 -0.4194 -0.6633  1.2985
  753SOL    HW2 3011   2.793   0.158   2.323 -1.1520 -0.3389 -0.8211
  753SOL     MW 3012   2.790   0.121   2.402 -0.1173 -0.4956  0.4658
  754SOL     OW 3013   2.290   2.952   2.647  0.6579 -0.4952 -0.1430
  754SOL    HW1 3014   2.298   2.911   2.560  0.9935 -0.6911 -0.9675
  754SOL    HW2 3015   2.353   2.905   2.700  1.6555 -2.2515 -1.2692
  754SOL     MW 3016   2.300   2.940   2.642  0.8338 -0.7528 -0.4004
  755SOL     OW 3017   2.753   1.528   2.399 -0.1948  0.1117  0.2809
  755SOL    HW1 3018   2.755   1.448   2.453 -0.3607  1.0357  4.4900
  755SOL    HW2 3019   2.782   1.603   2.453  2.3376 -0.0627 -1.2680
  755SOL     MW 3020   2.757   1.527   2.413  0.1174  0.2106  0.6319
  756SOL     OW 3021   2.203   1.198   2.990 -0.2156 -0.3435  0.0010
  756SOL    HW1 3022   2.277   1.254   2.962  1.3936 -1.2388 -0.3299
  756SOL    HW2 3023   2.247   1.113   3.010 -1.0360  0.2845  1.1488
  756SOL     MW 3024   2.219   1.194   2.989 -0.1116 -0.3787  0.1088
  757SOL     OW 3025   2.193   0.932   1.594 -0.3073  0.2670 -0.4940
  757SOL    HW1 3026   2.196   0.836   1.614  0.6476  1.6834 -2.4870
  757SOL    HW2 3027   2.102   0.946   1.555 -1.0281 -0.9925 -0.9358
  757SOL     MW 3028   2.181   0.921   1.592 -0.2765  0.2877 -0.8153
  758SOL     OW 3029   2.219   1.827   2.629 -0.2476 -0.0643  0.0895
  758SOL    HW1 3030   2.207   1.840   2.533  2.8046  3.0399 -3.1574
  758SOL    HW2 3031   2.305   1.795   2.643  0.0501 -0.8706 -0.9209
  758SOL     MW 3032   2.229   1.825   2.618  0.1944  0.2389 -0.4722
  759SOL     OW 3033   1.554   1.309   2.707  0.2666  0.5376  0.1334
  759SOL    HW1 3034   1.570   1.369   2.636 -0.2754  0.5316 -0.4163
  759SOL    HW2 3035   1.616   1.332   2.784 -0.0373  2.2785 -0.8360
  759SOL     MW 3036   1.564   1.320   2.708  0.1550  0.7665 -0.0670
  760SOL     OW 3037   2.606   1.967   2.691  1.2785 -0.6736 -0.3336
  760SOL    HW1 3038   2.569   1.876   2.661  1.3989 -0.0343  1.1900
  760SOL    HW2 3039   2.628   2.018   2.615  1.2295 -1.5189  1.6346
  760SOL     MW 3040   2.604   1.962   2.677  1.2879 -0.7008  0.1271
  761SOL     OW 3041   2.232   0.395   2.529  0.2865 -0.5633  0.0236
  761SOL    HW1 3042   2.170   0.345   2.585  2.8336 -1.4456 -1.9306
  761SOL    HW2 3043   2.237   0.472   2.587  0.1380  0.0902 -1.9554
  761SOL     MW 3044   2.224   0.398   2.544  0.6029 -0.5935 -0.4954
  762SOL     OW 3045   3.079   0.249   2.164  0.1994  0.3345 -0.1988
  762SOL    HW1 3046   3.097   0.181   2.230  0.9896 -0.3533  1.4777
  762SOL    HW2 3047   3.020   0.311   2.205  1.3765  0.5939 -1.3468
  762SOL     MW 3048   3.073   0.248   2.178  0.4589  0.2780 -0.1291
  763SOL     OW 3049   2.366   1.037   2.323  0.9034  0.1923 -0.1326
  763SOL    HW1 3050   2.420   1.003   2.248 -1.5090 -1.5872 -1.8278
  763SOL    HW2 3051   2.422   1.113   2.345  0.5620  0.9503 -0.2172
  763SOL     MW 3052   2.381   1.042   2.316  0.5401  0.0575 -0.3674
  764SOL     OW 3053   0.420   0.288   2.856  0.6390 -0.0275  0.2188
  764SOL    HW1 3054   0.331   0.247   2.845 -0.5236 -0.5091  1.4893
  764SOL    HW2 3055   0.403   0.356   2.925  2.8135 -1.9294  1.3069
  764SOL     MW 3056   0.406   0.291   2.864  0.7725 -0.3420  0.5300
  765SOL     OW 3057   2.716   2.957   2.398 -0.0640 -0.1875  0.0744
  765SOL    HW1 3058   2.672   2.964   2.312  0.4458 -0.0336 -2.0979
  765SOL    HW2 3059   2.802   2.922   2.376  1.4322  1.9374  0.3200
  765SOL     MW 3060   2.722   2.953   2.383  0.2007  0.1132 -0.1798
  766SOL     OW 3061   1.920   2.974   2.160  0.5261  0.4007  0.0431
  766SOL    HW1 3062   1.961   3.032   2.090 -1.7165  2.5297 -2.5496
  766SOL    HW2 3063   1.848   2.923   2.116 -1.2891 -0.4710 -1.3660
  766SOL     MW 3064   1.916   2.975   2.145 -0.0093  0.5666 -0.4849
  767SOL     OW 3065   2.643   0.605   2.093  0.1423  0.4283 -0.7450
  767SOL    HW1 3066   2.710   0.673   2.110  0.1976 -1.3563  0.3021
  767SOL    HW2 3067   2.565   0.641   2.049 -1.0046 -0.8351  1.1003
  767SOL     MW 3068   2.642   0.618   2.090 -0.0017  0.0261 -0.3634
  768SOL     OW 3069   2.993   1.549   2.947 -0.1726  0.0964  0.0157
  768SOL    HW1 3070   2.998   1.533   3.040 -1.0158 -2.1742  2.0253
  768SOL    HW2 3071   3.057   1.497   2.905 -1.5519 -0.8283  2.0251
  768SOL     MW 3072   3.002   1.540   2.954 -0.4659 -0.3252  0.5460
  769SOL     OW 3073   2.502   0.650   2.385  0.3948 -0.0635  0.9660
  769SOL    HW1 3074   2.475   0.575   2.439 -3.9582 -2.9850 -0.4659
  769SOL    HW2 3075   2.582   0.617   2.339  2.6364 -0.0547 -0.2510
  769SOL     MW 3076   2.509   0.636   2.386  0.1162 -0.4478  0.6165
  770SOL     OW 3077   3.077   1.624   2.521 -0.2912 -0.4404 -0.1424
  770SOL    HW1 3078   2.986   1.655   2.538 -1.7539  1.3750  4.5377
  770SOL    HW2 3079   3.081   1.533   2.494 -2.4001  3.3805 -0.3613
  770SOL     MW 3080   3.066   1.616   2.520 -0.7625  0.3032  0.4463
  771SOL     OW 3081   3.076   0.605   1.986  0.2762 -0.0457 -0.2428
  771SOL    HW1 3082   3.003   0.627   1.925 -2.5482 -1.6343  2.3393
  771SOL    HW2 3083   3.109   0.537   1.926  0.7293  1.0796  0.8661
  771SOL     MW 3084   3.071   0.599   1.970 -0.0367 -0.1068  0.2442
  772SOL     OW 3085   0.049   0.016   2.280 -0.4254  0.0616 -0.1072
  772SOL    HW1 3086   0.012  -0.054   2.329  0.5507  0.1265  0.5138
  772SOL    HW2 3087   0.115  -0.024   2.231 -1.4182 -0.0126 -1.1692
  772SOL     MW 3088   0.053   0.001   2.280 -0.4276  0.0604 -0.1654
  773SOL     OW 3089   2.484   2.814   2.767 -0.0460  0.0790  0.0672
  773SOL    HW1 3090   2.491   2.753   2.694 -0.9682 -1.3001 -1.6844
  773SOL    HW2 3091   2.439   2.771   2.841  0.0085  1.4817 -1.0351
  773SOL     MW 3092   2.479   2.800   2.767 -0.1605  0.0821 -0.3093
  774SOL     OW 3093   2.285   1.142   1.744  0.0426  0.2322 -0.3625
  774SOL    HW1 3094   2.290   1.209   1.674 -0.6655 -1.7969 -0.6037
  774SOL    HW2 3095   2.275   1.063   1.687  0.9006  0.7960 -1.2665
  774SOL     MW 3096   2.284   1.141   1.727  0.0624  0.0389 -0.5136
  775SOL     OW 3097   2.300   2.919   2.358  0.0414  0.1971  0.2075
  775SOL    HW1 3098   2.312   3.001   2.312 -1.1427 -0.4783  0.3582
  775SOL    HW2 3099   2.360   2.861   2.319 -2.5707  2.2488  2.3201
  775SOL     MW 3100   2.309   2.922   2.347 -0.4595  0.3787  0.5061
  776SOL     OW 3101   0.018   1.538   0.106 -0.0590 -0.1665  0.1014
  776SOL    HW1 3102   0.109   1.531   0.118  0.7711  0.2404 -0.0571
  776SOL    HW2 3103  -0.015   1.445   0.128 -0.2291  2.5295 -2.2322
  776SOL     MW 3104   0.025   1.525   0.110  0.0280  0.2429 -0.2275
  777SOL     OW 3105   2.936   0.958   1.790  0.7237  0.6191 -0.0283
  777SOL    HW1 3106   2.897   1.034   1.753  3.2439 -2.5388  1.7013
  777SOL    HW2 3107   2.865   0.926   1.852 -0.7245 -0.5913 -1.3297
  777SOL     MW 3108   2.921   0.964   1.793  0.8652  0.0428  0.0282
  778SOL     OW 3109   2.903   0.354   2.779 -0.0192 -0.0107 -0.0116
  778SOL    HW1 3110   2.888   0.389   2.866 -0.8666  0.1598  0.1702
  778SOL    HW2 3111   2.959   0.428   2.732  2.0160  1.3340  0.4622
  778SOL     MW 3112   2.908   0.368   2.784  0.1375  0.1892  0.0749
  779SOL     OW 3113   2.100   0.529   2.329 -0.2612  0.0415  0.2867
  779SOL    HW1 3114   2.038   0.595   2.353  0.7498  0.8300 -2.4207
  779SOL    HW2 3115   2.147   0.493   2.404  0.4896 -2.8570 -3.1862
  779SOL     MW 3116   2.098   0.533   2.342 -0.0288 -0.2369 -0.5288
  780SOL     OW 3117   0.196   0.133   2.795  0.2790  0.1306 -0.2874
  780SOL    HW1 3118   0.125   0.140   2.855  0.8282  0.9086 -1.2385
  780SOL    HW2 3119   0.154   0.161   2.711 -1.0954  2.1007  0.2854
  780SOL     MW 3120   0.181   0.137   2.792  0.1701  0.4932 -0.3373
  781SOL     OW 3121   3.030   1.357   2.397  0.3384 -0.3581 -0.6318
  781SOL    HW1 3122   2.989   1.422   2.333 -0.7627 -1.8009 -1.8358
  781SOL    HW2 3123   3.038   1.286   2.333  0.8475 -2.4127 -2.0701
  781SOL     MW 3124   3.026   1.356   2.380  0.2603 -0.8196 -0.9804
  782SOL     OW 3125   0.579   1.534   3.069  0.6206 -0.2142  0.0064
  782SOL    HW1 3126   0.533   1.621   3.069 -1.9470 -0.2678  1.8190
  782SOL    HW2 3127   0.583   1.500   3.162  0.0153 -0.5060 -3.4096
  782SOL     MW 3128   0.574   1.541   3.081  0.2020 -0.2597 -0.2052
  783SOL     OW 3129   2.821   0.565   2.428  0.2530  0.3803  0.0370
  783SOL    HW1 3130   2.854   0.539   2.343 -1.5435  1.1873 -0.4540
  783SOL    HW2 3131   2.763   0.488   2.452 -2.1252 -0.4213  1.8317
  783SOL     MW 3132   2.818   0.552   2.420 -0.2978  0.3810  0.2090
  784SOL     OW 3133   0.201   0.917   2.884  0.2137  0.4010 -0.4355
  784SOL    HW1 3134   0.206   0.970   2.961 -0.0913  1.4814  1.8065
  784SOL    HW2 3135   0.216   0.966   2.810  0.3453 -2.9695  2.0713
  784SOL     MW 3136   0.203   0.930   2.884  0.1908  0.0988  0.1911
  785SOL     OW 3137   0.346   0.546   2.115 -0.3938 -0.0151  0.4998
  785SOL    HW1 3138   0.343   0.537   2.023  0.8690 -0.2393  0.3902
  785SOL    HW2 3139   0.313   0.458   2.129 -0.6341 -1.6575  1.0106
  785SOL     MW 3140   0.341   0.533   2.105 -0.2589 -0.2614  0.5527
  786SOL     OW 3141   2.033   0.470   2.838 -0.1489 -0.1497 -0.2542
  786SOL    HW1 3142   2.016   0.466   2.933  0.8566  1.5347 -0.7805
  786SOL    HW2 3143   2.133   0.485   2.843  2.8522 -0.1132  0.2064
  786SOL     MW 3144   2.044   0.471   2.851  0.3797  0.0773 -0.2629
  787SOL     OW 3145   2.433   0.148   2.915  0.9032  0.4893 -0.0060
  787SOL    HW1 3146   2.474   0.149   2.831  0.0124 -1.5381  0.7936
  787SOL    HW2 3147   2.450   0.235   2.957  0.3105  1.1001 -0.3679
  787SOL     MW 3148   2.441   0.160   2.909  0.7075  0.3024  0.0517
  788SOL     OW 3149   2.957   2.863   2.287  0.3016  0.3876  0.1281
  788SOL    HW1 3150   2.905   2.782   2.256  2.1709 -2.7844  0.8071
  788SOL    HW2 3151   3.012   2.832   2.361  2.3418 -0.9244 -0.2222
  788SOL     MW 3152   2.957   2.848   2.292  0.8174 -0.2040  0.1715
  789SOL     OW 3153   0.050   0.291   3.032  0.2764 -0.1073  0.2225
  789SOL    HW1 3154  -0.040   0.267   3.023  1.5947  0.9660  0.8324
  789SOL    HW2 3155   0.094   0.235   3.097 -0.6752  1.3609 -1.6343
  789SOL     MW 3156   0.044   0.280   3.039  0.3248  0.2280  0.0580
  790SOL     OW 3157   0.024   1.039   2.453  0.0640 -0.3737 -0.8241
  790SOL    HW1 3158  -0.023   0.984   2.517  0.1455 -2.7360  0.7527
  790SOL    HW2 3159  -0.034   1.038   2.380  1.0706  0.7245  0.0938
  790SOL     MW 3160   0.010   1.032   2.452  0.2076 -0.5405 -0.4949
  791SOL     OW 3161   2.692   0.413   2.608  0.3122 -0.1705  0.4123
  791SOL    HW1 3162   2.640   0.473   2.667 -0.1668 -1.9636 -0.8084
  791SOL    HW2 3163   2.758   0.386   2.674 -1.6659 -1.0667 -0.2510
  791SOL     MW 3164   2.694   0.417   2.625 -0.0120 -0.5253  0.1637
  792SOL     OW 3165   2.409   0.284   2.385 -0.2329 -0.0292  0.2234
  792SOL    HW1 3166   2.331   0.330   2.424  0.8381 -0.0830 -3.6749
  792SOL    HW2 3167   2.462   0.257   2.460 -0.1024  0.6214 -2.4316
  792SOL     MW 3168   2.406   0.286   2.400 -0.0743  0.0496 -0.6412
  793SOL     OW 3169   1.754   1.009   1.881 -0.4146 -0.0580  0.5317
  793SOL    HW1 3170   1.709   1.055   1.814 -1.2353 -0.0803 -0.1343
  793SOL    HW2 3171   1.842   0.973   1.843  2.4342 -0.4612  0.3466
  793SOL     MW 3172   1.760   1.011   1.867 -0.1470 -0.1141  0.4194
  794SOL     OW 3173   1.431   2.283   0.136 -0.1049  0.5413  0.9257
  794SOL    HW1 3174   1.438   2.344   0.058  0.8741 -1.2341  1.0195
  794SOL    HW2 3175   1.490   2.325   0.205  1.0999  2.0264 -0.1098
  794SOL     MW 3176   1.440   2.297   0.135  0.1832  0.5030  0.8015
  795SOL     OW 3177   2.360   0.944   2.591 -0.3215  0.0873 -0.1437
  795SOL    HW1 3178   2.322   1.028   2.615  1.0527  0.7648  0.2691
  795SOL    HW2 3179   2.349   0.948   2.494  0.1758  0.1457 -1.6328
  795SOL     MW 3180   2.354   0.956   2.582 -0.0746  0.1844 -0.2857
  796SOL     OW 3181   0.317   0.651   2.800 -0.4898 -0.0065 -0.2745
  796SOL    HW1 3182   0.296   0.743   2.821 -0.2433 -0.1095 -1.9443
  796SOL    HW2 3183   0.313   0.634   2.705  1.1771 -2.1979 -0.6352
  796SOL     MW 3184   0.313   0.661   2.790 -0.2373 -0.3092 -0.5424
  797SOL     OW 3185   2.569   0.169   2.597  0.1355 -0.0029  0.3141
  797SOL    HW1 3186   2.603   0.261   2.621  4.4722  2.3360  0.5734
  797SOL    HW2 3187   2.638   0.146   2.532  0.3433  0.2406 -1.5428
  797SOL     MW 3188   2.583   0.178   2.592  0.7351  0.3378  0.1033
  798SOL     OW 3189   2.374   0.052   2.200 -0.5793  0.3319  0.5614
  798SOL    HW1 3190   2.400   0.120   2.264 -0.8612  0.9667 -0.5119
  798SOL    HW2 3191   2.455   0.005   2.175  0.5991  1.8247  1.0511
  798SOL     MW 3192   2.388   0.055   2.205 -0.4610  0.6126  0.4844
  799SOL     OW 3193   2.539   2.909   0.203 -0.1460 -0.6930  0.0560
  799SOL    HW1 3194   2.585   2.875   0.126 -0.3745 -0.6414 -0.3871
  799SOL    HW2 3195   2.460   2.947   0.170  1.2614 -1.0550 -1.4450
  799SOL     MW 3196   2.535   2.910   0.188  0.0096 -0.7340 -0.2005
  800SOL     OW 3197   1.916   3.094   1.720  0.1653 -0.0723  0.1771
  800SOL    HW1 3198   1.837   3.042   1.742 -2.2352  1.8733 -2.0101
  800SOL    HW2 3199   1.973   3.088   1.797  3.1005 -1.2170 -0.6243
  800SOL     MW 3200   1.913   3.086   1.733  0.2358  0.0333 -0.2172
  801SOL     OW 3201   2.834   1.333   2.584  0.0837  0.0277 -0.6215
  801SOL    HW1 3202   2.829   1.234   2.587 -1.4604  0.3052 -0.1374
  801SOL    HW2 3203   2.921   1.351   2.540  1.5617  0.6191  1.4592
  801SOL     MW 3204   2.845   1.322   2.579  0.0750  0.1423 -0.2831
  802SOL     OW 3205   2.545   1.501   2.750 -0.0678  0.0531  0.2593
  802SOL    HW1 3206   2.553   1.403   2.747  2.3353  0.7726 -1.2238
  802SOL    HW2 3207   2.634   1.518   2.786  2.8657 -0.7619  1.6927
  802SOL     MW 3208   2.558   1.490   2.754  0.6363  0.0405  0.2528
  803SOL     OW 3209   2.239   1.303   1.952 -0.3709  0.3187 -0.2121
  803SOL    HW1 3210   2.227   1.272   2.047  0.7115  1.9223  2.4103
  803SOL    HW2 3211   2.264   1.236   1.888 -1.2711  4.1688 -1.4466
  803SOL     MW 3212   2.241   1.290   1.956 -0.3468  1.0382 -0.0290
  804SOL     OW 3213   2.362  -0.002   0.062  0.0915 -0.4536 -0.2005
  804SOL    HW1 3214   2.293   0.066   0.030 -1.1580  0.0554 -0.0106
  804SOL    HW2 3215   2.443   0.006   0.012 -0.8416 -2.6067  1.7413
  804SOL     MW 3216   2.364   0.008   0.051 -0.1965 -0.6705  0.0808
  805SOL     OW 3217   2.835   1.048   2.599 -0.3065  0.0384  1.0002
  805SOL    HW1 3218   2.755   0.998   2.592 -0.9459 -1.2035 -2.5872
  805SOL    HW2 3219   2.891   0.983   2.643  2.6878 -1.1972  0.2618
  805SOL     MW 3220   2.832   1.033   2.604  0.0042 -0.2885  0.4294
  806SOL     OW 3221   2.651   0.332   2.184  0.1520 -0.2643  0.0544
  806SOL    HW1 3222   2.566   0.319   2.214 -0.8322  0.1447 -0.1691
  806SOL    HW2 3223   2.654   0.417   2.148 -1.8637 -0.7249  0.1315
  806SOL     MW 3224   2.640   0.341   2.183 -0.2438 -0.2711  0.0351
  807SOL     OW 3225   0.052   1.148   2.126  0.6675 -0.2602  0.0160
  807SOL    HW1 3226   0.110   1.094   2.075 -0.1610 -0.3542  0.6317
  807SOL    HW2 3227  -0.020   1.095   2.155  1.2376  0.5488  1.5283
  807SOL     MW 3228   0.050   1.134   2.123  0.6334 -0.1659  0.2968
  808SOL     OW 3229   2.657   3.060   2.805  0.0806 -0.1309 -0.4651
  808SOL    HW1 3230   2.601   2.984   2.806 -0.3004  0.6796 -0.6133
  808SOL    HW2 3231   2.628   3.106   2.730  0.3674  0.2571  1.6155
  808SOL     MW 3232   2.646   3.056   2.795  0.0682  0.0273 -0.2101
  809SOL     OW 3233   2.529   1.226   2.419 -0.3526 -0.1351 -0.4133
  809SOL    HW1 3234   2.554   1.237   2.510  1.1090 -0.2426  1.8145
  809SOL    HW2 3235   2.608   1.243   2.371  1.6213 -1.1962 -1.5402
  809SOL     MW 3236   2.543   1.230   2.425  0.1007 -0.2893 -0.2681
  810SOL     OW 3237   2.197   1.219   2.210  0.5035  0.5506  0.9610
  810SOL    HW1 3238   2.251   1.140   2.242  0.8766 -1.2322 -0.4115
  810SOL    HW2 3239   2.103   1.190   2.211 -0.7979  2.1830  1.1389
  810SOL     MW 3240   2.192   1.205   2.214  0.3811  0.5307  0.8034
  811SOL     OW 3241   1.478   0.070   2.229  0.0898 -0.3454 -0.3991
  811SOL    HW1 3242   1.541   0.007   2.206  0.3358 -0.1963  1.7036
  811SOL    HW2 3243   1.434   0.070   2.137  2.2051  2.3410 -0.3514
  811SOL     MW 3244   1.481   0.062   2.214  0.4014  0.0287 -0.1154
  812SOL     OW 3245   1.461   2.762   2.081  0.3262 -0.0223  0.1710
  812SOL    HW1 3246   1.553   2.775   2.060 -0.7547 -0.8619  0.6113
  812SOL    HW2 3247   1.462   2.762   2.177  1.2580 -1.0445  0.6844
  812SOL     MW 3248   1.473   2.763   2.091  0.3065 -0.2680  0.2968
  813SOL     OW 3249   1.845   0.693   2.144 -0.1647 -0.5882 -0.4788
  813SOL    HW1 3250   1.786   0.615   2.163 -0.1193 -3.8950  0.6778
  813SOL    HW2 3251   1.885   0.702   2.231 -2.4036 -0.5998  2.0200
  813SOL     MW 3252   1.842   0.684   2.158 -0.4541 -1.0260  0.0035
  814SOL     OW 3253   2.818   1.173   1.628 -0.2814 -0.2504 -0.5834
  814SOL    HW1 3254   2.739   1.147   1.668 -0.4496 -0.6389 -0.4763
  814SOL    HW2 3255   2.809   1.155   1.535  0.4110  0.9745 -1.7057
  814SOL     MW 3256   2.806   1.167   1.621 -0.2123 -0.1401 -0.7173
  815SOL     OW 3257   2.501   1.649   2.372 -0.3371  0.4890  0.0848
  815SOL    HW1 3258   2.437   1.578   2.382  4.1545  1.3081 -0.3793
  815SOL    HW2 3259   2.581   1.599   2.380 -0.0475 -2.6568  1.3244
  815SOL     MW 3260   2.503   1.633   2.374  0.2937  0.1820  0.1872
  816SOL     OW 3261   0.668   0.669   2.719 -0.1647  0.3051  0.0160
  816SOL    HW1 3262   0.714   0.604   2.769 -0.5408  2.3515  1.2752
  816SOL    HW2 3263   0.620   0.619   2.643 -1.7086  0.5445  1.6791
  816SOL     MW 3264   0.667   0.654   2.715 -0.4181  0.6067  0.4016
  817SOL     OW 3265   3.075   1.178   1.325  0.4680 -0.1022  0.5151
  817SOL    HW1 3266   3.119   1.189   1.408  2.2351  1.1117  1.1054
  817SOL    HW2 3267   3.079   1.262   1.287  0.1678 -1.2986  2.8991
  817SOL     MW 3268   3.081   1.191   1.331  0.6615 -0.0999  0.9075
  818SOL     OW 3269   1.906   1.004   2.679 -0.1043  0.6283 -0.1239
  818SOL    HW1 3270   1.923   1.056   2.599 -0.4422 -0.5603 -2.3858
  818SOL    HW2 3271   1.993   0.973   2.704  0.5529 -0.6592  0.7973
  818SOL     MW 3272   1.920   1.007   2.672 -0.0621  0.3016 -0.3008
  819SOL     OW 3273   1.944   0.215   2.323  0.3312 -0.5648 -0.1081
  819SOL    HW1 3274   2.028   0.193   2.285 -2.4086 -1.1739  2.2077
  819SOL    HW2 3275   1.960   0.220   2.420  1.5421 -0.1426  1.7828
  819SOL     MW 3276   1.957   0.213   2.330  0.1295 -0.5895  0.4469
  820SOL     OW 3277   2.483   1.748   2.628  0.0464  0.4836  0.1101
  820SOL    HW1 3278   2.485   1.652   2.652  0.2588  0.8467 -0.7108
  820SOL    HW2 3279   2.504   1.745   2.537  0.3036 -0.6191  0.6260
  820SOL     MW 3280   2.486   1.735   2.619  0.1084  0.3860  0.0699
  821SOL     OW 3281   2.536   1.338   1.993 -0.1080  0.2812  0.2942
  821SOL    HW1 3282   2.565   1.410   1.937 -1.3413 -0.4479  1.3779
  821SOL    HW2 3283   2.440   1.335   1.991 -2.3612 -1.2386 -0.1869
  821SOL     MW 3284   2.527   1.347   1.986 -0.5680 -0.0155  0.3737
  822SOL     OW 3285   2.894   2.613   1.428  0.6050 -0.0721 -0.0948
  822SOL    HW1 3286   2.806   2.636   1.389 -0.0374  0.5896  0.3650
  822SOL    HW2 3287   2.907   2.686   1.493 -1.5181  0.1174  2.4876
  822SOL     MW 3288   2.884   2.626   1.432  0.2401  0.0402  0.3066
  823SOL     OW 3289   2.354   0.492   1.790  0.0540  0.4918  0.0053
  823SOL    HW1 3290   2.430   0.437   1.758 -0.0412 -1.2408 -0.1799
  823SOL    HW2 3291   2.297   0.432   1.837 -3.2849  0.5058  1.7916
  823SOL     MW 3292   2.357   0.477   1.792 -0.3991  0.2650  0.2165
  824SOL     OW 3293   2.117   1.359   2.571 -0.3297  0.2309  0.1162
  824SOL    HW1 3294   2.187   1.392   2.505 -1.3318 -0.2579  0.8597
  824SOL    HW2 3295   2.105   1.424   2.636 -1.4202 -0.7335 -1.2905
  824SOL     MW 3296   2.125   1.372   2.571 -0.6058  0.0392  0.0287
  825SOL     OW 3297   2.109   2.315   0.366 -0.1520 -0.3353  0.0655
  825SOL    HW1 3298   2.167   2.317   0.294 -3.3449  2.2848  0.7803
  825SOL    HW2 3299   2.166   2.345   0.439 -0.6158 -0.2094  0.5291
  825SOL     MW 3300   2.124   2.319   0.366 -0.6344  0.0270  0.2210
  826SOL     OW 3301   1.783   2.442   0.454  0.2238  0.3950  0.1191
  826SOL    HW1 3302   1.793   2.372   0.513 -1.6830  0.1655 -0.2624
  826SOL    HW2 3303   1.870   2.485   0.458  0.7800 -0.5941 -0.5596
  826SOL     MW 3304   1.796   2.439   0.462  0.0456  0.2342 -0.0208
  827SOL     OW 3305   1.918   2.253   0.885 -0.4974 -0.0662  0.2255
  827SOL    HW1 3306   1.859   2.278   0.815  0.5504 -0.5282  0.8868
  827SOL    HW2 3307   1.876   2.179   0.930  0.7723 -0.2405  2.6119
  827SOL     MW 3308   1.905   2.247   0.882 -0.1916 -0.1502  0.6276
  828SOL     OW 3309   0.078   2.665   0.511 -0.5309  0.2641 -0.2034
  828SOL    HW1 3310   0.167   2.674   0.530 -1.3556 -0.7993 -1.8485
  828SOL    HW2 3311   0.063   2.703   0.427  0.0876  0.3634  0.0132
  828SOL     MW 3312   0.088   2.671   0.503 -0.5581  0.1369 -0.3919
  829SOL     OW 3313   2.972   2.880   1.167 -0.2488 -0.0310 -0.4777
  829SOL    HW1 3314   2.881   2.872   1.126 -4.1452  0.4457 -0.6312
  829SOL    HW2 3315   3.011   2.798   1.149 -1.0959 -0.1083  0.4665
  829SOL     MW 3316   2.965   2.868   1.159 -0.8746  0.0217 -0.3734
  830SOL     OW 3317   2.521   2.835   1.992  0.4456  0.0727  0.0990
  830SOL    HW1 3318   2.438   2.883   1.960  0.7817  3.5936 -0.7099
  830SOL    HW2 3319   2.569   2.810   1.912  1.7928 -1.3830  0.3472
  830SOL     MW 3320   2.516   2.838   1.977  0.6677  0.3451  0.0250
  831SOL     OW 3321   2.454   2.418   1.210 -0.0211  0.1873 -0.5299
  831SOL    HW1 3322   2.444   2.346   1.278 -0.7638 -3.5265  0.1119
  831SOL    HW2 3323   2.543   2.388   1.175 -0.6817 -0.9861 -3.0729
  831SOL     MW 3324   2.465   2.405   1.214 -0.2062 -0.4575 -0.7808
  832SOL     OW 3325   2.408   2.123   1.914 -0.0333  0.5882 -0.5258
  832SOL    HW1 3326   2.418   2.219   1.908  0.5559  3.6499  0.2685
  832SOL    HW2 3327   2.494   2.099   1.882 -2.2980 -0.3497 -0.5312
  832SOL     MW 3328   2.420   2.132   1.909 -0.2544  0.8684 -0.4217
  833SOL     OW 3329   1.617   2.507   0.797  0.1571 -0.0088  0.5140
  833SOL    HW1 3330   1.590   2.454   0.879 -3.6077 -1.8907  0.0693
  833SOL    HW2 3331   1.542   2.568   0.790  1.8949 -0.1424  1.5200
  833SOL     MW 3332   1.604   2.508   0.807 -0.1104 -0.2748  0.5881
  834SOL     OW 3333   2.228   2.415   0.603  0.4182  0.0610  0.2953
  834SOL    HW1 3334   2.190   2.329   0.621 -0.9481  0.2985  1.9909
  834SOL    HW2 3335   2.298   2.440   0.664 -2.8263  1.1483 -2.3919
  834SOL     MW 3336   2.233   2.407   0.613 -0.1902  0.2358  0.1644
  835SOL     OW 3337   1.832   2.613   0.691  0.3559  0.1053  0.0291
  835SOL    HW1 3338   1.751   2.572   0.730 -2.4692 -1.5808  0.5845
  835SOL    HW2 3339   1.901   2.567   0.749  1.8326  2.8604 -0.3571
  835SOL     MW 3340   1.830   2.602   0.704  0.1780  0.2464  0.0515
  836SOL     OW 3341   2.078   2.045   1.788  0.3374  0.2016  0.5761
  836SOL    HW1 3342   2.130   1.977   1.830 -0.0498 -2.0177  0.1210
  836SOL    HW2 3343   2.119   2.130   1.792 -2.6486 -0.1572  1.3633
  836SOL     MW 3344   2.090   2.047   1.794 -0.1077 -0.1386  0.6199
  837SOL     OW 3345   2.073   0.207   0.671 -0.1215 -0.2873 -0.1592
  837SOL    HW1 3346   2.003   0.223   0.607  0.9500  0.0349  2.4214
  837SOL    HW2 3347   2.138   0.159   0.617 -0.3239 -1.0083  1.3157
  837SOL     MW 3348   2.072   0.203   0.655 -0.0069 -0.3399  0.3759
  838SOL     OW 3349   2.951   2.056   0.917  0.4314  0.1081  0.4129
  838SOL    HW1 3350   2.866   2.009   0.922 -0.2161 -2.1689  3.6984
  838SOL    HW2 3351   2.989   2.027   1.001 -0.6188 -0.3128  0.6456
  838SOL     MW 3352   2.945   2.046   0.929  0.2074 -0.2478  0.8771
  839SOL     OW 3353   1.526   2.445   1.059 -0.3096  0.4869  0.6536
  839SOL    HW1 3354   1.488   2.528   1.094  0.0393 -1.5056  2.2883
  839SOL    HW2 3355   1.531   2.386   1.125  0.1817  1.4535 -1.3565
  839SOL     MW 3356   1.522   2.448   1.073 -0.1987  0.3515  0.6041
  840SOL     OW 3357   2.373   2.097   2.324 -0.1372 -0.1526  0.0727
  840SOL    HW1 3358   2.319   2.163   2.285 -3.6210 -2.0470  1.1305
  840SOL    HW2 3359   2.421   2.145   2.392 -0.4569 -1.7617  0.7138
  840SOL     MW 3360   2.372   2.112   2.328 -0.6390 -0.6148  0.2969
  841SOL     OW 3361   2.262   2.313   0.132 -0.4995  0.5243 -0.3570
  841SOL    HW1 3362   2.263   2.398   0.095  2.3606 -0.1343 -1.1594
  841SOL    HW2 3363   2.194   2.262   0.085 -2.3424  0.8527  0.1282
  841SOL     MW 3364   2.253   2.317   0.121 -0.3653  0.4807 -0.3989
  842SOL     OW 3365   2.661   1.970   1.458  0.1376 -0.1377 -0.1035
  842SOL    HW1 3366   2.583   1.922   1.426 -0.1270 -0.7555 -0.7484
  842SOL    HW2 3367   2.690   2.023   1.382 -0.6452  2.6891  1.1662
  842SOL     MW 3368   2.655   1.970   1.444 -0.0006  0.1537 -0.0211
  843SOL     OW 3369   2.679   2.744   1.797  0.0955  0.2744  0.8369
  843SOL    HW1 3370   2.759   2.723   1.845 -2.5475 -0.8342  0.7033
  843SOL    HW2 3371   2.636   2.661   1.753  0.0519  1.7574  0.4308
  843SOL     MW 3372   2.684   2.730   1.798 -0.2590  0.3238  0.7657
  844SOL     OW 3373   2.702   2.352   1.113  0.2351  0.7048  0.2139
  844SOL    HW1 3374   2.703   2.389   1.020  2.3954 -0.1367 -0.8205
  844SOL    HW2 3375   2.764   2.402   1.158 -1.3701  0.7571  0.6610
  844SOL     MW 3376   2.710   2.363   1.107  0.3083  0.6007  0.1364
  845SOL     OW 3377   2.808   2.612   0.270 -0.1647 -0.0478 -0.1042
  845SOL    HW1 3378   2.819   2.520   0.310 -1.2423 -0.2846  1.6455
  845SOL    HW2 3379   2.821   2.673   0.345  1.6088 -2.3093  2.0852
  845SOL     MW 3380   2.811   2.608   0.285 -0.0729 -0.3774  0.4155
  846SOL     OW 3381   1.457   2.712   0.782  0.2286  0.2950 -0.0771
  846SOL    HW1 3382   1.511   2.791   0.780  1.1177  0.2391  0.8648
  846SOL    HW2 3383   1.367   2.745   0.804  0.8309  0.0598  0.3734
  846SOL     MW 3384   1.452   2.727   0.784  0.4254  0.2566  0.1066
  847SOL     OW 3385   2.434   1.825   0.235  0.1864  0.1772  0.3977
  847SOL    HW1 3386   2.410   1.736   0.234 -1.6320  0.5449 -2.7324
  847SOL    HW2 3387   2.440   1.853   0.149  0.4278 -1.8167  2.9384
  847SOL     MW 3388   2.431   1.817   0.224 -0.0216 -0.0373  0.3199
  848SOL     OW 3389   2.728   2.099   1.239  0.3916 -0.2337  0.6544
  848SOL    HW1 3390   2.740   2.183   1.200  1.4810  0.5488 -1.6180
  848SOL    HW2 3391   2.745   2.039   1.165 -2.4872  0.8071 -1.1220
  848SOL     MW 3392   2.732   2.102   1.224  0.1555  0.0068  0.1202
  849SOL     OW 3393   1.896   2.845   0.855 -0.5325  0.0781  0.3100
  849SOL    HW1 3394   1.862   2.786   0.920 -3.3200  0.7848 -0.3048
  849SOL    HW2 3395   1.886   2.782   0.777  1.5126 -1.2978 -1.2199
  849SOL     MW 3396   1.890   2.829   0.854 -0.6304 -0.0102  0.0270
  850SOL     OW 3397   2.333   1.928   1.611  0.1349 -0.7055 -0.0938
  850SOL    HW1 3398   2.247   1.918   1.566  0.6585  0.5376  0.0860
  850SOL    HW2 3399   2.346   2.026   1.627  1.6605  1.8213 -2.2936
  850SOL     MW 3400   2.323   1.940   1.607  0.4053 -0.2081 -0.3603
  851SOL     OW 3401   2.599   2.222   0.385  0.6966  0.0098 -0.0106
  851SOL    HW1 3402   2.561   2.204   0.297 -2.0102  1.2387  1.3906
  851SOL    HW2 3403   2.538   2.289   0.418 -1.0315  2.8746 -0.9357
  851SOL     MW 3404   2.586   2.228   0.378  0.1115  0.5499  0.0522
  852SOL     OW 3405   2.335   2.046   0.363  0.0318  0.1163  0.1805
  852SOL    HW1 3406   2.384   2.112   0.313  0.9603 -0.2291  1.6049
  852SOL    HW2 3407   2.349   1.957   0.316 -1.1095 -1.5909  0.1613
  852SOL     MW 3408   2.343   2.043   0.350  0.0037 -0.1545  0.3659
  853SOL     OW 3409   2.524   2.397   1.896  0.0939 -0.5243  0.1976
  853SOL    HW1 3410   2.507   2.446   1.813  0.8154  1.2434 -0.9067
  853SOL    HW2 3411   2.620   2.410   1.914  0.2034  1.1844  1.9430
  853SOL     MW 3412   2.534   2.405   1.887  0.2035 -0.0656  0.2822
  854SOL     OW 3413   2.884   2.269   0.755 -0.4835  0.2501 -0.1457
  854SOL    HW1 3414   2.814   2.223   0.705 -0.4483  0.8287  0.8184
  854SOL    HW2 3415   2.920   2.197   0.819 -0.9350 -0.0072  0.0476
  854SOL     MW 3416   2.880   2.253   0.757 -0.5384  0.2925  0.0070
  855SOL     OW 3417   2.833   2.372   0.410 -0.2710  0.2483 -0.0371
  855SOL    HW1 3418   2.740   2.342   0.411 -1.0163  0.3213 -0.7154
  855SOL    HW2 3419   2.878   2.294   0.370 -0.6022  0.6154 -2.4167
  855SOL     MW 3420   2.826   2.358   0.405 -0.4130  0.3064 -0.4406
  856SOL     OW 3421   2.060   1.837   0.252 -0.8268  0.4619  0.2382
  856SOL    HW1 3422   1.966   1.835   0.268 -0.0948 -0.3057 -0.9753
  856SOL    HW2 3423   2.079   1.929   0.273 -2.3164  0.2025 -2.0768
  856SOL     MW 3424   2.050   1.849   0.257 -0.9268  0.3264 -0.2274
  857SOL     OW 3425   2.489   1.930   0.589 -0.1935  0.2629  0.2979
  857SOL    HW1 3426   2.449   1.976   0.516  1.9007  0.7520 -0.3086
  857SOL    HW2 3427   2.417   1.908   0.648  3.0882 -0.3817  0.2358
  857SOL     MW 3428   2.474   1.933   0.587  0.5158  0.2424  0.2097
  858SOL     OW 3429   2.956   2.688   1.889  0.5211  0.0880  0.8714
  858SOL    HW1 3430   3.032   2.742   1.891  1.3651 -1.8225 -1.2275
  858SOL    HW2 3431   2.973   2.630   1.815  1.0451  0.4467 -1.3365
  858SOL     MW 3432   2.968   2.688   1.880  0.7016 -0.1168  0.3032
  859SOL     OW 3433   1.757   2.660   1.001  0.4028  0.4180  0.6197
  859SOL    HW1 3434   1.709   2.601   0.948  0.4862  1.8803  3.2638
  859SOL    HW2 3435   1.822   2.598   1.036  0.4041 -4.4814  0.5494
  859SOL     MW 3436   1.759   2.644   0.999  0.4140 -0.0355  0.9593
  860SOL     OW 3437   2.659   2.557   0.061  0.1200 -0.4675 -0.0417
  860SOL    HW1 3438   2.703   2.579   0.148 -2.2303  0.8527  0.0030
  860SOL    HW2 3439   2.643   2.632   0.003  0.5294  1.5216 -2.0350
  860SOL     MW 3440   2.663   2.570   0.065 -0.1361 -0.0309 -0.2988
  861SOL     OW 3441   1.585   2.153   1.173 -0.2525  0.4815  0.1584
  861SOL    HW1 3442   1.604   2.214   1.253 -3.3453  1.6656  1.5145
  861SOL    HW2 3443   1.520   2.094   1.217 -0.9724 -0.0369 -2.7300
  861SOL     MW 3444   1.579   2.154   1.189 -0.7555  0.5694 -0.0438
  862SOL     OW 3445   2.464   1.746   1.462  0.4603  1.0421  0.3753
  862SOL    HW1 3446   2.429   1.808   1.529  0.2609  1.3586 -3.8350
  862SOL    HW2 3447   2.389   1.721   1.411  0.9579  1.6073  0.3606
  862SOL     MW 3448   2.450   1.751   1.464  0.4997  1.1584 -0.1821
  863SOL     OW 3449   2.870   1.647   0.950  0.0190 -0.3676  0.4721
  863SOL    HW1 3450   2.850   1.722   1.007  1.0748  0.8959  0.3530
  863SOL    HW2 3451   2.793   1.633   0.890 -0.0340 -0.8805  0.7943
  863SOL     MW 3452   2.857   1.655   0.950  0.1513 -0.2686  0.4989
  864SOL     OW 3453   3.074   1.775   0.777 -0.2728  0.1240  0.0950
  864SOL    HW1 3454   3.020   1.722   0.838  1.6886 -0.5660 -0.4519
  864SOL    HW2 3455   3.025   1.792   0.694 -1.8196  4.5664  1.6558
  864SOL     MW 3456   3.060   1.770   0.774 -0.2181  0.6191  0.2287
  865SOL     OW 3457   2.510   2.161   0.127  0.0992  0.1482 -0.5492
  865SOL    HW1 3458   2.505   2.092   0.065 -1.3525 -1.6076 -0.6741
  865SOL    HW2 3459   2.431   2.216   0.116 -3.2022  2.7596  0.0989
  865SOL     MW 3460   2.499   2.159   0.117 -0.5279  0.2611 -0.4802
  866SOL     OW 3461   2.722   2.344   1.523 -0.2075 -0.5648 -0.1238
  866SOL    HW1 3462   2.740   2.255   1.562  0.0125  0.1019  0.1542
  866SOL    HW2 3463   2.775   2.358   1.448  2.1009 -1.4310 -1.5804
  866SOL     MW 3464   2.731   2.334   1.519  0.1261 -0.5912 -0.2793
  867SOL     OW 3465   0.163   2.707   1.714 -0.7180 -0.4469 -0.4658
  867SOL    HW1 3466   0.232   2.757   1.758  1.3985 -2.2236  0.5116
  867SOL    HW2 3467   0.091   2.768   1.712  1.5509 -1.5687  1.8988
  867SOL     MW 3468   0.163   2.721   1.719 -0.1394 -0.8293 -0.0249
  868SOL     OW 3469   2.739   2.627   0.569  0.3343 -0.8612 -0.2582
  868SOL    HW1 3470   2.738   2.537   0.561  0.2502  2.1392  0.1811
  868SOL    HW2 3471   2.674   2.668   0.512 -0.3600 -1.1501  0.9989
  868SOL     MW 3472   2.730   2.621   0.560  0.2316 -0.5035 -0.0344
  869SOL     OW 3473   1.947   2.454   1.061  0.6824  0.4166 -1.0920
  869SOL    HW1 3474   2.024   2.503   1.026  0.8575  0.6598  0.1884
  869SOL    HW2 3475   1.944   2.373   1.002 -3.2995 -1.1158  3.4970
  869SOL     MW 3476   1.957   2.450   1.048  0.1802  0.2465 -0.3176
  870SOL     OW 3477   2.169   0.021   0.459 -0.0213 -0.1374  0.2169
  870SOL    HW1 3478   2.246   0.060   0.412  3.0394  2.4434 -2.5554
  870SOL    HW2 3479   2.197  -0.063   0.503 -1.0639 -1.1486 -1.2180
  870SOL     MW 3480   2.183   0.015   0.459  0.2449  0.0697 -0.3382
  871SOL     OW 3481   2.440   2.051   0.905 -0.1327  0.2881  0.4070
  871SOL    HW1 3482   2.373   1.998   0.854 -0.4421  0.1597 -2.7410
  871SOL    HW2 3483   2.398   2.125   0.960  1.2746  1.7038 -0.1943
  871SOL     MW 3484   2.426   2.054   0.905  0.0121  0.4579 -0.0877
  872SOL     OW 3485   2.109   2.468   1.615  0.0357 -0.0085 -0.0084
  872SOL    HW1 3486   2.054   2.534   1.654 -0.9945 -1.0665 -0.9032
  872SOL    HW2 3487   2.062   2.415   1.554  0.1156  0.6605  1.2840
  872SOL     MW 3488   2.096   2.470   1.612 -0.0897 -0.0598  0.0440
  873SOL     OW 3489   2.897   2.135   1.825  0.1685 -0.1580 -0.1136
  873SOL    HW1 3490   2.911   2.195   1.895  0.9897 -1.0891 -0.6439
  873SOL    HW2 3491   2.967   2.158   1.763  0.5176  0.6624 -1.4790
  873SOL     MW 3492   2.908   2.146   1.826  0.3229 -0.1726 -0.3637
  874SOL     OW 3493   2.333   1.421   2.379  0.5685 -0.0758 -0.2266
  874SOL    HW1 3494   2.292   1.373   2.302  2.7439 -0.8293  1.6679
  874SOL    HW2 3495   2.412   1.370   2.385 -3.4261  0.3148 -0.1195
  874SOL     MW 3496   2.338   1.408   2.369  0.3285 -0.1237  0.0375
  875SOL     OW 3497   2.335   2.277   0.999 -0.1010 -0.4335 -0.2369
  875SOL    HW1 3498   2.333   2.332   0.921 -0.8867  0.7340  1.1800
  875SOL    HW2 3499   2.362   2.340   1.065 -2.4995  0.3187  0.7507
  875SOL     MW 3500   2.338   2.293   0.998 -0.5212 -0.1802  0.0804
  876SOL     OW 3501   0.014   2.211   1.290  1.2335 -0.2003 -0.5250
  876SOL    HW1 3502   0.076   2.281   1.270  0.8583  0.0905  0.1534
  876SOL    HW2 3503   0.012   2.214   1.385 -1.1352  1.1972  1.9933
  876SOL     MW 3504   0.022   2.220   1.300  0.8714  0.0225 -0.1032
  877SOL     OW 3505   0.033   2.789   0.274  0.5960 -0.1715 -0.1847
  877SOL    HW1 3506   0.109   2.840   0.238 -0.7467  0.2439  1.7641
  877SOL    HW2 3507   0.005   2.730   0.203  1.7850  2.4552  0.6996
  877SOL     MW 3508   0.039   2.788   0.260  0.5757  0.2299  0.1891
  878SOL     OW 3509   2.256   1.719   1.141 -0.1698  0.9081 -0.2131
  878SOL    HW1 3510   2.198   1.655   1.196 -0.7004 -0.1816  2.8706
  878SOL    HW2 3511   2.339   1.669   1.156  2.3907  0.8173  0.0468
  878SOL     MW 3512   2.259   1.704   1.151  0.0980  0.7523  0.2280
  879SOL     OW 3513   2.712   2.453   0.862  0.0088 -0.3108  0.2132
  879SOL    HW1 3514   2.787   2.516   0.866 -0.0466  1.2388  2.4662
  879SOL    HW2 3515   2.744   2.373   0.818 -1.2252  2.3458 -0.0070
  879SOL     MW 3516   2.726   2.450   0.857 -0.1613  0.2442  0.4814
  880SOL     OW 3517   2.615   2.199   0.706  0.5528  0.0181  0.1724
  880SOL    HW1 3518   2.553   2.205   0.780  2.0942  0.2188 -3.2836
  880SOL    HW2 3519   2.565   2.144   0.644 -2.2126 -0.9871 -0.8606
  880SOL     MW 3520   2.601   2.193   0.708  0.3913 -0.0880 -0.4199
  881SOL     OW 3521   2.961   2.707   0.701 -0.3761 -0.0079 -0.3391
  881SOL    HW1 3522   2.888   2.673   0.642 -1.8789 -2.5593 -1.0232
  881SOL    HW2 3523   3.042   2.692   0.659  1.3471  1.3008 -2.7366
  881SOL     MW 3524   2.962   2.700   0.688 -0.3470 -0.1718 -0.7457
  882SOL     OW 3525   2.245   2.904   1.915  0.0668 -0.5644 -0.3499
  882SOL    HW1 3526   2.251   2.908   1.819  0.7862 -2.3913 -0.1993
  882SOL    HW2 3527   2.208   2.818   1.932  0.1847 -2.7316  1.1304
  882SOL     MW 3528   2.241   2.893   1.904  0.1772 -1.0914 -0.1348
  883SOL     OW 3529   2.438   2.172   1.320 -0.2601  0.1717  0.6401
  883SOL    HW1 3530   2.527   2.137   1.300 -1.4562 -0.8739 -1.4645
  883SOL    HW2 3531   2.379   2.127   1.258 -1.9480  1.6973 -0.6865
  883SOL     MW 3532   2.442   2.161   1.309 -0.6406  0.2350  0.1874
  884SOL     OW 3533   1.881   1.866   1.045  0.3276 -0.4910  0.1321
  884SOL    HW1 3534   1.826   1.948   1.009 -0.9467  1.0750  2.8170
  884SOL    HW2 3535   1.974   1.901   1.052 -0.3145  0.4033  1.0448
  884SOL     MW 3536   1.886   1.881   1.041  0.0748 -0.1664  0.6067
  885SOL     OW 3537   2.926   2.441   1.717 -0.6337  0.2898  0.3396
  885SOL    HW1 3538   2.987   2.366   1.696  1.5660  1.6464 -0.2118
  885SOL    HW2 3539   2.858   2.431   1.651  1.4493  0.4765  0.4321
  885SOL     MW 3540   2.925   2.430   1.706 -0.0687  0.4934  0.2791
  886SOL     OW 3541   2.893   2.385   1.291 -0.2939  0.0636 -0.0795
  886SOL    HW1 3542   2.978   2.343   1.275  2.1378 -0.0562  2.3503
  886SOL    HW2 3543   2.918   2.462   1.341 -1.8985 -2.0115  0.7719
  886SOL     MW 3544   2.908   2.390   1.295 -0.1847 -0.2260  0.3534
  887SOL     OW 3545   2.336   2.623   1.553  0.1462 -0.2611 -0.2116
  887SOL    HW1 3546   2.366   2.638   1.462  1.0665 -0.2125  0.0686
  887SOL    HW2 3547   2.274   2.553   1.560  0.4238 -1.5559  0.1931
  887SOL     MW 3548   2.332   2.615   1.542  0.3043 -0.4255 -0.1212
  888SOL     OW 3549   2.072   2.208   1.430 -0.3207  0.5548  0.7792
  888SOL    HW1 3550   2.102   2.186   1.343  0.3279  2.7560 -1.3104
  888SOL    HW2 3551   2.153   2.200   1.481 -0.9533  1.1512 -2.0834
  888SOL     MW 3552   2.087   2.204   1.426 -0.3186  0.9239  0.1258
  889SOL     OW 3553   2.285   1.930   2.070  0.6302 -0.2971  0.3855
  889SOL    HW1 3554   2.364   1.899   2.110  0.7866  1.3988 -0.1207
  889SOL    HW2 3555   2.325   2.009   2.028  1.6205 -0.1029 -0.4364
  889SOL     MW 3556   2.301   1.936   2.070  0.7815 -0.0477  0.2103
  890SOL     OW 3557   0.056   2.350   0.119 -0.3674 -0.1117 -0.1349
  890SOL    HW1 3558   0.019   2.439   0.130 -0.4783 -0.3821 -0.9970
  890SOL    HW2 3559   0.089   2.327   0.204 -1.4371 -2.0631  0.7100
  890SOL     MW 3560   0.055   2.359   0.131 -0.5232 -0.4048 -0.1372
  891SOL     OW 3561   3.008   1.962   1.203  0.1084 -0.1185  0.2171
  891SOL    HW1 3562   3.059   1.890   1.161 -2.3116  0.6875 -2.3711
  891SOL    HW2 3563   3.069   2.038   1.228 -2.4793  1.4400 -1.8036
  891SOL     MW 3564   3.023   1.962   1.200 -0.5523  0.1935 -0.3910
  892SOL     OW 3565   2.432   2.358   2.738 -0.2045 -0.1067 -0.1135
  892SOL    HW1 3566   2.417   2.260   2.760 -0.3823  0.2195  0.9904
  892SOL    HW2 3567   2.520   2.367   2.776  1.3244 -0.7700  0.5133
  892SOL     MW 3568   2.442   2.347   2.746 -0.0262 -0.1512  0.1149
  893SOL     OW 3569   1.633   2.338   1.388  0.2687  0.2475 -0.0757
  893SOL    HW1 3570   1.557   2.393   1.395 -0.2546  0.6559 -2.3876
  893SOL    HW2 3571   1.658   2.310   1.475  0.1131 -2.4652 -1.7100
  893SOL     MW 3572   1.626   2.341   1.400  0.1792 -0.0565 -0.5964
  894SOL     OW 3573   2.789   1.974   0.507  0.3796 -0.2239  0.8428
  894SOL    HW1 3574   2.715   2.003   0.551  0.7029 -0.7475  2.2324
  894SOL    HW2 3575   2.756   1.945   0.422 -0.1035 -1.0674  0.8235
  894SOL     MW 3576   2.775   1.974   0.502  0.3585 -0.4043  1.0236
  895SOL     OW 3577   2.187   2.170   1.195 -0.0154  0.6088 -0.0078
  895SOL    HW1 3578   2.211   2.233   1.123  1.1121 -1.3453  0.5567
  895SOL    HW2 3579   2.187   2.084   1.144  1.6579 -1.6160 -0.1624
  895SOL     MW 3580   2.191   2.167   1.179  0.3542  0.0574  0.0463
  896SOL     OW 3581   2.335   2.797   1.090  0.9504 -0.1137 -0.0805
  896SOL    HW1 3582   2.376   2.743   1.161  0.0695  0.9748  0.3964
  896SOL    HW2 3583   2.246   2.818   1.123 -1.3272 -0.7235 -0.8846
  896SOL     MW 3584   2.328   2.793   1.103  0.5336 -0.0506 -0.1237
  897SOL     OW 3585   0.018   3.056   3.032  0.1531  0.1349 -0.5481
  897SOL    HW1 3586   0.042   2.962   3.030 -0.8446  1.0569 -2.2730
  897SOL    HW2 3587  -0.042   3.063   2.961 -0.5766 -1.4045  1.8263
  897SOL     MW 3588   0.013   3.045   3.022 -0.0748  0.0534 -0.4624
  898SOL     OW 3589   2.153   0.187   1.432 -0.4216 -0.0851  0.3995
  898SOL    HW1 3590   2.124   0.095   1.434  0.3614  0.1815 -1.0429
  898SOL    HW2 3591   2.146   0.206   1.340 -1.4507 -2.9559 -1.6781
  898SOL     MW 3592   2.148   0.177   1.420 -0.4541 -0.4287 -0.0649
  899SOL     OW 3593   3.011   2.962   0.615 -0.3346 -0.7205  0.3786
  899SOL    HW1 3594   2.998   2.882   0.664  0.3655 -0.0524  1.3953
  899SOL    HW2 3595   2.938   3.026   0.632  1.8002 -1.2248 -0.4313
  899SOL     MW 3596   3.000   2.960   0.624  0.0395 -0.6989  0.4059
  900SOL     OW 3597   0.174   2.372   1.136 -0.1411 -0.0215 -0.1550
  900SOL    HW1 3598   0.131   2.459   1.123 -3.8972  0.0134  2.9268
  900SOL    HW2 3599   0.147   2.325   1.053 -2.3150  1.7633 -2.3867
  900SOL     MW 3600   0.165   2.377   1.123 -0.9235  0.2185 -0.0429
  901SOL     OW 3601   1.748   2.867   1.772 -0.1141 -0.2663  0.0009
  901SOL    HW1 3602   1.807   2.811   1.729  2.6899  2.1746 -0.2037
  901SOL    HW2 3603   1.653   2.834   1.754 -2.4310 -1.2222 -3.1065
  901SOL     MW 3604   1.743   2.855   1.764 -0.0499 -0.0704 -0.4361
  902SOL     OW 3605   2.611   2.087   1.725  0.0065  0.0247 -0.0011
  902SOL    HW1 3606   2.619   2.031   1.648  2.3113 -0.3106 -2.1149
  902SOL    HW2 3607   2.702   2.097   1.756  0.9335  1.9326  1.6727
  902SOL     MW 3608   2.624   2.081   1.719  0.4329  0.2322 -0.0592
  903SOL     OW 3609   1.544   2.657   0.531 -0.0261  0.2234 -0.5523
  903SOL    HW1 3610   1.624   2.605   0.545 -0.1205  0.7583  3.6541
  903SOL    HW2 3611   1.516   2.691   0.615  2.4877 -0.0701  0.7197
  903SOL     MW 3612   1.551   2.655   0.544  0.2931  0.2553  0.1705
  904SOL     OW 3613   2.552   2.538   1.674 -0.0186 -0.0022  0.2470
  904SOL    HW1 3614   2.469   2.570   1.627 -2.2636  1.0847 -0.8585
  904SOL    HW2 3615   2.591   2.473   1.613  0.1939 -0.9153  2.0099
  904SOL     MW 3616   2.547   2.534   1.660 -0.2867  0.0207  0.3338
  905SOL     OW 3617   2.334   2.508   2.086 -0.0919  0.1681  0.0603
  905SOL    HW1 3618   2.392   2.478   2.013 -1.0363  1.1783 -2.0856
  905SOL    HW2 3619   2.291   2.438   2.141  0.4898 -1.5297 -1.1291
  905SOL     MW 3620   2.336   2.495   2.084 -0.1398  0.0774 -0.3798
  906SOL     OW 3621   2.406   2.464   0.793 -0.3653 -0.5993  0.5133
  906SOL    HW1 3622   2.500   2.462   0.791 -0.9665  0.3513  1.4705
  906SOL    HW2 3623   2.398   2.562   0.804 -0.2700  0.3888  1.2850
  906SOL     MW 3624   2.418   2.477   0.794 -0.4321 -0.3435  0.7414
  907SOL     OW 3625   2.665   2.741   1.329 -0.0753  0.7948  0.1687
  907SOL    HW1 3626   2.667   2.827   1.361  0.4163 -2.5219  0.2280
  907SOL    HW2 3627   2.683   2.753   1.233 -0.5707 -2.6461 -5.3211
  907SOL     MW 3628   2.668   2.754   1.321 -0.0758 -0.0968 -0.5478
  908SOL     OW 3629   2.677   2.306   3.072 -0.3197 -0.2462  0.0853
  908SOL    HW1 3630   2.640   2.256   3.137 -1.6194 -1.0326  1.3600
  908SOL    HW2 3631   2.668   2.400   3.096  2.7425 -1.4654  0.9429
  908SOL     MW 3632   2.671   2.312   3.084 -0.0871 -0.5108  0.3666
  909SOL     OW 3633   1.714   0.099   1.304 -0.0683  0.2149  0.0423
  909SOL    HW1 3634   1.703   0.194   1.296  0.9396 -0.9853  0.8568
  909SOL    HW2 3635   1.661   0.083   1.389  2.0204 -1.9771 -0.2320
  909SOL     MW 3636   1.705   0.110   1.314  0.3402 -0.2327  0.1136
  910SOL     OW 3637   2.138   1.638   0.450  0.0523 -0.2144  0.4908
  910SOL    HW1 3638   2.071   1.572   0.448 -1.1734  3.4779  0.9682
  910SOL    HW2 3639   2.109   1.714   0.392  3.6623  0.4396  0.4962
  910SOL     MW 3640   2.125   1.639   0.442  0.3669  0.3590  0.5545
  911SOL     OW 3641   2.380   2.203   1.582 -0.6532 -0.3986  0.3520
  911SOL    HW1 3642   2.462   2.198   1.626 -2.6771 -0.6540  1.0394
  911SOL    HW2 3643   2.396   2.190   1.494  1.8389  2.1305  1.9198
  911SOL     MW 3644   2.393   2.200   1.576 -0.5914 -0.0986  0.6496
  912SOL     OW 3645   2.932   1.846   1.448 -0.0568 -0.0856  0.3374
  912SOL    HW1 3646   2.967   1.878   1.357 -1.7543  0.7810 -0.7777
  912SOL    HW2 3647   2.838   1.868   1.446 -2.3751 -1.2183  1.6631
  912SOL     MW 3648   2.924   1.853   1.436 -0.5866 -0.1207  0.3652
  913SOL     OW 3649   2.686   3.098   0.315  0.3014 -0.4844  0.2344
  913SOL    HW1 3650   2.771   3.059   0.313 -1.4763  0.4248  1.4544
  913SOL    HW2 3651   2.631   3.035   0.267  0.2737  1.6497  0.6834
  913SOL     MW 3652   2.690   3.084   0.308  0.0632 -0.0828  0.4546
  914SOL     OW 3653   2.643   1.775   3.059  0.2486  0.0237  0.4475
  914SOL    HW1 3654   2.703   1.853   3.045 -2.6893  2.2015  2.0091
  914SOL    HW2 3655   2.562   1.792   3.010  2.2786 -0.3985  0.4647
  914SOL     MW 3656   2.640   1.787   3.051  0.1288  0.2554  0.6558
  915SOL     OW 3657   1.803   0.115   0.170  0.4367 -0.1875  0.0119
  915SOL    HW1 3658   1.872   0.048   0.206 -0.7125 -1.0540  0.6238
  915SOL    HW2 3659   1.717   0.073   0.175  2.4268 -0.4538  0.2716
  915SOL     MW 3660   1.801   0.101   0.175  0.5476 -0.3370  0.1269
  916SOL     OW 3661   1.784   2.118   1.984  0.0004 -0.8532  0.0367
  916SOL    HW1 3662   1.823   2.204   1.973 -0.1986 -1.7899  0.4040
  916SOL    HW2 3663   1.820   2.058   1.915 -1.2723 -0.7830 -0.3679
  916SOL     MW 3664   1.794   2.122   1.973 -0.1938 -0.9675  0.0318
  917SOL     OW 3665   2.509   2.195   2.530 -0.2643  0.0216 -0.0604
  917SOL    HW1 3666   2.483   2.267   2.588 -0.2105  1.6239  3.4786
  917SOL    HW2 3667   2.598   2.210   2.506  0.7099 -0.0812 -2.7529
  917SOL     MW 3668   2.518   2.206   2.534 -0.1287  0.2194  0.0513
  918SOL     OW 3669   2.026   1.601   2.674 -0.2202 -0.3974 -0.2995
  918SOL    HW1 3670   1.949   1.620   2.615 -0.7241 -0.5478 -0.3519
  918SOL    HW2 3671   2.097   1.659   2.642 -0.5560 -0.6224  3.5238
  918SOL     MW 3672   2.025   1.611   2.662 -0.3310 -0.4469  0.1980
  919SOL     OW 3673   3.053   2.393   2.283 -0.2112 -0.1654 -0.5187
  919SOL    HW1 3674   2.970   2.360   2.258  2.6632  3.0037 -1.7902
  919SOL    HW2 3675   3.107   2.403   2.204  3.2079 -1.1858 -0.6186
  919SOL     MW 3676   3.049   2.390   2.269  0.6191  0.1181 -0.6997
  920SOL     OW 3677   2.590   2.873   3.032  0.1592  0.4983 -0.2062
  920SOL    HW1 3678   2.513   2.819   3.008  0.0149  1.3806  1.4231
  920SOL    HW2 3679   2.658   2.827   2.986 -1.4187 -3.5527  1.8772
  920SOL     MW 3680   2.589   2.860   3.022 -0.0680  0.0802  0.2837
  921SOL     OW 3681   2.408   2.584   2.592 -0.2566  0.0389 -0.2835
  921SOL    HW1 3682   2.491   2.588   2.548 -1.7873  0.2418 -1.8228
  921SOL    HW2 3683   2.416   2.512   2.654  2.1105  1.6620 -1.3458
  921SOL     MW 3684   2.420   2.575   2.594 -0.1462  0.2798 -0.6267
  922SOL     OW 3685   2.090   2.648   0.407  0.4680  0.0606  0.1421
  922SOL    HW1 3686   2.100   2.669   0.313  0.0389  2.6310 -2.6124
  922SOL    HW2 3687   2.140   2.566   0.419 -1.3778  2.8281  0.9293
  922SOL     MW 3688   2.098   2.640   0.396  0.1678  0.7649 -0.1175
  923SOL     OW 3689   2.221   2.853   1.651 -0.1253 -0.8170 -0.3845
  923SOL    HW1 3690   2.258   2.791   1.588  0.8058  0.3152  0.4846
  923SOL    HW2 3691   2.182   2.920   1.592 -2.4315 -2.0133  0.8160
  923SOL     MW 3692   2.220   2.854   1.635 -0.3068 -0.8255 -0.1114
  924SOL     OW 3693   1.068   2.726   2.606 -0.0364  0.2191 -0.8057
  924SOL    HW1 3694   1.163   2.741   2.608 -1.1113 -0.5855  1.1936
  924SOL    HW2 3695   1.052   2.648   2.661  1.3367 -0.2695  1.9370
  924SOL     MW 3696   1.079   2.718   2.614  0.0029  0.0485 -0.1801
  925SOL     OW 3697   2.981   0.152   2.631 -0.6414  0.3969  0.4472
  925SOL    HW1 3698   2.908   0.138   2.569 -4.4297 -1.2499  0.4442
  925SOL    HW2 3699   2.954   0.217   2.700 -0.8983 -1.1958 -0.9335
  925SOL     MW 3700   2.967   0.159   2.632 -1.1751 -0.0305  0.2646
  926SOL     OW 3701   2.793   2.410   1.953 -0.2997 -0.1478  0.0209
  926SOL    HW1 3702   2.831   2.485   1.993 -0.2392  1.3440  0.7797
  926SOL    HW2 3703   2.831   2.416   1.865 -0.4967  0.3877 -0.1401
  926SOL     MW 3704   2.803   2.421   1.947 -0.3177  0.1197  0.0998
  927SOL     OW 3705   2.359   0.117   0.297 -0.0978 -0.2098  0.0400
  927SOL    HW1 3706   2.451   0.115   0.307 -0.4479 -1.5217 -1.5288
  927SOL    HW2 3707   2.347   0.079   0.207  2.0759  2.4279  1.0228
  927SOL     MW 3708   2.369   0.112   0.287  0.1428 -0.0349 -0.0373
  928SOL     OW 3709   2.172   2.332   1.860  0.2902  0.5311 -0.1494
  928SOL    HW1 3710   2.160   2.392   1.785 -0.2682 -2.8211 -0.6617
  928SOL    HW2 3711   2.188   2.377   1.941  0.6606 -0.7195  1.1913
  928SOL     MW 3712   2.173   2.346   1.861  0.2654 -0.0762 -0.0401
  929SOL     OW 3713   2.717   2.352   2.425 -0.3042  0.3154 -0.7452
  929SOL    HW1 3714   2.732   2.321   2.334 -1.4199  0.5698 -1.2566
  929SOL    HW2 3715   2.796   2.330   2.477  1.3675 -1.1373  2.0181
  929SOL     MW 3716   2.730   2.345   2.420 -0.2308  0.1573 -0.4481
  930SOL     OW 3717   2.045   2.835   2.679 -0.0021 -0.4209  0.3074
  930SOL    HW1 3718   2.049   2.755   2.728  2.7561 -1.0843  0.3417
  930SOL    HW2 3719   2.133   2.878   2.686  0.8855 -0.0580  3.5330
  930SOL     MW 3720   2.057   2.830   2.686  0.4790 -0.4605  0.7375
  931SOL     OW 3721   0.034   2.760   2.454 -0.0052  0.0014  0.4283
  931SOL    HW1 3722   0.013   2.832   2.527 -3.6233 -1.3096  1.1547
  931SOL    HW2 3723   0.127   2.781   2.436 -1.2141 -0.4588  1.7274
  931SOL     MW 3724   0.044   2.773   2.461 -0.6421 -0.2323  0.6956
  932SOL     OW 3725   2.756   2.039   2.450 -0.2324 -0.3520  0.1323
  932SOL    HW1 3726   2.847   2.074   2.453 -0.8575  0.9651  0.5980
  932SOL    HW2 3727   2.756   1.992   2.367 -0.4243  0.3314  0.1585
  932SOL     MW 3728   2.768   2.037   2.440 -0.3402 -0.0880  0.1972
  933SOL     OW 3729   2.092   2.776   2.224 -0.1356  0.5708  0.0301
  933SOL    HW1 3730   2.155   2.837   2.255 -0.4253 -1.1236  5.0735
  933SOL    HW2 3731   2.008   2.833   2.213  0.2002 -2.0201 -0.7932
  933SOL     MW 3732   2.089   2.791   2.226 -0.1295  0.0054  0.5869
  934SOL     OW 3733   2.005   2.659   2.454 -0.0896 -0.3641  0.1225
  934SOL    HW1 3734   2.023   2.725   2.515 -0.6101  2.0398  0.5397
  934SOL    HW2 3735   2.019   2.690   2.364 -2.1769  0.6822 -1.3981
  934SOL     MW 3736   2.009   2.672   2.450 -0.4337  0.0911 -0.0231
  935SOL     OW 3737   2.646   1.513   1.822  0.2631  0.5775  0.2252
  935SOL    HW1 3738   2.733   1.484   1.789  1.9151  0.5410  0.0976
  935SOL    HW2 3739   2.593   1.510   1.743  1.4676  1.7487  0.6077
  935SOL     MW 3740   2.650   1.509   1.808  0.6400  0.7272  0.2588
  936SOL     OW 3741   2.926   2.217   0.024  0.4244  0.0948  0.3325
  936SOL    HW1 3742   3.003   2.262   0.068 -1.8475 -1.3608  1.3984
  936SOL    HW2 3743   2.848   2.265   0.037 -1.8417  1.0653 -0.0677
  936SOL     MW 3744   2.926   2.230   0.031 -0.1744  0.0308  0.4203
  937SOL     OW 3745   1.931   2.118   2.617  0.8940 -0.4994  0.4652
  937SOL    HW1 3746   2.009   2.089   2.668  1.4919  1.8661  0.1939
  937SOL    HW2 3747   1.960   2.111   2.525  2.3905  1.3953 -0.0752
  937SOL     MW 3748   1.945   2.114   2.612  1.1704  0.0627  0.3581
  938SOL     OW 3749   2.220   1.822   1.835  0.0588  0.4806  0.0135
  938SOL    HW1 3750   2.265   1.851   1.761  0.2982 -0.4197 -2.5124
  938SOL    HW2 3751   2.249   1.864   1.915 -4.2655  0.4127 -0.2287
  938SOL     MW 3752   2.229   1.831   1.836 -0.4802  0.3528 -0.3518
  939SOL     OW 3753   2.772   1.979   2.143 -0.5604  0.0199 -1.0587
  939SOL    HW1 3754   2.823   1.938   2.073 -0.0689  0.3685 -1.2820
  939SOL    HW2 3755   2.689   1.937   2.135 -1.1849  0.3185  0.0942
  939SOL     MW 3756   2.768   1.968   2.133 -0.5779  0.1053 -0.9361
  940SOL     OW 3757   2.216   0.082   2.774 -0.3311  0.2786  0.1131
  940SOL    HW1 3758   2.274   0.020   2.723  0.8046 -0.6884  2.1259
  940SOL    HW2 3759   2.287   0.120   2.827 -1.3742  0.5772 -1.1376
  940SOL     MW 3760   2.233   0.079   2.774 -0.3189  0.1904  0.2136
  941SOL     OW 3761   0.110   2.444   2.044 -0.5545 -0.4381 -0.7734
  941SOL    HW1 3762   0.207   2.408   2.035 -0.3199 -1.1420 -2.9333
  941SOL    HW2 3763   0.084   2.446   1.955 -0.5300  1.0913 -1.7948
  941SOL     MW 3764   0.120   2.440   2.031 -0.5203 -0.3292 -1.1932
  942SOL     OW 3765   2.788   2.260   2.190 -0.0343 -0.0328  0.3605
  942SOL    HW1 3766   2.791   2.305   2.101 -0.6813 -1.8445  3.8816
  942SOL    HW2 3767   2.810   2.170   2.164 -0.5352  2.3931  1.3596
  942SOL     MW 3768   2.791   2.254   2.174 -0.1858  0.0483  0.9569
  943SOL     OW 3769   0.352   2.181   2.280  0.3404  0.2303  0.5264
  943SOL    HW1 3770   0.278   2.207   2.335 -1.9130  2.7611  1.2048
  943SOL    HW2 3771   0.412   2.140   2.344 -1.1210  0.4021  2.1365
  943SOL     MW 3772   0.350   2.179   2.295 -0.1497  0.5869  0.8283
  944SOL     OW 3773   2.124   2.677   1.979 -0.0679  0.5380 -0.1990
  944SOL    HW1 3774   2.198   2.624   2.001  2.1194  2.7293  0.1691
  944SOL    HW2 3775   2.085   2.690   2.074 -1.7350  0.0631 -0.8517
  944SOL     MW 3776   2.129   2.672   1.994  0.0008  0.7644 -0.2366
  945SOL     OW 3777   2.747   2.674   2.888  0.1792 -0.0852  0.0455
  945SOL    HW1 3778   2.722   2.574   2.866  1.6227 -0.0573 -0.5935
  945SOL    HW2 3779   2.743   2.719   2.799 -0.9063 -0.0298  0.8778
  945SOL     MW 3780   2.743   2.667   2.873  0.2264 -0.0742  0.0710
  946SOL     OW 3781   2.457   2.714   2.233  0.4502 -0.2049 -0.6086
  946SOL    HW1 3782   2.485   2.756   2.160  0.4827 -2.5317  4.1552
  946SOL    HW2 3783   2.407   2.637   2.195  1.8453  0.0097 -0.2225
  946SOL     MW 3784   2.454   2.709   2.219  0.6386 -0.4836  0.0709
  947SOL     OW 3785   2.034   3.032   0.199 -0.2376  0.4280 -0.3749
  947SOL    HW1 3786   2.026   2.942   0.177 -0.2533 -2.7232  2.6369
  947SOL    HW2 3787   2.079   3.041   0.289  0.1986 -1.1681 -0.2999
  947SOL     MW 3788   2.039   3.021   0.208 -0.1821 -0.1983  0.0324
  948SOL     OW 3789   1.820   3.034   2.627  0.1116 -0.1622 -0.1538
  948SOL    HW1 3790   1.888   2.963   2.630  0.4426 -1.2607 -1.9548
  948SOL    HW2 3791   1.808   3.064   2.534 -0.9373 -0.2427 -0.8688
  948SOL     MW 3792   1.827   3.029   2.615  0.0169 -0.3178 -0.4858
  949SOL     OW 3793   2.516   1.896   2.209  0.0800  0.1816 -0.6082
  949SOL    HW1 3794   2.512   1.815   2.262 -0.0384 -0.7471 -0.5346
  949SOL    HW2 3795   2.495   1.972   2.264  0.7337  1.0990 -0.0321
  949SOL     MW 3796   2.513   1.895   2.223  0.1506  0.1801 -0.5225
  950SOL     OW 3797   2.281   2.447   2.947 -0.4511 -0.1892  0.0660
  950SOL    HW1 3798   2.344   2.432   2.878  0.3045  1.8431  1.6962
  950SOL    HW2 3799   2.200   2.469   2.900 -3.0927 -1.2142 -0.7976
  950SOL     MW 3800   2.279   2.448   2.932 -0.6999 -0.0563  0.1672
  951SOL     OW 3801   3.024   2.227   2.862  0.2930  0.0519 -0.1940
  951SOL    HW1 3802   2.982   2.209   2.943  2.4500  2.3590 -1.0982
  951SOL    HW2 3803   3.119   2.210   2.875  1.3752 -4.5958 -0.8387
  951SOL     MW 3804   3.031   2.222   2.874  0.7204 -0.2569 -0.3984
  952SOL     OW 3805   3.067   1.733   2.117  0.2651 -0.1772  0.0031
  952SOL    HW1 3806   3.028   1.781   2.041  0.9776  0.4737 -1.7540
  952SOL    HW2 3807   3.137   1.790   2.157  0.1332 -1.1041  0.7856
  952SOL     MW 3808   3.071   1.747   2.112  0.3417 -0.2136 -0.1255
  953SOL     OW 3809   1.899   1.769   2.865 -0.2713  0.0310 -0.7100
  953SOL    HW1 3810   1.857   1.719   2.939  0.3204 -0.9589  0.8821
  953SOL    HW2 3811   1.958   1.712   2.817 -1.2081 -1.1027  0.3929
  953SOL     MW 3812   1.901   1.755   2.868 -0.3168 -0.2492 -0.3544
  954SOL     OW 3813   2.409   2.096   2.834 -0.0823 -0.5518 -0.3510
  954SOL    HW1 3814   2.318   2.073   2.812  0.2956 -0.9623 -0.6494
  954SOL    HW2 3815   2.468   2.029   2.786  0.3241  0.0932 -2.4779
  954SOL     MW 3816   2.405   2.084   2.825  0.0212 -0.5208 -0.6710
  955SOL     OW 3817   1.536   1.556   2.577 -1.4919  0.3807 -0.0137
  955SOL    HW1 3818   1.522   1.542   2.485 -1.5222 -0.9879  5.7040
  955SOL    HW2 3819   1.633   1.557   2.585 -0.8622 -1.3582 -1.4991
  955SOL     MW 3820   1.547   1.554   2.566 -1.4128 -0.0293  0.5447
  956SOL     OW 3821   2.680   2.405   2.813 -0.0234 -0.3840 -0.2014
  956SOL    HW1 3822   2.675   2.359   2.896  2.7599  1.2627 -0.7884
  956SOL    HW2 3823   2.773   2.394   2.799 -2.8705 -1.2808  1.0910
  956SOL     MW 3824   2.692   2.398   2.822 -0.0318 -0.2850 -0.1083
  957SOL     OW 3825   2.278   2.838   0.533  0.3065  0.2853 -0.1053
  957SOL    HW1 3826   2.214   2.774   0.501 -1.7684 -0.7247  0.7900
  957SOL    HW2 3827   2.293   2.822   0.624 -0.7388 -3.9438 -4.2964
  957SOL     MW 3828   2.271   2.828   0.541 -0.1052 -0.4060 -0.5402
  958SOL     OW 3829   2.062   2.567   2.846 -0.3265  0.8173 -0.4696
  958SOL    HW1 3830   2.015   2.504   2.792  2.2919  0.6322  2.4875
  958SOL    HW2 3831   2.029   2.557   2.939 -0.8122 -0.0797 -0.0770
  958SOL     MW 3832   2.052   2.557   2.851 -0.0451  0.6745 -0.0277
  959SOL     OW 3833   2.539   2.758   0.426 -0.0322  0.2281  0.1592
  959SOL    HW1 3834   2.553   2.813   0.343 -2.0008  0.1647  0.9441
  959SOL    HW2 3835   2.463   2.799   0.463 -0.9370 -1.8025 -1.5625
  959SOL     MW 3836   2.531   2.771   0.420 -0.4113 -0.0482  0.0356
  960SOL     OW 3837   1.893   2.384   2.314 -0.4318 -0.0706  0.1033
  960SOL    HW1 3838   1.923   2.295   2.337 -2.7816 -1.4547  3.3823
  960SOL    HW2 3839   1.817   2.389   2.371 -2.1585 -1.0469  0.9565
  960SOL     MW 3840   1.887   2.373   2.324 -0.9696 -0.3820  0.6485
  961SOL     OW 3841   2.214   2.337   2.246 -0.3454 -0.2117 -0.2840
  961SOL    HW1 3842   2.130   2.312   2.207  0.7703  0.6655 -1.5154
  961SOL    HW2 3843   2.204   2.385   2.335  0.3477  1.2872  0.6163
  961SOL     MW 3844   2.202   2.340   2.252 -0.1068  0.1018 -0.3277
  962SOL     OW 3845   2.156   2.031   2.771  0.1626 -0.1332 -0.5848
  962SOL    HW1 3846   2.155   1.973   2.844 -0.5302  2.5810 -1.1543
  962SOL    HW2 3847   2.178   1.954   2.715 -2.8613 -0.5375  0.4652
  962SOL     MW 3848   2.158   2.013   2.773 -0.3278  0.1716 -0.5214
  963SOL     OW 3849   1.843   2.533   2.093 -0.0498 -0.1807  0.0812
  963SOL    HW1 3850   1.878   2.482   2.169  1.6174 -1.2080 -0.2375
  963SOL    HW2 3851   1.849   2.478   2.015 -2.8127  1.4027  0.8204
  963SOL     MW 3852   1.848   2.519   2.093 -0.1944 -0.1073  0.1367
  964SOL     OW 3853   1.781   1.893   2.633 -0.4857  0.1134 -0.6299
  964SOL    HW1 3854   1.835   1.971   2.616 -1.3501 -2.4438  2.3761
  964SOL    HW2 3855   1.837   1.844   2.692  0.1976  0.4847  0.2817
  964SOL     MW 3856   1.795   1.897   2.639 -0.5096 -0.1750 -0.1130
  965SOL     OW 3857   2.134   2.568   0.874 -0.4292 -0.4856  0.3736
  965SOL    HW1 3858   2.168   2.523   0.799 -0.8493  0.3130  0.1332
  965SOL    HW2 3859   2.142   2.661   0.853 -2.6420 -1.8480 -0.2218
  965SOL     MW 3860   2.140   2.575   0.861 -0.7766 -0.5600  0.2634
  966SOL     OW 3861   2.652   2.615   2.408 -0.3803 -0.0084 -0.2129
  966SOL    HW1 3862   2.601   2.632   2.330  4.3598 -0.6546 -0.0056
  966SOL    HW2 3863   2.679   2.523   2.400 -2.2329 -0.6078 -1.0064
  966SOL     MW 3864   2.649   2.605   2.397  0.0007 -0.1727 -0.2903
  967SOL     OW 3865   2.656   0.040   3.104 -0.0189 -0.3070  0.5461
  967SOL    HW1 3866   2.666  -0.047   3.059 -0.5787  3.1413  0.0296
  967SOL    HW2 3867   2.607   0.102   3.046 -0.0058  0.9141 -1.3961
  967SOL     MW 3868   2.651   0.036   3.090 -0.0910  0.3091  0.2217
  968SOL     OW 3869   3.017   2.642   2.936 -0.2291 -0.8420  0.4851
  968SOL    HW1 3870   2.921   2.642   2.919  0.3437 -1.3298 -4.3574
  968SOL    HW2 3871   3.052   2.609   2.852 -0.7272 -0.9839 -1.7251
  968SOL     MW 3872   3.009   2.638   2.923 -0.2192 -0.9250 -0.4454
  969SOL     OW 3873   1.585   2.099   1.727  0.1815 -0.1945 -0.0606
  969SOL    HW1 3874   1.651   2.033   1.717 -0.2747  1.2777 -0.2410
  969SOL    HW2 3875   1.556   2.103   1.820  1.1966 -1.1384 -1.8424
  969SOL     MW 3876   1.590   2.091   1.738  0.2553 -0.1248 -0.3195
  970SOL     OW 3877   1.740   1.787   1.860  0.2370 -0.5421  0.1036
  970SOL    HW1 3878   1.768   1.701   1.896  0.4834 -2.5227 -0.7807
  970SOL    HW2 3879   1.651   1.791   1.891  1.7026 -1.6273 -0.3933
  970SOL     MW 3880   1.732   1.776   1.869  0.4629 -0.9466 -0.0787
  971SOL     OW 3881   1.766   0.005   2.361  0.4867  0.2412  0.0698
  971SOL    HW1 3882   1.814  -0.058   2.299 -1.8610 -3.2690 -1.3201
  971SOL    HW2 3883   1.812   0.085   2.343 -0.3955 -2.5735 -1.9142
  971SOL     MW 3884   1.779   0.007   2.350  0.0606 -0.5933 -0.3753
  972SOL     OW 3885   0.296   2.831   2.421 -0.1924  0.2387  0.3312
  972SOL    HW1 3886   0.338   2.764   2.473 -1.1544  3.3864  0.2580
  972SOL    HW2 3887   0.329   2.919   2.450  0.3390  0.0964 -0.2512
  972SOL     MW 3888   0.306   2.834   2.431 -0.2492  0.6353  0.2447
  973SOL     OW 3889   2.622   3.026   2.155  0.1582  0.2147  0.0359
  973SOL    HW1 3890   2.592   2.956   2.090  1.4727  1.9359  0.2558
  973SOL    HW2 3891   2.641   3.099   2.093 -1.0916  0.8865  1.2301
  973SOL     MW 3892   2.621   3.026   2.138  0.1668  0.5305  0.2225
  974SOL     OW 3893   2.011   0.141   2.608 -0.0103  0.0783  0.2783
  974SOL    HW1 3894   2.077   0.116   2.675 -0.7350  0.4200 -2.1334
  974SOL    HW2 3895   1.944   0.075   2.622 -0.7881  1.0066  2.1742
  974SOL     MW 3896   2.011   0.129   2.619 -0.2085  0.2459  0.2103
  975SOL     OW 3897   2.168   2.452   2.502 -0.2525 -0.5426 -0.2721
  975SOL    HW1 3898   2.244   2.494   2.534 -0.3563  1.0122  1.4986
  975SOL    HW2 3899   2.120   2.533   2.475 -3.3705 -0.8246 -1.9388
  975SOL     MW 3900   2.171   2.468   2.503 -0.6776 -0.3746 -0.2584
  976SOL     OW 3901   0.159   0.350   1.597 -0.0218 -0.0205  0.5292
  976SOL    HW1 3902   0.242   0.300   1.601 -0.1132  0.8969 -0.9693
  976SOL    HW2 3903   0.081   0.292   1.598 -2.3974  1.5595  0.6086
  976SOL     MW 3904   0.160   0.336   1.598 -0.3473  0.3090  0.3420
  977SOL     OW 3905   1.751   2.742   2.389 -0.0585  0.0581  0.3325
  977SOL    HW1 3906   1.832   2.696   2.423  1.1858 -3.0125  0.4964
  977SOL    HW2 3907   1.747   2.828   2.431 -1.4212  2.6658 -0.7744
  977SOL     MW 3908   1.761   2.747   2.399 -0.0741 -0.0030  0.2081
   3.10000   3.10000   3.10000
