977 TIP4P/2005f water molecules t=   0.38000 step= 380
 3908
    1SOL     OW    1   0.283   0.770   0.041 -0.2342 -0.1768 -0.5164
    1SOL    HW1    2   0.258   0.798  -0.051 -2.1379 -0.9661 -0.0195
    1SOL    HW2    3   0.261   0.678   0.049  0.3456  1.4256  0.9837
    1SOL     MW    4   0.277   0.762   0.030 -0.4088 -0.0695 -0.2529
    2SOL     OW    5   0.294   3.050   1.179  0.2918 -0.2867  0.1942
    2SOL    HW1    6   0.345   3.109   1.122 -2.3325 -1.9139  0.0488
    2SOL    HW2    7   0.200   3.080   1.168  0.7140  1.2141  0.2166
    2SOL     MW    8   0.288   3.062   1.170  0.0013 -0.3034  0.1780
    3SOL     OW    9   2.687   0.384   0.902 -0.0621  0.1361  0.3361
    3SOL    HW1   10   2.707   0.446   0.828  2.8554 -0.7773 -1.6482
    3SOL    HW2   11   2.660   0.432   0.973  1.2297 -1.1529 -1.4456
    3SOL     MW   12   2.686   0.399   0.902  0.4933 -0.1545 -0.1608
    4SOL     OW   13   3.062   1.773   0.557  0.2817 -0.6259 -0.0304
    4SOL    HW1   14   2.987   1.826   0.521 -3.1553  0.1538 -3.4022
    4SOL    HW2   15   3.083   1.708   0.491 -0.5425 -1.9317 -0.6332
    4SOL     MW   16   3.055   1.771   0.544 -0.2805 -0.6953 -0.5548
    5SOL     OW   17   1.708   1.437   0.571  0.2761  0.4203  0.5006
    5SOL    HW1   18   1.756   1.411   0.648  1.7129 -0.7100  2.0792
    5SOL    HW2   19   1.618   1.428   0.585  1.7995  1.4014 -1.0742
    5SOL     MW   20   1.702   1.433   0.583  0.6666  0.4007  0.5011
    6SOL     OW   21   0.875   1.400   0.630  0.3039  0.4267  0.4589
    6SOL    HW1   22   0.795   1.417   0.675 -0.9190 -0.0459  0.8962
    6SOL    HW2   23   0.908   1.316   0.669  1.5991  1.6209 -0.6716
    6SOL     MW   24   0.869   1.391   0.641  0.3135  0.5219  0.3674
    7SOL     OW   25   1.990   1.058   0.042 -0.0025  0.3532  0.0164
    7SOL    HW1   26   2.032   1.103  -0.027 -1.5290  0.6876 -0.7294
    7SOL    HW2   27   2.024   1.098   0.123  0.0872 -1.0876  3.1518
    7SOL     MW   28   2.000   1.070   0.043 -0.1921  0.2072  0.3317
    8SOL     OW   29   0.980   1.339   1.017 -0.5955  0.0820 -0.1532
    8SOL    HW1   30   1.036   1.327   1.092 -2.4150  2.3919  0.9205
    8SOL    HW2   31   1.003   1.254   0.967  4.7514 -0.3285 -1.0976
    8SOL     MW   32   0.991   1.326   1.020 -0.1301  0.3326 -0.1361
    9SOL     OW   33   1.050   0.453   1.346  0.4677 -0.2131 -0.4294
    9SOL    HW1   34   0.975   0.406   1.309 -0.7180  0.9940 -1.4423
    9SOL    HW2   35   1.085   0.412   1.424  1.4270 -0.8054 -1.5497
    9SOL     MW   36   1.044   0.441   1.351  0.4379 -0.1320 -0.7109
   10SOL     OW   37   0.304   0.781   0.447 -0.2696  0.0558 -0.1427
   10SOL    HW1   38   0.400   0.823   0.432 -1.1704 -0.3886 -2.1832
   10SOL    HW2   39   0.263   0.825   0.521 -2.2964  0.3059 -1.3198
   10SOL     MW   40   0.311   0.792   0.454 -0.6559  0.0302 -0.5672
   11SOL     OW   41   0.822   1.084   1.606 -0.9411  0.3742 -0.0230
   11SOL    HW1   42   0.848   1.085   1.699 -1.2810 -3.3375  2.1081
   11SOL    HW2   43   0.756   1.011   1.585  0.2958  0.5119 -0.1034
   11SOL     MW   44   0.817   1.075   1.615 -0.8228 -0.0974  0.2476
   12SOL     OW   45   0.020   1.125   0.845  0.0298 -0.6901  0.5258
   12SOL    HW1   46   0.044   1.217   0.872  1.7296 -1.4354 -2.0656
   12SOL    HW2   47  -0.051   1.153   0.785  0.4620  0.9688  2.4756
   12SOL     MW   48   0.014   1.141   0.840  0.3111 -0.5695  0.4412
   13SOL     OW   49   1.880   1.407   1.361 -0.0063 -0.1552 -0.2955
   13SOL    HW1   50   1.918   1.363   1.283 -0.1277  0.3987 -0.5416
   13SOL    HW2   51   1.871   1.494   1.340 -1.0996 -2.7343  0.9140
   13SOL     MW   52   1.884   1.413   1.348 -0.1666 -0.4224 -0.1684
   14SOL     OW   53   0.613   0.304   1.798  0.0187 -0.6777 -0.4813
   14SOL    HW1   54   0.598   0.243   1.727 -0.2553  0.3971 -1.4148
   14SOL    HW2   55   0.697   0.283   1.843  0.6987  0.1502  0.9043
   14SOL     MW   56   0.622   0.293   1.795  0.0723 -0.4267 -0.4217
   15SOL     OW   57   2.017   0.538   0.958  0.0840 -0.3491  0.0146
   15SOL    HW1   58   2.010   0.519   1.054  0.0648 -0.8090 -0.5843
   15SOL    HW2   59   2.101   0.502   0.920  0.8806  1.7056 -0.2210
   15SOL     MW   60   2.027   0.531   0.965  0.1866 -0.1387 -0.0955
   16SOL     OW   61   0.203   1.754   0.336 -0.0459  0.2350 -0.1326
   16SOL    HW1   62   0.290   1.721   0.355 -0.8062 -0.8070  1.2799
   16SOL    HW2   63   0.198   1.849   0.372 -1.0420 -0.5562  0.0739
   16SOL     MW   64   0.214   1.762   0.343 -0.2776 -0.0068  0.0810
   17SOL     OW   65   1.037   0.813   1.499 -0.5716  0.2451  0.7338
   17SOL    HW1   66   1.081   0.852   1.580 -0.4744  1.2519 -0.8159
   17SOL    HW2   67   0.948   0.797   1.526  0.9863  0.9312 -2.7742
   17SOL     MW   68   1.031   0.816   1.513 -0.3533  0.4685  0.0665
   18SOL     OW   69   0.071   1.549   0.443  0.2684 -0.1505  0.5546
   18SOL    HW1   70   0.101   1.609   0.375 -0.3220 -1.0564  4.0719
   18SOL    HW2   71   0.029   1.475   0.396  0.9005 -0.7386 -0.1310
   18SOL     MW   72   0.070   1.547   0.428  0.2739 -0.3476  0.9282
   19SOL     OW   73   0.106   1.348   1.039 -0.1731  0.3341 -0.4779
   19SOL    HW1   74   0.157   1.380   0.970 -1.3878 -1.5848 -0.6289
   19SOL    HW2   75   0.020   1.390   1.028  0.9920  0.4334 -0.8454
   19SOL     MW   76   0.101   1.358   1.028 -0.1796  0.0940 -0.5463
   20SOL     OW   77   0.461   2.120   1.295  0.0052  0.2517  0.1887
   20SOL    HW1   78   0.401   2.054   1.246 -0.6938  1.0539 -2.3598
   20SOL    HW2   79   0.403   2.163   1.362 -1.1213 -1.2039  2.3391
   20SOL     MW   80   0.445   2.117   1.297 -0.2357  0.1655  0.1362
   21SOL     OW   81   0.541   0.891   0.347 -0.2413  0.0639  0.1346
   21SOL    HW1   82   0.603   0.861   0.411 -1.8203  0.4204 -0.6062
   21SOL    HW2   83   0.569   0.838   0.271  0.1669 -0.6965 -0.4405
   21SOL     MW   84   0.553   0.880   0.346 -0.3958  0.0106 -0.0390
   22SOL     OW   85   1.527   0.580   1.123  0.2735 -0.1334 -0.4630
   22SOL    HW1   86   1.593   0.565   1.056 -2.3754 -1.1545  1.3414
   22SOL    HW2   87   1.461   0.642   1.091 -1.8146  2.7375  1.9966
   22SOL     MW   88   1.527   0.586   1.110 -0.3515  0.1107  0.0996
   23SOL     OW   89   3.054   0.749   0.721  0.0575  0.4859 -0.4564
   23SOL    HW1   90   3.089   0.658   0.721  2.3216  1.8770 -0.6617
   23SOL    HW2   91   3.130   0.805   0.730  0.7486 -3.4673  0.3496
   23SOL     MW   92   3.068   0.744   0.722  0.4474  0.1479 -0.3771
   24SOL     OW   93   2.003   2.195   0.042 -0.7107  0.3081  0.5308
   24SOL    HW1   94   2.004   2.196   0.141 -1.2963  1.1684  0.2448
   24SOL    HW2   95   2.079   2.139   0.020  0.3885 -2.0536 -1.4616
   24SOL     MW   96   2.013   2.188   0.052 -0.6430  0.1100  0.2302
   25SOL     OW   97   0.288   1.410   0.512  0.4184  0.1655 -0.3604
   25SOL    HW1   98   0.232   1.487   0.480 -1.3522  1.8994 -1.3904
   25SOL    HW2   99   0.362   1.411   0.458  2.4703  0.0229 -0.2762
   25SOL     MW  100   0.290   1.420   0.501  0.4555  0.3755 -0.4852
   26SOL     OW  101   2.039   0.929   0.440 -0.2672 -0.0192  0.3855
   26SOL    HW1  102   1.957   0.986   0.445 -3.3543  1.7186 -0.8002
   26SOL    HW2  103   2.101   0.982   0.387  0.9179 -1.6029  1.5435
   26SOL     MW  104   2.037   0.943   0.434 -0.5181  0.0011  0.3818
   27SOL     OW  105   1.990   1.386   0.269  0.0074  0.0242  0.2901
   27SOL    HW1  106   1.904   1.348   0.295 -0.2851 -1.4257  0.0431
   27SOL    HW2  107   2.009   1.464   0.326  3.8395  0.0208  2.0434
   27SOL     MW  108   1.981   1.392   0.280  0.4744 -0.1676  0.4889
   28SOL     OW  109   0.385   1.019   1.913 -0.4610  0.7873  0.4300
   28SOL    HW1  110   0.371   0.971   1.996 -2.4244  0.2970  1.9963
   28SOL    HW2  111   0.457   1.076   1.930  0.7295  1.0890 -6.2263
   28SOL     MW  112   0.393   1.020   1.926 -0.5630  0.7624 -0.2416
   29SOL     OW  113   0.243   1.418   0.817 -0.0403 -0.1927 -0.0359
   29SOL    HW1  114   0.237   1.516   0.817  0.9201 -0.6551 -1.7296
   29SOL    HW2  115   0.228   1.392   0.725  0.6031 -1.3746 -3.3443
   29SOL     MW  116   0.240   1.427   0.805  0.1713 -0.4096 -0.6959
   30SOL     OW  117   0.892   1.040   1.171 -0.1803  0.0581  0.7930
   30SOL    HW1  118   0.826   1.087   1.229 -0.3375 -1.4042  0.1010
   30SOL    HW2  119   0.972   1.042   1.220 -1.1468  0.2892  0.6511
   30SOL     MW  120   0.893   1.046   1.185 -0.3285 -0.1043  0.6830
   31SOL     OW  121   0.439   0.277   0.233 -0.7885  0.0372 -0.3937
   31SOL    HW1  122   0.439   0.194   0.290 -1.4034  1.1428 -0.4554
   31SOL    HW2  123   0.420   0.243   0.148  1.3362  1.2728 -1.3699
   31SOL     MW  124   0.436   0.262   0.229 -0.5893  0.3461 -0.5306
   32SOL     OW  125   2.728   1.049   1.093  0.7304 -0.2333  0.3500
   32SOL    HW1  126   2.680   0.962   1.099  0.3754 -1.3368 -2.0609
   32SOL    HW2  127   2.825   1.034   1.089  0.6899 -2.6064  0.8226
   32SOL     MW  128   2.734   1.035   1.093  0.6782 -0.6920  0.0942
   33SOL     OW  129   1.741   1.296   0.335  0.2701  0.6435  0.6821
   33SOL    HW1  130   1.752   1.206   0.362  0.6784  0.2444 -0.6777
   33SOL    HW2  131   1.713   1.333   0.418 -2.5961  0.4853 -1.2348
   33SOL     MW  132   1.739   1.289   0.349 -0.0542  0.5700  0.2498
   34SOL     OW  133   1.221   1.845   1.092 -0.6463  0.3383 -0.6679
   34SOL    HW1  134   1.141   1.890   1.105  2.5669  1.9413 -2.4943
   34SOL    HW2  135   1.278   1.868   1.174  0.2171  0.8741  3.0036
   34SOL     MW  136   1.218   1.854   1.105 -0.1084  0.6205 -0.4244
   35SOL     OW  137   0.329   0.105   1.820  0.0608 -0.0347 -0.8858
   35SOL    HW1  138   0.394   0.080   1.881 -2.2127  1.3252 -1.1126
   35SOL    HW2  139   0.352   0.049   1.741 -1.4440  2.0325  0.5670
   35SOL     MW  140   0.341   0.094   1.817 -0.4377  0.4175 -0.7240
   36SOL     OW  141   1.875   1.975   0.546  0.0689  0.0488 -1.1247
   36SOL    HW1  142   1.895   1.962   0.451 -0.7602 -1.8362 -2.2957
   36SOL    HW2  143   1.890   1.886   0.586  0.1411 -0.1936  2.9312
   36SOL     MW  144   1.879   1.961   0.538 -0.0309 -0.2319 -0.7441
   37SOL     OW  145   1.724   2.060   0.971  0.0037  0.1277  0.2826
   37SOL    HW1  146   1.701   1.978   0.934  3.4399  0.8366  1.3695
   37SOL    HW2  147   1.654   2.083   1.041 -3.3964  3.2366  1.2110
   37SOL     MW  148   1.711   2.052   0.976  0.0084  0.6314  0.5485
   38SOL     OW  149   2.842   0.942   0.186 -0.1558 -0.3214 -0.1627
   38SOL    HW1  150   2.877   0.938   0.273  1.1111 -1.3367  1.0902
   38SOL    HW2  151   2.903   0.885   0.141 -2.0216  0.8128 -0.3504
   38SOL     MW  152   2.855   0.934   0.192 -0.2348 -0.3057 -0.0221
   39SOL     OW  153   1.470   0.669   0.805  0.1046 -0.5831 -0.1362
   39SOL    HW1  154   1.450   0.578   0.830  1.3399  0.0572  2.0620
   39SOL    HW2  155   1.415   0.723   0.866 -1.1341  1.6519 -2.0169
   39SOL     MW  156   1.460   0.664   0.817  0.1041 -0.2037 -0.0943
   40SOL     OW  157   1.272   1.864   0.258 -0.3017  0.0477 -0.1502
   40SOL    HW1  158   1.297   1.779   0.291 -1.0536  0.9378 -0.5655
   40SOL    HW2  159   1.258   1.911   0.339  1.6820 -2.1678  0.6357
   40SOL     MW  160   1.274   1.859   0.273 -0.1392 -0.1272 -0.1013
   41SOL     OW  161   0.590   0.535   1.590 -0.0228 -0.6170  0.2180
   41SOL    HW1  162   0.674   0.565   1.570 -0.3494  0.2652  1.5480
   41SOL    HW2  163   0.598   0.475   1.663  0.5580 -0.8414 -1.8390
   41SOL     MW  164   0.602   0.531   1.597  0.0107 -0.5302  0.1221
   42SOL     OW  165   1.300   3.056   1.976  0.3387 -0.8761  0.6964
   42SOL    HW1  166   1.206   3.041   1.997 -1.7053 -1.2755  0.5579
   42SOL    HW2  167   1.348   2.976   2.000 -4.6598 -1.6372  1.2951
   42SOL     MW  168   1.294   3.043   1.982 -0.5905 -1.0292  0.7571
   43SOL     OW  169   1.596   0.212   1.658  0.0960 -0.1923  0.3612
   43SOL    HW1  170   1.675   0.166   1.622  1.7615 -1.1795  2.6295
   43SOL    HW2  171   1.524   0.146   1.673 -3.8749 -2.9615 -0.0238
   43SOL     MW  172   1.597   0.197   1.655 -0.2082 -0.6879  0.6097
   44SOL     OW  173   1.315   0.749   1.084 -0.2370 -0.6550 -0.6001
   44SOL    HW1  174   1.288   0.837   1.065  0.4416 -0.8955 -0.5247
   44SOL    HW2  175   1.292   0.735   1.177  1.0765  1.1335  0.4166
   44SOL     MW  176   1.308   0.759   1.094  0.0259 -0.4508 -0.4560
   45SOL     OW  177   1.157   0.697   0.776  0.7298  0.5248  0.5422
   45SOL    HW1  178   1.112   0.672   0.853  0.5937 -0.5917  0.2309
   45SOL    HW2  179   1.132   0.632   0.699 -0.6309  1.1156 -1.9762
   45SOL     MW  180   1.147   0.685   0.776  0.5323  0.4554  0.1688
   46SOL     OW  181   0.565   1.150   0.542 -0.5216  0.1910 -0.1952
   46SOL    HW1  182   0.551   1.159   0.449 -0.9540 -0.8241  2.0272
   46SOL    HW2  183   0.661   1.120   0.548  0.4022 -2.7687 -0.9382
   46SOL     MW  184   0.576   1.147   0.530 -0.4568 -0.3335 -0.0000
   47SOL     OW  185   0.162   1.931   1.828  0.7810 -0.3295 -0.6712
   47SOL    HW1  186   0.204   1.869   1.768 -0.1928  1.3739  1.3799
   47SOL    HW2  187   0.156   1.887   1.914 -0.2092  0.4728 -0.6834
   47SOL     MW  188   0.166   1.917   1.832  0.5219  0.0011 -0.4022
   48SOL     OW  189   1.058   0.645   1.016  0.0962 -0.2828  0.1062
   48SOL    HW1  190   1.010   0.694   1.086 -3.0630  1.1738 -1.7544
   48SOL    HW2  191   1.157   0.670   1.016  1.4508  1.7219  1.3753
   48SOL     MW  192   1.065   0.655   1.025 -0.1419  0.1739  0.0282
   49SOL     OW  193   1.841   0.755   1.609 -1.0606  0.4535  0.0769
   49SOL    HW1  194   1.821   0.730   1.696 -1.3765  0.0201 -2.2597
   49SOL    HW2  195   1.894   0.684   1.577 -2.0251  1.6332  1.9436
   49SOL     MW  196   1.846   0.743   1.617 -1.2295  0.5520  0.0149
   50SOL     OW  197   1.246   1.007   0.500 -0.4583  0.4722 -0.6870
   50SOL    HW1  198   1.239   1.021   0.600 -0.3657  0.8763 -0.2352
   50SOL    HW2  199   1.304   0.932   0.492  0.8887 -2.5155 -1.7213
   50SOL     MW  200   1.253   0.999   0.512 -0.2684  0.1313 -0.7639
   51SOL     OW  201   0.347   2.853   0.983 -0.5284  0.5107  0.4989
   51SOL    HW1  202   0.436   2.829   0.998 -1.0689 -0.4714  0.3522
   51SOL    HW2  203   0.329   2.916   1.056 -2.0144 -1.8137 -0.6171
   51SOL     MW  204   0.357   2.858   0.994 -0.7958  0.0744  0.3323
   52SOL     OW  205   0.820   1.771   0.395 -0.6052  0.0105  0.3029
   52SOL    HW1  206   0.807   1.854   0.438 -1.4094  0.1695 -0.0661
   52SOL    HW2  207   0.814   1.782   0.300  0.1529 -1.2163 -1.8013
   52SOL     MW  208   0.818   1.784   0.388 -0.6113 -0.1303 -0.0234
   53SOL     OW  209   0.476   2.071   0.568  0.3045 -0.1096 -0.3942
   53SOL    HW1  210   0.397   2.033   0.512 -0.5687  3.2264  3.6245
   53SOL    HW2  211   0.484   2.166   0.568  1.6510  2.3183  0.2901
   53SOL     MW  212   0.466   2.078   0.561  0.3669  0.6509  0.2263
   54SOL     OW  213   2.188   0.817   0.900 -0.1026  0.1455 -0.9968
   54SOL    HW1  214   2.225   0.738   0.863 -0.2298  0.5580 -0.0021
   54SOL    HW2  215   2.129   0.852   0.834  0.4870 -0.7683  0.4160
   54SOL     MW  216   2.185   0.811   0.886 -0.0416  0.0793 -0.6792
   55SOL     OW  217   0.549   1.485   1.567  0.5412  0.3068  0.4800
   55SOL    HW1  218   0.502   1.534   1.500  0.9436 -1.5392  0.2855
   55SOL    HW2  219   0.622   1.438   1.520 -1.2876 -2.2129 -2.2689
   55SOL     MW  220   0.553   1.485   1.552  0.3530 -0.2692  0.0916
   56SOL     OW  221   0.597   0.767   0.088 -0.1394  0.2182 -0.4505
   56SOL    HW1  222   0.627   0.840   0.042  1.0040 -0.5629 -0.0213
   56SOL    HW2  223   0.507   0.765   0.069 -0.9979  1.7976  2.7613
   56SOL     MW  224   0.589   0.777   0.080 -0.1018  0.3235  0.0299
   57SOL     OW  225   1.256   1.241   1.199  0.2625  0.1713  0.7477
   57SOL    HW1  226   1.334   1.274   1.155 -0.3842 -0.2882 -1.2892
   57SOL    HW2  227   1.288   1.222   1.288 -1.5295  1.8687 -1.3090
   57SOL     MW  228   1.270   1.243   1.205 -0.0593  0.3346  0.2076
   58SOL     OW  229   0.673   1.115   1.316 -0.5186  0.1465  0.2727
   58SOL    HW1  230   0.619   1.181   1.282  0.6802 -2.3707 -1.2139
   58SOL    HW2  231   0.624   1.083   1.393 -0.5693 -0.0497  1.5684
   58SOL     MW  232   0.659   1.119   1.322 -0.3671 -0.2115  0.2475
   59SOL     OW  233   1.574   1.633   0.315  0.1541 -0.2350  0.1369
   59SOL    HW1  234   1.642   1.596   0.372  1.6450  0.5221  2.5148
   59SOL    HW2  235   1.511   1.673   0.377  4.2644  0.7673  1.0770
   59SOL     MW  236   1.575   1.633   0.330  0.8931 -0.0028  0.5747
   60SOL     OW  237   3.078   0.178   1.664  0.0034  1.3094  0.3489
   60SOL    HW1  238   2.988   0.201   1.690  0.0934 -0.2118 -0.5183
   60SOL    HW2  239   3.073   0.085   1.651 -1.1592 -0.0726  0.3164
   60SOL     MW  240   3.065   0.169   1.666 -0.1381  0.9264  0.2302
   61SOL     OW  241   1.973   1.486   3.082  0.2808 -0.6248 -0.3976
   61SOL    HW1  242   1.975   1.466   3.174 -1.9845  0.0734 -0.5048
   61SOL    HW2  243   2.003   1.405   3.032 -0.6421  0.3064 -0.7000
   61SOL     MW  244   1.977   1.472   3.087 -0.1398 -0.4098 -0.4516
   62SOL     OW  245   0.611   1.625   0.577  0.5369  0.4699  0.4887
   62SOL    HW1  246   0.674   1.588   0.501  2.0964 -0.5370 -0.8747
   62SOL    HW2  247   0.615   1.551   0.636  0.5217  2.1813 -1.8777
   62SOL     MW  248   0.620   1.610   0.574  0.7406  0.5629 -0.0034
   63SOL     OW  249   1.697   0.740   0.665 -0.2634 -0.0135  0.3405
   63SOL    HW1  250   1.658   0.804   0.605 -0.4066  2.0090  0.2633
   63SOL    HW2  251   1.624   0.705   0.718 -1.8395 -0.4875 -0.0315
   63SOL     MW  252   1.682   0.744   0.664 -0.4902  0.1908  0.2813
   64SOL     OW  253   0.251   1.679   0.891  0.2592  0.3717 -1.2678
   64SOL    HW1  254   0.323   1.738   0.849  1.0940 -1.0001 -0.8393
   64SOL    HW2  255   0.175   1.733   0.885 -0.0163 -1.1893  1.2850
   64SOL     MW  256   0.251   1.694   0.885  0.3330 -0.0152 -0.8745
   65SOL     OW  257   1.550   2.294   0.326  0.6264  0.3553 -0.0226
   65SOL    HW1  258   1.624   2.230   0.322  0.4904 -1.7109  0.3157
   65SOL    HW2  259   1.594   2.368   0.382  0.2579  2.8949  1.0806
   65SOL     MW  260   1.565   2.295   0.333  0.5598  0.4177  0.1676
   66SOL     OW  261   0.323   0.527   0.521  0.4583 -0.1803 -0.2628
   66SOL    HW1  262   0.402   0.492   0.474 -0.0174  1.4272 -0.6820
   66SOL    HW2  263   0.338   0.623   0.507  0.2415  0.1724 -2.2626
   66SOL     MW  264   0.335   0.535   0.513  0.3670  0.0783 -0.5820
   67SOL     OW  265   1.535   0.121   2.033 -0.4472 -0.2337  0.1560
   67SOL    HW1  266   1.580   0.152   1.954 -0.1695 -0.4205  0.7476
   67SOL    HW2  267   1.458   0.082   2.003  3.7254 -0.7609 -0.7937
   67SOL     MW  268   1.531   0.120   2.019  0.1400 -0.3279  0.1087
   68SOL     OW  269   0.625   0.063   2.937 -0.0755 -0.3655 -0.0796
   68SOL    HW1  270   0.586   0.070   2.851  0.3742  3.0581  0.5367
   68SOL    HW2  271   0.651   0.151   2.963  2.4857  0.0470  2.9520
   68SOL     MW  272   0.623   0.075   2.929  0.3217  0.1406  0.4017
   69SOL     OW  273   1.016   0.206   1.948 -0.0002  0.3506  0.2735
   69SOL    HW1  274   1.079   0.241   2.010  0.9418  1.1688 -2.6625
   69SOL    HW2  275   1.023   0.107   1.958  2.4794  1.3977 -2.5335
   69SOL     MW  276   1.025   0.197   1.958  0.4513  0.5967 -0.4842
   70SOL     OW  277   0.569   1.845   1.130 -0.2573  0.0141 -0.5282
   70SOL    HW1  278   0.555   1.759   1.088 -0.2301 -2.4318  0.5730
   70SOL    HW2  279   0.658   1.865   1.111  1.7797  1.2530  0.9187
   70SOL     MW  280   0.579   1.836   1.121  0.0150 -0.1451 -0.1920
   71SOL     OW  281   1.753   0.664   1.256  0.6612 -0.6071  0.6795
   71SOL    HW1  282   1.706   0.666   1.342 -1.4878  2.8917  0.7532
   71SOL    HW2  283   1.694   0.617   1.196 -0.9331 -2.1444 -0.4487
   71SOL     MW  284   1.739   0.658   1.260  0.1673 -0.3483  0.5404
   72SOL     OW  285   0.839   1.780   0.969 -0.3982 -0.4534 -0.1315
   72SOL    HW1  286   0.816   1.830   0.886  2.1356 -0.3160  0.2837
   72SOL    HW2  287   0.818   1.686   0.957  1.3663  1.0819 -0.8618
   72SOL     MW  288   0.833   1.774   0.957  0.1689 -0.2327 -0.1730
   73SOL     OW  289   1.240   0.672   1.364 -0.0950  0.6327  0.2885
   73SOL    HW1  290   1.195   0.589   1.346  1.2883  0.3796 -1.5128
   73SOL    HW2  291   1.175   0.714   1.420 -0.6601 -0.6637 -0.4388
   73SOL     MW  292   1.225   0.666   1.369  0.0130  0.4282 -0.0451
   74SOL     OW  293   2.819   0.172   0.989  0.5504  0.4346 -0.0146
   74SOL    HW1  294   2.834   0.113   0.913  4.5114 -1.6790 -0.1388
   74SOL    HW2  295   2.768   0.249   0.955  0.4595  0.2205 -1.0370
   74SOL     MW  296   2.814   0.174   0.975  1.0611  0.1275 -0.1659
   75SOL     OW  297   1.587   1.333   0.103 -0.0178  0.3808  0.6199
   75SOL    HW1  298   1.638   1.345   0.184  0.2350 -2.0111 -1.1652
   75SOL    HW2  299   1.630   1.256   0.062  1.3033  3.4665 -1.4180
   75SOL     MW  300   1.600   1.324   0.108  0.1899  0.4723  0.1155
   76SOL     OW  301   2.956   0.660   0.475  0.2047  0.0162  0.3953
   76SOL    HW1  302   3.001   0.677   0.559 -0.8128  2.3424 -0.2934
   76SOL    HW2  303   3.022   0.596   0.442  0.0732 -1.2171 -0.3052
   76SOL     MW  304   2.970   0.653   0.482  0.0531  0.1604  0.2120
   77SOL     OW  305   0.865   0.453   0.475 -0.4885  0.4112 -0.6213
   77SOL    HW1  306   0.783   0.493   0.442 -0.2352  2.1426 -0.2878
   77SOL    HW2  307   0.835   0.358   0.485 -1.3853  1.9398 -0.6658
   77SOL     MW  308   0.850   0.446   0.472 -0.5734  0.8413 -0.5832
   78SOL     OW  309   0.769   0.775   1.195 -0.1234  0.4671  0.1209
   78SOL    HW1  310   0.680   0.765   1.170  1.4508  3.0408  1.9498
   78SOL    HW2  311   0.789   0.871   1.187  0.1380 -0.1650 -2.2965
   78SOL     MW  312   0.760   0.786   1.191  0.1188  0.7233  0.0432
   79SOL     OW  313   1.941   1.708   0.617 -0.0037  0.4591  0.2044
   79SOL    HW1  314   1.892   1.637   0.568  2.5129 -0.7971  1.2852
   79SOL    HW2  315   1.924   1.691   0.713  2.1555 -0.1457  2.0942
   79SOL     MW  316   1.932   1.696   0.623  0.6132  0.2136  0.5963
   80SOL     OW  317   0.162   1.024   0.336  0.7139  0.1555  0.4890
   80SOL    HW1  318   0.080   0.978   0.374 -1.4286 -0.2452  1.2079
   80SOL    HW2  319   0.231   0.959   0.338 -0.2901  0.7214  1.7689
   80SOL     MW  320   0.160   1.009   0.341  0.2988  0.1773  0.7527
   81SOL     OW  321   1.889   1.893   0.237  0.4276  0.0669  0.7475
   81SOL    HW1  322   1.826   1.836   0.186 -0.5800  1.1049  1.5641
   81SOL    HW2  323   1.834   1.978   0.241 -0.5748  0.0677 -0.4257
   81SOL     MW  324   1.874   1.897   0.231  0.1624  0.2039  0.7005
   82SOL     OW  325   0.813   1.030   0.557  0.4347  0.5680 -0.4798
   82SOL    HW1  326   0.846   1.030   0.470 -0.0627  0.0554 -0.0007
   82SOL    HW2  327   0.799   0.930   0.570  1.9647  1.5716  3.6959
   82SOL     MW  328   0.815   1.017   0.548  0.5709  0.6328  0.1344
   83SOL     OW  329   0.150   0.614   1.354  0.2488  0.1403 -0.6873
   83SOL    HW1  330   0.117   0.707   1.365  1.1053 -0.6644  0.5063
   83SOL    HW2  331   0.204   0.586   1.430  0.3727  0.5338  3.5313
   83SOL     MW  332   0.153   0.623   1.366  0.3781  0.0860  0.0268
   84SOL     OW  333   0.094   0.268   0.979  0.1605 -0.3283 -0.9953
   84SOL    HW1  334   0.003   0.287   0.954 -1.4668 -1.0234  1.5018
   84SOL    HW2  335   0.093   0.185   1.029 -0.0821  0.6880  0.0444
   84SOL     MW  336   0.082   0.260   0.983 -0.0862 -0.2859 -0.5287
   85SOL     OW  337   0.424   0.442   0.763  0.5044 -0.1744  0.4783
   85SOL    HW1  338   0.387   0.484   0.691  5.1707  2.9913  0.1227
   85SOL    HW2  339   0.394   0.355   0.767  0.4916  1.3674  1.7358
   85SOL     MW  340   0.415   0.436   0.754  1.1183  0.4467  0.5973
   86SOL     OW  341   1.199   0.424   1.123 -0.2008 -0.5460  0.2098
   86SOL    HW1  342   1.133   0.459   1.066  1.9817  0.1104  1.4786
   86SOL    HW2  343   1.162   0.424   1.214 -1.6293 -1.0026 -0.1399
   86SOL     MW  344   1.185   0.428   1.127 -0.1013 -0.5196  0.3311
   87SOL     OW  345   1.213   1.499   1.235 -0.2456 -0.1325 -0.1914
   87SOL    HW1  346   1.225   1.537   1.145 -0.7536 -1.2975 -0.5225
   87SOL    HW2  347   1.212   1.406   1.220  1.0070  0.2712  2.3368
   87SOL     MW  348   1.215   1.492   1.221 -0.1474 -0.2330  0.0985
   88SOL     OW  349   1.300   1.002   1.007 -0.9986 -0.0480 -0.1388
   88SOL    HW1  350   1.396   1.015   1.018 -0.8929  0.6048 -0.1774
   88SOL    HW2  351   1.265   1.058   1.078  1.1030 -2.5173  1.3966
   88SOL     MW  352   1.308   1.011   1.018 -0.7073 -0.2876  0.0587
   89SOL     OW  353   1.735   0.652   0.352 -0.2726  0.0009  0.2164
   89SOL    HW1  354   1.790   0.582   0.390 -0.9949  0.0191 -2.4523
   89SOL    HW2  355   1.799   0.691   0.291 -0.1935  1.5648 -0.1487
   89SOL     MW  356   1.750   0.648   0.349 -0.3574  0.2096 -0.1839
   90SOL     OW  357   0.684   1.220   2.796 -0.6867 -0.5521  0.2691
   90SOL    HW1  358   0.740   1.152   2.833  2.7008  0.0567 -1.2722
   90SOL    HW2  359   0.652   1.272   2.877 -2.0890  1.4352 -0.1146
   90SOL     MW  360   0.687   1.218   2.811 -0.4248 -0.2096  0.0151
   91SOL     OW  361   2.110   0.667   0.558  0.3813  0.2922  0.5760
   91SOL    HW1  362   2.097   0.752   0.509  2.2426 -1.1034  1.2231
   91SOL    HW2  363   2.166   0.608   0.507  0.1968 -0.8216 -1.6339
   91SOL     MW  364   2.115   0.670   0.545  0.6025 -0.0389  0.3698
   92SOL     OW  365   1.563   0.863   0.437  0.4783  0.0862  0.3589
   92SOL    HW1  366   1.482   0.827   0.481 -2.6126 -0.3812 -0.2259
   92SOL    HW2  367   1.607   0.782   0.410 -1.4551  0.8609  2.9145
   92SOL     MW  368   1.558   0.847   0.439 -0.1846  0.1268  0.6189
   93SOL     OW  369   1.056   0.305   0.335 -0.3800  0.7404  0.1488
   93SOL    HW1  370   0.977   0.358   0.337 -0.1480 -0.2768  2.6224
   93SOL    HW2  371   1.094   0.323   0.249  2.4779 -0.0774 -1.2984
   93SOL     MW  372   1.051   0.315   0.324  0.0277  0.4983  0.2842
   94SOL     OW  373   1.908   1.316   1.647 -0.0697  0.5656 -0.4998
   94SOL    HW1  374   1.937   1.304   1.555  1.9278 -1.1363 -3.1717
   94SOL    HW2  375   1.875   1.230   1.675 -1.2575 -1.7833  2.3573
   94SOL     MW  376   1.907   1.303   1.639  0.0371  0.0312 -0.4754
   95SOL     OW  377   0.787   1.520   0.957 -0.4950 -0.3010 -0.4600
   95SOL    HW1  378   0.838   1.440   0.969  0.2534 -2.5288  0.2712
   95SOL    HW2  379   0.734   1.541   1.040 -1.9332  1.5290 -1.1487
   95SOL     MW  380   0.787   1.512   0.969 -0.5860 -0.3535 -0.4544
   96SOL     OW  381   1.244   1.802   1.587  0.1967 -0.1156 -0.6374
   96SOL    HW1  382   1.146   1.819   1.569 -3.0188  1.7603 -0.5316
   96SOL    HW2  383   1.286   1.756   1.517 -1.0484 -1.3825 -0.4676
   96SOL     MW  384   1.236   1.799   1.576 -0.3919 -0.0353 -0.6010
   97SOL     OW  385   1.224   1.406   0.803  0.1198 -0.2811 -0.6836
   97SOL    HW1  386   1.257   1.469   0.871 -0.6262  3.4646  0.4314
   97SOL    HW2  387   1.158   1.457   0.763  1.6582 -3.8765 -1.8013
   97SOL     MW  388   1.219   1.421   0.806  0.2243 -0.2613 -0.6839
   98SOL     OW  389   1.513   1.330   1.114 -0.1429  0.3664 -0.4517
   98SOL    HW1  390   1.554   1.393   1.174 -2.1734  1.0507 -0.5103
   98SOL    HW2  391   1.534   1.365   1.027 -2.0696 -0.1437 -0.1775
   98SOL     MW  392   1.521   1.343   1.111 -0.6650  0.3894 -0.4232
   99SOL     OW  393   1.519   0.330   1.284  0.0982  0.3862 -0.2326
   99SOL    HW1  394   1.509   0.406   1.228 -1.9117  3.8500 -0.9021
   99SOL    HW2  395   1.485   0.348   1.372 -1.2131 -0.3321 -1.5861
   99SOL     MW  396   1.513   0.342   1.288 -0.3400  0.7484 -0.4995
  100SOL     OW  397   1.032   1.079   1.425 -0.1239 -0.1965  0.2901
  100SOL    HW1  398   0.957   1.089   1.482  0.0635 -2.3628  0.3535
  100SOL    HW2  399   1.056   0.985   1.433  0.5089  0.3896 -0.7818
  100SOL     MW  400   1.026   1.068   1.433 -0.0157 -0.4050  0.1570
  101SOL     OW  401   0.612   1.138   0.261 -0.7229 -0.4205 -0.2853
  101SOL    HW1  402   0.609   1.045   0.293 -0.2586 -0.0739  0.3453
  101SOL    HW2  403   0.570   1.131   0.171  0.8392 -1.0487 -2.3123
  101SOL     MW  404   0.606   1.125   0.253 -0.4555 -0.4576 -0.4696
  102SOL     OW  405   2.948   0.589   1.001 -0.0888 -0.1203  0.3478
  102SOL    HW1  406   2.996   0.666   0.978  1.3773  2.3898 -0.4278
  102SOL    HW2  407   2.988   0.550   1.076 -2.6265  0.4067 -1.3303
  102SOL     MW  408   2.960   0.594   1.008 -0.2302  0.2804  0.0241
  103SOL     OW  409   1.634   0.385   1.863  0.5865  0.3194  0.0390
  103SOL    HW1  410   1.624   0.321   1.784  0.8844  0.9327 -0.0871
  103SOL    HW2  411   1.718   0.371   1.900 -2.4626 -1.1353  1.0673
  103SOL     MW  412   1.644   0.374   1.858  0.2235  0.2084  0.1580
  104SOL     OW  413   0.181   1.861   1.402  0.0907 -0.3352  0.0805
  104SOL    HW1  414   0.253   1.798   1.387  2.5440 -1.7665  1.7722
  104SOL    HW2  415   0.099   1.842   1.346  0.4103  2.0722  0.7857
  104SOL     MW  416   0.179   1.850   1.393  0.4566 -0.2064  0.3968
  105SOL     OW  417   0.169   1.171   0.560 -0.3128  0.4800 -0.1948
  105SOL    HW1  418   0.170   1.116   0.482 -2.3842 -2.7475  1.3018
  105SOL    HW2  419   0.221   1.253   0.535  0.9656  0.6745  0.8514
  105SOL     MW  420   0.176   1.174   0.546 -0.4174  0.0798  0.1407
  106SOL     OW  421   0.837   0.320   0.944 -0.8713 -0.0424 -0.0203
  106SOL    HW1  422   0.776   0.390   0.922 -0.3635 -0.7785  0.5939
  106SOL    HW2  423   0.919   0.333   0.895 -0.8639 -1.6918 -0.0323
  106SOL     MW  424   0.840   0.331   0.935 -0.8033 -0.3571  0.0592
  107SOL     OW  425   0.827   2.179   3.005  0.6304 -0.0396 -0.4315
  107SOL    HW1  426   0.765   2.108   3.003 -0.0165  3.3524 -0.7848
  107SOL    HW2  427   0.905   2.154   3.053 -1.8214 -2.6050  1.1004
  107SOL     MW  428   0.829   2.167   3.011  0.2216  0.0694 -0.2760
  108SOL     OW  429   1.370   1.625   1.421 -0.2053  0.7323 -0.1802
  108SOL    HW1  430   1.305   1.599   1.355 -3.8751 -0.3415  3.6268
  108SOL    HW2  431   1.357   1.553   1.473  3.3240 -1.7974  0.1810
  108SOL     MW  432   1.359   1.612   1.419 -0.2238  0.2568  0.3697
  109SOL     OW  433   1.952   0.776   0.183  0.2286  0.1745 -0.3372
  109SOL    HW1  434   1.964   0.686   0.142  0.8953 -1.3513 -0.7165
  109SOL    HW2  435   2.041   0.806   0.202 -0.5927 -0.0689 -3.8184
  109SOL     MW  436   1.965   0.768   0.180  0.2082 -0.0589 -0.8466
  110SOL     OW  437   0.433   1.810   0.712  0.5160 -0.0983 -0.0281
  110SOL    HW1  438   0.495   1.738   0.690  1.4699 -2.5663  2.0612
  110SOL    HW2  439   0.435   1.867   0.630  0.4523  0.5760  0.6105
  110SOL     MW  440   0.441   1.808   0.699  0.6335 -0.3349  0.3318
  111SOL     OW  441   0.728   0.842   1.509 -0.1846 -0.4783 -0.2826
  111SOL    HW1  442   0.755   0.790   1.432  0.5395  0.1179  1.1965
  111SOL    HW2  443   0.645   0.802   1.529 -0.4094 -0.0797  0.0522
  111SOL     MW  444   0.721   0.830   1.501 -0.1187 -0.3471 -0.0433
  112SOL     OW  445   1.338   1.069   1.729  0.5152 -0.0429  0.4784
  112SOL    HW1  446   1.279   1.142   1.749  1.5890 -2.0472  0.2710
  112SOL    HW2  447   1.286   0.994   1.712 -0.5172  2.3202  0.4912
  112SOL     MW  448   1.323   1.069   1.730  0.5207  0.0045  0.4528
  113SOL     OW  449   1.367   0.029   1.713 -0.1127 -0.5701  0.1937
  113SOL    HW1  450   1.337  -0.017   1.796 -1.2172 -3.6068 -0.7635
  113SOL    HW2  451   1.363  -0.040   1.648  0.1274  0.5415  0.3844
  113SOL     MW  452   1.362   0.014   1.716 -0.2267 -0.8241  0.0926
  114SOL     OW  453   0.500   2.824   1.852  0.5222 -0.0856  0.7741
  114SOL    HW1  454   0.471   2.886   1.922 -0.2164 -0.1755  1.0599
  114SOL    HW2  455   0.454   2.855   1.776  0.5101  0.7106  0.6572
  114SOL     MW  456   0.490   2.836   1.851  0.4231  0.0076  0.7964
  115SOL     OW  457   0.453   0.840   1.132 -0.0312  0.5573  0.1910
  115SOL    HW1  458   0.459   0.747   1.124 -1.9676 -0.5973 -2.4700
  115SOL    HW2  459   0.413   0.856   1.221 -1.2028  0.0373 -0.1166
  115SOL     MW  460   0.449   0.830   1.142 -0.4413  0.3363 -0.2007
  116SOL     OW  461   0.752   1.041   0.910 -0.0904  0.6025  0.1744
  116SOL    HW1  462   0.815   1.087   0.858  0.8771  0.0452  0.7078
  116SOL    HW2  463   0.791   1.058   0.994  2.7250  2.3165  0.0330
  116SOL     MW  464   0.766   1.049   0.914  0.4088  0.7551  0.2261
  117SOL     OW  465   1.220   1.123   0.748  0.1268  0.0577  0.6117
  117SOL    HW1  466   1.233   1.063   0.820  0.3778  2.4860  0.0361
  117SOL    HW2  467   1.253   1.211   0.781 -2.8367  0.5005 -0.4475
  117SOL     MW  468   1.226   1.127   0.762 -0.2311  0.4365  0.3960
  118SOL     OW  469   3.055   2.993   1.712 -0.1627 -0.4632  0.5577
  118SOL    HW1  470   3.089   3.053   1.780  2.7504 -1.0736  2.2533
  118SOL    HW2  471   2.960   3.010   1.711  3.0943  1.7918  0.5042
  118SOL     MW  472   3.047   3.003   1.721  0.6514 -0.2462  0.7744
  119SOL     OW  473   0.533   1.325   1.201  0.0732  0.4037  0.0611
  119SOL    HW1  474   0.532   1.344   1.109  2.4705 -0.3732  1.2229
  119SOL    HW2  475   0.441   1.288   1.211 -1.3487 -2.5535  0.4498
  119SOL     MW  476   0.521   1.323   1.190  0.2019 -0.0890  0.2656
  120SOL     OW  477   0.201   0.696   0.928 -0.2649  0.2615  0.3222
  120SOL    HW1  478   0.234   0.639   0.997 -0.3687  0.3292 -0.8151
  120SOL    HW2  479   0.251   0.779   0.933  1.8179 -1.5282 -1.1816
  120SOL     MW  480   0.212   0.699   0.938 -0.0038  0.0343 -0.0263
  121SOL     OW  481   1.831   1.054   1.712  0.4103  0.4241 -0.0164
  121SOL    HW1  482   1.733   1.055   1.732 -0.5125  0.8640 -0.3009
  121SOL    HW2  483   1.835   0.981   1.654 -1.7341  1.1324  2.5432
  121SOL     MW  484   1.819   1.044   1.707  0.0056  0.5756  0.2838
  122SOL     OW  485   0.114   0.505   0.760  0.2956 -0.1252  0.0092
  122SOL    HW1  486   0.185   0.474   0.707  0.7867  0.1974 -0.1560
  122SOL    HW2  487   0.151   0.574   0.814  0.0860 -0.7220 -1.1231
  122SOL     MW  488   0.128   0.510   0.760  0.3327 -0.1613 -0.1620
  123SOL     OW  489   1.791   1.032   0.457  0.0497  0.3319 -0.6200
  123SOL    HW1  490   1.747   0.950   0.434  0.6255  1.1375 -0.4188
  123SOL    HW2  491   1.810   1.031   0.556  2.2574  0.8911  0.1585
  123SOL     MW  492   1.788   1.021   0.467  0.4169  0.5120 -0.4908
  124SOL     OW  493   0.667   0.507   0.861  0.2978 -0.1212  0.0911
  124SOL    HW1  494   0.577   0.486   0.816 -0.6353  0.7558 -1.4319
  124SOL    HW2  495   0.688   0.597   0.842 -1.3606 -0.4910  0.9098
  124SOL     MW  496   0.658   0.516   0.852 -0.0441 -0.0543 -0.0018
  125SOL     OW  497   0.693   1.711   1.667 -0.3125 -0.5390  0.0477
  125SOL    HW1  498   0.621   1.649   1.627  1.3654 -0.0436  0.2093
  125SOL    HW2  499   0.657   1.801   1.680  0.8361  0.9418 -2.0349
  125SOL     MW  500   0.678   1.715   1.663  0.0605 -0.2783 -0.2058
  126SOL     OW  501   2.107   1.602   1.960  0.0354 -0.1355 -0.5359
  126SOL    HW1  502   2.160   1.686   1.962  1.4584 -1.4519 -1.0000
  126SOL    HW2  503   2.158   1.534   2.010  2.8940 -1.1164  0.2096
  126SOL     MW  504   2.121   1.604   1.967  0.6003 -0.4386 -0.4988
  127SOL     OW  505   0.622   0.745   1.865 -0.2492  0.3171 -0.4917
  127SOL    HW1  506   0.707   0.711   1.883  0.7882 -2.8867  0.4276
  127SOL    HW2  507   0.627   0.836   1.902  1.0100 -1.1049 -1.2895
  127SOL     MW  508   0.634   0.752   1.872  0.0538 -0.2932 -0.4757
  128SOL     OW  509   1.818   0.749   2.901  0.0737  0.1726  0.1487
  128SOL    HW1  510   1.802   0.716   2.813 -1.6057  2.0645  0.4786
  128SOL    HW2  511   1.774   0.835   2.894  1.1476 -0.8672 -0.6430
  128SOL     MW  512   1.810   0.756   2.889 -0.0062  0.2850  0.0878
  129SOL     OW  513   1.482   0.991   0.201  0.1545 -0.3271 -0.4758
  129SOL    HW1  514   1.422   0.922   0.195  1.8061  1.6150 -1.9897
  129SOL    HW2  515   1.509   0.990   0.294 -3.4769 -2.2333 -0.3391
  129SOL     MW  516   1.478   0.982   0.213 -0.1067 -0.3224 -0.6575
  130SOL     OW  517   0.739   1.459   0.397 -0.0631 -0.2851  0.6324
  130SOL    HW1  518   0.787   1.426   0.480  0.3003 -2.1123  1.4475
  130SOL    HW2  519   0.803   1.505   0.349  0.7128 -0.7990  0.3600
  130SOL     MW  520   0.754   1.461   0.402  0.0872 -0.5940  0.7040
  131SOL     OW  521   3.063   0.795   0.077 -0.2813  0.3838 -0.2507
  131SOL    HW1  522   3.073   0.843  -0.015  1.0430  2.2269 -1.9524
  131SOL    HW2  523   3.151   0.812   0.119  2.8712  0.3720  1.8924
  131SOL     MW  524   3.076   0.804   0.070  0.3093  0.6255 -0.1924
  132SOL     OW  525   2.769   0.156   1.268  0.0138 -0.2444  0.1092
  132SOL    HW1  526   2.786   0.144   1.175 -0.1217 -1.1995  1.0783
  132SOL    HW2  527   2.673   0.147   1.276  1.1765 -0.9888 -1.8861
  132SOL     MW  528   2.759   0.153   1.257  0.1494 -0.4687 -0.0262
  133SOL     OW  529   1.116   0.168   1.695 -0.2900 -0.4310 -0.1392
  133SOL    HW1  530   1.207   0.138   1.682 -0.0139  0.1504  0.4789
  133SOL    HW2  531   1.098   0.176   1.786 -1.8719 -0.7096 -0.2469
  133SOL     MW  532   1.125   0.165   1.705 -0.4623 -0.3911 -0.0719
  134SOL     OW  533   1.372   2.518   1.397  0.2531  0.0970 -0.0231
  134SOL    HW1  534   1.310   2.586   1.360 -0.6535 -0.0464  2.3180
  134SOL    HW2  535   1.425   2.544   1.477  2.2012  0.1832  1.7522
  134SOL     MW  536   1.371   2.530   1.403  0.3905  0.0895  0.5200
  135SOL     OW  537   3.026   0.992   2.961 -0.2835  0.3548 -0.1986
  135SOL    HW1  538   3.092   1.063   2.978  0.8941  3.5494 -3.9648
  135SOL    HW2  539   2.941   1.042   2.954  2.3571 -1.9168  0.2189
  135SOL     MW  540   3.024   1.008   2.962  0.2203  0.4766 -0.6404
  136SOL     OW  541   0.285   2.005   0.873 -0.5477  0.5195  0.2589
  136SOL    HW1  542   0.209   1.959   0.843  0.4552 -0.9954  3.0166
  136SOL    HW2  543   0.360   1.970   0.823  0.3673 -5.3028  0.2839
  136SOL     MW  544   0.285   1.994   0.863 -0.2946 -0.4485  0.6261
  137SOL     OW  545   0.756   1.999   0.523  0.4690 -0.1757 -0.6592
  137SOL    HW1  546   0.752   1.995   0.616  0.1253 -0.2689  1.1889
  137SOL    HW2  547   0.661   2.012   0.500 -0.9048 -1.3869  0.1738
  137SOL     MW  548   0.743   2.000   0.532  0.2424 -0.3478 -0.3055
  138SOL     OW  549   0.527   0.562   1.095 -0.6014  0.0110  0.5804
  138SOL    HW1  550   0.457   0.503   1.079 -0.7708 -1.2427  0.4044
  138SOL    HW2  551   0.596   0.554   1.021  1.2341  1.1754 -0.3548
  138SOL     MW  552   0.527   0.553   1.083 -0.3816 -0.0008  0.4338
  139SOL     OW  553   2.721   0.471   1.399 -0.4972 -0.1465 -0.2301
  139SOL    HW1  554   2.802   0.433   1.356  0.9471  1.8834  1.0259
  139SOL    HW2  555   2.711   0.558   1.359  0.5448 -0.9935  0.5103
  139SOL     MW  556   2.730   0.477   1.388 -0.1692  0.0096  0.0333
  140SOL     OW  557   0.852   0.381   2.086 -0.3324  0.3265 -0.0895
  140SOL    HW1  558   0.904   0.322   2.033  0.0479  0.8771  0.8169
  140SOL    HW2  559   0.875   0.376   2.181 -0.7301 -1.2760  0.6857
  140SOL     MW  560   0.862   0.372   2.092 -0.3347  0.1877  0.1324
  141SOL     OW  561   1.019   0.599   1.729  0.1023 -0.6303  0.1856
  141SOL    HW1  562   1.069   0.518   1.699  1.5809  0.7387 -0.8893
  141SOL    HW2  563   1.087   0.670   1.718  1.7022  2.1038 -0.5430
  141SOL     MW  564   1.035   0.598   1.723  0.5085 -0.0889 -0.0523
  142SOL     OW  565   0.956   1.161   0.747  0.2701 -0.5347 -0.0742
  142SOL    HW1  566   0.911   1.095   0.680 -0.9068 -4.0108  1.4294
  142SOL    HW2  567   1.056   1.143   0.741 -2.4184 -2.6268 -1.6919
  142SOL     MW  568   0.963   1.150   0.738 -0.2399 -1.2693 -0.0892
  143SOL     OW  569   1.835   0.871   1.096 -0.8684 -0.4061  0.0571
  143SOL    HW1  570   1.846   0.832   1.010  1.3360 -0.2221  1.0973
  143SOL    HW2  571   1.798   0.806   1.153 -0.0171 -1.7056  0.0973
  143SOL     MW  572   1.832   0.858   1.092 -0.4652 -0.5533  0.1996
  144SOL     OW  573   0.198   1.160   1.532  0.8920 -0.2242 -0.1538
  144SOL    HW1  574   0.266   1.109   1.490 -0.3391  0.9775 -1.0721
  144SOL    HW2  575   0.237   1.188   1.617  1.7849 -1.0946 -2.3591
  144SOL     MW  576   0.212   1.157   1.538  0.8474 -0.1805 -0.5660
  145SOL     OW  577   0.258   0.455   1.075  0.3036 -0.0624 -0.7311
  145SOL    HW1  578   0.269   0.431   1.171  1.8695  4.0430 -0.3123
  145SOL    HW2  579   0.231   0.378   1.015  2.0002  2.1187  1.8013
  145SOL     MW  580   0.256   0.441   1.080  0.7341  0.7670 -0.3417
  146SOL     OW  581   0.891   1.913   1.402  0.5776  1.0847  0.6895
  146SOL    HW1  582   0.923   1.944   1.311 -1.1696 -3.4047 -2.6859
  146SOL    HW2  583   0.794   1.922   1.405 -3.3012  0.1171  2.4642
  146SOL     MW  584   0.882   1.918   1.390 -0.1647  0.3647  0.4783
  147SOL     OW  585   0.393   0.424   2.894  0.0308  0.3483  0.2051
  147SOL    HW1  586   0.357   0.442   2.978  0.1350  1.4076 -3.2026
  147SOL    HW2  587   0.365   0.490   2.830  1.1767 -2.2422 -1.0032
  147SOL     MW  588   0.385   0.435   2.896  0.1958  0.1463 -0.4039
  148SOL     OW  589   0.032   0.913   1.345  0.3155 -0.6217  0.4394
  148SOL    HW1  590   0.122   0.947   1.313  2.1736  0.2007 -1.5606
  148SOL    HW2  591   0.029   0.906   1.445  1.1722  0.8464 -0.2189
  148SOL     MW  592   0.043   0.917   1.354  0.6737 -0.3195  0.0887
  149SOL     OW  593   1.411   1.177   1.457 -0.2641  0.1275  0.6581
  149SOL    HW1  594   1.357   1.183   1.540 -0.5097  1.6066 -2.3427
  149SOL    HW2  595   1.497   1.224   1.470  1.8149  0.6128 -2.7630
  149SOL     MW  596   1.415   1.184   1.470 -0.0222  0.3867 -0.1892
  150SOL     OW  597   1.816   1.280   0.794 -0.2665 -0.0787  0.2073
  150SOL    HW1  598   1.853   1.200   0.760  0.1028  1.6582  2.2347
  150SOL    HW2  599   1.898   1.327   0.822  1.0387  2.0490 -1.1142
  150SOL     MW  600   1.832   1.276   0.793 -0.0456  0.4312  0.3004
  151SOL     OW  601   1.648   1.836   0.864 -0.2655 -0.3702 -0.0154
  151SOL    HW1  602   1.610   1.811   0.780 -0.1911  3.7293  0.4223
  151SOL    HW2  603   1.591   1.785   0.924  0.9389  1.2616 -2.2467
  151SOL     MW  604   1.636   1.826   0.861 -0.0968  0.3860 -0.2520
  152SOL     OW  605   0.788   1.339   1.522 -0.3634 -0.2800 -0.2960
  152SOL    HW1  606   0.778   1.246   1.557  0.4104  2.7041  0.2398
  152SOL    HW2  607   0.881   1.341   1.507  0.8863 -0.3167  0.3989
  152SOL     MW  608   0.799   1.327   1.524 -0.0964  0.1088 -0.1336
  153SOL     OW  609   2.653   1.230   0.708 -0.8108  0.5457 -0.5007
  153SOL    HW1  610   2.673   1.222   0.615  0.3483 -0.5472  1.3171
  153SOL    HW2  611   2.588   1.151   0.731 -0.9289 -2.9263  0.6507
  153SOL     MW  612   2.647   1.218   0.699 -0.6735 -0.0566 -0.1090
  154SOL     OW  613   0.330   1.760   1.686 -0.2993  0.3079 -0.1116
  154SOL    HW1  614   0.332   1.734   1.593  2.5132 -0.8450  2.7809
  154SOL    HW2  615   0.383   1.706   1.744 -0.4332 -1.5017 -0.9767
  154SOL     MW  616   0.337   1.749   1.681  0.0541 -0.0829  0.1559
  155SOL     OW  617   1.098   0.677   0.297  0.3316 -0.0566 -0.0158
  155SOL    HW1  618   1.109   0.644   0.386 -0.8326 -0.0340  1.1266
  155SOL    HW2  619   1.068   0.767   0.315  0.3987 -0.2544  2.3229
  155SOL     MW  620   1.096   0.684   0.311  0.1869 -0.0798  0.4435
  156SOL     OW  621   1.482   3.022   1.040  0.3014 -0.2380  0.4023
  156SOL    HW1  622   1.560   3.071   1.044 -1.2484 -2.5617 -0.4479
  156SOL    HW2  623   1.479   2.962   1.114 -2.0558 -0.5402 -1.8806
  156SOL     MW  624   1.492   3.020   1.050 -0.2141 -0.5844 -0.0111
  157SOL     OW  625   1.349   1.205   0.157 -0.6920  0.1994  0.0959
  157SOL    HW1  626   1.388   1.120   0.190 -1.2143 -1.5036  2.5770
  157SOL    HW2  627   1.437   1.248   0.137 -1.1316 -2.6522 -1.0746
  157SOL     MW  628   1.366   1.200   0.159 -0.8190 -0.4015  0.2688
  158SOL     OW  629   0.429   1.664   2.259  0.1520 -0.2392 -0.2263
  158SOL    HW1  630   0.416   1.723   2.187 -0.3499 -0.3362 -1.2303
  158SOL    HW2  631   0.335   1.650   2.279 -0.1695 -1.7561 -0.7756
  158SOL     MW  632   0.415   1.670   2.252  0.0434 -0.4521 -0.4312
  159SOL     OW  633   1.315   1.678   0.456 -0.0469  0.5187 -0.0418
  159SOL    HW1  634   1.297   1.590   0.415  3.8369  1.0504  2.1725
  159SOL    HW2  635   1.221   1.700   0.489 -1.8674  0.7750 -0.2243
  159SOL     MW  636   1.300   1.669   0.455  0.2253  0.6226  0.2263
  160SOL     OW  637   0.473   1.099   1.552  0.5561  0.4492 -0.1593
  160SOL    HW1  638   0.469   1.023   1.605 -0.0747 -0.1005 -1.6740
  160SOL    HW2  639   0.501   1.157   1.622 -1.4130 -1.0152  1.5606
  160SOL     MW  640   0.476   1.096   1.568  0.2131  0.1835 -0.1322
  161SOL     OW  641   0.553   2.120   2.677 -0.5561  0.4470 -0.7222
  161SOL    HW1  642   0.472   2.150   2.719  0.9463 -0.5448 -0.0570
  161SOL    HW2  643   0.543   2.103   2.588  1.3498  0.3511  2.1865
  161SOL     MW  644   0.541   2.122   2.671 -0.1064  0.3035 -0.2507
  162SOL     OW  645   0.993   1.674   1.773  0.0680  0.7092 -0.2998
  162SOL    HW1  646   1.032   1.755   1.798 -4.8378 -1.2573 -1.6029
  162SOL    HW2  647   0.914   1.664   1.820  1.7626 -1.0570 -2.9823
  162SOL     MW  648   0.987   1.684   1.782 -0.3557  0.2167 -0.8257
  163SOL     OW  649   2.122   0.192   0.970  0.2059 -0.3867  0.2216
  163SOL    HW1  650   2.116   0.226   0.887 -1.0346  1.9191  1.9894
  163SOL    HW2  651   2.062   0.117   0.973 -0.4100  0.8371 -1.1890
  163SOL     MW  652   2.113   0.187   0.959 -0.0390  0.0790  0.2688
  164SOL     OW  653   0.245   0.234   0.756  0.2534 -0.3281 -0.8223
  164SOL    HW1  654   0.191   0.249   0.835 -1.8698  0.9958 -0.2413
  164SOL    HW2  655   0.224   0.146   0.733 -0.7272 -0.3272  0.1136
  164SOL     MW  656   0.235   0.224   0.763 -0.1561 -0.1533 -0.6221
  165SOL     OW  657   1.371   1.241   0.429 -0.0311 -0.5745  0.0814
  165SOL    HW1  658   1.323   1.167   0.464 -2.8915  0.7680 -1.6086
  165SOL    HW2  659   1.359   1.241   0.332  0.7837  3.5809 -1.5423
  165SOL     MW  660   1.363   1.231   0.421 -0.3010  0.1509 -0.3558
  166SOL     OW  661   0.485   1.045   0.950 -0.0282 -0.1651 -0.0991
  166SOL    HW1  662   0.474   0.974   1.017  2.4672 -1.2340  2.8394
  166SOL    HW2  663   0.576   1.050   0.925 -0.3933 -3.1134 -0.9614
  166SOL     MW  664   0.495   1.036   0.956  0.2529 -0.6951  0.1749
  167SOL     OW  665   0.889   1.145   0.264  0.1154  0.3223 -0.0973
  167SOL    HW1  666   0.799   1.161   0.263 -0.4832 -0.4099  1.3182
  167SOL    HW2  667   0.936   1.181   0.181  1.7747  0.3997  0.8910
  167SOL     MW  668   0.883   1.152   0.253  0.2553  0.2359  0.2199
  168SOL     OW  669   1.689   1.738   2.872 -0.1500 -0.1567 -0.0082
  168SOL    HW1  670   1.664   1.775   2.957  0.2781 -2.0377 -0.4430
  168SOL    HW2  671   1.691   1.642   2.892  2.2981  3.2498  0.7926
  168SOL     MW  672   1.686   1.730   2.886  0.2295  0.0445  0.0401
  169SOL     OW  673   0.329   0.952   1.339 -0.1389  0.0460  0.2957
  169SOL    HW1  674   0.367   0.928   1.422 -0.7192 -0.7762 -0.1217
  169SOL    HW2  675   0.361   1.044   1.327 -0.4311  0.0631 -1.9240
  169SOL     MW  676   0.338   0.961   1.348 -0.2540 -0.0602 -0.0522
  170SOL     OW  677   1.072   1.473   1.459  0.4305  0.0292 -0.4497
  170SOL    HW1  678   0.989   1.531   1.478 -0.8948  1.5428  2.8352
  170SOL    HW2  679   1.097   1.491   1.372  0.3592  5.0128 -0.8595
  170SOL     MW  680   1.064   1.483   1.450  0.2462  0.8864 -0.0704
  171SOL     OW  681   0.603   1.387   0.707 -0.3073 -0.4332 -0.2990
  171SOL    HW1  682   0.559   1.394   0.795  0.6514 -0.6112 -1.7511
  171SOL    HW2  683   0.546   1.328   0.664 -1.1693 -0.0568 -0.0721
  171SOL     MW  684   0.590   1.380   0.713 -0.2945 -0.4070 -0.4606
  172SOL     OW  685   0.861   0.321   1.207 -0.3571 -0.0507  0.4112
  172SOL    HW1  686   0.851   0.316   1.106  0.0127 -1.8528 -2.0815
  172SOL    HW2  687   0.772   0.346   1.243  0.5185 -0.0765  2.6070
  172SOL     MW  688   0.848   0.324   1.199 -0.1928 -0.2918  0.3721
  173SOL     OW  689   0.475   1.731   0.360  0.0339 -0.3853 -0.1908
  173SOL    HW1  690   0.476   1.637   0.324 -1.1413  1.0320 -2.0202
  173SOL    HW2  691   0.545   1.743   0.427  0.7249  1.7954  0.2703
  173SOL     MW  692   0.484   1.720   0.364 -0.0300  0.0894 -0.3714
  174SOL     OW  693   2.004   0.940   1.472 -0.0236  0.1517 -0.4136
  174SOL    HW1  694   1.943   0.873   1.497 -1.9881 -1.5479 -1.6668
  174SOL    HW2  695   1.953   0.987   1.407  0.8137 -4.0558  0.9367
  174SOL     MW  696   1.989   0.937   1.466 -0.1723 -0.6276 -0.4008
  175SOL     OW  697   0.481   1.453   0.318 -0.5119  0.4520  0.4643
  175SOL    HW1  698   0.483   1.414   0.229 -0.6447  0.1101 -1.9769
  175SOL    HW2  699   0.555   1.420   0.362 -0.2670 -0.2495 -0.2325
  175SOL     MW  700   0.491   1.443   0.312 -0.4971  0.3143  0.0503
  176SOL     OW  701   0.271   1.243   1.207 -0.6958  0.6849 -0.2529
  176SOL    HW1  702   0.227   1.274   1.126 -0.9293  0.8700  2.4630
  176SOL    HW2  703   0.251   1.306   1.268 -2.8223 -1.3160  1.2701
  176SOL     MW  704   0.263   1.256   1.204 -1.0072  0.4453  0.3063
  177SOL     OW  705   0.628   0.411   1.322  0.1102 -1.1743  0.1459
  177SOL    HW1  706   0.631   0.501   1.274 -0.6164  0.0776  0.8714
  177SOL    HW2  707   0.653   0.421   1.418  0.0315 -1.9996  1.6567
  177SOL     MW  708   0.631   0.424   1.328  0.0040 -1.1180  0.4410
  178SOL     OW  709   3.073   0.416   2.917 -0.6731  0.0906 -0.9755
  178SOL    HW1  710   3.042   0.481   2.986 -1.3783  2.2519 -0.9607
  178SOL    HW2  711   2.998   0.405   2.866 -0.5153  0.0194  0.2243
  178SOL     MW  712   3.059   0.423   2.920 -0.7453  0.3664 -0.8153
  179SOL     OW  713   1.660   1.303   1.478  0.1184 -0.3822 -0.0324
  179SOL    HW1  714   1.614   1.352   1.545 -1.1954  2.3033  0.7382
  179SOL    HW2  715   1.746   1.311   1.514 -0.7517  0.2601  0.0495
  179SOL     MW  716   1.665   1.311   1.491 -0.1698  0.0569  0.0801
  180SOL     OW  717   2.994   0.220   0.454 -0.6683 -1.2160 -0.4835
  180SOL    HW1  718   2.983   0.241   0.356 -0.4964  0.7567 -1.8397
  180SOL    HW2  719   3.052   0.293   0.484  2.1575  0.4488  0.8212
  180SOL     MW  720   3.000   0.233   0.445 -0.2727 -0.7361 -0.4903
  181SOL     OW  721   1.108   1.459   3.057  0.2014  0.1957 -0.6151
  181SOL    HW1  722   1.183   1.513   3.086  1.6535 -1.8117  0.7190
  181SOL    HW2  723   1.154   1.406   2.995 -0.8966 -1.1275  1.5433
  181SOL     MW  724   1.124   1.459   3.053  0.2481 -0.2437 -0.1543
  182SOL     OW  725   0.453   0.824   1.639 -0.0761  0.1817  0.5535
  182SOL    HW1  726   0.364   0.815   1.680 -0.5127 -0.4571  0.3955
  182SOL    HW2  727   0.511   0.792   1.707 -0.7596  0.9965  1.0803
  182SOL     MW  728   0.449   0.818   1.653 -0.2239  0.2049  0.6022
  183SOL     OW  729   1.604   1.516   1.287 -1.1163 -0.1319 -0.2195
  183SOL    HW1  730   1.540   1.543   1.357 -1.7943 -0.0580  1.0837
  183SOL    HW2  731   1.651   1.443   1.324 -2.2714 -1.7385  0.1194
  183SOL     MW  732   1.602   1.510   1.301 -1.3582 -0.3341 -0.0029
  184SOL     OW  733   0.860   0.630   1.995  0.0261  0.5337 -0.3377
  184SOL    HW1  734   0.921   0.610   1.926 -1.7524  0.4686  2.2274
  184SOL    HW2  735   0.850   0.551   2.048 -1.8849  4.2237 -2.1936
  184SOL     MW  736   0.866   0.617   1.993 -0.4607  1.0120 -0.2441
  185SOL     OW  737   1.099   0.933   1.981 -0.2791  0.3575  0.1261
  185SOL    HW1  738   1.109   0.839   2.007  2.6468 -2.0197 -2.2104
  185SOL    HW2  739   1.181   0.970   2.014 -1.7808  0.0487 -1.4606
  185SOL     MW  740   1.111   0.925   1.989 -0.0912  0.0031 -0.3915
  186SOL     OW  741   0.396   1.683   1.407 -0.0305 -0.0160 -0.3173
  186SOL    HW1  742   0.454   1.737   1.354  0.7202  1.8982 -0.3666
  186SOL    HW2  743   0.339   1.632   1.351 -0.4474  1.2121 -2.3565
  186SOL     MW  744   0.396   1.683   1.393  0.0135  0.3986 -0.5929
  187SOL     OW  745   1.506   0.696   1.447 -0.2870  0.2852 -0.3676
  187SOL    HW1  746   1.502   0.731   1.537 -1.8579  0.7893  0.5934
  187SOL    HW2  747   1.416   0.704   1.408 -0.2287  0.4878  0.0830
  187SOL     MW  748   1.494   0.702   1.454 -0.4866  0.3784 -0.1814
  188SOL     OW  749   1.918   1.050   0.706  0.7392 -0.1412 -0.0326
  188SOL    HW1  750   1.887   0.988   0.767 -1.1616  1.1435 -1.6027
  188SOL    HW2  751   2.012   1.060   0.716 -1.9433  0.4109  0.7002
  188SOL     MW  752   1.927   1.043   0.715  0.1345  0.1011 -0.1430
  189SOL     OW  753   0.668   0.781   0.796  0.3858 -0.3436 -0.1571
  189SOL    HW1  754   0.589   0.825   0.791  0.0286 -2.7867 -2.3398
  189SOL    HW2  755   0.711   0.838   0.863 -0.1746  1.9015 -0.2602
  189SOL     MW  756   0.663   0.794   0.804  0.2648 -0.3697 -0.4587
  190SOL     OW  757   1.869   0.281   1.972 -0.0037 -0.6964  0.1197
  190SOL    HW1  758   1.882   0.195   1.944 -1.7141 -1.2803  2.1462
  190SOL    HW2  759   1.943   0.336   1.933 -1.0924  0.2527 -0.1763
  190SOL     MW  760   1.880   0.277   1.963 -0.3730 -0.6482  0.3480
  191SOL     OW  761   1.623   0.941   1.346 -1.0508  0.2246 -0.7702
  191SOL    HW1  762   1.559   0.994   1.388  1.2398 -1.7742  1.4572
  191SOL    HW2  763   1.587   0.855   1.369  0.7296 -0.1409 -0.9748
  191SOL     MW  764   1.610   0.937   1.354 -0.5137 -0.0873 -0.5033
  192SOL     OW  765   0.742   1.985   2.824 -0.4596 -0.2159 -0.2797
  192SOL    HW1  766   0.668   2.028   2.774  0.8061  0.3716  0.3066
  192SOL    HW2  767   0.703   1.908   2.864 -0.7997  0.5830  0.9617
  192SOL     MW  768   0.727   1.980   2.823 -0.3374 -0.0330 -0.0385
  193SOL     OW  769   1.028   1.605   0.751 -0.7825  0.4724 -0.0758
  193SOL    HW1  770   1.000   1.620   0.846 -3.8243  1.5185  0.0346
  193SOL    HW2  771   0.968   1.538   0.709  1.0641 -0.9768 -3.6333
  193SOL     MW  772   1.016   1.598   0.758 -0.9402  0.4192 -0.5306
  194SOL     OW  773   0.478   1.355   0.950  0.0164 -0.3556  0.4211
  194SOL    HW1  774   0.477   1.256   0.949 -0.8268 -2.5088 -2.8589
  194SOL    HW2  775   0.391   1.378   0.922 -2.0990 -1.2870 -1.3827
  194SOL     MW  776   0.466   1.345   0.946 -0.3739 -0.7626 -0.2497
  195SOL     OW  777   1.276   1.142   2.993  0.2174  0.0285 -0.2155
  195SOL    HW1  778   1.297   1.148   3.087 -0.0115  1.0113  2.0592
  195SOL    HW2  779   1.219   1.064   2.988  1.0307 -1.5960  1.0296
  195SOL     MW  780   1.271   1.132   3.005  0.2945 -0.0562  0.2489
  196SOL     OW  781   2.191   1.108   0.667 -0.0658  0.0070  0.1637
  196SOL    HW1  782   2.166   1.076   0.581  2.2502 -1.1767  0.6809
  196SOL    HW2  783   2.170   1.200   0.681 -1.5613 -2.2784  0.1310
  196SOL     MW  784   2.185   1.116   0.658  0.0424 -0.4507  0.2276
  197SOL     OW  785   0.591   1.244   1.997  0.3381 -0.3212 -0.2990
  197SOL    HW1  786   0.632   1.152   1.999  0.1857 -0.4528 -0.5821
  197SOL    HW2  787   0.580   1.263   1.908 -1.0409  0.3170  2.8617
  197SOL     MW  788   0.595   1.235   1.985  0.1361 -0.2544  0.0807
  198SOL     OW  789   2.942   1.407   1.022 -0.5208  0.2284 -0.5673
  198SOL    HW1  790   2.934   1.495   0.983  1.0769  2.2415 -1.1006
  198SOL    HW2  791   2.875   1.346   0.976 -2.7928 -0.4524 -1.2456
  198SOL     MW  792   2.932   1.411   1.010 -0.6098  0.4042 -0.7272
  199SOL     OW  793   0.507   1.285   1.734 -0.5935  0.1608  0.3341
  199SOL    HW1  794   0.419   1.297   1.765  1.2932 -2.2947 -0.5648
  199SOL    HW2  795   0.520   1.361   1.672  2.5811  1.1030 -3.0478
  199SOL     MW  796   0.497   1.296   1.730  0.0743 -0.0388 -0.2307
  200SOL     OW  797   1.894   0.006   1.377  0.4347  0.2334  0.0472
  200SOL    HW1  798   1.878  -0.033   1.288 -0.6399  1.1730  0.6887
  200SOL    HW2  799   1.806   0.011   1.417 -1.0084  4.0500 -1.2064
  200SOL     MW  800   1.880   0.001   1.370  0.1025  0.8610 -0.0336
  201SOL     OW  801   1.089   0.306   0.826  0.0456 -0.2844 -0.2934
  201SOL    HW1  802   1.064   0.214   0.845  1.0848  3.8176  1.7391
  201SOL    HW2  803   1.117   0.299   0.732  2.2715 -0.4075  3.4253
  201SOL     MW  804   1.089   0.293   0.816  0.4764  0.2406  0.4654
  202SOL     OW  805   1.549   1.643   1.040  0.0194  0.4918 -0.3254
  202SOL    HW1  806   1.563   1.563   0.987 -1.1678  1.4339  1.4266
  202SOL    HW2  807   1.574   1.618   1.126  0.1178  0.4205 -0.7334
  202SOL     MW  808   1.554   1.629   1.044 -0.1242  0.6067 -0.1481
  203SOL     OW  809   0.003   0.452   1.193  0.0624  0.7003 -0.3572
  203SOL    HW1  810   0.065   0.411   1.133 -0.2979 -1.9789 -1.0432
  203SOL    HW2  811   0.057   0.516   1.239 -1.8399 -1.8073  1.3905
  203SOL     MW  812   0.018   0.455   1.191 -0.2361  0.0159 -0.2171
  204SOL     OW  813   1.063   1.761   0.511  0.1280 -0.4424  0.2550
  204SOL    HW1  814   1.045   1.695   0.579 -0.8657  2.4103  0.4969
  204SOL    HW2  815   0.972   1.768   0.471  0.9051  0.1790 -2.5584
  204SOL     MW  816   1.048   1.754   0.514  0.0994  0.0160 -0.0843
  205SOL     OW  817   1.394   0.094   1.339  0.2391 -0.0113  0.3708
  205SOL    HW1  818   1.329   0.091   1.269  2.6249  2.0450  1.1113
  205SOL    HW2  819   1.425   0.182   1.344 -0.7055  0.0789  1.5383
  205SOL     MW  820   1.390   0.105   1.331  0.4293  0.2719  0.6225
  206SOL     OW  821   0.466   3.064   1.396 -0.7725 -0.2237  0.3754
  206SOL    HW1  822   0.390   3.049   1.341  1.4513  0.4528  2.5489
  206SOL    HW2  823   0.512   2.986   1.411  0.4086  1.6852  0.8753
  206SOL     MW  824   0.462   3.052   1.391 -0.3232  0.1174  0.7281
  207SOL     OW  825   0.964   1.561   0.250  0.1179 -0.5461 -0.0156
  207SOL    HW1  826   0.987   1.648   0.208 -0.0816  0.4882 -0.3395
  207SOL    HW2  827   1.047   1.517   0.290 -0.2338 -1.7600 -0.7428
  207SOL     MW  828   0.978   1.566   0.250  0.0452 -0.5698 -0.1543
  208SOL     OW  829   0.681   1.564   1.200  0.2889  0.2163  0.4406
  208SOL    HW1  830   0.745   1.584   1.260 -0.7807 -0.9220  0.1808
  208SOL    HW2  831   0.631   1.486   1.225  1.0691 -1.8440 -0.7052
  208SOL     MW  832   0.683   1.556   1.211  0.2507 -0.2057  0.2552
  209SOL     OW  833   1.506   0.543   2.816  0.8178  0.0892  0.0251
  209SOL    HW1  834   1.548   0.553   2.902  0.9243  1.2931 -1.4862
  209SOL    HW2  835   1.562   0.486   2.770 -1.3603  0.9382  2.8306
  209SOL     MW  836   1.519   0.537   2.821  0.5445  0.3601  0.1958
  210SOL     OW  837   1.591   1.420   0.877  0.2931  0.6429  0.1242
  210SOL    HW1  838   1.657   1.352   0.859 -0.3765  0.3632 -0.4955
  210SOL    HW2  839   1.540   1.413   0.801  1.9899  0.6940 -0.8525
  210SOL     MW  840   1.593   1.410   0.865  0.4287  0.6127 -0.0864
  211SOL     OW  841   1.719   0.481   0.935  0.3835 -0.2402 -0.1094
  211SOL    HW1  842   1.682   0.464   0.849  2.6407  2.2263 -0.2543
  211SOL    HW2  843   1.811   0.490   0.929 -3.8323  1.1507  1.6292
  211SOL     MW  844   1.727   0.480   0.923  0.1251  0.2688  0.1009
  212SOL     OW  845   0.251   1.112   0.085 -0.2322 -0.0171  0.2987
  212SOL    HW1  846   0.237   1.058   0.161  3.4531 -3.3766 -0.2676
  212SOL    HW2  847   0.344   1.096   0.056  0.2716  2.1716 -1.3725
  212SOL     MW  848   0.262   1.103   0.091  0.3205 -0.1715  0.0035
  213SOL     OW  849   0.442   1.673   3.087 -0.1358  0.0105 -0.1602
  213SOL    HW1  850   0.465   1.750   3.137 -0.7295  0.2731 -1.3222
  213SOL    HW2  851   0.457   1.702   2.997  1.5952  2.0564 -2.3829
  213SOL     MW  852   0.447   1.687   3.082  0.0142  0.3151 -0.6068
  214SOL     OW  853   0.648   0.242   2.267 -0.3908 -0.1114 -0.5292
  214SOL    HW1  854   0.600   0.308   2.222  0.3927  1.8167 -1.3617
  214SOL    HW2  855   0.740   0.223   2.236  1.5311 -2.5497 -0.5507
  214SOL     MW  856   0.654   0.248   2.257 -0.0338 -0.1787 -0.6418
  215SOL     OW  857   0.475   0.744   2.604 -0.2015 -0.4137 -0.2995
  215SOL    HW1  858   0.460   0.709   2.517  1.7329  2.0733  0.3657
  215SOL    HW2  859   0.402   0.710   2.658  1.1292 -0.8143  0.9917
  215SOL     MW  860   0.463   0.735   2.600  0.2293 -0.1384 -0.0414
  216SOL     OW  861   3.076   3.048   2.734  0.2661 -0.6166 -0.6088
  216SOL    HW1  862   3.018   3.059   2.810 -1.8237 -1.1624  2.4396
  216SOL    HW2  863   3.034   3.122   2.689  1.2191  1.2579 -0.8320
  216SOL     MW  864   3.063   3.059   2.738  0.1161 -0.4413 -0.2361
  217SOL     OW  865   0.962   1.219   0.011 -0.2604  0.3014  0.6299
  217SOL    HW1  866   1.011   1.148  -0.036  1.8817  1.8664 -0.2522
  217SOL    HW2  867   1.012   1.309   0.010 -1.4885  1.7196 -2.0759
  217SOL     MW  868   0.975   1.221   0.005 -0.1398  0.6950  0.1565
  218SOL     OW  869   0.910   1.305   2.514  0.3684 -0.2802  0.7847
  218SOL    HW1  870   0.924   1.220   2.559  1.1510 -3.9799  0.9075
  218SOL    HW2  871   1.001   1.337   2.531 -0.4716  1.2963  3.4182
  218SOL     MW  872   0.923   1.298   2.522  0.3608 -0.5603  1.1484
  219SOL     OW  873   1.035   0.449   2.508 -0.0363 -0.0023  0.4552
  219SOL    HW1  874   1.072   0.516   2.449  0.9581  1.5107  0.4621
  219SOL    HW2  875   0.977   0.501   2.558  1.5440 -0.8308 -0.3889
  219SOL     MW  876   1.032   0.465   2.507  0.3034  0.0880  0.3447
  220SOL     OW  877   1.752   0.483   2.207 -0.2087 -0.6018 -0.5343
  220SOL    HW1  878   1.695   0.536   2.154 -0.7997 -2.0555 -2.0692
  220SOL    HW2  879   1.756   0.405   2.147 -1.5414  0.5031 -0.0554
  220SOL     MW  880   1.745   0.480   2.192 -0.4625 -0.6478 -0.6737
  221SOL     OW  881   0.402   1.369   2.897 -0.0093 -0.5764 -0.0207
  221SOL    HW1  882   0.402   1.280   2.865 -0.4491 -2.3886 -1.5774
  221SOL    HW2  883   0.385   1.411   2.810 -1.3977  2.4191 -2.1926
  221SOL     MW  884   0.400   1.363   2.882 -0.2505 -0.4203 -0.5126
  222SOL     OW  885   0.312   0.967   2.640  0.2439 -0.0846 -0.0172
  222SOL    HW1  886   0.257   0.982   2.558  0.4152 -2.1858  0.7286
  222SOL    HW2  887   0.372   0.900   2.609 -1.8201  1.7440  1.5053
  222SOL     MW  888   0.313   0.960   2.625 -0.0058 -0.1206  0.2821
  223SOL     OW  889  -0.006   2.000   2.601 -0.2174 -0.0110  0.1353
  223SOL    HW1  890   0.073   1.938   2.636  1.0340 -1.4404 -0.2941
  223SOL    HW2  891   0.036   2.050   2.524 -1.4977 -4.4695 -0.7412
  223SOL     MW  892   0.010   1.998   2.596 -0.2212 -0.7878 -0.0370
  224SOL     OW  893   1.463   0.823   2.607 -0.3160  0.0783 -0.5941
  224SOL    HW1  894   1.441   0.851   2.696  1.0562 -1.6477  2.8212
  224SOL    HW2  895   1.486   0.902   2.557  0.9646  1.9038 -0.1161
  224SOL     MW  896   1.463   0.837   2.612  0.0341  0.0914 -0.0804
  225SOL     OW  897   2.944   1.487   2.253  0.5619 -0.0001  0.0463
  225SOL    HW1  898   2.982   1.541   2.180  1.8072  1.5761  0.8767
  225SOL    HW2  899   2.900   1.547   2.316  0.5791 -2.1103 -0.4395
  225SOL     MW  900   2.943   1.502   2.252  0.7284 -0.0706  0.0918
  226SOL     OW  901   0.388   1.452   2.635  0.1286 -0.6661  0.2587
  226SOL    HW1  902   0.472   1.433   2.599 -2.3138  1.0205  1.4004
  226SOL    HW2  903   0.382   1.542   2.611  2.4811 -1.3749 -1.9813
  226SOL     MW  904   0.398   1.461   2.627  0.1167 -0.5371  0.1138
  227SOL     OW  905   0.456   1.093   2.825  0.6474 -0.0532 -0.2596
  227SOL    HW1  906   0.533   1.135   2.795  0.2565 -0.9672 -1.1954
  227SOL    HW2  907   0.412   1.052   2.745 -0.8194 -1.3330 -2.2694
  227SOL     MW  908   0.460   1.093   2.811  0.4023 -0.3426 -0.6482
  228SOL     OW  909   0.687   0.999   1.995  0.1783  0.0922  0.6989
  228SOL    HW1  910   0.776   1.025   1.974 -1.7507  0.3145  2.7725
  228SOL    HW2  911   0.687   0.969   2.091 -0.9141  0.8235 -0.4967
  228SOL     MW  912   0.699   0.999   2.005 -0.2203  0.2180  0.8147
  229SOL     OW  913   0.199   0.498   3.090  0.0138  0.8910  0.2075
  229SOL    HW1  914   0.144   0.451   3.025  0.8844  1.9245  0.1887
  229SOL    HW2  915   0.187   0.443   3.171 -3.2620  3.4993 -1.6781
  229SOL     MW  916   0.190   0.484   3.092 -0.3035  1.3715 -0.0438
  230SOL     OW  917   1.774   1.374   2.066  0.0350  0.3532 -0.6571
  230SOL    HW1  918   1.755   1.351   2.159 -0.4568 -1.2054 -0.2404
  230SOL    HW2  919   1.812   1.291   2.042 -0.0107  2.0395  2.9120
  230SOL     MW  920   1.777   1.360   2.075 -0.0360  0.3701 -0.1312
  231SOL     OW  921   2.753   1.294   2.147 -0.2616  0.4072  0.7013
  231SOL    HW1  922   2.831   1.348   2.137  1.1395 -0.0935 -0.6859
  231SOL    HW2  923   2.699   1.333   2.080  2.4577  0.3952  1.3359
  231SOL     MW  924   2.756   1.307   2.137  0.2820  0.3396  0.6020
  232SOL     OW  925   2.290   0.882   2.120  0.5153 -0.4920  0.0431
  232SOL    HW1  926   2.225   0.919   2.060 -0.5945  2.0383  2.9598
  232SOL    HW2  927   2.235   0.874   2.204 -1.5577 -1.7415 -0.4133
  232SOL     MW  928   2.274   0.886   2.123  0.0953 -0.3230  0.3677
  233SOL     OW  929   2.047   0.536   1.943  0.1382  0.4281 -0.4105
  233SOL    HW1  930   2.077   0.580   1.861 -2.6919  2.2521  3.0981
  233SOL    HW2  931   2.128   0.520   1.992 -0.2335  2.0341  1.0462
  233SOL     MW  932   2.062   0.539   1.939 -0.2843  0.8807  0.2446
  234SOL     OW  933   0.273   0.982   2.322 -0.4678  0.0445  0.0604
  234SOL    HW1  934   0.184   1.025   2.318 -0.7048  2.5727 -2.8590
  234SOL    HW2  935   0.339   1.047   2.352 -0.2974 -0.6100 -0.9031
  234SOL     MW  936   0.270   0.996   2.325 -0.4766  0.2917 -0.4519
  235SOL     OW  937   1.044   3.053   2.787  0.5262 -0.1079 -0.6419
  235SOL    HW1  938   1.056   2.980   2.848 -4.4436  0.7731 -0.8713
  235SOL    HW2  939   1.024   3.133   2.840  0.1540 -0.9507 -1.1072
  235SOL     MW  940   1.043   3.054   2.802 -0.1787 -0.1029 -0.7336
  236SOL     OW  941   2.933   0.517   0.032  0.0284  0.4936  0.1049
  236SOL    HW1  942   2.851   0.530  -0.022 -2.2584 -0.5118 -1.4260
  236SOL    HW2  943   2.956   0.610   0.058  1.2960 -0.3326  0.7177
  236SOL     MW  944   2.925   0.531   0.028 -0.1061  0.2520 -0.0162
  237SOL     OW  945   1.750   0.883   2.178  0.1329  0.3905  0.0616
  237SOL    HW1  946   1.790   0.960   2.129 -0.6646  0.0213 -3.7915
  237SOL    HW2  947   1.794   0.901   2.261  0.0825  0.7020 -0.9945
  237SOL     MW  948   1.761   0.896   2.182  0.0210  0.3829 -0.5861
  238SOL     OW  949   1.075   1.737   2.959 -0.4359  0.0630 -0.2862
  238SOL    HW1  950   1.060   1.653   2.918 -1.5523 -1.4638  1.6943
  238SOL    HW2  951   1.172   1.745   2.976 -0.0937 -0.1487 -0.2814
  238SOL     MW  952   1.086   1.727   2.956 -0.5381 -0.1664 -0.0243
  239SOL     OW  953   1.147   1.410   2.317  0.3444  0.5467  0.1001
  239SOL    HW1  954   1.133   1.449   2.406 -2.1746 -0.9689  1.3051
  239SOL    HW2  955   1.218   1.343   2.321 -2.4745 -1.8808 -0.5540
  239SOL     MW  956   1.155   1.406   2.330 -0.3599  0.0264  0.1728
  240SOL     OW  957   0.637   0.880   2.264 -0.3188 -0.0962 -0.1320
  240SOL    HW1  958   0.659   0.926   2.340 -1.2075 -0.0574 -1.7345
  240SOL    HW2  959   0.714   0.832   2.226  0.3563 -1.7738 -3.5985
  240SOL     MW  960   0.650   0.879   2.269 -0.3470 -0.3124 -0.8008
  241SOL     OW  961   0.632   0.336   2.992  0.3649 -0.1691 -0.4325
  241SOL    HW1  962   0.655   0.399   3.063 -0.5621 -0.7102  0.2719
  241SOL    HW2  963   0.539   0.357   2.971  0.3343  3.1384  2.7116
  241SOL     MW  964   0.623   0.347   2.999  0.2385  0.1959  0.0753
  242SOL     OW  965   1.498   1.757   2.320  0.0393  0.2941 -0.0622
  242SOL    HW1  966   1.453   1.828   2.365 -2.4951  0.8753 -1.1600
  242SOL    HW2  967   1.436   1.708   2.271  0.1505  0.9179  0.4385
  242SOL     MW  968   1.484   1.760   2.319 -0.2804  0.4531 -0.1410
  243SOL     OW  969   0.947   0.205   2.333  0.2313 -0.2063 -0.2130
  243SOL    HW1  970   1.034   0.209   2.299  1.3586  1.3882  1.2948
  243SOL    HW2  971   0.962   0.257   2.406  2.0922 -0.2127 -1.4027
  243SOL     MW  972   0.960   0.213   2.339  0.6255  0.0033 -0.1710
  244SOL     OW  973   0.205   0.727   2.309  0.2070  0.5927  0.0348
  244SOL    HW1  974   0.212   0.817   2.299  1.4324 -2.3641 -2.0147
  244SOL    HW2  975   0.292   0.699   2.338  0.9872 -1.2586  0.9472
  244SOL     MW  976   0.217   0.735   2.312  0.4716 -0.0417 -0.1152
  245SOL     OW  977   1.212   0.217   2.344 -0.2585  1.0640  0.1210
  245SOL    HW1  978   1.246   0.125   2.353 -0.6183 -0.7551  0.1790
  245SOL    HW2  979   1.262   0.275   2.397  0.4790 -0.0566  0.4574
  245SOL     MW  980   1.223   0.212   2.352 -0.2087  0.6761  0.1730
  246SOL     OW  981   1.256   1.161   2.097  0.7566  0.0783  0.2422
  246SOL    HW1  982   1.196   1.123   2.167 -0.5123 -2.6560  1.3385
  246SOL    HW2  983   1.344   1.161   2.143 -0.4995  2.9623 -2.4173
  246SOL     MW  984   1.260   1.156   2.112  0.4234  0.0981  0.0360
  247SOL     OW  985   0.708   0.519   0.104  0.2576 -0.3582  0.2099
  247SOL    HW1  986   0.667   0.604   0.120 -0.3547  0.4950 -1.5833
  247SOL    HW2  987   0.803   0.531   0.125 -0.1609 -0.9285  0.4032
  247SOL     MW  988   0.715   0.532   0.109  0.1216 -0.3208 -0.0012
  248SOL     OW  989   0.433   1.190   2.479  0.0429 -0.1403  0.6091
  248SOL    HW1  990   0.411   1.241   2.403 -0.1882 -3.1412 -0.8254
  248SOL    HW2  991   0.372   1.209   2.550 -0.0042  0.9701  4.3249
  248SOL     MW  992   0.422   1.200   2.478  0.0062 -0.3897  0.9101
  249SOL     OW  993   0.194   1.850   2.710 -0.2228  0.0835 -0.2825
  249SOL    HW1  994   0.137   1.770   2.701  0.9497 -0.6043  0.8148
  249SOL    HW2  995   0.197   1.861   2.806 -0.6205 -0.9384  0.3475
  249SOL     MW  996   0.187   1.841   2.722 -0.1206 -0.1421 -0.0546
  250SOL     OW  997   2.157   0.883   2.352 -0.4720 -0.1875  0.4360
  250SOL    HW1  998   2.211   0.801   2.380  2.8194 -3.4088  0.9225
  250SOL    HW2  999   2.201   0.956   2.403 -1.8980  1.3560 -1.1387
  250SOL     MW 1000   2.170   0.882   2.363 -0.2258 -0.4089  0.2924
  251SOL     OW 1001   0.196   0.803   2.005  0.5519 -0.5230  0.2205
  251SOL    HW1 1002   0.206   0.721   2.051  1.0769 -1.4928  3.9651
  251SOL    HW2 1003   0.220   0.792   1.909  0.0833 -1.2773 -1.4066
  251SOL     MW 1004   0.200   0.791   1.998  0.5593 -0.7505  0.4999
  252SOL     OW 1005   1.707   1.011   2.828 -0.0292 -0.4203 -0.0622
  252SOL    HW1 1006   1.704   1.083   2.894 -0.3669 -1.3525  2.7445
  252SOL    HW2 1007   1.754   1.049   2.756 -1.1342  2.0148  0.5612
  252SOL     MW 1008   1.713   1.025   2.827 -0.2196 -0.2220  0.3904
  253SOL     OW 1009   1.161   1.729   2.532  0.0020 -0.0966 -0.1018
  253SOL    HW1 1010   1.150   1.762   2.438 -1.1846 -0.3044 -0.7739
  253SOL    HW2 1011   1.075   1.756   2.571  3.0494  0.6314 -1.4391
  253SOL     MW 1012   1.148   1.737   2.525  0.2476 -0.0280 -0.3669
  254SOL     OW 1013   1.056   1.064   2.254  0.4489  0.8316 -1.1557
  254SOL    HW1 1014   1.022   0.982   2.215  1.2464  0.6936 -0.7548
  254SOL    HW2 1015   0.989   1.126   2.239 -1.1222 -1.0130  1.7961
  254SOL     MW 1016   1.043   1.061   2.247  0.3469  0.5700 -0.7134
  255SOL     OW 1017   0.816   2.428   2.213  0.6236  0.2350  0.0295
  255SOL    HW1 1018   0.731   2.408   2.249 -0.8328  1.3271 -0.9634
  255SOL    HW2 1019   0.868   2.462   2.288  1.0183 -0.9383 -0.3721
  255SOL     MW 1020   0.812   2.430   2.227  0.4836  0.2243 -0.1545
  256SOL     OW 1021   1.141   2.820   2.894 -0.4337 -0.2676 -0.9158
  256SOL    HW1 1022   1.171   2.733   2.910  1.5249  1.1898 -1.2925
  256SOL    HW2 1023   1.235   2.858   2.879  2.4257 -0.5252  2.5049
  256SOL     MW 1024   1.157   2.813   2.894  0.2020 -0.1093 -0.5142
  257SOL     OW 1025   0.129   1.873   0.101  0.5223  0.1908  0.1007
  257SOL    HW1 1026   0.175   1.824   0.171 -0.2440  3.0609 -1.8765
  257SOL    HW2 1027   0.132   1.812   0.027  0.0333  1.6852  0.7466
  257SOL     MW 1028   0.136   1.858   0.101  0.3567  0.7667 -0.0750
  258SOL     OW 1029   0.693   1.097   2.467  0.5369  0.3353  0.5708
  258SOL    HW1 1030   0.722   1.158   2.405  0.2822  0.6902  1.6329
  258SOL    HW2 1031   0.596   1.117   2.496 -0.4524 -2.8208  2.7708
  258SOL     MW 1032   0.684   1.108   2.463  0.3728 -0.0343  1.0012
  259SOL     OW 1033   0.702   0.495   2.399 -0.0907  0.1689 -0.5707
  259SOL    HW1 1034   0.631   0.559   2.376  0.8082  1.6511 -0.2308
  259SOL    HW2 1035   0.684   0.411   2.356  2.5518 -1.0991  2.1377
  259SOL     MW 1036   0.690   0.492   2.390  0.3766  0.1972 -0.1685
  260SOL     OW 1037   0.584   0.119   1.605  0.3164  0.4927  0.0943
  260SOL    HW1 1038   0.530   0.108   1.525  1.0756 -1.0781  0.1744
  260SOL    HW2 1039   0.675   0.118   1.574 -0.4317 -0.6074 -0.6038
  260SOL     MW 1040   0.589   0.117   1.591  0.3179  0.1403  0.0128
  261SOL     OW 1041   1.144   0.715   2.090  0.3105  0.0382 -0.3582
  261SOL    HW1 1042   1.146   0.694   2.182  1.4499  1.2740 -1.0779
  261SOL    HW2 1043   1.193   0.648   2.042  3.3588  0.7809 -2.2270
  261SOL     MW 1044   1.150   0.704   2.096  0.8630  0.2992 -0.6997
  262SOL     OW 1045   1.142   0.329   0.073  0.0420 -0.6337  0.2628
  262SOL    HW1 1046   1.235   0.321   0.072  0.8405 -0.7856 -0.8900
  262SOL    HW2 1047   1.102   0.243   0.066  0.0514  1.4285  0.3777
  262SOL     MW 1048   1.149   0.317   0.072  0.1486 -0.3817  0.1258
  263SOL     OW 1049   0.460   3.025   2.544  0.0111 -0.1494 -0.5604
  263SOL    HW1 1050   0.395   3.094   2.530  1.8027  2.4725 -0.8437
  263SOL    HW2 1051   0.488   3.017   2.455 -0.9520  0.6710 -0.7986
  263SOL     MW 1052   0.455   3.033   2.530  0.1204  0.3048 -0.6292
  264SOL     OW 1053   1.541   1.353   1.931 -0.0514 -0.7548 -0.2662
  264SOL    HW1 1054   1.463   1.369   1.980  0.1424 -0.0404 -0.1836
  264SOL    HW2 1055   1.623   1.382   1.974  0.0788 -1.0255 -0.7037
  264SOL     MW 1056   1.541   1.359   1.943 -0.0087 -0.6962 -0.3130
  265SOL     OW 1057   0.690   2.660   2.254 -0.2614 -0.6539  0.5760
  265SOL    HW1 1058   0.725   2.570   2.229  3.4377 -2.2432 -0.0195
  265SOL    HW2 1059   0.690   2.662   2.346 -4.4052  0.3719 -1.3769
  265SOL     MW 1060   0.695   2.649   2.263 -0.3200 -0.7282  0.2398
  266SOL     OW 1061   0.878   0.798   2.207  0.1946 -0.2607 -0.1063
  266SOL    HW1 1062   0.898   0.734   2.137  0.1157  0.5363  1.1001
  266SOL    HW2 1063   0.911   0.775   2.292  0.8981 -0.2331 -2.9666
  266SOL     MW 1064   0.885   0.787   2.209  0.2770 -0.1519 -0.3246
  267SOL     OW 1065   1.387   1.769   2.691 -0.1152 -0.4960  0.0811
  267SOL    HW1 1066   1.455   1.721   2.640  2.8210 -2.3157 -1.6256
  267SOL    HW2 1067   1.297   1.756   2.656 -2.1395 -2.0844 -0.0302
  267SOL     MW 1068   1.384   1.761   2.680  0.0051 -0.9457 -0.1588
  268SOL     OW 1069   0.217   0.763   1.738  0.2570  0.0043  0.1195
  268SOL    HW1 1070   0.150   0.812   1.687 -0.6681  2.4309  2.6571
  268SOL    HW2 1071   0.231   0.678   1.691  1.3164  2.6799  3.5393
  268SOL     MW 1072   0.210   0.758   1.725  0.2747  0.6775  0.9055
  269SOL     OW 1073   1.389   1.970   2.467 -0.6950 -0.1667 -0.2473
  269SOL    HW1 1074   1.363   1.912   2.541  0.1064 -3.0459  2.2393
  269SOL    HW2 1075   1.312   2.024   2.453 -5.2074  2.3863  2.7449
  269SOL     MW 1076   1.376   1.969   2.475 -1.1847 -0.2098  0.4756
  270SOL     OW 1077   1.160   0.408   1.584  0.7012 -0.3886  0.3052
  270SOL    HW1 1078   1.153   0.323   1.627  0.0411 -2.1308  0.1147
  270SOL    HW2 1079   1.248   0.424   1.560  0.4309 -1.5608  0.9525
  270SOL     MW 1080   1.171   0.399   1.586  0.5784 -0.7732  0.3655
  271SOL     OW 1081   0.826   3.044   2.398 -0.1542 -0.6749  0.1076
  271SOL    HW1 1082   0.876   2.990   2.456  0.6788  1.3491  1.4457
  271SOL    HW2 1083   0.877   3.120   2.373 -0.1309  0.6788  0.7213
  271SOL     MW 1084   0.839   3.047   2.403 -0.0412 -0.2292  0.3651
  272SOL     OW 1085   1.401   2.914   2.843  0.0217 -0.4582 -0.5846
  272SOL    HW1 1086   1.382   2.968   2.762  0.1150  1.9892 -2.6280
  272SOL    HW2 1087   1.443   2.973   2.906  1.3729 -0.3978  1.4428
  272SOL     MW 1088   1.404   2.929   2.841  0.2123 -0.1273 -0.5867
  273SOL     OW 1089   1.433   0.941   2.871  0.2253 -0.2539 -0.3114
  273SOL    HW1 1090   1.520   0.968   2.856  0.4138 -1.1210 -0.4701
  273SOL    HW2 1091   1.390   1.019   2.901 -1.3796 -1.6437  0.4063
  273SOL     MW 1092   1.439   0.955   2.873  0.0384 -0.5517 -0.2376
  274SOL     OW 1093   1.345   0.751   0.190  0.5738  0.1246  0.3993
  274SOL    HW1 1094   1.406   0.676   0.207 -0.3802 -3.4266 -0.4197
  274SOL    HW2 1095   1.261   0.722   0.226 -1.4953 -0.5562  0.1728
  274SOL     MW 1096   1.342   0.737   0.197  0.1749 -0.4338  0.2614
  275SOL     OW 1097   1.722   0.692   1.836  0.2371 -0.7823  0.0206
  275SOL    HW1 1098   1.801   0.707   1.897 -1.6311 -1.0512  1.5214
  275SOL    HW2 1099   1.694   0.601   1.842 -0.3770  1.1236  2.5346
  275SOL     MW 1100   1.728   0.682   1.845 -0.0904 -0.5663  0.5503
  276SOL     OW 1101   0.237   1.211   1.800  0.2642  0.2326  0.4527
  276SOL    HW1 1102   0.271   1.130   1.837  0.9771  0.2513 -0.1218
  276SOL    HW2 1103   0.161   1.232   1.847  0.9060  1.4111 -2.2050
  276SOL     MW 1104   0.231   1.203   1.811  0.4429  0.3905  0.0262
  277SOL     OW 1105   1.935   1.353   2.621  0.2903 -0.0867 -0.2566
  277SOL    HW1 1106   2.005   1.410   2.655  2.2186  0.7488  0.4868
  277SOL    HW2 1107   1.972   1.271   2.607 -3.3951 -2.4295  1.4836
  277SOL     MW 1108   1.949   1.350   2.623  0.0584 -0.2856  0.0711
  278SOL     OW 1109   1.438   0.727   1.735  0.1206  0.3084  0.3846
  278SOL    HW1 1110   1.416   0.642   1.776  2.6502  0.3471  0.9821
  278SOL    HW2 1111   1.525   0.754   1.766 -0.1366  0.2583 -0.9766
  278SOL     MW 1112   1.447   0.719   1.745  0.4205  0.3069  0.2838
  279SOL     OW 1113   0.555   3.093   2.231 -0.7740  0.5363 -0.1360
  279SOL    HW1 1114   0.624   3.053   2.178 -0.2833  1.3125 -0.9662
  279SOL    HW2 1115   0.584   3.186   2.245  3.9364 -0.8645 -1.8454
  279SOL     MW 1116   0.568   3.100   2.226 -0.0877  0.4539 -0.4711
  280SOL     OW 1117   1.489   1.153   2.209 -0.0061 -0.2318  0.1667
  280SOL    HW1 1118   1.494   1.070   2.160  0.4949  0.0718 -0.0573
  280SOL    HW2 1119   1.485   1.120   2.301 -3.0539 -3.2512  2.0425
  280SOL     MW 1120   1.489   1.138   2.215 -0.3421 -0.5901  0.3847
  281SOL     OW 1121   1.283   1.360   2.815  0.2183 -0.4284 -0.2054
  281SOL    HW1 1122   1.375   1.394   2.813 -0.1009 -0.7403  2.7657
  281SOL    HW2 1123   1.294   1.285   2.876  0.4402 -1.0668  2.1438
  281SOL     MW 1124   1.296   1.355   2.823  0.2055 -0.5538  0.4965
  282SOL     OW 1125   1.137   1.302   1.686 -0.0393 -0.4470 -0.0013
  282SOL    HW1 1126   1.127   1.353   1.601 -1.0549 -0.4095 -0.1283
  282SOL    HW2 1127   1.046   1.299   1.713  0.3226  1.1479  0.4283
  282SOL     MW 1128   1.124   1.308   1.678 -0.1256 -0.2316  0.0386
  283SOL     OW 1129   0.690   1.270   3.042  0.1671  1.0253  0.3158
  283SOL    HW1 1130   0.780   1.252   3.060 -1.2083 -2.1867  3.9470
  283SOL    HW2 1131   0.668   1.348   3.087 -3.5574 -1.4841  0.4213
  283SOL     MW 1132   0.699   1.278   3.050 -0.5058  0.2704  0.8089
  284SOL     OW 1133   0.469   0.641   2.358  0.7733  0.5926  0.1615
  284SOL    HW1 1134   0.492   0.725   2.321  0.8627 -1.7397  0.1875
  284SOL    HW2 1135   0.465   0.564   2.294 -3.9610  3.4793  0.1339
  284SOL     MW 1136   0.471   0.642   2.345  0.1604  0.6657  0.1613
  285SOL     OW 1137   0.862   0.981   2.877 -0.2986 -0.3622 -0.3900
  285SOL    HW1 1138   0.900   1.022   2.801  0.4232  2.4199 -0.7893
  285SOL    HW2 1139   0.818   0.894   2.862 -2.8500  2.2746  2.4332
  285SOL     MW 1140   0.861   0.975   2.865 -0.5400  0.3528 -0.0702
  286SOL     OW 1141   1.165   1.458   2.586 -0.3079  0.2906  0.1555
  286SOL    HW1 1142   1.206   1.415   2.659 -0.9721  0.7225 -2.8883
  286SOL    HW2 1143   1.183   1.552   2.606  1.1282  0.8529 -1.5194
  286SOL     MW 1144   1.173   1.465   2.599 -0.2060  0.4218 -0.4671
  287SOL     OW 1145   1.030   0.931   0.345 -0.1724 -0.1562 -0.2732
  287SOL    HW1 1146   1.102   0.965   0.402 -1.6833 -1.2232 -0.6296
  287SOL    HW2 1147   1.000   1.015   0.305 -0.6138 -1.5240  1.4158
  287SOL     MW 1148   1.036   0.946   0.347 -0.4299 -0.4774 -0.0974
  288SOL     OW 1149   1.537   0.648   2.104  0.4152 -0.4745 -0.3272
  288SOL    HW1 1150   1.505   0.652   2.201  2.6349 -2.2164 -0.8201
  288SOL    HW2 1151   1.536   0.742   2.079  0.6542  0.6677 -0.8952
  288SOL     MW 1152   1.533   0.661   2.113  0.7396 -0.5536 -0.4672
  289SOL     OW 1153   0.948   1.047   2.626  0.2802 -0.7733 -0.1295
  289SOL    HW1 1154   1.007   0.986   2.592 -0.7710 -0.8402  3.6371
  289SOL    HW2 1155   0.869   1.027   2.574  0.4266 -0.9352 -2.4439
  289SOL     MW 1156   0.946   1.036   2.614  0.1608 -0.8035  0.0621
  290SOL     OW 1157   0.854   0.564   1.501 -0.2547  0.0420 -0.0695
  290SOL    HW1 1158   0.923   0.537   1.441  0.4814  1.8247 -1.4620
  290SOL    HW2 1159   0.916   0.586   1.568  0.0507  1.2064 -1.1066
  290SOL     MW 1160   0.871   0.564   1.502 -0.1173  0.4308 -0.3901
  291SOL     OW 1161   0.159   0.325   0.227 -0.5829 -0.2148 -0.0552
  291SOL    HW1 1162   0.253   0.292   0.218  1.5864  2.4318  3.6790
  291SOL    HW2 1163   0.098   0.287   0.159  0.2623 -1.5607 -1.6540
  291SOL     MW 1164   0.163   0.316   0.217 -0.1852 -0.0432  0.2265
  292SOL     OW 1165   0.970   0.553   0.100 -0.0302 -0.5293 -0.7136
  292SOL    HW1 1166   0.998   0.599   0.180 -2.1769 -0.3688 -1.7839
  292SOL    HW2 1167   1.031   0.482   0.087 -0.5544  0.0035  1.6479
  292SOL     MW 1168   0.981   0.549   0.109 -0.3826 -0.4378 -0.5433
  293SOL     OW 1169   0.237   0.084   2.494 -0.5363  0.3921 -0.5530
  293SOL    HW1 1170   0.162   0.041   2.454 -0.2239 -3.1254  1.8682
  293SOL    HW2 1171   0.200   0.141   2.563  1.1778  3.1533 -0.7821
  293SOL     MW 1172   0.222   0.086   2.498 -0.2689  0.2923 -0.2638
  294SOL     OW 1173   1.481   0.652   2.380  0.6271  0.6010 -0.0590
  294SOL    HW1 1174   1.476   0.716   2.463 -2.6927  3.1275  1.3277
  294SOL    HW2 1175   1.489   0.560   2.418  1.5192  0.1973  0.3032
  294SOL     MW 1176   1.481   0.648   2.396  0.3068  0.8811  0.1717
  295SOL     OW 1177   0.879   0.685   2.515  0.7574  0.5057 -0.1055
  295SOL    HW1 1178   0.828   0.619   2.474 -1.8457  0.1086  1.0385
  295SOL    HW2 1179   0.826   0.719   2.594 -1.0660 -0.3832 -0.4597
  295SOL     MW 1180   0.865   0.681   2.520  0.1734  0.3360 -0.0013
  296SOL     OW 1181   1.317   0.287   2.084 -0.7038 -0.5548  0.1720
  296SOL    HW1 1182   1.404   0.241   2.055  1.2975 -1.5110 -0.8800
  296SOL    HW2 1183   1.299   0.253   2.175  1.3953 -1.0761  2.1693
  296SOL     MW 1184   1.326   0.276   2.092 -0.1627 -0.7497  0.2967
  297SOL     OW 1185   1.425   0.429   1.533 -0.4553  0.0577  0.2467
  297SOL    HW1 1186   1.454   0.517   1.510  1.3367 -1.0014  3.6262
  297SOL    HW2 1187   1.485   0.402   1.604  0.2679  0.4264  1.0233
  297SOL     MW 1188   1.437   0.437   1.539 -0.1234 -0.0334  0.7951
  298SOL     OW 1189   1.496   0.917   2.047 -0.1333  0.5249 -0.1861
  298SOL    HW1 1190   1.525   0.958   1.964 -0.9320 -1.1631 -0.1600
  298SOL    HW2 1191   1.586   0.899   2.085  0.5673  1.6855  1.7150
  298SOL     MW 1192   1.512   0.920   2.041 -0.1462  0.4553  0.0682
  299SOL     OW 1193   0.508   1.086   3.105 -0.4857 -0.2046 -0.1925
  299SOL    HW1 1194   0.586   1.144   3.083  2.0168  3.1923 -1.2532
  299SOL    HW2 1195   0.472   1.058   3.020 -1.8306 -0.4201  3.2339
  299SOL     MW 1196   0.514   1.090   3.091 -0.3330  0.2151  0.1196
  300SOL     OW 1197   1.267   1.155   2.513  0.0104 -0.0678 -0.1819
  300SOL    HW1 1198   1.214   1.082   2.498 -0.6223  4.3991  0.8506
  300SOL    HW2 1199   1.220   1.197   2.585  1.3384 -0.3576 -0.0132
  300SOL     MW 1200   1.254   1.151   2.520  0.1021  0.4833 -0.0234
  301SOL     OW 1201   1.357   0.763   0.581  0.0111  1.1006 -0.0316
  301SOL    HW1 1202   1.397   0.721   0.658 -0.3247 -0.6661 -1.2777
  301SOL    HW2 1203   1.264   0.779   0.604  0.7434  0.2582 -2.4441
  301SOL     MW 1204   1.350   0.760   0.594  0.0634  0.7564 -0.5143
  302SOL     OW 1205   0.120   1.474   1.989 -0.4800  0.2809  0.1219
  302SOL    HW1 1206   0.079   1.416   2.048 -0.3870  1.0360  0.7307
  302SOL    HW2 1207   0.079   1.556   2.006  2.8255  1.2602  0.8976
  302SOL     MW 1208   0.109   1.478   1.999 -0.0316  0.5097  0.3046
  303SOL     OW 1209   0.399   1.759   2.558  0.1258 -0.2316  0.1386
  303SOL    HW1 1210   0.375   1.744   2.468  0.8648  3.3956 -0.3259
  303SOL    HW2 1211   0.325   1.797   2.602  2.2098 -1.7195 -2.0471
  303SOL     MW 1212   0.386   1.762   2.552  0.4983  0.0506 -0.2111
  304SOL     OW 1213   0.610   2.093   2.422  0.5305  0.4594 -0.1633
  304SOL    HW1 1214   0.639   2.181   2.401  0.1685  0.2112 -1.0064
  304SOL    HW2 1215   0.676   2.033   2.395 -1.8967 -4.2440  0.0397
  304SOL     MW 1216   0.623   2.097   2.416  0.1625 -0.1939 -0.2478
  305SOL     OW 1217   1.128   0.536   0.542 -0.3366 -0.3214  0.1471
  305SOL    HW1 1218   1.030   0.542   0.532 -3.3191  0.6986 -1.7311
  305SOL    HW2 1219   1.140   0.442   0.521 -0.9913 -1.3661 -1.4422
  305SOL     MW 1220   1.116   0.525   0.538 -0.8165 -0.3247 -0.3104
  306SOL     OW 1221   1.217   1.459   0.330 -0.5170  0.4641  0.1528
  306SOL    HW1 1222   1.247   1.371   0.352 -0.5461 -0.1403  0.7431
  306SOL    HW2 1223   1.240   1.479   0.241 -2.0263  0.2126  4.4107
  306SOL     MW 1224   1.224   1.450   0.321 -0.7200  0.3512  0.7925
  307SOL     OW 1225   1.322   0.545   1.939  0.2969 -0.1776 -0.3545
  307SOL    HW1 1226   1.283   0.463   1.955  1.2793  2.2013  3.3007
  307SOL    HW2 1227   1.390   0.540   2.008 -0.4237 -0.2680 -1.3830
  307SOL     MW 1228   1.326   0.534   1.950  0.3314  0.1243 -0.0079
  308SOL     OW 1229   2.107   0.639   2.657 -0.4741 -0.0857 -0.3549
  308SOL    HW1 1230   2.151   0.586   2.720  3.6992 -1.4514 -1.2068
  308SOL    HW2 1231   2.127   0.737   2.668 -1.8052  2.8964 -3.0993
  308SOL     MW 1232   2.116   0.645   2.667 -0.0991  0.1275 -0.8294
  309SOL     OW 1233   0.608   0.494   0.426  0.3474 -0.9312 -0.4511
  309SOL    HW1 1234   0.612   0.415   0.477 -1.0860 -0.7597  0.2748
  309SOL    HW2 1235   0.592   0.472   0.335  0.5013 -0.5117  0.1776
  309SOL     MW 1236   0.607   0.481   0.421  0.1785 -0.8532 -0.2724
  310SOL     OW 1237   0.455   0.504   1.932  0.1389  0.6177  0.0420
  310SOL    HW1 1238   0.489   0.427   1.876 -2.7666 -0.1927 -0.9858
  310SOL    HW2 1239   0.503   0.578   1.899 -1.7479  1.3261  0.3109
  310SOL     MW 1240   0.466   0.504   1.920 -0.4934  0.6042 -0.0581
  311SOL     OW 1241   1.918   0.767   1.984 -0.2842 -0.5075 -0.2091
  311SOL    HW1 1242   1.865   0.788   2.067  1.5412  1.2623  1.9943
  311SOL    HW2 1243   1.955   0.684   2.010  0.0721  0.9268  1.3948
  311SOL     MW 1244   1.916   0.759   1.998  0.0037 -0.0848  0.2932
  312SOL     OW 1245   1.776   2.520   0.027 -0.4110 -0.3745  0.4940
  312SOL    HW1 1246   1.831   2.554   0.098  2.7590  1.6778 -2.8541
  312SOL    HW2 1247   1.684   2.548   0.045  2.1624  0.4237 -0.8768
  312SOL     MW 1248   1.771   2.528   0.039  0.3468  0.0016 -0.1286
  313SOL     OW 1249   0.092   1.208   2.936 -0.3490 -0.8865  0.0113
  313SOL    HW1 1250   0.170   1.174   2.977  1.3664  0.9761  1.2812
  313SOL    HW2 1251   0.112   1.226   2.845  0.8827  0.5971  2.0662
  313SOL     MW 1252   0.105   1.206   2.930  0.0398 -0.4450  0.4500
  314SOL     OW 1253   2.136   3.015   2.976  0.0884  0.3081 -0.0316
  314SOL    HW1 1254   2.090   3.086   2.928  0.1575 -2.3638 -0.8483
  314SOL    HW2 1255   2.180   3.058   3.043 -0.0010 -0.5474 -0.6863
  314SOL     MW 1256   2.136   3.030   2.978  0.0858 -0.1573 -0.2257
  315SOL     OW 1257   1.550   1.954   3.033 -0.2278  0.4282  0.0662
  315SOL    HW1 1258   1.488   2.003   3.097  1.4667  0.9941 -2.6295
  315SOL    HW2 1259   1.574   2.021   2.958 -0.2009  0.6264 -2.8130
  315SOL     MW 1260   1.545   1.969   3.032 -0.0007  0.5290 -0.6694
  316SOL     OW 1261   1.253   0.654   2.723 -0.2054  0.4661 -0.5923
  316SOL    HW1 1262   1.343   0.641   2.759  2.8206  1.3616 -2.1013
  316SOL    HW2 1263   1.196   0.584   2.756  0.8021 -4.4700 -0.5985
  316SOL     MW 1264   1.258   0.643   2.732  0.3268 -0.0670 -0.7922
  317SOL     OW 1265   0.665   1.423   2.638 -0.1333 -0.0060  0.2578
  317SOL    HW1 1266   0.682   1.354   2.700 -2.0364  0.4000 -2.0229
  317SOL    HW2 1267   0.740   1.414   2.582  3.3989 -2.0708 -1.5265
  317SOL     MW 1268   0.677   1.413   2.639  0.0816 -0.2248 -0.2785
  318SOL     OW 1269   1.333   0.348   2.886  0.5545  0.1903 -0.1466
  318SOL    HW1 1270   1.239   0.386   2.888 -2.5805 -0.8498 -0.6430
  318SOL    HW2 1271   1.392   0.410   2.847  2.4650 -1.0252 -0.2849
  318SOL     MW 1272   1.328   0.361   2.881  0.3930 -0.1073 -0.2303
  319SOL     OW 1273   0.804   0.432   2.817 -0.3297  0.3204  0.8354
  319SOL    HW1 1274   0.783   0.393   2.730 -1.7534 -1.0141  1.8408
  319SOL    HW2 1275   0.740   0.395   2.882 -0.3081  0.0435  1.3461
  319SOL     MW 1276   0.793   0.422   2.814 -0.5147  0.1078  1.0354
  320SOL     OW 1277   1.030   1.331   2.068  0.1431 -0.1107  0.6710
  320SOL    HW1 1278   1.100   1.274   2.111 -0.0844  0.0211 -0.3205
  320SOL    HW2 1279   1.076   1.395   2.011 -0.8869 -2.7286 -0.0501
  320SOL     MW 1280   1.045   1.332   2.066 -0.0228 -0.4387  0.4450
  321SOL     OW 1281   1.070   0.948   3.024 -0.4990  0.0329  0.3367
  321SOL    HW1 1282   0.991   0.932   2.969 -1.1555 -2.6511  0.0167
  321SOL    HW2 1283   1.113   0.865   3.039 -0.4829  0.4237  0.4621
  321SOL     MW 1284   1.065   0.935   3.019 -0.5835 -0.2697  0.3110
  322SOL     OW 1285   1.200   0.838   1.731 -0.5061  0.6077  0.1614
  322SOL    HW1 1286   1.287   0.796   1.737  1.0394  1.4898  0.1460
  322SOL    HW2 1287   1.179   0.851   1.824  2.6236 -0.1845  0.1820
  322SOL     MW 1288   1.209   0.834   1.744  0.1107  0.6196  0.1621
  323SOL     OW 1289   1.163   1.514   1.881  0.0627  0.0271 -0.4077
  323SOL    HW1 1290   1.161   1.440   1.822  0.3866  3.7066  2.5682
  323SOL    HW2 1291   1.085   1.565   1.845 -0.5600  0.2280 -0.1194
  323SOL     MW 1292   1.153   1.511   1.869  0.0233  0.5391  0.0230
  324SOL     OW 1293   1.522   1.077   2.491  0.2397  0.0000 -0.1166
  324SOL    HW1 1294   1.428   1.113   2.496  1.9015 -1.2808 -0.8187
  324SOL    HW2 1295   1.570   1.142   2.541  0.0195 -4.6840 -1.2081
  324SOL     MW 1296   1.516   1.090   2.498  0.4299 -0.7870 -0.3532
  325SOL     OW 1297   1.095   0.495   2.884 -0.0543  0.0888  0.4349
  325SOL    HW1 1298   1.131   0.555   2.944 -0.4485  0.9340 -1.9597
  325SOL    HW2 1299   0.999   0.493   2.890 -0.9312 -0.2445  1.7142
  325SOL     MW 1300   1.087   0.503   2.893 -0.2220  0.1563  0.2877
  326SOL     OW 1301   0.436   1.331   2.220  0.2496  0.1141 -0.0772
  326SOL    HW1 1302   0.471   1.291   2.140 -0.3233 -0.2461  0.4998
  326SOL    HW2 1303   0.455   1.424   2.217 -1.7537  1.4863  0.8673
  326SOL     MW 1304   0.443   1.338   2.209 -0.0903  0.2476  0.1235
  327SOL     OW 1305   1.898   0.906   2.405  0.1159  0.2013 -0.5663
  327SOL    HW1 1306   1.865   0.830   2.446 -2.6991 -0.5678 -1.3337
  327SOL    HW2 1307   1.994   0.907   2.390  1.6963  0.2396  1.1382
  327SOL     MW 1308   1.906   0.896   2.408 -0.0470  0.1049 -0.4426
  328SOL     OW 1309   0.151   1.271   2.223  0.7075 -0.8324  0.1982
  328SOL    HW1 1310   0.130   1.199   2.162  1.8161  1.1758  0.7457
  328SOL    HW2 1311   0.241   1.290   2.203  0.7021  0.8042 -0.6598
  328SOL     MW 1312   0.160   1.264   2.212  0.8530 -0.3515  0.1573
  329SOL     OW 1313   0.139   0.161   1.388  0.2371 -0.5385  0.1645
  329SOL    HW1 1314   0.084   0.213   1.445 -3.9426 -1.2240  2.8312
  329SOL    HW2 1315   0.212   0.215   1.360 -1.7314 -1.7295  2.1921
  329SOL     MW 1316   0.141   0.175   1.392 -0.5741 -0.7861  0.7839
  330SOL     OW 1317   0.384   2.971   2.042 -0.0855  0.1638  0.3051
  330SOL    HW1 1318   0.447   2.988   2.111 -1.3777  1.2772 -1.1270
  330SOL    HW2 1319   0.309   2.948   2.089 -1.9920 -3.3008 -2.9247
  330SOL     MW 1320   0.383   2.971   2.057 -0.5075 -0.1464 -0.3100
  331SOL     OW 1321   0.824   1.231   2.256  0.0581  0.4616 -1.1236
  331SOL    HW1 1322   0.772   1.301   2.225 -2.8587  1.2033  1.0820
  331SOL    HW2 1323   0.864   1.267   2.338 -1.0786 -2.9991  0.1925
  331SOL     MW 1324   0.822   1.245   2.263 -0.4767  0.1029 -0.6590
  332SOL     OW 1325   1.355   1.774   2.978 -0.1166 -0.5127 -0.2041
  332SOL    HW1 1326   1.367   1.761   2.883 -0.4930 -0.4950  0.1363
  332SOL    HW2 1327   1.418   1.847   2.993  2.1021  1.1044 -1.8001
  332SOL     MW 1328   1.365   1.782   2.967  0.1265 -0.2970 -0.3698
  333SOL     OW 1329   1.718   1.470   2.996 -0.1144 -0.4530 -0.1854
  333SOL    HW1 1330   1.813   1.471   3.013  2.4098  1.2257 -0.6011
  333SOL    HW2 1331   1.677   1.446   3.076  2.4586 -0.1358  1.1894
  333SOL     MW 1332   1.725   1.467   3.009  0.5581 -0.1897 -0.0589
  334SOL     OW 1333   1.276   3.070   2.643  0.6757 -0.7814  0.4899
  334SOL    HW1 1334   1.189   3.065   2.682  3.0860  0.8418 -1.4460
  334SOL    HW2 1335   1.283   3.166   2.630 -2.2102  1.4283 -0.8752
  334SOL     MW 1336   1.266   3.082   2.646  0.6129 -0.2757  0.0544
  335SOL     OW 1337   1.269   0.745   3.030 -0.0828  0.2576  1.1587
  335SOL    HW1 1338   1.305   0.750   3.122  2.9105 -2.0221  0.8472
  335SOL    HW2 1339   1.308   0.801   2.967  0.8187  1.5444  1.0262
  335SOL     MW 1340   1.279   0.753   3.034  0.4311  0.1266  1.1001
  336SOL     OW 1341   0.921   1.113   1.903  0.3358 -0.7355  0.3883
  336SOL    HW1 1342   0.921   1.185   1.961 -1.6106  0.3857  0.5561
  336SOL    HW2 1343   0.977   1.046   1.948  2.5145 -2.1283 -1.6055
  336SOL     MW 1344   0.928   1.114   1.916  0.3665 -0.7713  0.1474
  337SOL     OW 1345   0.511   1.781   2.843 -0.6296  0.5078  0.0904
  337SOL    HW1 1346   0.453   1.773   2.770 -3.3659 -2.2805  0.7369
  337SOL    HW2 1347   0.590   1.748   2.797 -2.2430  0.2178  0.0509
  337SOL     MW 1348   0.514   1.776   2.827 -1.2035  0.1017  0.1705
  338SOL     OW 1349   1.122   0.837   2.556  0.4250  0.1897  0.3162
  338SOL    HW1 1350   1.042   0.791   2.575  0.4870  2.8732 -0.7773
  338SOL    HW2 1351   1.189   0.785   2.596  0.9188  0.9413  4.2949
  338SOL     MW 1352   1.120   0.824   2.564  0.4984  0.6429  0.6969
  339SOL     OW 1353   1.587   1.059   1.838  0.1600 -0.1913 -0.0579
  339SOL    HW1 1354   1.508   1.036   1.785  1.0873 -1.1444  2.1622
  339SOL    HW2 1355   1.570   1.155   1.858 -0.9195  2.2677 -1.5887
  339SOL     MW 1356   1.574   1.069   1.834  0.1399  0.0074  0.0330
  340SOL     OW 1357   1.352   1.583   0.107  0.3467 -0.4540 -0.1086
  340SOL    HW1 1358   1.378   1.648   0.036 -2.5218  1.2121 -1.2252
  340SOL    HW2 1359   1.431   1.572   0.158  2.7600  0.1246 -0.9898
  340SOL     MW 1360   1.366   1.590   0.104  0.2867 -0.1578 -0.3722
  341SOL     OW 1361   0.141   1.309   2.692 -0.2287  0.2316 -0.4465
  341SOL    HW1 1362   0.220   1.343   2.652  2.1580 -0.3973 -0.1647
  341SOL    HW2 1363   0.084   1.317   2.613 -0.8279  0.4902 -1.4251
  341SOL     MW 1364   0.144   1.315   2.676  0.0071  0.1828 -0.5385
  342SOL     OW 1365   1.423   0.329   0.073 -0.1052 -0.2240  0.0005
  342SOL    HW1 1366   1.432   0.417   0.115  0.2865 -0.6721  0.1741
  342SOL    HW2 1367   1.406   0.351  -0.023  1.7918 -0.8965 -0.2210
  342SOL     MW 1368   1.422   0.343   0.066  0.1967 -0.3718 -0.0058
  343SOL     OW 1369   0.203   0.274   2.300  0.0690 -0.4777 -0.4924
  343SOL    HW1 1370   0.217   0.201   2.364 -1.3801  0.6734 -0.9623
  343SOL    HW2 1371   0.157   0.231   2.222  1.6611  1.9772 -1.4403
  343SOL     MW 1372   0.198   0.258   2.298  0.0879 -0.0019 -0.6794
  344SOL     OW 1373   1.695   2.085   0.207 -0.5808  0.0178  0.8607
  344SOL    HW1 1374   1.691   2.144   0.133  0.7777 -0.0294 -0.9753
  344SOL    HW2 1375   1.631   2.012   0.183  1.5920 -1.1268 -0.5668
  344SOL     MW 1376   1.686   2.083   0.194 -0.1148 -0.1395  0.4301
  345SOL     OW 1377   0.672   1.605   2.352  0.2300 -0.1387  0.4184
  345SOL    HW1 1378   0.581   1.631   2.327  0.4292 -1.6897  0.4952
  345SOL    HW2 1379   0.730   1.587   2.276  0.0956 -1.8488  0.5365
  345SOL     MW 1380   0.668   1.606   2.339  0.2385 -0.5690  0.4441
  346SOL     OW 1381   1.679   1.079   0.010 -0.0278  0.0366  0.0322
  346SOL    HW1 1382   1.767   1.066   0.049  2.2966  2.4389 -1.0552
  346SOL    HW2 1383   1.613   1.034   0.059  1.2992 -1.0417 -1.3406
  346SOL     MW 1384   1.682   1.071   0.022  0.4540  0.2113 -0.2924
  347SOL     OW 1385   1.192   0.657   2.366 -0.1019  0.7319 -0.0412
  347SOL    HW1 1386   1.291   0.641   2.367 -0.7970  0.5335 -1.5982
  347SOL    HW2 1387   1.182   0.738   2.421  1.0781  2.8128  0.1508
  347SOL     MW 1388   1.203   0.665   2.373 -0.0379  0.9803 -0.2213
  348SOL     OW 1389   1.324   2.612   1.892 -0.3134 -0.0923 -0.1443
  348SOL    HW1 1390   1.364   2.528   1.911 -0.5914  2.3810  2.4748
  348SOL    HW2 1391   1.382   2.679   1.915 -1.0987 -1.6731 -1.9367
  348SOL     MW 1392   1.337   2.610   1.898 -0.4537  0.0255 -0.0352
  349SOL     OW 1393   1.384   0.224   2.657  0.3880  0.0975 -0.0978
  349SOL    HW1 1394   1.336   0.279   2.725 -0.9074  4.2497 -3.2680
  349SOL    HW2 1395   1.435   0.150   2.699  0.0469 -0.5505  0.2212
  349SOL     MW 1396   1.384   0.222   2.672  0.1721  0.5598 -0.4740
  350SOL     OW 1397   1.848   0.678   2.633  0.7969  0.1359  0.1968
  350SOL    HW1 1398   1.804   0.602   2.586 -0.4377  0.3479  0.7965
  350SOL    HW2 1399   1.943   0.661   2.643  0.9365 -3.0487  5.2742
  350SOL     MW 1400   1.855   0.665   2.628  0.6524 -0.2563  0.9459
  351SOL     OW 1401   0.057   0.934   1.618  0.9016 -0.2245  0.1815
  351SOL    HW1 1402  -0.015   0.974   1.662  0.3963 -1.8554 -0.4646
  351SOL    HW2 1403   0.108   1.012   1.594  0.5391  1.2957  0.5302
  351SOL     MW 1404   0.054   0.950   1.620  0.7871 -0.2391  0.1422
  352SOL     OW 1405   0.735   1.643   2.771  0.5818  0.6975 -0.1462
  352SOL    HW1 1406   0.761   1.611   2.857  1.8017 -3.5849  0.8375
  352SOL    HW2 1407   0.708   1.566   2.718 -0.9566  2.6372 -0.0366
  352SOL     MW 1408   0.735   1.628   2.775  0.5398  0.3884 -0.0020
  353SOL     OW 1409   2.998   2.414   2.722 -0.1634 -0.1404 -0.3555
  353SOL    HW1 1410   3.087   2.375   2.700  0.7294 -0.4743 -0.0544
  353SOL    HW2 1411   2.981   2.483   2.658 -0.0183 -2.2424 -2.6379
  353SOL     MW 1412   3.007   2.418   2.710 -0.0265 -0.4618 -0.6169
  354SOL     OW 1413   0.420   2.384   0.864  0.2170  0.0419  0.0498
  354SOL    HW1 1414   0.448   2.358   0.949 -0.2027  0.4246 -1.0252
  354SOL    HW2 1415   0.327   2.360   0.864  0.5181  0.3424  0.0559
  354SOL     MW 1416   0.411   2.378   0.876  0.2014  0.1321 -0.0912
  355SOL     OW 1417   0.071   2.192   0.386  0.0936 -0.2113  0.5842
  355SOL    HW1 1418  -0.017   2.166   0.357 -1.0575 -0.8108  1.9317
  355SOL    HW2 1419   0.050   2.229   0.469 -0.1649  0.9073  0.4102
  355SOL     MW 1420   0.057   2.194   0.393 -0.0924 -0.1428  0.7390
  356SOL     OW 1421   0.855   2.955   1.018  0.2867  0.0122 -0.0173
  356SOL    HW1 1422   0.899   2.952   0.926  0.5317 -2.6357 -1.6539
  356SOL    HW2 1423   0.782   2.894   1.017  1.4691  1.0729  1.0450
  356SOL     MW 1424   0.852   2.947   1.006  0.4750 -0.1972 -0.0931
  357SOL     OW 1425   1.778   2.892   0.367 -0.2514 -0.4254  0.3481
  357SOL    HW1 1426   1.735   2.843   0.430  1.5954  1.1312 -2.2490
  357SOL    HW2 1427   1.863   2.844   0.354  0.1497 -1.9572 -0.1092
  357SOL     MW 1428   1.784   2.879   0.373  0.0452 -0.4221 -0.0549
  358SOL     OW 1429   0.404   0.158   1.020  0.2280  0.0066  0.3554
  358SOL    HW1 1430   0.493   0.131   1.024  2.2491  0.8124  1.3823
  358SOL    HW2 1431   0.392   0.165   0.928  2.0242 -1.0732 -1.2849
  358SOL     MW 1432   0.414   0.155   1.008  0.7316 -0.0296  0.2745
  359SOL     OW 1433   0.975   2.832   1.824  0.4425  0.6659 -0.2658
  359SOL    HW1 1434   0.992   2.754   1.870 -3.3216  3.6330 -0.3521
  359SOL    HW2 1435   0.989   2.799   1.733  1.5958 -1.6157  0.9385
  359SOL     MW 1436   0.979   2.818   1.818  0.0981  0.7564 -0.1183
  360SOL     OW 1437   0.621   2.785   0.994  0.3916 -0.1381  0.6524
  360SOL    HW1 1438   0.640   2.737   0.913  0.3316  2.8138 -2.7501
  360SOL    HW2 1439   0.607   2.708   1.055  1.7602  1.9414  0.9589
  360SOL     MW 1440   0.622   2.768   0.991  0.5643  0.5258  0.2439
  361SOL     OW 1441   0.177   2.724   1.372  0.2811 -0.3818  0.0748
  361SOL    HW1 1442   0.148   2.809   1.402 -3.6077  0.8293 -1.6675
  361SOL    HW2 1443   0.274   2.726   1.373 -2.0980 -0.9409 -3.0773
  361SOL     MW 1444   0.186   2.735   1.376 -0.5459 -0.2958 -0.5709
  362SOL     OW 1445   1.501   2.431   0.597 -0.0898 -0.1347  0.3557
  362SOL    HW1 1446   1.539   2.379   0.665 -0.4991 -0.0309  1.3855
  362SOL    HW2 1447   1.488   2.513   0.642  3.0395 -1.3803 -2.0789
  362SOL     MW 1448   1.504   2.435   0.612  0.2690 -0.2854  0.1703
  363SOL     OW 1449   0.237   3.048   0.748  0.3103  0.1818  0.0734
  363SOL    HW1 1450   0.235   2.980   0.817  1.0928  0.3172 -2.7580
  363SOL    HW2 1451   0.157   3.035   0.691 -1.3483  0.9744  0.1012
  363SOL     MW 1452   0.226   3.038   0.750  0.1947  0.3042 -0.2965
  364SOL     OW 1453   0.679   0.177   0.183  0.1068 -0.2394  0.5994
  364SOL    HW1 1454   0.666   0.087   0.153 -0.5048 -0.3589  1.9855
  364SOL    HW2 1455   0.591   0.210   0.175 -2.5396  3.2766  0.8579
  364SOL     MW 1456   0.666   0.170   0.178 -0.3231  0.2087  0.8164
  365SOL     OW 1457   0.954   1.968   1.118 -0.0572  0.1003  0.0238
  365SOL    HW1 1458   0.921   2.050   1.079 -1.0485  1.2730 -1.2470
  365SOL    HW2 1459   0.912   1.896   1.068  1.4402  1.7925  1.9900
  365SOL     MW 1460   0.944   1.969   1.106  0.0095  0.4783  0.1155
  366SOL     OW 1461   2.863   2.663   0.989  0.1819 -0.3371  0.3075
  366SOL    HW1 1462   2.933   2.653   1.053 -4.1586 -0.4077 -0.5767
  366SOL    HW2 1463   2.914   2.673   0.906 -0.4289 -0.6979  3.1769
  366SOL     MW 1464   2.879   2.663   0.986 -0.4714 -0.3940  0.5694
  367SOL     OW 1465   1.275   2.849   0.880  0.0464 -0.3837  0.4952
  367SOL    HW1 1466   1.189   2.889   0.904  1.4211 -1.5901 -1.9043
  367SOL    HW2 1467   1.250   2.780   0.809  0.5332 -1.3980  0.2022
  367SOL     MW 1468   1.260   2.845   0.874  0.2920 -0.6767  0.1400
  368SOL     OW 1469   1.659   0.465   0.659 -0.4703  0.2497  0.0309
  368SOL    HW1 1470   1.716   0.404   0.617 -0.8839 -0.3876  0.7082
  368SOL    HW2 1471   1.707   0.546   0.638  2.6859  0.3115  0.0480
  368SOL     MW 1472   1.673   0.467   0.651 -0.1084  0.1738  0.1225
  369SOL     OW 1473   0.123   2.471   1.737 -0.4689 -0.3446  0.3294
  369SOL    HW1 1474   0.217   2.443   1.752 -0.6679  0.4385 -1.8058
  369SOL    HW2 1475   0.119   2.558   1.764 -2.6794  0.5203 -1.7686
  369SOL     MW 1476   0.135   2.479   1.742 -0.7868 -0.1272 -0.2292
  370SOL     OW 1477   0.675   0.108   0.972  0.5130 -0.1845  0.1115
  370SOL    HW1 1478   0.739   0.180   0.954 -1.2440  1.0987  0.8441
  370SOL    HW2 1479   0.734   0.035   0.999  1.1069 -0.0721 -0.6349
  370SOL     MW 1480   0.691   0.108   0.973  0.3596 -0.0004  0.1097
  371SOL     OW 1481   1.312   2.976   1.493  0.0494 -0.3600 -0.4059
  371SOL    HW1 1482   1.235   2.919   1.463 -2.4576  0.1912 -1.4200
  371SOL    HW2 1483   1.332   3.040   1.419 -0.2811 -0.9866 -0.6540
  371SOL     MW 1484   1.305   2.977   1.479 -0.3250 -0.3700 -0.5724
  372SOL     OW 1485   0.821   2.266   0.504  0.0288 -0.1242  0.1353
  372SOL    HW1 1486   0.808   2.168   0.509 -1.3969 -0.7502  0.7488
  372SOL    HW2 1487   0.821   2.275   0.408 -1.8456  1.7454  0.6617
  372SOL     MW 1488   0.819   2.254   0.492 -0.4066  0.0399  0.2857
  373SOL     OW 1489   2.877   3.021   1.424  0.3246 -0.2389 -0.2069
  373SOL    HW1 1490   2.941   2.980   1.365 -0.8574 -0.2221  1.0847
  373SOL    HW2 1491   2.852   3.111   1.390  1.0465 -0.0172 -1.6249
  373SOL     MW 1492   2.882   3.028   1.412  0.2639 -0.2075 -0.2236
  374SOL     OW 1493   1.500   0.536   0.252  0.1418  0.8589 -0.0788
  374SOL    HW1 1494   1.587   0.554   0.296  1.7740  0.6425  5.4651
  374SOL    HW2 1495   1.472   0.481   0.330  1.6540  1.0307 -0.6506
  374SOL     MW 1496   1.508   0.531   0.268  0.5566  0.8530  0.5772
  375SOL     OW 1497   1.154   2.107   2.287 -0.0766  0.3380  0.9062
  375SOL    HW1 1498   1.123   2.118   2.381  1.0232 -1.0405 -0.7622
  375SOL    HW2 1499   1.139   2.012   2.268  0.3268  0.0530  0.2109
  375SOL     MW 1500   1.148   2.096   2.297  0.1217  0.1185  0.5943
  376SOL     OW 1501   0.643   2.537   0.123  0.1470 -0.2368 -0.4670
  376SOL    HW1 1502   0.718   2.513   0.181  1.9417 -0.7806  1.9307
  376SOL    HW2 1503   0.639   2.484   0.043  1.3399 -2.8964  1.9474
  376SOL     MW 1504   0.652   2.527   0.120  0.5412 -0.6595  0.1679
  377SOL     OW 1505   1.255   2.027   0.889  0.7993 -0.2017 -0.6087
  377SOL    HW1 1506   1.195   1.979   0.830  0.9536  0.3099 -0.3800
  377SOL    HW2 1507   1.245   1.977   0.975  1.5534 -0.3042 -0.4775
  377SOL     MW 1508   1.245   2.014   0.892  0.9191 -0.1478 -0.5612
  378SOL     OW 1509   1.000   2.797   1.557  0.3468 -0.3894  0.5580
  378SOL    HW1 1510   0.932   2.724   1.577  1.3172 -1.0112 -0.3359
  378SOL    HW2 1511   0.963   2.843   1.479  0.7774 -0.1002 -0.7029
  378SOL     MW 1512   0.986   2.794   1.550  0.5317 -0.4333  0.2737
  379SOL     OW 1513   1.085   1.829   2.277  0.3062 -0.3810  0.0178
  379SOL    HW1 1514   0.988   1.841   2.284 -1.7600 -2.5027 -3.1398
  379SOL    HW2 1515   1.082   1.743   2.230  1.0333  0.9317 -0.3478
  379SOL     MW 1516   1.072   1.819   2.271  0.1295 -0.4877 -0.4471
  380SOL     OW 1517   0.879   0.188   1.516 -0.1161 -0.5517 -0.0222
  380SOL    HW1 1518   0.933   0.151   1.442 -1.9359 -2.5059  1.1932
  380SOL    HW2 1519   0.950   0.194   1.587 -2.5457 -0.0576  0.6785
  380SOL     MW 1520   0.896   0.184   1.515 -0.6767 -0.7443  0.2306
  381SOL     OW 1521   0.796   2.000   0.796 -0.4464 -0.5059 -0.1637
  381SOL    HW1 1522   0.888   1.994   0.764 -1.7567  0.4307 -1.3743
  381SOL    HW2 1523   0.795   2.079   0.855 -1.5086 -1.0650 -1.3635
  381SOL     MW 1524   0.808   2.009   0.800 -0.7594 -0.4561 -0.4817
  382SOL     OW 1525   0.744   0.007   0.706 -0.1974  0.0847 -0.3204
  382SOL    HW1 1526   0.719   0.039   0.795  1.4032 -0.9058  1.3331
  382SOL    HW2 1527   0.682  -0.064   0.681 -2.0433 -1.5790  0.9320
  382SOL     MW 1528   0.733   0.002   0.714 -0.2297 -0.2655  0.0630
  383SOL     OW 1529   0.475   0.052   0.383 -0.0911 -0.0341  0.1894
  383SOL    HW1 1530   0.533  -0.015   0.347 -1.4826  3.4328  0.0756
  383SOL    HW2 1531   0.391   0.006   0.384 -2.4239  0.3146 -1.3675
  383SOL     MW 1532   0.472   0.037   0.378 -0.5825  0.4694 -0.0310
  384SOL     OW 1533   0.598   2.897   0.587  0.6268  0.2172  0.5833
  384SOL    HW1 1534   0.623   2.835   0.653 -0.3413  3.8935 -1.1418
  384SOL    HW2 1535   0.504   2.885   0.590 -0.6196  0.3284  0.8216
  384SOL     MW 1536   0.589   2.887   0.596  0.3346  0.7169  0.3871
  385SOL     OW 1537   1.315   2.071   1.561 -0.2188 -0.3830 -0.2527
  385SOL    HW1 1538   1.392   2.089   1.624  0.0365  1.3873  2.6977
  385SOL    HW2 1539   1.278   1.981   1.586  0.6706 -0.3710 -0.1905
  385SOL     MW 1540   1.320   2.061   1.573 -0.0678 -0.1478  0.1447
  386SOL     OW 1541   1.365   0.401   0.877 -0.2126 -0.6057 -0.9923
  386SOL    HW1 1542   1.274   0.426   0.863  1.6804 -0.7971 -2.5679
  386SOL    HW2 1543   1.379   0.393   0.971 -0.0082  1.9341 -2.4779
  386SOL     MW 1544   1.355   0.403   0.887  0.0642 -0.2958 -1.3962
  387SOL     OW 1545   0.833   2.182   1.483 -0.1000 -0.3183 -0.4823
  387SOL    HW1 1546   0.893   2.244   1.447 -3.0652 -1.1891  3.2825
  387SOL    HW2 1547   0.877   2.098   1.462 -1.3251  2.3836 -0.1282
  387SOL     MW 1548   0.847   2.179   1.475 -0.6529 -0.0767  0.0612
  388SOL     OW 1549   1.491   2.804   1.205 -0.4394  0.0751 -0.1117
  388SOL    HW1 1550   1.428   2.749   1.159  0.1171  0.4426 -1.0595
  388SOL    HW2 1551   1.575   2.786   1.167  1.2552  2.0237  0.2425
  388SOL     MW 1552   1.494   2.795   1.194 -0.1424  0.3807 -0.1900
  389SOL     OW 1553   0.377   0.179   3.102  0.0228 -0.3798  0.4627
  389SOL    HW1 1554   0.410   0.134   3.026 -0.4020 -1.7511 -0.2805
  389SOL    HW2 1555   0.286   0.197   3.077 -4.0456 -1.6149 -0.9602
  389SOL     MW 1556   0.369   0.175   3.089 -0.5700 -0.7237  0.1769
  390SOL     OW 1557   1.353   0.040   0.619  0.0989 -0.5646  0.4120
  390SOL    HW1 1558   1.442   0.065   0.600  1.1789 -0.1470 -1.1233
  390SOL    HW2 1559   1.339   0.040   0.716 -1.6191 -0.4075  0.6147
  390SOL     MW 1560   1.363   0.043   0.629  0.0147 -0.4887  0.2361
  391SOL     OW 1561   0.301   2.278   1.468  0.0873  0.2882  0.1517
  391SOL    HW1 1562   0.241   2.209   1.493 -0.2195  0.3969  0.7896
  391SOL    HW2 1563   0.234   2.338   1.442  2.0188 -0.6142 -0.2796
  391SOL     MW 1564   0.285   2.277   1.468  0.3017  0.1835  0.1790
  392SOL     OW 1565   1.990   2.193   0.334  0.0600  0.5888  0.0558
  392SOL    HW1 1566   1.920   2.225   0.397 -0.4426  0.4481  0.3840
  392SOL    HW2 1567   2.070   2.186   0.386 -0.2002 -1.1844  0.4758
  392SOL     MW 1568   1.991   2.196   0.349 -0.0407  0.3363  0.1545
  393SOL     OW 1569   0.245   3.001   2.834 -0.5004 -0.2803 -0.7469
  393SOL    HW1 1570   0.318   3.058   2.813  2.7633  2.0005 -0.5747
  393SOL    HW2 1571   0.165   3.034   2.790 -1.9264  0.3549 -0.7061
  393SOL     MW 1572   0.244   3.013   2.825 -0.2579  0.1044 -0.7188
  394SOL     OW 1573   0.833   1.638   1.426  0.0419  0.0708  0.4111
  394SOL    HW1 1574   0.792   1.635   1.514  3.1814  1.6033  0.4854
  394SOL    HW2 1575   0.873   1.730   1.420  0.5496  0.2535  1.9078
  394SOL     MW 1576   0.833   1.650   1.437  0.5231  0.2971  0.6184
  395SOL     OW 1577   0.927   2.881   2.608 -0.2143  0.4953  0.4003
  395SOL    HW1 1578   0.959   2.954   2.658  1.4932 -0.9758  1.7460
  395SOL    HW2 1579   1.018   2.838   2.591 -0.0230  2.1865 -1.4189
  395SOL     MW 1580   0.943   2.885   2.612  0.0362  0.5243  0.3378
  396SOL     OW 1581   0.781   1.849   2.397  0.8010 -0.3149  0.6233
  396SOL    HW1 1582   0.825   1.854   2.482 -0.9013  0.2815  2.3710
  396SOL    HW2 1583   0.730   1.770   2.412 -0.1960 -1.0867 -1.5535
  396SOL     MW 1584   0.780   1.839   2.410  0.4449 -0.3380  0.5667
  397SOL     OW 1585   1.012   2.332   1.347  0.3000 -0.1578  0.2525
  397SOL    HW1 1586   1.039   2.392   1.273 -0.8592  1.5677 -0.5922
  397SOL    HW2 1587   1.071   2.340   1.419  1.2077  3.1649 -0.6173
  397SOL     MW 1588   1.023   2.341   1.347  0.2668  0.5082  0.0263
  398SOL     OW 1589   0.683   2.671   0.725  0.3805  0.1642  0.3145
  398SOL    HW1 1590   0.614   2.611   0.686  1.0007 -0.3653 -1.9145
  398SOL    HW2 1591   0.758   2.619   0.698  0.1852 -4.5530 -0.8802
  398SOL     MW 1592   0.684   2.656   0.717  0.4366 -0.5280 -0.1372
  399SOL     OW 1593   0.271   2.009   0.385  0.1228 -0.4694  0.6270
  399SOL    HW1 1594   0.193   2.066   0.389 -1.7814 -0.9650  0.3125
  399SOL    HW2 1595   0.324   2.026   0.300  0.5913  0.3776 -0.2835
  399SOL     MW 1596   0.268   2.018   0.374 -0.0666 -0.4230  0.4654
  400SOL     OW 1597   0.607   1.842   0.144 -0.3182 -0.1203 -0.1424
  400SOL    HW1 1598   0.577   1.932   0.145 -1.2771 -1.0659  1.2961
  400SOL    HW2 1599   0.561   1.796   0.212  0.3312  0.0537 -0.9276
  400SOL     MW 1600   0.597   1.848   0.153 -0.3590 -0.2221 -0.0562
  401SOL     OW 1601   0.962   2.080   0.164 -0.6337 -0.2676  0.6279
  401SOL    HW1 1602   0.969   1.988   0.128 -2.5343  1.9188  1.7066
  401SOL    HW2 1603   1.035   2.084   0.225  1.2223  0.2161  1.8087
  401SOL     MW 1604   0.972   2.068   0.167 -0.6396  0.0847  0.9260
  402SOL     OW 1605   0.716   2.903   1.718 -0.3235  0.8250 -0.3634
  402SOL    HW1 1606   0.660   2.858   1.782 -1.9342 -1.3355  0.5043
  402SOL    HW2 1607   0.807   2.890   1.747 -1.7815 -2.3446 -0.8273
  402SOL     MW 1608   0.721   2.895   1.730 -0.7284  0.1217 -0.3102
  403SOL     OW 1609   0.059   0.483   0.437  0.2428 -0.9819 -0.1697
  403SOL    HW1 1610   0.153   0.489   0.468 -1.3037  0.2620  0.0698
  403SOL    HW2 1611   0.069   0.438   0.349 -0.4049 -0.3395  1.9783
  403SOL     MW 1612   0.073   0.478   0.429 -0.0467 -0.7330  0.1453
  404SOL     OW 1613   1.001   2.893   0.801  0.2369  0.0998  0.1684
  404SOL    HW1 1614   1.055   2.829   0.748  1.1298 -1.3557 -1.2815
  404SOL    HW2 1615   1.024   2.978   0.757  0.7326 -1.9251  0.2965
  404SOL     MW 1616   1.011   2.895   0.788  0.4201 -0.3594 -0.0060
  405SOL     OW 1617   0.485   2.478   1.554  0.1364  0.0157  0.0327
  405SOL    HW1 1618   0.442   2.555   1.505 -0.7500 -0.9494  0.9921
  405SOL    HW2 1619   0.433   2.411   1.521  0.5980  0.2568 -1.0313
  405SOL     MW 1620   0.473   2.479   1.543  0.0803 -0.0798  0.0189
  406SOL     OW 1621   0.410   2.341   1.135 -0.2734 -1.0452 -0.1522
  406SOL    HW1 1622   0.314   2.363   1.116  1.0558  2.2769 -2.2567
  406SOL    HW2 1623   0.401   2.265   1.189  0.3870  0.4961 -2.1005
  406SOL     MW 1624   0.396   2.334   1.140 -0.0109 -0.4035 -0.6869
  407SOL     OW 1625   0.041   2.708   1.106  0.3674  0.2868  0.1704
  407SOL    HW1 1626   0.096   2.684   1.180 -1.2862  0.7134 -0.9491
  407SOL    HW2 1627   0.110   2.730   1.032 -0.0958  0.8558 -1.0113
  407SOL     MW 1628   0.057   2.708   1.106  0.0881  0.4182 -0.1332
  408SOL     OW 1629   2.133   2.111   0.610 -0.3821 -0.4608  0.7326
  408SOL    HW1 1630   2.102   2.154   0.692  0.5730 -2.7749 -1.7738
  408SOL    HW2 1631   2.054   2.056   0.581 -0.0666  0.1964  0.4104
  408SOL     MW 1632   2.119   2.109   0.617 -0.2144 -0.6794  0.3594
  409SOL     OW 1633   1.314   0.065   0.891 -0.0290 -0.3382  0.1378
  409SOL    HW1 1634   1.356   0.151   0.874 -1.2439 -2.3085 -2.2893
  409SOL    HW2 1635   1.370   0.010   0.950 -0.1597  0.5919  0.4706
  409SOL     MW 1636   1.327   0.069   0.896 -0.2065 -0.4755 -0.1385
  410SOL     OW 1637   1.085   2.521   1.075 -0.0570 -0.1983  0.4748
  410SOL    HW1 1638   1.023   2.501   0.999  1.0097 -0.7467 -1.7530
  410SOL    HW2 1639   1.142   2.440   1.066  0.2734  0.9683  0.1719
  410SOL     MW 1640   1.084   2.508   1.064  0.1274 -0.1167  0.1409
  411SOL     OW 1641   1.964   0.112   2.824 -0.0722 -0.0943 -0.4652
  411SOL    HW1 1642   1.908   0.057   2.773 -0.4725 -0.0365  1.4357
  411SOL    HW2 1643   1.912   0.130   2.908 -2.6512 -0.1061  2.0717
  411SOL     MW 1644   1.950   0.107   2.829 -0.4653 -0.0882  0.1203
  412SOL     OW 1645   1.105   2.199   0.575  0.2602 -0.1440  0.0152
  412SOL    HW1 1646   1.142   2.276   0.623  0.2205  2.2479 -1.7491
  412SOL    HW2 1647   1.015   2.223   0.564 -2.1441 -2.3850  3.7197
  412SOL     MW 1648   1.098   2.213   0.580 -0.0622 -0.1241  0.2712
  413SOL     OW 1649   0.546   2.792   0.141 -0.0174  0.1812 -0.6588
  413SOL    HW1 1650   0.584   2.702   0.129  2.6655 -0.4872 -1.1312
  413SOL    HW2 1651   0.550   2.825   0.053 -2.8347 -3.2829 -2.5249
  413SOL     MW 1652   0.552   2.784   0.128 -0.0351 -0.3641 -0.9674
  414SOL     OW 1653   1.972   3.073   1.080  0.0567  0.1156 -0.0075
  414SOL    HW1 1654   1.922   3.044   1.001 -0.6190  0.9946 -0.1898
  414SOL    HW2 1655   2.042   3.009   1.091 -0.8163  1.4268 -1.1819
  414SOL     MW 1656   1.975   3.061   1.071 -0.1477  0.4046 -0.1865
  415SOL     OW 1657   1.721   2.665   1.050  0.0042  0.1417  0.3620
  415SOL    HW1 1658   1.682   2.604   1.119  1.5578 -3.9736  0.2441
  415SOL    HW2 1659   1.791   2.702   1.098  2.5047 -0.0797 -1.6896
  415SOL     MW 1660   1.725   2.662   1.066  0.5391 -0.4305  0.0758
  416SOL     OW 1661   0.619   1.915   1.388 -0.6844 -0.0171  0.1785
  416SOL    HW1 1662   0.576   2.002   1.385  0.5794  1.8796 -0.0775
  416SOL    HW2 1663   0.603   1.881   1.296 -0.1541 -0.7068  0.7927
  416SOL     MW 1664   0.611   1.922   1.375 -0.4477  0.1421  0.2258
  417SOL     OW 1665   1.021   3.047   2.006 -0.5343 -0.2314  0.6051
  417SOL    HW1 1666   0.950   3.013   2.063  1.6725 -0.6183  1.5835
  417SOL    HW2 1667   1.004   2.985   1.937  0.3711  1.0721  0.6700
  417SOL     MW 1668   1.009   3.034   2.005 -0.1237 -0.1104  0.7428
  418SOL     OW 1669   0.713   2.998   0.216 -0.0263 -0.1555 -0.1802
  418SOL    HW1 1670   0.785   2.989   0.153  0.8379 -2.1556 -0.7541
  418SOL    HW2 1671   0.653   2.931   0.182  1.0912  1.1421  0.1871
  418SOL     MW 1672   0.715   2.988   0.203  0.2351 -0.2482 -0.2075
  419SOL     OW 1673   0.446   2.695   1.370  0.0905 -0.3634  0.1689
  419SOL    HW1 1674   0.512   2.746   1.412  1.1660  0.3690 -0.9684
  419SOL    HW2 1675   0.485   2.655   1.292  1.1104  1.5935 -0.4694
  419SOL     MW 1676   0.460   2.696   1.365  0.3669 -0.0086 -0.0654
  420SOL     OW 1677   0.823   2.191   1.001 -0.8008  0.4845  0.1745
  420SOL    HW1 1678   0.782   2.226   1.079 -0.2007  1.9909 -0.8759
  420SOL    HW2 1679   0.857   2.273   0.964 -0.5632 -1.0912 -2.8407
  420SOL     MW 1680   0.822   2.207   1.007 -0.6903  0.4754 -0.3619
  421SOL     OW 1681   2.946   0.074   0.021 -0.2719 -0.7772  0.4313
  421SOL    HW1 1682   2.924   0.033  -0.060 -0.2185  2.7363 -1.8614
  421SOL    HW2 1683   2.946   0.008   0.090 -0.5406 -0.5415 -3.6039
  421SOL     MW 1684   2.943   0.060   0.019 -0.3003 -0.2825 -0.4036
  422SOL     OW 1685   0.897   2.435   0.902 -0.3413 -0.2406  0.6326
  422SOL    HW1 1686   0.829   2.496   0.926 -0.8474 -1.8142  1.1925
  422SOL    HW2 1687   0.904   2.433   0.809  1.6261  0.7497  0.6615
  422SOL     MW 1688   0.889   2.443   0.893 -0.1485 -0.3176  0.7103
  423SOL     OW 1689   1.571   0.170   0.494 -0.3409 -0.1843 -0.0873
  423SOL    HW1 1690   1.557   0.160   0.399  0.3388 -1.9687  0.6819
  423SOL    HW2 1691   1.553   0.260   0.520 -2.0636 -0.9394  0.6648
  423SOL     MW 1692   1.567   0.181   0.485 -0.4785 -0.5194  0.1134
  424SOL     OW 1693   0.714   2.237   1.248 -0.4051  0.5269  0.0659
  424SOL    HW1 1694   0.630   2.189   1.242 -1.7104 -2.2194 -4.0313
  424SOL    HW2 1695   0.746   2.228   1.341 -1.8309  1.1978 -1.1914
  424SOL     MW 1696   0.707   2.230   1.259 -0.7654  0.2531 -0.6405
  425SOL     OW 1697   1.758   2.853   1.983 -0.0420 -0.4921 -0.6305
  425SOL    HW1 1698   1.753   2.855   1.889 -0.1719  0.5736  1.0185
  425SOL    HW2 1699   1.779   2.761   2.005  3.4023 -0.0241 -1.0995
  425SOL     MW 1700   1.760   2.841   1.973  0.3953 -0.2897 -0.4748
  426SOL     OW 1701   0.767   1.654   1.932  0.0826  0.8087  0.5922
  426SOL    HW1 1702   0.727   1.666   1.848 -0.1569  1.8446  0.0104
  426SOL    HW2 1703   0.739   1.727   1.986 -0.3192  2.5713  0.7816
  426SOL     MW 1704   0.758   1.666   1.928 -0.0021  1.1779  0.5404
  427SOL     OW 1705   0.391   1.577   1.876 -0.4079  0.0414  0.3541
  427SOL    HW1 1706   0.413   1.608   1.958 -2.0351 -0.5579  1.0720
  427SOL    HW2 1707   0.305   1.540   1.880  0.7978 -1.8294  1.8400
  427SOL     MW 1708   0.383   1.576   1.887 -0.4635 -0.2845  0.6449
  428SOL     OW 1709   0.564   2.580   1.146 -0.4604 -0.2155 -0.0656
  428SOL    HW1 1710   0.650   2.568   1.186  0.0389 -3.2842 -0.6389
  428SOL    HW2 1711   0.521   2.497   1.175  0.0211 -1.7579  3.1036
  428SOL     MW 1712   0.570   2.567   1.155 -0.3310 -0.8238  0.2769
  429SOL     OW 1713   1.319   2.639   1.047 -0.1746  0.1807  0.6835
  429SOL    HW1 1714   1.228   2.613   1.057  1.4310 -3.0124 -0.4016
  429SOL    HW2 1715   1.317   2.727   1.002 -0.1172 -0.3967 -0.1392
  429SOL     MW 1716   1.307   2.647   1.042  0.0448 -0.3168  0.4318
  430SOL     OW 1717   1.164   2.706   0.659 -0.2594 -0.6002 -0.2429
  430SOL    HW1 1718   1.203   2.623   0.685 -1.1458  0.8394  0.7708
  430SOL    HW2 1719   1.098   2.696   0.586  0.1782  1.1001 -0.9675
  430SOL     MW 1720   1.161   2.693   0.653 -0.3186 -0.1859 -0.2048
  431SOL     OW 1721   0.312   1.962   1.146  0.3209  0.0288 -0.5607
  431SOL    HW1 1722   0.379   1.896   1.131 -1.3035  2.1259  4.0185
  431SOL    HW2 1723   0.316   2.012   1.064  1.2791 -0.8031 -1.2708
  431SOL     MW 1724   0.321   1.960   1.134  0.2330  0.1958 -0.0502
  432SOL     OW 1725   0.047   0.051   1.151 -0.3479  0.1340  0.4689
  432SOL    HW1 1726   0.057   0.104   1.235 -1.3510  1.0097 -2.8904
  432SOL    HW2 1727  -0.028  -0.004   1.175 -3.8913  3.3290 -0.3580
  432SOL     MW 1728   0.039   0.051   1.166 -0.9478  0.6711 -0.0835
  433SOL     OW 1729   0.647   2.866   1.460 -0.9263 -0.1783 -0.1880
  433SOL    HW1 1730   0.673   2.886   1.555 -1.9546  2.1116 -1.8038
  433SOL    HW2 1731   0.712   2.915   1.406 -1.5944  1.0097 -3.7897
  433SOL     MW 1732   0.659   2.875   1.465 -1.1501  0.2806 -0.8764
  434SOL     OW 1733   1.554   2.820   1.520 -0.1265  0.2163  1.0682
  434SOL    HW1 1734   1.466   2.843   1.546 -0.8014  0.0459  1.3740
  434SOL    HW2 1735   1.540   2.817   1.422 -0.5621 -2.1197 -0.1933
  434SOL     MW 1736   1.541   2.823   1.511 -0.2730 -0.1144  0.9421
  435SOL     OW 1737   2.868   1.790   0.229  0.2997  0.1658 -0.0824
  435SOL    HW1 1738   2.928   1.859   0.188  0.3187  0.1505 -2.1201
  435SOL    HW2 1739   2.827   1.736   0.146 -0.3146 -2.2693 -0.9675
  435SOL     MW 1740   2.871   1.792   0.213  0.2212 -0.1575 -0.4680
  436SOL     OW 1741   1.404   2.760   0.311  0.3698  0.4005  0.1738
  436SOL    HW1 1742   1.465   2.743   0.382  1.1828 -0.1787  0.4248
  436SOL    HW2 1743   1.342   2.835   0.340 -1.2191  1.0547 -1.7471
  436SOL     MW 1744   1.404   2.768   0.324  0.2674  0.4104 -0.0465
  437SOL     OW 1745   0.885   2.941   1.331 -0.1533 -0.0624  0.8169
  437SOL    HW1 1746   0.920   3.031   1.315  2.1250  0.0117  1.8099
  437SOL    HW2 1747   0.894   2.902   1.246  2.7394  0.4682  0.5308
  437SOL     MW 1748   0.891   2.948   1.318  0.5289  0.0174  0.9102
  438SOL     OW 1749   0.864   2.597   2.000  0.5439  0.0480  0.0981
  438SOL    HW1 1750   0.856   2.533   2.066 -0.3268  2.7822 -0.1426
  438SOL    HW2 1751   0.798   2.571   1.933  0.2309  3.5882 -0.2550
  438SOL     MW 1752   0.854   2.585   2.000  0.3877  0.8758  0.0198
  439SOL     OW 1753   1.169   2.172   0.319  0.2336 -0.0975  0.4009
  439SOL    HW1 1754   1.143   2.190   0.418 -1.0803  1.9580  1.0134
  439SOL    HW2 1755   1.148   2.258   0.282  2.1268  0.1125  0.6420
  439SOL     MW 1756   1.163   2.186   0.327  0.3100  0.2014  0.5135
  440SOL     OW 1757   1.626   2.971   3.013 -0.5451  0.0911  0.3163
  440SOL    HW1 1758   1.596   2.952   3.101  0.5745  0.2833 -1.0986
  440SOL    HW2 1759   1.669   2.894   2.980 -0.6542 -0.0835 -2.3997
  440SOL     MW 1760   1.627   2.958   3.020 -0.4118  0.0934 -0.2287
  441SOL     OW 1761   0.309   2.563   0.531  0.0342 -0.1569  0.0332
  441SOL    HW1 1762   0.298   2.563   0.430 -0.5034  0.3113  0.7977
  441SOL    HW2 1763   0.354   2.647   0.560 -0.2766  2.4616 -2.5038
  441SOL     MW 1764   0.313   2.574   0.522 -0.0777  0.2503 -0.2007
  442SOL     OW 1765   0.008   2.323   0.623  0.0252 -0.6482 -0.4122
  442SOL    HW1 1766   0.015   2.417   0.619 -2.5762 -1.6945 -0.8140
  442SOL    HW2 1767  -0.082   2.303   0.651  0.2951  1.3739 -3.3396
  442SOL     MW 1768  -0.003   2.333   0.626 -0.2824 -0.5194 -0.8514
  443SOL     OW 1769   1.347   1.711   1.821  0.8689  0.5120  0.1194
  443SOL    HW1 1770   1.322   1.736   1.732 -0.5622  2.1120 -3.1059
  443SOL    HW2 1771   1.288   1.636   1.846  2.0501  1.2832  3.1773
  443SOL     MW 1772   1.336   1.704   1.813  0.8359  0.8249  0.0973
  444SOL     OW 1773   0.827   2.569   1.594  0.2705  0.1471  0.0118
  444SOL    HW1 1774   0.908   2.555   1.641  2.1504 -3.0121 -1.4332
  444SOL    HW2 1775   0.754   2.553   1.649 -1.6015  2.5550  1.2854
  444SOL     MW 1776   0.828   2.565   1.608  0.2716  0.0480 -0.0108
  445SOL     OW 1777   0.983   0.087   1.286  0.0791 -0.0315 -0.3340
  445SOL    HW1 1778   0.937   0.167   1.260  2.2304 -0.4533  0.9327
  445SOL    HW2 1779   1.041   0.066   1.209 -0.3683  1.0022 -2.3703
  445SOL     MW 1780   0.984   0.095   1.272  0.3039  0.0492 -0.4356
  446SOL     OW 1781   2.768   2.918   1.009 -0.4780 -0.8031 -0.1319
  446SOL    HW1 1782   2.683   2.927   0.960 -1.3242  0.0303 -0.3164
  446SOL    HW2 1783   2.787   2.820   1.001 -1.2289 -0.5347  0.0166
  446SOL     MW 1784   2.760   2.907   1.002 -0.6887 -0.6577 -0.1367
  447SOL     OW 1785   3.036   2.051   1.769  0.5829  0.2377 -0.0008
  447SOL    HW1 1786   3.107   1.983   1.790 -1.1746 -0.0691 -0.2080
  447SOL    HW2 1787   2.996   2.007   1.693  1.8587 -0.4194  0.3448
  447SOL     MW 1788   3.040   2.036   1.762  0.5194  0.1105  0.0175
  448SOL     OW 1789   1.691   2.333   1.652 -0.2304  0.2580  0.2809
  448SOL    HW1 1790   1.627   2.263   1.683  0.2391 -1.1434 -2.5589
  448SOL    HW2 1791   1.641   2.420   1.638 -2.9755  1.4901 -1.9605
  448SOL     MW 1792   1.676   2.335   1.655 -0.5306  0.2357 -0.3896
  449SOL     OW 1793   0.823   2.919   0.452 -0.1501  0.1120  0.7183
  449SOL    HW1 1794   0.784   2.935   0.365  0.1024  1.3646  0.8474
  449SOL    HW2 1795   0.752   2.889   0.508  0.4167 -0.6701 -1.7873
  449SOL     MW 1796   0.809   2.917   0.448 -0.0420  0.1741  0.4047
  450SOL     OW 1797   1.215   2.409   0.699 -0.3070 -0.0186 -0.0797
  450SOL    HW1 1798   1.228   2.379   0.791  3.8666  1.8508 -2.7405
  450SOL    HW2 1799   1.301   2.396   0.660 -1.4238 -0.2672  0.6259
  450SOL     MW 1800   1.228   2.403   0.706  0.0964  0.1952 -0.3377
  451SOL     OW 1801   0.603   1.992   1.668 -0.0813  1.0008 -0.2629
  451SOL    HW1 1802   0.659   2.063   1.704  1.1549 -2.7698 -1.2372
  451SOL    HW2 1803   0.614   1.991   1.573  0.6678 -0.3145 -0.6322
  451SOL     MW 1804   0.612   2.001   1.660  0.1807  0.3298 -0.4401
  452SOL     OW 1805   0.289   2.741   0.155 -0.6014  0.5661 -0.1012
  452SOL    HW1 1806   0.377   2.776   0.161  0.2953  1.6343 -0.3151
  452SOL    HW2 1807   0.290   2.706   0.067 -1.5033  0.7754  2.5831
  452SOL     MW 1808   0.301   2.741   0.144 -0.6021  0.7346  0.2247
  453SOL     OW 1809   0.383   2.991   1.664 -0.2222  0.4556  0.3498
  453SOL    HW1 1810   0.452   3.012   1.601  1.8401  1.8518  0.7963
  453SOL    HW2 1811   0.315   2.996   1.603  1.8529 -1.5179 -0.8368
  453SOL     MW 1812   0.383   2.994   1.648  0.3237  0.3794  0.2522
  454SOL     OW 1813   1.090   2.794   1.095  0.0719 -0.0020 -0.7983
  454SOL    HW1 1814   1.046   2.706   1.108 -0.1772 -1.0881  1.1714
  454SOL    HW2 1815   1.026   2.837   1.040 -2.2300  2.2085  0.6352
  454SOL     MW 1816   1.076   2.788   1.090 -0.2647  0.1463 -0.3493
  455SOL     OW 1817   1.566   2.943   0.182 -0.8117  0.0603  0.4376
  455SOL    HW1 1818   1.634   2.928   0.241 -1.2593 -0.1428 -0.8563
  455SOL    HW2 1819   1.492   2.893   0.219 -1.1619  0.4604  0.1910
  455SOL     MW 1820   1.565   2.934   0.194 -0.9169  0.0863  0.2343
  456SOL     OW 1821   2.961   0.339   1.391  0.0731  0.7299  0.1650
  456SOL    HW1 1822   2.919   0.254   1.365 -2.1748 -0.1613 -4.6950
  456SOL    HW2 1823   3.036   0.366   1.321  0.3837 -0.6722 -1.0793
  456SOL     MW 1824   2.966   0.331   1.379 -0.1825  0.4273 -0.6404
  457SOL     OW 1825   0.833   1.541   3.002 -0.2507 -0.3304  0.0689
  457SOL    HW1 1826   0.763   1.522   3.066 -1.4432 -2.3622  0.7207
  457SOL    HW2 1827   0.912   1.523   3.042 -2.4360  2.9611  1.8416
  457SOL     MW 1828   0.834   1.536   3.016 -0.6964 -0.1642  0.3888
  458SOL     OW 1829   1.433   1.398   0.632  0.1407 -0.0897  0.4676
  458SOL    HW1 1830   1.348   1.396   0.674 -0.8369 -0.3670  0.9825
  458SOL    HW2 1831   1.412   1.341   0.551 -0.7709  0.9953 -0.1806
  458SOL     MW 1832   1.419   1.391   0.627 -0.1085  0.0169  0.4500
  459SOL     OW 1833   1.552   0.135   0.220  0.2662  0.2176  0.3705
  459SOL    HW1 1834   1.547   0.040   0.200  0.6699  0.1419 -3.0300
  459SOL    HW2 1835   1.493   0.196   0.169  0.7113  1.7152  1.8020
  459SOL     MW 1836   1.544   0.130   0.211  0.3782  0.4052  0.1107
  460SOL     OW 1837   1.682   2.155   0.588 -0.0444 -0.1242  0.4554
  460SOL    HW1 1838   1.611   2.146   0.639  0.8852 -1.6305 -0.9598
  460SOL    HW2 1839   1.725   2.065   0.591 -3.0088  0.3877  2.4778
  460SOL     MW 1840   1.679   2.142   0.595 -0.3129 -0.2554  0.5355
  461SOL     OW 1841   0.523   2.379   0.593  0.3347  0.9953 -0.3114
  461SOL    HW1 1842   0.445   2.419   0.559 -4.3754 -4.2686 -0.7511
  461SOL    HW2 1843   0.511   2.360   0.684  2.7201  1.1801 -0.5837
  461SOL     MW 1844   0.512   2.381   0.601  0.0280  0.3252 -0.4054
  462SOL     OW 1845   0.345   0.327   1.279  0.1079 -0.3003 -0.5611
  462SOL    HW1 1846   0.382   0.273   1.212 -1.0729  1.8228  1.8759
  462SOL    HW2 1847   0.422   0.375   1.308  1.9255 -1.3379  3.9797
  462SOL     MW 1848   0.360   0.326   1.274  0.1919 -0.1571  0.3596
  463SOL     OW 1849   1.006   0.054   0.707  0.1814  0.1619  0.3819
  463SOL    HW1 1850   1.019   0.072   0.611  0.1581  2.3282  0.4117
  463SOL    HW2 1851   0.912   0.020   0.714  1.1737 -1.5519  2.7998
  463SOL     MW 1852   0.995   0.052   0.695  0.3092  0.2216  0.7049
  464SOL     OW 1853   0.785   2.936   2.132 -0.2244  0.0812 -0.6030
  464SOL    HW1 1854   0.766   2.847   2.112  0.7059  0.1071 -1.3226
  464SOL    HW2 1855   0.776   2.941   2.235  3.8129 -0.3563  2.8573
  464SOL     MW 1856   0.781   2.925   2.143  0.4310  0.0269 -0.2414
  465SOL     OW 1857   0.755   0.203   0.489  0.0304 -0.1941  0.1549
  465SOL    HW1 1858   0.742   0.152   0.570 -0.5737  0.0461  2.7582
  465SOL    HW2 1859   0.712   0.162   0.411 -0.0487 -1.1842  0.2594
  465SOL     MW 1860   0.747   0.191   0.489 -0.0597 -0.2931  0.5122
  466SOL     OW 1861   1.061   1.957   0.694  0.0868 -0.1630  0.2549
  466SOL    HW1 1862   1.055   1.882   0.633  1.7208  0.3546 -0.9823
  466SOL    HW2 1863   1.078   2.033   0.636  1.4440  1.2302  0.5921
  466SOL     MW 1864   1.062   1.957   0.678  0.4814  0.0891  0.1361
  467SOL     OW 1865   1.244   2.288   0.936 -0.6454 -0.8925  0.1810
  467SOL    HW1 1866   1.338   2.301   0.953 -1.9576 -1.0341  1.9423
  467SOL    HW2 1867   1.231   2.193   0.910  1.2539  1.0913  1.7905
  467SOL     MW 1868   1.255   2.278   0.935 -0.5679 -0.6494  0.6257
  468SOL     OW 1869   0.321   2.619   1.973  0.1231  0.0898  0.1195
  468SOL    HW1 1870   0.348   2.533   1.938 -1.0503 -0.0467  0.0180
  468SOL    HW2 1871   0.365   2.689   1.929  0.1874 -1.6991  1.0047
  468SOL     MW 1872   0.330   2.617   1.963 -0.0232 -0.1642  0.2229
  469SOL     OW 1873   0.393   2.083   1.830 -0.3747  0.1557  0.2535
  469SOL    HW1 1874   0.303   2.040   1.824 -1.2105  1.9825 -0.5353
  469SOL    HW2 1875   0.450   2.036   1.760 -2.2640  0.1415 -0.0161
  469SOL     MW 1876   0.389   2.071   1.820 -0.7343  0.3948  0.1139
  470SOL     OW 1877   3.050   2.520   0.140 -0.4480  0.4513 -0.6959
  470SOL    HW1 1878   2.969   2.495   0.186  1.4389 -0.0442  0.7324
  470SOL    HW2 1879   3.022   2.543   0.050  0.5978  4.2042  0.9750
  470SOL     MW 1880   3.036   2.519   0.134 -0.0611  0.8811 -0.2870
  471SOL     OW 1881   1.175   2.708   1.362  0.2930  0.4493 -0.0360
  471SOL    HW1 1882   1.106   2.736   1.424 -1.6547 -0.8015  0.0052
  471SOL    HW2 1883   1.155   2.756   1.282 -1.3579  2.2062 -0.6467
  471SOL     MW 1884   1.163   2.718   1.360 -0.1818  0.5161 -0.1112
  472SOL     OW 1885   2.922   2.123   0.323 -0.1151 -0.1924 -0.5507
  472SOL    HW1 1886   2.931   2.094   0.231 -0.3787  0.3071  1.0600
  472SOL    HW2 1887   2.895   2.050   0.371  2.8041  0.2542 -1.6974
  472SOL     MW 1888   2.920   2.110   0.317  0.2353 -0.0676 -0.4895
  473SOL     OW 1889   0.802   2.548   1.281 -0.0093  0.0106  0.1241
  473SOL    HW1 1890   0.817   2.453   1.297  2.1156 -1.4091  0.8916
  473SOL    HW2 1891   0.822   2.579   1.368  0.2078 -1.4209 -0.3738
  473SOL     MW 1892   0.807   2.539   1.295  0.2997 -0.3656  0.1597
  474SOL     OW 1893   0.838   2.212   1.789 -0.3763  0.1045 -0.3456
  474SOL    HW1 1894   0.935   2.220   1.795  2.9364 -0.6949  1.2042
  474SOL    HW2 1895   0.833   2.200   1.689  1.6300 -0.3512  0.1654
  474SOL     MW 1896   0.850   2.211   1.777  0.3255 -0.0611 -0.0737
  475SOL     OW 1897   1.626   3.080   1.412 -0.3942 -0.1865 -0.1442
  475SOL    HW1 1898   1.542   3.119   1.386  0.6913  0.0443  2.2514
  475SOL    HW2 1899   1.609   2.988   1.428  1.8628  1.2118  0.1279
  475SOL     MW 1900   1.613   3.073   1.410  0.0468  0.0285  0.2078
  476SOL     OW 1901   1.440   2.596   0.808  0.6704 -0.0498 -0.3789
  476SOL    HW1 1902   1.393   2.587   0.890 -0.8889 -1.9112 -2.0544
  476SOL    HW2 1903   1.487   2.683   0.817  5.5445 -0.3301 -1.3904
  476SOL     MW 1904   1.440   2.607   0.820  1.1078 -0.3324 -0.7334
  477SOL     OW 1905   0.879   2.505   0.649 -0.1365  0.4735  1.2797
  477SOL    HW1 1906   0.933   2.558   0.591 -0.6655 -3.2143  1.2036
  477SOL    HW2 1907   0.847   2.423   0.597  2.7681 -0.4404 -2.5400
  477SOL     MW 1908   0.881   2.501   0.635  0.1769 -0.1336  0.7657
  478SOL     OW 1909   0.241   2.603   0.931  0.1424  0.3897 -0.5422
  478SOL    HW1 1910   0.278   2.691   0.939 -3.2018  3.8380 -1.8215
  478SOL    HW2 1911   0.313   2.549   0.894  0.8872 -1.4057  0.3822
  478SOL     MW 1912   0.255   2.607   0.927 -0.2005  0.6078 -0.5890
  479SOL     OW 1913   1.390   1.948   1.317 -0.3481 -0.0578  0.2918
  479SOL    HW1 1914   1.366   1.997   1.395 -1.7826 -1.5344  2.5185
  479SOL    HW2 1915   1.454   1.882   1.348 -0.0601 -1.7992 -0.8669
  479SOL     MW 1916   1.396   1.946   1.332 -0.4994 -0.4824  0.4327
  480SOL     OW 1917   1.819   2.342   1.282  0.3945 -0.2626  0.0411
  480SOL    HW1 1918   1.832   2.251   1.316 -0.5878  0.9199 -0.1722
  480SOL    HW2 1919   1.870   2.346   1.199  2.2602  0.1025 -2.3729
  480SOL     MW 1920   1.827   2.330   1.276  0.5111 -0.0584 -0.3055
  481SOL     OW 1921   1.220   0.152   1.129 -0.1806 -0.0346 -0.8223
  481SOL    HW1 1922   1.243   0.117   1.043 -0.3565  0.5013 -3.8651
  481SOL    HW2 1923   1.221   0.250   1.114  2.7143  0.1755 -1.3134
  481SOL     MW 1924   1.223   0.161   1.116  0.1782  0.0638 -1.2886
  482SOL     OW 1925   1.035   0.028   0.434  0.0887  0.1558 -0.3713
  482SOL    HW1 1926   0.965  -0.036   0.433  0.4367  0.8926  0.3719
  482SOL    HW2 1927   1.015   0.089   0.363  1.3915  1.0466 -0.1222
  482SOL     MW 1928   1.023   0.028   0.425  0.3065  0.3705 -0.2404
  483SOL     OW 1929   0.331   2.842   0.593  0.4529  0.0395  0.5782
  483SOL    HW1 1930   0.325   2.877   0.496  2.7203 -0.8277 -0.9581
  483SOL    HW2 1931   0.307   2.917   0.644 -1.5078 -1.6904 -1.5514
  483SOL     MW 1932   0.327   2.856   0.587  0.4934 -0.3032  0.0945
  484SOL     OW 1933   1.654   1.869   1.413  0.0947 -0.0714  0.1515
  484SOL    HW1 1934   1.712   1.931   1.383 -0.8856  2.1723  2.3867
  484SOL    HW2 1935   1.676   1.872   1.508  1.0402  1.7235  0.2694
  484SOL     MW 1936   1.664   1.877   1.422  0.0901  0.4615  0.4620
  485SOL     OW 1937   0.554   2.320   0.315  0.3423 -0.1121  1.0006
  485SOL    HW1 1938   0.580   2.335   0.407  3.0023 -2.4555 -1.1326
  485SOL    HW2 1939   0.487   2.390   0.284  0.4968  2.0652 -1.2898
  485SOL     MW 1940   0.548   2.331   0.323  0.7137 -0.1340  0.4170
  486SOL     OW 1941   0.099   2.478   1.457  0.4049 -0.4864 -0.2200
  486SOL    HW1 1942   0.129   2.571   1.438  4.2844 -0.3366 -0.2505
  486SOL    HW2 1943   0.075   2.482   1.551 -0.8437  0.9155 -4.0888
  486SOL     MW 1944   0.100   2.491   1.467  0.7520 -0.2817 -0.7345
  487SOL     OW 1945   1.276   1.596   0.989  0.0696 -0.0715 -0.6589
  487SOL    HW1 1946   1.245   1.688   1.013 -0.2260  0.8805 -1.8753
  487SOL    HW2 1947   1.368   1.613   1.001  0.7851 -0.1595 -0.4443
  487SOL     MW 1948   1.284   1.611   0.994  0.1250  0.0425 -0.7911
  488SOL     OW 1949   1.502   1.826   0.625  0.1636  0.3738 -0.1580
  488SOL    HW1 1950   1.485   1.907   0.576  1.9573  0.1926  1.1027
  488SOL    HW2 1951   1.451   1.755   0.581  0.1311 -2.0520  1.3167
  488SOL     MW 1952   1.493   1.827   0.613  0.3959  0.0298  0.2029
  489SOL     OW 1953   0.698   0.755   0.524  0.3486  0.3376  0.2927
  489SOL    HW1 1954   0.674   0.663   0.514  1.2220  1.6606  0.5551
  489SOL    HW2 1955   0.672   0.765   0.616 -0.0030  0.9679  0.6526
  489SOL     MW 1956   0.692   0.744   0.535  0.4174  0.5953  0.3748
  490SOL     OW 1957   1.408   2.088   0.425  0.0021  0.0028  0.0114
  490SOL    HW1 1958   1.457   2.165   0.395 -1.4240  0.2040  0.3811
  490SOL    HW2 1959   1.318   2.104   0.391 -0.4501 -0.2233  0.5779
  490SOL     MW 1960   1.403   2.100   0.417 -0.2457 -0.0005  0.1350
  491SOL     OW 1961   1.249   2.987   0.378 -0.0585  0.0006  0.4045
  491SOL    HW1 1962   1.291   3.001   0.462  0.4689 -0.3015  1.5922
  491SOL    HW2 1963   1.183   3.057   0.377  3.2145 -1.3494  0.4717
  491SOL     MW 1964   1.246   2.998   0.389  0.4430 -0.2174  0.5701
  492SOL     OW 1965   1.442   2.142   0.706 -0.0754 -0.0789 -0.3947
  492SOL    HW1 1966   1.417   2.128   0.615 -1.7206  0.1086 -0.1247
  492SOL    HW2 1967   1.385   2.092   0.766 -0.8609 -0.0368  2.6357
  492SOL     MW 1968   1.431   2.134   0.702 -0.3961 -0.0486  0.0408
  493SOL     OW 1969   0.200   2.986   0.345 -0.6627 -0.1703  0.2775
  493SOL    HW1 1970   0.132   3.002   0.410 -0.5259  3.0827 -0.3381
  493SOL    HW2 1971   0.162   3.004   0.260  1.5984 -0.9829  0.0127
  493SOL     MW 1972   0.186   2.990   0.342 -0.3463  0.1517  0.1614
  494SOL     OW 1973   0.379   2.400   1.788  0.0823  0.3227  0.4639
  494SOL    HW1 1974   0.387   2.306   1.813 -0.1666 -2.7939 -0.8055
  494SOL    HW2 1975   0.438   2.407   1.708  2.0303  0.5550 -0.7369
  494SOL     MW 1976   0.388   2.388   1.781  0.3065 -0.0579  0.1380
  495SOL     OW 1977   2.890   1.633   2.742 -0.2468 -0.0331  0.5285
  495SOL    HW1 1978   2.881   1.718   2.793  0.5889  0.3076  3.4646
  495SOL    HW2 1979   2.867   1.567   2.808  0.1896  1.1565  0.9881
  495SOL     MW 1980   2.886   1.635   2.758 -0.0790  0.1688  0.9765
  496SOL     OW 1981   2.758   2.271   2.728  0.0412 -0.0956  0.0902
  496SOL    HW1 1982   2.767   2.180   2.758 -1.4721 -1.5117  0.9453
  496SOL    HW2 1983   2.849   2.312   2.742  1.7396  0.8779 -2.6549
  496SOL     MW 1984   2.771   2.264   2.734  0.0656 -0.1540 -0.1592
  497SOL     OW 1985   1.497   2.339   2.543  0.2203  0.2866  0.0926
  497SOL    HW1 1986   1.504   2.284   2.456 -0.8262 -0.1074 -0.2727
  497SOL    HW2 1987   1.467   2.271   2.609  0.1682 -1.3625 -2.0466
  497SOL     MW 1988   1.494   2.322   2.540  0.0753  0.0170 -0.2379
  498SOL     OW 1989   1.458   2.779   2.296  0.5759  0.2220  0.2490
  498SOL    HW1 1990   1.465   2.685   2.282  1.0669 -0.2604 -1.3538
  498SOL    HW2 1991   1.527   2.795   2.362 -1.6624  1.6990 -1.2323
  498SOL     MW 1992   1.468   2.769   2.303  0.3453  0.3532 -0.1579
  499SOL     OW 1993   0.953   0.122   0.092  0.3170  0.4408  0.3418
  499SOL    HW1 1994   0.864   0.155   0.122 -1.8370  2.6629  0.3674
  499SOL    HW2 1995   0.948   0.025   0.079 -3.7222  0.6766 -0.0037
  499SOL     MW 1996   0.940   0.113   0.094 -0.5001  0.7651  0.2996
  500SOL     OW 1997   1.040   2.511   2.750  0.2282 -0.5311  0.4739
  500SOL    HW1 1998   1.073   2.477   2.833 -2.0797 -0.4039  0.0880
  500SOL    HW2 1999   0.989   2.593   2.771 -2.6247  0.5757 -0.1239
  500SOL     MW 2000   1.038   2.518   2.764 -0.4527 -0.3683  0.3441
  501SOL     OW 2001   1.739   2.235   3.088  0.1709 -0.6471  0.4375
  501SOL    HW1 2002   1.736   2.331   3.086 -1.0732  0.4346  2.2379
  501SOL    HW2 2003   1.835   2.213   3.099  0.6312 -0.2264  1.0577
  501SOL     MW 2004   1.751   2.245   3.089  0.0675 -0.4488  0.7569
  502SOL     OW 2005   0.255   2.700   2.976 -0.1614 -0.2403  0.4094
  502SOL    HW1 2006   0.163   2.677   2.963 -1.7527  0.3051 -0.1209
  502SOL    HW2 2007   0.277   2.763   2.907 -0.0276  0.3107  1.3472
  502SOL     MW 2008   0.246   2.705   2.965 -0.3537 -0.0956  0.4632
  503SOL     OW 2009   1.148   2.589   2.113 -0.2803  0.3996  0.2519
  503SOL    HW1 2010   1.224   2.596   2.051  0.0684  1.4358 -0.3895
  503SOL    HW2 2011   1.074   2.571   2.055  2.2798 -1.0423  1.5438
  503SOL     MW 2012   1.148   2.587   2.097  0.1035  0.3460  0.3377
  504SOL     OW 2013   0.066   2.649   2.158 -0.0255 -0.5441 -0.5380
  504SOL    HW1 2014   0.139   2.623   2.102  0.4843  2.8256  2.2812
  504SOL    HW2 2015   0.014   2.566   2.170 -0.7641 -3.4811  0.9135
  504SOL     MW 2016   0.069   2.635   2.152 -0.0557 -0.4870  0.0255
  505SOL     OW 2017   1.605   2.770   2.736  0.1546 -0.9513  0.2520
  505SOL    HW1 2018   1.633   2.794   2.649 -1.0148 -0.1750 -2.0638
  505SOL    HW2 2019   1.526   2.829   2.759  0.2192  0.9100 -1.1488
  505SOL     MW 2020   1.598   2.781   2.728  0.0089 -0.6033 -0.2383
  506SOL     OW 2021   1.588   0.056   2.777  0.0577 -0.2465  0.6717
  506SOL    HW1 2022   1.595  -0.009   2.853 -1.8395 -2.3455  1.7096
  506SOL    HW2 2023   1.650   0.017   2.718 -2.5843  0.6288  1.6125
  506SOL     MW 2024   1.597   0.042   2.779 -0.5412 -0.4080  0.9328
  507SOL     OW 2025   0.867   2.722   2.829 -0.0154 -0.1524  1.1370
  507SOL    HW1 2026   0.866   2.789   2.758 -0.3071 -0.8205 -0.0541
  507SOL    HW2 2027   0.785   2.671   2.826  0.6630 -2.7394 -1.2881
  507SOL     MW 2028   0.856   2.724   2.819  0.0357 -0.5818  0.6599
  508SOL     OW 2029   1.159   2.101   2.597  0.0996 -0.3661  0.0953
  508SOL    HW1 2030   1.240   2.105   2.644  1.8222 -0.6693 -0.0381
  508SOL    HW2 2031   1.098   2.057   2.657 -0.6630 -0.0424  0.6105
  508SOL     MW 2032   1.162   2.096   2.611  0.2263 -0.3634  0.1456
  509SOL     OW 2033   0.642   2.566   2.793 -0.0641 -0.1257  0.1081
  509SOL    HW1 2034   0.619   2.508   2.722 -0.4924  3.1920 -0.2708
  509SOL    HW2 2035   0.591   2.649   2.773  0.2100  1.6655 -2.9007
  509SOL     MW 2036   0.632   2.570   2.781 -0.0845  0.5483 -0.3389
  510SOL     OW 2037   1.521   2.559   1.629  0.8255 -0.0265  0.3172
  510SOL    HW1 2038   1.551   2.643   1.591 -2.5068 -0.2650  0.4920
  510SOL    HW2 2039   1.484   2.580   1.713 -2.4490  1.8933  0.2566
  510SOL     MW 2040   1.520   2.573   1.635 -0.0462  0.1954  0.3323
  511SOL     OW 2041   0.355   2.511   2.558 -0.0778 -0.1319  0.1273
  511SOL    HW1 2042   0.433   2.462   2.584 -1.8043 -0.4519  1.0069
  511SOL    HW2 2043   0.371   2.525   2.461  2.9146 -0.1979 -0.8076
  511SOL     MW 2044   0.368   2.507   2.549  0.0892 -0.1828  0.1200
  512SOL     OW 2045   1.029   1.980   2.857  0.0190  0.5106  0.3072
  512SOL    HW1 2046   0.934   1.980   2.858 -0.8527  1.6237 -2.7456
  512SOL    HW2 2047   1.040   1.889   2.894  0.8937  0.7941  2.6641
  512SOL     MW 2048   1.018   1.968   2.862  0.0194  0.6949  0.2154
  513SOL     OW 2049   1.541   2.532   2.192  0.6784  0.8843 -0.3896
  513SOL    HW1 2050   1.625   2.549   2.153 -0.7150 -3.0439 -0.7424
  513SOL    HW2 2051   1.533   2.453   2.252  0.0200 -1.6109 -1.7427
  513SOL     MW 2052   1.551   2.524   2.195  0.4077  0.0368 -0.6147
  514SOL     OW 2053   0.146   2.346   2.663 -0.6669  0.0421 -0.5194
  514SOL    HW1 2054   0.209   2.416   2.638 -0.5645 -0.5074 -0.2908
  514SOL    HW2 2055   0.208   2.303   2.728 -1.6841  1.3664 -0.8477
  514SOL     MW 2056   0.163   2.349   2.668 -0.7876  0.1443 -0.5325
  515SOL     OW 2057   1.088   1.950   1.817  0.1159 -1.0623  0.0176
  515SOL    HW1 2058   1.092   2.039   1.779  0.8762  2.1012 -0.6740
  515SOL    HW2 2059   1.160   1.947   1.882 -2.1429 -0.6897 -3.1532
  515SOL     MW 2060   1.098   1.961   1.820 -0.0818 -0.5958 -0.4920
  516SOL     OW 2061   1.304   2.601   2.939  0.7390  0.2212 -0.3473
  516SOL    HW1 2062   1.340   2.593   2.849  0.0953 -2.1524 -0.6097
  516SOL    HW2 2063   1.267   2.519   2.962  0.0036  2.0036  1.8804
  516SOL     MW 2064   1.304   2.589   2.930  0.5570  0.1432 -0.0880
  517SOL     OW 2065   0.554   2.363   2.292  0.0840  0.4660  0.4546
  517SOL    HW1 2066   0.515   2.450   2.283 -0.8422  0.2150 -0.5557
  517SOL    HW2 2067   0.514   2.324   2.215  1.9342 -1.5011 -1.4683
  517SOL     MW 2068   0.543   2.370   2.281  0.2059  0.1734  0.0676
  518SOL     OW 2069   1.811   0.088   3.076 -0.1676 -0.5616  0.0340
  518SOL    HW1 2070   1.818   0.118   3.162  0.8143 -0.4176 -1.5395
  518SOL    HW2 2071   1.755   0.013   3.082  1.1293 -0.8388  0.8314
  518SOL     MW 2072   1.804   0.082   3.088  0.1331 -0.5792 -0.0684
  519SOL     OW 2073   0.663   2.440   1.855  0.6015  0.5231 -0.9889
  519SOL    HW1 2074   0.710   2.355   1.851  1.2506  2.6580 -0.6022
  519SOL    HW2 2075   0.579   2.422   1.892 -0.4688 -0.9073 -1.9625
  519SOL     MW 2076   0.658   2.426   1.859  0.5459  0.6160 -1.0663
  520SOL     OW 2077   1.234   2.121   2.934  0.3748 -0.1707  0.0653
  520SOL    HW1 2078   1.153   2.074   2.908 -2.4617  1.6806  0.5095
  520SOL    HW2 2079   1.285   2.078   3.004  0.5220  0.0852 -2.1346
  520SOL     MW 2080   1.230   2.109   2.940  0.0200  0.1073 -0.1664
  521SOL     OW 2081   1.786   2.045   2.254  0.7953  0.6006 -0.0713
  521SOL    HW1 2082   1.781   2.062   2.158 -1.2033  0.6331 -0.5495
  521SOL    HW2 2083   1.791   1.953   2.267 -0.5957  1.1810 -0.8946
  521SOL     MW 2084   1.786   2.035   2.243  0.3481  0.6815 -0.2430
  522SOL     OW 2085   2.883   2.541   2.233  0.1957  0.0608  0.2990
  522SOL    HW1 2086   2.937   2.491   2.302  2.2055 -2.1237 -0.4995
  522SOL    HW2 2087   2.881   2.640   2.240  0.9630  1.7846 -0.6327
  522SOL     MW 2088   2.890   2.547   2.243  0.5621  0.0000  0.0707
  523SOL     OW 2089   0.821   1.489   2.152  0.0180 -0.1341 -0.0787
  523SOL    HW1 2090   0.784   1.516   2.071  1.3561 -0.5481  1.1978
  523SOL    HW2 2091   0.897   1.434   2.127 -0.4909 -0.3208 -0.7618
  523SOL     MW 2092   0.826   1.485   2.138  0.1274 -0.2133 -0.0004
  524SOL     OW 2093   0.631   2.393   2.993 -0.2251 -0.6150  0.1413
  524SOL    HW1 2094   0.634   2.457   2.922  1.1243 -0.7378 -1.6584
  524SOL    HW2 2095   0.699   2.336   2.977  0.4200 -1.1006  1.1234
  524SOL     MW 2096   0.640   2.394   2.981  0.0381 -0.6952  0.0334
  525SOL     OW 2097   0.406   2.195   2.114  0.6533  0.1263  0.1171
  525SOL    HW1 2098   0.376   2.140   2.182 -1.5387  2.8531 -1.8881
  525SOL    HW2 2099   0.448   2.144   2.051  1.0666  0.6681 -0.4520
  525SOL     MW 2100   0.407   2.181   2.115  0.4186  0.5576 -0.2226
  526SOL     OW 2101   0.701   2.123   2.014 -0.3993  0.0392  0.1578
  526SOL    HW1 2102   0.748   2.126   1.920 -1.9992  0.1910  0.3236
  526SOL    HW2 2103   0.777   2.149   2.070 -0.0045  0.9981  4.4783
  526SOL     MW 2104   0.717   2.127   2.009 -0.5583  0.1858  0.7497
  527SOL     OW 2105   1.278   1.901   2.009 -0.4122 -0.1186  0.1467
  527SOL    HW1 2106   1.247   1.827   2.065  1.5524  0.2449  0.6835
  527SOL    HW2 2107   1.312   1.852   1.933  1.6974 -2.2671  1.6903
  527SOL     MW 2108   1.278   1.885   2.006  0.1253 -0.3541  0.4212
  528SOL     OW 2109   0.625   2.899   2.974 -0.0374 -0.1770 -0.6697
  528SOL    HW1 2110   0.623   2.997   2.978  1.1780 -3.1699 -0.4975
  528SOL    HW2 2111   0.625   2.885   2.878  1.4826  4.0745  0.9520
  528SOL     MW 2112   0.625   2.910   2.962  0.3235 -0.0109 -0.4330
  529SOL     OW 2113   1.114   2.218   1.791 -0.4086 -0.4906  0.7954
  529SOL    HW1 2114   1.143   2.249   1.876 -1.2199 -0.7610 -0.6127
  529SOL    HW2 2115   1.190   2.229   1.738  0.9696  1.6110  1.8776
  529SOL     MW 2116   1.128   2.224   1.795 -0.3338 -0.2490  0.7524
  530SOL     OW 2117   1.140   2.393   2.957 -0.1771  0.0024 -0.2656
  530SOL    HW1 2118   1.095   2.399   3.039 -0.9503  0.5735  0.6392
  530SOL    HW2 2119   1.175   2.309   2.942 -1.1078  0.7807 -1.7228
  530SOL     MW 2120   1.139   2.383   2.966 -0.4019  0.1804 -0.3384
  531SOL     OW 2121   0.907   1.815   2.633  0.1544 -0.4210 -0.2751
  531SOL    HW1 2122   0.881   1.889   2.691 -1.1817 -0.7433 -0.0681
  531SOL    HW2 2123   0.859   1.739   2.661 -0.7617  0.6253 -2.0852
  531SOL     MW 2124   0.897   1.814   2.645 -0.1427 -0.3254 -0.4866
  532SOL     OW 2125   1.660   0.321   2.864 -0.1722 -0.5785 -0.1684
  532SOL    HW1 2126   1.642   0.235   2.839 -2.1695 -1.7095 -0.5775
  532SOL    HW2 2127   1.701   0.315   2.949  0.0326  1.7168 -1.5328
  532SOL     MW 2128   1.663   0.309   2.872 -0.4087 -0.4249 -0.4024
  533SOL     OW 2129   1.790   2.734   2.955  0.3071 -0.2248 -0.4027
  533SOL    HW1 2130   1.767   2.652   3.004 -1.3589  2.4580 -1.6845
  533SOL    HW2 2131   1.724   2.735   2.882  0.1590  1.4631 -0.3896
  533SOL     MW 2132   1.778   2.723   2.952  0.0678  0.3519 -0.5701
  534SOL     OW 2133   1.745   2.468   2.509 -0.4338 -0.4927 -0.4714
  534SOL    HW1 2134   1.668   2.422   2.537 -0.8069 -0.1008 -1.6343
  534SOL    HW2 2135   1.816   2.451   2.573 -0.1579  0.9863  3.0029
  534SOL     MW 2136   1.744   2.460   2.521 -0.4467 -0.2459 -0.1664
  535SOL     OW 2137   1.818   2.356   1.910  0.0011  0.5039 -0.0129
  535SOL    HW1 2138   1.762   2.341   1.829  0.3912 -0.6825  1.5408
  535SOL    HW2 2139   1.900   2.405   1.882  1.8391 -1.6834 -1.1075
  535SOL     MW 2140   1.822   2.361   1.895  0.2951  0.0588  0.0477
  536SOL     OW 2141   0.457   1.823   2.015  0.6445 -0.6076 -0.4555
  536SOL    HW1 2142   0.452   1.888   1.947 -0.1766  1.1094  2.7289
  536SOL    HW2 2143   0.541   1.836   2.059  1.4621  2.2562 -1.9696
  536SOL     MW 2144   0.468   1.833   2.012  0.6440 -0.0032 -0.2351
  537SOL     OW 2145   1.005   0.181   2.914  0.7616 -0.1575 -0.6523
  537SOL    HW1 2146   0.966   0.160   2.997 -1.7932  1.0505  1.1219
  537SOL    HW2 2147   0.949   0.254   2.876  1.0648  0.9561 -0.3606
  537SOL     MW 2148   0.992   0.188   2.920  0.4645  0.1488 -0.3797
  538SOL     OW 2149   1.313   0.046   3.038 -0.1321  0.0359 -0.5361
  538SOL    HW1 2150   1.232   0.059   2.998  2.4214  0.1110 -0.4037
  538SOL    HW2 2151   1.357   0.129   3.033 -0.0082  2.0521 -0.7388
  538SOL     MW 2152   1.308   0.059   3.032  0.2212  0.3119 -0.5454
  539SOL     OW 2153   0.716   2.696   2.529 -0.0087  0.3409 -0.5772
  539SOL    HW1 2154   0.785   2.762   2.528  2.1001 -2.0520  3.0202
  539SOL    HW2 2155   0.754   2.618   2.573  0.7889 -0.5513  2.1025
  539SOL     MW 2156   0.730   2.694   2.535  0.3747 -0.0925  0.2510
  540SOL     OW 2157   0.359   2.240   2.840 -0.1212  0.4103 -0.2905
  540SOL    HW1 2158   0.418   2.305   2.869 -1.1220 -0.7300 -0.3444
  540SOL    HW2 2159   0.335   2.189   2.921  0.7164  1.4641  0.1736
  540SOL     MW 2160   0.364   2.242   2.854 -0.1428  0.3989 -0.2364
  541SOL     OW 2161   0.189   2.870   2.270 -0.0292  0.0358 -0.5558
  541SOL    HW1 2162   0.152   2.790   2.229  1.8484 -1.0217  1.5182
  541SOL    HW2 2163   0.219   2.833   2.356  0.5146 -0.1986  0.4976
  541SOL     MW 2164   0.188   2.855   2.276  0.2903 -0.1346 -0.1431
  542SOL     OW 2165   0.893   2.283   2.732  0.3579  0.3140 -0.9534
  542SOL    HW1 2166   0.882   2.235   2.819 -3.6189 -0.2875  2.6350
  542SOL    HW2 2167   0.958   2.353   2.751 -0.4358 -1.0305 -0.3121
  542SOL     MW 2168   0.900   2.286   2.746 -0.2715  0.0573 -0.3953
  543SOL     OW 2169   1.399   2.591   2.675 -0.0503 -0.7220  0.1387
  543SOL    HW1 2170   1.419   2.513   2.624  1.9990 -0.8487  0.3893
  543SOL    HW2 2171   1.488   2.629   2.698  0.5968 -0.6146  0.0078
  543SOL     MW 2172   1.413   2.586   2.671  0.3054 -0.7246  0.1545
  544SOL     OW 2173   0.695   0.128   2.629 -0.3784  0.8764  1.0087
  544SOL    HW1 2174   0.630   0.061   2.599 -2.9600 -2.5670 -0.1718
  544SOL    HW2 2175   0.752   0.141   2.552  2.4027  1.4550 -0.0301
  544SOL     MW 2176   0.694   0.121   2.615 -0.3521  0.4984  0.7159
  545SOL     OW 2177   1.541   2.159   2.331 -0.2699 -0.6204  0.1330
  545SOL    HW1 2178   1.498   2.097   2.385  0.2611  4.2253 -0.1349
  545SOL    HW2 2179   1.636   2.142   2.309  1.0074  2.0235 -1.9626
  545SOL     MW 2180   1.548   2.149   2.335 -0.0313  0.3678 -0.1788
  546SOL     OW 2181   2.991   1.989   0.094 -0.2390 -0.4335  0.4246
  546SOL    HW1 2182   2.983   2.028   0.004 -0.7494 -1.1338 -1.3709
  546SOL    HW2 2183   3.089   1.957   0.107  4.2373 -1.7958 -0.1806
  546SOL     MW 2184   3.003   1.990   0.084  0.2842 -0.7056  0.1078
  547SOL     OW 2185   0.133   2.942   0.072  0.1535  0.2441  0.2393
  547SOL    HW1 2186   0.167   2.957  -0.014 -1.7099  4.3656  0.9173
  547SOL    HW2 2187   0.187   2.866   0.105  2.4431 -0.5326  0.7220
  547SOL     MW 2188   0.145   2.934   0.065  0.2097  0.6854  0.3924
  548SOL     OW 2189   0.316   2.499   0.267 -0.5426 -0.4685  0.1842
  548SOL    HW1 2190   0.321   2.575   0.209  3.4385 -0.1368 -0.3781
  548SOL    HW2 2191   0.238   2.445   0.242  0.4423  1.8415 -1.0075
  548SOL     MW 2192   0.306   2.502   0.256  0.1126 -0.1199 -0.0472
  549SOL     OW 2193   0.697   1.880   2.108  0.1701  0.0845 -0.2607
  549SOL    HW1 2194   0.687   1.976   2.081 -1.6972  3.6172 -3.5489
  549SOL    HW2 2195   0.711   1.889   2.201  0.6809  3.6393 -1.5955
  549SOL     MW 2196   0.698   1.894   2.116 -0.0089  1.0196 -0.8706
  550SOL     OW 2197   1.829   1.745   2.564 -0.1941  0.2285  0.4154
  550SOL    HW1 2198   1.810   1.767   2.476  0.9361  1.0835  0.2708
  550SOL    HW2 2199   1.804   1.824   2.608  1.0435  0.1978 -2.3930
  550SOL     MW 2200   1.823   1.759   2.558  0.1183  0.3373  0.0258
  551SOL     OW 2201   0.876   2.319   0.241 -0.0010  0.6660 -0.9915
  551SOL    HW1 2202   0.959   2.360   0.224  0.6266  0.6649 -1.6595
  551SOL    HW2 2203   0.880   2.231   0.201  2.6720 -0.7869  2.7864
  551SOL     MW 2204   0.887   2.313   0.233  0.4345  0.4742 -0.5812
  552SOL     OW 2205   1.783   1.771   2.289  0.6513 -0.0283  0.2575
  552SOL    HW1 2206   1.689   1.764   2.278  4.3507 -1.4163 -1.7694
  552SOL    HW2 2207   1.810   1.726   2.201  1.8003  0.7120  2.8611
  552SOL     MW 2208   1.774   1.764   2.276  1.2910 -0.1138  0.3336
  553SOL     OW 2209   1.208   2.324   1.534 -0.2414 -0.4012  0.0116
  553SOL    HW1 2210   1.255   2.240   1.532  0.0481 -1.2666  1.2168
  553SOL    HW2 2211   1.275   2.385   1.500  0.0891  0.7062 -0.9189
  553SOL     MW 2212   1.223   2.321   1.529 -0.1596 -0.3693  0.0478
  554SOL     OW 2213   0.564   2.829   2.709  0.4511  0.0579  0.2906
  554SOL    HW1 2214   0.526   2.907   2.662  0.1569 -1.9059 -1.8760
  554SOL    HW2 2215   0.607   2.784   2.644 -3.7997  2.6749  0.1771
  554SOL     MW 2216   0.564   2.834   2.694 -0.1485  0.1441 -0.0102
  555SOL     OW 2217   0.598   2.373   2.604  0.6293 -0.1048 -0.3749
  555SOL    HW1 2218   0.590   2.283   2.639 -1.5513 -0.4440  1.2860
  555SOL    HW2 2219   0.683   2.380   2.563 -1.4600 -1.6729  0.3974
  555SOL     MW 2220   0.608   2.362   2.603  0.0659 -0.3564 -0.0539
  556SOL     OW 2221   1.036   1.783   0.139 -0.1948  0.2293 -0.1214
  556SOL    HW1 2222   1.057   1.787   0.043 -1.9547  2.4263 -0.0759
  556SOL    HW2 2223   1.115   1.800   0.186  0.4432 -1.2618 -0.4962
  556SOL     MW 2224   1.049   1.786   0.133 -0.3428  0.3224 -0.1649
  557SOL     OW 2225   0.983   2.695   0.470 -1.2269  0.3776 -0.8992
  557SOL    HW1 2226   1.021   2.700   0.380  0.5734 -0.1149  0.1493
  557SOL    HW2 2227   0.916   2.773   0.464 -1.2380  0.2161 -0.9228
  557SOL     MW 2228   0.979   2.706   0.457 -0.9908  0.2913 -0.7640
  558SOL     OW 2229   0.282   2.118   3.086 -0.1710  0.2191  0.1760
  558SOL    HW1 2230   0.232   2.044   3.111 -3.8335  1.2384  1.6561
  558SOL    HW2 2231   0.224   2.182   3.120 -0.6121 -1.5556  1.5604
  558SOL     MW 2232   0.268   2.117   3.094 -0.7124  0.1195  0.5540
  559SOL     OW 2233   1.177   2.303   2.053 -0.1611  0.0200 -0.2222
  559SOL    HW1 2234   1.195   2.398   2.081  0.8174  0.8311  0.6876
  559SOL    HW2 2235   1.179   2.247   2.128  1.3083 -0.1882 -3.3837
  559SOL     MW 2236   1.180   2.308   2.067  0.1619  0.0995 -0.5193
  560SOL     OW 2237   1.971   2.848   0.015  0.1391 -1.3382  0.2631
  560SOL    HW1 2238   2.024   2.904  -0.046  2.3337 -3.3885  0.5354
  560SOL    HW2 2239   1.906   2.799  -0.040  1.0397 -1.4311  0.9807
  560SOL     MW 2240   1.970   2.849  -0.000  0.5475 -1.6210  0.3937
  561SOL     OW 2241   0.475   2.087   0.207  0.3409 -0.4320  0.6013
  561SOL    HW1 2242   0.431   2.132   0.133 -3.1371  1.9518 -4.3669
  561SOL    HW2 2243   0.533   2.150   0.249 -1.2705 -0.8413 -1.1629
  561SOL     MW 2244   0.477   2.101   0.203 -0.3306 -0.1715 -0.2870
  562SOL     OW 2245   0.898   2.169   2.186  0.2320  0.1971 -0.3823
  562SOL    HW1 2246   0.910   2.260   2.194  1.3231 -0.6460 -2.4746
  562SOL    HW2 2247   0.985   2.136   2.207  0.0695 -0.3109  0.7076
  562SOL     MW 2248   0.911   2.176   2.190  0.3545  0.0189 -0.5146
  563SOL     OW 2249   1.211   0.283   0.573 -0.6570 -0.1583 -0.1938
  563SOL    HW1 2250   1.156   0.268   0.494 -1.5501 -1.5288 -0.7114
  563SOL    HW2 2251   1.255   0.196   0.586  0.3516 -2.3455 -2.5913
  563SOL     MW 2252   1.209   0.269   0.564 -0.6418 -0.6277 -0.5784
  564SOL     OW 2253   1.020   2.588   2.377  0.5350 -0.1975  0.3650
  564SOL    HW1 2254   1.072   2.590   2.296 -2.5136 -0.5991 -0.6393
  564SOL    HW2 2255   1.080   2.628   2.436 -1.1670 -1.6907  1.9097
  564SOL     MW 2256   1.035   2.594   2.374 -0.0918 -0.4475  0.4363
  565SOL     OW 2257   2.926   2.637   2.590 -0.2189  0.4007 -0.4113
  565SOL    HW1 2258   2.986   2.700   2.554  1.6892  1.2705 -2.7245
  565SOL    HW2 2259   2.852   2.667   2.536  2.8399 -0.8429  0.7973
  565SOL     MW 2260   2.924   2.650   2.578  0.4364  0.3514 -0.5570
  566SOL     OW 2261   2.257   1.939   2.348  0.2419 -0.0779 -0.2937
  566SOL    HW1 2262   2.286   1.945   2.256  1.7709 -0.0453 -0.7954
  566SOL    HW2 2263   2.306   2.011   2.392 -0.5282  0.8572 -0.8852
  566SOL     MW 2264   2.268   1.949   2.342  0.3420  0.0498 -0.4380
  567SOL     OW 2265   1.201   2.907   0.051  0.1094 -0.4671  0.8125
  567SOL    HW1 2266   1.250   2.994   0.045  1.4636 -1.1618  2.5079
  567SOL    HW2 2267   1.193   2.874  -0.038  1.2897  0.8180 -0.8120
  567SOL     MW 2268   1.207   2.914   0.038  0.4438 -0.3892  0.8218
  568SOL     OW 2269   1.648   2.130   2.856  0.0123 -0.1945  0.3171
  568SOL    HW1 2270   1.691   2.179   2.934  0.9801 -2.9378  2.1130
  568SOL    HW2 2271   1.708   2.066   2.820 -1.3593  1.4313  2.8985
  568SOL     MW 2272   1.662   2.128   2.861 -0.0410 -0.3419  0.8947
  569SOL     OW 2273   0.120   2.184   2.424  1.0974  0.5611  0.0444
  569SOL    HW1 2274   0.057   2.233   2.370  3.5677  0.8689 -0.2600
  569SOL    HW2 2275   0.144   2.256   2.485 -0.5785 -1.4211  1.3145
  569SOL     MW 2276   0.115   2.200   2.424  1.2022  0.3402  0.1718
  570SOL     OW 2277   1.423   0.428   0.496  0.3247  0.3756  0.4516
  570SOL    HW1 2278   1.361   0.363   0.535 -0.6167 -0.5357 -1.1244
  570SOL    HW2 2279   1.456   0.480   0.560 -1.5584  0.1172 -2.2503
  570SOL     MW 2280   1.419   0.426   0.510 -0.0479  0.2212 -0.1128
  571SOL     OW 2281   1.480   2.395   1.936  0.2632 -0.1044 -0.5392
  571SOL    HW1 2282   1.493   2.425   2.026 -1.6783 -2.0914 -1.7421
  571SOL    HW2 2283   1.458   2.302   1.939  1.9363 -0.0890 -2.0958
  571SOL     MW 2284   1.479   2.387   1.949  0.2278 -0.3645 -0.9033
  572SOL     OW 2285   0.925   2.609   3.082 -0.0487  0.4619 -0.1202
  572SOL    HW1 2286   0.921   2.643   2.993  0.7363  0.2480  0.3075
  572SOL    HW2 2287   0.841   2.604   3.119  1.5375  1.5189 -0.6203
  572SOL     MW 2288   0.914   2.613   3.075  0.2641  0.5731 -0.1297
  573SOL     OW 2289   1.119   2.416   0.195  0.0761 -0.2311 -0.2359
  573SOL    HW1 2290   1.207   2.417   0.152 -1.3869  0.6195 -0.0462
  573SOL    HW2 2291   1.115   2.512   0.215  0.0859  3.3295  1.7802
  573SOL     MW 2292   1.130   2.429   0.192 -0.1156  0.3509  0.0552
  574SOL     OW 2293   1.146   2.675   0.253 -0.4263 -0.0112  0.4657
  574SOL    HW1 2294   1.234   2.685   0.295 -1.7875 -0.7065 -1.8715
  574SOL    HW2 2295   1.158   2.742   0.180 -0.1566  0.5025 -1.6712
  574SOL     MW 2296   1.159   2.686   0.249 -0.5703 -0.0352 -0.1246
  575SOL     OW 2297   3.050   2.312   1.859  0.0507 -0.5153 -0.6496
  575SOL    HW1 2298   3.066   2.221   1.822 -1.3205 -1.9872 -2.7079
  575SOL    HW2 2299   3.112   2.374   1.811  1.9736 -3.2919 -3.7831
  575SOL     MW 2300   3.060   2.308   1.848  0.1235 -1.0758 -1.3346
  576SOL     OW 2301   2.802   1.834   2.063 -0.2889  0.0699  0.8274
  576SOL    HW1 2302   2.824   1.910   2.007  2.3922 -1.9236  2.9408
  576SOL    HW2 2303   2.715   1.808   2.027 -0.1349  0.5041  0.5875
  576SOL     MW 2304   2.793   1.841   2.051  0.0851 -0.1358  1.0746
  577SOL     OW 2305   2.095   0.255   0.083  0.3072  0.5246  0.1135
  577SOL    HW1 2306   2.036   0.272   0.014  0.7108  1.4363 -2.2616
  577SOL    HW2 2307   2.038   0.200   0.142  2.0768  1.3195 -0.6223
  577SOL     MW 2308   2.080   0.250   0.082  0.5940  0.7498 -0.2969
  578SOL     OW 2309   2.031   2.081   2.383 -0.4931 -0.7422 -0.2385
  578SOL    HW1 2310   1.955   2.040   2.340  0.8499  2.7181 -2.4304
  578SOL    HW2 2311   2.106   2.020   2.366  2.0578  0.1745  1.3549
  578SOL     MW 2312   2.031   2.068   2.375  0.0207 -0.1647 -0.3174
  579SOL     OW 2313   0.840   2.419   2.493 -0.1843 -0.1888 -0.3957
  579SOL    HW1 2314   0.887   2.345   2.527  1.0791  0.3089 -1.6942
  579SOL    HW2 2315   0.908   2.484   2.465 -1.0459 -1.5738 -0.4526
  579SOL     MW 2316   0.855   2.418   2.494 -0.1313 -0.3059 -0.5745
  580SOL     OW 2317   0.895   2.937   0.036 -0.4368  0.4921  0.2034
  580SOL    HW1 2318   0.995   2.923   0.030  0.2867  0.6385  1.1246
  580SOL    HW2 2319   0.854   2.892  -0.033 -2.6676  4.6284  1.6159
  580SOL     MW 2320   0.903   2.929   0.026 -0.6357  1.0572  0.5113
  581SOL     OW 2321   1.086   2.520   1.719 -0.4912 -0.3305 -0.3642
  581SOL    HW1 2322   1.137   2.550   1.793 -4.4708 -0.4578  1.4739
  581SOL    HW2 2323   1.122   2.437   1.684  0.2658  3.0306 -2.5351
  581SOL     MW 2324   1.097   2.513   1.724 -0.9164  0.0962 -0.4081
  582SOL     OW 2325   0.008   2.831   2.540 -0.3750 -0.0001 -0.4237
  582SOL    HW1 2326  -0.008   2.905   2.593  0.7862 -0.9976 -1.1025
  582SOL    HW2 2327   0.107   2.820   2.530  0.3031 -1.1242 -1.4448
  582SOL     MW 2328   0.019   2.839   2.546 -0.1323 -0.2800 -0.6480
  583SOL     OW 2329   1.987   2.457   2.639 -0.0692  0.0652  0.1268
  583SOL    HW1 2330   2.063   2.475   2.579  3.0175  0.4731 -0.5133
  583SOL    HW2 2331   1.984   2.366   2.662  1.4094 -2.8282 -1.1145
  583SOL     MW 2332   1.997   2.447   2.634  0.5332 -0.2627 -0.1214
  584SOL     OW 2333   0.186   1.855   2.117 -0.3626  0.4257  0.3172
  584SOL    HW1 2334   0.279   1.827   2.098  1.2995 -0.2199 -0.6411
  584SOL    HW2 2335   0.194   1.925   2.179 -0.2523 -1.7713 -0.8438
  584SOL     MW 2336   0.199   1.860   2.123 -0.1288  0.0507  0.0376
  585SOL     OW 2337   1.490   2.558   0.043  0.0306  0.3667  0.7568
  585SOL    HW1 2338   1.449   2.592  -0.036 -0.1087 -1.0815 -1.6339
  585SOL    HW2 2339   1.483   2.632   0.109 -1.2396 -0.6456 -0.6930
  585SOL     MW 2340   1.483   2.572   0.041 -0.1553  0.0420  0.2501
  586SOL     OW 2341   1.235   2.996   2.379  0.0366 -0.5502 -0.1246
  586SOL    HW1 2342   1.319   2.986   2.335 -1.2713  0.8221  0.0966
  586SOL    HW2 2343   1.257   3.029   2.468  1.4888  1.5651  2.2224
  586SOL     MW 2344   1.249   2.999   2.385  0.0556 -0.0900  0.2142
  587SOL     OW 2345   1.239   1.625   2.129  0.3401  0.1339 -0.1575
  587SOL    HW1 2346   1.211   1.553   2.187 -1.3111 -0.2033 -1.2203
  587SOL    HW2 2347   1.221   1.593   2.043  0.1242 -1.9450 -2.4900
  587SOL     MW 2348   1.233   1.611   2.125  0.0937 -0.1849 -0.6055
  588SOL     OW 2349   1.406   2.110   2.722 -0.5670  0.0454 -0.0519
  588SOL    HW1 2350   1.495   2.121   2.746 -0.3680  0.0559 -2.1102
  588SOL    HW2 2351   1.346   2.111   2.800 -0.4684  0.4026 -2.3411
  588SOL     MW 2352   1.410   2.111   2.736 -0.5277  0.0939 -0.6255
  589SOL     OW 2353   1.358   2.066   0.074 -0.1372  0.1194  0.4283
  589SOL    HW1 2354   1.346   2.164   0.081  2.9147  1.0877  0.3527
  589SOL    HW2 2355   1.309   2.022   0.144 -1.7094 -0.6487 -1.5786
  589SOL     MW 2356   1.350   2.073   0.084  0.0581  0.1458  0.1536
  590SOL     OW 2357   0.415   2.608   2.245 -0.2847 -0.3407  0.2202
  590SOL    HW1 2358   0.399   2.603   2.151 -1.2576 -1.3514  0.7884
  590SOL    HW2 2359   0.488   2.665   2.258  0.0453 -0.3626 -0.1627
  590SOL     MW 2360   0.422   2.615   2.235 -0.3695 -0.4769  0.2447
  591SOL     OW 2361   2.308   0.709   3.093  0.2741  0.1909  0.6877
  591SOL    HW1 2362   2.226   0.730   3.048 -0.7011 -1.2176  0.6912
  591SOL    HW2 2363   2.373   0.773   3.059  2.0835  1.1238  1.5132
  591SOL     MW 2364   2.306   0.720   3.083  0.3842  0.1281  0.7971
  592SOL     OW 2365   1.849   3.010   0.841 -0.0337  0.3466 -0.1367
  592SOL    HW1 2366   1.869   3.045   0.757  0.7213  0.0065 -0.2942
  592SOL    HW2 2367   1.876   2.917   0.853  2.3380  0.5789 -0.9120
  592SOL     MW 2368   1.855   3.002   0.832  0.3788  0.3324 -0.2598
  593SOL     OW 2369   1.904   0.767   0.861 -0.0685 -0.7991 -0.1830
  593SOL    HW1 2370   1.841   0.751   0.785 -1.9820  0.1100 -0.8371
  593SOL    HW2 2371   1.944   0.688   0.893 -1.4221 -1.0441 -1.2533
  593SOL     MW 2372   1.901   0.755   0.855 -0.4996 -0.7115 -0.4105
  594SOL     OW 2373   2.722   1.125   1.377 -0.0769 -0.0676  0.0287
  594SOL    HW1 2374   2.816   1.146   1.387  1.5325 -2.6590  3.4939
  594SOL    HW2 2375   2.730   1.109   1.285  1.3626  1.0110  0.3872
  594SOL     MW 2376   2.735   1.126   1.366  0.3254 -0.2672  0.5332
  595SOL     OW 2377   0.450   0.944   0.703 -0.1257  0.6347 -0.6769
  595SOL    HW1 2378   0.477   1.010   0.643 -1.3515 -1.6390 -1.2367
  595SOL    HW2 2379   0.443   0.984   0.791  0.0752 -1.0739 -2.3040
  595SOL     MW 2380   0.453   0.958   0.707 -0.2609  0.1093 -0.9655
  596SOL     OW 2381   2.430   1.371   0.595 -0.2177  0.1182  0.4290
  596SOL    HW1 2382   2.445   1.454   0.550 -2.1325 -0.1592 -3.8404
  596SOL    HW2 2383   2.508   1.358   0.651  0.8560 -0.0388  1.3709
  596SOL     MW 2384   2.443   1.380   0.596 -0.3287  0.0609 -0.0101
  597SOL     OW 2385   2.183   0.654   1.730 -0.1413 -0.5366 -0.1210
  597SOL    HW1 2386   2.260   0.594   1.737  1.6432  2.2446  0.4852
  597SOL    HW2 2387   2.123   0.624   1.662  0.0468  0.4795  2.0482
  597SOL     MW 2388   2.186   0.642   1.722  0.1190 -0.0356  0.2452
  598SOL     OW 2389   2.603   1.017   2.845  0.0057 -0.0316 -0.5201
  598SOL    HW1 2390   2.666   0.973   2.775  2.3455  0.7125  2.5729
  598SOL    HW2 2391   2.670   1.066   2.898  1.0990  1.3387  1.7658
  598SOL     MW 2392   2.620   1.018   2.843  0.4587  0.2473  0.1896
  599SOL     OW 2393   2.928   0.343   2.022 -0.1099 -0.2089  0.4749
  599SOL    HW1 2394   2.895   0.381   2.105  0.1505 -1.3499 -1.7812
  599SOL    HW2 2395   2.974   0.419   1.984 -1.8843  0.5247 -0.0451
  599SOL     MW 2396   2.930   0.358   2.028 -0.3097 -0.2626  0.1086
  600SOL     OW 2397   1.894   1.725   0.880  0.1413 -0.1287 -0.2919
  600SOL    HW1 2398   1.896   1.720   0.976 -0.6663  2.4559 -1.5563
  600SOL    HW2 2399   1.813   1.778   0.863  1.8317 -1.8269 -0.1929
  600SOL     MW 2400   1.883   1.731   0.890  0.2578 -0.0118 -0.4456
  601SOL     OW 2401   2.529   0.806   0.854 -0.3359 -0.3062 -0.4323
  601SOL    HW1 2402   2.520   0.821   0.952 -0.9798  0.2146 -2.0628
  601SOL    HW2 2403   2.466   0.743   0.826 -1.6969 -0.5452  0.3796
  601SOL     MW 2404   2.519   0.799   0.863 -0.6004 -0.2690 -0.5403
  602SOL     OW 2405   2.326   1.919   0.707  0.8350 -0.0940  0.3235
  602SOL    HW1 2406   2.252   1.867   0.741 -0.0791 -0.0624 -1.0433
  602SOL    HW2 2407   2.287   1.980   0.639 -1.1996  1.4299  1.8102
  602SOL     MW 2408   2.311   1.920   0.702  0.4459  0.1113  0.3393
  603SOL     OW 2409   2.992   1.400   1.787  0.6930 -0.0741  0.1105
  603SOL    HW1 2410   3.065   1.427   1.835 -1.0721 -0.2679 -1.4395
  603SOL    HW2 2411   2.998   1.305   1.775  0.0509 -1.8164 -2.2977
  603SOL     MW 2412   3.002   1.391   1.792  0.3754 -0.3295 -0.4117
  604SOL     OW 2413   2.115   1.587   0.443 -0.1259 -0.4201 -0.1498
  604SOL    HW1 2414   2.148   1.526   0.507  1.2716  1.5141  1.3982
  604SOL    HW2 2415   2.061   1.649   0.493  0.8270 -0.1874  0.6480
  604SOL     MW 2416   2.112   1.587   0.458  0.1842 -0.1342  0.1597
  605SOL     OW 2417   2.684   1.570   0.855  0.1671 -0.4169 -0.3986
  605SOL    HW1 2418   2.602   1.601   0.821  2.4331  1.1587  1.6380
  605SOL    HW2 2419   2.676   1.477   0.871  2.6392  1.7081 -0.6006
  605SOL     MW 2420   2.672   1.562   0.852  0.7922  0.0714 -0.1565
  606SOL     OW 2421   2.571   1.764   1.962 -0.2087 -0.4622 -1.0262
  606SOL    HW1 2422   2.479   1.737   1.967  0.0742  1.2062 -1.6574
  606SOL    HW2 2423   2.609   1.682   1.927  1.9839  1.2719 -0.7188
  606SOL     MW 2424   2.564   1.750   1.958  0.1179 -0.0133 -1.0689
  607SOL     OW 2425   2.351   1.005   3.009 -0.1492  0.4324  0.3237
  607SOL    HW1 2426   2.432   1.040   2.973 -0.4047  0.8343 -0.1483
  607SOL    HW2 2427   2.345   1.044   3.100 -0.5019 -1.5748 -0.6307
  607SOL     MW 2428   2.361   1.015   3.016 -0.2295  0.2206  0.1355
  608SOL     OW 2429   1.881   0.309   0.567 -0.0614  0.7587  0.4741
  608SOL    HW1 2430   1.927   0.326   0.488 -1.9152 -0.2619 -0.8606
  608SOL    HW2 2431   1.860   0.213   0.551 -2.5377 -1.2309  0.6222
  608SOL     MW 2432   1.884   0.299   0.555 -0.6327  0.3615  0.3175
  609SOL     OW 2433   2.162   1.950   3.044  0.2674  0.2156  0.1054
  609SOL    HW1 2434   2.098   1.889   2.997  1.6518 -0.2601  0.0345
  609SOL    HW2 2435   2.163   1.925   3.136  0.3399 -0.7775 -1.1527
  609SOL     MW 2436   2.154   1.939   3.050  0.4596  0.0218 -0.0699
  610SOL     OW 2437   1.870   1.070   1.284  0.4794  0.2955 -1.0496
  610SOL    HW1 2438   1.877   1.001   1.212  0.7725  0.3335 -0.2543
  610SOL    HW2 2439   1.778   1.063   1.311 -0.7513  0.6268  0.3573
  610SOL     MW 2440   1.859   1.060   1.278  0.3557  0.3442 -0.7591
  611SOL     OW 2441   2.446   1.656   0.711  0.1343  0.4078  0.5945
  611SOL    HW1 2442   2.404   1.744   0.710 -2.9144  0.9604 -3.1330
  611SOL    HW2 2443   2.497   1.660   0.625 -0.9342 -4.8875  1.4962
  611SOL     MW 2444   2.447   1.668   0.700 -0.4089 -0.2180  0.2217
  612SOL     OW 2445   2.791   2.838   0.471 -0.0917 -0.4239 -0.3156
  612SOL    HW1 2446   2.831   2.893   0.543  0.2910 -0.2497 -0.9468
  612SOL    HW2 2447   2.866   2.823   0.414  0.4200  2.1173  0.8490
  612SOL     MW 2448   2.806   2.844   0.473  0.0263 -0.0656 -0.2453
  613SOL     OW 2449   1.553   1.040   1.088  0.1280 -0.4183 -0.5138
  613SOL    HW1 2450   1.573   1.134   1.089  1.1407 -2.8536  0.3873
  613SOL    HW2 2451   1.606   1.000   1.156 -1.0824 -0.1495 -1.0797
  613SOL     MW 2452   1.563   1.047   1.097  0.1019 -0.7042 -0.4696
  614SOL     OW 2453   2.059   0.566   1.515  0.1405 -0.0820  0.5148
  614SOL    HW1 2454   2.041   0.477   1.547 -0.1391 -2.3535 -0.1684
  614SOL    HW2 2455   2.041   0.579   1.421 -1.2515  1.3845  0.9646
  614SOL     MW 2456   2.054   0.556   1.507 -0.0800 -0.1882  0.4840
  615SOL     OW 2457   2.248   0.838   0.226 -0.6213 -0.1199  0.1240
  615SOL    HW1 2458   2.301   0.798   0.292  0.2462 -0.4385  0.2385
  615SOL    HW2 2459   2.285   0.806   0.146 -1.7034  2.1599  0.1347
  615SOL     MW 2460   2.260   0.828   0.224 -0.6496  0.1389  0.1405
  616SOL     OW 2461   2.542   0.413   1.617  1.2045 -0.8273 -0.0872
  616SOL    HW1 2462   2.510   0.355   1.550 -0.0219 -1.3240  0.8725
  616SOL    HW2 2463   2.605   0.465   1.563  1.0433 -0.6793 -0.1752
  616SOL     MW 2464   2.546   0.412   1.601  1.0214 -0.8733  0.0278
  617SOL     OW 2465   2.845   0.585   1.732 -0.7850 -0.0999  0.3326
  617SOL    HW1 2466   2.779   0.620   1.790 -2.8270  0.2526  0.8383
  617SOL    HW2 2467   2.831   0.492   1.728  2.6276  0.3132 -1.4211
  617SOL     MW 2468   2.835   0.577   1.739 -0.6042  0.0011  0.1679
  618SOL     OW 2469   2.684   0.346   1.897  0.5117 -0.1691  0.1068
  618SOL    HW1 2470   2.662   0.437   1.895  1.1214 -0.3336  0.7528
  618SOL    HW2 2471   2.765   0.346   1.949 -0.3490  0.1016 -0.3600
  618SOL     MW 2472   2.692   0.358   1.903  0.4786 -0.1551  0.1305
  619SOL     OW 2473   2.589   0.773   0.162  0.3221 -0.7611 -0.1642
  619SOL    HW1 2474   2.651   0.825   0.214 -0.7936 -0.5565 -2.2520
  619SOL    HW2 2475   2.525   0.731   0.229 -0.6699  0.4898  2.1299
  619SOL     MW 2476   2.589   0.775   0.178  0.0441 -0.5690 -0.1370
  620SOL     OW 2477   2.297   1.084   0.932  0.2962 -0.0278 -0.1533
  620SOL    HW1 2478   2.382   1.105   0.891  1.1266 -4.8356  0.8303
  620SOL    HW2 2479   2.273   0.994   0.913 -4.0084  1.9798  3.6258
  620SOL     MW 2480   2.305   1.075   0.924 -0.1622 -0.3973  0.4751
  621SOL     OW 2481   1.488   2.106   1.998  0.0326 -0.1677 -0.2687
  621SOL    HW1 2482   1.424   2.061   2.046  0.4060 -2.5674  0.9519
  621SOL    HW2 2483   1.551   2.132   2.066 -0.0723 -0.2333  1.2862
  621SOL     MW 2484   1.488   2.104   2.013  0.0680 -0.4929  0.0975
  622SOL     OW 2485   2.639   0.140   0.232  0.6295  0.2841  0.5717
  622SOL    HW1 2486   2.722   0.134   0.272 -0.5632  0.8268  0.5893
  622SOL    HW2 2487   2.637   0.058   0.176 -1.0766  2.1694 -1.6497
  622SOL     MW 2488   2.650   0.129   0.230  0.2471  0.6045  0.2810
  623SOL     OW 2489   2.346   2.722   0.888 -0.0945 -0.9811  0.3878
  623SOL    HW1 2490   2.406   2.795   0.882  1.9928 -1.1234 -0.2686
  623SOL    HW2 2491   2.292   2.742   0.962  0.5358 -0.4599  1.8778
  623SOL     MW 2492   2.347   2.734   0.897  0.2641 -0.9311  0.4978
  624SOL     OW 2493   2.262   1.657   3.044  0.1821  0.0276 -0.1913
  624SOL    HW1 2494   2.174   1.617   3.063 -2.6508 -0.0547  0.4941
  624SOL    HW2 2495   2.242   1.747   3.064 -0.9500  0.3367  0.2273
  624SOL     MW 2496   2.248   1.664   3.049 -0.3411  0.0575 -0.0457
  625SOL     OW 2497   2.124   1.954   1.067  0.2370  0.2017  0.5223
  625SOL    HW1 2498   2.188   1.903   1.113 -0.5995  0.4558 -1.2681
  625SOL    HW2 2499   2.133   1.934   0.973  1.8732  1.4554 -0.3306
  625SOL     MW 2500   2.134   1.945   1.060  0.3425  0.4006  0.1735
  626SOL     OW 2501   0.187   1.579   2.327  0.5203  0.7524 -0.4820
  626SOL    HW1 2502   0.135   1.530   2.271 -0.3575  3.2280 -2.1358
  626SOL    HW2 2503   0.132   1.597   2.405 -1.4232 -2.4865 -0.1887
  626SOL     MW 2504   0.173   1.575   2.330  0.1480  0.6517 -0.6615
  627SOL     OW 2505   2.487   0.827   2.605  0.8479  0.5385  0.4395
  627SOL    HW1 2506   2.448   0.917   2.607 -0.7320 -0.7071  2.3361
  627SOL    HW2 2507   2.467   0.799   2.515 -0.8532 -2.5244  0.7792
  627SOL     MW 2508   2.479   0.836   2.593  0.4150 -0.0299  0.7346
  628SOL     OW 2509   2.257   1.357   1.368 -0.2347 -0.5614  0.2338
  628SOL    HW1 2510   2.228   1.293   1.310 -0.4060  1.8547 -0.8012
  628SOL    HW2 2511   2.353   1.357   1.361  1.1447 -0.5689  0.1963
  628SOL     MW 2512   2.266   1.349   1.359 -0.0753 -0.2436  0.0923
  629SOL     OW 2513   1.998   0.542   1.232 -0.3471 -0.2714  0.6177
  629SOL    HW1 2514   2.064   0.609   1.200 -1.4759  2.0371 -2.9523
  629SOL    HW2 2515   1.914   0.588   1.239 -1.5210 -1.3269 -1.4889
  629SOL     MW 2516   1.996   0.557   1.229 -0.6509 -0.1061 -0.1312
  630SOL     OW 2517   2.506   1.819   3.013 -0.0707  0.5406 -0.5726
  630SOL    HW1 2518   2.444   1.885   2.977 -1.1157  2.0132 -0.8818
  630SOL    HW2 2519   2.456   1.748   3.043 -1.4256 -1.6084  0.3688
  630SOL     MW 2520   2.491   1.818   3.012 -0.3873  0.4514 -0.4892
  631SOL     OW 2521   1.983   1.809   1.568  0.5226  0.3047  0.0342
  631SOL    HW1 2522   2.044   1.741   1.598  0.1237 -0.1427  0.3240
  631SOL    HW2 2523   1.947   1.766   1.488 -2.7639 -0.2599  0.4354
  631SOL     MW 2524   1.986   1.794   1.561  0.0363  0.1712  0.1254
  632SOL     OW 2525   0.118   2.086   1.525 -0.8342 -0.1890 -0.2513
  632SOL    HW1 2526   0.064   2.083   1.610 -0.9863  0.9312 -1.9040
  632SOL    HW2 2527   0.149   1.993   1.493  0.7475  0.7476 -1.3303
  632SOL     MW 2528   0.115   2.073   1.532 -0.6456  0.0824 -0.6117
  633SOL     OW 2529   2.429   0.664   0.365  0.5164 -0.1573  0.4138
  633SOL    HW1 2530   2.507   0.630   0.412  0.8756 -1.4100  1.7779
  633SOL    HW2 2531   2.372   0.585   0.377  1.0249  1.0538 -0.5226
  633SOL     MW 2532   2.432   0.649   0.372  0.6309 -0.1628  0.4702
  634SOL     OW 2533   2.647   0.008   0.672 -0.2583  0.5356  0.4371
  634SOL    HW1 2534   2.685   0.094   0.675 -2.3053  2.2183  0.6880
  634SOL    HW2 2535   2.599  -0.005   0.586  1.0951  0.0206  0.0781
  634SOL     MW 2536   2.646   0.017   0.661 -0.3498  0.6897  0.4228
  635SOL     OW 2537   2.594   0.080   1.805 -0.2229  0.1420  0.0957
  635SOL    HW1 2538   2.654   0.032   1.749  2.8805 -0.0179  2.3541
  635SOL    HW2 2539   2.630   0.166   1.822  0.4531 -0.0435 -2.0844
  635SOL     MW 2540   2.606   0.085   1.800  0.2758  0.0964  0.1061
  636SOL     OW 2541   2.914   1.687   0.964 -0.4458  0.2501  0.0430
  636SOL    HW1 2542   2.819   1.696   0.937 -0.5922  3.8326 -1.0643
  636SOL    HW2 2543   2.926   1.695   1.059 -2.5931  0.8407  0.8626
  636SOL     MW 2544   2.903   1.689   0.973 -0.7484  0.8007  0.0051
  637SOL     OW 2545   2.872   1.497   0.676  0.1427  0.1973  0.1511
  637SOL    HW1 2546   2.918   1.574   0.698 -0.8552  1.9548 -1.8187
  637SOL    HW2 2547   2.788   1.514   0.726  0.4424 -0.1060 -0.2394
  637SOL     MW 2548   2.867   1.509   0.686  0.0506  0.3892 -0.1603
  638SOL     OW 2549   2.673   0.630   0.513  0.3961 -0.3754 -0.0433
  638SOL    HW1 2550   2.753   0.620   0.465  1.1725 -0.3014 -1.4541
  638SOL    HW2 2551   2.694   0.600   0.600  1.1232 -0.5533 -1.1371
  638SOL     MW 2552   2.686   0.625   0.518  0.5945 -0.3892 -0.3737
  639SOL     OW 2553   1.824   0.038   0.515 -0.3839  0.1117 -0.5805
  639SOL    HW1 2554   1.738   0.070   0.500  0.9496  3.4633  0.6537
  639SOL    HW2 2555   1.829  -0.030   0.449 -3.5937 -0.6236  0.1566
  639SOL     MW 2556   1.813   0.033   0.504 -0.6315  0.4569 -0.3204
  640SOL     OW 2557   0.335   1.364   0.060 -0.1088  0.4826  0.0139
  640SOL    HW1 2558   0.356   1.386  -0.035  0.0486 -0.0734 -1.5957
  640SOL    HW2 2559   0.289   1.283   0.054  2.0643  1.9110 -0.4800
  640SOL     MW 2560   0.332   1.356   0.046  0.1987  0.5977 -0.2636
  641SOL     OW 2561   2.257   0.458   0.369 -0.3515  0.0713 -0.3499
  641SOL    HW1 2562   2.295   0.454   0.280 -0.9092 -0.3002  0.5682
  641SOL    HW2 2563   2.313   0.399   0.418 -0.4830 -2.1799 -1.8795
  641SOL     MW 2564   2.270   0.449   0.364 -0.4424 -0.2747 -0.4306
  642SOL     OW 2565   0.030   3.081   0.569  0.2699  0.0494  0.1240
  642SOL    HW1 2566  -0.000   3.166   0.538 -1.4753 -1.0233  1.3648
  642SOL    HW2 2567  -0.056   3.045   0.602  1.2570 -3.4666 -0.5606
  642SOL     MW 2568   0.015   3.088   0.569  0.1699 -0.5560  0.1974
  643SOL     OW 2569   2.029   0.344   1.699  0.3828 -0.0091  0.1114
  643SOL    HW1 2570   2.091   0.362   1.767 -0.1433  0.2461  0.3764
  643SOL    HW2 2571   2.050   0.271   1.642  0.5894  0.0887  2.6614
  643SOL     MW 2572   2.040   0.337   1.700  0.3407  0.0375  0.4828
  644SOL     OW 2573   2.707   1.897   1.045 -0.1539  0.5672  0.6076
  644SOL    HW1 2574   2.686   1.831   1.115 -0.4751  1.1807 -0.1156
  644SOL    HW2 2575   2.624   1.927   1.011  1.8704  1.8598 -3.2784
  644SOL     MW 2576   2.693   1.892   1.050  0.0708  0.8187 -0.0005
  645SOL     OW 2577   2.830   0.891   0.658  0.0477  0.2059 -0.0124
  645SOL    HW1 2578   2.911   0.866   0.701  0.8072 -0.1684  1.0615
  645SOL    HW2 2579   2.800   0.816   0.606  1.6619 -2.1972 -0.4973
  645SOL     MW 2580   2.837   0.878   0.657  0.3609 -0.1606  0.0653
  646SOL     OW 2581   0.173   2.258   0.861 -0.1360  0.1420 -0.3737
  646SOL    HW1 2582   0.208   2.166   0.853 -1.6310 -1.7266  0.3152
  646SOL    HW2 2583   0.106   2.257   0.787  0.8417 -1.1523  0.6682
  646SOL     MW 2584   0.169   2.246   0.850 -0.2043 -0.2753 -0.1453
  647SOL     OW 2585   2.684   0.513   2.978 -0.4152 -0.6397  0.2417
  647SOL    HW1 2586   2.619   0.455   3.029 -2.7117 -2.1492 -2.4470
  647SOL    HW2 2587   2.640   0.592   2.968  1.1357 -3.0985  1.9377
  647SOL     MW 2588   2.669   0.515   2.984 -0.5136 -1.1633  0.1107
  648SOL     OW 2589   2.184   0.722   1.169  0.1775  0.1919  0.1217
  648SOL    HW1 2590   2.187   0.757   1.082 -0.8238 -3.0017  0.2074
  648SOL    HW2 2591   2.216   0.793   1.225  0.3687 -0.7881  0.0975
  648SOL     MW 2592   2.189   0.736   1.165  0.0706 -0.3588  0.1298
  649SOL     OW 2593   2.403   2.736   1.260  0.2979  0.0636  0.0095
  649SOL    HW1 2594   2.490   2.772   1.259 -1.7277  0.7278  0.6188
  649SOL    HW2 2595   2.409   2.642   1.251 -0.4576  0.7968 -1.0207
  649SOL     MW 2596   2.415   2.729   1.258 -0.0691  0.2480 -0.0460
  650SOL     OW 2597   2.814   0.227   0.669  0.0611 -0.5654  0.0806
  650SOL    HW1 2598   2.872   0.269   0.738 -0.7117  1.2449  1.0711
  650SOL    HW2 2599   2.860   0.242   0.586  0.8648 -0.3451  1.8170
  650SOL     MW 2600   2.828   0.235   0.667  0.0652 -0.2975  0.4404
  651SOL     OW 2601   2.975   0.377   0.838 -0.4956  0.3732 -0.2996
  651SOL    HW1 2602   3.057   0.406   0.786 -0.1900  0.1373  0.2588
  651SOL    HW2 2603   2.965   0.449   0.903  1.8388 -1.7736  0.1465
  651SOL     MW 2604   2.984   0.390   0.840 -0.1473  0.0588 -0.1670
  652SOL     OW 2605   2.404   1.428   2.973  0.1655  1.0700  0.0971
  652SOL    HW1 2606   2.450   1.435   2.889 -0.8094  1.6012  2.3364
  652SOL    HW2 2607   2.351   1.512   2.971  0.2552  0.0121  0.1333
  652SOL     MW 2608   2.403   1.440   2.961  0.0487  1.0005  0.3973
  653SOL     OW 2609   1.952   0.427   0.325 -0.0431 -0.1763 -0.6318
  653SOL    HW1 2610   1.904   0.359   0.280 -0.8208 -0.4487 -0.3665
  653SOL    HW2 2611   2.045   0.425   0.304  1.4197  4.6303 -0.3115
  653SOL     MW 2612   1.958   0.418   0.316  0.0473  0.4220 -0.5545
  654SOL     OW 2613   2.474   1.039   0.733  0.0178  0.0493 -0.1096
  654SOL    HW1 2614   2.383   1.038   0.702 -0.8457 -0.7038 -0.0517
  654SOL    HW2 2615   2.496   0.955   0.774  3.7331  0.2237 -0.8368
  654SOL     MW 2616   2.465   1.028   0.734  0.3941 -0.0271 -0.1979
  655SOL     OW 2617   2.993   0.920   0.410 -0.2650  0.3210 -0.2791
  655SOL    HW1 2618   2.954   0.940   0.494  2.3506 -1.0880  0.8748
  655SOL    HW2 2619   2.975   0.821   0.402 -2.6008 -1.9388  0.7781
  655SOL     MW 2620   2.986   0.910   0.420 -0.2281 -0.1631  0.0126
  656SOL     OW 2621   1.954   2.706   1.216 -0.1219 -1.2004 -0.4003
  656SOL    HW1 2622   1.948   2.784   1.276 -0.3251  0.6338  1.2540
  656SOL    HW2 2623   1.987   2.636   1.272 -0.5089  4.0302  1.8701
  656SOL     MW 2624   1.958   2.707   1.231 -0.1998 -0.2682  0.1175
  657SOL     OW 2625   0.222   1.529   1.237 -0.3195  0.4278  0.2684
  657SOL    HW1 2626   0.128   1.524   1.241  1.6816 -0.0892  0.1756
  657SOL    HW2 2627   0.249   1.538   1.148 -0.2253 -1.0545  0.5484
  657SOL     MW 2628   0.213   1.530   1.225 -0.0431  0.1640  0.2931
  658SOL     OW 2629   2.711   1.384   0.249 -0.1039 -0.4334  0.0170
  658SOL    HW1 2630   2.663   1.311   0.287 -0.5214 -1.4688 -2.4408
  658SOL    HW2 2631   2.773   1.431   0.305 -0.4455  0.4408 -1.6291
  658SOL     MW 2632   2.713   1.381   0.262 -0.2040 -0.4546 -0.5245
  659SOL     OW 2633   2.289   1.534   1.044  0.6397 -0.5129 -0.5212
  659SOL    HW1 2634   2.368   1.512   1.084 -4.2233  2.2040 -1.2889
  659SOL    HW2 2635   2.235   1.544   1.124  0.1876 -2.3221  0.1119
  659SOL     MW 2636   2.293   1.533   1.060 -0.0616 -0.3932 -0.5389
  660SOL     OW 2637   2.077   1.564   1.689  0.2990 -0.0057  0.7039
  660SOL    HW1 2638   2.076   1.597   1.784  0.7811 -0.7015 -1.1647
  660SOL    HW2 2639   2.011   1.499   1.691  0.8522 -0.3838 -1.4444
  660SOL     MW 2640   2.068   1.560   1.702  0.4356 -0.1474  0.1739
  661SOL     OW 2641   2.403   1.118   0.157  0.0754 -0.0996 -0.8531
  661SOL    HW1 2642   2.456   1.150   0.227 -1.3140  0.9324  0.1172
  661SOL    HW2 2643   2.380   1.029   0.178 -0.0598  1.2332 -0.4474
  661SOL     MW 2644   2.407   1.111   0.169 -0.1257  0.2124 -0.6716
  662SOL     OW 2645   2.531   2.960   0.878  0.2252 -0.5268  0.4043
  662SOL    HW1 2646   2.469   3.025   0.916  2.6243 -1.0811 -0.1762
  662SOL    HW2 2647   2.572   3.011   0.807  1.3671 -0.5297 -0.5318
  662SOL     MW 2648   2.528   2.976   0.873  0.6924 -0.6003  0.2042
  663SOL     OW 2649   2.826   1.567   0.422  0.8493  0.0413 -0.3189
  663SOL    HW1 2650   2.884   1.629   0.387 -0.2107 -1.5589  1.3620
  663SOL    HW2 2651   2.849   1.546   0.510 -0.8582  2.4311 -2.1587
  663SOL     MW 2652   2.837   1.573   0.429  0.4842  0.1455 -0.3398
  664SOL     OW 2653   2.486   1.586   1.550 -0.4218 -0.4707  0.1632
  664SOL    HW1 2654   2.463   1.677   1.536  1.9941 -1.1486  4.7535
  664SOL    HW2 2655   2.399   1.550   1.549 -1.4175  0.3404  2.0444
  664SOL     MW 2656   2.472   1.593   1.548 -0.2344 -0.4531  1.0170
  665SOL     OW 2657   2.876   0.807   2.061 -0.4007  0.2697  0.3019
  665SOL    HW1 2658   2.853   0.841   1.978  1.9282  1.8221 -0.3235
  665SOL    HW2 2659   2.931   0.734   2.034  1.3636  0.6751 -1.9846
  665SOL     MW 2660   2.880   0.802   2.047  0.1394  0.5280 -0.0823
  666SOL     OW 2661   2.778   3.046   1.688 -0.1146  0.5548 -0.0070
  666SOL    HW1 2662   2.811   3.058   1.599 -0.5533  3.7178  0.9180
  666SOL    HW2 2663   2.761   2.952   1.707  0.6759 -2.7188 -1.7673
  666SOL     MW 2664   2.780   3.035   1.679 -0.0681  0.5402 -0.1172
  667SOL     OW 2665   1.972   2.705   1.614  0.3217 -0.2319 -0.0336
  667SOL    HW1 2666   1.963   2.643   1.689 -2.3596 -0.0218 -0.2694
  667SOL    HW2 2667   2.055   2.755   1.640 -1.2656 -1.8121  0.8482
  667SOL     MW 2668   1.982   2.704   1.628 -0.2415 -0.4127  0.0516
  668SOL     OW 2669   2.740   0.620   0.773 -0.1362  0.3786  0.4787
  668SOL    HW1 2670   2.828   0.624   0.800 -1.6819 -0.0169 -0.9400
  668SOL    HW2 2671   2.693   0.684   0.829  3.5266 -1.1085 -0.5954
  668SOL     MW 2672   2.746   0.629   0.784  0.1432  0.1302  0.1498
  669SOL     OW 2673   0.181   0.928   0.708  0.1613  0.4427 -0.6399
  669SOL    HW1 2674   0.144   1.018   0.710 -1.4156  0.9753 -0.2818
  669SOL    HW2 2675   0.282   0.944   0.686 -0.5141  0.7259  0.2625
  669SOL     MW 2676   0.189   0.942   0.705 -0.1359  0.5503 -0.4736
  670SOL     OW 2677   2.946   0.289   0.191  0.1193  0.0273  0.0424
  670SOL    HW1 2678   2.937   0.220   0.119 -0.3845 -0.6604 -1.3032
  670SOL    HW2 2679   2.930   0.375   0.144  0.9017  1.7194  0.6635
  670SOL     MW 2680   2.943   0.291   0.175  0.1560  0.1599 -0.0532
  671SOL     OW 2681   2.158   3.074   1.602  0.0063 -0.6899 -0.5099
  671SOL    HW1 2682   2.123   3.110   1.524  1.8011 -0.5055  1.2758
  671SOL    HW2 2683   2.078   3.090   1.665 -1.0335  3.0959  0.8065
  671SOL     MW 2684   2.143   3.081   1.600  0.1059 -0.1661 -0.1006
  672SOL     OW 2685   1.871   1.707   1.335  0.6309 -0.1110 -0.4673
  672SOL    HW1 2686   1.778   1.729   1.355 -2.9995  0.1431  1.7746
  672SOL    HW2 2687   1.880   1.776   1.270 -0.7657 -2.9808  2.0455
  672SOL     MW 2688   1.860   1.719   1.329 -0.0324 -0.4561  0.1600
  673SOL     OW 2689   2.775   1.111   0.498  0.3526 -0.1840  0.1457
  673SOL    HW1 2690   2.778   1.026   0.546  0.2798 -0.5983 -0.8931
  673SOL    HW2 2691   2.858   1.168   0.526  1.3134  0.5369  2.4004
  673SOL     MW 2692   2.786   1.107   0.508  0.4697 -0.1435  0.3061
  674SOL     OW 2693   2.486   0.082   1.257  0.3552 -0.1347 -0.9430
  674SOL    HW1 2694   2.456   0.092   1.167 -1.7654 -1.6349  2.6385
  674SOL    HW2 2695   2.523  -0.010   1.262 -0.0696  2.0864  0.8395
  674SOL     MW 2696   2.487   0.071   1.246  0.0194 -0.0396 -0.2353
  675SOL     OW 2697   2.999   1.027   1.107  0.2451 -0.3307 -0.1809
  675SOL    HW1 2698   3.033   0.969   1.173  0.2481 -0.2520 -2.7331
  675SOL    HW2 2699   3.073   1.076   1.079 -0.9031 -1.3087  0.5985
  675SOL     MW 2700   3.013   1.026   1.112  0.0940 -0.4493 -0.4148
  676SOL     OW 2701   2.806   1.509   1.603  0.7059  0.4307 -0.1720
  676SOL    HW1 2702   2.782   1.417   1.584  0.7299 -3.1232  0.9902
  676SOL    HW2 2703   2.876   1.493   1.667 -3.7934  1.2996  0.5006
  676SOL     MW 2704   2.812   1.495   1.609  0.1154  0.0764  0.0701
  677SOL     OW 2705   2.414   0.797   1.888 -0.0807 -0.2645 -0.3134
  677SOL    HW1 2706   2.381   0.715   1.843 -0.6570 -3.2805  0.6019
  677SOL    HW2 2707   2.351   0.817   1.958 -2.5391 -1.0713  2.0921
  677SOL     MW 2708   2.402   0.789   1.892 -0.4811 -0.7689  0.1247
  678SOL     OW 2709   2.537   1.598   0.464 -0.3298  0.0634 -0.0708
  678SOL    HW1 2710   2.522   1.679   0.409 -1.0355  1.4432 -2.3120
  678SOL    HW2 2711   2.618   1.563   0.422  2.1626  0.2260 -1.7430
  678SOL     MW 2712   2.546   1.604   0.451 -0.0940  0.2669 -0.5872
  679SOL     OW 2713   2.335   0.498   1.097 -0.8883  0.2644  0.1554
  679SOL    HW1 2714   2.271   0.425   1.115 -2.8607  0.5451 -1.0438
  679SOL    HW2 2715   2.299   0.563   1.158 -0.8665  1.6188  0.9647
  679SOL     MW 2716   2.321   0.497   1.108 -1.1457  0.4801  0.1040
  680SOL     OW 2717   2.380   0.273   1.441  0.1180  0.7154 -0.7079
  680SOL    HW1 2718   2.351   0.216   1.514 -0.1062 -4.2731  1.3394
  680SOL    HW2 2719   2.418   0.202   1.386 -0.3591 -0.9403  1.7133
  680SOL     MW 2720   2.381   0.256   1.443  0.0254 -0.1613 -0.1183
  681SOL     OW 2721   0.300   0.545   1.586  0.4192  0.3114  0.1218
  681SOL    HW1 2722   0.258   0.478   1.639 -1.0405  0.0677 -2.1138
  681SOL    HW2 2723   0.391   0.539   1.599  0.1526  1.7369 -2.7789
  681SOL     MW 2724   0.306   0.536   1.595  0.1915  0.4673 -0.5559
  682SOL     OW 2725   0.139   2.986   1.491 -0.4263 -0.0488 -0.2748
  682SOL    HW1 2726   0.129   3.083   1.467  1.2029  0.9970 -0.9968
  682SOL    HW2 2727   0.062   2.966   1.551  1.7021 -2.8440  1.5398
  682SOL     MW 2728   0.128   2.996   1.496  0.0695 -0.2796 -0.1306
  683SOL     OW 2729   2.069   0.814   3.012  0.3117 -0.2085  0.1887
  683SOL    HW1 2730   1.990   0.787   2.967 -0.7709  0.6629  2.1976
  683SOL    HW2 2731   2.036   0.876   3.072  1.8018  0.9746  0.7311
  683SOL     MW 2732   2.054   0.818   3.014  0.3654  0.0626  0.5253
  684SOL     OW 2733   2.168   1.765   0.864 -0.0056 -0.2577  0.6799
  684SOL    HW1 2734   2.077   1.734   0.867  2.2243 -0.8141 -0.4603
  684SOL    HW2 2735   2.226   1.701   0.906 -3.2567  1.5671  1.3008
  684SOL     MW 2736   2.163   1.753   0.870 -0.1403 -0.0903  0.6114
  685SOL     OW 2737   2.564   1.733   1.225  0.1590 -0.3972  0.4862
  685SOL    HW1 2738   2.628   1.724   1.294 -0.6564  2.0723  1.5962
  685SOL    HW2 2739   2.540   1.643   1.205 -0.4606 -0.8539 -2.6627
  685SOL     MW 2740   2.569   1.720   1.232 -0.0303 -0.1316  0.2172
  686SOL     OW 2741   2.891   0.714   1.485  0.1326 -0.0340 -0.5757
  686SOL    HW1 2742   2.883   0.643   1.550 -1.2978 -0.7510 -0.3746
  686SOL    HW2 2743   2.928   0.688   1.405 -2.6729 -0.0655 -0.1425
  686SOL     MW 2744   2.895   0.701   1.483 -0.4263 -0.1328 -0.4920
  687SOL     OW 2745   2.166   0.311   1.210 -0.1735 -0.1807  0.4277
  687SOL    HW1 2746   2.122   0.266   1.133 -0.6839  1.6389 -2.3372
  687SOL    HW2 2747   2.097   0.368   1.243  0.5571 -0.9045 -1.3481
  687SOL     MW 2748   2.151   0.312   1.204 -0.1444 -0.0361 -0.1714
  688SOL     OW 2749   2.390   0.562   1.458  0.3348  0.5972  0.1551
  688SOL    HW1 2750   2.430   0.500   1.523 -1.4414 -0.3549  0.0066
  688SOL    HW2 2751   2.320   0.507   1.431 -2.3644  2.0804  0.2019
  688SOL     MW 2752   2.386   0.547   1.463 -0.2557  0.6673  0.1417
  689SOL     OW 2753   2.578   0.764   2.993 -0.4537 -0.5971 -0.0088
  689SOL    HW1 2754   2.590   0.839   2.936 -1.3355 -0.5750  0.3860
  689SOL    HW2 2755   2.597   0.781   3.089  1.3388  3.6037  1.5668
  689SOL     MW 2756   2.582   0.776   2.998 -0.3335 -0.0399  0.2512
  690SOL     OW 2757   2.097   0.972   1.945  0.3738 -0.0231 -0.3777
  690SOL    HW1 2758   2.039   0.893   1.951  0.3400 -0.2598 -0.1161
  690SOL    HW2 2759   2.121   0.981   1.848 -2.4969  1.8207 -3.2715
  690SOL     MW 2760   2.092   0.963   1.933 -0.0094  0.1889 -0.7250
  691SOL     OW 2761   2.447   0.249   0.821 -0.0797  0.1961 -0.3369
  691SOL    HW1 2762   2.529   0.291   0.844 -1.6565 -0.1299  0.7712
  691SOL    HW2 2763   2.370   0.316   0.835 -2.1212  3.0917 -0.5198
  691SOL     MW 2764   2.447   0.264   0.826 -0.5571  0.5351 -0.2149
  692SOL     OW 2765   2.806   1.705   1.410  0.2031  0.1404  0.5424
  692SOL    HW1 2766   2.819   1.628   1.464  0.8808  2.3067 -1.1631
  692SOL    HW2 2767   2.835   1.777   1.455 -0.6703 -4.5619  0.7915
  692SOL     MW 2768   2.812   1.705   1.423  0.1773 -0.1942  0.3503
  693SOL     OW 2769   2.294   0.461   0.095  0.5536 -0.4163  0.2247
  693SOL    HW1 2770   2.229   0.412   0.059  2.5943  5.3116 -0.1930
  693SOL    HW2 2771   2.300   0.548   0.048  2.8440 -0.0716  0.7287
  693SOL     MW 2772   2.286   0.466   0.084  1.1250  0.3849  0.2361
  694SOL     OW 2773   1.960   1.249   1.124 -0.2508 -0.1227 -0.6027
  694SOL    HW1 2774   2.050   1.220   1.134  0.4988  2.3611 -1.6863
  694SOL    HW2 2775   1.904   1.178   1.162  0.4337 -2.6497 -1.8419
  694SOL     MW 2776   1.964   1.236   1.131 -0.0616 -0.1284 -0.9092
  695SOL     OW 2777   2.948   1.452   1.306  0.0930 -0.0907  0.3155
  695SOL    HW1 2778   2.941   1.419   1.213 -0.0993 -1.0022 -1.1365
  695SOL    HW2 2779   2.910   1.540   1.295 -1.4669  0.2330  0.0724
  695SOL     MW 2780   2.942   1.459   1.292 -0.1382 -0.1682  0.0918
  696SOL     OW 2781   2.088   1.392   0.913  0.7561 -0.0294  0.1937
  696SOL    HW1 2782   2.169   1.436   0.930  2.1909 -0.4732 -0.5530
  696SOL    HW2 2783   2.066   1.360   1.003 -2.3935 -0.1617  2.8966
  696SOL     MW 2784   2.096   1.393   0.927  0.5298 -0.1054  0.4518
  697SOL     OW 2785   2.879   1.020   2.251  0.2967  1.1383 -0.9956
  697SOL    HW1 2786   2.825   1.082   2.206  1.9152 -1.4551  0.8904
  697SOL    HW2 2787   2.884   0.937   2.199  0.1236 -0.0469  1.3826
  697SOL     MW 2788   2.872   1.017   2.238  0.4874  0.6397 -0.4330
  698SOL     OW 2789   2.529   0.345   0.024 -0.2624  0.2100 -0.3739
  698SOL    HW1 2790   2.450   0.385   0.044  0.7565  2.4584 -0.6450
  698SOL    HW2 2791   2.554   0.297   0.107  1.1262 -3.5352  1.1813
  698SOL     MW 2792   2.522   0.344   0.037  0.0552  0.0125 -0.2045
  699SOL     OW 2793   1.864   1.629   2.068 -0.0197  0.1737  0.0585
  699SOL    HW1 2794   1.841   1.534   2.068 -0.0619  2.1668 -0.0174
  699SOL    HW2 2795   1.944   1.636   2.014 -0.6104  0.5581 -0.5257
  699SOL     MW 2796   1.871   1.617   2.061 -0.1032  0.4874 -0.0286
  700SOL     OW 2797   2.717   0.905   1.554 -0.2994 -0.0336  0.0560
  700SOL    HW1 2798   2.729   0.977   1.493  1.9043  0.3676  1.0990
  700SOL    HW2 2799   2.782   0.837   1.530 -2.3231  3.0412 -0.2991
  700SOL     MW 2800   2.727   0.906   1.543 -0.2756  0.4250  0.1468
  701SOL     OW 2801   1.670   1.280   2.627 -0.4603 -0.3493 -0.2634
  701SOL    HW1 2802   1.768   1.288   2.634 -0.3717  0.1546 -0.6886
  701SOL    HW2 2803   1.633   1.347   2.683  0.3243 -1.7773 -1.0373
  701SOL     MW 2804   1.678   1.290   2.636 -0.3451 -0.4712 -0.4216
  702SOL     OW 2805   2.242   0.427   0.820 -0.4965 -0.2425  0.6667
  702SOL    HW1 2806   2.215   0.363   0.748 -1.1171 -2.6046  0.7575
  702SOL    HW2 2807   2.302   0.496   0.786  0.0659  1.4938 -0.0490
  702SOL     MW 2808   2.246   0.427   0.806 -0.5042 -0.3251  0.5843
  703SOL     OW 2809   2.671   1.293   0.980  0.7591  0.6910  0.3220
  703SOL    HW1 2810   2.673   1.255   0.894  3.2190  0.8899  0.5794
  703SOL    HW2 2811   2.684   1.214   1.037 -1.2494 -2.7532  0.9659
  703SOL     MW 2812   2.673   1.277   0.976  0.8186  0.2628  0.4409
  704SOL     OW 2813   0.015   1.322   0.263 -0.1816  0.1264  0.3631
  704SOL    HW1 2814  -0.067   1.288   0.222 -1.2389  4.8874 -1.7969
  704SOL    HW2 2815   0.087   1.252   0.266  1.6375  0.1470  2.9054
  704SOL     MW 2816   0.014   1.308   0.258 -0.0811  0.7573  0.4135
  705SOL     OW 2817   2.139   1.611   1.262 -0.4066  0.9134 -0.1905
  705SOL    HW1 2818   2.044   1.630   1.287 -2.9037  2.2081 -1.5531
  705SOL    HW2 2819   2.177   1.530   1.314  0.3569 -0.1213  0.6165
  705SOL     MW 2820   2.131   1.603   1.272 -0.6354  0.9477 -0.2638
  706SOL     OW 2821   3.003   1.245   0.593 -0.1428 -0.0003 -0.0621
  706SOL    HW1 2822   3.091   1.212   0.596 -1.4431 -2.2047  2.4098
  706SOL    HW2 2823   3.004   1.337   0.606  0.4081  0.9413 -0.3286
  706SOL     MW 2824   3.015   1.253   0.596 -0.2417 -0.1669  0.2289
  707SOL     OW 2825   2.382   0.060   0.997 -0.3338  0.2479 -0.3246
  707SOL    HW1 2826   2.405   0.126   0.931 -1.3298  0.1835  0.2370
  707SOL    HW2 2827   2.292   0.085   1.004  1.1980 -0.8472 -0.4882
  707SOL     MW 2828   2.373   0.072   0.990 -0.2631  0.0949 -0.2721
  708SOL     OW 2829   2.536   1.574   0.094  0.0070  0.3170  0.3109
  708SOL    HW1 2830   2.574   1.496   0.128 -1.6507 -0.6177 -0.3629
  708SOL    HW2 2831   2.480   1.541   0.019  0.1942  2.7193  1.7463
  708SOL     MW 2832   2.533   1.559   0.088 -0.1870  0.5107  0.4114
  709SOL     OW 2833   1.676   1.783   0.088 -0.2740 -0.3994 -0.2006
  709SOL    HW1 2834   1.626   1.850   0.042  0.0205 -3.1367  3.0911
  709SOL    HW2 2835   1.626   1.726   0.149  0.8633  0.3788  2.2383
  709SOL     MW 2836   1.663   1.784   0.090 -0.0851 -0.6579  0.5555
  710SOL     OW 2837   2.200   1.147   1.180 -0.8210 -0.3570  0.3778
  710SOL    HW1 2838   2.248   1.139   1.092 -2.1479 -0.9173 -0.3269
  710SOL    HW2 2839   2.225   1.063   1.229  0.2850 -1.6358  1.5161
  710SOL     MW 2840   2.209   1.135   1.175 -0.8501 -0.5996  0.4350
  711SOL     OW 2841   2.338   0.150   1.693 -0.2257 -0.3662  0.7369
  711SOL    HW1 2842   2.403   0.083   1.706 -2.4590 -0.3488  1.0963
  711SOL    HW2 2843   2.269   0.081   1.667 -1.8711 -2.3550 -0.9885
  711SOL     MW 2844   2.338   0.132   1.691 -0.7374 -0.6263  0.5566
  712SOL     OW 2845   1.644   0.606   3.048  0.8569  0.5437  0.3590
  712SOL    HW1 2846   1.696   0.641   2.974 -0.9030  1.0620  0.8156
  712SOL    HW2 2847   1.644   0.675   3.107  1.5720 -0.0426 -1.0552
  712SOL     MW 2848   1.651   0.620   3.046  0.7190  0.5347  0.2327
  713SOL     OW 2849   2.584   0.827   1.138 -0.0818  0.1470 -0.0452
  713SOL    HW1 2850   2.599   0.733   1.113 -0.4588 -0.7386 -3.2430
  713SOL    HW2 2851   2.553   0.814   1.234 -0.1582 -1.2066 -1.4145
  713SOL     MW 2852   2.582   0.813   1.147 -0.1416 -0.1485 -0.6478
  714SOL     OW 2853   2.238   0.142   1.965 -0.5270  0.3945 -0.3487
  714SOL    HW1 2854   2.273   0.130   2.055 -0.6497 -0.6975 -0.4813
  714SOL    HW2 2855   2.309   0.150   1.900  0.9901 -0.7445 -0.9725
  714SOL     MW 2856   2.252   0.142   1.968 -0.3430  0.1001 -0.4485
  715SOL     OW 2857   1.746   1.910   1.720 -0.8338  0.2716 -0.0500
  715SOL    HW1 2858   1.836   1.903   1.677  1.8945  1.9700 -0.2044
  715SOL    HW2 2859   1.737   1.830   1.776  0.4513 -0.5798  1.6592
  715SOL     MW 2860   1.757   1.898   1.722 -0.3042  0.3833  0.1552
  716SOL     OW 2861   2.385   0.629   0.689  0.7330 -0.4424  0.4927
  716SOL    HW1 2862   2.404   0.564   0.618  0.3969 -0.2933 -0.7264
  716SOL    HW2 2863   2.324   0.685   0.643  2.0528  0.8824  2.0489
  716SOL     MW 2864   2.379   0.628   0.673  0.8628 -0.2479  0.5371
  717SOL     OW 2865   2.835   1.460   2.944  0.1437  0.1339 -0.4039
  717SOL    HW1 2866   2.933   1.470   2.946  0.4974  1.7347  1.7515
  717SOL    HW2 2867   2.800   1.522   3.018 -0.8573  1.0367  0.7322
  717SOL     MW 2868   2.843   1.470   2.954  0.0583  0.4642  0.0303
  718SOL     OW 2869   2.537   1.324   1.397  0.2374 -0.2037 -0.2275
  718SOL    HW1 2870   2.554   1.373   1.472  0.2709  0.6335 -1.0822
  718SOL    HW2 2871   2.587   1.241   1.409 -1.8502  0.1392  1.1797
  718SOL     MW 2872   2.545   1.320   1.408 -0.0336 -0.0480 -0.1546
  719SOL     OW 2873   2.154   1.375   0.647 -0.2330  0.2284 -0.3662
  719SOL    HW1 2874   2.255   1.370   0.650  1.7995  4.2965  2.1485
  719SOL    HW2 2875   2.136   1.386   0.744  2.6228  0.5512  0.5034
  719SOL     MW 2876   2.165   1.376   0.660  0.4120  0.8077  0.0803
  720SOL     OW 2877   2.890   1.221   0.136  0.0076 -0.2529 -0.1446
  720SOL    HW1 2878   2.871   1.138   0.178 -0.1778 -1.2277 -1.1273
  720SOL    HW2 2879   2.830   1.275   0.184 -0.7558  0.7504  0.4699
  720SOL     MW 2880   2.880   1.217   0.148 -0.1176 -0.2491 -0.1932
  721SOL     OW 2881   2.505   0.811   1.405  0.0516  0.6057 -0.4568
  721SOL    HW1 2882   2.476   0.725   1.435  3.7135  1.0683 -1.6035
  721SOL    HW2 2883   2.566   0.832   1.479 -0.8795 -5.3118  0.6438
  721SOL     MW 2884   2.509   0.803   1.419  0.4119 -0.1140 -0.4629
  722SOL     OW 2885   2.552   1.194   0.371  0.0930  0.1232  0.1382
  722SOL    HW1 2886   2.502   1.233   0.436  2.2390  0.1562  0.0482
  722SOL    HW2 2887   2.620   1.157   0.428  0.1601  2.7466 -1.2982
  722SOL     MW 2888   2.555   1.194   0.387  0.3850  0.4737 -0.0632
  723SOL     OW 2889   2.284   1.395   1.633 -0.4595 -0.0657 -0.0046
  723SOL    HW1 2890   2.253   1.361   1.547  0.4894  0.8819 -0.7940
  723SOL    HW2 2891   2.211   1.445   1.668 -0.9862 -1.7488 -1.9301
  723SOL     MW 2892   2.270   1.397   1.626 -0.4038 -0.1627 -0.3628
  724SOL     OW 2893   2.449   0.365   0.568  0.1631 -0.1513  0.5008
  724SOL    HW1 2894   2.444   0.305   0.640 -0.4741 -0.4869  2.1784
  724SOL    HW2 2895   2.532   0.407   0.583 -1.0515 -0.3714  0.8565
  724SOL     MW 2896   2.459   0.363   0.580 -0.0812 -0.2246  0.7691
  725SOL     OW 2897   2.597   0.532   1.143 -0.2421 -0.0063 -0.2656
  725SOL    HW1 2898   2.602   0.487   1.227  1.4370 -2.2048  3.2875
  725SOL    HW2 2899   2.504   0.509   1.123  0.2744  0.2778  0.9520
  725SOL     MW 2900   2.585   0.523   1.151  0.0476 -0.2588  0.3638
  726SOL     OW 2901   2.574   2.424   0.510  0.2608  0.5199 -0.9169
  726SOL    HW1 2902   2.513   2.446   0.436 -1.4732 -2.7514 -0.8122
  726SOL    HW2 2903   2.524   2.384   0.576 -0.8090 -1.5307  0.8669
  726SOL     MW 2904   2.560   2.422   0.509 -0.1091 -0.1823 -0.6677
  727SOL     OW 2905   2.792   0.271   1.640  0.5232  0.0011 -0.0401
  727SOL    HW1 2906   2.817   0.305   1.558  1.1611 -2.0921 -1.5673
  727SOL    HW2 2907   2.701   0.306   1.649  0.3775 -0.7711 -0.0556
  727SOL     MW 2908   2.783   0.280   1.630  0.5882 -0.3769 -0.2436
  728SOL     OW 2909   2.789   1.179   2.958  0.1416  0.4610 -0.5740
  728SOL    HW1 2910   2.807   1.275   2.972  3.9933  2.0154  1.8946
  728SOL    HW2 2911   2.816   1.146   3.043 -1.5240 -1.4000  0.3578
  728SOL     MW 2912   2.795   1.187   2.971  0.4300  0.4206 -0.1253
  729SOL     OW 2913   2.534   1.452   1.160 -0.1886  0.3273  0.8136
  729SOL    HW1 2914   2.543   1.414   1.247  0.2581  0.1303 -1.6689
  729SOL    HW2 2915   2.565   1.396   1.089 -3.9025  2.4987 -0.4040
  729SOL     MW 2916   2.539   1.440   1.162 -0.6197  0.5878  0.3254
  730SOL     OW 2917   2.140   1.145   0.278 -0.1553 -0.9337  0.6937
  730SOL    HW1 2918   2.234   1.160   0.262  2.8886  0.5165 -1.4674
  730SOL    HW2 2919   2.099   1.230   0.277 -0.9849 -1.8709  1.4854
  730SOL     MW 2920   2.147   1.158   0.276  0.1369 -0.8660  0.5130
  731SOL     OW 2921   2.826   1.855   2.916 -0.5011  0.4597 -0.1976
  731SOL    HW1 2922   2.765   1.870   2.841  2.1063 -0.8893 -0.8820
  731SOL    HW2 2923   2.893   1.922   2.902 -2.0397  1.1338 -1.4870
  731SOL     MW 2924   2.827   1.865   2.905 -0.3601  0.3706 -0.4580
  732SOL     OW 2925   2.279   0.929   1.308  0.2999  0.1712 -0.4435
  732SOL    HW1 2926   2.230   0.923   1.391 -1.0609 -0.5719 -0.4419
  732SOL    HW2 2927   2.360   0.882   1.342  1.0186 -4.8482  3.5390
  732SOL     MW 2928   2.283   0.922   1.324  0.2152 -0.5891  0.0821
  733SOL     OW 2929   2.337   2.839   3.047  0.6588 -0.2750 -0.0317
  733SOL    HW1 2930   2.272   2.905   3.021 -0.4501  0.6194  3.1548
  733SOL    HW2 2931   2.277   2.764   3.058  0.1265  2.5950  3.8620
  733SOL     MW 2932   2.320   2.838   3.045  0.4423  0.2217  0.9024
  734SOL     OW 2933   1.499   0.377   2.441 -0.1051 -0.2422  0.2475
  734SOL    HW1 2934   1.461   0.330   2.511 -1.1072 -1.5362  0.5263
  734SOL    HW2 2935   1.515   0.306   2.378 -2.4349  0.7315  0.3923
  734SOL     MW 2936   1.496   0.361   2.442 -0.5447 -0.2845  0.3034
  735SOL     OW 2937   3.089   0.927   2.651 -0.5467  1.0786 -0.5800
  735SOL    HW1 2938   3.039   0.847   2.637  2.9536  0.0567 -0.4891
  735SOL    HW2 2939   3.063   0.954   2.737  0.8144 -0.6884  0.5961
  735SOL     MW 2940   3.079   0.920   2.660  0.0947  0.7106 -0.4128
  736SOL     OW 2941   0.052   0.590   2.488  0.0478 -0.0600 -0.0183
  736SOL    HW1 2942   0.088   0.648   2.418 -1.5258  1.5994  0.1815
  736SOL    HW2 2943   0.021   0.505   2.449  1.0618 -2.6594  1.0713
  736SOL     MW 2944   0.053   0.586   2.473 -0.0261 -0.1840  0.1518
  737SOL     OW 2945   2.920   0.719   2.582  0.4640  0.1983  0.7759
  737SOL    HW1 2946   2.855   0.695   2.516  0.1821 -0.1049  1.9563
  737SOL    HW2 2947   2.989   0.659   2.552  1.0420  1.7337  0.6889
  737SOL     MW 2948   2.921   0.708   2.570  0.5031  0.3609  0.9202
  738SOL     OW 2949   0.175   0.474   1.982  0.0716  0.7296 -0.2190
  738SOL    HW1 2950   0.265   0.493   1.961 -0.5868 -1.3132 -0.4798
  738SOL    HW2 2951   0.193   0.379   1.996  1.1568  0.3006  2.1198
  738SOL     MW 2952   0.189   0.464   1.981  0.1279  0.4035  0.0552
  739SOL     OW 2953   2.535   0.974   2.151  0.0329 -0.7159 -0.3386
  739SOL    HW1 2954   2.437   0.957   2.144 -2.8208  0.7025  3.9676
  739SOL    HW2 2955   2.570   1.017   2.075  0.3064 -0.2126  1.5341
  739SOL     MW 2956   2.527   0.977   2.140 -0.3075 -0.4624  0.4767
  740SOL     OW 2957   0.173   1.706   2.978 -0.2781  0.8324  0.0208
  740SOL    HW1 2958   0.145   1.615   2.986  0.1540  1.3442  0.6368
  740SOL    HW2 2959   0.252   1.694   3.026 -1.0004 -0.2653  0.1308
  740SOL     MW 2960   0.180   1.692   2.985 -0.3164  0.7551  0.1166
  741SOL     OW 2961   2.223   1.202   2.743 -0.1253 -0.1498  0.1668
  741SOL    HW1 2962   2.221   1.276   2.676  1.8438 -0.7218 -2.0230
  741SOL    HW2 2963   2.216   1.228   2.835 -0.8858 -2.4004  0.3696
  741SOL     MW 2964   2.222   1.215   2.746  0.0342 -0.5222 -0.0953
  742SOL     OW 2965   1.674   1.350   2.323 -0.1092 -0.0698 -0.6393
  742SOL    HW1 2966   1.589   1.322   2.285 -2.0786 -0.0856  0.4885
  742SOL    HW2 2967   1.667   1.333   2.423  0.6499 -0.8206 -0.0328
  742SOL     MW 2968   1.662   1.344   2.331 -0.2689 -0.1709 -0.4105
  743SOL     OW 2969   2.477   1.220   2.697  0.0903  0.1770 -0.2200
  743SOL    HW1 2970   2.382   1.206   2.731 -3.2653  3.6692  1.5815
  743SOL    HW2 2971   2.527   1.156   2.747  2.7575 -0.2304 -1.2447
  743SOL     MW 2972   2.471   1.210   2.708 -0.0005  0.5840 -0.1175
  744SOL     OW 2973   2.763   0.900   1.831  0.3063 -0.2768  0.6094
  744SOL    HW1 2974   2.702   0.950   1.882  0.4148  3.3848  0.2372
  744SOL    HW2 2975   2.739   0.907   1.738  0.0400 -3.9143  1.0716
  744SOL     MW 2976   2.752   0.908   1.826  0.2855 -0.2736  0.6213
  745SOL     OW 2977   1.762   0.467   2.494  0.3203 -0.6618  0.1977
  745SOL    HW1 2978   1.757   0.508   2.408  0.4543  0.7413  1.2612
  745SOL    HW2 2979   1.685   0.411   2.503 -1.3481  2.6547 -2.6994
  745SOL     MW 2980   1.752   0.465   2.484  0.1179 -0.0391 -0.0442
  746SOL     OW 2981   1.552   1.471   1.672 -0.4220 -0.6971 -0.0043
  746SOL    HW1 2982   1.602   1.545   1.706  0.5416 -0.7705 -0.1252
  746SOL    HW2 2983   1.530   1.430   1.755 -0.0397  0.5952 -1.9570
  746SOL     MW 2984   1.556   1.475   1.687 -0.2444 -0.5363 -0.2779
  747SOL     OW 2985   2.573   1.098   1.915 -0.4671 -0.4933  0.3935
  747SOL    HW1 2986   2.505   1.087   1.854 -3.1813 -1.5886  3.0405
  747SOL    HW2 2987   2.561   1.192   1.945  0.4568 -0.1116 -0.4294
  747SOL     MW 2988   2.562   1.109   1.911 -0.7033 -0.5875  0.6342
  748SOL     OW 2989   0.098   3.085   1.918 -0.7119 -0.4913 -0.5375
  748SOL    HW1 2990   0.177   3.117   1.873  1.3346 -0.6386 -0.4573
  748SOL    HW2 2991   0.072   3.151   1.980  3.0989 -0.5654 -0.9355
  748SOL     MW 2992   0.105   3.098   1.920  0.0609 -0.5205 -0.5794
  749SOL     OW 2993   2.389   0.634   2.786  0.0722 -0.4670 -0.1792
  749SOL    HW1 2994   2.434   0.704   2.731  1.6495  0.0552 -1.4799
  749SOL    HW2 2995   2.412   0.658   2.882 -1.0425  3.5853  0.8339
  749SOL     MW 2996   2.398   0.646   2.792  0.1332  0.1366 -0.2171
  750SOL     OW 2997   2.113   3.013   1.948 -0.7829  0.1889  0.2921
  750SOL    HW1 2998   2.163   3.094   1.950  1.5612  1.7304 -0.6156
  750SOL    HW2 2999   2.190   2.946   1.957 -2.0963 -1.4790  2.0660
  750SOL     MW 3000   2.129   3.015   1.950 -0.6469  0.1722  0.4064
  751SOL     OW 3001   3.069   0.341   2.418  0.1233 -0.1446 -0.2552
  751SOL    HW1 3002   2.997   0.356   2.357 -0.6504 -0.6375 -1.2062
  751SOL    HW2 3003   3.149   0.330   2.369 -1.1912  2.1580  0.9567
  751SOL     MW 3004   3.070   0.342   2.404 -0.1522  0.0942 -0.2207
  752SOL     OW 3005   2.142   0.911   2.770  0.5173 -0.8043  0.4243
  752SOL    HW1 3006   2.195   0.989   2.772 -1.1572  1.1792  0.9306
  752SOL    HW2 3007   2.140   0.888   2.867  2.2623  0.4259  0.7209
  752SOL     MW 3008   2.149   0.918   2.783  0.5266 -0.3803  0.5302
  753SOL     OW 3009   2.822   0.377   2.285 -0.4108  0.2625  0.2737
  753SOL    HW1 3010   2.778   0.292   2.291 -0.7900 -1.4367  1.0685
  753SOL    HW2 3011   2.775   0.440   2.336  1.2178 -0.9426 -0.4872
  753SOL     MW 3012   2.810   0.374   2.292 -0.2460 -0.1207  0.2782
  754SOL     OW 3013   2.305   2.957   2.638  0.1133 -0.1056  0.2120
  754SOL    HW1 3014   2.299   2.919   2.551 -0.5338  0.5044  2.3692
  754SOL    HW2 3015   2.371   2.912   2.692  0.4655 -0.3143  0.1692
  754SOL     MW 3016   2.313   2.946   2.633  0.0744 -0.0526  0.4910
  755SOL     OW 3017   2.791   1.592   2.460 -0.1703  0.1973  0.2131
  755SOL    HW1 3018   2.737   1.519   2.484  1.4427 -0.2522  1.8769
  755SOL    HW2 3019   2.828   1.623   2.545  0.9148 -1.6603  2.4738
  755SOL     MW 3020   2.789   1.586   2.474  0.1857 -0.1071  0.7309
  756SOL     OW 3021   2.156   1.263   3.001  0.0394 -0.1662 -0.3254
  756SOL    HW1 3022   2.236   1.326   2.982  1.7068 -1.9191  1.0601
  756SOL    HW2 3023   2.204   1.188   3.038 -0.6350  0.5242 -1.7650
  756SOL     MW 3024   2.173   1.261   3.004  0.1704 -0.3064 -0.3325
  757SOL     OW 3025   2.168   0.956   1.686  0.1414  0.2523 -0.6118
  757SOL    HW1 3026   2.214   0.874   1.702 -2.1358 -0.1280 -0.1450
  757SOL    HW2 3027   2.103   0.939   1.616 -2.7781  1.8007 -2.6948
  757SOL     MW 3028   2.166   0.943   1.679 -0.5443  0.4064 -0.8250
  758SOL     OW 3029   2.242   1.843   2.641 -0.3410 -0.2375  0.6174
  758SOL    HW1 3030   2.248   1.870   2.553 -1.2739 -1.5943 -0.5704
  758SOL    HW2 3031   2.315   1.777   2.660 -1.2430  0.1621  1.6709
  758SOL     MW 3032   2.252   1.838   2.632 -0.5831 -0.3638  0.5997
  759SOL     OW 3033   1.545   1.472   2.794 -0.2802  0.1061  0.3362
  759SOL    HW1 3034   1.558   1.557   2.744  1.0227  0.7851 -0.6162
  759SOL    HW2 3035   1.623   1.470   2.854  2.2456 -0.0534  1.5968
  759SOL     MW 3036   1.557   1.483   2.795  0.2249  0.1747  0.3768
  760SOL     OW 3037   2.616   1.969   2.716 -0.0350 -0.3029  0.0572
  760SOL    HW1 3038   2.549   1.903   2.705  0.6348 -1.5034  0.5541
  760SOL    HW2 3039   2.680   1.967   2.646  1.6041 -1.1626  0.1988
  760SOL     MW 3040   2.616   1.960   2.706  0.2696 -0.5747  0.1414
  761SOL     OW 3041   2.205   0.454   2.472  0.4205  0.4058 -0.0260
  761SOL    HW1 3042   2.131   0.394   2.471  0.6886  1.0819  0.4216
  761SOL    HW2 3043   2.195   0.519   2.542 -3.1073  0.2351  1.0020
  761SOL     MW 3044   2.194   0.455   2.481 -0.0096  0.4725  0.1687
  762SOL     OW 3045   0.025   0.176   2.097  0.0958 -0.1871  0.0157
  762SOL    HW1 3046  -0.007   0.110   2.160 -0.1377 -0.0151  1.6502
  762SOL    HW2 3047  -0.057   0.223   2.075  1.3293  0.8470 -1.0825
  762SOL     MW 3048   0.010   0.174   2.102  0.2278 -0.0280  0.0865
  763SOL     OW 3049   2.455   1.163   2.329 -0.0304 -0.1741  0.7150
  763SOL    HW1 3050   2.496   1.094   2.280  1.4562 -1.5164  1.4105
  763SOL    HW2 3051   2.529   1.218   2.346 -0.8039  1.3559  0.9199
  763SOL     MW 3052   2.470   1.161   2.325  0.0637 -0.1493  0.8338
  764SOL     OW 3053   0.396   0.172   2.796  0.2641  0.2881  0.0993
  764SOL    HW1 3054   0.305   0.197   2.811 -2.2664  0.4747 -1.6330
  764SOL    HW2 3055   0.436   0.258   2.800  1.1029  1.2747  0.7583
  764SOL     MW 3056   0.389   0.187   2.798  0.0409  0.4429 -0.0423
  765SOL     OW 3057   2.694   0.125   2.294  0.2776  0.3710 -0.0252
  765SOL    HW1 3058   2.686   0.077   2.212  0.1639  1.9157 -2.0926
  765SOL    HW2 3059   2.748   0.059   2.342  0.6740  1.1300  1.2978
  765SOL     MW 3060   2.700   0.110   2.289  0.3149  0.6749 -0.1234
  766SOL     OW 3061   1.897   3.055   2.103 -0.5313 -0.2431 -0.3001
  766SOL    HW1 3062   1.977   3.055   2.050 -0.0513  2.1685 -0.8263
  766SOL    HW2 3063   1.846   2.983   2.059 -1.4423 -2.7447 -0.3901
  766SOL     MW 3064   1.900   3.045   2.090 -0.5882 -0.2550 -0.3814
  767SOL     OW 3065   2.649   0.653   1.926  0.7379  0.0988 -0.5807
  767SOL    HW1 3066   2.709   0.697   1.990  0.1099 -0.5984  1.6959
  767SOL    HW2 3067   2.578   0.719   1.918  0.3353 -1.7227  1.4438
  767SOL     MW 3068   2.648   0.668   1.933  0.6019 -0.2335 -0.0132
  768SOL     OW 3069   0.007   1.464   2.987  0.2827 -0.5034  0.0413
  768SOL    HW1 3070   0.023   1.471   3.081  0.1924  1.0050 -2.6305
  768SOL    HW2 3071   0.030   1.371   2.960  2.9105 -2.6140  1.1915
  768SOL     MW 3072   0.012   1.452   2.996  0.6175 -0.5829 -0.1595
  769SOL     OW 3073   2.339   0.683   2.379  0.4322  0.1425  0.2616
  769SOL    HW1 3074   2.280   0.607   2.383 -2.3117  0.5498  0.3689
  769SOL    HW2 3075   2.410   0.678   2.310  0.9794 -1.2839 -1.1470
  769SOL     MW 3076   2.340   0.672   2.370  0.1424  0.0080  0.0899
  770SOL     OW 3077   0.067   1.617   2.617  0.2896  0.6345  0.4176
  770SOL    HW1 3078  -0.018   1.617   2.658  2.4472  0.1442  1.3796
  770SOL    HW2 3079   0.114   1.540   2.641  1.5097 -0.0955 -1.2678
  770SOL     MW 3080   0.062   1.607   2.626  0.7352  0.4735  0.3222
  771SOL     OW 3081   3.017   0.592   1.939  0.0107 -0.6587 -0.1518
  771SOL    HW1 3082   2.975   0.595   1.845 -4.1407  1.5027  1.9375
  771SOL    HW2 3083   3.107   0.596   1.925 -1.4008 -0.3192 -0.4578
  771SOL     MW 3084   3.024   0.593   1.925 -0.7233 -0.3287  0.0835
  772SOL     OW 3085   0.012   3.072   2.332  0.0159  0.0737 -0.3951
  772SOL    HW1 3086  -0.065   3.035   2.381 -1.6194 -1.5598 -1.2111
  772SOL    HW2 3087   0.076   3.000   2.317 -1.9331 -1.3479  3.1372
  772SOL     MW 3088   0.011   3.058   2.336 -0.4570 -0.3294 -0.0367
  773SOL     OW 3089   2.491   2.829   2.818 -0.0369 -0.0673  0.4267
  773SOL    HW1 3090   2.485   2.754   2.761 -1.7687  1.2090  0.5883
  773SOL    HW2 3091   2.427   2.819   2.898 -1.9142  3.8727  1.0582
  773SOL     MW 3092   2.482   2.818   2.821 -0.5131  0.6209  0.5313
  774SOL     OW 3093   2.331   1.170   1.776  0.1623  0.6145  0.9004
  774SOL    HW1 3094   2.321   1.256   1.727 -1.9006  0.4611 -2.3302
  774SOL    HW2 3095   2.248   1.118   1.755  0.4933  2.2046  0.0315
  774SOL     MW 3096   2.318   1.175   1.767 -0.0662  0.8041  0.3595
  775SOL     OW 3097   2.264   2.951   2.327 -0.5968  0.1011  0.0615
  775SOL    HW1 3098   2.292   3.027   2.273  0.8472 -0.8841  1.0880
  775SOL    HW2 3099   2.331   2.884   2.311 -0.8649  0.4964  2.4727
  775SOL     MW 3100   2.277   2.952   2.318 -0.4417  0.0233  0.5151
  776SOL     OW 3101   0.134   1.530   0.125  0.0244  0.3426 -0.3170
  776SOL    HW1 3102   0.221   1.490   0.103  0.4822 -2.3981  2.5613
  776SOL    HW2 3103   0.095   1.463   0.188  0.4754  0.7960  2.2427
  776SOL     MW 3104   0.141   1.516   0.130  0.1443  0.0408  0.4005
  777SOL     OW 3105   2.978   1.111   1.742  0.0246  0.4892  0.1150
  777SOL    HW1 3106   2.947   1.138   1.652 -1.5040  0.3531 -2.7108
  777SOL    HW2 3107   2.912   1.069   1.793  1.1235 -1.5068 -1.9255
  777SOL     MW 3108   2.966   1.109   1.737 -0.0321  0.2079 -0.5271
  778SOL     OW 3109   2.856   0.440   2.768 -0.3011 -0.3710  0.2277
  778SOL    HW1 3110   2.779   0.444   2.829  0.2941  0.7961 -0.6942
  778SOL    HW2 3111   2.878   0.532   2.753  0.7458 -0.9738 -0.0046
  778SOL     MW 3112   2.849   0.452   2.774 -0.0844 -0.2966  0.0754
  779SOL     OW 3113   2.269   0.492   2.114 -0.4718  0.7286  0.0006
  779SOL    HW1 3114   2.203   0.522   2.174  0.4341  1.2663 -2.5425
  779SOL    HW2 3115   2.275   0.394   2.108  3.2397  1.3171  1.5609
  779SOL     MW 3116   2.261   0.483   2.121  0.1374  0.8772 -0.1291
  780SOL     OW 3117   0.142   0.243   2.686 -0.8973  0.3663 -0.2988
  780SOL    HW1 3118   0.052   0.248   2.676 -1.6713 -1.7438 -0.9257
  780SOL    HW2 3119   0.179   0.324   2.654  2.5459  1.7723  0.0639
  780SOL     MW 3120   0.135   0.254   2.680 -0.5451  0.2734 -0.3336
  781SOL     OW 3121   3.048   1.321   2.488 -0.2586 -0.1366 -0.2293
  781SOL    HW1 3122   3.001   1.367   2.421  1.9738 -2.0641 -1.8269
  781SOL    HW2 3123   3.069   1.232   2.448 -1.4047 -2.1944  1.3615
  781SOL     MW 3124   3.044   1.316   2.474 -0.1153 -0.6624 -0.2302
  782SOL     OW 3125   0.634   1.500   0.074 -0.6411  0.4822 -1.2086
  782SOL    HW1 3126   0.576   1.567   0.038  2.3015 -0.6563  2.9304
  782SOL    HW2 3127   0.669   1.550   0.148  0.5815  0.0800 -0.4479
  782SOL     MW 3128   0.631   1.516   0.079 -0.0916  0.2790 -0.5622
  783SOL     OW 3129   2.677   0.598   2.399 -0.2896  0.7777  0.1684
  783SOL    HW1 3130   2.624   0.638   2.324 -0.3952 -0.6007 -3.0157
  783SOL    HW2 3131   2.614   0.549   2.459  0.0528 -0.7268  0.9325
  783SOL     MW 3132   2.662   0.597   2.397 -0.2584  0.3973 -0.1509
  784SOL     OW 3133   0.195   0.853   2.882 -0.0514 -0.2670  0.4308
  784SOL    HW1 3134   0.118   0.886   2.917  2.0883 -0.2303 -0.1343
  784SOL    HW2 3135   0.224   0.914   2.813  2.6894  2.6993  1.4196
  784SOL     MW 3136   0.189   0.865   2.878  0.5926  0.1292  0.4867
  785SOL     OW 3137   0.465   0.422   2.189 -0.0546 -0.1634  0.4043
  785SOL    HW1 3138   0.457   0.447   2.093  1.9136 -1.3821  0.4955
  785SOL    HW2 3139   0.403   0.348   2.203  1.2546 -0.2037  1.2900
  785SOL     MW 3140   0.456   0.416   2.178  0.3778 -0.3295  0.5332
  786SOL     OW 3141   1.902   0.422   3.032 -0.0544 -0.0661 -0.9670
  786SOL    HW1 3142   1.816   0.470   3.048  1.2535  0.3463 -0.3870
  786SOL    HW2 3143   1.924   0.440   2.942  0.5265 -0.5591  0.3334
  786SOL     MW 3144   1.893   0.431   3.022  0.1948 -0.0767 -0.7189
  787SOL     OW 3145   2.472   0.129   2.938  0.0797 -0.3217  0.8890
  787SOL    HW1 3146   2.545   0.104   2.885  1.9722 -2.5694 -0.3058
  787SOL    HW2 3147   2.483   0.219   2.970  0.9964  0.2341  1.4017
  787SOL     MW 3148   2.483   0.138   2.935  0.4503 -0.5449  0.7990
  788SOL     OW 3149   2.833   3.028   2.409  0.1826  0.1709 -0.1198
  788SOL    HW1 3150   2.832   2.998   2.500 -0.9057 -1.7431  0.4721
  788SOL    HW2 3151   2.858   2.954   2.352  1.5376 -0.7612 -0.2353
  788SOL     MW 3152   2.836   3.014   2.414  0.2178 -0.2046 -0.0570
  789SOL     OW 3153   0.091   0.196   3.053  0.3266 -0.2034 -0.1455
  789SOL    HW1 3154   0.036   0.124   3.086  0.2206 -0.1970 -0.6706
  789SOL    HW2 3155   0.023   0.244   3.013  0.0685 -0.0917 -2.0491
  789SOL     MW 3156   0.075   0.193   3.052  0.2786 -0.1878 -0.4660
  790SOL     OW 3157   3.102   1.058   2.392  0.2240  0.1272  0.0307
  790SOL    HW1 3158   3.100   0.994   2.470  0.3027 -2.6547 -0.9782
  790SOL    HW2 3159   3.010   1.046   2.350 -3.3589  0.2461 -0.0653
  790SOL     MW 3160   3.090   1.048   2.397 -0.2383 -0.2241 -0.1150
  791SOL     OW 3161   2.537   0.480   2.597  0.2410  0.0743 -0.2075
  791SOL    HW1 3162   2.485   0.514   2.670 -2.6198 -2.4323  3.3714
  791SOL    HW2 3163   2.515   0.386   2.588 -1.3490 -1.7018  1.0089
  791SOL     MW 3164   2.527   0.472   2.605 -0.3462 -0.4908  0.4252
  792SOL     OW 3165   2.352   0.229   2.435  0.3829 -0.6975  0.0799
  792SOL    HW1 3166   2.310   0.312   2.436  0.4729 -2.0591 -1.1546
  792SOL    HW2 3167   2.314   0.176   2.505  0.8857 -1.4375 -0.1766
  792SOL     MW 3168   2.342   0.233   2.445  0.4611 -0.9748 -0.1168
  793SOL     OW 3169   1.853   1.091   2.005  0.8643  0.1025 -0.0082
  793SOL    HW1 3170   1.826   1.065   1.917  1.1257 -0.1762 -3.6194
  793SOL    HW2 3171   1.947   1.070   1.988  3.5450 -0.0726 -0.2897
  793SOL     MW 3172   1.862   1.085   1.991  1.2524  0.0426 -0.5218
  794SOL     OW 3173   1.355   2.347   0.139  0.0640  0.6054  0.1401
  794SOL    HW1 3174   1.404   2.402   0.086 -0.1618 -1.9087 -4.2262
  794SOL    HW2 3175   1.415   2.324   0.214  1.8519 -0.9458 -0.2655
  794SOL     MW 3176   1.369   2.351   0.142  0.2701  0.0690 -0.4895
  795SOL     OW 3177   2.318   1.035   2.520  0.0026 -0.4612 -0.4458
  795SOL    HW1 3178   2.315   1.086   2.599  0.9190 -0.6370 -0.7371
  795SOL    HW2 3179   2.373   1.084   2.454  0.6941 -0.4275 -2.8868
  795SOL     MW 3180   2.325   1.048   2.522  0.2148 -0.4800 -0.8063
  796SOL     OW 3181   0.255   0.625   2.704  0.3832  0.0885  1.0274
  796SOL    HW1 3182   0.208   0.670   2.772  2.1813  0.0374  0.7097
  796SOL    HW2 3183   0.201   0.637   2.627 -1.2841  0.4340  1.5044
  796SOL     MW 3184   0.241   0.632   2.703  0.4004  0.1273  1.0484
  797SOL     OW 3185   2.587   0.161   2.573 -0.1278 -0.3570 -0.3647
  797SOL    HW1 3186   2.492   0.185   2.544 -5.5709  2.3669  1.9786
  797SOL    HW2 3187   2.637   0.152   2.493 -0.9853  2.4146 -1.4407
  797SOL     MW 3188   2.581   0.163   2.559 -0.9591  0.3681 -0.1975
  798SOL     OW 3189   2.371   0.086   2.198 -0.4506  0.8871 -0.0365
  798SOL    HW1 3190   2.373   0.139   2.279 -1.7348 -2.6951 -1.1857
  798SOL    HW2 3191   2.452   0.041   2.172  1.3517  3.3185 -0.7647
  798SOL     MW 3192   2.382   0.087   2.205 -0.3823  0.7352 -0.2842
  799SOL     OW 3193   2.559   2.984   0.147 -0.2242 -0.2705  0.1834
  799SOL    HW1 3194   2.464   2.971   0.122 -0.4745  1.5216  1.6913
  799SOL    HW2 3195   2.548   2.963   0.241 -1.8677 -1.1926  2.0909
  799SOL     MW 3196   2.545   2.980   0.156 -0.4740 -0.1557  0.6341
  800SOL     OW 3197   1.941   3.104   1.748 -0.1882  1.0744 -0.1945
  800SOL    HW1 3198   1.885   3.033   1.717 -1.0741  2.0405 -1.0178
  800SOL    HW2 3199   1.977   3.070   1.831 -0.4343 -0.4406 -3.1907
  800SOL     MW 3200   1.938   3.090   1.755 -0.3376  1.0020 -0.6985
  801SOL     OW 3201   2.796   1.220   2.591 -0.4814 -0.4474 -0.1534
  801SOL    HW1 3202   2.803   1.127   2.601  2.2168  1.6807  1.5635
  801SOL    HW2 3203   2.886   1.251   2.565  1.0127 -1.0531 -1.1741
  801SOL     MW 3204   2.808   1.212   2.589  0.0717 -0.2466 -0.0615
  802SOL     OW 3205   2.592   1.472   2.785  0.1565 -0.1322  0.1910
  802SOL    HW1 3206   2.594   1.397   2.732 -0.1055  0.1152  2.3083
  802SOL    HW2 3207   2.664   1.449   2.842 -2.9128  0.2251 -2.5049
  802SOL     MW 3208   2.602   1.459   2.785 -0.2831 -0.0525  0.1147
  803SOL     OW 3209   2.275   1.377   2.040 -0.4510  0.1933 -0.0460
  803SOL    HW1 3210   2.271   1.345   2.131  0.1526 -1.4629 -1.7672
  803SOL    HW2 3211   2.267   1.303   1.982 -0.1992  0.3502 -1.4507
  803SOL     MW 3212   2.273   1.363   2.044 -0.3381 -0.0045 -0.4585
  804SOL     OW 3213   2.297   0.053   0.052 -0.1038  0.0595 -0.0593
  804SOL    HW1 3214   2.223   0.112   0.057  0.4766  0.3334  0.1248
  804SOL    HW2 3215   2.355   0.077  -0.021 -2.0408 -1.2910  0.6945
  804SOL     MW 3216   2.295   0.064   0.043 -0.2828 -0.0825  0.0645
  805SOL     OW 3217   2.738   0.946   2.632 -0.2377  0.7484 -0.5500
  805SOL    HW1 3218   2.651   0.909   2.616  0.5851  2.2361  1.3755
  805SOL    HW2 3219   2.794   0.869   2.608  0.2071 -0.7552  0.6886
  805SOL     MW 3220   2.734   0.931   2.626 -0.0704  0.7463 -0.1325
  806SOL     OW 3221   2.530   0.690   2.202 -0.9421  0.6230  0.4567
  806SOL    HW1 3222   2.546   0.637   2.125 -3.3764  0.3088  0.5512
  806SOL    HW2 3223   2.546   0.779   2.167  1.6399 -1.1838 -0.4400
  806SOL     MW 3224   2.534   0.694   2.187 -0.9226  0.3432  0.3509
  807SOL     OW 3225   0.090   1.073   2.051 -0.0656  0.2250  0.0170
  807SOL    HW1 3226   0.097   1.001   1.994 -2.5280  1.0094 -0.8207
  807SOL    HW2 3227   0.008   1.059   2.091 -2.1349  1.1877 -0.3964
  807SOL     MW 3228   0.080   1.062   2.048 -0.6635  0.4555 -0.1481
  808SOL     OW 3229   2.640   3.078   2.792 -0.6583 -0.2749 -0.5058
  808SOL    HW1 3230   2.587   3.000   2.791  1.4872 -0.8580 -3.3434
  808SOL    HW2 3231   2.630   3.115   2.704  1.5421  1.2706  1.8142
  808SOL     MW 3232   2.632   3.073   2.780 -0.0849 -0.1479 -0.5741
  809SOL     OW 3233   2.638   1.331   2.408 -1.1937 -0.0150 -0.2783
  809SOL    HW1 3234   2.689   1.295   2.486  0.9525 -0.1630  1.1404
  809SOL    HW2 3235   2.709   1.342   2.340 -1.9808 -0.3343  1.1086
  809SOL     MW 3236   2.654   1.327   2.410 -1.0144 -0.0766  0.0919
  810SOL     OW 3237   2.245   1.321   2.303 -0.1255 -0.0940  0.2843
  810SOL    HW1 3238   2.309   1.252   2.329 -3.2461  0.1427 -0.4491
  810SOL    HW2 3239   2.159   1.302   2.341 -0.9196 -0.6606  0.6472
  810SOL     MW 3240   2.242   1.309   2.312 -0.6420 -0.1375  0.2354
  811SOL     OW 3241   1.551   0.138   2.312 -0.3784 -0.3747 -0.1339
  811SOL    HW1 3242   1.644   0.128   2.329 -1.0278 -0.9858  2.7644
  811SOL    HW2 3243   1.546   0.130   2.217  1.0244  0.9733 -2.0237
  811SOL     MW 3244   1.562   0.135   2.302 -0.2790 -0.2775 -0.0008
  812SOL     OW 3245   1.481   2.818   2.017 -0.2022  0.0165 -0.5587
  812SOL    HW1 3246   1.575   2.828   1.994 -0.7035  1.6620  0.6220
  812SOL    HW2 3247   1.485   2.813   2.115  1.0550 -0.4850  0.0682
  812SOL     MW 3248   1.494   2.819   2.027 -0.1025  0.1675 -0.3202
  813SOL     OW 3249   1.993   0.612   2.237  0.0917  0.1319 -0.0033
  813SOL    HW1 3250   1.907   0.576   2.224 -2.9913  0.9517 -1.8515
  813SOL    HW2 3251   1.986   0.695   2.270 -0.8783 -0.4138 -1.2486
  813SOL     MW 3252   1.980   0.618   2.240 -0.4431  0.1681 -0.4115
  814SOL     OW 3253   2.731   1.226   1.642  0.1978  0.5645  0.0216
  814SOL    HW1 3254   2.695   1.233   1.725  0.7413 -0.4374 -1.0240
  814SOL    HW2 3255   2.690   1.146   1.610  1.5295  0.6457  0.8539
  814SOL     MW 3256   2.721   1.216   1.649  0.4452  0.4430 -0.0066
  815SOL     OW 3257   2.576   1.779   2.387  0.5950  0.1538 -0.0578
  815SOL    HW1 3258   2.514   1.710   2.359 -3.3227 -1.8546 -0.4257
  815SOL    HW2 3259   2.665   1.747   2.389  2.0521 -0.8740 -2.1015
  815SOL     MW 3260   2.579   1.766   2.384  0.2704 -0.2468 -0.3760
  816SOL     OW 3261   0.741   0.705   2.732 -0.6733  0.1405 -0.3584
  816SOL    HW1 3262   0.760   0.628   2.780 -0.9408 -0.6606 -0.0922
  816SOL    HW2 3263   0.648   0.695   2.695  4.5029  3.0506 -1.3603
  816SOL     MW 3264   0.731   0.694   2.734 -0.0257  0.4188 -0.4555
  817SOL     OW 3265   2.986   1.228   1.471 -0.2376 -0.3928 -0.0205
  817SOL    HW1 3266   3.080   1.209   1.470  2.1451 -0.1262  0.1913
  817SOL    HW2 3267   2.969   1.307   1.411 -0.5123  0.2644  1.1369
  817SOL     MW 3268   2.996   1.236   1.463  0.0405 -0.2710  0.1601
  818SOL     OW 3269   1.930   1.056   2.637 -0.1654  0.7789  0.6089
  818SOL    HW1 3270   1.896   1.007   2.556 -2.5218  1.7052 -2.6752
  818SOL    HW2 3271   1.995   0.996   2.675  0.1312  1.3017 -0.5835
  818SOL     MW 3272   1.934   1.041   2.631 -0.4372  0.9701  0.0183
  819SOL     OW 3273   1.984   0.290   2.516  0.2245 -0.2951  0.7240
  819SOL    HW1 3274   1.921   0.367   2.505 -0.9181  1.0950 -1.3917
  819SOL    HW2 3275   2.016   0.290   2.609  0.2248 -2.3176  1.3487
  819SOL     MW 3276   1.980   0.300   2.527  0.0738 -0.3785  0.5273
  820SOL     OW 3277   2.462   1.704   2.677  0.9620  0.5598  0.5873
  820SOL    HW1 3278   2.516   1.641   2.730 -1.6027 -1.0834  0.0810
  820SOL    HW2 3279   2.500   1.702   2.590  0.6832  0.4405  0.6489
  820SOL     MW 3280   2.474   1.696   2.673  0.5868  0.3273  0.5286
  821SOL     OW 3281   2.529   1.353   1.992 -0.1849 -0.1024  0.4388
  821SOL    HW1 3282   2.559   1.423   1.926 -4.5336 -0.9498  0.4030
  821SOL    HW2 3283   2.440   1.376   2.026 -3.1438  1.6988 -1.5626
  821SOL     MW 3284   2.521   1.365   1.988 -1.1491  0.0234  0.1700
  822SOL     OW 3285   2.853   2.679   1.453 -0.6857 -0.7057 -0.7447
  822SOL    HW1 3286   2.868   2.666   1.549 -0.1807 -2.0501  1.1701
  822SOL    HW2 3287   2.902   2.754   1.435 -1.6211 -1.7381 -0.6897
  822SOL     MW 3288   2.862   2.687   1.463 -0.7425 -1.0193 -0.4848
  823SOL     OW 3289   2.397   0.501   1.836 -0.1991 -0.2073  0.3257
  823SOL    HW1 3290   2.470   0.452   1.783 -0.6085 -1.5650 -0.8707
  823SOL    HW2 3291   2.392   0.445   1.918  2.5744 -1.8826 -0.2137
  823SOL     MW 3292   2.406   0.487   1.840  0.1128 -0.6074  0.0967
  824SOL     OW 3293   2.244   1.455   2.638 -0.6055  0.3121 -0.6957
  824SOL    HW1 3294   2.309   1.482   2.572 -0.8501  0.5445 -2.0276
  824SOL    HW2 3295   2.196   1.533   2.657 -1.2450 -0.9961  0.5719
  824SOL     MW 3296   2.246   1.469   2.632 -0.7222  0.1702 -0.7042
  825SOL     OW 3297   1.901   2.560   0.257  0.1916 -0.2379  0.2951
  825SOL    HW1 3298   1.876   2.510   0.340  2.7810  1.4948  0.7560
  825SOL    HW2 3299   1.985   2.526   0.229 -1.2467 -1.4197 -0.6979
  825SOL     MW 3300   1.909   2.549   0.264  0.3435 -0.1652  0.2249
  826SOL     OW 3301   1.812   2.377   0.466  0.3613  0.1540  0.4548
  826SOL    HW1 3302   1.757   2.309   0.504  0.0314 -1.0433 -0.4979
  826SOL    HW2 3303   1.789   2.452   0.513  1.8905  0.5278 -2.5325
  826SOL     MW 3304   1.802   2.378   0.478  0.5196  0.0454 -0.0650
  827SOL     OW 3305   1.892   2.187   0.795  0.6253  0.2600 -0.3010
  827SOL    HW1 3306   1.823   2.184   0.730 -1.8362 -0.4632  3.2689
  827SOL    HW2 3307   1.850   2.129   0.854 -0.7290 -0.8389 -0.7390
  827SOL     MW 3308   1.877   2.179   0.794  0.1218  0.0196  0.1122
  828SOL     OW 3309   0.038   2.608   0.569  0.8923 -0.5039 -0.4170
  828SOL    HW1 3310   0.133   2.599   0.559 -0.1033 -0.7347  1.4174
  828SOL    HW2 3311   0.014   2.646   0.485  2.0315 -0.7774  1.0176
  828SOL     MW 3312   0.047   2.612   0.557  0.9112 -0.5704  0.0143
  829SOL     OW 3313   2.996   2.931   1.205  0.0937 -0.1042 -0.2658
  829SOL    HW1 3314   2.912   2.933   1.159 -0.5275 -0.1666 -0.4111
  829SOL    HW2 3315   3.040   2.848   1.179 -2.8046  0.2828 -0.6435
  829SOL     MW 3316   2.990   2.920   1.196 -0.3707 -0.0614 -0.3348
  830SOL     OW 3317   2.581   2.837   2.023 -0.3014  0.0782 -0.0953
  830SOL    HW1 3318   2.481   2.852   2.006  1.8403 -1.7513  0.9133
  830SOL    HW2 3319   2.609   2.774   1.958  0.1334  1.3768  0.8331
  830SOL     MW 3320   2.571   2.831   2.012  0.0386  0.0081  0.1603
  831SOL     OW 3321   2.343   2.466   1.166  0.2935  0.2014  0.4655
  831SOL    HW1 3322   2.301   2.421   1.238  1.3242  0.0784 -1.4048
  831SOL    HW2 3323   2.430   2.426   1.147 -0.6596 -0.0692  0.0360
  831SOL     MW 3324   2.349   2.455   1.173  0.3037  0.1495  0.1621
  832SOL     OW 3325   2.357   2.200   1.871 -0.1350  0.4869  0.1749
  832SOL    HW1 3326   2.385   2.282   1.914  0.6279  1.9852  0.4784
  832SOL    HW2 3327   2.440   2.150   1.851  0.8296 -0.6243  0.1159
  832SOL     MW 3328   2.372   2.204   1.874  0.0929  0.5380  0.2072
  833SOL     OW 3329   1.723   2.459   0.870 -0.3824  0.2785  0.0569
  833SOL    HW1 3330   1.658   2.407   0.920  0.2533  0.0257 -0.3406
  833SOL    HW2 3331   1.740   2.536   0.922 -2.1177 -3.3773 -3.5664
  833SOL     MW 3332   1.717   2.462   0.883 -0.5275 -0.2372 -0.4736
  834SOL     OW 3333   2.045   2.440   0.568  0.0228  0.0338 -0.7378
  834SOL    HW1 3334   1.968   2.406   0.532  1.3188 -0.6234  0.6562
  834SOL    HW2 3335   2.109   2.406   0.504 -1.3018 -0.1700 -2.1871
  834SOL     MW 3336   2.044   2.431   0.555  0.0190 -0.0798 -0.7451
  835SOL     OW 3337   1.788   2.611   0.625  0.8748  0.5584  0.4996
  835SOL    HW1 3338   1.739   2.572   0.700 -0.8334  1.1287  2.3134
  835SOL    HW2 3339   1.852   2.649   0.688 -1.7795 -0.6777 -0.6136
  835SOL     MW 3340   1.790   2.611   0.643  0.2992  0.4705  0.5920
  836SOL     OW 3341   1.929   2.194   1.593  0.8013  0.3002  0.2030
  836SOL    HW1 3342   2.020   2.217   1.624  1.4611  1.7274  0.0439
  836SOL    HW2 3343   1.868   2.243   1.648 -0.0529 -0.0515 -0.3102
  836SOL     MW 3344   1.933   2.203   1.604  0.7756  0.4421  0.1143
  837SOL     OW 3345   2.147   0.223   0.676 -0.1348 -0.5038 -0.1357
  837SOL    HW1 3346   2.065   0.263   0.641  0.3419 -1.2943 -2.1793
  837SOL    HW2 3347   2.167   0.148   0.615 -2.1701 -0.8722 -1.5899
  837SOL     MW 3348   2.139   0.219   0.663 -0.3404 -0.6567 -0.5972
  838SOL     OW 3349   2.933   2.038   0.928  0.1220  0.0191 -0.2530
  838SOL    HW1 3350   2.876   1.978   0.975  0.7142 -0.2122 -0.1966
  838SOL    HW2 3351   3.013   1.985   0.911  2.0082  0.8770 -1.2713
  838SOL     MW 3352   2.936   2.023   0.932  0.4490  0.1018 -0.3799
  839SOL     OW 3353   1.501   2.310   1.030 -0.1927  0.0800 -0.3634
  839SOL    HW1 3354   1.500   2.374   1.103 -0.1623 -0.0330 -1.3778
  839SOL    HW2 3355   1.537   2.231   1.071 -1.0184  3.1246 -2.9691
  839SOL     MW 3356   1.506   2.308   1.045 -0.2976  0.4668 -0.8410
  840SOL     OW 3357   2.356   2.165   2.472  0.2008  0.0781 -0.1176
  840SOL    HW1 3358   2.321   2.234   2.414  1.1734  1.8522  2.1319
  840SOL    HW2 3359   2.372   2.215   2.548 -2.2699 -1.4853 -0.9139
  840SOL     MW 3360   2.353   2.181   2.474  0.0032  0.1059  0.0741
  841SOL     OW 3361   2.140   2.440   0.125  0.2652 -0.3122 -0.2115
  841SOL    HW1 3362   2.155   2.516   0.071 -1.0880 -0.4036 -1.1721
  841SOL    HW2 3363   2.102   2.371   0.065 -1.6950 -2.9277  1.5576
  841SOL     MW 3364   2.137   2.441   0.110 -0.1720 -0.6693 -0.1048
  842SOL     OW 3365   2.632   2.083   1.534 -0.5037 -0.2768  0.3395
  842SOL    HW1 3366   2.579   2.036   1.600 -2.1283 -1.6392 -1.8740
  842SOL    HW2 3367   2.570   2.104   1.461 -0.5571  0.5755  2.5356
  842SOL     MW 3368   2.617   2.079   1.533 -0.7251 -0.3441  0.3372
  843SOL     OW 3369   2.709   2.799   1.758 -0.0658 -0.3031  0.1917
  843SOL    HW1 3370   2.791   2.736   1.759 -0.8339 -3.1674  0.3920
  843SOL    HW2 3371   2.633   2.750   1.739  2.1576  1.9128 -1.3684
  843SOL     MW 3372   2.710   2.784   1.756  0.1262 -0.3887  0.0123
  844SOL     OW 3373   2.597   2.353   1.157 -0.6507 -0.4579 -0.4375
  844SOL    HW1 3374   2.639   2.347   1.072 -0.2233  1.8694  1.1143
  844SOL    HW2 3375   2.662   2.395   1.218  1.9161 -1.2208 -0.0816
  844SOL     MW 3376   2.611   2.358   1.154 -0.2557 -0.2515 -0.1858
  845SOL     OW 3377   2.830   2.490   0.303  0.0217 -0.5250  0.4530
  845SOL    HW1 3378   2.772   2.415   0.299  0.9165 -0.7481 -3.3258
  845SOL    HW2 3379   2.844   2.517   0.395 -1.2917 -1.6816 -2.0732
  845SOL     MW 3380   2.825   2.484   0.315 -0.0335 -0.7070 -0.3789
  846SOL     OW 3381   1.531   2.844   0.817 -0.3963  0.1780 -0.1510
  846SOL    HW1 3382   1.573   2.893   0.886 -0.7207  1.0539  0.0051
  846SOL    HW2 3383   1.438   2.863   0.834 -3.4698 -0.3923 -0.6605
  846SOL     MW 3384   1.524   2.853   0.828 -0.8446  0.2183 -0.1976
  847SOL     OW 3385   2.620   1.906   0.193  0.0249  0.4569 -0.1797
  847SOL    HW1 3386   2.698   1.859   0.206  1.0012 -0.9421 -2.0061
  847SOL    HW2 3387   2.565   1.861   0.132 -2.1822 -1.9564 -0.0225
  847SOL     MW 3388   2.623   1.894   0.187 -0.1375 -0.0461 -0.4000
  848SOL     OW 3389   2.487   2.147   1.303 -0.3530  0.2963  0.4157
  848SOL    HW1 3390   2.508   2.232   1.250  0.4052  1.7041 -3.0148
  848SOL    HW2 3391   2.496   2.077   1.240  1.4237 -1.0464 -0.7722
  848SOL     MW 3392   2.491   2.149   1.288 -0.0186  0.3049 -0.1937
  849SOL     OW 3393   1.981   2.758   0.792 -0.3829  0.3574 -0.4862
  849SOL    HW1 3394   1.987   2.701   0.867 -2.0702 -0.5983  0.1126
  849SOL    HW2 3395   2.066   2.744   0.747  2.2848  1.9990 -2.7229
  849SOL     MW 3396   1.993   2.748   0.796 -0.2536  0.4479 -0.7023
  850SOL     OW 3397   2.183   1.968   1.688 -0.0749 -0.2172  0.0243
  850SOL    HW1 3398   2.108   1.939   1.629 -2.9084  0.3354  0.5710
  850SOL    HW2 3399   2.186   2.061   1.675  1.5810 -2.0510 -0.1120
  850SOL     MW 3400   2.173   1.977   1.679 -0.2303 -0.3863  0.0785
  851SOL     OW 3401   2.227   2.369   0.370  0.5208  0.0441  0.0185
  851SOL    HW1 3402   2.193   2.382   0.289  0.3798  0.5982  3.6957
  851SOL    HW2 3403   2.302   2.429   0.358  0.1331  0.6190  2.3142
  851SOL     MW 3404   2.232   2.378   0.358  0.4510  0.1930  0.8066
  852SOL     OW 3405   2.273   2.157   0.158  0.2747  0.6120  0.0606
  852SOL    HW1 3406   2.288   2.211   0.234  0.6595 -0.8906  1.7296
  852SOL    HW2 3407   2.365   2.144   0.123 -1.3993 -2.6013 -0.8792
  852SOL     MW 3408   2.287   2.163   0.163  0.1046 -0.0102  0.1568
  853SOL     OW 3409   2.455   2.446   1.978  0.0566 -0.1945  0.0991
  853SOL    HW1 3410   2.467   2.479   1.891  0.0340 -0.2402  1.1883
  853SOL    HW2 3411   2.545   2.415   2.017 -1.2557  0.1932  0.0885
  853SOL     MW 3412   2.469   2.446   1.972 -0.1195 -0.1494  0.2414
  854SOL     OW 3413   2.882   2.246   0.752 -0.4478  0.2841  0.3988
  854SOL    HW1 3414   2.813   2.199   0.706 -0.8254  0.3746  2.2126
  854SOL    HW2 3415   2.906   2.181   0.820  0.7209  1.2395  0.9606
  854SOL     MW 3416   2.876   2.231   0.755 -0.3434  0.4221  0.7122
  855SOL     OW 3417   2.679   2.239   0.319 -0.3340 -0.2493  0.1784
  855SOL    HW1 3418   2.661   2.268   0.409 -1.2967  2.0386  3.1812
  855SOL    HW2 3419   2.760   2.185   0.321 -1.4747  0.7925  0.9116
  855SOL     MW 3420   2.687   2.235   0.331 -0.6115  0.1900  0.6713
  856SOL     OW 3421   2.173   1.910   0.232  0.0659  0.8028  0.3484
  856SOL    HW1 3422   2.079   1.903   0.246 -0.1388  1.5517  0.5329
  856SOL    HW2 3423   2.194   2.003   0.212 -0.5022  2.3623 -0.9459
  856SOL     MW 3424   2.163   1.921   0.231 -0.0360  1.1074  0.2020
  857SOL     OW 3425   2.542   1.921   0.480  0.3070  0.7765  0.3090
  857SOL    HW1 3426   2.558   1.942   0.393  5.0668 -1.0332  1.8634
  857SOL    HW2 3427   2.453   1.876   0.485 -1.8383 -0.5474  0.5124
  857SOL     MW 3428   2.532   1.918   0.469  0.6520  0.3631  0.5409
  858SOL     OW 3429   2.906   2.632   1.711 -0.2009 -0.2324 -0.0202
  858SOL    HW1 3430   2.992   2.658   1.754 -1.2710  2.1501 -0.1167
  858SOL    HW2 3431   2.872   2.555   1.750 -0.0988  2.5084 -1.7546
  858SOL     MW 3432   2.913   2.626   1.722 -0.3286  0.4435 -0.2618
  859SOL     OW 3433   2.096   2.490   0.840  0.6085  0.2270  0.2462
  859SOL    HW1 3434   2.058   2.467   0.755 -1.0543 -1.7861 -0.9996
  859SOL    HW2 3435   2.186   2.455   0.836  0.1481  1.5927 -1.0680
  859SOL     MW 3436   2.103   2.482   0.828  0.3284  0.1416 -0.0916
  860SOL     OW 3437   2.645   2.596   0.146 -0.5977 -0.4447  0.1070
  860SOL    HW1 3438   2.717   2.574   0.216 -1.0745  1.0874  0.6479
  860SOL    HW2 3439   2.675   2.677   0.112  1.9487 -1.3305  1.7664
  860SOL     MW 3440   2.658   2.604   0.151 -0.3246 -0.3595  0.3973
  861SOL     OW 3441   1.598   2.120   1.201 -0.0740  0.7575  0.1613
  861SOL    HW1 3442   1.668   2.112   1.268  2.0069 -2.4673  2.8038
  861SOL    HW2 3443   1.521   2.071   1.239 -0.7849 -0.1717 -0.1307
  861SOL     MW 3444   1.597   2.112   1.215  0.1067  0.2094  0.4714
  862SOL     OW 3445   2.404   1.866   1.521 -0.0297  0.5731 -0.8865
  862SOL    HW1 3446   2.327   1.889   1.575  1.8378  2.5387  2.6680
  862SOL    HW2 3447   2.391   1.888   1.428  3.0673  0.5688  1.6710
  862SOL     MW 3448   2.392   1.872   1.516  0.6253  0.8319 -0.0801
  863SOL     OW 3449   3.060   1.783   1.205  0.3811 -0.1810 -0.0496
  863SOL    HW1 3450   3.143   1.774   1.157 -0.1700 -0.8397 -0.0193
  863SOL    HW2 3451   3.032   1.869   1.214  0.8172 -4.0067  0.9948
  863SOL     MW 3452   3.067   1.793   1.200  0.3660 -0.7726  0.0922
  864SOL     OW 3453   0.035   1.833   0.823 -0.0203  0.1139 -0.7364
  864SOL    HW1 3454  -0.046   1.805   0.867  0.1522 -0.5844  1.1119
  864SOL    HW2 3455   0.019   1.808   0.727  0.0598 -0.6603 -2.2615
  864SOL     MW 3456   0.022   1.826   0.816  0.0130 -0.0804 -0.6938
  865SOL     OW 3457   2.530   2.174   0.064 -0.3043 -0.3613  0.1764
  865SOL    HW1 3458   2.598   2.121   0.092 -3.9342  2.0345 -0.9258
  865SOL    HW2 3459   2.512   2.159  -0.030  2.0641  1.1346 -2.1984
  865SOL     MW 3460   2.537   2.165   0.055 -0.4707  0.1521 -0.2823
  866SOL     OW 3461   2.646   2.349   1.622 -0.4203 -0.0190  0.1030
  866SOL    HW1 3462   2.625   2.255   1.599 -0.9344 -1.6211  2.6922
  866SOL    HW2 3463   2.678   2.396   1.544  1.7715  2.6878  2.6038
  866SOL     MW 3464   2.647   2.343   1.609 -0.1989  0.1267  0.7745
  867SOL     OW 3465   0.024   2.753   1.820 -0.1344  0.1214 -0.4028
  867SOL    HW1 3466   0.095   2.786   1.867 -0.0274  0.8641  0.1988
  867SOL    HW2 3467  -0.014   2.837   1.792 -2.8265  1.9472  2.8431
  867SOL     MW 3468   0.028   2.768   1.823 -0.4755  0.4603  0.1049
  868SOL     OW 3469   2.792   2.590   0.556 -0.6044  0.0842 -0.1739
  868SOL    HW1 3470   2.710   2.536   0.553 -0.9106 -0.7077  0.0170
  868SOL    HW2 3471   2.773   2.684   0.529  0.4632  1.1263 -0.0853
  868SOL     MW 3472   2.778   2.595   0.552 -0.5039  0.1172 -0.1370
  869SOL     OW 3473   1.946   2.336   1.042  0.0965  0.0075 -0.6345
  869SOL    HW1 3474   2.001   2.393   0.990  1.2440 -1.9069  0.2333
  869SOL    HW2 3475   1.887   2.302   0.973  2.3275  0.7564  2.7638
  869SOL     MW 3476   1.945   2.339   1.026  0.5423 -0.1463 -0.0716
  870SOL     OW 3477   2.210   0.018   0.513 -0.1872  0.0752 -0.6396
  870SOL    HW1 3478   2.272   0.064   0.461 -2.3088 -0.8295  2.2345
  870SOL    HW2 3479   2.264  -0.048   0.550 -0.9782 -0.0076  0.2080
  870SOL     MW 3480   2.225   0.015   0.511 -0.5715 -0.0551 -0.1486
  871SOL     OW 3481   2.477   1.979   0.921 -0.1221  0.3536  0.2210
  871SOL    HW1 3482   2.422   1.938   0.857  0.6107 -0.9388  1.2419
  871SOL    HW2 3483   2.431   2.051   0.963 -1.2617 -0.6582 -0.2674
  871SOL     MW 3484   2.464   1.983   0.918 -0.1757  0.0496  0.2912
  872SOL     OW 3485   2.016   2.515   1.396  0.3122  0.3572  0.6265
  872SOL    HW1 3486   1.985   2.581   1.449  2.5148 -0.8839  2.2812
  872SOL    HW2 3487   1.952   2.446   1.392  0.3110  1.2767  1.4809
  872SOL     MW 3488   2.003   2.514   1.402  0.6026  0.3148  0.9575
  873SOL     OW 3489   2.828   2.071   1.942 -0.2316  0.7562  0.1626
  873SOL    HW1 3490   2.856   2.113   2.021  2.4667 -0.0961  0.5074
  873SOL    HW2 3491   2.914   2.063   1.890  0.1598 -0.7149  0.2941
  873SOL     MW 3492   2.843   2.075   1.946  0.1760  0.4497  0.2254
  874SOL     OW 3493   2.432   1.503   2.395  0.2459  0.0057  0.5819
  874SOL    HW1 3494   2.355   1.452   2.355 -0.1499 -1.7047 -1.5322
  874SOL    HW2 3495   2.502   1.431   2.399  0.4126 -2.8433  1.0590
  874SOL     MW 3496   2.431   1.486   2.390  0.2157 -0.5959  0.3659
  875SOL     OW 3497   2.327   2.283   0.962  0.0148 -0.1262  0.0323
  875SOL    HW1 3498   2.367   2.318   0.883  1.8236 -0.7925  1.6010
  875SOL    HW2 3499   2.332   2.353   1.027  1.4835  2.4672  0.4174
  875SOL     MW 3500   2.333   2.297   0.960  0.4472  0.1280  0.2901
  876SOL     OW 3501   3.042   2.325   1.280 -0.2792  0.1046 -0.1807
  876SOL    HW1 3502   3.119   2.322   1.210 -0.7363 -0.3097  0.9184
  876SOL    HW2 3503   3.098   2.361   1.351 -0.8759  1.6399 -2.2436
  876SOL     MW 3504   3.059   2.330   1.280 -0.4183  0.2525 -0.3078
  877SOL     OW 3505   3.024   2.721   0.356 -0.0164  0.1665 -0.1261
  877SOL    HW1 3506   3.027   2.804   0.310  1.8343 -0.3595 -1.1368
  877SOL    HW2 3507   3.042   2.657   0.288  3.9477  1.0879  0.8061
  877SOL     MW 3508   3.027   2.723   0.341  0.7508  0.2187 -0.1365
  878SOL     OW 3509   2.297   1.830   1.232  0.0969 -0.0892 -0.6812
  878SOL    HW1 3510   2.246   1.746   1.222  1.4695  1.6710 -0.9926
  878SOL    HW2 3511   2.387   1.797   1.224 -0.3655  2.8124  0.7303
  878SOL     MW 3512   2.302   1.814   1.230  0.2170  0.5259 -0.5361
  879SOL     OW 3513   2.726   2.425   0.911 -0.8165  0.1346  0.6634
  879SOL    HW1 3514   2.774   2.501   0.947 -1.5565 -3.1854 -1.2732
  879SOL    HW2 3515   2.784   2.379   0.848 -0.6332 -2.7147 -1.8866
  879SOL     MW 3516   2.740   2.429   0.907 -0.8899 -0.6794  0.0714
  880SOL     OW 3517   2.615   2.164   0.682  0.0525  0.7231  0.2634
  880SOL    HW1 3518   2.585   2.102   0.744 -0.9368  2.0456 -1.6279
  880SOL    HW2 3519   2.583   2.122   0.599 -1.0306  1.6860  0.0442
  880SOL     MW 3520   2.607   2.151   0.679 -0.2209  1.0246 -0.0150
  881SOL     OW 3521   2.957   2.695   0.747  0.2878  0.2839  0.0220
  881SOL    HW1 3522   2.879   2.661   0.706  1.3256 -0.6965 -0.2123
  881SOL    HW2 3523   3.034   2.654   0.701  1.2275  0.9190  0.8763
  881SOL     MW 3524   2.957   2.685   0.736  0.5487  0.2383  0.1038
  882SOL     OW 3525   2.319   2.830   1.953  0.3673 -0.4635  0.2988
  882SOL    HW1 3526   2.313   2.815   1.856  0.9128 -1.5567 -1.1957
  882SOL    HW2 3527   2.251   2.766   1.980  0.7826 -1.0804  0.9512
  882SOL     MW 3528   2.309   2.819   1.944  0.4941 -0.6892  0.1877
  883SOL     OW 3529   2.277   2.289   1.408  0.3908  0.6781  0.6750
  883SOL    HW1 3530   2.359   2.236   1.387  1.3815 -1.7682  1.1208
  883SOL    HW2 3531   2.217   2.251   1.340 -2.7847 -0.1248 -0.3312
  883SOL     MW 3532   2.280   2.277   1.396  0.1026  0.2494  0.6011
  884SOL     OW 3533   1.874   1.879   1.131  0.2254  0.0804  0.0730
  884SOL    HW1 3534   1.831   1.952   1.083  0.8132  1.7519  0.2811
  884SOL    HW2 3535   1.966   1.897   1.132 -2.6415 -0.4405 -0.9523
  884SOL     MW 3536   1.880   1.891   1.125 -0.0753  0.2322 -0.0348
  885SOL     OW 3537   2.806   2.412   1.845  0.1794  0.4691 -0.7898
  885SOL    HW1 3538   2.894   2.380   1.854  0.1048 -0.7449  1.0655
  885SOL    HW2 3539   2.773   2.366   1.766 -2.7439 -2.4239 -0.8914
  885SOL     MW 3540   2.813   2.402   1.836 -0.2161 -0.0728 -0.5584
  886SOL     OW 3541   2.779   2.454   1.341 -0.1586 -0.0171  0.3540
  886SOL    HW1 3542   2.869   2.431   1.312 -0.7432  0.8343 -1.6710
  886SOL    HW2 3543   2.789   2.540   1.380 -0.2381 -0.5448 -2.6248
  886SOL     MW 3544   2.792   2.462   1.342 -0.2463  0.0256 -0.3062
  887SOL     OW 3545   2.296   2.623   1.492 -0.1722  0.4249  0.1509
  887SOL    HW1 3546   2.335   2.670   1.415 -1.2986 -0.4598 -0.0648
  887SOL    HW2 3547   2.226   2.573   1.451  2.9421 -1.0532 -0.7779
  887SOL     MW 3548   2.292   2.622   1.477  0.0901  0.1132 -0.0001
  888SOL     OW 3549   1.839   2.093   1.361  0.9383 -0.4508  0.6613
  888SOL    HW1 3550   1.922   2.096   1.308  0.3637  0.2414  1.0759
  888SOL    HW2 3551   1.860   2.127   1.450 -2.4106  0.6105  2.0381
  888SOL     MW 3552   1.853   2.098   1.366  0.4207 -0.2195  0.8977
  889SOL     OW 3553   2.350   2.005   2.080 -0.5260 -0.2042 -0.2543
  889SOL    HW1 3554   2.441   1.998   2.107  0.0945 -0.9776 -0.6788
  889SOL    HW2 3555   2.348   2.063   1.998  2.2714  2.1096 -0.3106
  889SOL     MW 3556   2.362   2.012   2.073 -0.0751 -0.0010 -0.3177
  890SOL     OW 3557   0.089   2.279   0.129 -0.1513 -0.1983  0.3763
  890SOL    HW1 3558   0.040   2.362   0.129  0.6072 -0.0092  0.8914
  890SOL    HW2 3559   0.089   2.248   0.222  1.1370  2.7567 -0.2754
  890SOL     MW 3560   0.083   2.286   0.141  0.1187  0.2166  0.3583
  891SOL     OW 3561   3.040   2.040   1.280 -0.1353 -0.4066  0.3148
  891SOL    HW1 3562   3.116   2.081   1.330  1.8138  1.0990  0.5292
  891SOL    HW2 3563   2.990   2.113   1.249 -1.3403 -0.3237 -1.7078
  891SOL     MW 3564   3.044   2.055   1.283 -0.0371 -0.1970  0.0763
  892SOL     OW 3565   2.353   2.417   2.955  0.1006 -0.2559 -0.2417
  892SOL    HW1 3566   2.370   2.367   3.038 -0.1954 -2.5083  0.6706
  892SOL    HW2 3567   2.439   2.407   2.907  1.5515 -0.8616  0.0124
  892SOL     MW 3568   2.367   2.409   2.960  0.2530 -0.6330 -0.0878
  893SOL     OW 3569   1.581   2.499   1.236  0.2100 -0.4705 -0.2553
  893SOL    HW1 3570   1.507   2.495   1.305 -3.8266  0.6798  0.9915
  893SOL    HW2 3571   1.638   2.434   1.279  0.0290 -0.1750  0.1953
  893SOL     MW 3572   1.579   2.490   1.250 -0.3465 -0.2797 -0.0313
  894SOL     OW 3573   2.838   1.918   0.469 -0.3903 -0.1027 -0.3045
  894SOL    HW1 3574   2.749   1.925   0.494  2.3880  0.4271 -2.5299
  894SOL    HW2 3575   2.837   1.860   0.384  3.3327 -0.7251  0.6931
  894SOL     MW 3576   2.826   1.911   0.461  0.4675 -0.1149 -0.4665
  895SOL     OW 3577   2.089   2.162   1.251 -0.3118  0.1915  0.6484
  895SOL    HW1 3578   2.059   2.232   1.189 -0.2843  0.9278 -0.6149
  895SOL    HW2 3579   2.124   2.106   1.181 -1.6149 -0.6031  1.3786
  895SOL     MW 3580   2.089   2.164   1.233 -0.4801  0.1838  0.5780
  896SOL     OW 3581   2.172   2.823   1.111 -0.1130  0.1942  0.2783
  896SOL    HW1 3582   2.242   2.798   1.169 -1.3229  0.2176 -0.6420
  896SOL    HW2 3583   2.089   2.778   1.143 -1.9542 -0.0604  1.3336
  896SOL     MW 3584   2.170   2.814   1.123 -0.5156  0.1637  0.2961
  897SOL     OW 3585   2.993   2.961   0.191  0.3821 -0.5207 -0.0517
  897SOL    HW1 3586   3.082   2.944   0.158  0.1051  1.3110 -0.4567
  897SOL    HW2 3587   2.934   2.936   0.119 -0.9034 -3.8009 -1.5721
  897SOL     MW 3588   2.997   2.955   0.177  0.1759 -0.7118 -0.3058
  898SOL     OW 3589   2.082   0.200   1.451 -0.6346 -0.1027 -0.1742
  898SOL    HW1 3590   2.003   0.160   1.410  0.5235  0.5876 -0.3350
  898SOL    HW2 3591   2.151   0.209   1.383 -0.3401 -3.7305 -1.3050
  898SOL     MW 3592   2.081   0.196   1.436 -0.4430 -0.4903 -0.3446
  899SOL     OW 3593   2.883   2.947   0.692  0.6064  0.4979  0.0139
  899SOL    HW1 3594   2.902   2.859   0.728  0.1957 -0.4076 -0.6406
  899SOL    HW2 3595   2.803   2.987   0.730  1.6455  0.3952 -0.6363
  899SOL     MW 3596   2.875   2.941   0.702  0.6893  0.3649 -0.1582
  900SOL     OW 3597   0.130   2.350   1.106  0.4103  0.2136 -0.0772
  900SOL    HW1 3598   0.131   2.442   1.078  3.7629  0.2486  0.4577
  900SOL    HW2 3599   0.134   2.301   1.019 -4.5269  0.7426 -2.4608
  900SOL     MW 3600   0.131   2.356   1.090  0.2012  0.2880 -0.3211
  901SOL     OW 3601   1.780   2.898   1.710  0.2652  0.3148 -0.2741
  901SOL    HW1 3602   1.838   2.835   1.664  0.4221 -0.1807  1.7313
  901SOL    HW2 3603   1.713   2.906   1.637 -0.1121 -0.6995  0.1527
  901SOL     MW 3604   1.779   2.891   1.694  0.2361  0.1156  0.0468
  902SOL     OW 3605   2.574   2.033   1.851 -0.1637  0.6188 -0.2210
  902SOL    HW1 3606   2.576   1.933   1.863  2.2358  1.2672  1.0968
  902SOL    HW2 3607   2.667   2.049   1.877 -2.7981 -1.0020  0.4183
  902SOL     MW 3608   2.586   2.022   1.856 -0.1947  0.4905  0.0372
  903SOL     OW 3609   1.577   2.777   0.533 -0.6838 -0.0601 -0.5467
  903SOL    HW1 3610   1.647   2.727   0.571 -2.5085  0.4332  2.0434
  903SOL    HW2 3611   1.532   2.827   0.603  1.2986 -2.5049 -0.2049
  903SOL     MW 3612   1.580   2.777   0.547 -0.6630 -0.3176 -0.1599
  904SOL     OW 3613   2.483   2.566   1.731  0.2966 -0.4948  0.2190
  904SOL    HW1 3614   2.409   2.579   1.669 -1.6296  0.8922  0.7118
  904SOL    HW2 3615   2.526   2.484   1.709 -1.8194  1.0333  2.8420
  904SOL     MW 3616   2.479   2.556   1.720 -0.2367 -0.1102  0.6301
  905SOL     OW 3617   2.312   2.551   2.186  0.1589 -0.8088 -0.1503
  905SOL    HW1 3618   2.372   2.500   2.132  1.9018 -0.8098  0.3100
  905SOL    HW2 3619   2.258   2.480   2.236 -1.2954 -0.6445  2.6581
  905SOL     MW 3620   2.313   2.535   2.185  0.1969 -0.7873  0.2809
  906SOL     OW 3621   2.455   2.470   0.774 -1.0665  0.2850  1.0845
  906SOL    HW1 3622   2.537   2.457   0.824 -1.1198  1.5740  1.0170
  906SOL    HW2 3623   2.418   2.543   0.823 -0.6508 -1.4359  0.5968
  906SOL     MW 3624   2.461   2.478   0.787 -1.0187  0.2280  1.0112
  907SOL     OW 3625   2.631   2.939   1.254 -0.4676  0.4594  0.3783
  907SOL    HW1 3626   2.694   2.947   1.326  1.7286  3.2000 -0.0385
  907SOL    HW2 3627   2.677   2.929   1.169  1.2260 -0.1511 -1.7357
  907SOL     MW 3628   2.646   2.939   1.252  0.0456  0.7405  0.0444
  908SOL     OW 3629   2.722   2.373   0.006  0.1629 -0.3250 -0.5822
  908SOL    HW1 3630   2.661   2.312   0.050 -3.2800 -3.5987 -2.2085
  908SOL    HW2 3631   2.702   2.451   0.052  0.1485  1.3030  1.0318
  908SOL     MW 3632   2.711   2.376   0.018 -0.2932 -0.5421 -0.5839
  909SOL     OW 3633   1.586   0.168   1.059 -0.4534 -0.4706  0.7247
  909SOL    HW1 3634   1.659   0.214   1.022 -0.2637  0.7734  0.0341
  909SOL    HW2 3635   1.575   0.212   1.146 -0.5802  0.8663  0.5917
  909SOL     MW 3636   1.594   0.180   1.066 -0.4451 -0.1301  0.6160
  910SOL     OW 3637   2.315   1.778   0.419  0.1911  0.0216 -0.1120
  910SOL    HW1 3638   2.257   1.698   0.430  0.9127 -0.6704  1.0703
  910SOL    HW2 3639   2.271   1.829   0.354  1.6428 -1.0942  0.5478
  910SOL     MW 3640   2.301   1.774   0.412  0.4779 -0.2169  0.1310
  911SOL     OW 3641   2.184   2.288   1.664  0.2785 -0.5781  0.1391
  911SOL    HW1 3642   2.257   2.285   1.734  3.0038 -0.3682  1.3243
  911SOL    HW2 3643   2.232   2.304   1.580  0.1202  0.6182 -0.8606
  911SOL     MW 3644   2.200   2.290   1.663  0.6172 -0.3926  0.1636
  912SOL     OW 3645   2.890   1.969   1.515 -0.2752  0.6223  0.2887
  912SOL    HW1 3646   2.918   1.994   1.429 -1.2048  0.3834  0.9330
  912SOL    HW2 3647   2.802   2.009   1.515 -1.0148  3.6698 -3.7284
  912SOL     MW 3648   2.882   1.977   1.504 -0.4954  0.9929 -0.1563
  913SOL     OW 3649   2.522   2.952   0.414 -0.4245  0.3100 -0.2452
  913SOL    HW1 3650   2.597   2.891   0.415  0.7628 -0.1955  0.4600
  913SOL    HW2 3651   2.447   2.888   0.412 -1.7123  1.0760  0.2733
  913SOL     MW 3652   2.522   2.935   0.414 -0.4377  0.3444 -0.0838
  914SOL     OW 3653   2.778   1.654   0.028  0.1142 -0.2882 -0.3128
  914SOL    HW1 3654   2.776   1.736  -0.030 -2.1002 -0.2473  0.2594
  914SOL    HW2 3655   2.685   1.633   0.047 -0.4323  4.3571 -3.4958
  914SOL     MW 3656   2.765   1.662   0.023 -0.2501  0.3301 -0.6573
  915SOL     OW 3657   1.829   0.185   0.250 -0.3302  0.2448  0.0110
  915SOL    HW1 3658   1.859   0.095   0.263 -1.4011 -1.9608  1.0866
  915SOL    HW2 3659   1.730   0.180   0.241 -1.2750 -1.3523  0.6640
  915SOL     MW 3660   1.820   0.173   0.250 -0.5962 -0.2569  0.2391
  916SOL     OW 3661   1.791   2.079   1.971 -0.4613 -0.1132 -0.1099
  916SOL    HW1 3662   1.834   2.158   1.938  3.0716 -2.2162  1.1127
  916SOL    HW2 3663   1.772   2.022   1.895 -1.6112 -1.6537 -0.8015
  916SOL     MW 3664   1.794   2.082   1.957 -0.1469 -0.5940 -0.0398
  917SOL     OW 3665   2.369   2.322   2.700  1.2103 -0.6495 -0.1653
  917SOL    HW1 3666   2.315   2.307   2.778 -0.2391  0.9997 -0.0240
  917SOL    HW2 3667   2.330   2.397   2.656 -0.5257 -1.0061 -1.4778
  917SOL     MW 3668   2.357   2.330   2.705  0.7900 -0.4789 -0.3198
  918SOL     OW 3669   2.052   1.659   2.674 -0.1679 -0.0740  0.3563
  918SOL    HW1 3670   1.965   1.681   2.629 -0.3845 -2.6262  0.4589
  918SOL    HW2 3671   2.124   1.730   2.656 -0.6360 -1.8763 -1.1677
  918SOL     MW 3672   2.050   1.671   2.666 -0.2582 -0.6486  0.1688
  919SOL     OW 3673   0.003   2.361   2.269 -0.3209 -0.5928 -0.4561
  919SOL    HW1 3674  -0.073   2.311   2.225  1.9491 -0.1035  2.0197
  919SOL    HW2 3675   0.072   2.358   2.204  2.6993 -0.4626  1.8794
  919SOL     MW 3676   0.002   2.354   2.254  0.3771 -0.5111  0.1787
  920SOL     OW 3677   2.768   2.842   0.019  0.0787 -0.0062 -0.5942
  920SOL    HW1 3678   2.684   2.877   0.052  2.4108  0.6626  1.0116
  920SOL    HW2 3679   2.742   2.806  -0.066  1.4134  1.7552  0.5228
  920SOL     MW 3680   2.753   2.842   0.012  0.5625  0.3145 -0.2350
  921SOL     OW 3681   2.490   2.622   2.652 -0.1855 -0.1636 -0.4422
  921SOL    HW1 3682   2.561   2.636   2.586 -1.9869  1.2480  2.2307
  921SOL    HW2 3683   2.525   2.555   2.709 -0.5630 -4.5201  0.3935
  921SOL     MW 3684   2.504   2.615   2.651 -0.4730 -0.5522  0.0207
  922SOL     OW 3685   2.031   2.784   0.281 -0.6927 -0.4038  0.1695
  922SOL    HW1 3686   2.027   2.794   0.179 -0.3992 -3.0294 -1.1443
  922SOL    HW2 3687   1.982   2.698   0.290  2.7254 -0.2548 -0.7987
  922SOL     MW 3688   2.024   2.774   0.269 -0.2030 -0.7305 -0.1316
  923SOL     OW 3689   2.226   2.817   1.678  0.4078 -0.3428  0.5661
  923SOL    HW1 3690   2.240   2.740   1.619 -1.0657 -0.0977  0.9835
  923SOL    HW2 3691   2.226   2.900   1.624 -0.0471 -0.3919  1.3922
  923SOL     MW 3692   2.228   2.818   1.663  0.1534 -0.3169  0.7302
  924SOL     OW 3693   1.179   2.768   2.542  0.2733 -0.7471  0.4547
  924SOL    HW1 3694   1.218   2.828   2.473  0.6134  0.4857  1.7568
  924SOL    HW2 3695   1.241   2.709   2.588 -1.7511  0.8385  1.2611
  924SOL     MW 3696   1.192   2.768   2.539  0.0511 -0.3752  0.7329
  925SOL     OW 3697   2.944   0.207   2.629 -0.0675  0.5537 -0.6560
  925SOL    HW1 3698   2.952   0.234   2.541  3.2847 -3.3977  0.3124
  925SOL    HW2 3699   2.881   0.271   2.668  0.8087 -1.9408 -2.0356
  925SOL     MW 3700   2.937   0.219   2.623  0.4904 -0.2968 -0.7102
  926SOL     OW 3701   2.703   2.393   2.088 -0.0548 -0.1102  0.1516
  926SOL    HW1 3702   2.758   2.460   2.132  0.4588  0.5255 -2.9710
  926SOL    HW2 3703   2.746   2.402   1.999  0.7516 -3.3156 -0.0382
  926SOL     MW 3704   2.716   2.403   2.082  0.1194 -0.4492 -0.2855
  927SOL     OW 3705   2.361   0.133   0.305 -0.1677 -0.3157  0.1522
  927SOL    HW1 3706   2.455   0.120   0.280  2.1662 -1.4143 -0.8405
  927SOL    HW2 3707   2.311   0.104   0.225 -0.6284  0.5378 -0.5139
  927SOL     MW 3708   2.367   0.127   0.291  0.0794 -0.3481 -0.0667
  928SOL     OW 3709   2.003   2.498   1.790  0.8089  0.0173  0.2769
  928SOL    HW1 3710   2.067   2.437   1.750  0.8217  1.6287  0.5094
  928SOL    HW2 3711   2.045   2.550   1.865 -1.6649  1.6823  1.7250
  928SOL     MW 3712   2.017   2.497   1.795  0.4842  0.4496  0.4986
  929SOL     OW 3713   2.752   2.383   2.460 -0.1815  0.3756 -0.3566
  929SOL    HW1 3714   2.784   2.303   2.414 -0.8551 -0.1320 -1.0910
  929SOL    HW2 3715   2.755   2.361   2.552 -1.2829  3.0669  2.6749
  929SOL     MW 3716   2.757   2.370   2.466 -0.4157  0.6637 -0.0535
  930SOL     OW 3717   2.032   2.911   2.690  0.5868  0.3264  0.4957
  930SOL    HW1 3718   2.033   2.839   2.754 -0.3770 -0.9379 -0.7939
  930SOL    HW2 3719   2.126   2.937   2.692 -2.0166  1.8028  1.0083
  930SOL     MW 3720   2.045   2.905   2.698  0.1161  0.3544  0.3932
  931SOL     OW 3721   2.943   2.804   2.244 -0.2320  0.2383  0.3542
  931SOL    HW1 3722   3.032   2.770   2.257  2.5127  2.8402  0.1133
  931SOL    HW2 3723   2.965   2.841   2.159 -1.0216  0.9133  2.2518
  931SOL     MW 3724   2.958   2.804   2.235  0.0259  0.6706  0.5728
  932SOL     OW 3725   2.815   1.929   2.563  0.3872 -0.1065 -0.1132
  932SOL    HW1 3726   2.901   1.964   2.581 -0.2631  0.6456 -1.8635
  932SOL    HW2 3727   2.821   1.926   2.470  1.2952 -2.0146 -2.2272
  932SOL     MW 3728   2.827   1.933   2.553  0.4212 -0.2590 -0.6231
  933SOL     OW 3729   2.040   2.810   2.214  0.5304 -0.1032 -0.3289
  933SOL    HW1 3730   2.123   2.850   2.246 -1.5832  1.8236  1.4859
  933SOL    HW2 3731   2.000   2.894   2.183  1.7033  2.1064  3.1027
  933SOL     MW 3732   2.046   2.826   2.214  0.4063  0.4426  0.3633
  934SOL     OW 3733   2.042   2.742   2.479  0.1979  0.4475 -0.6427
  934SOL    HW1 3734   2.037   2.820   2.537 -2.0221  0.7332  1.5476
  934SOL    HW2 3735   2.027   2.769   2.385 -3.3978 -1.9722  0.9560
  934SOL     MW 3736   2.039   2.756   2.474 -0.5694  0.1659 -0.1428
  935SOL     OW 3737   2.613   1.542   1.815  0.4206 -0.1305 -0.0974
  935SOL    HW1 3738   2.691   1.546   1.762 -3.0180  0.0083 -1.9261
  935SOL    HW2 3739   2.554   1.552   1.742  2.1913 -0.0444 -3.8002
  935SOL     MW 3740   2.615   1.544   1.798  0.2006 -0.1009 -0.8272
  936SOL     OW 3741   2.959   2.240   3.065  0.4793 -0.3995 -0.0524
  936SOL    HW1 3742   3.009   2.243   3.148 -1.4051  1.4075 -0.4366
  936SOL    HW2 3743   2.880   2.289   3.076  1.5475  0.1166  1.1268
  936SOL     MW 3744   2.955   2.247   3.077  0.3716 -0.0930  0.0525
  937SOL     OW 3745   2.008   2.183   2.632  1.0077  0.2295  0.7353
  937SOL    HW1 3746   2.078   2.153   2.689 -0.4677 -2.4182  0.1204
  937SOL    HW2 3747   2.033   2.164   2.542  0.7681  1.1981  0.8769
  937SOL     MW 3748   2.020   2.177   2.627  0.7814  0.0080  0.6728
  938SOL     OW 3749   2.302   1.802   1.907 -0.2268 -0.1242  0.3897
  938SOL    HW1 3750   2.274   1.845   1.822 -0.4468 -0.7849 -1.7311
  938SOL    HW2 3751   2.314   1.870   1.971  2.0261 -3.9842  0.2448
  938SOL     MW 3752   2.300   1.816   1.904  0.0414 -0.7207  0.0907
  939SOL     OW 3753   2.823   1.966   2.289  0.4201  0.7295 -0.0329
  939SOL    HW1 3754   2.806   1.909   2.211  1.1124  1.5060 -2.5395
  939SOL    HW2 3755   2.731   1.999   2.298  0.2272  0.4676 -1.8393
  939SOL     MW 3756   2.809   1.963   2.280  0.4860  0.7974 -0.6020
  940SOL     OW 3757   2.325   0.127   2.690  0.3205 -0.1895 -0.4045
  940SOL    HW1 3758   2.295   0.037   2.668 -2.5464 -1.0063 -0.3889
  940SOL    HW2 3759   2.387   0.128   2.762 -1.6625  4.7144 -1.9016
  940SOL     MW 3760   2.329   0.116   2.696 -0.3194  0.3497 -0.6000
  941SOL     OW 3761   0.181   2.326   2.045  0.9417 -0.3351  0.1374
  941SOL    HW1 3762   0.256   2.275   2.069 -0.5151  2.8477 -1.9576
  941SOL    HW2 3763   0.130   2.282   1.982  3.5985  3.4371  1.4833
  941SOL     MW 3764   0.184   2.314   2.040  1.1000  0.5825  0.0385
  942SOL     OW 3765   2.869   2.202   2.192  0.2256 -0.2984  0.5421
  942SOL    HW1 3766   2.779   2.247   2.180 -2.7941  0.0899 -0.3670
  942SOL    HW2 3767   2.858   2.117   2.235  2.3108 -0.6337 -2.5504
  942SOL     MW 3768   2.856   2.197   2.196  0.1023 -0.2914  0.0142
  943SOL     OW 3769   0.341   2.036   2.331  1.0168  0.0781 -0.5449
  943SOL    HW1 3770   0.273   2.094   2.378  0.7284 -0.0407  1.3023
  943SOL    HW2 3771   0.427   2.050   2.379 -0.7778 -0.7148  3.3111
  943SOL     MW 3772   0.344   2.045   2.343  0.7420 -0.0422  0.2076
  944SOL     OW 3773   2.129   2.621   2.015  0.0346  0.0659  0.2729
  944SOL    HW1 3774   2.201   2.591   2.079  0.8123 -1.3229 -0.0216
  944SOL    HW2 3775   2.064   2.672   2.064 -2.2695  0.8889 -0.9990
  944SOL     MW 3776   2.130   2.624   2.030 -0.1668 -0.0088  0.0663
  945SOL     OW 3777   2.784   2.684   2.870  0.0424  0.6147 -0.3710
  945SOL    HW1 3778   2.714   2.623   2.868  1.7710  1.9569  0.2895
  945SOL    HW2 3779   2.826   2.678   2.786  1.8737 -1.2594 -0.5341
  945SOL     MW 3780   2.780   2.675   2.859  0.5121  0.5445 -0.3054
  946SOL     OW 3781   2.489   2.757   2.275 -0.5646  0.0625 -0.7744
  946SOL    HW1 3782   2.537   2.771   2.193 -0.7124 -2.6866 -0.2426
  946SOL    HW2 3783   2.427   2.690   2.256 -4.1998 -0.0535  0.0872
  946SOL     MW 3784   2.487   2.750   2.262 -1.0637 -0.3155 -0.5906
  947SOL     OW 3785   2.032   3.077   0.270 -0.0759  0.2539 -0.6392
  947SOL    HW1 3786   2.040   2.988   0.293 -2.8642  1.2904 -0.2015
  947SOL    HW2 3787   2.061   3.133   0.353  1.7679  2.4169  2.6294
  947SOL     MW 3788   2.037   3.073   0.284 -0.2006  0.6761 -0.1502
  948SOL     OW 3789   1.818   3.065   2.638  0.2028  0.2653  0.0556
  948SOL    HW1 3790   1.894   3.008   2.668  0.2705  0.7687  2.7983
  948SOL    HW2 3791   1.827   3.094   2.545 -2.0857 -0.5298 -2.6261
  948SOL     MW 3792   1.829   3.062   2.629 -0.0902  0.2268  0.0637
  949SOL     OW 3793   2.565   2.039   2.299  0.0533  0.4933  0.0527
  949SOL    HW1 3794   2.548   1.950   2.337 -1.1596  0.3287  2.6621
  949SOL    HW2 3795   2.526   2.094   2.368 -1.8979 -2.7889 -1.5098
  949SOL     MW 3796   2.557   2.034   2.313 -0.3642  0.0385  0.1909
  950SOL     OW 3797   2.186   2.608   3.017 -0.7586 -0.3126 -0.6102
  950SOL    HW1 3798   2.255   2.545   2.987  1.5344 -1.1517  0.1035
  950SOL    HW2 3799   2.118   2.623   2.948  0.8224  1.2994  1.3631
  950SOL     MW 3800   2.186   2.601   3.004 -0.2475 -0.2106 -0.2557
  951SOL     OW 3801   2.964   2.067   2.832  0.4878  0.3158  0.5473
  951SOL    HW1 3802   2.994   2.142   2.888 -2.1572  2.3367  1.6932
  951SOL    HW2 3803   3.023   2.070   2.749 -0.2772 -1.5423  0.4674
  951SOL     MW 3804   2.976   2.078   2.828  0.0379  0.3373  0.6880
  952SOL     OW 3805   3.041   1.682   2.041  0.5726  0.0054 -0.1939
  952SOL    HW1 3806   2.958   1.730   2.029 -0.7788 -0.9876  1.3880
  952SOL    HW2 3807   3.104   1.736   2.084  0.8835  1.4225  0.8211
  952SOL     MW 3808   3.038   1.695   2.045  0.4353  0.0614  0.1487
  953SOL     OW 3809   1.995   1.819   2.897  0.1380 -0.6139 -0.0869
  953SOL    HW1 3810   1.902   1.814   2.900 -0.9659  2.3752  2.9129
  953SOL    HW2 3811   2.012   1.752   2.836  0.4946 -0.6246  0.3269
  953SOL     MW 3812   1.985   1.810   2.889  0.0394 -0.2209  0.3635
  954SOL     OW 3813   2.449   2.113   2.907  0.5340  0.3227  0.6847
  954SOL    HW1 3814   2.366   2.092   2.856 -0.3658 -0.2418 -3.2555
  954SOL    HW2 3815   2.520   2.100   2.842 -1.7821 -1.7009 -1.3396
  954SOL     MW 3816   2.448   2.108   2.892  0.1097 -0.0187 -0.1022
  955SOL     OW 3817   1.593   1.608   2.557 -0.7001  0.2055 -0.8371
  955SOL    HW1 3818   1.579   1.606   2.457  2.0423 -0.9572 -1.3560
  955SOL    HW2 3819   1.677   1.656   2.581  0.3233 -1.0744 -1.9633
  955SOL     MW 3820   1.602   1.614   2.547 -0.2032 -0.1167 -1.0542
  956SOL     OW 3821   2.612   2.468   2.845 -0.1799  0.3668 -0.3993
  956SOL    HW1 3822   2.639   2.449   2.936 -2.8935  0.7005  2.1543
  956SOL    HW2 3823   2.657   2.392   2.802  1.4406 -1.1701  1.3438
  956SOL     MW 3824   2.621   2.455   2.851 -0.3241  0.2080  0.1676
  957SOL     OW 3825   2.289   2.792   0.394  0.1810  0.1655  0.0048
  957SOL    HW1 3826   2.206   2.827   0.352  0.8757 -1.5943 -1.2791
  957SOL    HW2 3827   2.258   2.749   0.480 -2.3994 -0.2801  0.1244
  957SOL     MW 3828   2.274   2.791   0.400 -0.0678 -0.1255 -0.1488
  958SOL     OW 3829   2.016   2.671   2.810  0.2369 -0.5106  0.0339
  958SOL    HW1 3830   2.014   2.594   2.746 -2.2495  2.4397 -0.5900
  958SOL    HW2 3831   1.940   2.674   2.869  5.7631 -0.8463 -0.1458
  958SOL     MW 3832   2.006   2.661   2.810  0.6380 -0.1657 -0.0721
  959SOL     OW 3833   2.426   2.561   0.310  0.1357 -0.3914 -0.2130
  959SOL    HW1 3834   2.496   2.571   0.243  0.7583 -1.7613 -1.7450
  959SOL    HW2 3835   2.387   2.654   0.328 -0.6053  2.3503  1.9793
  959SOL     MW 3836   2.430   2.575   0.304  0.1201 -0.2104 -0.1259
  960SOL     OW 3837   1.919   2.375   2.310 -0.1870 -0.1036  0.0199
  960SOL    HW1 3838   1.892   2.282   2.293 -2.1663 -2.0335  1.0423
  960SOL    HW2 3839   1.868   2.399   2.388  0.1141 -2.2942  1.2651
  960SOL     MW 3840   1.909   2.366   2.318 -0.4084 -0.6472  0.3191
  961SOL     OW 3841   2.201   2.353   2.354 -0.3793 -0.1274  0.2272
  961SOL    HW1 3842   2.110   2.361   2.321 -1.2498 -1.3119 -5.3827
  961SOL    HW2 3843   2.210   2.407   2.436  1.0289 -1.5925  0.1425
  961SOL     MW 3844   2.190   2.361   2.360 -0.3084 -0.4770 -0.5242
  962SOL     OW 3845   2.200   2.086   2.776  0.0378  0.0248 -0.0962
  962SOL    HW1 3846   2.172   2.050   2.859 -0.6087 -2.2940 -0.2739
  962SOL    HW2 3847   2.218   2.023   2.711 -1.9923  3.7488 -2.6690
  962SOL     MW 3848   2.199   2.073   2.778 -0.3154  0.2102 -0.4591
  963SOL     OW 3849   1.783   2.586   2.074  0.4356 -0.2578 -0.9890
  963SOL    HW1 3850   1.820   2.571   2.161  0.9321  3.0657  2.9462
  963SOL    HW2 3851   1.786   2.504   2.032 -1.6381 -2.3453  1.5083
  963SOL     MW 3852   1.789   2.573   2.080  0.2275 -0.0947 -0.1403
  964SOL     OW 3853   1.843   1.987   2.709  0.3475 -0.2978  0.4446
  964SOL    HW1 3854   1.895   2.055   2.665  2.2745  2.8094 -1.0221
  964SOL    HW2 3855   1.895   1.953   2.785 -0.9964  0.8817  0.1434
  964SOL     MW 3856   1.857   1.992   2.713  0.4244  0.2678  0.2114
  965SOL     OW 3857   2.203   2.673   0.621  0.0111 -0.0829 -0.5391
  965SOL    HW1 3858   2.142   2.604   0.607 -0.1126  0.4522  3.9986
  965SOL    HW2 3859   2.259   2.643   0.693 -0.1584  0.9192  1.6931
  965SOL     MW 3860   2.202   2.660   0.628 -0.0276  0.1199  0.3541
  966SOL     OW 3861   2.673   2.648   2.471 -0.0531 -0.3966 -0.0531
  966SOL    HW1 3862   2.632   2.678   2.388  1.7492  0.0721 -1.2028
  966SOL    HW2 3863   2.701   2.558   2.446  0.1678  0.3446 -0.2449
  966SOL     MW 3864   2.672   2.640   2.457  0.2138 -0.2369 -0.2301
  967SOL     OW 3865   2.900   2.990   2.923  0.1756  0.0851  0.2075
  967SOL    HW1 3866   2.854   2.943   2.994 -2.1229 -0.3505  2.0834
  967SOL    HW2 3867   2.822   3.015   2.867  0.1978  1.3381 -0.6515
  967SOL     MW 3868   2.884   2.987   2.925 -0.1247  0.1929  0.3417
  968SOL     OW 3869   2.997   2.586   2.993  0.3288  0.0637  0.3908
  968SOL    HW1 3870   2.917   2.621   2.947 -1.2892 -1.1687 -1.2855
  968SOL    HW2 3871   2.997   2.516   2.932  1.8937  1.4820 -1.4545
  968SOL     MW 3872   2.986   2.581   2.979  0.3218  0.0882 -0.0738
  969SOL     OW 3873   1.531   2.100   1.731  0.3938 -0.4222 -0.0604
  969SOL    HW1 3874   1.602   2.040   1.740 -0.1105  0.3955  2.2554
  969SOL    HW2 3875   1.499   2.106   1.826 -1.5961 -0.6603  2.6732
  969SOL     MW 3876   1.536   2.093   1.745  0.0647 -0.3457  0.6058
  970SOL     OW 3877   1.629   1.722   1.874 -0.7253  0.0456 -0.1172
  970SOL    HW1 3878   1.653   1.665   1.946  1.4651 -0.0445  0.5000
  970SOL    HW2 3879   1.532   1.725   1.880  0.4407  0.5501  1.1003
  970SOL     MW 3880   1.619   1.715   1.884 -0.2824  0.1003  0.1249
  971SOL     OW 3881   1.825   0.117   2.352 -0.3814 -0.6982 -0.3573
  971SOL    HW1 3882   1.865   0.067   2.285  0.3260 -2.6305 -3.3783
  971SOL    HW2 3883   1.889   0.188   2.384 -0.1189  2.8696  3.1744
  971SOL     MW 3884   1.838   0.120   2.347 -0.2534 -0.4824 -0.2899
  972SOL     OW 3885   0.277   2.784   2.509  0.2112  0.2893  0.3535
  972SOL    HW1 3886   0.295   2.691   2.532  0.5445  0.3481 -2.4602
  972SOL    HW2 3887   0.335   2.835   2.565 -0.9918 -0.0630 -0.3622
  972SOL     MW 3888   0.287   2.779   2.519  0.0965  0.2506 -0.1122
  973SOL     OW 3889   2.612   3.088   2.060  0.6871 -0.3123  0.3955
  973SOL    HW1 3890   2.628   2.997   2.041 -0.8981  0.4843 -0.1664
  973SOL    HW2 3891   2.588   3.124   1.975  1.3606  0.6916  2.8442
  973SOL     MW 3892   2.611   3.081   2.046  0.5668 -0.0747  0.6444
  974SOL     OW 3893   2.113   0.320   2.761 -0.1397 -0.7603  0.3888
  974SOL    HW1 3894   2.191   0.284   2.722 -2.0740 -1.4713  1.3911
  974SOL    HW2 3895   2.073   0.245   2.799 -1.3344 -0.9770 -1.8916
  974SOL     MW 3896   2.118   0.305   2.761 -0.5525 -0.8827  0.2202
  975SOL     OW 3897   2.237   2.562   2.565 -0.5331 -0.2964 -0.0044
  975SOL    HW1 3898   2.326   2.588   2.570 -0.4375  0.4461 -0.4453
  975SOL    HW2 3899   2.184   2.641   2.554 -0.5017 -0.8847  0.5388
  975SOL     MW 3900   2.241   2.576   2.564 -0.5163 -0.2761  0.0091
  976SOL     OW 3901   0.215   0.320   1.697 -0.4660  0.6159  0.0872
  976SOL    HW1 3902   0.285   0.254   1.734  0.4795 -2.2951  3.2455
  976SOL    HW2 3903   0.128   0.288   1.721  1.7826  0.6568  0.0521
  976SOL     MW 3904   0.213   0.307   1.705 -0.0446  0.2372  0.4993
  977SOL     OW 3905   1.706   2.751   2.487  0.2127  0.0494 -0.1612
  977SOL    HW1 3906   1.710   2.653   2.477 -0.3225  0.3553 -2.0129
  977SOL    HW2 3907   1.796   2.762   2.514 -0.2375  0.5172  0.1179
  977SOL     MW 3908   1.718   2.740   2.489  0.0827  0.1515 -0.3687
   3.10000   3.10000   3.10000
