977 TIP4P/2005f water molecules t=   0.61000 step= 610
 3908
    1SOL     OW    1   0.187   0.847   0.020 -0.3458 -0.2171 -0.3468
    1SOL    HW1    2   0.168   0.841  -0.073 -2.5483  2.9928 -0.5822
    1SOL    HW2    3   0.175   0.754   0.040 -3.0309 -1.8131  1.5844
    1SOL     MW    4   0.183   0.834   0.010 -0.9907 -0.0042 -0.1231
    2SOL     OW    5   0.245   3.018   1.175 -0.4669  0.0288  0.2919
    2SOL    HW1    6   0.303   3.083   1.140  1.0801  0.4071 -0.4048
    2SOL    HW2    7   0.174   3.070   1.207 -0.0572 -0.5782  0.8975
    2SOL     MW    8   0.243   3.033   1.175 -0.2087 -0.0013  0.2799
    3SOL     OW    9   2.672   0.406   0.917 -0.3810  0.1708  0.2597
    3SOL    HW1   10   2.709   0.486   0.877  4.1762  3.4526  1.2086
    3SOL    HW2   11   2.656   0.435   1.007  2.1855 -0.4217  0.2302
    3SOL     MW   12   2.675   0.420   0.923  0.5589  0.5257  0.3810
    4SOL     OW   13   3.033   1.748   0.594 -0.2314 -0.5115  0.0481
    4SOL    HW1   14   2.954   1.779   0.547  0.4453 -2.4304  0.9391
    4SOL    HW2   15   3.089   1.704   0.533 -1.2417 -2.3337  3.8657
    4SOL     MW   16   3.030   1.746   0.580 -0.2754 -1.0051  0.6693
    5SOL     OW   17   1.734   1.516   0.546 -0.1688 -0.4722  0.0332
    5SOL    HW1   18   1.768   1.468   0.624  0.2276  1.5648 -1.1615
    5SOL    HW2   19   1.642   1.506   0.551  1.0501 -0.3548 -0.6837
    5SOL     MW   20   1.727   1.508   0.557  0.0443 -0.1879 -0.2191
    6SOL     OW   21   0.856   1.372   0.693  0.2529 -0.1135  0.0867
    6SOL    HW1   22   0.763   1.389   0.693  1.3794 -1.0675 -2.1843
    6SOL    HW2   23   0.875   1.298   0.755  0.2323 -1.1889 -1.8162
    6SOL     MW   24   0.846   1.364   0.701  0.3988 -0.3813 -0.4640
    7SOL     OW   25   2.010   1.159   0.019 -0.3005  0.1260 -0.3840
    7SOL    HW1   26   2.072   1.191  -0.044  1.1921 -3.1999  1.6044
    7SOL    HW2   27   2.060   1.145   0.098 -0.4944 -2.4516  0.6587
    7SOL     MW   28   2.025   1.161   0.021 -0.1291 -0.6529  0.0159
    8SOL     OW   29   0.951   1.355   1.016  0.1751 -0.4438 -0.0312
    8SOL    HW1   30   0.997   1.270   1.019  1.9992 -3.3036  0.8144
    8SOL    HW2   31   0.923   1.360   1.109 -0.9508  0.6030  0.8891
    8SOL     MW   32   0.953   1.344   1.029  0.2672 -0.6830  0.2018
    9SOL     OW   33   1.078   0.456   1.377 -0.2406 -0.1554 -0.7728
    9SOL    HW1   34   0.995   0.410   1.348 -1.3356 -3.1242  2.2103
    9SOL    HW2   35   1.106   0.413   1.457 -1.0579  0.4098 -1.0093
    9SOL     MW   36   1.071   0.444   1.384 -0.4929 -0.4725 -0.4104
   10SOL     OW   37   0.259   0.786   0.420  0.2963  0.3111 -0.0525
   10SOL    HW1   38   0.344   0.787   0.388 -2.6989 -3.2981 -0.8715
   10SOL    HW2   39   0.264   0.843   0.498  1.7943  1.1855  0.0811
   10SOL     MW   40   0.271   0.794   0.426  0.0988 -0.0498 -0.1429
   11SOL     OW   41   0.780   1.159   1.678  0.2133 -0.4080  0.4234
   11SOL    HW1   42   0.827   1.118   1.747 -1.0297 -0.4695 -3.1708
   11SOL    HW2   43   0.764   1.085   1.620  0.9469  1.8832  3.7207
   11SOL     MW   44   0.784   1.144   1.680  0.1461 -0.1138  0.3843
   12SOL     OW   45   3.097   1.061   0.881 -0.1958  0.7310  0.3147
   12SOL    HW1   46   3.124   1.138   0.936  0.0141 -3.6008  5.2467
   12SOL    HW2   47   3.044   1.104   0.812 -1.3026 -1.8982 -2.6281
   12SOL     MW   48   3.094   1.077   0.879 -0.3141 -0.1874  0.5772
   13SOL     OW   49   1.837   1.415   1.324 -0.3071  0.0582  0.2741
   13SOL    HW1   50   1.862   1.368   1.244  1.9936 -2.2525 -0.9575
   13SOL    HW2   51   1.836   1.513   1.306  1.2928  0.4123 -1.5938
   13SOL     MW   52   1.840   1.421   1.311  0.2075 -0.1999 -0.1349
   14SOL     OW   53   0.601   0.338   1.798  0.1243  0.5033  0.0668
   14SOL    HW1   54   0.551   0.258   1.780  2.4056 -0.2480 -0.9597
   14SOL    HW2   55   0.685   0.315   1.834 -1.0285  1.8312 -0.7337
   14SOL     MW   56   0.605   0.325   1.800  0.2732  0.5794 -0.1743
   15SOL     OW   57   1.913   0.497   0.976  0.0730 -0.2848 -0.2750
   15SOL    HW1   58   1.925   0.526   1.072 -0.8060  0.0624  1.1194
   15SOL    HW2   59   1.996   0.452   0.961  0.7261  0.8185  0.0979
   15SOL     MW   60   1.926   0.495   0.987  0.0432 -0.0934 -0.0419
   16SOL     OW   61   0.260   1.816   0.328 -0.0743  0.6009  0.3559
   16SOL    HW1   62   0.346   1.778   0.351  0.7724  0.3204 -1.4859
   16SOL    HW2   63   0.240   1.882   0.394 -1.0845  1.5443  0.8892
   16SOL     MW   64   0.269   1.820   0.340 -0.0959  0.6883  0.1832
   17SOL     OW   65   1.020   0.863   1.492  0.4035  0.7525  0.3064
   17SOL    HW1   66   1.052   0.828   1.576 -1.3196 -1.0799  0.0865
   17SOL    HW2   67   0.928   0.870   1.497  0.9058 -0.7369 -0.9300
   17SOL     MW   68   1.012   0.859   1.504  0.2424  0.3142  0.1143
   18SOL     OW   69   0.096   1.593   0.387  0.1982  0.4846 -0.6522
   18SOL    HW1   70   0.162   1.657   0.353  0.0907  0.6126 -2.4211
   18SOL    HW2   71   0.050   1.563   0.309  1.0350 -0.3554  1.0629
   18SOL     MW   72   0.099   1.597   0.372  0.2944  0.3906 -0.6593
   19SOL     OW   73   0.078   1.298   1.010  0.1916  0.0627 -0.3308
   19SOL    HW1   74   0.131   1.334   0.937 -2.4673  1.5488 -0.1742
   19SOL    HW2   75  -0.007   1.349   1.006 -3.6582 -0.0248 -2.5135
   19SOL     MW   76   0.074   1.310   1.000 -0.6671  0.2472 -0.5981
   20SOL     OW   77   0.401   2.128   1.242  0.2164  0.1088 -1.3301
   20SOL    HW1   78   0.372   2.036   1.221 -1.0787 -0.5360  0.7721
   20SOL    HW2   79   0.345   2.154   1.322 -1.7482 -0.1907  0.8387
   20SOL     MW   80   0.389   2.119   1.250 -0.2137 -0.0158 -0.7666
   21SOL     OW   81   0.523   0.806   0.367  0.0510 -0.1759 -0.3473
   21SOL    HW1   82   0.612   0.809   0.398  1.1066 -1.7402 -1.9836
   21SOL    HW2   83   0.542   0.774   0.280  0.6284  1.1651 -0.5890
   21SOL     MW   84   0.537   0.802   0.359  0.2665 -0.2053 -0.5951
   22SOL     OW   85   1.494   0.556   1.098 -0.1142  0.0012 -0.5004
   22SOL    HW1   86   1.558   0.520   1.035 -1.3940  2.4326  2.4056
   22SOL    HW2   87   1.427   0.613   1.056  0.5469 -0.3683  0.6758
   22SOL     MW   88   1.494   0.559   1.085 -0.1958  0.2733  0.0382
   23SOL     OW   89   3.092   0.776   0.648  0.6374 -0.0509  0.0079
   23SOL    HW1   90   3.117   0.709   0.712  1.4973  1.2419  2.1259
   23SOL    HW2   91   3.172   0.828   0.638 -2.8125  0.7698  1.1203
   23SOL     MW   92   3.106   0.774   0.655  0.2957  0.2279  0.4341
   24SOL     OW   93   2.011   2.209   0.108  0.3674  0.3186  0.4242
   24SOL    HW1   94   2.031   2.181   0.198  0.0022 -0.2928 -1.1835
   24SOL    HW2   95   2.066   2.146   0.054 -1.6943 -1.1100 -2.2718
   24SOL     MW   96   2.020   2.197   0.113  0.0472  0.0494 -0.1436
   25SOL     OW   97   0.239   1.384   0.549 -0.7115 -0.2496  0.2134
   25SOL    HW1   98   0.186   1.444   0.491 -0.5501 -0.1735  0.2864
   25SOL    HW2   99   0.302   1.343   0.487  0.5345 -4.1363 -2.6889
   25SOL     MW  100   0.240   1.386   0.533 -0.5258 -0.7524 -0.1599
   26SOL     OW  101   2.013   0.927   0.445 -0.0194  0.3006 -0.5895
   26SOL    HW1  102   1.925   0.968   0.472 -1.4811  2.6849 -0.4407
   26SOL    HW2  103   2.038   1.004   0.389 -5.7957 -0.1243 -0.9386
   26SOL     MW  104   2.005   0.943   0.441 -0.9744  0.5591 -0.6159
   27SOL     OW  105   2.062   1.395   0.231 -0.2712  0.0814 -0.4064
   27SOL    HW1  106   1.975   1.373   0.268 -1.4649  2.4014  0.0114
   27SOL    HW2  107   2.081   1.475   0.279  1.3413 -1.2251  0.8455
   27SOL     MW  108   2.053   1.403   0.242 -0.2159  0.2151 -0.1861
   28SOL     OW  109   0.408   1.095   1.975 -0.1622 -0.5673  0.8857
   28SOL    HW1  110   0.503   1.082   2.000  1.0411  4.9454 -0.8998
   28SOL    HW2  111   0.355   1.039   2.031 -0.0432  0.4603 -0.6341
   28SOL     MW  112   0.414   1.086   1.986  0.0122  0.2956  0.4496
   29SOL     OW  113   0.267   1.438   0.825 -1.0114  0.4535 -0.2604
   29SOL    HW1  114   0.259   1.531   0.812 -0.7715 -0.1368  0.3626
   29SOL    HW2  115   0.250   1.413   0.735 -2.2862 -1.4361  0.2855
   29SOL     MW  116   0.264   1.447   0.811 -1.1480  0.1263 -0.1062
   30SOL     OW  117   0.841   1.161   1.226 -0.5831  0.3998 -0.2104
   30SOL    HW1  118   0.759   1.165   1.277  1.2039 -0.0808  1.4999
   30SOL    HW2  119   0.914   1.155   1.294  0.1041 -1.4821 -1.3380
   30SOL     MW  120   0.840   1.161   1.242 -0.2567  0.0881 -0.1335
   31SOL     OW  121   0.382   0.184   0.144 -0.2093 -0.1670 -0.2799
   31SOL    HW1  122   0.397   0.117   0.208 -0.8243  0.7792 -0.6153
   31SOL    HW2  123   0.379   0.133   0.063  1.5795 -2.9857 -0.2284
   31SOL     MW  124   0.383   0.169   0.142 -0.0544 -0.4140 -0.3173
   32SOL     OW  125   2.775   1.011   1.136  0.4762 -0.3964 -0.3520
   32SOL    HW1  126   2.723   0.937   1.108 -1.3227  0.8488  0.2776
   32SOL    HW2  127   2.868   0.989   1.113  0.1135  1.0789 -0.3799
   32SOL     MW  128   2.780   0.998   1.129  0.1910 -0.0374 -0.2726
   33SOL     OW  129   1.812   1.321   0.361  0.6377 -0.1509 -0.2505
   33SOL    HW1  130   1.799   1.241   0.414  0.7523 -0.7447 -0.0734
   33SOL    HW2  131   1.767   1.394   0.406  0.8193 -0.2139  0.6745
   33SOL     MW  132   1.804   1.320   0.374  0.6768 -0.2376 -0.1051
   34SOL     OW  133   1.217   1.873   1.107  0.3739 -0.1561 -0.0316
   34SOL    HW1  134   1.120   1.902   1.126  1.4753  1.6970 -1.6428
   34SOL    HW2  135   1.277   1.904   1.172 -0.0974 -0.6839  0.0812
   34SOL     MW  136   1.212   1.881   1.118  0.4571  0.0188 -0.2293
   35SOL     OW  137   0.365   0.131   1.860  0.3123  0.0669  0.6755
   35SOL    HW1  138   0.351   0.092   1.944  0.0294  0.6119 -1.0974
   35SOL    HW2  139   0.379   0.060   1.792  0.8807  1.6933  0.4910
   35SOL     MW  140   0.365   0.117   1.862  0.3500  0.3534  0.4172
   36SOL     OW  141   1.838   1.922   0.488 -0.0791  0.2690  0.4212
   36SOL    HW1  142   1.866   1.905   0.403 -0.2863  0.6274  1.2564
   36SOL    HW2  143   1.861   1.838   0.529  1.4505 -0.9120  0.3383
   36SOL     MW  144   1.845   1.909   0.482  0.0954  0.1605  0.5205
   37SOL     OW  145   1.765   1.997   1.069 -0.2486 -0.1769  0.3160
   37SOL    HW1  146   1.739   1.985   0.976 -1.0558 -1.8290 -2.6239
   37SOL    HW2  147   1.688   2.038   1.112 -0.2106 -3.5808  1.1884
   37SOL     MW  148   1.752   2.001   1.062 -0.3501 -0.8440  0.0432
   38SOL     OW  149   2.841   0.910   0.157  0.1260 -0.8860 -0.4918
   38SOL    HW1  150   2.875   0.912   0.251  1.7005  1.7445 -0.8678
   38SOL    HW2  151   2.915   0.890   0.100 -0.0586  1.4308 -2.9550
   38SOL     MW  152   2.855   0.908   0.162  0.3094 -0.2332 -0.8664
   39SOL     OW  153   1.391   0.630   0.793 -0.2023  0.5068 -0.3417
   39SOL    HW1  154   1.413   0.537   0.808  2.1252 -0.6479 -0.6010
   39SOL    HW2  155   1.296   0.641   0.800  1.1341 -0.7350  0.2248
   39SOL     MW  156   1.381   0.619   0.796  0.2811  0.1906 -0.3011
   40SOL     OW  157   1.190   1.889   0.247 -0.1807 -0.0524 -0.5078
   40SOL    HW1  158   1.232   1.827   0.308  0.0559 -1.2761 -2.3322
   40SOL    HW2  159   1.175   1.969   0.302  0.8074  0.9707 -0.3850
   40SOL     MW  160   1.194   1.891   0.262 -0.0191 -0.0789 -0.7323
   41SOL     OW  161   0.610   0.467   1.552  0.2095 -0.3623 -0.3584
   41SOL    HW1  162   0.700   0.494   1.551  0.5175 -1.2549 -0.3218
   41SOL    HW2  163   0.610   0.408   1.633 -0.0004  0.5196 -0.0011
   41SOL     MW  164   0.622   0.463   1.563  0.2225 -0.3637 -0.3064
   42SOL     OW  165   1.257   3.001   2.019 -0.1716  0.2546  0.4505
   42SOL    HW1  166   1.168   2.998   2.051 -0.1765 -1.9437 -0.1418
   42SOL    HW2  167   1.294   2.916   2.037  2.3924  2.6055 -1.9047
   42SOL     MW  168   1.250   2.989   2.025  0.1660  0.2747  0.0616
   43SOL     OW  169   1.546   0.139   1.756  0.3574 -0.1741  0.4934
   43SOL    HW1  170   1.592   0.078   1.703 -1.2598 -0.3099  0.1293
   43SOL    HW2  171   1.461   0.111   1.720  2.1022 -1.0746 -0.2999
   43SOL     MW  172   1.541   0.127   1.745  0.3742 -0.3108  0.3407
   44SOL     OW  173   1.250   0.749   1.100  0.3313  0.4089  0.3538
   44SOL    HW1  174   1.234   0.840   1.064 -0.1006  0.1129  1.6063
   44SOL    HW2  175   1.233   0.753   1.197 -0.2814 -1.0983  1.2974
   44SOL     MW  176   1.246   0.761   1.108  0.1935  0.1710  0.6435
   45SOL     OW  177   1.132   0.707   0.758  0.0673 -0.1821 -0.0532
   45SOL    HW1  178   1.084   0.673   0.828 -1.4373 -1.6957 -1.9338
   45SOL    HW2  179   1.098   0.665   0.682  0.4155  0.1461  0.0296
   45SOL     MW  180   1.121   0.697   0.757 -0.0853 -0.3385 -0.2904
   46SOL     OW  181   0.549   1.200   0.545  0.4585 -0.0549  0.0009
   46SOL    HW1  182   0.529   1.198   0.456  2.6168  0.0579  2.6581
   46SOL    HW2  183   0.632   1.155   0.550 -2.0347 -2.6056  2.2733
   46SOL     MW  184   0.558   1.194   0.534  0.4143 -0.3765  0.6513
   47SOL     OW  185   0.164   1.938   1.784  0.0977 -0.5247  0.3145
   47SOL    HW1  186   0.226   1.871   1.745 -2.3552  0.2430  2.1332
   47SOL    HW2  187   0.176   1.918   1.882 -2.4308  0.1390 -0.0270
   47SOL     MW  188   0.174   1.927   1.792 -0.5596 -0.3358  0.5094
   48SOL     OW  189   1.051   0.585   1.009  0.0706 -0.1793 -0.9036
   48SOL    HW1  190   0.973   0.528   1.030 -0.2745  0.1690  0.0453
   48SOL    HW2  191   1.083   0.640   1.080  0.0403 -2.4079 -0.2902
   48SOL     MW  192   1.045   0.585   1.021  0.0211 -0.4274 -0.6974
   49SOL     OW  193   1.803   0.761   1.549  0.5488  0.0950  0.4692
   49SOL    HW1  194   1.778   0.752   1.646 -1.1432  0.0255  0.3408
   49SOL    HW2  195   1.841   0.677   1.517 -1.5534 -2.3100 -2.0024
   49SOL     MW  196   1.805   0.749   1.557  0.0482 -0.2315  0.1261
   50SOL     OW  197   1.173   1.051   0.502 -0.1800 -0.3594  0.2366
   50SOL    HW1  198   1.142   1.063   0.593  1.2692  0.5107 -0.3262
   50SOL    HW2  199   1.244   0.987   0.505 -0.8488  0.5759 -0.1701
   50SOL     MW  200   1.179   1.044   0.515 -0.0771 -0.1212  0.1087
   51SOL     OW  201   0.335   2.893   0.926 -0.5759 -0.0181  0.0476
   51SOL    HW1  202   0.412   2.852   0.961  0.2204 -1.2814 -3.3041
   51SOL    HW2  203   0.277   2.903   0.999  0.5986  0.2774  0.6311
   51SOL     MW  204   0.338   2.889   0.940 -0.3158 -0.1458 -0.3176
   52SOL     OW  205   0.807   1.809   0.431 -0.6533  0.4010  0.4203
   52SOL    HW1  206   0.775   1.898   0.435 -0.6428  0.3953  4.4308
   52SOL    HW2  207   0.799   1.782   0.342 -1.9586 -1.6553  0.9699
   52SOL     MW  208   0.802   1.817   0.420 -0.8241  0.1289  1.0220
   53SOL     OW  209   0.485   2.149   0.625 -0.4891  0.1128  1.0792
   53SOL    HW1  210   0.397   2.132   0.607  2.7713 -0.7402 -0.6962
   53SOL    HW2  211   0.488   2.245   0.641 -0.0630 -0.0895 -1.9478
   53SOL     MW  212   0.474   2.159   0.625 -0.0027 -0.0264  0.4455
   54SOL     OW  213   2.169   0.856   0.851 -0.4000 -0.0514  0.6776
   54SOL    HW1  214   2.209   0.884   0.765 -3.7161  2.7767  0.0578
   54SOL    HW2  215   2.073   0.837   0.829 -0.6567  0.3552  1.0441
   54SOL     MW  216   2.161   0.857   0.837 -0.8714  0.3754  0.6442
   55SOL     OW  217   0.577   1.509   1.596  0.0618  1.1230 -0.3488
   55SOL    HW1  218   0.500   1.529   1.540 -0.5250 -0.5271 -1.3379
   55SOL    HW2  219   0.626   1.441   1.553  2.8938 -0.2559  0.8311
   55SOL     MW  220   0.573   1.503   1.583  0.3581  0.7233 -0.3236
   56SOL     OW  221   0.535   0.770   0.092 -0.3636  0.5214  0.3886
   56SOL    HW1  222   0.547   0.843   0.031  0.9794  0.1794 -2.9408
   56SOL    HW2  223   0.443   0.756   0.093  1.4293  0.4950 -2.8102
   56SOL     MW  224   0.524   0.778   0.084  0.0502  0.4728 -0.4727
   57SOL     OW  225   1.244   1.222   1.167 -0.3409 -0.0277 -1.0199
   57SOL    HW1  226   1.324   1.240   1.111 -0.0942 -0.9795  1.1337
   57SOL    HW2  227   1.285   1.214   1.253 -0.8512  0.0549  0.6680
   57SOL     MW  228   1.260   1.223   1.171 -0.3757 -0.1424 -0.5131
   58SOL     OW  229   0.555   1.164   1.312 -0.1041  0.5028  0.1117
   58SOL    HW1  230   0.537   1.256   1.285  0.0091  0.4256 -0.1888
   58SOL    HW2  231   0.547   1.160   1.413  0.2762  0.4319  2.0259
   58SOL     MW  232   0.552   1.176   1.322 -0.0390  0.4833  0.3246
   59SOL     OW  233   1.539   1.672   0.348 -0.6994  0.0067 -0.7458
   59SOL    HW1  234   1.560   1.714   0.432 -2.3815  4.6725  1.1353
   59SOL    HW2  235   1.447   1.661   0.362 -1.8508  1.4033 -0.9707
   59SOL     MW  236   1.530   1.676   0.361 -1.0733  0.8066 -0.5273
   60SOL     OW  237   0.079   0.187   1.679 -0.2825 -0.8322 -0.6607
   60SOL    HW1  238  -0.012   0.213   1.648 -2.8664  0.7755 -0.1795
   60SOL    HW2  239   0.069   0.125   1.750 -1.9868 -0.4177  0.9160
   60SOL     MW  240   0.066   0.182   1.684 -0.8483 -0.5654 -0.3892
   61SOL     OW  241   2.052   1.457   3.050  0.2456 -0.0810 -0.6712
   61SOL    HW1  242   2.066   1.431   3.145 -0.1125  1.8829  0.3184
   61SOL    HW2  243   2.110   1.397   3.001 -0.4723 -0.1242  1.0412
   61SOL     MW  244   2.061   1.446   3.056  0.1036  0.1725 -0.3147
   62SOL     OW  245   0.618   1.712   0.626  0.0325 -0.0081  0.0489
   62SOL    HW1  246   0.691   1.730   0.565  4.2122  0.2247 -1.9678
   62SOL    HW2  247   0.614   1.611   0.641 -1.0043 -0.7235 -0.9898
   62SOL     MW  248   0.627   1.701   0.620  0.4472 -0.0718 -0.3542
   63SOL     OW  249   1.649   0.728   0.711  0.2561 -0.3549  0.2160
   63SOL    HW1  250   1.630   0.791   0.641 -1.6595  0.7900  0.0058
   63SOL    HW2  251   1.561   0.712   0.746  0.4666 -1.4229 -0.5846
   63SOL     MW  252   1.635   0.735   0.706  0.0311 -0.3448  0.0827
   64SOL     OW  253   0.272   1.705   0.720  0.3402  0.2508  0.0216
   64SOL    HW1  254   0.345   1.768   0.721 -0.0238  0.3991  0.9705
   64SOL    HW2  255   0.195   1.769   0.717 -0.7350 -0.8591  0.3926
   64SOL     MW  256   0.272   1.722   0.720  0.1503  0.1239  0.1957
   65SOL     OW  257   1.549   2.348   0.371  0.1127  0.1023  0.1928
   65SOL    HW1  258   1.638   2.316   0.365  0.5036  1.2567  2.2694
   65SOL    HW2  259   1.532   2.397   0.460  0.5783  0.7513 -0.2422
   65SOL     MW  260   1.559   2.351   0.382  0.2257  0.3403  0.4094
   66SOL     OW  261   0.299   0.552   0.545 -0.2622  0.3840  0.9328
   66SOL    HW1  262   0.354   0.503   0.485 -1.5021  2.3817  1.5941
   66SOL    HW2  263   0.275   0.635   0.500  0.7431 -0.3873 -2.5963
   66SOL     MW  264   0.303   0.556   0.531 -0.2932  0.5458  0.5545
   67SOL     OW  265   1.435   0.095   2.028 -0.4153  0.1218 -0.3686
   67SOL    HW1  266   1.479   0.091   1.942 -0.1633 -3.0481  0.0505
   67SOL    HW2  267   1.373   0.023   2.026  0.7132  1.0990  0.6423
   67SOL     MW  268   1.432   0.085   2.016 -0.2332 -0.1675 -0.1799
   68SOL     OW  269   0.631   0.097   2.966  0.1707  0.2540 -0.8355
   68SOL    HW1  270   0.619   0.152   2.889  0.0191 -0.1721 -0.5293
   68SOL    HW2  271   0.681   0.158   3.015  2.3590 -2.1031 -0.0399
   68SOL     MW  272   0.636   0.113   2.962  0.4394 -0.1132 -0.6901
   69SOL     OW  273   1.011   0.180   1.989 -0.3687 -0.3778  0.0060
   69SOL    HW1  274   1.100   0.216   2.010  1.5348  0.9609 -1.4816
   69SOL    HW2  275   1.013   0.084   2.017  0.4833 -1.9946  0.8731
   69SOL     MW  276   1.023   0.172   1.995 -0.0051 -0.4145 -0.0759
   70SOL     OW  277   0.527   1.730   1.128 -0.8469 -0.0542  0.2745
   70SOL    HW1  278   0.569   1.674   1.190  0.0362 -0.0831 -1.8023
   70SOL    HW2  279   0.609   1.746   1.072  1.1169 -1.8145 -0.2673
   70SOL     MW  280   0.543   1.725   1.129 -0.4713 -0.2903 -0.0710
   71SOL     OW  281   1.682   0.559   1.352 -0.7323 -0.6197 -0.0456
   71SOL    HW1  282   1.655   0.630   1.412 -2.3177 -1.3841  0.3310
   71SOL    HW2  283   1.626   0.579   1.275 -0.8870  1.5676 -1.5059
   71SOL     MW  284   1.671   0.571   1.350 -0.9619 -0.4320 -0.1886
   72SOL     OW  285   0.786   1.769   0.963  0.0893  0.2227  0.3896
   72SOL    HW1  286   0.783   1.810   0.874 -1.1718  0.0967  0.3599
   72SOL    HW2  287   0.770   1.675   0.952  1.9749 -0.1426 -0.2428
   72SOL     MW  288   0.784   1.762   0.950  0.1717  0.1579  0.3022
   73SOL     OW  289   1.184   0.703   1.360  0.1036  0.2581 -0.1526
   73SOL    HW1  290   1.151   0.612   1.364 -1.4964  0.7386  1.4193
   73SOL    HW2  291   1.114   0.763   1.396 -0.3726  0.4283 -3.0724
   73SOL     MW  292   1.170   0.699   1.365 -0.1703  0.3440 -0.3304
   74SOL     OW  293   2.863   0.180   0.953 -0.5695 -0.1703 -0.0110
   74SOL    HW1  294   2.832   0.120   0.882 -1.5488  1.3905 -0.0063
   74SOL    HW2  295   2.806   0.254   0.943 -1.4347 -0.2836 -0.4885
   74SOL     MW  296   2.851   0.182   0.942 -0.8129  0.0207 -0.0734
   75SOL     OW  297   1.664   1.386   0.135  0.3758 -0.0984 -0.4262
   75SOL    HW1  298   1.698   1.394   0.223  1.9796  0.4216  0.2860
   75SOL    HW2  299   1.690   1.294   0.104  2.7020 -2.2359 -1.5570
   75SOL     MW  300   1.672   1.375   0.142  0.8943 -0.3118 -0.4814
   76SOL     OW  301   3.009   0.620   0.433 -0.5788 -0.3325 -0.3590
   76SOL    HW1  302   3.066   0.650   0.504  0.5756  0.8454  0.0281
   76SOL    HW2  303   3.066   0.557   0.392 -1.1579  1.9313 -0.9004
   76SOL     MW  304   3.024   0.616   0.437 -0.5029  0.1216 -0.3794
   77SOL     OW  305   0.821   0.525   0.400  0.7654  0.1998  0.4168
   77SOL    HW1  306   0.787   0.549   0.310 -0.8131 -0.8621  2.0109
   77SOL    HW2  307   0.752   0.479   0.447  1.8437 -2.5189  1.2840
   77SOL     MW  308   0.808   0.522   0.395  0.6994 -0.2990  0.7415
   78SOL     OW  309   0.753   0.860   1.258  0.0840  0.8170  0.2479
   78SOL    HW1  310   0.704   0.856   1.181 -1.6187  1.4607 -0.7200
   78SOL    HW2  311   0.839   0.877   1.231  0.9329 -2.1484  2.2948
   78SOL     MW  312   0.758   0.862   1.245 -0.0286  0.5107  0.3903
   79SOL     OW  313   1.906   1.694   0.624 -0.0858  0.5194  0.3598
   79SOL    HW1  314   1.832   1.638   0.592 -3.1653  0.8088  1.5904
   79SOL    HW2  315   1.909   1.700   0.714 -0.6885 -0.4506 -3.8390
   79SOL     MW  316   1.896   1.687   0.632 -0.5716  0.4296 -0.0318
   80SOL     OW  317   0.112   1.000   0.313 -0.2345  0.0789 -0.3017
   80SOL    HW1  318   0.017   0.964   0.316 -1.7726 -1.5578 -0.4725
   80SOL    HW2  319   0.166   0.921   0.336 -0.4733 -0.5479  0.5722
   80SOL     MW  320   0.107   0.985   0.316 -0.4689 -0.2197 -0.2089
   81SOL     OW  321   1.908   1.913   0.204  0.1144  0.1161  0.2680
   81SOL    HW1  322   1.838   1.843   0.189 -0.9435 -2.4293  1.2592
   81SOL    HW2  323   1.855   1.994   0.210  2.2235 -1.0937 -0.2726
   81SOL     MW  324   1.892   1.914   0.203  0.2531 -0.3794  0.3274
   82SOL     OW  325   0.818   1.090   0.525 -0.3567  0.2736  0.3758
   82SOL    HW1  326   0.827   1.135   0.443 -0.0342  0.0229  0.2418
   82SOL    HW2  327   0.812   1.006   0.499  0.7309  2.9486  0.5239
   82SOL     MW  328   0.818   1.085   0.511 -0.1706  0.5934  0.3777
   83SOL     OW  329   0.188   0.613   1.308 -0.2744 -0.4852  0.6537
   83SOL    HW1  330   0.183   0.712   1.317 -0.7007  1.4123 -0.5647
   83SOL    HW2  331   0.257   0.597   1.375 -0.1784  0.0643  1.5842
   83SOL     MW  332   0.197   0.624   1.318 -0.3179 -0.1623  0.6157
   84SOL     OW  333   0.092   0.210   0.898  0.4131  0.4742 -0.0744
   84SOL    HW1  334   0.011   0.244   0.866 -0.5999 -0.8767 -2.0536
   84SOL    HW2  335   0.065   0.171   0.984 -0.2097 -1.6905 -1.0653
   84SOL     MW  336   0.078   0.209   0.905  0.1973  0.0103 -0.4663
   85SOL     OW  337   0.483   0.440   0.761  0.1366 -0.2722  0.1727
   85SOL    HW1  338   0.448   0.511   0.703 -1.7693  0.2761 -2.2359
   85SOL    HW2  339   0.419   0.373   0.744  2.7246  0.6394  1.0258
   85SOL     MW  340   0.470   0.440   0.751  0.2266 -0.0796 -0.0325
   86SOL     OW  341   1.215   0.377   1.078 -0.1055 -0.2838  0.3160
   86SOL    HW1  342   1.158   0.454   1.065 -0.0095 -1.8460  0.9282
   86SOL    HW2  343   1.254   0.389   1.162 -1.0059 -1.8640  1.2245
   86SOL     MW  344   1.212   0.388   1.087 -0.2117 -0.6984  0.5167
   87SOL     OW  345   1.146   1.460   1.246 -0.1011 -0.3526 -0.2190
   87SOL    HW1  346   1.180   1.504   1.161  0.5736  1.5098 -0.4555
   87SOL    HW2  347   1.167   1.364   1.225  0.4548 -1.1535 -0.5701
   87SOL     MW  348   1.153   1.453   1.232  0.0613 -0.2125 -0.2965
   88SOL     OW  349   1.215   1.010   0.990 -0.4151 -0.2007 -0.0616
   88SOL    HW1  350   1.307   0.981   0.976  1.9560  2.2022 -1.3576
   88SOL    HW2  351   1.216   1.085   1.055 -0.3278 -1.2366  0.0790
   88SOL     MW  352   1.227   1.016   0.997 -0.0907 -0.0203 -0.2140
   89SOL     OW  353   1.751   0.675   0.293  0.2973  0.3568  0.5076
   89SOL    HW1  354   1.807   0.598   0.325 -1.3055 -1.2702  1.2349
   89SOL    HW2  355   1.821   0.729   0.252 -0.0120 -0.7277 -3.6028
   89SOL     MW  356   1.768   0.672   0.292  0.0450 -0.0009  0.0612
   90SOL     OW  357   0.687   1.168   2.822 -0.2319 -0.0403 -0.2845
   90SOL    HW1  358   0.728   1.090   2.857 -0.2402 -3.4408 -3.2212
   90SOL    HW2  359   0.675   1.242   2.889 -1.7616  0.7172 -0.1490
   90SOL     MW  360   0.691   1.168   2.836 -0.4348 -0.3890 -0.6541
   91SOL     OW  361   2.217   0.655   0.538 -0.5030 -0.2853 -0.6798
   91SOL    HW1  362   2.238   0.718   0.465 -1.3221  0.7890  0.8096
   91SOL    HW2  363   2.208   0.570   0.494 -0.5307  0.1937 -0.2082
   91SOL     MW  364   2.219   0.652   0.523 -0.6147 -0.0804 -0.4210
   92SOL     OW  365   1.634   0.896   0.483  0.3217 -0.6671  0.2984
   92SOL    HW1  366   1.534   0.885   0.503 -1.2741  0.9147  1.7674
   92SOL    HW2  367   1.664   0.808   0.448 -0.4511 -1.8640  2.6307
   92SOL     MW  368   1.625   0.883   0.481  0.0092 -0.6164  0.8000
   93SOL     OW  369   1.018   0.315   0.371 -0.5799  0.4717  0.2707
   93SOL    HW1  370   0.945   0.364   0.336  0.4743  3.0304 -0.7030
   93SOL    HW2  371   1.076   0.300   0.294  0.8526 -1.8250 -0.7649
   93SOL     MW  372   1.016   0.320   0.356 -0.2518  0.5063  0.0056
   94SOL     OW  373   1.897   1.360   1.598 -0.3014  0.2753  0.4761
   94SOL    HW1  374   1.895   1.379   1.505 -1.2467 -1.1119  1.8582
   94SOL    HW2  375   1.854   1.280   1.615 -1.5057 -0.4949 -1.9697
   94SOL     MW  376   1.891   1.352   1.588 -0.5850 -0.0094  0.3358
   95SOL     OW  377   0.708   1.501   0.988 -0.2004  0.2227  0.2089
   95SOL    HW1  378   0.794   1.450   0.977 -1.5817 -0.3765 -1.6431
   95SOL    HW2  379   0.641   1.435   0.979  2.4159 -0.8975  0.1300
   95SOL     MW  380   0.710   1.486   0.985 -0.0375 -0.0042 -0.0458
   96SOL     OW  381   1.229   1.803   1.574 -0.1957  0.7233  0.7406
   96SOL    HW1  382   1.135   1.781   1.602  2.2504  2.0570 -0.2122
   96SOL    HW2  383   1.254   1.736   1.517  1.7966  0.4771  1.0523
   96SOL     MW  384   1.220   1.791   1.571  0.3899  0.8668  0.6560
   97SOL     OW  385   1.248   1.468   0.809  0.6655  0.0952  1.0646
   97SOL    HW1  386   1.236   1.514   0.891 -0.3211 -0.4698  0.4124
   97SOL    HW2  387   1.173   1.497   0.753 -1.3543 -0.7112 -0.4330
   97SOL     MW  388   1.237   1.478   0.813  0.2688 -0.0857  0.7810
   98SOL     OW  389   1.482   1.306   1.054  0.0355  0.4446  0.1284
   98SOL    HW1  390   1.493   1.371   1.119 -0.6870 -1.9308 -1.3861
   98SOL    HW2  391   1.529   1.348   0.984 -1.4242  1.0097 -0.4374
   98SOL     MW  392   1.489   1.320   1.054 -0.2524  0.2057 -0.1461
   99SOL     OW  393   1.410   0.384   1.312 -0.3475 -0.1598  0.3987
   99SOL    HW1  394   1.468   0.429   1.250  0.6216  1.1518  2.1163
   99SOL    HW2  395   1.441   0.418   1.399 -3.1954 -0.0776  0.6456
   99SOL     MW  396   1.422   0.394   1.315 -0.5954  0.0241  0.6579
  100SOL     OW  397   1.043   1.133   1.430 -0.0414  0.2819 -0.5844
  100SOL    HW1  398   1.066   1.186   1.509  0.6384  2.0049 -1.1221
  100SOL    HW2  399   1.007   1.051   1.465 -1.4499 -1.1507  0.4157
  100SOL     MW  400   1.042   1.129   1.445 -0.1375  0.3202 -0.5234
  101SOL     OW  401   0.549   1.068   0.265 -0.2260  0.1762  0.0084
  101SOL    HW1  402   0.507   0.985   0.288  1.4415  0.8947 -0.2549
  101SOL    HW2  403   0.511   1.093   0.178  2.2298 -0.7701  2.3940
  101SOL     MW  404   0.538   1.060   0.256  0.3181  0.1461  0.2884
  102SOL     OW  405   2.950   0.645   0.947 -0.3535 -0.1810  0.4843
  102SOL    HW1  406   2.986   0.735   0.976  0.7637 -0.9448  0.3474
  102SOL    HW2  407   3.003   0.589   1.011  1.8583  0.4646  1.1406
  102SOL     MW  408   2.962   0.649   0.959  0.0857 -0.1966  0.5528
  103SOL     OW  409   1.739   0.384   1.840  0.6535 -0.0043  0.0309
  103SOL    HW1  410   1.693   0.305   1.821  1.3161  3.4729 -0.7434
  103SOL    HW2  411   1.807   0.345   1.903 -0.3668  0.5653 -0.8239
  103SOL     MW  412   1.742   0.369   1.846  0.6063  0.5297 -0.1840
  104SOL     OW  413   0.161   1.783   1.516 -0.4853 -0.3586 -0.3977
  104SOL    HW1  414   0.082   1.738   1.514  4.0762  1.6222  3.6667
  104SOL    HW2  415   0.226   1.739   1.463  0.4065 -1.8847  1.2929
  104SOL     MW  416   0.159   1.771   1.509  0.2342 -0.2986  0.3616
  105SOL     OW  417   0.030   1.174   0.501 -0.2581 -1.2003 -0.5498
  105SOL    HW1  418   0.046   1.111   0.430  3.0690  1.9134 -1.7631
  105SOL    HW2  419   0.107   1.228   0.504 -1.6092  0.9101  1.2165
  105SOL     MW  420   0.043   1.173   0.492  0.0026 -0.5110 -0.4769
  106SOL     OW  421   0.862   0.386   1.012  0.4182  0.0321  0.6333
  106SOL    HW1  422   0.797   0.451   0.974  0.2049  1.2237  0.2755
  106SOL    HW2  423   0.908   0.344   0.940 -1.1840  2.4924 -2.2708
  106SOL     MW  424   0.859   0.389   0.997  0.1787  0.5139  0.2030
  107SOL     OW  425   0.800   2.155   2.990 -0.6672 -0.3078  0.6249
  107SOL    HW1  426   0.722   2.102   2.985 -0.4119  1.5530  0.1418
  107SOL    HW2  427   0.806   2.168   3.084 -0.5440  3.3736 -0.2682
  107SOL     MW  428   0.791   2.150   3.001 -0.6173  0.4235  0.4434
  108SOL     OW  429   1.339   1.575   1.479  0.0475 -0.8821  0.4649
  108SOL    HW1  430   1.289   1.515   1.421  0.9421  0.2185  1.9292
  108SOL    HW2  431   1.388   1.522   1.546  1.4025 -2.8583  2.0267
  108SOL     MW  432   1.339   1.560   1.480  0.3443 -0.9976  0.8642
  109SOL     OW  433   2.001   0.750   0.192 -0.1441  0.0995 -0.6244
  109SOL    HW1  434   2.040   0.787   0.118  0.3032  1.5907  4.0603
  109SOL    HW2  435   2.012   0.804   0.271 -0.2844 -2.1327 -0.1028
  109SOL     MW  436   2.008   0.762   0.193 -0.1036  0.0017  0.0625
  110SOL     OW  437   0.490   1.898   0.769 -0.5213  0.4828  0.2065
  110SOL    HW1  438   0.554   1.831   0.732 -1.8636  1.0602 -0.1135
  110SOL    HW2  439   0.548   1.978   0.775 -2.6257 -0.3960  0.1983
  110SOL     MW  440   0.506   1.900   0.765 -0.9761  0.4430  0.1632
  111SOL     OW  441   0.754   0.927   1.522  0.4526  0.7325  0.5899
  111SOL    HW1  442   0.740   0.910   1.427  1.0134 -0.3990  0.5562
  111SOL    HW2  443   0.678   0.883   1.563 -0.1724  1.1863 -1.0802
  111SOL     MW  444   0.742   0.919   1.515  0.4441  0.6431  0.3651
  112SOL     OW  445   1.310   1.073   1.648  0.6647 -0.0417 -1.3531
  112SOL    HW1  446   1.248   1.145   1.659  0.0420  0.9667 -0.3920
  112SOL    HW2  447   1.263   0.996   1.621  0.5291  0.7591 -0.7132
  112SOL     MW  448   1.296   1.073   1.646  0.5646  0.1970 -1.1419
  113SOL     OW  449   1.277   0.014   1.757 -0.4330  0.5372 -0.2052
  113SOL    HW1  450   1.254  -0.035   1.835 -0.0718  1.3152 -0.8631
  113SOL    HW2  451   1.296  -0.053   1.686 -3.0861  0.6412 -0.5523
  113SOL     MW  452   1.276  -0.002   1.758 -0.7354  0.6536 -0.3378
  114SOL     OW  453   0.439   2.842   1.939 -0.6727  0.1070 -0.0152
  114SOL    HW1  454   0.427   2.901   2.012 -1.3462 -0.5950  0.0805
  114SOL    HW2  455   0.432   2.909   1.872 -1.8906  3.2109  0.0350
  114SOL     MW  456   0.436   2.859   1.940 -0.9222  0.4239  0.0041
  115SOL     OW  457   0.477   0.822   1.108 -0.0602  0.4257 -0.1884
  115SOL    HW1  458   0.516   0.744   1.149 -0.2933 -1.0601 -2.8051
  115SOL    HW2  459   0.455   0.872   1.188  0.6788 -2.1553  1.0494
  115SOL     MW  460   0.479   0.818   1.124  0.0066 -0.1109 -0.3703
  116SOL     OW  461   0.774   0.993   0.998  0.2927 -0.1667  0.1236
  116SOL    HW1  462   0.808   1.041   0.919 -1.7889 -0.0480 -3.2688
  116SOL    HW2  463   0.775   1.052   1.074 -0.5225  2.2957  0.6548
  116SOL     MW  464   0.779   1.007   0.997 -0.0895  0.1738 -0.2539
  117SOL     OW  465   1.192   1.174   0.773 -0.3779  0.6968 -0.6098
  117SOL    HW1  466   1.210   1.116   0.851 -1.3909 -1.6399 -4.4623
  117SOL    HW2  467   1.221   1.263   0.793  3.8624  1.8838 -0.2192
  117SOL     MW  468   1.198   1.178   0.786  0.0479  0.5451 -1.0665
  118SOL     OW  469   3.028   2.905   1.696 -0.1721  0.3035 -0.1255
  118SOL    HW1  470   3.065   2.976   1.746  0.7121 -0.0301  1.0418
  118SOL    HW2  471   2.936   2.925   1.677  2.4013  1.5227  3.4256
  118SOL     MW  472   3.021   2.917   1.700  0.2841  0.4203  0.4971
  119SOL     OW  473   0.469   1.420   1.215 -0.5949  0.2852  0.3284
  119SOL    HW1  474   0.494   1.430   1.123  1.4760 -1.1586 -0.8403
  119SOL    HW2  475   0.378   1.396   1.210  2.7057  0.6121 -0.0503
  119SOL     MW  476   0.460   1.418   1.202  0.1138  0.1379  0.1242
  120SOL     OW  477   0.241   0.681   1.022  0.9415  0.3044 -0.4008
  120SOL    HW1  478   0.270   0.596   1.062  2.6905  0.0184 -0.3609
  120SOL    HW2  479   0.317   0.737   1.024 -0.2337 -0.0680 -1.3501
  120SOL     MW  480   0.255   0.677   1.027  1.0172  0.2175 -0.5208
  121SOL     OW  481   1.808   1.092   1.692 -0.2097  0.5473 -0.0305
  121SOL    HW1  482   1.718   1.059   1.703  1.1199 -0.2461  1.8962
  121SOL    HW2  483   1.857   1.042   1.621 -0.4273  1.6377 -0.6128
  121SOL     MW  484   1.803   1.081   1.684 -0.0630  0.5865  0.1469
  122SOL     OW  485   0.135   0.579   0.787  0.1762  0.9358  0.5459
  122SOL    HW1  486   0.209   0.571   0.726 -0.3725 -1.0681 -0.2428
  122SOL    HW2  487   0.165   0.608   0.873  2.2583 -1.7951 -0.6558
  122SOL     MW  488   0.149   0.582   0.790  0.3785  0.3111  0.2833
  123SOL     OW  489   1.804   1.100   0.523 -0.0871 -0.2082  1.0814
  123SOL    HW1  490   1.741   1.023   0.510 -1.6668  1.8420  3.0260
  123SOL    HW2  491   1.815   1.106   0.614  0.5840 -1.0069 -0.0054
  123SOL     MW  492   1.797   1.091   0.533 -0.2070 -0.0431  1.1946
  124SOL     OW  493   0.677   0.565   0.945  0.0812 -0.3964 -0.1540
  124SOL    HW1  494   0.612   0.525   0.881 -2.1687  0.8698 -1.3398
  124SOL    HW2  495   0.726   0.636   0.892  1.6291 -0.2234  0.2393
  124SOL     MW  496   0.675   0.569   0.929 -0.0114 -0.2065 -0.2586
  125SOL     OW  497   0.699   1.768   1.695  0.1872  0.2125 -0.2049
  125SOL    HW1  498   0.614   1.724   1.685 -0.8131 -1.0033 -1.1858
  125SOL    HW2  499   0.671   1.862   1.678  1.9246 -1.2013  2.8596
  125SOL     MW  500   0.684   1.774   1.692  0.2845 -0.1345  0.0700
  126SOL     OW  501   2.096   1.641   1.960  0.5104  0.0421 -0.5616
  126SOL    HW1  502   2.162   1.704   1.922  1.0593  0.2286  1.3122
  126SOL    HW2  503   2.154   1.567   1.972  1.7946  0.7769  0.9150
  126SOL     MW  504   2.112   1.640   1.956  0.7523  0.1637 -0.1196
  127SOL     OW  505   0.662   0.765   1.871  0.7871 -0.0998  0.2049
  127SOL    HW1  506   0.736   0.698   1.871 -0.1057 -0.9545  0.9440
  127SOL    HW2  507   0.677   0.827   1.940 -0.5970 -0.2592 -1.1908
  127SOL     MW  508   0.674   0.765   1.880  0.4867 -0.2336  0.1182
  128SOL     OW  509   1.837   0.785   2.856 -0.4405  0.0622  0.1658
  128SOL    HW1  510   1.868   0.740   2.773  2.5538  3.9351 -1.8320
  128SOL    HW2  511   1.770   0.848   2.830  2.4695 -0.2260  1.5444
  128SOL     MW  512   1.832   0.787   2.842  0.3385  0.5352  0.0841
  129SOL     OW  513   1.600   0.928   0.197  0.3398 -0.3624 -0.4760
  129SOL    HW1  514   1.532   0.867   0.165 -1.1989 -3.9777 -0.9817
  129SOL    HW2  515   1.601   0.916   0.289  0.8101 -0.4580 -0.6813
  129SOL     MW  516   1.591   0.919   0.205  0.1988 -0.8520 -0.5698
  130SOL     OW  517   0.800   1.416   0.404 -0.0290 -0.3187 -0.1022
  130SOL    HW1  518   0.840   1.391   0.490  2.2054  2.8572 -4.4415
  130SOL    HW2  519   0.871   1.434   0.343 -1.5324  1.7704  0.6683
  130SOL     MW  520   0.815   1.415   0.408  0.0675  0.3759 -0.5731
  131SOL     OW  521   3.010   0.825   3.079 -0.0821  0.2527  0.0499
  131SOL    HW1  522   2.990   0.895   3.016 -0.3140 -0.5798  0.3652
  131SOL    HW2  523   3.103   0.839   3.117 -0.9713  2.6596 -0.1633
  131SOL     MW  524   3.019   0.836   3.076 -0.2300  0.4604  0.0634
  132SOL     OW  525   2.804   0.136   1.214 -0.5824  0.0490 -0.2479
  132SOL    HW1  526   2.838   0.144   1.127  0.6746 -1.9867  1.2086
  132SOL    HW2  527   2.711   0.155   1.218  0.4064  0.1262 -0.4435
  132SOL     MW  528   2.796   0.140   1.203 -0.2861 -0.2094 -0.0815
  133SOL     OW  529   1.054   0.171   1.709  0.4166  0.5298  0.3412
  133SOL    HW1  530   1.132   0.116   1.706 -0.5221  0.0303  0.4839
  133SOL    HW2  531   1.018   0.164   1.800 -1.4552 -1.4477 -0.8921
  133SOL     MW  532   1.059   0.163   1.721  0.0458  0.2029  0.1973
  134SOL     OW  533   1.432   2.519   1.429 -0.0176  0.2801  0.0119
  134SOL    HW1  534   1.361   2.586   1.417 -2.9972  0.1955  0.8831
  134SOL    HW2  535   1.469   2.545   1.514 -0.8564 -1.5011 -0.3918
  134SOL     MW  536   1.427   2.531   1.438 -0.5214  0.0340  0.0736
  135SOL     OW  537   3.026   1.031   2.853  0.2142  0.1314 -0.3792
  135SOL    HW1  538   3.098   1.101   2.872  5.5798 -0.2657 -1.2821
  135SOL    HW2  539   2.945   1.077   2.877 -0.6274 -0.5348  0.7332
  135SOL     MW  540   3.025   1.046   2.859  0.8111 -0.0089 -0.3515
  136SOL     OW  541   0.252   2.054   0.875 -0.2237  0.2189  0.1275
  136SOL    HW1  542   0.188   1.981   0.870  2.6630  0.9247 -0.3396
  136SOL    HW2  543   0.319   2.020   0.819 -0.2005 -0.3602 -0.1079
  136SOL     MW  544   0.253   2.040   0.867  0.1602  0.2356  0.0348
  137SOL     OW  545   0.723   2.050   0.532 -0.0396  0.1831 -0.0513
  137SOL    HW1  546   0.748   2.043   0.624 -1.8089 -1.3889 -0.7556
  137SOL    HW2  547   0.632   2.094   0.543 -0.8508 -0.5969  1.0934
  137SOL     MW  548   0.714   2.055   0.546 -0.3801 -0.1272  0.0068
  138SOL     OW  549   0.524   0.538   1.166  0.0364 -0.5421  0.0486
  138SOL    HW1  550   0.437   0.507   1.122  0.6735 -0.0537 -2.4268
  138SOL    HW2  551   0.587   0.552   1.099 -2.6991 -2.2678  0.5778
  138SOL     MW  552   0.521   0.536   1.151 -0.2405 -0.7054 -0.2082
  139SOL     OW  553   2.669   0.551   1.382  0.8273  0.4494 -0.4737
  139SOL    HW1  554   2.737   0.493   1.345 -1.9419  2.7401 -0.3543
  139SOL    HW2  555   2.722   0.614   1.425  0.6480  0.0741  0.5770
  139SOL     MW  556   2.685   0.551   1.383  0.4383  0.7022 -0.3193
  140SOL     OW  557   0.844   0.376   2.086  0.1119  0.2593 -0.4207
  140SOL    HW1  558   0.906   0.305   2.057 -0.7013 -0.1760 -1.8692
  140SOL    HW2  559   0.876   0.396   2.174  1.0004 -2.1028  2.0310
  140SOL     MW  560   0.856   0.369   2.094  0.1218 -0.1098 -0.2884
  141SOL     OW  561   1.075   0.548   1.779  0.0815 -0.1107  0.3149
  141SOL    HW1  562   1.128   0.487   1.735 -1.3779  1.0767  3.2608
  141SOL    HW2  563   1.115   0.635   1.757  1.4172 -1.2999  1.4579
  141SOL     MW  564   1.087   0.551   1.771  0.0652 -0.1109  0.8544
  142SOL     OW  565   0.918   1.131   0.773 -0.8755  0.1281  0.6444
  142SOL    HW1  566   0.878   1.134   0.684 -0.1637  0.8352  0.6277
  142SOL    HW2  567   1.015   1.149   0.762  1.3652  0.3721  0.7504
  142SOL     MW  568   0.926   1.134   0.760 -0.4860  0.2536  0.6562
  143SOL     OW  569   1.770   0.782   1.101 -0.4026  0.4904  0.1496
  143SOL    HW1  570   1.824   0.783   1.023  0.0875  0.6555  1.7677
  143SOL    HW2  571   1.687   0.739   1.077 -1.7311 -2.3053 -0.4331
  143SOL     MW  572   1.766   0.776   1.087 -0.5132  0.1433  0.2862
  144SOL     OW  573   0.188   1.223   1.539  0.3435  0.5507 -0.3281
  144SOL    HW1  574   0.272   1.188   1.505 -0.4730  0.0398  0.4334
  144SOL    HW2  575   0.218   1.251   1.630  0.4115 -1.0863  1.3654
  144SOL     MW  576   0.203   1.222   1.546  0.2448  0.2673 -0.0042
  145SOL     OW  577   0.282   0.409   1.050 -0.0636 -0.4902  0.4456
  145SOL    HW1  578   0.260   0.349   1.123 -0.4232  0.1321 -3.9349
  145SOL    HW2  579   0.319   0.358   0.985 -0.1220 -3.2583 -1.4792
  145SOL     MW  580   0.284   0.394   1.051 -0.1187 -0.7733 -0.3863
  146SOL     OW  581   0.856   1.948   1.370 -0.6771  0.4640 -0.7930
  146SOL    HW1  582   0.874   1.941   1.273 -1.8641 -0.0922  2.0744
  146SOL    HW2  583   0.765   1.928   1.379  3.9059  2.0463  1.1684
  146SOL     MW  584   0.846   1.945   1.359 -0.2290  0.5994 -0.1559
  147SOL     OW  585   0.377   0.390   2.971  0.1648  0.2343  0.8201
  147SOL    HW1  586   0.309   0.399   3.036 -1.3500 -0.4505 -2.2258
  147SOL    HW2  587   0.339   0.452   2.903  1.4386  0.6416 -0.3353
  147SOL     MW  588   0.363   0.400   2.971  0.1330  0.1977  0.2658
  148SOL     OW  589   0.112   0.872   1.333 -0.0034  0.6170 -0.5578
  148SOL    HW1  590   0.183   0.927   1.311 -3.0133 -0.7739  0.9473
  148SOL    HW2  591   0.110   0.883   1.430 -1.1504 -0.3817  2.5161
  148SOL     MW  592   0.121   0.881   1.343 -0.5518  0.3017  0.0463
  149SOL     OW  593   1.387   1.168   1.396 -0.6617 -0.5142 -0.4894
  149SOL    HW1  594   1.369   1.129   1.485  4.6455 -0.3390 -0.0727
  149SOL    HW2  595   1.454   1.227   1.424  0.3525 -2.1810 -2.5822
  149SOL     MW  596   1.393   1.171   1.412  0.1724 -0.7110 -0.7106
  150SOL     OW  597   1.860   1.358   0.739 -0.5750  0.4931 -0.3512
  150SOL    HW1  598   1.862   1.264   0.750  1.4167  0.2837  1.6359
  150SOL    HW2  599   1.946   1.385   0.767  0.4877  1.8996 -0.4866
  150SOL     MW  600   1.871   1.349   0.744 -0.1720  0.6511 -0.1069
  151SOL     OW  601   1.652   1.868   0.842 -0.4552 -0.2146 -0.2291
  151SOL    HW1  602   1.618   1.852   0.753  1.8212  0.9505 -2.4832
  151SOL    HW2  603   1.597   1.811   0.888  1.0597  2.6279  0.2114
  151SOL     MW  604   1.640   1.858   0.837  0.0451  0.3142 -0.4684
  152SOL     OW  605   0.743   1.319   1.465 -0.7067 -0.1481 -0.3992
  152SOL    HW1  606   0.764   1.272   1.542 -1.7299  2.4730 -0.4948
  152SOL    HW2  607   0.831   1.357   1.448 -0.8264 -0.7706  1.4510
  152SOL     MW  608   0.757   1.318   1.473 -0.8575  0.1156 -0.1677
  153SOL     OW  609   2.639   1.271   0.764 -0.0742 -0.5732 -0.0218
  153SOL    HW1  610   2.722   1.235   0.725  2.1514  1.0058 -3.6222
  153SOL    HW2  611   2.580   1.195   0.754  0.2157 -0.1364  3.6293
  153SOL     MW  612   2.642   1.256   0.758  0.2577 -0.3072 -0.0151
  154SOL     OW  613   0.386   1.743   1.724  0.1654  0.1680  0.6104
  154SOL    HW1  614   0.365   1.727   1.636  1.2657  0.3773  1.6653
  154SOL    HW2  615   0.358   1.666   1.767  2.9894  0.8078 -0.6533
  154SOL     MW  616   0.379   1.731   1.718  0.6832  0.2800  0.5829
  155SOL     OW  617   1.145   0.696   0.285  1.2043 -0.0627  0.1705
  155SOL    HW1  618   1.117   0.659   0.373 -1.1162 -0.1846  0.5208
  155SOL    HW2  619   1.099   0.779   0.278 -0.1485 -0.6986 -1.1260
  155SOL     MW  620   1.136   0.702   0.296  0.7197 -0.1627  0.0456
  156SOL     OW  621   1.595   3.002   1.072  0.0565 -0.0924 -0.4356
  156SOL    HW1  622   1.608   3.089   1.118  2.5586 -0.4286 -0.0808
  156SOL    HW2  623   1.600   2.937   1.139  2.0698  1.5803 -2.2966
  156SOL     MW  624   1.598   3.005   1.087  0.6522  0.0839 -0.6344
  157SOL     OW  625   1.409   1.138   0.122  0.1058 -0.2343  0.0681
  157SOL    HW1  626   1.472   1.071   0.137 -1.3557  2.8165 -1.3350
  157SOL    HW2  627   1.456   1.222   0.122  1.0404 -1.3950 -0.8813
  157SOL     MW  628   1.423   1.140   0.124  0.0363  0.0151 -0.2423
  158SOL     OW  629   0.457   1.652   2.238 -0.4645 -0.3049 -0.1351
  158SOL    HW1  630   0.458   1.706   2.163 -1.7467 -0.8764 -0.3403
  158SOL    HW2  631   0.363   1.637   2.256 -2.3188 -2.0062 -1.6719
  158SOL     MW  632   0.445   1.657   2.231 -0.8784 -0.6048 -0.3649
  159SOL     OW  633   1.284   1.719   0.421  0.2998  0.2361 -0.2649
  159SOL    HW1  634   1.271   1.633   0.378 -1.0638 -0.6181  0.2878
  159SOL    HW2  635   1.197   1.720   0.478  0.1439 -0.5003 -1.4604
  159SOL     MW  636   1.271   1.707   0.423  0.0993  0.0262 -0.3497
  160SOL     OW  637   0.460   1.135   1.570  0.0429  0.4875  0.3873
  160SOL    HW1  638   0.463   1.061   1.627 -0.3336  0.7634 -2.5029
  160SOL    HW2  639   0.517   1.196   1.610 -1.9168 -1.2911 -0.4812
  160SOL     MW  640   0.468   1.134   1.583 -0.2653  0.2892 -0.1087
  161SOL     OW  641   0.529   2.186   2.597 -0.3513 -0.2683 -0.6012
  161SOL    HW1  642   0.437   2.171   2.570 -0.8757  1.9392 -0.1622
  161SOL    HW2  643   0.587   2.154   2.528  1.2938  0.3230  0.3653
  161SOL     MW  644   0.525   2.180   2.585 -0.2034  0.1010 -0.4157
  162SOL     OW  645   1.053   1.739   1.788  0.6692  0.2446  1.2285
  162SOL    HW1  646   1.066   1.830   1.829 -1.0027  2.9257  3.3601
  162SOL    HW2  647   0.961   1.711   1.812  0.2741  1.6347 -1.4472
  162SOL     MW  648   1.043   1.747   1.796  0.3965  0.7818  1.1567
  163SOL     OW  649   2.095   0.069   0.973 -0.3447 -0.2345 -0.1962
  163SOL    HW1  650   2.089   0.074   0.879  3.5146  0.7071 -2.6190
  163SOL    HW2  651   2.038  -0.004   0.999  1.3648  0.7157  0.7773
  163SOL     MW  652   2.087   0.060   0.964  0.3901  0.0151 -0.3874
  164SOL     OW  653   0.334   0.207   0.792  0.0019  0.2180 -0.0755
  164SOL    HW1  654   0.242   0.206   0.826 -0.6018  0.1143  0.4428
  164SOL    HW2  655   0.344   0.140   0.728 -1.0086  1.0178 -1.3183
  164SOL     MW  656   0.323   0.198   0.788 -0.2111  0.3099 -0.1711
  165SOL     OW  657   1.326   1.254   0.382 -0.2013  0.0138 -0.4781
  165SOL    HW1  658   1.271   1.188   0.432  1.1266  2.7098  1.2991
  165SOL    HW2  659   1.352   1.198   0.309  2.2665 -0.8854 -3.3202
  165SOL     MW  660   1.322   1.238   0.379  0.2995  0.2509 -0.6186
  166SOL     OW  661   0.509   1.062   0.965  0.0300 -0.2629  0.5322
  166SOL    HW1  662   0.495   0.980   1.011 -0.3015  2.4946  2.0023
  166SOL    HW2  663   0.607   1.069   0.963 -0.4489  1.9375  0.0255
  166SOL     MW  664   0.520   1.052   0.971 -0.0769  0.3913  0.6593
  167SOL     OW  665   0.816   1.104   0.247 -0.8318 -0.4213 -0.4791
  167SOL    HW1  666   0.723   1.111   0.256  2.8800 -0.6605 -1.2542
  167SOL    HW2  667   0.840   1.179   0.192 -2.7228  0.4880 -2.4551
  167SOL     MW  668   0.807   1.115   0.241 -0.5915 -0.3329 -0.8421
  168SOL     OW  669   1.653   1.688   2.919 -0.2388 -0.3984  0.2225
  168SOL    HW1  670   1.559   1.676   2.927 -0.6546 -0.3910  0.7860
  168SOL    HW2  671   1.695   1.607   2.951 -0.5176  1.4149 -2.2338
  168SOL     MW  672   1.646   1.676   2.924 -0.3305 -0.1582 -0.0273
  169SOL     OW  673   0.369   0.965   1.303  0.1780 -0.0853  0.5336
  169SOL    HW1  674   0.388   0.927   1.385 -1.2980 -0.6033 -1.3492
  169SOL    HW2  675   0.431   1.047   1.298  2.6256 -2.1663 -0.4654
  169SOL     MW  676   0.380   0.971   1.313  0.3062 -0.4282  0.1533
  170SOL     OW  677   0.992   1.447   1.486 -0.2799  0.0366  0.3914
  170SOL    HW1  678   0.964   1.541   1.498  1.1605  0.1274  1.7237
  170SOL    HW2  679   1.018   1.452   1.387  3.2887  0.7858  2.6380
  170SOL     MW  680   0.992   1.460   1.475  0.3810  0.1474  0.8636
  171SOL     OW  681   0.601   1.440   0.659 -0.0700  0.2580 -0.4872
  171SOL    HW1  682   0.543   1.407   0.731 -1.9476  0.6077  0.9228
  171SOL    HW2  683   0.594   1.375   0.588  0.8294 -0.8003  0.0784
  171SOL     MW  684   0.592   1.427   0.659 -0.1991  0.1645 -0.2265
  172SOL     OW  685   0.841   0.330   1.275 -0.0060 -0.4822  0.0030
  172SOL    HW1  686   0.854   0.358   1.179 -1.0557  2.8127 -0.4455
  172SOL    HW2  687   0.744   0.335   1.297  0.2920 -4.1320  0.4608
  172SOL     MW  688   0.830   0.334   1.265 -0.1052 -0.5290  0.0042
  173SOL     OW  689   0.478   1.656   0.399 -0.2785 -0.1962 -0.4774
  173SOL    HW1  690   0.450   1.560   0.392 -2.4129 -2.0414  2.1390
  173SOL    HW2  691   0.495   1.673   0.492  0.2660  0.1362 -0.6833
  173SOL     MW  692   0.476   1.646   0.410 -0.4882 -0.3958 -0.1593
  174SOL     OW  693   1.935   0.990   1.482 -0.9461  0.1405  0.1737
  174SOL    HW1  694   1.902   0.894   1.501  0.1119 -0.8848  3.0048
  174SOL    HW2  695   1.904   1.022   1.395 -0.7389  1.0461  1.0784
  174SOL     MW  696   1.927   0.982   1.473 -0.7791  0.1247  0.6666
  175SOL     OW  697   0.468   1.371   0.332 -0.1297 -0.2076 -0.1391
  175SOL    HW1  698   0.432   1.372   0.245 -0.4392  0.1013  1.1940
  175SOL    HW2  699   0.556   1.395   0.325  1.6805  2.8182  1.0065
  175SOL     MW  700   0.475   1.374   0.320  0.0683  0.2324  0.1879
  176SOL     OW  701   0.185   1.347   1.245 -0.6165  0.4380 -0.4236
  176SOL    HW1  702   0.145   1.322   1.159  3.0076 -0.2666 -0.8593
  176SOL    HW2  703   0.117   1.322   1.301  1.4289  0.7974  1.7634
  176SOL     MW  704   0.171   1.341   1.241  0.1315  0.3925 -0.1926
  177SOL     OW  705   0.574   0.318   1.331 -0.4577  0.6203  0.5361
  177SOL    HW1  706   0.551   0.401   1.289 -0.4323 -0.3042  1.6920
  177SOL    HW2  707   0.579   0.347   1.418 -2.1720 -0.2539  0.1369
  177SOL     MW  708   0.572   0.333   1.337 -0.6806  0.3830  0.6360
  178SOL     OW  709   3.038   0.401   2.890  0.7040 -0.4215  0.4007
  178SOL    HW1  710   3.013   0.448   2.972  0.0461 -1.3881 -1.8724
  178SOL    HW2  711   2.962   0.410   2.834  0.8156  1.0910 -0.0874
  178SOL     MW  712   3.025   0.408   2.894  0.6319 -0.3495  0.0364
  179SOL     OW  713   1.600   1.356   1.448  0.2517  0.4259 -0.8460
  179SOL    HW1  714   1.580   1.382   1.538 -2.9950  0.6429 -0.9507
  179SOL    HW2  715   1.689   1.388   1.426 -2.2571  1.6762  1.7605
  179SOL     MW  716   1.609   1.364   1.457 -0.5077  0.6195 -0.5159
  180SOL     OW  717   2.978   0.203   0.457 -0.2670 -0.1445  0.1787
  180SOL    HW1  718   2.944   0.248   0.378 -1.5467  0.7346 -1.1345
  180SOL    HW2  719   3.056   0.260   0.481  0.2738  1.2675  1.2076
  180SOL     MW  720   2.984   0.216   0.450 -0.3645  0.1578  0.1412
  181SOL     OW  721   1.163   1.379   3.047  0.2203 -0.5854  0.1708
  181SOL    HW1  722   1.247   1.404   3.081  0.8306 -2.1031  2.1195
  181SOL    HW2  723   1.176   1.373   2.951  0.5667 -3.8194 -1.9483
  181SOL     MW  724   1.176   1.382   3.039  0.3465 -1.2124  0.1483
  182SOL     OW  725   0.500   0.861   1.672  0.1543  0.0049 -0.1656
  182SOL    HW1  726   0.414   0.858   1.715 -1.2660  2.5114  0.3935
  182SOL    HW2  727   0.567   0.831   1.735 -2.7933  0.0413  1.2242
  182SOL     MW  728   0.498   0.857   1.686 -0.4220  0.3404  0.0916
  183SOL     OW  729   1.495   1.507   1.241  0.0559 -0.0404 -0.3892
  183SOL    HW1  730   1.460   1.577   1.295  2.0518  1.4491 -1.6306
  183SOL    HW2  731   1.546   1.454   1.312 -0.1460 -0.3716  1.9930
  183SOL     MW  732   1.498   1.509   1.258  0.2926  0.1125 -0.2387
  184SOL     OW  733   0.903   0.630   1.964  0.1164 -0.3279 -0.2892
  184SOL    HW1  734   0.974   0.596   1.910  0.0136 -0.9025  0.5653
  184SOL    HW2  735   0.864   0.546   1.989 -1.0033 -2.9315 -3.1345
  184SOL     MW  736   0.907   0.615   1.960 -0.0449 -0.7472 -0.5519
  185SOL     OW  737   1.171   0.957   1.955 -0.2872  0.9628 -0.7615
  185SOL    HW1  738   1.201   0.866   1.974 -1.5499 -1.5935 -2.1834
  185SOL    HW2  739   1.213   1.010   2.017 -2.2950 -4.6175  1.4432
  185SOL     MW  740   1.180   0.952   1.966 -0.7187 -0.1108 -0.6582
  186SOL     OW  741   0.430   1.638   1.423 -0.1415 -0.4822  0.2524
  186SOL    HW1  742   0.521   1.650   1.399 -0.3196 -0.4221  0.0409
  186SOL    HW2  743   0.381   1.610   1.340 -0.9816  0.2920 -1.9623
  186SOL     MW  744   0.435   1.636   1.409 -0.2759 -0.3721 -0.0677
  187SOL     OW  745   1.447   0.761   1.449 -0.2592 -0.1520 -0.2174
  187SOL    HW1  746   1.446   0.736   1.543 -0.5606 -0.4584 -0.0643
  187SOL    HW2  747   1.363   0.729   1.413  1.5735 -1.3073 -1.4607
  187SOL     MW  748   1.436   0.753   1.457 -0.0572 -0.3449 -0.3612
  188SOL     OW  749   1.904   1.101   0.803  0.2166  0.2781  0.3641
  188SOL    HW1  750   1.885   1.107   0.897  0.4289  1.6288 -2.2854
  188SOL    HW2  751   1.992   1.070   0.786  0.5401  1.3787  0.4340
  188SOL     MW  752   1.913   1.098   0.813  0.2873  0.6015  0.0238
  189SOL     OW  753   0.731   0.770   0.795 -0.1416  0.1548  0.5227
  189SOL    HW1  754   0.641   0.807   0.791 -0.8285 -2.1870  0.9197
  189SOL    HW2  755   0.790   0.829   0.841 -0.7776 -2.0679 -1.8139
  189SOL     MW  756   0.727   0.783   0.801 -0.3162 -0.4475  0.2668
  190SOL     OW  757   1.861   0.188   2.025 -0.2990 -0.1146  0.2045
  190SOL    HW1  758   1.877   0.097   2.032  1.0813  0.9693 -3.7718
  190SOL    HW2  759   1.937   0.234   2.058 -0.8455 -1.6465 -1.5702
  190SOL     MW  760   1.873   0.182   2.031 -0.1890 -0.1737 -0.5543
  191SOL     OW  761   1.463   0.958   1.234 -0.1515  0.1707 -0.0907
  191SOL    HW1  762   1.441   1.046   1.266  1.1667 -0.1650  1.8095
  191SOL    HW2  763   1.451   0.897   1.307 -2.0103 -0.7873 -2.1645
  191SOL     MW  764   1.458   0.962   1.248 -0.2228  0.0000 -0.1136
  192SOL     OW  765   0.617   2.040   2.820 -0.6571  0.0543 -0.3005
  192SOL    HW1  766   0.562   2.095   2.764  1.9605 -1.5692  2.8576
  192SOL    HW2  767   0.585   1.954   2.811  0.3417  0.4723 -0.5559
  192SOL     MW  768   0.606   2.036   2.811 -0.1799 -0.1047  0.0825
  193SOL     OW  769   1.017   1.586   0.721  0.2099 -0.1395  0.1088
  193SOL    HW1  770   0.993   1.586   0.808 -0.9309 -2.1274 -2.9102
  193SOL    HW2  771   0.951   1.518   0.688 -0.6539  2.4936 -0.0892
  193SOL     MW  772   1.005   1.577   0.728 -0.0545 -0.0543 -0.3156
  194SOL     OW  773   0.496   1.345   0.913  0.3593  0.1055  0.0254
  194SOL    HW1  774   0.494   1.244   0.928 -2.1312  2.3357 -0.1454
  194SOL    HW2  775   0.403   1.372   0.883  0.3227 -0.1729  0.1984
  194SOL     MW  776   0.484   1.335   0.911  0.0259  0.3630  0.0257
  195SOL     OW  777   1.297   1.097   2.964  0.5433  0.4820  0.0289
  195SOL    HW1  778   1.347   1.124   3.039  0.9259  0.1621 -3.5176
  195SOL    HW2  779   1.223   1.061   3.011 -1.2553  0.6255  0.3158
  195SOL     MW  780   1.294   1.096   2.980  0.3565  0.4588 -0.4012
  196SOL     OW  781   2.178   1.024   0.642 -0.0372  0.2410 -0.1379
  196SOL    HW1  782   2.119   0.972   0.583  1.9756 -0.0908 -0.5052
  196SOL    HW2  783   2.204   1.095   0.585  0.7954  0.4601  1.8339
  196SOL     MW  784   2.173   1.027   0.627  0.3382  0.2262  0.0738
  197SOL     OW  785   0.696   1.278   2.025  0.4166 -0.2742  0.3396
  197SOL    HW1  786   0.666   1.193   2.030  0.9862 -0.4566  0.5399
  197SOL    HW2  787   0.661   1.312   1.944 -0.6843 -0.0601 -0.5510
  197SOL     MW  788   0.688   1.271   2.015  0.3465 -0.2700  0.2485
  198SOL     OW  789   2.951   1.442   1.049  0.4922 -0.7368  0.4584
  198SOL    HW1  790   2.927   1.537   1.043 -0.8926 -0.1703 -1.9490
  198SOL    HW2  791   2.864   1.392   1.049 -1.0350 -0.7258 -1.5877
  198SOL     MW  792   2.936   1.448   1.048  0.1080 -0.6606 -0.1292
  199SOL     OW  793   0.518   1.340   1.800  0.4098  0.0457  0.6397
  199SOL    HW1  794   0.426   1.311   1.788  0.1184 -0.1047 -0.3688
  199SOL    HW2  795   0.531   1.404   1.725  0.6528  0.7316 -0.7023
  199SOL     MW  796   0.508   1.344   1.788  0.4034  0.1163  0.3296
  200SOL     OW  797   1.898   3.077   1.350 -0.3065 -0.1568 -0.3124
  200SOL    HW1  798   1.916   3.072   1.255 -1.0019  1.3759 -1.8711
  200SOL    HW2  799   1.815   3.124   1.356 -0.8138  2.7453 -3.3746
  200SOL     MW  800   1.889   3.082   1.338 -0.4652  0.4283 -0.9221
  201SOL     OW  801   1.004   0.240   0.825 -0.7281 -0.1354  0.4143
  201SOL    HW1  802   0.975   0.159   0.778 -1.9998 -0.5216 -0.5592
  201SOL    HW2  803   1.063   0.273   0.764 -0.2259 -0.6000 -0.4030
  201SOL     MW  804   1.008   0.234   0.811 -0.8297 -0.2476  0.1781
  202SOL     OW  805   1.525   1.645   0.983 -0.3551 -0.3626 -0.3034
  202SOL    HW1  806   1.581   1.578   0.939 -1.6503  1.1360 -1.9585
  202SOL    HW2  807   1.540   1.629   1.078 -2.5821 -1.6019  0.7022
  202SOL     MW  808   1.534   1.634   0.990 -0.8198 -0.3284 -0.3891
  203SOL     OW  809  -0.002   0.444   1.152 -0.0121 -0.1033 -0.0467
  203SOL    HW1  810   0.044   0.393   1.091  0.9705  2.0971 -0.6033
  203SOL    HW2  811   0.062   0.490   1.208 -1.8090 -2.0402  1.5551
  203SOL     MW  812   0.013   0.444   1.152 -0.1196 -0.0685  0.0912
  204SOL     OW  813   1.061   1.808   0.557  0.2861 -0.0403  0.7012
  204SOL    HW1  814   1.028   1.734   0.616  0.0670 -1.1000  1.1721
  204SOL    HW2  815   0.987   1.814   0.494 -0.8424  2.0951  0.2394
  204SOL     MW  816   1.047   1.799   0.556  0.1083  0.1016  0.7024
  205SOL     OW  817   1.360   0.103   1.327  0.0608  0.1899  0.0959
  205SOL    HW1  818   1.328   0.100   1.234  0.6281 -0.5334 -0.9982
  205SOL    HW2  819   1.341   0.194   1.359 -2.1211  0.1557  1.6828
  205SOL     MW  820   1.353   0.114   1.319 -0.1522  0.0900  0.1609
  206SOL     OW  821   0.418   3.073   1.424  0.0608 -0.1434 -0.4962
  206SOL    HW1  822   0.351   3.027   1.368  2.7463 -0.2757  0.2282
  206SOL    HW2  823   0.492   3.006   1.409 -2.6663  0.7859 -0.3756
  206SOL     MW  824   0.419   3.058   1.414  0.0553 -0.0383 -0.3847
  207SOL     OW  825   0.953   1.530   0.211  0.1476 -0.3183  0.2969
  207SOL    HW1  826   0.931   1.620   0.195 -2.5130 -1.5873 -1.1027
  207SOL    HW2  827   1.040   1.530   0.234 -1.3180  0.9379  1.1833
  207SOL     MW  828   0.961   1.542   0.212 -0.3968 -0.3200  0.2292
  208SOL     OW  829   0.679   1.606   1.327 -0.0841  0.5390  0.4254
  208SOL    HW1  830   0.742   1.624   1.403 -0.1227  0.4278  0.5624
  208SOL    HW2  831   0.656   1.516   1.339 -1.0065  1.7516  1.4651
  208SOL     MW  832   0.684   1.597   1.339 -0.2109  0.6844  0.5807
  209SOL     OW  833   1.585   0.544   2.859  0.1542 -0.5489  0.4922
  209SOL    HW1  834   1.652   0.577   2.916 -0.8498 -0.9909 -1.0758
  209SOL    HW2  835   1.615   0.455   2.831 -0.4221  4.2145 -0.8081
  209SOL     MW  836   1.598   0.537   2.863 -0.0543  0.0212  0.1138
  210SOL     OW  837   1.618   1.420   0.849 -0.1600 -0.6103 -0.6931
  210SOL    HW1  838   1.710   1.416   0.816  3.0629 -1.9269  0.1399
  210SOL    HW2  839   1.567   1.410   0.767 -2.0809  0.6591 -0.3668
  210SOL     MW  840   1.624   1.418   0.834  0.0118 -0.6165 -0.5401
  211SOL     OW  841   1.670   0.396   0.961 -0.4846  0.5413  0.5418
  211SOL    HW1  842   1.654   0.395   0.867 -2.7504 -0.7414 -0.3161
  211SOL    HW2  843   1.765   0.435   0.967  0.0052  1.4242 -1.1950
  211SOL     MW  844   1.680   0.401   0.950 -0.7189  0.4886  0.1995
  212SOL     OW  845   0.258   1.125   0.102 -0.5006  0.1584  0.6323
  212SOL    HW1  846   0.205   1.123   0.181 -0.4536  0.8273  1.1776
  212SOL    HW2  847   0.261   1.033   0.076  0.0851 -0.3624  0.7991
  212SOL     MW  848   0.252   1.113   0.109 -0.4171  0.1779  0.7262
  213SOL     OW  849   0.405   1.754   3.034  1.0133 -0.5942  0.0444
  213SOL    HW1  850   0.450   1.785   3.114 -0.2715  2.0031  0.7702
  213SOL    HW2  851   0.464   1.767   2.958  0.4442  0.1131 -2.2457
  213SOL     MW  852   0.419   1.760   3.035  0.7687 -0.1582 -0.1620
  214SOL     OW  853   0.603   0.293   2.224 -0.5774  0.1317  0.0977
  214SOL    HW1  854   0.528   0.346   2.191 -1.2930  0.7379 -0.5369
  214SOL    HW2  855   0.669   0.299   2.158  1.2432  0.7655 -2.8791
  214SOL     MW  856   0.602   0.301   2.211 -0.4316  0.2953 -0.3788
  215SOL     OW  857   0.471   0.661   2.640  0.2612 -0.5306  0.0163
  215SOL    HW1  858   0.517   0.663   2.555  1.2593  0.2161  1.4630
  215SOL    HW2  859   0.404   0.593   2.644  1.2815  1.4492  0.6482
  215SOL     MW  860   0.468   0.652   2.629  0.5275 -0.1709  0.2905
  216SOL     OW  861   3.041   3.074   2.665 -0.0909  0.5886  0.2243
  216SOL    HW1  862   2.986   3.064   2.747 -0.8534  0.3322  0.1292
  216SOL    HW2  863   3.019   3.166   2.632  3.1819  3.9496  1.1893
  216SOL     MW  864   3.031   3.085   2.671  0.2403  0.9983  0.3391
  217SOL     OW  865   0.911   1.242   0.029 -0.2802 -0.5156  0.2585
  217SOL    HW1  866   0.953   1.158   0.014 -1.2228  2.8161 -2.9480
  217SOL    HW2  867   0.987   1.304   0.025 -0.0297  0.3310  3.9021
  217SOL     MW  868   0.926   1.239   0.027 -0.3715  0.0357  0.3162
  218SOL     OW  869   0.903   1.289   2.538  0.0023  0.3547  0.4811
  218SOL    HW1  870   0.927   1.216   2.590  0.5241  2.0080 -0.2871
  218SOL    HW2  871   0.978   1.344   2.550 -0.6311 -2.3079  3.3450
  218SOL     MW  872   0.916   1.287   2.547 -0.0124  0.2215  0.7576
  219SOL     OW  873   1.089   0.464   2.555 -0.0774  0.4180  0.3473
  219SOL    HW1  874   1.159   0.513   2.597 -0.0397 -0.9793 -0.0926
  219SOL    HW2  875   1.031   0.525   2.518 -0.5743 -0.3676  3.1165
  219SOL     MW  876   1.091   0.479   2.556 -0.1380  0.1300  0.6546
  220SOL     OW  877   1.790   0.412   2.199  0.1845 -0.1197  0.2241
  220SOL    HW1  878   1.724   0.476   2.170  3.0552  2.6075  1.7987
  220SOL    HW2  879   1.769   0.324   2.161  1.4059  0.5210 -0.3833
  220SOL     MW  880   1.778   0.409   2.191  0.7244  0.3246  0.3517
  221SOL     OW  881   0.375   1.341   2.886  0.1095  0.6626  0.6502
  221SOL    HW1  882   0.392   1.247   2.870  3.0201  1.3581  0.2874
  221SOL    HW2  883   0.400   1.381   2.799  2.3083 -0.6262  0.9694
  221SOL     MW  884   0.381   1.334   2.872  0.7836  0.5843  0.6444
  222SOL     OW  885   0.315   0.893   2.639  0.2103 -0.0874 -0.2769
  222SOL    HW1  886   0.305   0.924   2.546 -0.2893  0.0784  0.4480
  222SOL    HW2  887   0.350   0.806   2.630 -0.2041  0.8494 -1.6591
  222SOL     MW  888   0.318   0.886   2.626  0.0897  0.0581 -0.3637
  223SOL     OW  889   0.047   2.085   2.605  0.1675  0.2617  0.0377
  223SOL    HW1  890   0.115   2.032   2.642  2.1774  2.5936  0.1158
  223SOL    HW2  891   0.106   2.136   2.552  0.3001 -2.3749  0.5137
  223SOL     MW  892   0.064   2.085   2.603  0.4502  0.2215  0.1108
  224SOL     OW  893   1.505   0.794   2.610  0.2069 -0.3357 -0.1351
  224SOL    HW1  894   1.482   0.818   2.698 -0.6510 -1.2393  3.0386
  224SOL    HW2  895   1.485   0.871   2.561  0.0695  0.7518  0.6427
  224SOL     MW  896   1.499   0.807   2.615  0.0756 -0.3115  0.3863
  225SOL     OW  897   2.989   1.527   2.305 -0.0491 -0.0493  0.4528
  225SOL    HW1  898   3.017   1.596   2.244  0.3703 -0.9066  0.5210
  225SOL    HW2  899   2.918   1.564   2.360  0.8927  1.5454  0.9292
  225SOL     MW  900   2.983   1.541   2.304  0.1305  0.0480  0.5246
  226SOL     OW  901   0.412   1.419   2.613  0.3654  0.2798 -0.1568
  226SOL    HW1  902   0.506   1.423   2.604  2.8904 -1.3523  1.6845
  226SOL    HW2  903   0.384   1.513   2.609 -0.1495 -0.6796 -1.5433
  226SOL     MW  904   0.421   1.432   2.611  0.6306 -0.0621 -0.0968
  227SOL     OW  905   0.418   1.070   2.829  0.3594 -0.0413  0.4084
  227SOL    HW1  906   0.509   1.094   2.811 -4.1222  0.9636 -0.1096
  227SOL    HW2  907   0.388   1.000   2.771  4.7930  3.1764  1.3030
  227SOL     MW  908   0.426   1.064   2.819  0.3531  0.5159  0.4581
  228SOL     OW  909   0.692   0.988   2.018  0.7508 -0.1647  0.4684
  228SOL    HW1  910   0.779   1.013   1.981 -0.4089  1.3281  0.3585
  228SOL    HW2  911   0.722   0.948   2.100  1.0255 -3.3442  1.6506
  228SOL     MW  912   0.707   0.986   2.024  0.6340 -0.3873  0.6099
  229SOL     OW  913   0.141   0.549   3.089 -0.1676  0.4530  0.3591
  229SOL    HW1  914   0.048   0.565   3.069 -1.2055  1.6990 -2.6030
  229SOL    HW2  915   0.146   0.487   3.165  2.0619  2.0428 -2.3367
  229SOL     MW  916   0.130   0.543   3.096 -0.0104  0.8272 -0.3874
  230SOL     OW  917   1.754   1.403   2.033  0.1994  0.4377  0.0091
  230SOL    HW1  918   1.706   1.388   2.117  0.5286 -1.6018  0.7814
  230SOL    HW2  919   1.825   1.338   2.023 -0.9596  0.6982 -1.7116
  230SOL     MW  920   1.757   1.392   2.043  0.0899  0.2030 -0.1160
  231SOL     OW  921   2.754   1.335   2.249 -0.0136 -0.1018 -0.2675
  231SOL    HW1  922   2.838   1.387   2.248  2.3271 -0.4596 -0.1193
  231SOL    HW2  923   2.699   1.384   2.180 -1.9626 -0.9308 -2.2883
  231SOL     MW  924   2.758   1.348   2.239  0.0381 -0.2584 -0.5146
  232SOL     OW  925   2.245   0.848   2.166  0.4180 -0.6517  0.1937
  232SOL    HW1  926   2.199   0.867   2.082  1.1651 -0.1795  1.5203
  232SOL    HW2  927   2.192   0.876   2.245 -1.4561 -1.2042  0.4163
  232SOL     MW  928   2.232   0.854   2.166  0.2693 -0.6623  0.3981
  233SOL     OW  929   2.035   0.531   1.971  0.2941 -0.3530  0.2064
  233SOL    HW1  930   2.109   0.501   1.926 -1.2865 -0.8882  0.9105
  233SOL    HW2  931   2.070   0.515   2.057  0.9688 -0.8739 -1.7623
  233SOL     MW  932   2.050   0.525   1.976  0.1746 -0.4923  0.0395
  234SOL     OW  933   0.271   1.008   2.368 -0.4302 -0.1068  0.1179
  234SOL    HW1  934   0.186   1.043   2.341  0.0128  3.0681 -1.6547
  234SOL    HW2  935   0.315   1.087   2.404  0.4792  1.3177  0.1855
  234SOL     MW  936   0.265   1.023   2.369 -0.2518  0.5000 -0.1071
  235SOL     OW  937   1.100   3.071   2.715  0.4262 -0.5577 -0.5398
  235SOL    HW1  938   1.152   3.008   2.767  0.4622 -2.7493 -2.0756
  235SOL    HW2  939   1.069   3.139   2.778  0.0776  1.9433  1.4022
  235SOL     MW  940   1.103   3.071   2.730  0.3849 -0.5168 -0.4862
  236SOL     OW  941   2.946   0.524   0.020 -0.2845 -0.2833 -0.2843
  236SOL    HW1  942   2.863   0.535  -0.032  0.3413 -0.6402 -2.2359
  236SOL    HW2  943   2.968   0.612   0.054 -2.4205  1.4451 -0.1933
  236SOL     MW  944   2.938   0.537   0.018 -0.4838 -0.1023 -0.5298
  237SOL     OW  945   1.888   0.991   2.162  0.9963  0.5486  0.2139
  237SOL    HW1  946   1.913   1.080   2.168 -1.5070 -1.3699  0.6902
  237SOL    HW2  947   1.871   0.949   2.243  1.2421  0.7359 -0.2401
  237SOL     MW  948   1.889   0.997   2.173  0.6985  0.3202  0.2169
  238SOL     OW  949   1.081   1.797   3.029 -0.0402  0.0356 -0.1269
  238SOL    HW1  950   1.027   1.720   2.993  0.3661 -0.0834  1.4621
  238SOL    HW2  951   1.168   1.761   3.011  1.3107  1.1177 -0.5795
  238SOL     MW  952   1.085   1.782   3.022  0.1916  0.1627  0.0231
  239SOL     OW  953   1.273   1.397   2.353  0.3658 -0.3190  0.0881
  239SOL    HW1  954   1.207   1.433   2.409  1.1597 -3.2805  0.1954
  239SOL    HW2  955   1.274   1.303   2.391 -2.3889 -1.9074  0.9092
  239SOL     MW  956   1.264   1.389   2.366  0.1071 -0.9193  0.2106
  240SOL     OW  957   0.713   0.821   2.245  0.8278 -0.0349  0.6874
  240SOL    HW1  958   0.729   0.878   2.321 -1.2303  1.4822 -0.8242
  240SOL    HW2  959   0.804   0.788   2.216  1.9458  1.8439 -1.5749
  240SOL     MW  960   0.727   0.824   2.251  0.7037  0.4131  0.1895
  241SOL     OW  961   0.662   0.368   3.091  0.3316 -0.1162 -0.0211
  241SOL    HW1  962   0.680   0.449   3.143 -1.0480 -0.5068  0.7925
  241SOL    HW2  963   0.570   0.358   3.068 -0.3093 -1.0377  0.7033
  241SOL     MW  964   0.652   0.377   3.095  0.0650 -0.2893  0.1819
  242SOL     OW  965   1.485   1.681   2.288  0.3502 -0.2620  0.7964
  242SOL    HW1  966   1.431   1.751   2.326 -0.0027 -2.1533 -0.3992
  242SOL    HW2  967   1.419   1.635   2.231 -0.0101 -0.1270  2.1906
  242SOL     MW  968   1.469   1.684   2.286  0.2561 -0.4937  0.8226
  243SOL     OW  969   1.019   0.240   2.423  0.3357  0.0889  0.2859
  243SOL    HW1  970   1.096   0.198   2.399 -2.1463  1.6041 -1.0833
  243SOL    HW2  971   1.039   0.299   2.495  2.7963  1.3121 -1.4335
  243SOL     MW  972   1.032   0.242   2.429  0.3329  0.4502 -0.1216
  244SOL     OW  973   0.261   0.741   2.400  0.5807 -0.1455  0.0332
  244SOL    HW1  974   0.251   0.834   2.367 -0.0664  0.3350  0.0137
  244SOL    HW2  975   0.358   0.717   2.389 -0.6814  1.6122 -0.7958
  244SOL     MW  976   0.273   0.750   2.394  0.3288  0.1498 -0.0788
  245SOL     OW  977   1.281   0.232   2.335  0.4108  0.1153  0.1944
  245SOL    HW1  978   1.363   0.188   2.311 -1.0573  2.4827 -0.6392
  245SOL    HW2  979   1.299   0.304   2.395  0.0716 -1.4622 -1.0554
  245SOL     MW  980   1.294   0.236   2.340  0.1724  0.2195 -0.0805
  246SOL     OW  981   1.193   1.228   2.124 -0.1822 -0.3353  0.3477
  246SOL    HW1  982   1.130   1.166   2.165 -0.0606  1.1586  1.9966
  246SOL    HW2  983   1.213   1.293   2.198 -0.0049  2.8741  2.0235
  246SOL     MW  984   1.187   1.228   2.139 -0.1427  0.2853  0.7864
  247SOL     OW  985   0.765   0.579   0.133  0.1836  0.2986 -0.5001
  247SOL    HW1  986   0.707   0.648   0.105  1.6673  1.3879 -1.3661
  247SOL    HW2  987   0.854   0.606   0.116  0.0299  2.0817 -2.0023
  247SOL     MW  988   0.769   0.592   0.127  0.3591  0.6776 -0.8126
  248SOL     OW  989   0.461   1.173   2.474  0.0560  0.1937 -0.0109
  248SOL    HW1  990   0.508   1.220   2.399  0.6260 -0.3402 -0.9324
  248SOL    HW2  991   0.433   1.250   2.524 -1.4422 -0.4046 -1.6737
  248SOL     MW  992   0.464   1.190   2.471 -0.0665  0.0443 -0.3518
  249SOL     OW  993   0.179   1.841   2.701 -0.3933 -0.8566 -0.4887
  249SOL    HW1  994   0.138   1.783   2.640  1.6671  0.8778  3.6681
  249SOL    HW2  995   0.158   1.808   2.790  0.9993 -0.0671  1.5732
  249SOL     MW  996   0.171   1.829   2.704  0.0623 -0.5236  0.3318
  250SOL     OW  997   2.159   0.869   2.423  0.8638  0.5453 -0.1106
  250SOL    HW1  998   2.199   0.782   2.444  2.6346 -2.2230  1.0358
  250SOL    HW2  999   2.210   0.932   2.472  1.4141 -1.3154  0.2518
  250SOL     MW 1000   2.171   0.865   2.432  1.1701 -0.0654  0.0885
  251SOL     OW 1001   0.184   0.867   2.055 -0.2708  1.1707 -0.5608
  251SOL    HW1 1002   0.168   0.786   2.097 -0.7852  0.2108  2.1994
  251SOL    HW2 1003   0.216   0.830   1.973 -1.0312 -4.3436  1.7212
  251SOL     MW 1004   0.186   0.851   2.050 -0.4390  0.3165  0.1045
  252SOL     OW 1005   1.669   1.011   2.904  0.2570 -0.2321  0.3620
  252SOL    HW1 1006   1.684   1.058   2.990  0.1582  0.6319  0.9295
  252SOL    HW2 1007   1.714   1.060   2.835 -2.0658  1.5296  1.0468
  252SOL     MW 1008   1.677   1.023   2.907 -0.0625  0.1144  0.5272
  253SOL     OW 1009   1.155   1.747   2.568  0.4762  0.4749  0.2701
  253SOL    HW1 1010   1.172   1.767   2.478 -1.0425 -0.2847 -1.5089
  253SOL    HW2 1011   1.070   1.792   2.586  2.0004 -1.5701 -0.8375
  253SOL     MW 1012   1.146   1.755   2.558  0.4770  0.1049 -0.1108
  254SOL     OW 1013   1.008   1.061   2.252  0.7656 -0.6690  0.0079
  254SOL    HW1 1014   0.990   0.966   2.233 -0.0973 -1.1944  0.6276
  254SOL    HW2 1015   0.923   1.113   2.273 -1.0855  0.0605 -0.9291
  254SOL     MW 1016   0.994   1.056   2.252  0.4075 -0.6421 -0.0340
  255SOL     OW 1017   0.833   2.531   2.210  0.0448  0.7218  0.5075
  255SOL    HW1 1018   0.749   2.488   2.226  1.0103  0.0302  2.3208
  255SOL    HW2 1019   0.881   2.515   2.293 -1.1161 -2.2981 -1.3445
  255SOL     MW 1020   0.828   2.523   2.223  0.0190  0.2321  0.5024
  256SOL     OW 1021   1.203   2.842   2.850 -0.1801 -0.3812 -0.1344
  256SOL    HW1 1022   1.181   2.772   2.795 -1.2681  1.3872  2.0843
  256SOL    HW2 1023   1.302   2.837   2.864  1.3001  0.7621  1.7759
  256SOL     MW 1024   1.213   2.832   2.845 -0.1284  0.0030  0.4104
  257SOL     OW 1025   0.140   1.916   0.087 -0.5806 -0.0894  0.1825
  257SOL    HW1 1026   0.205   1.885   0.157  0.7974 -2.9058 -0.9379
  257SOL    HW2 1027   0.151   1.863   0.009  0.5274  0.9323  0.3341
  257SOL     MW 1028   0.150   1.905   0.086 -0.2526 -0.3262  0.0547
  258SOL     OW 1029   0.715   1.020   2.464  0.1396 -0.5874 -0.7362
  258SOL    HW1 1030   0.736   1.101   2.419 -0.5540  1.8165 -2.1884
  258SOL    HW2 1031   0.619   1.040   2.484 -2.5696 -0.3562 -0.1276
  258SOL     MW 1032   0.705   1.033   2.461 -0.3094 -0.2397 -0.8475
  259SOL     OW 1033   0.760   0.510   2.336 -0.3979 -0.1873  0.0445
  259SOL    HW1 1034   0.691   0.576   2.359 -0.0762 -1.9480 -0.2403
  259SOL    HW2 1035   0.698   0.435   2.326 -1.5394  0.3530 -0.0057
  259SOL     MW 1036   0.743   0.508   2.338 -0.5060 -0.3483  0.0003
  260SOL     OW 1037   0.586   0.166   1.576 -0.0939 -0.0011 -0.3019
  260SOL    HW1 1038   0.535   0.106   1.521  0.3346 -1.3149 -0.1025
  260SOL    HW2 1039   0.671   0.166   1.534  0.9834  0.7602 -2.3246
  260SOL     MW 1040   0.590   0.158   1.563  0.1048 -0.0740 -0.5424
  261SOL     OW 1041   1.225   0.688   2.028  0.7299  0.5327  0.3693
  261SOL    HW1 1042   1.250   0.699   2.122 -0.7662 -2.1857 -0.3497
  261SOL    HW2 1043   1.273   0.605   2.004  1.1934 -1.0916  1.6937
  261SOL     MW 1044   1.235   0.678   2.037  0.5937 -0.0403  0.4491
  262SOL     OW 1045   1.154   0.286   0.135 -0.2541 -0.7311 -0.0379
  262SOL    HW1 1046   1.246   0.287   0.110  0.3346 -1.9000  1.2270
  262SOL    HW2 1047   1.108   0.221   0.079 -0.4117  2.3963  1.2177
  262SOL     MW 1048   1.160   0.278   0.124 -0.1972 -0.4727  0.2947
  263SOL     OW 1049   0.413   3.059   2.503  0.2340  0.1975 -0.5868
  263SOL    HW1 1050   0.351   3.133   2.505  2.2205  0.8247  0.2888
  263SOL    HW2 1051   0.454   3.078   2.419 -0.7981 -2.0139 -0.0216
  263SOL     MW 1052   0.410   3.071   2.492  0.3600 -0.0115 -0.3967
  264SOL     OW 1053   1.518   1.303   1.909 -0.0673  0.6498 -0.0428
  264SOL    HW1 1054   1.458   1.285   1.980  1.9521 -2.2413  1.2579
  264SOL    HW2 1055   1.600   1.332   1.954 -0.7870  1.3359 -1.9040
  264SOL     MW 1056   1.521   1.304   1.924  0.1042  0.3589 -0.1168
  265SOL     OW 1057   0.683   2.757   2.243  0.5925  0.4841 -0.1728
  265SOL    HW1 1058   0.742   2.704   2.197 -0.4048  1.8123  1.7865
  265SOL    HW2 1059   0.723   2.745   2.332 -4.0554 -0.1132 -1.4258
  265SOL     MW 1060   0.696   2.749   2.249 -0.1523  0.5805 -0.0796
  266SOL     OW 1061   0.992   0.793   2.162  0.0168  0.3234  0.6436
  266SOL    HW1 1062   0.994   0.752   2.075  1.6564 -2.7854  0.1384
  266SOL    HW2 1063   1.079   0.762   2.193 -2.3001 -0.0141  0.5484
  266SOL     MW 1064   1.004   0.784   2.155 -0.0725 -0.1313  0.5644
  267SOL     OW 1065   1.378   1.654   2.705  0.0961 -0.2121  0.1338
  267SOL    HW1 1066   1.452   1.652   2.642 -0.5689 -1.2652  3.2964
  267SOL    HW2 1067   1.309   1.695   2.651 -1.0538  1.8203 -0.6840
  267SOL     MW 1068   1.379   1.659   2.690 -0.1434 -0.0829  0.4432
  268SOL     OW 1069   0.266   0.783   1.815  0.2273  0.5253  0.2087
  268SOL    HW1 1070   0.215   0.851   1.763 -1.4403  2.7349 -0.3538
  268SOL    HW2 1071   0.261   0.703   1.762  1.5631  2.3619 -1.8837
  268SOL     MW 1072   0.258   0.781   1.801  0.1835  1.0591 -0.1416
  269SOL     OW 1073   1.388   1.923   2.372 -0.0975  0.2379 -0.1067
  269SOL    HW1 1074   1.424   1.990   2.315 -0.7522 -1.6360 -0.4773
  269SOL    HW2 1075   1.334   1.970   2.441  1.2586  0.4627 -1.9577
  269SOL     MW 1076   1.386   1.938   2.373 -0.0049  0.0203 -0.3999
  270SOL     OW 1077   1.184   0.379   1.608 -0.8224 -0.2287  0.5997
  270SOL    HW1 1078   1.144   0.302   1.654 -0.9804 -1.4983 -1.5262
  270SOL    HW2 1079   1.284   0.378   1.611  1.3130 -0.3277 -0.7656
  270SOL     MW 1080   1.192   0.369   1.614 -0.5615 -0.4093  0.1391
  271SOL     OW 1081   0.902   0.002   2.450  0.1578 -0.1547  1.0528
  271SOL    HW1 1082   0.918  -0.036   2.534  1.2313  1.6114 -0.8891
  271SOL    HW2 1083   0.943   0.092   2.466 -0.4387 -0.3666  1.3092
  271SOL     MW 1084   0.910   0.009   2.464  0.2208  0.0504  0.8304
  272SOL     OW 1085   1.473   2.872   2.776  0.2885  0.6749 -0.5647
  272SOL    HW1 1086   1.427   2.931   2.707  1.5644  2.5011  2.2875
  272SOL    HW2 1087   1.515   2.927   2.847  1.9907 -0.8420  3.2614
  272SOL     MW 1088   1.472   2.887   2.776  0.6814  0.7157  0.3164
  273SOL     OW 1089   1.432   0.881   2.878 -0.1490  0.6584  0.2469
  273SOL    HW1 1090   1.524   0.913   2.893  0.5295 -3.0127 -2.1255
  273SOL    HW2 1091   1.390   0.961   2.903  1.7636  1.5821 -0.5795
  273SOL     MW 1092   1.439   0.896   2.883  0.1929  0.2959 -0.1752
  274SOL     OW 1093   1.378   0.741   0.189  0.6787  0.3143  0.4348
  274SOL    HW1 1094   1.438   0.668   0.208  0.3583  1.3159 -0.4080
  274SOL    HW2 1095   1.288   0.709   0.221 -0.3984 -0.9059  0.4976
  274SOL     MW 1096   1.374   0.727   0.196  0.4943  0.2854  0.3319
  275SOL     OW 1097   1.690   0.651   1.801  0.0470 -0.2034  0.0177
  275SOL    HW1 1098   1.744   0.696   1.864 -0.4743 -1.7938 -0.8923
  275SOL    HW2 1099   1.721   0.558   1.804  0.1993 -2.7587 -0.3831
  275SOL     MW 1100   1.701   0.645   1.810 -0.0017 -0.7504 -0.1553
  276SOL     OW 1101   0.254   1.252   1.811  0.2238 -0.1252 -0.1572
  276SOL    HW1 1102   0.296   1.188   1.874 -0.0242 -0.9985 -2.1957
  276SOL    HW2 1103   0.161   1.236   1.833 -2.2808 -3.1187 -1.9200
  276SOL     MW 1104   0.248   1.241   1.822 -0.1394 -0.6354 -0.6587
  277SOL     OW 1105   1.890   1.271   2.549 -0.1340 -0.0979 -0.8265
  277SOL    HW1 1106   1.964   1.318   2.570 -2.1013 -1.7198  0.3238
  277SOL    HW2 1107   1.884   1.202   2.616  1.2138 -1.4256 -2.0212
  277SOL     MW 1108   1.899   1.268   2.560 -0.2157 -0.4871 -0.8324
  278SOL     OW 1109   1.409   0.666   1.706 -0.0247 -0.5853 -0.1133
  278SOL    HW1 1110   1.386   0.590   1.768  0.1244 -3.8431  1.1998
  278SOL    HW2 1111   1.499   0.682   1.737  1.4573  0.4426 -2.2265
  278SOL     MW 1112   1.418   0.658   1.718  0.1905 -0.8795 -0.2189
  279SOL     OW 1113   0.526   0.030   2.264 -0.5625 -0.3840  0.6262
  279SOL    HW1 1114   0.616  -0.008   2.250 -2.0172 -2.9653 -1.4112
  279SOL    HW2 1115   0.527   0.118   2.226  1.4459  1.7793  2.6762
  279SOL     MW 1116   0.538   0.037   2.257 -0.4894 -0.4391  0.6279
  280SOL     OW 1117   1.521   1.112   2.184  0.1494 -0.2946 -0.5206
  280SOL    HW1 1118   1.551   1.044   2.123  2.4186 -1.4186  1.1982
  280SOL    HW2 1119   1.498   1.061   2.261 -0.6214  0.0669 -0.1720
  280SOL     MW 1120   1.522   1.096   2.186  0.3471 -0.3952 -0.2478
  281SOL     OW 1121   1.303   1.275   2.735 -0.1663  0.0374 -0.2362
  281SOL    HW1 1122   1.398   1.302   2.745 -0.1803 -0.6020  2.3101
  281SOL    HW2 1123   1.304   1.208   2.807  1.0773 -0.4091 -1.7834
  281SOL     MW 1124   1.316   1.270   2.746 -0.0041 -0.1059 -0.1044
  282SOL     OW 1125   1.140   1.282   1.680 -0.4235  0.7206 -0.3987
  282SOL    HW1 1126   1.118   1.357   1.633 -0.2486 -4.7229 -0.6718
  282SOL    HW2 1127   1.077   1.288   1.750  0.0948 -0.1749 -0.1843
  282SOL     MW 1128   1.129   1.292   1.683 -0.3320 -0.1157 -0.4065
  283SOL     OW 1129   0.660   1.313   3.075 -0.3133  0.5130  0.0153
  283SOL    HW1 1130   0.749   1.280   3.095  0.6750 -1.0650 -2.5766
  283SOL    HW2 1131   0.660   1.393   3.122 -1.3932 -0.3361  0.2387
  283SOL     MW 1132   0.672   1.320   3.084 -0.3254  0.1928 -0.2972
  284SOL     OW 1133   0.508   0.662   2.345 -0.3599 -0.0493  0.3709
  284SOL    HW1 1134   0.550   0.720   2.281 -1.2692  0.2256 -0.0908
  284SOL    HW2 1135   0.461   0.592   2.296  0.7118  0.7526  2.1271
  284SOL     MW 1136   0.507   0.660   2.330 -0.3385  0.0928  0.5417
  285SOL     OW 1137   0.844   0.943   2.850  0.3238 -0.1192 -0.1362
  285SOL    HW1 1138   0.894   0.990   2.775  0.3843 -0.6810  0.1438
  285SOL    HW2 1139   0.814   0.855   2.812  1.3533 -0.3138  0.0312
  285SOL     MW 1140   0.847   0.938   2.835  0.4676 -0.2190 -0.0771
  286SOL     OW 1141   1.085   1.482   2.596 -0.2119 -0.0754 -0.2450
  286SOL    HW1 1142   1.168   1.454   2.629  0.5977  2.6245 -0.1312
  286SOL    HW2 1143   1.095   1.578   2.604 -1.6826 -0.0393 -0.9920
  286SOL     MW 1144   1.097   1.491   2.601 -0.2991  0.2856 -0.3285
  287SOL     OW 1145   1.030   0.928   0.307  0.5048  0.6369  0.0865
  287SOL    HW1 1146   1.073   0.982   0.379  2.2521  1.2687  0.4915
  287SOL    HW2 1147   0.963   0.987   0.265  1.0723  1.1580  2.0486
  287SOL     MW 1148   1.027   0.943   0.311  0.8102  0.7890  0.3988
  288SOL     OW 1149   1.592   0.612   2.121  0.1433  0.3491  0.1635
  288SOL    HW1 1150   1.547   0.628   2.208 -0.2420  2.3084 -0.4528
  288SOL    HW2 1151   1.617   0.701   2.088 -1.3713  2.4142  1.4793
  288SOL     MW 1152   1.589   0.626   2.128 -0.1074  0.8801  0.2558
  289SOL     OW 1153   0.961   1.048   2.629  0.2477 -0.3839 -0.1514
  289SOL    HW1 1154   1.028   0.982   2.634  0.1844  3.8531 -3.1236
  289SOL    HW2 1155   0.902   1.015   2.563  0.8839  0.0086  0.3889
  289SOL     MW 1156   0.962   1.035   2.621  0.3233  0.2269 -0.4723
  290SOL     OW 1157   0.894   0.538   1.583 -0.0473  0.0251  0.1129
  290SOL    HW1 1158   0.948   0.517   1.508 -0.8395  2.6217  0.3263
  290SOL    HW2 1159   0.951   0.550   1.656 -1.1071 -0.4618 -1.2191
  290SOL     MW 1160   0.909   0.537   1.583 -0.2917  0.3035 -0.0347
  291SOL     OW 1161   0.151   0.335   0.150  0.5131 -0.4075  0.1036
  291SOL    HW1 1162   0.228   0.283   0.159  0.3686 -1.2570 -2.2538
  291SOL    HW2 1163   0.117   0.278   0.077  0.4826  2.3115  0.8939
  291SOL     MW 1164   0.156   0.321   0.142  0.4900 -0.1609 -0.1031
  292SOL     OW 1165   1.045   0.550   0.078  0.1940  0.5345  0.1376
  292SOL    HW1 1166   1.097   0.606   0.138  3.0455  0.4860  1.2495
  292SOL    HW2 1167   1.080   0.462   0.105  0.7764 -1.6250  1.6617
  292SOL     MW 1168   1.057   0.546   0.089  0.6471  0.2432  0.4854
  293SOL     OW 1169   0.225   0.148   2.461  0.3245  0.0356  0.1268
  293SOL    HW1 1170   0.157   0.096   2.413 -1.2977  0.9958  0.5012
  293SOL    HW2 1171   0.171   0.189   2.530  0.7076 -2.0515  0.3781
  293SOL     MW 1172   0.209   0.147   2.464  0.1610 -0.1131  0.2094
  294SOL     OW 1173   1.511   0.624   2.382 -0.0025 -0.0908  0.0227
  294SOL    HW1 1174   1.532   0.679   2.455 -3.7526 -0.1859  1.4742
  294SOL    HW2 1175   1.509   0.531   2.416 -1.7068  3.1597 -1.5801
  294SOL     MW 1176   1.514   0.619   2.396 -0.7222  0.3255  0.0027
  295SOL     OW 1177   0.909   0.676   2.492  0.2358  0.2238  0.3317
  295SOL    HW1 1178   0.864   0.607   2.432  3.1255  2.5605  0.7989
  295SOL    HW2 1179   0.851   0.675   2.570 -1.7124 -1.4145 -1.4156
  295SOL     MW 1180   0.895   0.667   2.494  0.3600  0.3159  0.1628
  296SOL     OW 1181   1.244   0.279   2.053  0.6839 -0.6116 -0.0401
  296SOL    HW1 1182   1.300   0.197   2.028  0.9203  0.1119 -0.3357
  296SOL    HW2 1183   1.244   0.287   2.153  0.2834 -0.6638  0.2842
  296SOL     MW 1184   1.251   0.269   2.063  0.6623 -0.5230 -0.0363
  297SOL     OW 1185   1.460   0.372   1.611  0.4690 -0.2721  0.0218
  297SOL    HW1 1186   1.501   0.441   1.664  2.4025 -1.5040 -0.8754
  297SOL    HW2 1187   1.505   0.294   1.648  2.5790  0.5804  0.6448
  297SOL     MW 1188   1.471   0.371   1.623  1.0025 -0.3221 -0.0144
  298SOL     OW 1189   1.637   0.897   2.033  0.1211  0.2506 -0.0499
  298SOL    HW1 1190   1.611   0.910   1.943 -2.1232  0.5296 -0.7307
  298SOL    HW2 1191   1.721   0.941   2.054  1.5944 -0.8526  0.6731
  298SOL     MW 1192   1.645   0.904   2.024  0.0194  0.1419 -0.0443
  299SOL     OW 1193   0.530   1.042   3.081  0.6568 -0.4988  0.2959
  299SOL    HW1 1194   0.588   1.118   3.085 -0.6281  0.8060  1.6660
  299SOL    HW2 1195   0.485   1.053   3.000 -0.8098 -0.4300  3.8465
  299SOL     MW 1196   0.531   1.054   3.071  0.2938 -0.3176  0.9452
  300SOL     OW 1197   1.235   1.176   2.495 -0.2532 -0.5893  0.1584
  300SOL    HW1 1198   1.161   1.120   2.492 -1.2334  1.6667  2.1659
  300SOL    HW2 1199   1.256   1.181   2.585 -0.4107 -3.0377 -3.0710
  300SOL     MW 1200   1.228   1.169   2.506 -0.4033 -0.6147 -0.0028
  301SOL     OW 1201   1.374   0.908   0.604 -0.2100  0.5501  0.7833
  301SOL    HW1 1202   1.389   0.967   0.673 -2.2038 -1.0901  0.7995
  301SOL    HW2 1203   1.335   0.833   0.642 -0.7084  0.7151  1.4564
  301SOL     MW 1204   1.371   0.906   0.618 -0.5388  0.3555  0.8742
  302SOL     OW 1205   0.070   1.492   2.047  0.0483  0.1435 -0.0222
  302SOL    HW1 1206   0.102   1.443   2.124  2.9423 -2.0991  0.5448
  302SOL    HW2 1207   0.055   1.581   2.086 -1.7315  0.4562  2.4654
  302SOL     MW 1208   0.072   1.497   2.062  0.1953 -0.1111  0.3808
  303SOL     OW 1209   0.379   1.684   2.588 -0.6343 -0.0698  0.6207
  303SOL    HW1 1210   0.338   1.681   2.502  0.3921  1.5052  0.8954
  303SOL    HW2 1211   0.330   1.759   2.622 -2.0442 -0.3576  0.1516
  303SOL     MW 1212   0.367   1.693   2.581 -0.6849  0.1001  0.5950
  304SOL     OW 1213   0.678   2.038   2.381  0.4420  0.0083 -0.6276
  304SOL    HW1 1214   0.716   2.122   2.353  0.9378  0.9376  1.5237
  304SOL    HW2 1215   0.746   1.975   2.377 -0.1497  0.5853  1.5598
  304SOL     MW 1216   0.692   2.041   2.377  0.4294  0.2070 -0.0551
  305SOL     OW 1217   1.077   0.567   0.538 -0.1932 -0.0625 -0.7345
  305SOL    HW1 1218   0.984   0.542   0.511  1.3321  2.7871  1.5319
  305SOL    HW2 1219   1.120   0.480   0.547  0.1405 -1.7151 -1.5190
  305SOL     MW 1220   1.071   0.552   0.536  0.0521  0.0955 -0.5389
  306SOL     OW 1221   1.233   1.491   0.303  0.2055 -0.1601 -0.1914
  306SOL    HW1 1222   1.254   1.401   0.310  0.3206  0.1011 -0.4210
  306SOL    HW2 1223   1.283   1.509   0.220 -0.5234  0.8736  0.2951
  306SOL     MW 1224   1.242   1.482   0.293  0.1245  0.0108 -0.1575
  307SOL     OW 1225   1.405   0.494   1.945 -0.2559  0.0771 -0.3969
  307SOL    HW1 1226   1.369   0.401   1.973 -2.3888 -0.0035  2.2272
  307SOL    HW2 1227   1.472   0.510   2.010  0.0937 -0.3811 -0.1248
  307SOL     MW 1228   1.409   0.484   1.957 -0.4912  0.0060 -0.0148
  308SOL     OW 1229   2.157   0.623   2.685  0.0154 -0.5795 -0.0397
  308SOL    HW1 1230   2.232   0.598   2.743  2.9347  0.1894  1.1987
  308SOL    HW2 1231   2.144   0.723   2.709 -0.0031 -0.2506  0.3500
  308SOL     MW 1232   2.165   0.633   2.696  0.3982 -0.4347  0.1751
  309SOL     OW 1233   0.445   0.369   0.391 -0.4643 -0.1938 -0.1414
  309SOL    HW1 1234   0.510   0.339   0.453 -0.4435  0.9178 -0.1649
  309SOL    HW2 1235   0.428   0.294   0.338 -1.0667  0.1245  1.3454
  309SOL     MW 1236   0.451   0.355   0.392 -0.5410 -0.0051  0.0517
  310SOL     OW 1237   0.449   0.577   1.928  0.2715  0.8034 -0.0318
  310SOL    HW1 1238   0.490   0.497   1.886  0.6608 -1.3942  2.3172
  310SOL    HW2 1239   0.497   0.654   1.902  1.3807  0.2890 -1.0218
  310SOL     MW 1240   0.461   0.576   1.919  0.4692  0.4456  0.1475
  311SOL     OW 1241   1.884   0.749   1.963 -0.1957 -0.1840 -0.2223
  311SOL    HW1 1242   1.885   0.755   2.060 -1.5536 -0.4806  1.6821
  311SOL    HW2 1243   1.941   0.664   1.953 -0.0138 -2.8459  1.6288
  311SOL     MW 1244   1.891   0.739   1.974 -0.3509 -0.5743  0.2732
  312SOL     OW 1245   1.670   2.487   0.066  0.0741  0.5746  0.6599
  312SOL    HW1 1246   1.712   2.509   0.149 -0.7378 -0.1221  1.4070
  312SOL    HW2 1247   1.593   2.544   0.067 -0.8471  2.2785 -3.6824
  312SOL     MW 1248   1.665   2.497   0.077 -0.1546  0.7075  0.1856
  313SOL     OW 1249   0.104   1.234   2.957 -0.5364  0.2164 -0.0022
  313SOL    HW1 1250   0.128   1.203   3.045 -1.6121 -1.1847 -0.8718
  313SOL    HW2 1251   0.189   1.284   2.931 -0.3311  1.7016  0.8770
  313SOL     MW 1252   0.119   1.236   2.965 -0.6512  0.2275 -0.0009
  314SOL     OW 1253   2.144   2.966   3.017  0.1421  0.1743  0.1403
  314SOL    HW1 1254   2.096   3.027   2.962  0.0181  0.2153  0.1954
  314SOL    HW2 1255   2.198   3.021   3.067 -0.4886  0.7306 -0.1126
  314SOL     MW 1256   2.144   2.982   3.016  0.0425  0.2531  0.1142
  315SOL     OW 1257   1.488   1.873   0.006 -0.3273 -0.4111  0.5977
  315SOL    HW1 1258   1.434   1.952   0.036 -0.5490  1.9862  1.8276
  315SOL    HW2 1259   1.545   1.908  -0.070  1.0320 -1.3627  1.6712
  315SOL     MW 1260   1.488   1.888   0.000 -0.1772 -0.2204  0.9016
  316SOL     OW 1261   1.263   0.633   2.678  0.5289  1.0443 -0.3609
  316SOL    HW1 1262   1.355   0.627   2.701 -0.0861  2.4328  1.4371
  316SOL    HW2 1263   1.234   0.667   2.765  1.1057  0.8484 -0.8054
  316SOL     MW 1264   1.271   0.637   2.692  0.5239  1.2017 -0.1823
  317SOL     OW 1265   0.696   1.478   2.572  0.6042  0.2736 -0.6491
  317SOL    HW1 1266   0.763   1.410   2.575 -0.3671  0.4858  0.0524
  317SOL    HW2 1267   0.701   1.531   2.483  0.9155  0.7516 -1.6671
  317SOL     MW 1268   0.706   1.476   2.561  0.5171  0.3647 -0.6908
  318SOL     OW 1269   1.352   0.407   2.934 -0.1279  0.4034  0.1356
  318SOL    HW1 1270   1.279   0.459   2.909 -1.2986  0.1582 -0.5663
  318SOL    HW2 1271   1.434   0.457   2.919  1.4565  0.8130  2.4800
  318SOL     MW 1272   1.353   0.420   2.929 -0.0733  0.4251  0.3523
  319SOL     OW 1273   0.791   0.412   2.846 -0.3864 -0.2854  0.3095
  319SOL    HW1 1274   0.726   0.357   2.799 -0.6957 -3.2376  2.7430
  319SOL    HW2 1275   0.753   0.421   2.933 -1.9779  1.9244  1.1638
  319SOL     MW 1276   0.777   0.406   2.851 -0.6372 -0.3833  0.7433
  320SOL     OW 1277   1.020   1.343   1.956 -0.0769 -0.0912 -0.7022
  320SOL    HW1 1278   1.091   1.302   2.010 -1.8806  0.3763 -1.7797
  320SOL    HW2 1279   1.058   1.422   1.921 -0.9263  1.1839  0.3184
  320SOL     MW 1280   1.034   1.348   1.959 -0.4269  0.1387 -0.7097
  321SOL     OW 1281   1.047   1.000   3.056 -0.4949 -0.5306  0.0422
  321SOL    HW1 1282   0.983   0.986   2.986 -0.4749  0.4957 -3.1567
  321SOL    HW2 1283   1.068   0.910   3.083 -2.0777 -0.2362  1.6247
  321SOL     MW 1284   1.042   0.986   3.051 -0.7011 -0.3563 -0.1710
  322SOL     OW 1285   1.184   0.813   1.711 -0.1056 -0.3375  0.1361
  322SOL    HW1 1286   1.270   0.774   1.707  1.1873 -1.2820  1.3696
  322SOL    HW2 1287   1.181   0.870   1.789 -1.2721  0.7372  0.2043
  322SOL     MW 1288   1.195   0.816   1.720 -0.0889 -0.3203  0.3079
  323SOL     OW 1289   1.203   1.541   1.860 -0.3324  0.2482  0.8085
  323SOL    HW1 1290   1.249   1.497   1.793  1.5407  0.7611  0.9295
  323SOL    HW2 1291   1.155   1.613   1.817  2.0624 -0.0989 -2.0072
  323SOL     MW 1292   1.203   1.545   1.846  0.2307  0.2701  0.4530
  324SOL     OW 1293   1.436   1.025   2.455 -0.1943  0.1116 -0.1125
  324SOL    HW1 1294   1.343   1.070   2.472 -2.2540 -0.8051 -1.4248
  324SOL    HW2 1295   1.497   1.099   2.473 -0.8709 -3.0763 -0.2657
  324SOL     MW 1296   1.432   1.041   2.460 -0.5554 -0.4300 -0.3059
  325SOL     OW 1297   1.096   0.522   2.905 -0.1709  0.0990  0.0016
  325SOL    HW1 1298   1.071   0.554   2.993  0.1977  1.0612 -0.1837
  325SOL    HW2 1299   1.016   0.508   2.848 -0.6394 -0.0372 -3.6062
  325SOL     MW 1300   1.082   0.524   2.909 -0.1841  0.2080 -0.4988
  326SOL     OW 1301   0.482   1.361   2.207  0.2073  0.1551 -0.1858
  326SOL    HW1 1302   0.552   1.335   2.148 -0.7223  2.3826  0.4105
  326SOL    HW2 1303   0.485   1.459   2.205 -0.6450  0.4483  2.3552
  326SOL     MW 1304   0.491   1.371   2.199 -0.0278  0.4877  0.2281
  327SOL     OW 1305   1.875   0.891   2.463 -0.2572 -0.2657  0.0475
  327SOL    HW1 1306   1.852   0.814   2.525 -1.5534  1.3384 -1.4008
  327SOL    HW2 1307   1.971   0.889   2.458  0.1174 -0.3498  1.1876
  327SOL     MW 1308   1.885   0.880   2.470 -0.3788 -0.0652  0.0068
  328SOL     OW 1309   0.188   1.330   2.252  0.1067  0.6401  0.3463
  328SOL    HW1 1310   0.153   1.256   2.196 -0.2302 -0.3725  0.3974
  328SOL    HW2 1311   0.284   1.337   2.242 -2.5741  0.3753  2.7403
  328SOL     MW 1312   0.196   1.321   2.244 -0.2914  0.4715  0.6689
  329SOL     OW 1313   0.111   0.116   1.423  0.0988  0.0666 -0.5429
  329SOL    HW1 1314   0.114   0.128   1.522  0.2216 -1.9936  1.7919
  329SOL    HW2 1315   0.195   0.144   1.385  2.9645 -2.4271 -0.8847
  329SOL     MW 1316   0.122   0.121   1.431  0.4931 -0.5343 -0.2799
  330SOL     OW 1317   0.322   3.075   2.069 -0.3077  0.7015 -0.2797
  330SOL    HW1 1318   0.361   3.076   2.158  1.6406  0.8681  0.2658
  330SOL    HW2 1319   0.256   3.011   2.085  4.6529  2.3044  0.8831
  330SOL     MW 1320   0.318   3.066   2.083  0.6039  0.9349 -0.0543
  331SOL     OW 1321   0.774   1.221   2.284 -0.3958  0.0103 -0.4604
  331SOL    HW1 1322   0.779   1.261   2.196 -0.1222 -0.0984 -0.9442
  331SOL    HW2 1323   0.804   1.292   2.346 -1.7519  0.6374 -1.5298
  331SOL     MW 1324   0.779   1.235   2.281 -0.5386  0.0787 -0.6653
  332SOL     OW 1325   1.345   1.691   2.980  0.2882  0.2341  0.2057
  332SOL    HW1 1326   1.355   1.701   2.888 -1.4254  1.1894  0.8302
  332SOL    HW2 1327   1.405   1.757   3.028  3.5791  0.1663  1.8053
  332SOL     MW 1328   1.354   1.701   2.974  0.4963  0.3512  0.4992
  333SOL     OW 1329   1.781   1.451   2.985  0.4904  0.1447  0.0685
  333SOL    HW1 1330   1.876   1.446   2.999  0.3760 -2.7784 -0.9530
  333SOL    HW2 1331   1.736   1.436   3.071  3.2727  0.0235 -2.6447
  333SOL     MW 1332   1.787   1.448   2.999  0.8424 -0.2570 -0.4242
  334SOL     OW 1333   1.375   3.082   2.606  0.0335 -0.0996  0.0349
  334SOL    HW1 1334   1.279   3.087   2.621 -1.0421  0.2006 -1.2470
  334SOL    HW2 1335   1.409   3.153   2.658 -0.0994  1.8340 -4.9090
  334SOL     MW 1336   1.367   3.092   2.615 -0.1259  0.1951 -0.7866
  335SOL     OW 1337   1.232   0.788   3.082  0.1208 -0.1830 -0.7698
  335SOL    HW1 1338   1.295   0.780   3.154  0.1944 -1.2697 -1.3747
  335SOL    HW2 1339   1.287   0.822   3.007  3.3867 -0.5425  1.8492
  335SOL     MW 1340   1.248   0.791   3.082  0.5614 -0.3738 -0.5041
  336SOL     OW 1341   0.931   1.060   1.910  0.8447 -0.0911 -0.6358
  336SOL    HW1 1342   0.927   1.149   1.932  1.0549  0.1146  1.2509
  336SOL    HW2 1343   1.023   1.035   1.926  0.6937  0.2561  3.2289
  336SOL     MW 1344   0.943   1.068   1.915  0.8525 -0.0182  0.1231
  337SOL     OW 1345   0.564   1.743   2.791  0.7951  0.1672  1.2420
  337SOL    HW1 1346   0.513   1.744   2.706  0.4868  3.9494 -1.6832
  337SOL    HW2 1347   0.653   1.717   2.763  0.2547  1.9203 -0.8616
  337SOL     MW 1348   0.569   1.739   2.776  0.6832  0.8975  0.5785
  338SOL     OW 1349   1.120   0.844   2.548  0.0684 -0.7755  0.0079
  338SOL    HW1 1350   1.050   0.780   2.525  0.2299 -0.1382  0.9766
  338SOL    HW2 1351   1.187   0.787   2.583  2.9630  1.5829 -0.4762
  338SOL     MW 1352   1.119   0.828   2.550  0.4716 -0.3802  0.0719
  339SOL     OW 1353   1.556   1.051   1.796  0.0293 -0.5240 -0.2320
  339SOL    HW1 1354   1.480   1.050   1.740 -2.0802 -0.2523 -2.1889
  339SOL    HW2 1355   1.551   1.135   1.847 -0.5722  1.8261 -0.0385
  339SOL     MW 1356   1.545   1.062   1.795 -0.3284 -0.1781 -0.4647
  340SOL     OW 1357   1.387   1.490   0.067 -0.1833 -0.1823 -0.2363
  340SOL    HW1 1358   1.378   1.568   0.016  0.2940 -0.7211 -0.7699
  340SOL    HW2 1359   1.480   1.475   0.090  0.0094 -0.4178 -0.7561
  340SOL     MW 1360   1.398   1.499   0.063 -0.0949 -0.2845 -0.3753
  341SOL     OW 1361   0.131   1.357   2.672 -0.2526  0.3820  0.2501
  341SOL    HW1 1362   0.222   1.357   2.646 -0.9178 -2.4485  0.1156
  341SOL    HW2 1363   0.071   1.336   2.599 -0.0502  1.1818  2.6526
  341SOL     MW 1364   0.135   1.354   2.659 -0.3137  0.1141  0.5493
  342SOL     OW 1365   1.427   0.304   0.092 -0.8644 -0.0555  0.4814
  342SOL    HW1 1366   1.472   0.385   0.129  2.4055 -2.0498 -2.5557
  342SOL    HW2 1367   1.409   0.336   0.003  2.6887 -1.8671 -1.1595
  342SOL     MW 1368   1.431   0.319   0.085  0.0358 -0.5576 -0.1358
  343SOL     OW 1369   0.211   0.316   2.218 -0.1736  0.0944 -0.4863
  343SOL    HW1 1370   0.247   0.259   2.289  0.1222 -1.9140  0.8329
  343SOL    HW2 1371   0.167   0.247   2.163  0.9265 -0.0445 -0.9472
  343SOL     MW 1372   0.210   0.299   2.220  0.0106 -0.1889 -0.3731
  344SOL     OW 1373   1.674   2.073   0.216 -0.1135  0.0453 -0.2278
  344SOL    HW1 1374   1.681   2.131   0.140  0.0159 -1.1043 -2.2051
  344SOL    HW2 1375   1.620   1.995   0.184 -0.9268  1.4853 -0.5074
  344SOL     MW 1376   1.668   2.071   0.202 -0.2038  0.0836 -0.5256
  345SOL     OW 1377   0.716   1.643   2.321  0.7856  0.0836 -0.0100
  345SOL    HW1 1378   0.633   1.659   2.278  0.7773  0.4839 -4.0508
  345SOL    HW2 1379   0.765   1.580   2.265 -2.1964  0.3891 -0.1555
  345SOL     MW 1380   0.711   1.637   2.308  0.3911  0.1768 -0.5623
  346SOL     OW 1381   1.717   1.148   0.041 -0.0458 -0.3730  0.0501
  346SOL    HW1 1382   1.815   1.160   0.044  0.4905 -3.3322 -2.0499
  346SOL    HW2 1383   1.698   1.074   0.099  0.1352  1.5116  2.0161
  346SOL     MW 1384   1.728   1.140   0.049  0.0488 -0.5148  0.0325
  347SOL     OW 1385   1.279   0.735   2.283  0.3139  0.0248 -0.2938
  347SOL    HW1 1386   1.362   0.696   2.295 -0.1342 -0.1088 -2.0423
  347SOL    HW2 1387   1.250   0.765   2.373  0.4711  4.0185  0.2203
  347SOL     MW 1388   1.286   0.734   2.297  0.2755  0.5341 -0.4566
  348SOL     OW 1389   1.326   2.580   1.870 -0.2082 -0.1196 -0.0985
  348SOL    HW1 1390   1.378   2.516   1.922  1.1527 -1.7756  1.5661
  348SOL    HW2 1391   1.354   2.666   1.903  2.1353  0.4402 -1.8748
  348SOL     MW 1392   1.336   2.583   1.881  0.2806 -0.2642 -0.1132
  349SOL     OW 1393   1.430   0.237   2.721 -0.1280 -0.0299 -0.2885
  349SOL    HW1 1394   1.382   0.278   2.793 -0.4644  0.5529  1.7804
  349SOL    HW2 1395   1.519   0.210   2.753 -0.2815 -0.2142 -0.4921
  349SOL     MW 1396   1.436   0.239   2.735 -0.1926  0.0227 -0.0424
  350SOL     OW 1397   1.867   0.651   2.618  0.3519  0.0692  0.1018
  350SOL    HW1 1398   1.817   0.573   2.581 -0.9794 -2.6863  2.0001
  350SOL    HW2 1399   1.952   0.615   2.627 -1.5013  1.0298 -2.0475
  350SOL     MW 1400   1.871   0.636   2.614 -0.0682 -0.1676  0.0687
  351SOL     OW 1401   0.127   0.970   1.611 -0.2284 -0.9107 -0.4203
  351SOL    HW1 1402   0.055   1.002   1.666  2.2391  1.4419  1.2549
  351SOL    HW2 1403   0.173   1.053   1.596  1.1568 -0.1649 -1.3815
  351SOL     MW 1404   0.124   0.985   1.616  0.2799 -0.5019 -0.3261
  352SOL     OW 1405   0.819   1.645   2.754  0.4820 -0.4445 -0.1571
  352SOL    HW1 1406   0.874   1.599   2.826  1.4025  0.2101  0.4703
  352SOL    HW2 1407   0.768   1.580   2.701  2.2135  0.2138 -1.7825
  352SOL     MW 1408   0.820   1.630   2.757  0.8319 -0.2713 -0.2888
  353SOL     OW 1409   3.036   2.456   2.674  0.8980  0.4753  0.1048
  353SOL    HW1 1410   3.134   2.463   2.662  3.0978  2.4766  0.5313
  353SOL    HW2 1411   3.000   2.533   2.635 -2.6871 -0.6662  1.8914
  353SOL     MW 1412   3.044   2.467   2.667  0.7153  0.5888  0.3968
  354SOL     OW 1413   0.379   2.459   0.841  0.0810  0.4039 -0.2842
  354SOL    HW1 1414   0.405   2.430   0.931 -0.5710  2.0419  0.7756
  354SOL    HW2 1415   0.310   2.400   0.797  1.5063  1.6942  1.3202
  354SOL     MW 1416   0.373   2.448   0.847  0.1830  0.7902  0.0673
  355SOL     OW 1417   0.037   2.192   0.412 -0.1177  0.5642  0.2699
  355SOL    HW1 1418  -0.040   2.134   0.420 -0.2235 -0.3682  0.6988
  355SOL    HW2 1419   0.006   2.246   0.483  0.9256  0.3653  1.8137
  355SOL     MW 1420   0.023   2.191   0.422  0.0060  0.4149  0.5302
  356SOL     OW 1421   0.870   2.875   1.058  0.5347  0.0292  0.3109
  356SOL    HW1 1422   0.900   2.864   0.961  1.6306 -2.7938 -0.8446
  356SOL    HW2 1423   0.778   2.839   1.056  2.7729  1.7905  3.1747
  356SOL     MW 1424   0.862   2.869   1.045  0.9746 -0.1109  0.5363
  357SOL     OW 1425   1.756   2.925   0.354  0.1862  0.3463 -0.0611
  357SOL    HW1 1426   1.689   2.859   0.402 -1.1555 -1.5349  0.4186
  357SOL    HW2 1427   1.841   2.891   0.327 -2.0727  1.3455  1.2011
  357SOL     MW 1428   1.759   2.912   0.357 -0.2889  0.2300  0.1687
  358SOL     OW 1429   0.387   0.101   1.054  0.3643 -0.4960  1.2456
  358SOL    HW1 1430   0.459   0.037   1.052 -1.4110 -1.6310  0.8148
  358SOL    HW2 1431   0.373   0.129   0.963  0.4164 -0.4840  1.5186
  358SOL     MW 1432   0.395   0.097   1.042  0.1370 -0.6442  1.2248
  359SOL     OW 1433   0.901   2.881   1.783 -0.5026 -0.4070  0.3876
  359SOL    HW1 1434   0.912   2.808   1.852 -1.1892  0.2481 -0.1854
  359SOL    HW2 1435   0.972   2.876   1.725 -0.0939 -0.0747  1.7932
  359SOL     MW 1436   0.912   2.871   1.784 -0.5393 -0.2767  0.4975
  360SOL     OW 1437   0.597   2.782   1.028 -0.1471  0.0094  0.0556
  360SOL    HW1 1438   0.613   2.751   0.934 -0.1934 -0.9508 -0.5450
  360SOL    HW2 1439   0.572   2.705   1.086 -0.3417  0.7153  1.4061
  360SOL     MW 1440   0.596   2.767   1.023 -0.1789 -0.0242  0.1546
  361SOL     OW 1441   0.215   2.698   1.320  0.1517  0.0260  0.3583
  361SOL    HW1 1442   0.204   2.764   1.385 -0.1567 -0.7628  0.8176
  361SOL    HW2 1443   0.306   2.682   1.343  2.3870  1.1830  0.1747
  361SOL     MW 1444   0.226   2.705   1.331  0.4060  0.0746  0.3947
  362SOL     OW 1445   1.462   2.418   0.653 -0.2196  0.2389  0.5431
  362SOL    HW1 1446   1.478   2.327   0.692 -2.8022  1.6743  0.3324
  362SOL    HW2 1447   1.484   2.484   0.720  0.4499 -0.3297 -0.6113
  362SOL     MW 1448   1.467   2.415   0.667 -0.4720  0.3533  0.3630
  363SOL     OW 1449   0.307   3.039   0.695  0.0179  0.4706 -0.6354
  363SOL    HW1 1450   0.335   3.005   0.784  1.6175 -0.5567 -1.4228
  363SOL    HW2 1451   0.211   3.057   0.691  0.6899 -0.4060 -1.3774
  363SOL     MW 1452   0.298   3.036   0.706  0.3176  0.2194 -0.8372
  364SOL     OW 1453   0.759   0.190   0.244 -0.1451  0.8483 -0.1067
  364SOL    HW1 1454   0.695   0.125   0.273 -0.8018 -1.6455  2.8950
  364SOL    HW2 1455   0.706   0.256   0.194  0.2352 -1.0619 -2.6956
  364SOL     MW 1456   0.744   0.190   0.242 -0.1816  0.2672 -0.0523
  365SOL     OW 1457   0.952   1.942   1.104 -0.1833  0.0590 -0.0989
  365SOL    HW1 1458   0.914   2.029   1.072 -0.7852  0.6783 -0.9138
  365SOL    HW2 1459   0.898   1.873   1.058  0.1396  0.8146 -3.2319
  365SOL     MW 1460   0.940   1.945   1.094 -0.2201  0.2404 -0.6198
  366SOL     OW 1461   2.877   2.617   1.008  0.0377 -0.0029  0.5174
  366SOL    HW1 1462   2.963   2.640   1.041  1.0256  1.3376  2.3292
  366SOL    HW2 1463   2.903   2.616   0.910  0.0513  0.9335 -1.3429
  366SOL     MW 1464   2.892   2.620   0.999  0.1698  0.2975  0.5110
  367SOL     OW 1465   1.229   2.812   0.891 -0.1209  0.2345 -0.0916
  367SOL    HW1 1466   1.144   2.847   0.889 -0.6994 -0.3842  1.8176
  367SOL    HW2 1467   1.228   2.755   0.812 -1.0293  1.2953 -0.3404
  367SOL     MW 1468   1.218   2.809   0.880 -0.3171  0.2928  0.1275
  368SOL     OW 1469   1.674   0.449   0.696 -0.1048 -0.3282 -0.3858
  368SOL    HW1 1470   1.755   0.395   0.687 -1.4676  0.2481  1.0887
  368SOL    HW2 1471   1.695   0.539   0.669  2.2581  2.0008  0.7064
  368SOL     MW 1472   1.687   0.454   0.691  0.0272  0.0551 -0.0472
  369SOL     OW 1473   0.171   2.452   1.684  0.1550 -0.1863 -0.3857
  369SOL    HW1 1474   0.233   2.447   1.758  0.5089 -0.7724 -0.2145
  369SOL    HW2 1475   0.124   2.529   1.709  2.4810  0.0967 -0.5705
  369SOL     MW 1476   0.173   2.461   1.697  0.5086 -0.2263 -0.3875
  370SOL     OW 1477   0.755   0.071   1.006 -0.1421 -0.0690  0.4166
  370SOL    HW1 1478   0.792   0.160   0.999  1.6161  1.4992 -0.4866
  370SOL    HW2 1479   0.827   0.009   1.029  3.0959 -0.3714 -2.7083
  370SOL     MW 1480   0.769   0.074   1.008  0.5171  0.0980 -0.1149
  371SOL     OW 1481   1.342   2.980   1.508 -0.1360  0.8557  0.1115
  371SOL    HW1 1482   1.299   2.905   1.468  0.1273  0.4281 -0.4464
  371SOL    HW2 1483   1.339   3.042   1.439 -2.2074 -1.0719  0.6225
  371SOL     MW 1484   1.336   2.978   1.494 -0.3746  0.5450  0.1053
  372SOL     OW 1485   0.806   2.315   0.472 -0.7924  0.3176  0.2834
  372SOL    HW1 1486   0.781   2.222   0.485  0.5367  1.1215  1.6971
  372SOL    HW2 1487   0.803   2.335   0.374 -1.0109 -0.8508 -1.0872
  372SOL     MW 1488   0.802   2.305   0.461 -0.6459  0.2695  0.2891
  373SOL     OW 1489   2.789   3.015   1.392  0.1512  0.4574 -0.4158
  373SOL    HW1 1490   2.859   2.956   1.375 -0.4060  0.0551 -0.7274
  373SOL    HW2 1491   2.808   3.087   1.327 -0.8248  1.1075  1.3531
  373SOL     MW 1492   2.801   3.017   1.381 -0.0511  0.4901 -0.2235
  374SOL     OW 1493   1.543   0.523   0.217 -0.0903  0.2245 -0.5786
  374SOL    HW1 1494   1.622   0.571   0.223 -0.8948 -1.5716  0.8614
  374SOL    HW2 1495   1.519   0.509   0.308  1.8501  0.0110 -1.7918
  374SOL     MW 1496   1.550   0.528   0.230  0.0596 -0.0407 -0.5487
  375SOL     OW 1497   1.129   2.084   2.281  0.0634 -0.3184 -0.0798
  375SOL    HW1 1498   1.167   2.094   2.369 -2.4680  0.0953 -1.7066
  375SOL    HW2 1499   1.118   1.989   2.274 -3.3376  0.0971  1.7103
  375SOL     MW 1500   1.133   2.072   2.292 -0.7193 -0.2090 -0.0583
  376SOL     OW 1501   0.706   2.512   0.048 -0.0733  0.3493  0.0379
  376SOL    HW1 1502   0.751   2.451   0.101 -0.8791  0.9935  0.6623
  376SOL    HW2 1503   0.666   2.450  -0.024 -0.3235  0.4158  0.0258
  376SOL     MW 1504   0.707   2.496   0.045 -0.2127  0.4431  0.1187
  377SOL     OW 1505   1.314   1.992   0.853 -0.0192  0.1561 -0.3328
  377SOL    HW1 1506   1.238   1.969   0.797 -0.2423  0.2484  0.3068
  377SOL    HW2 1507   1.294   1.950   0.940 -1.9012  0.9249 -0.2244
  377SOL     MW 1508   1.302   1.983   0.857 -0.2969  0.2697 -0.2341
  378SOL     OW 1509   1.042   2.818   1.569 -0.2865  0.0209 -0.4459
  378SOL    HW1 1510   1.010   2.725   1.565  0.3174 -0.7375 -0.6891
  378SOL    HW2 1511   0.978   2.858   1.507 -1.2226 -0.3239  1.0227
  378SOL     MW 1512   1.029   2.811   1.560 -0.3304 -0.1247 -0.2842
  379SOL     OW 1513   1.129   1.809   2.280  0.3820 -0.3329  0.2607
  379SOL    HW1 1514   1.034   1.817   2.307 -1.0863  0.8580  0.1430
  379SOL    HW2 1515   1.120   1.724   2.241 -0.1961 -0.3923  0.5651
  379SOL     MW 1516   1.115   1.799   2.279  0.1120 -0.1836  0.2854
  380SOL     OW 1517   0.860   0.051   1.544 -0.5998  0.3222  0.0226
  380SOL    HW1 1518   0.895   0.042   1.455  3.4359  1.1831 -1.0046
  380SOL    HW2 1519   0.934   0.099   1.591  0.4174  1.2334  3.0543
  380SOL     MW 1520   0.874   0.056   1.539  0.0669  0.5560  0.2871
  381SOL     OW 1521   0.803   1.978   0.776 -0.0094  0.4201 -0.3684
  381SOL    HW1 1522   0.900   1.968   0.774  0.1139 -0.5774 -0.3460
  381SOL    HW2 1523   0.797   2.044   0.842  2.7612  1.9799 -0.3329
  381SOL     MW 1524   0.815   1.986   0.784  0.3724  0.4943 -0.3608
  382SOL     OW 1525   0.703   0.069   0.727 -0.3505  0.5491 -0.2222
  382SOL    HW1 1526   0.709   0.086   0.822 -1.3884 -2.8233  3.4366
  382SOL    HW2 1527   0.672  -0.023   0.716  1.2861  0.3454 -2.2110
  382SOL     MW 1528   0.700   0.059   0.738 -0.2715  0.0772 -0.0018
  383SOL     OW 1529   0.468   0.038   0.350  0.1099 -0.2647  0.3320
  383SOL    HW1 1530   0.520  -0.009   0.289  2.8577  0.4139 -0.2858
  383SOL    HW2 1531   0.450  -0.017   0.422  1.6951 -1.0831 -0.7070
  383SOL     MW 1532   0.472   0.024   0.351  0.6816 -0.2831  0.1134
  384SOL     OW 1533   0.647   2.913   0.643 -0.3067  0.4072 -0.7324
  384SOL    HW1 1534   0.683   2.829   0.684 -0.2595 -3.4160  1.9022
  384SOL    HW2 1535   0.565   2.895   0.604  1.1989  0.1044 -2.0189
  384SOL     MW 1536   0.641   2.899   0.643 -0.1018 -0.1372 -0.5545
  385SOL     OW 1537   1.324   2.063   1.500  0.1668 -0.0724 -0.1664
  385SOL    HW1 1538   1.395   2.072   1.565  0.3390 -0.5792 -0.7362
  385SOL    HW2 1539   1.268   1.984   1.526  2.4973  1.6064 -0.2496
  385SOL     MW 1540   1.326   2.054   1.512  0.4970  0.0822 -0.2525
  386SOL     OW 1541   1.389   0.348   0.826 -0.4060  0.1406  0.1134
  386SOL    HW1 1542   1.299   0.338   0.794  2.2119  2.5857  1.0614
  386SOL    HW2 1543   1.386   0.374   0.921 -2.0186  1.9377  0.8741
  386SOL     MW 1544   1.377   0.350   0.834 -0.2734  0.7003  0.3388
  387SOL     OW 1545   0.831   2.214   1.447  0.2163  0.2073 -0.0643
  387SOL    HW1 1546   0.913   2.255   1.415  1.8506 -3.0114 -1.2829
  387SOL    HW2 1547   0.849   2.120   1.435 -1.7970 -0.6840  1.5992
  387SOL     MW 1548   0.844   2.207   1.441  0.1663 -0.3350 -0.0056
  388SOL     OW 1549   1.566   2.789   1.233 -0.1345 -0.2126 -0.3778
  388SOL    HW1 1550   1.483   2.744   1.225  0.4104 -1.0937  2.1359
  388SOL    HW2 1551   1.631   2.720   1.204  0.4369 -1.2321  1.3414
  388SOL     MW 1552   1.563   2.774   1.228  0.0128 -0.4633  0.1807
  389SOL     OW 1553   0.354   0.031   3.039 -0.3014 -0.3683  0.0072
  389SOL    HW1 1554   0.444   0.035   3.005 -0.9647 -0.8755  0.5248
  389SOL    HW2 1555   0.301   0.047   2.969  3.5169 -2.2180  2.4709
  389SOL     MW 1556   0.359   0.034   3.025  0.1148 -0.6793  0.4006
  390SOL     OW 1557   1.281   0.057   0.627  0.0929  0.3646  0.5368
  390SOL    HW1 1558   1.369   0.065   0.594  0.4548  0.9974  2.6517
  390SOL    HW2 1559   1.300   0.028   0.718  3.0910  1.1699  0.5252
  390SOL     MW 1560   1.295   0.054   0.635  0.5362  0.5543  0.8143
  391SOL     OW 1561   0.278   2.249   1.447 -0.3333 -0.4251 -0.3444
  391SOL    HW1 1562   0.220   2.171   1.457 -0.9279 -1.6062 -1.3016
  391SOL    HW2 1563   0.217   2.322   1.420  0.3002  0.2836 -1.6358
  391SOL     MW 1564   0.262   2.248   1.445 -0.3281 -0.4875 -0.6411
  392SOL     OW 1565   2.068   2.144   0.365  0.3435 -0.2794  0.0629
  392SOL    HW1 1566   2.079   2.208   0.436  1.6214 -0.9151  1.4441
  392SOL    HW2 1567   2.022   2.066   0.392 -2.3739 -0.2416  2.1167
  392SOL     MW 1568   2.063   2.142   0.378  0.1536 -0.3583  0.5161
  393SOL     OW 1569   0.182   3.022   2.771 -0.6603  0.6525 -0.9828
  393SOL    HW1 1570   0.244   3.092   2.767 -0.8253  1.5726 -2.8869
  393SOL    HW2 1571   0.104   3.042   2.708 -2.3669  0.8932 -0.3269
  393SOL     MW 1572   0.180   3.034   2.762 -0.9072  0.8056 -1.1475
  394SOL     OW 1573   0.872   1.691   1.502 -0.3077 -0.5762  0.2078
  394SOL    HW1 1574   0.807   1.723   1.569 -0.5989  2.0469  0.3189
  394SOL    HW2 1575   0.906   1.764   1.451  1.2217  1.6615  0.5338
  394SOL     MW 1576   0.868   1.705   1.504 -0.1443  0.0652  0.2655
  395SOL     OW 1577   0.960   2.863   2.637  0.6534  0.3887  0.4849
  395SOL    HW1 1578   0.995   2.952   2.666  2.2701  1.4823 -0.1750
  395SOL    HW2 1579   1.043   2.822   2.596 -0.0279  0.0988 -1.1814
  395SOL     MW 1580   0.976   2.869   2.635  0.7768  0.4948  0.1779
  396SOL     OW 1581   0.877   1.850   2.372 -0.1065  0.1086 -0.2094
  396SOL    HW1 1582   0.869   1.864   2.469 -1.1576  0.9705 -0.9740
  396SOL    HW2 1583   0.816   1.779   2.348 -0.7531  3.6547  0.9190
  396SOL     MW 1584   0.868   1.843   2.382 -0.3305  0.6902 -0.1614
  397SOL     OW 1585   1.044   2.375   1.348  0.5847 -0.0579 -0.7261
  397SOL    HW1 1586   1.066   2.433   1.274 -2.0016 -1.4985 -2.8245
  397SOL    HW2 1587   1.128   2.359   1.401  0.2778 -0.3574  0.3147
  397SOL     MW 1588   1.058   2.380   1.345  0.2029 -0.2875 -0.8657
  398SOL     OW 1589   0.644   2.660   0.787 -0.4922 -0.4391 -0.1018
  398SOL    HW1 1590   0.564   2.634   0.747  2.6232  1.6614 -0.2219
  398SOL    HW2 1591   0.714   2.597   0.757  0.4711  0.5024  2.3521
  398SOL     MW 1592   0.642   2.648   0.778  0.0459 -0.0377  0.2062
  399SOL     OW 1593   0.287   2.079   0.456 -0.3675  0.2215 -0.3335
  399SOL    HW1 1594   0.194   2.115   0.437 -1.9841 -1.2677  0.6946
  399SOL    HW2 1595   0.337   2.107   0.376  1.0629  1.2709  0.6926
  399SOL     MW 1596   0.281   2.087   0.443 -0.3921  0.1635 -0.0624
  400SOL     OW 1597   0.552   1.804   0.181  0.3060 -0.7647 -0.5962
  400SOL    HW1 1598   0.511   1.884   0.207 -0.4377 -2.2640  0.5714
  400SOL    HW2 1599   0.540   1.751   0.253  0.4530 -0.7440 -4.2303
  400SOL     MW 1600   0.545   1.808   0.194  0.2273 -0.9598 -0.9216
  401SOL     OW 1601   0.918   2.071   0.156 -0.2040 -0.3111 -0.6620
  401SOL    HW1 1602   0.928   1.972   0.143  0.2712 -1.4145 -1.4135
  401SOL    HW2 1603   0.985   2.094   0.221  3.0516  1.0602 -0.0847
  401SOL     MW 1604   0.928   2.061   0.163  0.2883 -0.2758 -0.6850
  402SOL     OW 1605   0.676   2.944   1.671 -0.1722 -0.4777 -0.2251
  402SOL    HW1 1606   0.756   2.904   1.716  0.3746 -0.1734  1.8646
  402SOL    HW2 1607   0.708   3.031   1.655 -1.5259 -1.2208  1.7888
  402SOL     MW 1608   0.691   2.950   1.675 -0.2787 -0.5356  0.3164
  403SOL     OW 1609   0.062   0.399   0.403  0.3194  0.5723 -0.2526
  403SOL    HW1 1610   0.137   0.434   0.447 -1.1264 -3.1115  1.4031
  403SOL    HW2 1611   0.094   0.380   0.318  1.3767 -0.9068  2.8791
  403SOL     MW 1612   0.076   0.401   0.398  0.2681 -0.1089  0.3791
  404SOL     OW 1613   0.977   2.834   0.817 -0.0743 -0.6341  0.2027
  404SOL    HW1 1614   1.024   2.779   0.755 -1.6734 -0.4450  0.5562
  404SOL    HW2 1615   0.945   2.909   0.765 -0.6463  0.0509  0.8737
  404SOL     MW 1616   0.979   2.837   0.802 -0.3608 -0.5188  0.3379
  405SOL     OW 1617   0.522   2.411   1.534 -0.0318 -0.5223 -0.5653
  405SOL    HW1 1618   0.504   2.492   1.490 -0.6413  0.4523  2.8546
  405SOL    HW2 1619   0.463   2.341   1.489 -0.7719  1.0242  1.3475
  405SOL     MW 1620   0.512   2.412   1.522 -0.2099 -0.1897  0.1383
  406SOL     OW 1621   0.354   2.354   1.107 -0.0576  0.4336  0.0504
  406SOL    HW1 1622   0.256   2.337   1.091 -2.7430 -1.6270 -0.8757
  406SOL    HW2 1623   0.386   2.273   1.149  0.0016  2.2226 -0.9999
  406SOL     MW 1624   0.346   2.341   1.110 -0.4041  0.3978 -0.2104
  407SOL     OW 1625   0.034   2.755   1.105 -0.2968  0.4612  0.6344
  407SOL    HW1 1626   0.104   2.741   1.164  0.0631  0.0548  0.3621
  407SOL    HW2 1627   0.072   2.723   1.014  0.1061  0.5914 -2.3132
  407SOL     MW 1628   0.048   2.749   1.100 -0.1961  0.4248  0.2096
  408SOL     OW 1629   2.075   2.060   0.685 -0.1038 -0.1676  0.4098
  408SOL    HW1 1630   2.048   2.098   0.769 -2.2702 -0.7359 -0.1501
  408SOL    HW2 1631   2.037   1.975   0.680  1.2347  3.1989 -0.6291
  408SOL     MW 1632   2.067   2.054   0.695 -0.2130  0.2016  0.1988
  409SOL     OW 1633   1.381   0.012   0.904 -0.3083 -0.5807  0.0883
  409SOL    HW1 1634   1.455   0.067   0.885  0.2210 -1.3262 -1.7041
  409SOL    HW2 1635   1.421  -0.056   0.959  2.3123 -2.3308 -0.6083
  409SOL     MW 1636   1.396   0.010   0.909  0.1073 -0.9100 -0.2401
  410SOL     OW 1637   1.114   2.410   1.053  0.7777 -0.5515 -0.4293
  410SOL    HW1 1638   1.022   2.406   1.019 -0.8342 -1.2390 -1.4463
  410SOL    HW2 1639   1.163   2.339   1.014 -2.7644 -2.1507  0.7844
  410SOL     MW 1640   1.108   2.400   1.044  0.0977 -0.8532 -0.4034
  411SOL     OW 1641   1.975   0.041   2.853 -0.2764 -0.4261 -0.0867
  411SOL    HW1 1642   1.905  -0.003   2.802  1.7809  1.1560  1.1650
  411SOL    HW2 1643   1.924   0.077   2.927 -1.0063  3.0115  0.5130
  411SOL     MW 1644   1.959   0.040   2.856 -0.1012  0.2362  0.1576
  412SOL     OW 1645   1.050   2.234   0.587  0.2095 -0.1993  0.3304
  412SOL    HW1 1646   1.112   2.295   0.630 -3.5402  0.5050 -0.8859
  412SOL    HW2 1647   0.978   2.291   0.563  1.5480 -0.4258  0.7815
  412SOL     MW 1648   1.048   2.250   0.590 -0.1086 -0.1363  0.2294
  413SOL     OW 1649   0.539   2.765   0.028  0.4513  0.0516 -0.3935
  413SOL    HW1 1650   0.604   2.698   0.016  0.5025  0.8594 -0.7895
  413SOL    HW2 1651   0.567   2.815  -0.051 -1.3443 -2.9151  0.1201
  413SOL     MW 1652   0.551   2.763   0.016  0.2211 -0.2333 -0.3780
  414SOL     OW 1653   1.905   2.987   1.081 -0.3117 -0.1206  0.3742
  414SOL    HW1 1654   1.842   2.984   1.009 -1.3412  0.1780  0.0071
  414SOL    HW2 1655   1.951   2.903   1.071 -1.1220  1.6703 -1.2455
  414SOL     MW 1656   1.903   2.975   1.070 -0.5545  0.1551  0.1121
  415SOL     OW 1657   1.736   2.575   1.135  0.0980 -0.0873  0.0335
  415SOL    HW1 1658   1.698   2.500   1.193 -2.5223 -1.0768 -0.0821
  415SOL    HW2 1659   1.823   2.603   1.173  1.6631  0.5855 -1.9819
  415SOL     MW 1660   1.743   2.569   1.147 -0.0413 -0.1291 -0.2476
  416SOL     OW 1661   0.583   1.931   1.361  0.3672  0.3164  0.4723
  416SOL    HW1 1662   0.540   1.997   1.303  1.0372 -0.5387 -0.4206
  416SOL    HW2 1663   0.558   1.844   1.327 -2.2104 -0.8458  0.1235
  416SOL     MW 1664   0.574   1.928   1.349  0.1155  0.0502  0.3085
  417SOL     OW 1665   0.976   3.017   2.033 -0.4160 -0.0384 -0.1132
  417SOL    HW1 1666   0.890   3.016   2.080 -0.5610  0.0561  0.8163
  417SOL    HW2 1667   0.955   2.980   1.943  1.4362 -1.6025 -2.1322
  417SOL     MW 1668   0.962   3.012   2.027 -0.1907 -0.2323 -0.2570
  418SOL     OW 1669   0.623   2.988   0.183 -0.8916 -0.7104 -0.0037
  418SOL    HW1 1670   0.697   2.987   0.116 -0.0173  0.9618 -2.6196
  418SOL    HW2 1671   0.586   2.908   0.151  1.5980  2.6056 -0.7109
  418SOL     MW 1672   0.628   2.977   0.170 -0.4478 -0.0523 -0.4421
  419SOL     OW 1673   0.464   2.630   1.392 -0.5248  0.1948  0.2679
  419SOL    HW1 1674   0.518   2.715   1.400 -0.2343  0.6032  1.9135
  419SOL    HW2 1675   0.496   2.592   1.305 -2.0032 -3.2587 -0.4484
  419SOL     MW 1676   0.475   2.636   1.382 -0.6815 -0.2070  0.3905
  420SOL     OW 1677   0.792   2.158   0.984  0.5826  0.4315  0.0586
  420SOL    HW1 1678   0.730   2.152   1.057  3.0842  2.2476 -0.2459
  420SOL    HW2 1679   0.806   2.248   0.960  0.3264 -0.8511  0.0822
  420SOL     MW 1680   0.786   2.169   0.990  0.8788  0.5019  0.0215
  421SOL     OW 1681   2.935   0.074   0.055 -0.1724 -0.3377 -0.0903
  421SOL    HW1 1682   2.937   0.054  -0.038  1.9083  0.6299  0.3716
  421SOL    HW2 1683   2.945  -0.021   0.086  1.4685 -2.3107  0.6083
  421SOL     MW 1684   2.936   0.059   0.046  0.3186 -0.4703  0.0628
  422SOL     OW 1685   0.858   2.424   0.946  0.6624 -0.4727 -0.6380
  422SOL    HW1 1686   0.791   2.483   0.973 -1.4518 -2.3234 -1.4285
  422SOL    HW2 1687   0.870   2.436   0.853 -0.2064  2.6406 -0.3236
  422SOL     MW 1688   0.851   2.434   0.937  0.2688 -0.3061 -0.7008
  423SOL     OW 1689   1.508   0.146   0.501  0.2337  0.0445 -0.3669
  423SOL    HW1 1690   1.533   0.096   0.424 -1.0639 -0.5091  1.5659
  423SOL    HW2 1691   1.500   0.243   0.477  1.7122  0.9391 -2.8934
  423SOL     MW 1692   1.510   0.152   0.488  0.2575  0.0895 -0.4452
  424SOL     OW 1693   0.647   2.227   1.229 -0.1820  0.0985 -0.1411
  424SOL    HW1 1694   0.557   2.193   1.240 -3.1855  0.3310  2.0125
  424SOL    HW2 1695   0.689   2.223   1.311 -0.5220 -0.5844 -1.7446
  424SOL     MW 1696   0.641   2.222   1.241 -0.6232  0.0391 -0.0685
  425SOL     OW 1697   1.708   2.825   1.923 -0.1300  0.4616  0.1568
  425SOL    HW1 1698   1.749   2.849   1.831  1.8881 -1.5742 -1.8163
  425SOL    HW2 1699   1.762   2.747   1.954  0.1787  0.2810  0.6454
  425SOL     MW 1700   1.720   2.818   1.915  0.1770  0.1692 -0.0391
  426SOL     OW 1701   0.801   1.664   1.939  0.2707 -0.3157 -0.1913
  426SOL    HW1 1702   0.765   1.680   1.854 -0.7420 -2.5242  2.1101
  426SOL    HW2 1703   0.776   1.731   2.005  0.0066 -3.7454 -0.2198
  426SOL     MW 1704   0.793   1.675   1.937  0.1023 -1.0596  0.1086
  427SOL     OW 1705   0.355   1.533   1.900  0.3955 -0.1100  0.0712
  427SOL    HW1 1706   0.425   1.462   1.903 -0.8263  1.0779  2.0921
  427SOL    HW2 1707   0.278   1.482   1.922 -1.9902 -1.1509 -0.2225
  427SOL     MW 1708   0.354   1.517   1.903 -0.0805 -0.0906  0.2991
  428SOL     OW 1709   0.547   2.547   1.147  0.6032 -0.0666 -0.0042
  428SOL    HW1 1710   0.627   2.517   1.192  0.8589 -0.0723 -0.6626
  428SOL    HW2 1711   0.490   2.468   1.138  0.3463 -0.6167  1.8818
  428SOL     MW 1712   0.550   2.532   1.152  0.6031 -0.1399  0.1577
  429SOL     OW 1713   1.315   2.627   1.060 -0.3768  0.1197 -0.2415
  429SOL    HW1 1714   1.240   2.569   1.063 -0.9852  2.4079  0.9081
  429SOL    HW2 1715   1.279   2.705   1.004  0.2138  1.9278  0.4815
  429SOL     MW 1716   1.300   2.630   1.053 -0.3791  0.6601  0.0056
  430SOL     OW 1717   1.134   2.691   0.652  0.5986  0.5800  0.6320
  430SOL    HW1 1718   1.149   2.597   0.673 -1.2950  0.3688  0.7223
  430SOL    HW2 1719   1.059   2.687   0.594  1.0038 -0.3530  3.8193
  430SOL     MW 1720   1.126   2.678   0.647  0.4023  0.4290  1.0644
  431SOL     OW 1721   0.319   1.915   1.128  0.4268 -0.5539  0.3636
  431SOL    HW1 1722   0.378   1.835   1.131  0.3193  0.1079  2.5773
  431SOL    HW2 1723   0.328   1.971   1.049  1.5972 -0.1509 -0.5578
  431SOL     MW 1724   0.328   1.912   1.118  0.5670 -0.4134  0.5341
  432SOL     OW 1725   0.017   0.114   1.154  0.0359 -0.2993  0.0085
  432SOL    HW1 1726   0.035   0.132   1.249 -2.6448  0.6773  2.8917
  432SOL    HW2 1727  -0.057   0.047   1.162 -0.4480  0.0131 -1.7681
  432SOL     MW 1728   0.009   0.108   1.167 -0.3816 -0.1292  0.1545
  433SOL     OW 1729   0.600   2.871   1.434  0.1999 -0.2580  0.4286
  433SOL    HW1 1730   0.633   2.876   1.527  0.5207  1.5483 -1.3174
  433SOL    HW2 1731   0.680   2.856   1.384 -1.0253  1.4318  0.9740
  433SOL     MW 1732   0.615   2.869   1.440  0.0805  0.2033  0.2702
  434SOL     OW 1733   1.578   2.833   1.531  0.6904 -0.1364 -0.5395
  434SOL    HW1 1734   1.485   2.865   1.531 -1.5134 -2.0336 -0.1859
  434SOL    HW2 1735   1.588   2.830   1.439 -2.1288  2.6004 -1.2395
  434SOL     MW 1736   1.567   2.837   1.519  0.0277 -0.0257 -0.5852
  435SOL     OW 1737   2.839   1.773   0.165  0.0821  0.2819  0.3803
  435SOL    HW1 1738   2.876   1.855   0.127  0.8565 -0.4209  0.1120
  435SOL    HW2 1739   2.838   1.705   0.099 -2.5699 -2.4662  0.6610
  435SOL     MW 1740   2.844   1.775   0.152 -0.1657 -0.1734  0.3819
  436SOL     OW 1741   1.326   2.729   0.300 -0.7252  0.0786 -0.2398
  436SOL    HW1 1742   1.385   2.707   0.374 -0.3812 -0.8372  0.5659
  436SOL    HW2 1743   1.302   2.825   0.318 -3.1978  1.0744  0.5390
  436SOL     MW 1744   1.331   2.739   0.312 -1.0061  0.0891 -0.0308
  437SOL     OW 1745   0.876   2.904   1.358  0.3321  0.0535 -0.5284
  437SOL    HW1 1746   0.898   2.992   1.324  0.0627 -0.4518 -0.9915
  437SOL    HW2 1747   0.926   2.846   1.300  1.3867 -1.8422 -0.0852
  437SOL     MW 1748   0.886   2.908   1.346  0.4357 -0.2633 -0.5310
  438SOL     OW 1749   0.909   2.629   1.927 -0.4228 -0.2743  0.2009
  438SOL    HW1 1750   0.880   2.583   2.005  0.5537  0.1899 -2.0548
  438SOL    HW2 1751   0.857   2.574   1.867  0.2631 -0.4145 -1.5475
  438SOL     MW 1752   0.898   2.616   1.930 -0.2035 -0.2315 -0.3274
  439SOL     OW 1753   1.115   2.126   0.352 -0.6901  0.1401  0.3791
  439SOL    HW1 1754   1.102   2.143   0.446 -1.4150  0.2870 -1.3066
  439SOL    HW2 1755   1.137   2.213   0.306 -0.7340  1.8243  2.2339
  439SOL     MW 1756   1.116   2.140   0.358 -0.7915  0.3817  0.4014
  440SOL     OW 1757   1.605   2.901   3.037  0.6015 -0.0093  0.2467
  440SOL    HW1 1758   1.541   2.874   3.098  1.3462 -0.2070  0.3515
  440SOL    HW2 1759   1.649   2.821   3.015  1.3355 -2.0074  0.9447
  440SOL     MW 1760   1.602   2.887   3.042  0.7966 -0.2990  0.3526
  441SOL     OW 1761   0.322   2.609   0.537  0.1033  0.4901 -0.3637
  441SOL    HW1 1762   0.333   2.573   0.447  2.7289  1.1614 -0.2699
  441SOL    HW2 1763   0.354   2.695   0.526 -1.2166  0.0837 -1.4553
  441SOL     MW 1764   0.328   2.615   0.524  0.2756  0.5251 -0.4953
  442SOL     OW 1765   3.043   2.338   0.624  0.3042  0.3319 -0.4881
  442SOL    HW1 1766   3.078   2.431   0.615  0.8540  0.1710 -1.3772
  442SOL    HW2 1767   2.958   2.348   0.666  1.0239 -1.1898  0.2033
  442SOL     MW 1768   3.036   2.351   0.628  0.4717  0.1099 -0.5142
  443SOL     OW 1769   1.419   1.781   1.840  0.0609 -0.3816  0.2516
  443SOL    HW1 1770   1.382   1.785   1.754  0.4941  0.1331 -1.3681
  443SOL    HW2 1771   1.411   1.689   1.857 -0.8219  1.4780 -1.8256
  443SOL     MW 1772   1.413   1.769   1.831  0.0015 -0.0684 -0.2361
  444SOL     OW 1773   0.908   2.588   1.546  0.3326  0.1640  0.3861
  444SOL    HW1 1774   0.962   2.515   1.579 -3.3617  0.0152 -3.4460
  444SOL    HW2 1775   0.839   2.604   1.613  2.4859 -1.4268  3.4560
  444SOL     MW 1776   0.906   2.581   1.559  0.1293 -0.0656  0.2856
  445SOL     OW 1777   0.936   0.060   1.291 -0.6644 -0.1353  0.0308
  445SOL    HW1 1778   0.916   0.157   1.290  1.2851  2.8517  0.2910
  445SOL    HW2 1779   1.016   0.048   1.235  0.4901 -0.8642 -0.8971
  445SOL     MW 1780   0.944   0.071   1.283 -0.2548  0.1626 -0.0573
  446SOL     OW 1781   2.683   2.804   1.092 -0.1580  0.6559 -0.1275
  446SOL    HW1 1782   2.647   2.843   1.011  0.8187 -0.1195 -1.3430
  446SOL    HW2 1783   2.761   2.748   1.063 -0.6458 -1.4320  0.0322
  446SOL     MW 1784   2.689   2.801   1.078 -0.0935  0.2781 -0.2668
  447SOL     OW 1785   3.036   2.037   1.696 -0.3601  0.7271 -0.2359
  447SOL    HW1 1786   3.103   1.970   1.726 -0.3001  0.1280 -1.2589
  447SOL    HW2 1787   2.971   1.981   1.645 -0.9199  2.9702 -1.8956
  447SOL     MW 1788   3.036   2.021   1.693 -0.4261  0.9440 -0.5899
  448SOL     OW 1789   1.689   2.386   1.690  0.3315  0.0234  0.4347
  448SOL    HW1 1790   1.631   2.313   1.707  1.2983 -0.6831  2.4954
  448SOL    HW2 1791   1.630   2.461   1.674  1.2806 -5.0018  1.6806
  448SOL     MW 1792   1.674   2.386   1.690  0.5843 -0.7329  0.8709
  449SOL     OW 1793   0.779   2.943   0.418 -0.5134 -0.8113 -0.1324
  449SOL    HW1 1794   0.719   2.951   0.341 -2.6388 -1.4122  1.0787
  449SOL    HW2 1795   0.726   2.937   0.498  0.3413 -2.9232 -2.0658
  449SOL     MW 1796   0.764   2.943   0.419 -0.6811 -1.1692 -0.2277
  450SOL     OW 1797   1.184   2.438   0.710 -0.1376 -0.1320 -0.2777
  450SOL    HW1 1798   1.189   2.391   0.796  0.1295  0.3659 -1.6795
  450SOL    HW2 1799   1.274   2.462   0.676 -2.5499  2.3305  2.3622
  450SOL     MW 1800   1.197   2.435   0.717 -0.4206  0.2586 -0.1144
  451SOL     OW 1801   0.581   2.006   1.650 -0.0930 -0.0475 -0.0833
  451SOL    HW1 1802   0.627   2.083   1.673 -0.5916 -2.3261 -3.4138
  451SOL    HW2 1803   0.565   2.005   1.556  2.4678 -0.2230 -0.5804
  451SOL     MW 1804   0.585   2.016   1.640  0.1791 -0.3713 -0.5883
  452SOL     OW 1805   0.279   2.746   0.073  0.6211 -0.1402 -0.7705
  452SOL    HW1 1806   0.367   2.734   0.049 -2.9494 -1.8551  1.9251
  452SOL    HW2 1807   0.220   2.743  -0.004 -1.9861  2.6375 -0.7320
  452SOL     MW 1808   0.283   2.744   0.060 -0.1940  0.0000 -0.4098
  453SOL     OW 1809   0.423   3.002   1.698 -0.1338  0.1848  0.3978
  453SOL    HW1 1810   0.526   2.992   1.703  1.8550 -0.8393 -0.1995
  453SOL    HW2 1811   0.401   3.008   1.606 -1.0188 -1.5966  0.2975
  453SOL     MW 1812   0.433   3.002   1.687  0.0118 -0.1854  0.3058
  454SOL     OW 1813   1.005   2.704   1.204  0.6471 -0.0526  0.3326
  454SOL    HW1 1814   0.936   2.646   1.238  1.8486  1.3503  2.3656
  454SOL    HW2 1815   0.955   2.758   1.141 -0.8802 -0.4489 -0.1667
  454SOL     MW 1816   0.989   2.703   1.200  0.6041  0.0802  0.5350
  455SOL     OW 1817   1.537   2.944   0.214 -0.1493 -0.6666  0.0700
  455SOL    HW1 1818   1.624   2.953   0.258  1.1364  0.0936 -0.5637
  455SOL    HW2 1819   1.508   2.867   0.250 -0.8924 -1.0236 -1.3721
  455SOL     MW 1820   1.545   2.935   0.224 -0.0777 -0.6134 -0.2039
  456SOL     OW 1821   2.875   0.377   1.316  0.0308 -0.3402  0.2709
  456SOL    HW1 1822   2.849   0.283   1.301 -0.4606 -2.9388  0.3537
  456SOL    HW2 1823   2.940   0.401   1.250 -1.7496  1.4652 -0.7673
  456SOL     MW 1824   2.880   0.368   1.305 -0.2690 -0.4449  0.1449
  457SOL     OW 1825   0.913   1.568   2.989  0.0250  0.4600  0.0576
  457SOL    HW1 1826   0.827   1.572   3.033  2.5847 -1.5566 -1.8121
  457SOL    HW2 1827   0.956   1.496   3.043 -0.4799 -1.4221  0.0499
  457SOL     MW 1828   0.908   1.559   3.002  0.2961 -0.0544 -0.1901
  458SOL     OW 1829   1.457   1.417   0.620  0.3591 -0.0692 -0.3905
  458SOL    HW1 1830   1.390   1.438   0.686  0.4121  1.3024  0.2264
  458SOL    HW2 1831   1.419   1.345   0.558 -1.5485 -2.6091 -1.7674
  458SOL     MW 1832   1.443   1.410   0.620  0.1144 -0.2233 -0.4908
  459SOL     OW 1833   1.563   0.113   0.232 -0.3563  0.1377  0.1401
  459SOL    HW1 1834   1.540   0.022   0.208 -0.3466 -0.5485  0.1314
  459SOL    HW2 1835   1.499   0.164   0.176  0.9207  2.1809  2.0168
  459SOL     MW 1836   1.552   0.108   0.221 -0.1865  0.3167  0.3865
  460SOL     OW 1837   1.774   2.155   0.653  0.7924 -0.5291  0.1405
  460SOL    HW1 1838   1.683   2.117   0.685 -0.4760  1.9222  0.8109
  460SOL    HW2 1839   1.809   2.094   0.592 -0.5875  1.2676 -0.2312
  460SOL     MW 1840   1.767   2.142   0.649  0.4430  0.0314  0.1800
  461SOL     OW 1841   0.534   2.422   0.613 -0.8054  0.0302  0.5366
  461SOL    HW1 1842   0.463   2.466   0.566 -0.2318  1.3549  1.1913
  461SOL    HW2 1843   0.503   2.433   0.705  2.2710 -0.5348 -0.7474
  461SOL     MW 1844   0.521   2.429   0.619 -0.3238  0.1305  0.4536
  462SOL     OW 1845   0.319   0.243   1.273  0.6368  0.1259 -0.0762
  462SOL    HW1 1846   0.348   0.178   1.196  1.2139  0.9923 -1.7563
  462SOL    HW2 1847   0.399   0.270   1.304  0.5302  0.0664 -1.6931
  462SOL     MW 1848   0.333   0.238   1.267  0.6988  0.2324 -0.5112
  463SOL     OW 1849   0.959   0.001   0.687 -0.5134 -0.2057 -0.4213
  463SOL    HW1 1850   0.972   0.019   0.596 -0.8273  1.8197 -0.2550
  463SOL    HW2 1851   0.869   0.021   0.706  1.2441  0.2501  0.1379
  463SOL     MW 1852   0.949   0.006   0.678 -0.3229  0.1217 -0.3256
  464SOL     OW 1853   0.759   3.013   2.219 -0.5228  0.5231  0.5303
  464SOL    HW1 1854   0.720   2.919   2.229  2.7827  3.5574  1.1471
  464SOL    HW2 1855   0.816   3.021   2.294  2.9106 -3.2675 -2.5467
  464SOL     MW 1856   0.761   3.002   2.231  0.3663  0.4233  0.2057
  465SOL     OW 1857   0.697   0.314   0.525 -0.7885 -0.1322 -0.4810
  465SOL    HW1 1858   0.701   0.258   0.602 -0.3352 -0.6814  0.2544
  465SOL    HW2 1859   0.743   0.264   0.462 -0.6519 -1.3010  1.9584
  465SOL     MW 1860   0.703   0.300   0.527 -0.7107 -0.3588 -0.0621
  466SOL     OW 1861   1.072   2.002   0.736  0.3143  0.7519  0.1114
  466SOL    HW1 1862   1.074   1.927   0.674  2.1563 -1.2474  1.0958
  466SOL    HW2 1863   1.051   2.077   0.678  1.7801  1.3787 -0.1653
  466SOL     MW 1864   1.069   2.002   0.720  0.7508  0.5708  0.2048
  467SOL     OW 1865   1.256   2.246   0.905 -0.0264  0.4703 -0.0966
  467SOL    HW1 1866   1.352   2.269   0.890  0.7717  1.0119  1.2807
  467SOL    HW2 1867   1.262   2.152   0.893  1.0497  1.5056  3.8948
  467SOL     MW 1868   1.270   2.237   0.901  0.2209  0.6783  0.6118
  468SOL     OW 1869   0.349   2.586   2.012  0.4938  0.1343  0.0256
  468SOL    HW1 1870   0.368   2.506   1.955 -1.3637 -1.7653 -0.1062
  468SOL    HW2 1871   0.410   2.656   1.977 -0.8295 -1.0178  0.6104
  468SOL     MW 1872   0.359   2.585   2.000  0.0741 -0.2683  0.0853
  469SOL     OW 1873   0.382   2.127   1.790  0.4268  0.0277 -0.5480
  469SOL    HW1 1874   0.298   2.082   1.777 -0.5791 -1.3944 -0.9779
  469SOL    HW2 1875   0.446   2.078   1.738  1.4370 -0.4507  1.1572
  469SOL     MW 1876   0.379   2.115   1.781  0.4274 -0.2231 -0.3798
  470SOL     OW 1877   3.041   2.600   0.129  0.6108  0.7018  0.4777
  470SOL    HW1 1878   2.956   2.569   0.159 -0.7481 -1.1295 -2.8277
  470SOL    HW2 1879   3.039   2.596   0.033  1.1535  0.1070 -0.2414
  470SOL     MW 1880   3.030   2.595   0.121  0.5031  0.3817 -0.0533
  471SOL     OW 1881   1.242   2.725   1.405 -0.4400 -0.2018 -0.2726
  471SOL    HW1 1882   1.160   2.745   1.453 -0.9448  0.8770  0.5180
  471SOL    HW2 1883   1.220   2.708   1.313 -1.5759 -2.5215 -1.4643
  471SOL     MW 1884   1.228   2.726   1.399 -0.6564 -0.3655 -0.3255
  472SOL     OW 1885   2.878   2.071   0.379 -0.0874 -0.4244  0.4330
  472SOL    HW1 1886   2.899   2.065   0.277 -1.3179  1.2882 -1.0939
  472SOL    HW2 1887   2.871   1.973   0.389  2.9126 -2.2535 -0.5835
  472SOL     MW 1888   2.880   2.057   0.367  0.1461 -0.4398  0.0974
  473SOL     OW 1889   0.801   2.527   1.278 -0.4945 -1.1762  0.9087
  473SOL    HW1 1890   0.835   2.439   1.288  0.1717 -1.5829 -2.3575
  473SOL    HW2 1891   0.815   2.561   1.374  0.0901 -0.3579 -0.5049
  473SOL     MW 1892   0.808   2.520   1.292 -0.3294 -1.1219  0.2913
  474SOL     OW 1893   0.758   2.259   1.714  0.3829  0.2520 -0.5642
  474SOL    HW1 1894   0.845   2.256   1.749  0.7250  0.1577 -0.6405
  474SOL    HW2 1895   0.767   2.252   1.623 -1.2009 -1.2761 -0.2795
  474SOL     MW 1896   0.771   2.258   1.706  0.2191  0.0379 -0.5367
  475SOL     OW 1897   1.616   0.052   1.456 -0.1115  0.2648  0.3315
  475SOL    HW1 1898   1.548   0.090   1.404  2.5633  0.2779 -0.4325
  475SOL    HW2 1899   1.579  -0.028   1.491  0.4640  0.8994  1.3466
  475SOL     MW 1900   1.602   0.046   1.454  0.3173  0.3503  0.3646
  476SOL     OW 1901   1.502   2.648   0.846  0.2484 -0.3845  0.2770
  476SOL    HW1 1902   1.434   2.633   0.918 -2.6114  2.4087  3.0592
  476SOL    HW2 1903   1.492   2.738   0.813 -0.9652  0.5631 -0.7243
  476SOL     MW 1904   1.492   2.657   0.851 -0.2890  0.1090  0.5120
  477SOL     OW 1905   0.837   2.496   0.694 -0.4635  0.1776 -0.2498
  477SOL    HW1 1906   0.876   2.573   0.635 -1.1945  3.1210 -1.2764
  477SOL    HW2 1907   0.801   2.429   0.633  0.2703 -0.3406 -0.8622
  477SOL     MW 1908   0.837   2.497   0.678 -0.4631  0.4976 -0.4660
  478SOL     OW 1909   0.188   2.645   0.906 -0.1686 -0.5113 -0.4739
  478SOL    HW1 1910   0.252   2.715   0.914 -0.3182  3.7463 -0.4769
  478SOL    HW2 1911   0.257   2.583   0.884  0.2143 -2.5679  1.8126
  478SOL     MW 1912   0.206   2.646   0.904 -0.1378 -0.2209 -0.1726
  479SOL     OW 1913   1.447   1.932   1.297 -0.1171 -0.0986  0.0738
  479SOL    HW1 1914   1.391   1.975   1.361 -0.6948 -0.8610  1.5443
  479SOL    HW2 1915   1.522   1.902   1.347  0.6012 -0.2449 -2.2911
  479SOL     MW 1916   1.449   1.934   1.312 -0.0986 -0.2185 -0.0442
  480SOL     OW 1917   1.850   2.387   1.366  0.1329  0.0984  0.5749
  480SOL    HW1 1918   1.871   2.297   1.389 -0.4725 -0.1824  2.5211
  480SOL    HW2 1919   1.885   2.393   1.280 -0.8373 -1.1351  1.5416
  480SOL     MW 1920   1.858   2.376   1.358 -0.0750 -0.1014  0.9592
  481SOL     OW 1921   1.181   0.104   1.112  0.0116 -0.4750 -0.0894
  481SOL    HW1 1922   1.229   0.069   1.034 -2.0908  2.4960 -0.7032
  481SOL    HW2 1923   1.178   0.198   1.090  1.2582  1.3702 -0.7876
  481SOL     MW 1924   1.187   0.112   1.099 -0.1013  0.1604 -0.2625
  482SOL     OW 1925   0.966   0.022   0.400 -0.2264 -0.0079 -0.0656
  482SOL    HW1 1926   0.900  -0.046   0.407  0.3758 -1.6618 -0.1466
  482SOL    HW2 1927   0.923   0.100   0.366  0.0710  0.5838 -0.4459
  482SOL     MW 1928   0.952   0.023   0.397 -0.1077 -0.1480 -0.1264
  483SOL     OW 1929   0.415   2.862   0.514  0.3438  0.2200  0.3814
  483SOL    HW1 1930   0.336   2.881   0.459 -1.9863 -1.1004 -0.3966
  483SOL    HW2 1931   0.378   2.912   0.588  1.0340 -0.1352 -1.4074
  483SOL     MW 1932   0.400   2.871   0.516  0.1275 -0.0011  0.0427
  484SOL     OW 1933   1.683   1.893   1.423  0.3610 -0.0276  0.0277
  484SOL    HW1 1934   1.737   1.972   1.398  0.3763  2.2476 -1.9808
  484SOL    HW2 1935   1.688   1.891   1.518  1.9117  0.8650 -0.2923
  484SOL     MW 1936   1.691   1.904   1.433  0.5676  0.3903 -0.2796
  485SOL     OW 1937   0.557   2.327   0.320  0.0322  0.0746 -0.6448
  485SOL    HW1 1938   0.582   2.351   0.406  0.3148  1.4749 -3.7877
  485SOL    HW2 1939   0.563   2.385   0.250  0.0607  3.5099  0.3112
  485SOL     MW 1940   0.561   2.338   0.322  0.0732  0.7126 -0.9333
  486SOL     OW 1941   0.091   2.462   1.424  0.1071  0.2728 -0.6583
  486SOL    HW1 1942   0.105   2.545   1.381  0.2611 -1.3275  0.9418
  486SOL    HW2 1943   0.117   2.463   1.514 -0.6347  0.6031 -2.3713
  486SOL     MW 1944   0.096   2.473   1.430  0.0296  0.1053 -0.6732
  487SOL     OW 1945   1.253   1.606   1.033  0.3743 -0.8138  0.9121
  487SOL    HW1 1946   1.244   1.706   1.051 -1.2920  1.6928 -2.3862
  487SOL    HW2 1947   1.350   1.597   1.010  1.4719 -0.0825 -1.4477
  487SOL     MW 1948   1.265   1.618   1.033  0.2993 -0.3866  0.1656
  488SOL     OW 1949   1.551   1.858   0.560  0.2112 -0.0603  0.6318
  488SOL    HW1 1950   1.615   1.925   0.534  1.2355 -1.2512  2.1559
  488SOL    HW2 1951   1.469   1.881   0.517  1.5991  0.7225 -0.8112
  488SOL     MW 1952   1.549   1.870   0.551  0.5295 -0.1142  0.6425
  489SOL     OW 1953   0.769   0.797   0.489  0.2788  0.2832 -0.1279
  489SOL    HW1 1954   0.804   0.715   0.458 -1.6959 -2.1389 -1.7102
  489SOL    HW2 1955   0.773   0.797   0.583 -1.1551 -0.4185 -0.7977
  489SOL     MW 1956   0.774   0.786   0.497 -0.1709 -0.1289 -0.4250
  490SOL     OW 1957   1.401   2.109   0.429  0.3993  0.1610  0.5576
  490SOL    HW1 1958   1.453   2.177   0.384  0.8168  1.3695 -0.4736
  490SOL    HW2 1959   1.310   2.110   0.388 -0.7545 -3.5746 -0.0370
  490SOL     MW 1960   1.396   2.118   0.418  0.3022 -0.1724  0.3431
  491SOL     OW 1961   1.219   2.960   0.409 -0.4438  0.1784 -0.0227
  491SOL    HW1 1962   1.241   3.007   0.490 -0.0902  1.3103  0.8869
  491SOL    HW2 1963   1.135   2.986   0.378  0.7508 -1.7360  2.4803
  491SOL     MW 1964   1.211   2.969   0.415 -0.2395  0.0752  0.4276
  492SOL     OW 1965   1.472   2.148   0.679  0.3479 -0.4578 -0.1926
  492SOL    HW1 1966   1.424   2.134   0.592 -2.2818  0.6802 -0.5086
  492SOL    HW2 1967   1.428   2.078   0.730  0.0074 -0.5905  0.1739
  492SOL     MW 1968   1.460   2.137   0.674 -0.0440 -0.3251 -0.1859
  493SOL     OW 1969   0.168   2.943   0.436 -0.1810 -0.3127 -0.4466
  493SOL    HW1 1970   0.125   3.008   0.497 -1.6330 -0.3123 -1.6120
  493SOL    HW2 1971   0.175   2.991   0.350  0.1700  0.7295  0.3966
  493SOL     MW 1972   0.163   2.957   0.433 -0.3262 -0.1751 -0.4891
  494SOL     OW 1973   0.426   2.406   1.791  0.5458  0.4307 -0.2526
  494SOL    HW1 1974   0.420   2.306   1.794 -0.2836 -1.4375 -0.3261
  494SOL    HW2 1975   0.446   2.414   1.703 -0.2759 -2.5981  2.3395
  494SOL     MW 1976   0.428   2.394   1.780  0.3279 -0.2154  0.0797
  495SOL     OW 1977   2.921   1.638   2.733  0.1985 -0.2722  0.0809
  495SOL    HW1 1978   2.897   1.714   2.781 -0.6681 -1.5933 -1.3555
  495SOL    HW2 1979   2.921   1.571   2.802  1.9470 -0.1273 -0.5805
  495SOL     MW 1980   2.918   1.639   2.749  0.3149 -0.4274 -0.1959
  496SOL     OW 1981   2.799   2.291   2.648  0.1306 -0.0907 -0.4492
  496SOL    HW1 1982   2.825   2.212   2.689 -0.4545  0.5897 -0.1723
  496SOL    HW2 1983   2.879   2.338   2.626  0.4176  0.8439 -1.4045
  496SOL     MW 1984   2.813   2.287   2.650  0.0913  0.1224 -0.5387
  497SOL     OW 1985   1.494   2.303   2.492  0.4020  0.1553 -0.3162
  497SOL    HW1 1986   1.469   2.271   2.404  1.3795  0.8615  0.4072
  497SOL    HW2 1987   1.466   2.235   2.557 -3.6692 -1.6664  1.6605
  497SOL     MW 1988   1.487   2.290   2.489 -0.0062  0.0081  0.0400
  498SOL     OW 1989   1.587   2.753   2.225  0.5201  0.0402 -0.0644
  498SOL    HW1 1990   1.611   2.661   2.225  1.2415 -1.9841  1.9743
  498SOL    HW2 1991   1.646   2.791   2.294 -1.0143  0.6136 -0.2884
  498SOL     MW 1992   1.598   2.746   2.234  0.4128 -0.1512  0.1750
  499SOL     OW 1993   0.909   0.144   0.018  0.5380  0.2776 -0.1603
  499SOL    HW1 1994   0.861   0.184   0.090 -1.2615  1.6213 -0.4213
  499SOL    HW2 1995   0.901   0.051   0.036 -1.8848 -2.3081 -0.1619
  499SOL     MW 1996   0.902   0.137   0.030 -0.0191  0.1138 -0.1949
  500SOL     OW 1997   1.034   2.460   2.776  0.2233 -0.1469  0.8537
  500SOL    HW1 1998   1.078   2.462   2.860 -0.3467 -1.0746  0.4159
  500SOL    HW2 1999   0.982   2.539   2.766  1.7820 -0.5398  0.3203
  500SOL     MW 2000   1.033   2.471   2.786  0.3537 -0.3211  0.7256
  501SOL     OW 2001   1.723   2.226   3.097  0.1042 -0.1385 -0.5143
  501SOL    HW1 2002   1.707   2.322   3.114 -0.4936 -0.1961 -0.4647
  501SOL    HW2 2003   1.819   2.216   3.104 -0.0222 -0.9532 -1.9392
  501SOL     MW 2004   1.734   2.237   3.100  0.0087 -0.2536 -0.6957
  502SOL     OW 2005   0.150   2.782   2.922 -0.4987 -0.0288 -0.0957
  502SOL    HW1 2006   0.094   2.737   2.861  0.0612 -1.0684  0.6487
  502SOL    HW2 2007   0.196   2.850   2.878  0.2899 -0.3910  0.3087
  502SOL     MW 2008   0.148   2.785   2.908 -0.3208 -0.2138  0.0559
  503SOL     OW 2009   1.161   2.607   2.096 -0.0178  0.2283  0.2174
  503SOL    HW1 2010   1.227   2.576   2.028  0.8401 -0.3806 -3.3134
  503SOL    HW2 2011   1.084   2.626   2.041  0.6063 -1.8688 -1.0937
  503SOL     MW 2012   1.160   2.605   2.080  0.1777 -0.1287 -0.4215
  504SOL     OW 2013   0.086   2.646   2.076 -0.1974  0.1818  0.0580
  504SOL    HW1 2014   0.175   2.639   2.042 -1.3166 -0.1723 -1.8210
  504SOL    HW2 2015   0.077   2.562   2.115  2.7263 -0.2454 -1.2601
  504SOL     MW 2016   0.097   2.634   2.077  0.0407  0.0788 -0.3638
  505SOL     OW 2017   1.655   2.669   2.738 -0.4831  0.2700  0.5357
  505SOL    HW1 2018   1.690   2.672   2.643  2.6439 -1.7085 -1.0086
  505SOL    HW2 2019   1.589   2.742   2.744  0.3170 -1.6105 -3.3263
  505SOL     MW 2020   1.651   2.679   2.726  0.0350 -0.2391 -0.1776
  506SOL     OW 2021   1.582   0.026   2.857 -0.5285  0.0021 -0.4870
  506SOL    HW1 2022   1.620   0.006   2.941  1.9410  1.0994  0.8576
  506SOL    HW2 2023   1.631  -0.020   2.789 -0.0007  0.3849 -2.2965
  506SOL     MW 2024   1.594   0.017   2.859 -0.1330  0.1974 -0.5484
  507SOL     OW 2025   0.877   2.679   2.849 -0.5634  0.0715  0.2724
  507SOL    HW1 2026   0.879   2.752   2.786  3.6852 -1.6599 -0.1875
  507SOL    HW2 2027   0.793   2.641   2.826 -0.1140  0.8230 -3.8861
  507SOL     MW 2028   0.866   2.684   2.838  0.0565 -0.0578 -0.3370
  508SOL     OW 2029   1.223   2.118   2.549  0.6499  0.1813 -0.5986
  508SOL    HW1 2030   1.284   2.134   2.621  2.1725  0.2081  1.7723
  508SOL    HW2 2031   1.139   2.151   2.591  2.3170 -1.5894 -0.0389
  508SOL     MW 2032   1.220   2.124   2.564  1.0708 -0.0488 -0.2119
  509SOL     OW 2033   0.590   2.606   2.819  0.1501  0.4225 -0.2237
  509SOL    HW1 2034   0.584   2.565   2.735  1.5618  1.0157 -0.2651
  509SOL    HW2 2035   0.544   2.685   2.805  0.5871  1.3144  2.1106
  509SOL     MW 2036   0.583   2.611   2.806  0.3940  0.6184  0.0788
  510SOL     OW 2037   1.510   2.606   1.667  0.6094  0.2121 -0.1934
  510SOL    HW1 2038   1.535   2.702   1.632  1.5211 -0.5046 -2.1006
  510SOL    HW2 2039   1.446   2.610   1.736  1.7286  0.8858  3.6501
  510SOL     MW 2040   1.505   2.619   1.672  0.8773  0.2065  0.0621
  511SOL     OW 2041   0.323   2.572   2.547  0.2234  0.7225  0.2584
  511SOL    HW1 2042   0.415   2.539   2.569 -1.1054 -0.9735 -0.6759
  511SOL    HW2 2043   0.324   2.557   2.451  0.3950  1.9762  0.0435
  511SOL     MW 2044   0.335   2.566   2.537  0.0707  0.6641  0.1068
  512SOL     OW 2045   1.008   2.012   2.888  0.2299 -0.3200 -0.0053
  512SOL    HW1 2046   0.942   2.069   2.928 -0.2527  1.3464 -1.6935
  512SOL    HW2 2047   1.023   1.943   2.954  0.3547  2.3563  2.5292
  512SOL     MW 2048   1.001   2.011   2.902  0.1827  0.2530  0.1063
  513SOL     OW 2049   1.672   2.483   2.181  0.3022 -0.7911  0.2340
  513SOL    HW1 2050   1.748   2.523   2.120  3.5225 -0.6956 -3.0432
  513SOL    HW2 2051   1.720   2.450   2.254  3.3288 -0.6144  0.6515
  513SOL     MW 2052   1.689   2.484   2.182  1.1264 -0.7552 -0.1433
  514SOL     OW 2053   0.196   2.359   2.657  0.1650  0.4018  0.2183
  514SOL    HW1 2054   0.266   2.423   2.625  0.8078 -0.1466 -3.4722
  514SOL    HW2 2055   0.221   2.327   2.742 -0.6332  1.6035  0.5364
  514SOL     MW 2056   0.209   2.363   2.664  0.1445  0.4880 -0.2266
  515SOL     OW 2057   1.078   2.002   1.907  0.0494  0.3903  0.3571
  515SOL    HW1 2058   1.064   2.092   1.915  0.8296 -1.9934 -0.4949
  515SOL    HW2 2059   1.164   1.977   1.954 -0.8083 -2.5362 -0.9924
  515SOL     MW 2060   1.087   2.011   1.914  0.0392 -0.3103  0.0666
  516SOL     OW 2061   1.387   2.521   2.954 -0.0406 -0.1826  0.4893
  516SOL    HW1 2062   1.388   2.510   2.855 -1.9604 -1.6827 -0.5826
  516SOL    HW2 2063   1.294   2.534   2.977 -0.5855 -4.6063 -2.2333
  516SOL     MW 2064   1.375   2.521   2.944 -0.3658 -0.9642 -0.0114
  517SOL     OW 2065   0.623   2.371   2.272  0.6134 -0.0516 -0.2324
  517SOL    HW1 2066   0.548   2.437   2.284 -3.5196 -2.5962  1.5921
  517SOL    HW2 2067   0.572   2.305   2.227 -2.7478  0.1731 -3.6134
  517SOL     MW 2068   0.607   2.371   2.267 -0.3754 -0.3577 -0.4377
  518SOL     OW 2069   1.782   0.018   3.083  0.8443  0.0317  0.7357
  518SOL    HW1 2070   1.781   0.078   3.155 -0.7348  2.2642 -1.4200
  518SOL    HW2 2071   1.750  -0.067   3.110 -1.2643  0.2685 -3.2502
  518SOL     MW 2072   1.778   0.015   3.096  0.3578  0.3575 -0.0746
  519SOL     OW 2073   0.719   2.540   1.751 -0.0373  0.6958 -0.6422
  519SOL    HW1 2074   0.718   2.446   1.721  1.2034 -1.7056 -1.4073
  519SOL    HW2 2075   0.630   2.572   1.744 -2.3497  0.3420  1.8570
  519SOL     MW 2076   0.707   2.532   1.746 -0.1787  0.3323 -0.4134
  520SOL     OW 2077   1.220   2.201   2.943  0.0204  0.1706  0.0765
  520SOL    HW1 2078   1.150   2.128   2.924 -0.2788 -0.4290 -0.5937
  520SOL    HW2 2079   1.276   2.158   3.014 -0.2245 -0.0682 -0.3719
  520SOL     MW 2080   1.218   2.186   2.950 -0.0514  0.0600 -0.0711
  521SOL     OW 2081   1.767   2.063   2.237 -0.0694  0.1006  0.4246
  521SOL    HW1 2082   1.750   2.066   2.144 -0.5911  0.1388  0.2746
  521SOL    HW2 2083   1.750   1.967   2.255  1.2307 -0.4970  2.8386
  521SOL     MW 2084   1.763   2.051   2.227  0.0333  0.0268  0.7233
  522SOL     OW 2085   2.907   2.517   2.274  0.1503  0.0054 -0.0813
  522SOL    HW1 2086   2.977   2.466   2.301 -2.2252  1.1230  0.6347
  522SOL    HW2 2087   2.927   2.607   2.284  0.2892 -1.4773  0.1048
  522SOL     MW 2088   2.919   2.522   2.279 -0.1448 -0.0427  0.0377
  523SOL     OW 2089   0.898   1.514   2.136  0.1248  0.1796 -0.0362
  523SOL    HW1 2090   0.850   1.554   2.057  0.4858  2.7464 -0.0990
  523SOL    HW2 2091   0.944   1.438   2.105  0.0404  0.2352 -0.7080
  523SOL     MW 2092   0.898   1.509   2.122  0.1613  0.5256 -0.1332
  524SOL     OW 2093   0.594   2.355   2.947  0.6460  0.4519 -0.3295
  524SOL    HW1 2094   0.606   2.437   2.900  0.2924  2.2385  0.5485
  524SOL    HW2 2095   0.660   2.291   2.931 -2.5699  1.1930  1.3732
  524SOL     MW 2096   0.605   2.357   2.939  0.1750  0.7854  0.0110
  525SOL     OW 2097   0.452   2.191   2.109  0.0859  0.0106  0.0150
  525SOL    HW1 2098   0.458   2.133   2.184  1.1056 -0.7081  2.5914
  525SOL    HW2 2099   0.529   2.175   2.045 -2.2056  1.5610  1.0096
  525SOL     MW 2100   0.463   2.181   2.111 -0.0819  0.1203  0.4862
  526SOL     OW 2101   0.692   2.158   1.961  0.3259 -0.1084  0.7117
  526SOL    HW1 2102   0.729   2.204   1.882 -0.3202  2.0922 -2.6314
  526SOL    HW2 2103   0.760   2.179   2.033 -3.0625 -0.6265 -0.4677
  526SOL     MW 2104   0.706   2.167   1.960 -0.2064  0.1136  0.1150
  527SOL     OW 2105   1.288   1.917   2.050  0.0417 -0.2710  0.1036
  527SOL    HW1 2106   1.262   1.879   2.136 -0.3224 -2.6078  1.0894
  527SOL    HW2 2107   1.331   1.849   2.009  0.4711 -0.1844 -0.1159
  527SOL     MW 2108   1.290   1.903   2.056  0.0503 -0.5679  0.2047
  528SOL     OW 2109   0.645   2.912   2.934  0.0125  0.2959  0.3661
  528SOL    HW1 2110   0.639   3.008   2.942 -0.9569 -0.0247  1.5056
  528SOL    HW2 2111   0.660   2.893   2.838  1.1071 -0.2398 -1.3585
  528SOL     MW 2112   0.646   2.922   2.922  0.0290  0.1829  0.2889
  529SOL     OW 2113   0.976   2.262   1.910 -0.2024  1.4049 -0.2049
  529SOL    HW1 2114   1.014   2.252   2.000 -2.9001 -0.6132 -1.3992
  529SOL    HW2 2115   1.032   2.329   1.868 -1.6934  0.9769 -0.7982
  529SOL     MW 2116   0.989   2.269   1.917 -0.7550  1.0821 -0.4408
  530SOL     OW 2117   1.139   2.459   3.039  0.1440  0.2606 -0.4555
  530SOL    HW1 2118   1.074   2.453   3.112  2.0597 -0.0216 -0.5020
  530SOL    HW2 2119   1.169   2.369   3.014  0.7852  0.4403  0.6353
  530SOL     MW 2120   1.135   2.447   3.045  0.4814  0.2471 -0.3177
  531SOL     OW 2121   0.904   1.892   2.653  0.7054  1.1107 -0.1145
  531SOL    HW1 2122   0.934   1.924   2.740 -1.0557 -2.6106  2.1329
  531SOL    HW2 2123   0.883   1.805   2.684  0.9315 -0.4985  0.4771
  531SOL     MW 2124   0.905   1.885   2.668  0.5029  0.4074  0.2601
  532SOL     OW 2125   1.696   0.288   2.818 -0.1295 -0.2280  0.2292
  532SOL    HW1 2126   1.684   0.204   2.868  0.9478  1.0608 -1.3223
  532SOL    HW2 2127   1.789   0.317   2.838  1.0750  0.7603 -0.7236
  532SOL     MW 2128   1.707   0.281   2.827  0.1715  0.0725 -0.1012
  533SOL     OW 2129   1.768   2.647   2.971  0.5434 -0.5775  0.8065
  533SOL    HW1 2130   1.704   2.592   3.022 -3.2691 -0.7083 -1.5076
  533SOL    HW2 2131   1.731   2.646   2.878  2.4327  2.5613 -1.4269
  533SOL     MW 2132   1.755   2.640   2.966  0.2896 -0.1806  0.2065
  534SOL     OW 2133   1.733   2.433   2.467  0.2571 -0.7743  0.9941
  534SOL    HW1 2134   1.670   2.386   2.517  1.5427 -2.1170  0.5016
  534SOL    HW2 2135   1.821   2.438   2.517 -1.0594 -1.4745 -2.0313
  534SOL     MW 2136   1.737   2.427   2.480  0.2530 -1.0438  0.5299
  535SOL     OW 2137   1.828   2.335   1.902 -0.5311  0.1640 -0.3291
  535SOL    HW1 2138   1.769   2.358   1.830 -0.4582  0.2105  0.7236
  535SOL    HW2 2139   1.918   2.360   1.874  0.6020  2.0156 -1.9504
  535SOL     MW 2140   1.832   2.341   1.889 -0.3720  0.4144 -0.4041
  536SOL     OW 2141   0.452   1.784   1.989  0.2793  0.0677  0.0079
  536SOL    HW1 2142   0.439   1.728   1.912 -2.3782  1.3301  1.0522
  536SOL    HW2 2143   0.542   1.822   1.984  0.9521 -0.3108 -0.6473
  536SOL     MW 2144   0.462   1.782   1.978  0.0174  0.1843  0.0592
  537SOL     OW 2145   1.082   0.200   2.895  0.1944  0.0251  0.1285
  537SOL    HW1 2146   1.009   0.190   2.955  0.7073 -1.6255  0.2824
  537SOL    HW2 2147   1.090   0.296   2.892  1.1797 -3.0748 -1.2203
  537SOL     MW 2148   1.074   0.211   2.903  0.3920 -0.6017 -0.0292
  538SOL     OW 2149   1.315   0.009   2.977  0.0938 -0.0328  0.1553
  538SOL    HW1 2150   1.252   0.074   2.957  1.0198 -0.3737 -1.7141
  538SOL    HW2 2151   1.393   0.027   2.923  0.2866 -1.3685 -0.5353
  538SOL     MW 2152   1.317   0.020   2.967  0.2414 -0.2540 -0.1825
  539SOL     OW 2153   0.779   2.727   2.501  0.2479  0.3639  0.0252
  539SOL    HW1 2154   0.853   2.771   2.539 -0.5355 -0.9183  1.4639
  539SOL    HW2 2155   0.807   2.641   2.504  0.1920  3.0350 -0.8734
  539SOL     MW 2156   0.793   2.721   2.506  0.1371  0.5471  0.0964
  540SOL     OW 2157   0.337   2.257   2.873 -0.0566 -0.4340  0.3774
  540SOL    HW1 2158   0.415   2.311   2.883  0.1582  0.2870  2.2793
  540SOL    HW2 2159   0.318   2.240   2.967  1.8202  0.0160  0.0999
  540SOL     MW 2160   0.345   2.262   2.887  0.2193 -0.2795  0.5917
  541SOL     OW 2161   0.152   2.884   2.191 -0.3918  0.4435 -0.4244
  541SOL    HW1 2162   0.125   2.807   2.137  0.2984  0.8352 -1.1885
  541SOL    HW2 2163   0.209   2.845   2.261 -0.3226 -0.1371  0.6518
  541SOL     MW 2164   0.156   2.869   2.193 -0.2916  0.4186 -0.3832
  542SOL     OW 2165   0.962   2.212   2.656  0.3552 -0.1321 -0.7887
  542SOL    HW1 2166   0.884   2.176   2.690 -1.2352 -0.7560  2.2531
  542SOL    HW2 2167   0.985   2.292   2.705  2.0084  1.1318 -1.2790
  542SOL     MW 2168   0.955   2.218   2.667  0.3635 -0.0476 -0.4521
  543SOL     OW 2169   1.433   2.513   2.670  0.2675 -0.2168  0.1130
  543SOL    HW1 2170   1.455   2.439   2.618 -2.1799 -1.0226  0.3568
  543SOL    HW2 2171   1.516   2.557   2.693  1.4870  1.3648 -1.7893
  543SOL     MW 2172   1.447   2.509   2.666  0.1055 -0.1144 -0.1058
  544SOL     OW 2173   0.575   0.218   2.729 -0.3080  0.1286  0.1073
  544SOL    HW1 2174   0.474   0.222   2.743 -1.2985 -2.6999 -0.7041
  544SOL    HW2 2175   0.594   0.162   2.651  2.9690  0.4139  0.0560
  544SOL     MW 2176   0.564   0.211   2.720 -0.0063 -0.2070 -0.0065
  545SOL     OW 2177   1.503   2.160   2.253 -0.3059  0.3121 -0.0801
  545SOL    HW1 2178   1.494   2.170   2.156  2.9540  0.6545 -1.3460
  545SOL    HW2 2179   1.598   2.130   2.257  1.2685 -0.5246 -0.9537
  545SOL     MW 2180   1.515   2.157   2.240  0.3319  0.2469 -0.3624
  546SOL     OW 2181   2.973   2.000   0.108 -0.2553  0.1598  0.3257
  546SOL    HW1 2182   2.981   2.078   0.059  1.4634 -0.8810  0.3803
  546SOL    HW2 2183   3.057   1.955   0.095 -1.1910  1.4341 -1.7821
  546SOL     MW 2184   2.985   2.004   0.100 -0.1520  0.1906  0.0548
  547SOL     OW 2185   0.192   3.009   0.147 -0.1956  0.1060  1.0031
  547SOL    HW1 2186   0.214   3.076   0.077 -0.1509  0.1717  0.4248
  547SOL    HW2 2187   0.226   2.927   0.114 -0.1225 -0.3894 -0.5965
  547SOL     MW 2188   0.199   3.007   0.133 -0.1800  0.0493  0.7157
  548SOL     OW 2189   0.322   2.530   0.267 -0.3399 -0.1543  0.3791
  548SOL    HW1 2190   0.297   2.603   0.208 -1.0728 -0.8596  2.0062
  548SOL    HW2 2191   0.247   2.476   0.269  1.9836  1.3634 -0.6374
  548SOL     MW 2192   0.309   2.533   0.259 -0.1300 -0.0471  0.4597
  549SOL     OW 2193   0.709   1.897   2.085 -0.0290 -0.1754  0.1594
  549SOL    HW1 2194   0.713   1.971   2.027 -0.1097 -1.9020  2.2326
  549SOL    HW2 2195   0.737   1.937   2.163 -0.2559 -1.8331 -1.8957
  549SOL     MW 2196   0.714   1.912   2.088 -0.0696 -0.6219  0.1618
  550SOL     OW 2197   1.849   1.770   2.536 -0.1344  0.0249  0.0716
  550SOL    HW1 2198   1.819   1.779   2.442 -0.2924  0.6030  0.8885
  550SOL    HW2 2199   1.858   1.860   2.577  0.7005 -1.7118 -2.0580
  550SOL     MW 2200   1.846   1.783   2.529 -0.0451 -0.1280 -0.1016
  551SOL     OW 2201   0.875   2.340   0.200  0.0910  0.1662 -0.0324
  551SOL    HW1 2202   0.966   2.373   0.208 -2.2585 -0.5223 -1.5353
  551SOL    HW2 2203   0.891   2.244   0.187  0.9066  0.0897 -3.3187
  551SOL     MW 2204   0.889   2.332   0.199 -0.1114  0.0652 -0.6643
  552SOL     OW 2205   1.772   1.779   2.280 -0.6278 -0.5883 -0.6728
  552SOL    HW1 2206   1.677   1.746   2.282 -0.6950  0.2821  1.4369
  552SOL    HW2 2207   1.820   1.727   2.200 -0.1641 -3.4046 -1.2064
  552SOL     MW 2208   1.766   1.768   2.270 -0.5755 -0.8451 -0.4649
  553SOL     OW 2209   1.251   2.332   1.523 -0.2014 -0.1021 -0.4301
  553SOL    HW1 2210   1.286   2.243   1.509 -1.1453  0.9043 -1.5068
  553SOL    HW2 2211   1.319   2.391   1.487  3.6835 -3.2270 -1.3132
  553SOL     MW 2212   1.264   2.328   1.517  0.1867 -0.3816 -0.6887
  554SOL     OW 2213   0.599   2.854   2.660  0.1079 -0.0941  0.3104
  554SOL    HW1 2214   0.533   2.917   2.617 -0.7588  0.5632 -0.8598
  554SOL    HW2 2215   0.659   2.826   2.586 -0.7594 -0.7268 -0.5689
  554SOL     MW 2216   0.598   2.859   2.644 -0.1209 -0.0908  0.0400
  555SOL     OW 2217   0.580   2.445   2.591  0.6484  0.2402 -0.1409
  555SOL    HW1 2218   0.553   2.352   2.595 -4.5820  0.2290  1.5030
  555SOL    HW2 2219   0.659   2.446   2.546 -0.6305  3.4847  0.0240
  555SOL     MW 2220   0.587   2.433   2.586 -0.2104  0.6668  0.0978
  556SOL     OW 2221   0.949   1.809   0.166 -0.3471  0.4055  0.2703
  556SOL    HW1 2222   1.001   1.795   0.086  1.0206  0.3540  0.8406
  556SOL    HW2 2223   1.024   1.851   0.216  0.9555  2.3258 -1.3441
  556SOL     MW 2224   0.966   1.813   0.162  0.0052  0.6521  0.1325
  557SOL     OW 2225   0.902   2.688   0.502  0.2214 -0.5839  0.3722
  557SOL    HW1 2226   0.962   2.671   0.425  0.0051  0.8986 -1.5153
  557SOL    HW2 2227   0.859   2.765   0.478 -0.0394  0.7618 -0.6261
  557SOL     MW 2228   0.905   2.696   0.488  0.1584 -0.2107 -0.0085
  558SOL     OW 2229   0.262   2.196   0.060 -0.2081  0.2247 -0.0097
  558SOL    HW1 2230   0.195   2.130   0.079 -0.7809  2.5425 -1.5325
  558SOL    HW2 2231   0.248   2.275   0.110 -0.2302 -0.1830 -0.4132
  558SOL     MW 2232   0.251   2.198   0.069 -0.2866  0.4767 -0.2639
  559SOL     OW 2233   1.153   2.299   2.106 -0.3697  0.1654 -0.3852
  559SOL    HW1 2234   1.143   2.378   2.157  0.1394 -1.5233 -1.1136
  559SOL    HW2 2235   1.154   2.227   2.168 -2.8151 -0.2242  3.2830
  559SOL     MW 2236   1.152   2.300   2.121 -0.6252 -0.1088  0.0027
  560SOL     OW 2237   1.952   2.804   0.040 -0.4778 -0.0046  0.5274
  560SOL    HW1 2238   2.016   2.858   0.002 -2.1942  0.2813 -0.5653
  560SOL    HW2 2239   1.905   2.771  -0.034 -0.8529  1.0814 -0.1392
  560SOL     MW 2240   1.954   2.807   0.025 -0.7538  0.1764  0.2953
  561SOL     OW 2241   0.445   2.085   0.243  0.3048  0.7308  0.2857
  561SOL    HW1 2242   0.408   2.110   0.159  0.2003  1.6844 -0.0472
  561SOL    HW2 2243   0.492   2.159   0.263 -4.2971 -2.4411  1.3638
  561SOL     MW 2244   0.447   2.098   0.234 -0.3161  0.4381  0.3840
  562SOL     OW 2245   0.858   2.214   2.188 -0.8634  0.1124  0.7048
  562SOL    HW1 2246   0.837   2.305   2.210  0.2233 -0.9455 -0.0724
  562SOL    HW2 2247   0.944   2.200   2.217 -1.9196 -0.8757  0.1795
  562SOL     MW 2248   0.867   2.224   2.195 -0.8594 -0.1576  0.5329
  563SOL     OW 2249   1.187   0.300   0.593 -0.4231  0.4792  0.3857
  563SOL    HW1 2250   1.125   0.291   0.519 -1.0158  1.3411 -0.3028
  563SOL    HW2 2251   1.212   0.207   0.600 -0.1242  0.1353 -0.2178
  563SOL     MW 2252   1.182   0.286   0.584 -0.4619  0.5476  0.2152
  564SOL     OW 2253   1.096   2.545   2.355 -0.2639 -0.2885 -0.2729
  564SOL    HW1 2254   1.126   2.578   2.266 -1.6251 -0.0097 -0.3069
  564SOL    HW2 2255   1.134   2.613   2.419  1.9228 -0.7016 -1.5744
  564SOL     MW 2256   1.105   2.558   2.352 -0.1550 -0.3062 -0.4491
  565SOL     OW 2257   2.878   2.660   2.582  0.2876 -0.2967 -0.0174
  565SOL    HW1 2258   2.950   2.719   2.544 -1.2695  2.2364 -3.5850
  565SOL    HW2 2259   2.810   2.659   2.514  3.9099 -0.9070  1.0905
  565SOL     MW 2260   2.879   2.668   2.568  0.5601 -0.0430 -0.3419
  566SOL     OW 2261   2.211   1.884   2.394 -1.0332 -0.1770  0.2558
  566SOL    HW1 2262   2.235   1.906   2.305  0.9288  0.3020  1.1770
  566SOL    HW2 2263   2.246   1.966   2.436 -2.5875  1.1501  0.8782
  566SOL     MW 2264   2.218   1.898   2.388 -0.9794  0.0613  0.4595
  567SOL     OW 2265   1.120   2.925   3.104  0.1327  0.6553 -0.9127
  567SOL    HW1 2266   1.187   2.993   3.088 -1.7565 -0.1625 -1.3741
  567SOL    HW2 2267   1.151   2.870   3.032  0.5285 -0.2836 -1.8169
  567SOL     MW 2268   1.133   2.927   3.092 -0.0643  0.4235 -1.0929
  568SOL     OW 2269   1.625   2.015   2.922 -0.3691 -0.1482  0.0457
  568SOL    HW1 2270   1.642   2.090   2.981 -0.2074 -1.1361 -0.1393
  568SOL    HW2 2271   1.700   2.000   2.855  1.2754 -1.5396 -2.0476
  568SOL     MW 2272   1.637   2.023   2.921 -0.1308 -0.4621 -0.2549
  569SOL     OW 2273   0.224   2.211   2.432  0.0627 -0.0551 -0.0029
  569SOL    HW1 2274   0.164   2.255   2.360 -0.0285  0.0626 -0.6439
  569SOL    HW2 2275   0.215   2.265   2.512  0.0530 -1.0797 -0.7219
  569SOL     MW 2276   0.215   2.224   2.433  0.0494 -0.1748 -0.1823
  570SOL     OW 2277   1.473   0.457   0.490  0.2360 -0.2195  0.1344
  570SOL    HW1 2278   1.389   0.411   0.513  0.6326 -1.6206 -0.3946
  570SOL    HW2 2279   1.510   0.471   0.580  0.1351  1.8514  1.1382
  570SOL     MW 2280   1.467   0.453   0.505  0.2750 -0.1311  0.1971
  571SOL     OW 2281   1.494   2.421   1.995 -0.1772  0.6565  0.1705
  571SOL    HW1 2282   1.540   2.453   2.072  1.2140 -3.6648  1.0067
  571SOL    HW2 2283   1.463   2.332   2.020  0.6951 -0.1117 -3.0604
  571SOL     MW 2284   1.496   2.413   2.008  0.1214 -0.0150 -0.1455
  572SOL     OW 2285   0.910   2.675   0.076 -0.1606 -0.5202  0.0143
  572SOL    HW1 2286   0.951   2.680  -0.009 -0.4586  0.8523 -1.4588
  572SOL    HW2 2287   0.827   2.631   0.056 -0.8963  0.5629 -2.8592
  572SOL     MW 2288   0.905   2.670   0.062 -0.2970 -0.1962 -0.5592
  573SOL     OW 2289   1.148   2.361   0.237 -0.2403 -0.0451  0.7970
  573SOL    HW1 2290   1.241   2.370   0.195 -1.8031 -0.9195  1.0088
  573SOL    HW2 2291   1.126   2.456   0.264 -0.2900  0.9546  1.4587
  573SOL     MW 2292   1.158   2.375   0.235 -0.4530 -0.0286  0.9122
  574SOL     OW 2293   1.068   2.616   0.300 -0.6122 -0.4508 -0.1269
  574SOL    HW1 2294   1.159   2.663   0.311  0.3390  0.7760  1.0544
  574SOL    HW2 2295   1.032   2.652   0.216  0.9079  0.0056  0.3568
  574SOL     MW 2296   1.075   2.627   0.290 -0.2861 -0.2287  0.0927
  575SOL     OW 2297   3.072   2.291   1.796  0.1827 -0.1015  0.0101
  575SOL    HW1 2298   3.056   2.210   1.751 -0.2787  0.8743 -1.5126
  575SOL    HW2 2299   3.148   2.336   1.751  0.5837 -0.6012  0.5507
  575SOL     MW 2300   3.080   2.286   1.784  0.1747 -0.0387 -0.1194
  576SOL     OW 2301   2.815   1.841   2.022 -0.3417  0.4398 -0.7631
  576SOL    HW1 2302   2.863   1.922   1.989  2.3423  1.2457  2.3263
  576SOL    HW2 2303   2.725   1.837   1.989 -1.6923 -1.0713  0.2575
  576SOL     MW 2304   2.810   1.851   2.013 -0.1658  0.3467 -0.2208
  577SOL     OW 2305   2.090   0.315   0.072  0.1511 -0.0830  0.2444
  577SOL    HW1 2306   2.026   0.320  -0.003  2.5065  1.9186 -0.6830
  577SOL    HW2 2307   2.047   0.258   0.132  0.7542 -2.2983  1.5763
  577SOL     MW 2308   2.076   0.308   0.070  0.5414 -0.1112  0.2978
  578SOL     OW 2309   1.981   2.014   2.477 -0.1224 -0.3163  0.0295
  578SOL    HW1 2310   1.944   2.054   2.394  0.0177  2.2974 -0.7980
  578SOL    HW2 2311   2.054   1.960   2.451 -0.9623  1.3905 -0.6145
  578SOL     MW 2312   1.986   2.012   2.463 -0.2147  0.2538 -0.1646
  579SOL     OW 2313   0.890   2.458   2.494 -0.1791  0.4931 -0.2025
  579SOL    HW1 2314   0.905   2.373   2.536  2.1667  1.2835  0.1134
  579SOL    HW2 2315   0.977   2.481   2.449  0.4861 -0.1265  0.8225
  579SOL     MW 2316   0.904   2.449   2.493  0.2182  0.5157 -0.0256
  580SOL     OW 2317   0.860   2.976   0.044  0.4355  0.1503 -0.3764
  580SOL    HW1 2318   0.959   2.961   0.053  1.6289 -1.1669  0.6553
  580SOL    HW2 2319   0.824   2.926  -0.032  1.2580 -0.8666 -3.3357
  580SOL     MW 2320   0.868   2.967   0.035  0.7015 -0.1577 -0.6308
  581SOL     OW 2321   1.107   2.424   1.736  0.0615 -0.0071  0.6990
  581SOL    HW1 2322   1.150   2.507   1.758  1.8983 -0.4507  1.1959
  581SOL    HW2 2323   1.173   2.381   1.677  0.8111  1.8607  2.2211
  581SOL     MW 2324   1.122   2.429   1.731  0.4027  0.1808  0.9654
  582SOL     OW 2325   3.079   2.818   2.507  0.3492  0.1950  0.2117
  582SOL    HW1 2326   3.079   2.912   2.546 -2.1433  1.8547 -0.2598
  582SOL    HW2 2327   3.173   2.808   2.503 -1.3086  2.5916  0.9825
  582SOL     MW 2328   3.091   2.829   2.512 -0.1984  0.7302  0.2512
  583SOL     OW 2329   1.941   2.432   2.641 -0.0772 -0.5027  0.0730
  583SOL    HW1 2330   2.028   2.450   2.603 -0.6048  0.7696  0.4118
  583SOL    HW2 2331   1.964   2.346   2.685 -2.1089  0.5304  0.7089
  583SOL     MW 2332   1.956   2.423   2.642 -0.4149 -0.1985  0.2016
  584SOL     OW 2333   0.200   1.893   2.046  0.1902  0.0031 -0.2288
  584SOL    HW1 2334   0.284   1.845   2.027  4.0755  2.0889 -2.5282
  584SOL    HW2 2335   0.224   1.966   2.098 -1.7454 -0.7329 -1.2261
  584SOL     MW 2336   0.214   1.896   2.051  0.4475  0.1812 -0.6637
  585SOL     OW 2337   1.470   2.677   0.061 -0.1047 -0.2362  0.3500
  585SOL    HW1 2338   1.420   2.654  -0.012 -3.6019  1.0599 -0.2678
  585SOL    HW2 2339   1.405   2.677   0.135  0.1002 -0.3748 -1.0658
  585SOL     MW 2340   1.455   2.674   0.061 -0.5391 -0.0835  0.0817
  586SOL     OW 2341   1.373   2.834   2.405  0.2569  0.1103  1.0274
  586SOL    HW1 2342   1.439   2.800   2.344 -0.3543 -1.4883 -1.1524
  586SOL    HW2 2343   1.384   2.925   2.416 -0.8370 -3.2252 -0.8483
  586SOL     MW 2344   1.383   2.842   2.398  0.0319 -0.5407  0.4923
  587SOL     OW 2345   1.282   1.562   2.133 -0.0629  0.2240 -0.2955
  587SOL    HW1 2346   1.287   1.494   2.206  1.5850  0.2755  1.1170
  587SOL    HW2 2347   1.275   1.519   2.043 -0.0963 -0.5987  0.6334
  587SOL     MW 2348   1.281   1.547   2.131  0.1501  0.1222  0.0135
  588SOL     OW 2349   1.408   2.171   2.743  0.0372 -0.4369  0.4768
  588SOL    HW1 2350   1.489   2.129   2.771  1.9436  2.6796 -0.7361
  588SOL    HW2 2351   1.354   2.184   2.819 -3.0795  1.9792 -1.4454
  588SOL     MW 2352   1.412   2.168   2.757 -0.1225  0.2930  0.0631
  589SOL     OW 2353   1.359   2.110   0.067 -0.7365 -0.1535  0.2057
  589SOL    HW1 2354   1.385   2.201   0.086 -0.5665 -1.1908 -0.2024
  589SOL    HW2 2355   1.278   2.085   0.114 -0.0193 -1.2730  1.2228
  589SOL     MW 2356   1.352   2.119   0.076 -0.6194 -0.4380  0.2861
  590SOL     OW 2357   0.421   2.554   2.282 -0.0709  0.4286 -0.2864
  590SOL    HW1 2358   0.378   2.573   2.193 -0.5830  0.0884 -0.4160
  590SOL    HW2 2359   0.487   2.621   2.298  0.9265 -0.5983 -0.2720
  590SOL     MW 2360   0.424   2.565   2.273 -0.0069  0.2482 -0.3016
  591SOL     OW 2361   2.293   0.697   0.013 -0.3451  0.5409 -0.6007
  591SOL    HW1 2362   2.217   0.740  -0.015 -0.2830 -1.6406 -1.4768
  591SOL    HW2 2363   2.358   0.722  -0.047  0.8676 -1.4534  3.0076
  591SOL     MW 2364   2.291   0.706   0.001 -0.1769 -0.0101 -0.2402
  592SOL     OW 2365   1.866   2.994   0.786 -0.5014 -0.8501  0.4827
  592SOL    HW1 2366   1.862   3.049   0.708  2.3391 -1.2299  1.2455
  592SOL    HW2 2367   1.915   2.915   0.757  0.5533  2.0279  1.6803
  592SOL     MW 2368   1.872   2.991   0.772  0.0125 -0.5205  0.7413
  593SOL     OW 2369   1.914   0.766   0.854  0.3070 -0.2671 -0.1243
  593SOL    HW1 2370   1.832   0.767   0.808 -0.1686  0.5451  1.0983
  593SOL    HW2 2371   1.917   0.673   0.882 -0.0837 -1.6516 -2.7504
  593SOL     MW 2372   1.903   0.754   0.852  0.1927 -0.3426 -0.3095
  594SOL     OW 2373   2.767   1.147   1.397 -0.0638  0.3036  0.3233
  594SOL    HW1 2374   2.862   1.159   1.419 -0.9603 -0.4051  2.4430
  594SOL    HW2 2375   2.768   1.093   1.318  0.1774 -0.9450  1.9336
  594SOL     MW 2376   2.780   1.141   1.389 -0.1502  0.0453  0.8154
  595SOL     OW 2377   0.489   0.930   0.729  0.1579  0.0492  0.4507
  595SOL    HW1 2378   0.530   0.988   0.661  1.2251 -1.2212 -0.7875
  595SOL    HW2 2379   0.480   0.988   0.805  0.1468  0.9686  0.7375
  595SOL     MW 2380   0.493   0.945   0.730  0.2972  0.0029  0.3252
  596SOL     OW 2381   2.463   1.372   0.518  0.5440 -0.7379 -0.3920
  596SOL    HW1 2382   2.487   1.458   0.479  0.1593 -3.2366  0.4844
  596SOL    HW2 2383   2.527   1.366   0.587 -0.7907  0.8809 -1.5174
  596SOL     MW 2384   2.474   1.382   0.522  0.3172 -0.8540 -0.4249
  597SOL     OW 2385   2.184   0.677   1.632  0.0811  0.2404 -0.7522
  597SOL    HW1 2386   2.221   0.614   1.698 -3.3892  1.5939  1.6328
  597SOL    HW2 2387   2.105   0.633   1.592 -0.6287 -1.0140 -0.2102
  597SOL     MW 2388   2.179   0.663   1.635 -0.4704  0.2535 -0.3660
  598SOL     OW 2389   2.615   1.009   2.899 -0.5061 -0.1357  0.1356
  598SOL    HW1 2390   2.653   0.975   2.812 -1.3921 -1.6479  3.0432
  598SOL    HW2 2391   2.694   1.054   2.941  1.7923  0.2331  2.9700
  598SOL     MW 2392   2.630   1.010   2.893 -0.3197 -0.2866  0.8932
  599SOL     OW 2393   2.927   0.376   2.077 -0.5817  0.7133  0.1254
  599SOL    HW1 2394   2.901   0.378   2.170  1.7852  1.5082 -0.7377
  599SOL    HW2 2395   2.961   0.467   2.050  1.1164  0.7049 -1.1735
  599SOL     MW 2396   2.928   0.388   2.086 -0.0454  0.8171 -0.1598
  600SOL     OW 2397   1.898   1.762   0.888 -0.0446  0.3549 -0.2796
  600SOL    HW1 2398   1.934   1.803   0.969  1.8476  0.8112  0.4069
  600SOL    HW2 2399   1.806   1.800   0.876  0.0268 -2.8805  0.8387
  600SOL     MW 2400   1.890   1.773   0.897  0.2145 -0.0118 -0.0415
  601SOL     OW 2401   2.516   0.800   0.821  0.2487  0.0388  0.1712
  601SOL    HW1 2402   2.508   0.797   0.918 -0.8190 -1.8806  0.7037
  601SOL    HW2 2403   2.460   0.718   0.794 -0.2906 -0.6878  1.1997
  601SOL     MW 2404   2.507   0.789   0.830  0.0367 -0.3103  0.3772
  602SOL     OW 2405   2.308   1.946   0.836  0.2334  0.1331  0.4199
  602SOL    HW1 2406   2.255   1.867   0.869 -0.6424 -1.1402  0.0531
  602SOL    HW2 2407   2.257   1.985   0.766 -2.8514  1.9536  0.4230
  602SOL     MW 2408   2.294   1.941   0.831 -0.2892  0.2053  0.3719
  603SOL     OW 2409   0.003   1.386   1.786 -0.0540 -0.3135  0.1580
  603SOL    HW1 2410   0.005   1.403   1.883 -0.7790  1.8765  0.6270
  603SOL    HW2 2411  -0.025   1.298   1.781 -1.6738  1.9306  0.3399
  603SOL     MW 2412  -0.000   1.377   1.798 -0.3634  0.2715  0.2439
  604SOL     OW 2413   2.098   1.563   0.460 -0.1254 -0.2274  0.1049
  604SOL    HW1 2414   2.127   1.487   0.510 -0.5216 -0.2401 -3.3059
  604SOL    HW2 2415   2.030   1.618   0.507  1.8014 -2.5418 -0.9370
  604SOL     MW 2416   2.093   1.560   0.473  0.0765 -0.5344 -0.4826
  605SOL     OW 2417   2.652   1.536   0.853 -0.1287 -0.2893  0.1274
  605SOL    HW1 2418   2.592   1.601   0.814  0.4500 -0.2236 -0.1065
  605SOL    HW2 2419   2.636   1.454   0.802 -2.9143  0.8819 -2.1551
  605SOL     MW 2420   2.642   1.534   0.841 -0.4199 -0.1261 -0.2046
  606SOL     OW 2421   2.579   1.822   1.870  0.2387  0.4632  0.9392
  606SOL    HW1 2422   2.484   1.811   1.871  0.3914  1.1134  0.6929
  606SOL    HW2 2423   2.604   1.729   1.846 -1.0534  0.3374 -1.2482
  606SOL     MW 2424   2.570   1.809   1.867  0.0884  0.5324  0.6181
  607SOL     OW 2425   2.379   1.027   3.020 -0.0361  0.3768  1.2788
  607SOL    HW1 2426   2.471   1.021   2.993 -0.7915  0.7760 -0.1020
  607SOL    HW2 2427   2.379   1.000   3.116 -3.5091 -0.6815 -0.9160
  607SOL     MW 2428   2.391   1.023   3.029 -0.5940  0.2899  0.8071
  608SOL     OW 2429   1.912   0.307   0.597  0.4447 -0.1965  0.4346
  608SOL    HW1 2430   1.898   0.366   0.522 -1.7299 -0.9200 -0.4435
  608SOL    HW2 2431   1.883   0.223   0.556  1.0662  1.0752  2.6290
  608SOL     MW 2432   1.906   0.304   0.582  0.2398 -0.1241  0.6083
  609SOL     OW 2433   2.109   1.966   3.047 -0.6979  0.1450 -0.1576
  609SOL    HW1 2434   2.037   1.904   3.024  0.7503 -1.7997  0.3418
  609SOL    HW2 2435   2.152   1.933   3.129  0.5861  0.5803 -1.2243
  609SOL     MW 2436   2.105   1.954   3.055 -0.3374 -0.0542 -0.2325
  610SOL     OW 2437   1.784   1.027   1.235  0.4441  0.0433 -0.3131
  610SOL    HW1 2438   1.779   0.934   1.218  1.5801  1.4978  1.1489
  610SOL    HW2 2439   1.697   1.062   1.262 -1.5190  0.9786  1.9522
  610SOL     MW 2440   1.772   1.020   1.236  0.3350  0.3586  0.1787
  611SOL     OW 2441   2.486   1.716   0.705  0.1093  1.0489 -0.3078
  611SOL    HW1 2442   2.422   1.787   0.715  0.2881 -0.8015 -1.7666
  611SOL    HW2 2443   2.551   1.730   0.633  1.1497 -2.3134  3.0285
  611SOL     MW 2444   2.486   1.727   0.696  0.2701  0.3611 -0.0601
  612SOL     OW 2445   2.804   2.836   0.405  0.0709  0.4372 -0.0676
  612SOL    HW1 2446   2.839   2.866   0.490  1.4795 -0.9037 -0.2031
  612SOL    HW2 2447   2.884   2.804   0.365  0.4331 -0.6488 -0.0240
  612SOL     MW 2448   2.819   2.836   0.411  0.3045  0.1170 -0.0797
  613SOL     OW 2449   1.480   0.986   0.972  0.0290 -0.1238 -0.2922
  613SOL    HW1 2450   1.515   1.076   0.971  1.2003 -1.2595 -1.2654
  613SOL    HW2 2451   1.495   0.952   1.066 -1.3599  0.3759  0.4543
  613SOL     MW 2452   1.487   0.993   0.984  0.0003 -0.2077 -0.3221
  614SOL     OW 2453   1.977   0.544   1.520 -0.1934  0.1586 -0.3942
  614SOL    HW1 2454   1.971   0.452   1.552 -2.4694 -1.8646  0.3668
  614SOL    HW2 2455   1.957   0.529   1.427  1.0412  0.9315 -1.4477
  614SOL     MW 2456   1.974   0.530   1.512 -0.3308 -0.0064 -0.4328
  615SOL     OW 2457   2.313   0.745   0.287  0.9732 -0.1272  0.1005
  615SOL    HW1 2458   2.399   0.706   0.291  1.2529  0.8608 -0.3520
  615SOL    HW2 2459   2.284   0.728   0.196  0.8776 -1.4195 -0.3702
  615SOL     MW 2460   2.321   0.738   0.276  0.9975 -0.1673 -0.0213
  616SOL     OW 2461   2.532   0.378   1.579  0.0124  0.6211  0.0714
  616SOL    HW1 2462   2.472   0.311   1.538  2.7774 -1.1652  1.1401
  616SOL    HW2 2463   2.564   0.440   1.514 -0.4312  0.6042  1.0423
  616SOL     MW 2464   2.529   0.377   1.565  0.3187  0.3831  0.3405
  617SOL     OW 2465   2.924   0.567   1.730  0.4599  0.0688 -0.1997
  617SOL    HW1 2466   2.831   0.581   1.761 -0.2955 -0.4247  0.5366
  617SOL    HW2 2467   2.928   0.475   1.709  0.8724  2.2533 -2.3510
  617SOL     MW 2468   2.913   0.557   1.732  0.4147  0.2919 -0.3864
  618SOL     OW 2469   2.659   0.323   1.982  0.4944 -0.1111  0.0014
  618SOL    HW1 2470   2.654   0.386   1.910 -0.1916 -0.4743 -1.6718
  618SOL    HW2 2471   2.751   0.338   2.019 -0.6180  1.4931  0.1608
  618SOL     MW 2472   2.671   0.333   1.977  0.2571  0.0527 -0.1984
  619SOL     OW 2473   2.660   0.697   0.142  0.4686 -0.4610 -0.0741
  619SOL    HW1 2474   2.720   0.771   0.141 -2.1539 -0.7010  2.3745
  619SOL    HW2 2475   2.637   0.676   0.231 -2.2060 -2.9266  0.1145
  619SOL     MW 2476   2.665   0.704   0.154 -0.2303 -0.8180  0.2738
  620SOL     OW 2477   2.331   1.046   0.998  0.0863 -0.2738 -0.6206
  620SOL    HW1 2478   2.368   1.076   0.915  0.2823 -0.0473  0.3737
  620SOL    HW2 2479   2.269   0.971   0.985  0.2612 -1.8346 -0.8380
  620SOL     MW 2480   2.327   1.040   0.986  0.1352 -0.4498 -0.5181
  621SOL     OW 2481   1.454   2.150   1.995  0.1159  0.0991 -0.5835
  621SOL    HW1 2482   1.399   2.078   2.014 -0.7789  2.6131 -1.5897
  621SOL    HW2 2483   1.540   2.120   1.974  1.5437 -0.6069 -1.0136
  621SOL     MW 2484   1.458   2.137   1.995  0.1862  0.3376 -0.7730
  622SOL     OW 2485   2.605   0.158   0.279 -0.3837  0.0338  0.1026
  622SOL    HW1 2486   2.696   0.188   0.260 -0.6249  1.1374 -2.0935
  622SOL    HW2 2487   2.594   0.067   0.311 -0.4289 -0.7238  0.4788
  622SOL     MW 2488   2.616   0.150   0.280 -0.4215  0.0794 -0.1375
  623SOL     OW 2489   2.344   2.771   0.884 -0.0633  0.5060 -0.6295
  623SOL    HW1 2490   2.412   2.838   0.888  0.8918  1.0231  1.0684
  623SOL    HW2 2491   2.267   2.802   0.935  0.4534 -1.5014 -0.9638
  623SOL     MW 2492   2.343   2.784   0.892  0.1309  0.3094 -0.4496
  624SOL     OW 2493   2.203   1.683   3.003  0.3353  0.0363  0.2588
  624SOL    HW1 2494   2.160   1.599   3.032 -0.2159 -1.3637 -1.2642
  624SOL    HW2 2495   2.131   1.746   2.973 -2.3557 -0.6674  0.2992
  624SOL     MW 2496   2.188   1.680   3.003 -0.0925 -0.2413  0.0632
  625SOL     OW 2497   2.194   2.029   1.118 -0.2894 -0.0905  0.3630
  625SOL    HW1 2498   2.260   1.958   1.104  1.0302 -1.1631 -0.2073
  625SOL    HW2 2499   2.249   2.104   1.095 -4.0201  1.3936 -0.5662
  625SOL     MW 2500   2.210   2.030   1.113 -0.6075 -0.0362  0.1651
  626SOL     OW 2501   0.208   1.568   2.342  0.2922 -0.9201 -0.3732
  626SOL    HW1 2502   0.182   1.481   2.309 -2.3230  2.2651 -0.3910
  626SOL    HW2 2503   0.143   1.570   2.417  0.1468 -2.6613  1.4912
  626SOL     MW 2504   0.196   1.557   2.348 -0.0721 -0.7296 -0.1296
  627SOL     OW 2505   2.463   0.801   2.639 -0.3156 -0.2354 -0.1105
  627SOL    HW1 2506   2.432   0.890   2.627 -2.2854 -0.9149  0.9597
  627SOL    HW2 2507   2.461   0.770   2.547  0.8279  0.9676 -3.1801
  627SOL     MW 2508   2.459   0.808   2.625 -0.4246 -0.1663 -0.3743
  628SOL     OW 2509   2.233   1.344   1.387  0.1495  0.2895  0.1149
  628SOL    HW1 2510   2.211   1.282   1.316  0.2276 -0.4584 -1.6285
  628SOL    HW2 2511   2.329   1.349   1.393 -2.4552 -0.7162  1.5346
  628SOL     MW 2512   2.243   1.336   1.378 -0.1839  0.0581  0.0722
  629SOL     OW 2513   1.949   0.550   1.236 -0.3169 -0.3214 -0.1911
  629SOL    HW1 2514   2.015   0.621   1.223  1.3373 -0.4243  2.0205
  629SOL    HW2 2515   1.868   0.587   1.265 -0.5704 -2.0663 -0.7901
  629SOL     MW 2516   1.947   0.564   1.238 -0.1321 -0.5652  0.0217
  630SOL     OW 2517   2.438   1.822   3.075 -0.2329 -0.1126  0.1706
  630SOL    HW1 2518   2.450   1.889   3.004 -0.3403  0.1892  2.3796
  630SOL    HW2 2519   2.369   1.770   3.041  1.3722  1.0323  1.0890
  630SOL     MW 2520   2.430   1.824   3.061 -0.0353  0.0783  0.5832
  631SOL     OW 2521   1.964   1.822   1.568 -0.4354  0.0976  0.0688
  631SOL    HW1 2522   1.979   1.737   1.615 -0.1487 -0.4301  1.2452
  631SOL    HW2 2523   1.925   1.798   1.486 -0.5889  1.3257  1.5566
  631SOL     MW 2524   1.961   1.808   1.564 -0.4178  0.1900  0.4203
  632SOL     OW 2525   0.095   2.037   1.478  0.5691 -0.4149 -0.0032
  632SOL    HW1 2526   0.036   2.044   1.552  0.0737 -2.0202  1.3348
  632SOL    HW2 2527   0.117   1.943   1.478  0.8935  3.0533  1.8552
  632SOL     MW 2528   0.090   2.025   1.488  0.5465 -0.1691  0.4186
  633SOL     OW 2529   2.548   0.622   0.397  0.4147 -0.7277  0.1591
  633SOL    HW1 2530   2.626   0.597   0.443  1.8579  2.5683 -2.8069
  633SOL    HW2 2531   2.486   0.552   0.421 -1.3015 -1.6699  1.7115
  633SOL     MW 2532   2.550   0.609   0.406  0.3787 -0.4171 -0.0274
  634SOL     OW 2533   2.661   3.029   0.647 -0.0608  0.0709 -0.4904
  634SOL    HW1 2534   2.696   3.122   0.657 -0.6560  3.2314 -0.7338
  634SOL    HW2 2535   2.634   3.022   0.554  2.6504 -1.9140 -0.5656
  634SOL     MW 2536   2.662   3.040   0.636  0.2184  0.2260 -0.5324
  635SOL     OW 2537   2.596   0.071   1.861  0.2881 -0.6095  0.4798
  635SOL    HW1 2538   2.678   0.030   1.827 -0.7736  2.0081 -0.7356
  635SOL    HW2 2539   2.617   0.169   1.876  1.1510  1.8581  0.2945
  635SOL     MW 2540   2.610   0.078   1.858  0.2619  0.0615  0.2950
  636SOL     OW 2541   2.936   1.724   1.086  0.3892 -0.5622  0.3572
  636SOL    HW1 2542   2.858   1.774   1.068  2.6781  0.5083  2.1590
  636SOL    HW2 2543   2.999   1.786   1.118  1.5930 -0.8414  1.1040
  636SOL     MW 2544   2.934   1.738   1.088  0.8500 -0.4578  0.6935
  637SOL     OW 2545   2.906   1.490   0.626  0.1116 -0.0712 -0.0728
  637SOL    HW1 2546   2.948   1.575   0.624 -0.4571 -0.7616  0.7553
  637SOL    HW2 2547   2.846   1.501   0.698  1.0995 -0.4484  1.6906
  637SOL     MW 2548   2.904   1.503   0.635  0.1669 -0.2120  0.2691
  638SOL     OW 2549   2.770   0.521   0.531  0.6796 -0.4401  0.3193
  638SOL    HW1 2550   2.853   0.558   0.510 -0.1388  1.2902 -2.1868
  638SOL    HW2 2551   2.749   0.555   0.616 -1.2855 -1.1677 -2.8558
  638SOL     MW 2552   2.778   0.530   0.540  0.3124 -0.3078 -0.4302
  639SOL     OW 2553   1.773   0.053   0.570 -0.1780  0.1789  0.1490
  639SOL    HW1 2554   1.681   0.083   0.551 -0.8222  2.7022 -1.3662
  639SOL    HW2 2555   1.786  -0.020   0.507 -1.4183 -1.3553  0.3672
  639SOL     MW 2556   1.762   0.047   0.559 -0.4266  0.3094 -0.0221
  640SOL     OW 2557   0.369   1.373   0.064  0.2207 -0.4782  0.0829
  640SOL    HW1 2558   0.412   1.362  -0.022  1.2778 -0.8729  0.6615
  640SOL    HW2 2559   0.355   1.274   0.072 -0.1783 -0.7758  0.0014
  640SOL     MW 2560   0.373   1.358   0.053  0.3075 -0.5696  0.1485
  641SOL     OW 2561   2.242   0.434   0.368  0.3212 -0.5868 -0.1595
  641SOL    HW1 2562   2.280   0.458   0.286  1.2504  0.7013  0.6431
  641SOL    HW2 2563   2.269   0.342   0.371 -0.1166  0.2508 -1.2444
  641SOL     MW 2564   2.251   0.425   0.358  0.3860 -0.3063 -0.1967
  642SOL     OW 2565   0.020   3.093   0.603  0.5789  0.5886  0.0110
  642SOL    HW1 2566  -0.039   3.154   0.558 -0.0775 -0.7237  0.9182
  642SOL    HW2 2567  -0.038   3.026   0.630  0.5921  0.5755 -2.6283
  642SOL     MW 2568   0.005   3.092   0.600  0.4940  0.4137 -0.2175
  643SOL     OW 2569   2.092   0.319   1.708  0.4436 -0.2433 -0.1526
  643SOL    HW1 2570   2.049   0.278   1.781  1.1848 -1.1036 -2.2132
  643SOL    HW2 2571   2.108   0.251   1.645 -2.2314 -1.6901  2.2666
  643SOL     MW 2572   2.089   0.305   1.709  0.1885 -0.5477 -0.1053
  644SOL     OW 2573   2.733   1.962   1.068  0.5827  0.0827 -0.3290
  644SOL    HW1 2574   2.694   1.896   1.134 -0.5998  0.8421  2.7084
  644SOL    HW2 2575   2.656   2.009   1.040 -0.4066  2.0362  0.2855
  644SOL     MW 2576   2.718   1.959   1.073  0.2962  0.4407  0.1528
  645SOL     OW 2577   2.833   0.864   0.689  0.0130 -0.0632 -0.1673
  645SOL    HW1 2578   2.918   0.830   0.670  0.0850  2.5410  1.0329
  645SOL    HW2 2579   2.787   0.791   0.732  1.1281 -2.0411 -0.2235
  645SOL     MW 2580   2.838   0.850   0.692  0.1697  0.0195 -0.0164
  646SOL     OW 2581   0.186   2.289   0.772 -0.3335  0.0632 -0.4319
  646SOL    HW1 2582   0.195   2.197   0.822  0.5147 -3.2019  2.4851
  646SOL    HW2 2583   0.103   2.297   0.720 -0.0161 -1.0126  1.0392
  646SOL     MW 2584   0.176   2.278   0.772 -0.1797 -0.5096  0.1470
  647SOL     OW 2585   2.716   0.503   2.972 -0.3863  0.3734  0.2954
  647SOL    HW1 2586   2.666   0.434   3.022 -0.4317  2.0182  2.1768
  647SOL    HW2 2587   2.660   0.586   2.977  0.4517 -1.8363  0.0585
  647SOL     MW 2588   2.702   0.505   2.980 -0.2817  0.2988  0.5123
  648SOL     OW 2589   2.140   0.725   1.108 -0.4379 -0.3253 -0.5755
  648SOL    HW1 2590   2.158   0.740   1.015  1.2753  1.3651 -1.1553
  648SOL    HW2 2591   2.171   0.802   1.156 -0.1370  0.2956  3.2819
  648SOL     MW 2592   2.147   0.737   1.102 -0.1722 -0.0204 -0.1431
  649SOL     OW 2593   2.333   2.754   1.292 -0.4748 -0.4548  0.0419
  649SOL    HW1 2594   2.407   2.819   1.305 -0.2560 -0.8451 -0.8494
  649SOL    HW2 2595   2.366   2.665   1.264  0.4264  0.4279 -2.0126
  649SOL     MW 2596   2.347   2.751   1.290 -0.3270 -0.3899 -0.3468
  650SOL     OW 2597   2.817   0.167   0.671 -0.2721  0.0429 -0.1423
  650SOL    HW1 2598   2.842   0.254   0.704 -1.9187 -0.6168  0.2732
  650SOL    HW2 2599   2.842   0.172   0.579  3.7843 -1.5470  0.9881
  650SOL     MW 2600   2.824   0.179   0.663  0.0459 -0.2539  0.0617
  651SOL     OW 2601   2.997   0.425   0.754 -0.3457 -0.4619 -0.2053
  651SOL    HW1 2602   3.088   0.436   0.755 -1.9801 -0.4317 -1.2560
  651SOL    HW2 2603   2.975   0.502   0.808  1.0741  1.6819 -1.0480
  651SOL     MW 2604   3.006   0.437   0.761 -0.3740 -0.1751 -0.4551
  652SOL     OW 2605   2.406   1.488   3.025 -0.1378  0.5388 -0.1037
  652SOL    HW1 2606   2.466   1.498   2.954  1.0312  3.1706 -0.2023
  652SOL    HW2 2607   2.344   1.552   3.001  0.8157  1.3521  3.1240
  652SOL     MW 2608   2.406   1.498   3.012  0.1422  0.9933  0.3091
  653SOL     OW 2609   1.931   0.451   0.356 -0.2693 -0.0285  0.0734
  653SOL    HW1 2610   1.920   0.392   0.286 -1.6360 -0.7660  1.7719
  653SOL    HW2 2611   2.024   0.455   0.362  1.3550  1.9462 -2.1590
  653SOL     MW 2612   1.942   0.444   0.347 -0.2353  0.1348  0.0030
  654SOL     OW 2613   2.457   1.066   0.729 -0.0262  0.2189  0.3486
  654SOL    HW1 2614   2.361   1.057   0.728 -0.6096  0.6334  0.0190
  654SOL    HW2 2615   2.483   0.970   0.731 -0.7752  0.1692  2.9314
  654SOL     MW 2616   2.448   1.052   0.729 -0.2020  0.2670  0.6459
  655SOL     OW 2617   2.961   0.890   0.390 -0.1150 -0.5702  0.4516
  655SOL    HW1 2618   2.902   0.923   0.460 -2.0309  0.0957 -0.6284
  655SOL    HW2 2619   2.976   0.796   0.413 -1.5090 -0.8877 -2.4570
  655SOL     MW 2620   2.955   0.882   0.403 -0.5517 -0.5242 -0.0747
  656SOL     OW 2621   1.945   2.727   1.245 -0.3505  0.5266  0.7290
  656SOL    HW1 2622   1.926   2.797   1.303 -0.4735  1.9300  1.2477
  656SOL    HW2 2623   1.991   2.667   1.299 -1.6044  0.1547 -0.1723
  656SOL     MW 2624   1.948   2.728   1.260 -0.5321  0.6627  0.6785
  657SOL     OW 2625   0.163   1.610   1.296 -0.1859  0.3154  0.3944
  657SOL    HW1 2626   0.070   1.625   1.273 -0.2902  3.2359 -0.8410
  657SOL    HW2 2627   0.169   1.513   1.292 -0.6113  0.6132 -0.1077
  657SOL     MW 2628   0.152   1.599   1.292 -0.2558  0.7400  0.1651
  658SOL     OW 2629   2.694   1.317   0.190 -0.1686 -0.3799  0.3537
  658SOL    HW1 2630   2.649   1.253   0.248 -0.9773  0.1526 -0.0728
  658SOL    HW2 2631   2.751   1.360   0.254 -0.7358 -3.3241  1.3198
  658SOL     MW 2632   2.695   1.314   0.206 -0.3502 -0.6981  0.4249
  659SOL     OW 2633   2.298   1.512   1.046 -0.2102 -0.1491  0.7074
  659SOL    HW1 2634   2.391   1.503   1.036 -3.9003 -1.1742 -3.1423
  659SOL    HW2 2635   2.291   1.540   1.135  0.7160 -2.7784  1.1454
  659SOL     MW 2636   2.309   1.515   1.056 -0.5749 -0.6313  0.2573
  660SOL     OW 2637   2.033   1.589   1.689  0.2618  0.0229  0.3503
  660SOL    HW1 2638   2.062   1.586   1.778 -0.2240 -0.8066 -2.7499
  660SOL    HW2 2639   1.975   1.512   1.678  1.9691 -0.1899  0.6156
  660SOL     MW 2640   2.029   1.579   1.700  0.4229 -0.1146 -0.0238
  661SOL     OW 2641   2.364   1.015   0.199  0.1671 -0.1813 -0.4991
  661SOL    HW1 2642   2.447   1.047   0.249  1.0657  0.0670  0.2712
  661SOL    HW2 2643   2.353   0.929   0.245 -0.8117  0.9850 -1.1795
  661SOL     MW 2644   2.374   1.008   0.212  0.1565  0.0053 -0.4872
  662SOL     OW 2645   2.556   2.968   0.882  0.8014  0.7122  0.1563
  662SOL    HW1 2646   2.502   3.042   0.912  3.8413 -0.8295  0.1129
  662SOL    HW2 2647   2.589   2.989   0.794  2.2262  1.7560  0.3693
  662SOL     MW 2648   2.553   2.980   0.875  1.3905  0.6465  0.1787
  663SOL     OW 2649   2.818   1.491   0.356 -0.8144  0.4495  0.1153
  663SOL    HW1 2650   2.744   1.532   0.393 -0.0124 -1.6010 -0.7073
  663SOL    HW2 2651   2.886   1.501   0.421 -0.1208 -0.4068  2.4549
  663SOL     MW 2652   2.817   1.498   0.370 -0.6171  0.0659  0.3155
  664SOL     OW 2653   2.476   1.496   1.602  0.7165 -0.2443  0.4009
  664SOL    HW1 2654   2.464   1.595   1.594 -0.6726 -1.5398  1.4597
  664SOL    HW2 2655   2.392   1.458   1.638  0.8338 -3.0520 -1.2521
  664SOL     MW 2656   2.463   1.504   1.606  0.5487 -0.7857  0.3225
  665SOL     OW 2657   2.888   0.841   2.024  0.1913  0.4420 -0.2869
  665SOL    HW1 2658   2.850   0.882   1.941 -0.9168 -0.5921  0.1307
  665SOL    HW2 2659   2.956   0.772   2.020  1.0875 -2.2223  1.7107
  665SOL     MW 2660   2.892   0.838   2.012  0.1633 -0.0460  0.0318
  666SOL     OW 2661   2.760   3.016   1.657  0.9354 -0.0363  0.3125
  666SOL    HW1 2662   2.760   3.026   1.558 -1.2189  1.2492 -0.6754
  666SOL    HW2 2663   2.693   2.955   1.687 -1.6855 -1.4678 -1.8931
  666SOL     MW 2664   2.751   3.009   1.648  0.3054 -0.0556 -0.1089
  667SOL     OW 2665   1.993   2.653   1.681  0.1509 -0.4262  0.5427
  667SOL    HW1 2666   2.002   2.588   1.748  0.8135  1.7825  3.0316
  667SOL    HW2 2667   2.071   2.711   1.695  1.8041 -1.0176  1.5549
  667SOL     MW 2668   2.005   2.652   1.692  0.4564 -0.2128  1.0046
  668SOL     OW 2669   2.731   0.650   0.807 -0.3417  0.0701 -0.1877
  668SOL    HW1 2670   2.809   0.671   0.867  1.7396  0.1842  0.8257
  668SOL    HW2 2671   2.668   0.718   0.828  0.1957 -1.6169 -1.0402
  668SOL     MW 2672   2.733   0.661   0.818  0.0038 -0.1374 -0.1665
  669SOL     OW 2673   0.221   0.943   0.659  0.6351 -0.3376 -0.1631
  669SOL    HW1 2674   0.171   0.985   0.726  0.3044  1.7122  4.0387
  669SOL    HW2 2675   0.312   0.932   0.697  1.5031  1.0547  2.3991
  669SOL     MW 2676   0.226   0.947   0.673  0.7060  0.1166  0.7294
  670SOL     OW 2677   2.873   0.293   0.210 -0.3718 -0.5156  0.0780
  670SOL    HW1 2678   2.919   0.210   0.176  0.1068 -0.2483  2.8781
  670SOL    HW2 2679   2.911   0.373   0.173  0.5430 -0.8997  2.8413
  670SOL     MW 2680   2.884   0.292   0.201 -0.1880 -0.5310  0.8120
  671SOL     OW 2681   2.097   2.967   1.526 -0.5570 -0.4122 -0.2280
  671SOL    HW1 2682   2.022   2.967   1.462  0.4189  1.2784  0.6715
  671SOL    HW2 2683   2.066   3.026   1.593  2.4616  0.9048  0.9779
  671SOL     MW 2684   2.083   2.975   1.527 -0.0300 -0.0154  0.0498
  672SOL     OW 2685   1.869   1.708   1.326  0.2470  0.0803  0.7277
  672SOL    HW1 2686   1.799   1.771   1.335 -1.1674 -0.7122 -1.9748
  672SOL    HW2 2687   1.924   1.751   1.254  1.9725 -1.6133  0.0792
  672SOL     MW 2688   1.867   1.722   1.318  0.2881 -0.2477  0.2856
  673SOL     OW 2689   2.763   1.097   0.552 -0.0055 -0.1893  0.5551
  673SOL    HW1 2690   2.766   1.018   0.608 -1.6953  1.3478  4.7806
  673SOL    HW2 2691   2.833   1.150   0.587 -1.4330 -0.7778  0.0001
  673SOL     MW 2692   2.773   1.094   0.564 -0.4168 -0.0641  1.0394
  674SOL     OW 2693   2.521   0.078   1.221 -0.0299  0.2151 -0.1499
  674SOL    HW1 2694   2.466   0.078   1.138  0.4260 -0.3973 -1.3847
  674SOL    HW2 2695   2.531  -0.014   1.238  0.6712  1.1975 -0.5651
  674SOL     MW 2696   2.515   0.066   1.212  0.1228  0.2639 -0.3676
  675SOL     OW 2697   3.027   0.883   1.079  0.0756 -0.5362 -0.3352
  675SOL    HW1 2698   3.096   0.880   1.147 -0.1925 -2.2446 -0.5877
  675SOL    HW2 2699   3.080   0.928   1.013 -0.6422 -1.0896 -1.5319
  675SOL     MW 2700   3.043   0.889   1.079 -0.0545 -0.8346 -0.5264
  676SOL     OW 2701   2.865   1.480   1.654  0.3231 -0.0240 -0.1827
  676SOL    HW1 2702   2.807   1.396   1.663 -0.8441  0.2038 -1.2565
  676SOL    HW2 2703   2.950   1.452   1.686  0.5032  2.0896 -1.1777
  676SOL     MW 2704   2.869   1.465   1.659  0.1928  0.2849 -0.4556
  677SOL     OW 2705   2.407   0.674   1.973 -0.2394 -0.3228  0.6823
  677SOL    HW1 2706   2.367   0.613   1.909 -0.1277 -0.8348 -3.8776
  677SOL    HW2 2707   2.345   0.722   2.023  0.8456 -0.5710 -2.3175
  677SOL     MW 2708   2.394   0.673   1.971 -0.0815 -0.4231 -0.3151
  678SOL     OW 2709   2.546   1.637   0.418 -0.0827  0.6107 -0.2911
  678SOL    HW1 2710   2.454   1.683   0.430 -2.6088 -1.0421 -1.1807
  678SOL    HW2 2711   2.557   1.628   0.320 -0.0277 -0.0109 -3.1517
  678SOL     MW 2712   2.536   1.642   0.407 -0.4088  0.3106 -0.7859
  679SOL     OW 2713   2.295   0.528   1.190 -0.2305 -0.9063 -0.2877
  679SOL    HW1 2714   2.233   0.457   1.201 -1.0600  3.2219 -0.1190
  679SOL    HW2 2715   2.242   0.599   1.155  1.2295 -1.1797 -1.6640
  679SOL     MW 2716   2.280   0.528   1.187 -0.1473 -0.3977 -0.4470
  680SOL     OW 2717   2.359   0.208   1.441 -0.4738 -1.0312  0.3365
  680SOL    HW1 2718   2.257   0.226   1.431 -4.5113 -0.2267 -0.8483
  680SOL    HW2 2719   2.382   0.166   1.359  4.3097  0.1988  0.4763
  680SOL     MW 2720   2.349   0.205   1.429 -0.3754 -0.7628  0.1986
  681SOL     OW 2721   0.340   0.586   1.548 -0.0477 -0.2947 -0.0753
  681SOL    HW1 2722   0.302   0.512   1.604 -1.6681 -2.2649 -2.9385
  681SOL    HW2 2723   0.435   0.576   1.548 -0.4517  1.2363  1.5313
  681SOL     MW 2724   0.347   0.575   1.555 -0.3148 -0.3526 -0.2411
  682SOL     OW 2725   0.119   2.931   1.464 -0.5062 -0.6142  0.1746
  682SOL    HW1 2726   0.131   3.024   1.460  1.0489  2.1539 -0.1224
  682SOL    HW2 2727   0.083   2.895   1.546 -0.9564 -1.0398 -0.7738
  682SOL     MW 2728   0.116   2.939   1.474 -0.3604 -0.3051  0.0103
  683SOL     OW 2729   2.045   0.865   3.020  0.0257  0.3391  0.1645
  683SOL    HW1 2730   1.972   0.845   2.959  0.3393  0.9740  0.5021
  683SOL    HW2 2731   2.025   0.954   3.044  1.6131  1.0062  0.0491
  683SOL     MW 2732   2.033   0.874   3.015  0.2765  0.5109  0.1938
  684SOL     OW 2733   2.190   1.742   0.937  0.2722 -0.5295  0.1355
  684SOL    HW1 2734   2.110   1.704   0.907  0.2995  0.4358 -1.9776
  684SOL    HW2 2735   2.239   1.657   0.960  1.9818  1.3334 -2.8875
  684SOL     MW 2736   2.186   1.726   0.936  0.5013 -0.1564 -0.5422
  685SOL     OW 2737   2.674   1.752   1.230  0.4259 -0.1931  0.0274
  685SOL    HW1 2738   2.700   1.720   1.318 -1.8351 -1.7550  1.2318
  685SOL    HW2 2739   2.643   1.667   1.193 -0.9701 -1.5224 -0.1432
  685SOL     MW 2740   2.673   1.736   1.237 -0.0566 -0.5746  0.1638
  686SOL     OW 2741   2.907   0.728   1.508  0.1866  0.0525  1.0079
  686SOL    HW1 2742   2.948   0.685   1.587  2.5080  2.7636 -1.0267
  686SOL    HW2 2743   2.969   0.716   1.441  0.0333 -0.6770 -0.2119
  686SOL     MW 2744   2.920   0.720   1.509  0.4727  0.3139  0.5785
  687SOL     OW 2745   2.076   0.309   1.146 -0.4771  0.2260 -0.1347
  687SOL    HW1 2746   2.081   0.243   1.077  0.6464  0.8513  1.7231
  687SOL    HW2 2747   2.013   0.373   1.119 -1.2850 -0.4687 -2.4673
  687SOL     MW 2748   2.068   0.309   1.134 -0.4354  0.2169 -0.1974
  688SOL     OW 2749   2.364   0.633   1.427  0.0294  0.1568 -0.0158
  688SOL    HW1 2750   2.323   0.587   1.351 -2.8798  0.6270 -0.0457
  688SOL    HW2 2751   2.292   0.639   1.495  1.4606  1.9236 -0.0433
  688SOL     MW 2752   2.349   0.628   1.426 -0.1656  0.4520 -0.0234
  689SOL     OW 2753   2.541   0.713   2.998  0.0058 -0.3324 -0.2917
  689SOL    HW1 2754   2.578   0.796   2.964  0.7948 -1.6505 -2.5683
  689SOL    HW2 2755   2.558   0.716   3.091 -0.7526  2.2577 -0.1876
  689SOL     MW 2756   2.548   0.725   3.006  0.0099 -0.1645 -0.5784
  690SOL     OW 2757   2.099   0.931   1.905 -0.5596  0.1923  0.5505
  690SOL    HW1 2758   2.019   0.879   1.911 -0.7450  1.3932  0.7564
  690SOL    HW2 2759   2.116   0.937   1.812 -2.4400  0.9419  0.8012
  690SOL     MW 2760   2.091   0.925   1.894 -0.8321  0.4496  0.6107
  691SOL     OW 2761   2.474   0.264   0.796 -0.1712 -0.1046 -0.4016
  691SOL    HW1 2762   2.549   0.291   0.850 -0.5882  1.3090 -1.4076
  691SOL    HW2 2763   2.396   0.319   0.832 -0.4918 -2.4947  0.9580
  691SOL     MW 2764   2.474   0.275   0.808 -0.2685 -0.2334 -0.3549
  692SOL     OW 2765   2.830   1.629   1.428 -0.0715  0.0341  0.7250
  692SOL    HW1 2766   2.845   1.577   1.503 -1.1648  3.6632 -2.1356
  692SOL    HW2 2767   2.872   1.716   1.451  0.2820  0.6767 -1.2644
  692SOL     MW 2768   2.837   1.634   1.441 -0.1691  0.5977  0.0851
  693SOL     OW 2769   2.338   0.460   0.118  0.1392  0.6314 -0.5364
  693SOL    HW1 2770   2.269   0.406   0.082 -0.3067  0.4088  2.4087
  693SOL    HW2 2771   2.320   0.546   0.095  1.4211 -2.7553 -2.1708
  693SOL     MW 2772   2.326   0.464   0.110  0.2495  0.1552 -0.3634
  694SOL     OW 2773   1.906   1.236   1.106  0.1223 -0.9378  0.2413
  694SOL    HW1 2774   2.000   1.221   1.125 -1.3027  0.5573  0.3348
  694SOL    HW2 2775   1.862   1.160   1.145  2.4328  0.9157  2.8186
  694SOL     MW 2776   1.913   1.224   1.114  0.2391 -0.4960  0.5937
  695SOL     OW 2777   3.009   1.459   1.327  0.7855  0.2782 -0.0480
  695SOL    HW1 2778   2.981   1.440   1.236  0.9360 -0.4332 -1.9403
  695SOL    HW2 2779   2.954   1.537   1.359  1.7453 -0.8423 -1.2827
  695SOL     MW 2780   2.998   1.466   1.319  0.9320  0.0365 -0.4606
  696SOL     OW 2781   2.103   1.384   0.888  0.4165  0.0741  0.0154
  696SOL    HW1 2782   2.176   1.426   0.939 -3.3284 -0.0987  0.4628
  696SOL    HW2 2783   2.061   1.331   0.957  0.2702 -1.8409 -1.7591
  696SOL     MW 2784   2.107   1.382   0.904 -0.0969 -0.2014 -0.1597
  697SOL     OW 2785   2.917   1.098   2.144  0.0046 -0.1537  0.3189
  697SOL    HW1 2786   2.837   1.147   2.171  3.3768  2.0351 -2.0189
  697SOL    HW2 2787   2.887   1.007   2.114 -3.7356 -1.7395  0.1468
  697SOL     MW 2788   2.903   1.093   2.144 -0.0440 -0.0741 -0.0123
  698SOL     OW 2789   2.562   0.333   0.031  0.1233  0.1669  0.5042
  698SOL    HW1 2790   2.475   0.378   0.044 -2.2597  0.3981  0.3881
  698SOL    HW2 2791   2.579   0.304   0.116 -3.5478 -0.9420 -3.1621
  698SOL     MW 2792   2.553   0.335   0.044 -0.6754  0.0511  0.0051
  699SOL     OW 2793   1.844   1.674   2.033 -0.6334  0.0692 -0.4313
  699SOL    HW1 2794   1.813   1.578   2.042  1.4154 -1.6347 -2.7666
  699SOL    HW2 2795   1.940   1.666   2.010  1.1922 -2.3198  0.1686
  699SOL     MW 2796   1.852   1.660   2.031 -0.1222 -0.4708 -0.6603
  700SOL     OW 2797   2.718   0.925   1.546  0.0413  0.3350 -0.4348
  700SOL    HW1 2798   2.777   0.980   1.494  0.6318 -4.7818  0.1969
  700SOL    HW2 2799   2.772   0.842   1.555 -2.0221  1.3304 -1.9688
  700SOL     MW 2800   2.733   0.921   1.540 -0.1530 -0.2087 -0.5538
  701SOL     OW 2801   1.604   1.270   2.525 -0.0457 -0.1129  0.3790
  701SOL    HW1 2802   1.697   1.284   2.539 -0.3203  0.8096 -0.5491
  701SOL    HW2 2803   1.555   1.337   2.566 -2.5299 -1.7288 -1.7589
  701SOL     MW 2804   1.610   1.281   2.532 -0.4097 -0.2043 -0.0255
  702SOL     OW 2805   2.200   0.392   0.866  0.0546 -0.0824  0.2497
  702SOL    HW1 2806   2.187   0.339   0.785 -0.4198  1.0041 -0.6549
  702SOL    HW2 2807   2.258   0.458   0.831  0.4374 -0.6530 -1.0354
  702SOL     MW 2808   2.206   0.394   0.851  0.0425 -0.0144 -0.0392
  703SOL     OW 2809   2.736   1.280   1.038  0.6184 -0.0569 -0.1367
  703SOL    HW1 2810   2.687   1.273   0.953  1.7909 -0.3144  1.6789
  703SOL    HW2 2811   2.751   1.192   1.080 -0.5215  1.0056  0.3172
  703SOL     MW 2812   2.731   1.267   1.032  0.6227  0.0493  0.1627
  704SOL     OW 2813   3.091   1.318   0.259  0.4498  0.0937 -0.4700
  704SOL    HW1 2814   3.023   1.266   0.220  0.2662 -0.3206  0.9470
  704SOL    HW2 2815   3.093   1.277   0.352 -0.1955 -1.7906  2.4500
  704SOL     MW 2816   3.082   1.305   0.266  0.3405 -0.2096  0.1022
  705SOL     OW 2817   2.226   1.627   1.301  0.3553 -0.6755  0.1670
  705SOL    HW1 2818   2.127   1.641   1.272 -4.2046  1.9610  0.6055
  705SOL    HW2 2819   2.223   1.550   1.350  0.3335  1.1656 -0.3691
  705SOL     MW 2820   2.213   1.619   1.304 -0.2492 -0.0847  0.1541
  706SOL     OW 2821   2.963   1.233   0.688 -0.4197  0.2303  0.2604
  706SOL    HW1 2822   3.025   1.197   0.629 -0.3230 -0.6737  0.7390
  706SOL    HW2 2823   2.961   1.326   0.669 -1.1025 -0.3374 -0.5903
  706SOL     MW 2824   2.971   1.240   0.678 -0.4971  0.0361  0.2113
  707SOL     OW 2825   2.389   0.053   0.960  0.0332 -0.1777  0.1077
  707SOL    HW1 2826   2.416   0.130   0.902  0.8815  1.8724 -1.2981
  707SOL    HW2 2827   2.297   0.034   0.943  0.5214  0.5562 -0.2913
  707SOL     MW 2828   2.380   0.061   0.950  0.2096  0.1896 -0.1304
  708SOL     OW 2829   2.574   1.567   0.140  0.3565 -0.1960  0.2208
  708SOL    HW1 2830   2.596   1.478   0.159 -1.6227 -0.1536  0.2966
  708SOL    HW2 2831   2.506   1.543   0.073 -0.7496  0.6459 -0.8184
  708SOL     MW 2832   2.568   1.552   0.134 -0.0506 -0.0794  0.0937
  709SOL     OW 2833   1.731   1.720   0.152 -0.0076 -0.1673 -0.4219
  709SOL    HW1 2834   1.660   1.719   0.090 -3.4507 -0.2484 -1.0557
  709SOL    HW2 2835   1.677   1.707   0.228  1.4856 -1.3787  1.0994
  709SOL     MW 2836   1.714   1.718   0.154 -0.2649 -0.3378 -0.3048
  710SOL     OW 2837   2.167   1.170   1.167 -0.1875 -0.0754 -0.2567
  710SOL    HW1 2838   2.236   1.144   1.103 -0.3380  1.1941  1.9114
  710SOL    HW2 2839   2.169   1.094   1.223 -1.6565  0.5618  0.5216
  710SOL     MW 2840   2.176   1.156   1.166 -0.4012  0.1762  0.1321
  711SOL     OW 2841   2.335   0.131   1.760 -0.0739  0.0214 -0.2965
  711SOL    HW1 2842   2.422   0.092   1.795  0.2997  0.1108  0.8565
  711SOL    HW2 2843   2.345   0.140   1.665  0.8474  2.0387 -2.1092
  711SOL     MW 2844   2.348   0.127   1.752  0.0969  0.2993 -0.3835
  712SOL     OW 2845   1.868   0.622   3.080  0.5502 -0.4326  0.4801
  712SOL    HW1 2846   1.846   0.692   3.020 -2.1867 -0.4048 -0.6771
  712SOL    HW2 2847   1.918   0.660   3.144  1.5666 -1.0679 -1.0631
  712SOL     MW 2848   1.872   0.636   3.080  0.3232 -0.5128  0.1238
  713SOL     OW 2849   2.568   0.802   1.093 -0.2876 -0.7261  0.4321
  713SOL    HW1 2850   2.561   0.708   1.118 -0.0937  1.8966  1.1996
  713SOL    HW2 2851   2.516   0.851   1.161 -3.8012  0.0852 -1.4847
  713SOL     MW 2852   2.560   0.796   1.105 -0.7256 -0.2730  0.2805
  714SOL     OW 2853   2.165   0.221   1.967  0.1272 -0.1897  0.0760
  714SOL    HW1 2854   2.207   0.195   2.052 -1.8170 -1.2305 -1.3176
  714SOL    HW2 2855   2.222   0.203   1.895 -1.2848  3.4545  0.7830
  714SOL     MW 2856   2.178   0.215   1.969 -0.3156  0.1538 -0.0146
  715SOL     OW 2857   1.723   1.903   1.702  0.2379 -0.0475 -0.7663
  715SOL    HW1 2858   1.810   1.894   1.672 -1.1535  2.0394 -2.6256
  715SOL    HW2 2859   1.698   1.813   1.732 -2.0037 -2.3411 -0.8469
  715SOL     MW 2860   1.731   1.890   1.702 -0.2414 -0.0748 -1.0223
  716SOL     OW 2861   2.378   0.567   0.752  0.0880 -0.0312  0.4412
  716SOL    HW1 2862   2.433   0.524   0.688  0.4590  1.0739  1.5863
  716SOL    HW2 2863   2.300   0.593   0.703 -1.1554 -1.1459 -0.1300
  716SOL     MW 2864   2.375   0.565   0.737 -0.0271 -0.0325  0.5169
  717SOL     OW 2865   2.861   1.432   2.905 -0.0593  0.0639 -0.2633
  717SOL    HW1 2866   2.958   1.436   2.927 -0.1514  0.5078 -0.5558
  717SOL    HW2 2867   2.820   1.501   2.966 -0.3785  2.4801  1.2966
  717SOL     MW 2868   2.869   1.442   2.916 -0.1136  0.4413 -0.0961
  718SOL     OW 2869   2.515   1.374   1.362  0.4434  0.2920 -0.4321
  718SOL    HW1 2870   2.532   1.406   1.456 -0.6617  0.3192 -1.9419
  718SOL    HW2 2871   2.562   1.290   1.361  0.1340 -0.7856 -0.6628
  718SOL     MW 2872   2.523   1.367   1.375  0.2567  0.1534 -0.6618
  719SOL     OW 2873   2.206   1.343   0.596  0.6670 -0.3182  0.6509
  719SOL    HW1 2874   2.296   1.351   0.566  0.9971  1.4099  3.2399
  719SOL    HW2 2875   2.197   1.353   0.690 -0.4327 -1.1521 -0.2814
  719SOL     MW 2876   2.217   1.345   0.604  0.5655 -0.2002  0.8694
  720SOL     OW 2877   2.913   1.168   0.120  0.9433 -0.1812 -0.2640
  720SOL    HW1 2878   2.888   1.074   0.137 -2.8975  1.8792  0.1136
  720SOL    HW2 2879   2.826   1.216   0.152  0.2164  1.6038  0.4673
  720SOL     MW 2880   2.898   1.162   0.126  0.3406  0.3262 -0.1177
  721SOL     OW 2881   2.511   0.879   1.353 -0.2711  0.8124 -0.3969
  721SOL    HW1 2882   2.509   0.787   1.363 -1.3518  2.1845 -1.0383
  721SOL    HW2 2883   2.571   0.894   1.429  3.9988 -3.0577 -0.5553
  721SOL     MW 2884   2.519   0.868   1.365  0.1497  0.4828 -0.5024
  722SOL     OW 2885   2.567   1.140   0.373 -0.1752 -0.3710  0.0868
  722SOL    HW1 2886   2.505   1.196   0.421  1.1922 -0.3127 -2.2206
  722SOL    HW2 2887   2.637   1.129   0.440  2.8845  1.7361  2.9229
  722SOL     MW 2888   2.568   1.146   0.388  0.4089 -0.0853  0.1565
  723SOL     OW 2889   2.238   1.400   1.645 -0.6667  0.2940  0.1766
  723SOL    HW1 2890   2.239   1.375   1.555  0.1475  1.5224  2.1337
  723SOL    HW2 2891   2.194   1.485   1.647  0.6649  1.5553 -0.0816
  723SOL     MW 2892   2.232   1.408   1.634 -0.3836  0.6225  0.4007
  724SOL     OW 2893   2.523   0.412   0.571  0.3291  0.0932  0.6395
  724SOL    HW1 2894   2.509   0.325   0.616 -0.4610  0.2174  0.5837
  724SOL    HW2 2895   2.620   0.426   0.559  0.5667  0.2109  0.2662
  724SOL     MW 2896   2.534   0.403   0.576  0.2562  0.1251  0.5829
  725SOL     OW 2897   2.570   0.539   1.139 -0.1729  0.3802 -0.5007
  725SOL    HW1 2898   2.601   0.546   1.232 -2.2299 -3.0114  4.8386
  725SOL    HW2 2899   2.475   0.542   1.152  0.6986  0.2718  0.1297
  725SOL     MW 2900   2.562   0.540   1.153 -0.3293 -0.0816  0.2870
  726SOL     OW 2901   2.586   2.439   0.557 -0.4972 -0.0857  0.5180
  726SOL    HW1 2902   2.516   2.477   0.508 -0.4632  1.1556 -1.8823
  726SOL    HW2 2903   2.545   2.382   0.617 -1.2188  3.5242  0.2704
  726SOL     MW 2904   2.571   2.436   0.558 -0.5879  0.5544  0.1686
  727SOL     OW 2905   2.933   0.255   1.573  0.4128 -0.1960 -0.0646
  727SOL    HW1 2906   2.918   0.309   1.494  2.5579 -0.4248  1.3378
  727SOL    HW2 2907   2.900   0.170   1.548 -0.9688  1.0899 -1.2689
  727SOL     MW 2908   2.927   0.251   1.559  0.5135 -0.0565 -0.0385
  728SOL     OW 2909   2.814   1.159   2.979 -0.0305 -0.2487 -0.3795
  728SOL    HW1 2910   2.790   1.250   2.955  0.0129  1.5583 -0.8124
  728SOL    HW2 2911   2.876   1.171   3.057  0.2265 -1.7243 -0.5682
  728SOL     MW 2912   2.819   1.173   2.986  0.0092 -0.2049 -0.4615
  729SOL     OW 2913   2.558   1.523   1.121 -0.1353  0.3487 -0.3656
  729SOL    HW1 2914   2.536   1.463   1.190  1.1279 -0.9938 -3.1902
  729SOL    HW2 2915   2.636   1.491   1.076 -2.1219  0.6423  2.9274
  729SOL     MW 2916   2.565   1.511   1.124 -0.2307  0.2103 -0.3038
  730SOL     OW 2917   2.118   1.121   0.279  0.5328  0.0614 -0.3497
  730SOL    HW1 2918   2.202   1.110   0.237 -1.4004 -1.0092 -1.9372
  730SOL    HW2 2919   2.115   1.215   0.297 -0.0685  1.1677  0.1630
  730SOL     MW 2920   2.129   1.132   0.276  0.1984  0.0661 -0.4915
  731SOL     OW 2921   2.815   1.859   2.870  0.3800  0.1520  0.1743
  731SOL    HW1 2922   2.751   1.902   2.803  2.0740 -0.3632  1.8552
  731SOL    HW2 2923   2.866   1.938   2.889  1.0660 -0.3632 -0.5685
  731SOL     MW 2924   2.814   1.875   2.863  0.6940  0.0161  0.2981
  732SOL     OW 2925   2.235   0.904   1.322  0.6097  0.2107  0.5752
  732SOL    HW1 2926   2.225   0.864   1.406 -2.4416  0.2146 -0.0664
  732SOL    HW2 2927   2.329   0.910   1.310 -2.0685  0.3799 -0.1569
  732SOL     MW 2928   2.246   0.899   1.331 -0.1463  0.2335  0.3939
  733SOL     OW 2929   2.378   2.821   3.024  0.2177 -0.1948 -0.3871
  733SOL    HW1 2930   2.284   2.845   3.027  0.0539  2.0615 -0.2252
  733SOL    HW2 2931   2.392   2.730   3.037 -0.8980 -0.7005 -1.4015
  733SOL     MW 2932   2.368   2.812   3.026  0.0489  0.0362 -0.4996
  734SOL     OW 2933   1.503   0.353   2.465  0.2062 -0.1780 -0.0863
  734SOL    HW1 2934   1.484   0.310   2.554  0.2626 -0.6452  1.8655
  734SOL    HW2 2935   1.524   0.274   2.404  0.6616  0.0810  0.3189
  734SOL     MW 2936   1.503   0.337   2.468  0.2737 -0.2055  0.2247
  735SOL     OW 2937   2.982   0.931   2.573 -0.4040  0.0163 -0.3588
  735SOL    HW1 2938   2.984   0.840   2.604  1.7885  0.5842 -0.5137
  735SOL    HW2 2939   3.040   0.976   2.636  0.1581 -0.6400 -1.5615
  735SOL     MW 2940   2.990   0.925   2.585 -0.0406  0.0046 -0.5379
  736SOL     OW 2941   0.084   0.609   2.553 -0.0650 -0.1012 -0.1051
  736SOL    HW1 2942   0.138   0.664   2.495  2.3295 -0.8437 -0.8798
  736SOL    HW2 2943   0.075   0.523   2.508 -0.1945  0.6163  0.1439
  736SOL     MW 2944   0.090   0.605   2.539  0.2338 -0.1045 -0.1745
  737SOL     OW 2945   2.912   0.677   2.619 -0.0583 -0.1521 -0.4751
  737SOL    HW1 2946   2.848   0.670   2.544 -0.0350 -1.2854  0.6306
  737SOL    HW2 2947   2.995   0.641   2.586 -0.1233  0.7937  0.4292
  737SOL     MW 2948   2.914   0.671   2.605 -0.0638 -0.1768 -0.2099
  738SOL     OW 2949   0.182   0.529   1.956  0.4191 -0.2660 -0.5170
  738SOL    HW1 2950   0.268   0.571   1.937  2.1230  2.5741  4.1218
  738SOL    HW2 2951   0.171   0.460   1.893 -1.1345  0.4155  1.7924
  738SOL     MW 2952   0.192   0.525   1.945  0.4389  0.1986  0.3998
  739SOL     OW 2953   2.505   0.994   2.150 -0.5734  0.1240 -0.6832
  739SOL    HW1 2954   2.422   0.951   2.134  1.1783  0.5536 -2.6658
  739SOL    HW2 2955   2.539   1.017   2.064 -0.5064  0.3412  0.6180
  739SOL     MW 2956   2.499   0.991   2.137 -0.3334  0.2094 -0.7731
  740SOL     OW 2957   0.137   1.774   2.964  0.1167 -0.3416 -0.1811
  740SOL    HW1 2958   0.106   1.688   2.935 -1.7487 -1.1134 -1.0789
  740SOL    HW2 2959   0.232   1.763   2.990  0.3423  1.7510  2.0519
  740SOL     MW 2960   0.146   1.761   2.964 -0.0997 -0.1674 -0.0049
  741SOL     OW 2961   2.239   1.258   2.681  0.0790  1.1286  0.3639
  741SOL    HW1 2962   2.215   1.339   2.630 -0.8606 -1.9802 -1.1244
  741SOL    HW2 2963   2.204   1.269   2.769  2.6700 -2.1324  1.5426
  741SOL     MW 2964   2.231   1.270   2.686  0.2969  0.2882  0.3230
  742SOL     OW 2965   1.605   1.353   2.253 -0.7244 -0.5113 -0.7768
  742SOL    HW1 2966   1.565   1.269   2.226  0.0993 -1.0783  0.1081
  742SOL    HW2 2967   1.631   1.337   2.343 -1.4952 -0.7377  1.6675
  742SOL     MW 2968   1.603   1.340   2.261 -0.7174 -0.6160 -0.3376
  743SOL     OW 2969   2.520   1.228   2.737 -0.1926 -0.1079  0.2230
  743SOL    HW1 2970   2.432   1.240   2.723  2.3304  2.1741  1.5461
  743SOL    HW2 2971   2.532   1.156   2.800  2.0640 -2.6976  4.3311
  743SOL     MW 2972   2.510   1.220   2.743  0.4381 -0.1485  0.9396
  744SOL     OW 2973   2.768   0.997   1.814 -0.9857 -0.0418 -0.4907
  744SOL    HW1 2974   2.695   1.052   1.845 -0.1202  0.1934 -0.4227
  744SOL    HW2 2975   2.751   0.994   1.717 -0.1394 -0.1792 -1.7740
  744SOL     MW 2976   2.756   1.004   1.805 -0.7599 -0.0289 -0.6510
  745SOL     OW 2977   1.769   0.418   2.462 -0.5172 -0.3956  0.2948
  745SOL    HW1 2978   1.780   0.399   2.368  0.7485  0.7599 -0.5224
  745SOL    HW2 2979   1.675   0.405   2.473  0.0724  0.6192  0.7061
  745SOL     MW 2980   1.758   0.414   2.451 -0.2725 -0.1092  0.2412
  746SOL     OW 2981   1.499   1.455   1.671 -0.0350 -0.3050  0.5381
  746SOL    HW1 2982   1.554   1.521   1.712 -3.0385  2.4879 -0.9335
  746SOL    HW2 2983   1.499   1.383   1.739 -2.3055  3.1772  2.2848
  746SOL     MW 2984   1.506   1.454   1.685 -0.7308  0.5230  0.5744
  747SOL     OW 2985   2.561   1.150   1.910  0.3369  0.6886  0.2764
  747SOL    HW1 2986   2.465   1.169   1.911  1.7768 -0.3023  0.5118
  747SOL    HW2 2987   2.606   1.219   1.956  0.4630 -0.4306 -1.2760
  747SOL     MW 2988   2.554   1.161   1.916  0.5435  0.4102  0.1026
  748SOL     OW 2989   0.077   3.052   1.882 -0.2169  0.4580 -0.6602
  748SOL    HW1 2990   0.170   3.057   1.865 -1.2103 -2.4063 -2.8097
  748SOL    HW2 2991   0.066   3.097   1.964  3.9361  1.0651  1.5717
  748SOL     MW 2992   0.088   3.059   1.891  0.2000  0.1602 -0.6493
  749SOL     OW 2993   2.444   0.563   2.782 -0.6286 -0.2994  0.0559
  749SOL    HW1 2994   2.435   0.651   2.739 -1.3065  1.0888 -0.3437
  749SOL    HW2 2995   2.491   0.581   2.859  1.7003 -0.7975  2.5615
  749SOL     MW 2996   2.449   0.577   2.786 -0.4108 -0.1819  0.3338
  750SOL     OW 2997   2.074   3.061   1.935 -0.5726  0.5496 -0.2535
  750SOL    HW1 2998   2.113   3.140   1.963 -3.7683 -1.2712  0.0395
  750SOL    HW2 2999   2.154   2.994   1.938  0.5789 -1.9654  0.0937
  750SOL     MW 3000   2.089   3.063   1.939 -0.8423 -0.0224 -0.1690
  751SOL     OW 3001   0.023   0.376   2.412  0.7753  0.5347  0.3601
  751SOL    HW1 3002  -0.046   0.418   2.366 -1.6738 -1.2532  3.0879
  751SOL    HW2 3003   0.101   0.376   2.358  0.0490  1.9585  2.1281
  751SOL     MW 3004   0.024   0.382   2.399  0.3564  0.4867  0.9533
  752SOL     OW 3005   2.138   0.892   2.751  0.3553  0.2417 -0.0161
  752SOL    HW1 3006   2.192   0.921   2.679  0.1161 -1.9733 -0.4045
  752SOL    HW2 3007   2.178   0.925   2.830 -1.1979  0.6031 -1.4682
  752SOL     MW 3008   2.150   0.900   2.752  0.1188 -0.0028 -0.2589
  753SOL     OW 3009   2.862   0.418   2.351 -0.4474 -0.4580 -0.0073
  753SOL    HW1 3010   2.800   0.345   2.347 -1.9185  0.5932  1.9053
  753SOL    HW2 3011   2.815   0.493   2.384  1.3111 -1.6203 -0.7981
  753SOL     MW 3012   2.848   0.418   2.355 -0.4095 -0.4727  0.1407
  754SOL     OW 3013   2.241   3.012   2.599 -0.5563  0.2836 -0.0904
  754SOL    HW1 3014   2.277   2.997   2.508 -1.0740 -0.0818 -1.0258
  754SOL    HW2 3015   2.304   2.968   2.663  1.2471  0.6388  0.6221
  754SOL     MW 3016   2.254   3.004   2.596 -0.3867  0.2822 -0.1198
  755SOL     OW 3017   2.792   1.580   2.494  0.1383 -0.3744 -0.1094
  755SOL    HW1 3018   2.749   1.495   2.507  2.7857 -1.5500 -1.5272
  755SOL    HW2 3019   2.844   1.590   2.571 -0.6722  0.3039 -0.5462
  755SOL     MW 3020   2.793   1.570   2.506  0.3807 -0.4400 -0.3541
  756SOL     OW 3021   2.247   1.262   2.983 -0.5961 -0.4387 -0.1393
  756SOL    HW1 3022   2.293   1.342   3.005  0.4156 -0.9637 -2.3776
  756SOL    HW2 3023   2.299   1.182   2.992 -0.2700  0.1025 -0.6848
  756SOL     MW 3024   2.260   1.262   2.987 -0.4196 -0.4365 -0.5066
  757SOL     OW 3025   2.178   0.947   1.643 -0.2824  0.3037 -0.3066
  757SOL    HW1 3026   2.190   0.851   1.643 -0.3614 -0.3912 -0.2373
  757SOL    HW2 3027   2.122   0.981   1.577 -0.0077  1.4231  1.5901
  757SOL     MW 3028   2.172   0.939   1.634 -0.2566  0.3597 -0.0472
  758SOL     OW 3029   2.263   1.752   2.643 -0.1956 -0.6791  0.4314
  758SOL    HW1 3030   2.272   1.792   2.557 -1.0642 -1.0099  2.7300
  758SOL    HW2 3031   2.355   1.734   2.661  2.0195 -1.7158 -1.0458
  758SOL     MW 3032   2.276   1.755   2.634 -0.0179 -0.8595  0.5398
  759SOL     OW 3033   1.547   1.410   2.791 -0.3893 -0.2918 -0.0771
  759SOL    HW1 3034   1.523   1.499   2.769  3.5585 -2.9057  0.1119
  759SOL    HW2 3035   1.632   1.419   2.841  3.8261 -1.7297 -4.1799
  759SOL     MW 3036   1.555   1.423   2.795  0.6878 -0.8264 -0.5935
  760SOL     OW 3037   2.694   1.988   2.673 -0.2042 -0.0956 -0.1707
  760SOL    HW1 3038   2.651   1.920   2.628  0.1421  2.7371  1.4343
  760SOL    HW2 3039   2.777   1.989   2.618 -0.7265  2.0802  2.5579
  760SOL     MW 3040   2.699   1.979   2.660 -0.2274  0.5652  0.4011
  761SOL     OW 3041   2.147   0.421   2.463 -0.5738 -0.5829  0.6343
  761SOL    HW1 3042   2.070   0.361   2.440 -2.4259 -2.6888 -3.4673
  761SOL    HW2 3043   2.132   0.459   2.554  0.5938 -1.8820 -0.3314
  761SOL     MW 3044   2.135   0.418   2.472 -0.6641 -1.0322 -0.0343
  762SOL     OW 3045   0.029   0.161   2.089 -0.1010  0.0457 -0.2973
  762SOL    HW1 3046  -0.005   0.110   2.162  0.9842 -0.8384 -1.0415
  762SOL    HW2 3047  -0.039   0.222   2.060  1.2341  1.8750 -0.6472
  762SOL     MW 3048   0.016   0.163   2.095  0.2183  0.1704 -0.4417
  763SOL     OW 3049   2.435   1.147   2.358 -0.7560  0.1308  0.2791
  763SOL    HW1 3050   2.481   1.087   2.294 -1.4562  1.6979 -0.2353
  763SOL    HW2 3051   2.504   1.186   2.412  0.5262  1.8427  0.0484
  763SOL     MW 3052   2.450   1.144   2.357 -0.6792  0.5634  0.1808
  764SOL     OW 3053   0.310   0.164   2.815 -0.5094 -0.2734  0.0826
  764SOL    HW1 3054   0.266   0.222   2.755  0.9782  0.2778  0.6336
  764SOL    HW2 3055   0.319   0.232   2.882 -1.8384  1.2337 -4.0245
  764SOL     MW 3056   0.305   0.180   2.816 -0.4885 -0.0018 -0.3866
  765SOL     OW 3057   2.741   0.151   2.313 -0.4475 -0.1442 -0.0092
  765SOL    HW1 3058   2.672   0.123   2.254  0.6343 -1.7445  2.1935
  765SOL    HW2 3059   2.803   0.073   2.321  0.1349 -0.2717 -2.2967
  765SOL     MW 3060   2.740   0.137   2.307 -0.2279 -0.3722 -0.0204
  766SOL     OW 3061   1.848   3.008   2.112  0.3218  0.4825  0.0965
  766SOL    HW1 3062   1.918   3.001   2.046 -1.7496 -0.5533 -0.2318
  766SOL    HW2 3063   1.789   2.947   2.067  1.8603  0.1320 -1.1823
  766SOL     MW 3064   1.850   2.999   2.097  0.2515  0.2996 -0.1155
  767SOL     OW 3065   2.679   0.610   1.872 -0.4379 -0.0096 -0.3644
  767SOL    HW1 3066   2.723   0.655   1.945  0.1363 -1.2787 -2.0585
  767SOL    HW2 3067   2.588   0.626   1.890 -0.0731 -0.1353 -1.0779
  767SOL     MW 3068   2.673   0.618   1.884 -0.3140 -0.1937 -0.6820
  768SOL     OW 3069   0.014   1.515   2.929  0.0421  0.5419 -0.3160
  768SOL    HW1 3070   0.027   1.498   3.025  2.3767  0.7431  0.0060
  768SOL    HW2 3071   0.058   1.440   2.888  0.5187  0.8434 -4.3073
  768SOL     MW 3072   0.022   1.503   2.936  0.4130  0.6082 -0.8001
  769SOL     OW 3073   2.367   0.622   2.439 -0.2129  0.0625 -0.5581
  769SOL    HW1 3074   2.322   0.546   2.474  0.9879  3.2927  1.4622
  769SOL    HW2 3075   2.394   0.603   2.349  1.4728 -0.0881 -1.5666
  769SOL     MW 3076   2.364   0.610   2.432  0.1679  0.4689 -0.4246
  770SOL     OW 3077   0.048   1.614   2.567 -0.3031  0.1767  0.0607
  770SOL    HW1 3078  -0.038   1.624   2.611 -0.3567  2.1444 -0.4760
  770SOL    HW2 3079   0.087   1.546   2.621 -1.1218  1.6419 -2.4193
  770SOL     MW 3080   0.042   1.606   2.580 -0.4182  0.6296 -0.3373
  771SOL     OW 3081   3.018   0.617   1.978  0.5919  0.6251  0.4263
  771SOL    HW1 3082   2.976   0.622   1.888  0.7280 -1.3508 -1.3733
  771SOL    HW2 3083   3.111   0.591   1.968 -4.2004 -0.2756  0.1060
  771SOL     MW 3084   3.025   0.614   1.965 -0.0224  0.2456  0.1466
  772SOL     OW 3085   0.036   0.011   2.331 -0.6547 -0.2498  0.3834
  772SOL    HW1 3086  -0.050  -0.008   2.372 -1.1488  1.1718 -1.1655
  772SOL    HW2 3087   0.071  -0.064   2.283  1.9513  0.1274  2.9441
  772SOL     MW 3088   0.029  -0.001   2.330 -0.3761 -0.0125  0.5169
  773SOL     OW 3089   2.407   2.901   2.762 -0.1412  0.3657 -0.1120
  773SOL    HW1 3090   2.412   2.813   2.730  0.1659 -2.0301 -1.5968
  773SOL    HW2 3091   2.385   2.885   2.854 -1.2768 -1.7399 -1.4993
  773SOL     MW 3092   2.405   2.887   2.770 -0.2505 -0.2282 -0.4909
  774SOL     OW 3093   2.302   1.176   1.793 -0.0721 -0.2097 -0.6077
  774SOL    HW1 3094   2.259   1.247   1.738  0.5378  2.9777  1.9124
  774SOL    HW2 3095   2.263   1.101   1.759  0.5715  0.8795  2.2216
  774SOL     MW 3096   2.291   1.176   1.782  0.0933  0.3545  0.0981
  775SOL     OW 3097   2.334   2.967   2.336  0.2040 -0.0420  0.2759
  775SOL    HW1 3098   2.379   3.033   2.285 -0.9229 -2.0484  0.5432
  775SOL    HW2 3099   2.384   2.887   2.338 -1.0115 -0.7568  2.1935
  775SOL     MW 3100   2.346   2.966   2.330 -0.1050 -0.4010  0.5642
  776SOL     OW 3101   0.116   1.509   0.087  0.2628 -0.0562  0.1663
  776SOL    HW1 3102   0.203   1.463   0.086  0.3403  0.8038 -1.1480
  776SOL    HW2 3103   0.062   1.455   0.139 -0.9651  1.5640  1.2890
  776SOL     MW 3104   0.121   1.496   0.094  0.1110  0.2710  0.1410
  777SOL     OW 3105   3.008   1.106   1.717  0.1319 -0.0370  0.2235
  777SOL    HW1 3106   2.991   1.103   1.625 -0.0430  0.5537 -1.6024
  777SOL    HW2 3107   2.935   1.066   1.759  0.3627  1.8563 -1.8652
  777SOL     MW 3108   2.996   1.101   1.710  0.1393  0.2907 -0.2930
  778SOL     OW 3109   2.825   0.463   2.718 -0.1113 -0.2048  0.0774
  778SOL    HW1 3110   2.778   0.488   2.803  0.8762 -1.5298 -0.2856
  778SOL    HW2 3111   2.866   0.552   2.687 -0.1299  0.4650 -0.4934
  778SOL     MW 3112   2.824   0.478   2.725  0.0166 -0.2912 -0.0458
  779SOL     OW 3113   2.243   0.548   2.191 -0.6750  0.2190 -0.5102
  779SOL    HW1 3114   2.244   0.638   2.212  0.6088 -1.9822  2.4475
  779SOL    HW2 3115   2.211   0.506   2.271 -0.6317 -0.6131  2.9870
  779SOL     MW 3116   2.239   0.554   2.204 -0.4999 -0.1812  0.3415
  780SOL     OW 3117   0.141   0.306   2.668 -0.0204 -0.2653 -0.2675
  780SOL    HW1 3118   0.079   0.318   2.741  0.6950  0.0970 -1.8492
  780SOL    HW2 3119   0.102   0.356   2.602 -2.2244 -3.5545  1.6074
  780SOL     MW 3120   0.128   0.314   2.669 -0.2168 -0.6515 -0.2288
  781SOL     OW 3121   3.051   1.297   2.466 -0.4534  0.1347 -0.0412
  781SOL    HW1 3122   3.024   1.375   2.418 -3.1966  0.4246  0.0542
  781SOL    HW2 3123   3.082   1.232   2.405 -0.5840 -0.9753  0.2306
  781SOL     MW 3124   3.052   1.299   2.452 -0.8325  0.0265  0.0072
  782SOL     OW 3125   0.660   1.584   0.013 -0.1963  0.1242 -0.0921
  782SOL    HW1 3126   0.568   1.566  -0.028 -0.8319  0.2070 -0.5312
  782SOL    HW2 3127   0.642   1.658   0.069 -0.5480  3.0324  0.7817
  782SOL     MW 3128   0.645   1.591   0.015 -0.3266  0.5188 -0.0347
  783SOL     OW 3129   2.709   0.630   2.448  0.6482 -0.1638 -0.1213
  783SOL    HW1 3130   2.684   0.663   2.363  0.4744  2.1808  1.0531
  783SOL    HW2 3131   2.646   0.562   2.486  1.3209 -2.4459  1.3171
  783SOL     MW 3132   2.697   0.625   2.442  0.7141 -0.1555  0.2234
  784SOL     OW 3133   0.120   0.803   2.854 -0.1251 -0.2045 -0.2918
  784SOL    HW1 3134   0.036   0.852   2.837 -3.6471  1.8878 -0.6900
  784SOL    HW2 3135   0.180   0.839   2.787  0.0828 -0.1984 -0.1345
  784SOL     MW 3136   0.117   0.814   2.843 -0.5624  0.0723 -0.3235
  785SOL     OW 3137   0.423   0.486   2.171  0.1395 -0.0121  0.2539
  785SOL    HW1 3138   0.442   0.518   2.079 -2.0851  0.4385  1.6296
  785SOL    HW2 3139   0.332   0.449   2.162  2.4614  1.8406 -3.3937
  785SOL     MW 3140   0.413   0.485   2.158  0.1524  0.2918 -0.0459
  786SOL     OW 3141   1.929   0.356   2.955 -0.2072 -0.2831 -0.1975
  786SOL    HW1 3142   1.900   0.441   2.983  1.9396 -3.4667  0.1646
  786SOL    HW2 3143   2.014   0.362   2.910  1.7322 -0.2279 -0.3572
  786SOL     MW 3144   1.936   0.368   2.953  0.3320 -0.6958 -0.1708
  787SOL     OW 3145   2.475   0.108   2.954  0.1965  0.4966 -0.7725
  787SOL    HW1 3146   2.555   0.063   2.930 -0.9063  2.0925  2.4957
  787SOL    HW2 3147   2.516   0.176   3.012 -0.5217 -0.4698  0.6950
  787SOL     MW 3148   2.491   0.111   2.959 -0.0438  0.5797 -0.1476
  788SOL     OW 3149   2.865   3.027   2.390  0.0813  0.2455 -0.7105
  788SOL    HW1 3150   2.823   3.000   2.467 -1.5350 -1.4584 -1.9510
  788SOL    HW2 3151   2.870   2.953   2.331  1.1852 -1.0634 -1.1101
  788SOL     MW 3152   2.860   3.014   2.392  0.0137 -0.1520 -0.9269
  789SOL     OW 3153   0.081   0.206   3.027  0.0050  0.0028 -0.5551
  789SOL    HW1 3154   0.007   0.154   3.049  0.4214  3.3269  1.1711
  789SOL    HW2 3155   0.046   0.273   2.970 -0.9363 -0.2953  0.1297
  789SOL     MW 3156   0.067   0.208   3.022 -0.0643  0.4020 -0.2370
  790SOL     OW 3157   0.010   1.054   2.337  0.0807 -0.3257  0.6239
  790SOL    HW1 3158  -0.019   0.990   2.400  0.2528 -0.9880  2.4593
  790SOL    HW2 3159  -0.058   1.053   2.267 -1.0470  0.0726 -1.5956
  790SOL     MW 3160  -0.003   1.045   2.336 -0.0453 -0.3605  0.5732
  791SOL     OW 3161   2.612   0.408   2.590  0.3803 -0.2122  0.5388
  791SOL    HW1 3162   2.547   0.463   2.641 -0.6603 -1.0166 -0.3272
  791SOL    HW2 3163   2.702   0.437   2.623  4.3073  1.2589 -0.4898
  791SOL     MW 3164   2.615   0.419   2.601  0.7611 -0.1242  0.2889
  792SOL     OW 3165   2.339   0.220   2.420  0.1379  0.7002  0.1181
  792SOL    HW1 3166   2.280   0.293   2.445  0.4353  2.5282  1.2911
  792SOL    HW2 3167   2.373   0.216   2.507 -0.7163  2.4620  0.7168
  792SOL     MW 3168   2.336   0.229   2.435  0.0644  1.1738  0.3519
  793SOL     OW 3169   1.968   1.211   1.960  0.1172 -0.5095 -0.4607
  793SOL    HW1 3170   1.911   1.184   1.887 -2.4067  0.6301 -1.6075
  793SOL    HW2 3171   2.034   1.140   1.972  0.9628  2.0821  0.4480
  793SOL     MW 3172   1.969   1.198   1.952 -0.1042 -0.0172 -0.4921
  794SOL     OW 3173   1.408   2.368   0.122  0.0945 -0.1612 -0.2936
  794SOL    HW1 3174   1.439   2.422   0.048  0.8192  4.1870 -1.4738
  794SOL    HW2 3175   1.469   2.380   0.199  1.6178 -1.0937 -0.4876
  794SOL     MW 3176   1.420   2.377   0.122  0.3911  0.2894 -0.4749
  795SOL     OW 3177   2.317   1.041   2.560  0.3746  0.1020  0.1226
  795SOL    HW1 3178   2.285   1.124   2.603  1.7966  0.9366 -0.8902
  795SOL    HW2 3179   2.364   1.075   2.484 -0.3841  3.7449  2.2551
  795SOL     MW 3180   2.319   1.057   2.556  0.4621  0.6928  0.2704
  796SOL     OW 3181   0.229   0.551   2.783  0.2225 -0.2726  0.3077
  796SOL    HW1 3182   0.180   0.620   2.837  0.5077  0.2806  1.4047
  796SOL    HW2 3183   0.177   0.551   2.701 -0.1467 -0.8354 -2.0385
  796SOL     MW 3184   0.215   0.560   2.779  0.2114 -0.2739  0.1429
  797SOL     OW 3185   2.623   0.123   2.592  0.4606 -0.8079  0.3217
  797SOL    HW1 3186   2.591   0.217   2.570 -1.6214  1.7410  0.7182
  797SOL    HW2 3187   2.661   0.103   2.505  1.6861 -2.1527 -2.5282
  797SOL     MW 3188   2.623   0.133   2.578  0.3476 -0.6490 -0.0020
  798SOL     OW 3189   2.296   0.109   2.173 -0.0536 -0.1692  0.0814
  798SOL    HW1 3190   2.315   0.149   2.256  1.6580  2.0615 -2.5090
  798SOL    HW2 3191   2.384   0.099   2.133  2.0377  2.3289  3.6181
  798SOL     MW 3192   2.310   0.113   2.178  0.4482  0.4548  0.2063
  799SOL     OW 3193   2.553   2.921   0.106 -0.1756 -0.0842 -0.1348
  799SOL    HW1 3194   2.471   2.891   0.063 -0.9179  1.4842 -0.4718
  799SOL    HW2 3195   2.540   2.959   0.197  0.0405  2.4860  0.2551
  799SOL     MW 3196   2.540   2.922   0.112 -0.2450  0.4619 -0.1278
  800SOL     OW 3197   1.947   3.098   1.694  0.5859 -0.8422  0.3140
  800SOL    HW1 3198   1.891   3.022   1.676  0.1013 -0.3987 -1.3721
  800SOL    HW2 3199   1.984   3.091   1.781 -0.8490 -1.6165 -2.2414
  800SOL     MW 3200   1.944   3.087   1.703  0.3326 -0.8859 -0.2457
  801SOL     OW 3201   2.816   1.266   2.602 -0.1550  0.1723 -0.2362
  801SOL    HW1 3202   2.787   1.176   2.597  1.9741 -0.3376  2.8948
  801SOL    HW2 3203   2.890   1.273   2.541  1.1982  0.9994 -0.6602
  801SOL     MW 3204   2.822   1.255   2.593  0.3045  0.2141  0.1210
  802SOL     OW 3205   2.615   1.490   2.788  0.9597 -0.7659 -0.1879
  802SOL    HW1 3206   2.586   1.398   2.759 -1.7117  0.2169 -0.5296
  802SOL    HW2 3207   2.710   1.489   2.790 -1.6361  0.1859 -0.1420
  802SOL     MW 3208   2.624   1.478   2.785  0.2647 -0.5107 -0.2269
  803SOL     OW 3209   2.279   1.403   2.009  0.6809  0.1533 -0.1203
  803SOL    HW1 3210   2.284   1.367   2.098 -1.7909 -1.1457 -2.0161
  803SOL    HW2 3211   2.242   1.326   1.968  2.7212 -1.2595  1.9217
  803SOL     MW 3212   2.275   1.388   2.015  0.6240 -0.2045 -0.1010
  804SOL     OW 3213   2.255   0.087   0.056 -0.5006 -0.6502  0.3175
  804SOL    HW1 3214   2.196   0.169   0.051  2.8294  0.4285 -2.9602
  804SOL    HW2 3215   2.332   0.098  -0.002 -0.5499 -0.3060  2.0003
  804SOL     MW 3216   2.257   0.099   0.048 -0.0678 -0.4625  0.1071
  805SOL     OW 3217   2.729   1.006   2.577  0.0391  0.5503 -0.5791
  805SOL    HW1 3218   2.693   0.946   2.513  1.5468  0.3085 -0.8176
  805SOL    HW2 3219   2.826   0.982   2.583 -0.5626  1.7209  1.7065
  805SOL     MW 3220   2.737   0.995   2.569  0.1586  0.6728 -0.3090
  806SOL     OW 3221   2.561   0.632   2.209  0.0962  0.0666 -0.4996
  806SOL    HW1 3222   2.563   0.535   2.193 -0.0619 -2.6543  2.3934
  806SOL    HW2 3223   2.503   0.657   2.139 -0.5810 -0.2848  0.2672
  806SOL     MW 3224   2.554   0.622   2.198 -0.0140 -0.3388 -0.0167
  807SOL     OW 3225   0.071   1.161   2.049 -0.3062  0.5183 -0.8196
  807SOL    HW1 3226   0.108   1.076   2.071  2.5762  0.2046 -0.6417
  807SOL    HW2 3227  -0.018   1.159   2.071 -0.9105 -2.1130  1.7761
  807SOL     MW 3228   0.064   1.150   2.055 -0.0056  0.1297 -0.4536
  808SOL     OW 3229   2.655   3.044   2.814 -0.4327  0.6370  0.0599
  808SOL    HW1 3230   2.571   2.992   2.818 -0.9179 -1.0239 -0.0139
  808SOL    HW2 3231   2.637   3.106   2.748 -1.6356 -0.6192 -0.2941
  808SOL     MW 3232   2.642   3.045   2.806 -0.6554  0.2521  0.0034
  809SOL     OW 3233   2.602   1.376   2.480  0.0061  0.1959  0.5616
  809SOL    HW1 3234   2.661   1.320   2.533 -0.2222 -4.1926  0.5702
  809SOL    HW2 3235   2.639   1.357   2.391 -2.3507  2.1192 -2.1027
  809SOL     MW 3236   2.614   1.366   2.475 -0.3350 -0.1294  0.2112
  810SOL     OW 3237   2.229   1.324   2.274  0.1254 -0.2749 -0.7925
  810SOL    HW1 3238   2.287   1.263   2.316  1.1080 -0.6181 -0.2554
  810SOL    HW2 3239   2.151   1.331   2.330 -0.7779 -0.2903  1.3682
  810SOL     MW 3240   2.226   1.317   2.287  0.1359 -0.3222 -0.4365
  811SOL     OW 3241   1.544   0.141   2.298 -0.0892 -0.0088 -0.1903
  811SOL    HW1 3242   1.629   0.094   2.312  1.0142 -1.5757 -0.7057
  811SOL    HW2 3243   1.521   0.115   2.207  0.3507  2.2204 -0.0460
  811SOL     MW 3244   1.552   0.132   2.288  0.1144  0.0786 -0.2392
  812SOL     OW 3245   1.442   2.788   1.988 -0.3345  0.0266 -0.5423
  812SOL    HW1 3246   1.524   2.816   1.944 -0.4575 -1.0061  1.3818
  812SOL    HW2 3247   1.478   2.772   2.074  0.9722  2.1087 -0.5111
  812SOL     MW 3248   1.458   2.790   1.993 -0.1783  0.1650 -0.2843
  813SOL     OW 3249   1.931   0.704   2.252 -0.9221 -0.2550 -0.3036
  813SOL    HW1 3250   1.880   0.626   2.264  1.7976  1.9692 -0.9507
  813SOL    HW2 3251   1.905   0.765   2.323  1.1547  3.6688 -0.1927
  813SOL     MW 3252   1.921   0.702   2.263 -0.2892  0.5562 -0.3744
  814SOL     OW 3253   2.690   1.251   1.643 -0.3721 -0.8166  0.0982
  814SOL    HW1 3254   2.613   1.227   1.682 -0.5821 -1.5079 -0.6057
  814SOL    HW2 3255   2.704   1.201   1.564  2.1331  0.3537 -2.5605
  814SOL     MW 3256   2.682   1.242   1.638 -0.0692 -0.7534 -0.3454
  815SOL     OW 3257   2.544   1.742   2.435 -0.5119  0.2612 -0.0811
  815SOL    HW1 3258   2.491   1.678   2.403 -0.9973  4.5170  1.1736
  815SOL    HW2 3259   2.633   1.705   2.433  1.9943  0.4154  0.3296
  815SOL     MW 3260   2.549   1.729   2.430 -0.2453  0.8430  0.1386
  816SOL     OW 3261   0.751   0.719   2.748  0.7020 -0.4256 -0.1182
  816SOL    HW1 3262   0.807   0.645   2.779  0.3591 -0.1570  1.7294
  816SOL    HW2 3263   0.658   0.697   2.744 -2.0590 -2.5148  3.7077
  816SOL     MW 3264   0.746   0.706   2.752  0.2925 -0.6658  0.6303
  817SOL     OW 3265   3.014   1.217   1.453  0.4736  0.1355  0.2044
  817SOL    HW1 3266   3.096   1.228   1.496 -0.7910 -0.9386  0.9679
  817SOL    HW2 3267   2.997   1.305   1.408 -1.7562  0.9581 -2.8597
  817SOL     MW 3268   3.022   1.230   1.453  0.0125  0.1023 -0.0991
  818SOL     OW 3269   1.882   1.066   2.701 -0.2528 -0.3948  0.0628
  818SOL    HW1 3270   1.855   1.039   2.608  0.5575 -1.3356  0.7255
  818SOL    HW2 3271   1.941   0.996   2.727 -1.2769 -0.0483  0.5219
  818SOL     MW 3272   1.886   1.053   2.692 -0.2810 -0.4732  0.2108
  819SOL     OW 3273   1.955   0.219   2.466 -0.5091 -0.3045 -1.0166
  819SOL    HW1 3274   1.872   0.259   2.500  0.6108 -2.5002  0.8807
  819SOL    HW2 3275   2.000   0.205   2.550  1.3972 -1.2093 -0.3492
  819SOL     MW 3276   1.950   0.222   2.481 -0.1098 -0.7136 -0.6782
  820SOL     OW 3277   2.538   1.741   2.693 -0.0711  0.6445 -0.4373
  820SOL    HW1 3278   2.580   1.664   2.733  0.5034 -1.9736  0.7211
  820SOL    HW2 3279   2.544   1.722   2.598 -4.5054  1.1703 -0.9498
  820SOL     MW 3280   2.544   1.729   2.686 -0.5803  0.3685 -0.3521
  821SOL     OW 3281   2.588   1.417   2.043 -0.3841  0.1979  0.5286
  821SOL    HW1 3282   2.613   1.478   1.972  2.3039 -4.7413 -1.6924
  821SOL    HW2 3283   2.490   1.437   2.046 -2.5442 -0.4410  0.8431
  821SOL     MW 3284   2.578   1.428   2.034 -0.3145 -0.5381  0.2770
  822SOL     OW 3285   2.745   2.658   1.400  0.0551 -0.2004  0.3813
  822SOL    HW1 3286   2.768   2.644   1.489 -2.4479 -0.4319 -1.3179
  822SOL    HW2 3287   2.669   2.720   1.402 -0.1037  1.7525  0.6129
  822SOL     MW 3288   2.738   2.664   1.412 -0.2961  0.0267  0.1877
  823SOL     OW 3289   2.347   0.469   1.778 -0.5485 -0.5720 -0.0189
  823SOL    HW1 3290   2.410   0.449   1.709 -0.5646  3.1995  3.4878
  823SOL    HW2 3291   2.281   0.395   1.773 -1.2395  0.5002  2.1486
  823SOL     MW 3292   2.346   0.456   1.769 -0.6418  0.0671  0.7298
  824SOL     OW 3293   2.139   1.465   2.563 -0.1920  0.2090 -0.0541
  824SOL    HW1 3294   2.213   1.501   2.514 -0.5073  0.1244  0.5737
  824SOL    HW2 3295   2.105   1.534   2.620  1.3462 -2.6991  0.5964
  824SOL     MW 3296   2.144   1.479   2.564 -0.0306 -0.1859  0.1145
  825SOL     OW 3297   1.855   2.528   0.307 -0.0867 -0.0218  0.4162
  825SOL    HW1 3298   1.842   2.464   0.383 -2.1066 -0.6128  0.2277
  825SOL    HW2 3299   1.936   2.503   0.257  0.9528 -1.0506  2.6279
  825SOL     MW 3300   1.864   2.516   0.310 -0.2161 -0.2356  0.6832
  826SOL     OW 3301   1.862   2.391   0.527  0.4291 -0.3531 -0.6888
  826SOL    HW1 3302   1.827   2.318   0.582 -0.8828 -0.7891  0.4161
  826SOL    HW2 3303   1.811   2.467   0.564  2.8021 -1.8724  2.3309
  826SOL     MW 3304   1.851   2.391   0.539  0.5691 -0.6111 -0.1446
  827SOL     OW 3305   1.948   2.193   0.921 -0.0337  0.3899  0.1614
  827SOL    HW1 3306   1.908   2.256   0.858 -0.6432  0.2775  2.6451
  827SOL    HW2 3307   1.875   2.146   0.956  2.3867  0.4039  0.0426
  827SOL     MW 3308   1.933   2.195   0.918  0.2052  0.3769  0.4734
  828SOL     OW 3309   0.056   2.574   0.608  0.4424  0.8707 -0.3666
  828SOL    HW1 3310   0.150   2.576   0.625 -1.3153 -3.2820  0.8708
  828SOL    HW2 3311   0.023   2.640   0.544 -0.7089  0.2317 -1.3931
  828SOL     MW 3312   0.064   2.583   0.602  0.0586  0.2385 -0.3388
  829SOL     OW 3313   2.960   2.966   1.141 -0.3342 -0.3156 -0.0781
  829SOL    HW1 3314   2.867   2.935   1.136 -1.4211  1.4703 -0.6953
  829SOL    HW2 3315   3.021   2.891   1.137 -0.8870 -2.7192 -1.3969
  829SOL     MW 3316   2.956   2.952   1.140 -0.5505 -0.3971 -0.3336
  830SOL     OW 3317   2.515   2.873   2.026 -0.6441  0.4008 -0.2595
  830SOL    HW1 3318   2.421   2.870   1.993 -2.3222 -0.1130  0.1634
  830SOL    HW2 3319   2.558   2.872   1.943 -0.6177  0.1513  0.6865
  830SOL     MW 3320   2.508   2.872   2.011 -0.8620  0.3001 -0.0789
  831SOL     OW 3321   2.397   2.498   1.245  0.1160 -0.1079  0.3196
  831SOL    HW1 3322   2.374   2.456   1.335 -0.3276 -1.7877  0.7983
  831SOL    HW2 3323   2.482   2.455   1.223 -2.7664  0.5135 -0.5775
  831SOL     MW 3324   2.405   2.487   1.254 -0.3229 -0.2475  0.2644
  832SOL     OW 3325   2.369   2.192   1.924  0.0001 -0.3804 -0.2107
  832SOL    HW1 3326   2.383   2.283   1.960  2.0580  0.5143  1.6614
  832SOL    HW2 3327   2.458   2.156   1.898  0.1117  0.6774  0.6963
  832SOL     MW 3328   2.383   2.199   1.925  0.2863 -0.1228  0.1560
  833SOL     OW 3329   1.756   2.418   0.883  0.2124 -0.6617 -0.5239
  833SOL    HW1 3330   1.663   2.388   0.896  0.4977  2.7000  0.8656
  833SOL    HW2 3331   1.791   2.454   0.955 -0.9996  1.2577 -3.4906
  833SOL     MW 3332   1.749   2.419   0.894  0.0901  0.0351 -0.7320
  834SOL     OW 3333   2.130   2.488   0.593  0.4679  0.4651  0.3453
  834SOL    HW1 3334   2.040   2.453   0.574 -0.5641  1.9494 -4.3027
  834SOL    HW2 3335   2.185   2.478   0.518 -1.2674 -1.4103 -2.1648
  834SOL     MW 3336   2.125   2.482   0.580  0.1028  0.4135 -0.5991
  835SOL     OW 3337   1.767   2.601   0.662  0.2626  0.2378 -0.2540
  835SOL    HW1 3338   1.748   2.556   0.751 -0.2398  1.1840  1.2252
  835SOL    HW2 3339   1.835   2.659   0.681 -0.2626 -0.7199  1.8287
  835SOL     MW 3340   1.773   2.603   0.677  0.1270  0.2363  0.2160
  836SOL     OW 3341   1.894   2.197   1.614 -0.0774  0.0548 -0.3368
  836SOL    HW1 3342   1.982   2.228   1.627  0.3235 -2.9514 -0.6331
  836SOL    HW2 3343   1.831   2.269   1.610 -1.1476 -1.3601  1.4132
  836SOL     MW 3344   1.897   2.210   1.615 -0.1657 -0.5285 -0.1450
  837SOL     OW 3345   2.094   0.143   0.719  0.5499  0.4351  0.4092
  837SOL    HW1 3346   2.033   0.216   0.691 -2.8183 -1.2638  1.4659
  837SOL    HW2 3347   2.135   0.112   0.633  2.1395 -1.6064 -0.5425
  837SOL     MW 3348   2.091   0.148   0.704  0.3152 -0.0584  0.4231
  838SOL     OW 3349   2.938   2.091   0.940  0.3781  0.1396 -0.0921
  838SOL    HW1 3350   2.872   2.036   0.985  0.1334  0.6384  1.5164
  838SOL    HW2 3351   2.986   2.039   0.877  0.3794  0.9283  1.0307
  838SOL     MW 3352   2.936   2.077   0.938  0.3460  0.3094  0.2683
  839SOL     OW 3353   1.500   2.337   0.958 -0.0094  0.4022 -0.3234
  839SOL    HW1 3354   1.502   2.426   0.993  0.2912 -0.6906 -1.2414
  839SOL    HW2 3355   1.517   2.271   1.025 -2.0589  1.0959  0.6824
  839SOL     MW 3356   1.502   2.340   0.972 -0.2401  0.3496 -0.3118
  840SOL     OW 3357   2.360   2.107   2.423 -0.3897 -0.6352 -0.5870
  840SOL    HW1 3358   2.317   2.169   2.375  0.8249 -1.6487  2.6833
  840SOL    HW2 3359   2.392   2.155   2.500 -2.2756  0.9003 -0.5779
  840SOL     MW 3360   2.359   2.121   2.427 -0.4782 -0.5664 -0.1543
  841SOL     OW 3361   2.076   2.491   0.135  0.1176  0.4262 -0.1049
  841SOL    HW1 3362   2.131   2.525   0.060  0.4696  0.1014  0.5250
  841SOL    HW2 3363   2.048   2.401   0.109  0.5994 -0.5477 -1.3175
  841SOL     MW 3364   2.080   2.484   0.121  0.2276  0.2548 -0.1817
  842SOL     OW 3365   2.570   2.038   1.543  0.4383 -1.1205  0.6079
  842SOL    HW1 3366   2.557   1.947   1.566  1.1882  0.3974 -0.1161
  842SOL    HW2 3367   2.526   2.048   1.461 -2.0608  0.6619 -0.9084
  842SOL     MW 3368   2.562   2.027   1.535  0.2075 -0.6851  0.3123
  843SOL     OW 3369   2.641   2.775   1.783 -0.3918 -0.1466  0.7734
  843SOL    HW1 3370   2.732   2.748   1.745  2.2136 -2.2009 -4.4132
  843SOL    HW2 3371   2.595   2.687   1.758 -1.9311  0.4218 -0.2968
  843SOL     MW 3372   2.647   2.760   1.775 -0.2511 -0.3426 -0.0521
  844SOL     OW 3373   2.594   2.327   1.180 -0.0865 -0.0573 -0.2918
  844SOL    HW1 3374   2.626   2.358   1.094  0.7672 -2.6030  1.9989
  844SOL    HW2 3375   2.667   2.327   1.253 -0.9200  0.0241  0.1776
  844SOL     MW 3376   2.608   2.331   1.178 -0.0838 -0.3824  0.0723
  845SOL     OW 3377   2.846   2.490   0.286  0.1905  0.0572  0.0743
  845SOL    HW1 3378   2.816   2.401   0.309 -0.3674  0.7619 -1.3897
  845SOL    HW2 3379   2.881   2.522   0.371  2.5755  0.4501 -1.3992
  845SOL     MW 3380   2.846   2.482   0.300  0.4315  0.2021 -0.3133
  846SOL     OW 3381   1.508   2.908   0.759 -0.0412  0.3170  0.4093
  846SOL    HW1 3382   1.576   2.910   0.822  1.6685 -0.8852 -0.1485
  846SOL    HW2 3383   1.432   2.950   0.798 -1.2897  1.5612  3.3239
  846SOL     MW 3384   1.507   2.914   0.772  0.0197  0.3225  0.7202
  847SOL     OW 3385   2.604   1.936   0.169 -0.9277 -0.0944 -0.7523
  847SOL    HW1 3386   2.682   1.873   0.183  1.4008 -0.6877  3.7291
  847SOL    HW2 3387   2.534   1.885   0.119 -1.6067  1.5578  2.3372
  847SOL     MW 3388   2.605   1.921   0.164 -0.7100  0.0453  0.2466
  848SOL     OW 3389   2.453   2.110   1.306  0.8320 -0.0326  0.5415
  848SOL    HW1 3390   2.485   2.181   1.244  1.3575  1.1171  0.9198
  848SOL    HW2 3391   2.424   2.038   1.251  1.0192 -0.0079 -1.7908
  848SOL     MW 3392   2.453   2.110   1.290  0.9260  0.1224  0.2837
  849SOL     OW 3393   1.998   2.756   0.751  0.1416 -0.6764  0.0879
  849SOL    HW1 3394   2.026   2.676   0.799 -2.9910  2.6858  2.2988
  849SOL    HW2 3395   2.076   2.786   0.711  0.5933 -0.2191 -1.6875
  849SOL     MW 3396   2.012   2.749   0.752 -0.2121 -0.1724  0.1454
  850SOL     OW 3397   2.205   1.967   1.713 -0.4229 -0.3855 -0.5853
  850SOL    HW1 3398   2.134   1.922   1.667  2.9216 -1.1405 -1.4451
  850SOL    HW2 3399   2.206   2.061   1.690 -1.7193  1.3790 -0.4667
  850SOL     MW 3400   2.196   1.974   1.704 -0.1527 -0.2523 -0.6831
  851SOL     OW 3401   2.249   2.424   0.348 -0.3237 -0.1703 -0.2583
  851SOL    HW1 3402   2.193   2.421   0.264  0.3231  0.5594 -0.2673
  851SOL    HW2 3403   2.327   2.475   0.317  3.0797  0.0547 -0.0961
  851SOL     MW 3404   2.252   2.430   0.332  0.2107 -0.0443 -0.2381
  852SOL     OW 3405   2.338   2.166   0.224  0.4255  0.0677  0.3374
  852SOL    HW1 3406   2.310   2.233   0.289  0.2312  1.9448  0.7551
  852SOL    HW2 3407   2.403   2.203   0.176  0.4110 -0.4477  0.3416
  852SOL     MW 3408   2.343   2.180   0.226  0.3980  0.2474  0.3930
  853SOL     OW 3409   2.466   2.449   1.987  0.6253 -0.3042  0.6930
  853SOL    HW1 3410   2.471   2.482   1.899  0.8011  1.0966  1.9966
  853SOL    HW2 3411   2.555   2.434   2.015  2.3466 -0.1093 -1.9249
  853SOL     MW 3412   2.479   2.451   1.979  0.8756 -0.0936  0.5196
  854SOL     OW 3413   2.811   2.275   0.775 -0.1990  0.0786  0.0588
  854SOL    HW1 3414   2.744   2.230   0.721 -2.5946 -1.9527  2.4516
  854SOL    HW2 3415   2.851   2.209   0.836  0.0368  1.9592  1.4341
  854SOL     MW 3416   2.807   2.261   0.776 -0.4839  0.0587  0.5559
  855SOL     OW 3417   2.689   2.263   0.363  0.2595  0.0868 -0.1407
  855SOL    HW1 3418   2.664   2.303   0.450 -0.3430 -0.2857  0.6671
  855SOL    HW2 3419   2.760   2.206   0.388 -0.4377 -3.4498 -1.4068
  855SOL     MW 3420   2.695   2.261   0.378  0.0880 -0.4290 -0.2011
  856SOL     OW 3421   2.207   1.913   0.198  0.3536 -0.2067 -0.1647
  856SOL    HW1 3422   2.111   1.932   0.203 -1.0676  0.6967 -0.8112
  856SOL    HW2 3423   2.239   2.005   0.211 -0.8251  1.2151 -0.3963
  856SOL     MW 3424   2.199   1.928   0.201  0.0105  0.1001 -0.2806
  857SOL     OW 3425   2.583   1.987   0.459 -0.2080 -0.4307 -0.3351
  857SOL    HW1 3426   2.621   2.058   0.400 -0.4121  0.6390 -2.1716
  857SOL    HW2 3427   2.523   1.953   0.400  1.8290  0.6159  0.2250
  857SOL     MW 3428   2.580   1.992   0.443  0.0339 -0.1515 -0.5035
  858SOL     OW 3429   2.849   2.657   1.646 -0.9555  0.1303 -0.4967
  858SOL    HW1 3430   2.941   2.682   1.651  0.8776 -0.3978 -0.7671
  858SOL    HW2 3431   2.843   2.573   1.693  1.8236 -0.2007  2.0828
  858SOL     MW 3432   2.860   2.649   1.653 -0.3470  0.0170 -0.1920
  859SOL     OW 3433   2.102   2.542   0.877  0.0865  0.1264 -0.1339
  859SOL    HW1 3434   2.107   2.482   0.806  1.0837  0.8083  1.2687
  859SOL    HW2 3435   2.186   2.542   0.918  1.5965  1.4975  0.7221
  859SOL     MW 3436   2.114   2.534   0.873  0.4173  0.3973  0.1641
  860SOL     OW 3437   2.633   2.586   0.133 -0.5056  0.4546  0.1051
  860SOL    HW1 3438   2.698   2.575   0.202 -0.3593  0.8985 -1.7231
  860SOL    HW2 3439   2.677   2.649   0.076  0.7325 -1.4146 -0.4843
  860SOL     MW 3440   2.648   2.593   0.135 -0.3229  0.2665 -0.2139
  861SOL     OW 3441   1.533   2.127   1.150  0.3143 -0.7001 -0.6786
  861SOL    HW1 3442   1.551   2.205   1.216 -1.1442  2.6181 -1.1537
  861SOL    HW2 3443   1.494   2.066   1.205  1.5523  1.5255  1.9292
  861SOL     MW 3444   1.530   2.129   1.166  0.2852  0.0314 -0.3972
  862SOL     OW 3445   2.427   1.779   1.560 -0.1203 -0.4085 -0.2545
  862SOL    HW1 3446   2.410   1.836   1.635 -1.1440  0.9219  0.2668
  862SOL    HW2 3447   2.370   1.809   1.494 -1.5419  2.5103  1.2306
  862SOL     MW 3448   2.417   1.791   1.561 -0.4429  0.1522  0.0103
  863SOL     OW 3449   0.051   1.902   1.143 -0.9382  0.4593 -0.4977
  863SOL    HW1 3450   0.141   1.907   1.162 -1.9720 -1.4419 -0.3979
  863SOL    HW2 3451   0.007   1.979   1.189 -0.1128  1.9057  2.6988
  863SOL     MW 3452   0.057   1.913   1.152 -0.9657  0.3993 -0.0628
  864SOL     OW 3453   0.030   1.894   0.854  0.1033  0.5289 -0.0575
  864SOL    HW1 3454   0.020   1.889   0.950 -1.6185  0.6069 -0.2257
  864SOL    HW2 3455  -0.024   1.830   0.815  0.3791  4.4466  2.9569
  864SOL     MW 3456   0.022   1.885   0.862 -0.0875  1.0561  0.3180
  865SOL     OW 3457   2.611   2.159   0.020  0.4943  0.0668 -0.2280
  865SOL    HW1 3458   2.615   2.087   0.088  1.2287 -0.2364 -0.8638
  865SOL    HW2 3459   2.563   2.123  -0.054  0.4032  1.8808 -0.1538
  865SOL     MW 3460   2.605   2.145   0.020  0.5792  0.2661 -0.3021
  866SOL     OW 3461   2.669   2.309   1.611  0.5255 -0.0448 -0.3133
  866SOL    HW1 3462   2.643   2.218   1.617 -0.8050  1.5903 -0.4592
  866SOL    HW2 3463   2.718   2.322   1.526  2.6922 -1.6884  1.1641
  866SOL     MW 3464   2.672   2.299   1.600  0.6358 -0.0459 -0.1376
  867SOL     OW 3465   0.013   2.663   1.797 -0.3908  0.0130 -0.0929
  867SOL    HW1 3466   0.024   2.648   1.894 -0.9365  0.8382  0.2158
  867SOL    HW2 3467  -0.002   2.754   1.785  0.2593 -0.4483 -2.4403
  867SOL     MW 3468   0.013   2.673   1.808 -0.3770  0.0610 -0.3619
  868SOL     OW 3469   2.820   2.581   0.538  0.1083 -0.0059 -0.7083
  868SOL    HW1 3470   2.740   2.524   0.547  2.2868 -1.9706  1.4079
  868SOL    HW2 3471   2.794   2.662   0.499  1.5920  0.5137  1.4937
  868SOL     MW 3472   2.806   2.584   0.534  0.5915 -0.1966 -0.1386
  869SOL     OW 3473   1.993   2.388   1.107  0.1061  0.0492  0.6903
  869SOL    HW1 3474   2.033   2.465   1.064  1.6367 -0.4188 -0.8297
  869SOL    HW2 3475   1.985   2.310   1.040  2.2851 -4.4603  0.3486
  869SOL     MW 3476   1.998   2.388   1.092  0.5955 -0.6076  0.4446
  870SOL     OW 3477   2.157   0.030   0.457 -0.4195  0.2157  0.2321
  870SOL    HW1 3478   2.223   0.084   0.399 -2.0804  1.6789  0.3762
  870SOL    HW2 3479   2.183  -0.064   0.440  0.3447  1.5424 -0.2398
  870SOL     MW 3480   2.169   0.025   0.447 -0.5378  0.5838  0.1888
  871SOL     OW 3481   2.480   2.137   0.966 -0.4309  0.0100 -0.4115
  871SOL    HW1 3482   2.420   2.070   0.933 -1.7448  2.1034 -0.9144
  871SOL    HW2 3483   2.416   2.208   0.990 -0.8212  0.0234  2.0406
  871SOL     MW 3484   2.463   2.138   0.965 -0.6558  0.2879 -0.1543
  872SOL     OW 3485   2.047   2.563   1.435 -0.1383  0.0922 -0.0553
  872SOL    HW1 3486   2.008   2.597   1.520 -0.4163 -2.2938  1.3088
  872SOL    HW2 3487   1.987   2.488   1.419 -0.9790 -1.1600 -0.1486
  872SOL     MW 3488   2.034   2.558   1.444 -0.2859 -0.3878  0.1124
  873SOL     OW 3489   2.909   2.065   1.935 -0.1656 -0.4590 -0.2801
  873SOL    HW1 3490   2.956   2.134   1.987 -1.1414 -0.3835  3.5398
  873SOL    HW2 3491   2.951   2.080   1.847  0.5914 -1.6521 -1.4628
  873SOL     MW 3492   2.921   2.076   1.930 -0.1945 -0.6065  0.0679
  874SOL     OW 3493   2.385   1.509   2.371  0.1375 -0.5401 -0.4486
  874SOL    HW1 3494   2.324   1.455   2.319  1.1413 -0.9464  1.3172
  874SOL    HW2 3495   2.448   1.446   2.408  2.9195 -2.4696 -0.3951
  874SOL     MW 3496   2.385   1.493   2.369  0.6370 -0.8483 -0.2085
  875SOL     OW 3497   2.285   2.285   1.063 -0.2618  0.5877  0.3916
  875SOL    HW1 3498   2.251   2.333   0.986  3.0118  2.4584  0.5854
  875SOL    HW2 3499   2.323   2.362   1.111 -1.4955  0.4234 -0.2500
  875SOL     MW 3500   2.286   2.302   1.059  0.0073  0.8128  0.3325
  876SOL     OW 3501   3.041   2.306   1.233  0.3402 -0.5856  0.3065
  876SOL    HW1 3502   3.090   2.317   1.144 -0.2404 -0.3704 -1.6958
  876SOL    HW2 3503   3.067   2.384   1.283  0.0079  2.2890  0.1317
  876SOL     MW 3504   3.051   2.318   1.228  0.2197 -0.1779  0.0193
  877SOL     OW 3505   3.086   2.743   0.387  0.0667 -0.7285 -0.4038
  877SOL    HW1 3506   3.143   2.820   0.389  2.2562 -0.6074 -0.1069
  877SOL    HW2 3507   3.085   2.727   0.294  0.1785 -2.4276 -0.4501
  877SOL     MW 3508   3.093   2.752   0.375  0.3704 -0.9367 -0.3707
  878SOL     OW 3509   2.411   1.826   1.254  0.1026  0.7074  0.4602
  878SOL    HW1 3510   2.350   1.753   1.261  2.2507 -0.5571  1.3148
  878SOL    HW2 3511   2.497   1.791   1.236  0.2103 -1.4005 -2.0447
  878SOL     MW 3512   2.414   1.812   1.253  0.4002  0.2624  0.2425
  879SOL     OW 3513   2.678   2.439   0.941 -0.2243 -0.5644  0.4037
  879SOL    HW1 3514   2.742   2.503   0.969  0.7519 -1.6073  1.8538
  879SOL    HW2 3515   2.732   2.393   0.870  0.6666 -0.5891  0.2904
  879SOL     MW 3516   2.693   2.441   0.935  0.0221 -0.7052  0.5801
  880SOL     OW 3517   2.530   2.166   0.675 -0.3595 -0.1650  0.1077
  880SOL    HW1 3518   2.524   2.136   0.759 -0.6105 -1.1907 -1.8169
  880SOL    HW2 3519   2.510   2.091   0.616 -2.9573 -2.1222  0.5703
  880SOL     MW 3520   2.526   2.152   0.678 -0.7354 -0.5586 -0.0852
  881SOL     OW 3521   2.951   2.659   0.768  0.2575  0.0486  0.5696
  881SOL    HW1 3522   2.911   2.634   0.684 -1.9924 -1.2818  0.3235
  881SOL    HW2 3523   3.045   2.640   0.760  0.9695 -2.2053 -0.0482
  881SOL     MW 3524   2.958   2.653   0.756  0.0546 -0.4243  0.4556
  882SOL     OW 3525   2.249   2.867   1.958  0.3871  0.0806 -0.5961
  882SOL    HW1 3526   2.228   2.843   1.863 -3.7026  2.1689 -0.8821
  882SOL    HW2 3527   2.206   2.795   2.012 -1.6193  1.6155  0.5399
  882SOL     MW 3528   2.241   2.854   1.953 -0.4172  0.5587 -0.4840
  883SOL     OW 3529   2.314   2.320   1.439 -0.3158 -0.1150  0.2719
  883SOL    HW1 3530   2.373   2.250   1.405  3.1950 -0.2668 -0.4540
  883SOL    HW2 3531   2.225   2.310   1.396  0.6998  0.5628 -0.6000
  883SOL     MW 3532   2.310   2.309   1.429  0.2814 -0.0456  0.0611
  884SOL     OW 3533   1.998   1.848   1.130  0.3198  0.1766  0.7092
  884SOL    HW1 3534   1.921   1.903   1.116 -1.4619 -0.2208 -0.3798
  884SOL    HW2 3535   2.063   1.916   1.127  0.4601 -0.8393 -4.2697
  884SOL     MW 3536   1.996   1.864   1.128  0.1032 -0.0099 -0.0914
  885SOL     OW 3537   2.824   2.435   1.813 -0.2439  0.1029 -0.4892
  885SOL    HW1 3538   2.918   2.402   1.806  0.4871  0.2681 -2.6816
  885SOL    HW2 3539   2.770   2.377   1.749 -0.4464  1.5075 -2.4715
  885SOL     MW 3540   2.829   2.423   1.804 -0.1741  0.3100 -1.0400
  886SOL     OW 3541   2.801   2.367   1.346  0.1305  0.3483  0.3296
  886SOL    HW1 3542   2.882   2.347   1.299 -1.3922 -0.8857 -0.0339
  886SOL    HW2 3543   2.780   2.462   1.332 -2.4860  0.3369  0.4147
  886SOL     MW 3544   2.809   2.377   1.338 -0.4156  0.1840  0.2928
  887SOL     OW 3545   2.302   2.608   1.541 -0.4684 -0.1628 -0.4847
  887SOL    HW1 3546   2.315   2.662   1.455 -0.2980  1.4592  1.4620
  887SOL    HW2 3547   2.213   2.570   1.532 -0.0160 -3.3251  0.3107
  887SOL     MW 3548   2.292   2.610   1.529 -0.3863 -0.3660 -0.1229
  888SOL     OW 3549   1.852   2.080   1.384 -0.5139  0.6098 -0.4603
  888SOL    HW1 3550   1.926   2.091   1.327 -1.1426 -0.0892  1.2598
  888SOL    HW2 3551   1.892   2.101   1.469 -0.5521  0.4779  1.7985
  888SOL     MW 3552   1.867   2.085   1.387 -0.6019  0.5002  0.0647
  889SOL     OW 3553   2.316   1.979   2.110  0.3771 -0.4078 -0.4593
  889SOL    HW1 3554   2.405   1.974   2.145  0.0386  0.2256  1.5966
  889SOL    HW2 3555   2.324   2.054   2.052  0.6609  0.7204 -0.3754
  889SOL     MW 3556   2.329   1.988   2.107  0.3699 -0.1753 -0.1770
  890SOL     OW 3557   0.091   2.377   0.204  0.3407  0.4187 -0.2638
  890SOL    HW1 3558   0.055   2.461   0.179 -0.4583  2.2900 -1.6759
  890SOL    HW2 3559   0.028   2.337   0.263  0.1301 -1.5234 -2.5207
  890SOL     MW 3560   0.078   2.383   0.208  0.2075  0.4094 -0.7479
  891SOL     OW 3561   2.982   2.061   1.296  0.0876  0.2367  0.1813
  891SOL    HW1 3562   3.058   2.052   1.358 -0.0482  1.2899 -0.5099
  891SOL    HW2 3563   2.973   2.156   1.276  0.4705 -1.0744 -0.5793
  891SOL     MW 3564   2.991   2.072   1.301  0.1202  0.2026 -0.0103
  892SOL     OW 3565   2.432   2.365   2.854  0.2318 -0.1334 -0.2946
  892SOL    HW1 3566   2.440   2.275   2.882  1.4754  2.0664  0.5926
  892SOL    HW2 3567   2.525   2.387   2.846 -0.6842 -0.6277  0.0620
  892SOL     MW 3568   2.445   2.356   2.856  0.2750  0.0916 -0.1305
  893SOL     OW 3569   1.590   2.376   1.272  0.4959 -1.0136  0.5117
  893SOL    HW1 3570   1.519   2.428   1.321 -1.1968 -0.7301  0.7655
  893SOL    HW2 3571   1.662   2.358   1.329 -1.0673 -0.3137 -0.1186
  893SOL     MW 3572   1.590   2.381   1.286  0.0663 -0.8839  0.4620
  894SOL     OW 3573   2.818   1.816   0.439  0.1405 -0.6500  0.0414
  894SOL    HW1 3574   2.724   1.855   0.425 -5.0957  1.3481 -0.3795
  894SOL    HW2 3575   2.834   1.777   0.355 -1.1725  0.1635  1.3489
  894SOL     MW 3576   2.808   1.816   0.426 -0.7236 -0.2790  0.1584
  895SOL     OW 3577   2.076   2.225   1.311  0.5977 -0.2319 -0.0208
  895SOL    HW1 3578   2.066   2.282   1.237  0.2406 -2.2886  1.0364
  895SOL    HW2 3579   2.139   2.157   1.281 -0.2971  1.7027  0.6583
  895SOL     MW 3580   2.083   2.223   1.297  0.4325 -0.2480  0.2083
  896SOL     OW 3581   2.139   2.824   1.090 -0.1760 -0.1384 -0.0974
  896SOL    HW1 3582   2.200   2.835   1.158 -0.5170  0.1682 -0.2312
  896SOL    HW2 3583   2.072   2.765   1.132  1.9176  1.0036  0.6794
  896SOL     MW 3584   2.138   2.818   1.104  0.0552  0.0527 -0.0126
  897SOL     OW 3585   3.001   2.919   0.095  0.4358  0.2728 -0.0047
  897SOL    HW1 3586   3.077   2.922   0.036 -0.8010  2.0023 -0.6932
  897SOL    HW2 3587   2.948   2.856   0.057  0.2166 -0.4621  3.8471
  897SOL     MW 3588   3.004   2.911   0.082  0.2437  0.4040  0.4127
  898SOL     OW 3589   2.086   0.244   1.412 -0.1242  0.8011 -0.3983
  898SOL    HW1 3590   2.035   0.162   1.425 -1.0885 -1.5301 -0.6065
  898SOL    HW2 3591   2.085   0.261   1.318 -2.1075  0.2839 -0.8633
  898SOL     MW 3592   2.080   0.235   1.401 -0.5131  0.4253 -0.4871
  899SOL     OW 3593   2.910   2.896   0.651 -0.0216 -0.6228 -0.3501
  899SOL    HW1 3594   2.919   2.817   0.707 -0.1905  0.8221  0.1547
  899SOL    HW2 3595   2.822   2.930   0.677 -0.3966 -1.3583 -0.6843
  899SOL     MW 3596   2.900   2.890   0.662 -0.0934 -0.5292 -0.3276
  900SOL     OW 3597   0.092   2.391   1.029 -0.2941  0.1826 -0.3700
  900SOL    HW1 3598   0.100   2.483   1.015 -1.8573  1.5285 -0.4105
  900SOL    HW2 3599   0.114   2.348   0.945  0.2861  1.6673 -1.4032
  900SOL     MW 3600   0.096   2.398   1.016 -0.4238  0.5561 -0.5116
  901SOL     OW 3601   1.800   2.857   1.677  0.3858  0.3033  0.5698
  901SOL    HW1 3602   1.851   2.778   1.684 -1.2934  0.0221 -0.3925
  901SOL    HW2 3603   1.722   2.836   1.620 -0.5285 -1.5052 -0.0433
  901SOL     MW 3604   1.796   2.844   1.670  0.0436  0.0276  0.3620
  902SOL     OW 3605   2.646   2.101   1.858  0.6337  0.5627 -0.1046
  902SOL    HW1 3606   2.602   2.018   1.868 -0.4172  0.7430  1.1017
  902SOL    HW2 3607   2.737   2.089   1.891 -0.4069  0.4535  1.4784
  902SOL     MW 3608   2.652   2.088   1.863  0.3577  0.5721  0.2634
  903SOL     OW 3609   1.617   2.773   0.526  0.0679 -0.0361  0.2314
  903SOL    HW1 3610   1.671   2.698   0.564  0.8563  0.4818 -0.8291
  903SOL    HW2 3611   1.577   2.816   0.602 -2.1259  1.5922 -0.0299
  903SOL     MW 3612   1.619   2.769   0.541 -0.1175  0.2470  0.0570
  904SOL     OW 3613   2.498   2.527   1.720  0.5250 -0.6146  0.0077
  904SOL    HW1 3614   2.427   2.547   1.657  0.5713 -1.1359  1.7813
  904SOL    HW2 3615   2.544   2.455   1.683 -1.0371  2.5506 -1.1425
  904SOL     MW 3616   2.495   2.521   1.707  0.3250 -0.2658  0.0900
  905SOL     OW 3617   2.309   2.526   2.203 -0.0827  0.4698 -0.0177
  905SOL    HW1 3618   2.371   2.497   2.130 -1.2976 -0.0774 -2.3665
  905SOL    HW2 3619   2.294   2.441   2.259 -1.9212  1.5887 -1.3976
  905SOL     MW 3620   2.315   2.511   2.201 -0.4856  0.5452 -0.5097
  906SOL     OW 3621   2.405   2.508   0.891 -0.1827  0.0033  0.6562
  906SOL    HW1 3622   2.496   2.482   0.905  0.9487  0.7006 -0.9536
  906SOL    HW2 3623   2.418   2.602   0.885  2.3726  1.0185  0.5317
  906SOL     MW 3624   2.419   2.517   0.892  0.3037  0.2293  0.4273
  907SOL     OW 3625   2.551   2.909   1.300 -0.4202 -0.5089  0.7214
  907SOL    HW1 3626   2.632   2.931   1.353  0.5795 -4.1212 -0.8204
  907SOL    HW2 3627   2.583   2.856   1.219 -1.5877 -0.5845  2.0651
  907SOL     MW 3628   2.566   2.905   1.297 -0.4423 -0.9955  0.6953
  908SOL     OW 3629   2.764   2.371   3.094  0.1916 -0.5311  0.6642
  908SOL    HW1 3630   2.720   2.279   3.119 -0.5902 -0.7118 -1.4203
  908SOL    HW2 3631   2.716   2.439   3.146 -3.4100  0.2780 -0.0943
  908SOL     MW 3632   2.752   2.368   3.104 -0.3867 -0.4482  0.2891
  909SOL     OW 3633   1.591   0.179   1.146  0.1983 -0.1819  0.8978
  909SOL    HW1 3634   1.628   0.217   1.068 -2.2228  1.3195  0.7418
  909SOL    HW2 3635   1.615   0.234   1.218  0.2894 -1.0053 -2.1758
  909SOL     MW 3636   1.599   0.191   1.145 -0.1092 -0.0924  0.4717
  910SOL     OW 3637   2.307   1.773   0.439  0.5411  0.6481  0.3279
  910SOL    HW1 3638   2.239   1.710   0.452  1.1048 -0.6593  0.9013
  910SOL    HW2 3639   2.285   1.814   0.352  0.6529  1.0336 -0.4529
  910SOL     MW 3640   2.295   1.770   0.430  0.6302  0.5265  0.3005
  911SOL     OW 3641   2.208   2.256   1.709  0.2810 -0.1925  0.1267
  911SOL    HW1 3642   2.264   2.231   1.787 -0.1894 -0.8610 -1.3638
  911SOL    HW2 3643   2.267   2.282   1.632 -0.8804  0.0792 -0.6369
  911SOL     MW 3644   2.223   2.256   1.709  0.0657 -0.2449 -0.1707
  912SOL     OW 3645   2.840   1.942   1.522 -0.2500 -0.5583 -0.5215
  912SOL    HW1 3646   2.882   1.977   1.439  3.8387  0.4914 -1.2501
  912SOL    HW2 3647   2.764   1.992   1.546 -2.0011 -1.6602 -0.3693
  912SOL     MW 3648   2.836   1.953   1.514  0.0584 -0.5652 -0.5975
  913SOL     OW 3649   2.568   2.986   0.373  0.3635  0.2408 -0.6359
  913SOL    HW1 3650   2.645   2.927   0.367  0.8071 -0.3809  0.1347
  913SOL    HW2 3651   2.492   2.942   0.411 -1.0766  0.0452 -0.5717
  913SOL     MW 3652   2.568   2.973   0.377  0.2320  0.1329 -0.5258
  914SOL     OW 3653   2.760   1.620   3.040 -0.0923  0.5247 -0.4310
  914SOL    HW1 3654   2.760   1.699   2.991  1.8365  0.1360 -0.6442
  914SOL    HW2 3655   2.676   1.628   3.097 -1.7300 -1.8309  0.2027
  914SOL     MW 3656   2.749   1.631   3.041 -0.0539  0.1626 -0.3755
  915SOL     OW 3657   1.813   0.259   0.174 -0.0247  0.0514  0.2215
  915SOL    HW1 3658   1.856   0.189   0.218  0.0467  0.3670 -1.1331
  915SOL    HW2 3659   1.719   0.252   0.184  0.3092 -1.3938  1.5639
  915SOL     MW 3660   1.806   0.249   0.181  0.0288 -0.0977  0.2199
  916SOL     OW 3661   1.719   2.078   1.940 -0.4612 -0.3984 -0.0814
  916SOL    HW1 3662   1.781   2.152   1.920  0.3598 -1.4106 -0.9123
  916SOL    HW2 3663   1.729   2.014   1.867  1.5626  0.1046 -1.8026
  916SOL     MW 3664   1.728   2.080   1.928 -0.0859 -0.4656 -0.4181
  917SOL     OW 3665   2.425   2.318   2.586 -0.0257  0.4034 -0.3964
  917SOL    HW1 3666   2.439   2.313   2.683 -1.7133  0.1275  0.1596
  917SOL    HW2 3667   2.508   2.341   2.545  1.0066 -1.0100  1.6337
  917SOL     MW 3668   2.438   2.320   2.593 -0.1121  0.1805 -0.0552
  918SOL     OW 3669   2.011   1.641   2.711 -0.4917 -0.2709 -0.5826
  918SOL    HW1 3670   1.942   1.680   2.654  0.5685 -1.3971 -0.1047
  918SOL    HW2 3671   2.093   1.694   2.702  2.8858 -0.3808  1.1283
  918SOL     MW 3672   2.013   1.653   2.702  0.0938 -0.4340 -0.2938
  919SOL     OW 3673   0.057   2.355   2.262 -0.0939  0.0045 -0.1826
  919SOL    HW1 3674  -0.026   2.298   2.239 -1.0684 -1.1106 -1.8577
  919SOL    HW2 3675   0.116   2.354   2.183 -0.4058 -0.5046 -1.0960
  919SOL     MW 3676   0.054   2.347   2.249 -0.2636 -0.2098 -0.5241
  920SOL     OW 3677   2.757   2.789   3.095  0.0158 -0.2773  0.3380
  920SOL    HW1 3678   2.677   2.841   3.129 -0.4860 -1.4106  0.8295
  920SOL    HW2 3679   2.747   2.765   2.994  2.9676  0.3583 -1.9266
  920SOL     MW 3680   2.745   2.793   3.086  0.3391 -0.3430  0.1040
  921SOL     OW 3681   2.432   2.630   2.694 -0.4892  0.3573  0.2647
  921SOL    HW1 3682   2.513   2.647   2.648 -4.6288  2.2887 -1.4159
  921SOL    HW2 3683   2.427   2.535   2.718 -2.1623 -1.4852  1.3344
  921SOL     MW 3684   2.442   2.620   2.691 -1.2561  0.3690  0.1841
  922SOL     OW 3685   2.003   2.777   0.316  0.1727 -0.2138 -0.5657
  922SOL    HW1 3686   1.989   2.771   0.222 -0.8854 -0.0683 -0.3949
  922SOL    HW2 3687   1.976   2.698   0.347  0.9653  0.3146 -2.5648
  922SOL     MW 3688   1.998   2.766   0.308  0.1376 -0.1249 -0.8069
  923SOL     OW 3689   2.215   2.795   1.712 -0.0875 -0.1777  0.7880
  923SOL    HW1 3690   2.250   2.740   1.637  0.3633 -0.9996  0.8289
  923SOL    HW2 3691   2.197   2.871   1.656 -0.9329  0.1442 -0.5647
  923SOL     MW 3692   2.217   2.798   1.694 -0.1396 -0.2437  0.6149
  924SOL     OW 3693   1.190   2.695   2.563 -0.1697 -0.1931 -0.0452
  924SOL    HW1 3694   1.249   2.751   2.506  1.4724 -1.4463 -1.1127
  924SOL    HW2 3695   1.256   2.622   2.583  1.3866 -1.6524 -2.4345
  924SOL     MW 3696   1.207   2.692   2.558  0.2523 -0.5510 -0.5013
  925SOL     OW 3697   2.959   0.226   2.588 -0.2025 -0.2187  0.2876
  925SOL    HW1 3698   3.006   0.261   2.503 -0.0295  0.4759 -0.7325
  925SOL    HW2 3699   2.915   0.303   2.622 -1.1260  0.7119  1.0643
  925SOL     MW 3700   2.959   0.241   2.581 -0.3015 -0.0043  0.2555
  926SOL     OW 3701   2.738   2.406   2.069  0.1143  0.0020  0.7145
  926SOL    HW1 3702   2.800   2.451   2.129  0.9582 -0.9542  2.0483
  926SOL    HW2 3703   2.769   2.412   1.978 -2.6529 -1.6367  0.3543
  926SOL     MW 3704   2.751   2.413   2.065 -0.1394 -0.3404  0.8429
  927SOL     OW 3705   2.327   0.191   0.300 -0.2485  0.3530 -0.0102
  927SOL    HW1 3706   2.423   0.191   0.299  1.4804  2.3191  1.0462
  927SOL    HW2 3707   2.306   0.136   0.222  1.4897 -1.8862 -2.1392
  927SOL     MW 3708   2.336   0.184   0.290  0.2090  0.3169 -0.1517
  928SOL     OW 3709   2.078   2.435   1.856 -0.1593  0.0775  0.2716
  928SOL    HW1 3710   2.130   2.365   1.815  1.1265  0.5800 -0.3819
  928SOL    HW2 3711   2.138   2.484   1.915 -0.5774  1.4126 -0.7390
  928SOL     MW 3712   2.093   2.432   1.858 -0.0448  0.3200  0.0520
  929SOL     OW 3713   2.666   2.360   2.431  0.1565 -0.0965 -0.1521
  929SOL    HW1 3714   2.734   2.342   2.366 -1.8512  1.1884  0.9800
  929SOL    HW2 3715   2.698   2.326   2.513 -0.2516  2.3654 -1.5868
  929SOL     MW 3716   2.679   2.353   2.433 -0.1622  0.3978 -0.1920
  930SOL     OW 3717   2.012   2.860   2.677 -0.3044 -0.1468  0.2230
  930SOL    HW1 3718   2.033   2.775   2.730  2.3416 -3.2512 -1.6856
  930SOL    HW2 3719   2.089   2.906   2.655 -2.2725  1.4911 -0.4372
  930SOL     MW 3720   2.025   2.855   2.681 -0.2150 -0.3403 -0.1159
  931SOL     OW 3721   2.960   2.810   2.265  0.3063 -0.6162 -0.0940
  931SOL    HW1 3722   3.022   2.806   2.342 -0.2703 -2.0308  2.6028
  931SOL    HW2 3723   3.008   2.788   2.189 -1.7353  1.5278  1.3194
  931SOL     MW 3724   2.974   2.807   2.265 -0.0391 -0.5199  0.4483
  932SOL     OW 3725   2.909   1.964   2.511  0.0845  0.2360 -0.7442
  932SOL    HW1 3726   3.001   1.988   2.536 -0.7234  0.9135 -2.9027
  932SOL    HW2 3727   2.904   1.984   2.415  0.0745  1.7798 -0.2379
  932SOL     MW 3728   2.921   1.970   2.501 -0.0234  0.5291 -0.9622
  933SOL     OW 3729   2.078   2.889   2.237 -0.1156 -0.2386  0.5509
  933SOL    HW1 3730   2.167   2.920   2.257  0.7000 -0.2379 -0.9075
  933SOL    HW2 3731   2.028   2.970   2.227 -0.8785  0.7821 -0.3844
  933SOL     MW 3732   2.083   2.904   2.238 -0.1087 -0.1038  0.2351
  934SOL     OW 3733   1.997   2.725   2.435 -0.0251  0.0243 -0.1829
  934SOL    HW1 3734   2.009   2.774   2.519  2.1130 -1.1341  1.0294
  934SOL    HW2 3735   2.019   2.786   2.363 -2.0979  2.1887 -1.1165
  934SOL     MW 3736   2.001   2.740   2.437 -0.0165  0.1570 -0.1461
  935SOL     OW 3737   2.630   1.565   1.826 -0.1364  0.7855  0.6463
  935SOL    HW1 3738   2.718   1.537   1.786  0.5518 -0.0502  0.2076
  935SOL    HW2 3739   2.570   1.540   1.750 -1.2828  1.9101 -3.6585
  935SOL     MW 3740   2.634   1.558   1.811 -0.1968  0.8236  0.0204
  936SOL     OW 3741   3.015   2.250   3.073  0.3958  0.5434 -0.1894
  936SOL    HW1 3742   3.087   2.290   3.118  0.0157  1.1461  0.1703
  936SOL    HW2 3743   2.943   2.312   3.097 -0.9452 -0.4130 -3.3382
  936SOL     MW 3744   3.015   2.264   3.082  0.1687  0.4967 -0.5574
  937SOL     OW 3745   2.015   2.166   2.692 -0.4711  0.0606  0.3344
  937SOL    HW1 3746   2.103   2.131   2.712  2.6647 -3.4988 -1.6348
  937SOL    HW2 3747   1.991   2.117   2.611 -1.4467  0.4629 -0.0217
  937SOL     MW 3748   2.024   2.155   2.684 -0.1861 -0.3560  0.0276
  938SOL     OW 3749   2.299   1.803   1.885  0.3918  0.1255  0.2585
  938SOL    HW1 3750   2.254   1.873   1.822  1.8298  0.7055 -0.9325
  938SOL    HW2 3751   2.284   1.851   1.966 -0.8132 -2.1741  1.8745
  938SOL     MW 3752   2.291   1.819   1.887  0.4225 -0.1013  0.3146
  939SOL     OW 3753   2.838   1.993   2.248 -0.2994 -0.4987 -0.3344
  939SOL    HW1 3754   2.829   1.925   2.179  3.4496 -0.1838 -2.1899
  939SOL    HW2 3755   2.747   2.021   2.251  1.3573  0.9042  0.4434
  939SOL     MW 3756   2.824   1.988   2.240  0.4138 -0.2721 -0.4766
  940SOL     OW 3757   2.314   0.163   2.687  0.4146  0.1038  0.2436
  940SOL    HW1 3758   2.291   0.073   2.655 -0.1045 -2.4615  0.0209
  940SOL    HW2 3759   2.374   0.150   2.762 -0.4090  0.5897 -2.4142
  940SOL     MW 3760   2.319   0.149   2.693  0.2375 -0.1706 -0.1365
  941SOL     OW 3761   0.219   2.275   2.040 -0.2539 -0.5198 -0.2199
  941SOL    HW1 3762   0.319   2.261   2.052 -2.8246  2.4450 -1.0110
  941SOL    HW2 3763   0.196   2.204   1.990  0.4145  0.0624  4.8213
  941SOL     MW 3764   0.229   2.263   2.035 -0.5049 -0.0518  0.3409
  942SOL     OW 3765   2.933   2.229   2.165 -0.1475  0.2860 -0.6692
  942SOL    HW1 3766   2.857   2.279   2.119 -1.3168  0.9464  0.8107
  942SOL    HW2 3767   2.894   2.145   2.205  0.8158  3.0637  1.2371
  942SOL     MW 3768   2.917   2.225   2.164 -0.1747  0.7396 -0.2224
  943SOL     OW 3769   0.376   2.007   2.322 -0.5173  0.3146  0.6922
  943SOL    HW1 3770   0.331   2.080   2.361 -2.3219  0.7937 -2.8821
  943SOL    HW2 3771   0.471   1.999   2.343 -0.7528 -0.0906 -1.5696
  943SOL     MW 3772   0.382   2.015   2.330 -0.7865  0.3243 -0.0778
  944SOL     OW 3773   2.108   2.655   2.083 -0.2330  0.3230 -0.3752
  944SOL    HW1 3774   2.172   2.604   2.138 -1.7137 -0.8179 -1.1049
  944SOL    HW2 3775   2.082   2.732   2.135  1.2940  0.5692  0.2472
  944SOL     MW 3776   2.113   2.658   2.097 -0.2269  0.2049 -0.3894
  945SOL     OW 3777   2.765   2.712   2.842 -0.6140  0.2138  0.0820
  945SOL    HW1 3778   2.703   2.636   2.852 -0.6257 -1.2945  1.3251
  945SOL    HW2 3779   2.801   2.695   2.752 -0.2672 -0.3050  0.6787
  945SOL     MW 3780   2.762   2.699   2.831 -0.5698 -0.0536  0.3248
  946SOL     OW 3781   2.461   2.747   2.258  0.2221  0.0228 -0.5730
  946SOL    HW1 3782   2.499   2.768   2.175  1.9363  1.2623  0.5746
  946SOL    HW2 3783   2.401   2.675   2.246  0.7245  2.7331  1.9620
  946SOL     MW 3784   2.458   2.741   2.246  0.5146  0.5439 -0.0871
  947SOL     OW 3785   2.029   0.096   0.241  0.5501  0.1216  0.1419
  947SOL    HW1 3786   2.054   0.032   0.185 -2.2457  0.9026  3.0023
  947SOL    HW2 3787   2.072   0.071   0.327 -0.5998  1.1964 -2.6228
  947SOL     MW 3788   2.038   0.084   0.245  0.0295  0.3665  0.1545
  948SOL     OW 3789   1.792   3.042   2.669  0.0359 -0.4924  0.4606
  948SOL    HW1 3790   1.869   2.980   2.681 -1.6749 -0.0171 -1.1587
  948SOL    HW2 3791   1.798   3.056   2.571 -0.0905 -1.3907 -2.0025
  948SOL     MW 3792   1.803   3.036   2.658 -0.2065 -0.5482 -0.0780
  949SOL     OW 3793   2.548   1.976   2.269 -0.3228 -0.0051 -0.3276
  949SOL    HW1 3794   2.549   1.893   2.312  1.3857 -1.5292  0.9305
  949SOL    HW2 3795   2.502   2.038   2.328  0.9796  0.7387 -0.9789
  949SOL     MW 3796   2.542   1.973   2.283  0.0744 -0.1081 -0.2475
  950SOL     OW 3797   2.232   2.537   3.017 -0.4465 -0.1703 -0.5386
  950SOL    HW1 3798   2.296   2.479   2.971 -1.7345 -0.9402  0.9918
  950SOL    HW2 3799   2.160   2.556   2.947 -0.8995  0.0628  1.2911
  950SOL     MW 3800   2.231   2.532   3.001 -0.6762 -0.2411 -0.0952
  951SOL     OW 3801   2.954   2.117   2.836 -0.2461  0.2872  0.1693
  951SOL    HW1 3802   3.006   2.173   2.901  0.3052 -0.0175  0.0533
  951SOL    HW2 3803   3.007   2.094   2.758 -2.5485  1.0903 -1.6286
  951SOL     MW 3804   2.968   2.121   2.834 -0.4771  0.3530 -0.0833
  952SOL     OW 3805   3.088   1.757   2.162  0.1860 -0.1447  0.6535
  952SOL    HW1 3806   3.020   1.795   2.108  1.4873 -1.4543  1.0249
  952SOL    HW2 3807   3.161   1.808   2.133 -2.3284  0.1370 -1.9996
  952SOL     MW 3808   3.089   1.769   2.151  0.0260 -0.2803  0.3524
  953SOL     OW 3809   1.937   1.791   2.922 -0.2438  0.6731  0.2993
  953SOL    HW1 3810   1.847   1.758   2.962 -0.7181  0.5901  2.3142
  953SOL    HW2 3811   1.947   1.732   2.852  0.9364 -1.4899  0.1184
  953SOL     MW 3812   1.927   1.779   2.918 -0.1506  0.3768  0.5413
  954SOL     OW 3813   2.497   2.057   2.882  0.1198 -0.2495 -0.3983
  954SOL    HW1 3814   2.406   2.045   2.847  1.0735 -1.3802  1.2815
  954SOL    HW2 3815   2.562   2.064   2.807  1.0853  0.0266  0.0838
  954SOL     MW 3816   2.494   2.056   2.867  0.3730 -0.3623 -0.1131
  955SOL     OW 3817   1.593   1.634   2.547  0.1747 -0.0061 -0.2034
  955SOL    HW1 3818   1.571   1.611   2.455  0.7764  0.7969  3.4984
  955SOL    HW2 3819   1.678   1.670   2.544 -3.6503 -0.2452 -1.3893
  955SOL     MW 3820   1.601   1.636   2.535 -0.2506  0.0683  0.1285
  956SOL     OW 3821   2.682   2.448   2.846  0.2763 -0.3115  0.0343
  956SOL    HW1 3822   2.717   2.418   2.936  2.7498 -0.7733 -0.0502
  956SOL    HW2 3823   2.746   2.421   2.782  1.3175 -2.8485 -1.6148
  956SOL     MW 3824   2.695   2.441   2.849  0.7400 -0.7071 -0.1944
  957SOL     OW 3825   2.251   2.888   0.385  0.4555  0.1211 -0.0139
  957SOL    HW1 3826   2.165   2.865   0.348 -1.0116  2.6830  0.9446
  957SOL    HW2 3827   2.242   2.850   0.469 -0.3159  1.1738 -1.4098
  957SOL     MW 3828   2.239   2.880   0.391  0.1602  0.5980 -0.0716
  958SOL     OW 3829   2.018   2.629   2.828  0.3392 -1.0749  0.1672
  958SOL    HW1 3830   1.987   2.553   2.788  2.2300 -1.9124  1.5527
  958SOL    HW2 3831   1.950   2.675   2.876  1.5861  2.1734 -0.2499
  958SOL     MW 3832   2.005   2.625   2.829  0.7532 -0.7568  0.2950
  959SOL     OW 3833   2.445   2.625   0.357 -0.1948  0.5111  0.7133
  959SOL    HW1 3834   2.494   2.616   0.272  0.5382 -1.5887 -3.9787
  959SOL    HW2 3835   2.366   2.670   0.343 -0.4341  1.4575  1.1065
  959SOL     MW 3836   2.441   2.629   0.344 -0.1297  0.3589  0.1461
  960SOL     OW 3837   1.936   2.331   2.251  0.6146 -0.3546 -0.3218
  960SOL    HW1 3838   1.912   2.253   2.206  1.1108  0.5860  0.1811
  960SOL    HW2 3839   1.880   2.343   2.328  1.0754  2.1769 -0.0001
  960SOL     MW 3840   1.926   2.322   2.255  0.7408  0.1035 -0.2130
  961SOL     OW 3841   2.203   2.308   2.343  0.4650 -0.2500 -0.7818
  961SOL    HW1 3842   2.113   2.316   2.323  0.7808  0.3013  1.4164
  961SOL    HW2 3843   2.207   2.361   2.427 -0.7266 -2.7020  0.6528
  961SOL     MW 3844   2.191   2.316   2.351  0.3495 -0.5008 -0.3025
  962SOL     OW 3845   2.218   2.002   2.798 -0.1730  0.4863  0.0144
  962SOL    HW1 3846   2.201   1.992   2.892  1.2275  0.6072 -1.2712
  962SOL    HW2 3847   2.247   1.917   2.763  1.8008  2.5204 -0.6392
  962SOL     MW 3848   2.220   1.990   2.806  0.2722  0.7706 -0.2415
  963SOL     OW 3849   1.843   2.595   1.997  0.3646  0.5896  0.3516
  963SOL    HW1 3850   1.943   2.611   2.008  3.9712 -3.2596 -1.2531
  963SOL    HW2 3851   1.841   2.498   1.966 -0.6681 -1.0321 -2.7116
  963SOL     MW 3852   1.856   2.584   1.994  0.7042 -0.1322 -0.2643
  964SOL     OW 3853   1.826   1.981   2.752 -0.7609 -0.1153  0.0398
  964SOL    HW1 3854   1.909   2.048   2.765  2.1026  0.8322 -0.1614
  964SOL    HW2 3855   1.843   1.915   2.817  0.2381 -0.8025 -0.9338
  964SOL     MW 3856   1.840   1.981   2.762 -0.2513 -0.0810 -0.1152
  965SOL     OW 3857   2.247   2.726   0.627 -0.0322 -0.1184 -0.1226
  965SOL    HW1 3858   2.211   2.634   0.612  1.9664  0.4584  0.7594
  965SOL    HW2 3859   2.289   2.720   0.714 -1.1275 -0.1632 -0.1919
  965SOL     MW 3860   2.248   2.713   0.637  0.0870 -0.0482 -0.0154
  966SOL     OW 3861   2.613   2.643   2.457 -0.0585 -0.1117  0.2475
  966SOL    HW1 3862   2.571   2.680   2.382  0.4847 -0.2025  1.0776
  966SOL    HW2 3863   2.622   2.539   2.442 -2.1883 -3.2459 -1.6372
  966SOL     MW 3864   2.609   2.634   2.445 -0.2679 -0.5372  0.1083
  967SOL     OW 3865   2.920   3.013   2.899  0.0428 -0.4030 -0.1129
  967SOL    HW1 3866   2.934   2.924   2.925  0.7256  1.5059  0.9510
  967SOL    HW2 3867   2.825   3.013   2.882 -1.0614  0.5850 -0.6286
  967SOL     MW 3868   2.909   3.001   2.900 -0.0128 -0.0208 -0.0406
  968SOL     OW 3869   2.992   2.605   2.962 -0.0408  0.0803  0.0122
  968SOL    HW1 3870   2.903   2.645   2.940 -0.8804  0.1724 -0.8148
  968SOL    HW2 3871   3.006   2.526   2.913  0.2183 -1.8603 -1.4779
  968SOL     MW 3872   2.982   2.600   2.953 -0.1174 -0.1636 -0.2935
  969SOL     OW 3873   1.526   2.111   1.691  0.1583 -0.2583  0.2609
  969SOL    HW1 3874   1.578   2.039   1.718  0.5453  4.3766  0.6537
  969SOL    HW2 3875   1.490   2.150   1.772  1.5185  0.1079 -0.6523
  969SOL     MW 3876   1.528   2.107   1.705  0.3888  0.4016  0.1923
  970SOL     OW 3877   1.647   1.662   1.806 -0.4212  0.3386 -0.2296
  970SOL    HW1 3878   1.700   1.673   1.884 -1.2634  0.7183  2.7072
  970SOL    HW2 3879   1.562   1.710   1.825  2.6111  1.8166  1.1695
  970SOL     MW 3880   1.643   1.669   1.819 -0.1322  0.5837  0.3425
  971SOL     OW 3881   1.780   0.006   2.379  0.3368 -0.2685  0.2842
  971SOL    HW1 3882   1.811  -0.066   2.315  2.5953  2.0484  1.1830
  971SOL    HW2 3883   1.839   0.093   2.379 -0.6644  1.1419 -1.2796
  971SOL     MW 3884   1.792   0.008   2.371  0.5027  0.2233  0.1965
  972SOL     OW 3885   0.273   2.831   2.449  0.3566  0.0057  0.2365
  972SOL    HW1 3886   0.290   2.764   2.517  1.8764 -0.2395 -2.1691
  972SOL    HW2 3887   0.325   2.912   2.457 -2.0191 -0.6786 -1.1629
  972SOL     MW 3888   0.282   2.833   2.459  0.2437 -0.1170 -0.2655
  973SOL     OW 3889   2.565   0.027   2.123 -0.6336  0.2547  0.3280
  973SOL    HW1 3890   2.553  -0.065   2.101 -0.0992  0.1867  2.4678
  973SOL    HW2 3891   2.597   0.066   2.043 -1.7147 -0.4888 -3.1526
  973SOL     MW 3892   2.567   0.020   2.110 -0.7057  0.1476  0.1511
  974SOL     OW 3893   2.062   0.262   2.728 -0.4392 -0.0336 -0.5354
  974SOL    HW1 3894   2.154   0.234   2.709  2.6054 -0.6633 -0.1072
  974SOL    HW2 3895   2.019   0.183   2.772 -0.8122  0.1450 -1.4161
  974SOL     MW 3896   2.069   0.248   2.731 -0.0867 -0.0932 -0.5951
  975SOL     OW 3897   2.184   2.518   2.534  0.3208 -0.1637  0.2257
  975SOL    HW1 3898   2.249   2.566   2.579  2.5157  0.3910 -1.9668
  975SOL    HW2 3899   2.139   2.578   2.475 -0.6399 -0.4900  0.8249
  975SOL     MW 3900   2.187   2.532   2.532  0.4837 -0.1336  0.0155
  976SOL     OW 3901   0.268   0.385   1.712  0.2111 -0.0386 -0.2794
  976SOL    HW1 3902   0.323   0.343   1.780  2.0200 -3.3204  1.1882
  976SOL    HW2 3903   0.192   0.328   1.711  0.1437 -0.8267 -1.1889
  976SOL     MW 3904   0.265   0.372   1.721  0.4409 -0.5756 -0.2058
  977SOL     OW 3905   1.723   2.714   2.478  0.2764 -0.2083 -0.1674
  977SOL    HW1 3906   1.715   2.619   2.475 -1.1539  0.6138 -0.2494
  977SOL    HW2 3907   1.817   2.724   2.462  2.4900  0.0749  0.4820
  977SOL     MW 3908   1.734   2.703   2.475  0.3797 -0.0625 -0.0925
   3.10000   3.10000   3.10000
