977 TIP4P/2005f water molecules t=   0.83000 step= 830
 3908
    1SOL     OW    1   0.303   0.836   3.052  0.8463 -0.5299  0.0131
    1SOL    HW1    2   0.258   0.850   2.968  0.9667  2.1442 -2.7074
    1SOL    HW2    3   0.261   0.754   3.078  1.2429  2.0529 -2.3972
    1SOL     MW    4   0.292   0.827   3.044  0.9145  0.1637 -0.6639
    2SOL     OW    5   0.298   2.992   1.173  0.4026  0.1144  0.3999
    2SOL    HW1    6   0.367   3.055   1.152  0.1631 -1.3978 -1.0300
    2SOL    HW2    7   0.215   3.045   1.165 -1.1639 -0.5593  3.2738
    2SOL     MW    8   0.296   3.007   1.169  0.1643 -0.1740  0.5904
    3SOL     OW    9   2.631   0.412   0.959  0.1218  0.3399  0.6548
    3SOL    HW1   10   2.675   0.478   0.893 -2.2452  1.3969 -0.8006
    3SOL    HW2   11   2.610   0.477   1.036 -0.7360  4.3517 -1.2351
    3SOL     MW   12   2.634   0.430   0.960 -0.3037  1.0087  0.2134
    4SOL     OW   13   2.999   1.714   0.640 -0.4236 -0.0377 -1.0773
    4SOL    HW1   14   2.941   1.770   0.575 -4.0667  0.2056  0.1130
    4SOL    HW2   15   3.050   1.656   0.587 -0.3610 -0.8343  2.7583
    4SOL     MW   16   2.998   1.714   0.624 -0.8960 -0.1107 -0.4142
    5SOL     OW   17   1.741   1.508   0.521  0.5678  0.4098 -0.1683
    5SOL    HW1   18   1.777   1.474   0.607  1.4511 -2.4814  0.7778
    5SOL    HW2   19   1.642   1.495   0.512  1.4721 -1.8910  0.1923
    5SOL     MW   20   1.733   1.502   0.531  0.8037 -0.2752  0.0041
    6SOL     OW   21   0.844   1.451   0.612 -0.3309  0.6664 -0.5682
    6SOL    HW1   22   0.772   1.486   0.667 -0.6724  2.4743  0.6099
    6SOL    HW2   23   0.858   1.360   0.635 -0.8706 -2.3921 -1.7377
    6SOL     MW   24   0.837   1.444   0.622 -0.4471  0.5014 -0.5671
    7SOL     OW   25   2.030   1.157   3.063  0.3481 -0.0139  0.2708
    7SOL    HW1   26   2.097   1.191   3.009  1.0330 -0.1794  1.4626
    7SOL    HW2   27   2.067   1.168   3.153 -1.1687 -1.8203  0.4141
    7SOL     MW   28   2.044   1.163   3.068  0.2384 -0.2740  0.4469
    8SOL     OW   29   0.926   1.366   1.029 -0.0552  0.4245  0.1978
    8SOL    HW1   30   1.016   1.355   1.048 -2.7333  2.8551 -2.5919
    8SOL    HW2   31   0.879   1.307   1.083  1.2777  0.6571 -0.7923
    8SOL     MW   32   0.932   1.357   1.039 -0.2327  0.7759 -0.3009
    9SOL     OW   33   1.034   0.514   1.388 -0.5579  0.9407  0.1844
    9SOL    HW1   34   0.978   0.451   1.339  0.0738  0.1377 -0.6017
    9SOL    HW2   35   1.051   0.466   1.472  0.4542 -0.5873  2.6044
    9SOL     MW   36   1.029   0.499   1.393 -0.3410  0.6332  0.4000
   10SOL     OW   37   0.295   0.812   0.469 -0.3007 -0.5936  0.3233
   10SOL    HW1   38   0.385   0.826   0.433 -0.6595  1.0952  2.0279
   10SOL    HW2   39   0.283   0.881   0.537  1.5748  0.3004 -2.5077
   10SOL     MW   40   0.305   0.823   0.473 -0.1006 -0.2528  0.1747
   11SOL     OW   41   0.797   1.132   1.728  0.1796 -0.2761 -0.2270
   11SOL    HW1   42   0.805   1.149   1.819  0.2977 -1.0483  1.0031
   11SOL    HW2   43   0.842   1.044   1.699  1.7569 -2.2771  1.4257
   11SOL     MW   44   0.804   1.123   1.737  0.4033 -0.6420  0.1534
   12SOL     OW   45   0.020   1.054   0.880 -0.1331  0.3107 -0.0941
   12SOL    HW1   46   0.055   1.129   0.944  0.5434  2.7611  0.6731
   12SOL    HW2   47  -0.034   1.105   0.815  2.0004  2.0467  1.1295
   12SOL     MW   48   0.018   1.070   0.880  0.2377  0.8630  0.1686
   13SOL     OW   49   1.842   1.393   1.360 -0.3841  0.9914  0.4127
   13SOL    HW1   50   1.864   1.338   1.290  0.3945 -1.2513  2.6506
   13SOL    HW2   51   1.867   1.482   1.337  0.8357  0.5474  1.1807
   13SOL     MW   52   1.848   1.398   1.348 -0.1205  0.6369  0.8093
   14SOL     OW   53   0.658   0.408   1.858  0.0865 -0.2987  0.2197
   14SOL    HW1   54   0.617   0.327   1.843 -0.7130  1.7452 -0.8597
   14SOL    HW2   55   0.707   0.396   1.941  1.4344  0.1404  0.7897
   14SOL     MW   56   0.659   0.396   1.867  0.1588  0.0289  0.1525
   15SOL     OW   57   1.924   0.419   0.984  0.5940 -0.4333  0.5597
   15SOL    HW1   58   1.907   0.474   1.065  1.2441 -0.0158 -0.5657
   15SOL    HW2   59   2.018   0.419   0.961  0.1046 -0.2690 -0.0513
   15SOL     MW   60   1.934   0.427   0.992  0.6152 -0.3565  0.3306
   16SOL     OW   61   0.182   1.833   0.330 -0.7398 -0.2287 -0.0596
   16SOL    HW1   62   0.269   1.788   0.325 -0.8413 -0.6351  2.6483
   16SOL    HW2   63   0.206   1.916   0.377 -1.1777 -0.4476  1.7369
   16SOL     MW   64   0.197   1.838   0.336 -0.8110 -0.3112  0.5347
   17SOL     OW   65   1.108   0.916   1.518  0.0718 -0.2942 -0.1323
   17SOL    HW1   66   1.163   0.869   1.584  0.3929  0.8235 -0.6380
   17SOL    HW2   67   1.016   0.909   1.534  2.4921  0.8912  0.5241
   17SOL     MW   68   1.103   0.909   1.529  0.4335  0.0097 -0.1124
   18SOL     OW   69   0.072   1.585   0.368 -0.0409 -0.2734  0.4214
   18SOL    HW1   70   0.098   1.677   0.347 -0.2288  1.5816 -0.1191
   18SOL    HW2   71   0.094   1.546   0.286  1.3672 -1.1953  3.0572
   18SOL     MW   72   0.078   1.592   0.354  0.1201 -0.1503  0.6978
   19SOL     OW   73   0.124   1.299   0.992  0.0858  0.2353  0.3231
   19SOL    HW1   74   0.144   1.348   0.917 -3.2387  0.9418  1.6460
   19SOL    HW2   75   0.033   1.324   1.019  0.3669  2.5364 -2.9712
   19SOL     MW   76   0.115   1.309   0.986 -0.3157  0.6321  0.0630
   20SOL     OW   77   0.433   2.127   1.154  0.4021  0.5546 -0.0367
   20SOL    HW1   78   0.394   2.048   1.103  1.2809 -2.4291  0.2611
   20SOL    HW2   79   0.366   2.147   1.220 -2.0014  2.5978  0.7721
   20SOL     MW   80   0.419   2.120   1.156  0.2010  0.4305  0.1093
   21SOL     OW   81   0.539   0.818   0.347  0.1182 -0.0355 -0.1871
   21SOL    HW1   82   0.588   0.777   0.417 -2.6167 -0.4463 -0.6948
   21SOL    HW2   83   0.590   0.808   0.265 -0.8563  0.2814 -0.2038
   21SOL     MW   84   0.552   0.811   0.345 -0.3712 -0.0479 -0.2563
   22SOL     OW   85   1.505   0.664   1.056  0.4765  1.1710  0.2302
   22SOL    HW1   86   1.470   0.626   0.968 -1.5061 -2.7766 -1.6138
   22SOL    HW2   87   1.442   0.730   1.089  2.3747  2.5601 -1.0757
   22SOL     MW   88   1.492   0.668   1.048  0.4653  0.8334 -0.1854
   23SOL     OW   89   0.036   0.765   0.669  0.4432 -0.5370  0.2977
   23SOL    HW1   90   0.061   0.684   0.714 -2.3722  0.3225  0.2441
   23SOL    HW2   91   0.108   0.828   0.699 -0.4157  0.8538 -1.5747
   23SOL     MW   92   0.048   0.763   0.679 -0.0416 -0.2401  0.0436
   24SOL     OW   93   1.973   2.229   0.118 -0.7983  0.0016 -0.3416
   24SOL    HW1   94   1.989   2.199   0.214  2.1030  0.4030  2.2864
   24SOL    HW2   95   2.009   2.158   0.062  1.5635  1.4172 -1.4346
   24SOL     MW   96   1.980   2.215   0.123 -0.1039  0.2414 -0.1391
   25SOL     OW   97   0.233   1.382   0.496 -0.0109  0.6940  0.0339
   25SOL    HW1   98   0.185   1.450   0.449  1.6511 -0.4467 -0.8824
   25SOL    HW2   99   0.322   1.380   0.453  4.1614  3.2151 -0.4691
   25SOL     MW  100   0.238   1.390   0.484  0.7588  0.8761 -0.1533
   26SOL     OW  101   2.028   0.979   0.361 -0.1526 -0.3383 -0.2128
   26SOL    HW1  102   1.958   1.022   0.408  1.3897 -0.1462 -0.0008
   26SOL    HW2  103   2.070   1.052   0.311  3.4536  2.4533  0.3496
   26SOL     MW  104   2.024   0.995   0.360  0.5267  0.0554 -0.1106
   27SOL     OW  105   2.032   1.439   0.265  0.0414 -0.0637  0.2101
   27SOL    HW1  106   1.937   1.411   0.275 -0.7868  0.7651 -1.2526
   27SOL    HW2  107   2.058   1.504   0.334 -1.3646  1.4995  0.8377
   27SOL     MW  108   2.023   1.444   0.275 -0.2534  0.2519  0.0999
   28SOL     OW  109   0.379   1.019   2.002 -0.5244 -1.1666 -0.1978
   28SOL    HW1  110   0.458   0.967   1.991 -2.7771 -0.3845 -0.6821
   28SOL    HW2  111   0.335   0.959   2.060  3.3686  1.0814 -1.0725
   28SOL     MW  112   0.383   1.004   2.008 -0.3079 -0.7668 -0.3771
   29SOL     OW  113   0.235   1.451   0.765  0.2663  0.0333  0.4570
   29SOL    HW1  114   0.214   1.546   0.760 -0.7302  0.3517  2.5661
   29SOL    HW2  115   0.233   1.419   0.672 -2.0931  0.8393  1.5822
   29SOL     MW  116   0.232   1.459   0.752 -0.1765  0.1816  0.8838
   30SOL     OW  117   0.808   1.173   1.213  0.2007 -0.7196 -0.2108
   30SOL    HW1  118   0.733   1.212   1.262  0.8417  1.7965  4.4271
   30SOL    HW2  119   0.881   1.167   1.281 -0.0537  0.9236  0.9207
   30SOL     MW  120   0.808   1.177   1.228  0.2517 -0.1709  0.5504
   31SOL     OW  121   0.423   0.144   0.199 -0.1980  0.5298  0.4283
   31SOL    HW1  122   0.459   0.066   0.240  0.4005  2.3557 -1.3747
   31SOL    HW2  123   0.421   0.109   0.105 -4.2819 -2.0088  3.2822
   31SOL     MW  124   0.428   0.129   0.192 -0.6579  0.4358  0.5669
   32SOL     OW  125   2.791   0.993   1.123  0.1230 -0.3342 -0.2646
   32SOL    HW1  126   2.714   0.933   1.120  2.6056  0.1187 -0.2431
   32SOL    HW2  127   2.874   0.947   1.116 -2.3942 -2.0133  1.4420
   32SOL     MW  128   2.792   0.979   1.122  0.1184 -0.4960 -0.0366
   33SOL     OW  129   1.812   1.306   0.348 -0.3936  0.1292  0.0657
   33SOL    HW1  130   1.838   1.220   0.371 -2.9101 -0.1336 -2.4038
   33SOL    HW2  131   1.790   1.355   0.427 -2.9143 -0.6846  0.4595
   33SOL     MW  132   1.813   1.301   0.362 -1.0582 -0.0129 -0.2082
   34SOL     OW  133   1.241   1.857   1.073 -0.3167  0.0497  0.1257
   34SOL    HW1  134   1.175   1.918   1.058  0.9264 -0.0863  0.3391
   34SOL    HW2  135   1.296   1.880   1.152 -1.5505 -0.8375  0.7428
   34SOL     MW  136   1.240   1.868   1.082 -0.3154 -0.0853  0.2353
   35SOL     OW  137   0.449   0.193   1.871  0.3169  0.6060 -0.5581
   35SOL    HW1  138   0.385   0.145   1.922  1.5884 -0.6301  0.7488
   35SOL    HW2  139   0.446   0.158   1.777  2.1127  0.0222 -2.9845
   35SOL     MW  140   0.440   0.182   1.866  0.7216  0.3659 -0.7058
   36SOL     OW  141   1.919   1.940   0.548  0.5647  0.1167 -0.0032
   36SOL    HW1  142   1.953   1.974   0.459 -1.4605 -1.1193 -2.2402
   36SOL    HW2  143   1.927   1.840   0.549 -1.2090  1.1662  1.7271
   36SOL     MW  144   1.924   1.931   0.536  0.0635  0.0921 -0.0701
   37SOL     OW  145   1.745   1.984   1.019  0.0561 -0.1336 -0.6018
   37SOL    HW1  146   1.713   1.932   0.949 -2.1572  2.7408  0.9915
   37SOL    HW2  147   1.669   2.021   1.058  1.3037  0.5437  0.1703
   37SOL     MW  148   1.730   1.982   1.015 -0.0713  0.3350 -0.2897
   38SOL     OW  149   2.774   0.922   0.116  0.0240  0.0501  0.1349
   38SOL    HW1  150   2.816   0.886   0.195  2.6496  4.6922 -0.1055
   38SOL    HW2  151   2.827   0.889   0.041  3.3120  2.4644 -2.9055
   38SOL     MW  152   2.786   0.913   0.116  0.8042  0.9811 -0.2980
   39SOL     OW  153   1.421   0.598   0.824  0.0510  0.2519  0.0082
   39SOL    HW1  154   1.396   0.501   0.813  0.6166 -0.6518 -2.1957
   39SOL    HW2  155   1.351   0.654   0.779  0.6972  2.3355 -3.5809
   39SOL     MW  156   1.409   0.593   0.816  0.2109  0.4075 -0.7561
   40SOL     OW  157   1.154   1.886   0.264 -0.5307  0.0029 -0.1177
   40SOL    HW1  158   1.186   1.826   0.330  0.7271  0.3727  1.5963
   40SOL    HW2  159   1.123   1.961   0.315  1.3851 -2.9705  0.7616
   40SOL     MW  160   1.154   1.888   0.280 -0.1120 -0.3406  0.2245
   41SOL     OW  161   0.594   0.543   1.609 -0.3426  0.0291 -0.0877
   41SOL    HW1  162   0.675   0.589   1.590 -1.4067 -0.6935 -0.7333
   41SOL    HW2  163   0.604   0.506   1.698 -1.3432 -2.1637  2.1013
   41SOL     MW  164   0.606   0.544   1.618 -0.6150 -0.3556  0.1160
   42SOL     OW  165   1.290   3.027   1.963  0.6506 -0.5389 -0.2118
   42SOL    HW1  166   1.192   3.014   1.981 -0.1779  3.1346 -0.5278
   42SOL    HW2  167   1.336   2.969   2.023 -1.8942  3.1470  1.0293
   42SOL     MW  168   1.283   3.018   1.973  0.2055  0.4321 -0.0898
   43SOL     OW  169   1.576   0.106   1.729  0.4188 -0.3626 -0.4144
   43SOL    HW1  170   1.591   0.087   1.635 -0.8560  0.3033  0.6096
   43SOL    HW2  171   1.480   0.095   1.741 -0.9891  0.8240  0.7526
   43SOL     MW  172   1.565   0.102   1.719  0.0648 -0.1182 -0.1254
   44SOL     OW  173   1.084   0.747   1.037 -0.8543 -0.1880 -0.5749
   44SOL    HW1  174   1.130   0.823   1.003 -1.4224  0.1000  1.6685
   44SOL    HW2  175   1.112   0.743   1.128 -2.4668  1.7030 -2.1743
   44SOL     MW  176   1.094   0.756   1.044 -1.1420  0.0995 -0.4899
   45SOL     OW  177   1.226   0.737   0.710  0.9410  0.0260 -0.5074
   45SOL    HW1  178   1.167   0.735   0.784 -1.0297 -1.5362 -1.5312
   45SOL    HW2  179   1.172   0.699   0.641 -1.4760 -0.1654  1.2807
   45SOL     MW  180   1.211   0.732   0.711  0.3621 -0.2054 -0.4066
   46SOL     OW  181   0.576   1.172   0.566 -0.6735 -0.3216  0.2036
   46SOL    HW1  182   0.534   1.183   0.481 -0.7271 -1.2905  0.4020
   46SOL    HW2  183   0.660   1.124   0.554  2.9285  0.2711  2.5364
   46SOL     MW  184   0.582   1.167   0.553 -0.2053 -0.3712  0.5376
   47SOL     OW  185   0.177   1.992   1.903 -0.5452  0.8748  0.6031
   47SOL    HW1  186   0.240   1.922   1.869  0.8802  0.9995 -0.1363
   47SOL    HW2  187   0.140   1.969   1.986  0.1016  0.0267 -0.0206
   47SOL     MW  188   0.180   1.979   1.910 -0.2718  0.7793  0.4232
   48SOL     OW  189   1.090   0.498   0.959  0.2095  0.2944  0.1606
   48SOL    HW1  190   1.001   0.471   0.979 -1.7444  0.4202 -0.0032
   48SOL    HW2  191   1.098   0.588   0.988 -1.0638 -0.9208 -2.5098
   48SOL     MW  192   1.079   0.507   0.966 -0.2163  0.1507 -0.2134
   49SOL     OW  193   1.837   0.732   1.594  0.2245  0.1244 -0.2836
   49SOL    HW1  194   1.788   0.667   1.646 -1.4201 -3.3851 -1.3446
   49SOL    HW2  195   1.900   0.681   1.550 -2.4471  0.4911 -0.7457
   49SOL     MW  196   1.839   0.717   1.595 -0.3450 -0.2903 -0.4846
   50SOL     OW  197   1.211   1.084   0.518  0.6567  0.0579 -0.4419
   50SOL    HW1  198   1.163   1.126   0.592  1.2678  2.5457  2.8267
   50SOL    HW2  199   1.297   1.060   0.555  0.2198 -0.0617 -0.6077
   50SOL     MW  200   1.216   1.086   0.533  0.6797  0.3704 -0.0325
   51SOL     OW  201   0.294   2.886   0.928 -0.4320  0.8911 -0.0500
   51SOL    HW1  202   0.368   2.816   0.938  1.4188 -1.6326 -0.7063
   51SOL    HW2  203   0.286   2.926   1.019 -1.8256 -2.9467 -0.6762
   51SOL     MW  204   0.303   2.882   0.941 -0.3717  0.0518 -0.2192
   52SOL     OW  205   0.818   1.823   0.436  0.0553 -0.6096  0.1065
   52SOL    HW1  206   0.777   1.911   0.456  1.4665 -0.3187  2.7592
   52SOL    HW2  207   0.770   1.789   0.362 -0.6888  1.7733  0.7582
   52SOL     MW  208   0.806   1.830   0.429  0.1433 -0.2568  0.5425
   53SOL     OW  209   0.416   2.124   0.592  0.3653  0.2014 -0.4786
   53SOL    HW1  210   0.349   2.094   0.527 -2.2435 -3.8421  0.8651
   53SOL    HW2  211   0.417   2.216   0.601  0.3401 -1.1318  0.2077
   53SOL     MW  212   0.408   2.132   0.585  0.0178 -0.5080 -0.2108
   54SOL     OW  213   2.086   0.935   0.834 -0.0572  0.6640 -0.6000
   54SOL    HW1  214   2.127   0.933   0.746 -0.2226 -1.9218 -0.8162
   54SOL    HW2  215   2.035   0.854   0.830 -0.1766  0.7033  1.3773
   54SOL     MW  216   2.085   0.924   0.822 -0.0948  0.3280 -0.3677
   55SOL     OW  217   0.581   1.548   1.668 -0.1034 -0.5617 -0.2649
   55SOL    HW1  218   0.501   1.545   1.618  0.8389 -0.3132 -0.0285
   55SOL    HW2  219   0.639   1.488   1.622 -0.9408  2.0474 -1.6890
   55SOL     MW  220   0.578   1.540   1.656 -0.0895 -0.1847 -0.4216
   56SOL     OW  221   0.610   0.789   0.060  0.0141  0.1072  0.2714
   56SOL    HW1  222   0.625   0.882   0.043 -1.6280 -0.1948  1.7279
   56SOL    HW2  223   0.523   0.771   0.038  1.1053 -0.0722  1.2108
   56SOL     MW  224   0.601   0.799   0.055 -0.0586  0.0437  0.5875
   57SOL     OW  225   1.209   1.211   1.144 -0.5937  0.5384 -0.1202
   57SOL    HW1  226   1.284   1.250   1.093  0.7092  2.3647  0.7368
   57SOL    HW2  227   1.250   1.182   1.232  0.0282 -0.0888 -0.2933
   57SOL     MW  228   1.224   1.212   1.149 -0.3397  0.6966 -0.0299
   58SOL     OW  229   0.528   1.188   1.315  0.1023 -0.2182  0.4777
   58SOL    HW1  230   0.490   1.276   1.287 -0.1969  2.5218  1.6288
   58SOL    HW2  231   0.524   1.179   1.409 -1.4417  0.1265  1.4357
   58SOL     MW  232   0.522   1.199   1.323 -0.1409  0.1888  0.7560
   59SOL     OW  233   1.554   1.692   0.328  0.0270  0.5777  0.1645
   59SOL    HW1  234   1.574   1.742   0.407  0.7771 -4.1787  1.1693
   59SOL    HW2  235   1.461   1.667   0.347 -1.3641 -2.1414  0.6181
   59SOL     MW  236   1.545   1.695   0.341 -0.0576 -0.4086  0.3569
   60SOL     OW  237   0.012   0.177   1.591 -0.3123  0.2027 -0.4597
   60SOL    HW1  238  -0.063   0.219   1.624  0.5199  0.3512 -4.1678
   60SOL    HW2  239   0.048   0.134   1.668  1.0677  3.4826 -1.4054
   60SOL     MW  240   0.006   0.177   1.606 -0.0204  0.6551 -1.0737
   61SOL     OW  241   2.022   1.508   3.096  0.0102  0.2230 -0.1025
   61SOL    HW1  242   2.049   1.489   3.187 -1.6728 -2.4657  0.9838
   61SOL    HW2  243   2.057   1.434   3.053 -1.0639 -0.3594  0.8085
   61SOL     MW  244   2.030   1.496   3.103 -0.3536 -0.2086  0.1610
   62SOL     OW  245   0.583   1.717   0.639 -0.0033  0.4701  0.3876
   62SOL    HW1  246   0.675   1.718   0.629  2.2737  2.0624 -1.9855
   62SOL    HW2  247   0.559   1.621   0.652  0.8662 -0.1827  0.0360
   62SOL     MW  248   0.592   1.705   0.639  0.4118  0.5940  0.0281
   63SOL     OW  249   1.679   0.669   0.733  0.1312  0.0424 -0.0267
   63SOL    HW1  250   1.697   0.752   0.689  0.1317 -0.0952  0.3297
   63SOL    HW2  251   1.594   0.677   0.775 -0.5380 -1.3212 -0.5280
   63SOL     MW  252   1.671   0.681   0.733  0.0429 -0.1557 -0.0458
   64SOL     OW  253   0.196   1.724   0.777 -0.2847 -0.8134  0.1972
   64SOL    HW1  254   0.271   1.781   0.774  0.2335 -1.9814  3.4136
   64SOL    HW2  255   0.122   1.780   0.767 -3.5546  1.4016  0.2086
   64SOL     MW  256   0.196   1.739   0.775 -0.6478 -0.6753  0.6231
   65SOL     OW  257   1.559   2.330   0.388  0.3350 -0.5493  0.1543
   65SOL    HW1  258   1.638   2.280   0.392  1.9152  0.6450  1.6845
   65SOL    HW2  259   1.555   2.385   0.463  1.7635  0.4619  0.2096
   65SOL     MW  260   1.569   2.331   0.398  0.7320 -0.2583  0.3635
   66SOL     OW  261   0.288   0.535   0.548  0.2320 -0.1701  0.0991
   66SOL    HW1  262   0.357   0.497   0.489  0.6309  3.6126  0.5464
   66SOL    HW2  263   0.287   0.637   0.531 -0.8619  1.7429 -1.1137
   66SOL     MW  264   0.297   0.543   0.538  0.1403  0.5814 -0.0019
   67SOL     OW  265   1.544   0.064   2.059  0.3402 -0.1774 -0.0952
   67SOL    HW1  266   1.615   0.062   1.998 -0.3650  0.8081  1.9232
   67SOL    HW2  267   1.490  -0.011   2.047  0.7708  0.3518  0.0086
   67SOL     MW  268   1.546   0.054   2.049  0.3040  0.0224  0.1848
   68SOL     OW  269   0.690   0.134   2.935  0.3334  0.0011  0.2616
   68SOL    HW1  270   0.681   0.203   2.869 -0.3548 -0.6461  2.3424
   68SOL    HW2  271   0.729   0.182   3.012  0.4427 -0.4545 -1.3644
   68SOL     MW  272   0.694   0.149   2.937  0.2570 -0.1444  0.3216
   69SOL     OW  273   1.019   0.209   2.004  0.5085  0.3854  0.1761
   69SOL    HW1  274   1.117   0.216   2.015 -0.7964 -0.1800 -0.2880
   69SOL    HW2  275   1.005   0.113   2.018 -1.5110 -1.8333 -0.9087
   69SOL     MW  276   1.030   0.197   2.007  0.0699  0.0181 -0.0283
   70SOL     OW  277   0.544   1.729   1.127 -0.0921 -0.2385  0.3994
   70SOL    HW1  278   0.581   1.666   1.186 -1.1662 -0.8750 -0.6639
   70SOL    HW2  279   0.612   1.770   1.070  0.7967  0.3361 -0.3874
   70SOL     MW  280   0.558   1.726   1.127 -0.1166 -0.2467  0.1553
   71SOL     OW  281   1.586   0.525   1.271 -0.4165  0.1035 -0.5029
   71SOL    HW1  282   1.552   0.589   1.333 -2.4910 -1.9971 -0.5866
   71SOL    HW2  283   1.562   0.563   1.182 -0.8044  0.3763 -0.0307
   71SOL     MW  284   1.579   0.538   1.267 -0.7414 -0.1376 -0.4517
   72SOL     OW  285   0.743   1.832   0.968  0.4957  0.6881 -0.5465
   72SOL    HW1  286   0.762   1.884   0.888  0.2961  3.0387 -0.1665
   72SOL    HW2  287   0.747   1.739   0.950 -4.5149  0.3558  1.5030
   72SOL     MW  288   0.746   1.826   0.955 -0.1917  0.9544 -0.2260
   73SOL     OW  289   1.162   0.741   1.311 -0.0475 -0.5843 -0.4802
   73SOL    HW1  290   1.112   0.656   1.324 -0.4192  0.9159  0.3638
   73SOL    HW2  291   1.127   0.798   1.380 -1.3022 -2.6474  1.2380
   73SOL     MW  292   1.151   0.737   1.322 -0.2621 -0.6586 -0.1421
   74SOL     OW  293   2.746   0.167   0.953 -0.5475 -0.7758  0.4744
   74SOL    HW1  294   2.815   0.175   0.892  1.1555  0.0462  0.5976
   74SOL    HW2  295   2.705   0.257   0.950 -0.4603 -0.2866  1.0322
   74SOL     MW  296   2.750   0.180   0.944 -0.3113 -0.6028  0.5643
   75SOL     OW  297   1.647   1.389   0.116 -0.0169 -0.0588  0.2882
   75SOL    HW1  298   1.688   1.472   0.147  0.8852  1.7001 -2.2854
   75SOL    HW2  299   1.676   1.328   0.187 -1.7383  1.6383  1.6809
   75SOL     MW  300   1.657   1.392   0.129 -0.1250  0.3971  0.1324
   76SOL     OW  301   3.015   0.603   0.465 -0.0132  0.2332  0.0731
   76SOL    HW1  302   3.081   0.650   0.517 -0.5433  1.5203 -1.9834
   76SOL    HW2  303   3.052   0.519   0.442  0.0106 -1.7873  1.7318
   76SOL     MW  304   3.028   0.598   0.469 -0.0800  0.1365  0.0206
   77SOL     OW  305   0.828   0.540   0.439  0.6254 -0.5181  0.5669
   77SOL    HW1  306   0.795   0.547   0.350 -0.0120 -0.8986 -1.0667
   77SOL    HW2  307   0.757   0.490   0.486 -0.4055  1.6030 -0.3767
   77SOL     MW  308   0.814   0.534   0.433  0.4053 -0.2884  0.2269
   78SOL     OW  309   0.730   0.935   1.307 -0.1077  0.0608  0.0914
   78SOL    HW1  310   0.759   1.021   1.272  0.8390 -2.2768 -1.6596
   78SOL    HW2  311   0.651   0.911   1.252 -0.1449 -0.4671  2.9208
   78SOL     MW  312   0.724   0.943   1.295  0.0123 -0.3173  0.2337
   79SOL     OW  313   1.937   1.681   0.582 -0.7697  0.5352 -0.0322
   79SOL    HW1  314   1.865   1.620   0.553  2.9963  0.0938 -0.8482
   79SOL    HW2  315   1.965   1.637   0.665  1.8999 -2.1585 -1.0858
   79SOL     MW  316   1.931   1.667   0.589  0.0794  0.1216 -0.2788
   80SOL     OW  317   0.072   0.938   0.339  0.1222  0.2814  0.3379
   80SOL    HW1  318  -0.014   0.899   0.353 -1.7691 -0.5910 -1.0909
   80SOL    HW2  319   0.128   0.880   0.395 -0.8972 -1.9765 -2.7503
   80SOL     MW  320   0.068   0.925   0.348 -0.2618 -0.1316 -0.2581
   81SOL     OW  321   1.920   1.919   0.226 -0.0601  0.0558  0.0975
   81SOL    HW1  322   1.878   1.833   0.214  1.1048 -1.3122  3.0349
   81SOL    HW2  323   1.841   1.974   0.210  1.0282  2.4075  1.2190
   81SOL     MW  324   1.904   1.915   0.223  0.2372  0.1856  0.6330
   82SOL     OW  325   0.813   1.018   0.518 -0.2730 -0.1498  0.0188
   82SOL    HW1  326   0.788   1.034   0.422  2.0914  0.6226  0.6516
   82SOL    HW2  327   0.788   0.926   0.538  0.7829  2.4588  0.2692
   82SOL     MW  328   0.807   1.008   0.508  0.1783  0.2963  0.1353
   83SOL     OW  329   0.037   0.660   1.449 -0.5414  0.6683  0.8195
   83SOL    HW1  330   0.087   0.706   1.375  0.0535 -0.5392  0.2239
   83SOL    HW2  331   0.111   0.628   1.496 -0.6056  1.6365 -0.9289
   83SOL     MW  332   0.053   0.662   1.445 -0.4714  0.6367  0.5102
   84SOL     OW  333   0.102   0.282   0.957  0.4842  0.2574  0.4051
   84SOL    HW1  334   0.022   0.330   0.918 -0.5727 -1.0809  0.3803
   84SOL    HW2  335   0.071   0.191   0.975  1.9205 -0.5416  2.5843
   84SOL     MW  336   0.088   0.276   0.954  0.5343 -0.0246  0.6893
   85SOL     OW  337   0.481   0.405   0.750 -0.2417  0.4755 -0.4924
   85SOL    HW1  338   0.407   0.441   0.708 -0.1506 -0.2253  0.7324
   85SOL    HW2  339   0.451   0.328   0.797 -0.7765 -1.3326  0.1202
   85SOL     MW  340   0.467   0.400   0.750 -0.3003  0.1445 -0.2499
   86SOL     OW  341   1.179   0.301   1.132 -0.4877 -0.5195 -0.2656
   86SOL    HW1  342   1.152   0.372   1.072  1.7841  0.1096  1.3070
   86SOL    HW2  343   1.228   0.337   1.205 -3.5181 -1.1788  1.0848
   86SOL     MW  344   1.182   0.316   1.134 -0.5878 -0.5235  0.1200
   87SOL     OW  345   1.217   1.463   1.350  0.0237  0.0492  0.7330
   87SOL    HW1  346   1.213   1.525   1.278  1.7471  1.5093  1.8496
   87SOL    HW2  347   1.217   1.377   1.312  0.1954  0.7802  2.6214
   87SOL     MW  348   1.217   1.460   1.336  0.2738  0.3383  1.1295
   88SOL     OW  349   1.215   1.002   0.935 -0.1987  0.3782  0.2061
   88SOL    HW1  350   1.310   0.980   0.929  0.3338 -1.8433  1.9037
   88SOL    HW2  351   1.199   1.062   1.006  2.0391 -0.9756 -1.3311
   88SOL     MW  352   1.226   1.007   0.943  0.1668 -0.0935  0.2273
   89SOL     OW  353   1.787   0.682   0.372 -0.2022  0.1003 -0.2677
   89SOL    HW1  354   1.806   0.591   0.379 -0.4137 -0.6988  1.8839
   89SOL    HW2  355   1.841   0.721   0.302  2.0358  1.5989  2.4638
   89SOL     MW  356   1.797   0.675   0.364  0.0652  0.1926  0.3766
   90SOL     OW  357   0.697   1.126   2.718  0.1726  0.3692 -0.6083
   90SOL    HW1  358   0.754   1.043   2.714 -0.1008 -1.7079  1.2290
   90SOL    HW2  359   0.721   1.175   2.794 -0.1290  1.5162  3.5301
   90SOL     MW  360   0.707   1.122   2.727  0.0967  0.2465  0.1801
   91SOL     OW  361   2.173   0.670   0.453 -0.0583 -0.2710 -0.3589
   91SOL    HW1  362   2.259   0.697   0.421 -0.5829 -0.8271 -0.3670
   91SOL    HW2  363   2.170   0.576   0.432  1.0312  0.5523  1.8364
   91SOL     MW  364   2.184   0.661   0.446  0.0162 -0.2358 -0.0704
   92SOL     OW  365   1.677   0.881   0.535  1.0486  0.5708 -0.1075
   92SOL    HW1  366   1.579   0.895   0.538 -1.5361 -1.7011  0.4918
   92SOL    HW2  367   1.690   0.800   0.488  0.2047 -0.4892  1.5181
   92SOL     MW  368   1.666   0.872   0.529  0.5962  0.1312  0.1861
   93SOL     OW  369   0.928   0.256   0.414 -0.4100  0.1310  0.2985
   93SOL    HW1  370   0.900   0.337   0.457 -0.9778 -0.8599  0.7402
   93SOL    HW2  371   0.958   0.284   0.328  0.2206 -2.6073 -0.0270
   93SOL     MW  372   0.928   0.270   0.408 -0.4017 -0.3610  0.3138
   94SOL     OW  373   1.782   1.486   1.624  0.3010  0.0520 -0.1325
   94SOL    HW1  374   1.801   1.464   1.536 -0.8974  1.0082  2.0012
   94SOL    HW2  375   1.757   1.397   1.660 -1.7130 -3.4415 -1.3171
   94SOL     MW  376   1.781   1.472   1.617 -0.1229 -0.2827 -0.0073
   95SOL     OW  377   0.745   1.566   0.915 -0.3404  0.1239 -0.2471
   95SOL    HW1  378   0.798   1.505   0.966  0.2805 -1.4592 -2.0469
   95SOL    HW2  379   0.652   1.547   0.919 -0.2448 -0.2992 -0.9586
   95SOL     MW  380   0.740   1.555   0.923 -0.2459 -0.1408 -0.5784
   96SOL     OW  381   1.262   1.844   1.666  0.5638  0.0276  0.7224
   96SOL    HW1  382   1.165   1.839   1.692 -4.0480 -0.2478  2.8617
   96SOL    HW2  383   1.271   1.751   1.627  0.9688  4.4361 -0.8686
   96SOL     MW  384   1.250   1.831   1.664  0.0088  0.5730  0.7947
   97SOL     OW  385   1.257   1.445   0.745 -0.2586 -0.0352 -0.5103
   97SOL    HW1  386   1.322   1.483   0.809  1.3687  0.1710 -0.1839
   97SOL    HW2  387   1.174   1.496   0.750 -1.4803  1.3314 -0.9599
   97SOL     MW  388   1.254   1.457   0.754 -0.2051  0.1723 -0.5265
   98SOL     OW  389   1.443   1.295   1.035 -0.2658  0.0818  0.5122
   98SOL    HW1  390   1.474   1.364   1.087 -2.0110  1.3090  0.8789
   98SOL    HW2  391   1.484   1.305   0.950  2.6649 -0.3092  0.5217
   98SOL     MW  392   1.453   1.306   1.031 -0.1094  0.1921  0.5618
   99SOL     OW  393   1.375   0.364   1.331 -0.0693 -0.4563 -0.2895
   99SOL    HW1  394   1.462   0.398   1.300  0.3087 -3.1909  0.4845
   99SOL    HW2  395   1.383   0.386   1.426  1.9575 -0.6756 -0.6554
   99SOL     MW  396   1.387   0.372   1.340  0.2480 -0.8460 -0.2357
  100SOL     OW  397   1.021   1.172   1.392 -0.1034  0.6717  0.6744
  100SOL    HW1  398   1.048   1.192   1.483 -1.4184  0.0161  2.6846
  100SOL    HW2  399   1.039   1.081   1.387 -1.5870 -0.2747  1.7417
  100SOL     MW  400   1.027   1.163   1.403 -0.4727  0.4603  1.0804
  101SOL     OW  401   0.500   1.089   0.327 -0.0639  0.4753  0.5425
  101SOL    HW1  402   0.500   0.993   0.330  0.9816 -2.8401  2.0068
  101SOL    HW2  403   0.501   1.113   0.231  1.4388  1.9238  1.4980
  101SOL     MW  404   0.501   1.079   0.315  0.2723  0.2290  0.8618
  102SOL     OW  405   2.909   0.629   1.042  0.2604  0.2175  0.3026
  102SOL    HW1  406   2.969   0.706   1.041  0.0130 -2.9345  1.4855
  102SOL    HW2  407   2.929   0.583   1.124  0.4484 -0.5927  0.1185
  102SOL     MW  408   2.920   0.633   1.053  0.2525 -0.3053  0.4344
  103SOL     OW  409   1.763   0.311   1.817  0.9355 -1.0881  0.8609
  103SOL    HW1  410   1.729   0.230   1.779 -0.7053 -2.9115 -0.9377
  103SOL    HW2  411   1.790   0.302   1.916  0.6931  1.3008 -0.8538
  103SOL     MW  412   1.762   0.299   1.825  0.6870 -1.0135  0.3973
  104SOL     OW  413   0.056   1.699   1.500  0.1572 -1.2109  0.0432
  104SOL    HW1  414   0.030   1.660   1.578  0.7103  3.0535 -3.8728
  104SOL    HW2  415   0.017   1.649   1.428  3.7574  0.5435  1.0766
  104SOL     MW  416   0.048   1.687   1.501  0.7052 -0.4168 -0.3372
  105SOL     OW  417   0.024   1.189   0.451 -0.5552 -0.0401 -0.7104
  105SOL    HW1  418   0.056   1.094   0.421 -2.1376 -0.8312 -1.5622
  105SOL    HW2  419   0.107   1.243   0.452  2.5504  1.1653  0.4233
  105SOL     MW  420   0.039   1.183   0.447 -0.3542  0.0145 -0.6732
  106SOL     OW  421   0.853   0.393   1.016 -0.2279 -0.2047 -0.1775
  106SOL    HW1  422   0.786   0.425   0.952  0.7302 -1.1038 -1.5300
  106SOL    HW2  423   0.898   0.321   0.963  0.3861  0.2392  0.2011
  106SOL     MW  424   0.850   0.388   1.000 -0.0205 -0.2648 -0.3060
  107SOL     OW  425   0.773   2.157   2.968  0.3504 -0.5929  0.5789
  107SOL    HW1  426   0.697   2.119   2.921  2.5203 -0.1916 -2.2285
  107SOL    HW2  427   0.771   2.140   3.062 -0.8241  0.1593  1.2118
  107SOL     MW  428   0.763   2.150   2.974  0.4818 -0.4407  0.2920
  108SOL     OW  429   1.274   1.572   1.604  0.0676 -0.4296  0.4869
  108SOL    HW1  430   1.259   1.554   1.514  0.3751  2.5687 -2.2008
  108SOL    HW2  431   1.351   1.506   1.614  1.2477 -0.7464 -0.8887
  108SOL     MW  432   1.282   1.561   1.593  0.2639 -0.0758 -0.0492
  109SOL     OW  433   1.961   0.782   0.179 -0.4748 -0.5753 -0.4377
  109SOL    HW1  434   2.015   0.808   0.103  1.6523 -1.4497  1.1035
  109SOL    HW2  435   2.000   0.807   0.265  0.4671  1.7202 -0.3666
  109SOL     MW  436   1.973   0.789   0.180 -0.0699 -0.3878 -0.2250
  110SOL     OW  437   0.427   1.903   0.801 -0.1814 -0.2031 -0.7878
  110SOL    HW1  438   0.480   1.829   0.770 -1.6461 -0.6065 -0.6183
  110SOL    HW2  439   0.441   1.965   0.729  0.1066  2.3537 -0.8459
  110SOL     MW  440   0.436   1.901   0.788 -0.3367  0.0810 -0.7731
  111SOL     OW  441   0.837   0.910   1.561  0.9657  0.9449 -0.2873
  111SOL    HW1  442   0.783   0.926   1.482 -2.5631 -1.2852 -0.0685
  111SOL    HW2  443   0.835   0.811   1.562 -1.6694  1.2142  0.3816
  111SOL     MW  444   0.830   0.899   1.551  0.1524  0.6862 -0.1702
  112SOL     OW  445   1.345   1.092   1.599 -0.4108  0.1838  0.3983
  112SOL    HW1  446   1.281   1.155   1.635 -3.0477 -0.7470  0.1380
  112SOL    HW2  447   1.318   1.005   1.630 -0.4950 -0.7201  0.9535
  112SOL     MW  448   1.333   1.089   1.608 -0.7698 -0.0583  0.4372
  113SOL     OW  449   1.304   0.054   1.727 -0.3949 -0.2009  0.3071
  113SOL    HW1  450   1.303   0.026   1.820 -1.8578  1.1434  2.5016
  113SOL    HW2  451   1.334  -0.018   1.671  1.0317  0.3153  2.7004
  113SOL     MW  452   1.308   0.040   1.732 -0.3997  0.0446  0.9124
  114SOL     OW  453   0.273   2.853   1.932 -0.4034  0.3808 -0.1545
  114SOL    HW1  454   0.315   2.926   1.977  2.2744  0.6253 -2.3158
  114SOL    HW2  455   0.290   2.865   1.835 -1.3814  0.6117  1.5398
  114SOL     MW  456   0.281   2.864   1.925 -0.1791  0.4435 -0.2161
  115SOL     OW  457   0.470   0.825   1.144 -0.0841 -0.0806 -0.3317
  115SOL    HW1  458   0.527   0.750   1.112 -0.0054 -1.3628 -3.0302
  115SOL    HW2  459   0.437   0.812   1.231  2.8348  4.4881 -0.5559
  115SOL     MW  460   0.473   0.814   1.151  0.3114  0.3530 -0.7173
  116SOL     OW  461   0.808   1.050   0.962 -0.3805  0.7246 -0.1130
  116SOL    HW1  462   0.832   1.105   0.887  0.9914 -1.8297 -2.6363
  116SOL    HW2  463   0.817   1.095   1.042  0.4272 -0.3944 -1.1898
  116SOL     MW  464   0.813   1.063   0.963 -0.0929  0.2400 -0.5880
  117SOL     OW  465   1.117   1.183   0.746  0.0887 -0.1647  0.1542
  117SOL    HW1  466   1.161   1.112   0.796  2.0768 -1.0999  1.1512
  117SOL    HW2  467   1.163   1.260   0.777  0.3111 -0.6584 -1.4947
  117SOL     MW  468   1.129   1.184   0.757  0.3804 -0.3532  0.0682
  118SOL     OW  469   3.021   2.956   1.764 -0.0386  0.5824 -0.2572
  118SOL    HW1  470   3.061   3.041   1.776  1.4150  1.1397 -0.2177
  118SOL    HW2  471   2.925   2.973   1.757 -2.7291 -0.6121 -0.2535
  118SOL     MW  472   3.013   2.969   1.765 -0.2018  0.4983 -0.2515
  119SOL     OW  473   0.481   1.425   1.231  0.2444  0.3790  0.4776
  119SOL    HW1  474   0.484   1.423   1.133 -3.1963 -1.0101  0.9136
  119SOL    HW2  475   0.383   1.423   1.250 -1.9575  1.3441 -0.9977
  119SOL     MW  476   0.469   1.424   1.221 -0.5001  0.3231  0.3405
  120SOL     OW  477   0.266   0.714   0.978 -0.0051  0.1891  0.2641
  120SOL    HW1  478   0.274   0.642   1.037 -0.0432  0.6339 -1.2409
  120SOL    HW2  479   0.318   0.782   1.018 -1.4069 -1.1709  1.4673
  120SOL     MW  480   0.274   0.713   0.991 -0.1951  0.0683  0.2243
  121SOL     OW  481   1.738   1.194   1.719 -0.0052  0.0327 -0.2375
  121SOL    HW1  482   1.666   1.143   1.748 -1.6761 -0.7138  2.6414
  121SOL    HW2  483   1.791   1.131   1.670 -2.2508 -1.1527  0.9312
  121SOL     MW  484   1.736   1.179   1.716 -0.5220 -0.2222  0.2966
  122SOL     OW  485   0.113   0.541   0.789 -0.1145 -0.0075 -0.0688
  122SOL    HW1  486   0.168   0.521   0.713 -1.0481 -0.5877 -0.3331
  122SOL    HW2  487   0.173   0.595   0.842 -1.6804 -1.5777 -0.6036
  122SOL     MW  488   0.128   0.545   0.786 -0.4443 -0.2912 -0.1742
  123SOL     OW  489   1.844   1.109   0.540  0.5631  0.5465 -0.6306
  123SOL    HW1  490   1.768   1.051   0.550 -2.3668  0.7352  2.0144
  123SOL    HW2  491   1.877   1.127   0.628 -0.9903  2.7627  1.5011
  123SOL     MW  492   1.838   1.104   0.553 -0.0284  0.8638 -0.0004
  124SOL     OW  493   0.689   0.529   0.863 -0.2792  0.3349 -0.5880
  124SOL    HW1  494   0.625   0.483   0.805  0.9137 -0.1631  2.3375
  124SOL    HW2  495   0.689   0.626   0.855 -0.3353 -1.3804 -0.4767
  124SOL     MW  496   0.681   0.536   0.855 -0.1292  0.0429 -0.1873
  125SOL     OW  497   0.691   1.784   1.724 -0.3318  0.3662  0.5228
  125SOL    HW1  498   0.640   1.697   1.721  1.4243  0.8339 -1.6682
  125SOL    HW2  499   0.637   1.851   1.689  2.6320 -0.8668 -1.5124
  125SOL     MW  500   0.677   1.781   1.719  0.2910  0.2652 -0.0348
  126SOL     OW  501   2.120   1.602   1.976 -0.2663 -0.4226 -0.4615
  126SOL    HW1  502   2.183   1.676   1.969  0.2119 -1.0985 -0.2395
  126SOL    HW2  503   2.162   1.520   1.996 -0.0571  0.7262 -1.4051
  126SOL     MW  504   2.134   1.601   1.978 -0.1756 -0.3602 -0.5567
  127SOL     OW  505   0.723   0.778   1.855 -0.0553 -0.1501 -0.5353
  127SOL    HW1  506   0.808   0.744   1.888  1.8691 -0.2186  3.3783
  127SOL    HW2  507   0.702   0.853   1.916 -0.4346  0.5201  1.2111
  127SOL     MW  508   0.731   0.784   1.867  0.1486 -0.0707  0.2115
  128SOL     OW  509   1.772   0.718   2.926 -0.0898  0.2251  0.7484
  128SOL    HW1  510   1.799   0.705   2.834  1.8644  2.9700  0.1992
  128SOL    HW2  511   1.726   0.804   2.919  0.1644  0.9380 -2.1353
  128SOL     MW  512   1.770   0.727   2.913  0.2015  0.6813  0.2954
  129SOL     OW  513   1.638   0.961   0.220 -0.1714 -0.3954 -0.0126
  129SOL    HW1  514   1.597   0.882   0.195  0.1682  0.4851  0.5597
  129SOL    HW2  515   1.636   0.960   0.312 -0.0575  2.2284 -1.1368
  129SOL     MW  516   1.633   0.950   0.229 -0.1115  0.0670 -0.0854
  130SOL     OW  517   0.740   1.330   0.363 -0.2531 -0.1453  0.1533
  130SOL    HW1  518   0.748   1.336   0.454  3.9410  1.0425  1.1073
  130SOL    HW2  519   0.797   1.403   0.320  2.3106  2.7813 -0.5846
  130SOL     MW  520   0.749   1.340   0.370  0.6385  0.3975  0.1818
  131SOL     OW  521   3.030   0.807   3.079  0.3710 -0.2399  0.2155
  131SOL    HW1  522   3.045   0.849   2.993  1.8962 -0.2117 -0.7586
  131SOL    HW2  523   3.092   0.836   3.144 -1.2910 -0.2043 -1.1173
  131SOL     MW  524   3.040   0.817   3.076  0.3529 -0.2315 -0.0889
  132SOL     OW  525   2.683   0.137   1.240 -0.0718  0.1032 -0.3282
  132SOL    HW1  526   2.702   0.138   1.145  0.8205 -1.0632  1.2095
  132SOL    HW2  527   2.588   0.119   1.258  1.5335 -0.3406  2.5064
  132SOL     MW  528   2.673   0.135   1.230  0.2578 -0.1093  0.2487
  133SOL     OW  529   1.014   0.141   1.729 -0.6031 -0.3883 -0.4500
  133SOL    HW1  530   1.091   0.091   1.701 -0.9901 -3.7054  1.7732
  133SOL    HW2  531   1.033   0.169   1.821 -0.8432 -0.1255  1.8695
  133SOL     MW  532   1.027   0.138   1.737 -0.6859 -0.7913  0.1494
  134SOL     OW  533   1.387   2.510   1.428 -0.2742 -0.3816  0.1928
  134SOL    HW1  534   1.308   2.564   1.444 -0.3610  2.1750 -1.1821
  134SOL    HW2  535   1.462   2.543   1.483  1.0417  1.2478  1.7860
  134SOL     MW  536   1.387   2.522   1.437 -0.1120  0.1707  0.2216
  135SOL     OW  537   3.027   0.989   2.839 -0.2428 -0.3556  0.1973
  135SOL    HW1  538   3.093   1.053   2.859 -5.8661 -2.7233  3.4658
  135SOL    HW2  539   2.949   1.042   2.854  1.0856 -0.7714 -1.5743
  135SOL     MW  540   3.025   1.004   2.844 -0.8095 -0.7229  0.3948
  136SOL     OW  541   0.195   2.045   0.876 -0.2266  0.0629 -0.1283
  136SOL    HW1  542   0.112   2.004   0.843 -0.3959  0.0609 -1.3608
  136SOL    HW2  543   0.270   2.010   0.823 -2.2003 -0.0574  1.0219
  136SOL     MW  544   0.194   2.035   0.865 -0.5093  0.0467 -0.1392
  137SOL     OW  545   0.688   2.073   0.534 -0.1906  0.0680  0.1673
  137SOL    HW1  546   0.711   2.048   0.620  0.8561 -1.2943 -0.3041
  137SOL    HW2  547   0.598   2.082   0.517  3.4944 -3.8433 -0.5712
  137SOL     MW  548   0.679   2.071   0.543  0.4337 -0.6278  0.0077
  138SOL     OW  549   0.551   0.573   1.096  0.3739  0.1915  0.5257
  138SOL    HW1  550   0.465   0.537   1.089 -0.3765  0.5299  0.7665
  138SOL    HW2  551   0.606   0.545   1.017  0.7881  2.2317 -1.2641
  138SOL     MW  552   0.547   0.564   1.085  0.3295  0.5053  0.3213
  139SOL     OW  553   2.783   0.583   1.349  0.9546  0.1369  0.4763
  139SOL    HW1  554   2.808   0.492   1.364 -1.4830 -1.8056 -1.5575
  139SOL    HW2  555   2.855   0.640   1.385  1.5912 -0.3386  0.9289
  139SOL     MW  556   2.795   0.579   1.356  0.7170 -0.1821  0.2677
  140SOL     OW  557   0.815   0.391   2.095  0.3246 -0.1627  0.5294
  140SOL    HW1  558   0.890   0.335   2.078 -1.8359  2.7819 -1.1485
  140SOL    HW2  559   0.821   0.407   2.194  0.2046  4.4780  0.4065
  140SOL     MW  560   0.825   0.386   2.106  0.0237  0.8381  0.2918
  141SOL     OW  561   1.084   0.641   1.753 -0.2935  0.9046 -0.2311
  141SOL    HW1  562   1.109   0.552   1.735 -1.0330  1.8816 -1.9162
  141SOL    HW2  563   1.163   0.694   1.724  1.4093  1.2777 -0.9323
  141SOL     MW  564   1.097   0.636   1.747 -0.1664  1.0828 -0.5459
  142SOL     OW  565   0.852   1.189   0.731  0.5972 -0.2178 -0.1194
  142SOL    HW1  566   0.842   1.129   0.652  1.6722 -1.1730  0.8435
  142SOL    HW2  567   0.951   1.195   0.742  0.0905  3.6686 -0.4382
  142SOL     MW  568   0.864   1.182   0.722  0.6722  0.1689 -0.0344
  143SOL     OW  569   1.757   0.767   1.125  0.3169 -0.7928 -0.3658
  143SOL    HW1  570   1.806   0.747   1.044  0.0513 -1.3780  0.3769
  143SOL    HW2  571   1.667   0.776   1.099  2.3626 -0.7548  0.0426
  143SOL     MW  572   1.752   0.766   1.111  0.5517 -0.8650 -0.2139
  144SOL     OW  573   0.221   1.161   1.587 -0.2134 -0.0122  0.0632
  144SOL    HW1  574   0.289   1.197   1.533  0.6118  2.4796  0.6073
  144SOL    HW2  575   0.245   1.175   1.679  1.9825 -1.7679  0.0860
  144SOL     MW  576   0.233   1.168   1.592  0.1852  0.0849  0.1380
  145SOL     OW  577   0.265   0.461   1.134 -0.6210  0.2128  0.0706
  145SOL    HW1  578   0.286   0.405   1.201  0.2250  2.5679 -3.3628
  145SOL    HW2  579   0.232   0.409   1.054  0.3124  2.1595  0.2539
  145SOL     MW  580   0.264   0.447   1.132 -0.3863  0.7803 -0.3582
  146SOL     OW  581   0.818   1.928   1.327  0.3236 -0.0243  0.3695
  146SOL    HW1  582   0.849   1.955   1.241  0.2728 -0.2999 -0.0316
  146SOL    HW2  583   0.727   1.935   1.311  2.6359  0.0288 -2.6657
  146SOL     MW  584   0.810   1.933   1.313  0.6220 -0.0536 -0.0838
  147SOL     OW  585   0.345   0.397   2.990  0.4158  0.2731 -0.2120
  147SOL    HW1  586   0.298   0.446   3.061  0.7582 -0.0765  1.0811
  147SOL    HW2  587   0.356   0.464   2.921 -1.7956  2.2227 -0.8645
  147SOL     MW  588   0.341   0.413   2.990  0.1692  0.4842 -0.1275
  148SOL     OW  589   0.150   0.849   1.266  0.1553 -0.2469  0.3427
  148SOL    HW1  590   0.238   0.837   1.305 -1.7332  1.1093 -2.4268
  148SOL    HW2  591   0.108   0.898   1.334  0.1262 -1.2791 -1.5681
  148SOL     MW  592   0.156   0.854   1.280 -0.0977 -0.2041 -0.2748
  149SOL     OW  593   1.376   1.156   1.339  0.7292  0.4424 -0.1588
  149SOL    HW1  594   1.337   1.159   1.427  2.0598  1.6471  1.0678
  149SOL    HW2  595   1.455   1.202   1.365  0.1142 -1.7576  1.2933
  149SOL     MW  596   1.381   1.162   1.354  0.8236  0.3111  0.1946
  150SOL     OW  597   1.856   1.405   0.745 -0.1652  0.3849  0.2390
  150SOL    HW1  598   1.885   1.321   0.776  0.1704  1.6340 -1.9676
  150SOL    HW2  599   1.888   1.476   0.804  0.9332 -0.5403 -0.7308
  150SOL     MW  600   1.864   1.404   0.757  0.0240  0.4277 -0.1801
  151SOL     OW  601   1.678   1.764   0.827  0.3187 -0.1635 -0.1336
  151SOL    HW1  602   1.665   1.796   0.736  1.6238  2.1786  0.8166
  151SOL    HW2  603   1.616   1.693   0.853 -0.7065 -4.7177  0.8001
  151SOL     MW  604   1.668   1.759   0.819  0.3556 -0.4554  0.1150
  152SOL     OW  605   0.742   1.423   1.499 -0.0385  0.3649  0.1754
  152SOL    HW1  606   0.754   1.344   1.450  1.8974  0.6182  1.8112
  152SOL    HW2  607   0.830   1.450   1.524 -1.3124  1.8835  0.2731
  152SOL     MW  608   0.755   1.416   1.496  0.0489  0.5987  0.4041
  153SOL     OW  609   2.593   1.208   0.759  0.0856 -0.3208  0.4708
  153SOL    HW1  610   2.658   1.149   0.707 -2.0823 -0.8528  1.3122
  153SOL    HW2  611   2.514   1.149   0.759 -1.1360 -0.4981  1.3857
  153SOL     MW  612   2.591   1.192   0.752 -0.3616 -0.4143  0.7026
  154SOL     OW  613   0.319   1.814   1.735 -0.3437 -0.1240 -0.6967
  154SOL    HW1  614   0.341   1.793   1.642 -0.0476 -0.2896  0.1208
  154SOL    HW2  615   0.328   1.723   1.777  0.5385 -1.4995  1.1527
  154SOL     MW  616   0.323   1.799   1.728 -0.1882 -0.3273 -0.3448
  155SOL     OW  617   1.218   0.720   0.264  0.4569  0.5180 -0.1530
  155SOL    HW1  618   1.184   0.681   0.341 -0.7890  1.6336 -3.4916
  155SOL    HW2  619   1.188   0.814   0.271 -0.5362 -0.8581  0.5717
  155SOL     MW  620   1.210   0.727   0.275  0.1615  0.4836 -0.4979
  156SOL     OW  621   1.525   3.056   1.099 -0.3720  0.0397  1.0236
  156SOL    HW1  622   1.588   3.128   1.122  2.9968 -0.9205  0.7963
  156SOL    HW2  623   1.563   2.984   1.145  2.2730  0.9269  1.2274
  156SOL     MW  624   1.539   3.056   1.108  0.4214  0.0301  1.0205
  157SOL     OW  625   1.445   1.127   0.106 -0.4627  0.5497 -0.3606
  157SOL    HW1  626   1.507   1.053   0.139  1.9113 -2.2772  0.5208
  157SOL    HW2  627   1.499   1.199   0.073  0.3158  0.6208 -0.4279
  157SOL     MW  628   1.461   1.126   0.106 -0.0468  0.1861 -0.2532
  158SOL     OW  629   0.507   1.653   2.190  0.8499  0.4385  0.2858
  158SOL    HW1  630   0.479   1.727   2.133 -0.9902  1.5615 -0.6658
  158SOL    HW2  631   0.428   1.647   2.242  1.8367 -2.7795 -1.1137
  158SOL     MW  632   0.493   1.662   2.189  0.7373  0.1621 -0.0244
  159SOL     OW  633   1.287   1.706   0.429  0.2036 -0.2092 -0.0412
  159SOL    HW1  634   1.246   1.630   0.384 -1.3936 -1.6145  1.1748
  159SOL    HW2  635   1.231   1.733   0.497  1.1453  0.8933 -1.7174
  159SOL     MW  636   1.275   1.699   0.432  0.1171 -0.2492 -0.1019
  160SOL     OW  637   0.554   1.168   1.606  0.2953  0.3938 -0.3757
  160SOL    HW1  638   0.544   1.074   1.621  0.3848 -0.9331  1.7573
  160SOL    HW2  639   0.636   1.184   1.648 -1.5207  0.1160  0.9751
  160SOL     MW  640   0.564   1.158   1.614  0.0675  0.1821  0.0839
  161SOL     OW  641   0.466   2.181   2.571  0.3370 -0.0043  0.6151
  161SOL    HW1  642   0.372   2.172   2.550 -1.2300  1.0866 -2.3347
  161SOL    HW2  643   0.511   2.155   2.492 -2.4627  0.5829 -2.0946
  161SOL     MW  644   0.459   2.176   2.558 -0.2391  0.2171 -0.1316
  162SOL     OW  645   1.065   1.783   1.865 -0.2989  0.0639 -0.1123
  162SOL    HW1  646   1.079   1.861   1.915  0.9571 -1.9809 -1.0159
  162SOL    HW2  647   0.981   1.747   1.904  0.6607  1.0622 -1.5727
  162SOL     MW  648   1.056   1.788   1.877 -0.0066 -0.0742 -0.4242
  163SOL     OW  649   2.158   0.030   0.936  0.4917 -0.5814 -0.3248
  163SOL    HW1  650   2.109   0.063   0.857  0.9284 -1.0575 -0.7822
  163SOL    HW2  651   2.120  -0.058   0.952  0.4280 -2.4202  3.0822
  163SOL     MW  652   2.146   0.023   0.927  0.5409 -0.8868  0.0643
  164SOL     OW  653   0.372   0.212   0.879  0.1427  0.0637  0.0796
  164SOL    HW1  654   0.289   0.247   0.897  0.5668  0.3037 -1.9784
  164SOL    HW2  655   0.356   0.139   0.819 -1.4251  0.3228  1.8111
  164SOL     MW  656   0.359   0.207   0.873 -0.0082  0.1295  0.0365
  165SOL     OW  657   1.349   1.243   0.352  0.0144  0.0755  0.3762
  165SOL    HW1  658   1.289   1.184   0.399 -1.3229  1.0535  0.8913
  165SOL    HW2  659   1.379   1.202   0.265  0.8645  4.7897 -1.8068
  165SOL     MW  660   1.345   1.230   0.346 -0.0499  0.8265  0.1561
  166SOL     OW  661   0.534   1.135   1.010  0.1130  0.2680  0.1700
  166SOL    HW1  662   0.521   1.136   1.105  0.2157  1.5630  2.9358
  166SOL    HW2  663   0.624   1.112   0.983  0.3352 -1.2894 -4.1269
  166SOL     MW  664   0.544   1.132   1.019  0.1559  0.2334 -0.0320
  167SOL     OW  665   0.760   1.021   0.255 -0.0561 -0.2057  0.2770
  167SOL    HW1  666   0.662   1.047   0.258 -1.5563 -1.9682 -2.3196
  167SOL    HW2  667   0.798   1.094   0.200  0.7441 -1.7374  3.0294
  167SOL     MW  668   0.752   1.034   0.248 -0.1485 -0.6403  0.2976
  168SOL     OW  669   1.676   1.669   2.993  0.7534  0.0392  0.4786
  168SOL    HW1  670   1.645   1.731   2.927 -0.2907 -0.0299  0.1942
  168SOL    HW2  671   1.698   1.587   2.946  0.4834 -3.7529 -1.9115
  168SOL     MW  672   1.675   1.666   2.978  0.5800 -0.4702  0.1257
  169SOL     OW  673   0.394   0.894   1.395 -0.0068 -0.0974 -0.1602
  169SOL    HW1  674   0.445   0.888   1.480 -0.3396 -1.4969  1.4431
  169SOL    HW2  675   0.398   0.983   1.359  2.4118  0.3758 -2.0987
  169SOL     MW  676   0.401   0.905   1.401  0.2684 -0.2196 -0.2044
  170SOL     OW  677   1.002   1.469   1.507  0.1946  0.1506 -0.6093
  170SOL    HW1  678   0.996   1.566   1.496  0.4356  0.9089 -0.6060
  170SOL    HW2  679   1.062   1.445   1.433  0.2173 -0.5421  3.0477
  170SOL     MW  680   1.009   1.479   1.496  0.2294  0.1593 -0.1263
  171SOL     OW  681   0.566   1.439   0.695 -0.6738  0.3242  0.5636
  171SOL    HW1  682   0.563   1.400   0.777  0.2659  0.4275 -2.8247
  171SOL    HW2  683   0.585   1.361   0.641  1.0562 -0.1933  0.0449
  171SOL     MW  684   0.568   1.424   0.699 -0.3215  0.2695  0.0481
  172SOL     OW  685   0.840   0.332   1.286  0.0036  0.7330  0.2215
  172SOL    HW1  686   0.847   0.342   1.191 -0.9055 -0.2741 -0.5143
  172SOL    HW2  687   0.751   0.369   1.315  0.3550 -2.3345  0.0440
  172SOL     MW  688   0.830   0.338   1.277 -0.0700  0.1954  0.1010
  173SOL     OW  689   0.448   1.733   0.377  0.2949  0.0236 -0.2451
  173SOL    HW1  690   0.418   1.646   0.360  1.7978 -0.2933  0.8797
  173SOL    HW2  691   0.492   1.725   0.463  0.1120 -1.3170 -2.4793
  173SOL     MW  692   0.450   1.720   0.386  0.4691 -0.1950 -0.3915
  174SOL     OW  693   1.858   1.002   1.563 -0.2250  0.0931  0.2513
  174SOL    HW1  694   1.830   0.907   1.583  2.1947 -1.7489  1.1850
  174SOL    HW2  695   1.859   1.000   1.467  2.9858  2.7237  2.3582
  174SOL     MW  696   1.854   0.989   1.553  0.5179  0.1971  0.6525
  175SOL     OW  697   0.496   1.448   0.310  0.6372  0.6468 -0.7535
  175SOL    HW1  698   0.468   1.416   0.217 -1.5655 -1.5190 -1.3578
  175SOL    HW2  699   0.570   1.391   0.326 -1.5218 -0.2619 -0.2704
  175SOL     MW  700   0.502   1.437   0.300  0.0617  0.2411 -0.7695
  176SOL     OW  701   0.207   1.448   1.221 -0.8725  1.0771 -0.1081
  176SOL    HW1  702   0.193   1.402   1.135  0.4525 -3.2531 -0.7502
  176SOL    HW2  703   0.119   1.455   1.245  0.3585  2.9933 -1.2231
  176SOL     MW  704   0.194   1.443   1.212 -0.5353  0.7586 -0.3400
  177SOL     OW  705   0.598   0.425   1.343  0.4098  0.4737  0.2905
  177SOL    HW1  706   0.573   0.485   1.268  1.0130 -2.6442  1.5605
  177SOL    HW2  707   0.603   0.475   1.426 -0.5280  1.0113  1.0128
  177SOL     MW  708   0.595   0.439   1.344  0.3657  0.1332  0.5533
  178SOL     OW  709   0.014   0.440   2.953 -0.2335 -0.1965 -0.3341
  178SOL    HW1  710  -0.065   0.480   2.991  0.0704  1.7556 -0.4993
  178SOL    HW2  711   0.019   0.480   2.868 -2.2639  0.0705  1.5301
  178SOL     MW  712   0.004   0.450   2.947 -0.4613  0.0963 -0.1100
  179SOL     OW  713   1.566   1.326   1.403 -0.4439 -0.5408 -0.4599
  179SOL    HW1  714   1.542   1.368   1.491 -0.4441 -1.3272  0.8180
  179SOL    HW2  715   1.658   1.297   1.414 -0.4304  0.7874 -1.8274
  179SOL     MW  716   1.575   1.328   1.416 -0.4421 -0.4693 -0.4717
  180SOL     OW  717   3.059   0.187   0.447  0.4780  0.0198 -0.4399
  180SOL    HW1  718   3.008   0.179   0.366 -2.3910 -1.6322 -0.6186
  180SOL    HW2  719   3.123   0.257   0.437  0.0170 -0.2664  1.1220
  180SOL     MW  720   3.061   0.195   0.435  0.0386 -0.2359 -0.2574
  181SOL     OW  721   1.114   1.366   3.083 -0.2258  0.3587  0.0126
  181SOL    HW1  722   1.199   1.388   3.119  1.2547  1.5215  3.9010
  181SOL    HW2  723   1.129   1.299   3.015 -1.7158 -0.5675 -1.0847
  181SOL     MW  724   1.127   1.360   3.078 -0.2270  0.3899  0.3809
  182SOL     OW  725   0.478   0.876   1.650 -0.6181 -0.1802 -0.0334
  182SOL    HW1  726   0.389   0.846   1.671  1.1129 -1.8754  0.8332
  182SOL    HW2  727   0.530   0.820   1.710 -0.2780 -2.4068  1.3322
  182SOL     MW  728   0.473   0.865   1.661 -0.3449 -0.6977  0.2611
  183SOL     OW  729   1.567   1.534   1.192  0.1229 -0.4814 -0.5300
  183SOL    HW1  730   1.547   1.614   1.237  1.9984 -0.2964  0.4384
  183SOL    HW2  731   1.590   1.470   1.264 -0.2991 -0.0303 -3.5480
  183SOL     MW  732   1.568   1.536   1.207  0.3147 -0.3974 -0.8004
  184SOL     OW  733   0.918   0.635   1.966  0.2614 -0.0652 -0.1346
  184SOL    HW1  734   0.979   0.628   1.892 -0.0774  2.9015  0.5597
  184SOL    HW2  735   0.876   0.551   1.968  0.5503  2.0658 -0.0918
  184SOL     MW  736   0.921   0.623   1.957  0.2548  0.6074 -0.0373
  185SOL     OW  737   1.261   1.029   1.903  0.1907 -0.0443 -0.8176
  185SOL    HW1  738   1.292   0.963   1.971 -0.5567  0.9113  2.0657
  185SOL    HW2  739   1.241   1.100   1.961 -2.3059  1.5862  0.7934
  185SOL     MW  740   1.262   1.029   1.919 -0.2373  0.2969 -0.2246
  186SOL     OW  741   0.363   1.656   1.434 -0.0253  0.4499 -0.3542
  186SOL    HW1  742   0.427   1.639   1.362  1.1419  2.1445  1.0149
  186SOL    HW2  743   0.276   1.670   1.399 -1.5504 -2.5406  0.4794
  186SOL     MW  744   0.360   1.656   1.420 -0.0725  0.2789 -0.0636
  187SOL     OW  745   1.427   0.720   1.413  0.4171 -0.0216 -0.4653
  187SOL    HW1  746   1.430   0.690   1.503  1.9623  0.0721 -0.7552
  187SOL    HW2  747   1.338   0.737   1.388  2.2787  1.4950  0.8189
  187SOL     MW  748   1.416   0.718   1.422  0.8666  0.1908 -0.3341
  188SOL     OW  749   1.919   1.163   0.837 -0.2225 -0.4317  0.9313
  188SOL    HW1  750   1.884   1.181   0.930  0.1725  2.4795 -0.1501
  188SOL    HW2  751   1.988   1.095   0.838 -1.1414 -2.0321  0.5614
  188SOL     MW  752   1.923   1.157   0.849 -0.2916 -0.2588  0.7398
  189SOL     OW  753   0.688   0.793   0.860 -0.1982  0.0437  0.2099
  189SOL    HW1  754   0.601   0.838   0.851 -2.4274 -1.7756 -1.7619
  189SOL    HW2  755   0.738   0.853   0.914  0.9398 -2.6490 -1.0731
  189SOL     MW  756   0.683   0.806   0.866 -0.3422 -0.5516 -0.2195
  190SOL     OW  757   1.852   0.281   2.070 -0.3603 -0.4227  0.2766
  190SOL    HW1  758   1.863   0.188   2.058 -1.2813  0.6264 -4.8112
  190SOL    HW2  759   1.941   0.318   2.056 -0.9550 -0.2586 -0.4207
  190SOL     MW  760   1.865   0.274   2.066 -0.5603 -0.2626 -0.4867
  191SOL     OW  761   1.488   0.912   1.229  0.1605 -0.3690  0.2344
  191SOL    HW1  762   1.436   0.988   1.259 -0.7947 -1.3742 -3.3241
  191SOL    HW2  763   1.489   0.849   1.302  1.6691 -0.7826  0.2079
  191SOL     MW  764   1.482   0.914   1.243  0.2335 -0.5562 -0.2386
  192SOL     OW  765   0.585   2.078   2.782  0.2602  0.0238  0.1688
  192SOL    HW1  766   0.519   2.109   2.711 -1.8005 -0.2249 -2.0686
  192SOL    HW2  767   0.591   1.984   2.769  1.7975 -1.6261 -0.4626
  192SOL     MW  768   0.577   2.070   2.771  0.1911 -0.2267 -0.2097
  193SOL     OW  769   1.034   1.559   0.787 -0.1864  0.0429 -0.2795
  193SOL    HW1  770   0.983   1.566   0.871  1.0173 -0.2286 -2.6146
  193SOL    HW2  771   0.974   1.525   0.718 -0.5062  1.7874 -1.5556
  193SOL     MW  772   1.019   1.555   0.789 -0.0698  0.2372 -0.7560
  194SOL     OW  773   0.462   1.397   0.961  1.1298  0.1692 -0.1958
  194SOL    HW1  774   0.477   1.300   0.965 -0.7568 -1.4298 -1.3322
  194SOL    HW2  775   0.386   1.410   0.901 -2.4329  0.9270 -0.7873
  194SOL     MW  776   0.454   1.386   0.953  0.4108  0.0582 -0.4238
  195SOL     OW  777   1.262   1.137   3.002 -0.0724 -1.0041 -0.2526
  195SOL    HW1  778   1.318   1.123   3.082 -2.2830  1.6067 -2.1921
  195SOL    HW2  779   1.196   1.058   3.011  0.4520  0.0319  0.4667
  195SOL     MW  780   1.260   1.125   3.014 -0.2949 -0.5229 -0.4136
  196SOL     OW  781   2.181   1.016   0.583  0.3248  0.0694  0.1483
  196SOL    HW1  782   2.147   0.984   0.498  1.1984 -2.4309 -1.8502
  196SOL    HW2  783   2.183   1.114   0.577 -0.3975  1.0058  3.0264
  196SOL     MW  784   2.177   1.025   0.571  0.3448 -0.1369  0.2644
  197SOL     OW  785   0.709   1.261   2.050  0.2463 -0.1022  0.2491
  197SOL    HW1  786   0.707   1.162   2.049 -0.2052 -0.9066  0.4237
  197SOL    HW2  787   0.646   1.292   1.991 -3.2742 -1.3986  0.7992
  197SOL     MW  788   0.700   1.252   2.042 -0.2778 -0.3793  0.3447
  198SOL     OW  789   2.989   1.357   1.094  0.4243 -0.7524  0.3867
  198SOL    HW1  790   2.940   1.439   1.073 -2.5679  0.9190  0.4074
  198SOL    HW2  791   2.917   1.298   1.061  0.2244  0.5729  0.5961
  198SOL     MW  792   2.973   1.360   1.087  0.0032 -0.3570  0.4170
  199SOL     OW  793   0.512   1.358   1.872 -0.2115  0.0585  0.1206
  199SOL    HW1  794   0.425   1.320   1.853  1.5067 -0.2570 -1.6889
  199SOL    HW2  795   0.531   1.413   1.796  1.1693 -1.5470  1.7479
  199SOL     MW  796   0.503   1.360   1.859  0.1974 -0.1950  0.0965
  200SOL     OW  797   1.853   3.068   1.297  0.3705 -0.8794 -0.8078
  200SOL    HW1  798   1.882   3.033   1.211 -1.0012 -1.3549  1.4989
  200SOL    HW2  799   1.762   3.109   1.298 -1.0352  1.5838 -2.9106
  200SOL     MW  800   1.845   3.069   1.286  0.0040 -0.6172 -0.7809
  201SOL     OW  801   0.980   0.204   0.853  0.4387 -0.1092  0.3178
  201SOL    HW1  802   0.948   0.156   0.771 -0.2046  0.6750 -1.3408
  201SOL    HW2  803   1.043   0.264   0.821  1.5666  2.2199  1.1199
  201SOL     MW  804   0.984   0.206   0.838  0.5026  0.3016  0.2048
  202SOL     OW  805   1.516   1.566   0.919  0.1427  0.0172 -0.2532
  202SOL    HW1  806   1.562   1.512   0.853  1.6801 -1.7192 -1.8805
  202SOL    HW2  807   1.562   1.569   1.002 -0.8993  0.9199  1.0316
  202SOL     MW  808   1.528   1.559   0.921  0.2081 -0.0928 -0.2984
  203SOL     OW  809   3.067   0.496   1.249 -0.5946 -0.1195  1.0437
  203SOL    HW1  810   3.153   0.474   1.200 -0.3605  2.4149  1.4750
  203SOL    HW2  811   3.095   0.564   1.312 -0.8113  0.4739 -1.6821
  203SOL     MW  812   3.082   0.502   1.251 -0.5924  0.2932  0.7410
  204SOL     OW  813   1.065   1.746   0.593 -0.0288 -0.3051  0.1110
  204SOL    HW1  814   1.051   1.693   0.670  1.0161  1.5119 -2.8121
  204SOL    HW2  815   0.974   1.761   0.569 -0.4051  1.0948 -0.9640
  204SOL     MW  816   1.051   1.741   0.600  0.0594  0.1194 -0.4165
  205SOL     OW  817   1.367   0.099   1.356 -0.2108  0.0293 -0.5697
  205SOL    HW1  818   1.307   0.069   1.290  0.2149  1.9054 -1.1967
  205SOL    HW2  819   1.381   0.189   1.331 -1.2198  2.2939  0.9236
  205SOL     MW  820   1.361   0.107   1.344 -0.2877  0.5756 -0.4554
  206SOL     OW  821   0.387   3.015   1.429  0.0282 -0.1028 -0.5162
  206SOL    HW1  822   0.342   2.994   1.339 -0.3276 -1.5500 -1.4496
  206SOL    HW2  823   0.469   2.963   1.427 -2.8062  1.3756  2.1581
  206SOL     MW  824   0.392   3.005   1.417 -0.3927 -0.0987 -0.2865
  207SOL     OW  825   0.912   1.491   0.189  0.2196  0.4544 -0.2322
  207SOL    HW1  826   0.931   1.587   0.186 -0.7378  2.4943  1.0294
  207SOL    HW2  827   1.000   1.455   0.177 -1.0515  1.8631 -1.6761
  207SOL     MW  828   0.926   1.499   0.187 -0.0745  0.9094 -0.2563
  208SOL     OW  829   0.694   1.642   1.327  0.0073  0.2960  0.6114
  208SOL    HW1  830   0.757   1.696   1.374  1.1944 -0.9514 -0.6494
  208SOL    HW2  831   0.705   1.548   1.357  0.5995 -0.8202 -0.6494
  208SOL     MW  832   0.704   1.636   1.337  0.2420 -0.0158  0.2787
  209SOL     OW  833   1.577   0.538   2.975 -0.1524 -0.7075  0.5662
  209SOL    HW1  834   1.626   0.619   2.958 -5.1225 -0.3663 -1.8003
  209SOL    HW2  835   1.641   0.474   2.949  0.8183 -0.5556 -1.8453
  209SOL     MW  836   1.592   0.540   2.970 -0.6801 -0.6424 -0.0642
  210SOL     OW  837   1.592   1.331   0.788  0.1703 -0.4667 -0.4137
  210SOL    HW1  838   1.688   1.341   0.766  0.7198  2.0197 -0.6978
  210SOL    HW2  839   1.547   1.317   0.701  1.6259 -0.2406 -0.0275
  210SOL     MW  840   1.599   1.330   0.774  0.4349 -0.1088 -0.4002
  211SOL     OW  841   1.665   0.370   0.974 -0.1446  0.0003  0.0890
  211SOL    HW1  842   1.650   0.371   0.882 -2.2721  0.5244  0.4938
  211SOL    HW2  843   1.752   0.416   0.976 -1.2968  0.5079  1.3073
  211SOL     MW  844   1.675   0.377   0.962 -0.5773  0.1364  0.3032
  212SOL     OW  845   0.222   1.065   0.109  0.4259 -0.2998  0.0532
  212SOL    HW1  846   0.188   1.019   0.184 -0.9490 -1.6798 -0.4025
  212SOL    HW2  847   0.267   0.992   0.063 -3.0459 -0.0895  1.1526
  212SOL     MW  848   0.224   1.049   0.113 -0.2136 -0.4541  0.1381
  213SOL     OW  849   0.497   1.747   3.037  0.1553  0.2056 -0.1825
  213SOL    HW1  850   0.505   1.821   3.097  0.4822 -1.1009  4.0225
  213SOL    HW2  851   0.539   1.772   2.949 -0.2030 -1.3204 -1.4152
  213SOL     MW  852   0.503   1.760   3.033  0.1512 -0.1681  0.2097
  214SOL     OW  853   0.554   0.272   2.264  0.2314  0.0649 -0.0461
  214SOL    HW1  854   0.486   0.345   2.269 -1.1963  2.1051  0.8891
  214SOL    HW2  855   0.599   0.287   2.184 -2.7651  0.3383 -0.8408
  214SOL     MW  856   0.551   0.284   2.254 -0.3523  0.3702 -0.0276
  215SOL     OW  857   0.536   0.686   2.663 -0.1694  0.0394 -0.1756
  215SOL    HW1  858   0.526   0.687   2.570  0.2252 -1.6598 -0.9906
  215SOL    HW2  859   0.468   0.634   2.712 -0.4318 -1.5512 -1.1151
  215SOL     MW  860   0.526   0.679   2.657 -0.1519 -0.3947 -0.4071
  216SOL     OW  861   2.904   3.065   2.638 -0.4351  0.3486 -0.3644
  216SOL    HW1  862   2.903   3.056   2.738  0.1053 -0.8722  1.9388
  216SOL    HW2  863   2.904   3.163   2.633  1.2076 -2.4166 -0.5899
  216SOL     MW  864   2.904   3.077   2.650 -0.1471 -0.1773 -0.0903
  217SOL     OW  865   0.947   1.135   0.055  0.1783 -0.5746  0.0824
  217SOL    HW1  866   0.989   1.056   0.008 -1.6928 -1.6303 -3.0065
  217SOL    HW2  867   1.000   1.210   0.032 -0.4540 -2.0943 -1.8693
  217SOL     MW  868   0.960   1.134   0.046 -0.1520 -0.9144 -0.5827
  218SOL     OW  869   0.961   1.354   2.508 -0.2603 -0.1374 -0.0697
  218SOL    HW1  870   0.977   1.287   2.574 -0.9717  0.4878 -0.2322
  218SOL    HW2  871   1.030   1.416   2.531 -0.3657 -1.5776  0.3564
  218SOL     MW  872   0.972   1.353   2.520 -0.3681 -0.2449 -0.0349
  219SOL     OW  873   1.106   0.471   2.642 -0.0416 -0.1237  0.2883
  219SOL    HW1  874   1.164   0.517   2.699 -1.0797  0.4974 -0.1635
  219SOL    HW2  875   1.037   0.525   2.602  1.5536  3.3284 -1.5553
  219SOL     MW  876   1.104   0.484   2.644  0.0319  0.4137 -0.0145
  220SOL     OW  877   1.762   0.479   2.240  0.0915  0.9062  0.0610
  220SOL    HW1  878   1.681   0.487   2.186 -2.5223  0.0060  0.5747
  220SOL    HW2  879   1.806   0.396   2.203  1.7367 -1.1014  0.2500
  220SOL     MW  880   1.757   0.469   2.228 -0.0363  0.5226  0.1537
  221SOL     OW  881   0.382   1.351   2.958  0.3658  0.3682  0.4894
  221SOL    HW1  882   0.392   1.263   2.921  1.2739  4.1032  1.2449
  221SOL    HW2  883   0.417   1.398   2.881  0.4430 -1.1784  0.5866
  221SOL     MW  884   0.388   1.346   2.943  0.4958  0.6569  0.6019
  222SOL     OW  885   0.394   0.950   2.672  0.0904  0.0944 -0.4807
  222SOL    HW1  886   0.378   0.975   2.576  0.6470  0.1096  0.3488
  222SOL    HW2  887   0.444   0.873   2.666 -1.5738  1.1058 -0.1677
  222SOL     MW  888   0.398   0.943   2.659 -0.0557  0.2299 -0.3299
  223SOL     OW  889   0.012   2.041   2.569  0.0360 -0.5388 -0.0837
  223SOL    HW1  890   0.074   1.976   2.616 -1.3381 -0.8635  0.4415
  223SOL    HW2  891   0.066   2.113   2.535 -1.5926  2.1648  0.5470
  223SOL     MW  892   0.027   2.042   2.571 -0.3602 -0.2249  0.0689
  224SOL     OW  893   1.536   0.809   2.606 -0.5062  0.0767  0.4180
  224SOL    HW1  894   1.520   0.868   2.683 -0.5980 -0.0333  1.1300
  224SOL    HW2  895   1.534   0.861   2.531  2.6659 -0.1481  0.8947
  224SOL     MW  896   1.534   0.824   2.606 -0.0998  0.0325  0.5748
  225SOL     OW  897   2.955   1.464   2.314 -0.3660 -0.9972 -0.0235
  225SOL    HW1  898   3.012   1.523   2.254  1.6604  1.3698  0.5499
  225SOL    HW2  899   2.916   1.521   2.378  0.2467  0.6899 -0.9879
  225SOL     MW  900   2.957   1.479   2.315 -0.0178 -0.4623 -0.0751
  226SOL     OW  901   0.470   1.453   2.690  0.2219  0.0699 -0.0736
  226SOL    HW1  902   0.569   1.466   2.696 -0.2706  0.6543  1.7248
  226SOL    HW2  903   0.436   1.539   2.663  0.6859 -1.0392 -1.5967
  226SOL     MW  904   0.479   1.466   2.687  0.2182  0.0006 -0.0373
  227SOL     OW  905   0.463   1.099   2.886  0.4021 -0.0616 -0.6900
  227SOL    HW1  906   0.551   1.120   2.866  0.9673  0.5968  0.0817
  227SOL    HW2  907   0.431   1.066   2.802 -2.4823  0.8445 -0.8069
  227SOL     MW  908   0.470   1.098   2.872  0.0961  0.1448 -0.6036
  228SOL     OW  909   0.708   0.959   2.063  0.0061 -0.0040 -0.1798
  228SOL    HW1  910   0.802   0.973   2.041 -1.7600 -0.2633  1.5138
  228SOL    HW2  911   0.720   0.901   2.145 -0.2212 -1.6689  0.8536
  228SOL     MW  912   0.722   0.953   2.071 -0.2569 -0.2579  0.1800
  229SOL     OW  913   0.177   0.578   0.027  0.0950  0.1373  0.4184
  229SOL    HW1  914   0.126   0.527  -0.043  1.5778  2.4558 -3.5280
  229SOL    HW2  915   0.171   0.521   0.105  0.7110 -0.3019 -0.1021
  229SOL     MW  916   0.170   0.564   0.028  0.3719  0.3853 -0.1709
  230SOL     OW  917   1.745   1.367   2.037  0.1683  0.3690 -0.3687
  230SOL    HW1  918   1.681   1.328   2.099  2.2179  0.9735  0.6099
  230SOL    HW2  919   1.808   1.294   2.024  0.1406 -1.0010 -0.0826
  230SOL     MW  920   1.745   1.352   2.044  0.4351  0.2680 -0.2018
  231SOL     OW  921   2.748   1.303   2.186 -0.3284 -0.8474  0.2030
  231SOL    HW1  922   2.830   1.344   2.192 -1.2968 -0.0839  2.2390
  231SOL    HW2  923   2.688   1.357   2.131  1.4503 -0.6143  3.4749
  231SOL     MW  924   2.751   1.315   2.180 -0.2215 -0.7159  0.9033
  232SOL     OW  925   2.276   0.834   2.057  0.7700 -0.2090 -0.7492
  232SOL    HW1  926   2.198   0.866   1.999 -0.7592 -3.2185  1.2798
  232SOL    HW2  927   2.254   0.849   2.152  1.9163 -0.3297  0.3326
  232SOL     MW  928   2.263   0.841   2.062  0.7195 -0.6220 -0.3388
  233SOL     OW  929   2.066   0.459   1.953  0.0496  0.7840  0.5555
  233SOL    HW1  930   2.113   0.374   1.947 -0.1529 -1.4819  0.7756
  233SOL    HW2  931   2.092   0.475   2.046  2.2383 -0.3849  2.1190
  233SOL     MW  932   2.076   0.450   1.964  0.3117  0.3308  0.7909
  234SOL     OW  933   0.280   1.043   2.442 -0.2573  0.8338 -0.1241
  234SOL    HW1  934   0.188   1.077   2.437 -1.5076  2.0153 -0.4379
  234SOL    HW2  935   0.328   1.126   2.435  0.2979 -1.1553  1.8011
  234SOL     MW  936   0.274   1.059   2.440 -0.3490  0.7272  0.0885
  235SOL     OW  937   1.139   3.036   2.713 -0.4484  0.6845  0.0248
  235SOL    HW1  938   1.154   3.009   2.805  1.2354  1.8320 -1.9045
  235SOL    HW2  939   1.101   3.122   2.723  1.2482  0.4095  3.0791
  235SOL     MW  940   1.136   3.044   2.726 -0.0024  0.7996  0.1732
  236SOL     OW  941   2.919   0.550   0.007 -0.0430  0.2017 -0.0037
  236SOL    HW1  942   2.831   0.555   0.041 -1.8245  3.5128  1.2250
  236SOL    HW2  943   2.943   0.641  -0.002  1.0556 -1.6376  1.7208
  236SOL     MW  944   2.911   0.563   0.010 -0.1331  0.3959  0.3860
  237SOL     OW  945   1.999   1.112   2.203  0.6342 -0.5931 -0.3345
  237SOL    HW1  946   1.935   1.102   2.124 -1.0927  4.0786 -1.6531
  237SOL    HW2  947   2.056   1.035   2.194  0.4038 -0.7297 -2.9627
  237SOL     MW  948   1.998   1.101   2.191  0.3759  0.0053 -0.8553
  238SOL     OW  949   1.062   1.806   3.012  0.2135  0.2236 -0.0850
  238SOL    HW1  950   1.058   1.717   2.983 -2.3396  0.5434 -1.4059
  238SOL    HW2  951   1.157   1.807   3.023 -1.3959 -0.0883  0.0141
  238SOL     MW  952   1.074   1.794   3.009 -0.3357  0.2247 -0.2462
  239SOL     OW  953   1.239   1.351   2.353  0.0120  0.3807  0.0509
  239SOL    HW1  954   1.202   1.402   2.423 -1.4980 -2.2325 -0.3396
  239SOL    HW2  955   1.276   1.274   2.403  2.2312 -2.7535  1.0094
  239SOL     MW  956   1.239   1.348   2.369  0.1056 -0.3776  0.1258
  240SOL     OW  957   0.719   0.795   2.295  0.0927  0.0720 -0.0313
  240SOL    HW1  958   0.716   0.876   2.344  0.0587 -1.8169 -1.6696
  240SOL    HW2  959   0.811   0.773   2.283 -1.3639 -1.7475 -1.5936
  240SOL     MW  960   0.731   0.803   2.300 -0.1040 -0.4173 -0.4536
  241SOL     OW  961   0.640   0.372   3.091  0.1021 -0.2202 -0.1274
  241SOL    HW1  962   0.652   0.427   3.170  0.3311  1.0810 -1.4032
  241SOL    HW2  963   0.548   0.368   3.076  0.6127  1.5802  1.2952
  241SOL     MW  964   0.630   0.379   3.100  0.1996  0.1890 -0.1080
  242SOL     OW  965   1.497   1.683   2.347  0.2250 -0.2639 -0.2447
  242SOL    HW1  966   1.469   1.777   2.356 -1.6178  3.9983  1.9874
  242SOL    HW2  967   1.431   1.640   2.295  1.9801 -0.3494 -1.1643
  242SOL     MW  968   1.485   1.690   2.341  0.2134  0.2872 -0.0716
  243SOL     OW  969   1.041   0.244   2.487 -0.2297 -0.2362  0.0042
  243SOL    HW1  970   1.119   0.229   2.426  1.0009  0.4204 -1.5013
  243SOL    HW2  971   1.064   0.318   2.550  0.5814  0.3511  1.0282
  243SOL     MW  972   1.054   0.252   2.487  0.0397 -0.0721 -0.0593
  244SOL     OW  973   0.255   0.765   2.378  0.2901 -0.2472  0.5120
  244SOL    HW1  974   0.255   0.861   2.388  1.7021  2.0790  0.0247
  244SOL    HW2  975   0.340   0.736   2.353 -1.2876 -1.1864  1.5890
  244SOL     MW  976   0.266   0.774   2.376  0.2682 -0.0642  0.5898
  245SOL     OW  977   1.271   0.222   2.324  0.5602  0.2250 -0.2147
  245SOL    HW1  978   1.346   0.166   2.335 -1.4878 -0.3625  2.5484
  245SOL    HW2  979   1.328   0.302   2.341  0.0870 -1.9778 -0.0555
  245SOL     MW  980   1.289   0.225   2.327  0.2276 -0.1431  0.1709
  246SOL     OW  981   1.201   1.187   2.140  0.2586 -0.2834 -0.0048
  246SOL    HW1  982   1.151   1.122   2.194  0.7755  0.3091  0.3143
  246SOL    HW2  983   1.229   1.245   2.206 -1.9108  2.9101  3.1545
  246SOL     MW  984   1.198   1.186   2.156  0.0405  0.2161  0.4541
  247SOL     OW  985   0.748   0.571   0.163 -0.3634 -0.2945  0.5709
  247SOL    HW1  986   0.712   0.657   0.151  0.8121 -3.0306  2.1208
  247SOL    HW2  987   0.842   0.577   0.134  0.6232  0.5142 -0.1912
  247SOL     MW  988   0.756   0.583   0.158 -0.0781 -0.5488  0.6748
  248SOL     OW  989   0.442   1.272   2.473 -0.6449  1.0141  0.1472
  248SOL    HW1  990   0.476   1.308   2.390 -2.6554  1.2460 -1.2168
  248SOL    HW2  991   0.479   1.323   2.544  1.3662 -1.4685  1.3522
  248SOL     MW  992   0.452   1.283   2.471 -0.6448  0.7171  0.1263
  249SOL     OW  993   0.160   1.873   2.708 -0.1382  0.5708  0.0591
  249SOL    HW1  994   0.098   1.795   2.697  2.4719 -1.0158 -0.9263
  249SOL    HW2  995   0.179   1.876   2.809 -1.0288 -0.5798  2.7723
  249SOL     MW  996   0.154   1.863   2.720  0.0887  0.2096  0.2871
  250SOL     OW  997   2.192   0.898   2.330  0.0457  0.9315 -0.4837
  250SOL    HW1  998   2.256   0.819   2.343  1.3431 -0.1317  0.8754
  250SOL    HW2  999   2.234   0.978   2.367 -1.9780  1.6567 -1.1628
  250SOL     MW 1000   2.206   0.898   2.337 -0.0501  0.8869 -0.3940
  251SOL     OW 1001   0.145   0.863   2.000  0.3932 -0.1499 -0.8778
  251SOL    HW1 1002   0.059   0.833   1.994 -0.1162 -0.6192 -0.8473
  251SOL    HW2 1003   0.190   0.853   1.914  0.4803 -2.1791 -1.8649
  251SOL     MW 1004   0.139   0.858   1.988  0.3375 -0.4796 -1.0040
  252SOL     OW 1005   1.715   0.974   2.852  0.3012 -0.1088  0.0271
  252SOL    HW1 1006   1.737   1.032   2.932  0.3031 -1.3745 -0.6762
  252SOL    HW2 1007   1.768   1.012   2.779 -0.8618  0.1336 -1.0278
  252SOL     MW 1008   1.725   0.986   2.853  0.1480 -0.2438 -0.2049
  253SOL     OW 1009   1.244   1.785   2.549  0.4267 -0.2295  0.0645
  253SOL    HW1 1010   1.238   1.785   2.452 -3.6589  3.8212  2.0537
  253SOL    HW2 1011   1.155   1.821   2.562  0.9769 -1.4361 -1.5168
  253SOL     MW 1012   1.231   1.790   2.538 -0.0398  0.1458  0.1183
  254SOL     OW 1013   1.057   0.992   2.276 -0.2699  0.3654 -0.0775
  254SOL    HW1 1014   1.040   0.914   2.222  1.7772  1.3770 -2.2221
  254SOL    HW2 1015   0.985   1.048   2.269  1.4536  0.0030 -0.0795
  254SOL     MW 1016   1.045   0.989   2.268  0.2276  0.4511 -0.3607
  255SOL     OW 1017   0.763   2.572   2.164 -0.3115 -0.1197 -0.1717
  255SOL    HW1 1018   0.691   2.522   2.205 -1.5050 -1.7395  1.6210
  255SOL    HW2 1019   0.839   2.573   2.220 -2.3656 -1.8395 -1.7874
  255SOL     MW 1020   0.763   2.565   2.177 -0.7400 -0.5604 -0.1484
  256SOL     OW 1021   1.279   2.732   2.890  0.4604 -0.6769  0.5232
  256SOL    HW1 1022   1.310   2.656   2.851  1.7532  4.2124 -0.3376
  256SOL    HW2 1023   1.351   2.787   2.854  3.1722 -0.5873  2.8253
  256SOL     MW 1024   1.293   2.729   2.880  0.9888 -0.0200  0.7134
  257SOL     OW 1025   0.115   1.925   0.077  0.3675  0.4735 -0.5204
  257SOL    HW1 1026   0.126   1.880   0.157  2.4528 -0.0469 -0.5221
  257SOL    HW2 1027   0.145   1.860   0.010  0.8336 -1.3695  1.7967
  257SOL     MW 1028   0.121   1.911   0.079  0.7041  0.1616 -0.2149
  258SOL     OW 1029   0.699   1.038   2.467  0.4466 -0.0094  0.5371
  258SOL    HW1 1030   0.716   1.118   2.410  2.0082  2.1735 -1.3090
  258SOL    HW2 1031   0.685   1.085   2.549  0.6080  2.4864 -3.5217
  258SOL     MW 1032   0.700   1.055   2.470  0.6739  0.6079 -0.2420
  259SOL     OW 1033   0.785   0.421   2.379  0.8712 -1.2472 -0.4873
  259SOL    HW1 1034   0.691   0.401   2.402 -0.8370  0.2630  0.2340
  259SOL    HW2 1035   0.835   0.347   2.412 -1.0927 -1.0482  1.0151
  259SOL     MW 1036   0.779   0.409   2.386  0.3867 -1.0217 -0.1939
  260SOL     OW 1037   0.486   0.142   1.599 -0.4304 -0.0388 -0.0744
  260SOL    HW1 1038   0.461   0.112   1.514  0.9129 -0.4444 -0.9280
  260SOL    HW2 1039   0.586   0.148   1.598  1.1696 -2.8301  1.1188
  260SOL     MW 1040   0.496   0.139   1.588 -0.0421 -0.4606 -0.0296
  261SOL     OW 1041   1.317   0.775   2.007 -0.3117  0.0077  0.3004
  261SOL    HW1 1042   1.307   0.784   2.102  0.9612  0.0080 -0.9110
  261SOL    HW2 1043   1.288   0.680   2.000  0.5020 -1.1877 -1.3404
  261SOL     MW 1044   1.312   0.764   2.019 -0.0364 -0.1500 -0.0759
  262SOL     OW 1045   1.043   0.339   0.179 -0.5750  0.3654 -0.2028
  262SOL    HW1 1046   1.131   0.302   0.165 -1.6390  1.5657 -1.6143
  262SOL    HW2 1047   0.989   0.284   0.118  0.0536 -0.8041 -1.5645
  262SOL     MW 1048   1.048   0.327   0.169 -0.6324  0.3695 -0.5687
  263SOL     OW 1049   0.427   0.007   2.529 -0.2890  0.3466 -0.2312
  263SOL    HW1 1050   0.361   0.078   2.524 -1.1090  0.1109  1.4723
  263SOL    HW2 1051   0.480   0.010   2.445  0.2230 -3.6408 -0.2442
  263SOL     MW 1052   0.425   0.017   2.517 -0.3296 -0.2106 -0.0081
  264SOL     OW 1053   1.491   1.320   1.902 -0.5133  0.4685 -0.5066
  264SOL    HW1 1054   1.446   1.267   1.966  0.1103  0.9458 -2.3046
  264SOL    HW2 1055   1.580   1.327   1.929 -1.9312 -1.6231 -1.9113
  264SOL     MW 1056   1.497   1.314   1.914 -0.6181  0.2555 -0.9291
  265SOL     OW 1057   0.682   2.815   2.294  0.0115  0.1470  0.1119
  265SOL    HW1 1058   0.706   2.732   2.247 -1.0524 -1.0074 -0.2459
  265SOL    HW2 1059   0.703   2.804   2.388  0.7475 -0.2741 -2.0061
  265SOL     MW 1060   0.688   2.803   2.300 -0.0317 -0.0609 -0.2148
  266SOL     OW 1061   0.979   0.726   2.217 -0.7597 -0.2062 -0.1595
  266SOL    HW1 1062   0.962   0.685   2.130  0.4430  0.4215  1.3299
  266SOL    HW2 1063   1.037   0.668   2.259  0.1264 -0.3919 -2.1275
  266SOL     MW 1064   0.984   0.713   2.211 -0.4841 -0.1479 -0.2226
  267SOL     OW 1065   1.421   1.738   2.790  0.3635  0.7231 -0.0551
  267SOL    HW1 1066   1.473   1.662   2.752  2.3467  0.0616  1.4050
  267SOL    HW2 1067   1.384   1.777   2.714 -0.8665  0.3444  0.1782
  267SOL     MW 1068   1.423   1.733   2.775  0.4629  0.5858  0.1683
  268SOL     OW 1069   0.205   0.828   1.697 -0.8420  0.3067  0.2951
  268SOL    HW1 1070   0.149   0.874   1.637  0.4575  0.6111  2.2437
  268SOL    HW2 1071   0.194   0.734   1.681  0.0523  2.6125  0.5552
  268SOL     MW 1072   0.196   0.822   1.687 -0.5525  0.6511  0.5865
  269SOL     OW 1073   1.429   1.947   2.347  0.1873 -0.1456 -0.0227
  269SOL    HW1 1074   1.483   2.027   2.353  0.7492  2.4834  2.3602
  269SOL    HW2 1075   1.369   1.971   2.423  0.3504 -0.2896 -1.3567
  269SOL     MW 1076   1.428   1.961   2.358  0.2830  0.1823  0.1157
  270SOL     OW 1077   1.126   0.374   1.624 -0.7015  0.4646  0.1361
  270SOL    HW1 1078   1.087   0.296   1.664  1.0941  1.6381 -0.4093
  270SOL    HW2 1079   1.218   0.360   1.610 -0.5723 -3.5677  0.0540
  270SOL     MW 1080   1.133   0.362   1.627 -0.4476  0.0874  0.0533
  271SOL     OW 1081   0.887   0.013   2.533 -0.1951 -0.5520  0.0031
  271SOL    HW1 1082   0.929  -0.041   2.595 -0.2460  2.0602  1.4700
  271SOL    HW2 1083   0.953   0.095   2.528 -0.8378  1.5775  1.2095
  271SOL     MW 1084   0.901   0.017   2.541 -0.2866  0.0736  0.3558
  272SOL     OW 1085   1.476   2.886   2.793 -0.2035 -0.3978  0.9290
  272SOL    HW1 1086   1.476   2.937   2.715 -0.5631 -1.7641 -0.5310
  272SOL    HW2 1087   1.500   2.949   2.863 -1.9874 -0.6497 -1.7350
  272SOL     MW 1088   1.479   2.901   2.792 -0.4863 -0.6113  0.3849
  273SOL     OW 1089   1.441   0.975   2.846 -0.0966  0.5661  0.0162
  273SOL    HW1 1090   1.534   0.985   2.852  0.5405 -0.2565 -1.2590
  273SOL    HW2 1091   1.400   1.051   2.884 -0.1507 -0.5713 -0.5734
  273SOL     MW 1092   1.448   0.987   2.852 -0.0197  0.3075 -0.2298
  274SOL     OW 1093   1.484   0.726   0.136 -0.1716  0.1442 -0.4016
  274SOL    HW1 1094   1.527   0.644   0.156  0.4332 -0.8765 -1.5728
  274SOL    HW2 1095   1.397   0.723   0.164  3.2715  0.6403  1.3856
  274SOL     MW 1096   1.478   0.715   0.143  0.3625  0.0750 -0.3203
  275SOL     OW 1097   1.724   0.573   1.799 -0.2267 -0.3229 -0.5060
  275SOL    HW1 1098   1.802   0.624   1.833 -0.2098  0.8905  0.7809
  275SOL    HW2 1099   1.746   0.481   1.812 -0.3220  1.4580 -2.6866
  275SOL     MW 1100   1.737   0.568   1.805 -0.2370  0.0722 -0.6239
  276SOL     OW 1101   0.273   1.201   1.840  0.7365  0.4862  0.6441
  276SOL    HW1 1102   0.316   1.133   1.894 -1.5062  0.2476  0.9590
  276SOL    HW2 1103   0.184   1.199   1.883  1.6841 -0.4278  2.5417
  276SOL     MW 1104   0.267   1.192   1.853  0.5656  0.3341  0.9360
  277SOL     OW 1105   1.873   1.290   2.438  0.0735  0.4280  0.0157
  277SOL    HW1 1106   1.921   1.362   2.463 -0.0345 -0.6676 -0.2807
  277SOL    HW2 1107   1.939   1.237   2.398  1.1846 -0.1709  0.1272
  277SOL     MW 1108   1.888   1.292   2.436  0.2058  0.2044 -0.0087
  278SOL     OW 1109   1.467   0.616   1.716 -0.2393  0.2890  0.2209
  278SOL    HW1 1110   1.412   0.560   1.771  1.6361 -0.5768 -1.1298
  278SOL    HW2 1111   1.557   0.605   1.744  1.7952  1.2743  1.4967
  278SOL     MW 1112   1.471   0.607   1.727  0.2765  0.3047  0.2110
  279SOL     OW 1113   0.566   3.094   2.263  0.4829  0.0051  0.2533
  279SOL    HW1 1114   0.652   3.056   2.243 -0.9080 -0.7304  3.4441
  279SOL    HW2 1115   0.575   3.188   2.266 -1.4116  0.7967 -0.0533
  279SOL     MW 1116   0.578   3.101   2.261  0.0495  0.0125  0.6338
  280SOL     OW 1117   1.456   1.020   2.136 -0.3832 -1.1629  0.2409
  280SOL    HW1 1118   1.495   0.943   2.090  0.5094 -1.3871 -2.4743
  280SOL    HW2 1119   1.476   0.996   2.229 -0.4957  0.0629 -0.9119
  280SOL     MW 1120   1.464   1.007   2.142 -0.2803 -1.0307 -0.2694
  281SOL     OW 1121   1.289   1.310   2.767  0.1391  0.0223  0.0095
  281SOL    HW1 1122   1.380   1.295   2.774 -0.8316 -2.9230  0.7463
  281SOL    HW2 1123   1.254   1.280   2.848  0.8233 -0.3695 -0.7584
  281SOL     MW 1124   1.296   1.304   2.779  0.1013 -0.4180  0.0054
  282SOL     OW 1125   1.140   1.276   1.634 -0.1918 -0.1950  0.1949
  282SOL    HW1 1126   1.089   1.361   1.608 -1.6994  2.3836 -2.1405
  282SOL    HW2 1127   1.104   1.259   1.724 -1.1453 -0.5788  1.5631
  282SOL     MW 1128   1.129   1.285   1.643 -0.5165  0.0946  0.0673
  283SOL     OW 1129   0.757   1.237   2.984  0.4039 -0.4808 -0.2123
  283SOL    HW1 1130   0.826   1.194   3.035 -0.0882 -4.3364  0.8160
  283SOL    HW2 1131   0.742   1.328   3.025 -0.3634  0.2996  0.6473
  283SOL     MW 1132   0.764   1.243   2.996  0.2377 -0.8865  0.0368
  284SOL     OW 1133   0.534   0.640   2.379 -0.2038  0.1316  0.2344
  284SOL    HW1 1134   0.605   0.705   2.354 -2.0982  0.8460 -1.8579
  284SOL    HW2 1135   0.503   0.603   2.300  0.9866  0.4045  1.6462
  284SOL     MW 1136   0.540   0.644   2.365 -0.2967  0.2618  0.1446
  285SOL     OW 1137   0.873   0.918   2.799  0.7318 -0.0514 -0.2432
  285SOL    HW1 1138   0.926   0.938   2.717  0.1864 -1.2069 -3.0295
  285SOL    HW2 1139   0.833   0.829   2.797 -0.4661 -2.9954  2.7246
  285SOL     MW 1140   0.875   0.909   2.788  0.5018 -0.5923 -0.2193
  286SOL     OW 1141   1.174   1.513   2.596  0.4396  0.2785  0.0772
  286SOL    HW1 1142   1.228   1.471   2.659  0.0050  2.2557  1.0695
  286SOL    HW2 1143   1.190   1.607   2.585  1.0089  0.0480  0.5887
  286SOL     MW 1144   1.183   1.520   2.603  0.4574  0.5090  0.2756
  287SOL     OW 1145   1.103   0.958   0.292  0.3786 -0.8877 -0.1878
  287SOL    HW1 1146   1.129   1.001   0.373 -2.9403  2.8350  0.2357
  287SOL    HW2 1147   1.010   0.976   0.294  0.7603  0.0631 -0.6581
  287SOL     MW 1148   1.094   0.966   0.303 -0.0089 -0.2711 -0.1940
  288SOL     OW 1149   1.536   0.610   2.105 -0.1785 -0.0514 -0.3237
  288SOL    HW1 1150   1.546   0.646   2.192 -0.0280  1.4767 -1.3254
  288SOL    HW2 1151   1.577   0.672   2.040 -1.4507  0.0601  0.9721
  288SOL     MW 1152   1.543   0.623   2.108 -0.3265  0.1650 -0.2849
  289SOL     OW 1153   0.987   1.029   2.569  0.0961 -0.2713 -0.0010
  289SOL    HW1 1154   1.057   0.967   2.551  0.1913  0.2587  0.1003
  289SOL    HW2 1155   0.926   1.026   2.495 -0.5939  0.8931  0.9092
  289SOL     MW 1156   0.988   1.021   2.557  0.0176 -0.0478  0.1324
  290SOL     OW 1157   0.875   0.654   1.558  0.2631 -0.2507  0.1887
  290SOL    HW1 1158   0.905   0.592   1.486  0.1456 -2.3360  0.7391
  290SOL    HW2 1159   0.951   0.651   1.619 -1.8510 -0.9248  1.3991
  290SOL     MW 1160   0.889   0.645   1.556 -0.0313 -0.6148  0.4210
  291SOL     OW 1161   0.205   0.336   0.149  0.4436 -0.0908  0.2374
  291SOL    HW1 1162   0.274   0.276   0.182  0.5723 -2.5337  0.9315
  291SOL    HW2 1163   0.161   0.274   0.079 -1.4152  0.1816 -2.4703
  291SOL     MW 1164   0.209   0.320   0.144  0.2153 -0.3772 -0.0283
  292SOL     OW 1165   1.008   0.586   0.093  0.1207  0.0596  0.2629
  292SOL    HW1 1166   1.077   0.646   0.124 -1.6485 -0.9559  0.7497
  292SOL    HW2 1167   1.045   0.506   0.138 -2.1788  0.2976  0.6089
  292SOL     MW 1168   1.022   0.583   0.103 -0.4161 -0.0430  0.3728
  293SOL     OW 1169   0.171   0.135   2.452  0.0051 -0.0975 -0.4556
  293SOL    HW1 1170   0.105   0.080   2.408 -0.4903  0.7005 -1.9508
  293SOL    HW2 1171   0.135   0.175   2.529 -0.6038 -3.5205 -0.8100
  293SOL     MW 1172   0.157   0.133   2.456 -0.1406 -0.4438 -0.6996
  294SOL     OW 1173   1.534   0.646   2.385  0.0565  0.2103 -0.4244
  294SOL    HW1 1174   1.552   0.691   2.471 -2.0602 -3.6566 -0.1447
  294SOL    HW2 1175   1.507   0.563   2.411  0.6316  2.9499  0.2833
  294SOL     MW 1176   1.533   0.641   2.399 -0.1469  0.0616 -0.2941
  295SOL     OW 1177   0.901   0.621   2.524  0.4791 -0.5619 -0.0198
  295SOL    HW1 1178   0.844   0.557   2.471  5.6531 -0.3025 -1.4435
  295SOL    HW2 1179   0.849   0.625   2.610 -0.8015  1.4491  1.9391
  295SOL     MW 1180   0.886   0.613   2.528  0.9928 -0.2623  0.0508
  296SOL     OW 1181   1.298   0.227   2.042  0.4086  0.0741  0.5074
  296SOL    HW1 1182   1.370   0.171   2.016 -1.9506 -2.5827 -2.2468
  296SOL    HW2 1183   1.273   0.213   2.134 -1.7134  1.5298  0.3164
  296SOL     MW 1184   1.304   0.218   2.051 -0.1826 -0.0844  0.1188
  297SOL     OW 1185   1.418   0.365   1.605 -0.0906 -0.1126  0.6451
  297SOL    HW1 1186   1.473   0.430   1.643 -1.5585  0.8183  1.8583
  297SOL    HW2 1187   1.437   0.284   1.650  0.9429  2.1363  0.9402
  297SOL     MW 1188   1.428   0.363   1.616 -0.1479  0.3070  0.8441
  298SOL     OW 1189   1.616   0.843   1.991  0.0563 -0.3310 -0.2072
  298SOL    HW1 1190   1.602   0.893   1.905 -0.3056  0.8210  0.8770
  298SOL    HW2 1191   1.695   0.879   2.031  0.1513 -2.3446  1.2242
  298SOL     MW 1192   1.624   0.854   1.985  0.0211 -0.4447  0.1247
  299SOL     OW 1193   0.552   1.056   0.043  0.5076  0.7751  0.1407
  299SOL    HW1 1194   0.615   1.126   0.008  2.3263 -1.4781  0.7765
  299SOL    HW2 1195   0.493   1.034  -0.030 -0.1394  0.3556  1.4312
  299SOL     MW 1196   0.552   1.062   0.028  0.6622  0.4225  0.3949
  300SOL     OW 1197   1.237   1.134   2.547  0.7206  0.1644  0.7715
  300SOL    HW1 1198   1.142   1.157   2.536 -1.8796  2.3351  2.1294
  300SOL    HW2 1199   1.262   1.186   2.620 -2.0880  1.7319 -0.5269
  300SOL     MW 1200   1.228   1.144   2.555  0.0070  0.6576  0.7793
  301SOL     OW 1201   1.438   0.953   0.662 -0.1255 -0.4757 -0.0183
  301SOL    HW1 1202   1.482   0.975   0.740  1.6763 -0.3423 -0.0462
  301SOL    HW2 1203   1.376   0.880   0.673  2.0939  1.0000  0.1473
  301SOL     MW 1204   1.435   0.946   0.674  0.4051 -0.2634 -0.0001
  302SOL     OW 1205   0.143   1.491   2.009  0.4878 -0.0855 -0.0398
  302SOL    HW1 1206   0.186   1.425   2.062 -0.6975  1.9801  1.2145
  302SOL    HW2 1207   0.074   1.537   2.068 -2.9116 -1.3187  2.8678
  302SOL     MW 1208   0.140   1.489   2.024 -0.1171  0.0244  0.5093
  303SOL     OW 1209   0.366   1.692   2.637  0.0377  0.1858  0.3724
  303SOL    HW1 1210   0.379   1.682   2.544 -0.8915  0.2912  2.7250
  303SOL    HW2 1211   0.279   1.724   2.634  3.3500  1.4100  0.7640
  303SOL     MW 1212   0.356   1.695   2.625  0.3521  0.3612  0.7345
  304SOL     OW 1213   0.585   2.085   2.360  0.1792  0.2454 -0.2379
  304SOL    HW1 1214   0.666   2.123   2.314  1.1948  0.8731  1.5528
  304SOL    HW2 1215   0.623   2.009   2.407 -1.1767 -0.0987  1.2084
  304SOL     MW 1216   0.601   2.080   2.360  0.1343  0.2828  0.1892
  305SOL     OW 1217   1.086   0.590   0.504 -0.0335  0.2541 -0.2510
  305SOL    HW1 1218   0.995   0.573   0.474  0.0525  2.1969 -0.8810
  305SOL    HW2 1219   1.115   0.507   0.540 -0.9487 -2.1125  3.3909
  305SOL     MW 1220   1.078   0.577   0.505 -0.1429  0.1982  0.1464
  306SOL     OW 1221   1.199   1.471   0.264 -0.4930 -0.0595 -0.0615
  306SOL    HW1 1222   1.228   1.394   0.316 -0.2019 -1.2102  2.0557
  306SOL    HW2 1223   1.248   1.471   0.189  0.2989  0.9362  4.3345
  306SOL     MW 1224   1.209   1.461   0.261 -0.3501 -0.0799  0.7979
  307SOL     OW 1225   1.343   0.487   1.929 -0.5426  0.0551  0.2097
  307SOL    HW1 1226   1.339   0.397   1.957 -3.0077  3.0536 -1.2520
  307SOL    HW2 1227   1.403   0.512   1.998 -0.5197 -3.2210 -0.2602
  307SOL     MW 1228   1.351   0.479   1.942 -0.8648  0.0184 -0.0451
  308SOL     OW 1229   2.144   0.581   2.703  0.3241 -0.2658  0.6400
  308SOL    HW1 1230   2.224   0.548   2.745 -0.7873  2.4235  0.4114
  308SOL    HW2 1231   2.156   0.674   2.713  1.1676  0.2782 -2.9008
  308SOL     MW 1232   2.156   0.589   2.710  0.2888  0.1608  0.1426
  309SOL     OW 1233   0.434   0.364   0.377  0.4313 -0.4440 -0.6134
  309SOL    HW1 1234   0.523   0.345   0.413 -0.6752 -0.2981  1.6649
  309SOL    HW2 1235   0.405   0.288   0.328  2.4958  1.0634 -2.8516
  309SOL     MW 1236   0.442   0.352   0.375  0.5577 -0.2259 -0.6081
  310SOL     OW 1237   0.505   0.618   1.938 -0.1265  0.5817 -0.1688
  310SOL    HW1 1238   0.572   0.554   1.899 -0.3543  0.4321  0.4345
  310SOL    HW2 1239   0.552   0.701   1.941 -0.7567 -2.9844  1.9892
  310SOL     MW 1240   0.520   0.621   1.933 -0.2397  0.0914  0.1955
  311SOL     OW 1241   1.945   0.695   1.909  0.0839 -0.2442 -0.4079
  311SOL    HW1 1242   1.903   0.705   1.993 -0.7945  0.2923 -1.6108
  311SOL    HW2 1243   1.993   0.606   1.910  0.4909 -2.8711  1.2281
  311SOL     MW 1244   1.946   0.684   1.920  0.0217 -0.5200 -0.3507
  312SOL     OW 1245   1.689   2.531   0.115  0.6528  0.6703  0.2629
  312SOL    HW1 1246   1.747   2.551   0.189  3.8218  0.6599  1.6236
  312SOL    HW2 1247   1.598   2.549   0.136 -1.6377  0.6719  0.1165
  312SOL     MW 1248   1.684   2.536   0.127  0.7687  0.6691  0.4231
  313SOL     OW 1249   0.091   1.204   2.964 -0.0888 -0.3363  0.3858
  313SOL    HW1 1250   0.068   1.171   3.050 -1.0461 -2.4863 -0.5801
  313SOL    HW2 1251   0.185   1.229   2.963  0.7225 -1.0781  0.3891
  313SOL     MW 1252   0.100   1.203   2.976 -0.1080 -0.7179  0.2588
  314SOL     OW 1253   2.111   2.954   3.015  0.0746 -0.3268 -0.2000
  314SOL    HW1 1254   2.080   3.000   2.937 -0.3916 -0.7589 -1.7387
  314SOL    HW2 1255   2.178   3.022   3.037  0.5446  2.9261 -1.9187
  314SOL     MW 1256   2.116   2.969   3.008  0.0751  0.0453 -0.6298
  315SOL     OW 1257   1.514   1.967   3.100 -0.3969  0.6482 -0.3235
  315SOL    HW1 1258   1.427   2.009   3.108  0.6448  1.4201 -1.1862
  315SOL    HW2 1259   1.549   2.010   3.025  0.8132 -1.5358  1.8293
  315SOL     MW 1260   1.507   1.978   3.091 -0.0998  0.4619 -0.1533
  316SOL     OW 1261   1.271   0.677   2.716 -0.0075  0.1772 -0.3215
  316SOL    HW1 1262   1.355   0.649   2.679  0.1294 -1.6891  1.3755
  316SOL    HW2 1263   1.286   0.723   2.800  4.1945  0.1525 -1.6518
  316SOL     MW 1264   1.284   0.679   2.722  0.5650 -0.0723 -0.2731
  317SOL     OW 1265   0.730   1.493   2.595  0.4526 -0.2998  0.3848
  317SOL    HW1 1266   0.798   1.427   2.589 -0.4441 -1.4491  2.2201
  317SOL    HW2 1267   0.712   1.525   2.507 -1.1736 -0.5498  0.4008
  317SOL     MW 1268   0.736   1.488   2.583  0.1197 -0.4844  0.6291
  318SOL     OW 1269   1.362   0.372   2.904  0.3304 -0.0652 -0.3262
  318SOL    HW1 1270   1.268   0.402   2.883 -2.0753 -0.6667 -0.1766
  318SOL    HW2 1271   1.423   0.442   2.927  0.8290 -1.9933  0.0061
  318SOL     MW 1272   1.358   0.385   2.904  0.0788 -0.3989 -0.2627
  319SOL     OW 1273   0.787   0.407   2.854 -0.3829 -0.1365  0.2332
  319SOL    HW1 1274   0.727   0.376   2.785  1.5897 -0.2756  1.5982
  319SOL    HW2 1275   0.748   0.382   2.943  1.1235 -0.0799 -0.3010
  319SOL     MW 1276   0.774   0.400   2.857  0.0761 -0.1474  0.3428
  320SOL     OW 1277   1.074   1.331   1.946  0.3137  0.4255  0.1061
  320SOL    HW1 1278   1.117   1.292   2.020  1.0971 -0.2754 -0.1594
  320SOL    HW2 1279   1.120   1.412   1.931 -1.4176  0.4495 -1.3610
  320SOL     MW 1280   1.085   1.337   1.954  0.1886  0.3362 -0.1225
  321SOL     OW 1281   1.074   0.930   3.016  1.2343  0.0820  0.1622
  321SOL    HW1 1282   1.024   0.916   2.935  2.9453 -0.2275  0.3132
  321SOL    HW2 1283   1.139   0.859   3.010  0.4188 -0.8972  1.1984
  321SOL     MW 1284   1.076   0.919   3.004  1.3524 -0.0880  0.3188
  322SOL     OW 1285   1.274   0.826   1.718  0.1415  0.0455  0.0113
  322SOL    HW1 1286   1.355   0.778   1.740 -0.7472 -0.4855 -0.6592
  322SOL    HW2 1287   1.266   0.864   1.806  1.6729 -0.2759  0.4432
  322SOL     MW 1288   1.284   0.825   1.732  0.2263 -0.0670 -0.0202
  323SOL     OW 1289   1.244   1.592   1.874  0.3259 -0.5350  0.8181
  323SOL    HW1 1290   1.273   1.574   1.782  3.0004  0.6245 -1.1116
  323SOL    HW2 1291   1.178   1.667   1.872  0.2355 -0.5932  0.0921
  323SOL     MW 1292   1.239   1.600   1.862  0.6669 -0.3897  0.4677
  324SOL     OW 1293   1.495   0.991   2.395  0.3702 -0.3639 -0.6097
  324SOL    HW1 1294   1.393   1.004   2.417  0.2222 -1.6677  1.1905
  324SOL    HW2 1295   1.523   1.077   2.425 -1.1062 -1.7487  0.1826
  324SOL     MW 1296   1.485   1.004   2.402  0.1559 -0.7187 -0.2676
  325SOL     OW 1297   1.055   0.452   2.938  0.0507 -0.4231 -0.2325
  325SOL    HW1 1298   1.027   0.508   3.012  0.8688  0.4049  1.5262
  325SOL    HW2 1299   0.998   0.480   2.874  0.2418 -1.8686 -0.3693
  325SOL     MW 1300   1.043   0.463   2.939  0.1839 -0.5046 -0.0185
  326SOL     OW 1301   0.441   1.361   2.190  0.0199 -0.1332  0.6745
  326SOL    HW1 1302   0.506   1.307   2.146 -0.6858  1.7888  0.1461
  326SOL    HW2 1303   0.475   1.446   2.181 -0.1942 -0.1252 -1.9828
  326SOL     MW 1304   0.454   1.365   2.183 -0.1015  0.1214  0.2542
  327SOL     OW 1305   1.925   0.806   2.437  0.0055 -0.0724 -0.1533
  327SOL    HW1 1306   1.930   0.752   2.519  1.1983 -1.2213  0.9184
  327SOL    HW2 1307   2.011   0.840   2.423 -0.4325 -1.0020 -0.2839
  327SOL     MW 1308   1.937   0.803   2.446  0.1051 -0.3466 -0.0292
  328SOL     OW 1309   0.171   1.259   2.217 -0.4112 -0.0040  0.0953
  328SOL    HW1 1310   0.142   1.199   2.145 -1.1136  0.9264  0.5053
  328SOL    HW2 1311   0.269   1.268   2.208  1.9483 -0.3694 -0.1714
  328SOL     MW 1312   0.180   1.252   2.206 -0.1925  0.0706  0.1142
  329SOL     OW 1313   0.114   0.118   1.354  0.4937  0.6834 -0.3128
  329SOL    HW1 1314   0.077   0.123   1.443 -1.5778  1.7928  1.2468
  329SOL    HW2 1315   0.205   0.146   1.347 -3.2692  0.5369  0.3547
  329SOL     MW 1316   0.121   0.123   1.365 -0.2761  0.8104 -0.0190
  330SOL     OW 1317   0.335   3.096   2.057  0.1121 -0.1787 -0.6540
  330SOL    HW1 1318   0.410   3.103   2.110  0.8118 -5.7776  0.5837
  330SOL    HW2 1319   0.268   3.049   2.111 -3.6087 -2.1505  1.5476
  330SOL     MW 1320   0.336   3.091   2.071 -0.2865 -1.1776 -0.2002
  331SOL     OW 1321   0.850   1.178   2.301  0.5134 -0.0978  0.1536
  331SOL    HW1 1322   0.837   1.223   2.220 -1.7320 -0.9248 -1.6427
  331SOL    HW2 1323   0.889   1.239   2.359  2.0840 -1.3697  0.7590
  331SOL     MW 1324   0.854   1.192   2.298  0.4244 -0.3747 -0.0035
  332SOL     OW 1325   1.331   1.748   3.052 -0.6123  0.7887  0.2235
  332SOL    HW1 1326   1.359   1.746   2.961 -0.1343 -1.1543 -0.9366
  332SOL    HW2 1327   1.406   1.786   3.089  1.3229  1.9084 -0.5236
  332SOL     MW 1328   1.344   1.753   3.045 -0.2939  0.6801 -0.0281
  333SOL     OW 1329   1.739   1.408   2.920 -0.4787 -0.3072  0.0082
  333SOL    HW1 1330   1.805   1.399   2.859  1.9162 -0.4892  0.2493
  333SOL    HW2 1331   1.760   1.350   2.997  0.8676 -1.5905 -1.2195
  333SOL     MW 1332   1.751   1.400   2.922  0.0149 -0.5005 -0.1220
  334SOL     OW 1333   1.389  -0.002   2.632 -0.0238  0.0939  0.4047
  334SOL    HW1 1334   1.305  -0.032   2.673  0.9089  0.7793 -1.2596
  334SOL    HW2 1335   1.403   0.090   2.659 -1.3063  0.1262  0.0143
  334SOL     MW 1336   1.380   0.007   2.641 -0.0699  0.1886  0.1336
  335SOL     OW 1337   1.311   0.784   2.973  0.4165  0.0860  0.3236
  335SOL    HW1 1338   1.381   0.749   3.027  1.8389  2.8132 -0.6634
  335SOL    HW2 1339   1.346   0.863   2.935  0.0517  1.1836 -0.9325
  335SOL     MW 1340   1.325   0.790   2.975  0.5560  0.5907  0.0276
  336SOL     OW 1341   0.946   1.051   1.959 -0.0099 -0.2110  0.5006
  336SOL    HW1 1342   0.967   1.146   1.979  0.7787 -0.0055 -0.1002
  336SOL    HW2 1343   1.025   1.029   1.909 -0.6703  1.5849  1.3165
  336SOL     MW 1344   0.959   1.061   1.955  0.0070  0.0531  0.5290
  337SOL     OW 1345   0.586   1.814   2.784  0.1924  0.3569 -0.1216
  337SOL    HW1 1346   0.512   1.807   2.717 -0.3450  1.1720 -2.0626
  337SOL    HW2 1347   0.665   1.798   2.741 -1.5347  0.4893 -1.4821
  337SOL     MW 1348   0.586   1.811   2.770 -0.1064  0.4819 -0.5572
  338SOL     OW 1349   1.123   0.808   2.525 -0.4005  0.4205 -0.1635
  338SOL    HW1 1350   1.033   0.767   2.532  0.4020 -1.4425 -0.6318
  338SOL    HW2 1351   1.176   0.761   2.597 -0.3647 -1.8969  0.4866
  338SOL     MW 1352   1.118   0.796   2.536 -0.2899 -0.1311 -0.1395
  339SOL     OW 1353   1.539   1.019   1.796  0.4055 -0.4402  0.5346
  339SOL    HW1 1354   1.511   1.028   1.701  1.7281  1.7316 -0.4864
  339SOL    HW2 1355   1.461   1.051   1.840 -0.3659 -1.4530  1.6833
  339SOL     MW 1356   1.525   1.024   1.789  0.4782 -0.2873  0.5514
  340SOL     OW 1357   1.380   1.472   0.038 -0.0131  0.2777  0.0686
  340SOL    HW1 1358   1.357   1.565   0.034 -1.2707 -2.1435  0.1873
  340SOL    HW2 1359   1.474   1.465   0.052 -1.9245 -0.1063  2.3259
  340SOL     MW 1360   1.390   1.483   0.039 -0.4312 -0.0924  0.3821
  341SOL     OW 1361   0.154   1.452   2.692 -0.0578  0.0940 -0.0022
  341SOL    HW1 1362   0.242   1.435   2.669 -0.7669  1.6817  1.8462
  341SOL    HW2 1363   0.097   1.391   2.647 -1.4191  2.0667 -0.8702
  341SOL     MW 1364   0.158   1.441   2.683 -0.3310  0.5637  0.1271
  342SOL     OW 1365   1.313   0.313   0.079 -0.4746  0.4372  0.1131
  342SOL    HW1 1366   1.373   0.370   0.125 -0.5595  0.2654 -2.5909
  342SOL    HW2 1367   1.306   0.346  -0.010 -0.6908  0.8027  0.4127
  342SOL     MW 1368   1.320   0.325   0.073 -0.5143  0.4627 -0.2042
  343SOL     OW 1369   0.219   0.325   2.146 -0.1258  0.1098 -0.3049
  343SOL    HW1 1370   0.252   0.256   2.208  1.9632 -1.7377 -0.7735
  343SOL    HW2 1371   0.133   0.285   2.120 -0.6922 -1.2392 -0.5703
  343SOL     MW 1372   0.212   0.311   2.150  0.0751 -0.3120 -0.4018
  344SOL     OW 1373   1.697   2.065   0.184  0.3683 -0.0005  0.4988
  344SOL    HW1 1374   1.701   2.142   0.129 -0.8774 -0.7958 -1.4781
  344SOL    HW2 1375   1.641   2.009   0.126 -2.6013 -0.8700 -0.4407
  344SOL     MW 1376   1.690   2.068   0.169 -0.1879 -0.2201  0.1140
  345SOL     OW 1377   0.760   1.591   2.323  0.0415 -0.3669  0.2900
  345SOL    HW1 1378   0.675   1.605   2.280 -1.5666  1.5275 -1.8742
  345SOL    HW2 1379   0.829   1.555   2.263  0.5143 -0.8259  0.4187
  345SOL     MW 1380   0.758   1.588   2.310 -0.1083 -0.1775  0.0214
  346SOL     OW 1381   1.774   1.095   3.087  0.5334 -0.6651  0.0054
  346SOL    HW1 1382   1.869   1.121   3.091 -0.3236  2.9218  0.0172
  346SOL    HW2 1383   1.747   1.054   3.171 -1.5805 -2.0605 -2.5621
  346SOL     MW 1384   1.783   1.093   3.098  0.1414 -0.3760 -0.3318
  347SOL     OW 1385   1.276   0.765   2.286  0.2489 -0.3839  0.0724
  347SOL    HW1 1386   1.354   0.738   2.326 -0.8296  0.5346 -0.4509
  347SOL    HW2 1387   1.209   0.790   2.354 -1.1129 -0.0914  2.0103
  347SOL     MW 1388   1.278   0.765   2.300 -0.0731 -0.2241  0.2591
  348SOL     OW 1389   1.428   2.647   1.870  0.0820  0.6756  0.4874
  348SOL    HW1 1390   1.452   2.569   1.919  1.9232 -2.0763 -0.0753
  348SOL    HW2 1391   1.426   2.719   1.928  0.2038 -0.6447 -0.7431
  348SOL     MW 1392   1.431   2.646   1.884  0.3410  0.1383  0.2508
  349SOL     OW 1393   1.515   0.264   2.696  0.1758  0.5845  0.2189
  349SOL    HW1 1394   1.453   0.302   2.755 -0.9973 -1.3852 -2.0790
  349SOL    HW2 1395   1.600   0.275   2.739 -1.6278  0.4677 -2.0780
  349SOL     MW 1396   1.518   0.271   2.710 -0.2170  0.3092 -0.3874
  350SOL     OW 1397   1.867   0.613   2.664  0.3392 -0.2323 -0.1145
  350SOL    HW1 1398   1.826   0.541   2.622 -0.2397 -1.3449  2.5297
  350SOL    HW2 1399   1.962   0.595   2.649  0.5222 -0.3010  0.2412
  350SOL     MW 1400   1.874   0.601   2.656  0.2870 -0.3881  0.2813
  351SOL     OW 1401   0.069   0.941   1.508 -0.3475 -0.5730 -0.3647
  351SOL    HW1 1402  -0.008   0.969   1.561 -0.7753  0.6157 -1.9768
  351SOL    HW2 1403   0.137   1.004   1.536 -1.0164 -3.6890 -2.5379
  351SOL     MW 1404   0.067   0.953   1.519 -0.4922 -0.8273 -0.8642
  352SOL     OW 1405   0.859   1.690   2.725 -1.1424 -0.2616 -0.1421
  352SOL    HW1 1406   0.909   1.641   2.791  2.7188 -1.0835 -0.6277
  352SOL    HW2 1407   0.817   1.629   2.664  2.5694  0.7878 -1.3824
  352SOL     MW 1408   0.860   1.675   2.726 -0.1432 -0.2316 -0.3698
  353SOL     OW 1409   3.081   2.471   2.678 -0.0112  0.2371 -0.6958
  353SOL    HW1 1410   3.177   2.476   2.681 -0.3811  1.5821 -2.2200
  353SOL    HW2 1411   3.053   2.553   2.645 -0.8665  2.1793  0.8686
  353SOL     MW 1412   3.090   2.482   2.674 -0.1728  0.6708 -0.6905
  354SOL     OW 1413   0.341   2.523   0.847 -0.1935  0.6101 -0.2259
  354SOL    HW1 1414   0.366   2.486   0.932 -2.1528  1.8741 -0.9949
  354SOL    HW2 1415   0.282   2.453   0.816  1.8064 -0.2254 -0.1423
  354SOL     MW 1416   0.336   2.509   0.854 -0.1882  0.6667 -0.3163
  355SOL     OW 1417   0.029   2.274   0.355  0.2798  0.3811  0.0158
  355SOL    HW1 1418  -0.035   2.199   0.364  1.7395  0.6098  0.7572
  355SOL    HW2 1419   0.017   2.321   0.436 -0.4850  1.1132 -0.1834
  355SOL     MW 1420   0.019   2.270   0.367  0.3715  0.5078  0.0874
  356SOL     OW 1421   0.800   2.875   0.991  0.3734 -0.3479 -0.2058
  356SOL    HW1 1422   0.833   2.836   0.909 -1.4391  1.9734 -2.9782
  356SOL    HW2 1423   0.712   2.831   1.014  1.9525 -0.2922 -1.3559
  356SOL     MW 1424   0.793   2.864   0.983  0.3426 -0.0343 -0.7233
  357SOL     OW 1425   1.798   2.946   0.426 -0.2338  0.1747  0.2348
  357SOL    HW1 1426   1.740   2.873   0.452  2.0482 -0.0063 -2.2439
  357SOL    HW2 1427   1.875   2.902   0.399 -1.9792 -2.8613  1.4587
  357SOL     MW 1428   1.801   2.931   0.426 -0.1630 -0.2498  0.0693
  358SOL     OW 1429   0.518   0.096   1.086 -0.1810  0.4781  0.2684
  358SOL    HW1 1430   0.598   0.048   1.065 -0.5476  2.1408 -0.3478
  358SOL    HW2 1431   0.474   0.131   1.008  0.0127  0.4901  1.8411
  358SOL     MW 1432   0.523   0.094   1.073 -0.2038  0.6991  0.3946
  359SOL     OW 1433   0.889   2.904   1.852  0.1937  0.5623  0.3589
  359SOL    HW1 1434   0.883   2.805   1.870  0.1158  0.1864 -0.8036
  359SOL    HW2 1435   0.963   2.890   1.785 -2.0501  0.8289 -1.3071
  359SOL     MW 1436   0.898   2.889   1.846 -0.1126  0.5479 -0.0143
  360SOL     OW 1437   0.555   2.755   1.010 -0.4634 -0.1847 -0.1608
  360SOL    HW1 1438   0.553   2.717   0.920 -0.9080 -4.1049 -0.2317
  360SOL    HW2 1439   0.555   2.680   1.071 -1.2591 -0.5579 -0.2109
  360SOL     MW 1440   0.554   2.740   1.006 -0.6270 -0.7512 -0.1768
  361SOL     OW 1441   0.193   2.687   1.328 -0.1354 -0.0877  0.1418
  361SOL    HW1 1442   0.168   2.757   1.390 -2.2756 -0.7387 -1.1486
  361SOL    HW2 1443   0.291   2.670   1.343  0.8116  2.8642 -0.2641
  361SOL     MW 1444   0.203   2.694   1.338 -0.2928  0.2159 -0.0820
  362SOL     OW 1445   1.474   2.427   0.629  0.1382  0.7322 -0.7102
  362SOL    HW1 1446   1.499   2.341   0.670  1.4737 -0.1862  1.2348
  362SOL    HW2 1447   1.477   2.480   0.705 -1.0944 -2.0047  0.3487
  362SOL     MW 1448   1.478   2.422   0.645  0.1518  0.2499 -0.3139
  363SOL     OW 1449   0.299   3.082   0.720  0.3293 -0.3249 -0.2013
  363SOL    HW1 1450   0.306   3.014   0.791 -1.1718 -0.2365 -0.6152
  363SOL    HW2 1451   0.211   3.079   0.691  0.1846 -0.2940  1.3680
  363SOL     MW 1452   0.288   3.073   0.726  0.1121 -0.3091 -0.0489
  364SOL     OW 1453   0.720   0.181   0.229 -0.2950  0.0516 -0.0955
  364SOL    HW1 1454   0.663   0.119   0.276 -2.0053 -1.3893  2.1035
  364SOL    HW2 1455   0.661   0.241   0.180 -2.3511 -0.0591 -1.9318
  364SOL     MW 1456   0.704   0.181   0.229 -0.7919 -0.1532 -0.0476
  365SOL     OW 1457   0.980   1.958   1.067  0.1234  0.6006 -0.1725
  365SOL    HW1 1458   0.954   2.047   1.038  2.3787 -2.6609 -1.2368
  365SOL    HW2 1459   0.919   1.895   1.029 -0.2885  0.2497 -2.3755
  365SOL     MW 1460   0.969   1.961   1.058  0.3666  0.1239 -0.6036
  366SOL     OW 1461   2.814   2.629   1.013 -0.3480 -0.1036 -0.0939
  366SOL    HW1 1462   2.880   2.615   1.085  0.6910 -1.5272  3.0881
  366SOL    HW2 1463   2.876   2.663   0.950 -0.0419 -0.1488  1.2492
  366SOL     MW 1464   2.831   2.632   1.014 -0.1705 -0.2974  0.5032
  367SOL     OW 1465   1.254   2.920   0.928  0.0061  0.6952 -0.2103
  367SOL    HW1 1466   1.218   3.000   0.900  1.7936  0.2547 -2.3181
  367SOL    HW2 1467   1.219   2.852   0.865 -2.4047 -2.6894  2.2563
  367SOL     MW 1468   1.245   2.922   0.916 -0.0762  0.1905 -0.1629
  368SOL     OW 1469   1.634   0.401   0.687 -0.1838 -0.0595 -0.2936
  368SOL    HW1 1470   1.729   0.390   0.681 -0.0972  2.3894 -2.0850
  368SOL    HW2 1471   1.630   0.503   0.700 -1.8670 -1.5538 -0.8555
  368SOL     MW 1472   1.646   0.413   0.688 -0.3944  0.0664 -0.6041
  369SOL     OW 1473   0.153   2.511   1.655 -0.3538  0.8673  0.0524
  369SOL    HW1 1474   0.247   2.497   1.666  1.9348  2.6831 -1.3630
  369SOL    HW2 1475   0.120   2.585   1.697  0.2953 -1.8083  1.4607
  369SOL     MW 1476   0.161   2.519   1.662  0.0338  0.7538  0.0514
  370SOL     OW 1477   0.746   0.021   0.924  0.1332  0.5451 -0.4779
  370SOL    HW1 1478   0.837   0.056   0.932  3.1500 -1.4900 -1.4681
  370SOL    HW2 1479   0.749  -0.073   0.939 -1.4998  0.0578  0.2723
  370SOL     MW 1480   0.759   0.014   0.927  0.3158  0.2123 -0.5096
  371SOL     OW 1481   1.357   2.944   1.523 -0.1888 -0.6638 -0.4785
  371SOL    HW1 1482   1.293   2.878   1.491 -0.2981  0.2374 -0.5417
  371SOL    HW2 1483   1.353   3.015   1.455 -2.8445  3.6520 -0.4265
  371SOL     MW 1484   1.348   2.945   1.510 -0.5536  0.0245 -0.4800
  372SOL     OW 1485   0.764   2.336   0.471  0.6563  0.0796 -0.2612
  372SOL    HW1 1486   0.719   2.251   0.472 -0.1449  2.0583 -2.0756
  372SOL    HW2 1487   0.817   2.340   0.385 -0.8709 -1.9673 -3.0731
  372SOL     MW 1488   0.765   2.325   0.460  0.3491  0.0706 -0.8716
  373SOL     OW 1489   2.764   3.054   1.421 -0.1537 -0.0238  0.2522
  373SOL    HW1 1490   2.828   3.018   1.362 -0.7837  0.6599  1.6739
  373SOL    HW2 1491   2.730   3.131   1.370 -2.2666 -2.0910 -1.6597
  373SOL     MW 1492   2.768   3.060   1.406 -0.5156 -0.2063  0.1875
  374SOL     OW 1493   1.545   0.441   0.209 -0.4871  0.2760  0.3264
  374SOL    HW1 1494   1.595   0.358   0.184  0.0283 -3.9175  3.8013
  374SOL    HW2 1495   1.517   0.434   0.301 -0.3619  0.3009  1.0499
  374SOL     MW 1496   1.548   0.429   0.218 -0.4026 -0.2740  0.8804
  375SOL     OW 1497   1.070   2.071   2.258 -0.4674  0.2331  0.2245
  375SOL    HW1 1498   1.123   2.091   2.340 -1.2322 -0.7502 -0.7490
  375SOL    HW2 1499   1.068   1.975   2.249 -2.2256  0.8539  1.0891
  375SOL     MW 1500   1.077   2.061   2.267 -0.8003  0.1852  0.2101
  376SOL     OW 1501   0.617   2.560   0.086 -0.2865  0.2630 -0.3855
  376SOL    HW1 1502   0.575   2.508   0.169  0.3042 -0.2873  2.9391
  376SOL    HW2 1503   0.615   2.501   0.014  0.1481  0.1914 -1.6879
  376SOL     MW 1504   0.612   2.545   0.087 -0.1512  0.1810 -0.1187
  377SOL     OW 1505   1.322   2.005   0.823 -0.1588  0.0469 -0.3024
  377SOL    HW1 1506   1.227   1.992   0.801 -0.0925 -0.9610 -0.8985
  377SOL    HW2 1507   1.338   1.969   0.909 -2.1131  0.0576  1.2734
  377SOL     MW 1508   1.312   1.999   0.832 -0.4079 -0.0847 -0.1731
  378SOL     OW 1509   1.042   2.810   1.641 -0.0210 -0.0825 -0.0665
  378SOL    HW1 1510   0.992   2.725   1.642 -3.3810  0.4309  0.2152
  378SOL    HW2 1511   0.988   2.864   1.584 -1.5647  1.2454  1.6865
  378SOL     MW 1512   1.029   2.806   1.633 -0.6680  0.1604  0.2020
  379SOL     OW 1513   1.140   1.781   2.269  0.1488 -0.0038 -0.2470
  379SOL    HW1 1514   1.082   1.715   2.232 -0.0554  0.1675  0.6969
  379SOL    HW2 1515   1.227   1.752   2.242  1.6731  0.0337 -0.5037
  379SOL     MW 1516   1.144   1.769   2.260  0.3230  0.0237 -0.1563
  380SOL     OW 1517   0.803   0.064   1.566 -0.1990 -0.0853 -0.0807
  380SOL    HW1 1518   0.822   0.087   1.475 -1.5152 -0.7584  1.9199
  380SOL    HW2 1519   0.886   0.080   1.610  0.6110  0.7190  0.6933
  380SOL     MW 1520   0.817   0.069   1.560 -0.2658 -0.0680  0.2854
  381SOL     OW 1521   0.824   2.008   0.788  0.2745  0.6509 -0.1527
  381SOL    HW1 1522   0.922   1.996   0.778 -0.0019  0.5551 -0.4375
  381SOL    HW2 1523   0.813   2.083   0.845  0.8987  2.3211 -1.7448
  381SOL     MW 1524   0.835   2.016   0.794  0.3204  0.8586 -0.4003
  382SOL     OW 1525   0.617   0.118   0.690 -0.3572 -0.3611 -0.4245
  382SOL    HW1 1526   0.620   0.133   0.788  1.1408 -0.1190  3.0856
  382SOL    HW2 1527   0.583   0.027   0.676  1.9105  0.8782  0.1614
  382SOL     MW 1528   0.613   0.108   0.701  0.1396 -0.1656  0.1159
  383SOL     OW 1529   0.567   3.069   0.342 -0.1763 -0.5105  0.3571
  383SOL    HW1 1530   0.584   3.001   0.278 -0.7012  0.7369  0.7500
  383SOL    HW2 1531   0.522   3.015   0.401  0.4828 -0.3920 -0.9763
  383SOL     MW 1532   0.564   3.053   0.341 -0.1586 -0.3302  0.2330
  384SOL     OW 1533   0.611   2.933   0.642 -0.5889  0.3248  0.1888
  384SOL    HW1 1534   0.695   2.931   0.681 -1.7145  0.9164 -2.6802
  384SOL    HW2 1535   0.569   2.853   0.669 -0.3642  0.1877 -2.6733
  384SOL     MW 1536   0.617   2.922   0.651 -0.7078  0.3848 -0.5674
  385SOL     OW 1537   1.319   2.060   1.505  0.1261  0.1818 -0.4015
  385SOL    HW1 1538   1.393   2.085   1.560 -0.2786  2.1661  1.0584
  385SOL    HW2 1539   1.274   1.987   1.551  2.5962  2.3433  2.3363
  385SOL     MW 1540   1.323   2.054   1.518  0.3986  0.7288  0.1523
  386SOL     OW 1541   1.313   0.367   0.814 -0.1152  0.0477 -0.0683
  386SOL    HW1 1542   1.227   0.408   0.824 -1.8765  2.5720  4.0847
  386SOL    HW2 1543   1.326   0.320   0.894  0.3955  0.0158 -1.6411
  386SOL     MW 1544   1.303   0.367   0.826 -0.2802  0.3765  0.2721
  387SOL     OW 1545   0.890   2.148   1.472 -0.0246  0.1112  0.0765
  387SOL    HW1 1546   0.914   2.192   1.392 -2.6460  0.0783 -0.1447
  387SOL    HW2 1547   0.876   2.055   1.448  1.7200  1.3666  0.8687
  387SOL     MW 1548   0.891   2.141   1.459 -0.1403  0.2725  0.1519
  388SOL     OW 1549   1.573   2.814   1.192  0.0552  0.2964  0.0654
  388SOL    HW1 1550   1.485   2.794   1.163  1.7356 -0.2306 -1.3746
  388SOL    HW2 1551   1.626   2.748   1.152 -0.3721 -0.7204  1.0445
  388SOL     MW 1552   1.569   2.803   1.183  0.2206  0.0927  0.0046
  389SOL     OW 1553   0.431   0.041   3.034  0.7662  0.2248 -0.2075
  389SOL    HW1 1554   0.525   0.041   3.005  2.0884  0.2911 -1.4824
  389SOL    HW2 1555   0.380   0.086   2.967  2.5925  0.4499  0.6647
  389SOL     MW 1556   0.436   0.047   3.021  1.1816  0.2632 -0.2607
  390SOL     OW 1557   1.306   0.099   0.649 -0.4165  0.0157 -0.0383
  390SOL    HW1 1558   1.390   0.133   0.617 -2.5818 -1.9174 -0.8411
  390SOL    HW2 1559   1.311   0.123   0.743  1.8371  0.3191  0.0236
  390SOL     MW 1560   1.318   0.107   0.657 -0.4048 -0.1993 -0.1361
  391SOL     OW 1561   0.304   2.223   1.369  0.1471 -0.1488  0.1732
  391SOL    HW1 1562   0.262   2.141   1.415 -0.0277 -3.1900  1.6897
  391SOL    HW2 1563   0.232   2.290   1.381 -1.8633 -0.5064 -0.5068
  391SOL     MW 1564   0.289   2.221   1.376 -0.1412 -0.5972  0.2836
  392SOL     OW 1565   2.034   2.185   0.379 -0.0313  0.4989  0.1673
  392SOL    HW1 1566   2.122   2.205   0.409 -0.4594 -3.8295  0.3470
  392SOL    HW2 1567   1.976   2.257   0.408  1.8746  0.9433 -2.7247
  392SOL     MW 1568   2.038   2.197   0.387  0.1637 -0.0135 -0.1906
  393SOL     OW 1569   0.153   3.046   2.750 -0.0762  0.9737 -0.3585
  393SOL    HW1 1570   0.224   3.014   2.694 -1.8564 -0.1713  2.2919
  393SOL    HW2 1571   0.144   3.142   2.746  0.5722  0.5531  0.2052
  393SOL     MW 1572   0.161   3.054   2.742 -0.2255  0.7672  0.0655
  394SOL     OW 1573   0.917   1.764   1.517  0.2605 -0.3774  0.0418
  394SOL    HW1 1574   0.850   1.777   1.589 -1.9036  0.1949  0.0568
  394SOL    HW2 1575   0.889   1.828   1.453  1.1575 -1.1100  1.0947
  394SOL     MW 1576   0.904   1.774   1.518  0.0933 -0.3985  0.1827
  395SOL     OW 1577   1.046   2.798   2.585  0.2989  0.0034 -0.3559
  395SOL    HW1 1578   1.095   2.856   2.645 -3.7757 -1.4538  0.6261
  395SOL    HW2 1579   1.113   2.739   2.556 -1.2518  0.1757  1.9210
  395SOL     MW 1580   1.062   2.798   2.589 -0.4433 -0.1662  0.0741
  396SOL     OW 1581   0.805   1.875   2.407 -1.1512  0.0968 -0.2918
  396SOL    HW1 1582   0.881   1.889   2.467  0.1817 -1.5651  0.0510
  396SOL    HW2 1583   0.810   1.783   2.383  1.6774 -2.0356  0.9140
  396SOL     MW 1584   0.816   1.865   2.412 -0.6021 -0.4039 -0.0875
  397SOL     OW 1585   1.020   2.333   1.256 -0.4603 -0.1714 -0.2567
  397SOL    HW1 1586   1.078   2.378   1.185 -0.4169 -0.3419 -0.3369
  397SOL    HW2 1587   1.078   2.312   1.333 -0.7315 -1.7533 -0.3568
  397SOL     MW 1588   1.035   2.336   1.257 -0.4903 -0.4026 -0.2805
  398SOL     OW 1589   0.543   2.702   0.731 -0.1790 -0.0317 -0.5330
  398SOL    HW1 1590   0.465   2.643   0.724 -2.6794 -2.2206 -0.3395
  398SOL    HW2 1591   0.624   2.653   0.704  0.9551  0.8702 -0.4662
  398SOL     MW 1592   0.543   2.688   0.726 -0.3592 -0.2015 -0.4986
  399SOL     OW 1593   0.237   2.090   0.398  0.0917 -0.2005  0.0626
  399SOL    HW1 1594   0.162   2.145   0.383  1.6896 -1.1586 -2.9876
  399SOL    HW2 1595   0.305   2.120   0.332  1.0181  2.8563 -2.4427
  399SOL     MW 1596   0.236   2.102   0.388  0.4247  0.0764 -0.6704
  400SOL     OW 1597   0.528   1.889   0.158  0.4065  0.3329 -0.0087
  400SOL    HW1 1598   0.513   1.970   0.207 -5.4135  0.4691  1.5682
  400SOL    HW2 1599   0.496   1.830   0.230 -0.9163  0.3266  1.7024
  400SOL     MW 1600   0.522   1.892   0.174 -0.5359  0.3501  0.4251
  401SOL     OW 1601   0.823   2.038   0.122 -0.9240 -0.2192 -0.4411
  401SOL    HW1 1602   0.868   1.961   0.101  0.3681 -1.2519  3.2950
  401SOL    HW2 1603   0.740   2.005   0.168 -4.2193 -1.4906 -2.4036
  401SOL     MW 1604   0.818   2.024   0.125 -1.1883 -0.5232 -0.2071
  402SOL     OW 1605   0.628   3.000   1.730 -0.5699  0.6830  0.2237
  402SOL    HW1 1606   0.675   3.012   1.816  0.6231  0.2947  0.2134
  402SOL    HW2 1607   0.680   3.051   1.661  0.2995  0.3297  0.5609
  402SOL     MW 1608   0.641   3.008   1.732 -0.2978  0.5852  0.2668
  403SOL     OW 1609   0.087   0.423   0.376  0.2619 -0.2306 -0.3639
  403SOL    HW1 1610   0.161   0.431   0.431 -0.8312  1.0617 -1.6618
  403SOL    HW2 1611   0.128   0.382   0.295 -0.3948  1.3571 -2.0553
  403SOL     MW 1612   0.102   0.419   0.372  0.0310  0.1494 -0.7583
  404SOL     OW 1613   0.861   2.845   0.733  0.2874  0.0225 -0.3352
  404SOL    HW1 1614   0.914   2.797   0.669  1.0386 -0.1058 -2.2521
  404SOL    HW2 1615   0.909   2.926   0.755 -0.3185 -0.4278  0.7079
  404SOL     MW 1616   0.875   2.850   0.727  0.3065 -0.0538 -0.4505
  405SOL     OW 1617   0.494   2.387   1.494  0.1639  0.0705 -0.4892
  405SOL    HW1 1618   0.460   2.475   1.467 -1.0139 -0.4485  1.3471
  405SOL    HW2 1619   0.433   2.329   1.445  3.5660  1.0262 -0.1824
  405SOL     MW 1620   0.481   2.391   1.484  0.4573  0.1281 -0.2064
  406SOL     OW 1621   0.371   2.412   1.083  0.6331 -0.5085 -0.1516
  406SOL    HW1 1622   0.274   2.430   1.092  0.9582  0.1661  0.0925
  406SOL    HW2 1623   0.377   2.320   1.070  0.6800  0.2779 -1.8663
  406SOL     MW 1624   0.359   2.403   1.083  0.6821 -0.3157 -0.3456
  407SOL     OW 1625   3.062   2.709   1.155 -0.6234  0.1624 -0.4644
  407SOL    HW1 1626   3.123   2.692   1.232 -0.7094 -1.6833  0.4617
  407SOL    HW2 1627   3.115   2.709   1.071 -3.0060 -0.5620 -0.7022
  407SOL     MW 1628   3.077   2.707   1.154 -0.9491 -0.1767 -0.3736
  408SOL     OW 1629   2.116   2.061   0.794  0.1979  0.5233 -0.1619
  408SOL    HW1 1630   2.071   2.127   0.846 -1.5112 -1.1486  0.9313
  408SOL    HW2 1631   2.076   2.064   0.711 -1.2371 -2.1688  2.5161
  408SOL     MW 1632   2.105   2.070   0.790 -0.2170 -0.0525  0.3356
  409SOL     OW 1633   1.406   0.104   0.914  0.2539  0.2870 -0.4755
  409SOL    HW1 1634   1.478   0.161   0.888  0.0486 -0.4462  1.1563
  409SOL    HW2 1635   1.446   0.034   0.965 -1.8816  0.8172 -1.3457
  409SOL     MW 1636   1.421   0.102   0.917 -0.0550  0.2602 -0.3750
  410SOL     OW 1637   1.138   2.465   1.033 -0.3306 -0.0217 -0.1604
  410SOL    HW1 1638   1.083   2.510   0.974 -0.0693 -0.8152 -1.1213
  410SOL    HW2 1639   1.161   2.390   0.976 -2.1656 -1.0762 -1.2833
  410SOL     MW 1640   1.134   2.461   1.018 -0.5382 -0.2655 -0.4354
  411SOL     OW 1641   1.961   0.020   2.847  0.4539  0.3014  0.3384
  411SOL    HW1 1642   1.890  -0.012   2.786  0.5897  1.3682  0.2868
  411SOL    HW2 1643   1.917   0.057   2.925  0.1778 -1.9586  0.5103
  411SOL     MW 1644   1.946   0.021   2.850  0.4354  0.1440  0.3543
  412SOL     OW 1645   0.974   2.266   0.637  0.4972  0.1764  0.4625
  412SOL    HW1 1646   1.044   2.333   0.640 -2.5181  3.0427 -2.6303
  412SOL    HW2 1647   0.888   2.313   0.603  0.0230  1.2977  1.0150
  412SOL     MW 1648   0.972   2.281   0.633  0.0368  0.7025  0.1274
  413SOL     OW 1649   0.512   2.787   3.058 -0.0021  0.4129  0.1110
  413SOL    HW1 1650   0.546   2.696   3.094  1.0807 -1.1974 -1.6168
  413SOL    HW2 1651   0.574   2.832   3.005 -2.2517 -1.6042 -0.5406
  413SOL     MW 1652   0.525   2.781   3.056 -0.1560 -0.0657 -0.2030
  414SOL     OW 1653   1.920   2.937   1.084 -0.4883 -0.5620  0.0030
  414SOL    HW1 1654   1.875   2.949   1.002  1.6292  1.2268  2.1848
  414SOL    HW2 1655   1.991   2.868   1.072  1.9251 -1.0533 -0.6088
  414SOL     MW 1656   1.923   2.930   1.072  0.1095 -0.3908  0.2101
  415SOL     OW 1657   1.711   2.597   1.137  0.3722  0.9997 -0.8310
  415SOL    HW1 1658   1.668   2.515   1.170 -4.0700  0.2988 -0.1016
  415SOL    HW2 1659   1.772   2.628   1.202 -0.0073  1.8759 -0.4310
  415SOL     MW 1660   1.714   2.590   1.150 -0.2640  1.0228 -0.6820
  416SOL     OW 1661   0.534   1.944   1.366 -0.9084 -0.0954 -0.0533
  416SOL    HW1 1662   0.517   2.018   1.306 -0.6239  1.8274 -0.3895
  416SOL    HW2 1663   0.477   1.874   1.343  2.9141  0.0285  2.6199
  416SOL     MW 1664   0.524   1.945   1.355 -0.3665  0.1746  0.2550
  417SOL     OW 1665   1.006   3.047   2.042  0.4846  0.7222  0.2799
  417SOL    HW1 1666   0.957   3.060   2.128  2.7904 -1.1208 -3.2780
  417SOL    HW2 1667   0.939   2.999   1.981 -0.6761  2.1762 -1.4847
  417SOL     MW 1668   0.991   3.042   2.045  0.6357  0.6709 -0.4223
  418SOL     OW 1669   0.673   2.902   0.150  0.6297 -0.6603  0.0470
  418SOL    HW1 1670   0.748   2.931   0.096  0.9714 -0.8061  1.0034
  418SOL    HW2 1671   0.610   2.852   0.091 -1.0209 -0.7062  2.2196
  418SOL     MW 1672   0.675   2.899   0.135  0.4570 -0.6856  0.4599
  419SOL     OW 1673   0.454   2.636   1.399  0.2279  0.0113 -0.1889
  419SOL    HW1 1674   0.497   2.704   1.451 -0.2780  0.9926  1.6032
  419SOL    HW2 1675   0.496   2.612   1.319 -2.6548 -2.2846  2.0523
  419SOL     MW 1676   0.465   2.642   1.396 -0.2192 -0.1621  0.3433
  420SOL     OW 1677   0.876   2.202   0.994 -0.1615 -0.1075 -0.3598
  420SOL    HW1 1678   0.800   2.218   1.055 -1.6222  1.2480 -0.0119
  420SOL    HW2 1679   0.879   2.280   0.933  0.1652  1.8348  2.0690
  420SOL     MW 1680   0.866   2.215   0.994 -0.3111  0.3276  0.0065
  421SOL     OW 1681   2.944   0.045   0.011 -0.0394 -0.4828  0.2878
  421SOL    HW1 1682   2.896   0.011  -0.063 -1.1675  0.7309  0.2579
  421SOL    HW2 1683   2.966  -0.037   0.047  0.7511 -0.4866 -0.1572
  421SOL     MW 1684   2.941   0.030   0.006 -0.0839 -0.3232  0.2252
  422SOL     OW 1685   0.906   2.503   0.893  0.1345  0.7424 -0.0452
  422SOL    HW1 1686   0.873   2.579   0.939 -0.9530  1.2142  0.4452
  422SOL    HW2 1687   0.852   2.484   0.818 -1.2994 -2.7834 -1.6906
  422SOL     MW 1688   0.894   2.511   0.889 -0.1982  0.3395 -0.1976
  423SOL     OW 1689   1.532   0.140   0.505  0.3460  0.2645  0.3477
  423SOL    HW1 1690   1.527   0.075   0.433  1.0536 -2.7120  0.6126
  423SOL    HW2 1691   1.483   0.221   0.473 -2.5762  1.4461 -1.5635
  423SOL     MW 1692   1.525   0.142   0.492  0.0538  0.0277  0.1305
  424SOL     OW 1693   0.686   2.263   1.166  0.2850 -0.0458 -0.3076
  424SOL    HW1 1694   0.602   2.219   1.164  3.0327  0.5261 -0.5074
  424SOL    HW2 1695   0.693   2.301   1.256  0.2979  2.2417  0.4756
  424SOL     MW 1696   0.676   2.263   1.177  0.6492  0.3314 -0.2307
  425SOL     OW 1697   1.725   2.842   1.969 -0.0370 -0.2547 -0.0505
  425SOL    HW1 1698   1.735   2.874   1.878 -0.2565 -0.7927 -0.0530
  425SOL    HW2 1699   1.753   2.754   1.984 -1.9944 -0.2797  0.3139
  425SOL     MW 1700   1.730   2.835   1.959 -0.3242 -0.3289 -0.0027
  426SOL     OW 1701   0.840   1.700   1.945 -0.0244 -0.3802  0.1694
  426SOL    HW1 1702   0.777   1.706   1.869 -0.5022  1.2386  0.8711
  426SOL    HW2 1703   0.830   1.771   2.004 -1.0581  0.1355  0.0010
  426SOL     MW 1704   0.831   1.710   1.943 -0.2239 -0.0986  0.2398
  427SOL     OW 1705   0.363   1.606   1.886  0.3372  0.4731  0.2517
  427SOL    HW1 1706   0.426   1.560   1.938 -1.3131 -0.0204 -1.7261
  427SOL    HW2 1707   0.281   1.556   1.901 -0.5360  1.1085 -2.5769
  427SOL     MW 1708   0.361   1.593   1.895  0.0042  0.4918 -0.3825
  428SOL     OW 1709   0.578   2.555   1.191 -0.1020 -0.5885  0.3363
  428SOL    HW1 1710   0.656   2.508   1.220  0.5774 -0.1562 -1.6915
  428SOL    HW2 1711   0.521   2.482   1.154  4.2829 -3.4439  1.7520
  428SOL     MW 1712   0.581   2.539   1.190  0.5662 -0.9082  0.2555
  429SOL     OW 1713   1.329   2.703   1.092  0.0540  0.7424  0.6457
  429SOL    HW1 1714   1.276   2.627   1.083  1.7801 -0.3366  0.5812
  429SOL    HW2 1715   1.284   2.783   1.065 -0.3648 -0.1990 -0.5731
  429SOL     MW 1716   1.316   2.704   1.087  0.2265  0.4758  0.4764
  430SOL     OW 1717   1.174   2.710   0.709 -0.3483 -0.2506  0.0886
  430SOL    HW1 1718   1.192   2.616   0.718 -0.3232 -0.4414  1.1847
  430SOL    HW2 1719   1.127   2.720   0.625  1.0822 -1.6638  1.4079
  430SOL     MW 1720   1.170   2.699   0.699 -0.1563 -0.4623  0.4073
  431SOL     OW 1721   0.290   1.902   1.090  0.2373  0.5671 -0.5257
  431SOL    HW1 1722   0.363   1.844   1.066 -0.4172  1.7736 -1.4198
  431SOL    HW2 1723   0.256   1.948   1.006  0.1053  1.8527 -0.4404
  431SOL     MW 1724   0.295   1.901   1.076  0.1335  0.8959 -0.6324
  432SOL     OW 1725   0.060   3.098   1.094 -0.0735 -0.6648  0.4787
  432SOL    HW1 1726   0.066   3.146   1.178  2.7288  0.6790 -0.2370
  432SOL    HW2 1727  -0.007   3.031   1.120 -1.7209  0.0696  0.7208
  432SOL     MW 1728   0.052   3.095   1.109  0.0789 -0.3906  0.4162
  433SOL     OW 1729   0.634   2.831   1.490  0.0196  0.2824  0.5348
  433SOL    HW1 1730   0.653   2.850   1.585 -1.3305 -0.6737  3.8382
  433SOL    HW2 1731   0.720   2.852   1.449 -0.3300 -0.3008  1.1564
  433SOL     MW 1732   0.648   2.837   1.497 -0.2047  0.0793  1.0527
  434SOL     OW 1733   1.581   2.816   1.491  0.5258 -0.0359  0.4155
  434SOL    HW1 1734   1.497   2.864   1.515 -0.6297 -1.8427 -0.0464
  434SOL    HW2 1735   1.595   2.818   1.395 -0.9031 -1.1455 -3.1707
  434SOL     MW 1736   1.572   2.822   1.481  0.1848 -0.4207 -0.1186
  435SOL     OW 1737   2.795   1.818   0.218 -0.1082 -0.2105  0.0579
  435SOL    HW1 1738   2.824   1.908   0.197 -1.5403  3.7138  0.0740
  435SOL    HW2 1739   2.782   1.785   0.132 -1.3293  0.4858  0.7375
  435SOL     MW 1740   2.797   1.825   0.203 -0.4583  0.3991  0.1497
  436SOL     OW 1741   1.307   2.811   0.335  0.1405 -0.1728  0.1230
  436SOL    HW1 1742   1.382   2.792   0.390 -0.3333 -0.9838  2.1514
  436SOL    HW2 1743   1.271   2.891   0.380  1.1768 -3.0903 -0.2293
  436SOL     MW 1744   1.312   2.819   0.349  0.2147 -0.6647  0.3441
  437SOL     OW 1745   0.885   2.871   1.413  0.0919 -0.2048  0.1792
  437SOL    HW1 1746   0.892   2.953   1.362  2.2138 -0.6290 -0.1777
  437SOL    HW2 1747   0.928   2.806   1.358  0.7427 -0.0637  0.4580
  437SOL     MW 1748   0.892   2.873   1.399  0.4578 -0.2421  0.1689
  438SOL     OW 1749   0.864   2.650   1.907 -0.3036  0.4214 -0.5144
  438SOL    HW1 1750   0.815   2.650   1.986  3.0836  0.0046 -2.9512
  438SOL    HW2 1751   0.794   2.619   1.850  1.2836  0.0905 -1.0413
  438SOL     MW 1752   0.848   2.646   1.910  0.3528  0.3228 -0.9054
  439SOL     OW 1753   1.112   2.146   0.406  1.1463 -0.0652  0.2845
  439SOL    HW1 1754   1.036   2.181   0.460 -0.8204  0.1735  1.9725
  439SOL    HW2 1755   1.151   2.220   0.360  0.4302 -1.3461  2.2393
  439SOL     MW 1756   1.107   2.161   0.407  0.7923 -0.2027  0.7651
  440SOL     OW 1757   1.697   2.996   3.090  0.3348 -0.1694  0.6961
  440SOL    HW1 1758   1.634   2.977   3.150  0.9034  0.7809 -0.3169
  440SOL    HW2 1759   1.773   2.931   3.109  1.2455 -1.7612  1.7964
  440SOL     MW 1760   1.699   2.985   3.100  0.5300 -0.2541  0.7076
  441SOL     OW 1761   0.351   2.655   0.491 -0.5178  0.5096  0.2739
  441SOL    HW1 1762   0.306   2.640   0.411  2.5582 -1.9005 -2.9058
  441SOL    HW2 1763   0.370   2.755   0.492 -0.5584  1.5406 -0.3178
  441SOL     MW 1764   0.348   2.666   0.481 -0.1173  0.3276 -0.2237
  442SOL     OW 1765   3.063   2.361   0.633 -0.4573  0.1373 -0.4070
  442SOL    HW1 1766   3.093   2.462   0.617  1.4002  1.7137  0.2179
  442SOL    HW2 1767   2.970   2.369   0.660  1.2423  0.1183 -1.3024
  442SOL     MW 1768   3.054   2.376   0.634  0.0120  0.3428 -0.4427
  443SOL     OW 1769   1.417   1.798   1.928 -0.0526  0.0363 -0.5850
  443SOL    HW1 1770   1.399   1.838   1.842 -0.6900  0.5051 -2.3186
  443SOL    HW2 1771   1.361   1.719   1.918  0.2341  3.3781 -1.4289
  443SOL     MW 1772   1.407   1.793   1.915 -0.0989  0.5391 -0.9251
  444SOL     OW 1773   0.893   2.564   1.593 -0.0515 -0.1549  0.4036
  444SOL    HW1 1774   0.952   2.510   1.644 -1.7426 -1.7557 -0.1984
  444SOL    HW2 1775   0.813   2.564   1.639 -0.4049 -0.0818 -0.5071
  444SOL     MW 1776   0.890   2.557   1.606 -0.3212 -0.3565  0.2040
  445SOL     OW 1777   0.903   0.013   1.287 -0.1934  0.1065  0.5616
  445SOL    HW1 1778   0.883   0.095   1.245 -1.4291  0.9748  2.2699
  445SOL    HW2 1779   0.997   0.014   1.259  2.1084  2.4881 -1.3885
  445SOL     MW 1780   0.913   0.024   1.278 -0.0527  0.5353  0.5297
  446SOL     OW 1781   2.694   2.848   1.077  0.7236  0.1260 -0.4065
  446SOL    HW1 1782   2.672   2.894   0.994 -1.3818 -1.6075  1.0582
  446SOL    HW2 1783   2.746   2.770   1.050  0.3536  0.3657 -0.8934
  446SOL     MW 1784   2.698   2.844   1.063  0.3970 -0.0711 -0.2775
  447SOL     OW 1785   0.008   2.050   1.692  0.3834  0.2726  0.2417
  447SOL    HW1 1786   0.055   2.014   1.765  2.0060 -2.1523 -0.3774
  447SOL    HW2 1787  -0.051   1.984   1.649 -1.1682 -0.0987  1.1354
  447SOL     MW 1788   0.006   2.037   1.696  0.3927 -0.0963  0.2780
  448SOL     OW 1789   1.731   2.386   1.686 -0.1492 -0.3829 -0.3320
  448SOL    HW1 1790   1.665   2.323   1.686 -0.4248 -0.2597 -0.3370
  448SOL    HW2 1791   1.688   2.471   1.673 -1.3260  1.0948  1.5702
  448SOL     MW 1792   1.717   2.389   1.684 -0.3408 -0.1717 -0.0817
  449SOL     OW 1793   0.760   2.840   0.397  0.2926 -0.1740 -0.2383
  449SOL    HW1 1794   0.729   2.858   0.308 -1.9013 -1.3236  0.6630
  449SOL    HW2 1795   0.691   2.880   0.449  0.2255  0.7614 -1.3704
  449SOL     MW 1796   0.747   2.848   0.392 -0.0057 -0.2023 -0.2688
  450SOL     OW 1797   1.196   2.426   0.665 -0.3639  0.0308  0.0073
  450SOL    HW1 1798   1.214   2.359   0.731 -0.2587 -0.1553 -2.1456
  450SOL    HW2 1799   1.269   2.438   0.607  0.5841 -2.1296 -1.4677
  450SOL     MW 1800   1.208   2.419   0.666 -0.2249 -0.2788 -0.4714
  451SOL     OW 1801   0.534   1.999   1.635 -0.4907  0.3204 -0.3954
  451SOL    HW1 1802   0.590   2.071   1.668 -1.5109 -2.2747 -0.4369
  451SOL    HW2 1803   0.543   1.992   1.537  0.2240 -2.6526 -1.2478
  451SOL     MW 1804   0.543   2.008   1.626 -0.5310 -0.4142 -0.5133
  452SOL     OW 1805   0.264   2.725   0.016 -0.2004 -0.1299 -0.0829
  452SOL    HW1 1806   0.349   2.743  -0.024 -0.4084 -1.6777 -0.4169
  452SOL    HW2 1807   0.192   2.778  -0.033 -0.2333  0.8954 -1.1356
  452SOL     MW 1808   0.266   2.734   0.004 -0.2322 -0.1988 -0.2658
  453SOL     OW 1809   0.357   2.935   1.687 -0.0793 -0.8940  0.4838
  453SOL    HW1 1810   0.441   2.957   1.724 -0.3534  0.4465 -0.5693
  453SOL    HW2 1811   0.339   2.987   1.604  1.3949 -0.7763 -0.8600
  453SOL     MW 1812   0.366   2.945   1.681  0.0790 -0.7016  0.1676
  454SOL     OW 1813   0.973   2.745   1.169  0.4574  0.4435  0.0125
  454SOL    HW1 1814   0.909   2.679   1.201  1.2776  1.5885  1.3804
  454SOL    HW2 1815   0.921   2.813   1.122 -0.6255  1.4862 -0.6332
  454SOL     MW 1816   0.958   2.746   1.167  0.4228  0.7321  0.1078
  455SOL     OW 1817   1.566   2.915   0.213  0.5799  0.2104  0.0449
  455SOL    HW1 1818   1.612   2.885   0.294  2.0858 -1.7474  0.5402
  455SOL    HW2 1819   1.507   2.841   0.195  0.5057 -1.0649  0.7159
  455SOL     MW 1820   1.565   2.902   0.221  0.7688 -0.2162  0.1988
  456SOL     OW 1821   2.867   0.315   1.362 -0.6938  0.1326 -0.2241
  456SOL    HW1 1822   2.819   0.266   1.289  0.5055 -0.8070  1.7253
  456SOL    HW2 1823   2.953   0.348   1.341  0.3521 -0.3463 -0.0137
  456SOL     MW 1824   2.872   0.313   1.350 -0.3976 -0.0546  0.0608
  457SOL     OW 1825   0.975   1.522   2.929 -0.1330  0.1045 -0.5012
  457SOL    HW1 1826   0.896   1.523   2.980  1.4231  0.6016  2.8510
  457SOL    HW2 1827   1.032   1.469   2.993 -1.7391 -3.0611  0.8635
  457SOL     MW 1828   0.972   1.515   2.944 -0.1396 -0.2476  0.1212
  458SOL     OW 1829   1.457   1.382   0.550 -0.3256 -0.1451 -0.3054
  458SOL    HW1 1830   1.383   1.412   0.607  0.0989  0.0491  1.9117
  458SOL    HW2 1831   1.417   1.345   0.473 -1.0926 -0.3706 -0.0292
  458SOL     MW 1832   1.442   1.381   0.547 -0.3708 -0.1493  0.0236
  459SOL     OW 1833   1.485   0.087   0.218 -0.0412 -0.5728  0.1302
  459SOL    HW1 1834   1.467  -0.008   0.208  1.8827 -0.0385  0.5350
  459SOL    HW2 1835   1.409   0.128   0.177 -0.4784  0.8547 -0.5077
  459SOL     MW 1836   1.473   0.080   0.211  0.1550 -0.3140  0.0994
  460SOL     OW 1837   1.801   2.163   0.629  0.4291  0.7125 -0.9294
  460SOL    HW1 1838   1.716   2.145   0.675  0.6041 -0.6063 -0.3350
  460SOL    HW2 1839   1.846   2.077   0.619  0.3536  0.2890  2.0299
  460SOL     MW 1840   1.796   2.149   0.634  0.4422  0.4826 -0.4605
  461SOL     OW 1841   0.444   2.427   0.611 -0.4487 -0.6481 -0.3271
  461SOL    HW1 1842   0.421   2.508   0.562 -3.5219 -0.2234  1.8601
  461SOL    HW2 1843   0.416   2.444   0.703 -0.8284 -1.5766 -0.4118
  461SOL     MW 1844   0.437   2.440   0.616 -0.9043 -0.7145 -0.0497
  462SOL     OW 1845   0.388   0.266   1.282  0.5619  0.2757  0.4507
  462SOL    HW1 1846   0.427   0.203   1.226 -0.3546  1.1453  3.3793
  462SOL    HW2 1847   0.449   0.298   1.350  0.8030 -0.8109  4.5083
  462SOL     MW 1848   0.401   0.262   1.284  0.4728  0.2470  1.3725
  463SOL     OW 1849   0.883   0.015   0.686  0.2125  0.6764 -0.6197
  463SOL    HW1 1850   0.901   0.011   0.588  0.7689 -0.5182 -2.0428
  463SOL    HW2 1851   0.791   0.051   0.699 -0.2718 -2.5527  1.8415
  463SOL     MW 1852   0.873   0.019   0.674  0.2220  0.0927 -0.4827
  464SOL     OW 1853   0.833   3.048   2.266  0.3558  0.1218  0.1413
  464SOL    HW1 1854   0.825   2.954   2.283  0.2168  0.4252  0.7778
  464SOL    HW2 1855   0.860   3.091   2.344  1.9202  2.7832 -0.0772
  464SOL     MW 1856   0.835   3.042   2.279  0.5439  0.5130  0.1965
  465SOL     OW 1857   0.665   0.297   0.492  0.4087 -0.1326 -0.2543
  465SOL    HW1 1858   0.639   0.233   0.563  3.1431  0.9250  1.5385
  465SOL    HW2 1859   0.721   0.257   0.423 -0.6773 -2.6213  2.1571
  465SOL     MW 1860   0.669   0.283   0.492  0.6262 -0.3214  0.3004
  466SOL     OW 1861   1.081   2.001   0.701 -0.1296 -0.4675 -0.4574
  466SOL    HW1 1862   1.081   1.929   0.641 -2.2816 -1.9733 -0.4947
  466SOL    HW2 1863   1.073   2.084   0.654 -0.2999 -1.6351  1.7327
  466SOL     MW 1864   1.080   2.003   0.687 -0.4360 -0.8202 -0.1734
  467SOL     OW 1865   1.283   2.282   0.876  0.1547  0.7564  0.4390
  467SOL    HW1 1866   1.370   2.311   0.889 -1.5265 -0.3711  3.0455
  467SOL    HW2 1867   1.287   2.187   0.867  2.3034  1.1469 -0.3514
  467SOL     MW 1868   1.295   2.273   0.876  0.2164  0.6592  0.6786
  468SOL     OW 1869   0.368   2.597   1.960  0.0313  0.0094 -0.1502
  468SOL    HW1 1870   0.345   2.551   1.878  0.3042 -1.2898 -1.2830
  468SOL    HW2 1871   0.323   2.681   1.940  0.7772  0.9348  0.4015
  468SOL     MW 1872   0.359   2.602   1.947  0.1657 -0.0399 -0.2269
  469SOL     OW 1873   0.363   2.144   1.801  0.1456  0.1029  0.2127
  469SOL    HW1 1874   0.289   2.100   1.850 -2.9500 -0.7245  0.1881
  469SOL    HW2 1875   0.398   2.082   1.736 -0.1627 -0.4916  0.2903
  469SOL     MW 1876   0.358   2.130   1.799 -0.3035 -0.0847  0.2197
  470SOL     OW 1877   3.026   2.530   0.100 -0.1064 -0.0149  0.3234
  470SOL    HW1 1878   2.957   2.481   0.152 -1.8255 -1.5848 -1.0736
  470SOL    HW2 1879   2.989   2.579   0.026  2.1250 -0.4432 -1.0312
  470SOL     MW 1880   3.012   2.530   0.097 -0.0388 -0.2786 -0.0397
  471SOL     OW 1881   1.189   2.738   1.413 -0.7630  0.0265  0.1691
  471SOL    HW1 1882   1.130   2.763   1.487 -1.1892 -1.0120  0.9640
  471SOL    HW2 1883   1.147   2.764   1.332  1.3121  4.7157 -1.2226
  471SOL     MW 1884   1.176   2.745   1.412 -0.5455  0.5082  0.0904
  472SOL     OW 1885   2.942   2.080   0.401  0.0124  0.1854  0.4694
  472SOL    HW1 1886   2.948   2.069   0.301 -0.2807  1.7417  0.3409
  472SOL    HW2 1887   2.931   1.990   0.437  1.3161 -0.4030  2.9784
  472SOL     MW 1888   2.942   2.067   0.392  0.1458  0.3131  0.7835
  473SOL     OW 1889   0.831   2.516   1.306  0.0180 -0.2988 -0.5313
  473SOL    HW1 1890   0.907   2.457   1.292 -2.6241  1.0381  1.0894
  473SOL    HW2 1891   0.825   2.517   1.402 -2.6000  2.0476  1.5149
  473SOL     MW 1892   0.840   2.508   1.317 -0.6760  0.1872 -0.0475
  474SOL     OW 1893   0.764   2.199   1.736  0.0012 -0.9316  0.0337
  474SOL    HW1 1894   0.844   2.225   1.788  1.4698  0.3871  1.8382
  474SOL    HW2 1895   0.793   2.178   1.645  2.1723  0.6956  3.3256
  474SOL     MW 1896   0.778   2.200   1.731  0.4814 -0.5429  0.7061
  475SOL     OW 1897   1.616   0.019   1.441 -0.3015 -0.6714  0.0360
  475SOL    HW1 1898   1.534   0.052   1.407  1.9391 -0.3484 -0.0752
  475SOL    HW2 1899   1.612  -0.075   1.429  1.4832  1.3910  1.8673
  475SOL     MW 1900   1.605   0.011   1.435  0.2296 -0.3566  0.2630
  476SOL     OW 1901   1.487   2.599   0.882 -0.0697 -0.2314 -0.0023
  476SOL    HW1 1902   1.426   2.623   0.949  2.2748  2.2942 -1.2414
  476SOL    HW2 1903   1.501   2.681   0.830 -1.7098  2.0395 -1.6700
  476SOL     MW 1904   1.480   2.613   0.884  0.0232  0.4015 -0.3858
  477SOL     OW 1905   0.771   2.564   0.638 -0.1916 -0.4519 -0.2196
  477SOL    HW1 1906   0.845   2.604   0.585 -1.7267  1.4909  0.8156
  477SOL    HW2 1907   0.736   2.490   0.592 -2.0112 -0.3379  1.5519
  477SOL     MW 1908   0.776   2.560   0.625 -0.6342 -0.1805  0.1508
  478SOL     OW 1909   0.108   2.698   0.902 -0.9669  0.1708  0.4064
  478SOL    HW1 1910   0.154   2.778   0.907  0.3067 -2.0126 -4.6519
  478SOL    HW2 1911   0.188   2.640   0.879  2.5563 -1.4222 -1.9067
  478SOL     MW 1912   0.125   2.701   0.899 -0.3340 -0.3274 -0.5662
  479SOL     OW 1913   1.416   1.921   1.277 -0.2494  0.2095  0.4892
  479SOL    HW1 1914   1.369   1.962   1.349  0.1225  0.0449 -2.2664
  479SOL    HW2 1915   1.494   1.887   1.310 -1.6027  0.2560  0.0773
  479SOL     MW 1916   1.420   1.922   1.291 -0.3789  0.1939  0.0713
  480SOL     OW 1917   1.884   2.364   1.376  0.2988 -0.6145 -0.4889
  480SOL    HW1 1918   1.899   2.288   1.436 -0.3638  0.5211  2.7252
  480SOL    HW2 1919   1.960   2.361   1.319  3.1158 -1.6562 -0.4588
  480SOL     MW 1920   1.896   2.353   1.377  0.5831 -0.6021 -0.0609
  481SOL     OW 1921   1.215   0.022   1.149  0.2403 -0.4241  0.1291
  481SOL    HW1 1922   1.261  -0.024   1.079 -1.4167 -0.1660 -0.1622
  481SOL    HW2 1923   1.201   0.112   1.110  3.3517  0.6378 -1.5355
  481SOL     MW 1924   1.219   0.027   1.135  0.4322 -0.2499 -0.1290
  482SOL     OW 1925   0.937   3.061   0.413  0.0992 -0.1555 -0.2136
  482SOL    HW1 1926   0.863   2.998   0.405 -2.4212 -0.2836  2.0398
  482SOL    HW2 1927   0.908   3.144   0.374 -1.3080  0.0431 -0.0673
  482SOL     MW 1928   0.923   3.063   0.407 -0.4190 -0.1462  0.1030
  483SOL     OW 1929   0.355   2.934   0.494  0.5327 -0.0582 -0.5562
  483SOL    HW1 1930   0.264   2.930   0.466  2.9665 -0.6040  1.2966
  483SOL    HW2 1931   0.344   2.992   0.572 -0.5188  0.5050  0.3553
  483SOL     MW 1932   0.341   2.941   0.501  0.7151 -0.0559 -0.1915
  484SOL     OW 1933   1.660   1.837   1.371  0.1689 -0.3339  0.2799
  484SOL    HW1 1934   1.709   1.894   1.311  1.5012 -1.2818 -1.5437
  484SOL    HW2 1935   1.675   1.876   1.455 -1.8055 -1.6031  1.3222
  484SOL     MW 1936   1.668   1.850   1.374  0.0842 -0.6264  0.1769
  485SOL     OW 1937   0.535   2.397   0.281 -0.0340  0.5387  0.7317
  485SOL    HW1 1938   0.583   2.382   0.363  0.4187  1.2095 -3.9075
  485SOL    HW2 1939   0.471   2.464   0.303 -1.3401 -1.1057 -2.0456
  485SOL     MW 1940   0.533   2.404   0.295 -0.1466  0.4102 -0.2469
  486SOL     OW 1941   0.138   2.428   1.387  0.0703 -0.2755 -0.3490
  486SOL    HW1 1942   0.148   2.500   1.328  0.1171 -1.8121  0.1375
  486SOL    HW2 1943   0.150   2.456   1.481  1.6381  0.0752  0.7216
  486SOL     MW 1944   0.141   2.441   1.392  0.2833 -0.4320 -0.1436
  487SOL     OW 1945   1.277   1.584   1.081  0.2687 -0.2308 -0.3933
  487SOL    HW1 1946   1.238   1.671   1.058 -0.3975  2.2417 -1.2327
  487SOL    HW2 1947   1.364   1.590   1.040 -2.6414 -1.9116  0.8658
  487SOL     MW 1948   1.283   1.596   1.073 -0.2031 -0.1263 -0.3380
  488SOL     OW 1949   1.649   1.857   0.544  0.2525  0.1067 -0.2779
  488SOL    HW1 1950   1.729   1.892   0.505  1.3951  1.4113  0.1765
  488SOL    HW2 1951   1.584   1.929   0.544  1.3232  0.2380 -0.2842
  488SOL     MW 1952   1.651   1.871   0.539  0.5445  0.2961 -0.2188
  489SOL     OW 1953   0.708   0.782   0.584 -0.6023 -0.1333  0.5102
  489SOL    HW1 1954   0.768   0.723   0.536 -0.8514 -0.1453  3.3262
  489SOL    HW2 1955   0.710   0.767   0.680  1.5394  0.5353 -0.1003
  489SOL     MW 1956   0.716   0.772   0.590 -0.3526 -0.0467  0.8012
  490SOL     OW 1957   1.386   2.099   0.460 -0.2889 -0.0022 -0.5038
  490SOL    HW1 1958   1.410   2.161   0.396 -1.2463 -0.4212  1.1180
  490SOL    HW2 1959   1.290   2.086   0.442 -1.6879 -0.8789  0.1423
  490SOL     MW 1960   1.376   2.106   0.449 -0.5998 -0.1731 -0.2046
  491SOL     OW 1961   1.193   3.006   0.468  0.1550 -0.1124  0.1266
  491SOL    HW1 1962   1.232   3.090   0.503 -2.3096  1.1522 -1.6061
  491SOL    HW2 1963   1.094   3.010   0.462  1.0611 -3.0957 -0.0727
  491SOL     MW 1964   1.185   3.018   0.472 -0.0506 -0.3391 -0.1283
  492SOL     OW 1965   1.527   2.144   0.707 -0.4911 -1.0679 -0.0569
  492SOL    HW1 1966   1.491   2.126   0.621  2.2488 -0.5773 -2.5688
  492SOL    HW2 1967   1.465   2.092   0.757 -1.0497  1.8730  1.0244
  492SOL     MW 1968   1.514   2.135   0.702 -0.2033 -0.6151 -0.2456
  493SOL     OW 1969   0.114   2.908   0.369  0.1145  0.3516 -0.6378
  493SOL    HW1 1970   0.062   2.970   0.417  0.8519 -1.4086  0.9815
  493SOL    HW2 1971   0.137   2.945   0.285 -2.2622  0.1699  1.2054
  493SOL     MW 1972   0.110   2.921   0.364 -0.1018  0.0954 -0.1810
  494SOL     OW 1973   0.408   2.414   1.736 -0.3791  0.5058 -0.1149
  494SOL    HW1 1974   0.408   2.316   1.762  2.2067 -1.3483  0.6374
  494SOL    HW2 1975   0.447   2.412   1.647 -1.7358  2.3832 -2.1523
  494SOL     MW 1976   0.413   2.401   1.728 -0.2169  0.5089 -0.2845
  495SOL     OW 1977   2.887   1.686   2.715  0.4690  0.0116 -0.2218
  495SOL    HW1 1978   2.886   1.772   2.767  1.9257  0.2854  1.1008
  495SOL    HW2 1979   2.906   1.621   2.788  0.9989  0.2768  1.9141
  495SOL     MW 1980   2.889   1.689   2.731  0.7311  0.0827  0.2345
  496SOL     OW 1981   2.881   2.291   2.634  0.1542 -0.2081  0.3873
  496SOL    HW1 1982   2.897   2.207   2.677  0.6375 -1.2209 -0.2148
  496SOL    HW2 1983   2.944   2.361   2.658 -1.3080  1.8884 -3.9814
  496SOL     MW 1984   2.891   2.289   2.643  0.0250 -0.0651 -0.2685
  497SOL     OW 1985   1.543   2.274   2.581  0.3940  0.0501 -0.2328
  497SOL    HW1 1986   1.531   2.239   2.490  2.1558 -1.9666  0.4327
  497SOL    HW2 1987   1.507   2.210   2.636 -0.3883  2.2628 -1.5107
  497SOL     MW 1988   1.537   2.261   2.576  0.5232  0.0760 -0.3136
  498SOL     OW 1989   1.551   2.698   2.299  0.2768  0.2472  0.5402
  498SOL    HW1 1990   1.539   2.610   2.260 -3.5204 -2.2484 -1.0863
  498SOL    HW2 1991   1.624   2.694   2.362  1.0523  3.5397  4.0164
  498SOL     MW 1992   1.559   2.686   2.302 -0.1219  0.3523  0.7843
  499SOL     OW 1993   0.891   0.165   0.028  0.2865 -0.2171  0.0737
  499SOL    HW1 1994   0.823   0.154   0.098 -1.7025  1.5426  0.2700
  499SOL    HW2 1995   0.916   0.069   0.009 -0.9984  1.1215  0.2033
  499SOL     MW 1996   0.885   0.151   0.035 -0.1455  0.1917  0.1167
  500SOL     OW 1997   1.018   2.435   2.800 -0.0042  0.1799 -0.3377
  500SOL    HW1 1998   1.070   2.419   2.880  0.9912  1.7259 -0.4240
  500SOL    HW2 1999   1.014   2.533   2.812  3.2421  0.6995 -2.0437
  500SOL     MW 2000   1.024   2.446   2.812  0.5554  0.4524 -0.5741
  501SOL     OW 2001   1.754   2.272   3.075  0.2599  0.1996  0.4538
  501SOL    HW1 2002   1.731   2.354   3.122  0.5484 -0.6031 -1.1648
  501SOL    HW2 2003   1.838   2.258   3.120 -0.0228  3.6574 -1.3540
  501SOL     MW 2004   1.762   2.281   3.087  0.2607  0.5499  0.0017
  502SOL     OW 2005   0.083   2.883   2.975 -0.9640 -0.1674  0.8508
  502SOL    HW1 2006   0.043   2.799   2.943 -2.2668  1.2301  0.6218
  502SOL    HW2 2007   0.097   2.942   2.903 -0.6073  0.5937  3.6351
  502SOL     MW 2008   0.079   2.880   2.961 -1.0888  0.1174  1.1879
  503SOL     OW 2009   1.171   2.604   2.020  0.2402  0.1905 -0.5761
  503SOL    HW1 2010   1.262   2.600   1.978 -0.4643 -0.9453 -1.4862
  503SOL    HW2 2011   1.108   2.558   1.965  1.0673 -1.0389 -1.7279
  503SOL     MW 2012   1.175   2.597   2.007  0.2564 -0.1216 -0.8481
  504SOL     OW 2013   0.100   2.627   2.063  0.3755 -0.7025  0.0553
  504SOL    HW1 2014   0.182   2.582   2.066  0.8946 -1.6892  0.6850
  504SOL    HW2 2015   0.039   2.564   2.097 -2.4149  1.6221  0.0183
  504SOL     MW 2016   0.103   2.613   2.068  0.0758 -0.5259  0.1335
  505SOL     OW 2017   1.654   2.681   2.742  0.1132 -0.1577  0.0112
  505SOL    HW1 2018   1.676   2.680   2.649 -0.0625 -1.0804  0.6690
  505SOL    HW2 2019   1.598   2.759   2.756 -0.5679  0.1886 -0.4251
  505SOL     MW 2020   1.649   2.691   2.731  0.0001 -0.2337  0.0404
  506SOL     OW 2021   1.626   0.026   2.864 -0.0487 -0.2575  0.2151
  506SOL    HW1 2022   1.669  -0.014   2.942 -2.0247 -0.4056 -0.7770
  506SOL    HW2 2023   1.671  -0.025   2.789  0.2998 -1.0744 -1.8559
  506SOL     MW 2024   1.637   0.014   2.865 -0.2634 -0.3849 -0.1891
  507SOL     OW 2025   0.942   2.680   2.846  0.2497  0.1897 -0.2206
  507SOL    HW1 2026   0.980   2.708   2.763  0.1029 -0.2007  1.8408
  507SOL    HW2 2027   0.856   2.643   2.823  1.4132 -1.6190 -0.0810
  507SOL     MW 2028   0.935   2.679   2.832  0.3838 -0.1004  0.0698
  508SOL     OW 2029   1.239   2.109   2.522  0.1827  0.4027 -0.0367
  508SOL    HW1 2030   1.286   2.094   2.608 -0.8475 -1.2461  1.7809
  508SOL    HW2 2031   1.185   2.187   2.545 -1.3485 -4.2084 -1.7275
  508SOL     MW 2032   1.238   2.117   2.537 -0.1553 -0.4232 -0.0200
  509SOL     OW 2033   0.682   2.596   2.802 -0.1652  0.5702 -0.4035
  509SOL    HW1 2034   0.641   2.568   2.723  0.5300 -3.8430  0.6075
  509SOL    HW2 2035   0.676   2.691   2.809 -0.1355  2.1770  3.9557
  509SOL     MW 2036   0.676   2.605   2.792 -0.0695  0.1999  0.3051
  510SOL     OW 2037   1.585   2.595   1.645 -0.5308  0.1836  0.1082
  510SOL    HW1 2038   1.612   2.666   1.580  3.0732  1.8998 -1.0003
  510SOL    HW2 2039   1.538   2.643   1.718  1.0426 -1.7181 -2.4298
  510SOL     MW 2040   1.582   2.611   1.646  0.1523  0.1592 -0.3729
  511SOL     OW 2041   0.427   2.608   2.465 -0.1576  0.2273 -0.0407
  511SOL    HW1 2042   0.502   2.551   2.473  1.7997 -3.1477 -2.6741
  511SOL    HW2 2043   0.441   2.652   2.379  0.6202 -1.1527  1.1351
  511SOL     MW 2044   0.439   2.607   2.455  0.2032 -0.4001 -0.2330
  512SOL     OW 2045   0.980   2.031   2.839 -0.3094  0.1829 -0.4517
  512SOL    HW1 2046   0.902   2.080   2.872  2.6667  0.3527  1.2100
  512SOL    HW2 2047   0.976   1.957   2.897  0.5416  0.6062 -2.1261
  512SOL     MW 2048   0.969   2.028   2.851  0.1955  0.2611 -0.4534
  513SOL     OW 2049   1.628   2.444   2.204  0.0762 -0.0589 -0.2025
  513SOL    HW1 2050   1.709   2.490   2.187 -0.1205 -0.9468 -1.8168
  513SOL    HW2 2051   1.654   2.401   2.286 -0.0240 -0.8271  2.1094
  513SOL     MW 2052   1.642   2.444   2.213  0.0370 -0.2774 -0.1105
  514SOL     OW 2053   0.259   2.460   2.632 -0.2729  0.4312  0.0048
  514SOL    HW1 2054   0.315   2.514   2.582 -1.0605  0.6535  0.5033
  514SOL    HW2 2055   0.297   2.428   2.713 -1.8135  2.3458 -1.9264
  514SOL     MW 2056   0.272   2.463   2.636 -0.5801  0.7132 -0.1842
  515SOL     OW 2057   1.090   2.037   1.970  0.2742 -0.8280  0.4777
  515SOL    HW1 2058   1.081   2.120   1.925  1.9989 -0.6042 -0.2117
  515SOL    HW2 2059   1.172   2.035   2.012  1.2102 -2.5779 -1.0822
  515SOL     MW 2060   1.100   2.048   1.969  0.6252 -1.0294  0.1809
  516SOL     OW 2061   1.456   2.445   3.031  0.4519 -0.1564  1.1490
  516SOL    HW1 2062   1.487   2.455   2.942 -1.8433 -1.1115 -1.1141
  516SOL    HW2 2063   1.362   2.450   3.013 -0.8567 -0.6020  1.2536
  516SOL     MW 2064   1.447   2.447   3.017 -0.0236 -0.3412  0.8642
  517SOL     OW 2065   0.561   2.416   2.267  0.0571  0.1181 -0.4547
  517SOL    HW1 2066   0.476   2.459   2.283 -0.0931 -2.2093 -1.7997
  517SOL    HW2 2067   0.519   2.359   2.200 -2.5766 -1.3121  0.8826
  517SOL     MW 2068   0.544   2.414   2.261 -0.3102 -0.3777 -0.4557
  518SOL     OW 2069   1.864   0.105   0.028 -0.1803  0.7932 -0.0519
  518SOL    HW1 2070   1.818   0.152   0.100 -0.0402 -1.4880  1.8546
  518SOL    HW2 2071   1.799   0.036   0.009  0.4667  0.2963 -1.0071
  518SOL     MW 2072   1.849   0.102   0.035 -0.0765  0.4267  0.0736
  519SOL     OW 2073   0.675   2.501   1.771 -0.0440 -0.1830  0.3572
  519SOL    HW1 2074   0.689   2.413   1.729  1.6832 -1.9008  0.3293
  519SOL    HW2 2075   0.587   2.495   1.809 -0.7678 -1.1277  2.5446
  519SOL     MW 2076   0.665   2.489   1.771  0.0884 -0.5343  0.6421
  520SOL     OW 2077   1.190   2.186   2.952  0.0485 -0.7493  0.4466
  520SOL    HW1 2078   1.112   2.147   2.910 -0.1632  0.9185 -0.8164
  520SOL    HW2 2079   1.218   2.124   3.022 -3.8129 -1.0986  1.0783
  520SOL     MW 2080   1.183   2.172   2.955 -0.4889 -0.5754  0.3633
  521SOL     OW 2081   1.748   2.011   2.195 -0.0956 -0.4609 -0.4678
  521SOL    HW1 2082   1.793   2.019   2.115  1.2940 -3.8007  2.9837
  521SOL    HW2 2083   1.742   1.914   2.202 -0.5077 -1.5672 -2.3472
  521SOL     MW 2084   1.753   1.999   2.185  0.0334 -1.0475 -0.2603
  522SOL     OW 2085   2.929   2.516   2.267  0.5592  0.2480 -0.2858
  522SOL    HW1 2086   3.003   2.465   2.300  0.0113 -2.6728  1.0422
  522SOL    HW2 2087   2.942   2.608   2.259  0.0771 -2.1257 -0.4757
  522SOL     MW 2088   2.941   2.521   2.271  0.4233 -0.4506 -0.1357
  523SOL     OW 2089   0.901   1.491   2.119 -0.0510  0.5044 -0.2139
  523SOL    HW1 2090   0.895   1.557   2.051  2.6435 -1.7915  0.3119
  523SOL    HW2 2091   0.924   1.409   2.078 -0.2531  1.2812  1.1552
  523SOL     MW 2092   0.903   1.489   2.105  0.2778  0.3040  0.0361
  524SOL     OW 2093   0.591   2.386   2.964 -0.1844 -0.0271  0.7660
  524SOL    HW1 2094   0.633   2.453   2.909 -1.3422  0.5044  1.4712
  524SOL    HW2 2095   0.660   2.321   2.967  2.0833 -0.9349  0.0639
  524SOL     MW 2096   0.606   2.386   2.957 -0.0380 -0.0768  0.7664
  525SOL     OW 2097   0.444   2.231   2.080  0.1498  0.0582  0.1450
  525SOL    HW1 2098   0.400   2.165   2.139  0.0433  1.2577 -0.5270
  525SOL    HW2 2099   0.516   2.186   2.045 -3.4319  2.3260  0.2935
  525SOL     MW 2100   0.448   2.216   2.083 -0.3368  0.5157  0.0759
  526SOL     OW 2101   0.679   2.118   1.994  0.0677 -0.5270  0.0608
  526SOL    HW1 2102   0.713   2.124   1.895  3.1521  0.0666  1.3639
  526SOL    HW2 2103   0.746   2.161   2.045  0.2174  1.6230  1.5687
  526SOL     MW 2104   0.692   2.125   1.987  0.4944 -0.1650  0.4317
  527SOL     OW 2105   1.332   2.011   2.097  0.2026  0.6135  0.0851
  527SOL    HW1 2106   1.339   1.991   2.187  1.7358  0.2667  0.0683
  527SOL    HW2 2107   1.352   1.922   2.060  0.5684 -0.5740  2.6566
  527SOL     MW 2108   1.336   1.997   2.104  0.4531  0.4111  0.4221
  528SOL     OW 2109   0.690   2.936   2.910  0.9529 -0.5477  0.0047
  528SOL    HW1 2110   0.693   3.030   2.923  2.1443  2.0554 -1.9460
  528SOL    HW2 2111   0.648   2.934   2.819 -1.6442  0.5360 -0.9931
  528SOL     MW 2112   0.685   2.948   2.900  0.7674 -0.0613 -0.3843
  529SOL     OW 2113   1.027   2.290   1.852  0.6631  0.2446 -0.4756
  529SOL    HW1 2114   1.052   2.310   1.948 -3.3730 -1.7825  2.5657
  529SOL    HW2 2115   1.097   2.326   1.799 -0.6887 -1.6462  3.7071
  529SOL     MW 2116   1.040   2.298   1.857 -0.0478 -0.2724  0.4776
  530SOL     OW 2117   1.157   2.436   3.041  0.6596 -0.0171  0.2573
  530SOL    HW1 2118   1.109   2.490   3.106  3.2571 -0.0875  1.7219
  530SOL    HW2 2119   1.144   2.342   3.046 -0.6067 -1.7532  1.3886
  530SOL     MW 2120   1.149   2.431   3.051  0.8352 -0.2554  0.5998
  531SOL     OW 2121   0.995   1.896   2.612  0.1100 -0.1174  0.0758
  531SOL    HW1 2122   0.999   1.953   2.687  1.5627 -1.8330 -2.0850
  531SOL    HW2 2123   0.952   1.818   2.649 -1.3507  0.7863 -2.0699
  531SOL     MW 2124   0.990   1.893   2.627  0.1090 -0.2246 -0.4924
  532SOL     OW 2125   1.718   0.325   2.869 -0.0824  0.7277  0.5603
  532SOL    HW1 2126   1.677   0.259   2.923 -0.4626 -1.9401  3.0987
  532SOL    HW2 2127   1.823   0.318   2.897  2.6677 -1.0591  1.3789
  532SOL     MW 2128   1.726   0.315   2.880  0.2303  0.1399  1.0032
  533SOL     OW 2129   1.815   2.683   2.987  0.8665  0.0262  0.0751
  533SOL    HW1 2130   1.778   2.605   3.029  0.1684 -0.6105  0.4549
  533SOL    HW2 2131   1.758   2.687   2.903 -1.5080  2.9708 -2.1764
  533SOL     MW 2132   1.803   2.674   2.981  0.4611  0.3307 -0.1719
  534SOL     OW 2133   1.793   2.337   2.448  0.5922  0.2485  0.2084
  534SOL    HW1 2134   1.711   2.312   2.497 -1.7470 -2.5528  0.3674
  534SOL    HW2 2135   1.856   2.323   2.518 -1.6636 -1.6729 -2.0378
  534SOL     MW 2136   1.790   2.332   2.464 -0.0140 -0.3746 -0.0670
  535SOL     OW 2137   1.826   2.355   1.963 -0.0063  0.5362 -0.4370
  535SOL    HW1 2138   1.801   2.372   1.871 -0.3596  1.0545  0.9305
  535SOL    HW2 2139   1.921   2.356   1.976 -2.2951 -1.3288  0.6017
  535SOL     MW 2140   1.836   2.357   1.952 -0.3549  0.3585 -0.1195
  536SOL     OW 2141   0.446   1.850   2.017 -0.2685  0.5169  0.1190
  536SOL    HW1 2142   0.455   1.814   1.929  0.8263  2.2755 -0.3941
  536SOL    HW2 2143   0.505   1.923   2.027 -0.7687 -1.7286 -1.5860
  536SOL     MW 2144   0.455   1.855   2.007 -0.1900  0.4526 -0.1736
  537SOL     OW 2145   1.078   0.162   2.879 -0.6222 -0.6746 -0.1177
  537SOL    HW1 2146   1.018   0.136   2.942  1.7574 -2.2073 -2.5842
  537SOL    HW2 2147   1.066   0.257   2.892 -1.1010 -0.8115  1.1862
  537SOL     MW 2148   1.068   0.172   2.889 -0.3714 -0.8949 -0.2711
  538SOL     OW 2149   1.361   0.050   2.965 -0.0477 -0.0069 -0.0014
  538SOL    HW1 2150   1.330   0.140   2.958 -0.7400 -0.5052 -1.4204
  538SOL    HW2 2151   1.454   0.052   2.932  1.2393  2.2594  0.1655
  538SOL     MW 2152   1.369   0.062   2.960  0.0307  0.2264 -0.1666
  539SOL     OW 2153   0.766   2.758   2.554 -0.2798  0.2835  0.6094
  539SOL    HW1 2154   0.865   2.783   2.550  1.0629  0.0701 -0.5241
  539SOL    HW2 2155   0.765   2.659   2.551  0.6645  1.5651  0.7093
  539SOL     MW 2156   0.779   2.748   2.553  0.0220  0.4244  0.4730
  540SOL     OW 2157   0.329   2.339   2.877 -0.1677  0.7650 -0.5412
  540SOL    HW1 2158   0.412   2.379   2.911  2.3226  1.1028 -0.2587
  540SOL    HW2 2159   0.332   2.255   2.920  3.6011  0.1813 -2.2008
  540SOL     MW 2160   0.341   2.333   2.887  0.6582  0.7326 -0.7229
  541SOL     OW 2161   0.167   2.923   2.192  0.2832  0.5163  0.3339
  541SOL    HW1 2162   0.167   2.845   2.134 -0.6854 -0.7507  2.3342
  541SOL    HW2 2163   0.224   2.901   2.265  1.6463  1.8529 -1.3539
  541SOL     MW 2164   0.174   2.910   2.194  0.3352  0.5255  0.3751
  542SOL     OW 2165   1.042   2.289   2.573 -0.6499 -0.2420 -0.1159
  542SOL    HW1 2166   0.997   2.209   2.585  3.6117  1.3138  0.7387
  542SOL    HW2 2167   1.051   2.329   2.662 -0.4469 -1.3553 -0.3934
  542SOL     MW 2168   1.037   2.284   2.587 -0.0608 -0.1836 -0.0398
  543SOL     OW 2169   1.436   2.489   2.747  0.0107 -0.3272  0.0077
  543SOL    HW1 2170   1.465   2.422   2.682  1.8017  1.7675  0.4445
  543SOL    HW2 2171   1.516   2.544   2.747  2.1832  0.8985  0.5467
  543SOL     MW 2172   1.450   2.487   2.739  0.5336  0.1109  0.1365
  544SOL     OW 2173   0.603   0.241   2.679  0.5614  0.0474 -0.2186
  544SOL    HW1 2174   0.524   0.212   2.727  2.7902  2.9637 -2.4649
  544SOL    HW2 2175   0.636   0.161   2.637 -0.2503 -1.4650  0.4106
  544SOL     MW 2176   0.597   0.227   2.680  0.7484  0.2327 -0.4320
  545SOL     OW 2177   1.534   2.200   2.317  0.4108 -0.2212  0.7688
  545SOL    HW1 2178   1.488   2.250   2.249 -1.1446 -0.3419  0.1120
  545SOL    HW2 2179   1.617   2.164   2.279  1.2953  1.2581  0.8659
  545SOL     MW 2180   1.539   2.202   2.303  0.3223 -0.0419  0.6950
  546SOL     OW 2181   2.950   2.049   0.142 -0.1135 -0.2964 -0.2588
  546SOL    HW1 2182   2.956   2.121   0.069 -0.0301 -2.3098  1.0495
  546SOL    HW2 2183   3.026   1.999   0.110  0.9744 -1.0980 -0.1582
  546SOL     MW 2184   2.961   2.052   0.128  0.0410 -0.6678 -0.0729
  547SOL     OW 2185   0.261   2.967   0.121 -0.2163 -0.2453  0.9577
  547SOL    HW1 2186   0.321   3.023   0.063  1.6490  1.7296 -3.2834
  547SOL    HW2 2187   0.277   2.877   0.095  1.7957 -1.2986  0.8811
  547SOL     MW 2188   0.271   2.962   0.110  0.2953 -0.1237  0.3880
  548SOL     OW 2189   0.274   2.553   0.253 -0.3961  0.3665 -0.2588
  548SOL    HW1 2190   0.278   2.626   0.191  4.4103  1.6892  2.0230
  548SOL    HW2 2191   0.250   2.472   0.200  1.7161 -1.5472 -0.8837
  548SOL     MW 2192   0.271   2.552   0.238  0.5168  0.2885 -0.0402
  549SOL     OW 2193   0.803   1.892   2.114  0.3413  0.5005 -0.1718
  549SOL    HW1 2194   0.767   1.963   2.069 -3.1947  0.2773  3.8921
  549SOL    HW2 2195   0.766   1.889   2.202  2.0462  1.2060 -0.2774
  549SOL     MW 2196   0.793   1.901   2.119  0.0997  0.5641  0.3504
  550SOL     OW 2197   1.795   1.730   2.527 -0.3375 -0.7359 -0.1002
  550SOL    HW1 2198   1.793   1.729   2.428  2.7867  0.8708 -3.5036
  550SOL    HW2 2199   1.767   1.814   2.569  1.5664  1.5783  1.4816
  550SOL     MW 2200   1.791   1.741   2.520  0.3259 -0.2186 -0.3405
  551SOL     OW 2201   0.886   2.303   0.216 -0.3324 -0.4060  0.4460
  551SOL    HW1 2202   0.971   2.321   0.182 -1.0145 -0.9954  0.5722
  551SOL    HW2 2203   0.858   2.217   0.188 -0.2771  0.9166  0.5389
  551SOL     MW 2204   0.893   2.294   0.208 -0.4151 -0.3093  0.4749
  552SOL     OW 2205   1.751   1.733   2.253  0.3623  0.4135  0.1330
  552SOL    HW1 2206   1.667   1.705   2.284 -0.6654 -0.5103  2.9357
  552SOL    HW2 2207   1.770   1.685   2.167 -1.2080 -0.8160 -0.9291
  552SOL     MW 2208   1.742   1.723   2.246  0.0195  0.1294  0.3626
  553SOL     OW 2209   1.188   2.324   1.471 -0.1079 -0.0651 -0.1229
  553SOL    HW1 2210   1.204   2.231   1.487 -0.6784  1.1148  1.6984
  553SOL    HW2 2211   1.261   2.371   1.438  0.2730  0.7509 -0.2153
  553SOL     MW 2212   1.200   2.318   1.469 -0.1329  0.1982  0.1052
  554SOL     OW 2213   0.554   2.901   2.680 -0.1849  0.1963 -0.2993
  554SOL    HW1 2214   0.510   2.972   2.632  0.3696  1.5508 -2.1244
  554SOL    HW2 2215   0.625   2.887   2.613 -0.2227  1.4796  0.8507
  554SOL     MW 2216   0.558   2.908   2.665 -0.1168  0.5444 -0.3884
  555SOL     OW 2217   0.624   2.441   2.569  0.3407  0.1649 -0.2072
  555SOL    HW1 2218   0.580   2.354   2.577 -1.4712  1.3017  1.1612
  555SOL    HW2 2219   0.715   2.416   2.534  0.5784 -1.6051 -0.8776
  555SOL     MW 2220   0.630   2.426   2.566  0.1330  0.0814 -0.1151
  556SOL     OW 2221   0.936   1.770   0.135  0.5292  0.1554  0.3958
  556SOL    HW1 2222   0.983   1.787   0.053 -0.3957 -0.1010  0.4533
  556SOL    HW2 2223   0.997   1.802   0.201  0.5022  0.0584  0.7937
  556SOL     MW 2224   0.950   1.777   0.133  0.4036  0.1088  0.4559
  557SOL     OW 2225   0.965   2.695   0.493 -0.0245 -0.0775 -0.1142
  557SOL    HW1 2226   1.004   2.651   0.421  0.3471 -0.9815  2.6104
  557SOL    HW2 2227   0.903   2.759   0.459  0.9176 -0.6809  0.6306
  557SOL     MW 2228   0.962   2.697   0.479  0.1489 -0.2764  0.3436
  558SOL     OW 2229   0.281   2.141   0.020 -0.5280  0.0345 -0.4006
  558SOL    HW1 2230   0.220   2.062   0.027 -1.9477 -1.5688  1.8375
  558SOL    HW2 2231   0.225   2.216   0.046 -1.9418  1.2860 -0.5729
  558SOL     MW 2232   0.265   2.141   0.024 -0.9019 -0.0119 -0.1280
  559SOL     OW 2233   1.082   2.319   2.114 -0.5075  0.0678  0.0421
  559SOL    HW1 2234   1.117   2.371   2.184 -0.4059 -3.6689  0.9930
  559SOL    HW2 2235   1.084   2.231   2.144 -1.4418 -1.1087  0.8036
  559SOL     MW 2236   1.087   2.314   2.127 -0.6174 -0.5805  0.2681
  560SOL     OW 2237   1.925   2.838   0.054 -0.4073 -0.0439  0.0020
  560SOL    HW1 2238   1.997   2.875  -0.000  2.0614 -0.7763 -0.5282
  560SOL    HW2 2239   1.897   2.768  -0.006 -1.3526 -0.8010 -0.7690
  560SOL     MW 2240   1.930   2.834   0.039 -0.2063 -0.2405 -0.1696
  561SOL     OW 2241   0.453   2.141   0.209 -0.1625  0.5842  0.1216
  561SOL    HW1 2242   0.388   2.137   0.133 -1.9329 -4.9686 -2.4631
  561SOL    HW2 2243   0.477   2.234   0.231  2.6574  0.9509  0.1554
  561SOL     MW 2244   0.448   2.153   0.202 -0.0240 -0.1000 -0.2149
  562SOL     OW 2245   0.822   2.186   2.230 -0.5649 -0.0614  0.0308
  562SOL    HW1 2246   0.860   2.268   2.253 -2.1220 -0.0367 -3.5894
  562SOL    HW2 2247   0.891   2.122   2.233  0.1419  2.9790  0.8759
  562SOL     MW 2248   0.836   2.188   2.233 -0.6771  0.3430 -0.3354
  563SOL     OW 2249   1.122   0.313   0.588  0.2084  0.2209 -0.1731
  563SOL    HW1 2250   1.044   0.266   0.551  1.0119 -0.8644 -1.1650
  563SOL    HW2 2251   1.186   0.242   0.612 -0.2236 -1.7329 -1.1095
  563SOL     MW 2252   1.120   0.297   0.586  0.2574 -0.1800 -0.4275
  564SOL     OW 2253   1.037   2.593   2.278 -0.4665  0.5887 -0.6463
  564SOL    HW1 2254   1.077   2.595   2.186 -1.4757  0.2105  0.7081
  564SOL    HW2 2255   1.110   2.595   2.342 -0.5923  0.5390 -0.2127
  564SOL     MW 2256   1.052   2.593   2.274 -0.6162  0.5322 -0.4104
  565SOL     OW 2257   2.898   2.692   2.643  0.3251 -0.2228  0.4532
  565SOL    HW1 2258   2.947   2.753   2.588  0.5716  0.5195 -2.3147
  565SOL    HW2 2259   2.820   2.685   2.582  1.2074 -2.8835 -0.9970
  565SOL     MW 2260   2.894   2.699   2.628  0.4740 -0.4759 -0.1033
  566SOL     OW 2261   2.139   1.871   2.422  0.4957  0.0168 -0.6202
  566SOL    HW1 2262   2.123   1.787   2.381  1.4465 -1.2594  1.8407
  566SOL    HW2 2263   2.216   1.914   2.380 -1.7966 -0.9069  0.5354
  566SOL     MW 2264   2.147   1.865   2.411  0.3187 -0.2734 -0.1430
  567SOL     OW 2265   1.182   2.970   2.964 -0.0196 -0.2475 -0.1708
  567SOL    HW1 2266   1.268   3.030   2.951  1.8525 -1.5443 -1.8937
  567SOL    HW2 2267   1.208   2.875   2.962  2.0675 -1.9682 -0.9099
  567SOL     MW 2268   1.197   2.965   2.962  0.5028 -0.6456 -0.4957
  568SOL     OW 2269   1.632   2.107   2.889  0.5474  0.0495 -0.1707
  568SOL    HW1 2270   1.686   2.169   2.938 -1.9037  0.9128 -1.5506
  568SOL    HW2 2271   1.688   2.053   2.825 -1.0650  0.7792 -1.9342
  568SOL     MW 2272   1.647   2.108   2.887  0.0113  0.2597 -0.5855
  569SOL     OW 2273   0.207   2.245   2.472 -0.3444 -0.2108 -0.1186
  569SOL    HW1 2274   0.154   2.301   2.405 -2.1403 -1.5430  1.0654
  569SOL    HW2 2275   0.231   2.314   2.538  1.2868  1.3399 -0.3381
  569SOL     MW 2276   0.203   2.261   2.472 -0.3661 -0.1820  0.0086
  570SOL     OW 2277   1.467   0.400   0.475 -0.0271 -0.6793 -0.2947
  570SOL    HW1 2278   1.393   0.431   0.527  0.7684 -2.0450 -0.7216
  570SOL    HW2 2279   1.532   0.396   0.547  0.0747  2.2286  1.5858
  570SOL     MW 2280   1.466   0.404   0.491  0.0913 -0.4758 -0.1029
  571SOL     OW 2281   1.476   2.406   1.983 -0.2249  0.4482 -0.1971
  571SOL    HW1 2282   1.543   2.416   2.049  1.7590 -0.9825  0.8975
  571SOL    HW2 2283   1.487   2.309   1.973 -1.7838 -3.1676  0.5137
  571SOL     MW 2284   1.487   2.394   1.990 -0.1688 -0.2176  0.0411
  572SOL     OW 2285   0.916   2.588   0.033 -0.1669  0.3218  0.1238
  572SOL    HW1 2286   0.930   2.608  -0.061  2.8522 -0.0016 -1.0652
  572SOL    HW2 2287   0.824   2.577   0.051 -1.5439  3.2818 -1.3682
  572SOL     MW 2288   0.906   2.589   0.023  0.0498  0.6697 -0.2300
  573SOL     OW 2289   1.191   2.366   0.269 -0.0369 -0.0629 -0.0610
  573SOL    HW1 2290   1.268   2.351   0.210 -4.2117 -1.7733  1.3611
  573SOL    HW2 2291   1.172   2.463   0.263 -0.7953  2.3676  0.1242
  573SOL     MW 2292   1.199   2.377   0.261 -0.6878  0.0321  0.1510
  574SOL     OW 2293   1.113   2.638   0.245  0.8669  0.0218  0.0502
  574SOL    HW1 2294   1.151   2.717   0.277 -1.9342 -1.6613 -0.2561
  574SOL    HW2 2295   1.051   2.662   0.180  3.3170 -0.1994  2.9492
  574SOL     MW 2296   1.110   2.652   0.241  0.8206 -0.2294  0.3923
  575SOL     OW 2297   0.028   2.311   1.794  0.0451 -0.9619  0.4657
  575SOL    HW1 2298   0.049   2.232   1.744 -0.1320  0.4904 -0.5469
  575SOL    HW2 2299   0.069   2.383   1.748  1.4351 -2.3296  0.9166
  575SOL     MW 2300   0.036   2.310   1.781  0.2051 -0.9507  0.3916
  576SOL     OW 2301   2.871   1.799   2.049 -0.2768  0.0470  0.2807
  576SOL    HW1 2302   2.897   1.873   1.988 -2.6796  1.7808 -1.5918
  576SOL    HW2 2303   2.782   1.771   2.027 -0.2658  0.2541  2.2529
  576SOL     MW 2304   2.862   1.805   2.038 -0.5924  0.3031  0.2939
  577SOL     OW 2305   2.107   0.220   0.070 -0.6072 -0.6083  0.2786
  577SOL    HW1 2306   2.053   0.217  -0.011 -1.2325  1.3596 -2.2507
  577SOL    HW2 2307   2.038   0.187   0.134  1.2739  0.7224 -0.4980
  577SOL     MW 2308   2.091   0.215   0.068 -0.4415 -0.1731 -0.1576
  578SOL     OW 2309   1.913   2.029   2.431 -0.4563  0.3083 -0.0383
  578SOL    HW1 2310   1.854   2.027   2.355 -1.0038  1.3942 -1.7175
  578SOL    HW2 2311   1.993   1.980   2.413  0.3707  1.3709  0.6175
  578SOL     MW 2312   1.916   2.022   2.419 -0.4194  0.5918 -0.1733
  579SOL     OW 2313   0.879   2.489   2.475  0.1903 -0.4864 -0.4629
  579SOL    HW1 2314   0.943   2.420   2.511  2.8475 -0.2676 -0.5348
  579SOL    HW2 2315   0.943   2.541   2.422 -0.5047  0.5513 -0.9105
  579SOL     MW 2316   0.896   2.487   2.473  0.4492 -0.3206 -0.5315
  580SOL     OW 2317   0.916   3.000   3.090  0.1558 -0.2485 -0.8502
  580SOL    HW1 2318   1.012   2.979   3.088 -0.3098 -0.3935 -1.4733
  580SOL    HW2 2319   0.884   2.957   3.005  2.3222 -0.6399 -2.2001
  580SOL     MW 2320   0.924   2.991   3.079  0.3802 -0.3193 -1.1105
  581SOL     OW 2321   1.181   2.461   1.704  0.5619  0.3790 -0.1842
  581SOL    HW1 2322   1.262   2.504   1.729 -1.5179 -0.5338 -3.8113
  581SOL    HW2 2323   1.201   2.421   1.619  1.8148 -0.9227  2.3032
  581SOL     MW 2324   1.195   2.461   1.696  0.4528  0.0868 -0.3345
  582SOL     OW 2325   3.081   2.878   2.540  0.5472 -0.0527 -0.1432
  582SOL    HW1 2326   3.045   2.958   2.579 -1.8522 -2.8778 -0.2655
  582SOL    HW2 2327   3.173   2.886   2.552  1.5842  0.7040 -1.3015
  582SOL     MW 2328   3.088   2.890   2.547  0.3674 -0.3256 -0.3122
  583SOL     OW 2329   2.020   2.364   2.706  0.3530 -0.0694  0.3612
  583SOL    HW1 2330   2.085   2.372   2.631  0.0350  1.4612 -1.9708
  583SOL    HW2 2331   2.007   2.268   2.711 -0.9809 -0.3639 -1.5635
  583SOL     MW 2332   2.027   2.352   2.696  0.1351  0.0937 -0.2004
  584SOL     OW 2333   0.197   1.854   2.161  0.9600 -0.7311  0.7201
  584SOL    HW1 2334   0.272   1.834   2.110  0.0329 -2.2779  5.0810
  584SOL    HW2 2335   0.223   1.932   2.216 -1.3518  0.2741  1.7870
  584SOL     MW 2336   0.210   1.862   2.162  0.5327 -0.8026  1.4363
  585SOL     OW 2337   1.444   2.648   0.143  0.3268  0.1725  0.3158
  585SOL    HW1 2338   1.441   2.595   0.058 -0.4819 -0.8628 -0.9139
  585SOL    HW2 2339   1.359   2.653   0.186 -1.6606 -0.5450  2.2979
  585SOL     MW 2340   1.432   2.642   0.138 -0.0421 -0.0588  0.4151
  586SOL     OW 2341   1.398   2.817   2.509 -0.3407  0.1097  0.0362
  586SOL    HW1 2342   1.455   2.802   2.437 -0.6194  2.6092  0.5172
  586SOL    HW2 2343   1.379   2.910   2.525 -0.8155  2.2266  3.6930
  586SOL     MW 2344   1.403   2.827   2.502 -0.4401  0.7188  0.5821
  587SOL     OW 2345   1.309   1.569   2.181 -0.3159 -0.3411 -0.4967
  587SOL    HW1 2346   1.294   1.504   2.253 -1.1665  0.3524  0.8089
  587SOL    HW2 2347   1.340   1.521   2.107  3.6403  0.7765 -0.9174
  587SOL     MW 2348   1.311   1.554   2.181  0.0939 -0.1022 -0.3800
  588SOL     OW 2349   1.381   2.138   2.773 -0.5406 -0.3768  0.1300
  588SOL    HW1 2350   1.465   2.114   2.828 -2.4429 -0.2047 -2.2345
  588SOL    HW2 2351   1.325   2.193   2.828  1.4972 -0.0703  3.8683
  588SOL     MW 2352   1.384   2.142   2.787 -0.5227 -0.3136  0.3113
  589SOL     OW 2353   1.278   2.057   0.064 -0.1997  0.0045  0.0975
  589SOL    HW1 2354   1.328   2.115   0.123  0.8620  0.2498 -0.1392
  589SOL    HW2 2355   1.232   1.988   0.114  2.0900 -0.9320 -0.4310
  589SOL     MW 2356   1.278   2.055   0.078  0.2425 -0.0867 -0.0035
  590SOL     OW 2357   0.419   2.711   2.224 -0.1599  0.7733 -0.0084
  590SOL    HW1 2358   0.412   2.659   2.143  1.0243  2.9747  1.3570
  590SOL    HW2 2359   0.500   2.766   2.231 -0.3846  0.7761 -2.5903
  590SOL     MW 2360   0.428   2.711   2.214 -0.0333  1.0641 -0.1689
  591SOL     OW 2361   2.287   0.706   0.011  0.0204 -0.0849  0.5701
  591SOL    HW1 2362   2.217   0.755  -0.029  0.0259 -1.4725 -2.1179
  591SOL    HW2 2363   2.366   0.720  -0.061  2.7883 -1.6924 -0.4880
  591SOL     MW 2364   2.288   0.714  -0.004  0.3863 -0.4801  0.0758
  592SOL     OW 2365   1.796   2.976   0.841 -0.0826 -0.2587  0.5114
  592SOL    HW1 2366   1.777   3.035   0.765  0.2913 -1.3739 -2.6814
  592SOL    HW2 2367   1.857   2.908   0.805  2.1939  0.9880 -0.5892
  592SOL     MW 2368   1.801   2.975   0.826  0.2671 -0.2413 -0.0551
  593SOL     OW 2369   1.948   0.705   0.884 -0.0152  0.0984 -0.2221
  593SOL    HW1 2370   1.890   0.701   0.809 -2.0809 -1.2623  0.4283
  593SOL    HW2 2371   1.991   0.621   0.882  1.8321  0.5594  1.4754
  593SOL     MW 2372   1.946   0.694   0.874 -0.0440 -0.0203  0.0876
  594SOL     OW 2373   2.831   1.157   1.343 -0.0345 -0.0850 -0.1505
  594SOL    HW1 2374   2.925   1.169   1.354  1.1158 -2.8143 -0.9346
  594SOL    HW2 2375   2.802   1.109   1.262 -1.1664 -0.0295 -0.8363
  594SOL     MW 2376   2.839   1.152   1.334 -0.0320 -0.4378 -0.3444
  595SOL     OW 2377   0.477   0.974   0.806 -0.7485  0.4872  0.0756
  595SOL    HW1 2378   0.537   1.021   0.750  2.0581  1.1352 -0.0005
  595SOL    HW2 2379   0.490   1.012   0.893  2.0661  2.3307  2.4795
  595SOL     MW 2380   0.487   0.985   0.810 -0.0068  0.8159  0.3827
  596SOL     OW 2381   2.471   1.338   0.555 -0.7595 -0.0497  0.3014
  596SOL    HW1 2382   2.547   1.399   0.543  1.6979  1.8033  0.4060
  596SOL    HW2 2383   2.515   1.283   0.623  0.5056 -3.4718 -2.1872
  596SOL     MW 2384   2.487   1.339   0.562 -0.2683 -0.2567 -0.0131
  597SOL     OW 2385   2.177   0.716   1.587  0.0509 -0.1696  0.6991
  597SOL    HW1 2386   2.196   0.638   1.646 -1.2469  0.0999  1.4259
  597SOL    HW2 2387   2.110   0.677   1.522 -0.7409  0.0027  0.4290
  597SOL     MW 2388   2.171   0.700   1.587 -0.2248 -0.1113  0.7594
  598SOL     OW 2389   2.596   0.992   2.848 -0.1339  0.3623  0.4234
  598SOL    HW1 2390   2.607   1.000   2.751 -1.0780  2.3848  2.6498
  598SOL    HW2 2391   2.664   1.050   2.878 -0.7003  0.7401 -0.4364
  598SOL     MW 2392   2.606   1.000   2.839 -0.3332  0.6790  0.6037
  599SOL     OW 2393   2.967   0.447   2.048  0.2739  0.2721  0.1053
  599SOL    HW1 2394   2.934   0.463   2.134 -0.0067 -0.9052 -0.9776
  599SOL    HW2 2395   3.017   0.531   2.021 -0.4452  0.7842 -0.4119
  599SOL     MW 2396   2.969   0.460   2.055  0.1420  0.1843 -0.1058
  600SOL     OW 2397   1.924   1.646   0.866 -0.5051 -0.8942  0.0295
  600SOL    HW1 2398   1.993   1.705   0.903  0.5399 -0.3142  0.3689
  600SOL    HW2 2399   1.836   1.688   0.850 -0.6850 -2.2861  0.4977
  600SOL     MW 2400   1.922   1.659   0.869 -0.3910 -1.0013  0.1360
  601SOL     OW 2401   2.534   0.812   0.829  0.1144 -0.6710 -0.0113
  601SOL    HW1 2402   2.520   0.811   0.922 -1.1158 -0.9868  3.8629
  601SOL    HW2 2403   2.466   0.758   0.786  1.2390  0.1880 -3.2034
  601SOL     MW 2404   2.523   0.805   0.835  0.1005 -0.5993  0.0787
  602SOL     OW 2405   2.353   1.919   0.855  0.7964 -0.4724  0.4465
  602SOL    HW1 2406   2.316   1.829   0.864  1.3946 -0.2557  1.0343
  602SOL    HW2 2407   2.282   1.971   0.818  0.5927 -1.5794 -0.1428
  602SOL     MW 2408   2.338   1.914   0.851  0.8484 -0.5898  0.4463
  603SOL     OW 2409   3.067   1.399   1.801  0.0430 -0.2377 -0.2730
  603SOL    HW1 2410   3.110   1.425   1.883  1.1919 -0.7756  0.6977
  603SOL    HW2 2411   3.055   1.311   1.828  0.9095 -0.4829 -0.7307
  603SOL     MW 2412   3.071   1.391   1.816  0.3089 -0.3410 -0.2053
  604SOL     OW 2413   2.171   1.573   0.474  0.3009 -0.0619 -0.5946
  604SOL    HW1 2414   2.183   1.482   0.507  0.4729  0.0717  1.1329
  604SOL    HW2 2415   2.092   1.608   0.527  0.6941  0.7280  1.0329
  604SOL     MW 2416   2.162   1.566   0.486  0.3755  0.0600 -0.1520
  605SOL     OW 2417   2.612   1.546   0.828  0.2754 -0.4794  0.2977
  605SOL    HW1 2418   2.591   1.615   0.763  0.0903  1.6129 -2.2842
  605SOL    HW2 2419   2.582   1.461   0.789 -2.2063 -0.5179 -0.9206
  605SOL     MW 2420   2.606   1.544   0.814 -0.0765 -0.2084 -0.2037
  606SOL     OW 2421   2.541   1.831   1.935 -0.8319 -0.1706  0.7635
  606SOL    HW1 2422   2.448   1.832   1.923 -1.0376 -1.7241  0.7390
  606SOL    HW2 2423   2.562   1.751   1.887 -1.3335 -1.4244  2.3543
  606SOL     MW 2424   2.532   1.821   1.927 -0.9252 -0.5410  0.9701
  607SOL     OW 2425   2.390   1.060   3.044  0.4673  0.4650  0.0540
  607SOL    HW1 2426   2.463   1.025   2.994 -1.0192  0.2009 -2.5300
  607SOL    HW2 2427   2.405   1.025   3.137  1.0072 -0.2065  1.2316
  607SOL     MW 2428   2.402   1.051   3.050  0.3424  0.3415 -0.1316
  608SOL     OW 2429   1.885   0.282   0.634 -0.2875  0.0823 -0.4202
  608SOL    HW1 2430   1.885   0.318   0.544 -0.0798 -0.2293  2.4107
  608SOL    HW2 2431   1.841   0.194   0.634 -0.9730 -0.9287 -0.5389
  608SOL     MW 2432   1.879   0.275   0.622 -0.3505 -0.0922 -0.0623
  609SOL     OW 2433   2.035   2.024   3.046 -0.1870 -0.2773 -0.3840
  609SOL    HW1 2434   1.961   1.961   3.036 -0.5060 -1.1379  0.7307
  609SOL    HW2 2435   2.103   1.988   3.104 -2.7923  1.2486 -0.9610
  609SOL     MW 2436   2.034   2.011   3.052 -0.5728 -0.1895 -0.3130
  610SOL     OW 2437   1.778   1.002   1.287 -0.4823  0.2364  0.6422
  610SOL    HW1 2438   1.795   0.929   1.223  1.0218  0.7855  2.5237
  610SOL    HW2 2439   1.685   0.979   1.300  0.9603 -0.9728 -1.1587
  610SOL     MW 2440   1.768   0.989   1.280 -0.0935  0.1493  0.6529
  611SOL     OW 2441   2.517   1.785   0.680 -0.3758 -0.1700  0.4036
  611SOL    HW1 2442   2.447   1.839   0.716 -1.4339  1.2512 -2.6694
  611SOL    HW2 2443   2.509   1.824   0.591  1.0141  0.8052 -1.4258
  611SOL     MW 2444   2.507   1.797   0.673 -0.3320  0.1462 -0.2432
  612SOL     OW 2445   2.793   2.827   0.420  0.1847 -0.3027 -0.2414
  612SOL    HW1 2446   2.849   2.873   0.484  0.7570 -4.3095  0.4336
  612SOL    HW2 2447   2.856   2.793   0.356 -0.4818 -0.0099 -1.5385
  612SOL     MW 2448   2.808   2.829   0.420  0.1723 -0.7927 -0.3235
  613SOL     OW 2449   1.489   0.992   0.961 -0.1380 -0.5842 -0.0919
  613SOL    HW1 2450   1.471   1.075   0.999  0.2058 -1.6729  1.0013
  613SOL    HW2 2451   1.506   0.945   1.042 -2.5792 -0.2355  1.2977
  613SOL     MW 2452   1.489   0.997   0.977 -0.4148 -0.6818  0.2357
  614SOL     OW 2453   2.000   0.563   1.442 -0.1576  0.0397  0.0645
  614SOL    HW1 2454   2.006   0.484   1.498  2.8432  0.1626  0.1341
  614SOL    HW2 2455   1.947   0.533   1.367 -0.6373  0.3321  1.4218
  614SOL     MW 2456   1.994   0.548   1.440  0.1751  0.0945  0.2528
  615SOL     OW 2457   2.388   0.720   0.273  0.4645  0.1813 -0.6384
  615SOL    HW1 2458   2.454   0.652   0.288 -0.1841  0.3298 -2.2552
  615SOL    HW2 2459   2.366   0.705   0.182  1.1067 -0.9283  0.0227
  615SOL     MW 2460   2.394   0.709   0.263  0.4637  0.0545 -0.7645
  616SOL     OW 2461   2.483   0.402   1.596 -0.4998 -0.7618  0.3002
  616SOL    HW1 2462   2.441   0.320   1.561  0.5913 -4.2870  2.1437
  616SOL    HW2 2463   2.479   0.476   1.531  0.5654 -0.6920  0.0665
  616SOL     MW 2464   2.477   0.401   1.583 -0.2153 -1.2177  0.5126
  617SOL     OW 2465   2.908   0.587   1.740 -0.7118  0.4140 -0.1505
  617SOL    HW1 2466   2.829   0.578   1.792 -0.3554  3.4625 -0.2700
  617SOL    HW2 2467   2.893   0.513   1.683  1.0779  0.4683 -0.9249
  617SOL     MW 2468   2.896   0.576   1.739 -0.4287  0.8234 -0.2684
  618SOL     OW 2469   2.770   0.372   1.866 -0.5673  0.2741 -0.0492
  618SOL    HW1 2470   2.729   0.453   1.894  1.2450  1.2714 -0.6101
  618SOL    HW2 2471   2.846   0.382   1.920 -0.3114  1.0354 -0.7166
  618SOL     MW 2472   2.774   0.384   1.877 -0.2944  0.5062 -0.2113
  619SOL     OW 2473   2.662   0.658   0.125 -0.6227 -0.7400  0.0384
  619SOL    HW1 2474   2.679   0.747   0.157 -2.2388  0.8870 -1.4269
  619SOL    HW2 2475   2.654   0.596   0.198 -0.7768 -0.8981  1.5879
  619SOL     MW 2476   2.663   0.662   0.138 -0.8562 -0.5462  0.0495
  620SOL     OW 2477   2.279   1.047   1.021 -0.3574  0.0830  0.3403
  620SOL    HW1 2478   2.332   1.022   0.944 -0.3519  1.1715 -1.7509
  620SOL    HW2 2479   2.193   1.001   1.004 -3.5569  1.0523 -0.8298
  620SOL     MW 2480   2.274   1.037   1.008 -0.7788  0.3545 -0.0900
  621SOL     OW 2481   1.526   2.123   1.952  0.3724 -0.1585 -0.3929
  621SOL    HW1 2482   1.446   2.085   2.004 -1.3743  4.2197 -0.4289
  621SOL    HW2 2483   1.605   2.076   1.980 -0.1867  2.0358 -1.9713
  621SOL     MW 2484   1.526   2.112   1.963  0.0682  0.7087 -0.6059
  622SOL     OW 2485   2.633   0.157   0.259  0.1516 -0.2054 -0.2634
  622SOL    HW1 2486   2.720   0.196   0.262 -1.8450  2.0604  0.9602
  622SOL    HW2 2487   2.636   0.067   0.287  0.5006 -0.4184 -0.8031
  622SOL     MW 2488   2.645   0.150   0.263 -0.0658  0.0655 -0.1732
  623SOL     OW 2489   2.321   2.827   0.853  0.5114  0.4231  0.4405
  623SOL    HW1 2490   2.403   2.870   0.836 -2.1692 -2.3963 -1.2915
  623SOL    HW2 2491   2.310   2.815   0.952 -0.3142 -1.1120 -1.1517
  623SOL     MW 2492   2.330   2.831   0.864  0.0488 -0.1515  0.0019
  624SOL     OW 2493   2.192   1.725   3.004  0.1606 -0.1563 -0.3263
  624SOL    HW1 2494   2.162   1.647   3.058 -1.5007  0.5125  4.0926
  624SOL    HW2 2495   2.122   1.766   2.965 -1.4215  0.0144  0.4686
  624SOL     MW 2496   2.179   1.720   3.006 -0.2673 -0.0456  0.3616
  625SOL     OW 2497   2.197   1.950   1.105 -0.4955  0.0510 -1.3078
  625SOL    HW1 2498   2.277   1.904   1.145 -2.2346 -0.7915 -0.4659
  625SOL    HW2 2499   2.233   1.962   1.016  0.9757 -0.9009 -0.8980
  625SOL     MW 2500   2.212   1.946   1.098 -0.5309 -0.1858 -1.1427
  626SOL     OW 2501   0.303   1.622   2.378  0.2387  0.2286 -0.8137
  626SOL    HW1 2502   0.294   1.528   2.382 -1.2383 -2.3319 -0.4069
  626SOL    HW2 2503   0.214   1.658   2.371 -1.8781 -1.8775  0.9260
  626SOL     MW 2504   0.290   1.614   2.378 -0.2355 -0.3871 -0.5305
  627SOL     OW 2505   2.479   0.741   2.621 -0.0421 -0.8503 -0.4307
  627SOL    HW1 2506   2.434   0.826   2.620  0.5270 -0.2159  1.2510
  627SOL    HW2 2507   2.458   0.704   2.534 -0.3768 -0.0447 -1.1069
  627SOL     MW 2508   2.470   0.747   2.609 -0.0112 -0.6603 -0.2981
  628SOL     OW 2509   2.350   1.406   1.368 -0.0964  0.8463  0.0211
  628SOL    HW1 2510   2.301   1.352   1.304  1.4423 -0.4107  1.9129
  628SOL    HW2 2511   2.442   1.389   1.351 -3.1484  0.0107  1.3191
  628SOL     MW 2512   2.356   1.397   1.357 -0.2960  0.5702  0.4419
  629SOL     OW 2513   1.856   0.544   1.237  0.3442 -0.0308 -0.3396
  629SOL    HW1 2514   1.822   0.629   1.202  0.8597 -0.1080 -1.6307
  629SOL    HW2 2515   1.773   0.498   1.241 -1.7210 -1.5803  2.0398
  629SOL     MW 2516   1.840   0.550   1.233  0.1397 -0.2454 -0.1960
  630SOL     OW 2517   2.453   1.799   2.980  0.1124  0.7006 -0.2779
  630SOL    HW1 2518   2.465   1.893   2.970  1.7330  3.9039 -0.6955
  630SOL    HW2 2519   2.357   1.789   2.999 -0.0354  0.7822  1.1390
  630SOL     MW 2520   2.442   1.810   2.981  0.3067  1.1340 -0.1460
  631SOL     OW 2521   1.981   1.828   1.566  0.0867 -0.0813 -0.4529
  631SOL    HW1 2522   1.991   1.740   1.605 -0.2829 -2.9923 -2.2304
  631SOL    HW2 2523   1.972   1.817   1.470 -1.8036 -1.4971  0.6867
  631SOL     MW 2524   1.981   1.815   1.558 -0.2115 -0.6522 -0.5371
  632SOL     OW 2525   0.146   1.969   1.445  0.5652 -0.2179 -0.2040
  632SOL    HW1 2526   0.150   2.010   1.534 -1.5294  0.0070  1.8415
  632SOL    HW2 2527   0.117   1.884   1.466  2.1152 -1.5141 -2.3766
  632SOL     MW 2528   0.142   1.963   1.460  0.4933 -0.3593 -0.2207
  633SOL     OW 2529   2.589   0.507   0.348 -0.3090 -0.2232 -0.5083
  633SOL    HW1 2530   2.651   0.500   0.423 -0.5156  0.7881 -0.8808
  633SOL    HW2 2531   2.549   0.421   0.352 -0.4396  0.8968 -2.3083
  633SOL     MW 2532   2.592   0.495   0.358 -0.3535  0.0580 -0.7950
  634SOL     OW 2533   2.684   3.076   0.612 -0.3844  0.0580 -0.0795
  634SOL    HW1 2534   2.699   3.169   0.605  0.1053  1.0606 -0.0339
  634SOL    HW2 2535   2.641   3.046   0.531 -0.7952  0.2443  1.1385
  634SOL     MW 2536   2.680   3.084   0.601 -0.3740  0.2149  0.0872
  635SOL     OW 2537   2.631   0.133   1.818 -0.3731 -0.0928 -0.1824
  635SOL    HW1 2538   2.690   0.071   1.769  3.9387  0.5137  1.6693
  635SOL    HW2 2539   2.684   0.209   1.830 -0.2009  2.7528 -0.2004
  635SOL     MW 2540   2.646   0.135   1.813  0.2185  0.3627  0.0595
  636SOL     OW 2541   2.877   1.608   1.107 -0.5458  0.2554 -0.6267
  636SOL    HW1 2542   2.796   1.651   1.138 -0.2950  1.6330  2.1919
  636SOL    HW2 2543   2.927   1.691   1.076 -1.3226  1.4850  1.9942
  636SOL     MW 2544   2.873   1.625   1.107 -0.6152  0.5994  0.0910
  637SOL     OW 2545   2.888   1.479   0.733 -0.4916 -0.5707  0.4294
  637SOL    HW1 2546   2.921   1.569   0.713  0.8703  1.4707  2.8556
  637SOL    HW2 2547   2.822   1.495   0.798  0.8213 -1.8389  0.5762
  637SOL     MW 2548   2.883   1.493   0.739 -0.1387 -0.4687  0.7689
  638SOL     OW 2549   2.772   0.492   0.558 -0.7136  0.0017 -0.0121
  638SOL    HW1 2550   2.846   0.529   0.510  0.3001  0.0835 -0.7930
  638SOL    HW2 2551   2.768   0.542   0.641 -1.4473  2.2364  2.0708
  638SOL     MW 2552   2.781   0.504   0.563 -0.6767  0.3073  0.1597
  639SOL     OW 2553   1.763   0.028   0.629 -0.5925 -0.0542 -0.1089
  639SOL    HW1 2554   1.678   0.059   0.598  1.2683  0.5573 -1.6118
  639SOL    HW2 2555   1.792  -0.035   0.554  2.1820 -1.6246 -0.6607
  639SOL     MW 2556   1.755   0.024   0.615  0.0190 -0.1807 -0.3800
  640SOL     OW 2557   0.361   1.311   0.112 -0.1889  0.1646 -0.4175
  640SOL    HW1 2558   0.377   1.325   0.015 -0.6759 -2.3301 -0.4782
  640SOL    HW2 2559   0.330   1.221   0.122  0.0076  0.2147  0.4261
  640SOL     MW 2560   0.359   1.301   0.100 -0.2272 -0.1580 -0.3142
  641SOL     OW 2561   2.158   0.410   0.340  0.1829 -0.2574  0.5212
  641SOL    HW1 2562   2.192   0.447   0.256  0.5619  1.7112 -1.6267
  641SOL    HW2 2563   2.211   0.334   0.352  1.3672  3.1850  0.7395
  641SOL     MW 2564   2.169   0.405   0.331  0.3892  0.4565  0.2666
  642SOL     OW 2565   0.050   3.070   0.582  0.0227 -0.4169  0.0449
  642SOL    HW1 2566   0.018   3.155   0.544  0.3374 -1.1903 -1.8434
  642SOL    HW2 2567  -0.038   3.024   0.602 -2.4884  1.9588 -2.4097
  642SOL     MW 2568   0.034   3.075   0.580 -0.2671 -0.2055 -0.5281
  643SOL     OW 2569   2.033   0.333   1.637 -0.8336  0.1643 -0.2641
  643SOL    HW1 2570   1.957   0.313   1.692  1.0722  1.7497  0.9225
  643SOL    HW2 2571   2.038   0.275   1.560  0.7479 -2.7030 -1.7624
  643SOL     MW 2572   2.024   0.323   1.634 -0.3735 -0.0048 -0.3052
  644SOL     OW 2573   2.746   2.035   1.042 -0.0696 -0.0432  0.0977
  644SOL    HW1 2574   2.712   1.962   1.091 -1.0651 -1.5350 -0.6360
  644SOL    HW2 2575   2.670   2.083   1.014  2.8174  2.6395  1.4390
  644SOL     MW 2576   2.731   2.032   1.045  0.1800  0.1139  0.1778
  645SOL     OW 2577   2.865   0.836   0.662 -0.5295  0.4113 -0.4001
  645SOL    HW1 2578   2.956   0.826   0.675 -1.2093 -1.4896  0.6505
  645SOL    HW2 2579   2.825   0.786   0.728 -0.2120  2.0127  0.1187
  645SOL     MW 2580   2.872   0.828   0.673 -0.5773  0.3717 -0.1930
  646SOL     OW 2581   0.167   2.307   0.816 -0.5674 -0.6368  0.2673
  646SOL    HW1 2582   0.194   2.213   0.838  2.0060  0.2004 -0.2236
  646SOL    HW2 2583   0.114   2.315   0.730  3.7113 -1.0646 -0.0242
  646SOL     MW 2584   0.163   2.295   0.808  0.3366 -0.5828  0.1641
  647SOL     OW 2585   2.668   0.473   2.967 -0.1493 -0.2004 -0.1044
  647SOL    HW1 2586   2.643   0.397   3.019  1.9375 -0.0716  1.0020
  647SOL    HW2 2587   2.626   0.553   3.001  0.1884 -0.3800  1.2328
  647SOL     MW 2588   2.659   0.474   2.978  0.1706 -0.2071  0.2180
  648SOL     OW 2589   2.110   0.742   1.221 -0.5373  0.2267 -0.0661
  648SOL    HW1 2590   2.135   0.770   1.132  1.0631 -0.8993  1.9898
  648SOL    HW2 2591   2.127   0.820   1.272 -0.7465 -3.0063 -1.9730
  648SOL     MW 2592   2.115   0.756   1.216 -0.3537 -0.3485 -0.0464
  649SOL     OW 2593   2.358   2.690   1.263  0.0586 -0.4840 -0.0356
  649SOL    HW1 2594   2.414   2.748   1.309  2.8428  0.0536 -0.4874
  649SOL    HW2 2595   2.399   2.603   1.266  3.2614 -2.4258  0.0187
  649SOL     MW 2596   2.371   2.687   1.269  0.8485 -0.6693 -0.0881
  650SOL     OW 2597   2.826   0.216   0.627  0.7138  0.1119  0.0013
  650SOL    HW1 2598   2.844   0.297   0.672 -3.0568 -0.2384  0.1787
  650SOL    HW2 2599   2.901   0.179   0.582 -2.4796 -1.6666  2.5602
  650SOL     MW 2600   2.838   0.222   0.627 -0.2050 -0.1689  0.3624
  651SOL     OW 2601   2.975   0.406   0.879  0.1080  0.5265  0.5433
  651SOL    HW1 2602   3.030   0.442   0.811  0.9529 -0.2118  4.0343
  651SOL    HW2 2603   2.960   0.478   0.940 -2.0292 -0.3237 -1.6162
  651SOL     MW 2604   2.980   0.420   0.878 -0.0625  0.3169  0.7189
  652SOL     OW 2605   2.444   1.527   2.976  0.4574 -0.2990  0.2461
  652SOL    HW1 2606   2.509   1.490   2.918 -0.3245 -3.4320 -0.6557
  652SOL    HW2 2607   2.455   1.620   2.976 -3.8752 -2.9758  0.1603
  652SOL     MW 2608   2.454   1.534   2.969 -0.2174 -1.0656  0.1158
  653SOL     OW 2609   1.872   0.419   0.390 -1.2968 -0.3060  0.2675
  653SOL    HW1 2610   1.830   0.391   0.307 -2.7614  2.1066  0.3903
  653SOL    HW2 2611   1.962   0.439   0.374 -2.6859 -1.3259  1.4541
  653SOL     MW 2612   1.879   0.418   0.377 -1.6734 -0.1222  0.4403
  654SOL     OW 2613   2.396   1.021   0.750 -0.1276  0.0052  0.3635
  654SOL    HW1 2614   2.319   1.007   0.690 -1.0761  1.2631 -0.3036
  654SOL    HW2 2615   2.450   0.942   0.760  0.1439  2.7469 -1.4964
  654SOL     MW 2616   2.393   1.008   0.743 -0.2169  0.5329  0.0301
  655SOL     OW 2617   2.895   0.818   0.351  0.4286 -0.6098  0.2585
  655SOL    HW1 2618   2.870   0.853   0.436 -2.3343  1.3169 -2.0643
  655SOL    HW2 2619   2.934   0.731   0.378  0.2074  1.7554  0.4678
  655SOL     MW 2620   2.897   0.811   0.366  0.0349 -0.0435 -0.0204
  656SOL     OW 2621   1.854   2.722   1.326  0.7349 -0.1130  0.6063
  656SOL    HW1 2622   1.864   2.813   1.333  0.3784 -0.4408  0.6909
  656SOL    HW2 2623   1.897   2.689   1.402 -3.1355  1.3509 -1.5227
  656SOL     MW 2624   1.861   2.729   1.337  0.1772  0.0369  0.3365
  657SOL     OW 2625   0.139   1.712   1.223 -0.1718 -0.2515 -0.7481
  657SOL    HW1 2626   0.190   1.773   1.169 -1.7815  0.9545 -0.1955
  657SOL    HW2 2627   0.188   1.630   1.205 -1.7638 -0.7222 -1.0558
  657SOL     MW 2628   0.152   1.709   1.214 -0.5943 -0.1545 -0.7158
  658SOL     OW 2629   2.729   1.339   0.222 -0.6232  0.2317  0.3268
  658SOL    HW1 2630   2.667   1.285   0.265  2.4086  2.1342 -2.1631
  658SOL    HW2 2631   2.756   1.391   0.298  0.0609 -0.3874  1.5361
  658SOL     MW 2632   2.725   1.339   0.238 -0.1329  0.4010  0.1578
  659SOL     OW 2633   2.280   1.519   1.077 -0.1083  0.1096 -1.3182
  659SOL    HW1 2634   2.373   1.511   1.112 -0.1380 -1.5723  1.5994
  659SOL    HW2 2635   2.231   1.533   1.160 -1.1445  1.1748  1.5362
  659SOL     MW 2636   2.286   1.520   1.093 -0.2489  0.0283 -0.5566
  660SOL     OW 2637   2.042   1.582   1.683 -0.3642 -0.2434  0.3980
  660SOL    HW1 2638   2.036   1.588   1.778 -4.5215 -0.3285 -0.7023
  660SOL    HW2 2639   1.967   1.524   1.663  0.7461  0.8917  0.3774
  660SOL     MW 2640   2.031   1.575   1.693 -0.7662 -0.1048  0.2501
  661SOL     OW 2641   2.413   0.995   0.214  0.2470  0.1496 -0.6539
  661SOL    HW1 2642   2.492   1.046   0.242  0.3252  0.5953  1.9526
  661SOL    HW2 2643   2.423   0.902   0.250 -0.1603 -2.4822  0.5447
  661SOL     MW 2644   2.424   0.989   0.222  0.2035 -0.1389 -0.1519
  662SOL     OW 2645   2.596   2.965   0.844 -0.3407 -0.1120  0.1593
  662SOL    HW1 2646   2.549   3.037   0.883 -0.8112 -0.0646 -1.1153
  662SOL    HW2 2647   2.637   3.011   0.771 -0.1906  0.4429  1.2551
  662SOL     MW 2648   2.595   2.981   0.839 -0.3830 -0.0325  0.1357
  663SOL     OW 2649   2.696   1.486   0.491 -0.2281  0.4403  0.3960
  663SOL    HW1 2650   2.661   1.557   0.438 -2.0922 -1.0199  0.8867
  663SOL    HW2 2651   2.765   1.530   0.542  0.4092 -0.7013 -1.0180
  663SOL     MW 2652   2.701   1.501   0.491 -0.3900  0.0970  0.2742
  664SOL     OW 2653   2.506   1.516   1.587  0.3276  0.3884 -0.6551
  664SOL    HW1 2654   2.475   1.601   1.562  0.7285 -1.4324  0.4052
  664SOL    HW2 2655   2.427   1.461   1.591  0.5075 -0.6964  0.9379
  664SOL     MW 2656   2.491   1.520   1.584  0.4043  0.0050 -0.3051
  665SOL     OW 2657   2.848   0.855   2.016  0.3364 -0.3457  0.1236
  665SOL    HW1 2658   2.799   0.889   1.933 -0.5656  0.6261  1.3750
  665SOL    HW2 2659   2.932   0.819   1.980 -1.1207 -1.3609  0.1015
  665SOL     MW 2660   2.853   0.855   2.000  0.0251 -0.3515  0.2858
  666SOL     OW 2661   2.759   2.999   1.716 -0.1154 -0.4609 -0.0040
  666SOL    HW1 2662   2.750   3.011   1.625  1.7788  3.3069  1.3242
  666SOL    HW2 2663   2.702   2.924   1.747 -1.6357  0.7167 -1.8355
  666SOL     MW 2664   2.750   2.991   1.708 -0.0661  0.1916 -0.0704
  667SOL     OW 2665   1.963   2.686   1.754 -0.8840  0.6967 -0.0404
  667SOL    HW1 2666   2.006   2.616   1.804  0.9445 -1.0173 -0.6140
  667SOL    HW2 2667   2.034   2.735   1.707 -0.8683  0.9124 -1.4954
  667SOL     MW 2668   1.978   2.683   1.754 -0.6407  0.4990 -0.3080
  668SOL     OW 2669   2.751   0.639   0.832 -0.0238  0.4619  0.5716
  668SOL    HW1 2670   2.791   0.641   0.921  1.1136  0.4908  1.0908
  668SOL    HW2 2671   2.680   0.705   0.836 -2.2812  2.5522  0.3847
  668SOL     MW 2672   2.747   0.648   0.844 -0.1716  0.7415  0.6155
  669SOL     OW 2673   0.235   0.964   0.680  0.1181  0.0487 -0.0969
  669SOL    HW1 2674   0.174   1.007   0.735  3.4560  0.7973 -2.1485
  669SOL    HW2 2675   0.317   0.982   0.736 -0.8373 -1.9000 -1.2240
  669SOL     MW 2676   0.238   0.972   0.695  0.4324 -0.1097 -0.5163
  670SOL     OW 2677   2.902   0.233   0.237  0.2863  0.0469 -0.4828
  670SOL    HW1 2678   2.920   0.174   0.160 -0.6925 -1.5520  2.2816
  670SOL    HW2 2679   2.956   0.309   0.217 -0.3668 -0.3396  0.7668
  670SOL     MW 2680   2.912   0.235   0.224  0.0709 -0.2151  0.0468
  671SOL     OW 2681   2.016   2.965   1.471 -0.6604  0.5100  0.6615
  671SOL    HW1 2682   1.958   3.001   1.404  2.4461  0.1341 -2.7297
  671SOL    HW2 2683   2.001   3.021   1.548  0.9499  0.8703  0.2082
  671SOL     MW 2684   2.006   2.977   1.472 -0.0380  0.5079  0.1542
  672SOL     OW 2685   1.916   1.667   1.312 -0.0370  0.0413 -0.2659
  672SOL    HW1 2686   1.828   1.688   1.338  0.1452 -0.4550  0.5442
  672SOL    HW2 2687   1.924   1.716   1.223 -0.2842  1.3769 -0.4384
  672SOL     MW 2688   1.906   1.676   1.304 -0.0456  0.1521 -0.1818
  673SOL     OW 2689   2.758   1.072   0.592  0.4682 -0.0794 -0.3374
  673SOL    HW1 2690   2.778   0.981   0.617  1.7412  1.5036 -0.9912
  673SOL    HW2 2691   2.842   1.120   0.612  2.3795 -0.0130  2.0666
  673SOL     MW 2692   2.772   1.066   0.598  0.8884  0.1382 -0.1065
  674SOL     OW 2693   2.433   0.049   1.302 -0.3626  0.2432  0.6504
  674SOL    HW1 2694   2.398   0.052   1.211  1.4078  1.4150  1.4203
  674SOL    HW2 2695   2.466  -0.039   1.320 -0.7327  1.3458  1.2628
  674SOL     MW 2696   2.433   0.038   1.293 -0.1778  0.5433  0.8328
  675SOL     OW 2697   3.042   0.872   1.057  0.4795  0.4583  0.1290
  675SOL    HW1 2698   3.126   0.885   1.103 -1.2358 -0.9520 -1.8982
  675SOL    HW2 2699   3.058   0.927   0.980  1.0312 -0.0219  1.7109
  675SOL     MW 2700   3.056   0.881   1.053  0.3260  0.2088  0.0703
  676SOL     OW 2701   2.864   1.498   1.656  0.4147  0.7220 -0.6076
  676SOL    HW1 2702   2.825   1.402   1.652 -3.1910 -2.5583  0.1622
  676SOL    HW2 2703   2.933   1.470   1.719  0.4134 -1.6547 -0.4610
  676SOL     MW 2704   2.868   1.481   1.663 -0.0612 -0.0244 -0.4867
  677SOL     OW 2705   2.400   0.603   1.970  0.1954 -0.5722  0.3684
  677SOL    HW1 2706   2.342   0.555   1.914 -1.5366  0.6207 -0.3344
  677SOL    HW2 2707   2.357   0.682   2.001  0.3374 -3.5211  0.8685
  677SOL     MW 2708   2.387   0.607   1.967 -0.0144 -0.8039  0.3417
  678SOL     OW 2709   2.530   1.648   0.340  1.2688 -0.1181 -0.7552
  678SOL    HW1 2710   2.447   1.703   0.356 -0.2010  1.5127  2.0309
  678SOL    HW2 2711   2.498   1.583   0.267 -1.0422 -2.8126 -0.3314
  678SOL     MW 2712   2.515   1.647   0.332  0.7699 -0.2584 -0.3317
  679SOL     OW 2713   2.251   0.489   1.222 -0.0358  0.1687  0.4959
  679SOL    HW1 2714   2.204   0.408   1.206  2.4734 -1.0774  0.1655
  679SOL    HW2 2715   2.186   0.557   1.207 -3.5766 -2.7813  0.2965
  679SOL     MW 2716   2.236   0.487   1.218 -0.1719 -0.3849  0.4260
  680SOL     OW 2717   2.350   0.188   1.520  0.6145  0.4652 -0.3398
  680SOL    HW1 2718   2.258   0.201   1.497  5.1726  1.7501  1.8636
  680SOL    HW2 2719   2.376   0.136   1.447 -1.2448  0.3490  2.1715
  680SOL     MW 2720   2.341   0.183   1.508  0.9706  0.6194  0.2822
  681SOL     OW 2721   0.293   0.583   1.572 -0.0093 -0.9507 -0.2707
  681SOL    HW1 2722   0.282   0.506   1.619 -0.9153  2.5208 -1.0150
  681SOL    HW2 2723   0.381   0.614   1.589 -0.4132 -1.1957  1.5494
  681SOL     MW 2724   0.303   0.577   1.580 -0.1821 -0.5250 -0.1287
  682SOL     OW 2725   0.080   2.893   1.487  0.0148 -0.0056  0.1130
  682SOL    HW1 2726   0.040   2.964   1.443 -0.8301 -0.9193  1.6531
  682SOL    HW2 2727   0.051   2.883   1.575 -0.0219 -0.2972 -0.2920
  682SOL     MW 2728   0.071   2.901   1.493 -0.1015 -0.1646  0.2628
  683SOL     OW 2729   2.054   0.859   2.982 -0.2220 -0.5421 -0.1800
  683SOL    HW1 2730   1.969   0.817   2.987 -1.0492 -1.3539  2.0843
  683SOL    HW2 2731   2.050   0.949   3.018 -0.1694 -0.4678 -2.7937
  683SOL     MW 2732   2.042   0.866   2.987 -0.3242 -0.6394 -0.2261
  684SOL     OW 2733   2.217   1.679   0.878 -0.2905 -0.5680 -0.2748
  684SOL    HW1 2734   2.166   1.612   0.838  3.2206 -0.3133  0.3393
  684SOL    HW2 2735   2.263   1.621   0.945  0.2587 -0.9002 -0.5399
  684SOL     MW 2736   2.216   1.663   0.881  0.2452 -0.5782 -0.2287
  685SOL     OW 2737   2.663   1.758   1.224 -0.1810 -0.0060 -0.0690
  685SOL    HW1 2738   2.691   1.714   1.308 -1.1622 -1.0324 -0.3744
  685SOL    HW2 2739   2.622   1.694   1.165 -0.7008  0.7544 -1.5128
  685SOL     MW 2740   2.661   1.744   1.228 -0.3790 -0.0411 -0.2998
  686SOL     OW 2741   2.910   0.768   1.519 -0.2609  0.4203 -0.8087
  686SOL    HW1 2742   2.900   0.715   1.597 -0.4542  0.3594 -2.4043
  686SOL    HW2 2743   2.998   0.746   1.491 -2.1405 -1.4371  1.1447
  686SOL     MW 2744   2.920   0.758   1.526 -0.5344  0.1672 -0.7615
  687SOL     OW 2745   2.104   0.223   1.133  0.2666  0.2612  0.5080
  687SOL    HW1 2746   2.130   0.150   1.077 -0.2900  0.1487 -1.2741
  687SOL    HW2 2747   2.021   0.242   1.093  1.4420 -3.3649 -0.4047
  687SOL     MW 2748   2.096   0.216   1.120  0.3483 -0.2321  0.1524
  688SOL     OW 2749   2.386   0.611   1.429 -0.1249 -0.5955  0.2099
  688SOL    HW1 2750   2.337   0.569   1.352  3.8633 -3.7024 -2.5112
  688SOL    HW2 2751   2.320   0.658   1.480  1.2342  0.4276 -1.6968
  688SOL     MW 2752   2.371   0.612   1.426  0.5806 -0.8704 -0.4007
  689SOL     OW 2753   2.545   0.737   2.977 -0.1472  0.0972  0.2004
  689SOL    HW1 2754   2.550   0.794   2.901  1.1714  0.0223  0.8902
  689SOL    HW2 2755   2.594   0.770   3.058 -3.8620  0.7567 -1.6549
  689SOL     MW 2756   2.552   0.749   2.978 -0.4634  0.1743  0.0466
  690SOL     OW 2757   2.059   0.951   1.925 -0.7820  0.8549 -0.2191
  690SOL    HW1 2758   2.015   0.859   1.916  0.0681 -0.6302 -3.4636
  690SOL    HW2 2759   2.099   0.961   1.840 -0.1844  0.5004 -1.3967
  690SOL     MW 2760   2.058   0.940   1.913 -0.5910  0.6122 -0.8026
  691SOL     OW 2761   2.421   0.276   0.883 -0.4448 -0.1342  0.3150
  691SOL    HW1 2762   2.498   0.333   0.898 -2.5116  2.3090  1.8438
  691SOL    HW2 2763   2.342   0.326   0.892 -0.3961  0.4338 -0.6514
  691SOL     MW 2764   2.421   0.290   0.886 -0.7110  0.2631  0.3892
  692SOL     OW 2765   2.777   1.690   1.455  0.5954  0.1641  0.0421
  692SOL    HW1 2766   2.781   1.613   1.515  0.5457 -0.7556  0.1652
  692SOL    HW2 2767   2.845   1.751   1.486 -1.6212  4.1828 -1.9891
  692SOL     MW 2768   2.787   1.688   1.467  0.2964  0.5730 -0.2096
  693SOL     OW 2769   2.265   0.435   0.090 -0.0417 -0.2697  0.1257
  693SOL    HW1 2770   2.203   0.375   0.041 -1.3883 -1.7033  0.4304
  693SOL    HW2 2771   2.257   0.518   0.033  0.9032 -2.2297  0.0763
  693SOL     MW 2772   2.256   0.438   0.076 -0.0947 -0.7174  0.1594
  694SOL     OW 2773   1.912   1.217   1.120  0.5816 -0.4598  0.0654
  694SOL    HW1 2774   2.007   1.226   1.138 -1.4925 -0.8150  0.9547
  694SOL    HW2 2775   1.875   1.155   1.183 -0.2658  1.6979 -1.9233
  694SOL     MW 2776   1.920   1.210   1.131  0.1961 -0.2220 -0.0796
  695SOL     OW 2777   3.020   1.482   1.363 -0.1018  0.0356 -0.1693
  695SOL    HW1 2778   2.994   1.438   1.284  0.0826  0.0606 -1.0141
  695SOL    HW2 2779   2.941   1.536   1.376 -2.0233  0.0965  0.3100
  695SOL     MW 2780   3.006   1.483   1.354 -0.3310  0.0470 -0.2175
  696SOL     OW 2781   2.151   1.384   0.883  0.3891  0.3260  0.2069
  696SOL    HW1 2782   2.206   1.423   0.947 -3.3015 -1.8589 -1.6397
  696SOL    HW2 2783   2.124   1.298   0.915  2.5286  1.1645  1.7609
  696SOL     MW 2784   2.155   1.378   0.895  0.1845  0.1483  0.1683
  697SOL     OW 2785   2.929   1.066   2.187 -0.2944 -0.5190 -0.2776
  697SOL    HW1 2786   2.854   1.125   2.192 -2.4446  2.6767 -1.0403
  697SOL    HW2 2787   2.900   0.989   2.140  2.7295  0.6063  2.4414
  697SOL     MW 2788   2.916   1.064   2.181 -0.1791  0.0511 -0.0195
  698SOL     OW 2789   2.542   0.296   0.036 -0.0487 -0.0369 -0.3163
  698SOL    HW1 2790   2.448   0.319   0.045 -0.0772 -0.9469 -1.8998
  698SOL    HW2 2791   2.575   0.233   0.109 -0.1067  0.1628 -0.6162
  698SOL     MW 2792   2.534   0.291   0.047 -0.0601 -0.1306 -0.5648
  699SOL     OW 2793   1.826   1.618   1.997 -0.6489 -0.0217  0.2061
  699SOL    HW1 2794   1.813   1.523   2.015  3.4647  0.7183  2.9197
  699SOL    HW2 2795   1.924   1.620   2.000  0.2688 -4.3451 -0.2429
  699SOL     MW 2796   1.837   1.606   2.000  0.0149 -0.4945  0.5049
  700SOL     OW 2797   2.707   0.939   1.486 -0.1949 -0.1593  0.2065
  700SOL    HW1 2798   2.777   0.990   1.443 -0.2228  0.2222  0.7676
  700SOL    HW2 2799   2.756   0.854   1.504  1.3666 -0.0307 -0.8444
  700SOL     MW 2800   2.722   0.934   1.483  0.0075 -0.0920  0.1419
  701SOL     OW 2801   1.620   1.208   2.477 -0.0628 -0.4600  0.2140
  701SOL    HW1 2802   1.714   1.229   2.469 -0.9999 -1.1146 -0.7203
  701SOL    HW2 2803   1.591   1.226   2.564  0.9214  0.9488  1.9670
  701SOL     MW 2804   1.628   1.213   2.487 -0.0566 -0.3605  0.3220
  702SOL     OW 2805   2.173   0.417   0.864 -0.7220 -0.0754 -0.3672
  702SOL    HW1 2806   2.155   0.338   0.804  0.2852 -0.0327 -0.1679
  702SOL    HW2 2807   2.203   0.495   0.816  0.2411  0.2071  0.3517
  702SOL     MW 2808   2.175   0.417   0.850 -0.4620 -0.0325 -0.2460
  703SOL     OW 2809   2.743   1.246   0.998  0.0475  0.4078 -0.1411
  703SOL    HW1 2810   2.697   1.240   0.914 -1.8544 -1.1177  3.1634
  703SOL    HW2 2811   2.752   1.154   1.028  1.0143 -2.8644  0.9697
  703SOL     MW 2812   2.738   1.233   0.991 -0.0758 -0.2252  0.4415
  704SOL     OW 2813   3.058   1.250   0.189 -0.0592 -0.2391 -0.3893
  704SOL    HW1 2814   2.982   1.205   0.145 -0.6220  0.2107  1.8133
  704SOL    HW2 2815   3.052   1.221   0.279 -2.4157 -1.2950  2.5755
  704SOL     MW 2816   3.047   1.241   0.195 -0.4444 -0.3191  0.2925
  705SOL     OW 2817   2.213   1.644   1.326 -0.4550 -0.0570  0.0883
  705SOL    HW1 2818   2.122   1.619   1.354  2.9690 -0.1034 -0.7691
  705SOL    HW2 2819   2.282   1.581   1.369  2.9466 -1.5308  1.4509
  705SOL     MW 2820   2.210   1.633   1.335  0.4455 -0.2576  0.1549
  706SOL     OW 2821   3.000   1.203   0.689  0.0327 -0.1645 -0.0233
  706SOL    HW1 2822   3.060   1.202   0.607  1.3836  2.7822 -0.7043
  706SOL    HW2 2823   2.975   1.296   0.697  0.1773 -2.3662  1.4102
  706SOL     MW 2824   3.004   1.215   0.679  0.2300 -0.0662  0.0760
  707SOL     OW 2825   2.431   0.016   1.011  0.0789  0.4136 -0.3784
  707SOL    HW1 2826   2.428   0.106   0.990 -1.5681 -1.6784  1.0349
  707SOL    HW2 2827   2.355  -0.021   0.967 -0.7106 -2.1728 -1.8433
  707SOL     MW 2828   2.421   0.023   1.002 -0.2426 -0.2037 -0.3852
  708SOL     OW 2829   2.491   1.467   0.148 -0.6238 -0.1578  0.5356
  708SOL    HW1 2830   2.573   1.420   0.154  0.3920 -0.9647  1.2408
  708SOL    HW2 2831   2.494   1.494   0.053  0.2686  0.6073 -1.7190
  708SOL     MW 2832   2.502   1.464   0.136 -0.3721 -0.1633  0.3312
  709SOL     OW 2833   1.759   1.616   0.172  0.1151 -0.5719  0.8569
  709SOL    HW1 2834   1.740   1.624   0.074 -0.5699 -0.8549 -3.2602
  709SOL    HW2 2835   1.681   1.659   0.209 -0.8209 -0.7479 -0.0365
  709SOL     MW 2836   1.746   1.622   0.164 -0.0987 -0.6324  0.1958
  710SOL     OW 2837   2.207   1.190   1.224  0.1827  1.2722 -0.8623
  710SOL    HW1 2838   2.263   1.150   1.156  0.7911  1.6626 -1.3822
  710SOL    HW2 2839   2.178   1.115   1.275  1.0268  0.5849  1.7388
  710SOL     MW 2840   2.211   1.175   1.222  0.3743  1.2330 -0.5877
  711SOL     OW 2841   2.344   0.118   1.794  0.0018  0.1060 -0.0629
  711SOL    HW1 2842   2.436   0.104   1.791  0.6657  0.8611  1.3606
  711SOL    HW2 2843   2.312   0.126   1.708 -2.0751 -2.1048  3.2397
  711SOL     MW 2844   2.352   0.117   1.782 -0.1846 -0.0861  0.5606
  712SOL     OW 2845   1.932   0.519   0.050  0.2704  0.0568 -0.0713
  712SOL    HW1 2846   1.882   0.593   0.030  0.0598 -0.7988  1.7749
  712SOL    HW2 2847   1.995   0.553   0.103  1.0043 -0.1460  1.6775
  712SOL     MW 2848   1.934   0.533   0.054  0.3395 -0.0829  0.4030
  713SOL     OW 2849   2.566   0.811   1.113 -0.3360  1.0479  0.1120
  713SOL    HW1 2850   2.557   0.713   1.132  0.1519 -1.6234 -3.8579
  713SOL    HW2 2851   2.509   0.840   1.185 -1.0638 -1.2871  2.0887
  713SOL     MW 2852   2.557   0.802   1.125 -0.3676  0.3874 -0.1510
  714SOL     OW 2853   2.203   0.228   1.996  0.3826  0.0977  0.4855
  714SOL    HW1 2854   2.234   0.184   2.074  0.7374 -0.6793 -3.8459
  714SOL    HW2 2855   2.267   0.203   1.927  2.3360  0.3691  0.0541
  714SOL     MW 2856   2.216   0.219   1.997  0.6872  0.0310 -0.1429
  715SOL     OW 2857   1.725   1.959   1.675  0.2125 -0.2346 -0.0183
  715SOL    HW1 2858   1.814   1.942   1.656 -0.9055  0.8192 -2.7883
  715SOL    HW2 2859   1.684   1.871   1.706 -2.2872  0.1281  1.4703
  715SOL     MW 2860   1.731   1.945   1.676 -0.2648 -0.0477 -0.1874
  716SOL     OW 2861   2.321   0.642   0.679 -0.0972 -0.2007 -0.2817
  716SOL    HW1 2862   2.373   0.573   0.639 -0.1495  0.0142 -1.5290
  716SOL    HW2 2863   2.243   0.659   0.623 -0.9166  1.3785 -0.4719
  716SOL     MW 2864   2.317   0.636   0.666 -0.2122  0.0360 -0.4713
  717SOL     OW 2865   2.886   1.525   2.936 -0.3156  0.5845  0.0525
  717SOL    HW1 2866   2.979   1.528   2.956 -0.2577  0.6235 -1.0996
  717SOL    HW2 2867   2.833   1.582   2.995 -0.8688 -0.8612  1.1807
  717SOL     MW 2868   2.891   1.533   2.946 -0.3810  0.3989  0.0493
  718SOL     OW 2869   2.642   1.396   1.331  0.4564  0.4252 -0.4707
  718SOL    HW1 2870   2.669   1.406   1.425  1.1838 -1.5541  1.7976
  718SOL    HW2 2871   2.699   1.323   1.305  1.7757 -1.9777 -1.0098
  718SOL     MW 2872   2.653   1.388   1.340  0.7265 -0.1530 -0.2425
  719SOL     OW 2873   2.192   1.308   0.614 -0.5171 -0.9192 -0.6142
  719SOL    HW1 2874   2.281   1.339   0.598  0.9010  1.0088  1.9710
  719SOL    HW2 2875   2.187   1.319   0.709  0.5982 -2.9446  0.9630
  719SOL     MW 2876   2.203   1.314   0.624 -0.1828 -0.9320 -0.0650
  720SOL     OW 2877   2.839   1.172   0.044 -0.7297  0.4658 -0.3899
  720SOL    HW1 2878   2.817   1.088   0.082  1.3075  0.1612  0.5952
  720SOL    HW2 2879   2.796   1.235   0.100 -4.0813  1.9065 -1.1415
  720SOL     MW 2880   2.831   1.170   0.056 -0.9031  0.6157 -0.3591
  721SOL     OW 2881   2.435   0.858   1.354 -0.1693  0.0841 -0.2518
  721SOL    HW1 2882   2.412   0.762   1.381  2.1419  0.9181  2.5879
  721SOL    HW2 2883   2.498   0.889   1.422  4.0669  1.0204 -0.7635
  721SOL     MW 2884   2.440   0.849   1.367  0.6946  0.3177  0.0554
  722SOL     OW 2885   2.572   1.169   0.375  0.5804  0.3674 -0.0208
  722SOL    HW1 2886   2.529   1.218   0.442 -0.7603 -2.6516  0.5528
  722SOL    HW2 2887   2.651   1.141   0.431 -2.6838 -0.4287  1.5760
  722SOL     MW 2888   2.577   1.171   0.392 -0.0272 -0.1360  0.2656
  723SOL     OW 2889   2.262   1.418   1.643 -0.1932 -0.3024 -0.3255
  723SOL    HW1 2890   2.242   1.404   1.548 -1.9313 -1.7462 -1.6395
  723SOL    HW2 2891   2.207   1.493   1.665  0.0200  1.3050 -3.1769
  723SOL     MW 2892   2.252   1.426   1.633 -0.3944 -0.2808 -0.8751
  724SOL     OW 2893   2.456   0.397   0.638 -0.3857 -0.0438  0.0534
  724SOL    HW1 2894   2.436   0.332   0.704  0.1225  2.1255  0.1217
  724SOL    HW2 2895   2.540   0.374   0.605 -1.1026  0.0442  1.2455
  724SOL     MW 2896   2.464   0.385   0.642 -0.4132  0.2540  0.2197
  725SOL     OW 2897   2.581   0.545   1.181 -0.0285 -0.1798 -0.2225
  725SOL    HW1 2898   2.645   0.548   1.264  0.0996  1.7716  1.1086
  725SOL    HW2 2899   2.491   0.508   1.201  0.2723 -1.9073 -0.2591
  725SOL     MW 2900   2.577   0.540   1.195  0.0281 -0.1502 -0.0517
  726SOL     OW 2901   2.607   2.447   0.529  0.5535  0.1398  0.3468
  726SOL    HW1 2902   2.534   2.493   0.491  0.5275 -3.1673 -0.4753
  726SOL    HW2 2903   2.562   2.373   0.578 -3.0323 -2.0901 -1.5387
  726SOL     MW 2904   2.592   2.444   0.530  0.0770 -0.5907 -0.0104
  727SOL     OW 2905   2.868   0.297   1.630  0.1742 -0.1117  0.3692
  727SOL    HW1 2906   2.844   0.294   1.540  0.4621 -0.4575 -0.5949
  727SOL    HW2 2907   2.786   0.313   1.675 -0.8219  0.9476 -1.2923
  727SOL     MW 2908   2.854   0.299   1.624  0.0807 -0.0176  0.0228
  728SOL     OW 2909   2.823   1.153   2.880 -0.0095  0.1559 -0.7355
  728SOL    HW1 2910   2.821   1.230   2.827  2.2022  0.5005 -0.9962
  728SOL    HW2 2911   2.816   1.175   2.977  0.0404 -0.5344 -2.4676
  728SOL     MW 2912   2.822   1.166   2.886  0.2889  0.1103 -0.9984
  729SOL     OW 2913   2.548   1.517   1.109  0.0870 -0.4042 -0.1309
  729SOL    HW1 2914   2.603   1.472   1.176 -0.0868  0.6356  2.0318
  729SOL    HW2 2915   2.588   1.505   1.016  1.3746 -0.1081  0.4019
  729SOL     MW 2916   2.560   1.509   1.105  0.2339 -0.2280  0.2247
  730SOL     OW 2917   2.143   1.179   0.211 -0.0232  0.0323 -0.7312
  730SOL    HW1 2918   2.240   1.163   0.223 -0.9376  0.0102 -2.4722
  730SOL    HW2 2919   2.127   1.268   0.238  0.1540 -0.2141  1.5103
  730SOL     MW 2920   2.154   1.188   0.216 -0.1205 -0.0032 -0.6651
  731SOL     OW 2921   2.844   1.917   2.863 -0.6531  0.0311  0.0115
  731SOL    HW1 2922   2.760   1.937   2.805 -1.6570  1.6974 -1.7137
  731SOL    HW2 2923   2.899   1.998   2.847  1.3136  0.2413 -2.3520
  731SOL     MW 2924   2.840   1.930   2.853 -0.5260  0.2787 -0.5279
  732SOL     OW 2925   2.168   0.962   1.373  0.3943 -0.5844 -0.4839
  732SOL    HW1 2926   2.140   0.989   1.464  0.0108  3.0461 -0.6664
  732SOL    HW2 2927   2.256   0.929   1.379  2.1613  1.4742 -1.2753
  732SOL     MW 2928   2.176   0.961   1.386  0.5768  0.1662 -0.6124
  733SOL     OW 2929   2.318   2.771   3.054  0.4532 -0.2660  0.5777
  733SOL    HW1 2930   2.228   2.799   3.054  0.2107  0.6537 -2.6047
  733SOL    HW2 2931   2.310   2.673   3.034  1.2083 -0.0651 -0.8768
  733SOL     MW 2932   2.305   2.762   3.051  0.5208 -0.1182 -0.0341
  734SOL     OW 2933   1.492   0.382   2.452 -0.9628 -0.2071 -0.0890
  734SOL    HW1 2934   1.487   0.341   2.537 -1.3071 -3.0617 -1.2925
  734SOL    HW2 2935   1.533   0.311   2.396  0.2749 -0.3873 -0.6239
  734SOL     MW 2936   1.496   0.367   2.456 -0.8450 -0.6075 -0.3184
  735SOL     OW 2937   2.934   0.942   2.589 -0.5761 -0.5657  0.0875
  735SOL    HW1 2938   2.937   0.842   2.579 -0.3793  0.0620  2.6164
  735SOL    HW2 2939   2.969   0.956   2.681  2.8009  1.1622  0.7604
  735SOL     MW 2940   2.939   0.930   2.600 -0.1045 -0.2549  0.5100
  736SOL     OW 2941   0.138   0.581   2.533 -0.1691 -0.3553 -0.3057
  736SOL    HW1 2942   0.177   0.656   2.482  2.0731  2.2335 -1.0998
  736SOL    HW2 2943   0.107   0.522   2.464 -0.7001  1.9671 -2.3316
  736SOL     MW 2944   0.139   0.583   2.518  0.0567  0.2927 -0.6778
  737SOL     OW 2945   2.959   0.653   2.564  0.1136 -0.6713 -0.6682
  737SOL    HW1 2946   2.897   0.622   2.498  2.1847 -1.2487 -2.7744
  737SOL    HW2 2947   3.052   0.630   2.549  2.1085  1.8439  0.1602
  737SOL     MW 2948   2.963   0.646   2.554  0.6501 -0.4156 -0.8368
  738SOL     OW 2949   0.243   0.570   1.888 -0.0152 -0.2288 -0.4557
  738SOL    HW1 2950   0.326   0.596   1.930 -0.5535  0.6626  2.2121
  738SOL    HW2 2951   0.258   0.482   1.850 -1.4344  1.1035  1.0022
  738SOL     MW 2952   0.256   0.562   1.889 -0.2735  0.0646  0.0886
  739SOL     OW 2953   2.412   1.048   2.118  0.3337  0.6572 -0.1544
  739SOL    HW1 2954   2.374   0.968   2.077 -1.9765  0.9588 -1.2748
  739SOL    HW2 2955   2.443   1.098   2.044  0.3510 -0.3396 -0.6814
  739SOL     MW 2956   2.411   1.044   2.103  0.0312  0.5655 -0.3718
  740SOL     OW 2957   0.238   1.775   2.976  0.7659 -0.0259 -0.5089
  740SOL    HW1 2958   0.197   1.687   2.976 -0.5116  1.0725 -0.6241
  740SOL    HW2 2959   0.333   1.772   3.000  1.6968  0.8992 -0.8200
  740SOL     MW 2960   0.245   1.763   2.979  0.7202  0.2411 -0.5651
  741SOL     OW 2961   2.267   1.275   2.722  0.0879 -0.1142  0.5701
  741SOL    HW1 2962   2.192   1.313   2.674  0.0538  0.0913 -3.1943
  741SOL    HW2 2963   2.271   1.307   2.817 -3.0779 -0.7678  1.9224
  741SOL     MW 2964   2.257   1.284   2.729 -0.3343 -0.1733  0.2519
  742SOL     OW 2965   1.557   1.257   2.200 -0.4293  0.1752  0.0247
  742SOL    HW1 2966   1.538   1.168   2.168 -2.9669  0.4522 -0.0850
  742SOL    HW2 2967   1.583   1.251   2.292  0.1320 -1.6280  1.4317
  742SOL     MW 2968   1.558   1.245   2.208 -0.6901 -0.0261  0.1959
  743SOL     OW 2969   2.526   1.262   2.798  0.0159  0.1696 -0.1534
  743SOL    HW1 2970   2.441   1.275   2.760  0.2381 -0.3520  0.7714
  743SOL    HW2 2971   2.532   1.157   2.807 -0.1496 -3.5838  1.6152
  743SOL     MW 2972   2.516   1.250   2.794  0.0234 -0.3944  0.2019
  744SOL     OW 2973   2.727   0.948   1.774 -0.3075 -0.1257 -0.2067
  744SOL    HW1 2974   2.657   1.008   1.815 -1.6323 -0.7541 -0.5481
  744SOL    HW2 2975   2.718   0.947   1.679 -1.3398  1.3468 -0.7966
  744SOL     MW 2976   2.717   0.956   1.767 -0.6185 -0.0144 -0.3296
  745SOL     OW 2977   1.755   0.417   2.520 -0.1563  0.1476  0.0069
  745SOL    HW1 2978   1.743   0.448   2.425  0.9280  3.7012  2.2227
  745SOL    HW2 2979   1.665   0.406   2.541  1.0068  1.8173 -1.1470
  745SOL     MW 2980   1.741   0.420   2.510  0.1402  0.8367  0.1470
  746SOL     OW 2981   1.498   1.419   1.642  0.8720 -0.2002 -0.4752
  746SOL    HW1 2982   1.567   1.486   1.650  2.3791 -0.2978  1.0800
  746SOL    HW2 2983   1.484   1.373   1.730 -1.1556  0.4618  1.1291
  746SOL     MW 2984   1.505   1.422   1.655  0.8033 -0.1257 -0.0583
  747SOL     OW 2985   2.522   1.146   1.858 -0.1674 -0.9025 -0.7277
  747SOL    HW1 2986   2.465   1.143   1.786 -0.5013  0.5914 -0.9989
  747SOL    HW2 2987   2.543   1.238   1.877 -0.2269 -2.4163  0.5126
  747SOL     MW 2988   2.518   1.158   1.851 -0.2193 -0.9052 -0.5998
  748SOL     OW 2989   0.110   0.075   1.814  0.4271 -0.0266  0.0218
  748SOL    HW1 2990   0.178   0.009   1.828 -1.3143 -0.6533 -0.4087
  748SOL    HW2 2991   0.103   0.117   1.896  2.1888 -0.5086 -0.3299
  748SOL     MW 2992   0.118   0.072   1.827  0.4298 -0.1729 -0.0814
  749SOL     OW 2993   2.403   0.543   2.798 -0.2003  0.5734  0.3345
  749SOL    HW1 2994   2.413   0.609   2.728 -1.3827  4.1049  0.4273
  749SOL    HW2 2995   2.471   0.555   2.860 -4.7450  0.2081 -1.3461
  749SOL     MW 2996   2.413   0.553   2.797 -0.9559  0.9912  0.1250
  750SOL     OW 2997   2.070   3.096   1.956 -0.2184 -0.3415  0.2793
  750SOL    HW1 2998   2.132   3.166   1.935 -0.0625 -2.8832 -0.3712
  750SOL    HW2 2999   2.134   3.017   1.944  3.0220 -1.3524  2.1282
  750SOL     MW 3000   2.087   3.095   1.952  0.2297 -0.8103  0.4374
  751SOL     OW 3001   0.021   0.428   2.311  0.0166  0.1710  0.0406
  751SOL    HW1 3002  -0.045   0.357   2.310 -1.4639 -1.1483  2.0187
  751SOL    HW2 3003   0.098   0.403   2.256 -0.2890 -0.8419  1.8336
  751SOL     MW 3004   0.023   0.415   2.304 -0.2190 -0.1367  0.5382
  752SOL     OW 3005   2.132   0.849   2.709 -0.4896 -0.4202  0.2018
  752SOL    HW1 3006   2.186   0.925   2.692 -0.9691  0.9212  2.7371
  752SOL    HW2 3007   2.083   0.867   2.788 -0.8807  0.0071 -0.8490
  752SOL     MW 3008   2.132   0.862   2.717 -0.6045 -0.1868  0.3977
  753SOL     OW 3009   2.876   0.299   2.322  0.4025 -0.5053  0.1986
  753SOL    HW1 3010   2.801   0.241   2.304 -2.0375  1.3464  1.0379
  753SOL    HW2 3011   2.832   0.384   2.341 -0.9269 -0.5122  0.0514
  753SOL     MW 3012   2.861   0.303   2.322 -0.0948 -0.2619  0.2899
  754SOL     OW 3013   2.234   3.008   2.686  0.4363 -0.5547  0.1760
  754SOL    HW1 3014   2.221   3.002   2.586  0.0811 -1.7290 -0.3731
  754SOL    HW2 3015   2.314   2.957   2.702 -1.0646  0.8471  0.3188
  754SOL     MW 3016   2.243   3.001   2.675  0.1914 -0.5247  0.1224
  755SOL     OW 3017   2.729   1.573   2.487 -0.8372  0.3428  0.0482
  755SOL    HW1 3018   2.732   1.524   2.568  2.0056 -3.0323 -1.8080
  755SOL    HW2 3019   2.791   1.640   2.513  0.5217  2.7980 -0.6378
  755SOL     MW 3020   2.737   1.575   2.501 -0.2828  0.2214 -0.2872
  756SOL     OW 3021   2.253   1.304   2.974  0.0988  0.6853 -0.4004
  756SOL    HW1 3022   2.322   1.363   3.003  0.9326 -1.9535  1.1929
  756SOL    HW2 3023   2.301   1.219   2.994  0.3328  0.6855  0.1524
  756SOL     MW 3024   2.268   1.301   2.980  0.2396  0.3372 -0.1173
  757SOL     OW 3025   2.105   0.971   1.622 -0.5804  0.7223  0.1863
  757SOL    HW1 3026   2.121   0.874   1.624  0.3376 -0.5475 -0.4635
  757SOL    HW2 3027   2.009   0.980   1.598 -0.4725  1.2396  1.4503
  757SOL     MW 3028   2.095   0.960   1.619 -0.4451  0.6230  0.2673
  758SOL     OW 3029   2.201   1.777   2.660 -0.1195  0.6800 -0.0515
  758SOL    HW1 3030   2.185   1.807   2.570 -0.1228  0.0032 -1.3902
  758SOL    HW2 3031   2.286   1.730   2.639 -1.9578 -0.9120 -1.4475
  758SOL     MW 3032   2.210   1.774   2.645 -0.3625  0.3807 -0.4123
  759SOL     OW 3033   1.570   1.330   2.734 -0.4378 -0.1731  0.0942
  759SOL    HW1 3034   1.588   1.421   2.705  0.3215 -0.6716 -2.4582
  759SOL    HW2 3035   1.626   1.314   2.805  2.7018  1.8810 -0.3547
  759SOL     MW 3036   1.580   1.340   2.739  0.0766  0.0321 -0.3018
  760SOL     OW 3037   2.615   1.945   2.728 -0.0113  0.1207  0.3894
  760SOL    HW1 3038   2.575   1.874   2.693  1.7493  1.7714 -0.0992
  760SOL    HW2 3039   2.669   1.982   2.656 -3.0711  4.9536 -1.4362
  760SOL     MW 3040   2.617   1.941   2.714 -0.1827  0.9761  0.0841
  761SOL     OW 3041   2.093   0.449   2.467 -0.2787 -0.8600  0.2837
  761SOL    HW1 3042   2.025   0.391   2.497 -0.0584  2.2831 -5.2049
  761SOL    HW2 3043   2.119   0.491   2.554  1.3821  1.2341  1.1775
  761SOL     MW 3044   2.087   0.447   2.482 -0.0305 -0.1690 -0.3225
  762SOL     OW 3045   0.010   0.196   2.057  0.2188  0.0957  0.3585
  762SOL    HW1 3046  -0.016   0.128   2.123 -1.7385 -1.5465 -0.2940
  762SOL    HW2 3047  -0.056   0.268   2.041 -0.8679  0.4287 -2.2814
  762SOL     MW 3048  -0.002   0.197   2.063 -0.1828 -0.0770 -0.0759
  763SOL     OW 3049   2.369   1.122   2.379 -0.3349 -0.9028 -0.0865
  763SOL    HW1 3050   2.407   1.086   2.300  1.4994 -0.2628  3.6479
  763SOL    HW2 3051   2.443   1.167   2.418  0.1548 -1.8550 -2.1426
  763SOL     MW 3052   2.384   1.123   2.374 -0.0283 -0.9440  0.1349
  764SOL     OW 3053   0.378   0.190   2.816  0.5699  0.0161 -0.8245
  764SOL    HW1 3054   0.317   0.199   2.742 -2.7151 -0.7651  0.5322
  764SOL    HW2 3055   0.363   0.269   2.873  0.9658  0.6047  0.2183
  764SOL     MW 3056   0.368   0.202   2.814  0.1887 -0.0093 -0.5079
  765SOL     OW 3057   2.670   0.087   2.286 -0.1893 -0.4677 -0.2670
  765SOL    HW1 3058   2.628   0.064   2.201 -1.0138 -1.2077  0.3685
  765SOL    HW2 3059   2.732   0.016   2.294 -0.9927  0.3206 -0.3057
  765SOL     MW 3060   2.673   0.074   2.276 -0.4041 -0.4613 -0.1883
  766SOL     OW 3061   1.862   3.033   2.127  0.1097  0.3345 -0.3073
  766SOL    HW1 3062   1.912   3.070   2.055  1.9661 -3.0572 -0.1743
  766SOL    HW2 3063   1.821   2.956   2.083  3.1030  0.6112 -1.8722
  766SOL     MW 3064   1.863   3.028   2.111  0.7495 -0.0765 -0.4962
  767SOL     OW 3065   2.688   0.664   1.913 -0.0873  0.0911  0.8295
  767SOL    HW1 3066   2.736   0.737   1.958  2.1198  0.9583  1.6141
  767SOL    HW2 3067   2.600   0.688   1.916 -0.8539 -0.0966 -2.0360
  767SOL     MW 3068   2.683   0.677   1.919  0.1027  0.1807  0.5550
  768SOL     OW 3069   0.068   1.534   2.976  0.3814 -0.3952  0.5142
  768SOL    HW1 3070   0.093   1.504   3.064  0.8747 -0.2196  0.1391
  768SOL    HW2 3071   0.107   1.479   2.914  2.1111 -0.0171  2.4502
  768SOL     MW 3072   0.076   1.523   2.979  0.6747 -0.3221  0.7201
  769SOL     OW 3073   2.344   0.665   2.338 -0.2728 -0.2400 -0.5028
  769SOL    HW1 3074   2.277   0.623   2.289 -1.8901 -1.0416 -0.5035
  769SOL    HW2 3075   2.420   0.639   2.286  0.0655  1.1678 -0.7446
  769SOL     MW 3076   2.345   0.656   2.324 -0.4416 -0.1600 -0.5348
  770SOL     OW 3077   0.035   1.666   2.610  0.6480  0.4187  0.3262
  770SOL    HW1 3078  -0.061   1.658   2.637 -0.4765  0.5084 -0.8418
  770SOL    HW2 3079   0.081   1.581   2.641 -2.6086  0.6716  0.4727
  770SOL     MW 3080   0.028   1.654   2.618  0.0699  0.4639  0.1914
  771SOL     OW 3081   3.062   0.678   1.948  0.3789  0.6467  0.4435
  771SOL    HW1 3082   3.038   0.642   1.853 -1.3584  2.9796 -2.6960
  771SOL    HW2 3083   3.150   0.654   1.965  0.9098  2.1568 -0.5613
  771SOL     MW 3084   3.070   0.670   1.938  0.2197  1.1538 -0.1033
  772SOL     OW 3085   3.090   0.019   2.283  0.5375 -0.1508 -0.4256
  772SOL    HW1 3086   3.005  -0.001   2.327 -2.0576 -1.1926  1.8776
  772SOL    HW2 3087   3.127  -0.059   2.239 -0.7200 -0.8577 -1.5469
  772SOL     MW 3088   3.084   0.006   2.283  0.0292 -0.3815 -0.2697
  773SOL     OW 3089   2.425   2.830   2.752 -0.5604 -0.2625 -0.0821
  773SOL    HW1 3090   2.422   2.741   2.709  1.4608  0.2692 -1.4890
  773SOL    HW2 3091   2.418   2.799   2.842 -0.9586 -1.0069  0.0173
  773SOL     MW 3092   2.424   2.814   2.759 -0.3462 -0.2906 -0.2546
  774SOL     OW 3093   2.288   1.162   1.738 -0.2084 -0.4352  0.0398
  774SOL    HW1 3094   2.274   1.252   1.700  0.7970  3.3874  3.8149
  774SOL    HW2 3095   2.230   1.104   1.694 -1.7451 -0.7923 -0.9623
  774SOL     MW 3096   2.279   1.166   1.727 -0.2785  0.0220  0.4056
  775SOL     OW 3097   2.228   3.020   2.399 -0.0839 -0.0319 -0.2145
  775SOL    HW1 3098   2.248   3.104   2.356 -2.0805  2.0306  1.8981
  775SOL    HW2 3099   2.304   2.963   2.379 -1.1169 -2.0352  0.2477
  775SOL     MW 3100   2.241   3.024   2.391 -0.4836 -0.0241  0.1252
  776SOL     OW 3101   0.141   1.451   0.140 -0.2999 -0.4050 -0.1549
  776SOL    HW1 3102   0.221   1.393   0.122 -1.5194 -0.7959 -0.7185
  776SOL    HW2 3103   0.081   1.387   0.175 -0.3162 -0.0537 -2.6556
  776SOL     MW 3104   0.144   1.435   0.142 -0.4629 -0.4102 -0.5592
  777SOL     OW 3105   3.009   1.071   1.706  0.1480 -0.1372 -0.0814
  777SOL    HW1 3106   2.992   1.150   1.650 -0.4917 -0.6800 -1.3534
  777SOL    HW2 3107   2.928   1.022   1.732  0.3802 -1.4007 -2.1461
  777SOL     MW 3108   2.996   1.075   1.702  0.0943 -0.3755 -0.5216
  778SOL     OW 3109   2.848   0.439   2.758  0.2234 -0.0264  0.1528
  778SOL    HW1 3110   2.802   0.456   2.841  2.6625 -0.5160 -2.4143
  778SOL    HW2 3111   2.890   0.517   2.717  2.4127  0.6885 -1.4097
  778SOL     MW 3112   2.848   0.451   2.764  0.8340  0.0033 -0.3921
  779SOL     OW 3113   2.090   0.554   2.229  0.1139  0.2745  0.3689
  779SOL    HW1 3114   2.025   0.618   2.217 -0.4220  1.4729 -2.9042
  779SOL    HW2 3115   2.075   0.506   2.309 -4.1045 -0.3141  1.4177
  779SOL     MW 3116   2.080   0.556   2.238 -0.5134  0.3549  0.0754
  780SOL     OW 3117   0.097   0.218   2.745 -0.5570 -0.1935  0.7577
  780SOL    HW1 3118   0.082   0.222   2.839 -2.1211 -4.3966  2.8130
  780SOL    HW2 3119   0.017   0.235   2.695 -0.1354  0.8111  0.9838
  780SOL     MW 3120   0.085   0.220   2.750 -0.7077 -0.6155  1.0587
  781SOL     OW 3121   3.037   1.319   2.518  0.2632 -0.2140  0.4769
  781SOL    HW1 3122   3.030   1.361   2.430  0.3744  2.2058  1.2998
  781SOL    HW2 3123   3.065   1.230   2.501  2.2328  0.8234 -0.0129
  781SOL     MW 3124   3.040   1.313   2.504  0.5377  0.2422  0.5208
  782SOL     OW 3125   0.719   1.490   3.093  0.7099 -0.8029 -0.1579
  782SOL    HW1 3126   0.675   1.580   3.103  0.8031  2.0564 -1.7242
  782SOL    HW2 3127   0.780   1.483   3.175  0.8647 -0.5852 -0.4170
  782SOL     MW 3128   0.722   1.501   3.105  0.7426 -0.3969 -0.3987
  783SOL     OW 3129   2.732   0.512   2.404 -0.0381 -0.3461 -0.5567
  783SOL    HW1 3130   2.673   0.498   2.330  1.4273  0.0303 -0.8250
  783SOL    HW2 3131   2.680   0.478   2.480  1.6997 -2.2652 -0.9279
  783SOL     MW 3132   2.717   0.506   2.405  0.3845 -0.5497 -0.6411
  784SOL     OW 3133   0.175   0.834   2.791 -0.2004  0.2109  1.0135
  784SOL    HW1 3134   0.083   0.854   2.769 -2.9765 -4.3443 -0.7895
  784SOL    HW2 3135   0.233   0.885   2.724  1.1338  0.9587 -2.4917
  784SOL     MW 3136   0.171   0.843   2.779 -0.3906 -0.2914  0.3132
  785SOL     OW 3137   0.410   0.512   2.179 -0.2043 -0.2935  0.2207
  785SOL    HW1 3138   0.460   0.547   2.105 -0.1140 -0.2494 -0.6509
  785SOL    HW2 3139   0.337   0.470   2.140  2.0566 -0.7964 -1.8169
  785SOL     MW 3140   0.407   0.511   2.164  0.1059 -0.3540 -0.1631
  786SOL     OW 3141   1.977   0.331   2.937  0.0784  0.5776  0.2080
  786SOL    HW1 3142   1.972   0.400   2.999  1.5928 -0.9045  2.4467
  786SOL    HW2 3143   2.007   0.367   2.853 -0.5606  4.6069  1.7062
  786SOL     MW 3144   1.980   0.345   2.934  0.1939  0.9137  0.7010
  787SOL     OW 3145   2.411   0.202   2.899 -0.0827 -0.0029 -0.5723
  787SOL    HW1 3146   2.471   0.129   2.873  2.0549 -0.4912 -0.2308
  787SOL    HW2 3147   2.454   0.237   2.975  0.0212  0.6937  3.0641
  787SOL     MW 3148   2.424   0.197   2.906  0.2130  0.0246 -0.0474
  788SOL     OW 3149   2.857   3.009   2.353 -0.2679  0.1156  0.8070
  788SOL    HW1 3150   2.846   3.005   2.447 -2.9947  1.9665 -0.2040
  788SOL    HW2 3151   2.908   2.927   2.354  2.1222  0.1393 -1.4106
  788SOL     MW 3152   2.862   2.998   2.366 -0.3123  0.3630  0.3810
  789SOL     OW 3153   0.084   0.190   3.044  0.1195  0.8212 -0.3197
  789SOL    HW1 3154   0.004   0.130   3.048 -2.3503  0.9459 -1.3286
  789SOL    HW2 3155   0.044   0.277   3.023 -1.1683  2.3159  1.3338
  789SOL     MW 3156   0.068   0.193   3.041 -0.3762  1.0348 -0.2347
  790SOL     OW 3157   3.104   1.070   2.428  0.3920  0.3362  0.2169
  790SOL    HW1 3158   3.040   1.017   2.482  0.0020 -1.0580  4.7719
  790SOL    HW2 3159   3.070   1.082   2.338 -0.7126  0.9366  0.5516
  790SOL     MW 3160   3.091   1.064   2.423  0.1948  0.2314  0.8620
  791SOL     OW 3161   2.598   0.406   2.645  0.2623 -0.1333 -0.0601
  791SOL    HW1 3162   2.522   0.441   2.682  1.8924 -0.6652 -0.5379
  791SOL    HW2 3163   2.669   0.419   2.712 -0.6774  1.9893  0.0014
  791SOL     MW 3164   2.597   0.413   2.658  0.3534  0.0766 -0.1150
  792SOL     OW 3165   2.351   0.358   2.393  0.3313  0.3657 -0.2585
  792SOL    HW1 3166   2.258   0.357   2.407  0.2084  0.0771 -0.8453
  792SOL    HW2 3167   2.370   0.286   2.448 -4.1660  1.3741  1.9733
  792SOL     MW 3168   2.341   0.348   2.402 -0.2783  0.4607 -0.0414
  793SOL     OW 3169   1.862   1.132   1.956 -0.7861 -0.6751  0.3671
  793SOL    HW1 3170   1.817   1.155   1.868  0.0942 -1.9087 -1.5774
  793SOL    HW2 3171   1.926   1.058   1.941  1.9119 -0.9917 -0.5974
  793SOL     MW 3172   1.864   1.125   1.942 -0.3140 -0.8797 -0.0167
  794SOL     OW 3173   1.423   2.278   0.137  0.0882 -0.6059  0.0480
  794SOL    HW1 3174   1.446   2.324   0.052 -1.5585  1.6560 -2.7272
  794SOL    HW2 3175   1.483   2.311   0.206 -0.9236 -1.6530 -2.0827
  794SOL     MW 3176   1.434   2.289   0.135 -0.2626 -0.4457 -0.5993
  795SOL     OW 3177   2.334   1.034   2.630  0.2748 -0.2327 -0.3962
  795SOL    HW1 3178   2.289   1.114   2.672 -0.0168 -0.2699  0.9754
  795SOL    HW2 3179   2.351   1.073   2.540  0.3820 -0.3326 -1.9275
  795SOL     MW 3180   2.330   1.049   2.624  0.2505 -0.2508 -0.4173
  796SOL     OW 3181   0.306   0.587   2.781  0.1392  0.0904 -0.5564
  796SOL    HW1 3182   0.284   0.682   2.775  0.1732 -2.1754 -4.3457
  796SOL    HW2 3183   0.256   0.551   2.709 -3.7994  0.2984  0.9917
  796SOL     MW 3184   0.296   0.595   2.770 -0.3760 -0.1811 -0.8521
  797SOL     OW 3185   2.618   0.116   2.568 -0.2280 -0.2548 -0.5588
  797SOL    HW1 3186   2.603   0.202   2.583  0.7560 -3.8348 -1.7702
  797SOL    HW2 3187   2.634   0.124   2.470 -1.2190  2.2385 -2.7260
  797SOL     MW 3188   2.618   0.128   2.557 -0.2289 -0.3982 -1.0046
  798SOL     OW 3189   2.294   0.129   2.241 -0.2578 -0.4260 -0.0332
  798SOL    HW1 3190   2.325   0.206   2.294 -1.0523  0.9631  0.9468
  798SOL    HW2 3191   2.371   0.091   2.197  1.0602 -2.3723  0.6808
  798SOL     MW 3192   2.309   0.134   2.242 -0.1887 -0.4995  0.1903
  799SOL     OW 3193   2.545   2.958   3.077 -0.5182  0.2217 -0.0797
  799SOL    HW1 3194   2.477   2.888   3.070  1.4243 -1.4755 -0.2846
  799SOL    HW2 3195   2.500   3.044   3.094  0.7737  1.6170  1.8705
  799SOL     MW 3196   2.530   2.960   3.078 -0.0915  0.1819  0.1506
  800SOL     OW 3197   1.950   3.094   1.702 -0.4980  0.0291 -0.0205
  800SOL    HW1 3198   1.873   3.034   1.707 -2.0907  0.1101 -0.4653
  800SOL    HW2 3199   1.987   3.101   1.785 -0.4084  2.2208 -0.5940
  800SOL     MW 3200   1.945   3.087   1.714 -0.6963  0.3289 -0.1548
  801SOL     OW 3201   2.781   1.298   2.628 -0.1668  0.0232 -0.4086
  801SOL    HW1 3202   2.759   1.209   2.651 -1.3934  3.1841 -0.3913
  801SOL    HW2 3203   2.866   1.306   2.576  1.2176  0.5554  0.1891
  801SOL     MW 3204   2.790   1.288   2.624 -0.1460  0.5105 -0.3274
  802SOL     OW 3205   2.634   1.522   2.744 -0.2770 -0.0926 -0.4420
  802SOL    HW1 3206   2.635   1.422   2.743  0.3353 -0.0506 -0.8570
  802SOL    HW2 3207   2.688   1.557   2.812  0.4389 -0.8800  1.5149
  802SOL     MW 3208   2.641   1.514   2.753 -0.1018 -0.1909 -0.2385
  803SOL     OW 3209   2.283   1.339   1.992 -1.0102  0.3210  0.2504
  803SOL    HW1 3210   2.251   1.291   2.076 -1.0694 -2.9879  1.1829
  803SOL    HW2 3211   2.262   1.278   1.921  1.4844 -0.1603  0.8059
  803SOL     MW 3212   2.276   1.324   1.994 -0.6889 -0.1791  0.4467
  804SOL     OW 3213   2.305   0.051   3.082 -0.1009  0.0417 -0.4394
  804SOL    HW1 3214   2.229   0.110   3.119 -0.5670  2.9300  0.2242
  804SOL    HW2 3215   2.340   0.103   3.009 -0.4618 -0.8536 -1.0324
  804SOL     MW 3216   2.299   0.066   3.077 -0.2100  0.3046 -0.4301
  805SOL     OW 3217   2.673   1.029   2.587 -0.0914 -0.0690 -0.2652
  805SOL    HW1 3218   2.686   1.092   2.516 -2.3748  0.1149 -0.4581
  805SOL    HW2 3219   2.764   0.987   2.595  0.5714  0.3446  2.2309
  805SOL     MW 3220   2.687   1.032   2.579 -0.3052  0.0098  0.0387
  806SOL     OW 3221   2.528   0.469   2.213 -0.1554 -0.0808  0.3863
  806SOL    HW1 3222   2.468   0.434   2.280 -1.8355 -0.1514  1.3214
  806SOL    HW2 3223   2.473   0.460   2.134 -1.3864 -2.1280  3.7614
  806SOL     MW 3224   2.513   0.463   2.211 -0.5395 -0.3602  0.9550
  807SOL     OW 3225   0.042   1.135   1.996  0.3916 -0.7497  0.5570
  807SOL    HW1 3226   0.050   1.050   1.953 -1.4187 -0.2870  0.7515
  807SOL    HW2 3227  -0.026   1.109   2.064 -1.7689 -3.7958  2.7228
  807SOL     MW 3228   0.035   1.121   1.999 -0.1323 -1.0905  0.8684
  808SOL     OW 3229   2.549   3.083   2.793 -0.5482  0.8150 -0.1225
  808SOL    HW1 3230   2.524   2.988   2.780 -0.7974  1.0732 -0.9362
  808SOL    HW2 3231   2.576   3.116   2.704  1.9498 -0.6486 -1.7458
  808SOL     MW 3232   2.549   3.075   2.780 -0.2515  0.6560 -0.4441
  809SOL     OW 3233   2.574   1.291   2.414  0.0189 -0.1428 -0.3589
  809SOL    HW1 3234   2.619   1.364   2.448 -1.1068 -1.7385  0.1477
  809SOL    HW2 3235   2.609   1.280   2.324  1.4475  0.9880 -1.1056
  809SOL     MW 3236   2.585   1.299   2.407  0.0589 -0.2041 -0.3906
  810SOL     OW 3237   2.201   1.283   2.232  0.2473  0.0775 -0.5119
  810SOL    HW1 3238   2.263   1.226   2.286  1.0599 -0.1754  1.8156
  810SOL    HW2 3239   2.126   1.223   2.215  0.3093 -0.1349 -0.4008
  810SOL     MW 3240   2.199   1.268   2.236  0.3627  0.0161 -0.1901
  811SOL     OW 3241   1.551   0.147   2.317 -0.2635  0.0369 -0.1897
  811SOL    HW1 3242   1.598   0.086   2.368 -0.6236  1.9111  1.1767
  811SOL    HW2 3243   1.556   0.109   2.224 -1.9346  1.7343 -1.7634
  811SOL     MW 3244   1.558   0.134   2.312 -0.5315  0.5082 -0.2170
  812SOL     OW 3245   1.486   2.880   2.102  0.4849  0.1000  0.3862
  812SOL    HW1 3246   1.565   2.872   2.048 -3.3333 -0.2854  1.1797
  812SOL    HW2 3247   1.500   2.823   2.174  0.6608  0.3159 -1.6250
  812SOL     MW 3248   1.498   2.871   2.104  0.0043  0.0777  0.2255
  813SOL     OW 3249   1.881   0.727   2.176 -0.4392 -0.6065 -0.3117
  813SOL    HW1 3250   1.817   0.663   2.194  2.7463  0.7892 -2.8443
  813SOL    HW2 3251   1.901   0.766   2.264  1.8339 -1.9096  1.4271
  813SOL     MW 3252   1.875   0.724   2.190  0.2811 -0.5943 -0.4164
  814SOL     OW 3253   2.731   1.272   1.600 -0.0286  0.2500  0.1975
  814SOL    HW1 3254   2.660   1.227   1.642 -0.8402 -0.8923  2.5197
  814SOL    HW2 3255   2.759   1.222   1.525  3.5996 -1.2452 -1.7261
  814SOL     MW 3256   2.726   1.259   1.595  0.3430 -0.0980  0.2501
  815SOL     OW 3257   2.506   1.679   2.332 -0.1226 -0.6398 -0.1708
  815SOL    HW1 3258   2.435   1.613   2.327 -4.9383 -1.5823 -2.6578
  815SOL    HW2 3259   2.587   1.629   2.312 -2.1952  1.7411 -1.4596
  815SOL     MW 3260   2.508   1.663   2.328 -1.0314 -0.4500 -0.6690
  816SOL     OW 3261   0.781   0.671   2.772  0.1798  0.6097  0.4414
  816SOL    HW1 3262   0.782   0.587   2.813 -0.1277  0.2499  1.2127
  816SOL    HW2 3263   0.701   0.676   2.713 -0.1814 -0.4186  0.7646
  816SOL     MW 3264   0.770   0.660   2.770  0.0915  0.4265  0.5858
  817SOL     OW 3265   3.062   1.244   1.499  0.7922  0.8584 -0.0270
  817SOL    HW1 3266   3.141   1.216   1.542  0.8247  0.4222  0.9349
  817SOL    HW2 3267   3.057   1.340   1.490 -0.9843 -2.4887 -0.1812
  817SOL     MW 3268   3.071   1.253   1.503  0.5621  0.3593  0.0796
  818SOL     OW 3269   1.919   1.039   2.663  0.1876  0.4764  0.2840
  818SOL    HW1 3270   1.857   1.024   2.590 -0.0457 -0.1041 -0.0642
  818SOL    HW2 3271   1.972   0.960   2.663 -0.1566 -0.9608  1.5570
  818SOL     MW 3272   1.918   1.027   2.653  0.1114  0.2102  0.4060
  819SOL     OW 3273   1.905   0.208   2.466 -0.0128  0.3836  0.3890
  819SOL    HW1 3274   1.844   0.285   2.481  1.2178 -1.5090 -3.2776
  819SOL    HW2 3275   1.964   0.200   2.541  0.0661 -0.2141 -1.9362
  819SOL     MW 3276   1.905   0.217   2.478  0.1600  0.0551 -0.4015
  820SOL     OW 3277   2.472   1.706   2.617 -0.1268 -0.5395 -0.1496
  820SOL    HW1 3278   2.509   1.643   2.684  0.6642  0.8491 -0.3789
  820SOL    HW2 3279   2.506   1.678   2.533 -0.2648 -0.2482 -0.6212
  820SOL     MW 3280   2.482   1.694   2.615 -0.0406 -0.3178 -0.2421
  821SOL     OW 3281   2.560   1.399   1.972  0.2732 -0.2148 -0.2172
  821SOL    HW1 3282   2.589   1.469   1.903  0.0914 -1.9549 -3.5641
  821SOL    HW2 3283   2.469   1.376   1.963  0.8880  2.9881 -0.9265
  821SOL     MW 3284   2.552   1.405   1.962  0.3303 -0.0218 -0.7524
  822SOL     OW 3285   2.734   2.634   1.464  0.1055 -0.0328  0.8819
  822SOL    HW1 3286   2.805   2.640   1.532  0.8947 -0.6305 -1.4488
  822SOL    HW2 3287   2.691   2.716   1.466  3.3030 -1.6713 -0.2333
  822SOL     MW 3288   2.737   2.645   1.473  0.6315 -0.3279  0.4273
  823SOL     OW 3289   2.257   0.514   1.744  0.2349  0.1452 -0.4809
  823SOL    HW1 3290   2.342   0.486   1.703  0.0966  1.2613  0.1673
  823SOL    HW2 3291   2.197   0.443   1.731  0.7667 -0.0939  2.7108
  823SOL     MW 3292   2.261   0.501   1.737  0.2868  0.2609  0.0258
  824SOL     OW 3293   2.097   1.408   2.572  0.3116 -0.1287  0.1058
  824SOL    HW1 3294   2.161   1.442   2.506  1.6284  0.5341  1.8822
  824SOL    HW2 3295   2.070   1.480   2.628  0.0164 -1.4920  1.0796
  824SOL     MW 3296   2.102   1.422   2.570  0.4464 -0.2211  0.4687
  825SOL     OW 3297   1.981   2.568   0.277  0.2881  0.0830 -0.0246
  825SOL    HW1 3298   1.979   2.519   0.360 -0.2826  0.9377  0.9182
  825SOL    HW2 3299   2.042   2.514   0.223 -1.7718 -3.5667 -2.0537
  825SOL     MW 3300   1.989   2.555   0.281 -0.0590 -0.2857 -0.1679
  826SOL     OW 3301   1.897   2.391   0.501 -0.0068 -0.0527 -0.3040
  826SOL    HW1 3302   1.859   2.319   0.561  1.8752 -2.9809  1.1559
  826SOL    HW2 3303   1.845   2.462   0.540  0.0019 -0.0443  0.5790
  826SOL     MW 3304   1.885   2.391   0.514  0.2427 -0.4379  0.0051
  827SOL     OW 3305   1.919   2.230   0.935  0.3236 -0.1808  0.5499
  827SOL    HW1 3306   1.874   2.312   0.910 -1.4261  0.1263 -1.2196
  827SOL    HW2 3307   1.845   2.187   0.964 -0.9333  2.8451 -1.3678
  827SOL     MW 3308   1.903   2.235   0.935 -0.0731  0.2589  0.0634
  828SOL     OW 3309   0.043   2.611   0.565  0.1722  0.4431 -0.4067
  828SOL    HW1 3310   0.136   2.625   0.560 -0.4335  0.1098 -1.4849
  828SOL    HW2 3311   0.006   2.640   0.481 -2.5551 -1.8928  2.1278
  828SOL     MW 3312   0.051   2.617   0.553 -0.2676  0.0909 -0.2146
  829SOL     OW 3313   2.909   2.949   1.221  0.0032 -0.2809  0.5787
  829SOL    HW1 3314   2.833   2.922   1.167  0.0808  1.1539 -1.0516
  829SOL    HW2 3315   2.950   2.866   1.245  0.8268 -0.5289 -0.8062
  829SOL     MW 3316   2.905   2.934   1.217  0.1221 -0.1243  0.1808
  830SOL     OW 3317   2.500   2.860   2.023 -0.2842 -0.0227 -0.6763
  830SOL    HW1 3318   2.418   2.854   1.975 -0.2751  3.2020 -0.0708
  830SOL    HW2 3319   2.568   2.836   1.955 -1.8633  1.7818 -1.1812
  830SOL     MW 3320   2.498   2.856   2.008 -0.4913  0.6408 -0.6630
  831SOL     OW 3321   2.405   2.426   1.318  0.1495 -0.7081  0.2644
  831SOL    HW1 3322   2.363   2.367   1.382  1.6661  0.2084 -1.0515
  831SOL    HW2 3323   2.497   2.390   1.301  0.1864  3.7975 -1.8054
  831SOL     MW 3324   2.412   2.414   1.324  0.3545  0.0073 -0.1824
  832SOL     OW 3325   2.418   2.188   1.911 -0.1663  0.3379  0.1229
  832SOL    HW1 3326   2.454   2.263   1.964 -1.6633 -2.3006  2.2059
  832SOL    HW2 3327   2.500   2.150   1.878  0.9323 -1.8884  1.3330
  832SOL     MW 3328   2.434   2.193   1.914 -0.2189 -0.3040  0.5574
  833SOL     OW 3329   1.783   2.456   0.892 -0.4392  0.4001  0.0129
  833SOL    HW1 3330   1.703   2.408   0.899  3.8965  1.2767  2.2212
  833SOL    HW2 3331   1.792   2.509   0.974 -0.2422 -4.2507 -1.9357
  833SOL     MW 3332   1.773   2.456   0.903  0.1589 -0.0978  0.0471
  834SOL     OW 3333   2.216   2.492   0.586  0.4487  0.2415  0.2176
  834SOL    HW1 3334   2.175   2.420   0.626  1.4452  0.1609  1.4870
  834SOL    HW2 3335   2.248   2.453   0.508 -1.0126 -5.2014  1.7878
  834SOL     MW 3336   2.215   2.477   0.581  0.3874 -0.4873  0.5923
  835SOL     OW 3337   1.783   2.574   0.633 -0.6942  0.0487  0.5746
  835SOL    HW1 3338   1.758   2.537   0.717 -1.3248  0.6286 -2.4315
  835SOL    HW2 3339   1.854   2.641   0.656  0.9035  1.6381  1.5477
  835SOL     MW 3340   1.789   2.578   0.647 -0.5666  0.3349  0.3064
  836SOL     OW 3341   1.929   2.207   1.608 -0.1809  0.0864  0.2122
  836SOL    HW1 3342   1.994   2.205   1.681  0.8018  1.4015 -0.3497
  836SOL    HW2 3343   1.856   2.262   1.643 -2.6656 -3.0533  0.7506
  836SOL     MW 3344   1.928   2.214   1.622 -0.3791 -0.1543  0.2091
  837SOL     OW 3345   2.143   0.199   0.689  0.3339  0.2219 -0.4438
  837SOL    HW1 3346   2.064   0.237   0.659  0.1385 -4.5031  0.1217
  837SOL    HW2 3347   2.165   0.134   0.619  1.8096 -2.7340 -1.4144
  837SOL     MW 3348   2.135   0.195   0.676  0.5028 -0.7915 -0.4972
  838SOL     OW 3349   2.935   2.153   0.870  0.2928 -0.3226 -0.5374
  838SOL    HW1 3350   2.876   2.105   0.934  1.2678 -0.5760  1.4532
  838SOL    HW2 3351   2.970   2.086   0.815 -2.6686 -0.2288 -1.2716
  838SOL     MW 3352   2.932   2.138   0.871  0.0307 -0.3437 -0.3716
  839SOL     OW 3353   1.554   2.334   0.943  0.1386  0.1099 -0.4948
  839SOL    HW1 3354   1.540   2.428   0.962 -0.9425  0.9989 -0.9729
  839SOL    HW2 3355   1.551   2.284   1.029  0.2596  2.9844  0.9568
  839SOL     MW 3356   1.552   2.339   0.957  0.0119  0.6065 -0.3663
  840SOL     OW 3357   2.292   2.118   2.401  0.0050 -0.1540 -0.2462
  840SOL    HW1 3358   2.268   2.179   2.326 -2.7956  1.0356 -1.6132
  840SOL    HW2 3359   2.345   2.161   2.470  0.8251  3.6562 -1.3235
  840SOL     MW 3360   2.295   2.132   2.400 -0.2563  0.5057 -0.5687
  841SOL     OW 3361   2.143   2.442   0.106  0.8153  0.2079 -0.1056
  841SOL    HW1 3362   2.169   2.464   0.019  0.4607  0.9058  0.4646
  841SOL    HW2 3363   2.085   2.362   0.106  0.9024 -0.8947 -2.1708
  841SOL     MW 3364   2.139   2.434   0.095  0.7800  0.1545 -0.3029
  842SOL     OW 3365   2.685   1.926   1.593 -0.2168  0.6611  0.0452
  842SOL    HW1 3366   2.652   1.838   1.583  2.5297  0.8924  0.4287
  842SOL    HW2 3367   2.636   1.978   1.530 -2.3497 -0.2688 -1.9718
  842SOL     MW 3368   2.674   1.922   1.583 -0.1359  0.5689 -0.1703
  843SOL     OW 3369   2.621   2.754   1.785  0.6947  0.3135  0.3369
  843SOL    HW1 3370   2.697   2.706   1.753 -0.6687  1.9727 -2.3449
  843SOL    HW2 3371   2.557   2.684   1.756 -1.8100  0.8830  0.6100
  843SOL     MW 3372   2.623   2.738   1.777  0.1844  0.6075  0.0191
  844SOL     OW 3373   2.616   2.282   1.212 -0.0484 -0.4440  0.4802
  844SOL    HW1 3374   2.651   2.295   1.119  0.5441 -1.2556 -2.6291
  844SOL    HW2 3375   2.698   2.294   1.272 -0.1406 -0.3711 -1.5903
  844SOL     MW 3376   2.632   2.285   1.208  0.0176 -0.5415 -0.2032
  845SOL     OW 3377   2.848   2.444   0.317  0.0958 -0.3474  0.0484
  845SOL    HW1 3378   2.804   2.360   0.324 -0.1716 -0.8449 -0.6339
  845SOL    HW2 3379   2.853   2.476   0.405 -2.8757  2.0332  0.8892
  845SOL     MW 3380   2.843   2.437   0.330 -0.3315 -0.0989  0.0693
  846SOL     OW 3381   1.520   2.868   0.762  0.3074 -0.1910 -0.1187
  846SOL    HW1 3382   1.599   2.912   0.791 -2.8958  1.5415 -0.2245
  846SOL    HW2 3383   1.453   2.910   0.821 -1.9884 -0.6293  0.6411
  846SOL     MW 3384   1.522   2.879   0.774 -0.4182 -0.0202 -0.0324
  847SOL     OW 3385   2.522   1.886   0.153 -0.3574 -0.3147  0.1688
  847SOL    HW1 3386   2.564   1.825   0.221 -0.9435 -0.1768 -0.3787
  847SOL    HW2 3387   2.445   1.843   0.112 -2.1948 -2.0520 -0.3785
  847SOL     MW 3388   2.518   1.872   0.156 -0.6772 -0.5257  0.0243
  848SOL     OW 3389   2.543   2.060   1.406 -0.1931 -0.4498  0.1564
  848SOL    HW1 3390   2.581   2.107   1.330 -1.8348  2.4808 -0.5931
  848SOL    HW2 3391   2.508   1.980   1.363  1.4682 -0.1294 -4.6134
  848SOL     MW 3392   2.544   2.056   1.390 -0.1905 -0.0208 -0.5718
  849SOL     OW 3393   1.989   2.742   0.734  0.1902  0.5924 -0.6861
  849SOL    HW1 3394   2.034   2.704   0.813 -1.3708  0.7073  2.4970
  849SOL    HW2 3395   2.064   2.749   0.674 -1.3910  0.0779  1.7051
  849SOL     MW 3396   2.005   2.738   0.737 -0.2243  0.5397  0.0493
  850SOL     OW 3397   2.227   1.937   1.629  0.4606 -0.3000  0.4548
  850SOL    HW1 3398   2.142   1.904   1.599 -1.5364 -0.2782  2.8514
  850SOL    HW2 3399   2.203   2.024   1.662  0.4361  0.9340  0.2152
  850SOL     MW 3400   2.213   1.944   1.630  0.1939 -0.1343  0.7394
  851SOL     OW 3401   2.280   2.405   0.338  0.1040  0.1529 -0.0669
  851SOL    HW1 3402   2.246   2.410   0.246 -0.0823  0.0531  1.3050
  851SOL    HW2 3403   2.349   2.483   0.338 -0.2272 -2.3238  1.6640
  851SOL     MW 3404   2.285   2.416   0.326  0.0357 -0.1870  0.3425
  852SOL     OW 3405   2.372   2.127   0.306 -0.0498 -0.7387  0.0921
  852SOL    HW1 3406   2.339   2.215   0.324 -1.1852 -1.1795 -0.0029
  852SOL    HW2 3407   2.440   2.127   0.243 -3.9605 -0.5152  2.1932
  852SOL     MW 3408   2.377   2.139   0.300 -0.7156 -0.7674  0.3568
  853SOL     OW 3409   2.497   2.438   1.996  0.2900 -0.1010 -0.1754
  853SOL    HW1 3410   2.505   2.465   1.901 -1.4213 -0.0467  1.0761
  853SOL    HW2 3411   2.586   2.418   2.028 -3.5076  1.1133  0.4488
  853SOL     MW 3412   2.510   2.439   1.987 -0.4368  0.0664  0.0720
  854SOL     OW 3413   2.818   2.360   0.753  0.0598  0.2878  0.1184
  854SOL    HW1 3414   2.748   2.311   0.712 -1.1459 -0.4144 -0.6227
  854SOL    HW2 3415   2.860   2.288   0.805 -2.5530 -0.8911  1.7528
  854SOL     MW 3416   2.814   2.344   0.754 -0.4440  0.0396  0.2363
  855SOL     OW 3417   2.702   2.226   0.396  0.0650  0.5327 -0.2078
  855SOL    HW1 3418   2.660   2.278   0.468  0.3291 -0.6056  0.0957
  855SOL    HW2 3419   2.781   2.171   0.414  3.5674  0.2831 -0.8257
  855SOL     MW 3420   2.707   2.226   0.408  0.5620  0.3496 -0.2493
  856SOL     OW 3421   2.200   1.942   0.168 -0.0206 -0.1869 -0.4137
  856SOL    HW1 3422   2.112   1.943   0.207 -0.9478  1.7313  0.3450
  856SOL    HW2 3423   2.249   1.996   0.232  0.9577  1.2369 -0.9567
  856SOL     MW 3424   2.195   1.950   0.182 -0.0139  0.2540 -0.3853
  857SOL     OW 3425   2.607   2.008   0.487 -0.6162 -0.2630 -0.0448
  857SOL    HW1 3426   2.622   2.100   0.447  0.8790 -0.8635 -2.2100
  857SOL    HW2 3427   2.544   1.969   0.431  1.4761  3.3735  4.7788
  857SOL     MW 3428   2.601   2.015   0.474 -0.1429  0.1376  0.3060
  858SOL     OW 3429   2.871   2.656   1.700  0.7369 -0.2302  0.4885
  858SOL    HW1 3430   2.956   2.697   1.698 -1.7735  0.0496 -0.7418
  858SOL    HW2 3431   2.874   2.580   1.751  0.2135 -1.3041 -0.3710
  858SOL     MW 3432   2.882   2.652   1.707  0.3366 -0.3350  0.2128
  859SOL     OW 3433   2.136   2.570   0.914 -0.8479 -0.2220  0.5899
  859SOL    HW1 3434   2.136   2.504   0.987  0.6928  0.8688 -0.5253
  859SOL    HW2 3435   2.222   2.560   0.877 -0.7123  0.9872  0.6816
  859SOL     MW 3436   2.147   2.560   0.919 -0.6267  0.0815  0.4549
  860SOL     OW 3437   2.671   2.594   0.174  0.3750 -0.2981 -0.2438
  860SOL    HW1 3438   2.746   2.570   0.228 -3.0059  2.2307 -0.5030
  860SOL    HW2 3439   2.701   2.668   0.125  0.7931  0.2245  2.7812
  860SOL     MW 3440   2.685   2.601   0.175 -0.0159  0.1045  0.1211
  861SOL     OW 3441   1.558   2.152   1.153  0.1971 -0.1826  0.4732
  861SOL    HW1 3442   1.574   2.211   1.224  0.6707  1.0335 -0.3837
  861SOL    HW2 3443   1.496   2.092   1.191  0.2939 -0.0946 -0.5745
  861SOL     MW 3444   1.552   2.152   1.167  0.2723 -0.0105  0.2219
  862SOL     OW 3445   2.431   1.782   1.549  0.7471 -0.4547  0.0615
  862SOL    HW1 3446   2.367   1.825   1.606 -2.0667  0.3653  0.4176
  862SOL    HW2 3447   2.400   1.816   1.464 -3.5910  2.4382 -0.0653
  862SOL     MW 3448   2.419   1.792   1.545 -0.1965  0.0352  0.0917
  863SOL     OW 3449   3.021   1.830   1.049 -0.0433 -0.6657  0.2544
  863SOL    HW1 3450   3.106   1.800   1.073 -1.3707 -2.6759 -0.6233
  863SOL    HW2 3451   3.012   1.903   1.112  0.6253  0.2989  0.5352
  863SOL     MW 3452   3.031   1.836   1.060 -0.1302 -0.8036  0.1756
  864SOL     OW 3453   3.066   1.923   0.798 -0.1834  0.3880  0.5253
  864SOL    HW1 3454   3.036   1.896   0.886 -2.0493 -3.6763 -1.4949
  864SOL    HW2 3455   3.035   1.853   0.734 -1.8605  0.4521  0.9606
  864SOL     MW 3456   3.058   1.910   0.801 -0.6508 -0.1398  0.3162
  865SOL     OW 3457   2.615   2.138   3.103  0.0597  0.4914 -0.0447
  865SOL    HW1 3458   2.657   2.057   3.122 -0.8044  1.2479  0.6306
  865SOL    HW2 3459   2.559   2.124   3.026 -0.0999  0.5749  0.8744
  865SOL     MW 3460   2.613   2.126   3.095 -0.0754  0.6022  0.1656
  866SOL     OW 3461   2.691   2.319   1.634  0.0482  0.4060  0.4577
  866SOL    HW1 3462   2.705   2.231   1.668  1.7881 -0.1106 -0.7655
  866SOL    HW2 3463   2.722   2.317   1.538 -2.9715 -3.1237 -1.3526
  866SOL     MW 3464   2.697   2.307   1.626 -0.1207 -0.1278  0.0575
  867SOL     OW 3465   0.022   2.710   1.801  0.1661  0.4418  0.0131
  867SOL    HW1 3466   0.046   2.687   1.891  2.0503  0.3615  2.3585
  867SOL    HW2 3467  -0.010   2.801   1.805  0.5935 -0.7464 -0.2357
  867SOL     MW 3468   0.021   2.719   1.813  0.4711  0.2744  0.2897
  868SOL     OW 3469   2.827   2.587   0.556  0.0925 -0.3857 -0.2746
  868SOL    HW1 3470   2.745   2.535   0.566 -0.7548 -0.3083  0.0373
  868SOL    HW2 3471   2.805   2.658   0.492 -0.0081 -0.9525  0.6787
  868SOL     MW 3472   2.813   2.589   0.549 -0.0325 -0.4502 -0.1076
  869SOL     OW 3473   2.084   2.370   1.173  0.9126 -0.0720 -0.4784
  869SOL    HW1 3474   2.175   2.362   1.140  0.3984 -1.3974  0.5991
  869SOL    HW2 3475   2.029   2.342   1.100  0.3802  2.2744  0.6907
  869SOL     MW 3476   2.088   2.365   1.159  0.7745  0.0627 -0.1820
  870SOL     OW 3477   2.155   0.010   0.474 -0.0833  0.3896  0.2333
  870SOL    HW1 3478   2.234   0.038   0.428  1.9100  1.0899 -1.8761
  870SOL    HW2 3479   2.179  -0.080   0.490 -0.6911  1.4728  1.8766
  870SOL     MW 3480   2.169   0.002   0.470  0.0995  0.6249  0.1718
  871SOL     OW 3481   2.483   2.133   0.946 -0.1792  0.3538 -0.2506
  871SOL    HW1 3482   2.433   2.049   0.931  1.2399  1.3493  1.0636
  871SOL    HW2 3483   2.421   2.202   0.981  0.7020  0.3650  0.7993
  871SOL     MW 3484   2.468   2.131   0.948  0.1243  0.4867  0.0613
  872SOL     OW 3485   2.004   2.561   1.525 -0.6106 -0.0241 -0.0183
  872SOL    HW1 3486   1.971   2.583   1.614 -1.2801  0.7767 -0.4256
  872SOL    HW2 3487   1.950   2.489   1.490 -0.0338 -2.1282  2.1090
  872SOL     MW 3488   1.992   2.554   1.532 -0.6228 -0.1961  0.2086
  873SOL     OW 3489   2.929   2.065   1.912 -0.5154  0.1225  0.2369
  873SOL    HW1 3490   2.946   2.096   2.001 -0.9679 -1.0036  0.4888
  873SOL    HW2 3491   3.007   2.088   1.862  2.4056  0.2375 -1.7059
  873SOL     MW 3492   2.942   2.072   1.917 -0.1897 -0.0109  0.0138
  874SOL     OW 3493   2.272   1.485   2.378 -0.3794  0.1062  0.5164
  874SOL    HW1 3494   2.247   1.410   2.311  1.1372  0.0622  2.0347
  874SOL    HW2 3495   2.341   1.440   2.425  0.8010  0.0290 -1.2735
  874SOL     MW 3496   2.277   1.469   2.376 -0.0235  0.0902  0.4806
  875SOL     OW 3497   2.331   2.326   1.061  0.0526 -0.1743  0.0205
  875SOL    HW1 3498   2.364   2.401   1.003 -1.3184 -0.7238 -1.5547
  875SOL    HW2 3499   2.390   2.349   1.132 -0.3554  1.2994 -1.4821
  875SOL     MW 3500   2.343   2.339   1.063 -0.1821 -0.0524 -0.3856
  876SOL     OW 3501   3.015   2.314   1.238 -0.0301 -0.4412  0.3282
  876SOL    HW1 3502   3.028   2.365   1.157 -1.2906  1.0793 -1.4447
  876SOL    HW2 3503   3.066   2.356   1.309 -0.3174 -2.1405  0.0053
  876SOL     MW 3504   3.024   2.326   1.237 -0.2343 -0.4648  0.0517
  877SOL     OW 3505   3.037   2.698   0.349 -0.0100  0.6122 -0.0108
  877SOL    HW1 3506   3.101   2.769   0.351 -2.2148  1.7146 -1.0258
  877SOL    HW2 3507   3.046   2.663   0.263  1.1940 -2.8498  1.6194
  877SOL     MW 3508   3.046   2.702   0.338 -0.1420  0.3008  0.0704
  878SOL     OW 3509   2.399   1.837   1.258  0.0061 -0.3824  0.5802
  878SOL    HW1 3510   2.329   1.771   1.270  0.1880 -2.4404  3.0455
  878SOL    HW2 3511   2.483   1.792   1.238  4.1967  2.1418 -3.6940
  878SOL     MW 3512   2.401   1.822   1.257  0.5830 -0.3209  0.3416
  879SOL     OW 3513   2.664   2.413   0.959  0.4334  0.0358  0.2004
  879SOL    HW1 3514   2.709   2.496   0.977  0.1746  0.4759  0.9567
  879SOL    HW2 3515   2.713   2.386   0.883  0.7926  1.4915  3.0965
  879SOL     MW 3516   2.677   2.420   0.951  0.4467  0.2859  0.6823
  880SOL     OW 3517   2.603   2.204   0.689  0.7223  0.0282 -0.1954
  880SOL    HW1 3518   2.550   2.176   0.776  1.8345  0.2940  4.3335
  880SOL    HW2 3519   2.588   2.127   0.630 -1.7335 -0.5095  1.8964
  880SOL     MW 3520   2.594   2.190   0.693  0.5450 -0.0077  0.6782
  881SOL     OW 3521   2.960   2.735   0.787  0.6240  0.4818 -0.0239
  881SOL    HW1 3522   2.937   2.679   0.711  0.2640 -4.3316 -0.0371
  881SOL    HW2 3523   3.048   2.702   0.807 -1.5477 -0.0214  2.2987
  881SOL     MW 3524   2.969   2.723   0.780  0.2900 -0.2197  0.2808
  882SOL     OW 3525   2.243   2.897   1.928  0.0197  0.0670 -0.2377
  882SOL    HW1 3526   2.215   2.883   1.835 -1.3764  1.7791 -0.8027
  882SOL    HW2 3527   2.212   2.823   1.976  0.1686  4.0529 -0.4080
  882SOL     MW 3528   2.235   2.886   1.922 -0.1449  0.8188 -0.3347
  883SOL     OW 3529   2.294   2.230   1.480  0.1512 -0.6994 -0.2125
  883SOL    HW1 3530   2.380   2.181   1.479  0.1091  0.9584 -0.0013
  883SOL    HW2 3531   2.234   2.194   1.414  1.0137  0.4145 -0.1871
  883SOL     MW 3532   2.298   2.219   1.471  0.2595 -0.3337 -0.1813
  884SOL     OW 3533   1.958   1.809   1.082  0.2804 -0.8654 -0.7960
  884SOL    HW1 3534   1.897   1.882   1.055  0.9370 -0.7169 -0.9268
  884SOL    HW2 3535   2.044   1.863   1.075  0.1969  1.6744 -0.3641
  884SOL     MW 3536   1.962   1.826   1.077  0.3560 -0.5107 -0.7563
  885SOL     OW 3537   2.868   2.397   1.851  0.2409 -0.1535  0.0434
  885SOL    HW1 3538   2.951   2.352   1.827  0.3903 -0.4912  0.2228
  885SOL    HW2 3539   2.808   2.359   1.786  1.6731  1.8603 -1.2212
  885SOL     MW 3540   2.871   2.386   1.839  0.4495  0.0676 -0.0998
  886SOL     OW 3541   2.800   2.344   1.394  0.1749 -0.1653  0.0632
  886SOL    HW1 3542   2.878   2.339   1.338  1.4129  2.5203  0.6327
  886SOL    HW2 3543   2.800   2.435   1.423  1.0735 -0.5008  2.2969
  886SOL     MW 3544   2.810   2.355   1.391  0.4568  0.1448  0.4330
  887SOL     OW 3545   2.276   2.617   1.513 -0.6190  0.6333 -0.4456
  887SOL    HW1 3546   2.302   2.628   1.421 -1.5285  1.0550 -1.8729
  887SOL    HW2 3547   2.183   2.580   1.517 -2.5037  1.0853 -1.5075
  887SOL     MW 3548   2.267   2.614   1.501 -0.9877  0.7486 -0.7741
  888SOL     OW 3549   1.883   2.049   1.387  0.7241 -0.1959  0.1339
  888SOL    HW1 3550   1.967   2.070   1.346  2.0742  2.5550  1.8590
  888SOL    HW2 3551   1.900   2.070   1.482  1.3880  0.8725  0.2750
  888SOL     MW 3552   1.896   2.055   1.394  0.9898  0.3080  0.3801
  889SOL     OW 3553   2.306   2.017   2.103 -0.2228  0.4419 -0.1867
  889SOL    HW1 3554   2.395   2.016   2.141 -0.4066  1.4499 -2.3632
  889SOL    HW2 3555   2.315   2.102   2.069  1.1324 -1.8232  0.7151
  889SOL     MW 3556   2.319   2.028   2.104 -0.0682  0.2760 -0.3548
  890SOL     OW 3557   0.124   2.346   0.131 -0.2299 -0.3935 -0.1347
  890SOL    HW1 3558   0.085   2.436   0.123  0.7806 -0.5429 -2.5465
  890SOL    HW2 3559   0.080   2.319   0.218 -0.4623 -0.2912  0.2563
  890SOL     MW 3560   0.113   2.354   0.141 -0.1272 -0.3997 -0.4013
  891SOL     OW 3561   3.033   2.023   1.289 -0.2580 -0.6783 -0.4144
  891SOL    HW1 3562   3.118   2.009   1.329 -1.2050 -1.5646 -0.8825
  891SOL    HW2 3563   3.014   2.117   1.267 -1.2898  0.7609  0.6260
  891SOL     MW 3564   3.042   2.033   1.291 -0.5191 -0.6053 -0.3389
  892SOL     OW 3565   2.425   2.379   2.794 -0.5246  0.1567 -0.2876
  892SOL    HW1 3566   2.425   2.284   2.812  2.6682 -0.2901  2.4127
  892SOL    HW2 3567   2.523   2.402   2.812  2.8554 -1.9847 -1.0010
  892SOL     MW 3568   2.438   2.369   2.798  0.3426 -0.1848 -0.0254
  893SOL     OW 3569   1.590   2.384   1.311  0.0553 -0.1138  0.4943
  893SOL    HW1 3570   1.533   2.448   1.348  2.0625 -0.5842 -0.2764
  893SOL    HW2 3571   1.679   2.386   1.342 -0.1792 -1.6013  1.0059
  893SOL     MW 3572   1.594   2.392   1.320  0.2892 -0.3721  0.4601
  894SOL     OW 3573   2.839   1.841   0.480  0.2220  0.8945  0.8589
  894SOL    HW1 3574   2.764   1.899   0.503  1.2747 -2.6857 -1.5793
  894SOL    HW2 3575   2.825   1.805   0.393 -1.9473 -1.3574  0.0506
  894SOL     MW 3576   2.827   1.844   0.472  0.0747  0.1250  0.4306
  895SOL     OW 3577   2.127   2.129   1.293 -0.2716 -0.9884  0.0511
  895SOL    HW1 3578   2.123   2.209   1.244 -2.1606 -1.8144 -2.2487
  895SOL    HW2 3579   2.150   2.067   1.224  2.4315  3.0520  2.1431
  895SOL     MW 3580   2.129   2.132   1.277 -0.1642 -0.5643  0.0237
  896SOL     OW 3581   2.173   2.786   1.093  0.2895 -0.1485 -0.0323
  896SOL    HW1 3582   2.239   2.761   1.159  1.5105 -0.4250  2.0441
  896SOL    HW2 3583   2.145   2.706   1.037  0.0523  0.4397  0.0078
  896SOL     MW 3584   2.178   2.773   1.095  0.4193 -0.1074  0.2469
  897SOL     OW 3585   3.004   2.885   0.105  0.1802 -0.1159 -0.6271
  897SOL    HW1 3586   3.058   2.881   0.020  2.0655 -1.5754  0.0611
  897SOL    HW2 3587   2.932   2.826   0.070  3.4461  1.3764 -0.2237
  897SOL     MW 3588   3.002   2.876   0.089  0.8598 -0.1115 -0.4831
  898SOL     OW 3589   2.087   0.150   1.400 -0.0979  0.1220  0.0616
  898SOL    HW1 3590   2.061   0.055   1.390  0.8850 -2.0102 -0.5740
  898SOL    HW2 3591   2.093   0.183   1.310  0.3999  0.6842  1.8198
  898SOL     MW 3592   2.085   0.142   1.387  0.0975 -0.0851  0.2097
  899SOL     OW 3593   2.927   2.954   0.631  0.1187  0.8285  0.0715
  899SOL    HW1 3594   2.940   2.885   0.697 -1.4038  3.0462  1.3910
  899SOL    HW2 3595   2.845   2.989   0.656 -0.7020  0.3194 -2.9345
  899SOL     MW 3596   2.918   2.950   0.643 -0.1905  1.0540 -0.1510
  900SOL     OW 3597   0.101   2.428   1.043  0.1239 -0.3228  0.6848
  900SOL    HW1 3598   0.061   2.495   0.992 -1.6149 -1.3109  2.1292
  900SOL    HW2 3599   0.101   2.351   0.983  2.4574  1.1058  2.5194
  900SOL     MW 3600   0.096   2.427   1.028  0.2024 -0.2647  1.1175
  901SOL     OW 3601   1.769   2.907   1.687  0.5354  0.1626  0.6601
  901SOL    HW1 3602   1.828   2.829   1.676 -0.3750 -0.0893  0.3880
  901SOL    HW2 3603   1.697   2.885   1.624 -0.6307 -1.5281  1.7690
  901SOL     MW 3604   1.767   2.894   1.677  0.2614 -0.0937  0.7705
  902SOL     OW 3605   2.681   2.102   1.805  0.6988  0.3718 -0.0278
  902SOL    HW1 3606   2.667   2.020   1.756  0.8777 -1.6389 -1.8018
  902SOL    HW2 3607   2.766   2.100   1.856  1.6797 -1.1286 -0.2717
  902SOL     MW 3608   2.690   2.091   1.805  0.8518 -0.0915 -0.2941
  903SOL     OW 3609   1.591   2.771   0.508 -0.3045  0.4155  0.0400
  903SOL    HW1 3610   1.643   2.686   0.526  1.3870 -0.8175 -0.9919
  903SOL    HW2 3611   1.545   2.803   0.589  1.7101 -0.7878 -0.7185
  903SOL     MW 3612   1.592   2.764   0.521  0.1845  0.0940 -0.1962
  904SOL     OW 3613   2.494   2.512   1.725 -0.0618  0.5224 -0.0532
  904SOL    HW1 3614   2.429   2.521   1.661 -0.4792 -1.3652  2.0472
  904SOL    HW2 3615   2.542   2.438   1.696  0.2176  0.7165  1.2377
  904SOL     MW 3616   2.492   2.504   1.712 -0.0801  0.2990  0.3942
  905SOL     OW 3617   2.318   2.576   2.169  0.0439 -0.0889  0.3273
  905SOL    HW1 3618   2.379   2.558   2.100 -0.2367  2.5085 -0.3499
  905SOL    HW2 3619   2.289   2.485   2.188  0.3354 -3.0302  0.1784
  905SOL     MW 3620   2.323   2.562   2.162  0.0453 -0.1343  0.2183
  906SOL     OW 3621   2.429   2.515   0.908  0.2807 -0.4110 -0.4024
  906SOL    HW1 3622   2.526   2.480   0.917  0.2620  0.3138 -0.1513
  906SOL    HW2 3623   2.443   2.599   0.872 -1.4498  1.2614  0.1744
  906SOL     MW 3624   2.444   2.522   0.904  0.0499 -0.0947 -0.2932
  907SOL     OW 3625   2.590   2.863   1.322  0.4321 -0.7135  0.4794
  907SOL    HW1 3626   2.652   2.918   1.369 -1.0159 -0.6643  2.5064
  907SOL    HW2 3627   2.622   2.854   1.233 -0.0869  1.8149 -0.5419
  907SOL     MW 3628   2.603   2.869   1.317  0.1726 -0.3734  0.6121
  908SOL     OW 3629   2.734   2.389   0.005 -0.5456  0.1526  0.0254
  908SOL    HW1 3630   2.677   2.305  -0.002  0.5227  0.7678  1.2923
  908SOL    HW2 3631   2.685   2.463   0.049  0.4088 -0.0738 -2.3901
  908SOL     MW 3632   2.720   2.388   0.010 -0.2787  0.2039 -0.1262
  909SOL     OW 3633   1.714   0.167   1.147  0.1460 -0.6881  0.0931
  909SOL    HW1 3634   1.685   0.237   1.082  1.6791 -0.7832  0.0581
  909SOL    HW2 3635   1.803   0.153   1.139 -0.1327 -1.0376 -0.3815
  909SOL     MW 3636   1.722   0.174   1.138  0.3115 -0.7468  0.0259
  910SOL     OW 3637   2.320   1.806   0.377  0.4860  0.7110  0.0711
  910SOL    HW1 3638   2.273   1.729   0.417  0.1700  0.5846  1.0228
  910SOL    HW2 3639   2.274   1.822   0.294  0.1156 -1.3290  0.7952
  910SOL     MW 3640   2.308   1.798   0.371  0.3954  0.4252  0.2922
  911SOL     OW 3641   2.188   2.221   1.749  0.7397  0.3432  0.2729
  911SOL    HW1 3642   2.260   2.213   1.812  2.7038  1.3337 -2.9326
  911SOL    HW2 3643   2.224   2.235   1.663 -4.1227  0.6698 -0.2840
  911SOL     MW 3644   2.202   2.222   1.746  0.3573  0.5170 -0.2235
  912SOL     OW 3645   2.943   1.902   1.530  0.4832  0.4428 -0.2387
  912SOL    HW1 3646   2.962   1.932   1.435  1.3279  1.1777  1.8911
  912SOL    HW2 3647   2.847   1.929   1.551 -0.8586  0.7338 -2.7351
  912SOL     MW 3648   2.933   1.909   1.520  0.4176  0.5781 -0.2871
  913SOL     OW 3649   2.569   3.004   0.380 -0.3010  0.4998  0.0307
  913SOL    HW1 3650   2.639   2.939   0.376 -0.3381  1.1075  4.6436
  913SOL    HW2 3651   2.480   2.959   0.370  0.0909 -1.0427  2.1627
  913SOL     MW 3652   2.566   2.989   0.378 -0.2542  0.3765  0.9206
  914SOL     OW 3653   2.739   1.727   3.065 -0.7164 -0.1574 -0.0723
  914SOL    HW1 3654   2.785   1.792   3.004 -3.9498  1.3501 -2.9503
  914SOL    HW2 3655   2.653   1.753   3.041  3.1688  2.4205  3.0197
  914SOL     MW 3656   2.734   1.739   3.054 -0.6304  0.3816 -0.0440
  915SOL     OW 3657   1.724   0.233   0.235 -0.2234 -0.3957 -0.0465
  915SOL    HW1 3658   1.792   0.201   0.289 -0.7835  0.3671 -2.7950
  915SOL    HW2 3659   1.651   0.173   0.231  0.5674  1.2413 -0.1569
  915SOL     MW 3660   1.723   0.221   0.242 -0.1930 -0.0791 -0.4237
  916SOL     OW 3661   1.810   2.063   1.920  0.3601 -0.2181  0.1501
  916SOL    HW1 3662   1.823   2.159   1.918  1.6966  0.8262  1.7660
  916SOL    HW2 3663   1.781   2.032   1.833  0.1498  2.9905 -1.4035
  916SOL     MW 3664   1.808   2.071   1.909  0.5087  0.3431  0.1583
  917SOL     OW 3665   2.477   2.237   2.564  0.9512 -0.5436  0.0529
  917SOL    HW1 3666   2.460   2.305   2.628  1.5412 -0.8814 -0.3116
  917SOL    HW2 3667   2.534   2.279   2.502 -0.0498 -2.1773 -0.2305
  917SOL     MW 3668   2.482   2.251   2.565  0.8969 -0.8037 -0.0326
  918SOL     OW 3669   1.973   1.625   2.704 -0.5191 -0.4662  0.6604
  918SOL    HW1 3670   1.909   1.663   2.643 -0.9976 -0.8929  1.5617
  918SOL    HW2 3671   2.056   1.669   2.697 -1.5413  2.7234 -1.5695
  918SOL     MW 3672   1.976   1.636   2.695 -0.7171 -0.1017  0.4851
  919SOL     OW 3673   0.053   2.317   2.267 -0.9584 -0.1371 -0.4477
  919SOL    HW1 3674  -0.021   2.259   2.239 -0.2592 -1.1108  1.2454
  919SOL    HW2 3675   0.122   2.305   2.196  0.1301 -1.5064  1.7206
  919SOL     MW 3676   0.052   2.308   2.254 -0.7225 -0.4462  0.0618
  920SOL     OW 3677   2.772   2.800   3.097 -0.0628  0.1813 -0.4010
  920SOL    HW1 3678   2.699   2.854   3.129  0.3886  1.2228 -1.2909
  920SOL    HW2 3679   2.731   2.756   3.020  1.7984 -1.0873  0.2782
  920SOL     MW 3680   2.757   2.802   3.091  0.2423  0.1513 -0.4288
  921SOL     OW 3681   2.412   2.577   2.620  0.4467 -0.8196 -0.4195
  921SOL    HW1 3682   2.503   2.582   2.586  0.5265  2.2595  2.9651
  921SOL    HW2 3683   2.408   2.505   2.677  3.8549  2.3823  2.2548
  921SOL     MW 3684   2.424   2.568   2.623  0.9069  0.0091  0.3799
  922SOL     OW 3685   2.044   2.822   0.313 -0.4955 -0.0522 -0.1977
  922SOL    HW1 3686   2.031   2.852   0.221 -1.1890  0.4695 -0.3090
  922SOL    HW2 3687   2.038   2.719   0.309  1.1279  0.1223 -3.7820
  922SOL     MW 3688   2.041   2.813   0.300 -0.3728  0.0396 -0.6853
  923SOL     OW 3689   2.181   2.827   1.664  0.4022  0.1018  0.2731
  923SOL    HW1 3690   2.218   2.754   1.613 -0.9261 -0.7766  1.1453
  923SOL    HW2 3691   2.143   2.881   1.599 -0.4711 -1.1727  0.4274
  923SOL     MW 3692   2.181   2.825   1.649  0.1117 -0.1823  0.4085
  924SOL     OW 3693   1.224   2.607   2.497 -0.2425 -0.1227 -0.0989
  924SOL    HW1 3694   1.288   2.678   2.509 -0.8122 -3.3360  0.7992
  924SOL    HW2 3695   1.250   2.543   2.567  2.6987 -1.5308 -0.6741
  924SOL     MW 3696   1.236   2.608   2.508  0.0704 -0.7324 -0.0563
  925SOL     OW 3697   2.962   0.246   2.606  0.1432 -0.1785  0.0898
  925SOL    HW1 3698   2.947   0.292   2.517  0.3221  0.0619 -1.1844
  925SOL    HW2 3699   2.913   0.298   2.659  3.4397 -2.7713  0.6894
  925SOL     MW 3700   2.953   0.259   2.601  0.6018 -0.4889  0.0008
  926SOL     OW 3701   2.762   2.414   2.087 -0.0134 -0.1603  0.3340
  926SOL    HW1 3702   2.827   2.451   2.150  0.1730 -2.4330 -1.8216
  926SOL    HW2 3703   2.801   2.414   1.997  1.8074  0.6571  0.5007
  926SOL     MW 3704   2.775   2.419   2.084  0.2514 -0.3523  0.0716
  927SOL     OW 3705   2.319   0.143   0.313  0.6425 -0.2116  0.2004
  927SOL    HW1 3706   2.410   0.129   0.324 -2.7666  2.3599 -0.3069
  927SOL    HW2 3707   2.311   0.135   0.218  3.6161 -0.1262  0.4863
  927SOL     MW 3708   2.330   0.140   0.302  0.5851  0.1390  0.1712
  928SOL     OW 3709   2.099   2.431   1.913  0.3251  0.5151  0.6886
  928SOL    HW1 3710   2.143   2.376   1.844 -1.7052 -1.4051 -1.5245
  928SOL    HW2 3711   2.148   2.515   1.926  2.4997  1.1513  0.8144
  928SOL     MW 3712   2.111   2.435   1.905  0.3442  0.3457  0.4132
  929SOL     OW 3713   2.687   2.376   2.443 -0.0219 -0.4146 -0.0581
  929SOL    HW1 3714   2.751   2.355   2.374 -0.2140  2.5575  0.9343
  929SOL    HW2 3715   2.736   2.340   2.513  0.8112  0.8133  1.7836
  929SOL     MW 3716   2.702   2.368   2.443  0.0627  0.1395  0.3159
  930SOL     OW 3717   2.025   2.827   2.715  0.3956 -0.3563  0.3067
  930SOL    HW1 3718   2.048   2.753   2.774 -0.1944  0.7122 -0.4807
  930SOL    HW2 3719   2.106   2.890   2.718 -0.0950  1.1821  0.6503
  930SOL     MW 3720   2.038   2.825   2.724  0.2530 -0.0123  0.2481
  931SOL     OW 3721   3.019   2.768   2.274 -0.0864 -0.5499  0.4849
  931SOL    HW1 3722   3.066   2.777   2.355 -1.7772  3.6089 -1.0266
  931SOL    HW2 3723   3.074   2.793   2.205  0.3190 -0.5830 -1.8048
  931SOL     MW 3724   3.033   2.773   2.276 -0.2560 -0.0055 -0.0166
  932SOL     OW 3725   2.824   2.011   2.555 -0.2229  0.1011  0.7826
  932SOL    HW1 3726   2.919   2.027   2.558 -0.1869 -1.0412 -0.4119
  932SOL    HW2 3727   2.810   2.007   2.459  0.7728  0.6841 -0.6507
  932SOL     MW 3728   2.834   2.013   2.543 -0.0867  0.0273  0.4359
  933SOL     OW 3729   2.029   2.868   2.271 -0.0517  0.2179  0.2904
  933SOL    HW1 3730   2.106   2.916   2.294  1.0675 -2.5123  2.1609
  933SOL    HW2 3731   1.975   2.937   2.226 -1.4649  0.3782  1.6787
  933SOL     MW 3732   2.032   2.884   2.268 -0.0905 -0.1212  0.7204
  934SOL     OW 3733   2.004   2.681   2.468 -0.8091 -0.0274 -0.1263
  934SOL    HW1 3734   2.001   2.731   2.551 -0.7927 -0.4894  0.5079
  934SOL    HW2 3735   2.016   2.748   2.397  3.5404  0.3032 -1.1284
  934SOL     MW 3736   2.005   2.696   2.469 -0.2330 -0.0447 -0.1748
  935SOL     OW 3737   2.648   1.604   1.816  0.0730 -0.2427 -0.0024
  935SOL    HW1 3738   2.732   1.605   1.782  0.5827  0.8159 -1.3819
  935SOL    HW2 3739   2.589   1.584   1.738  0.1969 -2.6815  0.5235
  935SOL     MW 3740   2.651   1.602   1.801  0.1566 -0.4248 -0.1150
  936SOL     OW 3741   2.988   2.264   3.080 -0.3412 -0.0737 -0.0152
  936SOL    HW1 3742   3.061   2.311   3.123  2.0599 -1.4865 -0.6717
  936SOL    HW2 3743   2.921   2.333   3.068 -1.6341  0.6816 -1.1880
  936SOL     MW 3744   2.989   2.279   3.084 -0.1950 -0.1605 -0.2565
  937SOL     OW 3745   1.947   2.103   2.684  0.3088  0.1407 -0.3196
  937SOL    HW1 3746   2.034   2.080   2.716 -2.8965  2.7232 -2.2372
  937SOL    HW2 3747   1.943   2.082   2.586  0.4505 -1.6097  0.1862
  937SOL     MW 3748   1.958   2.097   2.675 -0.0954  0.2504 -0.5058
  938SOL     OW 3749   2.267   1.823   1.908  0.4202  0.0060  0.1123
  938SOL    HW1 3750   2.247   1.866   1.823 -1.3095 -2.7485 -3.9860
  938SOL    HW2 3751   2.259   1.888   1.979 -1.2966  1.6779  1.2031
  938SOL     MW 3752   2.263   1.838   1.906 -0.0345 -0.1369 -0.2845
  939SOL     OW 3753   2.807   1.976   2.253 -0.3412  0.1620  0.1485
  939SOL    HW1 3754   2.831   1.909   2.183 -0.6706  1.6035  0.6586
  939SOL    HW2 3755   2.711   1.985   2.251 -2.1522 -2.9102  1.0438
  939SOL     MW 3756   2.797   1.968   2.244 -0.6236 -0.0531  0.3339
  940SOL     OW 3757   2.313   0.183   2.628 -0.0981  0.0982 -0.3319
  940SOL    HW1 3758   2.303   0.087   2.643  1.7228  2.3964  2.3370
  940SOL    HW2 3759   2.342   0.217   2.713  2.8431  0.4109  2.2810
  940SOL     MW 3760   2.316   0.175   2.641  0.5302  0.4427  0.3650
  941SOL     OW 3761   0.181   2.309   2.013 -0.6117  0.8661  0.2919
  941SOL    HW1 3762   0.269   2.291   1.987  1.4173  0.1899  0.6385
  941SOL    HW2 3763   0.134   2.321   1.921  0.1266  2.7469 -3.6709
  941SOL     MW 3764   0.186   2.308   1.998 -0.2466  1.0250 -0.1852
  942SOL     OW 3765   2.941   2.190   2.147  0.0875 -0.0640  0.6997
  942SOL    HW1 3766   2.863   2.247   2.127  0.2966  0.7998 -1.9343
  942SOL    HW2 3767   2.902   2.115   2.194  2.4848 -1.5347  1.6531
  942SOL     MW 3768   2.926   2.187   2.151  0.4314 -0.1441  0.4780
  943SOL     OW 3769   0.293   2.073   2.266 -0.2399  0.8479 -0.8421
  943SOL    HW1 3770   0.260   2.141   2.322 -0.3046 -1.6773 -0.1435
  943SOL    HW2 3771   0.378   2.041   2.305 -1.7790  0.3494 -1.2586
  943SOL     MW 3772   0.300   2.078   2.279 -0.4515  0.4489 -0.8049
  944SOL     OW 3773   2.107   2.696   2.075 -0.1998 -0.2885  0.6430
  944SOL    HW1 3774   2.182   2.648   2.112 -1.2321 -0.5374  1.0224
  944SOL    HW2 3775   2.081   2.763   2.140 -2.2011 -1.3414 -2.9553
  944SOL     MW 3776   2.113   2.698   2.088 -0.6001 -0.4602  0.2183
  945SOL     OW 3777   2.698   2.681   2.875 -0.6063  0.1024  0.4404
  945SOL    HW1 3778   2.688   2.584   2.856 -0.2594  1.9734  0.3469
  945SOL    HW2 3779   2.752   2.710   2.803 -0.8935  0.8342  1.3527
  945SOL     MW 3780   2.704   2.672   2.863 -0.5984  0.4458  0.5484
  946SOL     OW 3781   2.470   2.761   2.317 -0.5381  0.1391 -0.0976
  946SOL    HW1 3782   2.504   2.795   2.237 -0.3486 -2.9381  2.4327
  946SOL    HW2 3783   2.415   2.686   2.296 -0.9717  3.6860 -0.0081
  946SOL     MW 3784   2.467   2.756   2.304 -0.5703  0.2011  0.2481
  947SOL     OW 3785   1.977   0.120   0.291 -0.0812  0.1622  0.0493
  947SOL    HW1 3786   1.951   0.047   0.241 -1.2663 -2.6066  1.3575
  947SOL    HW2 3787   2.046   0.097   0.350 -1.0669  1.2209  0.3707
  947SOL     MW 3788   1.983   0.107   0.293 -0.3676 -0.0634  0.2643
  948SOL     OW 3789   1.760   2.964   2.680  0.2758  0.1553 -0.0072
  948SOL    HW1 3790   1.838   2.912   2.704  1.1603  1.7098  0.3743
  948SOL    HW2 3791   1.761   2.969   2.583  0.6192 -1.0436  2.2808
  948SOL     MW 3792   1.770   2.958   2.670  0.4378  0.2022  0.3450
  949SOL     OW 3793   2.512   1.977   2.271 -0.2092 -0.5012  0.4252
  949SOL    HW1 3794   2.506   1.878   2.286  0.2846 -0.6584 -0.1615
  949SOL    HW2 3795   2.456   2.015   2.335  1.6674 -1.5547 -1.7220
  949SOL     MW 3796   2.504   1.969   2.282  0.1035 -0.6609  0.0645
  950SOL     OW 3797   2.270   2.523   2.977 -0.1407 -0.5653 -0.3667
  950SOL    HW1 3798   2.315   2.473   2.907  1.8909  0.2593 -2.2806
  950SOL    HW2 3799   2.184   2.536   2.930 -1.0825  0.2349  1.9854
  950SOL     MW 3800   2.265   2.518   2.961  0.0031 -0.3509 -0.3089
  951SOL     OW 3801   3.006   2.128   2.824  0.4192  0.0368 -0.5719
  951SOL    HW1 3802   3.019   2.188   2.899 -1.8429 -2.6846  3.9276
  951SOL    HW2 3803   3.083   2.121   2.769  1.4728 -1.4872 -1.8115
  951SOL     MW 3804   3.018   2.135   2.827  0.2597 -0.5233 -0.1418
  952SOL     OW 3805  -0.000   1.662   2.165 -0.1084  0.3751 -0.1691
  952SOL    HW1 3806  -0.062   1.729   2.131 -1.3956 -0.3653  0.8322
  952SOL    HW2 3807   0.079   1.721   2.168 -0.8190  1.3983  1.1788
  952SOL     MW 3808   0.002   1.679   2.161 -0.3720  0.4124  0.1408
  953SOL     OW 3809   1.922   1.792   2.890  0.4218 -0.1770 -0.2150
  953SOL    HW1 3810   1.876   1.732   2.948 -2.2868  1.3583  1.3805
  953SOL    HW2 3811   1.941   1.736   2.812 -0.8653  0.9338 -1.7535
  953SOL     MW 3812   1.919   1.777   2.887 -0.1054  0.1721 -0.2075
  954SOL     OW 3813   2.463   2.107   2.883 -0.2166  0.0360 -0.2291
  954SOL    HW1 3814   2.370   2.077   2.867 -2.8016 -2.3523  1.4019
  954SOL    HW2 3815   2.525   2.061   2.819  0.5008  0.6826  1.8706
  954SOL     MW 3816   2.459   2.097   2.873 -0.4630 -0.1938  0.2632
  955SOL     OW 3817   1.585   1.575   2.638 -0.1318 -0.2069 -0.0657
  955SOL    HW1 3818   1.533   1.563   2.554 -0.5168 -1.1118  1.8145
  955SOL    HW2 3819   1.668   1.609   2.602 -0.3292  2.1804 -2.5938
  955SOL     MW 3820   1.589   1.578   2.622 -0.2086 -0.0113 -0.1512
  956SOL     OW 3821   2.683   2.399   2.838 -0.3126 -0.2826 -0.0054
  956SOL    HW1 3822   2.694   2.398   2.935 -1.0725 -0.2116  1.2509
  956SOL    HW2 3823   2.754   2.349   2.798  2.9530  0.2768 -0.3165
  956SOL     MW 3824   2.694   2.392   2.845  0.0180 -0.1994  0.1193
  957SOL     OW 3825   2.328   2.856   0.401  0.7948  0.0496  0.1449
  957SOL    HW1 3826   2.239   2.864   0.357 -0.6830 -0.5064 -0.8414
  957SOL    HW2 3827   2.311   2.815   0.490  1.0300 -2.2929  1.0674
  957SOL     MW 3828   2.314   2.851   0.407  0.6308 -0.3328  0.1365
  958SOL     OW 3829   2.033   2.575   2.860 -0.9349  0.0120 -0.1253
  958SOL    HW1 3830   2.033   2.499   2.791 -0.0466  0.8376 -1.4536
  958SOL    HW2 3831   1.946   2.602   2.888 -0.8756 -0.4230 -2.1303
  958SOL     MW 3832   2.022   2.568   2.854 -0.8099  0.0635 -0.5651
  959SOL     OW 3833   2.464   2.605   0.356  0.6613  0.3045 -0.6456
  959SOL    HW1 3834   2.531   2.600   0.289 -1.5439 -3.2981 -1.4279
  959SOL    HW2 3835   2.433   2.694   0.351 -0.3750 -1.9445  0.1646
  959SOL     MW 3836   2.468   2.616   0.347  0.2336 -0.4675 -0.6419
  960SOL     OW 3837   1.961   2.294   2.214 -0.4113 -0.4794 -0.1756
  960SOL    HW1 3838   1.925   2.209   2.216  0.1754 -0.5497 -0.8908
  960SOL    HW2 3839   1.893   2.343   2.262  0.6564  1.8716 -1.2613
  960SOL     MW 3840   1.948   2.289   2.221 -0.1931 -0.1785 -0.4132
  961SOL     OW 3841   2.234   2.328   2.248 -0.2983  0.4328  0.2494
  961SOL    HW1 3842   2.147   2.311   2.208 -1.6787  0.0336  1.3231
  961SOL    HW2 3843   2.215   2.359   2.331  1.2742  1.0986 -1.7322
  961SOL     MW 3844   2.220   2.330   2.253 -0.2730  0.4680  0.1296
  962SOL     OW 3845   2.200   2.025   2.820 -0.8654  0.3638 -0.0964
  962SOL    HW1 3846   2.154   2.029   2.902 -2.5181 -3.4206  0.3109
  962SOL    HW2 3847   2.199   1.930   2.788 -1.1393 -1.5911 -1.2152
  962SOL     MW 3848   2.194   2.013   2.826 -1.1196 -0.3934 -0.1903
  963SOL     OW 3849   1.832   2.596   2.058  0.1250 -0.3371  0.1742
  963SOL    HW1 3850   1.926   2.621   2.075  0.7382 -0.6749  1.0245
  963SOL    HW2 3851   1.832   2.509   2.020  0.4744 -0.7197 -0.4970
  963SOL     MW 3852   1.844   2.588   2.055  0.2520 -0.4321  0.1979
  964SOL     OW 3853   1.738   1.923   2.727 -0.4129  0.2934  0.1670
  964SOL    HW1 3854   1.808   1.985   2.698  0.8883 -0.0207  2.1140
  964SOL    HW2 3855   1.782   1.887   2.810  1.9464  2.8738  0.0898
  964SOL     MW 3856   1.753   1.927   2.734  0.0700  0.5924  0.4137
  965SOL     OW 3857   2.208   2.756   0.617 -0.4337  0.0358 -0.4828
  965SOL    HW1 3858   2.214   2.662   0.622 -0.2540  3.0689  0.5521
  965SOL    HW2 3859   2.240   2.793   0.698 -0.5384 -1.2392  0.8796
  965SOL     MW 3860   2.213   2.748   0.628 -0.4238  0.2678 -0.1665
  966SOL     OW 3861   2.653   2.650   2.503  0.0895  0.6097 -0.2403
  966SOL    HW1 3862   2.611   2.701   2.435  0.7192  1.3478  2.5079
  966SOL    HW2 3863   2.683   2.567   2.465  0.7899  1.4390 -0.1410
  966SOL     MW 3864   2.651   2.646   2.489  0.2650  0.8165  0.1354
  967SOL     OW 3865   2.810   3.011   2.909 -0.4423  0.0000  0.0817
  967SOL    HW1 3866   2.799   2.931   2.964 -1.5019  0.9874  0.4862
  967SOL    HW2 3867   2.722   3.033   2.879 -1.6715 -0.8122  0.3398
  967SOL     MW 3868   2.797   3.003   2.912 -0.7443  0.0232  0.1691
  968SOL     OW 3869   3.041   2.647   2.906  0.4090 -0.1445  0.5443
  968SOL    HW1 3870   2.998   2.710   2.839 -2.2845  3.0734 -2.0423
  968SOL    HW2 3871   3.083   2.580   2.854 -0.2306  2.0996 -2.0729
  968SOL     MW 3872   3.041   2.647   2.890 -0.0308  0.5762 -0.1423
  969SOL     OW 3873   1.521   2.169   1.669  0.6878  0.3134 -0.0190
  969SOL    HW1 3874   1.576   2.092   1.652 -0.5991 -0.6120  0.9949
  969SOL    HW2 3875   1.510   2.148   1.762 -0.6683 -1.3430  1.1527
  969SOL     MW 3876   1.527   2.156   1.679  0.3391 -0.0272  0.2693
  970SOL     OW 3877   1.654   1.712   1.779  0.1038  0.2065  0.6033
  970SOL    HW1 3878   1.722   1.665   1.830  0.6069  5.0144 -0.1457
  970SOL    HW2 3879   1.594   1.738   1.845  2.4415  0.9319  1.1979
  970SOL     MW 3880   1.655   1.709   1.795  0.4786  0.9365  0.5829
  971SOL     OW 3881   1.748   3.058   2.399 -0.1057  0.0009  0.0845
  971SOL    HW1 3882   1.762   3.045   2.303 -0.3958 -1.9563 -3.1494
  971SOL    HW2 3883   1.802   3.131   2.419 -2.3833  0.4792 -1.3220
  971SOL     MW 3884   1.757   3.066   2.389 -0.4445 -0.1942 -0.5278
  972SOL     OW 3885   0.253   2.874   2.461 -0.2962 -0.2976 -0.1972
  972SOL    HW1 3886   0.322   2.807   2.458  1.3846  1.6607  0.2656
  972SOL    HW2 3887   0.299   2.961   2.477  1.4360  2.3908  1.1448
  972SOL     MW 3888   0.268   2.877   2.462  0.1541  0.3155  0.0409
  973SOL     OW 3889   2.506   0.030   2.057  0.4339 -0.0857  0.1269
  973SOL    HW1 3890   2.498  -0.066   2.068  1.7246 -2.3830  3.9221
  973SOL    HW2 3891   2.555   0.046   1.974  2.9149  0.1993 -0.4555
  973SOL     MW 3892   2.511   0.020   2.047  0.9315 -0.3512  0.5508
  974SOL     OW 3893   2.061   0.222   2.688  0.0428 -0.1195  0.1395
  974SOL    HW1 3894   2.145   0.193   2.657 -0.1405  0.3921 -0.6660
  974SOL    HW2 3895   2.039   0.170   2.766  1.3547 -0.5092 -1.0464
  974SOL     MW 3896   2.069   0.211   2.694  0.1917 -0.1034 -0.1232
  975SOL     OW 3897   2.196   2.463   2.488  0.4381 -0.5785 -0.2686
  975SOL    HW1 3898   2.259   2.531   2.496 -0.6790  0.1659  0.7191
  975SOL    HW2 3899   2.117   2.521   2.486 -0.7367  0.5554 -0.0720
  975SOL     MW 3900   2.194   2.479   2.489  0.1357 -0.3307 -0.1124
  976SOL     OW 3901   0.253   0.343   1.718 -0.3712  0.9617  0.1136
  976SOL    HW1 3902   0.315   0.285   1.757  0.3675  2.2277  0.6027
  976SOL    HW2 3903   0.182   0.286   1.671 -1.3664  0.8178  0.2723
  976SOL     MW 3904   0.252   0.328   1.717 -0.4050  1.1097  0.1991
  977SOL     OW 3905   1.736   2.616   2.488  0.0984 -0.1123  0.1152
  977SOL    HW1 3906   1.746   2.522   2.470 -2.5710 -0.5049 -0.1382
  977SOL    HW2 3907   1.819   2.653   2.463 -0.0701  0.7413  0.1351
  977SOL     MW 3908   1.748   2.608   2.482 -0.2760 -0.0515  0.0844
   3.10000   3.10000   3.10000
