977 TIP4P/2005f water molecules t=   0.58000 step= 580
 3908
    1SOL     OW    1   0.201   0.845   0.024 -0.8164  0.2818  0.0919
    1SOL    HW1    2   0.194   0.839  -0.070  2.5038 -0.9324  0.3315
    1SOL    HW2    3   0.208   0.756   0.049  3.9125  1.0007 -1.8941
    1SOL     MW    4   0.201   0.832   0.015  0.2456  0.2164 -0.1385
    2SOL     OW    5   0.253   3.018   1.169 -0.2876 -0.1192  0.5381
    2SOL    HW1    6   0.297   3.088   1.126  0.5724  0.0135 -2.7665
    2SOL    HW2    7   0.159   3.020   1.149 -0.1188  0.0231  0.5608
    2SOL     MW    8   0.247   3.027   1.161 -0.1518 -0.0829  0.1051
    3SOL     OW    9   2.681   0.394   0.916 -0.3433  0.3267  0.1138
    3SOL    HW1   10   2.693   0.475   0.867 -1.8405  1.9506 -4.5797
    3SOL    HW2   11   2.649   0.434   1.000 -2.1210 -0.7501  0.4584
    3SOL     MW   12   2.679   0.410   0.920 -0.7754  0.3989 -0.4600
    4SOL     OW   13   3.043   1.760   0.589 -0.3401 -0.3350  0.0156
    4SOL    HW1   14   2.962   1.782   0.541  0.9480  0.0580  0.6203
    4SOL    HW2   15   3.087   1.716   0.515 -1.5059  4.1036  0.1779
    4SOL     MW   16   3.038   1.757   0.573 -0.3240  0.3025  0.1168
    5SOL     OW   17   1.729   1.512   0.550  0.0878  0.4910 -0.3954
    5SOL    HW1   18   1.774   1.449   0.612 -0.5901 -0.4210 -3.3969
    5SOL    HW2   19   1.634   1.509   0.560  2.3425  0.4621  1.4253
    5SOL     MW   20   1.722   1.503   0.560  0.2958  0.3669 -0.5512
    6SOL     OW   21   0.854   1.382   0.690 -0.1035 -0.2110  0.0831
    6SOL    HW1   22   0.763   1.396   0.678  0.7054 -0.1622  2.4094
    6SOL    HW2   23   0.858   1.285   0.702 -2.1806  0.0022  3.8739
    6SOL     MW   24   0.843   1.371   0.690 -0.2708 -0.1764  0.8902
    7SOL     OW   25   2.014   1.152   0.025  0.1617  0.5200 -0.1971
    7SOL    HW1   26   2.061   1.230  -0.008 -1.2041 -0.5481 -2.8236
    7SOL    HW2   27   2.047   1.139   0.112  0.8586  1.7832  0.4780
    7SOL     MW   28   2.025   1.160   0.032  0.0734  0.5458 -0.4546
    8SOL     OW   29   0.943   1.369   1.018  0.0941 -0.2674 -0.3390
    8SOL    HW1   30   0.965   1.303   0.960  2.4767 -1.1559  4.0402
    8SOL    HW2   31   0.955   1.338   1.106 -0.6507  0.5844  1.5371
    8SOL     MW   32   0.947   1.356   1.022  0.3102 -0.2722  0.4863
    9SOL     OW   33   1.075   0.463   1.384  0.3620 -0.2226  0.4467
    9SOL    HW1   34   1.013   0.393   1.355 -1.2296  0.4359 -2.7113
    9SOL    HW2   35   1.137   0.427   1.447  2.0371  1.5855 -1.8325
    9SOL     MW   36   1.075   0.449   1.389  0.3730  0.1029 -0.2707
   10SOL     OW   37   0.255   0.788   0.424  0.1047 -0.2616 -0.2933
   10SOL    HW1   38   0.345   0.806   0.420  1.3546  0.4461  2.4680
   10SOL    HW2   39   0.221   0.831   0.504 -0.8758  1.1316  0.0901
   10SOL     MW   40   0.262   0.796   0.434  0.1403  0.0156  0.1216
   11SOL     OW   41   0.778   1.153   1.667  0.0589  0.3120  0.1957
   11SOL    HW1   42   0.802   1.137   1.760 -0.0837  1.8028 -1.4341
   11SOL    HW2   43   0.771   1.069   1.624 -0.0976  4.5375  0.8374
   11SOL     MW   44   0.780   1.140   1.674  0.0194  1.0662  0.0653
   12SOL     OW   45   0.010   1.055   0.867 -0.2471 -0.1552  0.5603
   12SOL    HW1   46   0.033   1.136   0.920 -4.2414  0.8802 -3.8377
   12SOL    HW2   47  -0.059   1.091   0.810 -1.3414  2.9210  3.1747
   12SOL     MW   48   0.004   1.070   0.867 -0.9185  0.3873  0.3250
   13SOL     OW   49   1.842   1.416   1.321 -0.2527 -0.1586  0.1641
   13SOL    HW1   50   1.864   1.382   1.238 -1.3370 -0.1035 -1.1939
   13SOL    HW2   51   1.856   1.515   1.313  0.0363  1.5513  0.5783
   13SOL     MW   52   1.847   1.425   1.309 -0.3577  0.0742  0.0396
   14SOL     OW   53   0.591   0.329   1.808  0.4450  0.1477 -0.5183
   14SOL    HW1   54   0.561   0.255   1.754 -2.4879  0.6654  1.7015
   14SOL    HW2   55   0.680   0.300   1.834  0.9372 -1.4027 -0.4687
   14SOL     MW   56   0.599   0.316   1.805  0.1230  0.0115 -0.2189
   15SOL     OW   57   1.922   0.509   0.978 -0.5468 -0.4412  0.0793
   15SOL    HW1   58   1.933   0.533   1.076 -0.6983 -1.7168  1.0428
   15SOL    HW2   59   2.005   0.476   0.942 -1.1453 -1.0876 -0.1027
   15SOL     MW   60   1.935   0.508   0.986 -0.6457 -0.6948  0.1824
   16SOL     OW   61   0.257   1.798   0.324  0.2316  0.6274 -0.0142
   16SOL    HW1   62   0.331   1.741   0.349  0.4224  1.7454  0.5915
   16SOL    HW2   63   0.283   1.879   0.364  1.2111 -0.5422 -0.4423
   16SOL     MW   64   0.270   1.801   0.333  0.3861  0.6206  0.0092
   17SOL     OW   65   1.006   0.850   1.491  0.1730  0.2123 -0.1494
   17SOL    HW1   66   1.048   0.843   1.577  1.2232  1.8638  0.0595
   17SOL    HW2   67   0.916   0.840   1.512  1.4992 -0.3894  0.3817
   17SOL     MW   68   1.000   0.848   1.505  0.4865  0.3508 -0.0518
   18SOL     OW   69   0.091   1.584   0.409  0.0695  0.0272 -0.7740
   18SOL    HW1   70   0.147   1.659   0.383  0.8029  0.9738  1.3981
   18SOL    HW2   71   0.075   1.536   0.324 -0.5357  1.5230 -2.5224
   18SOL     MW   72   0.096   1.587   0.394  0.0864  0.3494 -0.7181
   19SOL     OW   73   0.082   1.296   1.011  0.0113 -0.0451  0.1847
   19SOL    HW1   74   0.138   1.349   0.950  1.5729 -1.4685  1.0057
   19SOL    HW2   75  -0.007   1.337   1.006 -2.4833  1.1851  0.7308
   19SOL     MW   76   0.077   1.309   1.002 -0.1118 -0.0706  0.3651
   20SOL     OW   77   0.409   2.125   1.278 -0.6119 -0.0945 -1.0945
   20SOL    HW1   78   0.358   2.064   1.221  0.3470  0.8639 -1.5409
   20SOL    HW2   79   0.352   2.175   1.348  1.9901  2.1333 -0.4842
   20SOL     MW   80   0.395   2.123   1.280 -0.1421  0.3259 -1.0729
   21SOL     OW   81   0.520   0.814   0.375 -0.0096 -0.4409 -0.3742
   21SOL    HW1   82   0.585   0.795   0.441 -0.5518  0.5262  2.0483
   21SOL    HW2   83   0.546   0.782   0.290  0.3803  1.0227 -0.0302
   21SOL     MW   84   0.532   0.807   0.372 -0.0297 -0.1202 -0.0092
   22SOL     OW   85   1.505   0.554   1.110 -0.1906 -0.1133 -0.5336
   22SOL    HW1   86   1.552   0.505   1.041 -3.5415  0.7184  1.7161
   22SOL    HW2   87   1.439   0.606   1.058 -1.0198  0.2832  0.5983
   22SOL     MW   88   1.502   0.554   1.094 -0.7421  0.0488 -0.0874
   23SOL     OW   89   3.083   0.769   0.650  0.0889  0.2708 -0.6255
   23SOL    HW1   90   3.119   0.707   0.713 -0.9086  0.2957  0.1474
   23SOL    HW2   91   3.144   0.847   0.661  0.2463 -1.0319  0.5159
   23SOL     MW   92   3.096   0.771   0.660 -0.0220  0.1022 -0.3729
   24SOL     OW   93   2.000   2.207   0.097  0.3361 -0.0173  0.5080
   24SOL    HW1   94   2.008   2.178   0.190  0.2368  1.0719 -0.6020
   24SOL    HW2   95   2.055   2.148   0.044  3.0311 -1.2375  0.5029
   24SOL     MW   96   2.008   2.195   0.103  0.6785 -0.0346  0.3609
   25SOL     OW   97   0.258   1.393   0.541 -0.6379 -0.4625  0.0949
   25SOL    HW1   98   0.187   1.459   0.518 -1.1563  0.4902  0.8311
   25SOL    HW2   99   0.333   1.422   0.498  1.7988  0.0146  0.9948
   25SOL     MW  100   0.259   1.405   0.532 -0.3848 -0.2738  0.3108
   26SOL     OW  101   2.020   0.919   0.458 -0.0866  0.3031 -0.4822
   26SOL    HW1  102   1.937   0.968   0.462 -1.5366  2.5187  2.6563
   26SOL    HW2  103   2.068   0.950   0.381  2.5577 -1.7150  3.0920
   26SOL     MW  104   2.015   0.930   0.448  0.0710  0.3291  0.4035
   27SOL     OW  105   2.063   1.390   0.244  0.2212  0.2903 -0.4150
   27SOL    HW1  106   1.969   1.381   0.265 -0.4235 -2.0201 -0.9024
   27SOL    HW2  107   2.098   1.449   0.309  0.0695  0.1015 -1.5766
   27SOL     MW  108   2.055   1.397   0.255  0.1161 -0.0395 -0.6326
   28SOL     OW  109   0.412   1.098   1.964  0.4328  0.3366  0.2891
   28SOL    HW1  110   0.448   1.019   1.921 -0.6869 -2.5587  2.7169
   28SOL    HW2  111   0.343   1.054   2.016 -0.2081 -0.9251 -3.0768
   28SOL     MW  112   0.408   1.082   1.965  0.2005 -0.2118  0.1653
   29SOL     OW  113   0.279   1.432   0.822  0.1076  0.0118  0.3870
   29SOL    HW1  114   0.281   1.527   0.814  1.0237 -1.5609  0.4524
   29SOL    HW2  115   0.264   1.403   0.733  0.8046  1.9681 -0.4177
   29SOL     MW  116   0.278   1.441   0.809  0.3204  0.0624  0.2894
   30SOL     OW  117   0.854   1.148   1.231 -0.2975  0.6763 -0.1546
   30SOL    HW1  118   0.767   1.175   1.267 -0.8324 -0.7119 -1.6010
   30SOL    HW2  119   0.914   1.144   1.312 -0.5535  0.3369  0.7560
   30SOL     MW  120   0.851   1.151   1.247 -0.4019  0.4484 -0.2253
   31SOL     OW  121   0.384   0.208   0.159 -0.0131 -1.1285 -0.4823
   31SOL    HW1  122   0.409   0.153   0.233  0.5214  0.0355  0.3517
   31SOL    HW2  123   0.374   0.146   0.089 -0.3323 -2.4428 -2.4948
   31SOL     MW  124   0.386   0.193   0.159  0.0153 -1.1483 -0.6378
   32SOL     OW  125   2.768   1.021   1.142  0.1250 -0.2286  0.0562
   32SOL    HW1  126   2.698   0.964   1.113  2.4731 -0.6430  0.4022
   32SOL    HW2  127   2.844   0.959   1.138 -0.4447 -0.3697 -0.4423
   32SOL     MW  128   2.769   1.005   1.138  0.3597 -0.3019  0.0361
   33SOL     OW  129   1.794   1.333   0.361  0.1368 -0.5511  0.3957
   33SOL    HW1  130   1.809   1.252   0.414  0.7562 -1.4971 -0.1284
   33SOL    HW2  131   1.790   1.404   0.427  3.0484  0.1776  0.0683
   33SOL     MW  132   1.796   1.331   0.377  0.6026 -0.5797  0.2834
   34SOL     OW  133   1.216   1.875   1.107 -0.1768 -0.1466  0.2460
   34SOL    HW1  134   1.124   1.918   1.105  0.9123 -1.3078 -0.8955
   34SOL    HW2  135   1.249   1.891   1.195 -0.1192  1.6452 -2.3601
   34SOL     MW  136   1.209   1.883   1.119 -0.0255 -0.0634 -0.2484
   35SOL     OW  137   0.355   0.127   1.839  0.1400  0.0274  0.8936
   35SOL    HW1  138   0.368   0.091   1.924  0.5065  0.6335 -1.8069
   35SOL    HW2  139   0.387   0.051   1.780  1.5013  1.4600  0.8181
   35SOL     MW  140   0.361   0.112   1.842  0.3680  0.2964  0.5273
   36SOL     OW  141   1.841   1.918   0.474  0.0547  0.2540  0.0013
   36SOL    HW1  142   1.853   1.916   0.383 -2.9906 -2.0889  2.5029
   36SOL    HW2  143   1.872   1.838   0.517 -1.9215 -1.8313  3.0340
   36SOL     MW  144   1.847   1.907   0.468 -0.6078 -0.3303  0.7315
   37SOL     OW  145   1.772   2.015   1.058  0.0281 -0.5103  0.3867
   37SOL    HW1  146   1.716   1.953   1.011 -2.0398 -2.9699  0.1909
   37SOL    HW2  147   1.709   2.069   1.111 -1.0281 -1.9899  0.0222
   37SOL     MW  148   1.756   2.014   1.059 -0.3841 -1.0300  0.3128
   38SOL     OW  149   2.827   0.922   0.165  0.4155  0.0340  0.0550
   38SOL    HW1  150   2.887   0.927   0.242  1.7411 -1.4419 -0.5454
   38SOL    HW2  151   2.892   0.902   0.101  2.0756 -1.4138  1.1436
   38SOL     MW  152   2.843   0.920   0.167  0.8094 -0.3518  0.1194
   39SOL     OW  153   1.396   0.620   0.802 -0.1499  0.1767 -0.0848
   39SOL    HW1  154   1.384   0.525   0.803 -1.8782 -0.5882 -1.5942
   39SOL    HW2  155   1.305   0.654   0.805  0.7499  1.1029 -1.8388
   39SOL     MW  156   1.382   0.612   0.802 -0.2592  0.1980 -0.5154
   40SOL     OW  157   1.195   1.889   0.256 -0.2069  0.1279  0.0733
   40SOL    HW1  158   1.242   1.826   0.312 -0.7446  2.2343  1.2719
   40SOL    HW2  159   1.191   1.974   0.303 -1.0617  0.3931  0.5059
   40SOL     MW  160   1.201   1.892   0.270 -0.3907  0.4408  0.2886
   41SOL     OW  161   0.607   0.479   1.561  0.0702 -0.3026 -0.2271
   41SOL    HW1  162   0.694   0.516   1.566 -0.9608  0.4864  1.0245
   41SOL    HW2  163   0.597   0.416   1.637 -0.1185 -1.5848 -0.2722
   41SOL     MW  164   0.617   0.475   1.572 -0.0907 -0.3677 -0.0679
   42SOL     OW  165   1.253   2.993   2.006  0.2121  0.1977  0.4482
   42SOL    HW1  166   1.161   2.982   2.015  0.5320  1.4721  1.0694
   42SOL    HW2  167   1.297   2.907   2.021 -2.4844  0.4411  2.2665
   42SOL     MW  168   1.247   2.980   2.010 -0.1015  0.3980  0.7701
   43SOL     OW  169   1.530   0.147   1.744  0.3627 -0.3366  0.1497
   43SOL    HW1  170   1.579   0.138   1.663  2.3671 -0.5823  2.6917
   43SOL    HW2  171   1.461   0.082   1.761  1.1277 -0.3951  2.6142
   43SOL     MW  172   1.528   0.137   1.735  0.7281 -0.3767  0.8102
   44SOL     OW  173   1.248   0.746   1.089 -0.0646 -0.1304  0.0981
   44SOL    HW1  174   1.222   0.841   1.065 -2.3033  0.0195  0.0599
   44SOL    HW2  175   1.240   0.742   1.186  0.1914  0.6949  0.9054
   44SOL     MW  176   1.243   0.758   1.099 -0.3262 -0.0017  0.1996
   45SOL     OW  177   1.136   0.718   0.771 -0.4832 -0.4851 -0.6871
   45SOL    HW1  178   1.101   0.681   0.847  2.5800  1.1428 -0.2951
   45SOL    HW2  179   1.092   0.679   0.699  0.5837 -1.6339 -0.4376
   45SOL     MW  180   1.125   0.708   0.772  0.0617 -0.4219 -0.6025
   46SOL     OW  181   0.542   1.193   0.538  0.1228  0.3063 -0.1085
   46SOL    HW1  182   0.487   1.210   0.463  2.1277 -0.8535  2.7123
   46SOL    HW2  183   0.628   1.173   0.506 -0.1755  3.6668  0.6938
   46SOL     MW  184   0.546   1.192   0.524  0.3479  0.5966  0.3695
   47SOL     OW  185   0.181   1.947   1.780 -0.9744 -0.0305 -0.0392
   47SOL    HW1  186   0.225   1.871   1.727 -0.6957  2.0029 -0.3026
   47SOL    HW2  187   0.173   1.923   1.877  2.2928 -0.9729 -1.4666
   47SOL     MW  188   0.186   1.934   1.786 -0.5066  0.1135 -0.2623
   48SOL     OW  189   1.042   0.589   1.020  0.5688  0.0121  0.1951
   48SOL    HW1  190   0.974   0.558   1.080 -2.2220 -3.1158 -2.0696
   48SOL    HW2  191   1.108   0.639   1.070 -1.7416  0.8094 -0.0246
   48SOL     MW  192   1.042   0.591   1.034 -0.1043 -0.2954 -0.1327
   49SOL     OW  193   1.794   0.759   1.539  0.2102  0.3846 -0.0211
   49SOL    HW1  194   1.733   0.729   1.613  0.1172 -1.5893  2.4207
   49SOL    HW2  195   1.851   0.681   1.550  1.0536 -1.1903  1.5293
   49SOL     MW  196   1.793   0.745   1.551  0.3092 -0.0837  0.5056
   50SOL     OW  197   1.173   1.058   0.497  0.2970 -0.1965  0.0343
   50SOL    HW1  198   1.152   1.112   0.575 -2.1361 -1.5835  1.6860
   50SOL    HW2  199   1.245   1.006   0.531  0.2878  1.4913 -0.6131
   50SOL     MW  200   1.180   1.058   0.512 -0.0253 -0.1568  0.1668
   51SOL     OW  201   0.349   2.886   0.939 -0.2943  0.2950 -0.5400
   51SOL    HW1  202   0.440   2.870   0.962 -1.3717  2.8396  1.7234
   51SOL    HW2  203   0.314   2.937   1.011 -2.7211  1.5674 -3.9001
   51SOL     MW  204   0.356   2.891   0.951 -0.7567  0.7986 -0.6847
   52SOL     OW  205   0.823   1.799   0.413 -0.0226  0.0161  0.5540
   52SOL    HW1  206   0.785   1.884   0.432  0.6946 -0.4195 -2.0259
   52SOL    HW2  207   0.844   1.802   0.320 -2.6248  2.7276  1.4525
   52SOL     MW  208   0.821   1.811   0.403 -0.2713  0.3164  0.3321
   53SOL     OW  209   0.497   2.150   0.607 -0.7891 -0.1470  0.4353
   53SOL    HW1  210   0.438   2.117   0.543  3.8525  1.8079 -0.2954
   53SOL    HW2  211   0.523   2.246   0.599 -0.0624  0.0471  0.0245
   53SOL     MW  212   0.493   2.159   0.597 -0.0808  0.1366  0.2847
   54SOL     OW  213   2.184   0.842   0.851 -0.4865  0.8491 -0.4733
   54SOL    HW1  214   2.211   0.861   0.758  3.2393 -1.2334 -1.5411
   54SOL    HW2  215   2.089   0.816   0.840 -1.0731 -0.2900 -0.5823
   54SOL     MW  216   2.175   0.841   0.837 -0.0723  0.4241 -0.6285
   55SOL     OW  217   0.574   1.481   1.601 -0.1917  0.2542  0.5777
   55SOL    HW1  218   0.530   1.548   1.546  0.5454  1.8462  0.5972
   55SOL    HW2  219   0.645   1.446   1.549 -0.0258 -0.3655 -1.4543
   55SOL     MW  220   0.577   1.485   1.587 -0.0726  0.3825  0.3122
   56SOL     OW  221   0.544   0.757   0.089 -0.4481  0.1436 -0.1586
   56SOL    HW1  222   0.544   0.846   0.062  0.1831  2.1712  2.5611
   56SOL    HW2  223   0.449   0.735   0.089 -0.3061  0.4257  1.6249
   56SOL     MW  224   0.531   0.765   0.085 -0.3461  0.4484  0.4355
   57SOL     OW  225   1.255   1.222   1.188 -0.2381 -0.0581 -0.6560
   57SOL    HW1  226   1.334   1.249   1.134 -1.6688  3.2074  0.8244
   57SOL    HW2  227   1.288   1.205   1.276  0.8073 -1.4242 -0.6650
   57SOL     MW  228   1.270   1.223   1.193 -0.2889  0.1925 -0.4619
   58SOL     OW  229   0.560   1.153   1.299 -0.1555  0.1612  0.4608
   58SOL    HW1  230   0.541   1.246   1.274 -1.4416 -0.2087  1.3378
   58SOL    HW2  231   0.547   1.159   1.398 -1.4562 -0.1060  2.2881
   58SOL     MW  232   0.556   1.166   1.309 -0.4968  0.0771  0.8176
   59SOL     OW  233   1.564   1.659   0.365 -0.6279  0.5621 -0.3591
   59SOL    HW1  234   1.620   1.703   0.422 -0.9697  0.1258 -0.3007
   59SOL    HW2  235   1.477   1.691   0.377 -0.3170  0.4179  0.1380
   59SOL     MW  236   1.560   1.669   0.374 -0.6320  0.4855 -0.2858
   60SOL     OW  237   0.083   0.207   1.696  0.5409 -0.4368 -0.1800
   60SOL    HW1  238  -0.013   0.229   1.701 -2.2877  1.6265 -2.5213
   60SOL    HW2  239   0.097   0.128   1.746 -0.1859 -0.8716 -1.0862
   60SOL     MW  240   0.072   0.200   1.703  0.0718 -0.2219 -0.6085
   61SOL     OW  241   2.044   1.456   3.069  0.1605  0.1557 -0.7604
   61SOL    HW1  242   2.052   1.454   3.168  1.2063 -3.4193 -0.4811
   61SOL    HW2  243   2.131   1.419   3.039 -0.4392 -1.2904 -1.9786
   61SOL     MW  244   2.057   1.451   3.078  0.2194 -0.5068 -0.8843
   62SOL     OW  245   0.621   1.706   0.626 -0.7415  0.3480  0.4942
   62SOL    HW1  246   0.696   1.726   0.573 -0.0288  2.6837 -3.9133
   62SOL    HW2  247   0.624   1.605   0.648  2.2257 -0.1626  0.6264
   62SOL     MW  248   0.631   1.695   0.622 -0.2560  0.5888 -0.0699
   63SOL     OW  249   1.649   0.738   0.708 -0.2120 -0.1938  0.0242
   63SOL    HW1  250   1.641   0.800   0.637  0.5443  0.6737 -0.2838
   63SOL    HW2  251   1.561   0.713   0.738  0.1629 -0.2144  0.7680
   63SOL     MW  252   1.636   0.743   0.702 -0.0628 -0.0821  0.0817
   64SOL     OW  253   0.265   1.702   0.721  0.2997 -0.1391 -0.1315
   64SOL    HW1  254   0.344   1.755   0.738 -0.2363  0.1961 -1.1793
   64SOL    HW2  255   0.190   1.761   0.708 -1.9018  3.7420 -0.0724
   64SOL     MW  256   0.266   1.717   0.721 -0.0615  0.4172 -0.2619
   65SOL     OW  257   1.543   2.342   0.364  0.2402  0.4006  0.1321
   65SOL    HW1  258   1.637   2.319   0.370 -0.3243 -1.2755 -2.0975
   65SOL    HW2  259   1.531   2.385   0.457 -0.2165 -0.5985  1.6560
   65SOL     MW  260   1.554   2.344   0.377  0.1055  0.0476  0.0390
   66SOL     OW  261   0.303   0.535   0.525  0.0873  0.5723  0.2319
   66SOL    HW1  262   0.358   0.473   0.475 -1.5612 -0.4454  3.5720
   66SOL    HW2  263   0.295   0.610   0.465  0.4506  2.6893  0.8947
   66SOL     MW  264   0.309   0.537   0.511 -0.0822  0.7174  0.7600
   67SOL     OW  265   1.450   0.096   2.039 -0.7201 -0.3231 -0.4061
   67SOL    HW1  266   1.492   0.115   1.955 -0.6870  1.3694 -0.2250
   67SOL    HW2  267   1.398   0.019   2.032  1.7558  0.1873 -0.5637
   67SOL     MW  268   1.449   0.088   2.027 -0.3891 -0.0324 -0.4030
   68SOL     OW  269   0.621   0.092   2.985  0.3673  0.1818 -0.3761
   68SOL    HW1  270   0.633   0.115   2.891 -0.1109  1.6285 -0.1376
   68SOL    HW2  271   0.634   0.166   3.041  1.3942 -0.6205 -1.5327
   68SOL     MW  272   0.624   0.104   2.980  0.4397  0.2669 -0.4973
   69SOL     OW  273   1.006   0.191   1.982  0.5251 -0.2348  0.3377
   69SOL    HW1  274   1.100   0.218   1.994  1.0269 -1.2049  2.0855
   69SOL    HW2  275   0.998   0.094   2.010 -0.3689 -1.1207  1.0779
   69SOL     MW  276   1.017   0.182   1.987  0.4733 -0.4797  0.6659
   70SOL     OW  277   0.551   1.738   1.123 -0.6023 -0.7266  0.4010
   70SOL    HW1  278   0.602   1.670   1.165 -2.4232  0.1974  0.1821
   70SOL    HW2  279   0.603   1.778   1.051 -0.6263  2.3622 -1.8124
   70SOL     MW  280   0.565   1.734   1.119 -0.8457 -0.1971  0.0801
   71SOL     OW  281   1.703   0.578   1.348 -0.5940 -0.6114  0.2704
   71SOL    HW1  282   1.727   0.649   1.412 -2.1681  0.6994  0.9791
   71SOL    HW2  283   1.626   0.602   1.300 -1.2917 -3.5490 -0.7496
   71SOL     MW  284   1.696   0.591   1.350 -0.8937 -0.8260  0.2294
   72SOL     OW  285   0.782   1.761   0.961  0.0688  0.1040 -0.1918
   72SOL    HW1  286   0.760   1.819   0.882  1.3079  1.1269 -0.8615
   72SOL    HW2  287   0.764   1.668   0.945 -0.9867  0.8007  0.2187
   72SOL     MW  288   0.777   1.756   0.948  0.0931  0.3309 -0.2260
   73SOL     OW  289   1.195   0.699   1.363 -0.7567  0.0001  0.0489
   73SOL    HW1  290   1.154   0.611   1.371  1.7886 -1.3105 -0.6936
   73SOL    HW2  291   1.118   0.755   1.384 -0.6803 -0.7844  1.6751
   73SOL     MW  292   1.179   0.695   1.367 -0.4108 -0.2763  0.1655
   74SOL     OW  293   2.879   0.190   0.957 -0.6335 -0.3399 -0.1876
   74SOL    HW1  294   2.877   0.128   0.882  1.3701 -1.3099 -1.6669
   74SOL    HW2  295   2.816   0.258   0.940  1.2600  0.7955  0.5526
   74SOL     MW  296   2.870   0.191   0.945 -0.1194 -0.3181 -0.2852
   75SOL     OW  297   1.639   1.395   0.142  0.8209  0.0375  0.0474
   75SOL    HW1  298   1.696   1.390   0.218  2.5808 -1.4718 -1.1177
   75SOL    HW2  299   1.661   1.307   0.100  0.1838 -2.1915 -1.1725
   75SOL     MW  300   1.649   1.383   0.146  0.9691 -0.4558 -0.2673
   76SOL     OW  301   3.025   0.625   0.440 -0.0429 -0.1437 -0.2556
   76SOL    HW1  302   3.043   0.678   0.519 -2.1228  0.4729  1.2349
   76SOL    HW2  303   3.079   0.548   0.445 -3.8320 -1.4027  1.4972
   76SOL     MW  304   3.035   0.622   0.451 -0.8172 -0.2285  0.1723
   77SOL     OW  305   0.810   0.529   0.388 -0.2088 -0.2454 -0.1895
   77SOL    HW1  306   0.774   0.544   0.297  1.8938 -0.4044  0.4228
   77SOL    HW2  307   0.747   0.481   0.439 -1.1747  2.1164 -0.4228
   77SOL     MW  308   0.797   0.525   0.383 -0.0588  0.0453 -0.1395
   78SOL     OW  309   0.753   0.835   1.247 -0.0485  0.8466  0.2888
   78SOL    HW1  310   0.684   0.840   1.188  3.3411  0.3631  0.6427
   78SOL    HW2  311   0.805   0.912   1.229 -0.1115 -1.3091 -0.7999
   78SOL     MW  312   0.751   0.846   1.237  0.3904  0.4984  0.1919
   79SOL     OW  313   1.922   1.691   0.618 -0.4510 -0.1166  0.4603
   79SOL    HW1  314   1.838   1.640   0.601 -1.5516 -2.3108 -2.8100
   79SOL    HW2  315   1.921   1.705   0.708 -1.0222  0.1093 -3.9524
   79SOL     MW  316   1.911   1.686   0.628 -0.6716 -0.3763 -0.5534
   80SOL     OW  317   0.119   0.998   0.320 -0.2423  0.1293 -0.0716
   80SOL    HW1  318   0.028   0.956   0.318 -2.3556 -0.9769 -1.3718
   80SOL    HW2  319   0.177   0.920   0.335  1.3656 -0.1672 -0.4226
   80SOL     MW  320   0.115   0.982   0.321 -0.3090 -0.0558 -0.2895
   81SOL     OW  321   1.909   1.921   0.203 -0.2096 -0.0191  0.0032
   81SOL    HW1  322   1.868   1.830   0.193 -0.8588 -2.2367 -1.7261
   81SOL    HW2  323   1.829   1.981   0.204  0.3095 -2.5435 -1.2093
   81SOL     MW  324   1.893   1.917   0.202 -0.2268 -0.6447 -0.3850
   82SOL     OW  325   0.823   1.075   0.515 -0.1784  0.4525 -0.0514
   82SOL    HW1  326   0.831   1.091   0.423  0.6319  0.9582 -1.3496
   82SOL    HW2  327   0.803   0.988   0.524  1.3061  3.9506  0.4796
   82SOL     MW  328   0.822   1.066   0.504  0.1244  0.9807 -0.1526
   83SOL     OW  329   0.200   0.613   1.293 -0.2033  0.2347  0.1532
   83SOL    HW1  330   0.141   0.693   1.287 -2.0767  1.9860  0.7614
   83SOL    HW2  331   0.233   0.598   1.383 -0.5879 -0.4898  0.7372
   83SOL     MW  332   0.197   0.622   1.304 -0.5012  0.3702  0.3105
   84SOL     OW  333   0.075   0.199   0.904  0.5058  0.3753 -0.1123
   84SOL    HW1  334   0.001   0.249   0.878  0.7808 -2.3145  0.7552
   84SOL    HW2  335   0.052   0.157   0.990  0.1632 -0.3786 -0.2096
   84SOL     MW  336   0.063   0.200   0.912  0.4969 -0.0791 -0.0107
   85SOL     OW  337   0.479   0.450   0.761  0.2194 -0.4647 -0.0834
   85SOL    HW1  338   0.446   0.486   0.683 -0.0485  2.6202  0.3562
   85SOL    HW2  339   0.458   0.354   0.767 -3.1805  1.6860 -0.8154
   85SOL     MW  340   0.472   0.442   0.752 -0.2645  0.2261 -0.1220
   86SOL     OW  341   1.223   0.386   1.069 -0.5142 -0.1677  0.3807
   86SOL    HW1  342   1.155   0.448   1.036  2.1982  0.9298  0.1134
   86SOL    HW2  343   1.245   0.416   1.155  1.2843  0.1627 -2.2708
   86SOL     MW  344   1.217   0.398   1.076  0.0810  0.0207 -0.0044
   87SOL     OW  345   1.150   1.469   1.254 -0.2985 -0.3761 -0.1326
   87SOL    HW1  346   1.156   1.533   1.178  0.2547  0.5084 -1.4361
   87SOL    HW2  347   1.183   1.381   1.219  0.3331 -0.1872 -0.8345
   87SOL     MW  348   1.155   1.466   1.239 -0.1422 -0.2345 -0.3972
   88SOL     OW  349   1.221   1.012   1.003 -0.0487  0.1060 -0.8217
   88SOL    HW1  350   1.316   1.016   0.982  0.4064  1.3612 -1.3332
   88SOL    HW2  351   1.223   1.072   1.084 -1.2107 -1.6597  0.0363
   88SOL     MW  352   1.234   1.021   1.011 -0.1420  0.0386 -0.7760
   89SOL     OW  353   1.754   0.670   0.289 -0.6297  0.1809 -0.0870
   89SOL    HW1  354   1.807   0.598   0.336  2.6803 -1.3316 -1.9281
   89SOL    HW2  355   1.826   0.725   0.258  0.1212  0.1894  0.0819
   89SOL     MW  356   1.770   0.668   0.291 -0.0939 -0.0176 -0.3076
   90SOL     OW  357   0.687   1.174   2.833  0.0997 -0.4775 -0.4679
   90SOL    HW1  358   0.747   1.107   2.853  1.1887  3.0685  2.8128
   90SOL    HW2  359   0.690   1.220   2.920  2.1366  2.4191  0.8486
   90SOL     MW  360   0.696   1.171   2.847  0.5121  0.3725  0.1387
   91SOL     OW  361   2.233   0.664   0.554 -0.3550 -0.5990 -0.0626
   91SOL    HW1  362   2.224   0.721   0.475  1.9033 -0.5966 -2.2059
   91SOL    HW2  363   2.220   0.581   0.505  0.2599  0.3797 -0.3004
   91SOL     MW  364   2.230   0.660   0.537  0.0241 -0.4696 -0.3768
   92SOL     OW  365   1.626   0.901   0.465  0.4495  0.1887  0.6323
   92SOL    HW1  366   1.529   0.896   0.499 -0.3482 -0.6201  0.1861
   92SOL    HW2  367   1.648   0.813   0.425  0.0773  0.5194 -0.3594
   92SOL     MW  368   1.616   0.889   0.464  0.2952  0.1256  0.4426
   93SOL     OW  369   1.031   0.302   0.368 -0.2026  0.2851  0.1096
   93SOL    HW1  370   0.957   0.361   0.368 -1.5380 -1.5105  0.3269
   93SOL    HW2  371   1.071   0.304   0.279 -0.4504 -0.1748 -2.1185
   93SOL     MW  372   1.027   0.310   0.356 -0.4115 -0.0125 -0.1557
   94SOL     OW  373   1.906   1.356   1.588 -0.4033 -0.0543  0.0515
   94SOL    HW1  374   1.903   1.350   1.491  0.1787  1.2826  0.4783
   94SOL    HW2  375   1.902   1.269   1.617  0.5696  2.9252  2.6212
   94SOL     MW  376   1.905   1.344   1.579 -0.1982  0.5152  0.4468
   95SOL     OW  377   0.713   1.498   0.980 -0.0956 -0.1960  0.3844
   95SOL    HW1  378   0.801   1.448   0.997 -0.6414 -0.2540  1.8041
   95SOL    HW2  379   0.645   1.436   0.955  0.3507  4.0899 -2.7231
   95SOL     MW  380   0.716   1.483   0.979 -0.1087  0.3618  0.1617
   96SOL     OW  381   1.223   1.797   1.561  0.0806 -0.3133 -0.0916
   96SOL    HW1  382   1.142   1.754   1.608  1.2125  0.6246  1.7721
   96SOL    HW2  383   1.275   1.727   1.524  2.4939 -2.7756  1.7287
   96SOL     MW  384   1.219   1.782   1.563  0.5483 -0.5144  0.3944
   97SOL     OW  385   1.231   1.458   0.775  0.5883  0.4067  1.1390
   97SOL    HW1  386   1.255   1.504   0.855  1.6104 -0.0828 -0.2064
   97SOL    HW2  387   1.147   1.504   0.753 -0.4935  3.4352 -0.7497
   97SOL     MW  388   1.223   1.470   0.783  0.5804  0.7417  0.7123
   98SOL     OW  389   1.483   1.296   1.056 -0.0501  0.3977  0.0556
   98SOL    HW1  390   1.485   1.364   1.119 -0.8534 -1.1021 -3.0794
   98SOL    HW2  391   1.529   1.322   0.977  0.9123 -0.3282  0.2159
   98SOL     MW  392   1.490   1.308   1.054 -0.0291  0.1040 -0.3369
   99SOL     OW  393   1.425   0.384   1.298 -0.6000  0.0658  0.3798
   99SOL    HW1  394   1.439   0.459   1.237 -2.5296 -0.4835 -0.0448
   99SOL    HW2  395   1.468   0.404   1.386  2.6700  2.1242  0.3915
   99SOL     MW  396   1.432   0.397   1.302 -0.4232  0.2649  0.3253
  100SOL     OW  397   1.044   1.128   1.447 -0.1471  0.3369 -0.6390
  100SOL    HW1  398   1.026   1.144   1.538  2.7503  0.9350  0.6198
  100SOL    HW2  399   1.059   1.035   1.448  1.5949 -0.4065  1.7283
  100SOL     MW  400   1.043   1.118   1.459  0.4650  0.3178 -0.1606
  101SOL     OW  401   0.549   1.069   0.260 -0.2153 -0.0701  0.1284
  101SOL    HW1  402   0.548   0.987   0.313  0.7390  0.0995 -1.4269
  101SOL    HW2  403   0.493   1.051   0.180  0.7556  0.2905  1.0596
  101SOL     MW  404   0.542   1.056   0.257  0.0387 -0.0002  0.0460
  102SOL     OW  405   2.969   0.651   0.945 -0.5249 -0.0802 -0.4347
  102SOL    HW1  406   3.001   0.740   0.982 -2.2232  0.7670 -0.8972
  102SOL    HW2  407   2.983   0.582   1.014 -2.3635 -3.0755  0.2180
  102SOL     MW  408   2.975   0.654   0.959 -0.9916 -0.3636 -0.4096
  103SOL     OW  409   1.718   0.376   1.842  0.6491  0.3481 -0.2104
  103SOL    HW1  410   1.669   0.292   1.816  1.6501 -0.9069  1.1289
  103SOL    HW2  411   1.798   0.348   1.896  2.0109 -0.5246  1.9986
  103SOL     MW  412   1.722   0.361   1.846  0.9609  0.0674  0.2577
  104SOL     OW  413   0.169   1.788   1.517 -0.3525 -0.3549  0.1883
  104SOL    HW1  414   0.103   1.717   1.491 -0.6150  2.3884 -0.5355
  104SOL    HW2  415   0.221   1.769   1.443 -0.6875  0.9985  0.9297
  104SOL     MW  416   0.167   1.776   1.504 -0.4313  0.1856  0.1906
  105SOL     OW  417   0.050   1.204   0.503 -0.9753 -0.9290  0.0729
  105SOL    HW1  418   0.097   1.127   0.463 -4.4704 -3.3130  2.0033
  105SOL    HW2  419   0.120   1.265   0.528 -0.8281 -2.3433  0.8572
  105SOL     MW  420   0.065   1.202   0.501 -1.4170 -1.4301  0.4311
  106SOL     OW  421   0.856   0.367   1.000  0.1991  0.9634  0.1562
  106SOL    HW1  422   0.810   0.451   0.978 -1.8166  1.0223  0.9202
  106SOL    HW2  423   0.919   0.347   0.931  1.2689 -0.8102  1.0515
  106SOL     MW  424   0.858   0.376   0.988  0.0743  0.7371  0.3752
  107SOL     OW  425   0.815   2.162   2.983 -0.3277  0.0375  0.2868
  107SOL    HW1  426   0.744   2.132   2.926  2.3506 -2.3669 -1.0128
  107SOL    HW2  427   0.805   2.105   3.059  2.1881 -2.1211 -0.9201
  107SOL     MW  428   0.804   2.151   2.985  0.3576 -0.5646 -0.0439
  108SOL     OW  429   1.337   1.588   1.448 -0.1529  0.1932  0.9187
  108SOL    HW1  430   1.251   1.538   1.441  0.2898 -1.5194  0.0497
  108SOL    HW2  431   1.388   1.535   1.510  2.0309 -0.7259  2.7668
  108SOL     MW  432   1.332   1.575   1.455  0.1936 -0.1540  1.0479
  109SOL     OW  433   2.003   0.756   0.199  0.3082 -0.2614 -0.0102
  109SOL    HW1  434   2.022   0.811   0.123 -3.2188 -2.9550  0.1564
  109SOL    HW2  435   2.060   0.796   0.263 -1.4605  2.3893 -0.2212
  109SOL     MW  436   2.013   0.768   0.197 -0.3905 -0.2671 -0.0161
  110SOL     OW  437   0.503   1.890   0.773  0.2396 -0.2673 -0.3000
  110SOL    HW1  438   0.550   1.818   0.723 -3.2955  0.6307  0.2182
  110SOL    HW2  439   0.513   1.978   0.724  2.5900  2.6498 -0.3336
  110SOL     MW  440   0.510   1.892   0.760  0.0833  0.2361 -0.2361
  111SOL     OW  441   0.736   0.909   1.512  0.7005  0.5822  0.0942
  111SOL    HW1  442   0.748   0.876   1.422  1.1890  1.3528 -0.6454
  111SOL    HW2  443   0.655   0.869   1.547  1.0022 -0.2225  1.5979
  111SOL     MW  444   0.727   0.900   1.505  0.8047  0.5777  0.1950
  112SOL     OW  445   1.300   1.066   1.682  0.0560  0.2861 -1.1475
  112SOL    HW1  446   1.242   1.141   1.698 -1.1013  1.6159  0.5993
  112SOL    HW2  447   1.253   0.988   1.713 -0.1617  0.5245 -2.3574
  112SOL     MW  448   1.286   1.066   1.688 -0.1254  0.4930 -1.0766
  113SOL     OW  449   1.295   3.097   1.758 -0.6813  0.6084  0.2609
  113SOL    HW1  450   1.278   3.048   1.839  0.1371  0.7926 -0.8322
  113SOL    HW2  451   1.280   3.035   1.683  1.1286 -0.0128 -0.9517
  113SOL     MW  452   1.291   3.082   1.759 -0.3345  0.5507 -0.0433
  114SOL     OW  453   0.460   2.835   1.940 -0.6531  0.2462  0.1355
  114SOL    HW1  454   0.425   2.916   1.977  2.2017  1.8545 -0.4345
  114SOL    HW2  455   0.438   2.832   1.851  0.8075  1.5090  0.5400
  114SOL     MW  456   0.453   2.845   1.933 -0.0838  0.6250  0.1137
  115SOL     OW  457   0.481   0.813   1.114 -0.0081  0.2280 -0.0954
  115SOL    HW1  458   0.491   0.718   1.130 -1.6238 -0.1627  0.7859
  115SOL    HW2  459   0.443   0.860   1.187 -1.2354  3.6309 -2.5133
  115SOL     MW  460   0.477   0.806   1.125 -0.3832  0.6255 -0.2981
  116SOL     OW  461   0.773   1.003   0.991 -0.3718 -0.2704  0.1733
  116SOL    HW1  462   0.848   1.026   0.937  2.6636 -0.8976  0.6644
  116SOL    HW2  463   0.804   1.046   1.071 -0.8519 -4.0946  3.9139
  116SOL     MW  464   0.787   1.012   0.994 -0.0347 -0.8577  0.7316
  117SOL     OW  465   1.199   1.160   0.786 -0.1210  0.0678 -0.1042
  117SOL    HW1  466   1.199   1.107   0.866 -0.7134  2.9558 -1.1140
  117SOL    HW2  467   1.216   1.247   0.816 -2.9616  1.0411  1.2424
  117SOL     MW  468   1.201   1.164   0.801 -0.5740  0.5773 -0.0598
  118SOL     OW  469   3.029   2.900   1.692 -0.2368 -0.0671  0.1550
  118SOL    HW1  470   3.066   2.939   1.769 -1.2297  0.5697 -0.5743
  118SOL    HW2  471   2.940   2.944   1.690  0.4069 -1.0612 -3.2508
  118SOL     MW  472   3.022   2.911   1.702 -0.2828 -0.1143 -0.3906
  119SOL     OW  473   0.474   1.405   1.210 -0.0935  0.6397 -0.0052
  119SOL    HW1  474   0.476   1.432   1.122 -1.0322  1.6680  1.0214
  119SOL    HW2  475   0.384   1.374   1.226  2.6530  1.4308 -0.5184
  119SOL     MW  476   0.463   1.405   1.201  0.1450  0.8797  0.0625
  120SOL     OW  477   0.213   0.685   1.021  1.1388 -0.1931  0.4574
  120SOL    HW1  478   0.206   0.589   1.035 -1.6048 -1.7005  1.0062
  120SOL    HW2  479   0.278   0.714   1.087  1.9552 -1.0946 -0.5915
  120SOL     MW  480   0.220   0.676   1.032  0.8845 -0.5109  0.3914
  121SOL     OW  481   1.820   1.087   1.696 -0.5864 -0.2038 -0.1347
  121SOL    HW1  482   1.730   1.058   1.721 -0.9648  0.1947 -2.0711
  121SOL    HW2  483   1.832   1.043   1.609  0.9197 -0.4859 -0.2177
  121SOL     MW  484   1.810   1.077   1.688 -0.4376 -0.1884 -0.4011
  122SOL     OW  485   0.131   0.561   0.773 -0.0634  0.2745  0.4589
  122SOL    HW1  486   0.202   0.548   0.712  1.5884  0.9523  1.5579
  122SOL    HW2  487   0.174   0.601   0.846 -3.1889  0.3469  1.2753
  122SOL     MW  488   0.146   0.564   0.775 -0.2578  0.3735  0.7116
  123SOL     OW  489   1.810   1.100   0.497 -0.4734 -0.0182  0.7332
  123SOL    HW1  490   1.724   1.053   0.482  0.3799  1.5745 -0.4438
  123SOL    HW2  491   1.828   1.096   0.590 -0.9872  0.4885 -2.0654
  123SOL     MW  492   1.801   1.093   0.507 -0.4286  0.2588  0.2086
  124SOL     OW  493   0.667   0.567   0.943  0.7070  0.1126  0.4439
  124SOL    HW1  494   0.605   0.520   0.884  0.3072 -1.5583 -0.4176
  124SOL    HW2  495   0.687   0.650   0.890 -2.2009  1.0743 -0.0384
  124SOL     MW  496   0.661   0.572   0.928  0.2705  0.0190  0.2666
  125SOL     OW  497   0.691   1.762   1.701  0.4059  0.5186 -0.3783
  125SOL    HW1  498   0.626   1.698   1.682 -1.0561  0.6634  2.6573
  125SOL    HW2  499   0.647   1.850   1.696  0.8984 -2.2124 -0.5165
  125SOL     MW  500   0.677   1.765   1.698  0.2779  0.1774  0.0040
  126SOL     OW  501   2.093   1.631   1.965 -0.1014  0.5102 -0.1928
  126SOL    HW1  502   2.161   1.700   1.946 -0.0255  0.8048  1.7068
  126SOL    HW2  503   2.132   1.551   1.998 -1.7791  0.7391  0.7189
  126SOL     MW  504   2.107   1.629   1.967 -0.3127  0.5792  0.1781
  127SOL     OW  505   0.644   0.762   1.869  0.2192  0.1850 -0.2934
  127SOL    HW1  506   0.730   0.727   1.901  2.4852  0.5399 -0.4607
  127SOL    HW2  507   0.648   0.848   1.907  0.1731 -0.9961 -0.0587
  127SOL     MW  508   0.656   0.769   1.878  0.5121  0.0760 -0.2845
  128SOL     OW  509   1.842   0.782   2.851 -0.0474 -0.0125 -0.0241
  128SOL    HW1  510   1.802   0.737   2.774 -0.0796 -4.7339  1.1763
  128SOL    HW2  511   1.771   0.843   2.884  1.0641 -0.6055 -0.3513
  128SOL     MW  512   1.827   0.784   2.845  0.0950 -0.7137  0.0911
  129SOL     OW  513   1.585   0.951   0.206  0.8065 -0.7598  0.0859
  129SOL    HW1  514   1.535   0.871   0.207 -1.5097 -2.9907 -1.0693
  129SOL    HW2  515   1.597   0.969   0.298 -1.0686 -0.0664 -1.5054
  129SOL     MW  516   1.580   0.942   0.219  0.2535 -0.9627 -0.2765
  130SOL     OW  517   0.792   1.412   0.416  0.5457  0.3228 -0.3604
  130SOL    HW1  518   0.838   1.412   0.505 -2.1556 -2.0423 -0.8356
  130SOL    HW2  519   0.833   1.477   0.360  2.4222 -2.1904  0.4095
  130SOL     MW  520   0.804   1.420   0.420  0.4368 -0.3209 -0.3215
  131SOL     OW  521   3.017   0.817   3.080 -0.2678  0.3041 -0.1147
  131SOL    HW1  522   3.007   0.883   3.010 -0.8841  0.3455  0.8627
  131SOL    HW2  523   3.119   0.823   3.093  0.5422 -1.7506 -1.0035
  131SOL     MW  524   3.030   0.827   3.073 -0.2422  0.0385 -0.1030
  132SOL     OW  525   2.809   0.135   1.223  0.1216  0.2684 -0.2372
  132SOL    HW1  526   2.845   0.129   1.138 -0.7144  0.2480 -0.0279
  132SOL    HW2  527   2.718   0.111   1.209  1.9029 -1.0762 -0.3577
  132SOL     MW  528   2.802   0.131   1.210  0.2463  0.0883 -0.2255
  133SOL     OW  529   1.054   0.157   1.705 -0.2361  0.4353 -0.0938
  133SOL    HW1  530   1.112   0.088   1.733 -1.7184  0.5339 -0.3235
  133SOL    HW2  531   1.023   0.187   1.793  1.4405  0.4437  0.6149
  133SOL     MW  532   1.057   0.152   1.720 -0.2104  0.4494 -0.0306
  134SOL     OW  533   1.426   2.518   1.431  0.5237 -0.1854  0.0208
  134SOL    HW1  534   1.364   2.587   1.404  0.4987  1.8843 -1.1068
  134SOL    HW2  535   1.452   2.539   1.523 -0.2620  0.8472 -1.6444
  134SOL     MW  536   1.421   2.530   1.440  0.4167  0.2239 -0.3477
  135SOL     OW  537   3.019   1.026   2.865  0.0326 -0.0351 -0.6277
  135SOL    HW1  538   3.091   1.089   2.894 -1.6462  4.5924  2.4721
  135SOL    HW2  539   2.943   1.068   2.904  1.2589  1.4623 -1.4425
  135SOL     MW  540   3.018   1.040   2.874 -0.0271  0.7730 -0.3262
  136SOL     OW  541   0.258   2.037   0.873 -0.2308  0.5061  0.1237
  136SOL    HW1  542   0.172   2.002   0.845  0.5929  3.5011  0.6868
  136SOL    HW2  543   0.332   1.990   0.840 -1.3676  2.0846  0.5665
  136SOL     MW  544   0.256   2.026   0.865 -0.2721  1.1095  0.2564
  137SOL     OW  545   0.729   2.051   0.525 -0.3950  0.2729  0.5191
  137SOL    HW1  546   0.767   2.013   0.604  0.6579 -1.1073 -2.0623
  137SOL    HW2  547   0.641   2.087   0.554 -1.4713 -1.4235 -0.5525
  137SOL     MW  548   0.722   2.051   0.539 -0.3981 -0.1330  0.0371
  138SOL     OW  549   0.523   0.552   1.171  0.4860 -0.2659 -0.4129
  138SOL    HW1  550   0.432   0.532   1.129 -2.8308 -0.9227  0.6622
  138SOL    HW2  551   0.577   0.564   1.097 -0.2632  1.1719  2.4052
  138SOL     MW  552   0.518   0.551   1.156 -0.0505 -0.1629  0.1008
  139SOL     OW  553   2.662   0.534   1.402 -0.0012  0.6390 -0.8093
  139SOL    HW1  554   2.738   0.483   1.376 -2.6562  0.2236  0.9768
  139SOL    HW2  555   2.692   0.621   1.416  1.5702 -2.0343  0.7175
  139SOL     MW  556   2.676   0.539   1.400 -0.1442  0.2315 -0.3722
  140SOL     OW  557   0.838   0.374   2.098  0.0792 -0.2008 -0.3468
  140SOL    HW1  558   0.900   0.306   2.057  1.5904 -0.1890  0.5849
  140SOL    HW2  559   0.869   0.402   2.182 -0.2192  2.8268 -0.5584
  140SOL     MW  560   0.850   0.369   2.104  0.2392  0.2002 -0.2518
  141SOL     OW  561   1.081   0.559   1.766 -0.1992 -0.7922  0.3541
  141SOL    HW1  562   1.133   0.503   1.716 -1.4713  1.4254 -2.1377
  141SOL    HW2  563   1.108   0.651   1.743 -0.9650  0.6211  1.6091
  141SOL     MW  564   1.091   0.564   1.756 -0.4681 -0.3131  0.1909
  142SOL     OW  565   0.938   1.119   0.767 -0.5949  0.6764 -0.1018
  142SOL    HW1  566   0.914   1.093   0.676 -0.5187  0.3699 -0.0566
  142SOL    HW2  567   1.036   1.110   0.768  1.5881 -0.6685  0.5675
  142SOL     MW  568   0.948   1.114   0.755 -0.2968  0.4585 -0.0076
  143SOL     OW  569   1.782   0.772   1.097 -0.2252 -0.0832 -0.0930
  143SOL    HW1  570   1.812   0.781   1.005 -0.7574  1.8975  0.3763
  143SOL    HW2  571   1.694   0.754   1.091  0.1442  1.3611  0.2944
  143SOL     MW  572   1.775   0.771   1.084 -0.2467  0.3687  0.0201
  144SOL     OW  573   0.182   1.220   1.541 -0.0147 -0.3223 -0.1263
  144SOL    HW1  574   0.278   1.198   1.534  0.4268 -0.0706 -1.3766
  144SOL    HW2  575   0.166   1.237   1.638  1.6392  0.9282  1.7969
  144SOL     MW  576   0.193   1.219   1.553  0.2618 -0.1241 -0.0375
  145SOL     OW  577   0.291   0.422   1.057 -0.5676 -0.6998 -0.7202
  145SOL    HW1  578   0.296   0.351   1.123  1.9538  3.7239 -0.1832
  145SOL    HW2  579   0.303   0.382   0.979  0.8848  2.3258  3.6612
  145SOL     MW  580   0.293   0.408   1.056 -0.0433  0.2830 -0.0713
  146SOL     OW  581   0.868   1.934   1.383 -0.6355 -0.0986 -0.3802
  146SOL    HW1  582   0.917   1.923   1.296  0.2813  2.7043  1.9252
  146SOL    HW2  583   0.779   1.944   1.361  4.5993  1.7829  0.0908
  146SOL     MW  584   0.863   1.934   1.369  0.1761  0.5195 -0.0139
  147SOL     OW  585   0.372   0.386   2.954  0.0030 -0.2238  0.5073
  147SOL    HW1  586   0.344   0.405   3.044  1.1971  1.1142 -0.0806
  147SOL    HW2  587   0.310   0.439   2.896 -0.4512  0.1982  0.1234
  147SOL     MW  588   0.360   0.396   2.958  0.1006  0.0084  0.3791
  148SOL     OW  589   0.114   0.866   1.346  0.3471 -0.0474 -0.7135
  148SOL    HW1  590   0.200   0.890   1.316 -2.8262 -1.9604  0.5971
  148SOL    HW2  591   0.102   0.909   1.429  1.7636  1.5216  1.6212
  148SOL     MW  592   0.124   0.875   1.353  0.1153 -0.0928 -0.2326
  149SOL     OW  593   1.396   1.184   1.413  0.2841 -0.2376 -0.5452
  149SOL    HW1  594   1.349   1.162   1.495 -4.1442  0.2213 -2.1671
  149SOL    HW2  595   1.481   1.222   1.428 -1.7143  0.7913  2.3070
  149SOL     MW  596   1.401   1.186   1.426 -0.5639 -0.0413 -0.3829
  150SOL     OW  597   1.871   1.352   0.744 -0.0923  0.0143 -0.1523
  150SOL    HW1  598   1.883   1.261   0.771 -2.2224 -0.3854 -0.4746
  150SOL    HW2  599   1.946   1.394   0.782  0.5123 -0.2912  0.8243
  150SOL     MW  600   1.882   1.346   0.753 -0.2936 -0.0787 -0.0659
  151SOL     OW  601   1.654   1.866   0.849  0.1947  0.1514 -0.0821
  151SOL    HW1  602   1.614   1.892   0.767 -2.8813 -2.9637 -0.4514
  151SOL    HW2  603   1.616   1.790   0.885  0.6853  2.4729 -1.9325
  151SOL     MW  604   1.644   1.859   0.843 -0.1464  0.0467 -0.3750
  152SOL     OW  605   0.763   1.332   1.473 -0.2838 -0.7450 -0.1240
  152SOL    HW1  606   0.746   1.271   1.539 -1.2556 -0.7991  0.5998
  152SOL    HW2  607   0.853   1.369   1.487 -1.3869  1.0326  1.0219
  152SOL     MW  608   0.772   1.328   1.483 -0.5576 -0.5176  0.1227
  153SOL     OW  609   2.636   1.282   0.765 -0.0354  0.0060 -0.0844
  153SOL    HW1  610   2.719   1.246   0.738  1.8054 -3.0040  2.3465
  153SOL    HW2  611   2.567   1.214   0.758  2.1635 -0.1967 -1.1533
  153SOL     MW  612   2.638   1.268   0.760  0.4976 -0.4179  0.0953
  154SOL     OW  613   0.374   1.734   1.700  0.3865  0.1075  0.6790
  154SOL    HW1  614   0.335   1.720   1.615  1.0772  1.2338  2.6836
  154SOL    HW2  615   0.350   1.662   1.753 -1.6175  3.6248 -0.6902
  154SOL     MW  616   0.366   1.722   1.696  0.2132  0.7202  0.7628
  155SOL     OW  617   1.115   0.681   0.286  0.6737  0.9866 -0.2950
  155SOL    HW1  618   1.110   0.654   0.381  1.9917 -0.5776  1.2431
  155SOL    HW2  619   1.060   0.763   0.286  0.4211  2.0082  1.0723
  155SOL     MW  620   1.107   0.688   0.299  0.8142  0.9150  0.0883
  156SOL     OW  621   1.582   3.008   1.081  0.8011 -0.4756  0.0238
  156SOL    HW1  622   1.609   3.097   1.113 -1.4249  0.7513  1.9552
  156SOL    HW2  623   1.594   2.949   1.153 -2.2092  0.3921 -2.2312
  156SOL     MW  624   1.587   3.012   1.094  0.1102 -0.1992 -0.0189
  157SOL     OW  625   1.408   1.147   0.127  0.2832 -0.5983 -0.3068
  157SOL    HW1  626   1.475   1.079   0.147 -1.7439  1.4355  0.3930
  157SOL    HW2  627   1.458   1.222   0.095 -0.6176  1.3610  1.3329
  157SOL     MW  628   1.423   1.148   0.125 -0.1031 -0.0714  0.0019
  158SOL     OW  629   0.467   1.659   2.238  0.2030 -0.0494  0.0946
  158SOL    HW1  630   0.457   1.689   2.150  0.1984 -0.4191  0.2625
  158SOL    HW2  631   0.378   1.656   2.270 -0.7434  0.2543  1.8314
  158SOL     MW  632   0.454   1.663   2.231  0.0775 -0.0581  0.3459
  159SOL     OW  633   1.282   1.713   0.442 -0.3039 -0.0188 -0.9444
  159SOL    HW1  634   1.249   1.639   0.391 -2.7440 -0.3039  0.6468
  159SOL    HW2  635   1.196   1.762   0.475  2.7715  1.3517 -0.1022
  159SOL     MW  636   1.266   1.709   0.440 -0.2201  0.1244 -0.6233
  160SOL     OW  637   0.468   1.125   1.567 -0.2053  0.2842  0.1010
  160SOL    HW1  638   0.473   1.033   1.593 -0.7876  2.8462  1.4617
  160SOL    HW2  639   0.502   1.166   1.646 -1.0936  0.0075 -2.8147
  160SOL     MW  640   0.473   1.118   1.581 -0.3993  0.5857 -0.1041
  161SOL     OW  641   0.538   2.177   2.610 -0.2203  0.9594 -0.3631
  161SOL    HW1  642   0.445   2.156   2.619 -0.7203 -0.8868 -2.2089
  161SOL    HW2  643   0.564   2.131   2.530 -0.0621 -2.1617  1.4458
  161SOL     MW  644   0.529   2.168   2.601 -0.2654  0.3040 -0.3680
  162SOL     OW  645   1.030   1.731   1.759  0.7953 -0.0406  0.3836
  162SOL    HW1  646   1.029   1.829   1.767  2.0413  2.6825  0.3932
  162SOL    HW2  647   0.947   1.712   1.814  1.2896 -0.2104  3.4859
  162SOL     MW  648   1.019   1.742   1.768  1.0249  0.2963  0.7942
  163SOL     OW  649   2.100   0.073   0.984  0.0284 -0.3386 -0.2015
  163SOL    HW1  650   2.087   0.077   0.892 -4.0549  0.8763 -0.9358
  163SOL    HW2  651   2.021   0.027   1.017  1.4589 -1.3603 -1.3266
  163SOL     MW  652   2.088   0.067   0.976 -0.3216 -0.3131 -0.4469
  164SOL     OW  653   0.334   0.200   0.791  0.3884 -0.0146  0.4063
  164SOL    HW1  654   0.238   0.210   0.809 -1.2757  0.4802  0.5062
  164SOL    HW2  655   0.335   0.109   0.767  0.0753  0.5493  0.4563
  164SOL     MW  656   0.322   0.190   0.791  0.1275  0.1251  0.4260
  165SOL     OW  657   1.329   1.246   0.400 -0.2391  0.0486 -0.3333
  165SOL    HW1  658   1.273   1.176   0.443 -0.1786  0.9576 -2.7268
  165SOL    HW2  659   1.335   1.227   0.310 -1.2898 -1.4144 -0.6823
  165SOL     MW  660   1.322   1.235   0.393 -0.3697 -0.0245 -0.6952
  166SOL     OW  661   0.510   1.059   0.947  0.0206  0.1400  0.5691
  166SOL    HW1  662   0.460   1.011   1.013  1.6169  0.2872 -1.7667
  166SOL    HW2  663   0.604   1.042   0.973 -0.9728 -0.8723  1.2117
  166SOL     MW  664   0.516   1.050   0.959  0.1001  0.0258  0.3457
  167SOL     OW  665   0.836   1.119   0.260 -0.6534 -0.5609 -0.0587
  167SOL    HW1  666   0.748   1.090   0.243  3.3335 -0.7968  0.9141
  167SOL    HW2  667   0.855   1.195   0.211 -0.0705 -0.6011  0.2866
  167SOL     MW  668   0.827   1.125   0.251 -0.0505 -0.5973  0.1152
  168SOL     OW  669   1.670   1.695   2.921 -0.7474 -0.4993 -0.0195
  168SOL    HW1  670   1.577   1.704   2.916 -0.4571 -1.3196  0.1525
  168SOL    HW2  671   1.692   1.602   2.915 -1.3275  2.3839 -0.5505
  168SOL     MW  672   1.661   1.684   2.919 -0.7857 -0.2271 -0.0668
  169SOL     OW  673   0.359   0.971   1.296  0.2642 -0.2032  0.2647
  169SOL    HW1  674   0.404   0.936   1.374  0.7178  1.7502 -1.5684
  169SOL    HW2  675   0.426   1.040   1.266 -0.3431  0.4599  0.7078
  169SOL     MW  676   0.374   0.976   1.303  0.2439  0.1420  0.0813
  170SOL     OW  677   0.999   1.448   1.472 -0.4722 -0.3220  0.0973
  170SOL    HW1  678   0.966   1.540   1.485 -0.4815 -0.9534 -0.2915
  170SOL    HW2  679   1.073   1.449   1.400 -1.5583  2.2122  1.7161
  170SOL     MW  680   1.004   1.461   1.464 -0.6168 -0.0710  0.2596
  171SOL     OW  681   0.593   1.436   0.677  0.6599  0.3637 -0.9040
  171SOL    HW1  682   0.569   1.409   0.767  0.4061 -1.3390  0.4944
  171SOL    HW2  683   0.575   1.356   0.628 -0.6339  0.0805 -0.8109
  171SOL     MW  684   0.587   1.422   0.683  0.4557  0.1017 -0.7072
  172SOL     OW  685   0.854   0.340   1.275 -0.7583 -0.0178  0.0889
  172SOL    HW1  686   0.841   0.378   1.184  0.7397 -1.1600 -1.8208
  172SOL    HW2  687   0.761   0.315   1.301 -0.8596  1.4512  1.1824
  172SOL     MW  688   0.840   0.342   1.266 -0.5740  0.0253 -0.0188
  173SOL     OW  689   0.480   1.661   0.407  0.0007  0.1410  0.1182
  173SOL    HW1  690   0.504   1.574   0.367  0.0187 -2.4568 -2.6838
  173SOL    HW2  691   0.538   1.674   0.487  0.4686  0.2363 -0.1707
  173SOL     MW  692   0.491   1.652   0.412  0.0648 -0.1892 -0.2896
  174SOL     OW  693   1.962   0.978   1.469 -0.3621  0.5595  0.4573
  174SOL    HW1  694   1.902   0.898   1.485 -2.9981  2.2170 -0.6002
  174SOL    HW2  695   1.914   1.009   1.390 -1.8556  0.6219  0.3201
  174SOL     MW  696   1.948   0.972   1.461 -0.9070  0.7864  0.2997
  175SOL     OW  697   0.472   1.384   0.330 -0.2503 -0.7161  0.1811
  175SOL    HW1  698   0.435   1.378   0.243  0.8461 -1.0818  0.3415
  175SOL    HW2  699   0.551   1.344   0.323 -2.0299  1.3607 -0.6735
  175SOL     MW  700   0.478   1.378   0.318 -0.3404 -0.4904  0.0895
  176SOL     OW  701   0.203   1.331   1.257 -0.8007  0.6067 -0.3299
  176SOL    HW1  702   0.161   1.297   1.176 -1.2273  1.6852  1.3500
  176SOL    HW2  703   0.153   1.311   1.337 -2.8968  0.4563 -4.8047
  176SOL     MW  704   0.191   1.324   1.257 -1.1335  0.7291 -0.6986
  177SOL     OW  705   0.583   0.314   1.313 -0.1719 -0.2357  0.4652
  177SOL    HW1  706   0.567   0.389   1.254  0.4643 -0.4413  0.6238
  177SOL    HW2  707   0.584   0.345   1.399  0.5533  0.3201  0.5594
  177SOL     MW  708   0.581   0.328   1.316  0.0077 -0.1895  0.4985
  178SOL     OW  709   3.024   0.407   2.884 -0.0782  0.0811 -0.0426
  178SOL    HW1  710   2.986   0.452   2.963  1.1649 -0.6473 -0.5373
  178SOL    HW2  711   2.969   0.437   2.815  0.5927 -0.3677  0.2124
  178SOL     MW  712   3.012   0.417   2.886  0.1743 -0.0742 -0.0742
  179SOL     OW  713   1.605   1.336   1.454 -0.5258  0.7491  0.3742
  179SOL    HW1  714   1.597   1.403   1.519  1.9316  1.2653 -1.4082
  179SOL    HW2  715   1.703   1.333   1.432 -1.4244 -1.5395 -0.4654
  179SOL     MW  716   1.617   1.345   1.459 -0.3201  0.5152  0.0282
  180SOL     OW  717   2.984   0.200   0.447 -0.1813  0.2235  0.5580
  180SOL    HW1  718   2.950   0.203   0.359 -0.3394  1.1288 -0.4502
  180SOL    HW2  719   3.050   0.277   0.443  1.7988  0.9168 -0.8464
  180SOL     MW  720   2.989   0.210   0.435  0.0591  0.4344  0.2397
  181SOL     OW  721   1.150   1.403   3.039  0.4930 -1.0754  0.3746
  181SOL    HW1  722   1.228   1.419   3.090  0.9021  2.1766 -1.3395
  181SOL    HW2  723   1.170   1.440   2.958 -0.7170 -0.5942 -0.0099
  181SOL     MW  724   1.163   1.410   3.035  0.3873 -0.5828  0.0977
  182SOL     OW  725   0.501   0.864   1.673  0.0410 -0.1374  0.3125
  182SOL    HW1  726   0.433   0.797   1.666 -1.0367 -1.2459  1.9929
  182SOL    HW2  727   0.546   0.820   1.747  2.0369  2.0913 -0.2712
  182SOL     MW  728   0.498   0.850   1.682  0.1621  0.0104  0.4572
  183SOL     OW  729   1.496   1.508   1.253 -0.2800  0.2709 -0.2199
  183SOL    HW1  730   1.424   1.548   1.307 -0.1563 -0.7695 -0.8915
  183SOL    HW2  731   1.549   1.454   1.317  1.8483 -1.3075  0.5450
  183SOL     MW  732   1.493   1.506   1.269  0.0171 -0.0746 -0.2076
  184SOL     OW  733   0.892   0.639   1.967  0.5903 -0.1742 -0.0967
  184SOL    HW1  734   0.955   0.618   1.898  0.3772 -0.3633  0.1422
  184SOL    HW2  735   0.875   0.560   2.015  1.8615  1.8970  4.6081
  184SOL     MW  736   0.898   0.625   1.964  0.7299  0.0741  0.5556
  185SOL     OW  737   1.186   0.946   1.970 -0.3653 -0.0985 -0.1571
  185SOL    HW1  738   1.199   0.878   2.032  0.3375  1.2361  1.8600
  185SOL    HW2  739   1.268   0.999   1.972 -3.3572  0.4403 -0.5775
  185SOL     MW  740   1.198   0.944   1.978 -0.6673  0.1487  0.0535
  186SOL     OW  741   0.431   1.656   1.421  0.1159 -0.4332  0.0343
  186SOL    HW1  742   0.507   1.639   1.365  1.6741 -0.8637  2.6994
  186SOL    HW2  743   0.358   1.622   1.371 -1.1367 -2.4424 -2.1297
  186SOL     MW  744   0.431   1.650   1.407  0.1562 -0.7551  0.1004
  187SOL     OW  745   1.450   0.769   1.450 -0.0936 -0.1020  0.0513
  187SOL    HW1  746   1.455   0.723   1.535  0.1846 -1.7429  0.2257
  187SOL    HW2  747   1.363   0.740   1.418  0.7166 -0.4964  1.2174
  187SOL     MW  748   1.439   0.759   1.457  0.0500 -0.3705  0.2281
  188SOL     OW  749   1.896   1.085   0.791  0.2182  0.6408  0.4659
  188SOL    HW1  750   1.893   1.069   0.889  0.3629  1.0875  1.9061
  188SOL    HW2  751   1.986   1.060   0.775 -0.9018  0.7707  0.4092
  188SOL     MW  752   1.907   1.079   0.802  0.0895  0.7169  0.6484
  189SOL     OW  753   0.737   0.785   0.774  0.1085 -0.7920  0.6797
  189SOL    HW1  754   0.658   0.834   0.750  0.8262 -0.0871  1.9563
  189SOL    HW2  755   0.759   0.835   0.857 -0.6996 -1.4231 -0.0894
  189SOL     MW  756   0.729   0.798   0.782  0.0966 -0.7823  0.7466
  190SOL     OW  757   1.869   0.197   2.029 -0.4078 -0.5953 -0.3039
  190SOL    HW1  758   1.844   0.119   2.077  1.7276  1.8879 -0.0746
  190SOL    HW2  759   1.962   0.174   2.010  0.6319  2.2940  3.7063
  190SOL     MW  760   1.878   0.183   2.033  0.0111  0.1136  0.2554
  191SOL     OW  761   1.474   0.953   1.248 -0.5680  0.1568 -0.7789
  191SOL    HW1  762   1.440   1.013   1.315 -2.6279  0.3348 -2.4170
  191SOL    HW2  763   1.485   0.872   1.301  1.8240  2.0075  0.7130
  191SOL     MW  764   1.471   0.950   1.264 -0.5242  0.4244 -0.7982
  192SOL     OW  765   0.630   2.034   2.825 -0.7358  0.3344 -0.2324
  192SOL    HW1  766   0.605   2.095   2.752  0.5371 -2.4748  1.6754
  192SOL    HW2  767   0.601   1.949   2.799  0.9336  2.2695  1.1628
  192SOL     MW  768   0.623   2.031   2.812 -0.3476  0.2190  0.2034
  193SOL     OW  769   1.012   1.596   0.722 -0.0751 -0.6963  0.0177
  193SOL    HW1  770   1.001   1.643   0.806  2.3636 -2.2004 -2.5118
  193SOL    HW2  771   0.945   1.524   0.716  1.8768 -0.6846  0.7832
  193SOL     MW  772   1.001   1.592   0.733  0.5042 -0.8932 -0.2150
  194SOL     OW  773   0.504   1.334   0.917 -0.9142  0.1803 -0.2137
  194SOL    HW1  774   0.490   1.235   0.938 -0.5223  2.7260  0.1334
  194SOL    HW2  775   0.418   1.366   0.883  1.4952  1.5387  0.5221
  194SOL     MW  776   0.491   1.325   0.915 -0.5446  0.6954 -0.0708
  195SOL     OW  777   1.285   1.088   2.967  0.4150 -0.1969  0.2152
  195SOL    HW1  778   1.319   1.082   3.057 -2.6103  2.4359 -0.8518
  195SOL    HW2  779   1.189   1.087   2.975 -1.1784  2.1308 -0.1107
  195SOL     MW  780   1.277   1.087   2.980 -0.1944  0.4576  0.0314
  196SOL     OW  781   2.182   1.031   0.631 -0.3097 -0.6936  0.4857
  196SOL    HW1  782   2.133   0.981   0.562 -0.3250 -1.9499  2.9718
  196SOL    HW2  783   2.147   1.121   0.623  0.9679 -0.3793 -1.6679
  196SOL     MW  784   2.171   1.036   0.621 -0.1432 -0.8179  0.5296
  197SOL     OW  785   0.680   1.283   2.017  0.6295 -0.2994  0.3174
  197SOL    HW1  786   0.678   1.193   2.006  2.6107  2.2125 -0.2454
  197SOL    HW2  787   0.626   1.308   1.944  1.9836  1.3698 -0.7319
  197SOL     MW  788   0.672   1.274   2.006  1.0696  0.2523  0.1047
  198SOL     OW  789   2.945   1.464   1.047  0.1566 -0.6704 -0.0694
  198SOL    HW1  790   2.932   1.561   1.031 -1.2032  0.6500  1.6681
  198SOL    HW2  791   2.862   1.421   1.015 -1.0736 -1.5753 -0.4098
  198SOL     MW  792   2.932   1.471   1.041 -0.1851 -0.6156  0.1149
  199SOL     OW  793   0.506   1.331   1.793  0.4102  0.7316 -0.3543
  199SOL    HW1  794   0.420   1.293   1.775  0.9991  0.3850 -0.3578
  199SOL    HW2  795   0.540   1.383   1.712  0.6040  0.4006  0.1778
  199SOL     MW  796   0.499   1.333   1.780  0.5135  0.6422 -0.2845
  200SOL     OW  797   1.909   3.076   1.360 -0.4706  0.0606 -0.1870
  200SOL    HW1  798   1.875   3.067   1.271  3.0430 -1.1490 -2.2417
  200SOL    HW2  799   1.838   3.097   1.417  0.0663 -1.3215  1.4867
  200SOL     MW  800   1.895   3.077   1.356  0.0638 -0.2813 -0.2373
  201SOL     OW  801   1.028   0.248   0.813 -0.9243 -0.1286  0.3305
  201SOL    HW1  802   1.009   0.154   0.791  1.2580 -2.8391 -1.1090
  201SOL    HW2  803   1.048   0.283   0.730  0.1256 -0.3113  3.9115
  201SOL     MW  804   1.028   0.240   0.799 -0.4978 -0.5103  0.6130
  202SOL     OW  805   1.541   1.660   0.995 -0.5256 -0.5653 -0.6352
  202SOL    HW1  806   1.565   1.580   0.940 -1.0517 -1.6223  2.7388
  202SOL    HW2  807   1.559   1.631   1.085  1.9462 -0.0098 -0.3996
  202SOL     MW  808   1.547   1.646   1.000 -0.2689 -0.6315 -0.1590
  203SOL     OW  809  -0.003   0.453   1.152  0.1422 -0.5574  0.0323
  203SOL    HW1  810   0.043   0.373   1.134 -0.7409  1.7904 -0.4269
  203SOL    HW2  811   0.067   0.506   1.194  0.2522  0.5809 -2.9435
  203SOL     MW  812   0.012   0.449   1.155  0.0402 -0.0974 -0.4209
  204SOL     OW  813   1.050   1.799   0.537  0.4248  0.4732  0.3230
  204SOL    HW1  814   1.048   1.718   0.595  0.1329  0.5450  1.0488
  204SOL    HW2  815   0.961   1.800   0.495 -1.4260  0.4245  2.6136
  204SOL     MW  816   1.038   1.789   0.539  0.1421  0.4762  0.7210
  205SOL     OW  817   1.360   0.099   1.331  0.0939 -0.1296 -0.1307
  205SOL    HW1  818   1.278   0.094   1.281 -1.1015  2.2076 -0.5454
  205SOL    HW2  819   1.382   0.190   1.304 -0.2551  1.1833 -0.7945
  205SOL     MW  820   1.352   0.110   1.321 -0.1099  0.3520 -0.2730
  206SOL     OW  821   0.418   3.074   1.434  0.1016 -0.5121 -0.2209
  206SOL    HW1  822   0.331   3.077   1.386 -0.4891  0.4146 -0.7325
  206SOL    HW2  823   0.472   2.994   1.417  0.0966  3.0125  2.6319
  206SOL     MW  824   0.414   3.064   1.425  0.0230  0.0752  0.0880
  207SOL     OW  825   0.962   1.536   0.201 -0.3280  0.1757  0.3578
  207SOL    HW1  826   0.969   1.629   0.183  1.1600 -0.1439  1.0187
  207SOL    HW2  827   1.045   1.504   0.221 -3.2480  0.5124 -1.8741
  207SOL     MW  828   0.974   1.544   0.202 -0.5169  0.1779  0.1505
  208SOL     OW  829   0.682   1.589   1.316 -0.2605  0.4090  0.2913
  208SOL    HW1  830   0.759   1.630   1.366  0.8308  0.1470  1.2162
  208SOL    HW2  831   0.706   1.503   1.284 -2.1746  1.4012  0.7974
  208SOL     MW  832   0.696   1.583   1.319 -0.3690  0.5053  0.4801
  209SOL     OW  833   1.582   0.545   2.847  0.4873 -0.1653  0.2394
  209SOL    HW1  834   1.609   0.601   2.921  0.2802  0.5834  0.3581
  209SOL    HW2  835   1.653   0.479   2.838 -3.8819  1.3863  1.0012
  209SOL     MW  836   1.595   0.543   2.856 -0.1165  0.1382  0.3556
  210SOL     OW  837   1.622   1.437   0.865 -0.3035 -0.2098 -0.1570
  210SOL    HW1  838   1.706   1.396   0.842  1.4855 -1.1443 -2.0657
  210SOL    HW2  839   1.566   1.440   0.784  1.3391 -1.6972 -1.8052
  210SOL     MW  840   1.626   1.432   0.851  0.1492 -0.5294 -0.6263
  211SOL     OW  841   1.680   0.376   0.954 -0.2504  0.4628  0.0709
  211SOL    HW1  842   1.662   0.387   0.860  0.3370  4.1973 -1.3004
  211SOL    HW2  843   1.768   0.427   0.967  0.1871  0.3907  1.2179
  211SOL     MW  844   1.689   0.384   0.943 -0.1152  0.9460  0.0413
  212SOL     OW  845   0.263   1.121   0.087  0.2909  0.0772  0.3999
  212SOL    HW1  846   0.214   1.085   0.161 -0.1767  0.3364 -0.3544
  212SOL    HW2  847   0.275   1.044   0.033 -1.7921 -0.1290 -0.0370
  212SOL     MW  848   0.258   1.106   0.090 -0.0456  0.0842  0.2427
  213SOL     OW  849   0.385   1.765   3.034  0.0642 -0.0690 -0.1131
  213SOL    HW1  850   0.432   1.791   3.113  1.3916 -3.1158  0.7836
  213SOL    HW2  851   0.448   1.772   2.963  2.2344 -1.3034  0.7033
  213SOL     MW  852   0.399   1.769   3.035  0.5257 -0.6339  0.1129
  214SOL     OW  853   0.621   0.294   2.224 -0.7418 -0.2472  0.0604
  214SOL    HW1  854   0.553   0.358   2.198 -0.8397  2.2295  0.5487
  214SOL    HW2  855   0.692   0.307   2.160  3.1022 -0.9884 -1.2446
  214SOL     MW  856   0.621   0.304   2.212 -0.2475 -0.0182 -0.0473
  215SOL     OW  857   0.468   0.674   2.632  0.1471 -0.4428  0.2028
  215SOL    HW1  858   0.432   0.643   2.548  0.5576  0.3165 -0.8103
  215SOL    HW2  859   0.402   0.634   2.695 -0.0952 -1.9009 -1.5097
  215SOL     MW  860   0.454   0.665   2.630  0.1693 -0.5350 -0.1568
  216SOL     OW  861   3.040   3.050   2.652  0.0669  0.6236  0.1830
  216SOL    HW1  862   3.002   3.039   2.744  2.6211  0.8296  0.7649
  216SOL    HW2  863   3.034   3.148   2.634 -3.8886  2.3518  1.1901
  216SOL     MW  864   3.034   3.062   2.662 -0.1180  0.8788  0.3927
  217SOL     OW  865   0.934   1.248   0.023 -0.9350 -0.2710  0.2772
  217SOL    HW1  866   0.959   1.154   0.016 -1.9182  2.1745  2.8915
  217SOL    HW2  867   1.004   1.299  -0.022 -0.8281 -0.3997 -3.3839
  217SOL     MW  868   0.946   1.242   0.016 -1.0506  0.0347  0.1391
  218SOL     OW  869   0.900   1.295   2.518  0.2119 -0.7087  0.6248
  218SOL    HW1  870   0.927   1.215   2.555 -0.8638 -0.3797 -1.1311
  218SOL    HW2  871   0.957   1.360   2.550 -2.9256  0.0158 -1.2131
  218SOL     MW  872   0.911   1.293   2.528 -0.3440 -0.5697  0.1507
  219SOL     OW  873   1.090   0.456   2.543  0.1634  0.2113  0.5675
  219SOL    HW1  874   1.148   0.499   2.604 -2.0978  1.5392  0.2452
  219SOL    HW2  875   1.034   0.528   2.519  3.5802 -2.1552 -2.2213
  219SOL     MW  876   1.090   0.472   2.548  0.3159  0.0743  0.1570
  220SOL     OW  877   1.776   0.413   2.186  0.2910  0.0774  0.7188
  220SOL    HW1  878   1.715   0.466   2.134  1.9133 -2.9443 -0.2106
  220SOL    HW2  879   1.808   0.347   2.121 -2.7121 -1.9722 -0.0593
  220SOL     MW  880   1.772   0.411   2.171  0.1088 -0.5917  0.4935
  221SOL     OW  881   0.364   1.320   2.869  0.4138  0.4475  0.3178
  221SOL    HW1  882   0.418   1.241   2.863 -1.3955  0.1485 -0.1918
  221SOL    HW2  883   0.382   1.366   2.782  0.0841  1.0546 -0.0677
  221SOL     MW  884   0.374   1.316   2.857  0.1316  0.4881  0.1997
  222SOL     OW  885   0.305   0.894   2.655  0.6026 -0.0061 -0.3632
  222SOL    HW1  886   0.284   0.915   2.561  1.0930  0.4026 -2.0791
  222SOL    HW2  887   0.377   0.833   2.650 -1.1095  0.5009  1.1099
  222SOL     MW  888   0.312   0.889   2.642  0.4414  0.1147 -0.3952
  223SOL     OW  889   0.041   2.070   2.608  0.2927  0.5000 -0.2560
  223SOL    HW1  890   0.084   1.995   2.643 -0.8282 -0.2782  0.9298
  223SOL    HW2  891   0.091   2.121   2.546 -2.7685  0.7757  0.7800
  223SOL     MW  892   0.053   2.067   2.604 -0.2590  0.4337  0.0371
  224SOL     OW  893   1.501   0.806   2.608  0.3239 -0.3421 -0.0376
  224SOL    HW1  894   1.480   0.820   2.697 -0.5340  1.1766  1.8837
  224SOL    HW2  895   1.476   0.883   2.560 -1.4325 -0.5823 -0.7726
  224SOL     MW  896   1.495   0.818   2.614 -0.0211 -0.1734  0.1189
  225SOL     OW  897   2.983   1.525   2.291  0.2081  0.0865  0.2622
  225SOL    HW1  898   3.011   1.610   2.255  1.5416  0.1193  1.0526
  225SOL    HW2  899   2.940   1.549   2.374 -0.7313 -0.0989  0.0787
  225SOL     MW  900   2.981   1.539   2.298  0.2601  0.0664  0.3423
  226SOL     OW  901   0.403   1.416   2.618 -0.2321 -0.0008 -0.0012
  226SOL    HW1  902   0.498   1.418   2.618  1.0990  0.3158 -3.0647
  226SOL    HW2  903   0.385   1.509   2.598  1.4900 -0.1636  1.1138
  226SOL     MW  904   0.413   1.428   2.616  0.1707  0.0195 -0.2583
  227SOL     OW  905   0.414   1.066   2.816  0.0800 -0.0755  0.0690
  227SOL    HW1  906   0.500   1.090   2.784 -3.2181 -1.0040  1.6940
  227SOL    HW2  907   0.379   1.019   2.743 -1.8760  3.2011  4.0085
  227SOL     MW  908   0.421   1.063   2.802 -0.6132  0.2343  0.8032
  228SOL     OW  909   0.667   0.997   2.007  0.8040 -0.0365  0.0772
  228SOL    HW1  910   0.761   1.027   1.991  1.9742 -0.7564  0.7365
  228SOL    HW2  911   0.655   0.941   2.083  1.1104 -0.6051  2.4183
  228SOL     MW  912   0.678   0.994   2.015  0.9988 -0.2065  0.4731
  229SOL     OW  913   0.148   0.542   3.089 -0.4394 -0.1391  0.3333
  229SOL    HW1  914   0.069   0.535   3.042 -0.9190 -0.4384  2.1700
  229SOL    HW2  915   0.139   0.477   3.157 -0.1777 -1.5220 -5.3765
  229SOL     MW  916   0.137   0.533   3.091 -0.4681 -0.3611 -0.1777
  230SOL     OW  917   1.750   1.394   2.034  0.0744  0.0788 -0.0529
  230SOL    HW1  918   1.719   1.378   2.126 -1.0406  0.3007  0.4257
  230SOL    HW2  919   1.823   1.330   2.028  0.1137  0.7270  0.7836
  230SOL     MW  920   1.755   1.383   2.045 -0.0675  0.1936  0.1206
  231SOL     OW  921   2.756   1.340   2.258 -0.4338 -0.3280  0.2271
  231SOL    HW1  922   2.837   1.394   2.255  0.5366  0.7547 -1.9355
  231SOL    HW2  923   2.710   1.356   2.169  1.0367  1.4636 -2.1297
  231SOL     MW  924   2.761   1.350   2.246 -0.1117  0.0512 -0.3692
  232SOL     OW  925   2.239   0.865   2.149  0.0711 -0.3739  0.4011
  232SOL    HW1  926   2.174   0.905   2.087 -0.7035 -0.5298  1.3322
  232SOL    HW2  927   2.183   0.852   2.227  1.2133 -0.7165  3.3365
  232SOL     MW  928   2.223   0.869   2.151  0.1196 -0.4397  0.9112
  233SOL     OW  929   2.035   0.536   1.967 -0.1023 -0.0099 -0.0077
  233SOL    HW1  930   2.082   0.486   1.898  1.6986  1.5654  2.7248
  233SOL    HW2  931   2.078   0.533   2.054 -1.7892  1.8444  0.3511
  233SOL     MW  932   2.047   0.529   1.969 -0.0873  0.4426  0.4002
  234SOL     OW  933   0.282   1.003   2.367 -0.2303  0.1835 -0.1120
  234SOL    HW1  934   0.201   1.045   2.337 -3.3673 -1.1093  1.9270
  234SOL    HW2  935   0.350   1.068   2.390  0.3652  1.6105  0.2538
  234SOL     MW  936   0.280   1.017   2.366 -0.5656  0.2012  0.2053
  235SOL     OW  937   1.090   3.085   2.734  0.1109 -0.5686 -0.7002
  235SOL    HW1  938   1.133   3.038   2.806  0.1187  1.5134  0.7734
  235SOL    HW2  939   1.101   3.175   2.761  1.5024  1.0414  0.3119
  235SOL     MW  940   1.097   3.091   2.747  0.2955 -0.0815 -0.3722
  236SOL     OW  941   2.956   0.531   0.032 -0.0381 -0.1973 -0.2592
  236SOL    HW1  942   2.870   0.527  -0.014 -1.0134 -0.9588  0.6843
  236SOL    HW2  943   2.970   0.625   0.030  0.2170 -0.0034  0.9327
  236SOL     MW  944   2.947   0.543   0.026 -0.1331 -0.2722  0.0225
  237SOL     OW  945   1.858   0.977   2.157  1.0283  0.4852  0.1667
  237SOL    HW1  946   1.885   1.070   2.138  2.7116  0.0884  1.1367
  237SOL    HW2  947   1.844   0.985   2.251 -0.5993 -2.0670 -1.6078
  237SOL     MW  948   1.860   0.991   2.167  1.0356  0.0961  0.0606
  238SOL     OW  949   1.077   1.783   3.023  0.2468  0.6560  0.5422
  238SOL    HW1  950   1.020   1.701   3.008  0.1807  0.9437 -0.0405
  238SOL    HW2  951   1.171   1.762   3.023  0.2328 -0.6362  0.4803
  238SOL     MW  952   1.082   1.770   3.021  0.2362  0.5234  0.4571
  239SOL     OW  953   1.258   1.414   2.345  0.3959 -0.4920  0.2585
  239SOL    HW1  954   1.198   1.472   2.396  1.8246  1.1240 -1.5660
  239SOL    HW2  955   1.258   1.330   2.399  4.1863 -2.0075  1.2313
  239SOL     MW  956   1.250   1.410   2.359  1.0845 -0.4788  0.1461
  240SOL     OW  957   0.695   0.825   2.232  0.1237 -0.3573  0.2078
  240SOL    HW1  958   0.710   0.883   2.310  2.6123 -2.3853  0.8971
  240SOL    HW2  959   0.786   0.790   2.223  1.9733 -2.4015  0.5454
  240SOL     MW  960   0.709   0.828   2.241  0.6961 -0.8946  0.3433
  241SOL     OW  961   0.651   0.367   3.088  0.2675  0.1209  0.1743
  241SOL    HW1  962   0.696   0.438   3.140  2.2158  0.6579 -0.7009
  241SOL    HW2  963   0.584   0.418   3.048 -0.4096 -0.0726  1.4841
  241SOL     MW  964   0.648   0.383   3.090  0.4352  0.1662  0.2317
  242SOL     OW  965   1.486   1.694   2.267 -0.6490 -0.5406  0.5676
  242SOL    HW1  966   1.447   1.777   2.294  2.8404 -1.4453 -0.5979
  242SOL    HW2  967   1.414   1.634   2.235 -0.3971 -0.3686  0.2977
  242SOL     MW  968   1.471   1.697   2.266 -0.1554 -0.6373  0.3782
  243SOL     OW  969   1.011   0.232   2.417  0.5072  0.0742  0.3738
  243SOL    HW1  970   1.088   0.232   2.366 -2.4552  1.1655  2.1932
  243SOL    HW2  971   1.014   0.316   2.460 -2.7281  0.0990 -0.6191
  243SOL     MW  972   1.022   0.243   2.416 -0.3105  0.2215  0.4828
  244SOL     OW  973   0.246   0.740   2.395  0.3686  0.1608  0.3682
  244SOL    HW1  974   0.251   0.834   2.359  1.0647  0.3712 -0.3467
  244SOL    HW2  975   0.317   0.701   2.336  1.2376 -0.3987  1.3083
  244SOL     MW  976   0.256   0.748   2.382  0.5751  0.1147  0.3979
  245SOL     OW  977   1.269   0.230   2.329  0.5876 -0.1392  0.1427
  245SOL    HW1  978   1.325   0.152   2.348  0.8586  0.8643  0.5657
  245SOL    HW2  979   1.321   0.296   2.381 -1.5254  0.8207  0.0703
  245SOL     MW  980   1.284   0.228   2.338  0.3445  0.1198  0.1889
  246SOL     OW  981   1.200   1.225   2.118 -0.5812  0.4233 -0.3339
  246SOL    HW1  982   1.139   1.165   2.165 -0.5497 -0.4538 -2.7094
  246SOL    HW2  983   1.257   1.257   2.186  0.8482  1.4022  3.1979
  246SOL     MW  984   1.199   1.221   2.133 -0.3885  0.4367 -0.1813
  247SOL     OW  985   0.755   0.569   0.144  0.3333  0.4765  0.2577
  247SOL    HW1  986   0.713   0.649   0.115  0.0397  0.0627  2.5306
  247SOL    HW2  987   0.839   0.560   0.102 -0.2117 -2.1239 -0.4050
  247SOL     MW  988   0.761   0.579   0.135  0.2227  0.0788  0.4701
  248SOL     OW  989   0.465   1.175   2.475 -0.2736 -0.3918  0.1400
  248SOL    HW1  990   0.462   1.233   2.394  0.0893  1.6515 -1.2584
  248SOL    HW2  991   0.438   1.233   2.549  1.5819  0.6536  0.1780
  248SOL     MW  992   0.461   1.190   2.474  0.0191  0.0157 -0.0395
  249SOL     OW  993   0.183   1.860   2.696 -0.0740 -0.5829  0.1815
  249SOL    HW1  994   0.129   1.782   2.682  1.1938  3.5667 -0.3125
  249SOL    HW2  995   0.186   1.863   2.792 -2.5673 -0.7427  1.9581
  249SOL     MW  996   0.176   1.850   2.707 -0.2357 -0.0565  0.3507
  250SOL     OW  997   2.134   0.860   2.424  0.3906  0.3665  0.2433
  250SOL    HW1  998   2.157   0.774   2.446  1.3345 -1.2488 -1.0748
  250SOL    HW2  999   2.189   0.921   2.476 -0.9096  2.1323 -0.9920
  250SOL     MW 1000   2.144   0.857   2.434  0.3436  0.3863 -0.0936
  251SOL     OW 1001   0.194   0.844   2.068 -0.4100  0.2953 -0.2693
  251SOL    HW1 1002   0.184   0.758   2.099  1.0829  2.3720 -2.4865
  251SOL    HW2 1003   0.205   0.840   1.975  1.1086  4.4082  0.8803
  251SOL     MW 1004   0.194   0.832   2.060 -0.0127  1.1119 -0.4102
  252SOL     OW 1005   1.670   1.017   2.890 -0.3022 -0.1201  0.4999
  252SOL    HW1 1006   1.676   1.089   2.954  0.3381  0.5882  1.4464
  252SOL    HW2 1007   1.735   1.047   2.823  0.0537 -1.8959  0.9835
  252SOL     MW 1008   1.680   1.030   2.890 -0.1708 -0.2609  0.6886
  253SOL     OW 1009   1.142   1.742   2.562  0.0980 -0.0735  0.1952
  253SOL    HW1 1010   1.131   1.765   2.473  3.3290  0.2039  1.1782
  253SOL    HW2 1011   1.072   1.799   2.610  1.1284  2.2227  0.0096
  253SOL     MW 1012   1.131   1.752   2.556  0.6603  0.2660  0.3004
  254SOL     OW 1013   0.997   1.078   2.249 -0.0527 -0.3258  0.4470
  254SOL    HW1 1014   0.986   0.992   2.204  0.8468 -0.4117 -1.3024
  254SOL    HW2 1015   0.911   1.133   2.238 -1.3674 -0.1815  0.6494
  254SOL     MW 1016   0.984   1.074   2.241 -0.1075 -0.3181  0.2429
  255SOL     OW 1017   0.834   2.509   2.187 -0.0426  0.6513  1.0989
  255SOL    HW1 1018   0.762   2.460   2.226 -0.0999 -0.3705 -1.8054
  255SOL    HW2 1019   0.896   2.542   2.256 -0.5272  2.5360  0.7840
  255SOL     MW 1020   0.832   2.507   2.201 -0.1141  0.7651  0.6741
  256SOL     OW 1021   1.204   2.843   2.850  0.2483 -0.1207  0.1439
  256SOL    HW1 1022   1.180   2.795   2.768  1.3384  0.7174  0.7010
  256SOL    HW2 1023   1.302   2.858   2.832  0.2494  1.8028 -3.2438
  256SOL     MW 1024   1.214   2.839   2.837  0.3923  0.2437 -0.2295
  257SOL     OW 1025   0.153   1.932   0.094 -0.2607 -0.8289 -0.5468
  257SOL    HW1 1026   0.173   1.857   0.157  0.9615  0.2560  3.1366
  257SOL    HW2 1027   0.135   1.893   0.010 -0.9149  1.1407  0.0615
  257SOL     MW 1028   0.153   1.917   0.091 -0.1857 -0.4259  0.0195
  258SOL     OW 1029   0.716   1.029   2.486  0.0662 -0.3641 -0.6055
  258SOL    HW1 1030   0.735   1.079   2.409  0.3363  1.1596 -2.4791
  258SOL    HW2 1031   0.634   1.067   2.519 -3.1335  0.8943  0.9931
  258SOL     MW 1032   0.708   1.041   2.480 -0.3203  0.0030 -0.6417
  259SOL     OW 1033   0.761   0.513   2.333  0.1322  0.2057  0.4450
  259SOL    HW1 1034   0.670   0.555   2.322  0.9183  1.6392 -2.5662
  259SOL    HW2 1035   0.753   0.420   2.351  1.6247 -1.2902 -2.3748
  259SOL     MW 1036   0.748   0.506   2.334  0.4328  0.1975 -0.3243
  260SOL     OW 1037   0.586   0.158   1.584 -0.0320  0.3908 -0.1731
  260SOL    HW1 1038   0.543   0.128   1.505 -0.2802  1.5737 -0.6126
  260SOL    HW2 1039   0.667   0.113   1.587 -0.2785  0.7274 -1.2452
  260SOL     MW 1040   0.591   0.148   1.574 -0.0973  0.5913 -0.3725
  261SOL     OW 1041   1.214   0.676   2.020  0.0939  0.5277  0.0251
  261SOL    HW1 1042   1.250   0.670   2.111 -0.8178  2.8006 -0.6922
  261SOL    HW2 1043   1.250   0.599   1.975  1.0238  0.2808 -1.0846
  261SOL     MW 1044   1.223   0.665   2.026  0.0963  0.7950 -0.2160
  262SOL     OW 1045   1.160   0.308   0.128 -0.1113 -0.5260  0.2597
  262SOL    HW1 1046   1.252   0.289   0.135 -1.0873 -0.9782  0.8967
  262SOL    HW2 1047   1.115   0.226   0.088  0.1410 -1.5008  0.6746
  262SOL     MW 1048   1.166   0.294   0.123 -0.2068 -0.7143  0.3985
  263SOL     OW 1049   0.413   3.055   2.516 -0.2711  0.1183 -0.3958
  263SOL    HW1 1050   0.341   3.118   2.523 -0.6844 -1.0073 -0.6988
  263SOL    HW2 1051   0.465   3.075   2.438 -0.2378  2.0821  1.7460
  263SOL     MW 1052   0.410   3.066   2.507 -0.3213  0.2289 -0.1532
  264SOL     OW 1053   1.521   1.287   1.914 -0.1041  0.1151 -0.1226
  264SOL    HW1 1054   1.448   1.321   1.965  0.1377 -0.0070 -1.6767
  264SOL    HW2 1055   1.605   1.330   1.945 -1.2065 -0.3127 -0.1797
  264SOL     MW 1056   1.522   1.297   1.925 -0.2176  0.0426 -0.3352
  265SOL     OW 1057   0.669   2.743   2.251  0.5759  0.3443 -0.1583
  265SOL    HW1 1058   0.698   2.667   2.201  1.1583  3.2891  0.7173
  265SOL    HW2 1059   0.684   2.728   2.345  3.1768  0.3585 -2.9632
  265SOL     MW 1060   0.675   2.731   2.257  0.9959  0.7347 -0.4129
  266SOL     OW 1061   0.988   0.796   2.159  0.3323 -0.2118 -0.0903
  266SOL    HW1 1062   0.936   0.746   2.097 -1.3056 -1.0565 -0.5497
  266SOL    HW2 1063   1.080   0.759   2.146  2.5020 -0.2880  0.6074
  266SOL     MW 1064   0.993   0.784   2.149  0.4024 -0.3333 -0.0589
  267SOL     OW 1065   1.378   1.659   2.704  0.3157 -0.2634 -0.0370
  267SOL    HW1 1066   1.457   1.650   2.654 -2.1775  2.1005 -0.6559
  267SOL    HW2 1067   1.309   1.698   2.650 -1.6590  0.1278 -1.3421
  267SOL     MW 1068   1.379   1.663   2.691 -0.2738  0.1001 -0.2909
  268SOL     OW 1069   0.259   0.773   1.798  0.3701 -0.0678  0.9204
  268SOL    HW1 1070   0.216   0.821   1.724  0.0653  2.4992 -1.6850
  268SOL    HW2 1071   0.230   0.680   1.792  0.7930 -0.9367  0.1767
  268SOL     MW 1072   0.250   0.767   1.787  0.3857  0.1563  0.4785
  269SOL     OW 1073   1.390   1.926   2.378 -0.0380 -0.1351 -0.5347
  269SOL    HW1 1074   1.430   2.010   2.354 -0.0932 -1.3948  1.3496
  269SOL    HW2 1075   1.339   1.949   2.461 -1.2059 -0.2566  1.9144
  269SOL     MW 1076   1.389   1.940   2.386 -0.1994 -0.3174  0.0370
  270SOL     OW 1077   1.200   0.380   1.604 -0.1745  0.3944 -0.0532
  270SOL    HW1 1078   1.171   0.290   1.623  0.5224  0.1014  1.1608
  270SOL    HW2 1079   1.303   0.373   1.600  0.5794 -1.2958 -1.0764
  270SOL     MW 1080   1.209   0.367   1.606  0.0169  0.1327 -0.0280
  271SOL     OW 1081   0.887   3.095   2.422  0.6347  0.5577  0.8300
  271SOL    HW1 1082   0.937   3.057   2.498 -0.4888  0.3830  2.6720
  271SOL    HW2 1083   0.921   3.183   2.394  1.1564 -0.1789  0.1582
  271SOL     MW 1084   0.898   3.102   2.428  0.5553  0.4375  0.9844
  272SOL     OW 1085   1.459   2.853   2.782  0.2100  0.4088  0.1829
  272SOL    HW1 1086   1.467   2.899   2.691  0.3300 -1.7476 -2.4376
  272SOL    HW2 1087   1.488   2.925   2.838  0.2420  4.0899 -0.4976
  272SOL     MW 1088   1.464   2.868   2.778  0.2301  0.6100 -0.2526
  273SOL     OW 1089   1.432   0.867   2.873  0.0720  0.4053  0.3527
  273SOL    HW1 1090   1.523   0.908   2.878 -0.8442  1.8676 -0.0409
  273SOL    HW2 1091   1.368   0.935   2.884  0.1930  0.2485 -2.0821
  273SOL     MW 1092   1.436   0.881   2.875 -0.0329  0.5775 -0.0205
  274SOL     OW 1093   1.384   0.735   0.189 -0.2745  0.0681 -0.3478
  274SOL    HW1 1094   1.419   0.645   0.192 -2.5359 -0.1239 -1.8263
  274SOL    HW2 1095   1.299   0.728   0.242 -1.4907  0.0128 -0.8134
  274SOL     MW 1096   1.377   0.722   0.197 -0.7333  0.0355 -0.6043
  275SOL     OW 1097   1.686   0.667   1.799  0.3963 -0.3041  0.1916
  275SOL    HW1 1098   1.756   0.698   1.856 -1.6806 -1.5414  0.1934
  275SOL    HW2 1099   1.686   0.572   1.812 -0.6076 -2.4386  0.5983
  275SOL     MW 1100   1.695   0.659   1.808 -0.0102 -0.7490  0.2455
  276SOL     OW 1101   0.253   1.257   1.817 -0.0284 -0.2664  0.1265
  276SOL    HW1 1102   0.297   1.189   1.873  0.2865  1.0826 -0.5771
  276SOL    HW2 1103   0.211   1.314   1.875 -0.5125  0.0854 -0.7754
  276SOL     MW 1104   0.254   1.255   1.832 -0.0507 -0.0420 -0.0853
  277SOL     OW 1105   1.895   1.295   2.562  0.0239 -1.0380 -0.0936
  277SOL    HW1 1106   1.965   1.362   2.562 -2.6644 -2.1898 -1.1104
  277SOL    HW2 1107   1.920   1.225   2.621 -1.6216 -0.2885  1.2231
  277SOL     MW 1108   1.907   1.295   2.570 -0.5479 -1.0911 -0.0540
  278SOL     OW 1109   1.418   0.681   1.718 -0.3703 -0.1039 -0.9994
  278SOL    HW1 1110   1.379   0.630   1.791 -2.9525 -0.9747  2.1420
  278SOL    HW2 1111   1.510   0.687   1.748 -0.8006 -1.9501  2.3602
  278SOL     MW 1112   1.425   0.675   1.732 -0.7678 -0.4624 -0.1417
  279SOL     OW 1113   0.531   0.038   2.249  0.0929 -0.1935  0.3995
  279SOL    HW1 1114   0.599  -0.018   2.212  0.6121 -0.0304  1.0044
  279SOL    HW2 1115   0.582   0.118   2.265 -2.4477  3.4406 -1.0127
  279SOL     MW 1116   0.547   0.041   2.246 -0.1738  0.3075  0.2930
  280SOL     OW 1117   1.512   1.116   2.196  0.3942 -0.0987 -0.2166
  280SOL    HW1 1118   1.547   1.040   2.149 -1.3272 -0.0143 -3.4366
  280SOL    HW2 1119   1.479   1.081   2.278 -0.5183  0.2022 -1.8956
  280SOL     MW 1120   1.512   1.102   2.201  0.0467 -0.0479 -0.8629
  281SOL     OW 1121   1.305   1.277   2.750  0.1184 -0.2799 -0.6257
  281SOL    HW1 1122   1.396   1.312   2.751  0.3470  1.1131 -2.3260
  281SOL    HW2 1123   1.290   1.208   2.818 -1.5555  0.9926  0.3006
  281SOL     MW 1124   1.315   1.272   2.759 -0.0723  0.0718 -0.7278
  282SOL     OW 1125   1.139   1.280   1.689  0.3719 -0.4062 -0.4485
  282SOL    HW1 1126   1.080   1.303   1.617  3.3732  2.4239  3.6261
  282SOL    HW2 1127   1.096   1.283   1.774 -0.0932 -0.0174 -1.1653
  282SOL     MW 1128   1.126   1.284   1.691  0.7066  0.0185 -0.0055
  283SOL     OW 1129   0.671   1.295   3.079 -0.4939  0.6876  0.1262
  283SOL    HW1 1130   0.767   1.286   3.092  0.2454  1.1841 -1.0665
  283SOL    HW2 1131   0.649   1.388   3.084  1.2503 -0.5313 -2.1400
  283SOL     MW 1132   0.681   1.306   3.081 -0.1662  0.5923 -0.3301
  284SOL     OW 1133   0.522   0.661   2.341 -0.4789  0.0395 -0.0948
  284SOL    HW1 1134   0.568   0.732   2.298 -0.2045  0.6928  0.8936
  284SOL    HW2 1135   0.488   0.614   2.268  1.6998  1.8705 -0.1004
  284SOL     MW 1136   0.523   0.664   2.326 -0.1553  0.3673  0.0349
  285SOL     OW 1137   0.842   0.955   2.865 -0.0254 -0.3759 -0.7017
  285SOL    HW1 1138   0.902   0.967   2.786 -3.1533  1.1712 -2.3941
  285SOL    HW2 1139   0.801   0.867   2.838 -1.0499 -0.1988 -0.7460
  285SOL     MW 1140   0.844   0.945   2.851 -0.5733 -0.1484 -0.9309
  286SOL     OW 1141   1.097   1.472   2.601 -0.4185  0.6034 -0.0052
  286SOL    HW1 1142   1.155   1.444   2.670 -1.7723 -0.8167 -1.8212
  286SOL    HW2 1143   1.109   1.567   2.584  2.5026  0.4423 -0.6382
  286SOL     MW 1144   1.106   1.481   2.608 -0.2117  0.3948 -0.3283
  287SOL     OW 1145   1.006   0.920   0.303  0.8527 -0.0928 -0.1134
  287SOL    HW1 1146   1.064   0.971   0.364  0.2827  1.4610  2.1627
  287SOL    HW2 1147   0.937   0.989   0.281 -1.2313 -1.8185 -0.7409
  287SOL     MW 1148   1.005   0.936   0.308  0.5025 -0.1155  0.1041
  288SOL     OW 1149   1.593   0.595   2.115 -0.2535  0.3874  0.4052
  288SOL    HW1 1150   1.567   0.608   2.210  1.6569 -1.3713  0.6055
  288SOL    HW2 1151   1.599   0.686   2.079  1.4470  0.6726 -2.5215
  288SOL     MW 1152   1.591   0.609   2.123  0.2229  0.1930  0.0454
  289SOL     OW 1153   0.951   1.047   2.637  0.6987 -0.1304 -0.1297
  289SOL    HW1 1154   1.006   0.994   2.586 -1.8220  1.1368  1.9463
  289SOL    HW2 1155   0.865   1.039   2.598  1.1093  0.2610 -0.9561
  289SOL     MW 1156   0.947   1.039   2.625  0.4203  0.0884  0.0352
  290SOL     OW 1157   0.888   0.536   1.576  0.6416  0.1345  0.3529
  290SOL    HW1 1158   0.956   0.523   1.508  0.3854 -1.7247  1.4977
  290SOL    HW2 1159   0.942   0.530   1.651 -1.4047 -0.3593 -0.3542
  290SOL     MW 1160   0.904   0.533   1.577  0.3378 -0.1759  0.4107
  291SOL     OW 1161   0.139   0.339   0.156  0.1726  0.2085 -0.5007
  291SOL    HW1 1162   0.222   0.301   0.171 -0.1523  0.1377  1.1296
  291SOL    HW2 1163   0.097   0.291   0.087  1.8193 -0.0493 -0.1035
  291SOL     MW 1164   0.144   0.328   0.149  0.3470  0.1651 -0.2331
  292SOL     OW 1165   1.029   0.534   0.069  0.7153  0.5477  0.1371
  292SOL    HW1 1166   1.059   0.600   0.136  0.8587  2.7948  1.3321
  292SOL    HW2 1167   1.075   0.449   0.089  0.8617 -2.2700  0.6142
  292SOL     MW 1168   1.039   0.532   0.080  0.7535  0.4724  0.3577
  293SOL     OW 1169   0.222   0.149   2.457 -0.2002  0.0293  0.0824
  293SOL    HW1 1170   0.145   0.099   2.423  0.0487 -0.7345 -0.7701
  293SOL    HW2 1171   0.196   0.196   2.536  1.0002  0.0560 -0.6041
  293SOL     MW 1172   0.208   0.149   2.463 -0.0090 -0.0679 -0.1206
  294SOL     OW 1173   1.518   0.622   2.382 -0.2968 -0.1294 -0.0697
  294SOL    HW1 1174   1.517   0.672   2.460  1.8402 -0.9975 -1.2554
  294SOL    HW2 1175   1.498   0.529   2.414  0.3089  3.1418  0.0020
  294SOL     MW 1176   1.515   0.616   2.397  0.0651  0.1877 -0.2167
  295SOL     OW 1177   0.905   0.673   2.489 -0.3102 -0.4002 -0.4815
  295SOL    HW1 1178   0.852   0.617   2.433  2.0611  0.6836  4.2885
  295SOL    HW2 1179   0.856   0.689   2.570  1.0749  1.4324  0.4861
  295SOL     MW 1180   0.891   0.667   2.492  0.1855 -0.0154  0.2755
  296SOL     OW 1181   1.241   0.297   2.061 -0.5392 -0.6077 -0.5636
  296SOL    HW1 1182   1.309   0.221   2.053 -0.5991 -0.0431  0.3481
  296SOL    HW2 1183   1.234   0.295   2.161 -0.6350  0.9090  0.0511
  296SOL     MW 1184   1.249   0.286   2.073 -0.5598 -0.3331 -0.3622
  297SOL     OW 1185   1.454   0.380   1.611 -0.5230 -0.3073  0.1003
  297SOL    HW1 1186   1.460   0.464   1.660  0.4546  0.8204 -0.3371
  297SOL    HW2 1187   1.484   0.306   1.668  2.2095 -1.7471 -1.6795
  297SOL     MW 1188   1.459   0.381   1.625 -0.0335 -0.3485 -0.1922
  298SOL     OW 1189   1.628   0.892   2.036  0.3963  0.0659 -0.1086
  298SOL    HW1 1190   1.630   0.945   1.959  1.9254 -1.2882 -0.8988
  298SOL    HW2 1191   1.716   0.908   2.070  1.2789  1.1649 -0.5709
  298SOL     MW 1192   1.640   0.901   2.030  0.7145  0.0322 -0.2739
  299SOL     OW 1193   0.517   1.052   3.067  0.1382 -0.1284  0.2208
  299SOL    HW1 1194   0.550   1.142   3.073  2.0078 -0.4157 -2.0853
  299SOL    HW2 1195   0.467   1.043   2.990  1.6923  0.4574  2.4898
  299SOL     MW 1196   0.514   1.063   3.058  0.5899 -0.0890  0.2159
  300SOL     OW 1197   1.233   1.187   2.497 -0.0044 -0.2224  0.0269
  300SOL    HW1 1198   1.161   1.126   2.495  2.6935  0.1837 -1.2979
  300SOL    HW2 1199   1.265   1.209   2.580 -1.7718  1.3675 -1.9936
  300SOL     MW 1200   1.228   1.182   2.507  0.1184  0.0409 -0.4145
  301SOL     OW 1201   1.387   0.889   0.581 -0.4873  0.5535  0.8150
  301SOL    HW1 1202   1.404   0.950   0.653  0.4186  0.6797 -2.1879
  301SOL    HW2 1203   1.333   0.824   0.621  1.9229  1.0555 -0.3221
  301SOL     MW 1204   1.382   0.888   0.596 -0.0498  0.6364  0.2687
  302SOL     OW 1205   0.071   1.490   2.038 -0.0125 -0.2342  0.4717
  302SOL    HW1 1206   0.067   1.454   2.124 -0.8913  1.2133  1.9650
  302SOL    HW2 1207   0.035   1.579   2.043  1.2109  2.7777  0.3040
  302SOL     MW 1208   0.066   1.497   2.050  0.0330  0.3542  0.6466
  303SOL     OW 1209   0.388   1.686   2.563  0.1537  0.1093  1.0410
  303SOL    HW1 1210   0.338   1.665   2.482  1.7780 -0.7331  0.9745
  303SOL    HW2 1211   0.331   1.738   2.619  0.2076  0.5061  0.8232
  303SOL     MW 1212   0.374   1.690   2.560  0.3751  0.0505  1.0035
  304SOL     OW 1213   0.665   2.042   2.394  0.3975 -0.1242 -0.3528
  304SOL    HW1 1214   0.714   2.093   2.331  1.1409 -0.7226 -1.6590
  304SOL    HW2 1215   0.730   1.981   2.417 -1.2641  0.0497 -1.7009
  304SOL     MW 1216   0.680   2.040   2.389  0.2763 -0.1802 -0.7030
  305SOL     OW 1217   1.075   0.561   0.549  0.0093  0.5032 -0.0511
  305SOL    HW1 1218   0.996   0.528   0.490  1.8270 -2.0601 -0.8003
  305SOL    HW2 1219   1.120   0.484   0.579  0.6714  0.3105  0.1715
  305SOL     MW 1220   1.071   0.547   0.545  0.3365  0.1396 -0.1206
  306SOL     OW 1221   1.223   1.488   0.295  0.4023  0.2866  0.3615
  306SOL    HW1 1222   1.252   1.431   0.362  1.2559  1.7905  0.4611
  306SOL    HW2 1223   1.288   1.490   0.220  1.0175 -1.8513  0.3470
  306SOL     MW 1224   1.235   1.481   0.294  0.5961  0.2030  0.3727
  307SOL     OW 1225   1.410   0.494   1.946  0.1820  0.1192  0.0854
  307SOL    HW1 1226   1.350   0.437   2.007 -0.1869 -4.2064  2.1372
  307SOL    HW2 1227   1.479   0.534   2.000  0.4346 -0.0927 -1.0114
  307SOL     MW 1228   1.411   0.492   1.961  0.1666 -0.4794  0.2114
  308SOL     OW 1229   2.148   0.632   2.682  0.3887  0.1202  0.2387
  308SOL    HW1 1230   2.226   0.598   2.721 -0.2479 -2.1407  1.4460
  308SOL    HW2 1231   2.146   0.733   2.700  0.1514 -0.7552  0.7381
  308SOL     MW 1232   2.158   0.641   2.690  0.2734 -0.2936  0.4639
  309SOL     OW 1233   0.463   0.371   0.393 -0.8322 -0.0267 -0.0097
  309SOL    HW1 1234   0.534   0.336   0.445 -1.7418  0.7939 -0.2184
  309SOL    HW2 1235   0.453   0.318   0.314 -0.1553 -0.3316  1.5721
  309SOL     MW 1236   0.471   0.359   0.389 -0.8629  0.0413  0.1715
  310SOL     OW 1237   0.448   0.556   1.912 -0.2711  0.6808  0.6691
  310SOL    HW1 1238   0.508   0.495   1.867  1.6779  2.1936 -1.9220
  310SOL    HW2 1239   0.506   0.629   1.921 -0.7548 -0.2205  2.8874
  310SOL     MW 1240   0.464   0.557   1.907 -0.0778  0.7615  0.6199
  311SOL     OW 1241   1.895   0.763   1.963 -0.4174 -0.5880  0.0214
  311SOL    HW1 1242   1.900   0.805   2.048  0.3426 -0.9818  1.1981
  311SOL    HW2 1243   1.936   0.670   1.975 -0.9659 -1.6989 -1.3753
  311SOL     MW 1244   1.901   0.756   1.976 -0.3895 -0.7865 -0.0076
  312SOL     OW 1245   1.673   2.480   0.060 -0.3591 -0.3924 -0.1346
  312SOL    HW1 1246   1.728   2.476   0.140  1.1133  0.4037 -0.9838
  312SOL    HW2 1247   1.624   2.563   0.064  0.0934  1.4421  2.1069
  312SOL     MW 1248   1.674   2.490   0.071 -0.1051 -0.0454  0.0491
  313SOL     OW 1249   0.120   1.227   2.961 -0.4179  0.3609  0.0753
  313SOL    HW1 1250   0.175   1.204   3.039 -0.1404  1.0366  0.7359
  313SOL    HW2 1251   0.187   1.245   2.885  1.2585 -0.7993 -1.7975
  313SOL     MW 1252   0.136   1.226   2.961 -0.1601  0.2969 -0.0846
  314SOL     OW 1253   2.139   2.967   3.012  0.0370 -0.1994  0.4777
  314SOL    HW1 1254   2.094   3.000   2.936  0.0982 -0.2187 -0.2803
  314SOL    HW2 1255   2.168   3.043   3.053  1.1549 -2.0949 -0.7379
  314SOL     MW 1256   2.137   2.981   3.008  0.1926 -0.4521  0.2173
  315SOL     OW 1257   1.496   1.881   3.089 -0.1269 -0.2366  0.1687
  315SOL    HW1 1258   1.458   1.962   3.130 -0.3459  1.1609  3.0243
  315SOL    HW2 1259   1.561   1.925   3.027 -1.7218  0.0298  2.9311
  315SOL     MW 1260   1.500   1.898   3.086 -0.3662 -0.0170  0.9099
  316SOL     OW 1261   1.249   0.610   2.689  0.4385  0.5315 -0.2914
  316SOL    HW1 1262   1.332   0.656   2.681  0.9552 -1.3119 -3.1010
  316SOL    HW2 1263   1.232   0.557   2.771 -1.3769  0.3203  1.5202
  316SOL     MW 1264   1.257   0.609   2.699  0.2671  0.2604 -0.4231
  317SOL     OW 1265   0.677   1.468   2.589  0.5658  0.2676 -0.1794
  317SOL    HW1 1266   0.734   1.393   2.568  1.4966  1.8002  0.0426
  317SOL    HW2 1267   0.688   1.525   2.504  1.2760  2.4548 -1.5847
  317SOL     MW 1268   0.686   1.465   2.575  0.7823  0.7584 -0.3355
  318SOL     OW 1269   1.357   0.397   2.929 -0.2034  0.0635  0.3168
  318SOL    HW1 1270   1.271   0.429   2.938  0.0888  0.5121 -1.1195
  318SOL    HW2 1271   1.414   0.472   2.907  0.6636  1.0240 -0.6802
  318SOL     MW 1272   1.353   0.411   2.927 -0.0505  0.2494 -0.0043
  319SOL     OW 1273   0.804   0.428   2.835 -0.4513 -0.6684  0.4114
  319SOL    HW1 1274   0.776   0.392   2.750 -2.9441  0.9605 -0.6649
  319SOL    HW2 1275   0.782   0.365   2.901 -0.0895 -0.2545  1.4526
  319SOL     MW 1276   0.797   0.415   2.832 -0.7325 -0.3989  0.4068
  320SOL     OW 1277   1.027   1.343   1.967 -0.2116 -0.1376  0.0540
  320SOL    HW1 1278   1.086   1.300   2.028 -1.1966  1.1929 -0.0611
  320SOL    HW2 1279   1.081   1.409   1.929  0.5970 -0.2651  1.5882
  320SOL     MW 1280   1.042   1.346   1.970 -0.2349  0.0211  0.2412
  321SOL     OW 1281   1.054   1.011   3.057  0.3442 -0.1187 -0.0578
  321SOL    HW1 1282   0.999   0.961   2.999 -0.2186 -1.9321  0.8915
  321SOL    HW2 1283   1.125   0.950   3.087 -0.1608 -1.2906 -0.7126
  321SOL     MW 1284   1.056   0.996   3.053  0.2033 -0.5126 -0.0190
  322SOL     OW 1285   1.181   0.827   1.707  0.1688 -0.2664 -0.2052
  322SOL    HW1 1286   1.266   0.785   1.689  0.7748 -2.9598 -0.5462
  322SOL    HW2 1287   1.176   0.832   1.805  0.2964  0.5956  0.8949
  322SOL     MW 1288   1.192   0.822   1.718  0.2656 -0.5080 -0.1050
  323SOL     OW 1289   1.213   1.530   1.844 -0.1364  0.1297  0.1081
  323SOL    HW1 1290   1.234   1.481   1.767 -0.7598  2.4428  1.5321
  323SOL    HW2 1291   1.153   1.602   1.822 -0.4797  1.8803  3.6864
  323SOL     MW 1292   1.208   1.533   1.831 -0.2639  0.6659  0.7681
  324SOL     OW 1293   1.462   1.026   2.458 -0.9862 -0.2953 -0.0306
  324SOL    HW1 1294   1.377   1.081   2.464 -0.7254  1.1765  0.6864
  324SOL    HW2 1295   1.530   1.088   2.500 -2.6801 -0.2758 -0.9272
  324SOL     MW 1296   1.460   1.042   2.464 -1.1753 -0.0985 -0.0543
  325SOL     OW 1297   1.100   0.514   2.909  0.1713  0.6104 -0.2728
  325SOL    HW1 1298   1.084   0.552   2.998 -0.3190 -1.1766  0.2429
  325SOL    HW2 1299   1.008   0.503   2.882 -3.2015 -1.5782  1.6975
  325SOL     MW 1300   1.086   0.518   2.918 -0.3384  0.0858  0.0552
  326SOL     OW 1301   0.476   1.354   2.210  0.3321  0.3186 -0.1097
  326SOL    HW1 1302   0.527   1.316   2.136  0.2513 -0.3396  1.1781
  326SOL    HW2 1303   0.474   1.449   2.198  0.1237  0.5571 -1.9401
  326SOL     MW 1304   0.482   1.362   2.199  0.2939  0.2632 -0.1813
  327SOL     OW 1305   1.883   0.892   2.464  0.0208 -0.1511 -0.1800
  327SOL    HW1 1306   1.860   0.819   2.530  2.1516  1.8691  0.1038
  327SOL    HW2 1307   1.980   0.884   2.449  0.5004  1.2187 -0.0765
  327SOL     MW 1308   1.893   0.882   2.470  0.3652  0.2961 -0.1289
  328SOL     OW 1309   0.196   1.309   2.238 -0.2731  0.6443  0.3729
  328SOL    HW1 1310   0.158   1.239   2.176 -1.2132 -0.0510 -0.6736
  328SOL    HW2 1311   0.290   1.302   2.211 -3.1976 -0.1275 -0.4028
  328SOL     MW 1312   0.203   1.299   2.226 -0.7830  0.4507  0.1325
  329SOL     OW 1313   0.111   0.117   1.430 -0.0009 -0.3319 -0.1021
  329SOL    HW1 1314   0.100   0.157   1.521 -1.2578  1.6859  2.2763
  329SOL    HW2 1315   0.186   0.171   1.398  0.6630  2.7605 -1.4555
  329SOL     MW 1316   0.119   0.129   1.438 -0.0791  0.3423  0.0331
  330SOL     OW 1317   0.322   3.049   2.078 -0.4485  0.4899 -0.1813
  330SOL    HW1 1318   0.402   3.082   2.120  1.1532  0.2028  2.5520
  330SOL    HW2 1319   0.283   2.978   2.126 -1.4558  3.8146 -3.8019
  330SOL     MW 1320   0.327   3.044   2.090 -0.3701  0.8907 -0.2984
  331SOL     OW 1321   0.786   1.220   2.299 -0.1142  0.0327 -0.0014
  331SOL    HW1 1322   0.757   1.293   2.241  0.2119 -0.5289 -2.8885
  331SOL    HW2 1323   0.843   1.258   2.374  1.5512 -0.0266 -2.1173
  331SOL     MW 1324   0.790   1.235   2.301  0.1486 -0.0492 -0.6615
  332SOL     OW 1325   1.333   1.683   2.972  0.2910  0.0815  0.1729
  332SOL    HW1 1326   1.333   1.680   2.877  0.1582 -0.7639  0.4856
  332SOL    HW2 1327   1.400   1.755   3.001  0.8557  2.8453 -0.4122
  332SOL     MW 1328   1.342   1.692   2.963  0.3480  0.3346  0.1370
  333SOL     OW 1329   1.757   1.453   2.996  0.7817 -0.0607 -0.3136
  333SOL    HW1 1330   1.851   1.465   2.999 -0.1062  2.0856  0.3947
  333SOL    HW2 1331   1.742   1.444   3.093  1.2307 -2.5366 -3.5164
  333SOL     MW 1332   1.768   1.453   3.009  0.7238 -0.1042 -0.6427
  334SOL     OW 1333   1.371   3.077   2.613  0.3358  0.2711 -0.1106
  334SOL    HW1 1334   1.277   3.088   2.624  0.1479  2.6825 -0.5676
  334SOL    HW2 1335   1.406   3.160   2.645 -1.1079 -2.1905  1.3554
  334SOL     MW 1336   1.363   3.089   2.618  0.1205  0.2645  0.0226
  335SOL     OW 1337   1.215   0.801   3.082  0.7186 -0.3714  0.6772
  335SOL    HW1 1338   1.247   0.769   3.165 -0.6524  0.2008 -0.5365
  335SOL    HW2 1339   1.286   0.787   3.016 -0.3534 -0.1630 -3.1504
  335SOL     MW 1340   1.229   0.795   3.084  0.3963 -0.2684  0.0121
  336SOL     OW 1341   0.907   1.072   1.916  0.4823 -0.4093 -0.1167
  336SOL    HW1 1342   0.937   1.146   1.959  0.2782 -1.8426 -0.6748
  336SOL    HW2 1343   0.958   1.000   1.946  1.7641 -0.1397 -1.1491
  336SOL     MW 1344   0.918   1.072   1.926  0.6245 -0.5629 -0.3265
  337SOL     OW 1345   0.544   1.741   2.773  0.5240 -0.0476 -0.0595
  337SOL    HW1 1346   0.501   1.711   2.689 -0.8877 -5.6699 -1.1995
  337SOL    HW2 1347   0.636   1.706   2.764  0.7730  0.9784  2.9901
  337SOL     MW 1348   0.551   1.733   2.761  0.3706 -0.6540  0.1924
  338SOL     OW 1349   1.120   0.852   2.547  0.0556  0.1351  0.2999
  338SOL    HW1 1350   1.047   0.809   2.498  1.3104 -0.4646  0.0201
  338SOL    HW2 1351   1.147   0.790   2.613 -1.3474 -1.9845 -2.6289
  338SOL     MW 1352   1.114   0.838   2.549  0.0360 -0.2237 -0.1234
  339SOL     OW 1353   1.555   1.055   1.801  0.1618  0.1172 -0.0130
  339SOL    HW1 1354   1.473   1.049   1.756 -1.8020  0.1336 -0.1352
  339SOL    HW2 1355   1.544   1.145   1.845  1.3364  2.2790  0.8816
  339SOL     MW 1356   1.542   1.066   1.801  0.0577  0.4046  0.0889
  340SOL     OW 1357   1.392   1.496   0.077 -0.1357 -0.1250 -0.4043
  340SOL    HW1 1358   1.397   1.563   0.013 -0.9920 -0.8080  0.1962
  340SOL    HW2 1359   1.484   1.488   0.112  0.7586  0.8195  0.5989
  340SOL     MW 1360   1.405   1.504   0.073 -0.1307 -0.0905 -0.1927
  341SOL     OW 1361   0.141   1.353   2.661 -0.2180  0.0347  0.2172
  341SOL    HW1 1362   0.221   1.345   2.613 -1.1393  1.7377  1.2644
  341SOL    HW2 1363   0.078   1.315   2.597  1.0140 -0.2560  1.7256
  341SOL     MW 1364   0.143   1.347   2.646 -0.1770  0.2211  0.5544
  342SOL     OW 1365   1.439   0.315   0.077 -0.2778 -0.4215  0.4804
  342SOL    HW1 1366   1.496   0.380   0.122 -2.4804 -0.1873  0.5189
  342SOL    HW2 1367   1.445   0.334  -0.017  0.3509  3.1967  1.2347
  342SOL     MW 1368   1.447   0.326   0.071 -0.4854  0.0868  0.5850
  343SOL     OW 1369   0.216   0.312   2.235 -0.2060  0.4167 -0.3633
  343SOL    HW1 1370   0.234   0.241   2.298  1.9534 -0.9713  0.4726
  343SOL    HW2 1371   0.184   0.274   2.150 -3.2336  0.8385  0.2711
  343SOL     MW 1372   0.214   0.297   2.232 -0.3205  0.2892 -0.1693
  344SOL     OW 1373   1.678   2.070   0.227  0.0079  0.3311 -0.3966
  344SOL    HW1 1374   1.690   2.127   0.150  0.2573  1.7933  1.0787
  344SOL    HW2 1375   1.616   1.998   0.201 -0.6877 -3.4316 -0.4648
  344SOL     MW 1376   1.671   2.068   0.213 -0.0509  0.0275 -0.2110
  345SOL     OW 1377   0.710   1.630   2.335 -0.0220  0.5344 -0.9384
  345SOL    HW1 1378   0.620   1.658   2.306 -4.2304 -0.1812  1.7693
  345SOL    HW2 1379   0.759   1.596   2.256  0.0276  2.8558 -1.1429
  345SOL     MW 1380   0.705   1.629   2.321 -0.5707  0.7463 -0.6081
  346SOL     OW 1381   1.722   1.151   0.040 -0.2659 -0.0421  0.1757
  346SOL    HW1 1382   1.819   1.148   0.023  0.1657  3.3657  0.9827
  346SOL    HW2 1383   1.696   1.075   0.094  0.2122 -0.6320 -1.3360
  346SOL     MW 1384   1.732   1.140   0.045 -0.1459  0.3297  0.0827
  347SOL     OW 1385   1.271   0.730   2.296  0.6087  0.2149 -0.4454
  347SOL    HW1 1386   1.343   0.704   2.345 -1.5227  0.5473 -0.0799
  347SOL    HW2 1387   1.210   0.757   2.362 -1.4799 -2.5888  1.3272
  347SOL     MW 1388   1.272   0.730   2.311  0.0519 -0.1112 -0.1633
  348SOL     OW 1389   1.322   2.584   1.868 -0.0192  0.1964  0.0191
  348SOL    HW1 1390   1.368   2.507   1.917  2.2604 -2.9073 -1.0227
  348SOL    HW2 1391   1.365   2.663   1.909  2.0250  0.5152 -0.0265
  348SOL     MW 1392   1.334   2.584   1.880  0.5513 -0.1710 -0.1244
  349SOL     OW 1393   1.435   0.238   2.722 -0.2459 -0.3587  0.2422
  349SOL    HW1 1394   1.392   0.294   2.787 -1.1396  1.7784 -0.4826
  349SOL    HW2 1395   1.528   0.267   2.739  1.0333 -1.2224  1.0187
  349SOL     MW 1396   1.442   0.249   2.733 -0.1951 -0.1907  0.2490
  350SOL     OW 1397   1.864   0.647   2.609  0.1554  0.2777  0.6451
  350SOL    HW1 1398   1.837   0.563   2.566 -0.9991 -0.6294 -2.4166
  350SOL    HW2 1399   1.955   0.644   2.643 -2.4227 -0.3255 -0.0513
  350SOL     MW 1400   1.873   0.636   2.608 -0.3371  0.0784  0.1493
  351SOL     OW 1401   0.130   0.974   1.627  0.0071  0.6304 -0.4908
  351SOL    HW1 1402   0.050   1.000   1.675 -1.7060 -2.0864 -1.3174
  351SOL    HW2 1403   0.165   1.060   1.601 -0.3831  1.9431 -0.1157
  351SOL     MW 1404   0.124   0.988   1.630 -0.2704  0.4451 -0.5504
  352SOL     OW 1405   0.795   1.652   2.759  0.7973  0.1594 -0.5423
  352SOL    HW1 1406   0.833   1.598   2.832  0.4845 -1.3905 -0.1994
  352SOL    HW2 1407   0.799   1.583   2.692  1.3518 -0.1915  1.2023
  352SOL     MW 1408   0.801   1.636   2.760  0.8292 -0.0914 -0.2669
  353SOL     OW 1409   3.011   2.437   2.676  0.3125  0.9884 -0.2083
  353SOL    HW1 1410   3.086   2.378   2.653  1.9031 -0.9857 -2.3857
  353SOL    HW2 1411   2.991   2.498   2.605  3.7786  0.0463 -0.1182
  353SOL     MW 1412   3.018   2.438   2.664  0.9797  0.6036 -0.4837
  354SOL     OW 1413   0.385   2.446   0.841 -0.6789  0.2416 -0.0159
  354SOL    HW1 1414   0.391   2.408   0.931 -0.9468 -0.9408  0.6772
  354SOL    HW2 1415   0.313   2.389   0.819  1.3294  1.8388  0.5845
  354SOL     MW 1416   0.376   2.433   0.850 -0.4493  0.2963  0.1548
  355SOL     OW 1417   0.035   2.180   0.409  0.1768  0.1437 -0.0486
  355SOL    HW1 1418  -0.044   2.140   0.365 -0.8177 -0.6742 -0.1586
  355SOL    HW2 1419   0.014   2.211   0.496 -1.1477  0.7840  0.5938
  355SOL     MW 1420   0.022   2.179   0.415 -0.1291  0.1203  0.0216
  356SOL     OW 1421   0.843   2.880   1.046  0.6235 -0.3931  0.5429
  356SOL    HW1 1422   0.874   2.868   0.951  1.7546 -0.6861 -0.3286
  356SOL    HW2 1423   0.747   2.851   1.049  3.8175  1.0345 -1.6771
  356SOL     MW 1424   0.834   2.875   1.034  1.1942 -0.2434  0.1350
  357SOL     OW 1425   1.768   2.923   0.358 -0.5534 -0.0043 -0.4494
  357SOL    HW1 1426   1.721   2.852   0.420  0.9760  0.6313  2.5879
  357SOL    HW2 1427   1.854   2.875   0.359 -2.8922 -1.8165 -1.3984
  357SOL     MW 1428   1.773   2.908   0.366 -0.6602 -0.1595 -0.1739
  358SOL     OW 1429   0.389   0.112   1.018 -0.4590 -0.2990  0.4964
  358SOL    HW1 1430   0.478   0.151   1.020  0.9327 -1.5327  0.4502
  358SOL    HW2 1431   0.354   0.148   0.933  0.1194  0.8679  1.5179
  358SOL     MW 1432   0.396   0.122   1.007 -0.1991 -0.3078  0.6251
  359SOL     OW 1433   0.922   2.888   1.792 -0.6420 -0.0942 -0.8171
  359SOL    HW1 1434   0.924   2.794   1.833 -0.8351 -0.4933 -0.9237
  359SOL    HW2 1435   0.975   2.873   1.717 -1.8155  0.7068 -2.2166
  359SOL     MW 1436   0.929   2.874   1.787 -0.8223 -0.0411 -1.0158
  360SOL     OW 1437   0.601   2.786   1.021  0.0149 -0.1098  0.4168
  360SOL    HW1 1438   0.616   2.740   0.937  0.3030 -0.0560 -0.4357
  360SOL    HW2 1439   0.577   2.705   1.071  0.6885 -1.8919 -0.8572
  360SOL     MW 1440   0.600   2.769   1.017  0.1418 -0.3378  0.1362
  361SOL     OW 1441   0.203   2.698   1.313  0.3939 -0.0331 -0.0566
  361SOL    HW1 1442   0.177   2.787   1.338  0.9364  1.2620 -0.0274
  361SOL    HW2 1443   0.291   2.676   1.336  1.3620 -1.1581  2.3503
  361SOL     MW 1444   0.211   2.707   1.319  0.5932 -0.0107  0.2648
  362SOL     OW 1445   1.470   2.418   0.634 -0.2865 -0.2504  0.9152
  362SOL    HW1 1446   1.459   2.332   0.679  1.0053  1.6131 -1.2239
  362SOL    HW2 1447   1.496   2.481   0.704  0.6614 -1.0609  0.1358
  362SOL     MW 1448   1.472   2.415   0.649  0.0090 -0.1114  0.5301
  363SOL     OW 1449   0.303   3.033   0.716  0.3811  0.1855 -0.4831
  363SOL    HW1 1450   0.304   2.963   0.785 -2.3998 -1.3714 -1.6567
  363SOL    HW2 1451   0.209   3.031   0.695 -0.3967  0.3774  0.1942
  363SOL     MW 1452   0.291   3.024   0.722 -0.0884  0.0054 -0.5486
  364SOL     OW 1453   0.757   0.177   0.252  0.3943  0.1058 -0.0714
  364SOL    HW1 1454   0.708   0.107   0.218 -0.7054  1.8313 -2.2457
  364SOL    HW2 1455   0.714   0.256   0.215 -1.2356  1.8348 -0.4586
  364SOL     MW 1456   0.745   0.178   0.243  0.0341  0.5616 -0.4094
  365SOL     OW 1457   0.949   1.940   1.116  0.2003 -0.0334 -0.3465
  365SOL    HW1 1458   0.922   2.019   1.066  1.9693  1.9217 -1.3859
  365SOL    HW2 1459   0.904   1.865   1.072  0.4618 -0.3781  0.3419
  365SOL     MW 1460   0.939   1.941   1.104  0.4682  0.1791 -0.3928
  366SOL     OW 1461   2.876   2.618   1.006 -0.1807 -0.0898 -0.1221
  366SOL    HW1 1462   2.939   2.627   1.073  0.4421 -0.3814 -1.9623
  366SOL    HW2 1463   2.915   2.652   0.917  0.3679  0.8568 -0.7923
  366SOL     MW 1464   2.889   2.624   1.003 -0.0262 -0.0034 -0.4534
  367SOL     OW 1465   1.239   2.808   0.889 -0.4414  0.0655  0.1814
  367SOL    HW1 1466   1.150   2.825   0.876  1.3086  1.0185  0.5799
  367SOL    HW2 1467   1.261   2.762   0.806 -0.3121 -0.2371 -0.6534
  367SOL     MW 1468   1.230   2.804   0.876 -0.1935  0.1513  0.1239
  368SOL     OW 1469   1.677   0.451   0.693  0.0454 -0.3791  0.5989
  368SOL    HW1 1470   1.766   0.440   0.649 -1.3552  0.3486 -1.2127
  368SOL    HW2 1471   1.682   0.542   0.720  0.1546  1.6451 -0.3510
  368SOL     MW 1472   1.689   0.462   0.691 -0.1250 -0.0160  0.2345
  369SOL     OW 1473   0.157   2.460   1.700  0.2674 -0.0864 -0.5200
  369SOL    HW1 1474   0.252   2.441   1.699  1.7525  0.1074 -0.0756
  369SOL    HW2 1475   0.131   2.542   1.741  0.3775 -0.9403  0.7607
  369SOL     MW 1476   0.166   2.468   1.705  0.4779 -0.1735 -0.2924
  370SOL     OW 1477   0.754   0.076   0.995  0.2669 -0.3115  0.3096
  370SOL    HW1 1478   0.791   0.148   1.042 -0.4269  3.0189 -1.2167
  370SOL    HW2 1479   0.750   0.003   1.055 -1.0511 -1.4852  0.5876
  370SOL     MW 1480   0.758   0.075   1.009  0.0015 -0.0270  0.1449
  371SOL     OW 1481   1.347   2.965   1.505  0.3087  0.1151 -0.1614
  371SOL    HW1 1482   1.309   2.886   1.466 -1.5799 -0.5716  2.2681
  371SOL    HW2 1483   1.323   3.038   1.452  1.1282 -1.3068  2.1540
  371SOL     MW 1484   1.339   2.964   1.492  0.1677 -0.1631  0.4647
  372SOL     OW 1485   0.828   2.306   0.468 -0.4700  0.2557  0.1574
  372SOL    HW1 1486   0.781   2.221   0.479 -0.8900  1.3964 -0.8058
  372SOL    HW2 1487   0.834   2.316   0.370 -0.4523  1.5855 -0.6850
  372SOL     MW 1488   0.822   2.296   0.457 -0.5230  0.5816 -0.0808
  373SOL     OW 1489   2.793   3.005   1.394 -0.4222  0.1406  0.0690
  373SOL    HW1 1490   2.847   2.932   1.364  0.2175  1.5155  1.3393
  373SOL    HW2 1491   2.822   3.087   1.348 -0.7345 -1.1187 -1.4352
  373SOL     MW 1492   2.804   3.006   1.384 -0.3790  0.1559  0.0381
  374SOL     OW 1493   1.534   0.515   0.239  0.4767  0.5371 -0.4068
  374SOL    HW1 1494   1.605   0.572   0.247 -0.0539  0.0734 -3.0564
  374SOL    HW2 1495   1.513   0.489   0.328  1.8914 -0.1568 -1.9711
  374SOL     MW 1496   1.541   0.519   0.252  0.5933  0.3844 -0.9628
  375SOL     OW 1497   1.134   2.098   2.288 -0.2233 -0.5072 -0.3407
  375SOL    HW1 1498   1.145   2.117   2.384  1.0106 -1.9008 -1.7188
  375SOL    HW2 1499   1.137   2.003   2.284  1.0330  0.3512 -0.2283
  375SOL     MW 1500   1.136   2.088   2.300  0.1052 -0.5778 -0.5077
  376SOL     OW 1501   0.706   2.496   0.048  0.1471  0.4549  0.0611
  376SOL    HW1 1502   0.757   2.436   0.098  0.3530  0.4825 -2.3109
  376SOL    HW2 1503   0.641   2.446  -0.013 -0.4407  0.5686 -0.9015
  376SOL     MW 1504   0.705   2.481   0.047  0.0967  0.4736 -0.3789
  377SOL     OW 1505   1.315   1.976   0.858  0.1008  0.5575 -0.1179
  377SOL    HW1 1506   1.227   1.965   0.819 -0.0279  2.3620 -0.0244
  377SOL    HW2 1507   1.309   1.940   0.948  1.0522  0.6433  0.4110
  377SOL     MW 1508   1.303   1.970   0.864  0.2094  0.8069 -0.0358
  378SOL     OW 1509   1.051   2.815   1.568 -0.2573  0.1740  0.4543
  378SOL    HW1 1510   0.995   2.735   1.554 -1.1033 -0.0316 -0.2056
  378SOL    HW2 1511   1.015   2.881   1.506  0.4163  0.1960  0.0215
  378SOL     MW 1512   1.039   2.813   1.558 -0.2800  0.1498  0.3101
  379SOL     OW 1513   1.123   1.810   2.269  0.2703  0.0924  0.3948
  379SOL    HW1 1514   1.028   1.835   2.295 -2.2339 -0.3513  0.6543
  379SOL    HW2 1515   1.128   1.725   2.227 -0.1619  0.9102  0.0496
  379SOL     MW 1516   1.111   1.802   2.267 -0.1171  0.1418  0.3835
  380SOL     OW 1517   0.860   0.041   1.549  0.2527  0.1416 -0.3616
  380SOL    HW1 1518   0.916   0.064   1.477 -1.7699  0.4643 -3.7012
  380SOL    HW2 1519   0.905   0.073   1.631  2.8013  1.5336  1.4459
  380SOL     MW 1520   0.873   0.048   1.551  0.3221  0.3679 -0.5637
  381SOL     OW 1521   0.801   1.966   0.786  0.2504  0.3330 -0.1328
  381SOL    HW1 1522   0.898   1.969   0.773  0.5364  0.8340 -1.0444
  381SOL    HW2 1523   0.779   2.030   0.852 -1.6747  0.1179  2.3695
  381SOL     MW 1524   0.811   1.975   0.793  0.0342  0.3707  0.0771
  382SOL     OW 1525   0.710   0.066   0.729 -0.2714 -0.0755 -0.1525
  382SOL    HW1 1526   0.734   0.052   0.823  2.3617  1.5775  2.4208
  382SOL    HW2 1527   0.690  -0.027   0.698 -1.5931 -1.0315  0.7982
  382SOL     MW 1528   0.710   0.052   0.737 -0.0984  0.0164  0.3125
  383SOL     OW 1529   0.465   0.041   0.349  0.1510 -0.0680 -0.2455
  383SOL    HW1 1530   0.507  -0.033   0.317 -0.8643 -1.0035 -2.0754
  383SOL    HW2 1531   0.406   0.006   0.417  1.0929  1.3692  0.7873
  383SOL     MW 1532   0.463   0.026   0.353  0.1413 -0.0018 -0.3506
  384SOL     OW 1533   0.649   2.905   0.665 -0.0589  0.3350 -0.7007
  384SOL    HW1 1534   0.658   2.820   0.713  3.2989 -3.5225  1.5250
  384SOL    HW2 1535   0.581   2.881   0.606  0.7633  0.9301  0.8018
  384SOL     MW 1536   0.641   2.891   0.663  0.4926 -0.0955 -0.2088
  385SOL     OW 1537   1.318   2.063   1.508  0.1508 -0.0690 -0.1762
  385SOL    HW1 1538   1.387   2.073   1.573 -0.4508  0.0312 -0.6470
  385SOL    HW2 1539   1.281   1.971   1.526  0.2630  2.2907 -0.9890
  385SOL     MW 1540   1.322   2.052   1.519  0.0862  0.2556 -0.3456
  386SOL     OW 1541   1.394   0.342   0.822 -0.1236  0.4086  0.2215
  386SOL    HW1 1542   1.319   0.289   0.779 -0.1648 -0.3925 -1.6646
  386SOL    HW2 1543   1.382   0.327   0.916  3.8004 -0.7744  1.6191
  386SOL     MW 1544   1.382   0.333   0.828  0.3887  0.1469  0.1570
  387SOL     OW 1545   0.824   2.214   1.450  0.2188 -0.0583 -0.2353
  387SOL    HW1 1546   0.892   2.276   1.420 -0.5248  2.1501  0.9014
  387SOL    HW2 1547   0.858   2.126   1.438  1.0082  0.0383 -2.1616
  387SOL     MW 1548   0.837   2.210   1.445  0.2248  0.2459 -0.3395
  388SOL     OW 1549   1.567   2.787   1.244 -0.0607  0.1573 -0.2475
  388SOL    HW1 1550   1.483   2.775   1.200  0.5368  1.4537 -0.6292
  388SOL    HW2 1551   1.631   2.739   1.186  1.4771  0.9669 -1.4421
  388SOL     MW 1552   1.564   2.779   1.231  0.2210  0.4351 -0.4555
  389SOL     OW 1553   0.359   0.035   3.039 -0.3436  0.1647 -0.5551
  389SOL    HW1 1554   0.455   0.042   3.033 -0.2681  1.2582 -1.0351
  389SOL    HW2 1555   0.328   0.089   2.972  0.0680 -4.1978  2.4653
  389SOL     MW 1556   0.367   0.043   3.030 -0.2793 -0.2666 -0.2200
  390SOL     OW 1557   1.277   0.034   0.611  0.0761  0.9599  0.4061
  390SOL    HW1 1558   1.354   0.062   0.563 -0.8855  1.2701 -1.3665
  390SOL    HW2 1559   1.290   0.029   0.707 -2.0974 -1.0515  1.9175
  390SOL     MW 1560   1.289   0.037   0.617 -0.3376  0.7354  0.3716
  391SOL     OW 1561   0.284   2.261   1.462 -0.0276 -0.6602 -0.8953
  391SOL    HW1 1562   0.223   2.199   1.502 -0.6067 -0.0815  0.7784
  391SOL    HW2 1563   0.224   2.339   1.447  0.2764  0.3544  0.2835
  391SOL     MW 1564   0.268   2.263   1.465 -0.0639 -0.4500 -0.5190
  392SOL     OW 1565   2.054   2.155   0.363  0.6423 -0.4602  0.0177
  392SOL    HW1 1566   2.042   2.206   0.441  0.2961  1.1657 -0.5888
  392SOL    HW2 1567   2.079   2.076   0.404 -1.4179 -0.9239 -3.0247
  392SOL     MW 1568   2.056   2.151   0.379  0.3248 -0.3069 -0.4638
  393SOL     OW 1569   0.206   3.002   2.797 -0.3789  0.2972 -0.5718
  393SOL    HW1 1570   0.266   3.073   2.809 -1.4433 -0.2970 -0.2255
  393SOL    HW2 1571   0.121   3.045   2.764 -4.1152  0.2913 -1.5234
  393SOL     MW 1572   0.203   3.017   2.794 -1.0123  0.2180 -0.6517
  394SOL     OW 1573   0.878   1.698   1.492 -0.1249  0.0533  0.2920
  394SOL    HW1 1574   0.841   1.708   1.582  0.0610 -1.4946  1.9775
  394SOL    HW2 1575   0.874   1.790   1.461 -0.5995  1.5040 -0.8722
  394SOL     MW 1576   0.873   1.712   1.500 -0.1630  0.0405  0.3608
  395SOL     OW 1577   0.949   2.855   2.626 -0.0618  0.1467  0.0408
  395SOL    HW1 1578   1.003   2.928   2.666  0.1627  0.6728  2.3692
  395SOL    HW2 1579   1.020   2.785   2.604  0.6781 -1.6698  1.1130
  395SOL     MW 1580   0.965   2.856   2.629  0.0654 -0.0236  0.4895
  396SOL     OW 1581   0.875   1.844   2.380  0.1283  0.1067 -0.2957
  396SOL    HW1 1582   0.892   1.852   2.477  1.1003  0.3511 -0.2689
  396SOL    HW2 1583   0.808   1.779   2.376  2.1040  0.6624 -0.4745
  396SOL     MW 1584   0.868   1.836   2.392  0.5172  0.2123 -0.3158
  397SOL     OW 1585   1.028   2.377   1.369  0.2275  0.0517 -0.5291
  397SOL    HW1 1586   1.077   2.391   1.287  2.5545  2.5061  1.4176
  397SOL    HW2 1587   1.102   2.357   1.434  1.8227 -1.7077 -1.5291
  397SOL     MW 1588   1.045   2.376   1.367  0.7450  0.1434 -0.4042
  398SOL     OW 1589   0.652   2.669   0.782 -0.2423 -0.0645  0.1246
  398SOL    HW1 1590   0.578   2.604   0.795  0.8511  1.0505 -1.5722
  398SOL    HW2 1591   0.719   2.606   0.750 -2.6380 -0.4744 -0.2197
  398SOL     MW 1592   0.651   2.652   0.780 -0.4141  0.0285 -0.1447
  399SOL     OW 1593   0.287   2.067   0.460 -0.0065  0.5309  0.4680
  399SOL    HW1 1594   0.195   2.108   0.442  0.6463  3.9092 -3.0632
  399SOL    HW2 1595   0.338   2.072   0.376  1.1398 -0.1170  0.7662
  399SOL     MW 1596   0.282   2.073   0.447  0.2309  0.8911  0.0414
  400SOL     OW 1597   0.547   1.827   0.196 -0.1636 -0.7517  0.0153
  400SOL    HW1 1598   0.516   1.916   0.205  2.2486  0.4987 -0.5728
  400SOL    HW2 1599   0.521   1.783   0.271  0.8398  2.0604 -1.5273
  400SOL     MW 1600   0.539   1.833   0.207  0.2871 -0.2157 -0.2658
  401SOL     OW 1601   0.918   2.079   0.177  0.1749  0.2899 -0.7252
  401SOL    HW1 1602   0.902   1.982   0.170 -1.0780 -1.8830 -1.4314
  401SOL    HW2 1603   0.990   2.085   0.236 -0.4211 -1.7183  2.6505
  401SOL     MW 1604   0.926   2.067   0.184 -0.0691 -0.2618 -0.3730
  402SOL     OW 1605   0.687   2.966   1.672 -0.4068 -0.8837  0.0322
  402SOL    HW1 1606   0.743   2.945   1.748  1.6840 -0.1581  0.2439
  402SOL    HW2 1607   0.751   3.015   1.619 -3.4639 -0.1096  1.4098
  402SOL     MW 1608   0.703   2.970   1.675 -0.5343 -0.6858  0.2419
  403SOL     OW 1609   0.065   0.393   0.408 -0.2897  0.0644 -0.2695
  403SOL    HW1 1610   0.143   0.439   0.438 -1.4887  0.4302 -3.1429
  403SOL    HW2 1611   0.075   0.373   0.317 -0.6427  0.0318  0.9396
  403SOL     MW 1612   0.077   0.396   0.400 -0.4945  0.1083 -0.4891
  404SOL     OW 1613   0.977   2.858   0.801 -0.0713 -0.7847  0.4619
  404SOL    HW1 1614   0.997   2.799   0.731  0.7627 -1.8497  2.0639
  404SOL    HW2 1615   0.992   2.947   0.761  1.4916 -0.6823 -0.6689
  404SOL     MW 1616   0.981   2.862   0.787  0.2449 -0.9117  0.5241
  405SOL     OW 1617   0.521   2.420   1.547  0.3455  0.0318 -0.4305
  405SOL    HW1 1618   0.510   2.495   1.491 -1.6460 -1.9666 -1.1742
  405SOL    HW2 1619   0.445   2.358   1.516 -1.0763 -1.8509 -1.9773
  405SOL     MW 1620   0.510   2.422   1.535 -0.1048 -0.4803 -0.7327
  406SOL     OW 1621   0.365   2.342   1.104 -0.1044  0.0510  0.1642
  406SOL    HW1 1622   0.265   2.363   1.089 -2.6042  4.1040  1.0064
  406SOL    HW2 1623   0.366   2.260   1.161 -2.5896  1.4899 -0.4242
  406SOL     MW 1624   0.352   2.334   1.109 -0.7621  0.7756  0.1977
  407SOL     OW 1625   0.036   2.743   1.097  0.2112  0.2517 -0.0311
  407SOL    HW1 1626   0.077   2.718   1.177 -0.4448  1.7326 -0.2244
  407SOL    HW2 1627   0.104   2.711   1.022  1.8474 -1.1984 -0.4808
  407SOL     MW 1628   0.051   2.735   1.097  0.3405  0.2557 -0.1159
  408SOL     OW 1629   2.079   2.058   0.676 -0.3358  0.2100  0.1681
  408SOL    HW1 1630   2.062   2.102   0.760  2.6887 -0.3793  0.8293
  408SOL    HW2 1631   2.022   1.976   0.679  0.6985 -1.2851  0.6988
  408SOL     MW 1632   2.070   2.053   0.688  0.1997 -0.0650  0.3254
  409SOL     OW 1633   1.384   0.032   0.906  0.0370 -0.6717 -0.1507
  409SOL    HW1 1634   1.424   0.118   0.909 -0.3746 -1.7965 -0.9577
  409SOL    HW2 1635   1.444  -0.021   0.955 -1.6209 -1.5773  2.2726
  409SOL     MW 1636   1.397   0.037   0.913 -0.2361 -0.9396  0.0626
  410SOL     OW 1637   1.104   2.432   1.069  0.1720 -0.7378 -0.6710
  410SOL    HW1 1638   1.016   2.441   1.034 -1.9575 -0.0638  0.1429
  410SOL    HW2 1639   1.126   2.344   1.040  2.6481  1.0635 -0.0575
  410SOL     MW 1640   1.096   2.422   1.061  0.2177 -0.4112 -0.4827
  411SOL     OW 1641   1.975   0.044   2.863  0.2569  0.0783 -0.7082
  411SOL    HW1 1642   1.934   0.022   2.777 -0.8110  2.7704  2.5537
  411SOL    HW2 1643   1.907   0.026   2.926 -0.5053 -1.3229  0.0171
  411SOL     MW 1644   1.961   0.039   2.860  0.0154  0.2486 -0.1821
  412SOL     OW 1645   1.051   2.236   0.583 -0.2481  0.4778  0.0080
  412SOL    HW1 1646   1.073   2.320   0.623  0.2823 -2.8908 -0.4189
  412SOL    HW2 1647   0.964   2.247   0.550  1.3542 -1.7533 -0.0514
  412SOL     MW 1648   1.043   2.249   0.584  0.0333 -0.2610 -0.0562
  413SOL     OW 1649   0.536   2.768   0.041 -0.2322 -0.1708 -0.6214
  413SOL    HW1 1650   0.548   2.675   0.052  1.6613  0.3698 -1.2062
  413SOL    HW2 1651   0.552   2.798  -0.047  3.1241  0.6893  1.3922
  413SOL     MW 1652   0.540   2.760   0.031  0.4604  0.0140 -0.4329
  414SOL     OW 1653   1.918   2.989   1.073 -0.6814 -0.1074  0.2854
  414SOL    HW1 1654   1.879   3.003   0.988 -0.5804 -1.5220  0.4826
  414SOL    HW2 1655   2.015   2.971   1.069 -1.3903 -1.3430 -0.4195
  414SOL     MW 1656   1.926   2.989   1.061 -0.7616 -0.4571  0.2184
  415SOL     OW 1657   1.733   2.581   1.133  0.3321 -0.7281  0.1067
  415SOL    HW1 1658   1.661   2.540   1.194  0.0015  0.2164  2.1026
  415SOL    HW2 1659   1.815   2.609   1.185 -1.2474  2.0927  2.4705
  415SOL     MW 1660   1.735   2.579   1.148  0.0801 -0.2313  0.6819
  416SOL     OW 1661   0.577   1.925   1.348  0.1137  0.1027  0.4230
  416SOL    HW1 1662   0.500   1.989   1.339 -0.5518  0.8668  0.8812
  416SOL    HW2 1663   0.561   1.859   1.283  0.7950 -0.8900  0.2105
  416SOL     MW 1664   0.564   1.925   1.338  0.1158  0.0725  0.4554
  417SOL     OW 1665   0.985   3.020   2.036 -0.0145 -0.0008 -0.0314
  417SOL    HW1 1666   0.922   3.000   2.109 -0.5496 -1.2420 -0.6429
  417SOL    HW2 1667   0.942   2.977   1.958 -4.0926  0.1499 -0.4752
  417SOL     MW 1668   0.971   3.012   2.036 -0.6232 -0.1446 -0.1706
  418SOL     OW 1669   0.639   2.996   0.194 -0.4191 -0.2054 -0.7967
  418SOL    HW1 1670   0.731   3.012   0.151  1.6276  0.6457  0.3473
  418SOL    HW2 1671   0.596   2.927   0.143  0.9383  0.7491  2.2610
  418SOL     MW 1672   0.646   2.989   0.181  0.0301  0.0328 -0.2424
  419SOL     OW 1673   0.478   2.633   1.384 -0.0942 -0.5111  0.1584
  419SOL    HW1 1674   0.534   2.718   1.399 -2.1082  1.1438 -0.5181
  419SOL    HW2 1675   0.505   2.600   1.291 -0.0447  3.6426 -1.7001
  419SOL     MW 1676   0.489   2.640   1.374 -0.3534  0.2553 -0.1761
  420SOL     OW 1677   0.770   2.146   0.987  0.6078  0.4888 -0.3708
  420SOL    HW1 1678   0.726   2.168   1.074 -0.1804 -1.6079 -1.2907
  420SOL    HW2 1679   0.813   2.228   0.974  1.5813 -1.8732  1.1625
  420SOL     MW 1680   0.770   2.160   0.997  0.6323 -0.0995 -0.2899
  421SOL     OW 1681   2.936   0.087   0.047 -0.0393 -0.1532  0.2321
  421SOL    HW1 1682   2.877   0.038  -0.011 -0.3784  0.0651  0.4917
  421SOL    HW2 1683   2.996   0.015   0.075 -0.0173 -2.9658  1.6910
  421SOL     MW 1684   2.936   0.071   0.043 -0.0811 -0.4955  0.4588
  422SOL     OW 1685   0.841   2.433   0.970  0.3493 -0.1211 -0.9316
  422SOL    HW1 1686   0.833   2.517   1.013  1.3982 -1.2340 -0.2644
  422SOL    HW2 1687   0.838   2.453   0.878  0.2133 -3.0986 -1.5413
  422SOL     MW 1688   0.840   2.446   0.964  0.4697 -0.6608 -0.9240
  423SOL     OW 1689   1.506   0.140   0.508  0.0519  0.0274 -0.5571
  423SOL    HW1 1690   1.512   0.163   0.415 -0.4943 -0.7252  0.3736
  423SOL    HW2 1691   1.502   0.229   0.546 -1.2177  2.3041  2.4386
  423SOL     MW 1692   1.506   0.155   0.501 -0.1877  0.2285 -0.0391
  424SOL     OW 1693   0.663   2.227   1.228 -0.5040 -0.0640  0.2410
  424SOL    HW1 1694   0.575   2.203   1.255 -3.4978 -0.4003 -0.2700
  424SOL    HW2 1695   0.714   2.223   1.308 -0.6757 -0.0383 -1.9449
  424SOL     MW 1696   0.658   2.223   1.243 -0.9216 -0.1050 -0.1148
  425SOL     OW 1697   1.709   2.819   1.923  0.1834 -0.0235  0.0850
  425SOL    HW1 1698   1.744   2.832   1.828 -1.6250  2.6841 -1.4412
  425SOL    HW2 1699   1.743   2.730   1.956 -2.5207 -1.0508 -0.8192
  425SOL     MW 1700   1.718   2.809   1.915 -0.4119  0.1982 -0.2357
  426SOL     OW 1701   0.795   1.688   1.936 -0.0798 -0.9896  0.0631
  426SOL    HW1 1702   0.748   1.716   1.860  1.0246  1.1107  2.5788
  426SOL    HW2 1703   0.767   1.767   1.982  1.4700 -1.9019 -0.9980
  426SOL     MW 1704   0.785   1.702   1.932  0.2704 -0.8329  0.2550
  427SOL     OW 1705   0.345   1.535   1.895  0.4964 -0.1444  0.2952
  427SOL    HW1 1706   0.399   1.459   1.856 -0.1525  1.0665 -1.4824
  427SOL    HW2 1707   0.284   1.508   1.958 -0.0521 -1.5453 -2.4444
  427SOL     MW 1708   0.344   1.522   1.898  0.3384 -0.1695 -0.3008
  428SOL     OW 1709   0.536   2.547   1.145  0.2258  0.0975  0.4095
  428SOL    HW1 1710   0.617   2.505   1.172 -0.6760 -0.1592 -0.1954
  428SOL    HW2 1711   0.470   2.475   1.143 -0.1788  0.2345 -0.1216
  428SOL     MW 1712   0.538   2.532   1.148  0.0535  0.0817  0.2596
  429SOL     OW 1713   1.327   2.615   1.069 -0.4697  0.4726 -0.4149
  429SOL    HW1 1714   1.255   2.553   1.084  1.7396 -0.3304 -0.8986
  429SOL    HW2 1715   1.283   2.691   1.018 -2.4064 -0.0928  0.5076
  429SOL     MW 1716   1.312   2.617   1.064 -0.4338  0.2920 -0.3570
  430SOL     OW 1717   1.120   2.683   0.635  0.1279 -0.1440  0.2751
  430SOL    HW1 1718   1.143   2.592   0.648 -0.0487  0.3437  0.5172
  430SOL    HW2 1719   1.053   2.689   0.566  2.1434  1.9450  0.7931
  430SOL     MW 1720   1.114   2.672   0.628  0.3705  0.1960  0.3754
  431SOL     OW 1721   0.314   1.928   1.108 -0.0342 -0.3334  0.9961
  431SOL    HW1 1722   0.376   1.851   1.103 -0.2847 -1.4565 -0.8295
  431SOL    HW2 1723   0.302   1.949   1.013 -2.5520 -0.7573 -0.9459
  431SOL     MW 1724   0.321   1.921   1.095 -0.3995 -0.5375  0.4990
  432SOL     OW 1725   0.023   0.118   1.156 -0.1575  0.1509 -0.3534
  432SOL    HW1 1726   0.026   0.128   1.251  0.5895  0.4905  1.1237
  432SOL    HW2 1727  -0.056   0.059   1.135 -1.2918 -1.1829  1.3062
  432SOL     MW 1728   0.013   0.111   1.166 -0.2086  0.0197  0.0605
  433SOL     OW 1729   0.599   2.870   1.417  0.1366 -0.1454  0.5768
  433SOL    HW1 1730   0.604   2.889   1.511 -1.2443  1.4710 -1.6439
  433SOL    HW2 1731   0.689   2.889   1.386 -2.3095  0.4682  0.1637
  433SOL     MW 1732   0.612   2.875   1.425 -0.3683  0.1488  0.2293
  434SOL     OW 1733   1.563   2.837   1.537  0.1905  0.0848 -0.1491
  434SOL    HW1 1734   1.475   2.887   1.546 -1.3157  0.3355 -0.7327
  434SOL    HW2 1735   1.559   2.779   1.466  1.8136  0.3944  2.3448
  434SOL     MW 1736   1.551   2.836   1.529  0.2059  0.1587  0.1030
  435SOL     OW 1737   2.840   1.774   0.157 -0.3185 -0.0841  0.1305
  435SOL    HW1 1738   2.914   1.826   0.124  0.1136  0.4296  1.3394
  435SOL    HW2 1739   2.819   1.714   0.087  2.6147  0.2737 -1.0848
  435SOL     MW 1740   2.847   1.773   0.143  0.1255  0.0309  0.1297
  436SOL     OW 1741   1.351   2.731   0.307 -0.4678 -0.2314 -0.5238
  436SOL    HW1 1742   1.403   2.686   0.373 -1.8550  0.4951  2.3162
  436SOL    HW2 1743   1.294   2.799   0.354 -2.4093 -0.8589 -0.7254
  436SOL     MW 1744   1.351   2.734   0.322 -0.9069 -0.2183 -0.1757
  437SOL     OW 1745   0.868   2.899   1.373  0.2407  0.1863 -0.1917
  437SOL    HW1 1746   0.900   2.977   1.324 -0.8612  0.4065  0.1130
  437SOL    HW2 1747   0.884   2.827   1.316 -0.1370  0.7307 -1.8919
  437SOL     MW 1748   0.875   2.900   1.359  0.0455  0.2871 -0.3758
  438SOL     OW 1749   0.919   2.637   1.933 -0.1216 -0.4368 -0.3473
  438SOL    HW1 1750   0.906   2.595   2.022  0.4436  1.7630 -0.3960
  438SOL    HW2 1751   0.851   2.605   1.872 -2.5241  0.5059  0.6445
  438SOL     MW 1752   0.908   2.627   1.937 -0.3640 -0.0222 -0.2229
  439SOL     OW 1753   1.134   2.130   0.345 -0.2782 -0.6287  0.1802
  439SOL    HW1 1754   1.095   2.169   0.426 -1.3166 -1.9358 -1.1575
  439SOL    HW2 1755   1.145   2.219   0.299 -1.2151 -1.6645 -1.4403
  439SOL     MW 1756   1.130   2.147   0.350 -0.5388 -0.9378 -0.2101
  440SOL     OW 1757   1.592   2.901   3.027  0.0626 -0.1435  0.2396
  440SOL    HW1 1758   1.556   2.887   3.113  0.4072  0.3375 -1.2340
  440SOL    HW2 1759   1.634   2.822   3.005  0.1158  1.7350 -0.0243
  440SOL     MW 1760   1.592   2.888   3.036  0.1151  0.1678  0.0103
  441SOL     OW 1761   0.321   2.591   0.544  0.1598  0.6842  0.0941
  441SOL    HW1 1762   0.310   2.578   0.448 -4.0020  0.7154  0.2139
  441SOL    HW2 1763   0.359   2.674   0.555  0.3510 -1.0520 -0.2174
  441SOL     MW 1764   0.324   2.600   0.533 -0.3640  0.4592  0.0688
  442SOL     OW 1765   3.039   2.322   0.635 -0.2988  0.8972 -0.3134
  442SOL    HW1 1766   3.055   2.418   0.640 -0.1306  0.6779 -0.2868
  442SOL    HW2 1767   2.966   2.300   0.697  1.5171  1.4625  1.0188
  442SOL     MW 1768   3.031   2.332   0.644 -0.0370  0.9429 -0.1341
  443SOL     OW 1769   1.408   1.779   1.837  0.5799  0.0843 -0.2299
  443SOL    HW1 1770   1.369   1.817   1.765  0.6727  0.1797  1.6557
  443SOL    HW2 1771   1.359   1.701   1.864  2.4075  2.0961  3.4109
  443SOL     MW 1772   1.396   1.774   1.831  0.8333  0.3623  0.4993
  444SOL     OW 1773   0.899   2.583   1.543  0.5008  0.0307 -0.0387
  444SOL    HW1 1774   0.970   2.530   1.589 -1.3511  2.2423  0.3816
  444SOL    HW2 1775   0.818   2.541   1.576 -1.1010  1.5038 -1.2485
  444SOL     MW 1776   0.898   2.571   1.554  0.0451  0.5168 -0.1429
  445SOL     OW 1777   0.953   0.065   1.281 -0.4339 -0.6431  0.4111
  445SOL    HW1 1778   0.901   0.147   1.276 -2.9159  1.0533  0.9884
  445SOL    HW2 1779   1.033   0.085   1.229  1.7549  2.5382  1.6188
  445SOL     MW 1780   0.957   0.079   1.274 -0.4726  0.0005  0.6466
  446SOL     OW 1781   2.692   2.794   1.090 -0.2575  0.0124  0.2748
  446SOL    HW1 1782   2.651   2.830   1.011 -0.2930  1.9569  1.3154
  446SOL    HW2 1783   2.725   2.705   1.065  0.5567 -0.5006 -1.0578
  446SOL     MW 1784   2.691   2.787   1.076 -0.1548  0.2013  0.2363
  447SOL     OW 1785   3.040   2.022   1.707 -0.0596  0.1510 -0.3283
  447SOL    HW1 1786   3.124   1.974   1.725 -1.1457  1.3762  0.7445
  447SOL    HW2 1787   2.973   1.981   1.642  1.1481 -2.3041 -0.7318
  447SOL     MW 1788   3.042   2.010   1.701 -0.0436 -0.0113 -0.2400
  448SOL     OW 1789   1.675   2.389   1.669  0.0778  0.2000  0.5522
  448SOL    HW1 1790   1.609   2.328   1.646  0.9059  2.0119  1.0535
  448SOL    HW2 1791   1.628   2.471   1.699  3.2780 -2.7783  0.7914
  448SOL     MW 1792   1.660   2.392   1.670  0.6093  0.0461  0.6499
  449SOL     OW 1793   0.787   2.955   0.420 -0.0099 -0.0702  0.1281
  449SOL    HW1 1794   0.718   2.961   0.350  1.5473  0.4888 -2.2525
  449SOL    HW2 1795   0.743   2.951   0.505 -0.1215  2.1874 -1.2298
  449SOL     MW 1796   0.772   2.956   0.422  0.1808  0.3014 -0.3651
  450SOL     OW 1797   1.200   2.430   0.713 -0.4147  0.5394  0.0460
  450SOL    HW1 1798   1.206   2.373   0.795 -1.9575  2.3161  1.3681
  450SOL    HW2 1799   1.295   2.428   0.692 -2.7309 -3.9954 -1.0767
  450SOL     MW 1800   1.213   2.422   0.721 -0.9239  0.1755  0.0723
  451SOL     OW 1801   0.583   2.019   1.655  0.0729 -0.6173 -0.1671
  451SOL    HW1 1802   0.660   2.074   1.660 -3.7937 -0.8755  1.7764
  451SOL    HW2 1803   0.586   1.987   1.566 -1.8624  3.5256 -0.6689
  451SOL     MW 1804   0.593   2.022   1.644 -0.6926 -0.1048  0.0231
  452SOL     OW 1805   0.266   2.747   0.094  0.4778 -0.1088 -0.3277
  452SOL    HW1 1806   0.354   2.757   0.079 -0.7148  1.5774 -1.6480
  452SOL    HW2 1807   0.230   2.751   0.003  0.9152 -1.8329 -2.6431
  452SOL     MW 1808   0.273   2.749   0.080  0.3781 -0.1138 -0.8074
  453SOL     OW 1809   0.415   3.002   1.694  0.1907 -0.0433 -0.0898
  453SOL    HW1 1810   0.518   3.001   1.686  1.1886 -0.9247 -0.5435
  453SOL    HW2 1811   0.394   3.034   1.607  1.8070  1.3419  1.1157
  453SOL     MW 1812   0.426   3.006   1.681  0.5356  0.0232  0.0094
  454SOL     OW 1813   0.997   2.710   1.196 -0.3281 -0.6471  0.4715
  454SOL    HW1 1814   0.927   2.652   1.229  0.7367 -1.7871 -1.7972
  454SOL    HW2 1815   0.950   2.769   1.135  0.4646 -0.7245 -1.6726
  454SOL     MW 1816   0.982   2.710   1.193 -0.0830 -0.8077 -0.1107
  455SOL     OW 1817   1.536   2.956   0.213  0.1732  0.0768  0.1981
  455SOL    HW1 1818   1.613   2.918   0.258  1.0143 -0.3411 -0.4968
  455SOL    HW2 1819   1.461   2.899   0.228  3.1541  0.2075 -0.2870
  455SOL     MW 1820   1.536   2.943   0.221  0.6775  0.0389  0.0424
  456SOL     OW 1821   2.877   0.387   1.314 -0.2059 -0.1644 -0.0064
  456SOL    HW1 1822   2.860   0.309   1.257  0.1129 -1.1785 -4.0031
  456SOL    HW2 1823   2.956   0.420   1.272  1.0405 -2.5232  1.6877
  456SOL     MW 1824   2.885   0.381   1.301  0.0006 -0.6094 -0.3102
  457SOL     OW 1825   0.911   1.561   2.997 -0.3860  0.0399 -0.4651
  457SOL    HW1 1826   0.825   1.557   3.039  3.0035  1.1476 -1.6218
  457SOL    HW2 1827   0.977   1.515   3.052  2.1252  1.2406  1.3039
  457SOL     MW 1828   0.909   1.554   3.010  0.3925  0.3445 -0.3843
  458SOL     OW 1829   1.453   1.419   0.634 -0.0129 -0.0284 -0.1204
  458SOL    HW1 1830   1.366   1.441   0.673 -0.7878  0.8742 -0.3310
  458SOL    HW2 1831   1.428   1.379   0.551 -1.6708 -1.1363 -3.8102
  458SOL     MW 1832   1.438   1.416   0.628 -0.3339 -0.0554 -0.6350
  459SOL     OW 1833   1.572   0.117   0.227 -0.2928 -0.5912  0.1397
  459SOL    HW1 1834   1.556   0.019   0.223 -1.6859 -0.7192 -1.6232
  459SOL    HW2 1835   1.524   0.163   0.153  0.2758 -1.3301 -0.1818
  459SOL     MW 1836   1.564   0.110   0.217 -0.4016 -0.7056 -0.1353
  460SOL     OW 1837   1.755   2.164   0.646  0.8980 -0.1964  0.0574
  460SOL    HW1 1838   1.652   2.154   0.658 -1.5639 -3.6494  0.5577
  460SOL    HW2 1839   1.778   2.079   0.610  1.3214  1.6243  2.3540
  460SOL     MW 1840   1.744   2.152   0.643  0.6290 -0.4118  0.4264
  461SOL     OW 1841   0.546   2.424   0.605 -0.2265 -0.0611  0.3382
  461SOL    HW1 1842   0.493   2.485   0.553 -0.4119 -2.2218 -2.1958
  461SOL    HW2 1843   0.499   2.423   0.692  0.0729  1.7905 -1.8972
  461SOL     MW 1844   0.533   2.432   0.610 -0.2115 -0.1019 -0.2910
  462SOL     OW 1845   0.298   0.243   1.278  0.7138  0.0303  0.0749
  462SOL    HW1 1846   0.315   0.176   1.201  1.8927 -1.5990 -1.9696
  462SOL    HW2 1847   0.379   0.250   1.316 -2.7150 -0.0810  1.1825
  462SOL     MW 1848   0.311   0.235   1.273  0.4169 -0.1993 -0.0487
  463SOL     OW 1849   0.974   0.001   0.697 -0.7133  0.1067 -0.1339
  463SOL    HW1 1850   0.995   0.009   0.605  0.4058 -1.6252  0.0330
  463SOL    HW2 1851   0.883   0.026   0.701 -0.8572 -0.5842 -1.0954
  463SOL     MW 1852   0.964   0.005   0.686 -0.5846 -0.2130 -0.2387
  464SOL     OW 1853   0.774   2.999   2.206 -0.5906  0.1785  0.5215
  464SOL    HW1 1854   0.748   2.909   2.217 -0.2409  5.1178 -0.8735
  464SOL    HW2 1855   0.833   3.019   2.275 -0.7832  1.5324  1.9466
  464SOL     MW 1856   0.778   2.990   2.217 -0.5699  1.0088  0.5255
  465SOL     OW 1857   0.712   0.310   0.536 -0.2454  0.4177 -0.2490
  465SOL    HW1 1858   0.700   0.256   0.612  0.1863  0.0274 -0.7846
  465SOL    HW2 1859   0.743   0.256   0.462  0.2609  3.5560 -0.8384
  465SOL     MW 1860   0.715   0.295   0.536 -0.1216  0.7803 -0.3974
  466SOL     OW 1861   1.058   1.987   0.731  0.1828  0.0682  0.2320
  466SOL    HW1 1862   1.063   1.923   0.656 -0.4558  1.8249 -2.6036
  466SOL    HW2 1863   1.080   2.076   0.698 -0.7432  0.2903 -0.0221
  466SOL     MW 1864   1.062   1.990   0.717 -0.0236  0.3293 -0.1757
  467SOL     OW 1865   1.248   2.238   0.902  0.3586 -0.1308 -0.3683
  467SOL    HW1 1866   1.321   2.293   0.941  2.1179 -1.1972  2.2889
  467SOL    HW2 1867   1.272   2.147   0.899 -0.9030  1.8556 -1.5547
  467SOL     MW 1868   1.261   2.233   0.906  0.4242 -0.0094 -0.1742
  468SOL     OW 1869   0.342   2.586   2.012 -0.0150  0.0587  0.1580
  468SOL    HW1 1870   0.380   2.533   1.938  1.7542  0.1482 -0.7912
  468SOL    HW2 1871   0.370   2.681   1.991 -1.9277 -2.2831 -1.6990
  468SOL     MW 1872   0.351   2.592   2.000 -0.0340 -0.2385 -0.2123
  469SOL     OW 1873   0.368   2.129   1.802  0.3049 -0.1230 -0.4872
  469SOL    HW1 1874   0.300   2.062   1.806  0.4803  0.0073  0.5939
  469SOL    HW2 1875   0.447   2.082   1.778 -0.0517 -1.1343 -0.1503
  469SOL     MW 1876   0.369   2.114   1.800  0.2810 -0.2392 -0.3001
  470SOL     OW 1877   3.032   2.581   0.129  0.2396  0.6257 -0.4810
  470SOL    HW1 1878   2.954   2.552   0.178  1.8397 -1.3589  2.4657
  470SOL    HW2 1879   3.002   2.587   0.036 -0.9267  2.4552 -1.0268
  470SOL     MW 1880   3.018   2.578   0.123  0.2968  0.6052 -0.1643
  471SOL     OW 1881   1.257   2.735   1.405 -0.2072 -0.3258  0.1615
  471SOL    HW1 1882   1.199   2.734   1.483 -2.0081 -0.1276  0.4501
  471SOL    HW2 1883   1.190   2.732   1.340  0.5921  1.0565 -1.2918
  471SOL     MW 1884   1.241   2.734   1.407 -0.3394 -0.1173  0.0078
  472SOL     OW 1885   2.891   2.084   0.362 -0.6478 -0.3235  0.6982
  472SOL    HW1 1886   2.896   2.058   0.261  1.3992 -2.1778 -1.4704
  472SOL    HW2 1887   2.862   2.006   0.418 -1.8563 -0.5871  2.8109
  472SOL     MW 1888   2.888   2.071   0.356 -0.5371 -0.6029  0.6908
  473SOL     OW 1889   0.806   2.552   1.261 -0.0812 -0.3933  0.2312
  473SOL    HW1 1890   0.857   2.472   1.255  0.8811  1.4807  2.9211
  473SOL    HW2 1891   0.839   2.588   1.353  2.8257 -0.4354 -0.5043
  473SOL     MW 1892   0.817   2.546   1.272  0.4293 -0.1516  0.4891
  474SOL     OW 1893   0.753   2.252   1.722 -0.0558  0.3186 -0.2081
  474SOL    HW1 1894   0.830   2.255   1.777 -0.0128  1.0861  0.1980
  474SOL    HW2 1895   0.786   2.241   1.637  0.8684  0.0338  0.7108
  474SOL     MW 1896   0.768   2.251   1.718  0.0718  0.3823 -0.0333
  475SOL     OW 1897   1.614   0.039   1.446 -0.0771  0.7118  0.2698
  475SOL    HW1 1898   1.526   0.048   1.408  2.7300  0.2741  0.5151
  475SOL    HW2 1899   1.625  -0.055   1.443 -1.6177  0.5833  0.1601
  475SOL     MW 1900   1.603   0.028   1.441  0.0900  0.6371  0.2877
  476SOL     OW 1901   1.495   2.641   0.834  0.2793  0.6278  0.2151
  476SOL    HW1 1902   1.452   2.655   0.919 -1.0508 -1.8287  3.5185
  476SOL    HW2 1903   1.512   2.732   0.804  0.1796  1.6249 -1.2119
  476SOL     MW 1904   1.492   2.655   0.842  0.0906  0.4352  0.4627
  477SOL     OW 1905   0.849   2.486   0.694 -0.2535 -0.0393  0.3745
  477SOL    HW1 1906   0.879   2.561   0.631  1.4912  2.3077 -2.8003
  477SOL    HW2 1907   0.795   2.439   0.629 -1.5787  1.4652 -0.1202
  477SOL     MW 1908   0.846   2.490   0.677 -0.1981  0.4689 -0.1096
  478SOL     OW 1909   0.200   2.654   0.913 -0.9014 -0.3030  0.2485
  478SOL    HW1 1910   0.248   2.739   0.923  1.8037  1.5656 -2.4995
  478SOL    HW2 1911   0.249   2.586   0.866 -0.1441  0.6584 -2.4124
  478SOL     MW 1912   0.213   2.656   0.908 -0.4445  0.0704 -0.4651
  479SOL     OW 1913   1.438   1.932   1.296  0.4402 -0.1564 -0.0415
  479SOL    HW1 1914   1.404   1.968   1.376  0.5866  1.8189  1.2351
  479SOL    HW2 1915   1.523   1.899   1.327  1.5589  2.3214  0.1968
  479SOL     MW 1916   1.445   1.932   1.311  0.6071  0.4311  0.1584
  480SOL     OW 1917   1.845   2.386   1.342  0.2471 -0.2746  0.8785
  480SOL    HW1 1918   1.892   2.307   1.358 -0.7818  0.2143 -0.2363
  480SOL    HW2 1919   1.864   2.410   1.251  1.2036  0.5705  2.7668
  480SOL     MW 1920   1.854   2.378   1.332  0.2376 -0.0986  0.9805
  481SOL     OW 1921   1.182   0.110   1.115 -0.0184 -0.2974 -0.2915
  481SOL    HW1 1922   1.219   0.069   1.032  1.3947 -1.5296 -0.0217
  481SOL    HW2 1923   1.184   0.205   1.100 -1.0257  1.1558  1.8150
  481SOL     MW 1924   1.187   0.117   1.102  0.0351 -0.2683  0.0220
  482SOL     OW 1925   0.988   0.029   0.407 -1.1691 -0.3429 -0.2423
  482SOL    HW1 1926   0.909  -0.026   0.401 -3.0909 -0.7613 -0.8300
  482SOL    HW2 1927   0.969   0.111   0.362 -2.2751 -0.6784 -1.4230
  482SOL     MW 1928   0.975   0.032   0.400 -1.5686 -0.4423 -0.4756
  483SOL     OW 1929   0.409   2.860   0.516  0.1119  0.1548 -0.2708
  483SOL    HW1 1930   0.339   2.862   0.451 -1.3181 -0.1113 -1.7242
  483SOL    HW2 1931   0.382   2.922   0.585 -1.8428 -2.0908 -0.5829
  483SOL     MW 1932   0.396   2.869   0.516 -0.3347 -0.1766 -0.5038
  484SOL     OW 1933   1.669   1.880   1.431  0.1818  0.5218 -0.2903
  484SOL    HW1 1934   1.743   1.945   1.410  2.2164  2.2860  0.5520
  484SOL    HW2 1935   1.673   1.869   1.525 -0.5687  1.2533 -0.8746
  484SOL     MW 1936   1.679   1.887   1.440  0.3512  0.8511 -0.2563
  485SOL     OW 1937   0.557   2.312   0.338  0.0170  0.9046 -0.3567
  485SOL    HW1 1938   0.594   2.351   0.420 -1.1877 -2.9382  1.1002
  485SOL    HW2 1939   0.519   2.392   0.314  3.3033 -1.2442 -4.9314
  485SOL     MW 1940   0.557   2.327   0.346  0.2916  0.1141 -0.7681
  486SOL     OW 1941   0.092   2.455   1.438 -0.2455  0.3792 -0.2264
  486SOL    HW1 1942   0.125   2.542   1.407  0.2029 -1.4792 -0.9228
  486SOL    HW2 1943   0.090   2.478   1.529  1.1717 -2.0809 -0.2319
  486SOL     MW 1944   0.096   2.469   1.446  0.0007 -0.1906 -0.3190
  487SOL     OW 1945   1.247   1.625   1.016 -0.0635 -0.7150  0.3721
  487SOL    HW1 1946   1.204   1.715   1.027  0.6687  1.2678  2.5955
  487SOL    HW2 1947   1.341   1.655   1.020  1.3149  0.2620  0.8511
  487SOL     MW 1948   1.254   1.641   1.018  0.2150 -0.3245  0.7287
  488SOL     OW 1949   1.547   1.867   0.550  0.1494 -0.4319  0.0980
  488SOL    HW1 1950   1.588   1.895   0.468  0.4746 -0.1075 -0.8555
  488SOL    HW2 1951   1.457   1.839   0.530 -0.5500  1.3275 -0.5875
  488SOL     MW 1952   1.540   1.867   0.537  0.1000 -0.1569 -0.1182
  489SOL     OW 1953   0.765   0.797   0.505  0.0441  0.0133 -0.7559
  489SOL    HW1 1954   0.803   0.730   0.456  1.7573 -0.2487  1.2593
  489SOL    HW2 1955   0.766   0.762   0.593  0.0501 -0.0142 -1.2838
  489SOL     MW 1956   0.770   0.784   0.510  0.2709 -0.0249 -0.5596
  490SOL     OW 1957   1.392   2.105   0.412  0.0647 -0.0591  0.4856
  490SOL    HW1 1958   1.443   2.181   0.380  0.6783 -0.0270 -0.7368
  490SOL    HW2 1959   1.299   2.132   0.407 -1.0075  3.2045 -0.5747
  490SOL     MW 1960   1.387   2.119   0.407  0.0042  0.3758  0.1844
  491SOL     OW 1961   1.226   2.957   0.404 -0.3299  0.1134  0.2082
  491SOL    HW1 1962   1.252   3.007   0.480  0.4628 -0.5451  0.8525
  491SOL    HW2 1963   1.160   3.021   0.372  2.1308 -0.4226 -1.0812
  491SOL     MW 1964   1.221   2.972   0.410  0.0994 -0.0442  0.1231
  492SOL     OW 1965   1.471   2.151   0.689 -0.1963  0.2708 -0.2268
  492SOL    HW1 1966   1.444   2.119   0.598  0.9506 -0.6778 -1.6518
  492SOL    HW2 1967   1.427   2.104   0.762 -0.3477 -0.1098 -0.3702
  492SOL     MW 1968   1.461   2.141   0.687 -0.0649  0.0954 -0.4337
  493SOL     OW 1969   0.171   2.955   0.431  0.1914 -0.4010  0.7205
  493SOL    HW1 1970   0.099   2.992   0.488  0.9398 -1.1892  1.6657
  493SOL    HW2 1971   0.160   2.988   0.338  0.2465 -1.4836 -0.5157
  493SOL     MW 1972   0.160   2.965   0.426  0.2975 -0.6478  0.6821
  494SOL     OW 1973   0.410   2.402   1.796  0.5854  0.1145 -0.3098
  494SOL    HW1 1974   0.389   2.306   1.818  0.9417 -2.1636  1.3036
  494SOL    HW2 1975   0.463   2.400   1.723 -1.1299  1.5388  0.7704
  494SOL     MW 1976   0.414   2.389   1.789  0.4061  0.0018  0.0456
  495SOL     OW 1977   2.914   1.648   2.728  0.1555 -0.2862  0.2593
  495SOL    HW1 1978   2.878   1.719   2.776  2.1341 -1.5344 -0.0036
  495SOL    HW2 1979   2.910   1.570   2.783  0.4181  1.0699  1.6270
  495SOL     MW 1980   2.909   1.647   2.742  0.4512 -0.2719  0.4051
  496SOL     OW 1981   2.801   2.291   2.668  0.0741  0.0180 -0.9164
  496SOL    HW1 1982   2.824   2.205   2.699 -1.4119  1.5241  0.6002
  496SOL    HW2 1983   2.882   2.343   2.684  1.8317 -0.0368 -0.1532
  496SOL     MW 1984   2.814   2.287   2.674  0.1099  0.2095 -0.6156
  497SOL     OW 1985   1.488   2.306   2.500 -0.0550 -0.1563 -0.4516
  497SOL    HW1 1986   1.490   2.235   2.430 -0.0688  0.2739 -1.2201
  497SOL    HW2 1987   1.471   2.259   2.581  0.5435 -2.5587  2.1052
  497SOL     MW 1988   1.486   2.290   2.502  0.0221 -0.4165 -0.2157
  498SOL     OW 1989   1.575   2.753   2.236  0.3388 -0.0097 -0.8960
  498SOL    HW1 1990   1.590   2.663   2.200 -0.7148 -1.3300 -1.7547
  498SOL    HW2 1991   1.624   2.749   2.324  0.9346 -0.3113  0.3085
  498SOL     MW 1992   1.583   2.740   2.243  0.2784 -0.2237 -0.8504
  499SOL     OW 1993   0.905   0.142   0.020  0.0637 -0.0130  0.0423
  499SOL    HW1 1994   0.858   0.156   0.101 -1.6347 -0.3650  0.2214
  499SOL    HW2 1995   0.880   0.056  -0.007 -1.4414 -1.3269 -0.4250
  499SOL     MW 1996   0.896   0.132   0.027 -0.3590 -0.2328  0.0042
  500SOL     OW 1997   1.028   2.466   2.758  0.1073 -0.0809  0.2469
  500SOL    HW1 1998   1.072   2.463   2.843 -0.5571  0.3407 -0.4092
  500SOL    HW2 1999   0.970   2.538   2.784 -0.0796 -1.1745  0.1850
  500SOL     MW 2000   1.026   2.475   2.773 -0.0050 -0.1695  0.1521
  501SOL     OW 2001   1.726   2.224   0.012 -0.3468  0.3318 -0.5315
  501SOL    HW1 2002   1.698   2.318   0.018  0.3765  0.2276  0.7368
  501SOL    HW2 2003   1.821   2.227   0.036 -0.8899  0.9581  1.5696
  501SOL     MW 2004   1.735   2.237   0.016 -0.3230  0.4007 -0.0870
  502SOL     OW 2005   0.166   2.779   2.926 -0.3920  0.5265 -0.6662
  502SOL    HW1 2006   0.081   2.735   2.924  0.2580 -0.9208 -2.1011
  502SOL    HW2 2007   0.163   2.859   2.875 -1.6559  1.7900  2.0560
  502SOL     MW 2008   0.154   2.784   2.919 -0.4730  0.5023 -0.4963
  503SOL     OW 2009   1.158   2.605   2.095  0.1262  0.0518  0.0310
  503SOL    HW1 2010   1.217   2.571   2.027  1.6389 -3.2967 -0.3686
  503SOL    HW2 2011   1.082   2.640   2.046 -1.5432  0.9658  1.6449
  503SOL     MW 2012   1.156   2.605   2.080  0.1056 -0.2694  0.1912
  504SOL     OW 2013   0.089   2.638   2.076 -0.0116  0.2586  0.0127
  504SOL    HW1 2014   0.171   2.598   2.051  1.0650  0.7600 -0.2409
  504SOL    HW2 2015   0.036   2.571   2.117  0.4163  2.3649  0.5013
  504SOL     MW 2016   0.093   2.624   2.078  0.1869  0.6027  0.0437
  505SOL     OW 2017   1.648   2.664   2.720  0.3169  0.2256  0.5720
  505SOL    HW1 2018   1.688   2.698   2.631  0.5316  1.7482 -0.9980
  505SOL    HW2 2019   1.585   2.736   2.742  4.2005 -1.1980  3.3751
  505SOL     MW 2020   1.645   2.678   2.711  0.8576  0.2387  0.7347
  506SOL     OW 2021   1.594   0.026   2.866 -0.4548  0.0712  0.0062
  506SOL    HW1 2022   1.621  -0.029   2.937  0.4455 -1.5225  1.3709
  506SOL    HW2 2023   1.667   0.012   2.808  1.1519  0.3696  1.0324
  506SOL     MW 2024   1.607   0.017   2.868 -0.1240 -0.0997  0.3217
  507SOL     OW 2025   0.883   2.677   2.846 -0.0656  0.0123 -0.1762
  507SOL    HW1 2026   0.878   2.752   2.782 -1.9131  1.0907  0.3856
  507SOL    HW2 2027   0.807   2.676   2.900  1.9491 -1.6001  1.3217
  507SOL     MW 2028   0.872   2.686   2.844 -0.0435 -0.0582  0.0956
  508SOL     OW 2029   1.195   2.110   2.561  1.0326  0.3314 -0.2511
  508SOL    HW1 2030   1.264   2.150   2.606  1.1430  0.4620  0.9753
  508SOL    HW2 2031   1.108   2.148   2.598  0.4587  0.1447 -2.4489
  508SOL     MW 2032   1.192   2.120   2.572  0.9715  0.3240 -0.3793
  509SOL     OW 2033   0.586   2.586   2.819  0.0086  0.7659  0.1452
  509SOL    HW1 2034   0.597   2.535   2.740 -0.8055  1.2454 -1.1560
  509SOL    HW2 2035   0.567   2.676   2.795 -0.4748 -1.3947 -1.2567
  509SOL     MW 2036   0.585   2.592   2.806 -0.1626  0.5441 -0.2115
  510SOL     OW 2037   1.496   2.598   1.673  0.5195  0.0296 -0.4663
  510SOL    HW1 2038   1.509   2.695   1.639 -0.8806  2.6001  0.8137
  510SOL    HW2 2039   1.434   2.598   1.746 -1.8488 -0.1332  0.3589
  510SOL     MW 2040   1.490   2.611   1.678  0.0223  0.3473 -0.1885
  511SOL     OW 2041   0.323   2.557   2.540 -0.0996  0.2037  0.1737
  511SOL    HW1 2042   0.407   2.520   2.586  1.7312  2.2305  0.3248
  511SOL    HW2 2043   0.330   2.533   2.446 -1.1974  0.2401  0.5069
  511SOL     MW 2044   0.335   2.549   2.534 -0.0029  0.4759  0.2376
  512SOL     OW 2045   1.011   2.016   2.882 -0.4378  0.1252  0.5012
  512SOL    HW1 2046   0.945   2.074   2.922 -2.9735 -2.3782  1.0452
  512SOL    HW2 2047   1.036   1.948   2.947  0.4360 -1.1575 -1.6964
  512SOL     MW 2048   1.006   2.015   2.896 -0.6570 -0.3743  0.2830
  513SOL     OW 2049   1.653   2.514   2.185  0.4811 -0.7892 -0.0462
  513SOL    HW1 2050   1.735   2.533   2.117  2.9114 -1.2645 -1.3365
  513SOL    HW2 2051   1.689   2.498   2.270 -1.8497 -2.6995 -0.3246
  513SOL     MW 2052   1.669   2.515   2.187  0.4942 -1.1039 -0.2532
  514SOL     OW 2053   0.188   2.346   2.658  0.3087  0.0323 -0.2214
  514SOL    HW1 2054   0.215   2.436   2.622  1.4323  2.6198  3.1813
  514SOL    HW2 2055   0.245   2.331   2.732  1.7149 -0.2718 -1.6391
  514SOL     MW 2056   0.199   2.356   2.663  0.6425  0.3336  0.0405
  515SOL     OW 2057   1.075   1.987   1.890  0.0836  0.9871  0.7257
  515SOL    HW1 2058   1.032   2.068   1.895  1.1977 -1.9359  1.2370
  515SOL    HW2 2059   1.138   1.984   1.969 -0.0607  4.0008  1.9651
  515SOL     MW 2060   1.078   1.997   1.901  0.2115  0.9991  0.9567
  516SOL     OW 2061   1.393   2.535   2.945 -0.3062 -0.3694  0.1095
  516SOL    HW1 2062   1.409   2.516   2.850  1.2212 -0.6950 -1.2241
  516SOL    HW2 2063   1.304   2.501   2.969 -0.4298  1.6380  1.9834
  516SOL     MW 2064   1.384   2.528   2.936 -0.1210 -0.1475  0.1808
  517SOL     OW 2065   0.614   2.371   2.278 -0.1263  0.1751 -0.2311
  517SOL    HW1 2066   0.538   2.425   2.312  2.0381  3.1027  0.8960
  517SOL    HW2 2067   0.574   2.305   2.228  3.2868 -1.7512 -0.2085
  517SOL     MW 2068   0.599   2.370   2.276  0.6096  0.3072 -0.0794
  518SOL     OW 2069   1.770   0.019   3.069 -0.1468 -0.0672  0.2621
  518SOL    HW1 2070   1.776   0.075   3.144 -0.7362 -3.2936 -0.4142
  518SOL    HW2 2071   1.727  -0.056   3.109  2.5659  1.1340  2.0044
  518SOL     MW 2072   1.765   0.017   3.084  0.1334 -0.3344  0.4027
  519SOL     OW 2073   0.722   2.525   1.765 -0.0246  0.4996 -0.5104
  519SOL    HW1 2074   0.718   2.430   1.769 -2.3618 -1.8611  1.5082
  519SOL    HW2 2075   0.633   2.547   1.747  1.0487  0.5722 -0.5502
  519SOL     MW 2076   0.710   2.516   1.763 -0.1913  0.1977 -0.2493
  520SOL     OW 2077   1.219   2.197   2.945  0.1582 -0.0091  0.0356
  520SOL    HW1 2078   1.142   2.134   2.920 -0.6955 -0.0541 -0.3898
  520SOL    HW2 2079   1.276   2.158   3.018 -0.5184  0.5238  0.0843
  520SOL     MW 2080   1.216   2.184   2.951 -0.0437  0.0553 -0.0141
  521SOL     OW 2081   1.768   2.061   2.216 -0.2081  0.0757  0.6768
  521SOL    HW1 2082   1.769   2.055   2.121  1.6014 -0.0512  1.4240
  521SOL    HW2 2083   1.767   1.967   2.252  0.9597 -0.4192 -0.4656
  521SOL     MW 2084   1.768   2.048   2.208  0.1847 -0.0063  0.6246
  522SOL     OW 2085   2.905   2.520   2.272  0.3874 -0.1663  0.1956
  522SOL    HW1 2086   2.993   2.487   2.280 -2.9428  0.8808 -0.8668
  522SOL    HW2 2087   2.911   2.612   2.295 -0.4001 -2.0676  0.2002
  522SOL     MW 2088   2.917   2.527   2.276 -0.1559 -0.2790  0.0561
  523SOL     OW 2089   0.890   1.506   2.145  0.4032 -0.0690 -0.0671
  523SOL    HW1 2090   0.856   1.569   2.079 -0.4645  0.0499 -1.8075
  523SOL    HW2 2091   0.921   1.441   2.083  1.8525  1.9381 -0.2884
  523SOL     MW 2092   0.890   1.505   2.128  0.4800  0.2115 -0.3259
  524SOL     OW 2093   0.582   2.341   2.955  0.3835  0.2532 -0.2937
  524SOL    HW1 2094   0.592   2.418   2.903  1.5543 -0.0090 -1.2603
  524SOL    HW2 2095   0.670   2.304   2.953 -2.9639  1.0896 -2.0207
  524SOL     MW 2096   0.595   2.346   2.948  0.0963  0.3290 -0.6491
  525SOL     OW 2097   0.467   2.187   2.114 -0.4079  0.1250 -0.2747
  525SOL    HW1 2098   0.452   2.108   2.159 -3.6582 -1.2283 -2.7232
  525SOL    HW2 2099   0.535   2.168   2.042 -2.5994  0.5118  0.2276
  525SOL     MW 2100   0.474   2.174   2.110 -1.1259 -0.0025 -0.5315
  526SOL     OW 2101   0.688   2.151   1.962  0.2860  0.3529  0.0547
  526SOL    HW1 2102   0.676   2.182   1.874  1.6660  1.9890 -2.3176
  526SOL    HW2 2103   0.772   2.197   1.993 -2.4402 -0.8733 -2.5167
  526SOL     MW 2104   0.698   2.161   1.954  0.1084  0.4070 -0.5976
  527SOL     OW 2105   1.296   1.931   2.053 -0.3165 -0.3845 -0.3687
  527SOL    HW1 2106   1.274   1.874   2.123 -1.4074  0.3638  1.7594
  527SOL    HW2 2107   1.327   1.886   1.979 -1.2445  0.3879  1.6807
  527SOL     MW 2108   1.297   1.918   2.052 -0.5828 -0.1839  0.1825
  528SOL     OW 2109   0.651   2.911   2.924 -0.1391 -0.1615  0.3510
  528SOL    HW1 2110   0.648   3.005   2.944 -0.1319  0.4548 -2.3918
  528SOL    HW2 2111   0.602   2.905   2.839 -2.3186  0.9116 -0.6914
  528SOL     MW 2112   0.644   2.923   2.915 -0.4257  0.0614 -0.1484
  529SOL     OW 2113   0.987   2.232   1.907 -0.1719  0.3209  0.7605
  529SOL    HW1 2114   1.038   2.263   1.984 -0.7473  3.0954 -2.0800
  529SOL    HW2 2115   1.032   2.279   1.838 -0.7086  0.3810  2.0204
  529SOL     MW 2116   0.999   2.242   1.908 -0.3186  0.6949  0.5519
  530SOL     OW 2117   1.127   2.450   3.043  0.5269  0.4950  0.3189
  530SOL    HW1 2118   1.070   2.430   3.119 -3.2823 -1.0832  0.4851
  530SOL    HW2 2119   1.166   2.363   3.026  0.3408  1.7811 -0.8416
  530SOL     MW 2120   1.125   2.436   3.050 -0.0002  0.4565  0.1877
  531SOL     OW 2121   0.895   1.868   2.648 -0.0985  0.2185  0.4939
  531SOL    HW1 2122   0.929   1.934   2.708  1.1723  3.5441 -3.1487
  531SOL    HW2 2123   0.855   1.792   2.690 -2.5424 -0.1584  1.8384
  531SOL     MW 2124   0.894   1.867   2.661 -0.2533  0.6076  0.1907
  532SOL     OW 2125   1.699   0.289   2.820 -0.1887  0.1189 -0.4120
  532SOL    HW1 2126   1.669   0.199   2.854  0.6134  0.6111 -0.0575
  532SOL    HW2 2127   1.768   0.311   2.885  1.6137 -0.0287 -0.6079
  532SOL     MW 2128   1.704   0.280   2.833  0.1549  0.1644 -0.3910
  533SOL     OW 2129   1.765   2.667   2.969 -0.0734 -0.3683 -0.4802
  533SOL    HW1 2130   1.734   2.589   3.024  1.4893 -2.1323  2.2512
  533SOL    HW2 2131   1.734   2.661   2.875 -1.9249 -3.9351 -0.8462
  533SOL     MW 2132   1.757   2.656   2.964 -0.1115 -1.0717 -0.1681
  534SOL     OW 2133   1.732   2.456   2.440  0.4512 -0.3786  0.9607
  534SOL    HW1 2134   1.655   2.404   2.447  1.0389  0.4612 -0.1491
  534SOL    HW2 2135   1.769   2.441   2.530 -2.9059 -0.9955 -0.6792
  534SOL     MW 2136   1.727   2.447   2.453  0.0858 -0.3492  0.5979
  535SOL     OW 2137   1.842   2.326   1.917 -0.4750  0.0467 -0.3914
  535SOL    HW1 2138   1.789   2.352   1.843  1.0091  1.3870  0.6353
  535SOL    HW2 2139   1.936   2.349   1.895  1.0975  0.2962 -0.0984
  535SOL     MW 2140   1.848   2.333   1.904 -0.0717  0.2564 -0.2173
  536SOL     OW 2141   0.450   1.788   2.002 -0.2184 -0.3412 -0.6750
  536SOL    HW1 2142   0.465   1.735   1.921  1.6557 -0.4463 -0.9318
  536SOL    HW2 2143   0.532   1.834   2.020  0.6894  0.4979 -1.5345
  536SOL     MW 2144   0.463   1.787   1.994  0.1487 -0.2443 -0.8223
  537SOL     OW 2145   1.074   0.204   2.899  0.1600 -0.3428 -0.1728
  537SOL    HW1 2146   1.010   0.194   2.969 -0.7056  1.7636 -2.0299
  537SOL    HW2 2147   1.079   0.301   2.870  0.4266  0.9327  0.9364
  537SOL     MW 2148   1.067   0.216   2.904  0.0810  0.1034 -0.2715
  538SOL     OW 2149   1.306   0.016   2.974  0.3124 -0.2824 -0.0737
  538SOL    HW1 2150   1.255   0.089   2.944  0.2269 -2.9549  2.0641
  538SOL    HW2 2151   1.396   0.045   2.967  1.4366  0.5040  0.0433
  538SOL     MW 2152   1.311   0.029   2.969  0.4495 -0.5312  0.2238
  539SOL     OW 2153   0.772   2.706   2.493  0.5061  0.6760  0.2460
  539SOL    HW1 2154   0.823   2.775   2.533  0.2843  1.9141  0.3149
  539SOL    HW2 2155   0.807   2.622   2.512 -1.9730  3.4224 -0.3273
  539SOL     MW 2156   0.784   2.704   2.501  0.1498  1.2017  0.1794
  540SOL     OW 2157   0.336   2.267   2.866  0.0445 -0.1071  0.2689
  540SOL    HW1 2158   0.425   2.268   2.897  1.5494 -0.4811 -2.6966
  540SOL    HW2 2159   0.275   2.235   2.933 -1.1128 -0.5353 -0.2555
  540SOL     MW 2160   0.340   2.263   2.879  0.0903 -0.2129 -0.1916
  541SOL     OW 2161   0.159   2.874   2.204 -0.2354  0.2561 -0.6992
  541SOL    HW1 2162   0.164   2.788   2.160  0.2891 -0.6722  0.1834
  541SOL    HW2 2163   0.198   2.859   2.294  0.9269  0.6265 -0.0003
  541SOL     MW 2164   0.165   2.861   2.210 -0.0128  0.1825 -0.4906
  542SOL     OW 2165   0.953   2.220   2.666  0.1471 -0.4074  0.0340
  542SOL    HW1 2166   0.889   2.177   2.716  2.1598 -0.0140 -4.4055
  542SOL    HW2 2167   0.976   2.299   2.716 -0.5009 -0.3303  2.7335
  542SOL     MW 2168   0.947   2.225   2.680  0.3271 -0.3453 -0.1956
  543SOL     OW 2169   1.422   2.524   2.671  0.5172 -0.4793  0.0614
  543SOL    HW1 2170   1.420   2.452   2.611  1.2416  0.9545  0.4328
  543SOL    HW2 2171   1.504   2.572   2.660  1.9027 -0.8750 -0.0736
  543SOL     MW 2172   1.433   2.521   2.662  0.7956 -0.3424  0.0926
  544SOL     OW 2173   0.585   0.217   2.725 -0.2347  0.0143  0.0344
  544SOL    HW1 2174   0.499   0.236   2.772 -2.5018  1.3721  1.6230
  544SOL    HW2 2175   0.551   0.160   2.657 -2.3671 -0.3247 -0.2447
  544SOL     MW 2176   0.569   0.212   2.722 -0.8152  0.1487  0.2071
  545SOL     OW 2177   1.507   2.148   2.271 -0.1766  0.4071 -1.0841
  545SOL    HW1 2178   1.460   2.144   2.186 -2.5472  0.2889 -1.7950
  545SOL    HW2 2179   1.601   2.119   2.258  2.0813  1.9655  1.7858
  545SOL     MW 2180   1.513   2.144   2.258 -0.1915  0.5971 -0.7992
  546SOL     OW 2181   2.983   1.997   0.104 -0.3819  0.2448 -0.1429
  546SOL    HW1 2182   2.972   2.076   0.057 -1.4402 -2.3925 -0.5114
  546SOL    HW2 2183   3.078   1.983   0.104 -1.8286 -1.1006  0.7470
  546SOL     MW 2184   2.994   2.005   0.098 -0.7124 -0.2807 -0.0741
  547SOL     OW 2185   0.197   3.003   0.123 -0.2493  0.3707  0.6815
  547SOL    HW1 2186   0.261   3.035   0.054  1.3611  1.5689 -0.5874
  547SOL    HW2 2187   0.207   2.908   0.116 -0.4898 -0.5402  0.9215
  547SOL     MW 2188   0.207   2.995   0.113 -0.0685  0.4086  0.5457
  548SOL     OW 2189   0.323   2.535   0.257 -0.1148 -0.1632  0.1503
  548SOL    HW1 2190   0.321   2.613   0.199  2.2891 -1.0796 -0.4818
  548SOL    HW2 2191   0.259   2.474   0.221  1.9059  1.0773  2.2214
  548SOL     MW 2192   0.314   2.537   0.245  0.4689 -0.1204  0.3402
  549SOL     OW 2193   0.710   1.909   2.073  0.0357 -0.2008  0.4609
  549SOL    HW1 2194   0.710   1.997   2.035  0.5052 -3.4264 -0.0361
  549SOL    HW2 2195   0.734   1.911   2.168  0.1805  1.5578 -0.2787
  549SOL     MW 2196   0.713   1.921   2.080  0.1168 -0.3944  0.2978
  550SOL     OW 2197   1.849   1.764   2.549  0.1312  0.4734 -0.7740
  550SOL    HW1 2198   1.835   1.774   2.454  1.4598 -0.9592  0.1402
  550SOL    HW2 2199   1.843   1.858   2.580 -0.6021 -0.1960 -1.1892
  550SOL     MW 2200   1.846   1.778   2.540  0.2097  0.1961 -0.7082
  551SOL     OW 2201   0.872   2.343   0.205  0.2101 -0.1392 -0.0858
  551SOL    HW1 2202   0.971   2.346   0.198 -0.7642 -2.3722  1.5807
  551SOL    HW2 2203   0.850   2.260   0.159 -0.3824 -1.8638  1.0322
  551SOL     MW 2204   0.882   2.333   0.198  0.0034 -0.6614  0.2816
  552SOL     OW 2205   1.781   1.801   2.286 -0.0753 -0.6416  0.4199
  552SOL    HW1 2206   1.693   1.752   2.287 -0.2015 -2.5240 -2.3056
  552SOL    HW2 2207   1.820   1.752   2.198  0.0852  1.4228 -0.7393
  552SOL     MW 2208   1.775   1.788   2.274 -0.0708 -0.6176 -0.0927
  553SOL     OW 2209   1.255   2.335   1.532 -0.0576 -0.1721 -0.0439
  553SOL    HW1 2210   1.268   2.240   1.518 -0.6503  1.4279  1.0237
  553SOL    HW2 2211   1.325   2.386   1.489 -1.2642  4.0235  1.4536
  553SOL     MW 2212   1.266   2.329   1.525 -0.2950  0.5925  0.2945
  554SOL     OW 2213   0.593   2.860   2.658  0.4044 -0.1731  0.1566
  554SOL    HW1 2214   0.555   2.926   2.596 -0.9129  1.7999 -1.5603
  554SOL    HW2 2215   0.638   2.790   2.604  1.4891 -0.5046 -0.7699
  554SOL     MW 2216   0.594   2.860   2.642  0.3737  0.0435 -0.1922
  555SOL     OW 2217   0.574   2.447   2.594  0.0289 -0.1000  0.0924
  555SOL    HW1 2218   0.551   2.354   2.598  2.3099 -0.9163 -4.2587
  555SOL    HW2 2219   0.637   2.450   2.521 -1.8033 -3.6448  2.8935
  555SOL     MW 2220   0.579   2.435   2.585  0.0881 -0.6754 -0.1121
  556SOL     OW 2221   0.957   1.793   0.163 -0.2415  0.1864 -0.1394
  556SOL    HW1 2222   0.967   1.799   0.068 -1.1382  1.3538  0.0332
  556SOL    HW2 2223   1.040   1.830   0.205  0.6162 -2.2865  1.7056
  556SOL     MW 2224   0.969   1.799   0.156 -0.2467  0.0142  0.1268
  557SOL     OW 2225   0.895   2.702   0.490  0.3825 -0.2483  0.5069
  557SOL    HW1 2226   0.942   2.673   0.409  0.5347 -3.0034  0.0004
  557SOL    HW2 2227   0.871   2.788   0.471 -0.7175 -1.3413  1.7316
  557SOL     MW 2228   0.898   2.710   0.477  0.2574 -0.7560  0.6017
  558SOL     OW 2229   0.267   2.185   0.061 -0.0516  0.5567 -0.0472
  558SOL    HW1 2230   0.228   2.100   0.036 -0.2109  0.9036  1.6444
  558SOL    HW2 2231   0.190   2.223   0.100  1.4862  1.2065  0.6008
  558SOL     MW 2232   0.252   2.179   0.063  0.1303  0.6882  0.2615
  559SOL     OW 2233   1.169   2.300   2.117 -0.6509 -0.1594 -0.2546
  559SOL    HW1 2234   1.160   2.382   2.170 -1.3051  0.5033 -0.4500
  559SOL    HW2 2235   1.168   2.230   2.179  2.6283 -2.8598 -1.1960
  559SOL     MW 2236   1.168   2.302   2.132 -0.3046 -0.4283 -0.4046
  560SOL     OW 2237   1.968   2.800   0.033 -0.3335  0.3665 -0.1781
  560SOL    HW1 2238   2.016   2.862  -0.014 -0.1929 -0.4371 -0.4684
  560SOL    HW2 2239   1.899   2.765  -0.021  0.3135 -1.1006  1.0132
  560SOL     MW 2240   1.965   2.804   0.020 -0.2296  0.0669 -0.0592
  561SOL     OW 2241   0.449   2.070   0.230  0.1014  0.1882  0.3320
  561SOL    HW1 2242   0.384   2.106   0.167 -1.6581  0.8764 -0.0198
  561SOL    HW2 2243   0.494   2.134   0.272 -2.4773 -1.8758 -0.6957
  561SOL     MW 2244   0.446   2.084   0.227 -0.4710  0.0067  0.1500
  562SOL     OW 2245   0.879   2.210   2.175 -0.4095  0.0846  0.1968
  562SOL    HW1 2246   0.891   2.306   2.183 -2.3732  0.6247  1.0020
  562SOL    HW2 2247   0.962   2.172   2.199 -2.3339  3.6694 -0.2798
  562SOL     MW 2248   0.891   2.217   2.179 -0.9225  0.6289  0.2401
  563SOL     OW 2249   1.196   0.295   0.584 -0.1997  0.0580  0.3564
  563SOL    HW1 2250   1.137   0.306   0.506 -1.8234 -2.0009 -0.6262
  563SOL    HW2 2251   1.215   0.199   0.591  1.9108 -0.8495 -0.2000
  563SOL     MW 2252   1.191   0.283   0.574 -0.1355 -0.3334  0.1534
  564SOL     OW 2253   1.104   2.553   2.364 -0.0668 -0.0665 -0.2982
  564SOL    HW1 2254   1.126   2.589   2.274 -0.5244 -0.6009 -0.1183
  564SOL    HW2 2255   1.155   2.602   2.434 -1.4957 -1.5174  0.5056
  564SOL     MW 2256   1.114   2.564   2.361 -0.3157 -0.3284 -0.1684
  565SOL     OW 2257   2.863   2.672   2.585  0.2059 -0.5603 -0.2982
  565SOL    HW1 2258   2.927   2.726   2.538  3.0207 -0.0572  3.1769
  565SOL    HW2 2259   2.774   2.669   2.538  2.8828 -0.5225  2.9079
  565SOL     MW 2260   2.859   2.679   2.573  0.9304 -0.4889  0.5833
  566SOL     OW 2261   2.240   1.888   2.385 -0.7616 -0.0969  0.2947
  566SOL    HW1 2262   2.225   1.869   2.292 -2.3168 -0.0189  0.9999
  566SOL    HW2 2263   2.296   1.969   2.390  0.4317  0.9482 -0.0244
  566SOL     MW 2264   2.245   1.897   2.373 -0.8093  0.0513  0.3456
  567SOL     OW 2265   1.125   2.910   0.029 -0.3899  0.4646 -0.5744
  567SOL    HW1 2266   1.202   2.966   0.049  0.9311  1.1870 -1.9066
  567SOL    HW2 2267   1.131   2.884  -0.062 -0.6199  0.2654 -0.8528
  567SOL     MW 2268   1.136   2.914   0.019 -0.2459  0.5336 -0.7869
  568SOL     OW 2269   1.630   2.034   2.921 -0.4535 -0.9180  0.3674
  568SOL    HW1 2270   1.676   2.108   2.964  0.2140 -1.6768 -0.4386
  568SOL    HW2 2271   1.707   2.005   2.864  1.4592  0.7236 -1.8937
  568SOL     MW 2272   1.646   2.040   2.919 -0.1131 -0.8015 -0.0372
  569SOL     OW 2273   0.224   2.212   2.435 -0.0395  0.1441  0.1151
  569SOL    HW1 2274   0.161   2.267   2.376 -0.2556  0.3932  0.1697
  569SOL    HW2 2275   0.225   2.262   2.517  1.5965  1.5841 -2.5590
  569SOL     MW 2276   0.216   2.226   2.438  0.1479  0.3670 -0.2306
  570SOL     OW 2277   1.463   0.455   0.488  0.2422  0.3626 -0.4788
  570SOL    HW1 2278   1.386   0.474   0.542 -1.8262 -1.2065  1.0031
  570SOL    HW2 2279   1.539   0.454   0.552 -0.1709 -3.2499  2.2156
  570SOL     MW 2280   1.463   0.457   0.503 -0.0852 -0.3211  0.0722
  571SOL     OW 2281   1.492   2.411   1.985  0.2126  0.3572  0.7044
  571SOL    HW1 2282   1.563   2.410   2.049  1.3750  1.4866 -2.6383
  571SOL    HW2 2283   1.450   2.323   1.991 -1.1252  0.3978  2.7875
  571SOL     MW 2284   1.496   2.399   1.995  0.1895  0.5116  0.5382
  572SOL     OW 2285   0.921   2.685   0.080 -0.3025 -0.1374 -0.3337
  572SOL    HW1 2286   0.955   2.693  -0.006 -1.3953  0.0856  0.6677
  572SOL    HW2 2287   0.845   2.629   0.078 -0.4245 -0.9923  2.8327
  572SOL     MW 2288   0.916   2.679   0.068 -0.4627 -0.2208  0.2162
  573SOL     OW 2289   1.155   2.370   0.214  0.4767 -0.2569  0.3853
  573SOL    HW1 2290   1.244   2.373   0.166 -3.5527 -0.1270  1.0272
  573SOL    HW2 2291   1.148   2.459   0.257  1.2358 -0.4840  0.7906
  573SOL     MW 2292   1.166   2.382   0.214  0.0452 -0.2697  0.5235
  574SOL     OW 2293   1.083   2.626   0.298 -0.5354 -0.3194  0.0953
  574SOL    HW1 2294   1.177   2.667   0.292  0.6326  1.4463 -0.1196
  574SOL    HW2 2295   1.036   2.650   0.216 -1.8396  0.2185  2.6697
  574SOL     MW 2296   1.089   2.635   0.286 -0.5534 -0.0154  0.4066
  575SOL     OW 2297   3.067   2.295   1.798  0.1134 -0.3587 -0.1916
  575SOL    HW1 2298   3.068   2.219   1.745  0.9203  0.9375  1.7789
  575SOL    HW2 2299   3.136   2.353   1.756 -0.1958  0.6551 -0.5869
  575SOL     MW 2300   3.076   2.293   1.785  0.1791 -0.0539  0.0162
  576SOL     OW 2301   2.825   1.825   2.042 -0.2209  0.2404 -0.4581
  576SOL    HW1 2302   2.831   1.914   2.006 -1.8675 -0.5998 -1.7615
  576SOL    HW2 2303   2.742   1.801   2.004 -0.2965  4.3562 -1.4122
  576SOL     MW 2304   2.815   1.834   2.032 -0.4481  0.6726 -0.7560
  577SOL     OW 2305   2.090   0.312   0.065 -0.2238 -0.0369  0.0895
  577SOL    HW1 2306   2.035   0.328  -0.015 -2.8449  0.5844  2.6738
  577SOL    HW2 2307   2.032   0.274   0.123  0.9205  2.9064  0.3506
  577SOL     MW 2308   2.075   0.309   0.062 -0.4187  0.4334  0.4649
  578SOL     OW 2309   1.988   2.020   2.468 -0.1948 -0.1345  0.5417
  578SOL    HW1 2310   1.925   2.007   2.400 -1.7543 -0.0805 -0.7547
  578SOL    HW2 2311   2.066   1.974   2.434 -1.4565 -0.7237  2.8394
  578SOL     MW 2312   1.990   2.012   2.455 -0.5670 -0.2052  0.6738
  579SOL     OW 2313   0.883   2.441   2.498  0.5397  0.4868 -0.1105
  579SOL    HW1 2314   0.914   2.375   2.560 -0.8185 -1.3203 -0.8155
  579SOL    HW2 2315   0.969   2.474   2.465 -0.1652  1.3233 -0.1281
  579SOL     MW 2316   0.898   2.437   2.502  0.2675  0.3587 -0.2059
  580SOL     OW 2317   0.851   2.976   0.051  0.0868  0.1862  0.2307
  580SOL    HW1 2318   0.933   2.916   0.067  1.9987 -0.3556 -0.7720
  580SOL    HW2 2319   0.805   2.922  -0.013 -3.0097 -0.5995 -0.0828
  580SOL     MW 2320   0.856   2.961   0.045 -0.0695  0.0111  0.0570
  581SOL     OW 2321   1.094   2.429   1.716  0.8618 -0.3762  0.3806
  581SOL    HW1 2322   1.154   2.445   1.787  1.5412  1.7254 -0.4595
  581SOL    HW2 2323   1.151   2.392   1.647 -2.6424  0.4773 -0.7885
  581SOL     MW 2324   1.109   2.427   1.716  0.4891  0.0137  0.1155
  582SOL     OW 2325   3.085   2.815   2.503 -0.3767 -0.1567 -0.0591
  582SOL    HW1 2326   3.077   2.889   2.572  1.8690  1.2365  2.3987
  582SOL    HW2 2327   3.179   2.808   2.476 -2.4435 -0.6773 -0.0171
  582SOL     MW 2328   3.097   2.824   2.509 -0.3531 -0.0416  0.2707
  583SOL     OW 2329   1.949   2.442   2.640 -0.1171 -0.1639  0.2085
  583SOL    HW1 2330   2.023   2.476   2.588 -0.4316 -0.3168 -0.0832
  583SOL    HW2 2331   1.969   2.346   2.666 -0.1441 -1.0901 -3.6708
  583SOL     MW 2332   1.961   2.434   2.637 -0.1622 -0.3063 -0.3418
  584SOL     OW 2333   0.198   1.895   2.061 -0.1826  0.1696 -0.3652
  584SOL    HW1 2334   0.268   1.837   2.032 -0.6575 -3.8773 -0.4153
  584SOL    HW2 2335   0.244   1.945   2.129  0.4017 -0.3386 -2.7837
  584SOL     MW 2336   0.213   1.894   2.066 -0.1682 -0.4314 -0.6909
  585SOL     OW 2337   1.480   2.679   0.058 -0.4042  0.2996  0.1807
  585SOL    HW1 2338   1.449   2.640  -0.023  1.0192 -4.6260 -1.2227
  585SOL    HW2 2339   1.404   2.698   0.119 -2.3539  0.5084 -0.0129
  585SOL     MW 2340   1.466   2.677   0.055 -0.4736 -0.3227 -0.0300
  586SOL     OW 2341   1.362   2.841   2.383  0.4576 -0.1709  0.4974
  586SOL    HW1 2342   1.435   2.818   2.327  1.2651 -0.7229  1.2976
  586SOL    HW2 2343   1.397   2.920   2.431 -0.5090 -1.3183 -0.5547
  586SOL     MW 2344   1.377   2.848   2.382  0.4366 -0.3951  0.4642
  587SOL     OW 2345   1.283   1.567   2.132  0.2147 -0.3927  0.5042
  587SOL    HW1 2346   1.279   1.500   2.206 -0.1433 -1.3657 -0.3466
  587SOL    HW2 2347   1.235   1.521   2.059 -1.0240 -0.5279 -2.4111
  587SOL     MW 2348   1.276   1.552   2.132  0.0040 -0.5389  0.0073
  588SOL     OW 2349   1.415   2.173   2.734  0.0246  0.2537  0.1775
  588SOL    HW1 2350   1.445   2.099   2.786 -2.9545 -0.6682  0.0304
  588SOL    HW2 2351   1.354   2.212   2.793  0.0335 -3.9361  1.0249
  588SOL     MW 2352   1.411   2.168   2.748 -0.3673 -0.4207  0.2699
  589SOL     OW 2353   1.371   2.113   0.058 -0.0043  0.2938  0.0394
  589SOL    HW1 2354   1.398   2.196   0.098  0.0627 -1.2262  0.7397
  589SOL    HW2 2355   1.332   2.063   0.131 -3.5670  1.5082 -0.0200
  589SOL     MW 2356   1.369   2.117   0.073 -0.4656  0.2535  0.1240
  590SOL     OW 2357   0.421   2.553   2.286  0.1572 -0.3827  0.2080
  590SOL    HW1 2358   0.405   2.536   2.189  1.4060  1.5213 -0.6252
  590SOL    HW2 2359   0.460   2.640   2.279 -1.3311  0.0552  0.2945
  590SOL     MW 2360   0.424   2.562   2.272  0.1256 -0.0737  0.1095
  591SOL     OW 2361   2.291   0.697   0.023  0.0906 -0.1174 -0.2149
  591SOL    HW1 2362   2.233   0.749  -0.028  1.9623 -0.7449  1.6488
  591SOL    HW2 2363   2.378   0.718  -0.002 -2.8373 -0.6357 -1.9151
  591SOL     MW 2364   2.295   0.706   0.013 -0.0488 -0.2686 -0.1933
  592SOL     OW 2365   1.874   3.018   0.777  0.0114 -0.7099 -0.2250
  592SOL    HW1 2366   1.847   3.061   0.694 -2.7162 -0.6529  1.7371
  592SOL    HW2 2367   1.910   2.928   0.757 -1.6214 -0.9380  0.5080
  592SOL     MW 2368   1.875   3.012   0.764 -0.5639 -0.7325  0.1306
  593SOL     OW 2369   1.899   0.767   0.859  0.2787  0.2095 -0.1175
  593SOL    HW1 2370   1.830   0.767   0.796  1.9541 -0.6077  0.4397
  593SOL    HW2 2371   1.917   0.678   0.894  1.8315  0.0978  0.8962
  593SOL     MW 2372   1.892   0.755   0.855  0.7046  0.0869  0.0898
  594SOL     OW 2373   2.758   1.134   1.380  0.7714  0.2129  0.4840
  594SOL    HW1 2374   2.851   1.154   1.404  0.4518  2.5627 -1.6796
  594SOL    HW2 2375   2.767   1.093   1.294 -0.6736  2.3270 -0.0079
  594SOL     MW 2376   2.771   1.131   1.371  0.5386  0.8018  0.1336
  595SOL     OW 2377   0.485   0.932   0.712  0.0169 -0.3891  0.7785
  595SOL    HW1 2378   0.490   1.008   0.651 -0.8912  1.5744  0.0711
  595SOL    HW2 2379   0.508   0.973   0.798  1.5927  0.0248  0.5606
  595SOL     MW 2380   0.489   0.948   0.716  0.1050 -0.0754  0.6564
  596SOL     OW 2381   2.455   1.394   0.529  0.2030 -0.3544 -0.3652
  596SOL    HW1 2382   2.484   1.477   0.485 -2.7331 -2.5149  0.7733
  596SOL    HW2 2383   2.514   1.373   0.603  0.6258 -1.0249 -1.5593
  596SOL     MW 2384   2.467   1.402   0.533 -0.1286 -0.7279 -0.3725
  597SOL     OW 2385   2.190   0.666   1.653 -0.3657  0.3461 -0.6305
  597SOL    HW1 2386   2.251   0.604   1.701  1.0557  0.4210 -3.3665
  597SOL    HW2 2387   2.115   0.609   1.627 -1.2512  0.3183 -0.3773
  597SOL     MW 2388   2.188   0.651   1.656 -0.2950  0.3523 -0.9581
  598SOL     OW 2389   2.628   1.006   2.876 -0.3971 -0.0127  1.1251
  598SOL    HW1 2390   2.675   0.981   2.787 -0.4403  2.6755  0.4145
  598SOL    HW2 2391   2.699   1.065   2.918  0.6979  1.1970  0.6245
  598SOL     MW 2392   2.643   1.010   2.870 -0.2583  0.5016  0.9653
  599SOL     OW 2393   2.936   0.350   2.078 -0.1660  0.6663 -0.0037
  599SOL    HW1 2394   2.906   0.393   2.161  0.4485 -0.3333 -0.8909
  599SOL    HW2 2395   2.976   0.429   2.034 -0.4170  1.7457  0.1012
  599SOL     MW 2396   2.937   0.366   2.083 -0.1181  0.6768 -0.1069
  600SOL     OW 2397   1.899   1.750   0.889 -0.1086  0.4573 -0.0102
  600SOL    HW1 2398   1.916   1.785   0.978 -0.1801  0.8225  1.6130
  600SOL    HW2 2399   1.809   1.784   0.865  1.3237  2.1711  0.9938
  600SOL     MW 2400   1.889   1.759   0.898  0.0709  0.7316  0.3364
  601SOL     OW 2401   2.507   0.802   0.814  0.2425 -0.1913  0.1507
  601SOL    HW1 2402   2.508   0.837   0.904  1.2992  1.8593 -0.6699
  601SOL    HW2 2403   2.442   0.725   0.803  1.0432 -1.5061  0.3511
  601SOL     MW 2404   2.499   0.797   0.824  0.4876 -0.0942  0.0689
  602SOL     OW 2405   2.318   1.951   0.818 -0.6064 -0.1058  0.5763
  602SOL    HW1 2406   2.267   1.875   0.859 -0.4269 -1.0559  1.7347
  602SOL    HW2 2407   2.262   1.984   0.753  0.5590 -2.0746 -0.1899
  602SOL     MW 2408   2.304   1.945   0.815 -0.4290 -0.4909  0.6281
  603SOL     OW 2409   3.097   1.386   1.781  0.5166 -0.0301 -0.1056
  603SOL    HW1 2410   3.097   1.432   1.868  0.1297 -1.6370  2.6087
  603SOL    HW2 2411   3.082   1.293   1.791 -0.1796  1.8686 -0.5265
  603SOL     MW 2412   3.095   1.380   1.794  0.3737  0.0084  0.1970
  604SOL     OW 2413   2.101   1.577   0.461 -0.2772 -0.2460  0.1523
  604SOL    HW1 2414   2.117   1.495   0.503  0.4859  1.5325  0.4441
  604SOL    HW2 2415   2.045   1.613   0.534  0.8899 -2.4283 -1.5249
  604SOL     MW 2416   2.096   1.571   0.476 -0.0225 -0.2993 -0.0305
  605SOL     OW 2417   2.663   1.543   0.847 -0.5974  0.0435  0.1500
  605SOL    HW1 2418   2.606   1.603   0.798 -0.1833 -0.9555  0.2812
  605SOL    HW2 2419   2.645   1.454   0.813  0.9766 -3.0568  2.8148
  605SOL     MW 2420   2.653   1.539   0.836 -0.3351 -0.4974  0.5189
  606SOL     OW 2421   2.570   1.811   1.847  0.1254  0.4423  0.6400
  606SOL    HW1 2422   2.475   1.813   1.859  0.6108 -0.2901  1.0153
  606SOL    HW2 2423   2.597   1.727   1.802  1.0214 -0.3337  1.0952
  606SOL     MW 2424   2.561   1.800   1.842  0.3076  0.2433  0.7496
  607SOL     OW 2425   2.379   1.014   2.994  0.1502  0.2256  0.6654
  607SOL    HW1 2426   2.464   1.015   2.951 -1.0904  0.6719  2.5751
  607SOL    HW2 2427   2.397   1.030   3.092  2.0204  1.6162 -0.5299
  607SOL     MW 2428   2.392   1.017   3.001  0.2333  0.4680  0.7597
  608SOL     OW 2429   1.894   0.314   0.583  0.7508 -0.1518  0.3763
  608SOL    HW1 2430   1.919   0.339   0.493  1.0356 -0.0672 -0.3719
  608SOL    HW2 2431   1.835   0.233   0.587  2.0426  1.0088  0.1471
  608SOL     MW 2432   1.889   0.307   0.571  0.9588  0.0125  0.2473
  609SOL     OW 2433   2.127   1.966   3.049 -0.3381 -0.0205 -0.1548
  609SOL    HW1 2434   2.035   1.942   3.068 -0.6106  0.1267 -0.8771
  609SOL    HW2 2435   2.169   1.952   3.137 -1.5340 -1.8610 -0.6432
  609SOL     MW 2436   2.121   1.961   3.063 -0.5319 -0.2439 -0.3145
  610SOL     OW 2437   1.771   1.023   1.239  0.6174  0.0442 -0.0135
  610SOL    HW1 2438   1.790   0.945   1.188 -1.9682  1.1892 -0.4021
  610SOL    HW2 2439   1.682   1.003   1.251 -1.2793  2.1988  0.4541
  610SOL     MW 2440   1.762   1.010   1.234  0.0260  0.4796 -0.0031
  611SOL     OW 2441   2.484   1.692   0.713  0.3467  0.4452 -0.2788
  611SOL    HW1 2442   2.439   1.755   0.772 -1.0883  1.3580 -2.4660
  611SOL    HW2 2443   2.456   1.741   0.632  1.1698  2.6319 -1.2206
  611SOL     MW 2444   2.474   1.707   0.710  0.2659  0.8541 -0.6916
  612SOL     OW 2445   2.799   2.823   0.412  0.4121  0.1216 -0.5240
  612SOL    HW1 2446   2.834   2.860   0.494 -2.2653  0.3665  0.6073
  612SOL    HW2 2447   2.875   2.824   0.357  0.0998  1.7045  0.0272
  612SOL     MW 2448   2.814   2.828   0.415  0.0177  0.3627 -0.3020
  613SOL     OW 2449   1.487   0.994   0.973 -0.0932 -0.6337  0.0498
  613SOL    HW1 2450   1.488   1.091   0.987 -2.9569  0.3983  0.0508
  613SOL    HW2 2451   1.469   0.959   1.065 -1.1611 -0.3502 -0.5248
  613SOL     MW 2452   1.485   1.002   0.987 -0.6119 -0.4601 -0.0259
  614SOL     OW 2453   1.983   0.539   1.532 -0.3231  0.3290 -0.6807
  614SOL    HW1 2454   1.995   0.463   1.592  2.4282 -0.9474  0.7889
  614SOL    HW2 2455   1.989   0.514   1.439 -1.2338 -1.2426 -1.3479
  614SOL     MW 2456   1.985   0.526   1.528 -0.0803 -0.0467 -0.5749
  615SOL     OW 2457   2.291   0.759   0.289  0.5376 -0.8150 -0.1844
  615SOL    HW1 2458   2.371   0.730   0.331 -0.3753 -0.3314 -0.3337
  615SOL    HW2 2459   2.286   0.723   0.198 -0.2854  0.8737 -1.9356
  615SOL     MW 2460   2.301   0.750   0.282  0.3085 -0.5284 -0.4352
  616SOL     OW 2461   2.531   0.368   1.580 -0.4426  0.0222 -0.3756
  616SOL    HW1 2462   2.482   0.316   1.512  1.9432  0.6327 -0.6762
  616SOL    HW2 2463   2.560   0.435   1.519  1.1875 -1.5898 -0.2323
  616SOL     MW 2464   2.528   0.370   1.563  0.0873 -0.1100 -0.3964
  617SOL     OW 2465   2.904   0.559   1.729  0.7883  0.4362  0.2557
  617SOL    HW1 2466   2.825   0.577   1.786 -0.0265  1.4033 -1.1541
  617SOL    HW2 2467   2.902   0.463   1.712  2.5582  0.6240  3.1705
  617SOL     MW 2468   2.893   0.549   1.734  0.9143  0.5886  0.4543
  618SOL     OW 2469   2.653   0.326   1.979 -0.0685 -0.1799  0.1611
  618SOL    HW1 2470   2.637   0.417   1.967 -0.0055 -0.6053 -0.2549
  618SOL    HW2 2471   2.749   0.320   2.008  1.2391  0.3430 -0.8437
  618SOL     MW 2472   2.664   0.337   1.981  0.1124 -0.1671 -0.0264
  619SOL     OW 2473   2.656   0.716   0.143  0.1470 -0.6525 -0.3009
  619SOL    HW1 2474   2.696   0.797   0.173 -0.1741 -1.1487 -2.6642
  619SOL    HW2 2475   2.608   0.686   0.218  2.3607  1.7826  2.5606
  619SOL     MW 2476   2.655   0.723   0.157  0.3967 -0.3967 -0.2351
  620SOL     OW 2477   2.330   1.051   1.003 -0.1550  0.1385  0.3729
  620SOL    HW1 2478   2.416   1.063   0.962  0.1047 -0.5788 -1.9371
  620SOL    HW2 2479   2.288   0.993   0.939 -1.4510 -1.7258  1.0615
  620SOL     MW 2480   2.336   1.045   0.989 -0.2917 -0.2021  0.1590
  621SOL     OW 2481   1.449   2.134   2.005 -0.2902  0.6651  0.1508
  621SOL    HW1 2482   1.395   2.056   2.015  2.6593 -1.1323 -2.6068
  621SOL    HW2 2483   1.537   2.104   1.991  1.7803  1.6243 -0.9916
  621SOL     MW 2484   1.454   2.120   2.005  0.3721  0.5545 -0.3638
  622SOL     OW 2485   2.617   0.158   0.277 -0.4315  0.1565  0.0940
  622SOL    HW1 2486   2.705   0.180   0.301  0.2213 -0.7750 -0.8357
  622SOL    HW2 2487   2.626   0.064   0.285 -0.8892 -1.6119  0.5063
  622SOL     MW 2488   2.630   0.148   0.281 -0.4057 -0.1997  0.0258
  623SOL     OW 2489   2.340   2.762   0.900  0.3330  0.3379 -0.5356
  623SOL    HW1 2490   2.411   2.828   0.901  1.4480  1.4355  0.2782
  623SOL    HW2 2491   2.276   2.792   0.969  1.5663  0.3941  0.5134
  623SOL     MW 2492   2.341   2.775   0.909  0.6428  0.4902 -0.2898
  624SOL     OW 2493   2.202   1.679   2.995 -0.0415 -0.0603  0.2040
  624SOL    HW1 2494   2.128   1.624   3.030 -0.4324 -0.8393  2.6789
  624SOL    HW2 2495   2.152   1.763   2.986 -0.6222  3.4247 -2.8445
  624SOL     MW 2496   2.186   1.683   2.998 -0.1697  0.2967  0.1283
  625SOL     OW 2497   2.207   2.026   1.120 -0.2980  0.3734 -0.0622
  625SOL    HW1 2498   2.273   1.972   1.081  0.0576 -1.2700 -1.5092
  625SOL    HW2 2499   2.224   2.120   1.099  1.9836 -0.9547 -1.1055
  625SOL     MW 2500   2.218   2.032   1.112  0.0500 -0.0186 -0.3907
  626SOL     OW 2501   0.211   1.601   2.352 -0.4776 -1.3158 -0.1919
  626SOL    HW1 2502   0.219   1.505   2.338  1.1549  0.5448  1.4725
  626SOL    HW2 2503   0.128   1.625   2.398 -3.3020 -0.0560 -1.6110
  626SOL     MW 2504   0.201   1.591   2.356 -0.6348 -0.9041 -0.1595
  627SOL     OW 2505   2.473   0.808   2.640 -0.0870 -0.1037  0.3236
  627SOL    HW1 2506   2.429   0.892   2.622  1.2301  0.5833 -1.6227
  627SOL    HW2 2507   2.427   0.738   2.589 -2.4231 -2.1024  0.1679
  627SOL     MW 2508   2.461   0.810   2.631 -0.2214 -0.2768  0.0463
  628SOL     OW 2509   2.238   1.342   1.375  0.0348 -0.1220  0.8143
  628SOL    HW1 2510   2.204   1.286   1.307 -1.6280 -0.5190 -0.2723
  628SOL    HW2 2511   2.332   1.327   1.361 -2.0829  1.3587 -1.2842
  628SOL     MW 2512   2.246   1.333   1.364 -0.4640  0.0210  0.3940
  629SOL     OW 2513   1.957   0.565   1.241 -0.2162 -0.4979 -0.0767
  629SOL    HW1 2514   1.985   0.655   1.217  0.1720  0.2950 -0.6359
  629SOL    HW2 2515   1.865   0.576   1.261  0.9653  1.2742 -1.8622
  629SOL     MW 2516   1.949   0.579   1.240 -0.0091 -0.1595 -0.3861
  630SOL     OW 2517   2.448   1.828   3.064 -0.5799 -0.2648  0.4008
  630SOL    HW1 2518   2.457   1.866   2.974 -0.0162  0.1442 -1.1831
  630SOL    HW2 2519   2.356   1.801   3.082  1.7039 -0.0319 -1.4804
  630SOL     MW 2520   2.437   1.829   3.054 -0.2042 -0.1801 -0.0564
  631SOL     OW 2521   1.974   1.821   1.567 -0.4344 -0.0538 -0.1870
  631SOL    HW1 2522   2.005   1.739   1.609  1.7810 -0.3044  0.3242
  631SOL    HW2 2523   1.979   1.802   1.473 -0.0079 -1.0811  1.0407
  631SOL     MW 2524   1.979   1.807   1.561 -0.0859 -0.2224  0.0425
  632SOL     OW 2525   0.081   2.050   1.471  0.4533 -0.9074  0.2448
  632SOL    HW1 2526   0.024   2.055   1.546 -0.9662  1.9828 -0.4412
  632SOL    HW2 2527   0.129   1.970   1.485 -0.0643  2.6964 -1.8260
  632SOL     MW 2528   0.079   2.040   1.483  0.1977 -0.0506 -0.1190
  633SOL     OW 2529   2.535   0.645   0.387  0.5790 -0.6048  0.5631
  633SOL    HW1 2530   2.615   0.645   0.435 -1.0139 -4.8995  0.2136
  633SOL    HW2 2531   2.504   0.560   0.409 -0.5061 -1.2939 -0.3960
  633SOL     MW 2532   2.542   0.634   0.396  0.2257 -1.2624  0.3905
  634SOL     OW 2533   2.664   3.030   0.656 -0.1506 -0.5314 -0.4071
  634SOL    HW1 2534   2.704   3.121   0.669  2.0591  1.1064  0.6609
  634SOL    HW2 2535   2.602   3.039   0.580 -0.6726  2.1764 -0.3280
  634SOL     MW 2536   2.661   3.043   0.648  0.0721  0.0419 -0.2557
  635SOL     OW 2537   2.591   0.087   1.844  0.1163 -0.8332  0.6609
  635SOL    HW1 2538   2.627   0.053   1.756  1.9061 -1.3734  1.2383
  635SOL    HW2 2539   2.623   0.181   1.859 -0.7019  1.5986  1.0768
  635SOL     MW 2540   2.600   0.095   1.834  0.2445 -0.5836  0.7920
  636SOL     OW 2541   2.922   1.737   1.071  0.4782 -0.3524  0.5275
  636SOL    HW1 2542   2.849   1.797   1.045 -0.7521 -2.9807  0.4746
  636SOL    HW2 2543   2.987   1.789   1.115 -0.6114  0.9434 -0.4599
  636SOL     MW 2544   2.921   1.751   1.074  0.1721 -0.5282  0.3902
  637SOL     OW 2545   2.905   1.501   0.633  0.0679 -0.4101 -0.3777
  637SOL    HW1 2546   2.969   1.569   0.621 -1.1721 -0.5595  0.1589
  637SOL    HW2 2547   2.827   1.545   0.663  0.1698 -2.0498 -0.4592
  637SOL     MW 2548   2.903   1.516   0.636 -0.0823 -0.6462 -0.3177
  638SOL     OW 2549   2.753   0.538   0.537  0.5213 -0.4600 -0.1198
  638SOL    HW1 2550   2.824   0.524   0.480  0.5851 -0.9122  2.6526
  638SOL    HW2 2551   2.795   0.577   0.615 -0.3081 -2.2453 -1.9501
  638SOL     MW 2552   2.768   0.542   0.540  0.4203 -0.7552  0.0045
  639SOL     OW 2553   1.780   0.046   0.559  0.0756  0.1842  0.6294
  639SOL    HW1 2554   1.686   0.070   0.562 -2.1370 -0.9936  2.4182
  639SOL    HW2 2555   1.789   0.000   0.475 -0.3382 -0.0709 -0.0307
  639SOL     MW 2556   1.769   0.043   0.548 -0.2710 -0.0049  0.7784
  640SOL     OW 2557   0.360   1.386   0.062  0.6207 -0.5437  0.0304
  640SOL    HW1 2558   0.368   1.385  -0.034 -1.0312  2.5628 -0.2479
  640SOL    HW2 2559   0.340   1.295   0.098 -1.8311 -0.5328  1.4112
  640SOL     MW 2560   0.359   1.374   0.054  0.0792 -0.1324  0.1758
  641SOL     OW 2561   2.225   0.448   0.379  0.7580 -0.3102 -0.3506
  641SOL    HW1 2562   2.261   0.473   0.296 -1.9982 -0.8579 -2.8434
  641SOL    HW2 2563   2.273   0.364   0.393  0.6944 -0.9018 -0.7030
  641SOL     MW 2564   2.236   0.440   0.370  0.3860 -0.4605 -0.7260
  642SOL     OW 2565   3.105   3.080   0.607  0.1264  0.1772 -0.1947
  642SOL    HW1 2566   3.073   3.158   0.558  0.9586  0.2360  0.0014
  642SOL    HW2 2567   3.032   3.022   0.617  1.3875  0.1078  2.2676
  642SOL     MW 2568   3.091   3.083   0.602  0.4026  0.1758  0.1560
  643SOL     OW 2569   2.083   0.338   1.706  0.2031 -1.0794  0.2577
  643SOL    HW1 2570   2.062   0.286   1.786  0.1381  1.5233  1.3591
  643SOL    HW2 2571   2.065   0.284   1.627  2.0760  1.6656 -0.5313
  643SOL     MW 2572   2.078   0.324   1.706  0.4416 -0.3738  0.2989
  644SOL     OW 2573   2.716   1.959   1.067  0.5642  0.0460  0.0869
  644SOL    HW1 2574   2.693   1.899   1.147  0.0440 -2.0055  1.0952
  644SOL    HW2 2575   2.648   2.019   1.045  0.3414 -0.5939  0.5489
  644SOL     MW 2576   2.704   1.959   1.075  0.4662 -0.3091  0.2809
  645SOL     OW 2577   2.834   0.874   0.683  0.1441 -0.5852  0.1925
  645SOL    HW1 2578   2.925   0.858   0.699 -1.5016 -0.5171  0.2619
  645SOL    HW2 2579   2.795   0.794   0.715 -1.2989  0.1326  1.6168
  645SOL     MW 2580   2.841   0.861   0.689 -0.2635 -0.4815  0.3895
  646SOL     OW 2581   0.181   2.294   0.778  0.4768  0.1620  0.0263
  646SOL    HW1 2582   0.230   2.204   0.783  1.7233 -3.0733 -0.6655
  646SOL    HW2 2583   0.103   2.271   0.719  0.5972  1.1962  0.2047
  646SOL     MW 2584   0.177   2.279   0.771  0.6572 -0.1284 -0.0414
  647SOL     OW 2585   2.724   0.496   2.964 -0.2395  0.2187 -0.0199
  647SOL    HW1 2586   2.659   0.439   3.010  1.1162 -1.2167 -1.0338
  647SOL    HW2 2587   2.672   0.583   2.958  0.5881 -1.0660  1.6005
  647SOL     MW 2588   2.709   0.500   2.970  0.0486 -0.1402  0.0602
  648SOL     OW 2589   2.141   0.736   1.117  0.0463 -0.7131 -0.2410
  648SOL    HW1 2590   2.167   0.789   1.043 -1.1574 -1.8064 -1.4787
  648SOL    HW2 2591   2.169   0.790   1.191  2.7939  1.6227  0.0181
  648SOL     MW 2592   2.148   0.750   1.117  0.2500 -0.5491 -0.3701
  649SOL     OW 2593   2.340   2.764   1.298 -0.0598 -0.3471 -0.0604
  649SOL    HW1 2594   2.416   2.823   1.278 -1.0368 -0.1427  0.3721
  649SOL    HW2 2595   2.361   2.681   1.252 -1.3479  0.9326 -1.8034
  649SOL     MW 2596   2.353   2.761   1.289 -0.3586 -0.1513 -0.2333
  650SOL     OW 2597   2.817   0.171   0.675 -0.2298 -0.0991 -0.1089
  650SOL    HW1 2598   2.889   0.208   0.728  1.8060 -0.7977 -1.3351
  650SOL    HW2 2599   2.859   0.171   0.588 -0.8850  0.6921  0.6695
  650SOL     MW 2600   2.832   0.176   0.670 -0.0476 -0.0869 -0.1680
  651SOL     OW 2601   3.007   0.431   0.763  0.1478  0.2393 -0.3193
  651SOL    HW1 2602   3.086   0.481   0.755 -1.1795  0.2227 -0.0703
  651SOL    HW2 2603   2.952   0.475   0.824 -0.4561 -0.7167  0.5440
  651SOL     MW 2604   3.010   0.444   0.770 -0.1070  0.1110 -0.1725
  652SOL     OW 2605   2.412   1.473   3.022 -0.5545  0.2215  0.2324
  652SOL    HW1 2606   2.477   1.473   2.958 -2.2472 -2.4373  0.2916
  652SOL    HW2 2607   2.361   1.552   3.009  0.9543 -1.4460 -3.3289
  652SOL     MW 2608   2.414   1.484   3.012 -0.5788 -0.3493 -0.2297
  653SOL     OW 2609   1.940   0.451   0.353 -0.2022 -0.0764  0.2471
  653SOL    HW1 2610   1.892   0.405   0.286  0.9308  2.0215  0.0568
  653SOL    HW2 2611   2.027   0.472   0.333  0.5088 -1.1845  1.5206
  653SOL     MW 2612   1.945   0.448   0.342  0.0411  0.0542  0.3900
  654SOL     OW 2613   2.453   1.062   0.718 -0.1063  0.0878  0.3320
  654SOL    HW1 2614   2.380   1.044   0.660  0.0563 -0.9116  0.6759
  654SOL    HW2 2615   2.486   0.974   0.752  2.9257  0.1185 -0.5078
  654SOL     MW 2616   2.448   1.048   0.715  0.3152 -0.0400  0.2666
  655SOL     OW 2617   2.972   0.905   0.390 -0.6801 -0.4099 -0.2256
  655SOL    HW1 2618   2.952   0.941   0.475  0.5628 -0.5169 -0.1440
  655SOL    HW2 2619   2.977   0.808   0.405  1.2418  0.8968  2.1794
  655SOL     MW 2620   2.970   0.897   0.403 -0.2625 -0.2516  0.1025
  656SOL     OW 2621   1.952   2.704   1.229 -0.0854  0.7280  0.3593
  656SOL    HW1 2622   1.931   2.793   1.240 -0.4407 -1.1642  1.6676
  656SOL    HW2 2623   1.986   2.670   1.310  0.7268  0.9286  0.5163
  656SOL     MW 2624   1.954   2.711   1.241 -0.0251  0.5048  0.5526
  657SOL     OW 2625   0.168   1.597   1.284 -0.0781  0.4908  0.4046
  657SOL    HW1 2626   0.074   1.601   1.279 -1.3272 -1.3967 -0.6051
  657SOL    HW2 2627   0.186   1.503   1.265  0.3026  0.8776  0.2686
  657SOL     MW 2628   0.158   1.585   1.281 -0.1926  0.2928  0.2534
  658SOL     OW 2629   2.697   1.331   0.185  0.0472 -0.7231  0.2519
  658SOL    HW1 2630   2.638   1.275   0.237 -0.4157  0.7051  0.6685
  658SOL    HW2 2631   2.760   1.380   0.239  2.8647 -0.1311 -3.0602
  658SOL     MW 2632   2.697   1.330   0.199  0.3579 -0.4565 -0.1301
  659SOL     OW 2633   2.309   1.523   1.034 -0.0702 -0.2816  0.2146
  659SOL    HW1 2634   2.395   1.530   1.063 -3.8739 -0.9573  1.5591
  659SOL    HW2 2635   2.261   1.516   1.113  1.1244  1.4543 -1.0345
  659SOL     MW 2636   2.314   1.523   1.048 -0.4145 -0.1417  0.2272
  660SOL     OW 2637   2.028   1.584   1.687  0.0663  0.2903  0.2488
  660SOL    HW1 2638   2.009   1.598   1.780 -0.0002  1.2862 -2.8482
  660SOL    HW2 2639   1.967   1.517   1.654  1.3735  0.2737 -0.0236
  660SOL     MW 2640   2.018   1.577   1.695  0.2300  0.4195 -0.1958
  661SOL     OW 2641   2.363   1.018   0.217 -0.0846 -0.2939 -0.5974
  661SOL    HW1 2642   2.433   1.061   0.278  1.2777  0.7477 -0.5812
  661SOL    HW2 2643   2.350   0.923   0.238  1.2802  0.6308 -0.4370
  661SOL     MW 2644   2.370   1.011   0.227  0.2752 -0.0345 -0.5741
  662SOL     OW 2645   2.527   2.937   0.884  0.6216  1.0537 -0.1432
  662SOL    HW1 2646   2.482   3.013   0.917  1.5343 -0.2413 -1.0115
  662SOL    HW2 2647   2.577   2.972   0.810  0.3786  1.6721 -0.8145
  662SOL     MW 2648   2.528   2.952   0.878  0.7100  0.9645 -0.3464
  663SOL     OW 2649   2.834   1.486   0.350 -0.4136  0.0835  0.3147
  663SOL    HW1 2650   2.793   1.561   0.393 -1.7937 -1.9534 -0.2769
  663SOL    HW2 2651   2.883   1.449   0.417  0.1930  1.8692 -1.3404
  663SOL     MW 2652   2.835   1.491   0.364 -0.5157  0.0504  0.0182
  664SOL     OW 2653   2.473   1.520   1.593 -0.1365 -0.9648  0.4728
  664SOL    HW1 2654   2.454   1.619   1.598  0.3621 -1.5575 -1.7542
  664SOL    HW2 2655   2.385   1.480   1.607 -0.8336 -0.7474 -2.7127
  664SOL     MW 2656   2.459   1.527   1.595 -0.1627 -1.0143 -0.2413
  665SOL     OW 2657   2.876   0.843   2.033  0.4102  0.0781 -0.0824
  665SOL    HW1 2658   2.854   0.878   1.943  0.2494 -1.8055 -1.0352
  665SOL    HW2 2659   2.923   0.766   2.005  0.6140 -1.4788 -3.3021
  665SOL     MW 2660   2.879   0.837   2.017  0.4159 -0.3759 -0.6329
  666SOL     OW 2661   2.741   3.017   1.664  0.4733 -0.1780 -0.4826
  666SOL    HW1 2662   2.744   3.018   1.564  1.0548  2.4559 -1.8456
  666SOL    HW2 2663   2.702   2.932   1.683 -0.5893 -0.1109  1.0178
  666SOL     MW 2664   2.736   3.006   1.653  0.4098  0.1784 -0.4645
  667SOL     OW 2665   1.982   2.663   1.667  0.2902 -0.2861  0.3577
  667SOL    HW1 2666   1.994   2.594   1.729  0.3097 -1.8336 -2.8776
  667SOL    HW2 2667   2.054   2.726   1.685 -0.3552  1.5465  0.1744
  667SOL     MW 2668   1.993   2.662   1.677  0.2076 -0.2485 -0.0933
  668SOL     OW 2669   2.728   0.642   0.802  0.1528  0.6637  0.2057
  668SOL    HW1 2670   2.804   0.653   0.869  0.3389 -1.5781  2.0806
  668SOL    HW2 2671   2.652   0.700   0.815  0.7918 -1.9097  2.5783
  668SOL     MW 2672   2.728   0.651   0.812  0.2617  0.0284  0.7661
  669SOL     OW 2673   0.198   0.943   0.654  0.8645  0.0474  0.1397
  669SOL    HW1 2674   0.161   0.993   0.719 -2.7148 -0.8307 -0.7532
  669SOL    HW2 2675   0.293   0.937   0.680  3.2516 -0.0255 -0.8127
  669SOL     MW 2676   0.206   0.949   0.666  0.7072 -0.0781 -0.1038
  670SOL     OW 2677   2.884   0.305   0.203  0.0046 -0.2829  0.2771
  670SOL    HW1 2678   2.905   0.244   0.127 -3.0445 -0.8556  0.4797
  670SOL    HW2 2679   2.907   0.386   0.155 -3.3047 -0.4965 -1.1871
  670SOL     MW 2680   2.889   0.308   0.187 -0.8343 -0.3867  0.1107
  671SOL     OW 2681   2.108   2.978   1.531 -0.2555 -0.6646  0.1575
  671SOL    HW1 2682   2.103   3.020   1.441 -2.2712 -0.5440 -2.8007
  671SOL    HW2 2683   2.047   3.030   1.579 -1.4068  1.2014 -0.4300
  671SOL     MW 2684   2.099   2.990   1.525 -0.6733 -0.4025 -0.3103
  672SOL     OW 2685   1.859   1.706   1.312  0.3832  0.1888  0.2108
  672SOL    HW1 2686   1.781   1.745   1.349  1.4091  0.4263  0.4675
  672SOL    HW2 2687   1.894   1.769   1.241 -0.8159  1.9751 -0.0888
  672SOL     MW 2688   1.853   1.720   1.307  0.3604  0.4558  0.2051
  673SOL     OW 2689   2.774   1.095   0.536 -0.4152  0.2669  0.4170
  673SOL    HW1 2690   2.767   1.027   0.603  0.6178 -1.2675  0.4585
  673SOL    HW2 2691   2.837   1.157   0.570 -1.8012 -0.3475  0.5845
  673SOL     MW 2692   2.781   1.095   0.549 -0.4618 -0.0166  0.4446
  674SOL     OW 2693   2.517   0.073   1.223  0.3479 -0.3768  0.2129
  674SOL    HW1 2694   2.488   0.088   1.130 -0.9808  0.8360 -1.4433
  674SOL    HW2 2695   2.518  -0.020   1.240 -2.5510  1.3297  1.1788
  674SOL     MW 2696   2.513   0.063   1.213 -0.2099  0.0083  0.1218
  675SOL     OW 2697   3.023   0.901   1.092  0.2489 -0.7612 -0.6272
  675SOL    HW1 2698   3.091   0.898   1.163  0.7774  1.1971  0.7796
  675SOL    HW2 2699   3.049   0.959   1.018 -0.0811  1.9119  1.6700
  675SOL     MW 2700   3.036   0.908   1.092  0.2751 -0.1501 -0.1385
  676SOL     OW 2701   2.857   1.477   1.664  0.1215 -0.1198 -0.3530
  676SOL    HW1 2702   2.807   1.389   1.651  2.5873 -0.0279 -0.0774
  676SOL    HW2 2703   2.938   1.457   1.708 -2.7789 -1.1311  0.2996
  676SOL     MW 2704   2.861   1.463   1.668  0.0642 -0.2411 -0.2305
  677SOL     OW 2705   2.419   0.690   1.961 -0.5626 -0.4561  0.3427
  677SOL    HW1 2706   2.388   0.607   1.938 -0.5715 -2.3985  1.2436
  677SOL    HW2 2707   2.338   0.724   2.005  0.5701 -1.2130  1.4825
  677SOL     MW 2708   2.404   0.683   1.964 -0.4143 -0.8122  0.6119
  678SOL     OW 2709   2.548   1.620   0.425  0.2480  0.4478  0.3024
  678SOL    HW1 2710   2.454   1.661   0.422 -0.8022  1.3933  1.6469
  678SOL    HW2 2711   2.563   1.593   0.333 -0.9165 -0.0198 -2.7148
  678SOL     MW 2712   2.538   1.622   0.413 -0.0442  0.5108  0.0817
  679SOL     OW 2713   2.304   0.533   1.197 -0.3222  0.2715  0.1388
  679SOL    HW1 2714   2.263   0.461   1.145  1.1653  0.7398  0.6528
  679SOL    HW2 2715   2.261   0.611   1.163 -2.0131  0.4302  1.5353
  679SOL     MW 2716   2.293   0.534   1.185 -0.3491  0.3543  0.3909
  680SOL     OW 2717   2.367   0.234   1.430  0.2738 -0.2782  0.7002
  680SOL    HW1 2718   2.266   0.217   1.410 -3.4317 -0.4965 -0.2561
  680SOL    HW2 2719   2.419   0.176   1.372 -3.7352 -2.2971  0.3936
  680SOL     MW 2720   2.360   0.224   1.420 -0.7441 -0.5734  0.5336
  681SOL     OW 2721   0.346   0.595   1.549 -0.1486 -0.0906  0.1363
  681SOL    HW1 2722   0.309   0.517   1.599 -0.0818 -1.4465  0.0693
  681SOL    HW2 2723   0.439   0.568   1.537 -1.4014 -1.3038 -2.2945
  681SOL     MW 2724   0.354   0.581   1.554 -0.3051 -0.4296 -0.1933
  682SOL     OW 2725   0.134   2.942   1.462 -0.2290 -0.4182  0.0445
  682SOL    HW1 2726   0.117   3.031   1.443 -2.1324  1.1297 -1.2723
  682SOL    HW2 2727   0.074   2.935   1.537 -0.4576 -0.2563  2.6380
  682SOL     MW 2728   0.124   2.953   1.469 -0.5103 -0.1926  0.2130
  683SOL     OW 2729   2.045   0.859   3.026 -0.2423  0.0561 -0.2843
  683SOL    HW1 2730   1.992   0.837   2.948  2.2460  0.0009 -1.5668
  683SOL    HW2 2731   2.040   0.949   3.048 -2.0829 -0.8755 -0.4739
  683SOL     MW 2732   2.038   0.868   3.019 -0.1568 -0.0741 -0.4786
  684SOL     OW 2733   2.181   1.743   0.936  0.1179 -0.0263  0.0692
  684SOL    HW1 2734   2.086   1.731   0.938  1.6028 -0.2787  1.1206
  684SOL    HW2 2735   2.225   1.652   0.937 -0.9290 -0.7599  2.2425
  684SOL     MW 2736   2.174   1.729   0.937  0.1757 -0.1564  0.4947
  685SOL     OW 2737   2.659   1.753   1.232  0.3643  0.1130 -0.0222
  685SOL    HW1 2738   2.746   1.718   1.256  2.1181  1.5312  1.4380
  685SOL    HW2 2739   2.619   1.683   1.176 -0.3364 -0.3057 -1.2280
  685SOL     MW 2740   2.666   1.739   1.227  0.5033  0.2448  0.0113
  686SOL     OW 2741   2.899   0.720   1.481  0.5709  0.4918  1.0070
  686SOL    HW1 2742   2.890   0.655   1.556 -1.3415 -1.7500 -1.9240
  686SOL    HW2 2743   2.990   0.726   1.462 -2.8608 -1.2867 -0.9458
  686SOL     MW 2744   2.910   0.712   1.489 -0.1342 -0.0386  0.3626
  687SOL     OW 2745   2.098   0.300   1.155 -0.8906  0.2565 -0.6806
  687SOL    HW1 2746   2.082   0.231   1.089 -1.7248  1.8945 -0.7485
  687SOL    HW2 2747   2.017   0.337   1.181  1.3412  0.3337  0.2401
  687SOL     MW 2748   2.085   0.296   1.150 -0.7062  0.4828 -0.5680
  688SOL     OW 2749   2.368   0.633   1.436 -0.1245 -0.3239 -0.4166
  688SOL    HW1 2750   2.350   0.596   1.347  0.4837  0.6151 -2.2354
  688SOL    HW2 2751   2.287   0.628   1.494 -2.1164 -1.0025 -1.0002
  688SOL     MW 2752   2.355   0.628   1.432 -0.3071 -0.2896 -0.7336
  689SOL     OW 2753   2.545   0.723   3.007 -0.0491 -0.3686 -0.4384
  689SOL    HW1 2754   2.546   0.810   2.964 -0.4600  1.8531  2.2572
  689SOL    HW2 2755   2.584   0.727   3.099 -0.9001 -2.0214  2.8558
  689SOL     MW 2756   2.550   0.735   3.014 -0.2156 -0.2936  0.3519
  690SOL     OW 2757   2.113   0.923   1.902 -0.2329  0.1023 -0.3829
  690SOL    HW1 2758   2.032   0.872   1.903  0.3847  1.0899 -0.3637
  690SOL    HW2 2759   2.137   0.939   1.812 -0.5086  0.0991  0.0738
  690SOL     MW 2760   2.105   0.918   1.890 -0.1878  0.2322 -0.3201
  691SOL     OW 2761   2.473   0.265   0.810  0.3293 -0.1529 -0.3064
  691SOL    HW1 2762   2.553   0.306   0.848  0.1388 -1.4160 -1.8247
  691SOL    HW2 2763   2.400   0.331   0.840 -1.0500  2.6488 -1.0005
  691SOL     MW 2764   2.474   0.279   0.819  0.1221  0.0501 -0.5983
  692SOL     OW 2765   2.831   1.633   1.427  0.2673 -0.9448 -0.1375
  692SOL    HW1 2766   2.807   1.575   1.491  0.2197  2.1947 -4.6358
  692SOL    HW2 2767   2.829   1.724   1.461  0.8742  1.5810  0.9958
  692SOL     MW 2768   2.827   1.638   1.440  0.3411 -0.1973 -0.5815
  693SOL     OW 2769   2.330   0.443   0.125  0.3058  0.6361 -0.0362
  693SOL    HW1 2770   2.246   0.401   0.110  0.5251  0.7738 -1.0283
  693SOL    HW2 2771   2.319   0.515   0.072  1.8984  0.3755  1.6002
  693SOL     MW 2772   2.317   0.447   0.116  0.5449  0.6199  0.0488
  694SOL     OW 2773   1.908   1.258   1.096 -0.0153 -0.7773  0.3462
  694SOL    HW1 2774   1.989   1.221   1.132 -1.5585  0.5580  0.8524
  694SOL    HW2 2775   1.840   1.205   1.139 -0.0663 -0.1051 -1.4102
  694SOL     MW 2776   1.909   1.246   1.106 -0.2256 -0.5124  0.1813
  695SOL     OW 2777   2.990   1.449   1.323  0.2103  0.4712  0.6532
  695SOL    HW1 2778   2.973   1.454   1.230  0.6921  0.9365 -0.3295
  695SOL    HW2 2779   2.937   1.526   1.351  0.0611 -2.0002 -0.9393
  695SOL     MW 2780   2.981   1.460   1.315  0.2542  0.2065  0.3134
  696SOL     OW 2781   2.098   1.384   0.891  0.1092 -0.1190 -0.1110
  696SOL    HW1 2782   2.184   1.419   0.929 -0.3476 -0.3445 -1.6702
  696SOL    HW2 2783   2.035   1.366   0.962  0.2462  1.2993  0.8063
  696SOL     MW 2784   2.101   1.386   0.906  0.0670  0.0384 -0.1957
  697SOL     OW 2785   2.914   1.101   2.136  0.1778  0.2313  0.3409
  697SOL    HW1 2786   2.827   1.120   2.184 -1.3791 -1.3198  1.3790
  697SOL    HW2 2787   2.908   1.005   2.102  2.1201 -1.4341 -1.8511
  697SOL     MW 2788   2.902   1.091   2.138  0.2286 -0.1931  0.1887
  698SOL     OW 2789   2.567   0.327   0.018 -0.2129  0.0767  0.4717
  698SOL    HW1 2790   2.488   0.348   0.070 -1.4495  2.3374  2.3424
  698SOL    HW2 2791   2.618   0.270   0.081  0.2045  4.0434 -1.4133
  698SOL     MW 2792   2.563   0.322   0.033 -0.3210  0.8984  0.4698
  699SOL     OW 2793   1.841   1.676   2.049  0.6420 -0.0570 -0.5970
  699SOL    HW1 2794   1.814   1.579   2.057 -1.8879 -0.3197  0.2789
  699SOL    HW2 2795   1.937   1.674   2.021  0.5937  2.5134 -0.8107
  699SOL     MW 2796   1.850   1.663   2.046  0.3018  0.2475 -0.5096
  700SOL     OW 2797   2.722   0.923   1.564  0.0597 -0.1462 -0.8158
  700SOL    HW1 2798   2.710   0.997   1.502 -3.1216 -1.8865  2.2610
  700SOL    HW2 2799   2.781   0.855   1.528  0.1661  2.7129  0.3119
  700SOL     MW 2800   2.728   0.924   1.551 -0.3460  0.0014 -0.2610
  701SOL     OW 2801   1.612   1.276   2.521 -0.3713  0.0473 -0.2092
  701SOL    HW1 2802   1.704   1.255   2.515 -1.5129 -2.3301  2.3214
  701SOL    HW2 2803   1.620   1.329   2.598 -0.3648 -0.6526 -2.2344
  701SOL     MW 2804   1.626   1.280   2.531 -0.5211 -0.3587 -0.1425
  702SOL     OW 2805   2.197   0.394   0.861  0.0916  0.1043  0.1329
  702SOL    HW1 2806   2.177   0.309   0.818  2.9388 -2.5102  0.0718
  702SOL    HW2 2807   2.221   0.461   0.799  1.6720  1.3759  1.8239
  702SOL     MW 2808   2.197   0.392   0.847  0.6758 -0.0729  0.3480
  703SOL     OW 2809   2.714   1.279   1.039  0.7927  0.0181  0.1751
  703SOL    HW1 2810   2.676   1.263   0.947 -0.0538  1.1541  0.2246
  703SOL    HW2 2811   2.735   1.186   1.065  0.6281 -0.0103 -1.5606
  703SOL     MW 2812   2.711   1.265   1.030  0.6593  0.1642 -0.0474
  704SOL     OW 2813   3.081   1.322   0.262 -0.0249 -0.2353 -0.2577
  704SOL    HW1 2814   3.024   1.264   0.217 -0.4832  1.5344 -0.9244
  704SOL    HW2 2815   3.115   1.276   0.346  0.2980 -0.5940  5.0990
  704SOL     MW 2816   3.078   1.308   0.267 -0.0428 -0.0491  0.3611
  705SOL     OW 2817   2.216   1.631   1.292  1.0236  0.1475  0.4636
  705SOL    HW1 2818   2.125   1.659   1.300 -6.5186 -0.7753 -2.3838
  705SOL    HW2 2819   2.222   1.547   1.334  0.2514  2.7655 -1.1495
  705SOL     MW 2820   2.205   1.624   1.299 -0.0734  0.3712 -0.1249
  706SOL     OW 2821   2.961   1.227   0.693  0.4162 -0.0304 -0.4078
  706SOL    HW1 2822   3.036   1.226   0.628  3.5975  1.5911 -2.4028
  706SOL    HW2 2823   2.939   1.321   0.692 -0.5301 -0.1130  0.4912
  706SOL     MW 2824   2.968   1.239   0.684  0.7111  0.1727 -0.5524
  707SOL     OW 2825   2.379   0.058   0.964  0.2720 -0.4435 -0.3026
  707SOL    HW1 2826   2.408   0.134   0.904  0.3448  1.4801 -1.4789
  707SOL    HW2 2827   2.288   0.081   0.985  0.8712 -0.2143  0.5627
  707SOL     MW 2828   2.371   0.071   0.959  0.3606 -0.1595 -0.3437
  708SOL     OW 2829   2.565   1.568   0.137  0.2525  0.1065  0.1336
  708SOL    HW1 2830   2.603   1.480   0.150  1.8430  0.9541 -1.5723
  708SOL    HW2 2831   2.489   1.567   0.075 -0.9161 -0.8305 -1.6660
  708SOL     MW 2832   2.560   1.556   0.131  0.3082  0.0947 -0.3289
  709SOL     OW 2833   1.727   1.725   0.159  0.2368 -0.1186  0.0255
  709SOL    HW1 2834   1.693   1.756   0.081  1.1250  0.2467  0.6619
  709SOL    HW2 2835   1.662   1.680   0.213 -2.8396  1.0323  0.1080
  709SOL     MW 2836   1.714   1.723   0.156 -0.0519  0.0815  0.1204
  710SOL     OW 2837   2.167   1.168   1.184  0.4010  0.0603 -0.9794
  710SOL    HW1 2838   2.230   1.150   1.113 -0.6179 -0.0287  0.7205
  710SOL    HW2 2839   2.170   1.091   1.238  1.4538  0.9332 -1.5795
  710SOL     MW 2840   2.175   1.156   1.182  0.4055  0.1637 -0.8343
  711SOL     OW 2841   2.335   0.127   1.771 -0.0589  0.0584 -0.3348
  711SOL    HW1 2842   2.436   0.119   1.792  0.6975  0.4031 -0.9251
  711SOL    HW2 2843   2.335   0.107   1.681  0.7581  0.0996  0.4011
  711SOL     MW 2844   2.348   0.123   1.762  0.1487  0.1093 -0.3156
  712SOL     OW 2845   1.851   0.623   3.067  0.6115  0.4656  0.3989
  712SOL    HW1 2846   1.867   0.696   3.013  0.8168  1.5256  1.6460
  712SOL    HW2 2847   1.834   0.645   3.156  2.5611  0.2703 -2.9337
  712SOL     MW 2848   1.851   0.635   3.072  0.8958  0.5797  0.1238
  713SOL     OW 2849   2.582   0.820   1.085 -0.6862 -0.5589 -0.1126
  713SOL    HW1 2850   2.578   0.723   1.070 -0.0664  1.2070  0.1124
  713SOL    HW2 2851   2.552   0.827   1.178  2.6601 -0.4157  2.5220
  713SOL     MW 2852   2.578   0.808   1.095 -0.1629 -0.3070  0.2647
  714SOL     OW 2853   2.167   0.221   1.961  0.0625 -0.0623  0.2274
  714SOL    HW1 2854   2.213   0.189   2.041 -0.2093  2.4678 -0.3036
  714SOL    HW2 2855   2.230   0.211   1.896 -0.9237  0.3501  1.5225
  714SOL     MW 2856   2.181   0.216   1.963 -0.1035  0.3259  0.3282
  715SOL     OW 2857   1.723   1.903   1.726 -0.1204  0.2456 -0.5986
  715SOL    HW1 2858   1.800   1.901   1.673 -1.2626 -2.3416  1.8037
  715SOL    HW2 2859   1.710   1.809   1.754  1.2398 -2.5318 -1.3921
  715SOL     MW 2860   1.731   1.890   1.723 -0.0916 -0.4622 -0.3863
  716SOL     OW 2861   2.380   0.567   0.737 -0.3313 -0.0752  0.3602
  716SOL    HW1 2862   2.439   0.519   0.681 -1.4702  0.5397  1.5235
  716SOL    HW2 2863   2.321   0.612   0.671  1.1297  2.8182 -1.0495
  716SOL     MW 2864   2.380   0.567   0.721 -0.2888  0.3877  0.3277
  717SOL     OW 2865   2.863   1.419   2.904 -0.0339  0.2254  0.0681
  717SOL    HW1 2866   2.962   1.435   2.906 -1.1262  0.5494 -0.5293
  717SOL    HW2 2867   2.832   1.477   2.980 -0.7197  0.5526  0.7786
  717SOL     MW 2868   2.872   1.429   2.914 -0.2685  0.3113  0.0830
  718SOL     OW 2869   2.505   1.362   1.372  0.0326  0.5484 -0.1880
  718SOL    HW1 2870   2.489   1.422   1.449  0.4658 -3.0586 -0.3112
  718SOL    HW2 2871   2.587   1.320   1.391 -1.0610 -0.2543 -0.2696
  718SOL     MW 2872   2.514   1.364   1.384 -0.0546 -0.0334 -0.2150
  719SOL     OW 2873   2.185   1.348   0.577  0.6421 -0.1335  0.6291
  719SOL    HW1 2874   2.277   1.367   0.563  0.1189  1.2471 -3.8804
  719SOL    HW2 2875   2.177   1.369   0.671  2.0020  0.4550  1.0510
  719SOL     MW 2876   2.196   1.353   0.588  0.7525  0.1263  0.0898
  720SOL     OW 2877   2.897   1.174   0.134  0.0751 -0.2516 -0.4137
  720SOL    HW1 2878   2.858   1.090   0.162  3.1620 -0.3199 -1.7966
  720SOL    HW2 2879   2.832   1.246   0.160  1.9839 -1.0761 -0.7405
  720SOL     MW 2880   2.884   1.172   0.141  0.7342 -0.3694 -0.6393
  721SOL     OW 2881   2.515   0.851   1.363  0.1739  0.8488  0.0545
  721SOL    HW1 2882   2.456   0.786   1.396  0.4636  1.9017 -1.5655
  721SOL    HW2 2883   2.550   0.906   1.428 -1.1111  3.3624 -2.5201
  721SOL     MW 2884   2.512   0.850   1.376  0.0426  1.3193 -0.4989
  722SOL     OW 2885   2.558   1.154   0.364  0.1085 -0.6317  0.2561
  722SOL    HW1 2886   2.532   1.239   0.409  1.2468 -1.1279  0.9596
  722SOL    HW2 2887   2.640   1.122   0.409  3.4401 -1.7755  1.9935
  722SOL     MW 2888   2.566   1.161   0.376  0.6983 -0.8481  0.5781
  723SOL     OW 2889   2.238   1.388   1.645  0.3506  0.7783 -0.2061
  723SOL    HW1 2890   2.217   1.365   1.556  1.7102 -1.2440  0.3846
  723SOL    HW2 2891   2.156   1.422   1.675  0.0133 -1.4068  0.4155
  723SOL     MW 2892   2.224   1.389   1.637  0.4855  0.2232 -0.0461
  724SOL     OW 2893   2.508   0.400   0.558  0.4106  0.6223  0.1978
  724SOL    HW1 2894   2.522   0.331   0.627  1.4878  0.7457  1.5062
  724SOL    HW2 2895   2.600   0.432   0.547  1.4399 -0.9410 -1.1772
  724SOL     MW 2896   2.522   0.395   0.565  0.6885  0.4323  0.1890
  725SOL     OW 2897   2.571   0.533   1.136 -0.3336  0.2714  0.2494
  725SOL    HW1 2898   2.612   0.512   1.223  4.9371 -0.2210  3.1361
  725SOL    HW2 2899   2.476   0.524   1.143  0.6234 -1.2915 -0.2367
  725SOL     MW 2900   2.564   0.529   1.148  0.4881  0.0002  0.5661
  726SOL     OW 2901   2.595   2.429   0.548 -0.0304  0.3869  0.0410
  726SOL    HW1 2902   2.525   2.485   0.530  0.6409 -1.4870  1.2658
  726SOL    HW2 2903   2.566   2.358   0.602  0.4588  1.8174 -1.4838
  726SOL     MW 2904   2.582   2.427   0.553  0.1227  0.3284  0.0014
  727SOL     OW 2905   2.923   0.259   1.575  0.2226 -0.1415 -0.1898
  727SOL    HW1 2906   2.913   0.300   1.484 -0.7852  0.4860  0.7103
  727SOL    HW2 2907   2.863   0.185   1.580  3.0338 -1.7838 -0.4044
  727SOL     MW 2908   2.914   0.255   1.563  0.4606 -0.2754 -0.0994
  728SOL     OW 2909   2.813   1.171   2.979 -0.1013 -0.3722  0.1886
  728SOL    HW1 2910   2.864   1.249   2.954  2.2913 -0.8846  2.0131
  728SOL    HW2 2911   2.837   1.161   3.074  0.4489  1.3653 -1.7663
  728SOL     MW 2912   2.822   1.180   2.989  0.2870 -0.2106  0.1714
  729SOL     OW 2913   2.565   1.516   1.139 -0.1072 -0.0758 -0.6369
  729SOL    HW1 2914   2.576   1.455   1.210  1.2692  3.7432 -0.9558
  729SOL    HW2 2915   2.584   1.463   1.057 -1.8393  0.4613 -0.3250
  729SOL     MW 2916   2.569   1.501   1.138 -0.1541  0.4990 -0.6378
  730SOL     OW 2917   2.113   1.121   0.290 -0.2720 -0.0609 -0.3252
  730SOL    HW1 2918   2.196   1.081   0.260  0.2449  0.8971  2.5117
  730SOL    HW2 2919   2.124   1.216   0.292  1.7787  0.7715 -0.0221
  730SOL     MW 2920   2.126   1.128   0.286  0.0667  0.1753  0.0891
  731SOL     OW 2921   2.805   1.855   2.872  0.1018  0.2501 -0.4354
  731SOL    HW1 2922   2.771   1.896   2.790  1.2099 -2.1045  1.1368
  731SOL    HW2 2923   2.878   1.909   2.897 -1.8729  1.6526 -0.1317
  731SOL     MW 2924   2.810   1.867   2.864 -0.0126  0.1244 -0.1879
  732SOL     OW 2925   2.230   0.904   1.302  0.0102 -0.0804  0.7643
  732SOL    HW1 2926   2.202   0.857   1.380  3.0760 -1.8134 -0.2506
  732SOL    HW2 2927   2.325   0.889   1.308 -1.9154 -0.0818 -0.3191
  732SOL     MW 2928   2.239   0.896   1.313  0.1606 -0.3092  0.4875
  733SOL     OW 2929   2.373   2.819   3.038  0.3154  0.1392 -0.4107
  733SOL    HW1 2930   2.286   2.862   3.034 -1.8969 -1.5240 -2.2810
  733SOL    HW2 2931   2.342   2.729   3.032  3.9974  0.3384  0.0453
  733SOL     MW 2932   2.357   2.813   3.037  0.5094 -0.0540 -0.5973
  734SOL     OW 2933   1.499   0.360   2.471  0.2765 -0.1012 -0.4307
  734SOL    HW1 2934   1.468   0.315   2.554 -0.4909 -1.1333  0.6234
  734SOL    HW2 2935   1.518   0.286   2.406 -1.1593  0.5989  0.8858
  734SOL     MW 2936   1.498   0.344   2.473 -0.0142 -0.1450 -0.1179
  735SOL     OW 2937   3.000   0.938   2.584 -0.4603 -0.7659 -0.2340
  735SOL    HW1 2938   2.982   0.845   2.589 -1.3324 -0.1136 -1.4999
  735SOL    HW2 2939   2.989   0.974   2.674 -0.8774  1.2753 -0.8767
  735SOL     MW 2940   2.996   0.930   2.596 -0.6304 -0.4105 -0.4858
  736SOL     OW 2941   0.074   0.602   2.553  0.4518  0.1886  0.1630
  736SOL    HW1 2942   0.141   0.663   2.519  1.4289  1.7455  1.2876
  736SOL    HW2 2943   0.051   0.555   2.470  0.3092  1.1988 -1.1219
  736SOL     MW 2944   0.080   0.604   2.538  0.5619  0.5273  0.1418
  737SOL     OW 2945   2.921   0.691   2.624 -0.2371 -0.4435  0.0279
  737SOL    HW1 2946   2.861   0.675   2.548 -0.2598 -0.6374  1.5822
  737SOL    HW2 2947   3.012   0.673   2.598 -1.3683  1.4159 -1.4283
  737SOL     MW 2948   2.925   0.687   2.611 -0.3894 -0.2238  0.0408
  738SOL     OW 2949   0.166   0.532   1.959  0.0739  0.2087 -0.0549
  738SOL    HW1 2950   0.259   0.541   1.974  0.5439 -3.0658 -2.8972
  738SOL    HW2 2951   0.171   0.463   1.889  2.9405 -0.7962  3.1262
  738SOL     MW 2952   0.179   0.524   1.952  0.5141 -0.3560 -0.0102
  739SOL     OW 2953   2.520   0.981   2.162 -0.4928  0.5937 -0.0864
  739SOL    HW1 2954   2.437   0.933   2.167  0.9399  1.1889  1.3934
  739SOL    HW2 2955   2.518   1.035   2.083  0.3743 -0.3356  0.3525
  739SOL     MW 2956   2.509   0.982   2.153 -0.1894  0.5496  0.1668
  740SOL     OW 2957   0.134   1.775   2.958  0.3052  0.0149  0.1004
  740SOL    HW1 2958   0.093   1.691   2.971  1.8260  0.2149  3.3331
  740SOL    HW2 2959   0.226   1.763   2.993 -0.1000 -1.8129  0.0545
  740SOL     MW 2960   0.141   1.762   2.964  0.4524 -0.1999  0.5208
  741SOL     OW 2961   2.234   1.238   2.683  0.2145  0.6845 -0.7009
  741SOL    HW1 2962   2.188   1.314   2.649  1.1892 -0.9889  2.2779
  741SOL    HW2 2963   2.231   1.247   2.779 -3.3080 -0.1734 -0.9666
  741SOL     MW 2964   2.228   1.249   2.691 -0.1217  0.3506 -0.3429
  742SOL     OW 2965   1.629   1.370   2.270 -0.6621 -0.4844 -0.4579
  742SOL    HW1 2966   1.588   1.288   2.239 -1.2398  0.0205 -1.5185
  742SOL    HW2 2967   1.601   1.372   2.358  0.1364 -0.8340  0.8657
  742SOL     MW 2968   1.620   1.359   2.277 -0.6330 -0.4639 -0.4232
  743SOL     OW 2969   2.516   1.238   2.727  0.0367 -0.5096  0.1308
  743SOL    HW1 2970   2.425   1.228   2.712  3.2742 -0.8005  0.8013
  743SOL    HW2 2971   2.546   1.168   2.773 -1.8222 -0.3211  0.6348
  743SOL     MW 2972   2.508   1.227   2.731  0.2186 -0.5231  0.2858
  744SOL     OW 2973   2.795   0.995   1.828 -0.5989  0.3398 -0.6400
  744SOL    HW1 2974   2.719   1.045   1.862  0.3004  0.0813 -0.1938
  744SOL    HW2 2975   2.761   0.940   1.757 -2.0204 -1.3486  0.4323
  744SOL     MW 2976   2.780   0.995   1.823 -0.6678  0.0829 -0.4397
  745SOL     OW 2977   1.782   0.431   2.460 -0.3973 -0.5298  0.0193
  745SOL    HW1 2978   1.765   0.446   2.366 -1.5821  0.4989  0.0487
  745SOL    HW2 2979   1.705   0.384   2.495 -0.5988 -0.9495 -2.1640
  745SOL     MW 2980   1.770   0.427   2.452 -0.5802 -0.4495 -0.2649
  746SOL     OW 2981   1.504   1.464   1.672 -0.1317 -0.4219 -0.4907
  746SOL    HW1 2982   1.552   1.522   1.730  1.0166 -3.8523  0.6725
  746SOL    HW2 2983   1.494   1.387   1.733  1.0855 -1.2804 -0.6201
  746SOL     MW 2984   1.509   1.462   1.688  0.1804 -0.9878 -0.3543
  747SOL     OW 2985   2.551   1.136   1.908  0.1208  0.3166  0.1362
  747SOL    HW1 2986   2.468   1.128   1.856  2.7480  1.9709 -1.8716
  747SOL    HW2 2987   2.543   1.226   1.941  0.9594 -0.6981 -0.7094
  747SOL     MW 2988   2.539   1.147   1.906  0.5781  0.4010 -0.2403
  748SOL     OW 2989   0.081   3.050   1.899  0.1288 -0.2468 -0.3677
  748SOL    HW1 2990   0.165   3.065   1.942  0.1688  2.5417 -1.5670
  748SOL    HW2 2991   0.027   3.106   1.947 -1.2536 -1.2779 -2.2763
  748SOL     MW 2992   0.085   3.060   1.911 -0.0483 -0.0149 -0.7778
  749SOL     OW 2993   2.457   0.571   2.774 -0.3463 -0.4018  0.3843
  749SOL    HW1 2994   2.489   0.647   2.719 -0.7773  1.3792 -1.3038
  749SOL    HW2 2995   2.463   0.602   2.858  0.2521  0.1983 -1.8649
  749SOL     MW 2996   2.462   0.586   2.777 -0.3242 -0.0877 -0.1352
  750SOL     OW 2997   2.077   3.059   1.944  0.3084  0.1530 -0.4125
  750SOL    HW1 2998   2.121   3.140   1.963 -0.5742 -3.8944  0.2852
  750SOL    HW2 2999   2.145   2.984   1.963  1.0705  0.9033  0.3715
  750SOL     MW 3000   2.092   3.060   1.949  0.2925 -0.2820 -0.2170
  751SOL     OW 3001   0.015   0.370   2.400  0.4096  0.0864 -0.0157
  751SOL    HW1 3002  -0.074   0.373   2.374  0.5260 -0.1845  1.5144
  751SOL    HW2 3003   0.067   0.352   2.320 -1.9474 -3.6432  0.9274
  751SOL     MW 3004   0.010   0.368   2.386  0.1140 -0.4414  0.3106
  752SOL     OW 3005   2.132   0.895   2.749  0.1881 -0.4026 -0.1093
  752SOL    HW1 3006   2.214   0.940   2.726 -2.4046  1.5066 -0.0140
  752SOL    HW2 3007   2.138   0.882   2.846  1.6314  0.4646 -1.4354
  752SOL     MW 3008   2.144   0.899   2.759  0.0364 -0.0363 -0.2717
  753SOL     OW 3009   2.862   0.429   2.343  0.1568  0.0160  0.3922
  753SOL    HW1 3010   2.824   0.344   2.365  3.4083 -1.0918  0.8298
  753SOL    HW2 3011   2.797   0.494   2.372  1.1539 -1.8516  1.5611
  753SOL     MW 3012   2.848   0.427   2.349  0.7173 -0.3766  0.6042
  754SOL     OW 3013   2.250   3.007   2.598 -0.3336  0.1457  0.0659
  754SOL    HW1 3014   2.278   2.990   2.503  0.8315 -0.1781 -0.4045
  754SOL    HW2 3015   2.326   2.968   2.651  0.2582  0.1929  0.8914
  754SOL     MW 3016   2.264   2.999   2.592 -0.1018  0.1092  0.1127
  755SOL     OW 3017   2.784   1.595   2.495  0.4629 -0.6211  0.2103
  755SOL    HW1 3018   2.715   1.527   2.505 -2.9294  2.5029 -0.5875
  755SOL    HW2 3019   2.814   1.621   2.580 -0.6327 -0.3928 -0.0871
  755SOL     MW 3020   2.779   1.589   2.507 -0.1292 -0.1788  0.0658
  756SOL     OW 3021   2.253   1.273   2.986  0.1842  0.0523  0.1471
  756SOL    HW1 3022   2.331   1.329   2.998  1.7998 -0.0626  1.6979
  756SOL    HW2 3023   2.299   1.191   2.995 -0.9376 -0.7679 -0.8446
  756SOL     MW 3024   2.269   1.269   2.988  0.2494 -0.0710  0.2208
  757SOL     OW 3025   2.189   0.941   1.644 -0.4189  0.3263  0.0496
  757SOL    HW1 3026   2.189   0.844   1.645 -0.9126 -1.5743  0.1854
  757SOL    HW2 3027   2.103   0.954   1.610  0.8335 -0.5852  0.8395
  757SOL     MW 3028   2.178   0.930   1.639 -0.3188 -0.0448  0.1718
  758SOL     OW 3029   2.264   1.775   2.632  0.0722 -0.5536  0.1912
  758SOL    HW1 3030   2.254   1.812   2.542 -0.2496 -2.6678  1.1506
  758SOL    HW2 3031   2.354   1.771   2.660  2.1580 -0.5953  0.2634
  758SOL     MW 3032   2.274   1.779   2.624  0.3049 -0.8381  0.3273
  759SOL     OW 3033   1.546   1.423   2.790  0.3869 -0.1524  0.1909
  759SOL    HW1 3034   1.510   1.513   2.771 -1.3570 -2.8382 -0.1471
  759SOL    HW2 3035   1.591   1.430   2.872 -1.1253  0.3245  1.9338
  759SOL     MW 3036   1.547   1.436   2.798 -0.0427 -0.4439  0.3763
  760SOL     OW 3037   2.685   1.984   2.669  0.9133  0.1237 -0.1031
  760SOL    HW1 3038   2.633   1.904   2.670  2.4267  3.8812  0.1226
  760SOL    HW2 3039   2.759   1.977   2.610 -2.3175 -2.0776  0.4452
  760SOL     MW 3040   2.688   1.973   2.661  0.6867  0.3290 -0.0009
  761SOL     OW 3041   2.164   0.442   2.450 -0.2599 -0.4470  0.1214
  761SOL    HW1 3042   2.106   0.371   2.482 -2.8465 -1.2103  2.7800
  761SOL    HW2 3043   2.143   0.510   2.523 -0.7634 -2.1242  1.3914
  761SOL     MW 3044   2.153   0.442   2.464 -0.6676 -0.7690  0.6398
  762SOL     OW 3045   0.023   0.158   2.095  0.1419 -0.1098 -0.1297
  762SOL    HW1 3046   0.027   0.102   2.174  0.7313  2.8351  1.7569
  762SOL    HW2 3047  -0.043   0.225   2.111  1.9222  1.3899 -0.4557
  762SOL     MW 3048   0.015   0.159   2.107  0.4546  0.4766  0.0762
  763SOL     OW 3049   2.455   1.148   2.358 -0.5312 -0.4700 -0.3420
  763SOL    HW1 3050   2.474   1.097   2.277 -0.3735  2.3557 -0.8283
  763SOL    HW2 3051   2.519   1.216   2.375  2.2999 -2.2747  1.7515
  763SOL     MW 3052   2.466   1.150   2.349 -0.1369 -0.3353 -0.1300
  764SOL     OW 3053   0.325   0.177   2.809 -0.4131 -0.3001  0.2918
  764SOL    HW1 3054   0.256   0.200   2.752 -1.1182 -0.7480  1.6797
  764SOL    HW2 3055   0.350   0.255   2.856  2.9908 -2.2563 -0.0311
  764SOL     MW 3056   0.319   0.190   2.808 -0.0570 -0.6173  0.4323
  765SOL     OW 3057   2.750   0.162   2.314 -0.3193 -0.4807 -0.2423
  765SOL    HW1 3058   2.691   0.125   2.246  0.0558  1.3744  0.3234
  765SOL    HW2 3059   2.802   0.084   2.345 -0.3774 -1.1200  1.0943
  765SOL     MW 3060   2.749   0.147   2.309 -0.2774 -0.3203  0.0087
  766SOL     OW 3061   1.843   2.998   2.106  0.0328  0.0545  0.0925
  766SOL    HW1 3062   1.911   3.028   2.047  1.1013 -1.1085  2.4781
  766SOL    HW2 3063   1.781   2.939   2.065 -1.1812  1.5309  1.1710
  766SOL     MW 3064   1.844   2.994   2.093  0.0136  0.0959  0.5495
  767SOL     OW 3065   2.690   0.612   1.893 -0.3067 -0.2221 -0.8643
  767SOL    HW1 3066   2.732   0.681   1.949 -1.2831  0.5340 -0.2647
  767SOL    HW2 3067   2.608   0.652   1.865  0.3158 -0.5005  1.0012
  767SOL     MW 3068   2.684   0.626   1.897 -0.3534 -0.1591 -0.5391
  768SOL     OW 3069   0.018   1.496   2.944 -0.4376  0.8731 -0.6837
  768SOL    HW1 3070   0.048   1.504   3.039  1.8933  1.4826 -1.5743
  768SOL    HW2 3071   0.046   1.407   2.922  0.1283 -0.0780  2.5590
  768SOL     MW 3072   0.025   1.485   2.954 -0.0554  0.8280 -0.3734
  769SOL     OW 3073   2.372   0.620   2.458 -0.3162 -0.2154 -0.5251
  769SOL    HW1 3074   2.323   0.535   2.443  0.4353  0.9129 -1.2902
  769SOL    HW2 3075   2.416   0.628   2.375 -1.7554 -1.7260 -1.9521
  769SOL     MW 3076   2.371   0.610   2.445 -0.4069 -0.2658 -0.8143
  770SOL     OW 3077   0.057   1.606   2.582  0.0218  0.0305 -0.8481
  770SOL    HW1 3078  -0.024   1.637   2.624 -0.3578 -1.0188 -0.6628
  770SOL    HW2 3079   0.072   1.514   2.609 -0.8438  2.6077 -0.9042
  770SOL     MW 3080   0.049   1.598   2.591 -0.1425  0.2321 -0.8310
  771SOL     OW 3081   3.012   0.599   1.972  0.5995  0.6252  0.0520
  771SOL    HW1 3082   2.998   0.578   1.876 -0.2946 -2.4591 -0.0532
  771SOL    HW2 3083   3.105   0.577   1.978 -3.5838  2.3191  1.2477
  771SOL     MW 3084   3.022   0.593   1.960 -0.0704  0.4418  0.1959
  772SOL     OW 3085   0.044   0.009   2.315  0.1235  0.3602  0.4322
  772SOL    HW1 3086  -0.041  -0.018   2.351  1.4712 -1.1156  2.5045
  772SOL    HW2 3087   0.076  -0.074   2.279 -2.2280  1.1126 -0.7396
  772SOL     MW 3088   0.037  -0.006   2.315 -0.0090  0.2648  0.5510
  773SOL     OW 3089   2.422   2.888   2.778 -0.8156  0.7926 -0.4820
  773SOL    HW1 3090   2.438   2.802   2.741 -0.6106 -2.3188 -1.0516
  773SOL    HW2 3091   2.407   2.872   2.872 -0.5350  2.5294 -0.5040
  773SOL     MW 3092   2.422   2.875   2.785 -0.7515  0.6113 -0.5600
  774SOL     OW 3093   2.299   1.174   1.805 -0.1220 -0.0782 -0.1074
  774SOL    HW1 3094   2.291   1.257   1.751  0.3022 -0.8446 -2.6297
  774SOL    HW2 3095   2.263   1.104   1.751  3.1518  2.6483 -0.0093
  774SOL     MW 3096   2.293   1.176   1.791  0.3659  0.1804 -0.4272
  775SOL     OW 3097   2.325   2.974   2.332  0.6407 -0.4703  0.0585
  775SOL    HW1 3098   2.326   3.049   2.267  0.3537 -0.3114  0.9440
  775SOL    HW2 3099   2.377   2.906   2.293 -0.3922 -0.1424 -1.8121
  775SOL     MW 3100   2.332   2.975   2.318  0.4665 -0.4061 -0.0715
  776SOL     OW 3101   0.106   1.502   0.091  0.0640  0.3091 -0.4240
  776SOL    HW1 3102   0.204   1.488   0.082  0.4887 -0.1181 -0.4937
  776SOL    HW2 3103   0.077   1.431   0.145  3.0643 -0.2889 -0.8774
  776SOL     MW 3104   0.115   1.491   0.097  0.5159  0.1738 -0.4930
  777SOL     OW 3105   3.004   1.107   1.716 -0.0697 -0.3999 -0.0057
  777SOL    HW1 3106   2.986   1.173   1.655 -0.1962 -1.2544 -0.2478
  777SOL    HW2 3107   2.927   1.074   1.760  1.8019  1.0127  1.7034
  777SOL     MW 3108   2.992   1.111   1.713  0.1605 -0.3263  0.1878
  778SOL     OW 3109   2.825   0.453   2.726  0.2586  0.6713  0.1693
  778SOL    HW1 3110   2.787   0.462   2.817  0.5285  2.1581 -2.4302
  778SOL    HW2 3111   2.864   0.539   2.700 -1.0107 -1.2066 -0.2232
  778SOL     MW 3112   2.825   0.465   2.734  0.1268  0.6197 -0.2255
  779SOL     OW 3113   2.255   0.549   2.199 -0.0355  0.0804 -0.0020
  779SOL    HW1 3114   2.206   0.631   2.185  0.8328 -1.2981 -3.0684
  779SOL    HW2 3115   2.215   0.507   2.270  0.7164 -2.0898  0.0234
  779SOL     MW 3116   2.243   0.555   2.206  0.1783 -0.3878 -0.4032
  780SOL     OW 3117   0.132   0.313   2.673  0.5308  0.1365 -0.0688
  780SOL    HW1 3118   0.065   0.344   2.737  0.1791 -2.0059 -0.1808
  780SOL    HW2 3119   0.153   0.384   2.610 -0.8107 -2.9258 -0.0854
  780SOL     MW 3120   0.126   0.327   2.673  0.3074 -0.5502 -0.0858
  781SOL     OW 3121   3.068   1.296   2.464 -0.6819  0.1780  0.1426
  781SOL    HW1 3122   3.079   1.361   2.399  2.1112  0.0133  0.5920
  781SOL    HW2 3123   3.090   1.218   2.416  0.1617  0.6381 -0.5693
  781SOL     MW 3124   3.072   1.294   2.449 -0.2021  0.2170  0.1080
  782SOL     OW 3125   0.662   1.582   0.014  0.3610 -0.1641  0.1888
  782SOL    HW1 3126   0.578   1.608  -0.029 -3.7783 -0.6570 -2.1853
  782SOL    HW2 3127   0.661   1.617   0.098 -1.5672  1.7911 -1.2008
  782SOL     MW 3128   0.651   1.590   0.019 -0.4396  0.0289 -0.3078
  783SOL     OW 3129   2.693   0.637   2.444  0.4831 -0.0288 -0.1775
  783SOL    HW1 3130   2.630   0.642   2.375 -0.6594 -1.5044  0.3754
  783SOL    HW2 3131   2.642   0.570   2.493 -1.9465 -0.1187  1.4910
  783SOL     MW 3132   2.678   0.629   2.441  0.0118 -0.2353  0.1156
  784SOL     OW 3133   0.135   0.811   2.859 -0.4787 -0.5402  0.0357
  784SOL    HW1 3134   0.060   0.865   2.861 -2.5775  0.4140 -0.2030
  784SOL    HW2 3135   0.180   0.835   2.774 -0.8606 -0.7932 -0.6559
  784SOL     MW 3136   0.131   0.822   2.848 -0.8060 -0.4477 -0.0870
  785SOL     OW 3137   0.417   0.478   2.172 -0.1616  0.1397 -0.4145
  785SOL    HW1 3138   0.426   0.488   2.078 -0.4544  3.6566  2.7787
  785SOL    HW2 3139   0.348   0.414   2.194  2.8565  2.4762  1.3201
  785SOL     MW 3140   0.409   0.471   2.162  0.1980  0.9120  0.2357
  786SOL     OW 3141   1.924   0.375   2.962  0.4267 -0.6742  0.0473
  786SOL    HW1 3142   1.918   0.467   2.982  1.3388 -3.6536  0.0603
  786SOL    HW2 3143   1.959   0.376   2.875 -0.7621 -0.2397 -1.3103
  786SOL     MW 3144   1.928   0.388   2.953  0.3902 -1.0100 -0.1301
  787SOL     OW 3145   2.470   0.097   2.971  0.3324  0.1762 -0.3482
  787SOL    HW1 3146   2.529   0.029   2.933 -1.6845  1.6948 -1.0194
  787SOL    HW2 3147   2.519   0.165   3.022  0.5518  1.1722 -0.5565
  787SOL     MW 3148   2.484   0.097   2.973  0.0952  0.5080 -0.4642
  788SOL     OW 3149   2.863   3.029   2.418  0.0288 -0.2706 -0.8235
  788SOL    HW1 3150   2.881   2.992   2.503 -3.0411  1.8445 -1.2255
  788SOL    HW2 3151   2.868   2.959   2.356  0.4744 -0.6771 -1.4681
  788SOL     MW 3152   2.866   3.015   2.421 -0.3174 -0.0451 -0.9616
  789SOL     OW 3153   0.077   0.200   3.035  0.2120  0.2829  0.0107
  789SOL    HW1 3154   0.021   0.133   3.075  0.8077  0.0598 -2.9844
  789SOL    HW2 3155   0.016   0.257   2.995  1.6230  0.1611  1.1201
  789SOL     MW 3156   0.062   0.198   3.035  0.4767  0.2374 -0.2381
  790SOL     OW 3157   3.105   1.061   2.328  0.4469 -0.3804 -0.1411
  790SOL    HW1 3158   3.053   1.021   2.395 -0.5445  0.8169  0.2016
  790SOL    HW2 3159   3.045   1.086   2.254 -1.5246  2.0859 -0.5607
  790SOL     MW 3160   3.090   1.059   2.327  0.0560  0.1030 -0.1513
  791SOL     OW 3161   2.586   0.416   2.577  0.7149 -0.2073 -0.0788
  791SOL    HW1 3162   2.511   0.431   2.641  1.0951 -0.9776  1.9487
  791SOL    HW2 3163   2.664   0.438   2.633  2.7151 -1.4564  2.3433
  791SOL     MW 3164   2.587   0.421   2.593  1.0290 -0.4738  0.5083
  792SOL     OW 3165   2.337   0.198   2.413  0.2803  0.5262  0.2504
  792SOL    HW1 3166   2.284   0.275   2.414 -3.3259 -0.1456 -0.7968
  792SOL    HW2 3167   2.363   0.170   2.498 -0.9730 -0.2679 -0.6894
  792SOL     MW 3168   2.334   0.204   2.424 -0.3609  0.3328 -0.0118
  793SOL     OW 3169   1.967   1.214   1.974  0.0035  0.2799 -0.2104
  793SOL    HW1 3170   1.924   1.219   1.892  1.7977 -2.3759 -0.5811
  793SOL    HW2 3171   2.022   1.137   1.948 -0.9285 -1.2964 -1.1265
  793SOL     MW 3172   1.968   1.205   1.959  0.1173 -0.2785 -0.3801
  794SOL     OW 3173   1.400   2.370   0.133 -0.0613  0.0696 -0.0899
  794SOL    HW1 3174   1.450   2.393   0.060 -1.4547 -3.1815 -2.1662
  794SOL    HW2 3175   1.462   2.374   0.210  1.0091  0.3718  0.1087
  794SOL     MW 3176   1.415   2.374   0.133 -0.1039 -0.3195 -0.3377
  795SOL     OW 3177   2.305   1.017   2.552  0.1955  1.1356  0.3485
  795SOL    HW1 3178   2.276   1.096   2.601 -0.1707 -1.0330  1.6423
  795SOL    HW2 3179   2.367   1.057   2.494 -0.0831 -0.0739 -0.6883
  795SOL     MW 3180   2.309   1.032   2.551  0.1104  0.6899  0.3824
  796SOL     OW 3181   0.230   0.565   2.779 -0.2720 -0.9015  0.0090
  796SOL    HW1 3182   0.200   0.635   2.843 -1.3723  0.9532  0.7345
  796SOL    HW2 3183   0.170   0.579   2.704 -0.7005  1.5969 -1.0358
  796SOL     MW 3184   0.218   0.576   2.777 -0.4737 -0.3272 -0.0331
  797SOL     OW 3185   2.613   0.143   2.585  0.0613 -1.0110  0.2596
  797SOL    HW1 3186   2.580   0.236   2.607  1.7802  3.9754  0.3080
  797SOL    HW2 3187   2.626   0.150   2.494  2.2988  1.5981 -0.4947
  797SOL     MW 3188   2.610   0.156   2.576  0.5833 -0.0089  0.1664
  798SOL     OW 3189   2.300   0.106   2.171 -0.3070  0.4748  0.4282
  798SOL    HW1 3190   2.306   0.170   2.239 -1.7555 -0.0152 -1.6870
  798SOL    HW2 3191   2.394   0.097   2.148 -1.3888 -1.8668 -2.4433
  798SOL     MW 3192   2.313   0.113   2.177 -0.6409  0.1012 -0.2297
  799SOL     OW 3193   2.560   2.925   0.112 -0.0585 -0.4129 -0.3523
  799SOL    HW1 3194   2.484   2.909   0.054 -0.6606  0.5690 -0.4355
  799SOL    HW2 3195   2.518   2.943   0.196 -1.4511 -1.3235  1.9148
  799SOL     MW 3196   2.545   2.926   0.115 -0.3217 -0.4035 -0.0642
  800SOL     OW 3197   1.930   0.021   1.696  0.5851 -0.6441 -0.0955
  800SOL    HW1 3198   1.874  -0.054   1.696  0.5822 -0.7616  0.8038
  800SOL    HW2 3199   1.984   0.007   1.774 -0.8699  1.0651 -1.6509
  800SOL     MW 3200   1.929   0.009   1.706  0.3928 -0.4341 -0.1821
  801SOL     OW 3201   2.815   1.260   2.609 -0.0868  0.1932 -0.3082
  801SOL    HW1 3202   2.791   1.169   2.596 -0.4680  1.4351 -1.7485
  801SOL    HW2 3203   2.902   1.276   2.575  2.0502 -1.3430  0.3029
  801SOL     MW 3204   2.823   1.250   2.603  0.1449  0.1544 -0.4176
  802SOL     OW 3205   2.594   1.496   2.796  0.8348  0.7046 -0.5784
  802SOL    HW1 3206   2.569   1.406   2.760  0.7224 -1.1657  2.5371
  802SOL    HW2 3207   2.676   1.468   2.844 -1.3236  0.1145 -0.9553
  802SOL     MW 3208   2.601   1.481   2.797  0.5352  0.3800 -0.2171
  803SOL     OW 3209   2.258   1.403   2.014  0.7086 -0.3323 -0.1511
  803SOL    HW1 3210   2.215   1.373   2.096  1.4269  3.5022  0.4614
  803SOL    HW2 3211   2.255   1.340   1.943 -0.9715  2.6886 -1.6619
  803SOL     MW 3212   2.252   1.390   2.016  0.5817  0.5722 -0.2696
  804SOL     OW 3213   2.261   0.103   0.045  0.1692 -0.2589  0.2762
  804SOL    HW1 3214   2.206   0.177   0.006 -2.6659 -2.1604  4.3256
  804SOL    HW2 3215   2.341   0.098  -0.012 -0.8869 -0.2875  0.9581
  804SOL     MW 3216   2.264   0.112   0.032 -0.3442 -0.5135  0.9005
  805SOL     OW 3217   2.723   0.989   2.593  0.3554  0.6356 -0.5805
  805SOL    HW1 3218   2.673   0.911   2.569  0.5710  1.3356 -2.6943
  805SOL    HW2 3219   2.814   0.965   2.567 -1.0956  0.3337 -0.8144
  805SOL     MW 3220   2.728   0.975   2.587  0.1924  0.6881 -0.8903
  806SOL     OW 3221   2.557   0.628   2.216  0.0811  0.1440 -0.0013
  806SOL    HW1 3222   2.559   0.549   2.168  2.0874 -0.1906 -1.4569
  806SOL    HW2 3223   2.545   0.697   2.151 -0.1900 -1.0850 -0.7304
  806SOL     MW 3224   2.555   0.627   2.201  0.3101 -0.0623 -0.2896
  807SOL     OW 3225   0.083   1.147   2.067 -0.5439  0.6074 -0.2037
  807SOL    HW1 3226   0.087   1.056   2.085 -1.3320 -0.3397 -0.9712
  807SOL    HW2 3227  -0.007   1.159   2.062  1.7918  2.3899 -0.6349
  807SOL     MW 3228   0.072   1.137   2.069 -0.3397  0.7176 -0.3619
  808SOL     OW 3229   2.662   3.036   2.809 -0.1928  0.2120  0.3950
  808SOL    HW1 3230   2.615   2.957   2.778 -1.4146 -1.6276 -1.1800
  808SOL    HW2 3231   2.666   3.098   2.739  2.3876 -0.8162  1.6197
  808SOL     MW 3232   2.656   3.034   2.795 -0.0135 -0.1664  0.3488
  809SOL     OW 3233   2.602   1.370   2.464 -0.0087 -0.0533  0.1091
  809SOL    HW1 3234   2.645   1.318   2.534  2.5624  1.8753  4.1803
  809SOL    HW2 3235   2.668   1.368   2.386  2.6403  0.7278  2.1960
  809SOL     MW 3236   2.616   1.363   2.463  0.6801  0.3042  0.9216
  810SOL     OW 3237   2.223   1.328   2.288  0.2650  0.0565 -0.2310
  810SOL    HW1 3238   2.284   1.259   2.303 -0.9586 -0.7238  0.4914
  810SOL    HW2 3239   2.156   1.317   2.351 -1.1023  0.7892 -2.4511
  810SOL     MW 3240   2.222   1.317   2.298 -0.0768  0.0502 -0.4286
  811SOL     OW 3241   1.545   0.140   2.300  0.1032  0.0490 -0.2884
  811SOL    HW1 3242   1.613   0.081   2.336 -0.6601 -0.0242  2.0681
  811SOL    HW2 3243   1.528   0.118   2.206  0.1110 -1.9514  0.4858
  811SOL     MW 3244   1.552   0.130   2.292  0.0035 -0.2246  0.1246
  812SOL     OW 3245   1.450   2.787   2.002 -0.0157  0.0388 -0.2351
  812SOL    HW1 3246   1.540   2.805   1.966 -1.8577 -0.3062 -1.4023
  812SOL    HW2 3247   1.465   2.799   2.094 -0.8895 -1.1773 -0.8787
  812SOL     MW 3248   1.464   2.791   2.009 -0.3740 -0.1672 -0.4740
  813SOL     OW 3249   1.951   0.696   2.261 -0.4854  0.7206 -0.1061
  813SOL    HW1 3250   1.891   0.621   2.233 -0.4658  0.5783  1.3851
  813SOL    HW2 3251   1.905   0.734   2.333 -1.6596 -2.1417 -0.0368
  813SOL     MW 3252   1.937   0.691   2.266 -0.6378  0.3242  0.0998
  814SOL     OW 3253   2.697   1.277   1.644 -0.0028 -0.7166  0.0583
  814SOL    HW1 3254   2.659   1.240   1.720 -1.8757  1.8585 -4.2388
  814SOL    HW2 3255   2.691   1.214   1.579 -2.0775  1.0706  1.8040
  814SOL     MW 3256   2.692   1.264   1.646 -0.5236 -0.1411 -0.2783
  815SOL     OW 3257   2.563   1.726   2.423 -0.8267  0.4877  0.4764
  815SOL    HW1 3258   2.497   1.669   2.394  1.8474 -2.3353  2.1585
  815SOL    HW2 3259   2.648   1.685   2.413  0.4962 -1.3157 -0.7376
  815SOL     MW 3260   2.565   1.713   2.418 -0.2993 -0.1227  0.5382
  816SOL     OW 3261   0.734   0.720   2.737  0.7120  0.2601  0.5404
  816SOL    HW1 3262   0.710   0.648   2.797  1.8161 -2.3554  1.2687
  816SOL    HW2 3263   0.650   0.732   2.700  0.2287  1.5486 -0.5169
  816SOL     MW 3264   0.720   0.712   2.740  0.7939  0.0850  0.4970
  817SOL     OW 3265   3.016   1.217   1.453 -0.3024 -0.2042 -0.0599
  817SOL    HW1 3266   3.104   1.189   1.475 -1.4027  2.2159 -1.4187
  817SOL    HW2 3267   3.020   1.311   1.419  2.2133  1.8404  1.5528
  817SOL     MW 3268   3.028   1.226   1.451 -0.1156  0.3849 -0.0264
  818SOL     OW 3269   1.887   1.056   2.711 -0.2214  0.7654 -0.4492
  818SOL    HW1 3270   1.864   1.005   2.627 -0.7370  1.3319 -1.0354
  818SOL    HW2 3271   1.971   1.015   2.735 -0.5473  0.8428 -1.1410
  818SOL     MW 3272   1.895   1.044   2.703 -0.3325  0.8504 -0.6178
  819SOL     OW 3273   1.967   0.231   2.496 -0.5459 -0.5013 -0.8437
  819SOL    HW1 3274   1.896   0.293   2.462  2.1235  0.2142 -1.3044
  819SOL    HW2 3275   1.978   0.242   2.591 -0.6785 -0.9613 -0.0486
  819SOL     MW 3276   1.959   0.241   2.504 -0.2112 -0.4676 -0.7996
  820SOL     OW 3277   2.539   1.736   2.707  0.3334 -0.1897  0.0009
  820SOL    HW1 3278   2.552   1.643   2.740 -1.3279 -3.3320 -1.5655
  820SOL    HW2 3279   2.532   1.731   2.610 -0.4689 -1.7170 -0.4283
  820SOL     MW 3280   2.540   1.723   2.698  0.0083 -0.8058 -0.2624
  821SOL     OW 3281   2.592   1.410   2.036  0.4423  0.6217  0.2077
  821SOL    HW1 3282   2.623   1.444   1.950 -3.5314  1.4319  1.3155
  821SOL    HW2 3283   2.496   1.423   2.044 -2.4849 -0.9735 -2.6034
  821SOL     MW 3284   2.583   1.417   2.026 -0.4682  0.5181 -0.0170
  822SOL     OW 3285   2.749   2.657   1.390 -0.2547  0.1629  0.4584
  822SOL    HW1 3286   2.792   2.677   1.471 -0.2097  0.3367 -2.4634
  822SOL    HW2 3287   2.666   2.696   1.389 -1.0253  0.5231 -0.0962
  822SOL     MW 3288   2.744   2.665   1.400 -0.3505  0.2334 -0.0003
  823SOL     OW 3289   2.360   0.478   1.765 -0.1748  0.0083  0.2838
  823SOL    HW1 3290   2.427   0.443   1.707 -3.7664 -1.9254  4.8872
  823SOL    HW2 3291   2.295   0.405   1.764  0.6086 -2.2309  0.6682
  823SOL     MW 3292   2.360   0.464   1.757 -0.5453 -0.5423  0.9419
  824SOL     OW 3293   2.144   1.464   2.553  0.1159  0.0132  0.4994
  824SOL    HW1 3294   2.209   1.526   2.519 -1.6343  0.4865  0.2549
  824SOL    HW2 3295   2.102   1.512   2.622 -1.0825 -0.9034 -2.3540
  824SOL     MW 3296   2.147   1.479   2.557 -0.2731 -0.0453  0.0907
  825SOL     OW 3297   1.857   2.533   0.281 -0.0550 -0.3513  0.9029
  825SOL    HW1 3298   1.866   2.483   0.366  3.0636 -0.7228  2.1561
  825SOL    HW2 3299   1.947   2.526   0.239 -0.6165  2.8490 -0.6357
  825SOL     MW 3300   1.870   2.526   0.287  0.2824  0.0219  0.8652
  826SOL     OW 3301   1.856   2.391   0.543 -0.2718  0.3978 -0.1539
  826SOL    HW1 3302   1.810   2.311   0.574 -0.9916 -0.9615 -1.6038
  826SOL    HW2 3303   1.827   2.462   0.603  2.4958  0.1404 -1.5908
  826SOL     MW 3304   1.846   2.390   0.555 -0.0016  0.1845 -0.5348
  827SOL     OW 3305   1.944   2.184   0.909  0.1955  0.4133  0.5807
  827SOL    HW1 3306   1.871   2.199   0.844  1.1195  0.2563 -0.5099
  827SOL    HW2 3307   1.905   2.116   0.966 -0.8001  2.2673 -0.8278
  827SOL     MW 3308   1.929   2.177   0.908  0.1860  0.6372  0.2510
  828SOL     OW 3309   0.058   2.569   0.612 -0.0478 -0.0445  0.3473
  828SOL    HW1 3310   0.146   2.562   0.580 -2.8138  0.7064 -2.4265
  828SOL    HW2 3311   0.020   2.585   0.528  0.3378 -0.5870 -0.2088
  828SOL     MW 3312   0.065   2.570   0.597 -0.3619 -0.0170 -0.0920
  829SOL     OW 3313   2.971   2.974   1.149 -0.3864  0.0958 -0.1129
  829SOL    HW1 3314   2.891   2.929   1.119 -1.0546 -3.1028 -0.2255
  829SOL    HW2 3315   3.038   2.916   1.113  1.1685  0.6113 -0.1630
  829SOL     MW 3316   2.969   2.960   1.140 -0.2694 -0.2582 -0.1343
  830SOL     OW 3317   2.534   2.862   2.027 -0.3024  0.4884 -0.0031
  830SOL    HW1 3318   2.439   2.878   2.003 -2.0663  0.9976 -1.0508
  830SOL    HW2 3319   2.576   2.811   1.957 -2.1623 -0.1451  0.6896
  830SOL     MW 3320   2.527   2.857   2.014 -0.7805  0.4720 -0.0499
  831SOL     OW 3321   2.397   2.500   1.237  0.3868  0.0165  0.3053
  831SOL    HW1 3322   2.345   2.438   1.295 -0.6128 -1.2668  0.3913
  831SOL    HW2 3323   2.475   2.453   1.209 -2.9660  1.0712  1.1488
  831SOL     MW 3324   2.400   2.486   1.241 -0.1875 -0.0137  0.4279
  832SOL     OW 3325   2.369   2.201   1.924 -0.1605 -0.3016  0.0124
  832SOL    HW1 3326   2.410   2.286   1.952 -0.6477  1.7052  2.1920
  832SOL    HW2 3327   2.455   2.149   1.908 -0.0963  0.3137 -0.3616
  832SOL     MW 3328   2.386   2.205   1.926 -0.2163  0.0444  0.2506
  833SOL     OW 3329   1.755   2.433   0.900  0.1711 -0.4146 -0.1515
  833SOL    HW1 3330   1.664   2.394   0.901 -0.3377 -0.1568 -2.4811
  833SOL    HW2 3331   1.735   2.504   0.951 -0.3779 -4.5381 -2.5513
  833SOL     MW 3332   1.740   2.437   0.907  0.0316 -0.9246 -0.7755
  834SOL     OW 3333   2.116   2.473   0.593  0.6563  0.4658 -0.2296
  834SOL    HW1 3334   2.024   2.444   0.567 -2.2148  0.1267  3.0930
  834SOL    HW2 3335   2.158   2.441   0.514  2.7458  1.4777  0.5566
  834SOL     MW 3336   2.109   2.465   0.579  0.5532  0.5546  0.3125
  835SOL     OW 3337   1.763   2.599   0.673  0.1987 -0.0156 -0.6126
  835SOL    HW1 3338   1.734   2.553   0.757 -0.9878 -1.9073 -0.4819
  835SOL    HW2 3339   1.832   2.655   0.698 -2.0016 -1.0267 -3.1279
  835SOL     MW 3340   1.769   2.601   0.687 -0.2481 -0.3986 -0.9272
  836SOL     OW 3341   1.902   2.206   1.625 -0.1972 -0.4440 -0.4782
  836SOL    HW1 3342   1.982   2.243   1.664 -2.1245  2.0001 -0.2978
  836SOL    HW2 3343   1.835   2.265   1.657  0.7873 -0.1428 -1.0122
  836SOL     MW 3344   1.904   2.218   1.634 -0.3216 -0.0818 -0.5249
  837SOL     OW 3345   2.084   0.143   0.698  0.4130  0.0201  0.6962
  837SOL    HW1 3346   2.004   0.188   0.662 -0.9013 -1.4266 -0.0041
  837SOL    HW2 3347   2.100   0.063   0.646 -1.6747 -1.7546 -1.5125
  837SOL     MW 3348   2.075   0.138   0.687 -0.0359 -0.4049  0.3124
  838SOL     OW 3349   2.928   2.084   0.932  0.3117  0.3222  0.2017
  838SOL    HW1 3350   2.862   2.059   0.996  0.7095 -0.7054  0.5167
  838SOL    HW2 3351   2.985   2.006   0.929 -1.0583  0.3189 -0.2613
  838SOL     MW 3352   2.927   2.070   0.940  0.1834  0.1862  0.1821
  839SOL     OW 3353   1.508   2.327   0.968  0.0822  0.3446 -0.2875
  839SOL    HW1 3354   1.497   2.396   1.037 -1.8100  0.8595 -0.8386
  839SOL    HW2 3355   1.522   2.249   1.024 -3.4771 -0.8065 -1.8127
  839SOL     MW 3356   1.508   2.326   0.985 -0.6371  0.2606 -0.5615
  840SOL     OW 3357   2.374   2.120   2.432 -0.4126  0.1131 -0.0375
  840SOL    HW1 3358   2.296   2.159   2.416  0.1279 -3.7643  0.0492
  840SOL    HW2 3359   2.402   2.179   2.504  0.7562 -0.5883  0.4517
  840SOL     MW 3360   2.368   2.133   2.439 -0.1871 -0.4910  0.0385
  841SOL     OW 3361   2.070   2.471   0.138 -0.0238  0.8622 -0.1210
  841SOL    HW1 3362   2.138   2.500   0.073 -0.3937  0.7456  0.9092
  841SOL    HW2 3363   2.063   2.374   0.124 -0.6818  0.3090  0.1946
  841SOL     MW 3364   2.078   2.462   0.128 -0.1594  0.7738  0.0566
  842SOL     OW 3365   2.565   2.063   1.531  0.0300 -0.6505  0.6143
  842SOL    HW1 3366   2.515   1.979   1.540  1.3522 -1.7060 -1.8783
  842SOL    HW2 3367   2.531   2.102   1.455  1.2293 -0.9243 -2.0224
  842SOL     MW 3368   2.554   2.057   1.522  0.3627 -0.8259 -0.0625
  843SOL     OW 3369   2.646   2.783   1.770 -0.2521  0.1561  0.4016
  843SOL    HW1 3370   2.732   2.742   1.743  4.6926 -1.6933  1.4296
  843SOL    HW2 3371   2.575   2.718   1.736 -0.3713 -3.4062  0.4100
  843SOL     MW 3372   2.648   2.769   1.762  0.3846 -0.5579  0.5383
  844SOL     OW 3373   2.595   2.331   1.178  0.1773  0.0292  0.3943
  844SOL    HW1 3374   2.636   2.353   1.094 -2.4541 -0.5322  1.8576
  844SOL    HW2 3375   2.675   2.356   1.233  0.4358 -1.7244 -1.0648
  844SOL     MW 3376   2.611   2.337   1.174 -0.1358 -0.2763  0.3949
  845SOL     OW 3377   2.835   2.482   0.293  0.6113  0.4003 -0.2667
  845SOL    HW1 3378   2.789   2.396   0.288 -0.5073  1.9406 -1.9706
  845SOL    HW2 3379   2.827   2.515   0.385 -1.8542  0.4900 -0.0547
  845SOL     MW 3380   2.828   2.475   0.305  0.1384  0.6154 -0.4635
  846SOL     OW 3381   1.515   2.899   0.746 -0.3618  0.1280  0.5379
  846SOL    HW1 3382   1.566   2.959   0.795 -0.3918 -1.7724  0.5210
  846SOL    HW2 3383   1.432   2.936   0.744  0.6515  0.3493 -0.7064
  846SOL     MW 3384   1.511   2.912   0.753 -0.2321 -0.0935  0.3715
  847SOL     OW 3385   2.623   1.929   0.181 -0.5295  0.4259  0.0211
  847SOL    HW1 3386   2.695   1.864   0.162 -0.2454 -1.7092 -4.1323
  847SOL    HW2 3387   2.552   1.887   0.126  2.9304  1.6069 -0.5889
  847SOL     MW 3388   2.623   1.915   0.171 -0.0355  0.3000 -0.6073
  848SOL     OW 3389   2.427   2.111   1.291  0.5315  0.0606  0.3109
  848SOL    HW1 3390   2.495   2.143   1.228  1.5510  1.2661 -0.9341
  848SOL    HW2 3391   2.410   2.018   1.279  1.2685 -0.8563  2.3497
  848SOL     MW 3392   2.433   2.103   1.281  0.7633  0.0987  0.4157
  849SOL     OW 3393   1.993   2.764   0.744  0.4717 -0.2115  0.1363
  849SOL    HW1 3394   2.019   2.732   0.831  1.7415 -2.2402 -2.9738
  849SOL    HW2 3395   2.072   2.784   0.704 -1.8785  2.2694  3.9997
  849SOL     MW 3396   2.007   2.763   0.750  0.3291 -0.1519  0.2357
  850SOL     OW 3397   2.205   1.983   1.711  0.1695 -0.5529  0.3968
  850SOL    HW1 3398   2.113   1.975   1.679  0.1394  0.3488  1.8450
  850SOL    HW2 3399   2.212   2.076   1.715  1.4274 -0.7705  0.3385
  850SOL     MW 3400   2.193   1.994   1.707  0.3315 -0.4626  0.5802
  851SOL     OW 3401   2.252   2.422   0.353 -0.1098 -0.0567 -0.2705
  851SOL    HW1 3402   2.198   2.467   0.279 -0.7438  0.6345 -0.6502
  851SOL    HW2 3403   2.332   2.478   0.367  1.4959  1.9850  0.6682
  851SOL     MW 3404   2.255   2.435   0.345  0.0184  0.3039 -0.1967
  852SOL     OW 3405   2.326   2.160   0.211  0.6547  0.2401  0.3055
  852SOL    HW1 3406   2.297   2.232   0.266 -0.2896  0.1737  3.1617
  852SOL    HW2 3407   2.412   2.181   0.179 -4.0182  0.5548  1.1263
  852SOL     MW 3408   2.334   2.173   0.214 -0.0864  0.2729  0.7906
  853SOL     OW 3409   2.448   2.454   1.972  0.4654  0.0198  0.1469
  853SOL    HW1 3410   2.454   2.496   1.887 -0.4449 -0.0104  0.3276
  853SOL    HW2 3411   2.539   2.437   1.990  0.6509 -1.3682  2.8021
  853SOL     MW 3412   2.461   2.457   1.963  0.3698 -0.1673  0.5211
  854SOL     OW 3413   2.818   2.273   0.768 -0.0107  0.2289  0.0988
  854SOL    HW1 3414   2.746   2.225   0.730  1.4038 -0.6518 -2.4488
  854SOL    HW2 3415   2.856   2.208   0.830 -1.3750  0.0338 -0.4984
  854SOL     MW 3416   2.813   2.258   0.771 -0.0041  0.0869 -0.3161
  855SOL     OW 3417   2.682   2.265   0.364  0.2118 -0.0670  0.1153
  855SOL    HW1 3418   2.658   2.332   0.437  1.2732  1.1004  0.7576
  855SOL    HW2 3419   2.760   2.212   0.382  0.1012  1.2867  3.0671
  855SOL     MW 3420   2.689   2.267   0.376  0.3373  0.2657  0.5895
  856SOL     OW 3421   2.197   1.914   0.210  0.3047  0.0173 -0.5643
  856SOL    HW1 3422   2.100   1.923   0.223 -1.0287 -0.6242  2.5975
  856SOL    HW2 3423   2.248   1.999   0.202  1.6361  0.5977 -1.2928
  856SOL     MW 3424   2.191   1.926   0.210  0.3044  0.0093 -0.2433
  857SOL     OW 3425   2.587   1.997   0.470 -0.2662 -0.6230 -0.5449
  857SOL    HW1 3426   2.611   2.085   0.431  1.7111  2.0910 -0.5498
  857SOL    HW2 3427   2.526   1.953   0.408 -0.0472  1.0800  1.7246
  857SOL     MW 3428   2.582   2.003   0.457  0.0236 -0.0402 -0.2461
  858SOL     OW 3429   2.876   2.652   1.659 -0.7397  0.2630 -0.4514
  858SOL    HW1 3430   2.960   2.667   1.698  0.5769  1.1416 -1.1678
  858SOL    HW2 3431   2.850   2.569   1.700 -3.4590  0.0231 -1.7092
  858SOL     MW 3432   2.883   2.643   1.670 -0.9248  0.3473 -0.7119
  859SOL     OW 3433   2.103   2.529   0.878 -0.0694  0.2597  0.0280
  859SOL    HW1 3434   2.088   2.506   0.786  0.1700  1.6266  1.1807
  859SOL    HW2 3435   2.191   2.551   0.883 -2.1396  1.5844  1.0565
  859SOL     MW 3436   2.112   2.529   0.866 -0.3110  0.6148  0.3158
  860SOL     OW 3437   2.648   2.578   0.137 -0.3875  0.0537 -0.2387
  860SOL    HW1 3438   2.720   2.550   0.195 -1.5358 -1.2473 -0.8732
  860SOL    HW2 3439   2.679   2.657   0.094 -0.2384  0.4246  1.7874
  860SOL     MW 3440   2.662   2.585   0.139 -0.5193 -0.0690 -0.0551
  861SOL     OW 3441   1.533   2.145   1.160 -0.1744 -0.2923 -0.3670
  861SOL    HW1 3442   1.532   2.233   1.214 -0.3209  1.1361  4.6135
  861SOL    HW2 3443   1.494   2.074   1.209  1.0053 -5.7500 -1.7205
  861SOL     MW 3444   1.528   2.147   1.174 -0.0381 -0.8239  0.1115
  862SOL     OW 3445   2.435   1.789   1.565 -0.2582 -0.5040 -0.0771
  862SOL    HW1 3446   2.353   1.798   1.610  1.6129  1.5209  2.8331
  862SOL    HW2 3447   2.421   1.783   1.473 -0.2940  0.6539  2.0008
  862SOL     MW 3448   2.422   1.790   1.559 -0.0161 -0.0841  0.5810
  863SOL     OW 3449   0.058   1.883   1.149  0.6054  0.6914 -0.0369
  863SOL    HW1 3450   0.151   1.883   1.151  0.0176  1.5397 -0.6575
  863SOL    HW2 3451   0.029   1.959   1.200 -2.1401  4.0176 -1.3367
  863SOL     MW 3452   0.066   1.893   1.156  0.1656  1.2422 -0.2903
  864SOL     OW 3453   0.027   1.875   0.855 -0.1157  0.3653 -0.0516
  864SOL    HW1 3454   0.038   1.825   0.935  1.0250  3.9438  1.0912
  864SOL    HW2 3455  -0.013   1.819   0.784  3.0453  1.0273  1.8364
  864SOL     MW 3456   0.023   1.861   0.856  0.4519  0.9248  0.3482
  865SOL     OW 3457   2.591   2.157   0.030  0.5466 -0.1660 -0.2786
  865SOL    HW1 3458   2.621   2.082   0.084 -0.5622  0.2277 -0.6365
  865SOL    HW2 3459   2.560   2.116  -0.052  3.3863 -0.2742  0.0816
  865SOL     MW 3460   2.591   2.142   0.026  0.7750 -0.1283 -0.2783
  866SOL     OW 3461   2.652   2.314   1.621  0.6259 -0.5947 -0.3617
  866SOL    HW1 3462   2.609   2.228   1.611  1.4802  0.6096  0.0987
  866SOL    HW2 3463   2.682   2.337   1.531 -1.4849  2.2790 -1.3135
  866SOL     MW 3464   2.651   2.305   1.608  0.4601 -0.0566 -0.4265
  867SOL     OW 3465   0.025   2.658   1.805 -0.4314 -0.0392 -0.6499
  867SOL    HW1 3466   0.045   2.677   1.902  1.9202 -0.7451  0.7702
  867SOL    HW2 3467   0.019   2.740   1.760 -1.5289  0.1677  3.1925
  867SOL     MW 3468   0.027   2.672   1.812 -0.2660 -0.1051  0.0445
  868SOL     OW 3469   2.812   2.587   0.546  0.4614 -0.2265  0.0306
  868SOL    HW1 3470   2.723   2.552   0.566 -0.1572  3.2600  0.8533
  868SOL    HW2 3471   2.800   2.674   0.511 -1.2471 -1.5787  2.6710
  868SOL     MW 3472   2.798   2.594   0.544  0.1543  0.0551  0.4875
  869SOL     OW 3473   1.985   2.395   1.094  0.2974 -0.0990  0.5583
  869SOL    HW1 3474   2.005   2.458   1.024  0.4374  1.7642  0.0393
  869SOL    HW2 3475   1.954   2.324   1.029  0.0876 -1.8730 -2.7884
  869SOL     MW 3476   1.984   2.394   1.077  0.2882 -0.0872  0.0482
  870SOL     OW 3477   2.173   0.024   0.458 -0.3606  0.2680 -0.2444
  870SOL    HW1 3478   2.236   0.090   0.413  1.0578 -1.6164  0.9435
  870SOL    HW2 3479   2.205  -0.062   0.424 -2.1967  1.2160  0.2816
  870SOL     MW 3480   2.185   0.021   0.448 -0.4157  0.1444 -0.0183
  871SOL     OW 3481   2.501   2.115   0.965 -0.8741  1.1372  0.2969
  871SOL    HW1 3482   2.440   2.060   0.915  0.2694 -0.8161  1.3774
  871SOL    HW2 3483   2.452   2.188   1.006 -0.5689  2.7148  0.1752
  871SOL     MW 3484   2.486   2.117   0.964 -0.6830  1.0876  0.4234
  872SOL     OW 3485   2.053   2.561   1.435 -0.2065  0.2401  0.0919
  872SOL    HW1 3486   2.032   2.599   1.524  0.5421  1.9082 -0.1896
  872SOL    HW2 3487   1.983   2.499   1.412 -1.4050 -1.1336  0.2258
  872SOL     MW 3488   2.041   2.558   1.443 -0.2659  0.2789  0.0724
  873SOL     OW 3489   2.911   2.082   1.934 -0.0082 -0.3846 -0.0236
  873SOL    HW1 3490   2.951   2.148   1.993  3.2150  0.7451 -0.8287
  873SOL    HW2 3491   2.974   2.055   1.860  1.3204 -0.0844  0.6071
  873SOL     MW 3492   2.925   2.087   1.932  0.5924 -0.1960 -0.0466
  874SOL     OW 3493   2.381   1.536   2.391 -0.2166 -0.6832 -0.9627
  874SOL    HW1 3494   2.326   1.469   2.345  0.7985 -1.2571 -0.9851
  874SOL    HW2 3495   2.459   1.484   2.411  2.8889 -1.6288  0.8851
  874SOL     MW 3496   2.384   1.520   2.388  0.3270 -0.8837 -0.7218
  875SOL     OW 3497   2.289   2.279   1.055  0.1103 -0.0301  0.2366
  875SOL    HW1 3498   2.202   2.299   1.016 -0.5792 -0.9753 -1.0558
  875SOL    HW2 3499   2.335   2.361   1.081  0.8358 -0.7683  1.3484
  875SOL     MW 3500   2.283   2.292   1.053  0.1150 -0.2522  0.2127
  876SOL     OW 3501   3.032   2.326   1.233 -0.0610 -0.5385 -0.0743
  876SOL    HW1 3502   3.082   2.373   1.157  0.6692  0.4750 -1.4151
  876SOL    HW2 3503   3.095   2.336   1.302  1.6768 -1.4481 -0.1254
  876SOL     MW 3504   3.047   2.334   1.232  0.2646 -0.5248 -0.2579
  877SOL     OW 3505   3.077   2.763   0.394  0.1448 -0.6198 -0.1422
  877SOL    HW1 3506   3.151   2.810   0.431  0.3320  1.6117 -0.6673
  877SOL    HW2 3507   3.097   2.739   0.305  1.3202  2.2367 -0.2634
  877SOL     MW 3508   3.089   2.766   0.388  0.3246  0.0515 -0.2275
  878SOL     OW 3509   2.400   1.821   1.243  0.2587 -0.4929  0.0719
  878SOL    HW1 3510   2.342   1.746   1.263 -1.0020  0.7241  0.9763
  878SOL    HW2 3511   2.492   1.792   1.242  3.3398  2.6910  2.0292
  878SOL     MW 3512   2.405   1.808   1.246  0.4989  0.0877  0.4495
  879SOL     OW 3513   2.674   2.456   0.932  0.2711 -0.2031  0.1657
  879SOL    HW1 3514   2.748   2.502   0.971  0.1817  0.2808  0.4563
  879SOL    HW2 3515   2.707   2.377   0.881  0.8960 -2.3083  1.5502
  879SOL     MW 3516   2.688   2.452   0.930  0.3417 -0.4170  0.3867
  880SOL     OW 3517   2.550   2.184   0.673 -1.1642 -0.8097  0.2492
  880SOL    HW1 3518   2.517   2.166   0.758  1.3618  0.3452 -2.7557
  880SOL    HW2 3519   2.557   2.100   0.626  3.2489 -1.9409 -1.3850
  880SOL     MW 3520   2.546   2.170   0.678 -0.2487 -0.8066 -0.3629
  881SOL     OW 3521   2.948   2.667   0.748 -0.1345 -0.2969  0.3839
  881SOL    HW1 3522   2.879   2.620   0.698  0.0517 -3.6172 -0.7267
  881SOL    HW2 3523   3.026   2.632   0.703  1.4630 -0.4603  0.6627
  881SOL     MW 3524   2.949   2.656   0.735  0.1008 -0.7566  0.2742
  882SOL     OW 3525   2.260   2.849   1.976 -0.5775  0.8572 -0.1854
  882SOL    HW1 3526   2.237   2.852   1.881  0.5182 -2.9009 -0.4172
  882SOL    HW2 3527   2.193   2.781   2.003 -1.3971  0.1729 -2.7429
  882SOL     MW 3528   2.248   2.841   1.967 -0.5411  0.2711 -0.5534
  883SOL     OW 3529   2.312   2.318   1.437  0.3538  0.3578  0.2179
  883SOL    HW1 3530   2.364   2.255   1.384 -0.6533 -1.5859 -1.3771
  883SOL    HW2 3531   2.224   2.296   1.397  0.6465  0.1721 -0.1307
  883SOL     MW 3532   2.307   2.306   1.425  0.2596  0.0768 -0.0385
  884SOL     OW 3533   1.977   1.853   1.124  0.9556 -0.7356 -0.0705
  884SOL    HW1 3534   1.909   1.923   1.108  0.5653  1.0650  0.3472
  884SOL    HW2 3535   2.063   1.889   1.104 -0.6284  2.0747  2.9082
  884SOL     MW 3536   1.979   1.867   1.119  0.6951 -0.1272  0.3776
  885SOL     OW 3537   2.836   2.429   1.820 -0.4144  0.2960  0.4810
  885SOL    HW1 3538   2.922   2.377   1.810 -0.2228  0.3582  0.8639
  885SOL    HW2 3539   2.774   2.379   1.756 -0.7426 -1.2118  0.1510
  885SOL     MW 3540   2.839   2.415   1.810 -0.4325  0.1053  0.4880
  886SOL     OW 3541   2.797   2.367   1.344  0.2132 -0.3842 -0.4207
  886SOL    HW1 3542   2.882   2.353   1.301 -0.7539  0.9818  0.3471
  886SOL    HW2 3543   2.805   2.459   1.369  2.4453 -0.2215 -0.9890
  886SOL     MW 3544   2.809   2.377   1.342  0.3801 -0.1825 -0.3944
  887SOL     OW 3545   2.313   2.616   1.538 -0.4508 -0.2651  0.6881
  887SOL    HW1 3546   2.344   2.680   1.465 -0.3946 -2.1217  0.0014
  887SOL    HW2 3547   2.249   2.566   1.488 -1.8255  2.1909  0.6924
  887SOL     MW 3548   2.309   2.618   1.522 -0.6248 -0.1860  0.5981
  888SOL     OW 3549   1.872   2.067   1.385 -0.4572  0.2305 -0.2526
  888SOL    HW1 3550   1.955   2.108   1.355 -2.5235  1.2231 -0.3690
  888SOL    HW2 3551   1.857   2.095   1.476 -0.6501  1.2040  2.0244
  888SOL     MW 3552   1.881   2.076   1.393 -0.7553  0.4899  0.0325
  889SOL     OW 3553   2.309   1.986   2.117  0.0446 -0.1820 -0.1058
  889SOL    HW1 3554   2.388   1.980   2.169  0.9428  0.3261 -0.0439
  889SOL    HW2 3555   2.311   2.068   2.068  0.1126  0.2861  0.0470
  889SOL     MW 3556   2.319   1.996   2.117  0.1721 -0.0532 -0.0775
  890SOL     OW 3557   0.087   2.368   0.209  0.0909  0.4093 -0.0989
  890SOL    HW1 3558   0.014   2.428   0.201 -3.3087  0.2223  0.5848
  890SOL    HW2 3559   0.065   2.310   0.284 -0.4539  2.5275  0.9194
  890SOL     MW 3560   0.074   2.368   0.218 -0.4295  0.6641  0.1257
  891SOL     OW 3561   2.980   2.046   1.297 -0.0130  0.6307  0.0793
  891SOL    HW1 3562   3.056   2.051   1.362 -0.6563 -0.6375 -0.1783
  891SOL    HW2 3563   2.993   2.130   1.247  1.5154 -0.6402 -0.1870
  891SOL     MW 3564   2.992   2.057   1.299  0.1038  0.2957  0.0102
  892SOL     OW 3565   2.423   2.365   2.866  0.5532 -0.1423 -0.5314
  892SOL    HW1 3566   2.427   2.271   2.888 -1.5846  1.0977 -0.7639
  892SOL    HW2 3567   2.508   2.405   2.875  0.0058 -0.2530 -0.2130
  892SOL     MW 3568   2.434   2.358   2.870  0.1989  0.0067 -0.5201
  893SOL     OW 3569   1.588   2.400   1.257  0.1375 -0.6919  0.3669
  893SOL    HW1 3570   1.536   2.442   1.332 -1.4292 -0.1036 -0.4317
  893SOL    HW2 3571   1.674   2.393   1.298 -2.2558  0.7486  0.0957
  893SOL     MW 3572   1.593   2.404   1.272 -0.3850 -0.4242  0.2257
  894SOL     OW 3573   2.819   1.831   0.434  0.3926 -0.3288 -0.1761
  894SOL    HW1 3574   2.726   1.839   0.470 -5.5911 -0.6247  1.6442
  894SOL    HW2 3575   2.814   1.805   0.344  0.7862 -0.6838  1.5495
  894SOL     MW 3576   2.806   1.828   0.427 -0.3449 -0.4147  0.2918
  895SOL     OW 3577   2.076   2.226   1.301 -0.3891  0.1554  0.4151
  895SOL    HW1 3578   2.052   2.290   1.237  0.3564 -1.0895  2.4086
  895SOL    HW2 3579   2.129   2.161   1.248 -1.3469  0.0889  0.9143
  895SOL     MW 3580   2.080   2.226   1.286 -0.4171 -0.0176  0.7440
  896SOL     OW 3581   2.152   2.825   1.091 -0.7607 -0.0148  0.1079
  896SOL    HW1 3582   2.218   2.817   1.155 -0.5386 -0.8737 -3.5781
  896SOL    HW2 3583   2.080   2.769   1.128 -0.3152  1.0630 -0.1571
  896SOL     MW 3584   2.151   2.817   1.104 -0.6726  0.0141 -0.4134
  897SOL     OW 3585   2.989   2.907   0.096  0.0061  0.3998 -0.1543
  897SOL    HW1 3586   3.073   2.863   0.088  1.5728  0.6075 -1.5962
  897SOL    HW2 3587   2.918   2.857   0.056  5.7641  1.1876 -3.4695
  897SOL     MW 3588   2.991   2.895   0.089  0.9725  0.5312 -0.7820
  898SOL     OW 3589   2.093   0.220   1.427 -0.0708  0.9391 -0.5195
  898SOL    HW1 3590   2.034   0.147   1.419 -1.0438 -0.8914  1.4128
  898SOL    HW2 3591   2.100   0.253   1.337 -0.3086  1.5729 -0.3935
  898SOL     MW 3592   2.086   0.215   1.414 -0.2305  0.7812 -0.2480
  899SOL     OW 3593   2.909   2.919   0.662  0.2016 -0.7822 -0.2849
  899SOL    HW1 3594   2.931   2.828   0.691  0.2775 -0.2650  0.2706
  899SOL    HW2 3595   2.815   2.944   0.676  0.3545  1.0581  0.9805
  899SOL     MW 3596   2.899   2.910   0.668  0.2318 -0.4711 -0.0446
  900SOL     OW 3597   0.109   2.387   1.034 -0.6196 -0.1479  0.0257
  900SOL    HW1 3598   0.115   2.472   0.996  1.6520 -0.6373  1.2021
  900SOL    HW2 3599   0.106   2.330   0.954 -2.0714  0.2043 -0.4980
  900SOL     MW 3600   0.109   2.391   1.018 -0.5114 -0.1660  0.1118
  901SOL     OW 3601   1.800   2.860   1.666  0.0649 -0.6143  0.1661
  901SOL    HW1 3602   1.857   2.784   1.651  0.4061  1.0202  0.8752
  901SOL    HW2 3603   1.716   2.844   1.616 -2.3021  0.3966 -0.0155
  901SOL     MW 3604   1.797   2.848   1.657 -0.2024 -0.2653  0.2357
  902SOL     OW 3605   2.622   2.083   1.860  0.7752  0.3802 -0.1080
  902SOL    HW1 3606   2.633   1.992   1.839  1.2261  1.5028 -0.4349
  902SOL    HW2 3607   2.711   2.108   1.895  1.7822  0.5541 -0.1639
  902SOL     MW 3608   2.636   2.074   1.862  0.9675  0.5512 -0.1585
  903SOL     OW 3609   1.609   2.773   0.521  0.4752 -0.0548  0.0053
  903SOL    HW1 3610   1.652   2.701   0.577 -1.2739  0.2981  1.2242
  903SOL    HW2 3611   1.562   2.821   0.587  1.3750 -0.0694  0.8934
  903SOL     MW 3612   1.609   2.770   0.537  0.3631 -0.0102  0.2833
  904SOL     OW 3613   2.493   2.537   1.720 -0.1507 -0.4415 -0.1831
  904SOL    HW1 3614   2.421   2.558   1.660  1.4394  1.3102  0.8446
  904SOL    HW2 3615   2.543   2.470   1.676 -0.9602  1.8798  2.0214
  904SOL     MW 3616   2.490   2.531   1.706 -0.0477  0.0959  0.2434
  905SOL     OW 3617   2.320   2.510   2.208 -0.2812  0.4989  0.0492
  905SOL    HW1 3618   2.351   2.477   2.122  0.1105  0.4091 -0.5342
  905SOL    HW2 3619   2.269   2.437   2.261  0.8046  1.2667 -2.1580
  905SOL     MW 3620   2.317   2.496   2.204 -0.0863  0.5884 -0.3190
  906SOL     OW 3621   2.404   2.501   0.874  0.1468  0.2220  0.3647
  906SOL    HW1 3622   2.498   2.484   0.869  0.8185 -0.1654  1.7394
  906SOL    HW2 3623   2.393   2.593   0.896 -3.2193  0.7978  1.9361
  906SOL     MW 3624   2.415   2.511   0.876 -0.2087  0.2469  0.7534
  907SOL     OW 3625   2.564   2.927   1.283 -0.2151 -0.3683  0.1850
  907SOL    HW1 3626   2.643   2.944   1.339 -1.4137  2.0008  0.8784
  907SOL    HW2 3627   2.609   2.867   1.220 -0.2150  1.6715  3.5392
  907SOL     MW 3628   2.580   2.921   1.282 -0.3732  0.2134  0.7191
  908SOL     OW 3629   2.764   2.386   3.081  0.0853 -0.5802  0.2248
  908SOL    HW1 3630   2.695   2.312   3.093 -0.2645  2.8877 -0.6655
  908SOL    HW2 3631   2.715   2.462   3.113  0.3179  0.1504  1.9226
  908SOL     MW 3632   2.748   2.386   3.087  0.0699 -0.0262  0.3314
  909SOL     OW 3633   1.591   0.182   1.119 -0.0456 -0.0415  0.7420
  909SOL    HW1 3634   1.623   0.254   1.065  1.9192 -2.5881  1.3932
  909SOL    HW2 3635   1.569   0.227   1.205  1.2682 -0.0274  2.4896
  909SOL     MW 3636   1.593   0.197   1.123  0.3870 -0.3756  1.0585
  910SOL     OW 3637   2.292   1.755   0.425  0.2849  0.5595  0.6996
  910SOL    HW1 3638   2.226   1.689   0.439  1.4805  0.1070 -0.4098
  910SOL    HW2 3639   2.260   1.807   0.347 -0.7077  0.1102 -0.9643
  910SOL     MW 3640   2.279   1.753   0.417  0.3117  0.4405  0.3337
  911SOL     OW 3641   2.209   2.254   1.705 -0.3755  0.0504  0.4147
  911SOL    HW1 3642   2.282   2.247   1.769 -1.8819 -1.0902 -1.4061
  911SOL    HW2 3643   2.259   2.280   1.621  1.0482  1.9575  0.8178
  911SOL     MW 3644   2.225   2.256   1.702 -0.3864  0.1516  0.2277
  912SOL     OW 3645   2.844   1.953   1.532  0.1142 -0.2014  0.1619
  912SOL    HW1 3646   2.867   2.001   1.451 -1.6799 -0.4079 -3.6935
  912SOL    HW2 3647   2.755   1.985   1.543  0.9679  0.7775  0.4640
  912SOL     MW 3648   2.835   1.963   1.523 -0.0099 -0.0995 -0.3069
  913SOL     OW 3649   2.559   2.981   0.393  0.2206  0.2274 -0.6878
  913SOL    HW1 3650   2.636   2.924   0.406  1.5424  0.9006 -0.0174
  913SOL    HW2 3651   2.487   2.923   0.409  0.7827 -0.3951 -0.3893
  913SOL     MW 3652   2.560   2.966   0.397  0.4691  0.2341 -0.5599
  914SOL     OW 3653   2.759   1.624   3.056  0.3301 -0.3439 -0.6966
  914SOL    HW1 3654   2.739   1.702   3.006 -1.2600 -1.3162  2.4677
  914SOL    HW2 3655   2.681   1.603   3.125 -0.0486  2.6693 -0.4395
  914SOL     MW 3656   2.746   1.631   3.059  0.0704 -0.0747 -0.2452
  915SOL     OW 3657   1.812   0.259   0.169  0.2106 -0.1896  0.0639
  915SOL    HW1 3658   1.864   0.189   0.204 -1.9076  1.4793  2.5260
  915SOL    HW2 3659   1.724   0.226   0.186 -1.1226  2.6318 -2.2659
  915SOL     MW 3660   1.807   0.246   0.176 -0.2447  0.4029  0.0814
  916SOL     OW 3661   1.726   2.089   1.951  0.1178 -0.1601 -0.4337
  916SOL    HW1 3662   1.761   2.182   1.938 -3.8068  1.1199 -0.2889
  916SOL    HW2 3663   1.746   2.038   1.871 -0.5175 -1.9904 -1.2508
  916SOL     MW 3664   1.734   2.094   1.939 -0.4838 -0.2327 -0.5224
  917SOL     OW 3665   2.432   2.311   2.594 -0.3393 -0.2379 -0.3608
  917SOL    HW1 3666   2.444   2.324   2.690  0.5911  1.8173  0.0783
  917SOL    HW2 3667   2.509   2.334   2.542 -2.8313  1.1547 -2.5445
  917SOL     MW 3668   2.444   2.316   2.600 -0.5454  0.2170 -0.5910
  918SOL     OW 3669   2.025   1.653   2.715 -1.1567 -0.0482  0.5483
  918SOL    HW1 3670   1.968   1.703   2.655  0.3990 -2.2098 -0.3245
  918SOL    HW2 3671   2.113   1.685   2.687  1.4698  0.6572 -2.1452
  918SOL     MW 3672   2.029   1.663   2.703 -0.6049 -0.2403  0.0778
  919SOL     OW 3673   0.062   2.358   2.264 -0.1330 -0.0507  0.1089
  919SOL    HW1 3674  -0.017   2.299   2.236 -0.7884  0.0234  0.7451
  919SOL    HW2 3675   0.117   2.333   2.186  1.1874 -1.3314  1.2467
  919SOL     MW 3676   0.058   2.347   2.250 -0.0453 -0.2099  0.3430
  920SOL     OW 3677   2.760   2.796   3.093 -0.3712 -0.2397  0.2472
  920SOL    HW1 3678   2.684   2.851   3.131  2.3022  2.0195 -1.2756
  920SOL    HW2 3679   2.742   2.794   2.993 -1.6175  0.6163 -2.1663
  920SOL     MW 3680   2.747   2.803   3.085 -0.1829  0.1713 -0.2722
  921SOL     OW 3681   2.453   2.622   2.686 -0.4902  0.3066  0.3240
  921SOL    HW1 3682   2.486   2.611   2.595  1.8299 -0.8791  3.4638
  921SOL    HW2 3683   2.450   2.538   2.722 -2.2852 -1.4526 -2.1072
  921SOL     MW 3684   2.457   2.610   2.679 -0.4209 -0.0819  0.4175
  922SOL     OW 3685   1.994   2.780   0.327  0.4198 -0.2415 -0.0593
  922SOL    HW1 3686   1.991   2.797   0.234 -0.1641 -0.3975 -0.8911
  922SOL    HW2 3687   1.940   2.707   0.333  2.1801  3.3032  3.1522
  922SOL     MW 3688   1.987   2.773   0.316  0.5750  0.2056  0.2547
  923SOL     OW 3689   2.220   2.807   1.692 -0.0814 -0.5774  0.2650
  923SOL    HW1 3690   2.266   2.730   1.648  1.9597  0.6860  0.5371
  923SOL    HW2 3691   2.175   2.866   1.625 -1.4784 -1.3148 -1.4644
  923SOL     MW 3692   2.220   2.805   1.678  0.0036 -0.5080  0.0727
  924SOL     OW 3693   1.195   2.709   2.572 -0.2137 -0.4279 -0.4940
  924SOL    HW1 3694   1.251   2.745   2.499 -0.8074 -0.5772 -0.9924
  924SOL    HW2 3695   1.243   2.637   2.617 -0.8698 -1.9340  1.3046
  924SOL     MW 3696   1.209   2.704   2.568 -0.3786 -0.6463 -0.3225
  925SOL     OW 3697   2.961   0.227   2.577 -0.1166  0.0237  0.4104
  925SOL    HW1 3698   3.044   0.281   2.546  1.1267  1.4825 -3.6007
  925SOL    HW2 3699   2.905   0.286   2.625  0.0223  0.0400 -0.7813
  925SOL     MW 3700   2.964   0.242   2.579  0.0658  0.2184 -0.2761
  926SOL     OW 3701   2.733   2.408   2.058  0.4848 -0.2372 -0.3063
  926SOL    HW1 3702   2.776   2.474   2.110 -0.5803  0.3988 -0.0588
  926SOL    HW2 3703   2.778   2.418   1.972 -0.0580  4.2606  1.2734
  926SOL     MW 3704   2.745   2.418   2.053  0.2727  0.4401 -0.0652
  927SOL     OW 3705   2.337   0.174   0.307 -0.5732  0.4159 -0.1469
  927SOL    HW1 3706   2.432   0.186   0.311  0.6975  0.0272 -1.5018
  927SOL    HW2 3707   2.312   0.156   0.216 -2.6864  1.6139 -1.6411
  927SOL     MW 3708   2.346   0.173   0.295 -0.6844  0.5226 -0.5228
  928SOL     OW 3709   2.078   2.438   1.848  0.0193 -0.3429  0.2546
  928SOL    HW1 3710   2.142   2.391   1.793  0.3272  0.7701 -0.4793
  928SOL    HW2 3711   2.122   2.459   1.931  1.6181 -0.8267  1.4523
  928SOL     MW 3712   2.092   2.435   1.852  0.2708 -0.2599  0.3158
  929SOL     OW 3713   2.662   2.362   2.435  0.1684 -0.3186  0.0336
  929SOL    HW1 3714   2.718   2.362   2.354  1.2249 -0.3929 -0.3519
  929SOL    HW2 3715   2.725   2.341   2.500 -1.1755 -0.0375 -1.4445
  929SOL     MW 3716   2.678   2.359   2.433  0.1305 -0.2913 -0.2123
  930SOL     OW 3717   2.017   2.872   2.665  0.1335 -0.2325  0.3694
  930SOL    HW1 3718   2.024   2.803   2.742 -1.4357 -1.9569  1.8666
  930SOL    HW2 3719   2.096   2.919   2.665 -1.1539 -2.9010  1.2775
  930SOL     MW 3720   2.028   2.869   2.676 -0.2434 -0.8121  0.6868
  931SOL     OW 3721   2.953   2.814   2.255  0.0123  0.0546  0.2547
  931SOL    HW1 3722   3.007   2.815   2.337  2.2750  2.7873  0.5418
  931SOL    HW2 3723   3.014   2.825   2.178  0.7264 -2.5622  1.0479
  931SOL     MW 3724   2.968   2.816   2.256  0.4051  0.0699  0.3972
  932SOL     OW 3725   2.912   1.951   2.533 -0.0207  0.6743 -0.4580
  932SOL    HW1 3726   2.971   2.026   2.557 -0.2475  0.3167 -1.2157
  932SOL    HW2 3727   2.895   1.959   2.438 -0.2624 -1.4050 -0.7026
  932SOL     MW 3728   2.918   1.962   2.524 -0.0825  0.3528 -0.5902
  933SOL     OW 3729   2.088   2.890   2.229 -0.2490  0.2048 -0.0127
  933SOL    HW1 3730   2.161   2.947   2.253  0.4628  0.1517  0.6144
  933SOL    HW2 3731   2.016   2.937   2.191  0.2733  1.9928  1.2188
  933SOL     MW 3732   2.088   2.904   2.227 -0.0862  0.4337  0.2325
  934SOL     OW 3733   1.998   2.725   2.443 -0.1893 -0.2283 -0.3823
  934SOL    HW1 3734   2.021   2.774   2.527 -0.6062 -0.2608  0.7973
  934SOL    HW2 3735   2.020   2.786   2.373  2.0245  0.6860 -0.9343
  934SOL     MW 3736   2.004   2.739   2.445  0.0478 -0.1120 -0.2995
  935SOL     OW 3737   2.644   1.546   1.805 -0.3753  0.6224  1.0762
  935SOL    HW1 3738   2.733   1.531   1.758  0.3409  1.2585 -0.0567
  935SOL    HW2 3739   2.575   1.539   1.733 -3.6568 -2.6892 -0.2678
  935SOL     MW 3740   2.646   1.543   1.789 -0.7138  0.2694  0.7494
  936SOL     OW 3741   3.008   2.235   3.084  0.3482  0.3419 -0.3092
  936SOL    HW1 3742   3.072   2.276   3.141  0.5036 -0.7571 -1.6026
  936SOL    HW2 3743   2.927   2.292   3.077  1.0502  2.0076  2.7539
  936SOL     MW 3744   3.006   2.248   3.090  0.4614  0.4167 -0.0757
  937SOL     OW 3745   2.027   2.176   2.690 -0.4098 -0.5099 -0.1036
  937SOL    HW1 3746   2.095   2.135   2.737 -0.0708  0.7373  2.1562
  937SOL    HW2 3747   2.032   2.139   2.599 -0.7456 -0.3316  0.4372
  937SOL     MW 3748   2.036   2.165   2.684 -0.4093 -0.3218  0.2659
  938SOL     OW 3749   2.295   1.798   1.894 -0.3352  0.0415 -0.7767
  938SOL    HW1 3750   2.260   1.861   1.824  1.9652 -0.3886 -0.3771
  938SOL    HW2 3751   2.304   1.843   1.978  1.2335  1.2957 -1.3571
  938SOL     MW 3752   2.292   1.812   1.896  0.1753  0.1503 -0.8006
  939SOL     OW 3753   2.830   1.997   2.262  0.6109  0.5112 -0.7197
  939SOL    HW1 3754   2.829   1.944   2.181 -2.9227 -1.7620  0.6962
  939SOL    HW2 3755   2.736   2.000   2.287  2.1475 -1.8270 -0.1918
  939SOL     MW 3756   2.817   1.991   2.254  0.3474 -0.0972 -0.4632
  940SOL     OW 3757   2.307   0.159   2.691  0.1589  0.3527 -0.3490
  940SOL    HW1 3758   2.272   0.069   2.666 -1.1258 -1.1111 -0.6019
  940SOL    HW2 3759   2.362   0.146   2.774 -0.6238  0.3451  0.6648
  940SOL     MW 3760   2.310   0.146   2.699 -0.1138  0.1586 -0.2486
  941SOL     OW 3761   0.216   2.287   2.042  0.4779 -0.4507 -0.0337
  941SOL    HW1 3762   0.307   2.262   2.059 -3.9779 -0.8437 -2.6315
  941SOL    HW2 3763   0.211   2.330   1.953  1.5980 -5.5446  0.9957
  941SOL     MW 3764   0.227   2.289   2.032  0.0378 -1.1747 -0.2406
  942SOL     OW 3765   2.940   2.225   2.178 -0.3035 -0.4515 -0.1540
  942SOL    HW1 3766   2.863   2.282   2.152 -2.2246 -0.6262 -0.2579
  942SOL    HW2 3767   2.899   2.154   2.226  0.4369  1.7714 -3.5529
  942SOL     MW 3768   2.925   2.223   2.181 -0.4593 -0.1813 -0.6162
  943SOL     OW 3769   0.396   2.001   2.301 -0.5507  0.4273  0.7596
  943SOL    HW1 3770   0.341   2.053   2.356  1.2710 -2.4174  1.4363
  943SOL    HW2 3771   0.473   1.983   2.357 -0.5723 -0.9720  2.7176
  943SOL     MW 3772   0.399   2.006   2.316 -0.3132 -0.1327  1.1072
  944SOL     OW 3773   2.109   2.651   2.092  0.1771  0.0298 -0.2383
  944SOL    HW1 3774   2.176   2.595   2.137 -0.9679  1.1646 -0.7571
  944SOL    HW2 3775   2.112   2.728   2.150 -0.8890 -0.3779 -0.2754
  944SOL     MW 3776   2.119   2.654   2.106 -0.1147  0.1257 -0.3116
  945SOL     OW 3777   2.780   2.706   2.828 -0.6194  0.1672  0.4920
  945SOL    HW1 3778   2.748   2.612   2.837  2.3116 -1.1168 -0.5219
  945SOL    HW2 3779   2.815   2.707   2.735  0.4220  0.7793  2.0905
  945SOL     MW 3780   2.780   2.693   2.817 -0.0953  0.0785  0.5691
  946SOL     OW 3781   2.453   2.736   2.266  0.1840  0.2074  0.0725
  946SOL    HW1 3782   2.496   2.760   2.187 -2.5432  0.4632 -1.1843
  946SOL    HW2 3783   2.401   2.660   2.247  1.7677  2.7605 -1.5238
  946SOL     MW 3784   2.451   2.729   2.253  0.0332  0.5780 -0.3040
  947SOL     OW 3785   2.013   0.084   0.237  0.8065  0.3927  0.0494
  947SOL    HW1 3786   2.070   0.051   0.166 -2.2255  0.8356  3.3142
  947SOL    HW2 3787   2.059   0.075   0.318 -2.1985 -0.2939 -2.9650
  947SOL     MW 3788   2.027   0.079   0.238  0.0099  0.3606  0.0825
  948SOL     OW 3789   1.798   3.054   2.663  0.0159 -0.6473  0.1993
  948SOL    HW1 3790   1.845   2.968   2.640 -0.9172 -0.1816  0.1932
  948SOL    HW2 3791   1.749   3.084   2.588  0.3332  1.6869 -0.9092
  948SOL     MW 3792   1.798   3.046   2.650 -0.0653 -0.2779  0.0523
  949SOL     OW 3793   2.553   1.976   2.279  0.1116  0.1737 -0.5671
  949SOL    HW1 3794   2.551   1.900   2.332 -0.7293 -0.8282  0.7315
  949SOL    HW2 3795   2.515   2.039   2.342 -3.3925 -0.9088 -0.3939
  949SOL     MW 3796   2.547   1.974   2.295 -0.4616 -0.1013 -0.3729
  950SOL     OW 3797   2.248   2.545   3.021 -0.6054 -0.4177  0.1052
  950SOL    HW1 3798   2.297   2.470   2.979  1.1461  1.3807 -0.4609
  950SOL    HW2 3799   2.186   2.580   2.950 -0.2879 -0.1646 -2.3489
  950SOL     MW 3800   2.246   2.540   3.006 -0.3324 -0.1470 -0.2933
  951SOL     OW 3801   2.963   2.104   2.830 -0.2346  0.2945 -0.1697
  951SOL    HW1 3802   2.968   2.157   2.914 -0.6682  1.6578  0.8741
  951SOL    HW2 3803   3.046   2.130   2.790  1.6332 -0.4182  2.2772
  951SOL     MW 3804   2.974   2.115   2.836 -0.0453  0.3803  0.2909
  952SOL     OW 3805   3.080   1.755   2.142  0.4061  0.4936  0.4901
  952SOL    HW1 3806   2.993   1.775   2.101  1.0040  1.1052  0.1652
  952SOL    HW2 3807   3.148   1.814   2.118  1.5786 -1.9359  3.4241
  952SOL     MW 3808   3.078   1.766   2.134  0.6397  0.2537  0.8343
  953SOL     OW 3809   1.934   1.780   2.922  0.4749  0.2498 -0.1515
  953SOL    HW1 3810   1.831   1.765   2.907 -1.7086 -1.5896 -0.9656
  953SOL    HW2 3811   1.982   1.718   2.859  1.6360 -1.7299 -1.8000
  953SOL     MW 3812   1.927   1.769   2.911  0.3400 -0.2541 -0.4764
  954SOL     OW 3813   2.486   2.068   2.885  0.3030 -0.2348  0.1149
  954SOL    HW1 3814   2.401   2.029   2.853  2.3714 -0.3873 -0.6226
  954SOL    HW2 3815   2.553   2.031   2.826  0.4765 -1.7988 -0.1855
  954SOL     MW 3816   2.484   2.058   2.873  0.5988 -0.4612 -0.0220
  955SOL     OW 3817   1.595   1.632   2.542  0.1580  0.1454  0.2456
  955SOL    HW1 3818   1.558   1.653   2.453  1.2636 -0.8143  1.7426
  955SOL    HW2 3819   1.674   1.679   2.557 -3.6112 -3.0963  0.1548
  955SOL     MW 3820   1.600   1.641   2.533 -0.1934 -0.4089  0.4311
  956SOL     OW 3821   2.672   2.463   2.847  0.3469 -0.3528  0.1311
  956SOL    HW1 3822   2.728   2.439   2.928 -2.3827  1.9495  1.0235
  956SOL    HW2 3823   2.687   2.390   2.791 -0.3906 -0.9232 -2.1836
  956SOL     MW 3824   2.681   2.450   2.850 -0.1105 -0.1243 -0.0566
  957SOL     OW 3825   2.244   2.867   0.392  0.0220  1.0771 -0.2472
  957SOL    HW1 3826   2.150   2.854   0.374 -0.9203 -1.2720 -0.5247
  957SOL    HW2 3827   2.249   2.830   0.478  1.1976  0.7958 -2.4860
  957SOL     MW 3828   2.232   2.860   0.401  0.0527  0.7300 -0.5792
  958SOL     OW 3829   2.002   2.655   2.828  0.3859 -0.6495  0.0594
  958SOL    HW1 3830   2.007   2.597   2.757 -1.7876  3.2269  0.3885
  958SOL    HW2 3831   1.921   2.624   2.865  1.4329 -3.4147 -2.2766
  958SOL     MW 3832   1.992   2.643   2.823  0.2373 -0.5029 -0.2054
  959SOL     OW 3833   2.448   2.611   0.338 -0.3726  0.3733  0.7444
  959SOL    HW1 3834   2.513   2.598   0.267  4.4932  1.4799 -1.4380
  959SOL    HW2 3835   2.418   2.699   0.330 -2.1603 -1.0321  1.4434
  959SOL     MW 3836   2.452   2.621   0.328  0.0336  0.3339  0.5487
  960SOL     OW 3837   1.920   2.334   2.264  0.4350  0.0282 -0.4010
  960SOL    HW1 3838   1.868   2.268   2.218  1.5806  0.6456 -1.0138
  960SOL    HW2 3839   1.861   2.350   2.336 -0.3567 -3.7699 -0.2977
  960SOL     MW 3840   1.905   2.328   2.267  0.4817 -0.3915 -0.4683
  961SOL     OW 3841   2.188   2.322   2.358  0.4739 -0.2703 -0.1159
  961SOL    HW1 3842   2.103   2.315   2.325  3.3509 -0.4660 -2.5539
  961SOL    HW2 3843   2.189   2.379   2.438  0.5819 -0.8739  0.6787
  961SOL     MW 3844   2.177   2.328   2.364  0.8677 -0.3757 -0.3327
  962SOL     OW 3845   2.230   1.988   2.802 -0.4680  0.0373  0.0203
  962SOL    HW1 3846   2.189   1.961   2.884 -1.0801  2.5646 -1.2781
  962SOL    HW2 3847   2.214   1.918   2.737 -1.3986  1.5578 -0.0614
  962SOL     MW 3848   2.222   1.975   2.804 -0.6715  0.5714 -0.1618
  963SOL     OW 3849   1.833   2.586   1.995  0.1684  0.2804 -0.2030
  963SOL    HW1 3850   1.925   2.600   2.029  1.2833  2.8045  2.4177
  963SOL    HW2 3851   1.833   2.496   1.947 -1.0780 -0.9754 -0.4829
  963SOL     MW 3852   1.845   2.576   1.993  0.1510  0.4477  0.1059
  964SOL     OW 3853   1.843   1.978   2.754 -0.4979  0.0301  0.2774
  964SOL    HW1 3854   1.896   2.059   2.707 -0.0255  0.3535 -0.9506
  964SOL    HW2 3855   1.906   1.920   2.797 -0.8002  1.1778 -1.2407
  964SOL     MW 3856   1.858   1.981   2.753 -0.4755  0.2242 -0.0849
  965SOL     OW 3857   2.250   2.736   0.625 -0.1235 -0.5848  0.1059
  965SOL    HW1 3858   2.208   2.645   0.617 -1.9976  0.9537  0.0145
  965SOL    HW2 3859   2.288   2.748   0.714  0.3860  0.6126 -0.6022
  965SOL     MW 3860   2.249   2.726   0.636 -0.3036 -0.2238  0.0004
  966SOL     OW 3861   2.627   2.647   2.459 -0.6688  0.3155 -0.2554
  966SOL    HW1 3862   2.565   2.683   2.398 -0.9703 -1.5143  0.9834
  966SOL    HW2 3863   2.635   2.549   2.425  2.0499 -3.0595 -1.0146
  966SOL     MW 3864   2.620   2.639   2.446 -0.3499 -0.3712 -0.1921
  967SOL     OW 3865   2.917   3.022   2.902  0.2363 -0.1334  0.2046
  967SOL    HW1 3866   2.931   2.930   2.931 -0.3613 -1.0034 -2.6103
  967SOL    HW2 3867   2.826   3.027   2.867 -0.8823 -1.6653 -0.5489
  967SOL     MW 3868   2.906   3.010   2.901  0.0099 -0.4503 -0.2662
  968SOL     OW 3869   2.994   2.604   2.958  0.0354 -0.1132  0.5113
  968SOL    HW1 3870   2.916   2.641   2.903 -1.7677  0.6919  0.3611
  968SOL    HW2 3871   3.023   2.539   2.900 -1.6564  0.2196  1.8486
  968SOL     MW 3872   2.988   2.600   2.943 -0.4257  0.0369  0.6679
  969SOL     OW 3873   1.515   2.117   1.687  0.6785 -0.1302  0.1101
  969SOL    HW1 3874   1.595   2.062   1.685 -3.6425 -1.3613 -0.9761
  969SOL    HW2 3875   1.479   2.107   1.777 -1.2903 -0.1622  0.3535
  969SOL     MW 3876   1.521   2.108   1.698 -0.1514 -0.2969 -0.0011
  970SOL     OW 3877   1.666   1.651   1.806 -0.8124  0.3646  0.0713
  970SOL    HW1 3878   1.709   1.629   1.885  0.7646  0.5979 -0.6357
  970SOL    HW2 3879   1.577   1.683   1.831  1.0582  0.7062 -1.9048
  970SOL     MW 3880   1.660   1.653   1.820 -0.3575  0.4404 -0.2827
  971SOL     OW 3881   1.770   0.011   2.374  0.0257 -0.1162  0.1488
  971SOL    HW1 3882   1.792  -0.010   2.275 -1.0844  0.5373 -0.4370
  971SOL    HW2 3883   1.865   0.045   2.399  3.0327 -1.0937 -0.2383
  971SOL     MW 3884   1.786   0.013   2.364  0.2760 -0.1589  0.0204
  972SOL     OW 3885   0.259   2.829   2.447  0.4837  0.3034  0.0134
  972SOL    HW1 3886   0.313   2.752   2.470 -0.5651  1.0714  1.8001
  972SOL    HW2 3887   0.315   2.892   2.491  0.7835 -1.1132 -1.5208
  972SOL     MW 3888   0.273   2.828   2.456  0.3849  0.2178  0.0467
  973SOL     OW 3889   2.581   0.020   2.122 -0.2536 -0.0384 -0.0579
  973SOL    HW1 3890   2.585  -0.073   2.102 -2.9029  0.5005 -1.5536
  973SOL    HW2 3891   2.577   0.057   2.038 -0.4277  3.2162  1.8290
  973SOL     MW 3892   2.581   0.013   2.108 -0.6261  0.4621 -0.0063
  974SOL     OW 3893   2.071   0.267   2.741 -0.3245 -0.3802 -0.5465
  974SOL    HW1 3894   2.166   0.242   2.726  2.1025 -0.7287  0.8141
  974SOL    HW2 3895   2.041   0.189   2.795  0.9585  0.4031 -1.3862
  974SOL     MW 3896   2.079   0.253   2.746  0.1650 -0.3228 -0.4778
  975SOL     OW 3897   2.170   2.528   2.525  0.6982 -0.5350  0.2354
  975SOL    HW1 3898   2.242   2.543   2.582 -3.3452 -1.1531  0.8471
  975SOL    HW2 3899   2.127   2.612   2.505 -0.3875 -0.9968  0.1815
  975SOL     MW 3900   2.174   2.541   2.530  0.0214 -0.6775  0.3090
  976SOL     OW 3901   0.261   0.395   1.729 -0.2062 -0.5609 -0.5109
  976SOL    HW1 3902   0.327   0.340   1.763  1.2936  0.8031  0.1739
  976SOL    HW2 3903   0.193   0.336   1.694  1.2971 -0.8508 -4.2960
  976SOL     MW 3904   0.261   0.380   1.729  0.1900 -0.4192 -0.9199
  977SOL     OW 3905   1.717   2.719   2.470 -0.1479 -0.3999  0.7485
  977SOL    HW1 3906   1.710   2.623   2.468  0.6212  0.9144 -0.4254
  977SOL    HW2 3907   1.811   2.733   2.462  1.3889 -1.0039  0.2090
  977SOL     MW 3908   1.729   2.708   2.469  0.1564 -0.3062  0.5225
   3.10000   3.10000   3.10000
