977 TIP4P/2005f water molecules t=   0.31000 step= 310
 3908
    1SOL     OW    1   0.297   0.759   0.046 -0.1288  0.5101  0.3128
    1SOL    HW1    2   0.276   0.787  -0.041 -1.3440 -0.4233 -1.3630
    1SOL    HW2    3   0.284   0.660   0.038  3.8357 -0.9016  0.4798
    1SOL     MW    4   0.292   0.749   0.034  0.2340  0.2007  0.1137
    2SOL     OW    5   0.335   3.039   1.147 -0.7693  0.5281  0.2019
    2SOL    HW1    6   0.344   3.121   1.099 -0.7561 -0.6401  1.8523
    2SOL    HW2    7   0.242   3.034   1.161  0.3838 -0.2749 -0.3525
    2SOL     MW    8   0.324   3.049   1.142 -0.6154  0.2681  0.3465
    3SOL     OW    9   2.657   0.405   0.920 -0.1060 -0.1640 -0.1338
    3SOL    HW1   10   2.690   0.475   0.866  0.6207  1.0745 -1.9290
    3SOL    HW2   11   2.670   0.438   1.006  0.3990 -0.3545 -0.4480
    3SOL     MW   12   2.664   0.419   0.924  0.0565 -0.0257 -0.4121
    4SOL     OW   13   3.067   1.811   0.614  0.0853 -0.3066 -1.0263
    4SOL    HW1   14   2.993   1.865   0.592 -1.2393  1.3709  2.9398
    4SOL    HW2   15   3.081   1.755   0.538 -2.1824 -1.5059  0.1788
    4SOL     MW   16   3.059   1.811   0.601 -0.3887 -0.2435 -0.3440
    5SOL     OW   17   1.699   1.424   0.531 -0.4073 -0.1234  0.5127
    5SOL    HW1   18   1.728   1.385   0.608  1.3763  0.1989  0.2492
    5SOL    HW2   19   1.608   1.430   0.552 -0.6257 -0.4887 -0.1631
    5SOL     MW   20   1.691   1.419   0.544 -0.2008 -0.1291  0.3887
    6SOL     OW   21   0.860   1.404   0.610 -0.4057 -0.5364  0.1212
    6SOL    HW1   22   0.776   1.402   0.659 -1.6291 -1.6165  1.3659
    6SOL    HW2   23   0.910   1.335   0.659 -1.5439  0.7512  0.2234
    6SOL     MW   24   0.856   1.395   0.623 -0.7173 -0.5090  0.2989
    7SOL     OW   25   1.984   1.056   0.033  0.2326 -0.6406 -0.0185
    7SOL    HW1   26   1.988   1.146  -0.011  2.5381  2.5032  3.4618
    7SOL    HW2   27   2.035   1.071   0.111  1.0920 -0.6396  0.1437
    7SOL     MW   28   1.992   1.070   0.037  0.6502 -0.2257  0.4621
    8SOL     OW   29   1.008   1.320   1.035 -0.3543  0.2543 -0.3977
    8SOL    HW1   30   1.099   1.330   1.054  1.5205 -2.2414 -0.3663
    8SOL    HW2   31   0.986   1.232   1.039 -1.3657  3.6945 -1.5015
    8SOL     MW   32   1.017   1.310   1.038 -0.2404  0.3789 -0.5392
    9SOL     OW   33   1.037   0.473   1.337  0.1875 -0.0586 -0.3435
    9SOL    HW1   34   0.960   0.413   1.315 -0.7395  0.5562  0.7171
    9SOL    HW2   35   1.082   0.430   1.412  1.6879 -1.2566  0.8844
    9SOL     MW   36   1.033   0.459   1.344  0.2632 -0.1356 -0.0415
   10SOL     OW   37   0.316   0.822   0.466  0.0987 -0.8017 -0.1746
   10SOL    HW1   38   0.407   0.855   0.436 -1.4188 -1.6894  1.6183
   10SOL    HW2   39   0.308   0.871   0.549  1.5620 -0.4294 -0.7743
   10SOL     MW   40   0.327   0.833   0.473  0.0916 -0.8697 -0.0172
   11SOL     OW   41   0.880   1.087   1.612 -0.7176 -0.1870  0.3656
   11SOL    HW1   42   0.905   1.098   1.703  0.1019 -0.0955 -1.4140
   11SOL    HW2   43   0.825   1.002   1.608 -0.7072  0.6026 -0.8101
   11SOL     MW   44   0.876   1.077   1.623 -0.6081 -0.0707 -0.0243
   12SOL     OW   45   0.015   1.154   0.835 -0.1285  0.2843 -0.3601
   12SOL    HW1   46   0.061   1.211   0.895  3.2565  0.2843  2.0330
   12SOL    HW2   47  -0.059   1.199   0.796  0.1287  1.5162 -3.1348
   12SOL     MW   48   0.011   1.168   0.837  0.3521  0.4469 -0.4104
   13SOL     OW   49   1.916   1.431   1.381 -0.6503  0.1297 -0.5955
   13SOL    HW1   50   1.941   1.385   1.301 -0.3242 -0.6837 -1.2793
   13SOL    HW2   51   1.881   1.517   1.362 -0.4638 -2.6951 -0.1436
   13SOL     MW   52   1.915   1.436   1.368 -0.5827 -0.3503 -0.6261
   14SOL     OW   53   0.624   0.328   1.792 -0.2800 -0.2338  0.5674
   14SOL    HW1   54   0.610   0.243   1.755  0.0503  1.1553  2.7255
   14SOL    HW2   55   0.709   0.316   1.831 -1.3802  0.4314 -0.5727
   14SOL     MW   56   0.633   0.315   1.792 -0.3816  0.0373  0.7017
   15SOL     OW   57   1.996   0.552   0.931  0.2894 -0.2204  0.6378
   15SOL    HW1   58   1.992   0.526   1.025  2.0542  1.0010  1.7239
   15SOL    HW2   59   2.076   0.506   0.902  0.4462  0.1345 -0.5849
   15SOL     MW   60   2.006   0.542   0.939  0.5429 -0.0124  0.6198
   16SOL     OW   61   0.209   1.773   0.333  0.0767 -0.5113  0.2662
   16SOL    HW1   62   0.300   1.751   0.332 -2.2358  0.8207  1.5283
   16SOL    HW2   63   0.221   1.872   0.336  2.5531 -0.0079 -2.4746
   16SOL     MW   64   0.222   1.783   0.333  0.0984 -0.2692  0.0711
   17SOL     OW   65   1.074   0.814   1.466  0.0026 -0.2853  0.4143
   17SOL    HW1   66   1.111   0.827   1.558 -3.2411  1.4898  0.8348
   17SOL    HW2   67   0.980   0.786   1.483 -1.1281 -0.0541 -0.0961
   17SOL     MW   68   1.067   0.812   1.481 -0.5745 -0.0206  0.4024
   18SOL     OW   69   0.036   1.547   0.414  0.4188  0.0496 -0.0457
   18SOL    HW1   70   0.074   1.599   0.343 -0.5720 -1.0892  2.4457
   18SOL    HW2   71   0.015   1.463   0.381  0.7024  0.0457 -1.1552
   18SOL     MW   72   0.039   1.543   0.400  0.3255 -0.1011  0.1366
   19SOL     OW   73   0.117   1.306   1.028 -0.3719  1.0516  0.2883
   19SOL    HW1   74   0.143   1.366   0.962  0.1948 -2.1860 -0.3840
   19SOL    HW2   75   0.027   1.330   1.051 -1.3159 -1.0565  1.3654
   19SOL     MW   76   0.109   1.317   1.022 -0.4217  0.3463  0.3417
   20SOL     OW   77   0.462   2.148   1.303 -0.0428 -0.6836  0.0881
   20SOL    HW1   78   0.411   2.084   1.248  1.2616 -0.6048  1.2382
   20SOL    HW2   79   0.406   2.185   1.374  2.1617  1.9961  0.4624
   20SOL     MW   80   0.448   2.144   1.305  0.4201 -0.3196  0.2892
   21SOL     OW   81   0.548   0.895   0.342 -0.0391 -0.4408 -0.4590
   21SOL    HW1   82   0.612   0.844   0.384 -1.2949  1.9110  0.6191
   21SOL    HW2   83   0.537   0.859   0.251  2.6604 -2.4121 -2.2882
   21SOL     MW   84   0.555   0.883   0.336  0.1514 -0.3906 -0.5581
   22SOL     OW   85   1.524   0.545   1.139 -0.0664  0.1959 -0.2466
   22SOL    HW1   86   1.568   0.511   1.059 -1.3227  0.6178  0.3475
   22SOL    HW2   87   1.467   0.609   1.105  1.5152  1.0384 -0.7874
   22SOL     MW   88   1.522   0.549   1.124 -0.0235  0.3627 -0.2396
   23SOL     OW   89   3.038   0.740   0.742  0.7771 -0.0373  0.0349
   23SOL    HW1   90   3.084   0.653   0.727 -2.0624 -2.2873  0.4407
   23SOL    HW2   91   3.116   0.794   0.745 -2.3778 -1.7909 -1.0971
   23SOL     MW   92   3.054   0.735   0.740 -0.0138 -0.5655 -0.0610
   24SOL     OW   93   2.025   2.195   0.033  0.0010 -0.2325 -0.3258
   24SOL    HW1   94   2.050   2.195   0.129  0.6207 -1.9713  1.7658
   24SOL    HW2   95   2.081   2.127  -0.000 -0.4057  1.4501  2.1885
   24SOL     MW   96   2.035   2.186   0.041  0.0291 -0.2399  0.2819
   25SOL     OW   97   0.272   1.424   0.541  0.6283 -0.7097 -0.2302
   25SOL    HW1   98   0.206   1.490   0.506 -1.8944  2.3708 -2.0902
   25SOL    HW2   99   0.340   1.420   0.476  0.4805  0.9513  1.6157
   25SOL     MW  100   0.272   1.432   0.528  0.2760 -0.0841 -0.2320
   26SOL     OW  101   2.064   0.937   0.403  0.0299 -0.3759  0.7715
   26SOL    HW1  102   1.984   0.982   0.436  0.3304  2.0714  1.8047
   26SOL    HW2  103   2.080   0.987   0.319  1.3303  0.3669 -0.9431
   26SOL     MW  104   2.056   0.950   0.397  0.2411  0.0450  0.6816
   27SOL     OW  105   1.983   1.415   0.253 -0.0368 -0.5943 -0.7195
   27SOL    HW1  106   1.906   1.381   0.294  0.5030  1.3846  2.3169
   27SOL    HW2  107   2.022   1.469   0.322  0.4680  0.0604 -0.5236
   27SOL     MW  108   1.978   1.418   0.267  0.1010 -0.2468 -0.2930
   28SOL     OW  109   0.395   0.972   1.896 -0.1083  0.7184  0.3646
   28SOL    HW1  110   0.352   0.913   1.957  0.9732 -1.2387 -2.1278
   28SOL    HW2  111   0.470   0.923   1.854  2.7962 -1.5715  3.9716
   28SOL     MW  112   0.399   0.958   1.899  0.4176  0.1581  0.5117
   29SOL     OW  113   0.243   1.446   0.816  0.1412 -0.3074  0.3212
   29SOL    HW1  114   0.261   1.542   0.829 -0.9164  1.4698 -2.5275
   29SOL    HW2  115   0.244   1.433   0.724 -2.4570 -0.3181 -0.3887
   29SOL     MW  116   0.245   1.457   0.806 -0.3411 -0.0743 -0.1483
   30SOL     OW  117   0.895   1.034   1.145 -0.2612  0.3735 -0.1282
   30SOL    HW1  118   0.832   1.076   1.208  0.6624 -1.4136  0.6734
   30SOL    HW2  119   0.980   1.050   1.192  0.7115 -0.0878 -0.7800
   30SOL     MW  120   0.898   1.041   1.160 -0.0110  0.0769 -0.1085
   31SOL     OW  121   0.465   0.280   0.250  0.0089 -0.1166  0.4026
   31SOL    HW1  122   0.467   0.202   0.313  0.5533  1.2941 -0.1405
   31SOL    HW2  123   0.439   0.247   0.163  1.9731 -1.5185 -3.6595
   31SOL     MW  124   0.462   0.265   0.247  0.3399 -0.1154 -0.2050
   32SOL     OW  125   2.707   1.050   1.111  0.2848  0.4161 -0.4105
   32SOL    HW1  126   2.675   0.958   1.120 -0.3490 -0.7923  1.9333
   32SOL    HW2  127   2.808   1.043   1.112 -0.8531  2.8674 -0.2495
   32SOL     MW  128   2.716   1.037   1.113  0.0510  0.5801 -0.0800
   33SOL     OW  129   1.740   1.254   0.318 -0.3369  0.3507 -0.0462
   33SOL    HW1  130   1.748   1.170   0.366  0.1755  1.9432 -0.2190
   33SOL    HW2  131   1.730   1.322   0.385  2.6044  0.6091  1.2036
   33SOL     MW  132   1.739   1.252   0.333  0.1188  0.5949  0.0959
   34SOL     OW  133   1.231   1.858   1.142 -0.3153 -0.3362 -0.2759
   34SOL    HW1  134   1.138   1.883   1.159  2.4176 -2.0685 -0.0071
   34SOL    HW2  135   1.286   1.897   1.219  1.2471  0.9278  1.3381
   34SOL     MW  136   1.226   1.867   1.154  0.2514 -0.3980 -0.0275
   35SOL     OW  137   0.368   0.079   1.869 -0.6508  0.8002 -0.3287
   35SOL    HW1  138   0.384  -0.002   1.926 -1.2458 -1.0557 -2.0717
   35SOL    HW2  139   0.391   0.044   1.777 -1.2331  0.0125 -0.7366
   35SOL     MW  140   0.373   0.064   1.865 -0.8061  0.4514 -0.6125
   36SOL     OW  141   1.905   1.966   0.568 -0.3625  0.2912  0.2403
   36SOL    HW1  142   1.917   1.957   0.474 -0.2018 -1.8817  1.0144
   36SOL    HW2  143   1.892   1.874   0.595  0.0731  0.0923  0.2389
   36SOL     MW  144   1.905   1.953   0.559 -0.2838 -0.0217  0.3423
   37SOL     OW  145   1.737   2.040   0.969 -0.2126  0.8675  0.4290
   37SOL    HW1  146   1.692   1.981   0.911  1.5248  1.8273  1.2902
   37SOL    HW2  147   1.669   2.068   1.050 -1.6579 -1.4721 -1.0994
   37SOL     MW  148   1.722   2.036   0.972 -0.1740  0.6855  0.3410
   38SOL     OW  149   2.858   0.952   0.198 -0.1518  0.0797 -0.1153
   38SOL    HW1  150   2.886   0.955   0.286 -0.5904  0.7848 -1.3357
   38SOL    HW2  151   2.923   0.892   0.153  0.9008 -1.4565 -0.1008
   38SOL     MW  152   2.870   0.945   0.204 -0.0708 -0.0300 -0.2744
   39SOL     OW  153   1.467   0.688   0.849  0.2157 -0.1763 -0.5516
   39SOL    HW1  154   1.453   0.592   0.862 -0.0049 -0.0282  1.1690
   39SOL    HW2  155   1.399   0.728   0.900 -0.1387 -1.5431 -2.0288
   39SOL     MW  156   1.456   0.681   0.858  0.1398 -0.3371 -0.5195
   40SOL     OW  157   1.281   1.878   0.261  0.0968 -0.1538 -0.2303
   40SOL    HW1  158   1.289   1.788   0.294 -0.3241  0.1889  0.1917
   40SOL    HW2  159   1.303   1.938   0.333 -3.2408  1.7362 -0.8266
   40SOL     MW  160   1.285   1.874   0.275 -0.3991  0.1408 -0.2533
   41SOL     OW  161   0.589   0.546   1.584  0.0443  0.5187 -0.0561
   41SOL    HW1  162   0.681   0.572   1.588  2.3916  1.5880 -0.5956
   41SOL    HW2  163   0.592   0.473   1.644  1.5934 -1.2167 -0.1129
   41SOL     MW  164   0.602   0.540   1.592  0.5584  0.4308 -0.1348
   42SOL     OW  165   1.325   3.086   1.946 -0.4260  0.2352  0.1750
   42SOL    HW1  166   1.238   3.050   1.952  0.0321  3.3279 -2.7591
   42SOL    HW2  167   1.382   3.014   1.983  0.9235  1.3470 -0.1961
   42SOL     MW  168   1.321   3.072   1.952 -0.1875  0.7900 -0.2611
   43SOL     OW  169   1.581   0.229   1.610 -0.1959 -0.2712  0.7708
   43SOL    HW1  170   1.635   0.162   1.570 -1.0144 -0.5356  1.6464
   43SOL    HW2  171   1.490   0.184   1.632 -1.9557 -0.9958 -0.3830
   43SOL     MW  172   1.576   0.214   1.607 -0.5361 -0.4017  0.7341
   44SOL     OW  173   1.318   0.752   1.107 -0.0064  0.0314 -0.0834
   44SOL    HW1  174   1.326   0.845   1.122 -1.0903 -0.5681  0.8846
   44SOL    HW2  175   1.296   0.709   1.193 -2.8373 -1.0706  0.3040
   44SOL     MW  176   1.316   0.759   1.120 -0.5229 -0.1931  0.0954
   45SOL     OW  177   1.116   0.707   0.770  0.5489 -0.3263 -0.4483
   45SOL    HW1  178   1.086   0.676   0.860  2.8331 -4.0597 -2.0121
   45SOL    HW2  179   1.121   0.627   0.723 -3.0851 -2.6428 -3.1995
   45SOL     MW  180   1.113   0.693   0.775  0.3708 -1.1245 -1.0176
   46SOL     OW  181   0.582   1.161   0.579 -0.2203  0.3185 -0.8432
   46SOL    HW1  182   0.578   1.161   0.479 -0.7796 -1.7643 -0.4273
   46SOL    HW2  183   0.670   1.125   0.592  0.8749 -0.6241 -0.4414
   46SOL     MW  184   0.593   1.156   0.567 -0.1496 -0.0807 -0.7353
   47SOL     OW  185   0.148   1.928   1.849  0.3260 -0.2616  0.4330
   47SOL    HW1  186   0.201   1.867   1.796 -1.7284  1.9853  1.0460
   47SOL    HW2  187   0.148   1.897   1.939  0.6966  1.3126 -0.3280
   47SOL     MW  188   0.155   1.916   1.854  0.1038  0.2425  0.4135
   48SOL     OW  189   1.043   0.651   1.034  0.4435  0.0616 -0.3023
   48SOL    HW1  190   0.959   0.669   1.074 -0.4375 -1.6150 -2.6259
   48SOL    HW2  191   1.095   0.720   1.066  0.7424  1.3293  1.5893
   48SOL     MW  192   1.039   0.662   1.043  0.3667  0.0076 -0.3593
   49SOL     OW  193   1.886   0.739   1.599 -0.1568 -0.4067  0.0498
   49SOL    HW1  194   1.830   0.703   1.672  4.1080  0.7734 -0.8595
   49SOL    HW2  195   1.940   0.666   1.562  0.5781  1.5767 -1.7355
   49SOL     MW  196   1.886   0.724   1.604  0.5028  0.0107 -0.3058
   50SOL     OW  197   1.280   0.984   0.521 -0.5990 -0.0365 -0.1817
   50SOL    HW1  198   1.250   1.011   0.613  2.0185 -0.9626 -0.3053
   50SOL    HW2  199   1.320   0.903   0.532 -0.2776  3.4458 -0.5608
   50SOL     MW  200   1.281   0.977   0.535 -0.2112  0.3007 -0.2481
   51SOL     OW  201   0.346   2.848   0.963  0.6345 -0.1015  0.4140
   51SOL    HW1  202   0.430   2.847   0.924 -0.1463  0.2743  3.4649
   51SOL    HW2  203   0.346   2.922   1.033  0.2674  1.2776 -0.5987
   51SOL     MW  204   0.357   2.857   0.967  0.4831  0.1301  0.6829
   52SOL     OW  205   0.816   1.818   0.384  0.1512 -1.0204 -0.0625
   52SOL    HW1  206   0.779   1.886   0.435  2.0614  0.2382 -1.2721
   52SOL    HW2  207   0.762   1.825   0.307  1.3170 -1.4045  1.4580
   52SOL     MW  208   0.804   1.828   0.380  0.5571 -0.9050 -0.0215
   53SOL     OW  209   0.447   2.058   0.582  0.5363 -0.0424 -0.2032
   53SOL    HW1  210   0.412   2.063   0.486  1.6460  0.4546  2.1725
   53SOL    HW2  211   0.453   2.150   0.589  0.1911  0.7048 -1.7860
   53SOL     MW  212   0.443   2.071   0.570  0.6372  0.1218 -0.0986
   54SOL     OW  213   2.204   0.810   0.911  0.0946 -0.1898  0.8105
   54SOL    HW1  214   2.249   0.773   0.834 -2.4006 -2.5749 -0.1751
   54SOL    HW2  215   2.115   0.827   0.876 -2.3519  0.4147  2.3571
   54SOL     MW  216   2.198   0.807   0.896 -0.5574 -0.4247  0.8845
   55SOL     OW  217   0.544   1.492   1.555  0.0236 -0.0500 -0.2612
   55SOL    HW1  218   0.486   1.542   1.493 -3.9534 -1.1661  0.7016
   55SOL    HW2  219   0.620   1.448   1.511 -0.8730  0.2504 -1.7919
   55SOL     MW  220   0.547   1.492   1.541 -0.6194 -0.1576 -0.3361
   56SOL     OW  221   0.559   0.785   0.097  0.7811 -0.2089  0.5087
   56SOL    HW1  222   0.584   0.865   0.045  0.1751 -0.8097 -0.5324
   56SOL    HW2  223   0.467   0.773   0.076  2.5174  3.4609  2.4416
   56SOL     MW  224   0.550   0.794   0.087  0.9302  0.1960  0.6263
   57SOL     OW  225   1.247   1.219   1.166  0.2047 -0.1221 -0.1753
   57SOL    HW1  226   1.337   1.251   1.165  0.5058 -0.3169 -0.0407
   57SOL    HW2  227   1.248   1.169   1.254  1.2985  0.8932  2.1170
   57SOL     MW  228   1.259   1.216   1.178  0.3887 -0.0138  0.1449
   58SOL     OW  229   0.693   1.108   1.296 -0.1863  0.3190  0.1895
   58SOL    HW1  230   0.672   1.200   1.280  0.2137 -1.8968  1.4294
   58SOL    HW2  231   0.675   1.089   1.387 -0.3047  2.0447 -1.1069
   58SOL     MW  232   0.688   1.118   1.306 -0.1491  0.2543  0.1820
   59SOL     OW  233   1.535   1.638   0.287  0.2712 -0.1124  0.8146
   59SOL    HW1  234   1.598   1.574   0.325  0.2615  0.7186 -1.3469
   59SOL    HW2  235   1.466   1.657   0.356  0.3228  3.3578  0.4617
   59SOL     MW  236   1.534   1.632   0.301  0.2767  0.4551  0.4828
   60SOL     OW  237   3.077   0.168   1.627 -0.1763 -0.4827  0.6683
   60SOL    HW1  238   2.997   0.217   1.629 -0.4229 -0.2291 -1.3449
   60SOL    HW2  239   3.054   0.079   1.619  3.1480  0.0278  0.5362
   60SOL     MW  240   3.063   0.163   1.626  0.2298 -0.3819  0.3852
   61SOL     OW  241   1.999   1.505  -0.000 -0.7220 -0.1110  0.5535
   61SOL    HW1  242   1.984   1.474   0.090 -0.3898 -1.0135  0.5529
   61SOL    HW2  243   2.056   1.434  -0.023  2.7356 -0.8682  0.9490
   61SOL     MW  244   2.004   1.492   0.009 -0.2220 -0.3300  0.6056
   62SOL     OW  245   0.582   1.628   0.584 -0.2526 -0.4035  0.1029
   62SOL    HW1  246   0.664   1.622   0.527  2.9872  0.7612 -3.7414
   62SOL    HW2  247   0.575   1.544   0.629 -0.4267  3.1811 -1.7674
   62SOL     MW  248   0.592   1.616   0.582  0.1519  0.2231 -0.6511
   63SOL     OW  249   1.717   0.725   0.663 -0.1280  0.3828 -0.4218
   63SOL    HW1  250   1.674   0.790   0.612  0.9699  0.1897 -1.2954
   63SOL    HW2  251   1.643   0.699   0.719 -2.2976 -0.6191 -2.8612
   63SOL     MW  252   1.701   0.730   0.664 -0.2694  0.2252 -0.8589
   64SOL     OW  253   0.242   1.686   0.957 -0.1979 -0.4613 -0.4091
   64SOL    HW1  254   0.316   1.725   0.904  1.7202 -0.0935 -3.8425
   64SOL    HW2  255   0.174   1.746   0.930  2.0314 -3.4940 -2.5063
   64SOL     MW  256   0.243   1.699   0.946  0.3493 -0.8129 -1.1388
   65SOL     OW  257   1.541   2.286   0.331 -0.2671  0.1790 -0.1815
   65SOL    HW1  258   1.605   2.222   0.287  4.0295 -0.0029  1.5735
   65SOL    HW2  259   1.596   2.345   0.377  1.2675  2.0928 -0.4656
   65SOL     MW  260   1.557   2.285   0.331  0.5022  0.4075  0.0126
   66SOL     OW  261   0.303   0.544   0.515 -0.2507 -0.3522  0.3927
   66SOL    HW1  262   0.391   0.531   0.481  0.2400 -4.6032 -0.9084
   66SOL    HW2  263   0.288   0.638   0.503 -0.4411 -1.4685  0.3434
   66SOL     MW  264   0.313   0.555   0.509 -0.2111 -1.0604  0.2146
   67SOL     OW  265   1.539   0.149   2.032 -0.2128 -0.9756 -0.1985
   67SOL    HW1  266   1.592   0.205   1.976  0.0728 -1.3041 -1.9625
   67SOL    HW2  267   1.492   0.080   1.988  1.6963  0.0106  2.7823
   67SOL     MW  268   1.540   0.147   2.019  0.0768 -0.8888 -0.0380
   68SOL     OW  269   0.634   0.079   2.953 -0.1876  0.1033 -0.5426
   68SOL    HW1  270   0.595   0.075   2.866  0.0255  1.0607 -1.0421
   68SOL    HW2  271   0.638   0.169   2.969  0.4926 -1.2065  0.4797
   68SOL     MW  272   0.629   0.090   2.944 -0.0698  0.0568 -0.4736
   69SOL     OW  273   1.044   0.198   1.946 -0.9196  0.1204 -0.5573
   69SOL    HW1  274   1.110   0.224   2.012 -1.5516  0.4926  0.9230
   69SOL    HW2  275   1.031   0.105   1.968  1.5844  2.6259  2.6085
   69SOL     MW  276   1.051   0.189   1.957 -0.6726  0.5001  0.0557
   70SOL     OW  277   0.593   1.811   1.122 -0.0005  0.4323  0.2239
   70SOL    HW1  278   0.594   1.718   1.140 -0.6320 -0.7687 -0.8693
   70SOL    HW2  279   0.667   1.817   1.057 -4.2467  0.5619 -0.1608
   70SOL     MW  280   0.603   1.800   1.115 -0.6441  0.2910  0.0289
   71SOL     OW  281   1.758   0.690   1.239 -0.2703 -0.3318  0.3079
   71SOL    HW1  282   1.714   0.743   1.303  0.3414 -0.0590 -0.9557
   71SOL    HW2  283   1.685   0.649   1.193 -2.6644 -0.5294 -2.1045
   71SOL     MW  284   1.743   0.692   1.241 -0.5054 -0.3219 -0.1771
   72SOL     OW  285   0.827   1.809   0.969  0.2509 -0.4545 -0.3271
   72SOL    HW1  286   0.808   1.855   0.887  0.7631 -1.1044 -1.5087
   72SOL    HW2  287   0.818   1.716   0.951  1.4309  1.0469  0.0660
   72SOL     MW  288   0.823   1.803   0.956  0.4742 -0.3421 -0.4311
   73SOL     OW  289   1.257   0.660   1.348 -0.8751  0.0835  0.3286
   73SOL    HW1  290   1.202   0.591   1.313 -0.0288 -0.5793 -1.1332
   73SOL    HW2  291   1.197   0.723   1.387 -0.9802 -1.8834 -0.1429
   73SOL     MW  292   1.242   0.659   1.348 -0.7773 -0.2634  0.0735
   74SOL     OW  293   2.777   0.136   1.010  0.6010  0.3691 -0.3988
   74SOL    HW1  294   2.790   0.047   0.974 -2.1858  0.2950 -0.2012
   74SOL    HW2  295   2.712   0.182   0.961  0.0340  1.1777  0.6007
   74SOL     MW  296   2.770   0.131   0.999  0.1585  0.4660 -0.2408
   75SOL     OW  297   1.612   1.318   0.080 -0.5140 -0.3000  0.1276
   75SOL    HW1  298   1.656   1.320   0.167  0.3024  2.3243 -1.3250
   75SOL    HW2  299   1.651   1.243   0.040 -0.0622  1.4070 -1.2007
   75SOL     MW  300   1.623   1.308   0.086 -0.3467  0.2715 -0.2393
   76SOL     OW  301   2.929   0.664   0.465  0.2122 -0.3794 -0.1622
   76SOL    HW1  302   2.941   0.686   0.560  1.4181  0.2702  1.7127
   76SOL    HW2  303   2.994   0.593   0.441  1.1372  0.3265  0.6714
   76SOL     MW  304   2.939   0.657   0.474  0.4934 -0.2005  0.1951
   77SOL     OW  305   0.909   0.425   0.509  0.2763  0.4047 -0.1331
   77SOL    HW1  306   0.830   0.482   0.508  1.6758  0.8715 -1.6565
   77SOL    HW2  307   0.874   0.332   0.516 -0.8658  1.8449 -0.9918
   77SOL     MW  308   0.894   0.420   0.510  0.3103  0.6563 -0.4474
   78SOL     OW  309   0.785   0.755   1.198 -0.4219 -0.0919  0.0746
   78SOL    HW1  310   0.691   0.752   1.184 -2.9525  0.0749 -1.8154
   78SOL    HW2  311   0.811   0.847   1.193  1.4182 -0.5793 -1.3241
   78SOL     MW  312   0.776   0.766   1.195 -0.5130 -0.1342 -0.3593
   79SOL     OW  313   1.882   1.687   0.597  1.1028  0.6138  0.0664
   79SOL    HW1  314   1.820   1.620   0.583 -0.3170 -0.6098  0.2630
   79SOL    HW2  315   1.903   1.676   0.689  1.7328  0.0473  0.8559
   79SOL     MW  316   1.877   1.677   0.608  0.9986  0.3776  0.1965
   80SOL     OW  317   0.136   0.994   0.306 -0.2820  0.3939  0.2072
   80SOL    HW1  318   0.062   0.952   0.361 -1.2339 -1.0569  0.6128
   80SOL    HW2  319   0.209   0.935   0.331 -0.0508  0.8588 -1.0584
   80SOL     MW  320   0.136   0.981   0.316 -0.3771  0.2638  0.0937
   81SOL     OW  321   1.912   1.902   0.220 -0.3887 -0.4065 -0.1038
   81SOL    HW1  322   1.828   1.853   0.196  0.4063 -0.3749 -3.8745
   81SOL    HW2  323   1.889   1.997   0.234  0.4560  2.3772  0.1453
   81SOL     MW  324   1.898   1.908   0.219 -0.1724 -0.0350 -0.5684
   82SOL     OW  325   0.817   0.986   0.556 -0.4404  0.5866  0.1122
   82SOL    HW1  326   0.884   0.970   0.482 -2.8511 -0.7010 -1.3933
   82SOL    HW2  327   0.777   0.893   0.566 -0.0409 -3.0321  0.2616
   82SOL     MW  328   0.820   0.972   0.547 -0.7057 -0.0607 -0.0667
   83SOL     OW  329   0.117   0.622   1.379  0.5214  0.1529 -0.1115
   83SOL    HW1  330   0.158   0.698   1.353 -0.9657 -1.0397 -1.9662
   83SOL    HW2  331   0.177   0.586   1.447  0.2177 -4.5545  0.7139
   83SOL     MW  332   0.130   0.627   1.385  0.2851 -0.6256 -0.2473
   84SOL     OW  333   0.076   0.266   1.015  0.1065 -0.3643 -0.5699
   84SOL    HW1  334  -0.003   0.285   0.961 -1.4083  0.1382  0.2815
   84SOL    HW2  335   0.049   0.200   1.082 -1.5616  0.9948 -0.1791
   84SOL     MW  336   0.062   0.260   1.017 -0.3135 -0.1187 -0.4060
   85SOL     OW  337   0.418   0.439   0.758 -0.2167  0.1084 -0.2158
   85SOL    HW1  338   0.406   0.468   0.675 -0.5038 -2.2088  2.4290
   85SOL    HW2  339   0.390   0.346   0.760  3.3489  1.0941 -0.5600
   85SOL     MW  340   0.413   0.431   0.747  0.2159 -0.0673  0.0877
   86SOL     OW  341   1.191   0.437   1.128  0.0862 -0.0453 -0.4565
   86SOL    HW1  342   1.127   0.504   1.087  0.8670  1.5395  2.2335
   86SOL    HW2  343   1.146   0.441   1.214  0.4453 -0.9922  1.0750
   86SOL     MW  344   1.177   0.446   1.134  0.2366  0.0388  0.1005
   87SOL     OW  345   1.210   1.474   1.261  0.2491  0.4865 -0.6857
   87SOL    HW1  346   1.226   1.532   1.184  1.3107  2.2140 -0.2690
   87SOL    HW2  347   1.211   1.386   1.229 -0.4958  3.1352 -1.6923
   87SOL     MW  348   1.212   1.470   1.247  0.2909  1.0639 -0.7635
   88SOL     OW  349   1.324   1.030   0.994 -0.4620  0.0371  0.1221
   88SOL    HW1  350   1.416   1.027   1.015 -0.9117 -0.0919  2.3521
   88SOL    HW2  351   1.292   1.108   1.044  0.5346  0.5724 -0.3451
   88SOL     MW  352   1.332   1.040   1.003 -0.3898  0.0907  0.3547
   89SOL     OW  353   1.736   0.637   0.333  0.2420  1.0358  0.5935
   89SOL    HW1  354   1.772   0.553   0.321  1.0831 -0.1374 -0.9972
   89SOL    HW2  355   1.811   0.696   0.307  0.0939  1.4752 -0.7914
   89SOL     MW  356   1.751   0.634   0.328  0.3334  0.9389  0.2009
   90SOL     OW  357   0.708   1.196   2.769  0.4722 -0.2669 -0.1934
   90SOL    HW1  358   0.786   1.142   2.753  1.0005  1.8263  2.2022
   90SOL    HW2  359   0.728   1.216   2.860  0.1943 -0.2664  1.6633
   90SOL     MW  360   0.721   1.192   2.779  0.5052  0.0093  0.3676
   91SOL     OW  361   2.098   0.672   0.518  0.4108 -0.6849  0.6238
   91SOL    HW1  362   2.078   0.762   0.482  2.6986  2.9328  0.8470
   91SOL    HW2  363   2.040   0.605   0.480  1.0393 -0.1523  0.6280
   91SOL     MW  364   2.088   0.675   0.508  0.7956 -0.1373  0.6538
   92SOL     OW  365   1.580   0.819   0.439 -0.3701  0.4647 -0.5683
   92SOL    HW1  366   1.510   0.776   0.488  1.2955 -1.2297  2.7282
   92SOL    HW2  367   1.626   0.745   0.398 -0.4475  3.4869 -0.2587
   92SOL     MW  368   1.577   0.803   0.440 -0.1606  0.6399 -0.0925
   93SOL     OW  369   1.078   0.259   0.344 -0.1524  0.1874  0.2144
   93SOL    HW1  370   1.000   0.314   0.361 -0.7998  1.2202 -2.5940
   93SOL    HW2  371   1.101   0.274   0.253 -0.3464  2.6052  1.8209
   93SOL     MW  372   1.071   0.268   0.334 -0.2634  0.6427  0.0558
   94SOL     OW  373   1.927   1.310   1.660 -0.1341  0.3673  0.1113
   94SOL    HW1  374   1.959   1.324   1.573 -1.6577 -3.1930  1.6193
   94SOL    HW2  375   1.925   1.222   1.679 -1.5052  0.1170  0.0300
   94SOL     MW  376   1.931   1.300   1.651 -0.5160 -0.1354  0.2995
   95SOL     OW  377   0.836   1.530   0.971 -0.8387  0.0635 -0.3330
   95SOL    HW1  378   0.887   1.453   0.979  0.4357  0.7776  0.7258
   95SOL    HW2  379   0.786   1.517   1.050 -1.3568 -2.0912  2.5792
   95SOL     MW  380   0.836   1.518   0.982 -0.7389 -0.1265  0.1909
   96SOL     OW  381   1.244   1.809   1.587 -0.3361  0.0578  0.2682
   96SOL    HW1  382   1.155   1.814   1.595  2.1622 -0.0878 -0.7150
   96SOL    HW2  383   1.259   1.736   1.530  1.8525  1.0024 -0.4669
   96SOL     MW  384   1.234   1.800   1.581  0.2823  0.1632  0.0415
   97SOL     OW  385   1.248   1.389   0.820 -0.6586  0.2690 -0.2165
   97SOL    HW1  386   1.296   1.428   0.886 -2.5443 -1.3455 -0.4099
   97SOL    HW2  387   1.181   1.455   0.803 -1.3727 -1.4113  0.3471
   97SOL     MW  388   1.246   1.403   0.826 -1.0016 -0.1657 -0.1677
   98SOL     OW  389   1.520   1.320   1.157  0.1097 -0.5571 -0.3373
   98SOL    HW1  390   1.553   1.396   1.206  0.1415  1.7749 -2.5890
   98SOL    HW2  391   1.538   1.336   1.064 -1.8337 -0.5813 -0.6478
   98SOL     MW  392   1.527   1.332   1.151 -0.1425 -0.2526 -0.6754
   99SOL     OW  393   1.531   0.325   1.279  0.1894  0.0831  0.4390
   99SOL    HW1  394   1.512   0.407   1.241 -4.3889  0.0930  0.2873
   99SOL    HW2  395   1.504   0.347   1.371 -0.4708  1.6312  1.5741
   99SOL     MW  396   1.525   0.338   1.286 -0.5018  0.2886  0.5688
  100SOL     OW  397   1.054   1.075   1.373 -0.5355  0.3354  1.1028
  100SOL    HW1  398   0.991   1.105   1.440 -0.3701 -1.6335  1.1580
  100SOL    HW2  399   1.065   0.981   1.397  0.1918  0.1493 -1.3036
  100SOL     MW  400   1.047   1.066   1.385 -0.4177  0.0510  0.7926
  101SOL     OW  401   0.614   1.159   0.301  0.3511  0.0024 -0.5493
  101SOL    HW1  402   0.604   1.061   0.317  0.2436 -1.4626 -0.4989
  101SOL    HW2  403   0.589   1.166   0.211  1.5075 -1.4979  1.4313
  101SOL     MW  404   0.609   1.147   0.291  0.4895 -0.3889 -0.2814
  102SOL     OW  405   2.956   0.594   0.990  0.1850  0.1814  0.4054
  102SOL    HW1  406   3.025   0.647   0.945 -2.0095 -2.3643  0.9422
  102SOL    HW2  407   2.995   0.563   1.071 -0.9528  0.2119 -1.0719
  102SOL     MW  408   2.970   0.597   0.995 -0.2547 -0.1505  0.2813
  103SOL     OW  409   1.619   0.365   1.869  0.5650  0.4309  0.1914
  103SOL    HW1  410   1.619   0.329   1.774 -0.3671 -0.8648 -1.8011
  103SOL    HW2  411   1.705   0.353   1.900 -2.1708  0.1863 -0.6624
  103SOL     MW  412   1.631   0.359   1.861  0.0810  0.2277 -0.1841
  104SOL     OW  413   0.137   1.854   1.403  0.9018  0.3236 -0.2148
  104SOL    HW1  414   0.201   1.787   1.384 -0.5047  2.0850 -1.0864
  104SOL    HW2  415   0.059   1.808   1.390  0.9480 -2.3927 -1.4913
  104SOL     MW  416   0.135   1.839   1.399  0.7223  0.1976 -0.4982
  105SOL     OW  417   0.174   1.144   0.554  0.2349  0.2495  0.4210
  105SOL    HW1  418   0.183   1.111   0.463  0.8407  3.1303  1.9321
  105SOL    HW2  419   0.224   1.229   0.551 -1.4906  1.5514 -2.2178
  105SOL     MW  420   0.182   1.151   0.542  0.0872  0.8013  0.2722
  106SOL     OW  421   0.845   0.329   0.932  0.5842  0.1088  0.0753
  106SOL    HW1  422   0.781   0.388   0.894  1.5361 -1.7172 -0.8391
  106SOL    HW2  423   0.923   0.337   0.882 -1.0703 -0.5341  0.0825
  106SOL     MW  424   0.847   0.338   0.921  0.4915 -0.2169 -0.0444
  107SOL     OW  425   0.802   2.195   3.032  0.3101 -0.1727  0.1151
  107SOL    HW1  426   0.782   2.111   2.985 -1.6249  0.8379 -2.2849
  107SOL    HW2  427   0.890   2.178   3.070  0.3264  0.0313  0.2331
  107SOL     MW  428   0.811   2.181   3.031  0.0569 -0.0125 -0.1860
  108SOL     OW  429   1.399   1.592   1.442 -0.7627  0.1853 -0.4207
  108SOL    HW1  430   1.347   1.539   1.385 -0.6826  1.3647 -1.6907
  108SOL    HW2  431   1.467   1.545   1.500  1.3965  1.2302 -4.1723
  108SOL     MW  432   1.401   1.579   1.442 -0.4672  0.4788 -1.0833
  109SOL     OW  433   1.953   0.763   0.219 -0.5244 -0.2850 -0.5409
  109SOL    HW1  434   1.981   0.780   0.133 -0.7132 -0.9039  2.3097
  109SOL    HW2  435   2.021   0.803   0.279 -0.4941  1.8124  2.2211
  109SOL     MW  436   1.965   0.771   0.216 -0.5453 -0.0899  0.1996
  110SOL     OW  437   0.415   1.796   0.698  0.3324  0.2982  0.1326
  110SOL    HW1  438   0.485   1.746   0.655 -1.1601 -0.9052 -0.4463
  110SOL    HW2  439   0.411   1.874   0.644  0.4222  0.4803 -3.4050
  110SOL     MW  440   0.423   1.800   0.686  0.1473  0.1634 -0.4105
  111SOL     OW  441   0.730   0.867   1.505 -0.0664 -0.4911  0.3800
  111SOL    HW1  442   0.769   0.815   1.436 -0.2245 -0.8382 -1.0271
  111SOL    HW2  443   0.641   0.832   1.526  0.9162 -1.8536  0.1657
  111SOL     MW  444   0.723   0.855   1.499  0.0424 -0.7166  0.1661
  112SOL     OW  445   1.309   1.099   1.671  0.1305 -0.6811  1.0492
  112SOL    HW1  446   1.235   1.155   1.708  1.5650  0.7815  2.8574
  112SOL    HW2  447   1.266   1.011   1.669 -0.4569  2.0090 -0.8932
  112SOL     MW  448   1.294   1.095   1.676  0.2423 -0.1332  1.0315
  113SOL     OW  449   1.379   0.093   1.697  0.4662 -0.7965  0.4902
  113SOL    HW1  450   1.371   0.057   1.789 -0.0176  0.5273 -0.0950
  113SOL    HW2  451   1.374   0.017   1.635 -1.7946  3.1604 -0.5848
  113SOL     MW  452   1.377   0.079   1.701  0.1041 -0.0998  0.2712
  114SOL     OW  453   0.455   2.802   1.827  0.4167  0.0341 -0.0771
  114SOL    HW1  454   0.436   2.860   1.901 -0.6566  0.3225  1.0920
  114SOL    HW2  455   0.429   2.860   1.754  0.5162  2.0837 -1.3826
  114SOL     MW  456   0.449   2.818   1.827  0.2882  0.3426 -0.0951
  115SOL     OW  457   0.463   0.833   1.100 -0.1318 -0.5517  0.4322
  115SOL    HW1  458   0.469   0.742   1.080 -1.4420  1.3497  1.2683
  115SOL    HW2  459   0.453   0.838   1.196  2.0717 -2.9660  2.3492
  115SOL     MW  460   0.463   0.822   1.110 -0.0140 -0.6194  0.7955
  116SOL     OW  461   0.767   1.013   0.909 -0.0637  0.1095 -0.1426
  116SOL    HW1  462   0.830   1.047   0.845 -1.0122  1.4668  1.4645
  116SOL    HW2  463   0.807   1.008   0.995  1.5542  0.3490  1.3544
  116SOL     MW  464   0.781   1.017   0.912  0.0247  0.3202  0.2670
  117SOL     OW  465   1.221   1.134   0.772  0.5205 -0.4426 -0.4687
  117SOL    HW1  466   1.246   1.079   0.847 -3.5518  2.2896 -2.6641
  117SOL    HW2  467   1.240   1.226   0.799 -1.3151  0.1981 -0.6302
  117SOL     MW  468   1.226   1.139   0.785 -0.2590  0.0024 -0.7796
  118SOL     OW  469   3.073   2.975   1.711 -0.9334  0.6020 -0.8937
  118SOL    HW1  470   3.117   3.029   1.780 -0.0805  0.9523  2.5425
  118SOL    HW2  471   2.985   3.009   1.714 -0.0621 -0.9875 -2.1543
  118SOL     MW  472   3.067   2.986   1.721 -0.7059  0.4385 -0.6066
  119SOL     OW  473   0.559   1.324   1.206 -0.1389  0.1921  0.1029
  119SOL    HW1  474   0.543   1.347   1.111 -1.8490 -2.6065  0.3636
  119SOL    HW2  475   0.482   1.272   1.225 -1.9028 -0.8364 -0.9265
  119SOL     MW  476   0.547   1.320   1.196 -0.5973 -0.3128  0.0015
  120SOL     OW  477   0.216   0.682   0.927  0.0360  0.2342  0.0787
  120SOL    HW1  478   0.264   0.613   0.977 -0.2542  0.6709  0.2020
  120SOL    HW2  479   0.225   0.765   0.969 -1.8690 -1.7213 -0.4707
  120SOL     MW  480   0.223   0.684   0.939 -0.2536  0.0338  0.0225
  121SOL     OW  481   1.813   1.032   1.709  0.4023  0.1882 -0.0573
  121SOL    HW1  482   1.722   1.040   1.732 -1.6983 -0.0390 -1.0059
  121SOL    HW2  483   1.838   0.942   1.685  1.4976 -1.1555 -1.8864
  121SOL     MW  484   1.805   1.021   1.709  0.2696 -0.0190 -0.4238
  122SOL     OW  485   0.099   0.512   0.745 -0.3554  0.0689  0.3710
  122SOL    HW1  486   0.169   0.477   0.688  1.1517 -0.9696  1.4850
  122SOL    HW2  487   0.141   0.574   0.802 -0.4969  0.6112  1.1896
  122SOL     MW  488   0.114   0.515   0.745 -0.1752  0.0034  0.6260
  123SOL     OW  489   1.785   1.028   0.477 -0.0002 -0.0219  0.0157
  123SOL    HW1  490   1.732   0.951   0.450 -1.9305 -0.3708  0.2319
  123SOL    HW2  491   1.792   1.021   0.576 -0.6428 -0.7003  0.7122
  123SOL     MW  492   1.779   1.017   0.486 -0.3397 -0.1574  0.1361
  124SOL     OW  493   0.662   0.515   0.836 -0.4537  0.5349  0.3494
  124SOL    HW1  494   0.570   0.496   0.802  0.5159  1.0123  1.5132
  124SOL    HW2  495   0.672   0.609   0.823  1.8603 -2.3239 -0.4108
  124SOL     MW  496   0.651   0.525   0.830 -0.0205  0.2207  0.4027
  125SOL     OW  497   0.688   1.690   1.664  0.2340  1.1556  0.5648
  125SOL    HW1  498   0.616   1.615   1.646 -0.3408  0.4324 -1.9293
  125SOL    HW2  499   0.627   1.767   1.656  0.0476  1.5682 -1.7091
  125SOL     MW  500   0.671   1.690   1.661  0.1335  1.1146 -0.0643
  126SOL     OW  501   2.131   1.614   1.961 -0.2388 -0.1353  0.3370
  126SOL    HW1  502   2.188   1.695   1.942 -0.5903  1.2432  0.4469
  126SOL    HW2  503   2.193   1.547   1.984 -0.9234  0.1352  0.6315
  126SOL     MW  504   2.147   1.616   1.962 -0.3755  0.0823  0.3903
  127SOL     OW  505   0.618   0.724   1.894  0.1080  0.0710 -0.1922
  127SOL    HW1  506   0.690   0.674   1.916 -1.6766  1.0451 -2.4755
  127SOL    HW2  507   0.638   0.811   1.936  2.4776  1.7539 -0.3218
  127SOL     MW  508   0.630   0.729   1.902  0.1852  0.4215 -0.5105
  128SOL     OW  509   1.786   0.758   2.883  0.9872 -0.1019 -0.0481
  128SOL    HW1  510   1.815   0.739   2.795  0.4739 -2.3339  1.3179
  128SOL    HW2  511   1.745   0.847   2.871  0.1763 -0.8632  0.9194
  128SOL     MW  512   1.784   0.768   2.869  0.8125 -0.4968  0.2598
  129SOL     OW  513   1.494   0.967   0.212 -0.0751  0.2090  0.1558
  129SOL    HW1  514   1.417   0.913   0.201  3.0081  0.2992 -0.5742
  129SOL    HW2  515   1.500   0.950   0.307 -0.1831 -0.9195 -0.1345
  129SOL     MW  516   1.484   0.957   0.223  0.3175  0.0720  0.0212
  130SOL     OW  517   0.747   1.480   0.371 -0.0754 -0.0805  0.0010
  130SOL    HW1  518   0.786   1.440   0.456  2.4288 -0.0893  2.3332
  130SOL    HW2  519   0.832   1.499   0.325  0.5719 -0.4184 -1.4002
  130SOL     MW  520   0.764   1.478   0.376  0.3404 -0.1262  0.1238
  131SOL     OW  521   3.048   0.766   0.068  0.4499  0.3694  0.4091
  131SOL    HW1  522   3.067   0.825  -0.014  3.6351  2.0312 -2.1174
  131SOL    HW2  523   3.127   0.768   0.124 -2.3284 -1.7207 -0.0370
  131SOL     MW  524   3.061   0.774   0.065  0.5036  0.3129  0.0169
  132SOL     OW  525   2.759   0.153   1.273  0.2869 -0.0762 -0.2088
  132SOL    HW1  526   2.769   0.148   1.177  0.0940  0.4422  0.2966
  132SOL    HW2  527   2.665   0.126   1.290  0.3630 -0.4806  0.1350
  132SOL     MW  528   2.748   0.149   1.262  0.2715 -0.0611 -0.0967
  133SOL     OW  529   1.122   0.187   1.694  0.0523 -0.0856  0.3767
  133SOL    HW1  530   1.206   0.140   1.693 -0.2625 -1.2070 -2.0668
  133SOL    HW2  531   1.097   0.198   1.786  0.1267 -1.7554  0.3461
  133SOL     MW  532   1.130   0.182   1.706  0.0206 -0.4539  0.0503
  134SOL     OW  533   1.369   2.509   1.387 -0.4356  0.0376  0.4606
  134SOL    HW1  534   1.289   2.569   1.382  0.2018 -3.6553  0.8197
  134SOL    HW2  535   1.411   2.530   1.477 -0.8355 -0.4836 -0.1971
  134SOL     MW  536   1.364   2.520   1.398 -0.4043 -0.5184  0.4212
  135SOL     OW  537   3.033   0.968   2.973  0.1179  0.0994 -0.1758
  135SOL    HW1  538   3.101   1.035   2.974 -1.6190 -1.3880 -0.4689
  135SOL    HW2  539   2.949   1.028   2.992 -3.0383  0.6525  5.1183
  135SOL     MW  540   3.031   0.985   2.976 -0.5277 -0.0239  0.4840
  136SOL     OW  541   0.290   2.005   0.850  0.2653  0.2080 -0.0399
  136SOL    HW1  542   0.212   1.983   0.797 -1.4871 -1.7604  0.5793
  136SOL    HW2  543   0.362   1.977   0.790  1.7449  2.0350  3.9564
  136SOL     MW  544   0.289   1.998   0.835  0.2293  0.1893  0.5691
  137SOL     OW  545   0.706   2.011   0.554  0.9198  0.2272 -0.2712
  137SOL    HW1  546   0.731   1.991   0.645  0.6851  0.7445  2.3471
  137SOL    HW2  547   0.612   2.043   0.561 -1.1029  1.2245 -3.1502
  137SOL     MW  548   0.697   2.012   0.567  0.6220  0.4270 -0.3056
  138SOL     OW  549   0.529   0.569   1.077  0.2840 -0.3962  0.6986
  138SOL    HW1  550   0.446   0.523   1.076  1.5997  2.1738 -3.0801
  138SOL    HW2  551   0.559   0.564   0.984  0.5443 -1.4281 -0.2899
  138SOL     MW  552   0.522   0.562   1.065  0.4920 -0.1933  0.0696
  139SOL     OW  553   2.733   0.495   1.409 -0.3438 -0.9318  0.1798
  139SOL    HW1  554   2.798   0.435   1.370  0.7824  0.3802 -5.3003
  139SOL    HW2  555   2.788   0.577   1.417  0.0911  0.9979  1.2763
  139SOL     MW  556   2.749   0.498   1.405 -0.1378 -0.5041 -0.3986
  140SOL     OW  557   0.863   0.336   2.119  0.0207  0.6554 -0.9434
  140SOL    HW1  558   0.922   0.301   2.053  1.2631 -0.5442  0.6550
  140SOL    HW2  559   0.899   0.291   2.193 -1.5746 -0.5318  1.6047
  140SOL     MW  560   0.876   0.326   2.120 -0.0258  0.3405 -0.3963
  141SOL     OW  561   1.003   0.618   1.751  0.2188  0.1679 -0.6039
  141SOL    HW1  562   1.054   0.538   1.715 -0.4771 -1.2154 -0.7873
  141SOL    HW2  563   1.066   0.689   1.746  0.7392  1.8924 -0.0284
  141SOL     MW  564   1.018   0.617   1.746  0.1957  0.2129 -0.5522
  142SOL     OW  565   0.930   1.164   0.757  0.5563  0.8326  0.3228
  142SOL    HW1  566   0.907   1.099   0.689 -1.5418  0.7564 -0.9561
  142SOL    HW2  567   1.031   1.151   0.771 -1.5736  0.3386  1.7129
  142SOL     MW  568   0.940   1.153   0.750 -0.0015  0.7574  0.3375
  143SOL     OW  569   1.877   0.907   1.117 -0.3741 -0.0552 -0.1087
  143SOL    HW1  570   1.882   0.893   1.022 -0.3851 -0.4982  0.1760
  143SOL    HW2  571   1.842   0.826   1.152 -1.3579  0.3414  0.7887
  143SOL     MW  572   1.873   0.894   1.109 -0.5053 -0.0613  0.0473
  144SOL     OW  573   0.139   1.173   1.539  0.3054 -0.2310  0.0530
  144SOL    HW1  574   0.196   1.132   1.475  1.2814  0.8084 -0.7211
  144SOL    HW2  575   0.191   1.171   1.621 -0.0324  0.6166 -0.6969
  144SOL     MW  576   0.153   1.168   1.541  0.3896  0.0179 -0.1481
  145SOL     OW  577   0.283   0.486   1.095 -0.5549  0.1336 -0.6898
  145SOL    HW1  578   0.295   0.439   1.173 -2.7739  1.3840 -2.0049
  145SOL    HW2  579   0.230   0.413   1.049 -0.5084 -1.3830  0.3903
  145SOL     MW  580   0.277   0.470   1.099 -0.8416  0.0985 -0.7208
  146SOL     OW  581   0.901   1.886   1.376 -0.1517 -0.1083 -0.3296
  146SOL    HW1  582   0.952   1.890   1.288  1.5052  0.9211 -0.8387
  146SOL    HW2  583   0.810   1.913   1.357 -1.2029  0.3739 -2.4633
  146SOL     MW  584   0.896   1.890   1.362 -0.0718  0.0911 -0.6783
  147SOL     OW  585   0.386   0.444   2.871 -0.1689 -0.3198  0.9573
  147SOL    HW1  586   0.337   0.454   2.948  0.5376  0.6850 -2.4351
  147SOL    HW2  587   0.338   0.498   2.809  0.1175 -0.5533 -0.7268
  147SOL     MW  588   0.374   0.453   2.873 -0.0379 -0.2180  0.2875
  148SOL     OW  589   0.033   0.936   1.314 -0.4620 -0.1291  0.2174
  148SOL    HW1  590   0.125   0.941   1.308 -0.6943 -1.3516  1.0456
  148SOL    HW2  591   0.017   0.944   1.411 -0.1848  1.6804  3.7045
  148SOL     MW  592   0.043   0.938   1.326 -0.4561 -0.0517  0.7867
  149SOL     OW  593   1.422   1.135   1.420 -0.3004  0.9016  0.3053
  149SOL    HW1  594   1.368   1.123   1.506  1.2007  0.5202  3.6149
  149SOL    HW2  595   1.499   1.190   1.447  0.6036 -0.0343  1.5394
  149SOL     MW  596   1.425   1.141   1.435  0.0169  0.7278  0.9048
  150SOL     OW  597   1.818   1.320   0.770 -0.1989 -0.8704  0.6085
  150SOL    HW1  598   1.834   1.228   0.766  0.9093  0.3690  1.3412
  150SOL    HW2  599   1.888   1.355   0.821  1.7094  2.0839 -2.0691
  150SOL     MW  600   1.829   1.312   0.776  0.1991 -0.3171  0.3519
  151SOL     OW  601   1.621   1.800   0.852  0.0723  0.4763  0.2219
  151SOL    HW1  602   1.556   1.804   0.782  1.8173 -1.1597 -0.0811
  151SOL    HW2  603   1.603   1.733   0.920  0.7165  0.6961 -1.1696
  151SOL     MW  604   1.610   1.792   0.852  0.3875  0.2894 -0.0017
  152SOL     OW  605   0.790   1.361   1.535  0.5833  0.1358 -0.2873
  152SOL    HW1  606   0.785   1.275   1.585 -1.7238 -0.9053  3.1725
  152SOL    HW2  607   0.881   1.378   1.504 -1.1280 -0.6871  0.1272
  152SOL     MW  608   0.801   1.352   1.538  0.0531 -0.1101  0.2239
  153SOL     OW  609   2.669   1.233   0.707  0.0394  0.0287  0.6328
  153SOL    HW1  610   2.718   1.207   0.627  2.0356 -2.4891  0.3735
  153SOL    HW2  611   2.593   1.165   0.707  0.9407  1.5475  0.3174
  153SOL     MW  612   2.665   1.221   0.696  0.4217 -0.1031  0.5570
  154SOL     OW  613   0.327   1.775   1.690  0.2356 -0.3326 -0.0504
  154SOL    HW1  614   0.319   1.730   1.603  0.1284 -0.8618 -3.9775
  154SOL    HW2  615   0.357   1.704   1.748 -0.2915  1.2865  0.5144
  154SOL     MW  616   0.330   1.760   1.686  0.1519 -0.1888 -0.4940
  155SOL     OW  617   1.109   0.706   0.307  0.0717 -0.4693  0.7172
  155SOL    HW1  618   1.120   0.651   0.387 -1.8225 -3.1744 -0.1428
  155SOL    HW2  619   1.086   0.797   0.338 -0.4203  0.8885 -0.2575
  155SOL     MW  620   1.107   0.711   0.322 -0.2431 -0.6471  0.4751
  156SOL     OW  621   1.489   3.031   1.038 -0.2846 -0.2289 -0.0786
  156SOL    HW1  622   1.557   3.100   1.043 -1.6622 -1.8877 -0.9115
  156SOL    HW2  623   1.507   2.963   1.105 -0.9271  1.4249  0.8012
  156SOL     MW  624   1.500   3.031   1.047 -0.5512 -0.2295 -0.0724
  157SOL     OW  625   1.360   1.230   0.132 -0.1667  0.2719  0.3752
  157SOL    HW1  626   1.398   1.140   0.140  0.6014 -2.5022  1.9066
  157SOL    HW2  627   1.432   1.289   0.108 -2.1934 -0.4345 -0.5348
  157SOL     MW  628   1.375   1.226   0.130 -0.3327 -0.1873  0.4572
  158SOL     OW  629   0.394   1.673   2.271  0.7043  0.4628 -0.2330
  158SOL    HW1  630   0.359   1.690   2.184  1.1572 -1.0764 -0.2390
  158SOL    HW2  631   0.332   1.631   2.328 -1.4327  0.7767 -0.4831
  158SOL     MW  632   0.381   1.669   2.267  0.4821  0.3011 -0.2668
  159SOL     OW  633   1.317   1.658   0.451  0.3888 -0.3953 -0.0509
  159SOL    HW1  634   1.274   1.575   0.445  2.3624  2.5562 -1.7497
  159SOL    HW2  635   1.239   1.717   0.468 -0.6321  0.6271  2.1076
  159SOL     MW  636   1.301   1.655   0.453  0.5145  0.1290  0.0097
  160SOL     OW  637   0.453   1.070   1.547  0.1418  0.1556  0.1788
  160SOL    HW1  638   0.478   0.995   1.597 -1.0109 -0.2092 -0.3577
  160SOL    HW2  639   0.453   1.146   1.604  0.8763 -1.1417  0.9510
  160SOL     MW  640   0.456   1.070   1.561  0.0866 -0.0637  0.2099
  161SOL     OW  641   0.579   2.115   2.709 -0.3063 -0.3358  0.0406
  161SOL    HW1  642   0.497   2.125   2.757 -0.8679 -1.5995 -1.2091
  161SOL    HW2  643   0.557   2.083   2.627 -0.2283  1.8351  2.7614
  161SOL     MW  644   0.565   2.112   2.704 -0.3701 -0.2161  0.2347
  162SOL     OW  645   1.008   1.688   1.798 -0.7021 -0.3184 -0.4049
  162SOL    HW1  646   1.053   1.778   1.811 -1.2439 -0.6229  1.6083
  162SOL    HW2  647   0.922   1.709   1.823  1.3628 -2.6675 -1.6531
  162SOL     MW  648   1.003   1.703   1.803 -0.5011 -0.6685 -0.3040
  163SOL     OW  649   2.115   0.165   0.963 -0.1189  0.6127 -0.5010
  163SOL    HW1  650   2.107   0.185   0.870 -1.7931  0.8513  3.5633
  163SOL    HW2  651   2.051   0.099   0.987  0.6425  0.3760  0.2002
  163SOL     MW  652   2.106   0.159   0.954 -0.2393  0.6129  0.1278
  164SOL     OW  653   0.244   0.209   0.808  0.1291  0.3741 -0.5177
  164SOL    HW1  654   0.191   0.238   0.887 -1.1008  0.4467  2.8193
  164SOL    HW2  655   0.209   0.124   0.783 -0.3659  2.2620 -0.4014
  164SOL     MW  656   0.233   0.202   0.815 -0.0985  0.6327 -0.0621
  165SOL     OW  657   1.367   1.228   0.409 -0.1555  0.3974 -0.0867
  165SOL    HW1  658   1.350   1.146   0.456  0.9476  1.2371 -0.6761
  165SOL    HW2  659   1.374   1.200   0.320  2.3445  0.0951 -0.3062
  165SOL     MW  660   1.366   1.213   0.403  0.3199  0.4683 -0.1934
  166SOL     OW  661   0.492   1.083   0.971 -0.3318 -0.1975 -0.3114
  166SOL    HW1  662   0.471   1.007   1.027 -4.1928 -0.7626  1.0603
  166SOL    HW2  663   0.587   1.072   0.956 -0.0282  2.2680 -1.8315
  166SOL     MW  664   0.502   1.072   0.976 -0.8011  0.0533 -0.3310
  167SOL     OW  665   0.901   1.142   0.260 -0.4058 -0.1793  0.2604
  167SOL    HW1  666   0.812   1.161   0.269 -0.4606 -0.7053 -2.6874
  167SOL    HW2  667   0.919   1.144   0.163 -0.8030  3.2572 -2.1475
  167SOL     MW  668   0.892   1.144   0.248 -0.4654  0.2047 -0.4462
  168SOL     OW  669   1.709   1.742   2.885  0.2339 -0.1098 -0.1495
  168SOL    HW1  670   1.619   1.766   2.873  0.2688  1.6363 -0.8382
  168SOL    HW2  671   1.714   1.647   2.928  0.4745  0.1460 -0.1379
  168SOL     MW  672   1.698   1.733   2.889  0.2702  0.1543 -0.2388
  169SOL     OW  673   0.313   0.947   1.334  0.3025  0.5002  0.0750
  169SOL    HW1  674   0.368   0.965   1.416  3.3694  2.4776 -1.9908
  169SOL    HW2  675   0.333   1.024   1.278  1.8653 -1.3797 -3.3291
  169SOL     MW  676   0.323   0.960   1.338  0.9133  0.5131 -0.6467
  170SOL     OW  677   1.034   1.465   1.482  0.5137 -0.1985 -0.1077
  170SOL    HW1  678   0.965   1.536   1.464 -0.2547  3.4124  0.1487
  170SOL    HW2  679   1.084   1.462   1.402 -3.3273  0.1131  0.9780
  170SOL     MW  680   1.031   1.474   1.469 -0.0945  0.3190  0.0694
  171SOL     OW  681   0.610   1.382   0.710  0.6190  0.0969  0.0667
  171SOL    HW1  682   0.577   1.361   0.801 -2.5547  1.5730  0.1806
  171SOL    HW2  683   0.600   1.305   0.655  0.6448  0.0323 -0.9233
  171SOL     MW  684   0.605   1.369   0.715  0.2036  0.2831 -0.0489
  172SOL     OW  685   0.848   0.326   1.214  0.6929 -0.0621  0.0042
  172SOL    HW1  686   0.845   0.334   1.115  0.6569 -1.2798 -0.4750
  172SOL    HW2  687   0.762   0.367   1.247  1.1064 -2.2040 -2.9962
  172SOL     MW  688   0.836   0.332   1.206  0.7427 -0.5053 -0.4549
  173SOL     OW  689   0.479   1.701   0.335  0.4289  1.1961  0.5196
  173SOL    HW1  690   0.458   1.606   0.319 -1.2150 -0.1934  0.2887
  173SOL    HW2  691   0.507   1.688   0.425 -1.8093 -0.4467  0.4112
  173SOL     MW  692   0.480   1.687   0.345 -0.0833  0.7960  0.4749
  174SOL     OW  693   2.041   0.945   1.495 -0.1378 -0.0682 -0.5993
  174SOL    HW1  694   1.984   0.865   1.516 -2.0034 -2.8839  3.0917
  174SOL    HW2  695   1.978   1.000   1.451  1.2923 -0.0511  2.3678
  174SOL     MW  696   2.025   0.942   1.492 -0.1953 -0.4374  0.2792
  175SOL     OW  697   0.454   1.429   0.331  1.0132  0.3796 -0.4451
  175SOL    HW1  698   0.425   1.411   0.243  0.4364 -1.0129 -2.0547
  175SOL    HW2  699   0.546   1.424   0.327 -0.0303 -2.2959  0.5649
  175SOL     MW  700   0.462   1.426   0.319  0.7994 -0.1571 -0.5242
  176SOL     OW  701   0.304   1.198   1.249 -0.0000 -0.2141 -0.0615
  176SOL    HW1  702   0.258   1.214   1.164 -0.2276 -1.5899 -2.1555
  176SOL    HW2  703   0.252   1.251   1.317  1.8810  1.6354 -2.5428
  176SOL     MW  704   0.291   1.207   1.247  0.2181 -0.1516 -0.6651
  177SOL     OW  705   0.626   0.461   1.303 -0.3887  0.0032 -0.0392
  177SOL    HW1  706   0.605   0.525   1.224 -1.8690  0.4910 -0.5122
  177SOL    HW2  707   0.623   0.513   1.380  1.8369 -0.0267 -0.3429
  177SOL     MW  708   0.623   0.476   1.303 -0.2904  0.0636 -0.1417
  178SOL     OW  709   3.096   0.427   2.948 -0.1276 -0.3482  0.1244
  178SOL    HW1  710   3.050   0.479   3.020 -0.0654 -0.4354 -1.1662
  178SOL    HW2  711   3.027   0.430   2.879  1.6147 -0.9167  0.7444
  178SOL     MW  712   3.081   0.434   2.948  0.1105 -0.4347  0.0359
  179SOL     OW  713   1.629   1.322   1.489  0.3386 -0.7334 -0.3803
  179SOL    HW1  714   1.598   1.375   1.564 -0.6430  2.0201  1.8169
  179SOL    HW2  715   1.717   1.290   1.515  1.8120  0.0691  0.4903
  179SOL     MW  716   1.637   1.325   1.503  0.4035 -0.2642  0.0245
  180SOL     OW  717   3.035   0.286   0.483 -0.0010 -0.0485 -0.2592
  180SOL    HW1  718   3.005   0.280   0.389 -0.8639 -1.0043 -2.8111
  180SOL    HW2  719   3.081   0.368   0.483 -0.0332  0.2081 -0.4896
  180SOL     MW  720   3.038   0.296   0.470 -0.1191 -0.1408 -0.6263
  181SOL     OW  721   1.116   1.440   3.064 -0.0858  0.3430  0.0111
  181SOL    HW1  722   1.171   1.425   3.139 -1.8167  1.1372  0.3841
  181SOL    HW2  723   1.169   1.438   2.978  0.7677 -1.5121  1.1865
  181SOL     MW  724   1.130   1.438   3.063 -0.2016  0.2031  0.2154
  182SOL     OW  725   0.481   0.812   1.629 -0.2063  0.1446 -0.5781
  182SOL    HW1  726   0.392   0.795   1.651 -0.2525  1.0143 -0.0764
  182SOL    HW2  727   0.529   0.750   1.686  0.5242  2.1519  0.7219
  182SOL     MW  728   0.476   0.801   1.639 -0.1160  0.5242 -0.3404
  183SOL     OW  729   1.636   1.532   1.302  0.5835 -0.3591 -0.0444
  183SOL    HW1  730   1.557   1.580   1.319 -1.0397  1.6347 -0.7619
  183SOL    HW2  731   1.644   1.471   1.375  1.7927  0.2754 -0.3663
  183SOL     MW  732   1.627   1.530   1.314  0.5289 -0.0123 -0.1815
  184SOL     OW  733   0.848   0.612   1.977  0.5106  0.1367  0.6273
  184SOL    HW1  734   0.919   0.616   1.907  0.7219 -1.2441 -1.7825
  184SOL    HW2  735   0.874   0.532   2.018 -2.2236  3.0430  0.0682
  184SOL     MW  736   0.861   0.602   1.973  0.1778  0.3380  0.2356
  185SOL     OW  737   1.124   0.955   1.941 -0.0584 -0.1387  0.3941
  185SOL    HW1  738   1.108   0.878   1.990  0.0835 -1.6191  0.5271
  185SOL    HW2  739   1.176   1.014   2.004  1.8022 -0.5162 -0.9969
  185SOL     MW  740   1.129   0.953   1.955  0.2058 -0.3839  0.2281
  186SOL     OW  741   0.383   1.674   1.409  0.5857 -0.1404  0.0836
  186SOL    HW1  742   0.459   1.718   1.371 -1.2553  0.8279  0.8204
  186SOL    HW2  743   0.350   1.611   1.344 -1.0633 -1.3278  0.9939
  186SOL     MW  744   0.389   1.671   1.395  0.1252 -0.1693  0.3009
  187SOL     OW  745   1.518   0.684   1.472  0.0683 -0.0162 -0.0963
  187SOL    HW1  746   1.505   0.681   1.568  0.5036 -1.5944 -0.0834
  187SOL    HW2  747   1.430   0.682   1.430  0.3514 -0.5509 -2.0852
  187SOL     MW  748   1.504   0.683   1.479  0.1631 -0.2950 -0.3570
  188SOL     OW  749   1.912   1.040   0.720 -0.3108 -0.6276  0.0650
  188SOL    HW1  750   1.906   0.955   0.768  1.8667  0.8960  0.2146
  188SOL    HW2  751   2.004   1.036   0.696 -3.1053 -0.5177 -1.2437
  188SOL     MW  752   1.924   1.029   0.723 -0.3922 -0.4121 -0.0880
  189SOL     OW  753   0.662   0.776   0.800 -0.3142 -0.4188 -0.0231
  189SOL    HW1  754   0.594   0.840   0.790  1.6655  1.1123  1.1336
  189SOL    HW2  755   0.742   0.821   0.835 -0.4985  5.0002  1.2369
  189SOL     MW  756   0.664   0.790   0.803 -0.0773  0.4982  0.2957
  190SOL     OW  757   1.863   0.343   1.962  0.3436 -0.3038  0.1116
  190SOL    HW1  758   1.897   0.268   1.908  0.3060 -1.4203 -1.5499
  190SOL    HW2  759   1.938   0.408   1.958  1.6449 -2.5993 -1.0764
  190SOL     MW  760   1.878   0.341   1.954  0.5103 -0.7540 -0.2644
  191SOL     OW  761   1.604   0.935   1.427  0.8970 -0.0153 -1.4609
  191SOL    HW1  762   1.535   1.005   1.404  1.9483  1.5233 -0.8342
  191SOL    HW2  763   1.565   0.850   1.454 -0.6211  0.7054 -0.9175
  191SOL     MW  764   1.590   0.933   1.428  0.8354  0.2828 -1.3065
  192SOL     OW  765   0.759   1.966   2.873 -0.0232  0.2375 -1.2981
  192SOL    HW1  766   0.692   2.002   2.813  0.7302 -2.7589 -3.2682
  192SOL    HW2  767   0.713   1.897   2.922 -0.2352  0.6871 -1.4574
  192SOL     MW  768   0.744   1.962   2.872  0.0482 -0.0985 -1.5790
  193SOL     OW  769   1.051   1.590   0.733  0.2312  0.5344  0.4929
  193SOL    HW1  770   1.023   1.605   0.818  3.1154  1.4095 -0.9701
  193SOL    HW2  771   0.977   1.541   0.698 -0.1032 -2.5301  1.5614
  193SOL     MW  772   1.037   1.585   0.739  0.5677  0.2455  0.4408
  194SOL     OW  773   0.471   1.344   0.944  0.2397  0.5234 -0.2102
  194SOL    HW1  774   0.461   1.246   0.949  1.5329 -2.0640 -0.3071
  194SOL    HW2  775   0.396   1.376   0.894  0.2799  2.6274 -0.8983
  194SOL     MW  776   0.460   1.336   0.938  0.4156  0.4596 -0.3138
  195SOL     OW  777   1.285   1.170   2.982 -0.5573 -0.4589  0.3799
  195SOL    HW1  778   1.296   1.206   3.070  0.1023  0.8351  1.1340
  195SOL    HW2  779   1.240   1.083   2.993 -0.5738 -2.2904 -0.6990
  195SOL     MW  780   1.281   1.164   2.995 -0.4725 -0.5298  0.3370
  196SOL     OW  781   2.171   1.073   0.621  0.4100  0.8392  0.7628
  196SOL    HW1  782   2.127   1.029   0.550  1.1324  1.3100 -0.3015
  196SOL    HW2  783   2.147   1.163   0.614  0.6732 -0.7609  0.6928
  196SOL     MW  784   2.162   1.079   0.611  0.5401  0.6902  0.6131
  197SOL     OW  785   0.568   1.258   2.014  0.0913  0.2119 -0.3030
  197SOL    HW1  786   0.556   1.164   2.015  0.1870 -0.8606  0.4208
  197SOL    HW2  787   0.557   1.272   1.924  0.4645 -1.4296  2.8681
  197SOL     MW  788   0.565   1.247   2.002  0.1532 -0.1462  0.2109
  198SOL     OW  789   2.930   1.403   1.041  0.7173  0.4169 -0.0627
  198SOL    HW1  790   2.941   1.492   0.996  0.1709  0.5075 -1.8574
  198SOL    HW2  791   2.872   1.355   0.989 -1.4290  0.1573  0.4149
  198SOL     MW  792   2.924   1.409   1.028  0.3620  0.3946 -0.2364
  199SOL     OW  793   0.507   1.281   1.743  0.6596 -0.2009  0.1056
  199SOL    HW1  794   0.410   1.281   1.768 -0.1704  2.4989 -2.7906
  199SOL    HW2  795   0.516   1.365   1.698 -2.3803  1.8169  0.1648
  199SOL     MW  796   0.495   1.292   1.741  0.1490  0.4215 -0.2687
  200SOL     OW  797   1.922   3.094   1.348 -0.6135 -0.1592  0.7672
  200SOL    HW1  798   1.938   3.084   1.251 -1.1608 -0.1542 -1.7218
  200SOL    HW2  799   1.828   3.094   1.364 -0.0188  2.3533  1.1403
  200SOL     MW  800   1.912   3.093   1.337 -0.6072  0.1729  0.4880
  201SOL     OW  801   1.113   0.299   0.813 -0.6325  0.0926  0.6569
  201SOL    HW1  802   1.079   0.204   0.823 -0.8026  1.8251 -3.2127
  201SOL    HW2  803   1.138   0.291   0.719  1.7218  0.1552 -1.0720
  201SOL     MW  804   1.111   0.286   0.802 -0.3443  0.3294 -0.0818
  202SOL     OW  805   1.564   1.601   1.035 -0.5654  0.3679  0.3770
  202SOL    HW1  806   1.596   1.533   0.974  1.3254  1.9717  0.0614
  202SOL    HW2  807   1.615   1.593   1.116 -1.6861  2.3240 -0.6994
  202SOL     MW  808   1.575   1.591   1.038 -0.4638  0.8376  0.1933
  203SOL     OW  809   3.063   0.454   1.219  1.0169 -0.1786 -0.2474
  203SOL    HW1  810   3.108   0.402   1.156  0.4697  1.7010  2.0708
  203SOL    HW2  811   3.127   0.491   1.275  1.1724 -3.8728 -4.2482
  203SOL     MW  812   3.077   0.452   1.218  0.9652 -0.4180 -0.4694
  204SOL     OW  813   1.077   1.753   0.532 -0.3133 -0.0845 -0.1684
  204SOL    HW1  814   1.061   1.699   0.614  2.2604 -1.3153 -2.4418
  204SOL    HW2  815   1.002   1.749   0.470  0.0759  1.0251 -0.5143
  204SOL     MW  816   1.065   1.745   0.535  0.0776 -0.1005 -0.5140
  205SOL     OW  817   1.395   0.068   1.334 -0.1504  0.1153  0.0184
  205SOL    HW1  818   1.324   0.085   1.275  0.9720  0.5743  1.0705
  205SOL    HW2  819   1.441   0.146   1.309  0.7427 -1.1091  0.1120
  205SOL     MW  820   1.392   0.081   1.323  0.1155  0.0143  0.1696
  206SOL     OW  821   0.507   3.077   1.371 -0.4334 -0.3213  0.1604
  206SOL    HW1  822   0.438   3.066   1.303 -0.8592  0.5315  1.1668
  206SOL    HW2  823   0.541   2.989   1.394 -3.6882  1.9749 -0.3896
  206SOL     MW  824   0.503   3.064   1.365 -0.9190  0.0942  0.2206
  207SOL     OW  825   0.988   1.545   0.236 -1.0159  0.0199  0.6603
  207SOL    HW1  826   1.001   1.635   0.201  1.3195  0.9390  0.2020
  207SOL    HW2  827   1.080   1.515   0.264  1.8805  0.8821  2.2264
  207SOL     MW  828   1.002   1.553   0.235 -0.3257  0.2549  0.8065
  208SOL     OW  829   0.650   1.579   1.212  0.3066 -0.1027 -0.1968
  208SOL    HW1  830   0.720   1.583   1.272  2.1486 -1.3496 -2.7120
  208SOL    HW2  831   0.629   1.483   1.209 -1.7544 -2.3415 -0.8949
  208SOL     MW  832   0.657   1.567   1.220  0.2777 -0.5626 -0.6207
  209SOL     OW  833   1.474   0.516   2.806 -0.0844  0.8377  0.3477
  209SOL    HW1  834   1.482   0.579   2.881  0.8981  2.8889 -0.9371
  209SOL    HW2  835   1.563   0.468   2.803 -0.2967 -0.8476  1.0069
  209SOL     MW  836   1.487   0.518   2.816  0.0173  0.8860  0.2651
  210SOL     OW  837   1.569   1.379   0.878  0.1203  0.6937 -0.4796
  210SOL    HW1  838   1.660   1.357   0.859  1.0989 -1.0665 -0.1609
  210SOL    HW2  839   1.526   1.399   0.796  1.6260 -0.2767  0.1207
  210SOL     MW  840   1.575   1.379   0.865  0.4481  0.3334 -0.3583
  211SOL     OW  841   1.713   0.479   0.932 -0.0830  0.2719  0.1942
  211SOL    HW1  842   1.691   0.456   0.840 -0.3645 -0.6811  1.5948
  211SOL    HW2  843   1.814   0.482   0.920  0.2200  0.7718 -0.1705
  211SOL     MW  844   1.723   0.477   0.919 -0.0802  0.2121  0.3309
  212SOL     OW  845   0.238   1.096   0.060 -0.2395 -0.1512  0.5822
  212SOL    HW1  846   0.187   1.053   0.128  0.8957  1.7737  1.3393
  212SOL    HW2  847   0.315   1.042   0.063  1.8976  2.5512 -1.3009
  212SOL     MW  848   0.242   1.083   0.069  0.1922  0.4593  0.4336
  213SOL     OW  849   0.466   1.680   3.098 -0.4353 -0.3485  0.1724
  213SOL    HW1  850   0.512   1.748   3.148 -3.5788  1.7918 -0.8396
  213SOL    HW2  851   0.508   1.682   3.015 -0.7792 -0.3224 -2.8538
  213SOL     MW  852   0.478   1.689   3.093 -0.8955 -0.0627 -0.3604
  214SOL     OW  853   0.646   0.257   2.288  0.4792 -0.0636  0.5555
  214SOL    HW1  854   0.573   0.306   2.254  0.1240  0.5496  1.0072
  214SOL    HW2  855   0.709   0.300   2.235  1.6598  0.3168 -1.4171
  214SOL     MW  856   0.644   0.269   2.277  0.5881  0.0675  0.3548
  215SOL     OW  857   0.487   0.753   2.631 -0.5380 -0.0134 -0.2947
  215SOL    HW1  858   0.522   0.754   2.539 -1.2138  1.8721 -0.7988
  215SOL    HW2  859   0.423   0.686   2.632  2.7883 -0.0946 -0.9352
  215SOL     MW  860   0.483   0.744   2.619 -0.1883  0.2246 -0.4457
  216SOL     OW  861   3.089   3.078   2.740 -0.1403 -0.0562 -0.6255
  216SOL    HW1  862   3.025   3.040   2.806 -1.5043  0.4580  4.5324
  216SOL    HW2  863   3.048   3.159   2.698 -1.8090  1.0763 -0.8214
  216SOL     MW  864   3.075   3.084   2.743 -0.5404  0.1611  0.0292
  217SOL     OW  865   0.976   1.189   3.092 -0.4802 -0.0793  0.1485
  217SOL    HW1  866   1.017   1.102   3.067 -1.2912 -1.3287 -1.3164
  217SOL    HW2  867   1.056   1.253   3.085  1.0308  4.4716 -3.2076
  217SOL     MW  868   0.992   1.186   3.088 -0.3878  0.3563 -0.4876
  218SOL     OW  869   0.911   1.369   2.488 -0.3906 -1.0938 -0.0174
  218SOL    HW1  870   0.920   1.299   2.549  4.1208  1.3724  2.0774
  218SOL    HW2  871   0.973   1.435   2.509  1.7022 -0.3238  1.2969
  218SOL     MW  872   0.921   1.368   2.499  0.4807 -0.6668  0.4324
  219SOL     OW  873   1.022   0.431   2.480  0.5142  0.2263 -0.3153
  219SOL    HW1  874   1.086   0.483   2.431 -0.4681  1.1351 -0.9379
  219SOL    HW2  875   0.945   0.485   2.498 -1.2086  0.3855  0.8316
  219SOL     MW  876   1.021   0.445   2.476  0.1573  0.3672 -0.2461
  220SOL     OW  877   1.755   0.520   2.203 -0.0038 -0.6182  0.5508
  220SOL    HW1  878   1.675   0.567   2.191  2.3495  0.7872  1.8897
  220SOL    HW2  879   1.756   0.433   2.172 -0.4579 -2.6778  0.8014
  220SOL     MW  880   1.745   0.515   2.197  0.2468 -0.7045  0.7605
  221SOL     OW  881   0.410   1.396   2.901  0.0461 -0.2363  0.0883
  221SOL    HW1  882   0.396   1.300   2.895 -1.0400 -1.9658 -4.2802
  221SOL    HW2  883   0.392   1.433   2.820 -0.2607 -2.2505  0.5838
  221SOL     MW  884   0.406   1.388   2.889 -0.1377 -0.7302 -0.4227
  222SOL     OW  885   0.311   0.959   2.638 -0.2110 -0.0106 -0.1907
  222SOL    HW1  886   0.289   0.977   2.549 -1.0059  0.1062 -2.3362
  222SOL    HW2  887   0.374   0.889   2.639 -2.1587  0.4821  1.6706
  222SOL     MW  888   0.316   0.952   2.627 -0.5729  0.0698 -0.2282
  223SOL     OW  889   3.093   1.990   2.614  0.0611  0.6052 -0.5924
  223SOL    HW1  890   3.167   1.926   2.643 -1.0695  1.1183  1.7559
  223SOL    HW2  891   3.141   2.053   2.552  0.5448 -3.7048  0.7587
  223SOL     MW  892   3.109   1.990   2.609 -0.0243  0.1043 -0.1043
  224SOL     OW  893   1.493   0.834   2.603 -0.5688 -0.1382  0.4905
  224SOL    HW1  894   1.446   0.875   2.675  2.1605 -0.7613  0.1693
  224SOL    HW2  895   1.532   0.907   2.562 -1.9813 -1.2891  0.9761
  224SOL     MW  896   1.492   0.849   2.607 -0.3951 -0.3723  0.5122
  225SOL     OW  897   2.911   1.488   2.229  0.0890  0.0727  0.3428
  225SOL    HW1  898   2.955   1.552   2.171  0.3201  0.6980 -0.8996
  225SOL    HW2  899   2.871   1.547   2.298  2.0704 -0.0235  1.0993
  225SOL     MW  900   2.911   1.504   2.231  0.3809  0.1425  0.2787
  226SOL     OW  901   0.385   1.495   2.622 -0.0594 -0.0114  0.1396
  226SOL    HW1  902   0.477   1.482   2.627 -0.9941 -0.0330 -0.0159
  226SOL    HW2  903   0.373   1.586   2.604 -1.1092 -1.3865 -0.8384
  226SOL     MW  904   0.395   1.505   2.620 -0.3212 -0.1957 -0.0100
  227SOL     OW  905   0.425   1.129   2.853  0.3308 -0.4849  0.2425
  227SOL    HW1  906   0.517   1.127   2.829 -1.3560 -0.8834  3.2067
  227SOL    HW2  907   0.382   1.087   2.780 -1.2771  1.1382 -3.3426
  227SOL     MW  908   0.431   1.123   2.841 -0.1039 -0.3233  0.1606
  228SOL     OW  909   0.691   0.986   1.975  0.2897  0.3862 -0.2620
  228SOL    HW1  910   0.754   1.051   1.938 -1.7071 -1.1925  1.6436
  228SOL    HW2  911   0.699   0.983   2.069 -2.1233 -0.8308  1.8719
  228SOL     MW  912   0.700   0.994   1.982 -0.2921  0.0173  0.2710
  229SOL     OW  913   0.234   0.476   3.095 -0.7397 -0.8064 -0.0670
  229SOL    HW1  914   0.159   0.460   3.039  0.9399 -0.5014  1.1626
  229SOL    HW2  915   0.209   0.443   3.185 -0.1714 -0.2322 -1.5760
  229SOL     MW  916   0.221   0.469   3.099 -0.4431 -0.6904 -0.1038
  230SOL     OW  917   1.773   1.344   2.105  0.1506  0.1136 -0.4477
  230SOL    HW1  918   1.764   1.339   2.200  0.8958 -1.0582  0.6842
  230SOL    HW2  919   1.782   1.254   2.068 -1.7965  1.5226 -1.4381
  230SOL     MW  920   1.773   1.332   2.112 -0.0080  0.1449 -0.4290
  231SOL     OW  921   2.785   1.257   2.154 -0.7627  0.6312 -0.5576
  231SOL    HW1  922   2.840   1.330   2.172 -0.8910 -0.8162  1.2344
  231SOL    HW2  923   2.717   1.274   2.092 -0.3717  0.5016  1.4715
  231SOL     MW  924   2.783   1.269   2.148 -0.7280  0.4231 -0.0535
  232SOL     OW  925   2.288   0.915   2.100 -0.2829 -0.3524  0.0200
  232SOL    HW1  926   2.212   0.960   2.068  0.5815 -1.6747  0.1378
  232SOL    HW2  927   2.267   0.898   2.198  2.4534 -1.2801  1.1409
  232SOL     MW  928   2.275   0.919   2.109  0.1922 -0.6492  0.1834
  233SOL     OW  929   2.057   0.518   1.946 -0.7318 -0.3046  0.3842
  233SOL    HW1  930   2.087   0.569   1.863  0.4894 -3.1655 -0.8835
  233SOL    HW2  931   2.137   0.505   2.000 -0.2011 -1.2977 -3.6171
  233SOL     MW  932   2.072   0.523   1.942 -0.5007 -0.8131 -0.3110
  234SOL     OW  933   0.271   0.987   2.355  0.4613  0.0723 -0.7611
  234SOL    HW1  934   0.178   1.014   2.349 -0.2008  1.7137 -2.9779
  234SOL    HW2  935   0.322   1.071   2.362  0.7862  2.1131  1.7444
  234SOL     MW  936   0.266   1.002   2.355  0.4168  0.5582 -0.7230
  235SOL     OW  937   1.012   3.045   2.793  0.8689  0.0815  0.3079
  235SOL    HW1  938   1.053   2.987   2.858 -2.0370 -0.2931 -0.0944
  235SOL    HW2  939   0.981   3.128   2.832  0.5811  0.2662  0.0359
  235SOL     MW  940   1.013   3.049   2.807  0.4475  0.0564  0.2190
  236SOL     OW  941   2.927   0.518   0.045  0.0002 -0.5035 -0.4482
  236SOL    HW1  942   2.851   0.535  -0.020  0.0955  0.4933 -0.5090
  236SOL    HW2  943   2.971   0.611   0.061 -1.8240  1.3911 -2.0974
  236SOL     MW  944   2.923   0.532   0.038 -0.2279 -0.1220 -0.6738
  237SOL     OW  945   1.757   0.881   2.178 -0.6826  0.1010 -0.3238
  237SOL    HW1  946   1.806   0.964   2.145  1.0373 -1.1032 -0.8288
  237SOL    HW2  947   1.793   0.855   2.266  0.1228  1.1857 -1.1498
  237SOL     MW  948   1.768   0.888   2.185 -0.3494  0.0852 -0.4994
  238SOL     OW  949   1.099   1.743   2.977  0.0246 -0.2159 -0.0883
  238SOL    HW1  950   1.086   1.648   2.992  0.2654 -0.0780  0.9259
  238SOL    HW2  951   1.192   1.749   2.948 -2.0152 -0.3078  0.0927
  238SOL     MW  952   1.109   1.731   2.975 -0.2128 -0.2098  0.0694
  239SOL     OW  953   1.178   1.394   2.313 -0.6468  0.1204  0.1709
  239SOL    HW1  954   1.175   1.397   2.409  0.8248 -0.9837  1.9314
  239SOL    HW2  955   1.116   1.326   2.303  0.5120  0.9006  1.4403
  239SOL     MW  956   1.169   1.385   2.325 -0.2997  0.0776  0.5707
  240SOL     OW  957   0.611   0.863   2.273  0.2780  1.0888  0.5988
  240SOL    HW1  958   0.613   0.923   2.345  2.6048  1.7785 -0.5094
  240SOL    HW2  959   0.703   0.851   2.257  2.6218 -1.0613 -0.1062
  240SOL     MW  960   0.624   0.870   2.280  0.8942  0.8961  0.3595
  241SOL     OW  961   0.644   0.361   2.986 -0.6538 -0.5227  0.9081
  241SOL    HW1  962   0.638   0.408   3.072  1.3344  1.4821 -0.5139
  241SOL    HW2  963   0.555   0.371   2.948  1.2196 -2.6992 -1.9618
  241SOL     MW  964   0.631   0.369   2.993 -0.1443 -0.5453  0.3418
  242SOL     OW  965   1.472   1.716   2.337  0.8616  0.7048 -0.1498
  242SOL    HW1  966   1.434   1.805   2.357  1.2813  3.6033 -0.0975
  242SOL    HW2  967   1.399   1.662   2.305  1.1049 -0.8731 -2.3475
  242SOL     MW  968   1.457   1.721   2.336  0.9491  0.8790 -0.4329
  243SOL     OW  969   0.954   0.220   2.354 -0.4882  0.6032  0.0612
  243SOL    HW1  970   1.034   0.188   2.315 -4.4316 -0.1611 -1.5879
  243SOL    HW2  971   0.976   0.298   2.406 -1.7709 -5.0672  3.3343
  243SOL     MW  972   0.967   0.226   2.356 -1.1778 -0.2458  0.2755
  244SOL     OW  973   0.198   0.708   2.288 -0.1445 -0.0012  0.5964
  244SOL    HW1  974   0.197   0.803   2.302  0.3236 -2.7181 -1.3219
  244SOL    HW2  975   0.285   0.682   2.306  0.7795  0.3096 -1.1913
  244SOL     MW  976   0.209   0.717   2.293  0.0392 -0.3186  0.1074
  245SOL     OW  977   1.231   0.165   2.306  0.1448  0.3047  0.8630
  245SOL    HW1  978   1.240   0.068   2.303 -0.1244 -0.6779 -3.8987
  245SOL    HW2  979   1.278   0.190   2.385 -0.3972 -2.4955  3.4774
  245SOL     MW  980   1.239   0.155   2.316  0.0378 -0.1944  0.5797
  246SOL     OW  981   1.184   1.146   2.124  0.8229  0.4512 -0.9027
  246SOL    HW1  982   1.135   1.090   2.188  1.8558 -1.2859 -1.1344
  246SOL    HW2  983   1.280   1.148   2.159  2.0997 -1.9282 -2.9256
  246SOL     MW  984   1.190   1.139   2.137  1.1277 -0.0919 -1.2002
  247SOL     OW  985   0.685   0.516   0.110  0.4090 -0.0621 -0.4196
  247SOL    HW1  986   0.659   0.606   0.102 -0.5672 -1.1708  0.4237
  247SOL    HW2  987   0.782   0.515   0.104  0.4890 -0.4309 -1.3997
  247SOL     MW  988   0.694   0.528   0.108  0.2907 -0.2570 -0.4376
  248SOL     OW  989   0.424   1.199   2.431 -0.3399 -0.1411  0.2590
  248SOL    HW1  990   0.426   1.238   2.343  2.0638 -2.1835  0.5900
  248SOL    HW2  991   0.433   1.279   2.489  1.0812 -0.1506 -2.2817
  248SOL     MW  992   0.426   1.215   2.427  0.1647 -0.4118 -0.0326
  249SOL     OW  993   0.175   1.819   2.723  0.6986  0.9813  0.0424
  249SOL    HW1  994   0.140   1.737   2.681 -1.0997  1.9026  0.6154
  249SOL    HW2  995   0.184   1.791   2.814 -0.8142  2.6934  0.3221
  249SOL     MW  996   0.171   1.804   2.729  0.2617  1.3288  0.1549
  250SOL     OW  997   2.162   0.900   2.364  0.1575  0.4079 -0.3040
  250SOL    HW1  998   2.211   0.808   2.372  2.7625  1.6758  1.4816
  250SOL    HW2  999   2.207   0.956   2.434 -1.4191 -0.0473 -1.4277
  250SOL     MW 1000   2.175   0.895   2.375  0.2932  0.5151 -0.2167
  251SOL     OW 1001   0.189   0.826   1.991 -0.2519  0.1748 -0.0074
  251SOL    HW1 1002   0.188   0.756   2.057  0.2574  1.4593 -0.3151
  251SOL    HW2 1003   0.176   0.783   1.908  0.6532 -4.1822  0.8179
  251SOL     MW 1004   0.187   0.811   1.989 -0.0653 -0.2306  0.0609
  252SOL     OW 1005   1.721   1.007   2.817  0.1562  0.2860  0.0008
  252SOL    HW1 1006   1.717   1.081   2.875 -1.0998 -0.9723 -2.0736
  252SOL    HW2 1007   1.780   1.028   2.743 -0.9375  1.2536  0.4092
  252SOL     MW 1008   1.728   1.019   2.815 -0.1538  0.2477 -0.2191
  253SOL     OW 1009   1.144   1.735   2.551  0.1289  0.3204 -0.0167
  253SOL    HW1 1010   1.144   1.785   2.468 -1.4554 -1.0391 -2.8797
  253SOL    HW2 1011   1.052   1.766   2.582  0.8672 -3.4581 -0.8514
  253SOL     MW 1012   1.132   1.746   2.544  0.0173 -0.3575 -0.5045
  254SOL     OW 1013   1.029   1.023   2.310  0.0284  0.2451 -0.6676
  254SOL    HW1 1014   0.989   0.936   2.294 -0.1856  0.2430 -0.1417
  254SOL    HW2 1015   0.962   1.088   2.289  1.0965 -2.0137 -0.9321
  254SOL     MW 1016   1.015   1.020   2.305  0.1411 -0.0532 -0.6332
  255SOL     OW 1017   0.797   2.408   2.223  0.1230  0.2824 -0.7399
  255SOL    HW1 1018   0.708   2.371   2.231 -0.9826 -2.2549  0.4766
  255SOL    HW2 1019   0.826   2.436   2.312 -1.0689 -1.0227  1.6566
  255SOL     MW 1020   0.789   2.407   2.236 -0.1801 -0.2246 -0.2632
  256SOL     OW 1021   1.153   2.819   2.898 -0.0236 -0.1031  0.2593
  256SOL    HW1 1022   1.180   2.732   2.928 -0.5358  2.6813  1.4138
  256SOL    HW2 1023   1.238   2.866   2.868  0.3869  0.8794 -2.2938
  256SOL     MW 1024   1.168   2.814   2.898 -0.0370  0.3939  0.0748
  257SOL     OW 1025   0.123   1.851   0.065  0.1859 -0.3771  0.7538
  257SOL    HW1 1026   0.152   1.804   0.146  0.6364  2.6151 -2.6989
  257SOL    HW2 1027   0.103   1.782   0.001 -0.8695  1.0384  2.1570
  257SOL     MW 1028   0.124   1.835   0.067  0.1061  0.2045  0.4834
  258SOL     OW 1029   0.669   1.062   2.463  0.2132 -0.1397 -0.4172
  258SOL    HW1 1030   0.720   1.106   2.399 -1.6968  2.2169 -2.2086
  258SOL    HW2 1031   0.582   1.109   2.450 -1.7850  3.6417 -0.1612
  258SOL     MW 1032   0.664   1.074   2.453 -0.3024  0.6701 -0.6198
  259SOL     OW 1033   0.687   0.478   2.436  0.8000  0.0125 -0.5971
  259SOL    HW1 1034   0.612   0.534   2.408  0.0200 -0.7142 -1.1164
  259SOL    HW2 1035   0.672   0.386   2.395 -1.6709  1.1481 -1.3823
  259SOL     MW 1036   0.675   0.474   2.427  0.3710  0.0665 -0.7692
  260SOL     OW 1037   0.589   0.122   1.597 -0.4213 -0.3950  0.2009
  260SOL    HW1 1038   0.557   0.079   1.517 -0.9590  0.1489 -0.9884
  260SOL    HW2 1039   0.684   0.127   1.578  0.5588  0.7431  0.8300
  260SOL     MW 1040   0.597   0.117   1.584 -0.3629 -0.1731  0.1269
  261SOL     OW 1041   1.133   0.665   2.120  0.2291  0.0316  0.1788
  261SOL    HW1 1042   1.169   0.640   2.208  0.4728  0.9238 -0.0336
  261SOL    HW2 1043   1.186   0.631   2.051  1.7588  1.6587  0.7094
  261SOL     MW 1044   1.145   0.657   2.123  0.4631  0.3640  0.2208
  262SOL     OW 1045   1.132   0.353   0.079  0.1906  0.1980  0.0402
  262SOL    HW1 1046   1.224   0.341   0.078 -1.7748 -0.6591 -1.8097
  262SOL    HW2 1047   1.111   0.326  -0.011 -0.7611 -1.2074 -1.4356
  262SOL     MW 1048   1.141   0.348   0.067 -0.1943 -0.1005 -0.3986
  263SOL     OW 1049   0.482   3.030   2.546 -0.3508 -0.1834  0.5603
  263SOL    HW1 1050   0.391   3.060   2.544 -2.6248 -0.2309  1.0946
  263SOL    HW2 1051   0.516   3.018   2.455  0.5972  2.4423  0.4824
  263SOL     MW 1052   0.474   3.032   2.534 -0.5257  0.1568  0.6205
  264SOL     OW 1053   1.546   1.381   1.941 -0.1586  0.1582 -0.1944
  264SOL    HW1 1054   1.489   1.366   2.017 -1.6291 -2.3326  0.3291
  264SOL    HW2 1055   1.632   1.374   1.987  1.2886  0.4936 -1.1343
  264SOL     MW 1056   1.550   1.378   1.957 -0.1617 -0.1262 -0.2494
  265SOL     OW 1057   0.690   2.731   2.239  0.0582 -0.6500 -0.2418
  265SOL    HW1 1058   0.737   2.657   2.218  3.9949  2.6308  0.7269
  265SOL    HW2 1059   0.699   2.736   2.336 -0.4843 -0.0147 -2.1369
  265SOL     MW 1060   0.698   2.722   2.249  0.5060 -0.1333 -0.3640
  266SOL     OW 1061   0.898   0.805   2.238 -0.2101  0.4742 -0.7572
  266SOL    HW1 1062   0.941   0.733   2.185  0.3229  2.5942 -1.4504
  266SOL    HW2 1063   0.884   0.758   2.326  0.3458 -1.1363  1.2240
  266SOL     MW 1064   0.902   0.790   2.243 -0.0664  0.5415 -0.5872
  267SOL     OW 1065   1.390   1.793   2.702  0.0380 -0.0030  0.3580
  267SOL    HW1 1066   1.438   1.735   2.647  0.4605 -0.3495 -0.1265
  267SOL    HW2 1067   1.301   1.779   2.676 -1.6359 -0.4867  0.7177
  267SOL     MW 1068   1.384   1.783   2.691 -0.1271 -0.1125  0.3415
  268SOL     OW 1069   0.196   0.753   1.712  0.3712 -0.3387  0.3597
  268SOL    HW1 1070   0.130   0.812   1.676 -0.9966 -2.0905 -1.0626
  268SOL    HW2 1071   0.206   0.679   1.659 -1.4235  4.3938  0.6563
  268SOL     MW 1072   0.188   0.751   1.700 -0.0460  0.0546  0.2112
  269SOL     OW 1073   1.435   1.969   2.448 -0.4219  0.6014  0.2719
  269SOL    HW1 1074   1.499   1.947   2.504 -2.1436  0.4340 -0.0949
  269SOL    HW2 1075   1.359   1.978   2.499  2.8809 -4.8198 -1.5333
  269SOL     MW 1076   1.433   1.968   2.462 -0.2133 -0.1360 -0.0147
  270SOL     OW 1077   1.161   0.441   1.605 -0.3573 -0.4656 -0.3748
  270SOL    HW1 1078   1.157   0.349   1.645 -0.9587 -3.0083  0.3624
  270SOL    HW2 1079   1.251   0.448   1.575 -2.9006  0.7289 -0.8844
  270SOL     MW 1080   1.172   0.430   1.607 -0.7722 -0.6435 -0.3448
  271SOL     OW 1081   0.845   3.076   2.390 -0.7235 -0.4639  0.1345
  271SOL    HW1 1082   0.902   3.013   2.440  0.4816 -0.9319 -2.7244
  271SOL    HW2 1083   0.901   3.154   2.376 -1.4076  2.4347  1.4574
  271SOL     MW 1084   0.860   3.078   2.394 -0.6547 -0.1432 -0.0682
  272SOL     OW 1085   1.384   2.959   2.838  0.0283 -1.2104  0.5645
  272SOL    HW1 1086   1.346   3.004   2.764  0.6538  2.1942  1.2333
  272SOL    HW2 1087   1.377   3.023   2.910  1.6011 -3.3288  0.5946
  272SOL     MW 1088   1.378   2.974   2.837  0.3184 -1.0407  0.6567
  273SOL     OW 1089   1.433   0.941   2.885 -0.1327  0.1545 -0.0089
  273SOL    HW1 1090   1.525   0.941   2.869 -2.2686  2.4710 -0.1299
  273SOL    HW2 1091   1.406   1.029   2.910  0.2466  0.7600 -0.5304
  273SOL     MW 1092   1.441   0.953   2.886 -0.3644  0.5400 -0.0937
  274SOL     OW 1093   1.331   0.747   0.156 -0.1831  0.3062  0.7716
  274SOL    HW1 1094   1.389   0.685   0.195  1.6372  2.2425  1.8156
  274SOL    HW2 1095   1.244   0.729   0.204 -2.0366 -0.9580  1.8539
  274SOL     MW 1096   1.327   0.737   0.167 -0.1875  0.3949  1.0521
  275SOL     OW 1097   1.697   0.713   1.816 -0.1788 -0.0367 -0.1644
  275SOL    HW1 1098   1.775   0.733   1.873  0.1373  0.8414 -0.8375
  275SOL    HW2 1099   1.666   0.628   1.855 -2.7046  1.4554  1.0914
  275SOL     MW 1100   1.703   0.705   1.829 -0.4703  0.2760 -0.0875
  276SOL     OW 1101   0.234   1.181   1.811 -0.3632  0.3305 -0.4069
  276SOL    HW1 1102   0.286   1.119   1.860  0.1938  5.0791  0.3356
  276SOL    HW2 1103   0.176   1.219   1.877 -1.8615 -1.0117  1.0596
  276SOL     MW 1104   0.233   1.178   1.827 -0.4874  0.7800 -0.1154
  277SOL     OW 1105   1.939   1.369   2.639 -0.3439 -0.0495 -0.3595
  277SOL    HW1 1106   2.010   1.437   2.642 -0.3164 -2.9517 -2.1273
  277SOL    HW2 1107   1.990   1.284   2.648  1.1979  0.8444  1.6700
  277SOL     MW 1108   1.955   1.367   2.641 -0.1368 -0.3145 -0.3249
  278SOL     OW 1109   1.446   0.672   1.728  0.5833  0.8314  0.0777
  278SOL    HW1 1110   1.412   0.618   1.803  0.0056 -1.3880 -1.1326
  278SOL    HW2 1111   1.528   0.708   1.770  0.5076  0.5004 -1.3228
  278SOL     MW 1112   1.452   0.670   1.743  0.4971  0.4949 -0.2667
  279SOL     OW 1113   0.571   3.054   2.252  0.2483  0.3123 -0.5607
  279SOL    HW1 1114   0.650   3.033   2.200 -2.5020 -4.1593  0.0404
  279SOL    HW2 1115   0.582   3.148   2.275 -0.5893  1.9233 -2.5780
  279SOL     MW 1116   0.583   3.064   2.248 -0.2251 -0.0651 -0.7475
  280SOL     OW 1117   1.504   1.145   2.216  0.0844  0.0642 -0.2693
  280SOL    HW1 1118   1.506   1.056   2.176  0.0913  1.3120 -1.5924
  280SOL    HW2 1119   1.532   1.122   2.299  0.9055  1.5227 -0.4579
  280SOL     MW 1120   1.508   1.131   2.221  0.1936  0.4213 -0.4688
  281SOL     OW 1121   1.267   1.396   2.853  0.5338 -0.5165 -0.6533
  281SOL    HW1 1122   1.357   1.429   2.829 -0.9611  0.8061 -0.8348
  281SOL    HW2 1123   1.278   1.308   2.891  0.2244 -1.3963  1.7576
  281SOL     MW 1124   1.281   1.389   2.855  0.2958 -0.4581 -0.3592
  282SOL     OW 1125   1.136   1.307   1.693  0.2437  0.6188  0.0452
  282SOL    HW1 1126   1.123   1.361   1.612 -1.0826 -0.6283 -1.9915
  282SOL    HW2 1127   1.047   1.296   1.731  0.4319 -2.5354  0.9504
  282SOL     MW 1128   1.122   1.313   1.688  0.0935  0.0381 -0.1041
  283SOL     OW 1129   0.716   1.252   3.077  0.0337  0.6006 -0.4413
  283SOL    HW1 1130   0.807   1.226   3.085 -0.5885  1.7107 -0.4570
  283SOL    HW2 1131   0.705   1.338   3.112  2.3409 -1.9351  1.2890
  283SOL     MW 1132   0.727   1.260   3.083  0.2560  0.4125 -0.2151
  284SOL     OW 1133   0.465   0.634   2.337 -0.3147 -0.4363  0.1380
  284SOL    HW1 1134   0.497   0.697   2.269 -0.4892  2.0379  0.3717
  284SOL    HW2 1135   0.461   0.561   2.271 -2.7731 -0.7652  0.6925
  284SOL     MW 1136   0.469   0.632   2.319 -0.6621 -0.1533  0.2420
  285SOL     OW 1137   0.867   0.960   2.855 -0.2910  1.1996  0.5378
  285SOL    HW1 1138   0.884   0.968   2.766 -1.9482  0.9172 -2.4390
  285SOL    HW2 1139   0.816   0.878   2.847 -2.1122 -1.3752  0.6061
  285SOL     MW 1140   0.862   0.950   2.842 -0.7499  0.8226  0.1541
  286SOL     OW 1141   1.176   1.450   2.586 -0.0498 -0.3100 -0.3328
  286SOL    HW1 1142   1.192   1.447   2.681 -0.2907 -0.5905 -2.4463
  286SOL    HW2 1143   1.175   1.541   2.556 -1.6234  0.8789  0.8413
  286SOL     MW 1144   1.178   1.462   2.595 -0.2892 -0.1902 -0.4568
  287SOL     OW 1145   1.044   0.950   0.384  0.1812 -0.3463 -1.0314
  287SOL    HW1 1146   1.128   0.974   0.429 -1.5660  0.0892  0.2024
  287SOL    HW2 1147   1.000   1.023   0.333  0.3338 -2.5191 -0.3562
  287SOL     MW 1148   1.049   0.963   0.383 -0.0292 -0.5755 -0.7795
  288SOL     OW 1149   1.500   0.637   2.130  0.1689  0.1607  0.1053
  288SOL    HW1 1150   1.480   0.633   2.226 -0.3440 -0.3539 -3.7690
  288SOL    HW2 1151   1.479   0.727   2.111  1.2932 -0.3714  0.5291
  288SOL     MW 1152   1.494   0.648   2.140  0.2496  0.0226 -0.3499
  289SOL     OW 1153   0.916   1.089   2.606  0.5273 -0.1678  0.8236
  289SOL    HW1 1154   0.971   1.021   2.562  0.3840  0.5172  1.5610
  289SOL    HW2 1155   0.826   1.083   2.570 -0.4108  0.7224 -4.5302
  289SOL     MW 1156   0.911   1.079   2.595  0.3847  0.0400  0.2145
  290SOL     OW 1157   0.851   0.589   1.529 -0.0768 -0.8348 -0.3556
  290SOL    HW1 1158   0.900   0.538   1.469 -0.9059 -1.9921  0.0741
  290SOL    HW2 1159   0.899   0.602   1.612 -0.7936 -0.7867  1.2969
  290SOL     MW 1160   0.864   0.584   1.532 -0.2807 -0.9812 -0.0809
  291SOL     OW 1161   0.171   0.347   0.226 -0.7239 -0.0209  0.1288
  291SOL    HW1 1162   0.262   0.339   0.251  0.0135  0.8865 -1.1882
  291SOL    HW2 1163   0.160   0.269   0.174  2.3911  0.1640  1.2742
  291SOL     MW 1164   0.182   0.336   0.222 -0.2156  0.1232  0.1061
  292SOL     OW 1165   0.960   0.561   0.096  0.4417 -0.2835  0.3621
  292SOL    HW1 1166   1.007   0.606   0.165  0.9047 -1.8325 -1.0272
  292SOL    HW2 1167   1.006   0.478   0.091 -0.7427  1.1584 -0.3387
  292SOL     MW 1168   0.972   0.556   0.105  0.3465 -0.2976  0.0863
  293SOL     OW 1169   0.238   0.059   2.496  0.4207 -0.0924  0.0687
  293SOL    HW1 1170   0.157   0.030   2.449 -0.3614  1.6871 -0.7249
  293SOL    HW2 1171   0.209   0.116   2.563 -1.3452 -0.0408 -1.5061
  293SOL     MW 1172   0.223   0.062   2.498  0.0845  0.1492 -0.2438
  294SOL     OW 1173   1.451   0.628   2.397 -0.5820 -0.3076 -0.8429
  294SOL    HW1 1174   1.486   0.682   2.470  1.1861  1.6746  0.6535
  294SOL    HW2 1175   1.468   0.535   2.416 -0.0374  2.2161 -0.1073
  294SOL     MW 1176   1.458   0.623   2.409 -0.2768  0.2869 -0.5484
  295SOL     OW 1177   0.868   0.671   2.496  0.1764 -0.0472  0.0620
  295SOL    HW1 1178   0.804   0.601   2.466 -2.0551  0.8823 -1.0570
  295SOL    HW2 1179   0.829   0.683   2.588  2.9911 -0.4539  2.3658
  295SOL     MW 1180   0.854   0.663   2.504  0.2534  0.0218  0.2183
  296SOL     OW 1181   1.316   0.318   2.081  0.1583  0.1844 -0.1222
  296SOL    HW1 1182   1.393   0.272   2.051  3.0867 -2.1111 -1.3231
  296SOL    HW2 1183   1.308   0.304   2.175  1.8650 -1.3138  1.9991
  296SOL     MW 1184   1.325   0.310   2.089  0.7698 -0.3162 -0.0008
  297SOL     OW 1185   1.436   0.421   1.517  0.4817  0.5131 -0.0403
  297SOL    HW1 1186   1.476   0.509   1.513 -1.7517 -0.7357  0.4380
  297SOL    HW2 1187   1.499   0.362   1.563  0.3554 -2.3906 -1.5464
  297SOL     MW 1188   1.449   0.425   1.523  0.1704 -0.0348 -0.1759
  298SOL     OW 1189   1.519   0.923   2.070 -0.0163 -0.2871 -0.2115
  298SOL    HW1 1190   1.554   0.981   2.001  0.5342 -1.2032  0.7601
  298SOL    HW2 1191   1.604   0.889   2.105 -0.7323  0.3239 -1.8718
  298SOL     MW 1192   1.535   0.926   2.066 -0.0381 -0.3273 -0.3024
  299SOL     OW 1193   0.524   1.037   3.104 -0.3670  0.3410  0.1527
  299SOL    HW1 1194   0.591   1.107   3.087  0.4245  4.5144  0.2240
  299SOL    HW2 1195   0.465   1.051   3.024  2.7260  2.2191 -0.3336
  299SOL     MW 1196   0.525   1.048   3.091  0.1455  1.1395  0.0979
  300SOL     OW 1197   1.236   1.139   2.512  0.4223  0.4584  0.1641
  300SOL    HW1 1198   1.166   1.080   2.470 -1.2263 -1.7074  1.2770
  300SOL    HW2 1199   1.206   1.212   2.564  1.5274 -1.7293  0.2647
  300SOL     MW 1200   1.223   1.141   2.513  0.3506 -0.1160  0.3242
  301SOL     OW 1201   1.360   0.719   0.575 -0.2558  0.4790  0.1380
  301SOL    HW1 1202   1.359   0.719   0.672  0.0463  0.1097  0.2226
  301SOL    HW2 1203   1.268   0.698   0.556 -3.1351 -0.3197  1.5716
  301SOL     MW 1204   1.348   0.716   0.585 -0.5958  0.3249  0.3383
  302SOL     OW 1205   0.126   1.461   1.966  0.0116  0.1876  0.8022
  302SOL    HW1 1206   0.117   1.411   2.049 -3.5832  1.1806 -0.2508
  302SOL    HW2 1207   0.076   1.540   1.984  1.9693 -0.9951 -1.3261
  302SOL     MW 1208   0.118   1.465   1.980 -0.2044  0.1626  0.3825
  303SOL     OW 1209   0.400   1.751   2.568 -0.1079 -0.0871 -0.2597
  303SOL    HW1 1210   0.410   1.798   2.485  0.6633  0.5248  0.1957
  303SOL    HW2 1211   0.315   1.777   2.601  2.2192 -2.2352 -0.7602
  303SOL     MW 1212   0.390   1.760   2.561  0.3009 -0.2898 -0.2656
  304SOL     OW 1213   0.549   2.085   2.420  1.0900  0.2432  0.0502
  304SOL    HW1 1214   0.574   2.166   2.377  4.1303 -2.5870 -1.4851
  304SOL    HW2 1215   0.628   2.033   2.417 -1.3981  2.1388 -1.4338
  304SOL     MW 1216   0.563   2.089   2.414  1.1628  0.1199 -0.3482
  305SOL     OW 1217   1.142   0.550   0.520 -0.6070  0.2274  0.5268
  305SOL    HW1 1218   1.044   0.517   0.503 -0.9537  0.3900 -2.9558
  305SOL    HW2 1219   1.197   0.472   0.513 -0.5396 -0.7019 -2.3186
  305SOL     MW 1220   1.136   0.535   0.517 -0.6438  0.1262 -0.3081
  306SOL     OW 1221   1.217   1.440   0.306  0.2633 -0.0202  0.0577
  306SOL    HW1 1222   1.248   1.360   0.343 -2.0970 -0.0368  0.6328
  306SOL    HW2 1223   1.275   1.451   0.223  2.4235  0.5750  1.7300
  306SOL     MW 1224   1.229   1.431   0.300  0.2369  0.0561  0.3542
  307SOL     OW 1225   1.320   0.566   1.953 -0.4307 -0.5686  0.0530
  307SOL    HW1 1226   1.313   0.469   1.959  2.2175  0.9893 -1.4214
  307SOL    HW2 1227   1.378   0.593   2.026 -0.9800  3.1423 -1.4340
  307SOL     MW 1228   1.327   0.557   1.964 -0.1538  0.1266 -0.3377
  308SOL     OW 1229   2.115   0.621   2.684  0.3766  0.1305 -0.1005
  308SOL    HW1 1230   2.131   0.541   2.730  1.6630  1.3647  0.3568
  308SOL    HW2 1231   2.192   0.662   2.710 -0.9283  2.6449 -2.6746
  308SOL     MW 1232   2.128   0.616   2.694  0.3742  0.6251 -0.3798
  309SOL     OW 1233   0.568   0.508   0.428  0.5653  0.4893  0.3655
  309SOL    HW1 1234   0.592   0.420   0.461 -0.8963  0.3628  0.9055
  309SOL    HW2 1235   0.598   0.501   0.337  0.7264  0.2501  0.6351
  309SOL     MW 1236   0.575   0.496   0.421  0.3937  0.4411  0.4723
  310SOL     OW 1237   0.442   0.515   1.917  0.5689 -0.5952 -0.1821
  310SOL    HW1 1238   0.497   0.444   1.875  1.7217 -0.7425  2.8930
  310SOL    HW2 1239   0.502   0.591   1.917 -1.2845 -0.6958  0.3250
  310SOL     MW 1240   0.457   0.516   1.911  0.4765 -0.6279  0.2905
  311SOL     OW 1241   1.915   0.758   1.992  0.5726  0.4245  0.0963
  311SOL    HW1 1242   1.852   0.760   2.067 -1.5412 -0.7823  0.7780
  311SOL    HW2 1243   1.976   0.689   2.010 -2.0468  1.7641  0.5544
  311SOL     MW 1244   1.915   0.749   2.004 -0.0519  0.4420  0.2467
  312SOL     OW 1245   1.748   2.531   0.003 -0.1052 -0.1376  0.0752
  312SOL    HW1 1246   1.771   2.510   0.089  3.4570 -1.8412 -0.7421
  312SOL    HW2 1247   1.651   2.541   0.021 -0.3625 -0.9294  0.8398
  312SOL     MW 1248   1.738   2.530   0.017  0.3308 -0.4669  0.0683
  313SOL     OW 1249   0.094   1.236   2.959  0.3501 -0.1881 -0.4046
  313SOL    HW1 1250   0.145   1.169   3.006 -0.0425  0.7828  0.4388
  313SOL    HW2 1251   0.149   1.256   2.886 -0.8617  1.2489  0.0051
  313SOL     MW 1252   0.108   1.230   2.955  0.1384  0.1296 -0.2393
  314SOL     OW 1253   2.146   3.042   2.960 -0.4651 -0.1725 -0.0077
  314SOL    HW1 1254   2.087   3.109   2.910  1.6143  0.5261  1.4630
  314SOL    HW2 1255   2.195   3.087   3.024 -1.3057  0.5900 -0.3376
  314SOL     MW 1256   2.144   3.057   2.962 -0.3017  0.0203  0.1428
  315SOL     OW 1257   1.559   1.966   3.023 -0.1234 -0.2579 -0.0032
  315SOL    HW1 1258   1.490   2.018   3.056  1.0001 -2.6299  1.6600
  315SOL    HW2 1259   1.604   2.026   2.957  1.3312  2.2116 -0.0609
  315SOL     MW 1260   1.556   1.981   3.019  0.2168 -0.2450  0.2086
  316SOL     OW 1261   1.234   0.665   2.688  0.7265 -0.3930  0.9046
  316SOL    HW1 1262   1.316   0.627   2.710  0.0958 -0.2278  3.3653
  316SOL    HW2 1263   1.189   0.675   2.767 -2.2090  0.0919  1.6875
  316SOL     MW 1264   1.239   0.662   2.701  0.2560 -0.3073  1.3326
  317SOL     OW 1265   0.645   1.419   2.587  0.7836  0.5533  0.4312
  317SOL    HW1 1266   0.656   1.333   2.617 -2.9960  0.7018  0.2172
  317SOL    HW2 1267   0.707   1.445   2.526 -1.3809 -2.3180  1.6740
  317SOL     MW 1268   0.655   1.411   2.583 -0.0007  0.1941  0.5669
  318SOL     OW 1269   1.303   0.336   2.908  0.5570 -0.2326  0.3308
  318SOL    HW1 1270   1.211   0.378   2.891 -0.2888  1.7148  1.2849
  318SOL    HW2 1271   1.363   0.409   2.893 -0.8745  1.5767 -3.0373
  318SOL     MW 1272   1.299   0.351   2.904  0.2566  0.2631  0.0123
  319SOL     OW 1273   0.827   0.412   2.769  0.1289  0.2545  0.3352
  319SOL    HW1 1274   0.816   0.365   2.690  0.4104  0.0692 -0.1704
  319SOL    HW2 1275   0.757   0.380   2.828 -0.3551  1.6319  1.8080
  319SOL     MW 1276   0.816   0.401   2.766  0.1021  0.4118  0.4628
  320SOL     OW 1277   1.001   1.330   2.021  0.1969  0.3004 -0.0702
  320SOL    HW1 1278   1.072   1.277   2.069  2.1445 -2.0241  0.2530
  320SOL    HW2 1279   1.058   1.394   1.975  0.5536 -0.3547  0.9716
  320SOL     MW 1280   1.018   1.332   2.021  0.5009 -0.0927  0.1099
  321SOL     OW 1281   1.102   0.956   3.019  0.4166  0.0446  0.1947
  321SOL    HW1 1282   1.027   0.943   2.957 -2.7343  0.4484  1.3925
  321SOL    HW2 1283   1.150   0.871   3.016 -1.2466 -0.5411  2.5606
  321SOL     MW 1284   1.099   0.943   3.011 -0.2186  0.0206  0.6649
  322SOL     OW 1285   1.183   0.816   1.727  0.0756  0.1028  0.4301
  322SOL    HW1 1286   1.265   0.777   1.753  0.1658 -1.4089 -0.2154
  322SOL    HW2 1287   1.146   0.870   1.800 -1.9857 -0.5284  0.2159
  322SOL     MW 1288   1.189   0.818   1.740 -0.1845 -0.1799  0.3167
  323SOL     OW 1289   1.183   1.490   1.884 -0.0467 -0.1032  0.3447
  323SOL    HW1 1290   1.192   1.432   1.810 -0.2186 -2.6294 -2.6767
  323SOL    HW2 1291   1.120   1.562   1.859 -2.2190  0.6087  0.4356
  323SOL     MW 1292   1.176   1.492   1.871 -0.3560 -0.3426 -0.0420
  324SOL     OW 1293   1.524   1.100   2.495  0.2068  0.1282  0.4547
  324SOL    HW1 1294   1.428   1.109   2.496  1.4130 -0.2863  0.1346
  324SOL    HW2 1295   1.580   1.138   2.562 -0.5673  0.5603 -2.6950
  324SOL     MW 1296   1.518   1.106   2.504  0.2638  0.1305 -0.0031
  325SOL     OW 1297   1.070   0.488   2.892  0.5547  0.1601 -0.3608
  325SOL    HW1 1298   1.026   0.553   2.952  0.2886  0.5808  1.6157
  325SOL    HW2 1299   0.995   0.452   2.843  2.6889  0.9033 -3.8931
  325SOL     MW 1300   1.054   0.492   2.893  0.8012  0.3137 -0.5660
  326SOL     OW 1301   0.411   1.346   2.207  0.4593 -0.6463  0.5390
  326SOL    HW1 1302   0.461   1.338   2.126  2.3842 -1.5873  0.4903
  326SOL    HW2 1303   0.421   1.439   2.230  2.0484 -0.8295 -0.1534
  326SOL     MW 1304   0.419   1.357   2.200  0.9229 -0.7946  0.4412
  327SOL     OW 1305   1.889   0.849   2.413 -0.1498  0.5481  0.7844
  327SOL    HW1 1306   1.872   0.792   2.491 -0.9521 -1.6332  0.7950
  327SOL    HW2 1307   1.984   0.868   2.401  0.9462  1.6815  1.0564
  327SOL     MW 1308   1.899   0.844   2.422 -0.1110  0.4098  0.8217
  328SOL     OW 1309   0.132   1.326   2.201  0.3536 -0.3902  0.2278
  328SOL    HW1 1310   0.121   1.230   2.211 -3.5829  0.2402 -0.0582
  328SOL    HW2 1311   0.226   1.340   2.205 -0.8451 -3.9444 -0.1739
  328SOL     MW 1312   0.143   1.315   2.203 -0.3239 -0.7760  0.1371
  329SOL     OW 1313   0.123   0.174   1.373  0.5612  0.3969 -0.0577
  329SOL    HW1 1314   0.063   0.220   1.425  1.8611 -3.4530 -3.1569
  329SOL    HW2 1315   0.205   0.223   1.367 -2.6736  1.2928 -0.7268
  329SOL     MW 1316   0.126   0.186   1.379  0.3059  0.0072 -0.5549
  330SOL     OW 1317   0.399   2.983   2.060  0.0112 -0.0472 -0.1238
  330SOL    HW1 1318   0.465   3.022   2.117 -3.2175 -0.1250  0.1599
  330SOL    HW2 1319   0.332   2.940   2.122  1.5431 -0.7286 -1.0815
  330SOL     MW 1320   0.399   2.982   2.075 -0.2126 -0.1473 -0.2128
  331SOL     OW 1321   0.828   1.202   2.264  0.0089  0.0974  0.0856
  331SOL    HW1 1322   0.757   1.239   2.209  1.1564  0.1635  3.1849
  331SOL    HW2 1323   0.856   1.269   2.331  0.0936 -1.1832  3.0305
  331SOL     MW 1324   0.822   1.216   2.266  0.1715 -0.0628  0.8831
  332SOL     OW 1325   1.374   1.770   2.961 -0.7526  0.3725 -0.1262
  332SOL    HW1 1326   1.391   1.759   2.865 -0.9687 -0.9629  0.6542
  332SOL    HW2 1327   1.427   1.844   2.982 -0.7422 -0.3021  0.7598
  332SOL     MW 1328   1.383   1.778   2.951 -0.7798  0.1073  0.0937
  333SOL     OW 1329   1.710   1.509   3.006 -0.0169 -0.3734  0.0416
  333SOL    HW1 1330   1.798   1.509   3.040  0.8488 -2.7225 -1.0663
  333SOL    HW2 1331   1.668   1.445   3.065 -3.3131  1.5402 -1.0530
  333SOL     MW 1332   1.716   1.500   3.018 -0.3376 -0.4309 -0.2490
  334SOL     OW 1333   1.231   3.092   2.642 -0.0390 -0.0479 -0.0571
  334SOL    HW1 1334   1.147   3.098   2.687  2.2826 -2.0244 -4.1612
  334SOL    HW2 1335   1.282   3.175   2.658  1.1420 -0.1222 -0.5776
  334SOL     MW 1336   1.226   3.104   2.650  0.4231 -0.3185 -0.6673
  335SOL     OW 1337   1.263   0.736   2.988 -0.0301 -0.0943 -0.3374
  335SOL    HW1 1338   1.293   0.742   3.081 -0.4346  1.9068  2.4684
  335SOL    HW2 1339   1.309   0.809   2.948 -1.9694 -1.6321 -2.1310
  335SOL     MW 1340   1.273   0.746   2.995 -0.3394 -0.0332 -0.2039
  336SOL     OW 1341   0.899   1.139   1.873 -0.0744  0.3718  0.6714
  336SOL    HW1 1342   0.911   1.223   1.917  2.0152  2.6388 -3.2326
  336SOL    HW2 1343   0.965   1.075   1.896  2.5797  0.1916  0.0477
  336SOL     MW 1344   0.909   1.142   1.882  0.5515  0.6471  0.0740
  337SOL     OW 1345   0.529   1.779   2.838 -0.1608  0.1555 -0.2982
  337SOL    HW1 1346   0.453   1.761   2.781  0.5022 -0.7887  1.7576
  337SOL    HW2 1347   0.599   1.723   2.798  0.2700 -0.2984  1.9577
  337SOL     MW 1348   0.528   1.769   2.825 -0.0165 -0.0289  0.2707
  338SOL     OW 1349   1.083   0.817   2.537  0.4500  0.1819 -0.0273
  338SOL    HW1 1350   1.017   0.746   2.535  1.7560  0.4787 -0.7722
  338SOL    HW2 1351   1.144   0.780   2.602 -0.3851 -3.3674  3.1549
  338SOL     MW 1352   1.082   0.803   2.545  0.5121 -0.2473  0.2943
  339SOL     OW 1353   1.545   1.094   1.834  0.8350 -0.4981  0.2221
  339SOL    HW1 1354   1.479   1.068   1.766  0.9777 -2.2071  1.4572
  339SOL    HW2 1355   1.530   1.183   1.851  0.5430 -2.1758 -1.6399
  339SOL     MW 1356   1.534   1.102   1.827  0.8153 -0.9449  0.1394
  340SOL     OW 1357   1.335   1.605   0.093  0.0540 -0.3142  0.5193
  340SOL    HW1 1358   1.365   1.657   0.023 -0.7852  1.7130  1.2283
  340SOL    HW2 1359   1.401   1.609   0.162  0.5645  0.1469 -2.0569
  340SOL     MW 1360   1.348   1.612   0.093  0.0106  0.0141  0.2729
  341SOL     OW 1361   0.169   1.326   2.674 -0.4805 -0.6091  0.5008
  341SOL    HW1 1362   0.244   1.368   2.636 -1.3043 -0.3347 -1.2475
  341SOL    HW2 1363   0.100   1.303   2.608 -1.9825 -1.5206 -2.0106
  341SOL     MW 1364   0.170   1.328   2.661 -0.7874 -0.6932 -0.0612
  342SOL     OW 1365   1.408   0.307   0.059  0.0812  1.0462  0.0410
  342SOL    HW1 1366   1.456   0.382   0.103  0.6426  0.5976  0.0626
  342SOL    HW2 1367   1.382   0.332  -0.034  1.6031  0.1574 -3.0620
  342SOL     MW 1368   1.411   0.320   0.052  0.3560  0.8697 -0.3656
  343SOL     OW 1369   0.203   0.290   2.312  0.2487 -0.0588  0.1537
  343SOL    HW1 1370   0.244   0.209   2.352 -1.8108 -2.6143 -1.5084
  343SOL    HW2 1371   0.138   0.255   2.243 -1.3758  0.4100  0.5851
  343SOL     MW 1372   0.200   0.275   2.308 -0.2374 -0.3341 -0.0087
  344SOL     OW 1373   1.709   2.120   0.182 -0.0488 -0.8593  0.3976
  344SOL    HW1 1374   1.724   2.186   0.115 -1.2713 -1.7471  0.2050
  344SOL    HW2 1375   1.694   2.046   0.132 -1.5865  1.2159  0.8383
  344SOL     MW 1376   1.709   2.119   0.167 -0.4130 -0.7026  0.4303
  345SOL     OW 1377   0.675   1.615   2.349 -0.0163 -0.0107 -0.0479
  345SOL    HW1 1378   0.581   1.632   2.324 -0.3540 -0.8152 -0.5395
  345SOL    HW2 1379   0.722   1.571   2.276 -0.8677  1.5267 -1.1881
  345SOL     MW 1380   0.669   1.611   2.336 -0.1732  0.0860 -0.2632
  346SOL     OW 1381   1.681   1.063   0.025 -0.4331  0.4085 -0.0805
  346SOL    HW1 1382   1.762   1.047   0.068 -2.7569  1.4391 -0.3567
  346SOL    HW2 1383   1.621   1.029   0.090  2.3262  4.1492  1.4406
  346SOL     MW 1384   1.684   1.056   0.039 -0.3756  1.0380  0.0838
  347SOL     OW 1385   1.191   0.603   2.381  0.6386  0.2418 -0.3836
  347SOL    HW1 1386   1.283   0.603   2.413 -1.9133 -0.9083 -2.2256
  347SOL    HW2 1387   1.154   0.679   2.424  1.7487  2.1760  1.1645
  347SOL     MW 1388   1.198   0.613   2.390  0.4483  0.3453 -0.4224
  348SOL     OW 1389   1.357   2.632   1.894 -0.4286 -0.1634  0.2240
  348SOL    HW1 1390   1.388   2.545   1.918  2.7291 -1.3078 -0.2231
  348SOL    HW2 1391   1.398   2.701   1.943 -2.8051 -1.4647  1.3160
  348SOL     MW 1392   1.367   2.630   1.904 -0.3255 -0.4861  0.3091
  349SOL     OW 1393   1.381   0.220   2.661 -0.1743 -0.1789 -0.2932
  349SOL    HW1 1394   1.350   0.277   2.734  1.4626 -0.1246  1.2118
  349SOL    HW2 1395   1.465   0.176   2.693  1.0994  1.5124 -0.2582
  349SOL     MW 1396   1.388   0.222   2.675  0.2097  0.0514 -0.0900
  350SOL     OW 1397   1.841   0.706   2.619 -0.6881  0.4679 -0.4429
  350SOL    HW1 1398   1.805   0.619   2.593  1.2597 -2.2710  1.9559
  350SOL    HW2 1399   1.933   0.687   2.631  0.0945  0.6600 -1.4030
  350SOL     MW 1400   1.848   0.692   2.617 -0.3278  0.1318 -0.2531
  351SOL     OW 1401   0.009   0.936   1.595  0.5407  0.2303  0.3672
  351SOL    HW1 1402  -0.050   0.963   1.665  0.5210  0.4860  0.4730
  351SOL    HW2 1403   0.065   1.013   1.588  1.3810  0.1943 -1.6890
  351SOL     MW 1404   0.009   0.949   1.603  0.6490  0.2593  0.1099
  352SOL     OW 1405   0.764   1.625   2.763 -0.6435  0.4155  0.1075
  352SOL    HW1 1406   0.819   1.584   2.838  1.2546 -2.1862  2.2876
  352SOL    HW2 1407   0.736   1.545   2.713 -3.4429 -0.9539  0.6310
  352SOL     MW 1408   0.767   1.609   2.766 -0.7624 -0.1085  0.4642
  353SOL     OW 1409   3.010   2.408   2.768 -0.5323  0.2823  0.0194
  353SOL    HW1 1410   3.097   2.380   2.738  0.1529 -0.6560 -1.1758
  353SOL    HW2 1411   2.986   2.477   2.707  0.0536  0.7474  0.5357
  353SOL     MW 1412   3.019   2.413   2.756 -0.3646  0.2198 -0.0702
  354SOL     OW 1413   0.406   2.391   0.869  0.0711 -0.3357 -0.1988
  354SOL    HW1 1414   0.455   2.359   0.946 -0.6110  0.1011 -2.4994
  354SOL    HW2 1415   0.328   2.334   0.867 -0.2080  0.0761  0.9711
  354SOL     MW 1416   0.402   2.379   0.879 -0.0557 -0.2237 -0.3480
  355SOL     OW 1417   0.080   2.230   0.378 -0.2177 -0.5418 -0.0313
  355SOL    HW1 1418  -0.008   2.185   0.371 -1.9607 -2.1615 -1.1608
  355SOL    HW2 1419   0.069   2.276   0.461  1.4960 -1.9893 -1.6705
  355SOL     MW 1420   0.067   2.230   0.388 -0.2215 -0.9465 -0.3966
  356SOL     OW 1421   0.804   2.958   1.029  0.2155 -0.7657 -0.0471
  356SOL    HW1 1422   0.886   2.940   0.981  2.6147  0.3231 -1.2276
  356SOL    HW2 1423   0.743   2.895   0.987  1.7161  0.2581  1.1238
  356SOL     MW 1424   0.807   2.947   1.017  0.7300 -0.4869 -0.0484
  357SOL     OW 1425   1.787   2.930   0.364 -0.2617 -0.2686 -0.1382
  357SOL    HW1 1426   1.735   2.897   0.436  0.5010 -1.1235 -1.9880
  357SOL    HW2 1427   1.842   2.866   0.328 -1.5694 -0.5462 -0.2542
  357SOL     MW 1428   1.787   2.917   0.369 -0.3336 -0.4180 -0.3976
  358SOL     OW 1429   0.395   0.168   1.019 -0.7715 -0.1422 -0.6847
  358SOL    HW1 1430   0.484   0.155   0.996  2.0485 -2.7255  2.6585
  358SOL    HW2 1431   0.343   0.154   0.939  0.3011 -0.8509 -0.2788
  358SOL     MW 1432   0.400   0.165   1.005 -0.2579 -0.5765 -0.1900
  359SOL     OW 1433   0.988   2.783   1.833 -0.4697  0.7831 -0.2265
  359SOL    HW1 1434   0.954   2.714   1.895  1.3912  0.9223  3.1430
  359SOL    HW2 1435   1.029   2.753   1.750  0.6444  3.9770 -0.1425
  359SOL     MW 1436   0.989   2.770   1.830 -0.0772  1.2229  0.2291
  360SOL     OW 1437   0.628   2.791   0.939  0.1567  0.4647  0.5493
  360SOL    HW1 1438   0.651   2.737   0.861  2.1118  0.1814  0.0664
  360SOL    HW2 1439   0.630   2.744   1.027  0.8620 -0.8617 -1.2701
  360SOL     MW 1440   0.631   2.778   0.940  0.5077  0.2523  0.2456
  361SOL     OW 1441   0.157   2.756   1.361  0.2042 -0.0525  0.2579
  361SOL    HW1 1442   0.152   2.839   1.401 -0.8580 -3.2166 -0.1512
  361SOL    HW2 1443   0.252   2.741   1.359 -1.5148  3.4227  1.5967
  361SOL     MW 1444   0.169   2.765   1.366 -0.1627 -0.0115  0.3806
  362SOL     OW 1445   1.494   2.422   0.586  0.3669  0.7896  0.3923
  362SOL    HW1 1446   1.482   2.333   0.623 -2.2813  1.7315 -0.1653
  362SOL    HW2 1447   1.492   2.470   0.668  0.4780 -0.2614 -1.6338
  362SOL     MW 1448   1.492   2.416   0.602  0.0322  0.7752  0.0514
  363SOL     OW 1449   0.221   3.044   0.748  0.3426  0.1810  0.3218
  363SOL    HW1 1450   0.227   2.972   0.808  0.3257 -1.1212  1.3717
  363SOL    HW2 1451   0.131   3.048   0.716  0.3746  0.7070 -1.0974
  363SOL     MW 1452   0.210   3.035   0.751  0.3446  0.0786  0.2730
  364SOL     OW 1453   0.726   0.177   0.154 -0.2913  0.1505  0.0526
  364SOL    HW1 1454   0.692   0.083   0.160 -0.6199 -2.9171 -0.5921
  364SOL    HW2 1455   0.661   0.240   0.165 -1.8301 -2.3249 -1.8188
  364SOL     MW 1456   0.713   0.173   0.156 -0.5377 -0.5808 -0.2794
  365SOL     OW 1457   0.995   1.959   1.139 -0.6520 -0.0663  0.0536
  365SOL    HW1 1458   0.978   2.036   1.091 -2.8012  0.0922  0.9242
  365SOL    HW2 1459   0.947   1.895   1.093  1.7313  0.2027  0.5685
  365SOL     MW 1460   0.986   1.961   1.126 -0.6211 -0.0099  0.2364
  366SOL     OW 1461   2.868   2.678   1.023 -0.1602 -0.1314 -0.4311
  366SOL    HW1 1462   2.948   2.656   1.084 -0.2522 -2.5184 -2.5132
  366SOL    HW2 1463   2.902   2.683   0.935  0.0162  0.0746 -2.9493
  366SOL     MW 1464   2.883   2.676   1.020 -0.1491 -0.4192 -1.0381
  367SOL     OW 1465   1.289   2.899   0.882 -0.1250 -0.7597 -0.3273
  367SOL    HW1 1466   1.212   2.941   0.907 -3.0979 -0.0074 -2.6953
  367SOL    HW2 1467   1.266   2.838   0.805  1.5752 -2.2729  1.3535
  367SOL     MW 1468   1.276   2.897   0.875 -0.2929 -0.8601 -0.4180
  368SOL     OW 1469   1.685   0.447   0.648 -0.4676  0.0908  0.3253
  368SOL    HW1 1470   1.739   0.371   0.630 -1.2453  1.3013 -3.5464
  368SOL    HW2 1471   1.741   0.518   0.626  0.3248  0.3093 -2.5231
  368SOL     MW 1472   1.699   0.447   0.643 -0.4657  0.2793 -0.5613
  369SOL     OW 1473   0.129   2.503   1.746  0.2649  0.1847 -0.2428
  369SOL    HW1 1474   0.212   2.468   1.780 -0.4263  2.1690 -0.2452
  369SOL    HW2 1475   0.119   2.584   1.788  1.2847 -2.8599 -0.7615
  369SOL     MW 1476   0.139   2.509   1.756  0.3083  0.0448 -0.3115
  370SOL     OW 1477   0.663   0.105   0.952 -0.1378  0.0229  0.0644
  370SOL    HW1 1478   0.726   0.179   0.945 -0.0613  0.8722 -0.4884
  370SOL    HW2 1479   0.711   0.024   0.976  1.7053 -0.0966  0.4789
  370SOL     MW 1480   0.678   0.104   0.954  0.1155  0.1192  0.0462
  371SOL     OW 1481   1.330   2.972   1.513 -0.5873  0.0061 -0.5471
  371SOL    HW1 1482   1.243   2.945   1.527  2.8065 -0.2422  1.7475
  371SOL    HW2 1483   1.330   3.028   1.430  0.8283  2.2551  0.1793
  371SOL     MW 1484   1.318   2.976   1.504  0.0472  0.2701 -0.1485
  372SOL     OW 1485   0.824   2.243   0.522  0.5102  0.2016 -0.0914
  372SOL    HW1 1486   0.795   2.150   0.557  1.6421 -0.3798  1.5313
  372SOL    HW2 1487   0.814   2.254   0.425  0.6466  0.5540  0.4397
  372SOL     MW 1488   0.819   2.232   0.514  0.6776  0.1714  0.1928
  373SOL     OW 1489   2.843   3.045   1.405  0.3278 -0.0904  0.7619
  373SOL    HW1 1490   2.897   3.007   1.332  1.2630 -0.6911  1.6447
  373SOL    HW2 1491   2.808   3.124   1.358  0.4955 -0.1706 -1.3749
  373SOL     MW 1492   2.846   3.051   1.389  0.4733 -0.1802  0.5965
  374SOL     OW 1493   1.495   0.520   0.232 -0.0283 -0.6299  0.5106
  374SOL    HW1 1494   1.578   0.550   0.244 -2.2047  0.5597 -1.5545
  374SOL    HW2 1495   1.463   0.481   0.311 -1.2183 -0.7119 -0.3519
  374SOL     MW 1496   1.502   0.519   0.244 -0.4724 -0.4837  0.1243
  375SOL     OW 1497   1.157   2.102   2.265 -0.0293 -0.1026 -0.3498
  375SOL    HW1 1498   1.175   2.136   2.358  0.5701  0.5119  2.0123
  375SOL    HW2 1499   1.117   2.013   2.282  1.2687 -0.3041 -0.2864
  375SOL     MW 1500   1.154   2.095   2.280  0.2211 -0.0481 -0.0298
  376SOL     OW 1501   0.659   2.544   0.140 -0.2287  0.1255 -0.2343
  376SOL    HW1 1502   0.660   2.472   0.199 -3.6390  0.8695  0.1627
  376SOL    HW2 1503   0.620   2.496   0.065 -0.5221 -0.6719 -0.1562
  376SOL     MW 1504   0.654   2.528   0.138 -0.7173  0.1184 -0.1716
  377SOL     OW 1505   1.211   2.046   0.917 -0.1903 -0.7153 -0.7491
  377SOL    HW1 1506   1.145   2.016   0.850  0.2195 -2.4211 -0.4998
  377SOL    HW2 1507   1.226   1.974   0.978  3.0148 -0.9461  0.3938
  377SOL     MW 1508   1.204   2.033   0.916  0.2866 -0.9708 -0.5654
  378SOL     OW 1509   0.966   2.809   1.518  0.4528  0.5469  0.4891
  378SOL    HW1 1510   0.906   2.729   1.532 -0.3842 -1.7273 -0.1050
  378SOL    HW2 1511   0.925   2.851   1.443 -0.6045 -2.6338  0.1935
  378SOL     MW 1512   0.953   2.804   1.510  0.2028 -0.1728  0.3717
  379SOL     OW 1513   1.061   1.839   2.296  0.1527  0.5603 -0.0769
  379SOL    HW1 1514   0.967   1.858   2.292 -0.4583 -0.7427 -0.5505
  379SOL    HW2 1515   1.088   1.761   2.241  2.1220 -1.6546 -1.9614
  379SOL     MW 1516   1.052   1.831   2.288  0.3319  0.0962 -0.3880
  380SOL     OW 1517   0.898   0.217   1.546 -0.3240 -0.2055 -0.5788
  380SOL    HW1 1518   0.941   0.162   1.474  1.7499  0.5290 -1.2609
  380SOL    HW2 1519   0.967   0.220   1.614  2.6912  0.7641  0.6322
  380SOL     MW 1520   0.913   0.210   1.545  0.3474  0.0194 -0.5090
  381SOL     OW 1521   0.818   2.011   0.802  0.3363 -0.1523  0.0333
  381SOL    HW1 1522   0.905   1.992   0.763 -0.8946  2.4727 -0.6908
  381SOL    HW2 1523   0.839   2.080   0.868  0.8877 -1.7415 -0.5301
  381SOL     MW 1524   0.832   2.018   0.805  0.2466 -0.0157 -0.1366
  382SOL     OW 1525   0.709   0.021   0.701  0.5322 -0.4470  0.7839
  382SOL    HW1 1526   0.660   0.030   0.784 -1.1151  1.3348  0.8793
  382SOL    HW2 1527   0.665  -0.049   0.658  1.7609  0.0496 -0.3959
  382SOL     MW 1528   0.697   0.013   0.706  0.4770 -0.1464  0.6408
  383SOL     OW 1529   0.485   0.017   0.371 -0.2649  0.6506  0.2426
  383SOL    HW1 1530   0.537  -0.059   0.368  0.5337 -1.2469 -0.8389
  383SOL    HW2 1531   0.396  -0.012   0.351  2.6124 -0.9016  1.7585
  383SOL     MW 1532   0.480   0.003   0.368  0.2201  0.1954  0.2999
  384SOL     OW 1533   0.591   2.882   0.575 -0.2229 -0.1631  0.0907
  384SOL    HW1 1534   0.624   2.807   0.623 -1.7631  1.6317 -0.3355
  384SOL    HW2 1535   0.502   2.870   0.558  0.3605  2.2741  0.1248
  384SOL     MW 1536   0.584   2.870   0.579 -0.3491  0.3953  0.0389
  385SOL     OW 1537   1.322   2.077   1.543 -0.6015  0.5605  0.3629
  385SOL    HW1 1538   1.395   2.089   1.610  3.0943 -1.7625  0.2583
  385SOL    HW2 1539   1.291   1.984   1.569 -1.1059 -0.2273  3.0403
  385SOL     MW 1540   1.328   2.066   1.555 -0.1804  0.1501  0.7023
  386SOL     OW 1541   1.379   0.434   0.916 -0.0464 -0.0130  0.0388
  386SOL    HW1 1542   1.308   0.390   0.864  0.5240 -3.2529 -0.4371
  386SOL    HW2 1543   1.346   0.419   1.006  0.4716  0.3011  1.1757
  386SOL     MW 1544   1.365   0.426   0.921  0.0972 -0.3990  0.1260
  387SOL     OW 1545   0.861   2.169   1.510 -0.4497  0.6711  0.4156
  387SOL    HW1 1546   0.904   2.245   1.487 -1.1324 -1.5431  2.9763
  387SOL    HW2 1547   0.921   2.095   1.481  2.2368 -0.4907 -0.2399
  387SOL     MW 1548   0.874   2.169   1.503 -0.1853  0.2257  0.6670
  388SOL     OW 1549   1.525   2.806   1.196 -0.3785 -0.5380  0.8141
  388SOL    HW1 1550   1.460   2.746   1.159  0.4944 -1.3252  0.9458
  388SOL    HW2 1551   1.598   2.768   1.149 -0.7642 -0.8265  2.5299
  388SOL     MW 1552   1.526   2.793   1.185 -0.3142 -0.6800  1.0579
  389SOL     OW 1553   0.377   0.194   3.087 -0.2229  0.2598 -0.0617
  389SOL    HW1 1554   0.379   0.101   3.105  0.7963 -0.3849 -3.1203
  389SOL    HW2 1555   0.285   0.205   3.071 -3.0889 -0.1876 -2.5103
  389SOL     MW 1556   0.365   0.183   3.087 -0.4666  0.1157 -0.7883
  390SOL     OW 1557   1.354   0.053   0.590 -0.2545  0.1298  0.0446
  390SOL    HW1 1558   1.438   0.090   0.568 -1.7097  1.4822  2.6982
  390SOL    HW2 1559   1.345   0.055   0.688 -0.2660  1.5832  0.3089
  390SOL     MW 1560   1.364   0.058   0.600 -0.4480  0.5000  0.4296
  391SOL     OW 1561   0.291   2.300   1.443  0.6473 -0.3922  0.0932
  391SOL    HW1 1562   0.254   2.223   1.489 -1.5046 -1.8338 -0.0347
  391SOL    HW2 1563   0.222   2.368   1.431 -0.1889 -0.7499  0.3133
  391SOL     MW 1564   0.277   2.299   1.447  0.2531 -0.6296  0.1054
  392SOL     OW 1565   1.983   2.153   0.321  0.0758  0.5387  0.2494
  392SOL    HW1 1566   1.923   2.212   0.358  1.4868  0.3586 -0.3004
  392SOL    HW2 1567   2.057   2.154   0.385  0.8608 -0.4007  0.1511
  392SOL     MW 1568   1.985   2.161   0.334  0.3656  0.3910  0.1639
  393SOL     OW 1569   0.250   3.000   2.894  0.3467  0.2575 -0.9527
  393SOL    HW1 1570   0.312   3.051   2.850  0.3709 -3.5637 -0.2461
  393SOL    HW2 1571   0.178   2.993   2.834  0.8203  1.5050 -1.4696
  393SOL     MW 1572   0.248   3.006   2.880  0.4124 -0.0821 -0.9276
  394SOL     OW 1573   0.833   1.626   1.407  0.0646  0.1636 -0.1508
  394SOL    HW1 1574   0.774   1.649   1.486 -2.5517  0.7547 -0.8209
  394SOL    HW2 1575   0.880   1.715   1.393 -0.4639 -2.2358  2.3833
  394SOL     MW 1576   0.831   1.641   1.415 -0.3503 -0.0750  0.0951
  395SOL     OW 1577   0.932   2.887   2.578  0.0019 -0.5792  0.4122
  395SOL    HW1 1578   0.931   2.950   2.646  1.0280 -0.2891 -0.6025
  395SOL    HW2 1579   1.018   2.842   2.562 -1.6804 -0.6979 -2.2106
  395SOL     MW 1580   0.943   2.889   2.585 -0.0847 -0.5566 -0.0678
  396SOL     OW 1581   0.769   1.871   2.381 -0.0515 -0.4114 -0.2368
  396SOL    HW1 1582   0.828   1.886   2.451 -0.4595  1.3872 -1.8314
  396SOL    HW2 1583   0.724   1.789   2.408 -0.9079 -0.8487  2.1697
  396SOL     MW 1584   0.771   1.862   2.394 -0.2183 -0.2318 -0.1297
  397SOL     OW 1585   1.016   2.341   1.339 -0.2640 -0.1254 -0.1813
  397SOL    HW1 1586   1.057   2.397   1.278 -1.7126 -0.1614  0.9214
  397SOL    HW2 1587   1.090   2.336   1.403  0.1809 -2.0816  2.5162
  397SOL     MW 1588   1.031   2.348   1.339 -0.3964 -0.3882  0.3201
  398SOL     OW 1589   0.651   2.638   0.718  0.4614  0.8843  0.4038
  398SOL    HW1 1590   0.576   2.606   0.679 -0.1526  3.5243  2.9376
  398SOL    HW2 1591   0.719   2.588   0.686  0.6555  0.4782  0.7984
  398SOL     MW 1592   0.650   2.627   0.708  0.4060  1.1791  0.7902
  399SOL     OW 1593   0.282   2.040   0.365 -0.2466 -0.3945  0.1265
  399SOL    HW1 1594   0.223   2.113   0.374  1.0453  0.3462 -2.7627
  399SOL    HW2 1595   0.336   2.064   0.283 -0.7142 -1.9130  1.3970
  399SOL     MW 1596   0.281   2.053   0.355 -0.1379 -0.4971 -0.0871
  400SOL     OW 1597   0.619   1.852   0.166 -0.1446 -0.3649 -0.3016
  400SOL    HW1 1598   0.587   1.944   0.168 -1.1416 -0.1543 -2.2500
  400SOL    HW2 1599   0.566   1.813   0.236  0.7397 -0.3931  0.2258
  400SOL     MW 1600   0.608   1.859   0.175 -0.1594 -0.3408 -0.4891
  401SOL     OW 1601   1.000   2.060   0.082 -0.3374 -0.4736  1.1523
  401SOL    HW1 1602   0.999   1.957   0.083  0.2953  0.2379  2.0133
  401SOL    HW2 1603   1.049   2.092   0.156  0.0770  0.2583 -1.9499
  401SOL     MW 1604   1.006   2.051   0.092 -0.1992 -0.2832  0.8566
  402SOL     OW 1605   0.726   2.867   1.742  0.4947  0.4103  0.0426
  402SOL    HW1 1606   0.665   2.834   1.802  0.1007 -0.3664 -2.4182
  402SOL    HW2 1607   0.806   2.885   1.792  1.8100  1.2778  0.6347
  402SOL     MW 1608   0.728   2.865   1.757  0.6163  0.4223 -0.2039
  403SOL     OW 1609   0.056   0.506   0.410  0.3226 -0.9478  0.8012
  403SOL    HW1 1610   0.154   0.511   0.435  0.5458  0.4233 -2.7330
  403SOL    HW2 1611   0.066   0.441   0.331 -1.7726  1.1607  0.1701
  403SOL     MW 1612   0.070   0.498   0.403  0.0756 -0.4887  0.2516
  404SOL     OW 1613   0.979   2.899   0.802  0.2868  0.3203 -0.4816
  404SOL    HW1 1614   1.040   2.842   0.764 -1.6855 -0.5116  1.1564
  404SOL    HW2 1615   0.985   2.983   0.756  0.6231 -1.6159  0.0902
  404SOL     MW 1616   0.988   2.903   0.791  0.0709 -0.0449 -0.1900
  405SOL     OW 1617   0.477   2.470   1.541  0.0528 -0.1250 -0.0352
  405SOL    HW1 1618   0.479   2.557   1.489 -2.0246  3.8068 -1.2912
  405SOL    HW2 1619   0.414   2.415   1.498  2.6369  0.7687  4.0340
  405SOL     MW 1620   0.469   2.474   1.528  0.1197  0.5117  0.3359
  406SOL     OW 1621   0.417   2.381   1.149  0.3007  0.0379  0.0863
  406SOL    HW1 1622   0.321   2.382   1.132 -0.7931 -1.2386 -2.5781
  406SOL    HW2 1623   0.427   2.300   1.212 -3.1621 -1.2380 -0.8837
  406SOL     MW 1624   0.406   2.371   1.155 -0.3005 -0.2989 -0.3932
  407SOL     OW 1625   0.023   2.687   1.131  0.0105  0.3692 -0.3902
  407SOL    HW1 1626   0.068   2.677   1.219  1.5031 -2.3180 -3.8900
  407SOL    HW2 1627   0.096   2.665   1.065  3.0344  1.9028 -1.8548
  407SOL     MW 1628   0.039   2.683   1.134  0.6064  0.2170 -1.0452
  408SOL     OW 1629   2.123   2.134   0.572  0.2839 -0.2872  0.3094
  408SOL    HW1 1630   2.112   2.225   0.597  2.0867  2.7597  3.5626
  408SOL    HW2 1631   2.048   2.085   0.622 -2.0256 -1.3958  1.2195
  408SOL     MW 1632   2.112   2.140   0.582  0.2171 -0.0314  0.8587
  409SOL     OW 1633   1.335   0.115   0.883 -0.7846 -0.6819 -0.0555
  409SOL    HW1 1634   1.392   0.177   0.927  0.9243  1.3290  0.4388
  409SOL    HW2 1635   1.375   0.035   0.918 -0.8930  0.1709  0.9998
  409SOL     MW 1636   1.348   0.112   0.894 -0.5734 -0.3041  0.1489
  410SOL     OW 1637   1.097   2.491   1.062 -0.0846  0.1209 -0.0810
  410SOL    HW1 1638   1.024   2.484   0.998 -0.5484 -0.1409 -1.8354
  410SOL    HW2 1639   1.176   2.437   1.027  1.1567  1.4694  0.8780
  410SOL     MW 1640   1.098   2.483   1.049  0.0180  0.2643 -0.1860
  411SOL     OW 1641   1.978   0.119   2.856  0.0470 -0.6372  0.1331
  411SOL    HW1 1642   1.934   0.085   2.774 -1.4631  0.4619 -0.1098
  411SOL    HW2 1643   1.905   0.104   2.925 -1.7078 -2.1304  1.4550
  411SOL     MW 1644   1.962   0.112   2.854 -0.3838 -0.6892  0.2755
  412SOL     OW 1645   1.078   2.208   0.563 -0.0891 -0.0916 -0.0853
  412SOL    HW1 1646   1.131   2.271   0.613 -1.1076  1.1351  2.1949
  412SOL    HW2 1647   0.983   2.233   0.562 -1.4817 -0.0028  0.0864
  412SOL     MW 1648   1.072   2.219   0.569 -0.4072  0.0820  0.2382
  413SOL     OW 1649   0.548   2.795   0.160  0.5434  0.4348  0.0358
  413SOL    HW1 1650   0.585   2.699   0.165 -2.4055 -2.4716  0.0821
  413SOL    HW2 1651   0.574   2.827   0.070  1.4067  2.7430 -1.1183
  413SOL     MW 1652   0.557   2.786   0.149  0.2682  0.3559 -0.1104
  414SOL     OW 1653   1.990   3.055   1.081 -0.4006  0.2273  0.2202
  414SOL    HW1 1654   1.940   3.021   1.003 -0.0322  2.8774 -0.6331
  414SOL    HW2 1655   2.066   2.993   1.094  2.3008  1.5179 -0.2265
  414SOL     MW 1656   1.993   3.043   1.072  0.0044  0.7472  0.0487
  415SOL     OW 1657   1.719   2.678   1.059 -0.4306 -0.2768  0.0559
  415SOL    HW1 1658   1.652   2.621   1.108  1.8569 -2.4598  2.3966
  415SOL    HW2 1659   1.799   2.678   1.109 -1.8592 -1.0567 -2.9124
  415SOL     MW 1660   1.720   2.671   1.072 -0.3173 -0.6677 -0.0269
  416SOL     OW 1661   0.615   1.933   1.386  0.4044 -0.3591  0.1904
  416SOL    HW1 1662   0.558   2.010   1.370  1.0262  0.3158  1.4000
  416SOL    HW2 1663   0.616   1.887   1.297 -0.4541  2.0437 -2.1636
  416SOL     MW 1664   0.608   1.937   1.372  0.3732  0.0470  0.0394
  417SOL     OW 1665   1.021   3.012   1.981  0.1469  0.1630 -0.0196
  417SOL    HW1 1666   0.952   2.989   2.049 -2.9352 -0.9238 -1.0859
  417SOL    HW2 1667   1.027   2.940   1.918 -1.2200  1.5337 -0.2622
  417SOL     MW 1668   1.013   2.999   1.982 -0.4401  0.2004 -0.1923
  418SOL     OW 1669   0.715   3.013   0.211 -0.6264 -0.4135  0.1380
  418SOL    HW1 1670   0.777   2.973   0.152  1.7416  1.7966  3.2217
  418SOL    HW2 1671   0.640   2.955   0.197  0.0133 -0.9128  0.1906
  418SOL     MW 1672   0.713   3.000   0.202 -0.2296 -0.1878  0.5518
  419SOL     OW 1673   0.457   2.704   1.385 -0.0694 -0.1571 -0.5369
  419SOL    HW1 1674   0.540   2.743   1.411 -2.5191 -1.8784  1.9406
  419SOL    HW2 1675   0.486   2.682   1.294  2.1360  1.0095 -0.6080
  419SOL     MW 1676   0.472   2.706   1.376 -0.1016 -0.2303 -0.2194
  420SOL     OW 1677   0.876   2.188   1.013 -0.7020 -0.4645 -0.3392
  420SOL    HW1 1678   0.824   2.196   1.095 -1.0707  1.5925 -0.3196
  420SOL    HW2 1679   0.913   2.272   0.990 -1.1709 -0.3847 -0.6611
  420SOL     MW 1680   0.874   2.200   1.021 -0.8125 -0.1826 -0.3791
  421SOL     OW 1681   2.946   0.078   0.012  0.0242  0.1548 -0.1472
  421SOL    HW1 1682   2.916   0.030  -0.061  1.8091  0.1280  2.6504
  421SOL    HW2 1683   2.946   0.012   0.083  2.4385  1.4519 -1.5417
  421SOL     MW 1684   2.942   0.063   0.012  0.5782  0.3224  0.0379
  422SOL     OW 1685   0.882   2.455   0.871  0.4807 -0.0456  0.3349
  422SOL    HW1 1686   0.799   2.493   0.890 -0.4702 -0.1308 -0.0892
  422SOL    HW2 1687   0.892   2.481   0.782  0.2890 -3.2338  1.9026
  422SOL     MW 1688   0.872   2.463   0.862  0.3300 -0.4775  0.4858
  423SOL     OW 1689   1.599   0.162   0.492 -0.2506  0.4429 -0.0521
  423SOL    HW1 1690   1.568   0.132   0.406 -2.3041 -0.2102  1.1703
  423SOL    HW2 1691   1.548   0.240   0.502 -0.0485  0.6843 -0.1260
  423SOL     MW 1692   1.589   0.168   0.482 -0.4949  0.3886  0.0995
  424SOL     OW 1693   0.736   2.214   1.250 -0.1706  0.2171 -0.1334
  424SOL    HW1 1694   0.643   2.202   1.252  1.9818 -1.2481 -0.2540
  424SOL    HW2 1695   0.764   2.184   1.340 -3.3817  0.3393  2.2440
  424SOL     MW 1696   0.727   2.208   1.262 -0.3103  0.0399  0.1643
  425SOL     OW 1697   1.748   2.865   2.016  0.1900  0.2071 -0.3350
  425SOL    HW1 1698   1.761   2.863   1.920 -0.7992 -0.3038  0.8180
  425SOL    HW2 1699   1.766   2.777   2.047 -0.2687 -1.1134 -2.5826
  425SOL     MW 1700   1.752   2.853   2.008 -0.0010 -0.0345 -0.4794
  426SOL     OW 1701   0.748   1.616   1.910  0.6115  0.1392  0.1483
  426SOL    HW1 1702   0.714   1.640   1.820 -0.6379  2.5784 -2.6439
  426SOL    HW2 1703   0.746   1.693   1.963  0.9220 -0.6870 -0.4722
  426SOL     MW 1704   0.743   1.629   1.905  0.4876  0.3520 -0.3020
  427SOL     OW 1705   0.406   1.562   1.860 -0.2162  0.2516  0.2430
  427SOL    HW1 1706   0.475   1.538   1.930  2.8586  2.7554  0.9673
  427SOL    HW2 1707   0.318   1.532   1.884  1.6479 -0.4691 -1.9847
  427SOL     MW 1708   0.403   1.555   1.872  0.4355  0.4869  0.0446
  428SOL     OW 1709   0.578   2.612   1.153 -0.4068 -0.8716  0.2285
  428SOL    HW1 1710   0.663   2.585   1.196  2.4417 -0.8996  0.2526
  428SOL    HW2 1711   0.529   2.537   1.120 -1.4815 -0.7461 -0.1602
  428SOL     MW 1712   0.583   2.598   1.154 -0.1728 -0.8587  0.1804
  429SOL     OW 1713   1.338   2.670   1.065  0.0580 -0.4446 -0.2935
  429SOL    HW1 1714   1.251   2.628   1.067  2.1442 -1.1329 -1.8638
  429SOL    HW2 1715   1.321   2.750   1.015 -2.6243 -2.4103 -0.0140
  429SOL     MW 1716   1.325   2.675   1.059 -0.0207 -0.7948 -0.4638
  430SOL     OW 1717   1.193   2.715   0.692  0.1261  0.1513 -0.2802
  430SOL    HW1 1718   1.225   2.625   0.708 -1.4807  0.6396  0.6311
  430SOL    HW2 1719   1.147   2.693   0.611 -0.6199 -1.2965  1.7122
  430SOL     MW 1720   1.191   2.700   0.684 -0.1843  0.0247  0.1029
  431SOL     OW 1721   0.306   1.944   1.153 -0.4555  0.2884  0.2120
  431SOL    HW1 1722   0.370   1.870   1.139  2.1297 -0.5939 -0.7689
  431SOL    HW2 1723   0.317   1.994   1.071 -3.1443 -1.3712 -0.5728
  431SOL     MW 1724   0.316   1.941   1.140 -0.4692 -0.0469 -0.0210
  432SOL     OW 1725   0.056   0.041   1.158 -0.0569  0.6020 -0.2465
  432SOL    HW1 1726   0.063   0.074   1.245 -1.8008  0.9336 -1.8000
  432SOL    HW2 1727  -0.000  -0.033   1.168  1.8217 -0.6808  0.8948
  432SOL     MW 1728   0.050   0.035   1.171 -0.0391  0.4765 -0.3009
  433SOL     OW 1729   0.676   2.862   1.455  0.3043  0.1222  0.0106
  433SOL    HW1 1730   0.698   2.854   1.551 -0.2962  0.0287 -1.1835
  433SOL    HW2 1731   0.749   2.903   1.414  2.0886 -0.7958  2.3920
  433SOL     MW 1732   0.689   2.866   1.463  0.4605 -0.0113  0.1672
  434SOL     OW 1733   1.548   2.814   1.467  0.2615  0.1625 -0.3755
  434SOL    HW1 1734   1.473   2.871   1.490  3.3406  1.3815  0.1784
  434SOL    HW2 1735   1.517   2.783   1.377 -3.7168  0.0774 -0.3874
  434SOL     MW 1736   1.534   2.817   1.458  0.1429  0.3121 -0.3040
  435SOL     OW 1737   2.865   1.796   0.250 -0.2216  0.1656  0.1520
  435SOL    HW1 1738   2.933   1.857   0.219  3.0435 -1.6586  0.1371
  435SOL    HW2 1739   2.861   1.737   0.170 -0.0633  0.4427  2.5172
  435SOL     MW 1740   2.874   1.796   0.235  0.2301 -0.0385  0.4621
  436SOL     OW 1741   1.420   2.768   0.315 -0.7189 -0.2714  0.0910
  436SOL    HW1 1742   1.492   2.763   0.379 -2.4315 -1.9957 -1.2131
  436SOL    HW2 1743   1.368   2.843   0.348  2.6918  0.6791  0.6025
  436SOL     MW 1744   1.423   2.778   0.328 -0.4949 -0.3735 -0.0136
  437SOL     OW 1745   0.876   2.937   1.281  0.1154 -0.3771  0.3923
  437SOL    HW1 1746   0.904   3.032   1.278  0.0616  1.5558  1.9432
  437SOL    HW2 1747   0.839   2.936   1.190 -1.7584  1.6156  2.1418
  437SOL     MW 1748   0.875   2.950   1.269 -0.1390  0.1408  0.8278
  438SOL     OW 1749   0.855   2.565   1.994 -0.3533  0.2723 -0.0475
  438SOL    HW1 1750   0.836   2.525   2.081  1.2458  1.6600 -3.3647
  438SOL    HW2 1751   0.779   2.532   1.945 -2.0298  0.5145  3.3398
  438SOL     MW 1752   0.843   2.556   1.999 -0.3635  0.4873 -0.0382
  439SOL     OW 1753   1.162   2.158   0.314 -0.0882  0.3408  0.0147
  439SOL    HW1 1754   1.114   2.177   0.399  2.2205  1.0819 -0.8088
  439SOL    HW2 1755   1.157   2.242   0.267  1.9540 -1.7347 -0.1064
  439SOL     MW 1756   1.155   2.172   0.319  0.4858  0.1647 -0.1099
  440SOL     OW 1757   1.662   3.004   3.008 -0.1516 -0.8407  0.2992
  440SOL    HW1 1758   1.632   2.992   3.099 -1.7657 -1.8076 -0.2033
  440SOL    HW2 1759   1.690   2.917   2.986 -1.5620 -0.8234 -0.9267
  440SOL     MW 1760   1.662   2.991   3.017 -0.5507 -0.9660  0.0711
  441SOL     OW 1761   0.311   2.570   0.544 -0.2976 -0.2466 -0.2920
  441SOL    HW1 1762   0.312   2.547   0.443  1.7498  1.1779 -0.3461
  441SOL    HW2 1763   0.311   2.670   0.537  1.0103  1.1471  1.8864
  441SOL     MW 1764   0.311   2.580   0.530  0.1451  0.1252 -0.0117
  442SOL     OW 1765   0.039   2.346   0.647 -0.3927  0.2492  0.2572
  442SOL    HW1 1766   0.042   2.432   0.607  0.3467 -1.1717  1.4951
  442SOL    HW2 1767  -0.049   2.345   0.675  2.2671 -0.2976  0.0939
  442SOL     MW 1768   0.028   2.357   0.645  0.0558 -0.0104  0.3990
  443SOL     OW 1769   1.344   1.693   1.839 -0.8642 -0.3938 -0.0509
  443SOL    HW1 1770   1.319   1.727   1.754 -0.0761 -0.3192 -4.1180
  443SOL    HW2 1771   1.302   1.603   1.842 -0.2879 -0.1494 -4.5768
  443SOL     MW 1772   1.335   1.686   1.828 -0.6842 -0.3517 -1.1847
  444SOL     OW 1773   0.831   2.569   1.581 -0.3247 -0.1580  0.5171
  444SOL    HW1 1774   0.910   2.540   1.626 -3.0463  0.8985 -1.0102
  444SOL    HW2 1775   0.766   2.579   1.653  0.0445 -1.4238 -0.5266
  444SOL     MW 1776   0.833   2.567   1.597 -0.6351 -0.1856  0.1779
  445SOL     OW 1777   0.970   0.096   1.300  0.2696  0.2702 -0.4006
  445SOL    HW1 1778   0.911   0.161   1.264  1.8187 -2.4787  0.9282
  445SOL    HW2 1779   1.042   0.099   1.234  1.1662 -2.7805 -3.1171
  445SOL     MW 1780   0.972   0.105   1.286  0.5923 -0.4950 -0.5837
  446SOL     OW 1781   2.781   2.943   1.021  0.4842  0.1062  0.2160
  446SOL    HW1 1782   2.695   2.941   0.978 -0.4481  1.0327 -0.9261
  446SOL    HW2 1783   2.815   2.847   1.022  2.4625  0.6536 -2.6265
  446SOL     MW 1784   2.774   2.930   1.015  0.6222  0.3006 -0.3097
  447SOL     OW 1785   3.020   2.051   1.719 -0.0280 -0.1595  0.8795
  447SOL    HW1 1786   3.079   1.989   1.763 -2.3766 -0.7183  0.4192
  447SOL    HW2 1787   2.973   2.012   1.643 -0.6733  0.4697 -0.1597
  447SOL     MW 1788   3.021   2.038   1.715 -0.4230 -0.1502  0.6816
  448SOL     OW 1789   1.678   2.332   1.661  0.2572 -0.6367  0.1690
  448SOL    HW1 1790   1.620   2.253   1.681 -0.1305  1.0325 -3.2723
  448SOL    HW2 1791   1.618   2.401   1.653  0.4601 -1.9548  0.5061
  448SOL     MW 1792   1.662   2.331   1.663  0.2328 -0.5903 -0.2405
  449SOL     OW 1793   0.844   2.894   0.423 -0.0228  0.6288  0.0447
  449SOL    HW1 1794   0.793   2.928   0.350 -0.7426  0.0154 -0.1008
  449SOL    HW2 1795   0.797   2.923   0.504 -0.0976 -0.6758 -0.2175
  449SOL     MW 1796   0.831   2.903   0.424 -0.1276  0.3758 -0.0091
  450SOL     OW 1797   1.224   2.420   0.662  0.1995 -0.2614  1.0466
  450SOL    HW1 1798   1.238   2.422   0.754 -1.1423 -0.7227 -2.4415
  450SOL    HW2 1799   1.313   2.430   0.625 -0.4165  2.8890 -0.8619
  450SOL     MW 1800   1.238   2.421   0.669 -0.0588  0.0934  0.3346
  451SOL     OW 1801   0.611   1.956   1.678 -0.3032 -0.1019  0.1992
  451SOL    HW1 1802   0.702   1.965   1.698  2.3192  1.4582 -1.3002
  451SOL    HW2 1803   0.617   1.939   1.582 -1.2324  0.2018  0.7068
  451SOL     MW 1804   0.624   1.955   1.668 -0.0798  0.1440  0.0683
  452SOL     OW 1805   0.301   2.715   0.110 -0.6093  0.3203  0.3184
  452SOL    HW1 1806   0.384   2.769   0.128  1.2030  2.1265  1.5630
  452SOL    HW2 1807   0.291   2.706   0.015  1.3338  0.5098  1.6827
  452SOL     MW 1808   0.310   2.721   0.100 -0.1138  0.5836  0.6626
  453SOL     OW 1809   0.375   2.977   1.633 -0.3107 -0.3481  0.0345
  453SOL    HW1 1810   0.452   2.999   1.585 -3.0605  1.1061  0.7514
  453SOL    HW2 1811   0.297   2.977   1.576 -0.4486  4.1136  0.8064
  453SOL     MW 1812   0.375   2.980   1.619 -0.6917  0.4325  0.2310
  454SOL     OW 1813   1.063   2.791   1.141  0.6179  0.3882 -0.4308
  454SOL    HW1 1814   1.018   2.709   1.129 -0.2122 -1.6234 -1.8895
  454SOL    HW2 1815   1.010   2.849   1.200 -1.1945 -2.2005 -0.2695
  454SOL     MW 1816   1.050   2.788   1.148  0.2693 -0.2188 -0.6020
  455SOL     OW 1817   1.600   2.935   0.165  0.1308  0.2197 -0.0057
  455SOL    HW1 1818   1.673   2.917   0.222  0.7298 -2.9191  2.7355
  455SOL    HW2 1819   1.526   2.884   0.196 -0.4643  0.7174  1.6486
  455SOL     MW 1820   1.600   2.926   0.177  0.1313 -0.1287  0.5743
  456SOL     OW 1821   2.949   0.292   1.412  0.4207  0.8690 -0.3744
  456SOL    HW1 1822   2.909   0.226   1.363  0.1019  1.6571  1.2204
  456SOL    HW2 1823   2.976   0.355   1.342  1.3667 -1.6485  3.1081
  456SOL     MW 1824   2.947   0.291   1.396  0.5034  0.6409  0.2955
  457SOL     OW 1825   0.879   1.550   3.005 -0.3729  0.1220 -0.1502
  457SOL    HW1 1826   0.810   1.536   3.066 -0.6107 -0.9591 -2.3052
  457SOL    HW2 1827   0.957   1.501   3.035 -0.7082  3.0681 -0.9250
  457SOL     MW 1828   0.880   1.542   3.017 -0.4485  0.3681 -0.5367
  458SOL     OW 1829   1.442   1.415   0.639  0.0376  0.1826 -0.1508
  458SOL    HW1 1830   1.362   1.413   0.689 -0.1354 -0.5623  1.8277
  458SOL    HW2 1831   1.424   1.354   0.564  1.3283 -3.4123 -0.2428
  458SOL     MW 1832   1.429   1.407   0.636  0.1851 -0.3900  0.0981
  459SOL     OW 1833   1.560   0.121   0.224 -0.3930 -0.0451 -0.0887
  459SOL    HW1 1834   1.544   0.031   0.198  0.2959  0.7444 -2.3207
  459SOL    HW2 1835   1.508   0.170   0.158 -1.7713  2.0338 -0.4821
  459SOL     MW 1836   1.551   0.116   0.212 -0.4840  0.3334 -0.4351
  460SOL     OW 1837   1.701   2.163   0.578 -0.1095  0.0314 -0.1548
  460SOL    HW1 1838   1.635   2.147   0.638 -5.5055  1.6350 -1.7135
  460SOL    HW2 1839   1.765   2.086   0.587 -0.2073  0.5034 -1.6794
  460SOL     MW 1840   1.700   2.151   0.587 -0.8344  0.3052 -0.5616
  461SOL     OW 1841   0.475   2.327   0.610  0.9678  0.7106 -0.1039
  461SOL    HW1 1842   0.420   2.395   0.574  1.2200 -2.0924  1.7033
  461SOL    HW2 1843   0.465   2.353   0.699  1.0279  1.0421 -0.3115
  461SOL     MW 1844   0.466   2.340   0.617  1.0090  0.3845  0.1072
  462SOL     OW 1845   0.376   0.305   1.305 -0.3413  0.6664 -0.1695
  462SOL    HW1 1846   0.393   0.249   1.227  0.4897 -2.4880 -0.0860
  462SOL    HW2 1847   0.467   0.334   1.323 -1.9667 -4.8877  2.3417
  462SOL     MW 1848   0.390   0.301   1.297 -0.4461 -0.4826  0.1728
  463SOL     OW 1849   1.017   0.054   0.711  0.0377 -0.3699 -0.2218
  463SOL    HW1 1850   1.050   0.059   0.622 -1.9224  0.5561  0.4500
  463SOL    HW2 1851   0.919   0.058   0.700  1.2568  0.8152 -2.1204
  463SOL     MW 1852   1.008   0.055   0.698 -0.0601 -0.0913 -0.3836
  464SOL     OW 1853   0.816   2.947   2.165 -0.8676 -0.7775 -0.0272
  464SOL    HW1 1854   0.765   2.865   2.177  0.7588  0.0556 -1.1963
  464SOL    HW2 1855   0.838   2.991   2.260 -3.4126 -0.5289  1.2487
  464SOL     MW 1856   0.812   2.942   2.179 -0.9888 -0.6348 -0.0131
  465SOL     OW 1857   0.734   0.213   0.467  0.4481 -0.3793 -0.0519
  465SOL    HW1 1858   0.732   0.157   0.543 -0.6094  1.9953  0.5033
  465SOL    HW2 1859   0.746   0.151   0.400  1.0166 -0.2282  1.7636
  465SOL     MW 1860   0.735   0.197   0.468  0.3836 -0.0461  0.2609
  466SOL     OW 1861   1.068   1.975   0.693 -0.6062 -0.0729  0.5556
  466SOL    HW1 1862   1.059   1.903   0.629 -0.1548  0.1372  0.6675
  466SOL    HW2 1863   1.058   2.063   0.646 -1.2785  0.7692 -1.3995
  466SOL     MW 1864   1.065   1.977   0.678 -0.6354  0.0659  0.3124
  467SOL     OW 1865   1.276   2.329   0.965 -0.5845  0.0204 -0.3209
  467SOL    HW1 1866   1.360   2.323   1.004 -1.8368  0.6305  0.3613
  467SOL    HW2 1867   1.242   2.235   0.974  0.0892  0.4582 -1.2069
  467SOL     MW 1868   1.283   2.316   0.971 -0.6608  0.1586 -0.3478
  468SOL     OW 1869   0.311   2.623   1.973  0.1355  0.3144 -0.5930
  468SOL    HW1 1870   0.362   2.554   1.932  1.0353 -0.5454  1.1965
  468SOL    HW2 1871   0.355   2.695   1.924  0.1086 -0.4896  0.6024
  468SOL     MW 1872   0.323   2.623   1.961  0.2507  0.0949 -0.1992
  469SOL     OW 1873   0.404   2.080   1.831  0.0374 -0.0651 -0.3951
  469SOL    HW1 1874   0.333   2.022   1.802  0.2508 -1.0227 -0.3667
  469SOL    HW2 1875   0.491   2.049   1.787  0.1492  1.1859 -0.0436
  469SOL     MW 1876   0.406   2.068   1.821  0.0803 -0.0264 -0.3450
  470SOL     OW 1877   3.066   2.513   0.176 -0.2600 -0.2929  0.0471
  470SOL    HW1 1878   2.990   2.466   0.212 -0.3512 -0.9569 -0.6399
  470SOL    HW2 1879   3.056   2.530   0.080  0.6606 -2.6523  0.1014
  470SOL     MW 1880   3.055   2.509   0.168 -0.1505 -0.6918 -0.0364
  471SOL     OW 1881   1.171   2.706   1.374 -0.2316 -0.0366 -0.4705
  471SOL    HW1 1882   1.097   2.721   1.435  0.6550 -1.0704  1.6172
  471SOL    HW2 1883   1.149   2.738   1.288  0.3171  1.0290 -1.3994
  471SOL     MW 1884   1.158   2.712   1.371 -0.0423 -0.0324 -0.3176
  472SOL     OW 1885   2.927   2.119   0.347  0.0217 -0.0360 -0.7329
  472SOL    HW1 1886   2.935   2.076   0.258 -0.3585  0.9231  0.3360
  472SOL    HW2 1887   2.894   2.053   0.404  0.3553 -0.5563  3.3243
  472SOL     MW 1888   2.924   2.104   0.343  0.0156  0.0219 -0.0566
  473SOL     OW 1889   0.801   2.538   1.298  0.1203  0.3669 -0.5858
  473SOL    HW1 1890   0.808   2.443   1.292 -2.5859  1.4858  0.4437
  473SOL    HW2 1891   0.820   2.552   1.391  0.1160  0.4612 -0.1635
  473SOL     MW 1892   0.805   2.527   1.310 -0.2373  0.5270 -0.3943
  474SOL     OW 1893   0.846   2.207   1.767 -0.0326  0.1882 -0.0057
  474SOL    HW1 1894   0.932   2.235   1.781 -2.0904 -1.6917  0.1754
  474SOL    HW2 1895   0.834   2.196   1.666 -1.2770 -0.2212 -1.7904
  474SOL     MW 1896   0.856   2.209   1.756 -0.4683 -0.1139 -0.2173
  475SOL     OW 1897   1.635   3.085   1.432 -0.4781 -0.0783 -0.4235
  475SOL    HW1 1898   1.556   3.136   1.404 -1.6098 -1.0301  0.7325
  475SOL    HW2 1899   1.610   2.990   1.442 -2.0614 -0.2759 -0.8039
  475SOL     MW 1900   1.621   3.079   1.430 -0.8363 -0.2299 -0.3212
  476SOL     OW 1901   1.437   2.592   0.793 -0.8197 -0.6293 -0.1443
  476SOL    HW1 1902   1.421   2.570   0.885  0.5438  1.3175 -1.1919
  476SOL    HW2 1903   1.496   2.669   0.791  1.0869  1.5842  2.9246
  476SOL     MW 1904   1.443   2.599   0.805 -0.3882 -0.0804  0.1224
  477SOL     OW 1905   0.860   2.517   0.600  0.8192 -0.4651 -0.2151
  477SOL    HW1 1906   0.921   2.550   0.531 -1.2543 -2.2117  1.6893
  477SOL    HW2 1907   0.851   2.419   0.567 -2.1141 -0.7547  0.9765
  477SOL     MW 1908   0.867   2.508   0.586  0.1586 -0.7338  0.1934
  478SOL     OW 1909   0.234   2.587   0.971 -0.1977 -0.1733 -0.3797
  478SOL    HW1 1910   0.291   2.659   1.003  1.1411  0.1198 -4.0116
  478SOL    HW2 1911   0.287   2.523   0.921  1.7450  1.5890 -0.5346
  478SOL     MW 1912   0.249   2.588   0.969  0.2353  0.0979 -0.8794
  479SOL     OW 1913   1.405   1.944   1.317 -0.1405  0.2769 -0.6486
  479SOL    HW1 1914   1.368   1.996   1.391  2.2634  0.1188 -1.5824
  479SOL    HW2 1915   1.484   1.908   1.362  1.6351 -0.8829 -2.8247
  479SOL     MW 1916   1.410   1.946   1.332  0.4109  0.1030 -1.0589
  480SOL     OW 1917   1.790   2.372   1.285  0.1232  0.3332 -0.0428
  480SOL    HW1 1918   1.779   2.283   1.328 -0.1830 -0.2608 -0.5468
  480SOL    HW2 1919   1.848   2.352   1.208  1.8273 -1.3564 -0.3698
  480SOL     MW 1920   1.796   2.358   1.281  0.3076  0.0319 -0.1524
  481SOL     OW 1921   1.184   0.158   1.138  0.4401 -0.2145  0.5708
  481SOL    HW1 1922   1.218   0.142   1.053 -1.5910 -0.9298  1.8423
  481SOL    HW2 1923   1.171   0.256   1.144  2.7068  1.1846  2.5489
  481SOL     MW 1924   1.187   0.169   1.128  0.4712 -0.1243  0.9995
  482SOL     OW 1925   1.013   0.010   0.431 -0.1961  0.5670  0.2286
  482SOL    HW1 1926   0.969  -0.072   0.412  0.9181  1.8679  0.5221
  482SOL    HW2 1927   1.008   0.072   0.358 -1.1098 -1.1215 -0.4807
  482SOL     MW 1928   1.006   0.007   0.419 -0.1696  0.5159  0.1737
  483SOL     OW 1929   0.301   2.849   0.548  0.2422 -0.0351  0.4153
  483SOL    HW1 1930   0.258   2.895   0.467 -2.2790  0.1378 -2.0334
  483SOL    HW2 1931   0.300   2.916   0.619 -1.0918 -0.5507 -1.4303
  483SOL     MW 1932   0.295   2.864   0.547 -0.2665 -0.0803 -0.1513
  484SOL     OW 1933   1.647   1.869   1.425  0.1887  0.2162 -0.6120
  484SOL    HW1 1934   1.723   1.917   1.396 -1.7059 -0.6611  1.0367
  484SOL    HW2 1935   1.650   1.862   1.517 -1.5252 -0.5680 -0.4874
  484SOL     MW 1936   1.658   1.875   1.433 -0.2874 -0.0031 -0.3780
  485SOL     OW 1937   0.544   2.334   0.288 -0.5972  0.0786 -0.0689
  485SOL    HW1 1938   0.569   2.358   0.377 -0.3486  1.1942  0.5217
  485SOL    HW2 1939   0.477   2.407   0.269 -0.8980  2.3669  3.9316
  485SOL     MW 1940   0.538   2.347   0.297 -0.6041  0.5277  0.5369
  486SOL     OW 1941   0.083   2.488   1.474 -0.3549 -0.4891  0.1907
  486SOL    HW1 1942   0.067   2.574   1.439  2.7656  2.4285 -0.0341
  486SOL    HW2 1943   0.112   2.496   1.565 -0.3911 -1.5399 -2.0684
  486SOL     MW 1944   0.085   2.500   1.481  0.0520 -0.2428 -0.1370
  487SOL     OW 1945   1.291   1.615   1.017 -0.0596 -0.1788 -0.1631
  487SOL    HW1 1946   1.252   1.705   1.038 -1.7430 -0.0761 -1.6240
  487SOL    HW2 1947   1.386   1.622   1.021  0.4313  1.4464  0.0649
  487SOL     MW 1948   1.299   1.628   1.020 -0.2170  0.0492 -0.3257
  488SOL     OW 1949   1.483   1.807   0.615  0.4786  0.1392  0.3827
  488SOL    HW1 1950   1.466   1.885   0.565 -1.2590 -0.3889 -0.5798
  488SOL    HW2 1951   1.415   1.749   0.584 -1.0489  1.8346  0.4102
  488SOL     MW 1952   1.471   1.810   0.604  0.0478  0.2932  0.2593
  489SOL     OW 1953   0.692   0.743   0.537  0.0402  0.0560 -0.4803
  489SOL    HW1 1954   0.651   0.667   0.493 -0.7060  0.4274  0.8333
  489SOL    HW2 1955   0.666   0.744   0.631 -2.2133  1.2576 -0.6559
  489SOL     MW 1956   0.683   0.733   0.543 -0.3556  0.2635 -0.3301
  490SOL     OW 1957   1.381   2.067   0.457  0.6786  0.3836 -0.6285
  490SOL    HW1 1958   1.449   2.134   0.434  0.4476  0.7202 -0.2563
  490SOL    HW2 1959   1.299   2.117   0.436 -0.7955 -0.5516  0.0726
  490SOL     MW 1960   1.379   2.083   0.451  0.4536  0.3046 -0.4869
  491SOL     OW 1961   1.284   2.990   0.372 -0.4290 -0.4451 -0.4361
  491SOL    HW1 1962   1.308   3.033   0.454 -0.3750 -2.2924 -1.1814
  491SOL    HW2 1963   1.193   3.026   0.370 -2.3159  0.8451  0.5204
  491SOL     MW 1964   1.275   3.000   0.382 -0.6708 -0.5186 -0.4082
  492SOL     OW 1965   1.453   2.151   0.710 -0.2693 -0.3483  0.0841
  492SOL    HW1 1966   1.425   2.105   0.633 -0.2541 -2.5185  0.0611
  492SOL    HW2 1967   1.397   2.115   0.776  0.6892  1.8800 -0.4988
  492SOL     MW 1968   1.442   2.140   0.708 -0.1408 -0.3406  0.0042
  493SOL     OW 1969   0.240   3.011   0.348 -0.1589 -0.5485  0.4059
  493SOL    HW1 1970   0.175   3.052   0.410 -0.8855  0.7919 -1.1712
  493SOL    HW2 1971   0.188   2.962   0.285  0.5480 -1.9676  0.0011
  493SOL     MW 1972   0.225   3.010   0.348 -0.1615 -0.5589  0.1444
  494SOL     OW 1973   0.390   2.375   1.798 -0.5336  0.2350 -0.0435
  494SOL    HW1 1974   0.398   2.287   1.830  0.0481  2.8460  0.4023
  494SOL    HW2 1975   0.420   2.379   1.703  0.1449 -0.9772 -2.2133
  494SOL     MW 1976   0.395   2.364   1.789 -0.3673  0.4195 -0.2710
  495SOL     OW 1977   2.896   1.636   2.692  0.5412  0.1936  0.3008
  495SOL    HW1 1978   2.885   1.720   2.733 -1.5913  1.1766  0.2710
  495SOL    HW2 1979   2.855   1.573   2.755  2.9687 -3.7044  1.1401
  495SOL     MW 1980   2.889   1.639   2.706  0.5801 -0.1910  0.4076
  496SOL     OW 1981   2.777   2.268   2.716 -0.6279 -0.1196 -0.1704
  496SOL    HW1 1982   2.804   2.180   2.742  0.8646  2.0086  0.4258
  496SOL    HW2 1983   2.861   2.319   2.743  0.4149 -1.7277 -0.5493
  496SOL     MW 1984   2.792   2.263   2.723 -0.2934 -0.0510 -0.1417
  497SOL     OW 1985   1.498   2.336   2.561 -0.3362 -0.5915 -0.4148
  497SOL    HW1 1986   1.528   2.270   2.491  0.0310  0.5571 -0.5173
  497SOL    HW2 1987   1.451   2.280   2.628 -1.4119  0.9482  0.8943
  497SOL     MW 1988   1.496   2.320   2.561 -0.4297 -0.2368 -0.2556
  498SOL     OW 1989   1.440   2.766   2.309 -0.0791  0.2998 -0.6721
  498SOL    HW1 1990   1.445   2.671   2.291  0.5559  0.8926  0.1690
  498SOL    HW2 1991   1.505   2.777   2.382  1.1498 -1.0922  2.2503
  498SOL     MW 1992   1.449   2.755   2.316  0.1668  0.1943 -0.1756
  499SOL     OW 1993   0.955   0.075   0.079 -0.3777  0.8153 -0.0319
  499SOL    HW1 1994   0.865   0.127   0.095 -1.2936  0.7142 -2.1879
  499SOL    HW2 1995   0.923  -0.010   0.037 -1.0395  0.3588  1.5650
  499SOL     MW 1996   0.939   0.071   0.075 -0.5859  0.7418 -0.1057
  500SOL     OW 1997   1.034   2.520   2.720 -0.1705  0.2462 -0.1865
  500SOL    HW1 1998   1.100   2.512   2.792 -0.0737  0.7031  2.0551
  500SOL    HW2 1999   0.989   2.605   2.738 -3.4288  0.4246  1.3750
  500SOL     MW 2000   1.037   2.530   2.732 -0.5876  0.3300  0.3153
  501SOL     OW 2001   1.775   2.266   3.043 -1.0751  0.1661  0.3527
  501SOL    HW1 2002   1.778   2.363   3.038 -2.2142  1.0497  2.3569
  501SOL    HW2 2003   1.866   2.241   3.073 -1.0889  0.0762  2.0298
  501SOL     MW 2004   1.787   2.276   3.046 -1.2272  0.2708  0.8384
  502SOL     OW 2005   0.264   2.728   2.947 -0.2046 -0.6578  0.8864
  502SOL    HW1 2006   0.229   2.685   2.868 -0.7191 -0.2423  0.4273
  502SOL    HW2 2007   0.279   2.818   2.921  0.9110  0.6929  0.8564
  502SOL     MW 2008   0.261   2.734   2.933 -0.1253 -0.4247  0.8218
  503SOL     OW 2009   1.128   2.562   2.083  0.6587  0.1064  0.2340
  503SOL    HW1 2010   1.200   2.611   2.044  1.5554  1.0846  2.2046
  503SOL    HW2 2011   1.055   2.542   2.021 -2.9566  1.0932  0.8030
  503SOL     MW 2012   1.128   2.566   2.070  0.3000  0.3656  0.5691
  504SOL     OW 2013   0.088   2.643   2.158 -0.7617  0.4628  0.3907
  504SOL    HW1 2014   0.151   2.610   2.088  0.4062 -0.6935 -0.4708
  504SOL    HW2 2015   0.059   2.564   2.195  2.1292  0.0315 -1.1015
  504SOL     MW 2016   0.093   2.628   2.154 -0.2262  0.2534  0.0802
  505SOL     OW 2017   1.602   2.789   2.750  0.2391  0.0929  0.2395
  505SOL    HW1 2018   1.617   2.811   2.660  0.8481 -4.1599  0.7584
  505SOL    HW2 2019   1.545   2.863   2.788 -0.6387  2.1999  0.6946
  505SOL     MW 2020   1.596   2.802   2.743  0.2036 -0.1902  0.3680
  506SOL     OW 2021   1.604   0.087   2.751 -0.1219 -0.6303 -0.0038
  506SOL    HW1 2022   1.608   0.028   2.818 -0.1009 -0.5715 -2.1835
  506SOL    HW2 2023   1.656   0.047   2.682  0.8653  1.4654  1.2931
  506SOL     MW 2024   1.612   0.074   2.751  0.0111 -0.3461 -0.1203
  507SOL     OW 2025   0.870   2.715   2.810  0.4389  0.3439 -0.2309
  507SOL    HW1 2026   0.863   2.792   2.754 -1.5761  0.5644 -1.2570
  507SOL    HW2 2027   0.786   2.666   2.791 -0.0344 -1.2226 -0.3791
  507SOL     MW 2028   0.858   2.719   2.800  0.1106  0.1663 -0.3859
  508SOL     OW 2029   1.156   2.116   2.560 -0.1640 -0.1612  0.9921
  508SOL    HW1 2030   1.231   2.117   2.620 -1.8838 -0.0323 -0.2436
  508SOL    HW2 2031   1.082   2.107   2.617  0.7898  0.2637 -0.2896
  508SOL     MW 2032   1.156   2.115   2.576 -0.2651 -0.0882  0.6600
  509SOL     OW 2033   0.642   2.579   2.797 -0.2837 -0.3534 -0.5789
  509SOL    HW1 2034   0.639   2.505   2.737  2.3232  0.5459 -0.1884
  509SOL    HW2 2035   0.586   2.650   2.768  0.8595  4.0569  0.8170
  509SOL     MW 2036   0.634   2.579   2.785  0.2111  0.3472 -0.3432
  510SOL     OW 2037   1.497   2.568   1.617  0.1966 -0.1961 -0.0112
  510SOL    HW1 2038   1.544   2.642   1.572  0.4615  0.4913  0.5580
  510SOL    HW2 2039   1.449   2.616   1.687 -0.6451 -2.6059 -0.4588
  510SOL     MW 2040   1.497   2.584   1.621  0.1205 -0.4233  0.0048
  511SOL     OW 2041   0.349   2.515   2.526  0.0956 -0.0051  0.7174
  511SOL    HW1 2042   0.427   2.468   2.563  0.0430  2.5309  2.1433
  511SOL    HW2 2043   0.362   2.526   2.435  1.5853 -0.9348  1.8022
  511SOL     MW 2044   0.361   2.510   2.519  0.2852  0.2068  1.0486
  512SOL     OW 2045   1.030   1.962   2.825 -0.1827  0.1046  0.3047
  512SOL    HW1 2046   0.942   1.998   2.845 -1.4308 -0.8933 -0.2134
  512SOL    HW2 2047   1.048   1.879   2.886 -1.2255 -0.6189  1.1084
  512SOL     MW 2048   1.021   1.956   2.836 -0.4850 -0.1225  0.3424
  513SOL     OW 2049   1.504   2.494   2.235  0.6615  0.2372 -1.1707
  513SOL    HW1 2050   1.596   2.519   2.223  0.1451  2.5508  0.9453
  513SOL    HW2 2051   1.513   2.404   2.253 -3.1635  0.3851 -2.4233
  513SOL     MW 2052   1.517   2.485   2.236  0.0887  0.5619 -1.0568
  514SOL     OW 2053   0.198   2.336   2.681  0.1233  0.1453  0.2179
  514SOL    HW1 2054   0.245   2.398   2.623 -1.8641  0.6702 -1.5588
  514SOL    HW2 2055   0.255   2.286   2.745  0.4098 -0.6738 -0.7297
  514SOL     MW 2056   0.212   2.338   2.682 -0.1011  0.1065 -0.1415
  515SOL     OW 2057   1.076   1.975   1.834  0.0427  0.1343 -0.2199
  515SOL    HW1 2058   1.077   2.062   1.805  2.1244 -3.5800 -0.8538
  515SOL    HW2 2059   1.146   1.973   1.908  0.3861 -1.2588 -1.0902
  515SOL     MW 2060   1.085   1.986   1.840  0.3627 -0.5396 -0.4184
  516SOL     OW 2061   1.299   2.590   2.939  0.1242  0.5048  0.4354
  516SOL    HW1 2062   1.335   2.579   2.849 -0.3173 -1.2743 -0.9163
  516SOL    HW2 2063   1.241   2.509   2.953 -2.4356 -0.9148  1.7140
  516SOL     MW 2064   1.296   2.578   2.929 -0.2718  0.0828  0.4257
  517SOL     OW 2065   0.524   2.335   2.253  0.5490  0.1117  0.7370
  517SOL    HW1 2066   0.509   2.429   2.256  0.6316  1.2409  0.8591
  517SOL    HW2 2067   0.468   2.297   2.185 -0.7419  2.0230 -2.2788
  517SOL     MW 2068   0.515   2.342   2.245  0.3896  0.5128  0.3552
  518SOL     OW 2069   1.801   0.131   3.053  0.6747 -0.6314  0.3987
  518SOL    HW1 2070   1.824   0.123   3.148 -2.0390  0.1179 -0.7789
  518SOL    HW2 2071   1.747   0.054   3.037  1.0609  0.4028 -0.4451
  518SOL     MW 2072   1.797   0.120   3.063  0.3676 -0.3961  0.1320
  519SOL     OW 2073   0.637   2.406   1.920  0.5084  0.4710 -0.8486
  519SOL    HW1 2074   0.677   2.321   1.919  2.2126  0.2410  0.5648
  519SOL    HW2 2075   0.554   2.396   1.866  1.3587 -1.0504 -1.7454
  519SOL     MW 2076   0.631   2.394   1.913  0.8454  0.2399 -0.7805
  520SOL     OW 2077   1.223   2.128   2.934  0.3319  0.4972  0.3050
  520SOL    HW1 2078   1.156   2.071   2.897 -1.4493 -1.2783  0.8459
  520SOL    HW2 2079   1.250   2.079   3.017 -0.2247 -0.4899 -0.3603
  520SOL     MW 2080   1.218   2.114   2.940  0.0235  0.1327  0.2886
  521SOL     OW 2081   1.771   2.033   2.244 -0.3613  0.0901  0.0640
  521SOL    HW1 2082   1.808   2.060   2.153  0.2024 -0.1993 -0.7742
  521SOL    HW2 2083   1.764   1.938   2.233  0.0238 -2.8137  1.7188
  521SOL     MW 2084   1.775   2.024   2.230 -0.2361 -0.3312  0.1718
  522SOL     OW 2085   2.846   2.556   2.235  0.6657 -0.5117 -0.3350
  522SOL    HW1 2086   2.892   2.504   2.294 -2.5630  1.3567  1.3120
  522SOL    HW2 2087   2.878   2.641   2.256  4.8408  0.0103 -0.1306
  522SOL     MW 2088   2.857   2.560   2.245  0.7906 -0.1963 -0.0907
  523SOL     OW 2089   0.824   1.489   2.147  0.2840  0.2828 -0.1717
  523SOL    HW1 2090   0.786   1.504   2.057 -3.4393 -2.5639  1.9599
  523SOL    HW2 2091   0.897   1.432   2.124  0.0778  1.1260  0.6087
  523SOL     MW 2092   0.828   1.484   2.132 -0.2345  0.0185  0.2125
  524SOL     OW 2093   0.615   2.393   3.014  0.9436 -0.0107 -0.2250
  524SOL    HW1 2094   0.635   2.454   2.940 -1.2174  3.2476 -3.7210
  524SOL    HW2 2095   0.671   2.320   3.014 -1.2625  2.6131 -0.7947
  524SOL     MW 2096   0.625   2.392   3.004  0.3674  0.7654 -0.7614
  525SOL     OW 2097   0.367   2.174   2.107  0.8232  0.3277  0.3499
  525SOL    HW1 2098   0.335   2.113   2.167  0.7970  3.5956 -0.0356
  525SOL    HW2 2099   0.396   2.130   2.026 -0.5545 -1.0423  3.4464
  525SOL     MW 2100   0.366   2.160   2.104  0.6380  0.5781  0.7076
  526SOL     OW 2101   0.722   2.109   1.996 -0.3286  0.5068 -0.1326
  526SOL    HW1 2102   0.783   2.129   1.917 -3.4568  0.0448  4.5376
  526SOL    HW2 2103   0.777   2.129   2.074  2.1213  0.7730 -1.6741
  526SOL     MW 2104   0.738   2.114   1.996 -0.4181  0.4809  0.2802
  527SOL     OW 2105   1.302   1.907   2.004 -0.4162 -0.3602 -0.1000
  527SOL    HW1 2106   1.253   1.899   2.083  1.9272  2.3577  0.5133
  527SOL    HW2 2107   1.317   1.822   1.963 -0.7979 -1.0997  1.7370
  527SOL     MW 2108   1.298   1.894   2.009 -0.1573 -0.0991  0.2233
  528SOL     OW 2109   0.611   2.890   3.026  0.3544 -0.0573 -0.2816
  528SOL    HW1 2110   0.628   2.985   3.000 -2.2024 -1.0122  1.5006
  528SOL    HW2 2111   0.639   2.837   2.951 -0.1422 -0.3326 -1.8608
  528SOL     MW 2112   0.617   2.896   3.013 -0.0485 -0.2196 -0.2548
  529SOL     OW 2113   1.123   2.267   1.779  0.2674 -0.4582 -0.6087
  529SOL    HW1 2114   1.163   2.264   1.868  0.4275  1.0911 -0.2674
  529SOL    HW2 2115   1.179   2.301   1.711 -0.7595  0.6045  0.3474
  529SOL     MW 2116   1.136   2.271   1.782  0.1530 -0.1135 -0.4376
  530SOL     OW 2117   1.134   2.379   2.988  0.2560 -0.1077 -0.1634
  530SOL    HW1 2118   1.047   2.379   3.030  1.8046 -2.8474 -1.2369
  530SOL    HW2 2119   1.159   2.287   2.978  1.4382 -1.9679 -1.9767
  530SOL     MW 2120   1.126   2.367   2.992  0.6163 -0.7146 -0.5443
  531SOL     OW 2121   0.899   1.811   2.630 -0.0058  0.1794  0.3580
  531SOL    HW1 2122   0.902   1.887   2.685  0.0824 -0.6244  1.5063
  531SOL    HW2 2123   0.830   1.758   2.670  0.9827  1.4482  1.2803
  531SOL     MW 2124   0.890   1.814   2.642  0.1363  0.2408  0.6312
  532SOL     OW 2125   1.691   0.315   2.868 -0.2005  0.1807 -0.0304
  532SOL    HW1 2126   1.661   0.243   2.817  0.2050  2.3777  3.4143
  532SOL    HW2 2127   1.697   0.279   2.956 -2.3571 -0.8745 -0.2970
  532SOL     MW 2128   1.688   0.301   2.873 -0.4316  0.3314  0.3889
  533SOL     OW 2129   1.770   2.757   2.952  0.0188 -0.4941  0.2357
  533SOL    HW1 2130   1.757   2.692   3.019 -3.1538 -2.4913 -2.4743
  533SOL    HW2 2131   1.692   2.755   2.892 -0.4268 -0.2180 -1.7944
  533SOL     MW 2132   1.758   2.748   2.953 -0.4586 -0.7212 -0.3897
  534SOL     OW 2133   1.748   2.486   2.509 -0.0191 -0.0292  0.1875
  534SOL    HW1 2134   1.673   2.429   2.539  1.2687  1.1884 -0.1945
  534SOL    HW2 2135   1.813   2.486   2.587  1.3177  0.1210  1.3694
  534SOL     MW 2136   1.747   2.478   2.523  0.3272  0.1512  0.2931
  535SOL     OW 2137   1.789   2.355   1.915  0.2071 -0.3748  0.0263
  535SOL    HW1 2138   1.742   2.344   1.827  0.9675 -3.0023 -1.9643
  535SOL    HW2 2139   1.868   2.396   1.879  0.0436 -0.5354 -1.2242
  535SOL     MW 2140   1.793   2.359   1.899  0.2859 -0.7426 -0.4013
  536SOL     OW 2141   0.435   1.849   2.028  0.0884 -0.4523  0.0772
  536SOL    HW1 2142   0.455   1.930   1.976 -2.1811  1.8882  0.0039
  536SOL    HW2 2143   0.525   1.836   2.066 -0.6991 -1.4906  1.2860
  536SOL     MW 2144   0.450   1.858   2.026 -0.3150 -0.2805  0.2270
  537SOL     OW 2145   0.968   0.193   2.937 -0.1125 -0.0115  0.1398
  537SOL    HW1 2146   0.946   0.144   3.020  1.7554 -1.5484  0.8270
  537SOL    HW2 2147   0.897   0.248   2.915  2.1983 -0.6521 -0.2968
  537SOL     MW 2148   0.956   0.194   2.945  0.4388 -0.2988  0.1729
  538SOL     OW 2149   1.311   0.067   3.054  0.1110 -0.3491  0.0566
  538SOL    HW1 2150   1.267   0.124   2.987 -2.6662 -0.3455 -1.3244
  538SOL    HW2 2151   1.320   0.127   3.134  1.8425 -1.3518 -0.7566
  538SOL     MW 2152   1.306   0.083   3.056 -0.0270 -0.4809 -0.2329
  539SOL     OW 2153   0.733   2.693   2.515 -0.1735 -0.1281  0.7926
  539SOL    HW1 2154   0.813   2.745   2.511 -0.2934  0.1880 -3.0441
  539SOL    HW2 2155   0.771   2.610   2.532 -1.3898 -0.5566  0.7734
  539SOL     MW 2156   0.749   2.689   2.517 -0.3498 -0.1429  0.2838
  540SOL     OW 2157   0.376   2.221   2.861 -0.7171  0.1156 -0.4770
  540SOL    HW1 2158   0.433   2.286   2.912  0.4771  1.2747 -1.2385
  540SOL    HW2 2159   0.347   2.159   2.929  0.6178 -0.1239 -0.0306
  540SOL     MW 2160   0.379   2.221   2.877 -0.3834  0.2369 -0.5186
  541SOL     OW 2161   0.189   2.881   2.259 -0.1194 -0.0923  0.3853
  541SOL    HW1 2162   0.167   2.794   2.222 -0.1115  1.0423 -0.9858
  541SOL    HW2 2163   0.223   2.869   2.344 -0.6373 -0.3275 -0.0784
  541SOL     MW 2164   0.190   2.868   2.265 -0.1867  0.0264  0.1432
  542SOL     OW 2165   0.886   2.291   2.773 -0.1017 -0.7064 -0.1638
  542SOL    HW1 2166   0.871   2.257   2.861 -1.4544  3.2599 -2.3183
  542SOL    HW2 2167   0.948   2.368   2.773  1.2538  0.9136 -1.7282
  542SOL     MW 2168   0.892   2.296   2.785 -0.1013  0.0306 -0.6545
  543SOL     OW 2169   1.383   2.644   2.669  0.4182 -0.6102 -0.1218
  543SOL    HW1 2170   1.386   2.560   2.618  0.0269 -0.7256 -0.2261
  543SOL    HW2 2171   1.474   2.672   2.697  1.2165  0.0326  1.9859
  543SOL     MW 2172   1.395   2.637   2.666  0.4719 -0.5406  0.1425
  544SOL     OW 2173   0.699   0.084   2.581  0.2048  0.2468  0.0252
  544SOL    HW1 2174   0.620   0.041   2.572  2.1416  2.9718  0.3413
  544SOL    HW2 2175   0.751   0.066   2.505 -0.8486 -1.5983 -1.8419
  544SOL     MW 2176   0.696   0.076   2.570  0.3213  0.3629 -0.1794
  545SOL     OW 2177   1.564   2.198   2.334 -0.5096 -1.0200  0.3294
  545SOL    HW1 2178   1.502   2.132   2.359  1.5091  0.6133 -3.9376
  545SOL    HW2 2179   1.631   2.142   2.298  1.4997 -2.7197  1.1521
  545SOL     MW 2180   1.565   2.182   2.333  0.0219 -1.0287 -0.1250
  546SOL     OW 2181   2.973   2.017   0.105 -0.0718  0.1095 -0.2545
  546SOL    HW1 2182   2.961   2.095   0.046  1.2450 -1.2170 -1.9430
  546SOL    HW2 2183   3.061   1.971   0.080  2.1921 -2.5890  1.6218
  546SOL     MW 2184   2.983   2.021   0.094  0.4007 -0.4216 -0.2297
  547SOL     OW 2185   0.116   2.928   0.056  0.2756 -0.2870  0.1653
  547SOL    HW1 2186   0.165   2.966  -0.019  1.2965  1.0170 -0.0877
  547SOL    HW2 2187   0.167   2.847   0.075  2.6472 -1.3300 -3.6675
  547SOL     MW 2188   0.129   2.922   0.049  0.7232 -0.2526 -0.3738
  548SOL     OW 2189   0.309   2.485   0.278  0.9950 -0.3634  0.0128
  548SOL    HW1 2190   0.309   2.568   0.227  4.4901  0.5753  0.8220
  548SOL    HW2 2191   0.254   2.432   0.227  0.5504  1.5070 -3.1729
  548SOL     MW 2192   0.302   2.489   0.265  1.3975  0.0072 -0.3007
  549SOL     OW 2193   0.696   1.840   2.098 -0.2605  0.2134  1.0598
  549SOL    HW1 2194   0.718   1.933   2.085  2.3572  3.7547 -0.8219
  549SOL    HW2 2195   0.708   1.811   2.192  0.6819 -0.0877  1.5749
  549SOL     MW 2196   0.701   1.848   2.109  0.2092  0.6409  0.8795
  550SOL     OW 2197   1.848   1.752   2.532 -0.5907 -0.1097  0.5912
  550SOL    HW1 2198   1.827   1.760   2.442  0.5067  1.4823 -1.2949
  550SOL    HW2 2199   1.827   1.829   2.586  1.1652 -0.1853 -0.6245
  550SOL     MW 2200   1.842   1.763   2.527 -0.2142  0.0904  0.1820
  551SOL     OW 2201   0.852   2.305   0.250  0.1154  0.4904  0.0860
  551SOL    HW1 2202   0.930   2.357   0.228  0.0026  0.2071  1.2190
  551SOL    HW2 2203   0.855   2.237   0.183  2.5175 -2.1683  2.4507
  551SOL     MW 2204   0.863   2.303   0.238  0.4174  0.1022  0.5475
  552SOL     OW 2205   1.745   1.755   2.281  0.3055  0.1079 -0.0286
  552SOL    HW1 2206   1.652   1.740   2.298 -2.2999  3.0019  0.2667
  552SOL    HW2 2207   1.785   1.702   2.208 -0.5244  0.5432 -0.3698
  552SOL     MW 2208   1.738   1.746   2.274 -0.1477  0.5472 -0.0346
  553SOL     OW 2209   1.212   2.323   1.521  0.3968  0.3672  0.1204
  553SOL    HW1 2210   1.261   2.242   1.544  0.7286 -0.4632  0.1043
  553SOL    HW2 2211   1.273   2.383   1.472 -1.1458  2.2671 -0.6326
  553SOL     MW 2212   1.227   2.320   1.517  0.2371  0.5083  0.0189
  554SOL     OW 2213   0.537   2.811   2.720  0.2770  0.1707 -0.3712
  554SOL    HW1 2214   0.517   2.905   2.695 -0.8408  2.1730  1.4125
  554SOL    HW2 2215   0.597   2.793   2.653  0.3967 -0.7284  3.0268
  554SOL     MW 2216   0.542   2.821   2.708  0.1453  0.3162  0.3125
  555SOL     OW 2217   0.565   2.373   2.612  0.3393  0.2491 -0.1805
  555SOL    HW1 2218   0.580   2.298   2.664  1.8053  1.6277  3.1967
  555SOL    HW2 2219   0.646   2.395   2.561 -0.6881 -0.5268  0.4398
  555SOL     MW 2220   0.578   2.366   2.612  0.3972  0.3286  0.3469
  556SOL     OW 2221   1.048   1.806   0.132 -0.1037  0.3872 -0.2640
  556SOL    HW1 2222   1.089   1.770   0.050  2.3100 -1.7066  1.6448
  556SOL    HW2 2223   1.117   1.849   0.178 -1.1159 -1.8516 -1.8191
  556SOL     MW 2224   1.063   1.807   0.127  0.0812 -0.1845 -0.2173
  557SOL     OW 2225   1.033   2.694   0.458 -0.6698 -0.3304  0.2788
  557SOL    HW1 2226   1.071   2.690   0.370 -0.2918  1.0153  1.9942
  557SOL    HW2 2227   0.975   2.777   0.463  0.2650  2.5703  3.3571
  557SOL     MW 2228   1.030   2.705   0.447 -0.4966  0.2298  0.9113
  558SOL     OW 2229   0.279   2.098   3.088  0.5821  0.3100  0.2487
  558SOL    HW1 2230   0.237   2.015   3.110  0.5802  2.3245 -3.2903
  558SOL    HW2 2231   0.228   2.173   3.110  2.3487  1.3223 -0.8887
  558SOL     MW 2232   0.266   2.097   3.094  0.8149  0.7094 -0.3683
  559SOL     OW 2233   1.192   2.285   2.048 -0.1504  0.4796  0.4271
  559SOL    HW1 2234   1.186   2.374   2.082  0.8411  0.8593  2.4285
  559SOL    HW2 2235   1.158   2.232   2.127  0.2576 -0.1993  1.4411
  559SOL     MW 2236   1.186   2.290   2.063  0.0342  0.4401  0.8249
  560SOL     OW 2237   1.941   2.925   0.035  0.7606 -0.9721 -0.0699
  560SOL    HW1 2238   1.996   2.964  -0.034 -1.9765  0.2963 -0.7329
  560SOL    HW2 2239   1.872   2.886  -0.018 -1.2081 -1.8712 -0.8877
  560SOL     MW 2240   1.939   2.925   0.019  0.1397 -0.9234 -0.2653
  561SOL     OW 2241   0.470   2.086   0.170 -0.1393  0.3477  0.4994
  561SOL    HW1 2242   0.400   2.085   0.086 -1.9661 -0.3953 -2.0086
  561SOL    HW2 2243   0.491   2.182   0.181 -0.7416 -1.6374  0.5233
  561SOL     MW 2244   0.464   2.099   0.161 -0.4598 -0.0122  0.1716
  562SOL     OW 2245   0.878   2.150   2.223  0.1968  0.3930 -0.3894
  562SOL    HW1 2246   0.848   2.242   2.229  0.8099  0.1944 -0.4223
  562SOL    HW2 2247   0.973   2.144   2.234  0.9974  1.4617 -0.7282
  562SOL     MW 2248   0.886   2.161   2.225  0.3833  0.5078 -0.4384
  563SOL     OW 2249   1.219   0.291   0.560 -0.1694 -0.2976  0.6100
  563SOL    HW1 2250   1.162   0.270   0.480 -0.5858  0.5585 -0.1212
  563SOL    HW2 2251   1.260   0.200   0.574  1.0585  0.3070 -0.0733
  563SOL     MW 2252   1.217   0.276   0.551 -0.0623 -0.1049  0.4234
  564SOL     OW 2253   1.020   2.612   2.348  0.1257 -0.1297  0.6516
  564SOL    HW1 2254   1.047   2.597   2.255 -0.8914 -0.3686  0.0425
  564SOL    HW2 2255   1.078   2.675   2.396 -1.0176 -0.4866 -1.5090
  564SOL     MW 2256   1.032   2.618   2.342 -0.1593 -0.2083  0.2862
  565SOL     OW 2257   2.915   2.649   2.635 -0.1051 -0.6310 -1.3106
  565SOL    HW1 2258   2.984   2.715   2.617  1.5988  4.5931  1.2068
  565SOL    HW2 2259   2.842   2.652   2.562 -0.5571  0.7426 -0.5069
  565SOL     MW 2260   2.914   2.658   2.623  0.0601  0.2395 -0.8724
  566SOL     OW 2261   2.246   1.946   2.354  0.4874 -0.3410  0.6930
  566SOL    HW1 2262   2.278   1.949   2.264 -0.5916 -2.8543  0.0448
  566SOL    HW2 2263   2.297   2.016   2.402  0.5228  1.2914  0.6426
  566SOL     MW 2264   2.257   1.955   2.349  0.3497 -0.4572  0.6009
  567SOL     OW 2265   1.185   2.927   0.076 -0.2796 -0.0712 -0.9381
  567SOL    HW1 2266   1.224   3.013   0.048  0.4724  1.7494 -0.9239
  567SOL    HW2 2267   1.204   2.863   0.004  1.0223 -1.2759  0.2001
  567SOL     MW 2268   1.192   2.930   0.063 -0.0086  0.0101 -0.7860
  568SOL     OW 2269   1.659   2.135   2.838  0.1115 -0.2482 -0.0530
  568SOL    HW1 2270   1.720   2.191   2.898  1.2533 -0.6621  1.2761
  568SOL    HW2 2271   1.715   2.067   2.806 -2.4792  1.3529 -1.2879
  568SOL     MW 2272   1.674   2.134   2.842 -0.0797 -0.0916 -0.0405
  569SOL     OW 2273   0.093   2.192   2.431 -0.2503 -0.5524 -0.3982
  569SOL    HW1 2274   0.051   2.245   2.364  1.3080 -0.7708  2.5736
  569SOL    HW2 2275   0.139   2.253   2.489 -2.1319 -1.7429  2.7026
  569SOL     MW 2276   0.093   2.207   2.430 -0.2930 -0.7383  0.4030
  570SOL     OW 2277   1.459   0.418   0.491 -0.6181  0.2850  0.0762
  570SOL    HW1 2278   1.373   0.399   0.524  0.1577 -2.0003  0.8279
  570SOL    HW2 2279   1.516   0.437   0.570 -4.1571  1.2861 -2.4452
  570SOL     MW 2280   1.455   0.418   0.506 -0.9827  0.1156 -0.1573
  571SOL     OW 2281   1.475   2.396   1.984 -0.0707 -0.0627 -0.3261
  571SOL    HW1 2282   1.502   2.442   2.066 -2.7854  1.0323  0.2168
  571SOL    HW2 2283   1.460   2.305   2.009  3.1516 -0.8970 -0.0187
  571SOL     MW 2284   1.477   2.390   1.998 -0.0037 -0.0283 -0.2139
  572SOL     OW 2285   0.911   2.579   3.076  0.3403  0.2883  0.0976
  572SOL    HW1 2286   0.882   2.624   2.997 -0.4181 -0.5208  0.0772
  572SOL    HW2 2287   0.842   2.601   3.142  0.4797  1.1866  1.9568
  572SOL     MW 2288   0.898   2.588   3.074  0.2586  0.3001  0.3402
  573SOL     OW 2289   1.113   2.414   0.189 -0.2722 -0.1681  0.2579
  573SOL    HW1 2290   1.187   2.383   0.128  1.9088  0.3683  0.7136
  573SOL    HW2 2291   1.110   2.510   0.180 -0.5786  4.1604  0.9473
  573SOL     MW 2292   1.122   2.423   0.180 -0.0248  0.4738  0.4090
  574SOL     OW 2293   1.158   2.690   0.226 -0.1107 -0.0246  0.5767
  574SOL    HW1 2294   1.241   2.704   0.274 -1.3769 -0.3078 -0.6959
  574SOL    HW2 2295   1.149   2.764   0.174 -0.3895 -3.5947 -1.0664
  574SOL     MW 2296   1.168   2.701   0.225 -0.3146 -0.5330  0.1920
  575SOL     OW 2297   3.048   2.318   1.867  0.0385  0.2517  0.7356
  575SOL    HW1 2298   3.086   2.236   1.845  0.3716 -0.0387  3.9148
  575SOL    HW2 2299   3.100   2.379   1.810 -1.6777  0.3626 -2.7904
  575SOL     MW 2300   3.060   2.315   1.857 -0.1440  0.2280  0.6898
  576SOL     OW 2301   2.827   1.813   2.039  0.1268  0.2063 -0.1439
  576SOL    HW1 2302   2.837   1.898   1.996  0.9895  0.1121  1.9095
  576SOL    HW2 2303   2.733   1.799   2.031  0.2966 -1.5720  0.8999
  576SOL     MW 2304   2.816   1.823   2.033  0.2630 -0.0407  0.2647
  577SOL     OW 2305   2.071   0.223   0.070  0.4258  0.0527  0.0225
  577SOL    HW1 2306   2.015   0.283   0.026 -0.7243  1.7126  3.0704
  577SOL    HW2 2307   2.025   0.188   0.146 -1.8443 -1.3042  3.3947
  577SOL     MW 2308   2.057   0.226   0.074 -0.0254  0.0927  0.8696
  578SOL     OW 2309   2.014   2.114   2.345  0.8011 -0.4071  0.9855
  578SOL    HW1 2310   1.922   2.078   2.319  1.2069 -2.6196 -0.7067
  578SOL    HW2 2311   2.083   2.045   2.321  0.2470 -0.8876 -0.0442
  578SOL     MW 2312   2.011   2.100   2.338  0.7815 -0.7624  0.6263
  579SOL     OW 2313   0.845   2.436   2.519  0.3558 -0.3833  0.2838
  579SOL    HW1 2314   0.849   2.383   2.599 -0.9291 -0.0958 -1.1187
  579SOL    HW2 2315   0.936   2.477   2.524  0.2725  2.3354 -0.9741
  579SOL     MW 2316   0.858   2.435   2.530  0.1753  0.0134 -0.0672
  580SOL     OW 2317   0.924   2.922   0.026  0.2374  0.2467 -0.0513
  580SOL    HW1 2318   1.020   2.925   0.055 -0.2983 -1.9336  0.4340
  580SOL    HW2 2319   0.922   2.840  -0.030  1.4646 -2.2508 -1.6428
  580SOL     MW 2320   0.937   2.912   0.022  0.3286 -0.3705 -0.1972
  581SOL     OW 2321   1.096   2.541   1.750  0.2616 -0.6400 -0.6804
  581SOL    HW1 2322   1.158   2.587   1.809  0.7905  2.0294 -1.6946
  581SOL    HW2 2323   1.061   2.465   1.798  1.3945 -0.6197  4.2940
  581SOL     MW 2324   1.100   2.537   1.764  0.4808 -0.2852 -0.1579
  582SOL     OW 2325   0.005   2.848   2.589  0.0830 -0.2909 -0.7963
  582SOL    HW1 2326  -0.011   2.935   2.636 -0.7660 -0.7937 -1.8445
  582SOL    HW2 2327   0.101   2.854   2.574  2.9101  0.6388  2.5605
  582SOL     MW 2328   0.016   2.861   2.593  0.3440 -0.2346 -0.4917
  583SOL     OW 2329   1.982   2.467   2.663  0.2248 -0.2283 -0.7129
  583SOL    HW1 2330   2.027   2.493   2.586  0.8945  0.0393  0.5370
  583SOL    HW2 2331   1.972   2.369   2.652 -1.6618 -2.6858  0.2597
  583SOL     MW 2332   1.987   2.458   2.651  0.0643 -0.5172 -0.4197
  584SOL     OW 2333   0.162   1.843   2.112  0.7719  0.1902 -0.6384
  584SOL    HW1 2334   0.258   1.848   2.089  1.6376 -0.1333  0.2529
  584SOL    HW2 2335   0.155   1.907   2.184  0.4024  0.5130  2.5651
  584SOL     MW 2336   0.173   1.852   2.118  0.8374  0.1901 -0.0981
  585SOL     OW 2337   1.492   2.563   0.019  0.6583 -0.0752 -0.0873
  585SOL    HW1 2338   1.412   2.572  -0.042 -0.1826 -0.3234 -2.9609
  585SOL    HW2 2339   1.465   2.583   0.105  0.6918 -1.1419  2.1000
  585SOL     MW 2340   1.478   2.567   0.022  0.5518 -0.2487 -0.1779
  586SOL     OW 2341   1.257   3.004   2.375 -0.7952  0.5727  0.2954
  586SOL    HW1 2342   1.351   2.982   2.356  0.4916 -0.0686 -2.7430
  586SOL    HW2 2343   1.247   3.033   2.472  1.5166  1.0799  1.5705
  586SOL     MW 2344   1.268   3.005   2.385 -0.3204  0.5550  0.0627
  587SOL     OW 2345   1.207   1.620   2.173  0.4707 -0.0941 -1.1070
  587SOL    HW1 2346   1.194   1.535   2.221  0.8105  0.7552  1.7940
  587SOL    HW2 2347   1.210   1.597   2.082  0.3399 -0.7561  2.2173
  587SOL     MW 2348   1.206   1.606   2.168  0.4982 -0.0694 -0.2857
  588SOL     OW 2349   1.400   2.143   2.722  0.5939 -0.5194 -0.0128
  588SOL    HW1 2350   1.484   2.117   2.746  0.5425 -1.5866  3.0481
  588SOL    HW2 2351   1.351   2.128   2.805  1.1950 -2.6580 -0.7056
  588SOL     MW 2352   1.404   2.138   2.736  0.6664 -0.9424  0.2996
  589SOL     OW 2353   1.350   2.054   0.068  0.0373  0.0338  0.2294
  589SOL    HW1 2354   1.365   2.147   0.095 -1.1295  0.8460  1.7066
  589SOL    HW2 2355   1.341   2.001   0.148  0.2015  3.2445  0.7712
  589SOL     MW 2356   1.351   2.060   0.082 -0.0950  0.5646  0.4958
  590SOL     OW 2357   0.441   2.602   2.239 -0.6209  0.6216  0.1728
  590SOL    HW1 2358   0.406   2.615   2.150  2.6182 -0.4583 -1.6629
  590SOL    HW2 2359   0.522   2.653   2.235  0.1973 -0.9586  1.4290
  590SOL     MW 2360   0.447   2.610   2.227 -0.0856  0.2707  0.0963
  591SOL     OW 2361   2.284   0.711   3.057  0.5573 -0.2108 -0.0811
  591SOL    HW1 2362   2.193   0.727   3.044 -0.1517  0.5854  0.3436
  591SOL    HW2 2363   2.325   0.791   3.027 -0.6592 -0.7466 -0.2774
  591SOL     MW 2364   2.278   0.723   3.051  0.3032 -0.1765 -0.0509
  592SOL     OW 2365   1.843   2.977   0.849  0.1130  0.7624 -0.0995
  592SOL    HW1 2366   1.861   3.006   0.756 -1.8038  2.3946 -1.1052
  592SOL    HW2 2367   1.866   2.881   0.840  0.8506 -2.0201  2.4363
  592SOL     MW 2368   1.848   2.968   0.836 -0.0426  0.6106  0.1024
  593SOL     OW 2369   1.918   0.804   0.837 -0.0329  0.5055  0.0935
  593SOL    HW1 2370   1.850   0.762   0.783 -1.8150 -3.4066  0.5512
  593SOL    HW2 2371   1.955   0.721   0.871  0.7945  1.6254 -0.5327
  593SOL     MW 2372   1.914   0.787   0.835 -0.1589  0.1371  0.0712
  594SOL     OW 2373   2.733   1.134   1.362 -0.4085 -0.6454 -0.1301
  594SOL    HW1 2374   2.827   1.158   1.379  3.3301 -2.1609 -3.0115
  594SOL    HW2 2375   2.713   1.111   1.267 -0.7516  1.6456 -1.0782
  594SOL     MW 2376   2.743   1.134   1.352  0.0395 -0.5431 -0.6354
  595SOL     OW 2377   0.439   0.946   0.727  0.4860 -0.3435 -0.3173
  595SOL    HW1 2378   0.500   0.996   0.669 -0.4869 -1.1959  1.2751
  595SOL    HW2 2379   0.443   0.983   0.813  1.8911 -3.1764  0.6920
  595SOL     MW 2380   0.448   0.958   0.731  0.5430 -0.8297  0.0259
  596SOL     OW 2381   2.455   1.343   0.581  0.3154 -0.3524 -0.3811
  596SOL    HW1 2382   2.442   1.425   0.536 -0.6730  0.0770 -1.6853
  596SOL    HW2 2383   2.540   1.340   0.624 -1.5973  0.7891  2.4764
  596SOL     MW 2384   2.464   1.353   0.581 -0.0674 -0.1452 -0.1762
  597SOL     OW 2385   2.184   0.671   1.725  0.5048  0.1544  0.4484
  597SOL    HW1 2386   2.252   0.613   1.759 -0.4139 -0.6773 -0.9274
  597SOL    HW2 2387   2.150   0.629   1.644  1.7679  0.6645  1.4488
  597SOL     MW 2388   2.189   0.658   1.719  0.5503  0.1120  0.3988
  598SOL     OW 2389   2.606   1.016   2.870 -0.8159 -0.2538 -0.3010
  598SOL    HW1 2390   2.624   0.956   2.791  2.3163  0.4467  3.9054
  598SOL    HW2 2391   2.692   1.035   2.916 -1.5079  0.3715  2.7580
  598SOL     MW 2392   2.619   1.010   2.865 -0.4939 -0.0789  0.6576
  599SOL     OW 2393   2.915   0.370   2.011  0.3065 -0.1585  0.3456
  599SOL    HW1 2394   2.892   0.396   2.099  0.1522 -0.5754 -1.3795
  599SOL    HW2 2395   2.991   0.424   1.993 -0.1948 -1.5299  0.8400
  599SOL     MW 2396   2.922   0.380   2.020  0.2200 -0.3944  0.1832
  600SOL     OW 2397   1.889   1.711   0.888  0.2778  0.3068 -0.1859
  600SOL    HW1 2398   1.897   1.773   0.958 -0.8129 -0.0751  1.8547
  600SOL    HW2 2399   1.807   1.737   0.846  3.4247 -1.3348  0.3541
  600SOL     MW 2400   1.879   1.722   0.892  0.5491  0.0398  0.1546
  601SOL     OW 2401   2.551   0.802   0.874  0.0626 -0.2775 -0.2485
  601SOL    HW1 2402   2.564   0.808   0.972 -0.8404  0.5066  0.2070
  601SOL    HW2 2403   2.481   0.735   0.862  0.0466  3.6709  0.2892
  601SOL     MW 2404   2.544   0.794   0.885 -0.0587  0.3469 -0.1175
  602SOL     OW 2405   2.308   1.935   0.686 -0.0662 -0.1752  0.5105
  602SOL    HW1 2406   2.239   1.877   0.719  0.9756 -2.2746 -0.9766
  602SOL    HW2 2407   2.261   1.987   0.619  1.5745  1.1655 -1.9193
  602SOL     MW 2408   2.293   1.934   0.681  0.2877 -0.2753 -0.0063
  603SOL     OW 2409   2.983   1.401   1.807 -0.5634  0.1145 -0.6528
  603SOL    HW1 2410   3.065   1.417   1.860  0.8202 -0.4425 -0.1660
  603SOL    HW2 2411   2.973   1.306   1.808  0.4080  2.3873 -1.0108
  603SOL     MW 2412   2.993   1.390   1.814 -0.2527  0.3409 -0.6358
  604SOL     OW 2413   2.104   1.553   0.453  0.4397  0.5860  0.0720
  604SOL    HW1 2414   2.127   1.491   0.526  3.1970  2.9803 -0.6079
  604SOL    HW2 2415   2.054   1.623   0.500 -0.6896  1.4851 -2.0263
  604SOL     MW 2416   2.100   1.554   0.469  0.6545  1.0205 -0.2946
  605SOL     OW 2417   2.653   1.572   0.870 -0.1293  0.0669 -0.5867
  605SOL    HW1 2418   2.581   1.615   0.831  1.2310 -1.4289  3.1605
  605SOL    HW2 2419   2.621   1.536   0.952 -1.0231  0.2013  1.9036
  605SOL     MW 2420   2.639   1.573   0.875 -0.0677 -0.1127  0.2363
  606SOL     OW 2421   2.537   1.759   2.005  0.4714  0.2539  0.1532
  606SOL    HW1 2422   2.448   1.800   1.994 -1.4095 -0.0358 -4.2086
  606SOL    HW2 2423   2.562   1.693   1.935  1.4600 -0.6170  0.0258
  606SOL     MW 2424   2.529   1.756   1.995  0.3537  0.1008 -0.4391
  607SOL     OW 2425   2.350   1.008   3.003  0.4518 -0.5065 -0.5540
  607SOL    HW1 2426   2.442   1.026   2.975  0.2173  3.4027  1.5305
  607SOL    HW2 2427   2.364   1.037   3.095 -0.0438  1.0528  1.4011
  607SOL     MW 2428   2.364   1.014   3.011  0.3555  0.2150 -0.0210
  608SOL     OW 2429   1.899   0.283   0.578  0.2526  0.5128 -0.2330
  608SOL    HW1 2430   1.927   0.327   0.493  1.0541 -0.3492 -1.9476
  608SOL    HW2 2431   1.878   0.183   0.561  3.1729 -3.3221 -0.6082
  608SOL     MW 2432   1.900   0.276   0.564  0.7437 -0.1069 -0.5087
  609SOL     OW 2433   2.159   1.931   3.030  0.4309  0.6205  1.0226
  609SOL    HW1 2434   2.069   1.899   3.008 -0.7128  1.6692  0.5672
  609SOL    HW2 2435   2.162   1.909   3.125  1.9974  0.5974  0.0739
  609SOL     MW 2436   2.147   1.924   3.040  0.4867  0.7558  0.8374
  610SOL     OW 2437   1.855   1.077   1.331 -0.0850 -0.6803 -0.8058
  610SOL    HW1 2438   1.887   1.027   1.253  1.4679 -1.0211  0.5226
  610SOL    HW2 2439   1.791   1.021   1.373 -1.9260 -0.2548 -0.2320
  610SOL     MW 2440   1.851   1.063   1.326 -0.1230 -0.6691 -0.5548
  611SOL     OW 2441   2.450   1.661   0.716  0.0291 -0.3080  0.2174
  611SOL    HW1 2442   2.408   1.746   0.695  2.0181 -2.0483 -3.5437
  611SOL    HW2 2443   2.485   1.636   0.626  2.1824 -1.8252 -1.1041
  611SOL     MW 2444   2.449   1.669   0.702  0.5756 -0.7378 -0.4532
  612SOL     OW 2445   2.785   2.827   0.455 -0.0949  0.8736  0.2201
  612SOL    HW1 2446   2.828   2.878   0.528 -1.6748  0.9075 -0.8925
  612SOL    HW2 2447   2.857   2.812   0.391 -1.1004 -0.7690 -0.3819
  612SOL     MW 2448   2.800   2.832   0.456 -0.4360  0.6614 -0.0062
  613SOL     OW 2449   1.586   1.044   1.121 -0.7467  0.7573 -0.1739
  613SOL    HW1 2450   1.565   1.129   1.165 -1.1226 -0.4782 -2.2108
  613SOL    HW2 2451   1.676   1.026   1.138 -0.6164 -0.2016  0.6377
  613SOL     MW 2452   1.595   1.053   1.129 -0.7791  0.4678 -0.3355
  614SOL     OW 2453   2.047   0.547   1.495 -0.1780  0.2196  0.4074
  614SOL    HW1 2454   2.007   0.473   1.539 -1.9313  0.0212 -0.6549
  614SOL    HW2 2455   2.031   0.524   1.403  2.8090  1.6041 -2.1491
  614SOL     MW 2456   2.039   0.534   1.488 -0.0152  0.3761 -0.0701
  615SOL     OW 2457   2.278   0.855   0.193  0.4016  0.7727  0.6847
  615SOL    HW1 2458   2.328   0.818   0.261  1.3905 -1.8177 -1.1157
  615SOL    HW2 2459   2.279   0.791   0.122 -1.0576  2.4018  1.7502
  615SOL     MW 2460   2.285   0.842   0.193  0.3395  0.6459  0.5877
  616SOL     OW 2461   2.556   0.429   1.608 -0.7933 -0.1679  0.3165
  616SOL    HW1 2462   2.499   0.372   1.553  0.6465 -2.0133  1.8224
  616SOL    HW2 2463   2.618   0.473   1.543 -0.5438 -0.5308 -0.0902
  616SOL     MW 2464   2.557   0.427   1.592 -0.5704 -0.4593  0.4615
  617SOL     OW 2465   2.873   0.562   1.728 -0.3097  0.6688 -0.4197
  617SOL    HW1 2466   2.787   0.560   1.770  0.6972  1.6040 -2.9963
  617SOL    HW2 2467   2.873   0.471   1.695 -0.5024 -0.0677  1.1703
  617SOL     MW 2468   2.862   0.550   1.729 -0.2023  0.6950 -0.5499
  618SOL     OW 2469   2.652   0.365   1.905  0.2182 -0.2529 -0.4393
  618SOL    HW1 2470   2.632   0.459   1.894  0.6371 -0.2890 -1.2283
  618SOL    HW2 2471   2.742   0.355   1.934 -1.3296 -0.2385  1.0121
  618SOL     MW 2472   2.661   0.376   1.908  0.0693 -0.2558 -0.3519
  619SOL     OW 2473   2.590   0.833   0.153 -0.2988 -1.0349 -0.1690
  619SOL    HW1 2474   2.661   0.878   0.204 -0.1890  1.9462  2.2558
  619SOL    HW2 2475   2.542   0.772   0.211 -1.0932 -2.1696  1.8500
  619SOL     MW 2476   2.593   0.831   0.167 -0.3891 -0.7913  0.4173
  620SOL     OW 2477   2.286   1.093   0.938  0.3242  0.2499  0.3383
  620SOL    HW1 2478   2.345   1.070   0.867 -2.3942 -1.9250 -2.0122
  620SOL    HW2 2479   2.242   1.007   0.948 -2.1747 -0.5365  1.6512
  620SOL     MW 2480   2.288   1.079   0.930 -0.3642 -0.1408  0.2014
  621SOL     OW 2481   1.468   2.123   1.994  0.1920  0.0047  0.4812
  621SOL    HW1 2482   1.407   2.051   2.002  1.4451  0.8389  1.0738
  621SOL    HW2 2483   1.551   2.101   2.034 -1.0787 -0.1544 -0.7326
  621SOL     MW 2484   1.471   2.110   2.000  0.1897  0.0937  0.3992
  622SOL     OW 2485   2.613   0.149   0.196 -0.1758 -0.2523  0.5235
  622SOL    HW1 2486   2.705   0.181   0.198  2.5612 -1.4945 -2.4805
  622SOL    HW2 2487   2.612   0.061   0.144  0.7043  1.4227  1.1704
  622SOL     MW 2488   2.625   0.142   0.189  0.3014 -0.1952  0.2125
  623SOL     OW 2489   2.353   2.771   0.847 -0.0366 -0.2808  0.6442
  623SOL    HW1 2490   2.406   2.849   0.850  0.0298  0.0157  1.5865
  623SOL    HW2 2491   2.289   2.785   0.917  1.8027 -1.1103  2.2127
  623SOL     MW 2492   2.351   2.783   0.857  0.2148 -0.3511  0.9755
  624SOL     OW 2493   2.243   1.654   3.041  0.1153  0.2027  0.2853
  624SOL    HW1 2494   2.170   1.631   3.094  3.1531 -0.1707 -0.5215
  624SOL    HW2 2495   2.230   1.746   3.021  0.1466 -0.8328 -0.1477
  624SOL     MW 2496   2.232   1.663   3.045  0.5202  0.0168  0.1218
  625SOL     OW 2497   2.147   1.916   1.060 -0.4775  0.6100 -0.1271
  625SOL    HW1 2498   2.223   1.895   1.109 -1.8196  1.3923 -1.3239
  625SOL    HW2 2499   2.161   1.877   0.975 -2.0920  3.1349 -1.6685
  625SOL     MW 2500   2.158   1.908   1.055 -0.8676  1.0464 -0.4884
  626SOL     OW 2501   0.157   1.539   2.372 -0.3289  0.1624 -0.2655
  626SOL    HW1 2502   0.126   1.477   2.303  1.5193  2.4713 -0.7635
  626SOL    HW2 2503   0.095   1.537   2.443  3.9246 -2.8034  1.4243
  626SOL     MW 2504   0.145   1.531   2.372  0.4761  0.0757 -0.1082
  627SOL     OW 2505   2.447   0.812   2.568  0.3465 -0.1479  0.4247
  627SOL    HW1 2506   2.389   0.894   2.579 -0.3084 -0.5763 -0.4883
  627SOL    HW2 2507   2.418   0.769   2.484  0.0649  4.2942 -0.8679
  627SOL     MW 2508   2.436   0.817   2.558  0.2229  0.3816  0.1337
  628SOL     OW 2509   2.285   1.366   1.372 -0.2967 -0.4577 -1.1061
  628SOL    HW1 2510   2.268   1.301   1.306 -1.5787 -1.6097 -0.0835
  628SOL    HW2 2511   2.380   1.344   1.387  1.9123 -0.0379 -0.4646
  628SOL     MW 2512   2.295   1.354   1.365 -0.1744 -0.5543 -0.8865
  629SOL     OW 2513   1.994   0.541   1.221  0.0722  0.0434  0.1399
  629SOL    HW1 2514   2.075   0.600   1.214  1.2597 -3.1747 -0.7381
  629SOL    HW2 2515   1.916   0.598   1.220  1.3222 -0.3214 -0.9632
  629SOL     MW 2516   1.994   0.556   1.220  0.3938 -0.4293 -0.1215
  630SOL     OW 2517   2.531   1.806   3.061 -0.1845  0.1495 -0.2531
  630SOL    HW1 2518   2.482   1.880   3.036  0.6601 -2.3195 -0.8202
  630SOL    HW2 2519   2.473   1.736   3.074  0.6666  2.1748 -1.7909
  630SOL     MW 2520   2.517   1.806   3.059  0.0392  0.0910 -0.5308
  631SOL     OW 2521   1.975   1.795   1.583 -0.2780  0.2928 -0.1403
  631SOL    HW1 2522   1.978   1.717   1.645  2.1807  0.0031  0.0488
  631SOL    HW2 2523   1.949   1.764   1.491 -1.7337 -3.0389 -1.3709
  631SOL     MW 2524   1.972   1.781   1.579 -0.1457 -0.1850 -0.2777
  632SOL     OW 2525   0.149   2.085   1.572 -0.2842 -0.1587 -0.5437
  632SOL    HW1 2526   0.061   2.102   1.596 -1.7360  1.7807 -0.9132
  632SOL    HW2 2527   0.135   2.004   1.515 -2.4021  1.0494 -0.8065
  632SOL     MW 2528   0.135   2.077   1.568 -0.7552  0.2566 -0.6271
  633SOL     OW 2529   2.426   0.685   0.356 -0.1782 -0.2165  0.2507
  633SOL    HW1 2530   2.508   0.673   0.406  3.6112  0.8058 -1.9838
  633SOL    HW2 2531   2.364   0.610   0.361 -1.4649 -0.2432 -1.1718
  633SOL     MW 2532   2.429   0.673   0.363  0.1520 -0.0852 -0.2318
  634SOL     OW 2533   2.646   3.081   0.641  0.1246  0.4192  0.6261
  634SOL    HW1 2534   2.680   3.169   0.624 -0.7577  0.1140  0.9542
  634SOL    HW2 2535   2.597   3.056   0.561  0.1783 -2.5932 -1.5410
  634SOL     MW 2536   2.644   3.089   0.628  0.0152 -0.0185  0.3835
  635SOL     OW 2537   2.599   0.115   1.800 -0.9682 -0.1678 -0.2537
  635SOL    HW1 2538   2.671   0.076   1.749 -2.6251 -3.8895 -0.1753
  635SOL    HW2 2539   2.623   0.207   1.811 -0.5858 -0.7908  1.6076
  635SOL     MW 2540   2.612   0.122   1.794 -1.1363 -0.7411  0.0023
  636SOL     OW 2541   2.951   1.650   0.966  0.0934  0.1823 -0.3537
  636SOL    HW1 2542   2.864   1.686   0.979 -1.4465  1.2240 -1.3785
  636SOL    HW2 2543   2.992   1.707   1.036  1.1818  0.0886  1.7919
  636SOL     MW 2544   2.945   1.662   0.977  0.0338  0.3074 -0.2058
  637SOL     OW 2545   2.896   1.485   0.689 -0.4516 -0.1143 -0.3422
  637SOL    HW1 2546   2.919   1.570   0.735  1.4480  1.2680 -0.8315
  637SOL    HW2 2547   2.805   1.469   0.711 -0.8543  0.6845  1.5656
  637SOL     MW 2548   2.887   1.494   0.698 -0.2541  0.1735 -0.1551
  638SOL     OW 2549   2.646   0.651   0.496  0.1199 -0.3559  0.3149
  638SOL    HW1 2550   2.736   0.670   0.470 -2.8894  1.8554 -1.2884
  638SOL    HW2 2551   2.654   0.629   0.589  2.4009 -0.6269 -0.4966
  638SOL     MW 2552   2.659   0.651   0.505  0.0238 -0.0999 -0.0037
  639SOL     OW 2553   1.829   0.011   0.564  0.2496  0.2322 -1.0338
  639SOL    HW1 2554   1.750   0.062   0.541  2.6740  0.5878  0.1115
  639SOL    HW2 2555   1.838  -0.060   0.502  0.4662  0.7933 -1.8529
  639SOL     MW 2556   1.820   0.009   0.553  0.5981  0.3531 -0.9908
  640SOL     OW 2557   0.364   1.366   0.083 -0.5794 -0.2148 -0.4861
  640SOL    HW1 2558   0.399   1.388  -0.006  1.3034 -1.0819 -2.4811
  640SOL    HW2 2559   0.312   1.284   0.077 -0.8160  1.7076  1.9023
  640SOL     MW 2560   0.362   1.358   0.071 -0.3622 -0.0756 -0.4342
  641SOL     OW 2561   2.242   0.450   0.377  0.4674  0.0699  0.3076
  641SOL    HW1 2562   2.257   0.424   0.285 -0.7227 -0.5143  0.1814
  641SOL    HW2 2563   2.299   0.403   0.432  1.4854  1.5792 -0.1134
  641SOL     MW 2564   2.252   0.440   0.372  0.4447  0.1919  0.2354
  642SOL     OW 2565   3.098   3.087   0.560  0.5348 -0.0494 -0.1852
  642SOL    HW1 2566   3.074   3.183   0.569 -3.6157  0.0271  2.8311
  642SOL    HW2 2567   3.029   3.036   0.606  0.3516 -2.3470 -0.4910
  642SOL     MW 2568   3.086   3.093   0.567 -0.0370 -0.3425  0.1725
  643SOL     OW 2569   2.018   0.346   1.661  0.2892  0.0548  0.1626
  643SOL    HW1 2570   2.074   0.351   1.738 -0.9976  0.4451  1.6365
  643SOL    HW2 2571   2.058   0.276   1.604 -0.7754  1.9706 -1.6380
  643SOL     MW 2572   2.031   0.337   1.663 -0.0210  0.3590  0.1195
  644SOL     OW 2573   2.718   1.858   1.009  0.0929  0.7573  0.4707
  644SOL    HW1 2574   2.676   1.795   1.068 -1.0157 -0.6061  1.4703
  644SOL    HW2 2575   2.639   1.903   0.978  0.3908 -1.7090  1.5596
  644SOL     MW 2576   2.702   1.856   1.013 -0.0141  0.2520  0.7463
  645SOL     OW 2577   2.813   0.890   0.650  0.2980  0.0702 -0.0773
  645SOL    HW1 2578   2.892   0.859   0.691  0.3608  1.3009 -2.5244
  645SOL    HW2 2579   2.763   0.810   0.653 -0.4428  2.2105 -0.1179
  645SOL     MW 2580   2.817   0.875   0.655  0.2086  0.5149 -0.4055
  646SOL     OW 2581   0.176   2.253   0.845 -0.1546 -0.2606 -0.4307
  646SOL    HW1 2582   0.200   2.159   0.840  2.3929 -0.5406  1.4529
  646SOL    HW2 2583   0.131   2.290   0.765  0.3062  1.6784  2.1107
  646SOL     MW 2584   0.174   2.245   0.834  0.2423 -0.0417  0.1531
  647SOL     OW 2585   2.724   0.545   2.977 -0.4282  0.2492 -0.0955
  647SOL    HW1 2586   2.657   0.498   3.023 -0.4195 -3.0187  1.2245
  647SOL    HW2 2587   2.693   0.630   2.968 -0.3885 -0.7964 -0.0604
  647SOL     MW 2588   2.711   0.550   2.982 -0.4218 -0.3199  0.0833
  648SOL     OW 2589   2.211   0.721   1.177 -0.5277  0.2714 -0.6657
  648SOL    HW1 2590   2.218   0.748   1.089 -2.8525  1.2068  1.1502
  648SOL    HW2 2591   2.229   0.800   1.228  0.6171  1.0962 -1.4262
  648SOL     MW 2592   2.214   0.735   1.172 -0.6834  0.5037 -0.5265
  649SOL     OW 2593   2.389   2.730   1.251  0.1039  0.0741  0.1397
  649SOL    HW1 2594   2.479   2.767   1.241 -0.2837 -0.8038 -0.4545
  649SOL    HW2 2595   2.396   2.634   1.242  0.9828  2.3094 -0.3391
  649SOL     MW 2596   2.402   2.722   1.248  0.1687  0.2532 -0.0018
  650SOL     OW 2597   2.804   0.242   0.638  0.2118  0.0105  0.6148
  650SOL    HW1 2598   2.860   0.248   0.712 -0.0525  0.4986  0.2185
  650SOL    HW2 2599   2.864   0.271   0.564  0.4811 -0.4898 -1.0719
  650SOL     MW 2600   2.819   0.246   0.638  0.2125  0.0089  0.3399
  651SOL     OW 2601   2.987   0.353   0.843  0.6667  0.3563  0.0866
  651SOL    HW1 2602   3.052   0.395   0.780  0.6108 -0.8673 -0.3338
  651SOL    HW2 2603   2.941   0.422   0.892  2.6275  0.4512 -0.2445
  651SOL     MW 2604   2.989   0.367   0.841  0.9181  0.2073 -0.0126
  652SOL     OW 2605   2.388   1.408   2.971  0.1427 -0.5071 -0.1189
  652SOL    HW1 2606   2.430   1.409   2.883 -2.2301 -0.5799  0.8043
  652SOL    HW2 2607   2.338   1.493   2.982  0.7474 -1.1710  1.2434
  652SOL     MW 2608   2.387   1.419   2.961 -0.0905 -0.6043  0.1826
  653SOL     OW 2609   1.973   0.428   0.356 -0.6514 -0.4459 -0.0360
  653SOL    HW1 2610   1.948   0.376   0.281  1.3808  1.9881 -0.7327
  653SOL    HW2 2611   2.067   0.427   0.350 -1.8709  1.4574 -1.7121
  653SOL     MW 2612   1.982   0.421   0.345 -0.5442  0.1263 -0.3491
  654SOL     OW 2613   2.470   1.038   0.704  0.0811  0.2451  0.2814
  654SOL    HW1 2614   2.400   1.008   0.648 -0.1130 -1.6693  2.4230
  654SOL    HW2 2615   2.505   0.964   0.751 -2.9571  1.4528  0.6032
  654SOL     MW 2616   2.465   1.024   0.703 -0.3454  0.1518  0.6064
  655SOL     OW 2617   3.012   0.923   0.424 -0.2585  0.3280 -0.2156
  655SOL    HW1 2618   3.028   0.967   0.508  0.6718  1.6048 -0.2233
  655SOL    HW2 2619   2.976   0.831   0.446  0.6751 -2.1271 -2.4676
  655SOL     MW 2620   3.010   0.916   0.438 -0.0126  0.1726 -0.5137
  656SOL     OW 2621   1.945   2.761   1.229  0.3453 -0.6228  0.4235
  656SOL    HW1 2622   1.918   2.830   1.287 -1.1814 -1.1473 -4.0206
  656SOL    HW2 2623   1.957   2.680   1.271 -0.2821  1.2461 -2.0461
  656SOL     MW 2624   1.943   2.759   1.242  0.0611 -0.4454 -0.4887
  657SOL     OW 2625   0.246   1.517   1.242 -0.1759  0.2725 -0.1228
  657SOL    HW1 2626   0.153   1.523   1.260 -1.1437 -1.2025  1.4793
  657SOL    HW2 2627   0.255   1.561   1.155  0.2931 -0.2679 -1.2971
  657SOL     MW 2628   0.235   1.524   1.233 -0.2417  0.0066 -0.0664
  658SOL     OW 2629   2.695   1.386   0.245  0.0144  0.4363  0.1961
  658SOL    HW1 2630   2.634   1.342   0.304 -0.8993  0.0662  1.0748
  658SOL    HW2 2631   2.736   1.451   0.298 -0.8108  0.4436  0.8865
  658SOL     MW 2632   2.692   1.389   0.260 -0.2150  0.3884  0.4031
  659SOL     OW 2633   2.265   1.556   1.028  0.7299 -0.3146  0.6684
  659SOL    HW1 2634   2.354   1.519   1.034 -1.6626  3.4119  0.1399
  659SOL    HW2 2635   2.216   1.550   1.106 -0.2795 -2.7472 -0.0205
  659SOL     MW 2636   2.270   1.550   1.039  0.2811 -0.1439  0.5078
  660SOL     OW 2637   2.049   1.545   1.690  0.0135  0.2501 -0.7776
  660SOL    HW1 2638   2.084   1.551   1.784 -0.0269  0.2868  0.2589
  660SOL    HW2 2639   1.988   1.474   1.683  0.4932  2.1161  0.1784
  660SOL     MW 2640   2.045   1.536   1.701  0.0715  0.5011 -0.5147
  661SOL     OW 2641   2.370   1.087   0.178  0.0405 -0.4514  0.4830
  661SOL    HW1 2642   2.451   1.113   0.210  0.1650 -1.7624 -0.0682
  661SOL    HW2 2643   2.359   0.988   0.190 -0.0777 -0.2813 -1.0165
  661SOL     MW 2644   2.379   1.078   0.184  0.0413 -0.6019  0.2125
  662SOL     OW 2645   2.523   2.980   0.866 -0.5228 -0.3102 -0.0748
  662SOL    HW1 2646   2.479   3.038   0.931  1.0104  0.2006 -1.2933
  662SOL    HW2 2647   2.547   3.032   0.790 -0.2181 -0.4513 -0.7176
  662SOL     MW 2648   2.521   2.995   0.865 -0.2803 -0.2614 -0.3204
  663SOL     OW 2649   2.814   1.580   0.436 -0.3961 -0.1809 -0.0133
  663SOL    HW1 2650   2.895   1.599   0.386  1.0937  0.5316 -2.0489
  663SOL    HW2 2651   2.848   1.558   0.519 -2.1490  0.2403 -1.9123
  663SOL     MW 2652   2.829   1.579   0.440 -0.4308 -0.0313 -0.5324
  664SOL     OW 2653   2.496   1.587   1.553  0.1440  0.4942 -0.0414
  664SOL    HW1 2654   2.463   1.677   1.539 -0.2682 -1.2288 -2.2052
  664SOL    HW2 2655   2.424   1.529   1.580  0.0058 -1.8731 -1.8993
  664SOL     MW 2656   2.482   1.591   1.555  0.0714 -0.0455 -0.5720
  665SOL     OW 2657   2.863   0.801   2.041  0.3633  0.2289  0.4175
  665SOL    HW1 2658   2.835   0.824   1.952  0.6466 -0.9694  1.3471
  665SOL    HW2 2659   2.941   0.749   2.032  0.8981 -0.7722 -0.1007
  665SOL     MW 2660   2.870   0.798   2.028  0.4713 -0.0613  0.4718
  666SOL     OW 2661   2.793   3.025   1.685  0.3447  0.1123 -0.3014
  666SOL    HW1 2662   2.787   3.019   1.589  0.2315  2.1822 -0.4655
  666SOL    HW2 2663   2.734   2.957   1.719 -2.0317 -0.1287  1.6705
  666SOL     MW 2664   2.784   3.016   1.677  0.0162  0.3536 -0.0629
  667SOL     OW 2665   1.962   2.717   1.608  0.1065  0.4697  0.3963
  667SOL    HW1 2666   1.994   2.644   1.662  0.0414 -0.9702 -3.6173
  667SOL    HW2 2667   2.026   2.787   1.629 -0.3655 -1.9958  1.5680
  667SOL     MW 2668   1.974   2.717   1.618  0.0357 -0.0456  0.0214
  668SOL     OW 2669   2.737   0.628   0.793 -0.3142 -0.1632 -0.4635
  668SOL    HW1 2670   2.795   0.638   0.872 -0.6853 -1.5810 -0.7973
  668SOL    HW2 2671   2.667   0.686   0.822  3.4375 -1.1439 -0.4096
  668SOL     MW 2672   2.736   0.637   0.807  0.1318 -0.4797 -0.5005
  669SOL     OW 2673   0.167   0.889   0.733  0.1695  0.0882  0.0118
  669SOL    HW1 2674   0.146   0.982   0.726  0.1767 -1.0284 -1.0568
  669SOL    HW2 2675   0.268   0.885   0.751  3.0338 -0.2293  0.2670
  669SOL     MW 2676   0.178   0.901   0.735  0.5484 -0.1010 -0.0955
  670SOL     OW 2677   2.934   0.286   0.216  0.3022  0.1491 -0.5058
  670SOL    HW1 2678   2.950   0.219   0.148  1.3639 -2.1655 -0.1041
  670SOL    HW2 2679   2.929   0.374   0.167 -0.6723  0.5704 -2.4159
  670SOL     MW 2680   2.935   0.289   0.200  0.3137 -0.1007 -0.7049
  671SOL     OW 2681   2.171   3.097   1.608 -0.3007 -0.1159 -0.3060
  671SOL    HW1 2682   2.143   3.155   1.536  0.0771 -2.3834  1.2964
  671SOL    HW2 2683   2.098   3.074   1.670  0.6889  0.1193 -0.1510
  671SOL     MW 2684   2.158   3.102   1.607 -0.1203 -0.3840 -0.0741
  672SOL     OW 2685   1.871   1.702   1.342 -0.0286  0.0765 -0.0014
  672SOL    HW1 2686   1.782   1.699   1.359 -2.1265  0.3637 -1.1195
  672SOL    HW2 2687   1.888   1.765   1.272 -1.1962 -2.6238 -0.7039
  672SOL     MW 2688   1.862   1.710   1.335 -0.4594 -0.2419 -0.2416
  673SOL     OW 2689   2.793   1.104   0.477 -0.1007  0.0788  0.5481
  673SOL    HW1 2690   2.819   1.029   0.537 -1.8467 -1.1280 -0.4149
  673SOL    HW2 2691   2.879   1.162   0.491  1.1850 -0.1468  1.9382
  673SOL     MW 2692   2.808   1.102   0.487 -0.1615 -0.1102  0.6045
  674SOL     OW 2693   2.502   0.066   1.289 -0.8109  0.7906 -0.0943
  674SOL    HW1 2694   2.463   0.088   1.202  2.1837 -0.4441  1.7891
  674SOL    HW2 2695   2.517  -0.029   1.270  1.1998 -0.2830 -0.7197
  674SOL     MW 2696   2.499   0.056   1.275 -0.1505  0.4860  0.0717
  675SOL     OW 2697   2.969   1.051   1.115  0.6054 -0.2578  0.4991
  675SOL    HW1 2698   3.027   1.026   1.189 -0.6957 -2.6045 -2.2061
  675SOL    HW2 2699   3.027   1.056   1.038 -0.1586 -3.1621 -1.8665
  675SOL     MW 2700   2.984   1.049   1.115  0.3329 -0.9506 -0.1699
  676SOL     OW 2701   2.787   1.477   1.623 -0.1330  0.4468  0.0419
  676SOL    HW1 2702   2.749   1.398   1.647  2.9594  3.7829  2.0681
  676SOL    HW2 2703   2.877   1.461   1.658  0.5027  1.1012 -2.6760
  676SOL     MW 2704   2.794   1.465   1.630  0.3589  0.9733 -0.0494
  677SOL     OW 2705   2.439   0.816   1.886 -0.7842 -0.2804 -0.0569
  677SOL    HW1 2706   2.388   0.805   1.810  0.6544 -1.1223  2.2589
  677SOL    HW2 2707   2.379   0.825   1.954  2.1160  1.1744  1.4101
  677SOL     MW 2708   2.424   0.816   1.885 -0.2117 -0.1995  0.4422
  678SOL     OW 2709   2.520   1.586   0.456  1.0042  0.4295 -0.0899
  678SOL    HW1 2710   2.477   1.666   0.439  1.2030 -0.0208  2.6330
  678SOL    HW2 2711   2.603   1.587   0.418  1.0044  0.0958 -1.2046
  678SOL     MW 2712   2.525   1.596   0.449  1.0305  0.3261  0.1223
  679SOL     OW 2713   2.370   0.487   1.105 -0.4899 -0.1884 -0.5005
  679SOL    HW1 2714   2.308   0.411   1.105 -2.3355 -1.1139  0.9101
  679SOL    HW2 2715   2.337   0.551   1.166 -1.7069  0.0216 -2.1436
  679SOL     MW 2716   2.357   0.486   1.113 -0.8940 -0.2828 -0.5312
  680SOL     OW 2717   2.396   0.275   1.441 -0.1577 -0.5954 -0.1366
  680SOL    HW1 2718   2.367   0.235   1.526 -0.7406  1.7345  2.1442
  680SOL    HW2 2719   2.405   0.207   1.375  0.3255  3.9704 -1.0562
  680SOL     MW 2720   2.394   0.261   1.444 -0.1709  0.3144  0.0430
  681SOL     OW 2721   0.296   0.536   1.573 -0.1448  0.5552  0.3475
  681SOL    HW1 2722   0.264   0.452   1.598  0.0062  0.7257 -1.2161
  681SOL    HW2 2723   0.392   0.538   1.575 -2.1407 -1.4391  0.3053
  681SOL     MW 2724   0.305   0.525   1.576 -0.3882  0.3146  0.1356
  682SOL     OW 2725   0.149   3.005   1.488  0.7823 -0.8727  0.3628
  682SOL    HW1 2726   0.123   3.094   1.473 -0.1444  0.8933  3.6907
  682SOL    HW2 2727   0.096   2.987   1.571 -1.2233  2.1539 -0.1520
  682SOL     MW 2728   0.138   3.015   1.497  0.3954 -0.2404  0.7340
  683SOL     OW 2729   2.029   0.825   2.991  0.8020  0.0068  0.0812
  683SOL    HW1 2730   1.951   0.790   2.948  0.7672 -1.1376 -1.0863
  683SOL    HW2 2731   2.003   0.906   3.033 -2.5870  0.0421  1.9261
  683SOL     MW 2732   2.015   0.831   2.991  0.3503 -0.1395  0.1706
  684SOL     OW 2733   2.155   1.752   0.846 -0.1092  0.4722  0.0307
  684SOL    HW1 2734   2.070   1.705   0.847  1.3385  1.4738  2.4268
  684SOL    HW2 2735   2.211   1.688   0.900  0.9450  0.7346  1.7825
  684SOL     MW 2736   2.151   1.737   0.853  0.2209  0.6390  0.5780
  685SOL     OW 2737   2.568   1.728   1.216 -0.0030  0.2722  0.1864
  685SOL    HW1 2738   2.642   1.720   1.274  0.0710 -1.6229 -2.7170
  685SOL    HW2 2739   2.543   1.638   1.200  1.0572  0.5507  0.4665
  685SOL     MW 2740   2.575   1.715   1.221  0.1467  0.0589 -0.1597
  686SOL     OW 2741   2.909   0.702   1.488 -0.4382 -0.0966  0.0706
  686SOL    HW1 2742   2.918   0.670   1.579 -0.1002  0.2629  2.7147
  686SOL    HW2 2743   3.001   0.731   1.469  1.2002  4.2930  0.9735
  686SOL     MW 2744   2.922   0.701   1.498 -0.1774  0.5300  0.5386
  687SOL     OW 2745   2.173   0.328   1.202  0.2544  0.2202 -0.0614
  687SOL    HW1 2746   2.142   0.261   1.142 -1.4685 -1.0645  0.3439
  687SOL    HW2 2747   2.092   0.384   1.220  0.3720  0.0425  3.5011
  687SOL     MW 2748   2.158   0.327   1.197  0.0426  0.0273  0.4621
  688SOL     OW 2749   2.343   0.558   1.421  0.7328 -0.3046  0.3462
  688SOL    HW1 2750   2.373   0.536   1.508 -0.6977  2.1569  1.3707
  688SOL    HW2 2751   2.310   0.479   1.376 -1.6855  0.1339  3.0298
  688SOL     MW 2752   2.343   0.544   1.427  0.2250  0.0781  0.8354
  689SOL     OW 2753   2.581   0.775   2.994  0.4100  0.5515  0.0150
  689SOL    HW1 2754   2.602   0.866   2.964  0.3674 -0.5589 -0.3922
  689SOL    HW2 2755   2.588   0.787   3.096 -0.6377 -1.1741 -0.0994
  689SOL     MW 2756   2.585   0.789   3.004  0.2661  0.1773 -0.0538
  690SOL     OW 2757   2.054   1.012   1.970  0.4551 -0.7954  0.1558
  690SOL    HW1 2758   2.017   0.922   1.987  0.6229 -0.0036 -1.8366
  690SOL    HW2 2759   2.097   1.005   1.881  2.5183 -0.2094 -2.3636
  690SOL     MW 2760   2.055   0.999   1.961  0.7494 -0.6136 -0.4395
  691SOL     OW 2761   2.463   0.254   0.823  0.5549 -0.5279  0.1159
  691SOL    HW1 2762   2.531   0.319   0.847 -0.4116  0.5830 -0.7534
  691SOL    HW2 2763   2.379   0.313   0.830 -1.4474  1.3148  1.0733
  691SOL     MW 2764   2.461   0.270   0.827  0.1632 -0.1382  0.1276
  692SOL     OW 2765   2.780   1.691   1.381  0.3433  0.5691  0.2957
  692SOL    HW1 2766   2.770   1.633   1.457  2.2247  0.3281 -1.1884
  692SOL    HW2 2767   2.814   1.769   1.427 -0.4691 -1.5670 -2.6827
  692SOL     MW 2768   2.784   1.694   1.397  0.4843  0.2555 -0.2931
  693SOL     OW 2769   2.266   0.430   0.101 -0.4116  0.3355 -0.3186
  693SOL    HW1 2770   2.195   0.365   0.090  2.9012  2.9352  0.0498
  693SOL    HW2 2771   2.245   0.504   0.050  0.8989  2.6505  2.0631
  693SOL     MW 2772   2.254   0.431   0.093  0.1984  0.9840  0.0442
  694SOL     OW 2773   1.983   1.280   1.168 -0.2938 -0.2468 -0.7650
  694SOL    HW1 2774   2.064   1.227   1.172 -1.5867 -0.9392  0.0457
  694SOL    HW2 2775   1.919   1.218   1.203  0.9051 -2.1351  0.4332
  694SOL     MW 2776   1.985   1.265   1.173 -0.3062 -0.5873 -0.4999
  695SOL     OW 2777   2.954   1.471   1.314 -0.3553 -0.4084 -0.0572
  695SOL    HW1 2778   2.952   1.432   1.223  2.3849 -2.1625 -2.5405
  695SOL    HW2 2779   2.921   1.560   1.313 -0.9204 -0.6865 -2.3657
  695SOL     MW 2780   2.949   1.478   1.302 -0.0683 -0.6765 -0.6894
  696SOL     OW 2781   2.049   1.400   0.916  0.3221 -0.2643 -0.3067
  696SOL    HW1 2782   2.128   1.450   0.938  0.1795 -0.8432  1.0843
  696SOL    HW2 2783   2.003   1.378   0.996  2.3884  1.7526  3.4961
  696SOL     MW 2784   2.054   1.404   0.929  0.5759 -0.0746  0.3786
  697SOL     OW 2785   2.858   0.962   2.285 -0.0249  0.5061 -0.1517
  697SOL    HW1 2786   2.788   1.019   2.244 -0.7802  2.5831 -4.4667
  697SOL    HW2 2787   2.883   0.911   2.206  1.2967 -0.8915  0.6067
  697SOL     MW 2788   2.852   0.963   2.269  0.0498  0.5957 -0.6210
  698SOL     OW 2789   2.537   0.336   0.026  0.1364 -0.1331  0.3518
  698SOL    HW1 2790   2.450   0.371   0.036  0.1226 -3.5165  0.1947
  698SOL    HW2 2791   2.555   0.273   0.097 -1.2989  0.2287  3.5692
  698SOL     MW 2792   2.528   0.332   0.037 -0.0548 -0.5318  0.7556
  699SOL     OW 2793   1.829   1.615   2.062  0.4791  0.0964  0.2939
  699SOL    HW1 2794   1.817   1.521   2.083  0.5709  2.3614  1.9833
  699SOL    HW2 2795   1.924   1.621   2.053  0.4315  1.4230  0.8660
  699SOL     MW 2796   1.840   1.603   2.064  0.4850  0.5702  0.5923
  700SOL     OW 2797   2.726   0.915   1.523  0.2358  0.1096  0.5101
  700SOL    HW1 2798   2.766   0.977   1.466 -2.9837 -0.4912 -0.9788
  700SOL    HW2 2799   2.785   0.842   1.523 -1.1662  2.3837  2.7072
  700SOL     MW 2800   2.739   0.914   1.515 -0.3740  0.3304  0.6035
  701SOL     OW 2801   1.675   1.282   2.615 -0.3426  0.1452  0.4558
  701SOL    HW1 2802   1.767   1.303   2.634 -0.0198 -1.7330 -1.3903
  701SOL    HW2 2803   1.622   1.332   2.682  0.9148  0.7617 -2.1408
  701SOL     MW 2804   1.680   1.291   2.626 -0.1341 -0.0212 -0.1304
  702SOL     OW 2805   2.255   0.448   0.814  0.2351  0.0981 -0.0643
  702SOL    HW1 2806   2.223   0.382   0.745  2.6362  0.3958 -1.2496
  702SOL    HW2 2807   2.310   0.508   0.762  1.2411  0.1405  0.5193
  702SOL     MW 2808   2.258   0.447   0.798  0.6846  0.1430 -0.1437
  703SOL     OW 2809   2.648   1.289   0.978 -0.2238  0.0358 -0.7722
  703SOL    HW1 2810   2.651   1.288   0.884 -1.7563  1.2729  1.1297
  703SOL    HW2 2811   2.646   1.196   1.009  2.5606 -1.8845  2.6635
  703SOL     MW 2812   2.648   1.277   0.970 -0.0586 -0.0543 -0.0680
  704SOL     OW 2813   0.023   1.289   0.250 -0.0538  0.9153 -0.1562
  704SOL    HW1 2814  -0.057   1.265   0.204  2.2984 -3.5133  1.1254
  704SOL    HW2 2815   0.065   1.206   0.245 -1.3996  2.8324 -0.9296
  704SOL     MW 2816   0.018   1.275   0.243  0.0790  0.5839 -0.0892
  705SOL     OW 2817   2.148   1.591   1.303 -0.1163 -0.3184 -0.2975
  705SOL    HW1 2818   2.059   1.566   1.313  2.8362 -1.7470 -1.0879
  705SOL    HW2 2819   2.196   1.507   1.325 -2.5059 -0.3817 -4.3111
  705SOL     MW 2820   2.142   1.577   1.308 -0.0421 -0.5153 -0.9314
  706SOL     OW 2821   2.991   1.245   0.583  0.2136 -0.0555  0.3494
  706SOL    HW1 2822   3.081   1.245   0.551 -2.6259 -0.4713 -1.4262
  706SOL    HW2 2823   2.977   1.337   0.597  1.7388 -2.0082  0.1438
  706SOL     MW 2824   3.001   1.257   0.581  0.0402 -0.3680  0.0880
  707SOL     OW 2825   2.383   0.070   1.029  0.0444 -0.4466 -0.2937
  707SOL    HW1 2826   2.427   0.128   0.970 -0.4456  0.1614  0.5494
  707SOL    HW2 2827   2.289   0.093   1.027 -0.4617 -2.0978 -1.2338
  707SOL     MW 2828   2.376   0.081   1.021 -0.0870 -0.5843 -0.3065
  708SOL     OW 2829   2.527   1.511   0.074  0.3965  0.6170  0.6538
  708SOL    HW1 2830   2.591   1.450   0.108  1.6034  3.6192 -2.4075
  708SOL    HW2 2831   2.486   1.472  -0.004 -1.4748 -0.5191  0.0775
  708SOL     MW 2832   2.530   1.498   0.068  0.3088  0.8632  0.1739
  709SOL     OW 2833   1.694   1.759   0.103 -0.2634  0.4224 -0.3523
  709SOL    HW1 2834   1.667   1.769   0.014  0.1124  3.7509  3.9457
  709SOL    HW2 2835   1.622   1.719   0.146  0.1609  0.5664  0.2419
  709SOL     MW 2836   1.681   1.755   0.097 -0.1578  0.8806  0.2932
  710SOL     OW 2837   2.237   1.177   1.196  0.1468  0.6984 -0.2676
  710SOL    HW1 2838   2.270   1.175   1.105 -1.8941  0.9715  1.8238
  710SOL    HW2 2839   2.242   1.084   1.237 -0.3764 -2.1985  0.8699
  710SOL     MW 2840   2.242   1.165   1.190 -0.1915  0.3522  0.1585
  711SOL     OW 2841   2.350   0.171   1.713  1.0094 -0.5527 -0.2707
  711SOL    HW1 2842   2.433   0.141   1.751 -0.8274  0.8605  2.0414
  711SOL    HW2 2843   2.289   0.098   1.674 -2.4044  1.0316 -4.1326
  711SOL     MW 2844   2.353   0.157   1.713  0.3167 -0.1572 -0.4752
  712SOL     OW 2845   1.619   0.583   3.048  0.0037 -0.2024 -0.5780
  712SOL    HW1 2846   1.670   0.638   2.987 -0.5062 -0.5985  1.6315
  712SOL    HW2 2847   1.585   0.648   3.111 -2.4959  0.4586  2.2509
  712SOL     MW 2848   1.621   0.599   3.048 -0.3933 -0.1675  0.0867
  713SOL     OW 2849   2.587   0.793   1.152  0.0384  0.0538 -0.0093
  713SOL    HW1 2850   2.626   0.702   1.143 -2.2480 -0.9254 -2.3488
  713SOL    HW2 2851   2.532   0.791   1.236 -0.8020  1.6336  0.7340
  713SOL     MW 2852   2.585   0.781   1.162 -0.3741  0.1330 -0.2199
  714SOL     OW 2853   2.268   0.162   1.981 -0.1421 -0.5109 -0.6083
  714SOL    HW1 2854   2.315   0.121   2.059 -2.5983  0.1950  2.4112
  714SOL    HW2 2855   2.333   0.191   1.917 -0.2325 -0.1053  0.2952
  714SOL     MW 2856   2.283   0.160   1.983 -0.4781 -0.3643 -0.0907
  715SOL     OW 2857   1.758   1.917   1.710  0.4898  0.0021  0.0443
  715SOL    HW1 2858   1.843   1.877   1.680  2.0060 -2.2866 -0.9424
  715SOL    HW2 2859   1.727   1.843   1.768  0.7688 -3.7771 -2.2515
  715SOL     MW 2860   1.765   1.902   1.714  0.7266 -0.7985 -0.3888
  716SOL     OW 2861   2.329   0.666   0.648  0.3041 -0.4682  0.2084
  716SOL    HW1 2862   2.396   0.653   0.585  1.2181 -3.7569  1.7799
  716SOL    HW2 2863   2.245   0.646   0.599  1.4977 -3.2647  1.1906
  716SOL     MW 2864   2.327   0.662   0.633  0.5822 -1.2711  0.5453
  717SOL     OW 2865   2.824   1.446   2.940 -0.0796  0.3175  0.3435
  717SOL    HW1 2866   2.921   1.448   2.957 -0.3018  0.4064 -0.5670
  717SOL    HW2 2867   2.793   1.510   3.012 -1.1442 -0.9625  2.7065
  717SOL     MW 2868   2.832   1.455   2.952 -0.2494  0.1603  0.5352
  718SOL     OW 2869   2.538   1.347   1.396 -1.1879 -0.4406  0.4335
  718SOL    HW1 2870   2.558   1.410   1.470 -0.5501 -0.7971 -1.7363
  718SOL    HW2 2871   2.616   1.290   1.388 -1.6371 -1.7760  0.8349
  718SOL     MW 2872   2.551   1.348   1.405 -1.1630 -0.6638  0.2002
  719SOL     OW 2873   2.173   1.378   0.639 -0.5854  0.1662 -0.0603
  719SOL    HW1 2874   2.268   1.384   0.632  1.1929 -0.4003 -0.7245
  719SOL    HW2 2875   2.164   1.364   0.735 -3.6336 -1.9070  0.3912
  719SOL     MW 2876   2.184   1.377   0.651 -0.7529 -0.1821 -0.0884
  720SOL     OW 2877   2.887   1.220   0.138  0.4281 -0.0063 -0.3532
  720SOL    HW1 2878   2.864   1.134   0.178 -1.0143 -2.0469 -0.2218
  720SOL    HW2 2879   2.827   1.296   0.166 -3.1506  2.8561 -0.8753
  720SOL     MW 2880   2.876   1.219   0.147 -0.2344  0.1021 -0.4048
  721SOL     OW 2881   2.491   0.800   1.413  0.4639 -0.1813  0.6403
  721SOL    HW1 2882   2.427   0.732   1.436  1.7209  1.4722 -3.9150
  721SOL    HW2 2883   2.556   0.829   1.477 -0.4773  1.2335 -2.8108
  721SOL     MW 2884   2.491   0.795   1.425  0.5056  0.2235 -0.4160
  722SOL     OW 2885   2.545   1.213   0.378 -0.1647  0.4948  0.2833
  722SOL    HW1 2886   2.511   1.266   0.451 -3.4917 -1.6535  0.8163
  722SOL    HW2 2887   2.627   1.172   0.411 -1.9644 -2.5671  2.0850
  722SOL     MW 2888   2.551   1.214   0.392 -0.8411 -0.1926  0.5913
  723SOL     OW 2889   2.303   1.425   1.628  0.2125 -0.1530  0.1753
  723SOL    HW1 2890   2.270   1.398   1.541 -1.1242 -1.6224 -0.3115
  723SOL    HW2 2891   2.237   1.489   1.657  0.2977 -2.9201  1.6623
  723SOL     MW 2892   2.290   1.430   1.620  0.0474 -0.7120  0.3072
  724SOL     OW 2893   2.471   0.388   0.555 -0.4268 -0.0962 -0.0506
  724SOL    HW1 2894   2.474   0.333   0.632 -0.6629  0.5947 -1.6669
  724SOL    HW2 2895   2.543   0.361   0.501 -0.7801 -1.8315 -0.6453
  724SOL     MW 2896   2.481   0.377   0.558 -0.5046 -0.2340 -0.3423
  725SOL     OW 2897   2.652   0.537   1.151 -0.6089 -0.0560 -0.4996
  725SOL    HW1 2898   2.656   0.534   1.243  0.2053  1.3018 -2.4115
  725SOL    HW2 2899   2.558   0.520   1.118 -3.2654  0.6725  1.3665
  725SOL     MW 2900   2.640   0.535   1.159 -0.8520  0.2193 -0.5056
  726SOL     OW 2901   2.582   2.417   0.500  0.0080  0.4055  0.5639
  726SOL    HW1 2902   2.530   2.493   0.460  0.2550  1.4620 -1.3444
  726SOL    HW2 2903   2.550   2.415   0.590 -0.0878 -3.0324  2.3950
  726SOL     MW 2904   2.571   2.427   0.507  0.0279  0.0913  0.5537
  727SOL     OW 2905   2.789   0.288   1.636 -0.5336 -0.4457  0.2265
  727SOL    HW1 2906   2.827   0.289   1.544  0.2360 -0.2223  1.9003
  727SOL    HW2 2907   2.702   0.328   1.632 -0.3588  0.6787 -2.2184
  727SOL     MW 2908   2.782   0.293   1.623 -0.4090 -0.2679  0.1248
  728SOL     OW 2909   2.802   1.144   3.000 -0.4473  0.5921 -0.4900
  728SOL    HW1 2910   2.809   1.235   2.975  2.5396 -1.0618  0.1455
  728SOL    HW2 2911   2.822   1.146   3.095 -0.1755 -1.4424 -0.2732
  728SOL     MW 2912   2.805   1.156   3.009 -0.0173  0.1054 -0.3776
  729SOL     OW 2913   2.529   1.468   1.133  0.3854 -0.6619  0.4331
  729SOL    HW1 2914   2.515   1.421   1.213  2.4570 -2.2808 -4.3180
  729SOL    HW2 2915   2.565   1.394   1.084  0.5720 -3.2959 -1.6538
  729SOL     MW 2916   2.532   1.452   1.137  0.6834 -1.2230 -0.4691
  730SOL     OW 2917   2.121   1.169   0.236  0.2737  0.2984  0.3986
  730SOL    HW1 2918   2.219   1.155   0.228  4.1746  0.7965 -1.4075
  730SOL    HW2 2919   2.107   1.265   0.249  1.3545  1.5453 -1.4567
  730SOL     MW 2920   2.132   1.180   0.237  0.9310  0.5287 -0.0845
  731SOL     OW 2921   2.822   1.814   2.911  0.3953  0.4842  0.4938
  731SOL    HW1 2922   2.735   1.838   2.884 -1.6567 -0.0308  1.8054
  731SOL    HW2 2923   2.880   1.890   2.901 -0.1070 -2.4327  0.4420
  731SOL     MW 2924   2.818   1.827   2.906  0.0583  0.0314  0.6600
  732SOL     OW 2925   2.244   0.940   1.349  0.1118 -0.1978 -0.0998
  732SOL    HW1 2926   2.170   0.931   1.419 -3.8767  1.7468 -1.5084
  732SOL    HW2 2927   2.323   0.903   1.373  0.9928 -2.5983  2.0464
  732SOL     MW 2928   2.244   0.934   1.361 -0.2982 -0.2579 -0.0025
  733SOL     OW 2929   2.352   2.872   3.030 -0.6116 -0.9913  0.3135
  733SOL    HW1 2930   2.281   2.928   2.998 -1.2528  0.5054  1.3170
  733SOL    HW2 2931   2.299   2.795   3.048 -0.8772  0.8383 -1.8284
  733SOL     MW 2932   2.335   2.869   3.028 -0.7313 -0.5524  0.1633
  734SOL     OW 2933   1.487   0.362   2.459  0.0337  0.3837 -0.3991
  734SOL    HW1 2934   1.456   0.311   2.532  4.8397  0.8590 -3.2655
  734SOL    HW2 2935   1.492   0.290   2.397 -0.7635  1.0328 -2.1925
  734SOL     MW 2936   1.483   0.346   2.460  0.5626  0.5320 -1.0139
  735SOL     OW 2937   3.082   0.876   2.674  0.7304  0.6391 -0.0448
  735SOL    HW1 2938   3.039   0.817   2.609  1.3595 -0.7833  0.8012
  735SOL    HW2 2939   3.010   0.913   2.728  0.0983  0.6283 -0.5339
  735SOL     MW 2940   3.067   0.873   2.672  0.7300  0.4500  0.0023
  736SOL     OW 2941   0.030   0.602   2.495  0.2851  0.1058  0.1554
  736SOL    HW1 2942   0.077   0.625   2.412  1.1175 -0.5570 -0.3741
  736SOL    HW2 2943   0.009   0.505   2.480  2.4527 -2.4607  1.6628
  736SOL     MW 2944   0.033   0.592   2.482  0.6809 -0.3203  0.2844
  737SOL     OW 2945   2.888   0.695   2.527  0.1394  0.0370  0.0762
  737SOL    HW1 2946   2.832   0.628   2.480 -0.2205  0.0719  0.6133
  737SOL    HW2 2947   2.981   0.676   2.507 -0.0740  0.0989  3.0704
  737SOL     MW 2948   2.893   0.683   2.518  0.0637  0.0498  0.5421
  738SOL     OW 2949   0.173   0.438   1.972 -0.2096  0.5233  0.2677
  738SOL    HW1 2950   0.247   0.497   1.971  1.6060 -2.3153  4.1217
  738SOL    HW2 2951   0.182   0.372   1.908  0.3436  1.3146  3.2937
  738SOL     MW 2952   0.184   0.437   1.963  0.1029  0.2532  1.1755
  739SOL     OW 2953   2.551   0.982   2.122 -0.0937  0.0567  0.6987
  739SOL    HW1 2954   2.459   0.961   2.117  0.0385 -1.5872 -0.4227
  739SOL    HW2 2955   2.563   1.028   2.036 -4.8892  0.7704  2.1195
  739SOL     MW 2956   2.540   0.986   2.110 -0.7090 -0.0660  0.7382
  740SOL     OW 2957   0.204   1.680   2.959 -0.5116 -0.0544  0.4262
  740SOL    HW1 2958   0.148   1.602   2.969 -1.9864  0.2507  1.3153
  740SOL    HW2 2959   0.289   1.673   3.002 -1.5304  0.5962  1.3188
  740SOL     MW 2960   0.208   1.668   2.966 -0.8406  0.0717  0.6613
  741SOL     OW 2961   2.195   1.210   2.748  0.1194 -0.3465 -0.0744
  741SOL    HW1 2962   2.233   1.291   2.710  2.1448 -0.2994 -1.4004
  741SOL    HW2 2963   2.205   1.236   2.839  2.6517  2.2396 -3.0093
  741SOL     MW 2964   2.201   1.224   2.755  0.7207  0.0010 -0.6366
  742SOL     OW 2965   1.677   1.354   2.357  0.0590  0.1943 -0.5668
  742SOL    HW1 2966   1.606   1.302   2.321  1.0547 -3.1385  0.8831
  742SOL    HW2 2967   1.681   1.332   2.453  2.1549  0.4681  3.1940
  742SOL     MW 2968   1.668   1.344   2.365  0.4669 -0.2093  0.1207
  743SOL     OW 2969   2.526   1.225   2.714 -0.3252 -0.1280 -0.2595
  743SOL    HW1 2970   2.443   1.220   2.750 -2.0074  0.2459  0.5772
  743SOL    HW2 2971   2.580   1.154   2.755 -1.3470  0.8913  3.7067
  743SOL     MW 2972   2.522   1.215   2.724 -0.6819  0.0558  0.3742
  744SOL     OW 2973   2.771   0.925   1.803 -0.3731 -0.2153  0.1608
  744SOL    HW1 2974   2.699   0.979   1.829  0.4913  0.3241  1.7670
  744SOL    HW2 2975   2.766   0.929   1.707 -2.2090  1.3784 -0.2534
  744SOL     MW 2976   2.761   0.933   1.794 -0.5013  0.0662  0.3181
  745SOL     OW 2977   1.750   0.465   2.482  0.5510 -0.2240 -0.3224
  745SOL    HW1 2978   1.728   0.496   2.392  1.0055  2.3764  1.5342
  745SOL    HW2 2979   1.666   0.416   2.499 -0.2658 -1.3511  0.3108
  745SOL     MW 2980   1.736   0.463   2.473  0.5032 -0.0296  0.0061
  746SOL     OW 2981   1.581   1.509   1.693 -0.2124 -0.3353 -0.1269
  746SOL    HW1 2982   1.628   1.581   1.733 -1.8626  0.5232 -1.0571
  746SOL    HW2 2983   1.555   1.451   1.768 -1.3934  0.3048 -0.0804
  746SOL     MW 2984   1.584   1.511   1.708 -0.5859 -0.1376 -0.2435
  747SOL     OW 2985   2.584   1.116   1.866  0.3310 -0.0198 -0.0251
  747SOL    HW1 2986   2.494   1.105   1.836 -1.9984 -1.0616 -2.7798
  747SOL    HW2 2987   2.594   1.204   1.906  0.5356  0.7084  0.7220
  747SOL     MW 2988   2.574   1.126   1.867  0.0506 -0.0612 -0.2900
  748SOL     OW 2989   0.101   3.083   1.928  0.5005  0.3883  0.1757
  748SOL    HW1 2990   0.186   3.120   1.926  0.9526 -0.0009  0.1208
  748SOL    HW2 2991   0.062   3.157   1.976 -0.0487 -0.2997  1.3706
  748SOL     MW 2992   0.107   3.098   1.934  0.4877  0.2462  0.3261
  749SOL     OW 2993   2.405   0.649   2.777 -0.5485 -0.3796  0.6905
  749SOL    HW1 2994   2.420   0.717   2.700  2.4510 -0.5979 -1.9738
  749SOL    HW2 2995   2.428   0.690   2.856 -0.2517 -1.0814 -1.3323
  749SOL     MW 2996   2.410   0.663   2.777 -0.1136 -0.5010  0.0721
  750SOL     OW 2997   2.130   3.028   1.966 -0.3368 -0.5302 -0.6747
  750SOL    HW1 2998   2.190   3.110   1.966 -1.7351  1.2776 -1.5354
  750SOL    HW2 2999   2.191   2.950   1.939  0.4751  0.7023 -1.8246
  750SOL     MW 3000   2.146   3.029   1.962 -0.4141 -0.1290 -0.9400
  751SOL     OW 3001   3.053   0.343   2.448  0.1599  0.1908 -0.6367
  751SOL    HW1 3002   2.986   0.339   2.378 -0.8974  1.0030 -3.7845
  751SOL    HW2 3003   3.135   0.322   2.408 -0.9695  0.1688  2.1410
  751SOL     MW 3004   3.055   0.339   2.434 -0.1286  0.2950 -0.6856
  752SOL     OW 3005   2.139   0.922   2.766 -0.2329  0.1582 -0.1656
  752SOL    HW1 3006   2.166   1.013   2.785 -1.6216  0.1229 -0.9612
  752SOL    HW2 3007   2.122   0.876   2.850 -0.3510 -1.6185  0.0376
  752SOL     MW 3008   2.140   0.928   2.780 -0.4317 -0.0809 -0.2438
  753SOL     OW 3009   2.844   0.347   2.263 -0.1926  0.9553  0.2150
  753SOL    HW1 3010   2.790   0.269   2.262 -0.7042  0.3983 -3.2423
  753SOL    HW2 3011   2.793   0.413   2.311 -0.6551  0.1024 -0.6705
  753SOL     MW 3012   2.830   0.345   2.269 -0.3212  0.7693 -0.3580
  754SOL     OW 3013   2.289   2.963   2.614  0.2267 -0.3128  0.5844
  754SOL    HW1 3014   2.309   2.932   2.523 -0.6559  0.6549 -0.4976
  754SOL    HW2 3015   2.365   2.928   2.663  1.3964  0.2366 -0.9273
  754SOL     MW 3016   2.302   2.955   2.609  0.2646 -0.1126  0.2422
  755SOL     OW 3017   2.770   1.607   2.453  0.4238 -0.7961  0.0669
  755SOL    HW1 3018   2.755   1.514   2.442  0.9494  0.9270  0.5173
  755SOL    HW2 3019   2.820   1.619   2.534  1.2971  0.3957  1.0806
  755SOL     MW 3020   2.775   1.596   2.462  0.6084 -0.4115  0.2601
  756SOL     OW 3021   2.164   1.261   3.025  0.4811  0.4670 -0.3070
  756SOL    HW1 3022   2.246   1.314   3.036 -2.2418  0.6551 -0.1269
  756SOL    HW2 3023   2.179   1.168   3.040 -3.2301 -0.8325  0.8016
  756SOL     MW 3024   2.176   1.256   3.029 -0.3678  0.3203 -0.1370
  757SOL     OW 3025   2.177   0.930   1.726 -0.0806 -0.2396 -0.4345
  757SOL    HW1 3026   2.188   0.830   1.730  3.2384  0.7316 -0.8028
  757SOL    HW2 3027   2.126   0.940   1.643  1.2478  0.2866 -4.1145
  757SOL     MW 3028   2.172   0.918   1.716  0.5326 -0.0420 -0.9686
  758SOL     OW 3029   2.247   1.876   2.614 -0.0327  0.1217 -0.2044
  758SOL    HW1 3030   2.235   1.900   2.523 -0.4506  0.5354 -3.0508
  758SOL    HW2 3031   2.325   1.820   2.608 -0.9321 -0.8905 -0.9453
  758SOL     MW 3032   2.256   1.872   2.602 -0.2065  0.0428 -0.6777
  759SOL     OW 3033   1.526   1.434   2.790 -0.0577  0.3505 -0.3000
  759SOL    HW1 3034   1.545   1.516   2.737  0.5257 -1.2602 -0.9944
  759SOL    HW2 3035   1.576   1.436   2.871  1.0791  0.1349  2.6619
  759SOL     MW 3036   1.535   1.445   2.794  0.1692  0.1095 -0.0008
  760SOL     OW 3037   2.596   1.972   2.724 -0.2518  0.7186  0.3210
  760SOL    HW1 3038   2.550   1.889   2.722  0.6896  0.1707  1.8362
  760SOL    HW2 3039   2.670   1.962   2.668  0.0743  1.0198  0.2119
  760SOL     MW 3040   2.600   1.960   2.717 -0.0846  0.6861  0.5065
  761SOL     OW 3041   2.187   0.484   2.455 -0.0750 -0.7360  0.2416
  761SOL    HW1 3042   2.101   0.439   2.464 -0.4936 -0.0281  0.2815
  761SOL    HW2 3043   2.193   0.517   2.545  1.7823  3.8357  0.8403
  761SOL     MW 3044   2.177   0.482   2.468  0.1148 -0.0394  0.3258
  762SOL     OW 3045   0.022   0.185   2.133  0.0634 -0.2178 -0.7597
  762SOL    HW1 3046   0.011   0.122   2.206 -0.6416  2.3869  1.2118
  762SOL    HW2 3047  -0.062   0.224   2.107 -0.6418 -0.8340 -0.1469
  762SOL     MW 3048   0.010   0.182   2.139 -0.1227  0.0446 -0.4187
  763SOL     OW 3049   2.471   1.189   2.331 -0.1334 -0.3895 -0.2297
  763SOL    HW1 3050   2.468   1.123   2.260 -2.2548 -0.9694 -4.7126
  763SOL    HW2 3051   2.560   1.224   2.329 -1.9566  0.7552 -2.3960
  763SOL     MW 3052   2.482   1.185   2.321 -0.6539 -0.3150 -1.1070
  764SOL     OW 3053   0.386   0.124   2.792 -0.0736  0.6256 -0.2803
  764SOL    HW1 3054   0.326   0.161   2.736 -0.0440 -0.8055  0.6788
  764SOL    HW2 3055   0.393   0.188   2.863 -1.9649  0.7163 -0.7103
  764SOL     MW 3056   0.379   0.137   2.794 -0.3192  0.4487 -0.2105
  765SOL     OW 3057   2.693   0.122   2.288 -0.5692  0.1101  0.1558
  765SOL    HW1 3058   2.663   0.095   2.200  2.8988 -0.8870 -0.7663
  765SOL    HW2 3059   2.738   0.045   2.332 -0.2884 -2.1262  0.6787
  765SOL     MW 3060   2.695   0.108   2.282 -0.0746 -0.3165  0.1032
  766SOL     OW 3061   1.931   3.069   2.152 -0.3281  0.1874 -0.6140
  766SOL    HW1 3062   2.005   3.067   2.086  0.8145 -3.2925 -0.7629
  766SOL    HW2 3063   1.861   3.019   2.115 -0.2857 -1.6786 -2.3749
  766SOL     MW 3064   1.932   3.062   2.138 -0.1718 -0.5180 -0.8660
  767SOL     OW 3065   2.655   0.635   1.931 -0.7677  0.0668  0.6665
  767SOL    HW1 3066   2.720   0.666   1.993  1.4615  1.5029  0.4427
  767SOL    HW2 3067   2.591   0.708   1.914 -0.3473 -0.2629 -0.5486
  767SOL     MW 3068   2.655   0.649   1.937 -0.4181  0.2128  0.4767
  768SOL     OW 3069   3.093   1.497   2.989  0.1728 -0.1091  0.4037
  768SOL    HW1 3070   3.121   1.495   3.082  1.2761  0.6534 -3.1196
  768SOL    HW2 3071   3.131   1.418   2.949 -0.5007 -1.7329 -1.8827
  768SOL     MW 3072   3.102   1.486   2.996  0.2295 -0.2228 -0.3628
  769SOL     OW 3073   2.334   0.679   2.357 -0.3709 -0.4593  0.7928
  769SOL    HW1 3074   2.294   0.594   2.384 -1.9552 -2.2047 -1.0778
  769SOL    HW2 3075   2.397   0.645   2.296  0.8534 -1.3442  0.5623
  769SOL     MW 3076   2.337   0.663   2.353 -0.4184 -0.8063  0.5156
  770SOL     OW 3077   0.046   1.597   2.611 -0.4555  0.1754 -0.3005
  770SOL    HW1 3078  -0.048   1.592   2.636  0.5587 -1.1183 -2.5337
  770SOL    HW2 3079   0.075   1.509   2.642  0.6416  0.5591 -1.0740
  770SOL     MW 3080   0.037   1.585   2.618 -0.1769  0.0554 -0.6972
  771SOL     OW 3081   3.063   0.607   1.960 -0.5684  0.0760 -0.0396
  771SOL    HW1 3082   3.040   0.594   1.867  1.6524 -3.1822 -2.8317
  771SOL    HW2 3083   3.141   0.558   1.970 -3.3231  2.3989 -0.9271
  771SOL     MW 3084   3.070   0.599   1.949 -0.6389 -0.0474 -0.5251
  772SOL     OW 3085   0.028   3.106   2.341  0.3030 -0.6934  0.2658
  772SOL    HW1 3086  -0.041   3.064   2.385 -0.9680  0.9397 -2.5246
  772SOL    HW2 3087   0.080   3.031   2.310  0.7602  1.9527 -1.5034
  772SOL     MW 3088   0.026   3.090   2.342  0.1956 -0.1288 -0.3358
  773SOL     OW 3089   2.486   2.888   2.794  0.3348 -1.0309  0.0216
  773SOL    HW1 3090   2.502   2.801   2.760 -0.8791 -2.8215  4.0722
  773SOL    HW2 3091   2.455   2.871   2.888 -0.9457  0.5531  3.3491
  773SOL     MW 3092   2.484   2.874   2.802  0.0057 -1.0581  0.9951
  774SOL     OW 3093   2.361   1.137   1.753 -0.5145  0.1591  0.2177
  774SOL    HW1 3094   2.336   1.224   1.726  1.0804  0.6495  1.2022
  774SOL    HW2 3095   2.289   1.070   1.724  0.7094 -1.0360 -0.1068
  774SOL     MW 3096   2.348   1.139   1.745 -0.1426  0.0661  0.3048
  775SOL     OW 3097   2.303   2.907   2.330  0.1010  0.8953 -0.4949
  775SOL    HW1 3098   2.320   3.000   2.310 -1.9350 -0.3991 -1.8642
  775SOL    HW2 3099   2.384   2.858   2.305  0.1650  1.8943 -0.4925
  775SOL     MW 3100   2.316   2.913   2.324 -0.1592  0.8563 -0.6752
  776SOL     OW 3101   0.121   1.510   0.122 -0.0652  0.1258  0.3073
  776SOL    HW1 3102   0.216   1.500   0.111 -0.3588  2.1550 -1.0418
  776SOL    HW2 3103   0.098   1.430   0.175  0.4899 -1.3485  0.4636
  776SOL     MW 3104   0.131   1.498   0.127 -0.0307  0.1990  0.1499
  777SOL     OW 3105   2.954   1.110   1.757  0.4995 -0.4323 -0.1799
  777SOL    HW1 3106   2.918   1.159   1.687  2.1196  3.2883 -0.2021
  777SOL    HW2 3107   2.874   1.072   1.803 -0.6567 -1.7353 -0.4543
  777SOL     MW 3108   2.939   1.112   1.754  0.5607 -0.1134 -0.2190
  778SOL     OW 3109   2.881   0.466   2.748 -0.5134 -0.4557  0.1116
  778SOL    HW1 3110   2.807   0.469   2.812  1.0611  1.3248  2.6413
  778SOL    HW2 3111   2.872   0.545   2.695 -2.2304 -1.3459 -0.3503
  778SOL     MW 3112   2.870   0.476   2.749 -0.5322 -0.3383  0.3844
  779SOL     OW 3113   2.262   0.425   2.112  0.4955  0.7376  0.1292
  779SOL    HW1 3114   2.180   0.440   2.165 -1.2432  3.3805  1.8992
  779SOL    HW2 3115   2.269   0.334   2.126  0.0297  1.1871  0.0237
  779SOL     MW 3116   2.252   0.415   2.121  0.2047  1.1456  0.3488
  780SOL     OW 3117   0.150   0.241   2.696  0.1204 -0.0918  0.1851
  780SOL    HW1 3118   0.098   0.193   2.765  0.6737  2.2204 -0.2523
  780SOL    HW2 3119   0.149   0.331   2.734 -1.0764 -0.9142 -1.6471
  780SOL     MW 3120   0.143   0.247   2.710  0.0355  0.1047 -0.1143
  781SOL     OW 3121   3.063   1.327   2.490 -0.3061  0.2888  0.3733
  781SOL    HW1 3122   3.022   1.364   2.408  0.6501  3.9704 -0.3542
  781SOL    HW2 3123   3.085   1.234   2.468  1.2979 -0.4471 -1.1731
  781SOL     MW 3124   3.061   1.319   2.476  0.0317  0.6775  0.0733
  782SOL     OW 3125   0.673   1.494   0.095 -1.0286 -0.2562  0.1723
  782SOL    HW1 3126   0.602   1.555   0.077  1.7969  2.2819  1.4672
  782SOL    HW2 3127   0.702   1.486   0.183  0.8944  0.3758 -0.5983
  782SOL     MW 3128   0.668   1.501   0.104 -0.4021  0.1620  0.2415
  783SOL     OW 3129   2.724   0.543   2.397  0.2383  0.6917  0.3259
  783SOL    HW1 3130   2.681   0.611   2.347  0.3044  1.2636  0.2169
  783SOL    HW2 3131   2.662   0.536   2.476 -1.1479  4.6675 -0.0221
  783SOL     MW 3132   2.711   0.551   2.401  0.0641  1.2917  0.2656
  784SOL     OW 3133   0.195   0.850   2.866 -0.2498  0.6792  0.0312
  784SOL    HW1 3134   0.103   0.847   2.827 -1.6483 -2.2774  0.2704
  784SOL    HW2 3135   0.242   0.892   2.799 -0.2348 -0.2990  1.2268
  784SOL     MW 3136   0.189   0.855   2.852 -0.4323  0.1600  0.2205
  785SOL     OW 3137   0.438   0.404   2.179  0.5904  0.7203 -0.2394
  785SOL    HW1 3138   0.412   0.436   2.091  0.3028  2.7485  2.1852
  785SOL    HW2 3139   0.362   0.358   2.218  1.0116 -2.6363 -0.3770
  785SOL     MW 3140   0.424   0.402   2.173  0.6080  0.5450  0.0623
  786SOL     OW 3141   1.894   0.426   3.093  0.1684 -0.2131 -0.7037
  786SOL    HW1 3142   1.824   0.476   3.124  0.3470  1.7735 -0.6276
  786SOL    HW2 3143   1.885   0.436   3.000  0.9649  0.9205 -2.5447
  786SOL     MW 3144   1.884   0.434   3.085  0.2970  0.1986 -0.9366
  787SOL     OW 3145   2.464   0.165   2.934 -0.3004 -0.2678 -0.4782
  787SOL    HW1 3146   2.540   0.127   2.901  1.6074 -2.6639  0.8736
  787SOL    HW2 3147   2.497   0.238   2.987  0.6464  1.1009  0.2938
  787SOL     MW 3148   2.478   0.170   2.936  0.0762 -0.4034 -0.1980
  788SOL     OW 3149   2.849   2.995   2.420 -0.3917  0.3696 -0.0652
  788SOL    HW1 3150   2.864   2.937   2.495 -0.2859  1.4137  0.8333
  788SOL    HW2 3151   2.864   2.935   2.346 -2.7824 -0.4956 -0.8027
  788SOL     MW 3152   2.853   2.980   2.420 -0.6932  0.3932 -0.0440
  789SOL     OW 3153   0.109   0.176   3.082 -0.0871  0.7315 -0.4630
  789SOL    HW1 3154   0.059   0.097   3.097 -3.8156  0.4715 -0.3117
  789SOL    HW2 3155   0.053   0.241   3.044 -0.3864 -0.6202 -0.2036
  789SOL     MW 3156   0.095   0.174   3.079 -0.6185  0.5188 -0.4088
  790SOL     OW 3157   0.015   1.044   2.414  0.2034  0.2902 -0.3959
  790SOL    HW1 3158   0.011   0.994   2.495  2.6707 -1.5827  0.3092
  790SOL    HW2 3159  -0.068   1.017   2.360 -1.0635 -0.6246 -2.5728
  790SOL     MW 3160   0.003   1.034   2.417  0.3618 -0.0776 -0.5901
  791SOL     OW 3161   2.530   0.482   2.603 -0.2043  0.1276  0.2872
  791SOL    HW1 3162   2.490   0.537   2.672 -0.7152  1.9878 -2.5021
  791SOL    HW2 3163   2.525   0.397   2.644  0.7281  0.1733 -2.9630
  791SOL     MW 3164   2.524   0.478   2.618 -0.1487  0.3790 -0.5097
  792SOL     OW 3165   2.373   0.219   2.446 -0.8067  0.8137 -0.4924
  792SOL    HW1 3166   2.373   0.312   2.447 -0.5296 -0.9287  1.6475
  792SOL    HW2 3167   2.318   0.200   2.521 -1.6564 -0.5926  0.1150
  792SOL     MW 3168   2.366   0.229   2.456 -0.8822  0.3983 -0.1299
  793SOL     OW 3169   1.806   1.085   2.016  0.0273  0.0539  0.0869
  793SOL    HW1 3170   1.768   1.067   1.931  4.0971  0.7075  1.7703
  793SOL    HW2 3171   1.902   1.088   1.999  2.3513 -1.3423  0.1828
  793SOL     MW 3172   1.814   1.083   2.002  0.8709 -0.0441  0.3217
  794SOL     OW 3173   1.368   2.321   0.116 -0.0842  0.3667  0.2811
  794SOL    HW1 3174   1.415   2.389   0.081  0.1233 -4.4321  0.9839
  794SOL    HW2 3175   1.438   2.295   0.183  0.9208 -0.9174  1.9359
  794SOL     MW 3176   1.384   2.327   0.120  0.0758 -0.4359  0.5922
  795SOL     OW 3177   2.302   1.053   2.533  0.1178 -0.3858  0.1463
  795SOL    HW1 3178   2.254   1.103   2.600  0.5612 -1.7589  0.0179
  795SOL    HW2 3179   2.366   1.115   2.502 -2.3572  1.3150 -2.3048
  795SOL     MW 3180   2.304   1.068   2.538 -0.1503 -0.3425 -0.1941
  796SOL     OW 3181   0.238   0.613   2.682 -0.2822  0.2011 -0.6060
  796SOL    HW1 3182   0.214   0.694   2.727  0.1070  0.8056 -0.3825
  796SOL    HW2 3183   0.167   0.597   2.620 -1.4864 -0.9922  0.7745
  796SOL     MW 3184   0.226   0.621   2.680 -0.3897  0.1234 -0.3944
  797SOL     OW 3185   2.627   0.171   2.591 -0.5493 -0.3774 -0.0165
  797SOL    HW1 3186   2.555   0.177   2.536 -0.6281  2.5914 -3.6471
  797SOL    HW2 3187   2.692   0.200   2.529 -0.8827 -0.9555 -1.6513
  797SOL     MW 3188   2.626   0.175   2.575 -0.6036 -0.0620 -0.7112
  798SOL     OW 3189   2.373   0.052   2.219  0.7279 -0.2596 -0.5016
  798SOL    HW1 3190   2.403   0.118   2.288 -1.1362 -0.3778  0.0506
  798SOL    HW2 3191   2.452   0.047   2.168  1.2983  0.4421  0.3377
  798SOL     MW 3192   2.387   0.060   2.221  0.5572 -0.1826 -0.3180
  799SOL     OW 3193   2.554   2.981   0.125  0.4583  0.0100  0.2313
  799SOL    HW1 3194   2.477   2.956   0.075 -1.5589  1.1570 -1.3435
  799SOL    HW2 3195   2.543   2.963   0.218  0.3707  1.6415  0.9133
  799SOL     MW 3196   2.543   2.975   0.131  0.1806  0.3766  0.1135
  800SOL     OW 3197   1.933   3.068   1.767  0.4188 -0.0243  0.4234
  800SOL    HW1 3198   1.871   2.996   1.770  1.2515  1.2544  0.6268
  800SOL    HW2 3199   1.990   3.052   1.843 -1.1520  2.1336 -2.0757
  800SOL     MW 3200   1.932   3.056   1.777  0.3214  0.4292  0.1205
  801SOL     OW 3201   2.833   1.222   2.618 -0.4647  0.0922 -0.2979
  801SOL    HW1 3202   2.852   1.128   2.607 -0.9041 -1.8634  0.8887
  801SOL    HW2 3203   2.911   1.274   2.604 -1.5742  1.4252  0.6652
  801SOL     MW 3204   2.846   1.217   2.615 -0.6691  0.0101 -0.0143
  802SOL     OW 3205   2.592   1.470   2.771 -0.0033 -0.1672  0.0787
  802SOL    HW1 3206   2.566   1.395   2.725 -0.7436 -0.0574 -0.1749
  802SOL    HW2 3207   2.664   1.451   2.838  0.5740 -0.6791 -0.1791
  802SOL     MW 3208   2.598   1.458   2.774 -0.0248 -0.2202  0.0112
  803SOL     OW 3209   2.273   1.380   2.018 -0.0274 -0.2012  0.6364
  803SOL    HW1 3210   2.246   1.348   2.104  0.7824 -0.0850  0.6066
  803SOL    HW2 3211   2.237   1.320   1.952 -0.3635  0.2631 -0.5521
  803SOL     MW 3212   2.265   1.368   2.021  0.0351 -0.1246  0.4757
  804SOL     OW 3213   2.296   0.079   0.032  0.0085 -0.7620  0.3123
  804SOL    HW1 3214   2.221   0.141   0.020 -0.3982 -1.2438  1.3751
  804SOL    HW2 3215   2.368   0.113  -0.031  1.3052 -0.5021  0.4869
  804SOL     MW 3216   2.296   0.092   0.022  0.1259 -0.7913  0.4755
  805SOL     OW 3217   2.728   0.894   2.646  0.4642  0.4460 -0.2882
  805SOL    HW1 3218   2.647   0.864   2.601  1.9839  1.2757  0.3686
  805SOL    HW2 3219   2.794   0.846   2.601 -0.9395  0.2844 -1.5080
  805SOL     MW 3220   2.726   0.884   2.634  0.4795  0.5341 -0.3625
  806SOL     OW 3221   2.577   0.691   2.214 -0.4362 -0.3435 -1.2776
  806SOL    HW1 3222   2.585   0.630   2.142  0.2589 -0.3311 -0.9155
  806SOL    HW2 3223   2.564   0.781   2.182 -1.8236  1.0505  0.5253
  806SOL     MW 3224   2.576   0.695   2.200 -0.5275 -0.1580 -0.9920
  807SOL     OW 3225   0.082   1.084   2.065  0.5263 -0.8639 -0.1295
  807SOL    HW1 3226   0.099   0.993   2.047  2.3178  2.9574 -1.8049
  807SOL    HW2 3227  -0.003   1.100   2.016 -1.1411 -0.3111  0.0354
  807SOL     MW 3228   0.073   1.074   2.056  0.5426 -0.2868 -0.3288
  808SOL     OW 3229   2.663   3.094   2.812  0.3782 -0.8550  0.1265
  808SOL    HW1 3230   2.587   3.038   2.832  0.7320 -0.2936 -2.1011
  808SOL    HW2 3231   2.657   3.143   2.725  1.6169 -0.7469 -1.4756
  808SOL     MW 3232   2.652   3.093   2.803  0.5883 -0.7667 -0.3788
  809SOL     OW 3233   2.692   1.357   2.388  0.0413 -0.2871 -0.0692
  809SOL    HW1 3234   2.729   1.302   2.460 -0.1119  0.9301  0.5388
  809SOL    HW2 3235   2.732   1.334   2.299 -0.1654  3.3076  0.1225
  809SOL     MW 3236   2.702   1.346   2.386 -0.0062  0.3478  0.0363
  810SOL     OW 3237   2.237   1.338   2.301  0.4377 -0.5229  0.1006
  810SOL    HW1 3238   2.295   1.267   2.324 -1.2591 -0.0881 -2.4085
  810SOL    HW2 3239   2.154   1.326   2.348 -0.1102  1.1881 -0.2417
  810SOL     MW 3240   2.233   1.327   2.311  0.1416 -0.2398 -0.2756
  811SOL     OW 3241   1.584   0.156   2.305 -0.3635 -0.0997  0.4170
  811SOL    HW1 3242   1.678   0.131   2.307  0.1980 -1.5629 -1.2756
  811SOL    HW2 3243   1.558   0.155   2.217 -0.0164 -0.3525  1.7845
  811SOL     MW 3244   1.593   0.152   2.293 -0.2436 -0.3261  0.3741
  812SOL     OW 3245   1.466   2.835   2.039  0.4316 -0.6440 -0.3059
  812SOL    HW1 3246   1.559   2.862   2.033  0.9204 -1.5679  0.9236
  812SOL    HW2 3247   1.451   2.828   2.134 -0.1837 -1.0872  0.4219
  812SOL     MW 3248   1.477   2.838   2.050  0.4149 -0.8244 -0.0477
  813SOL     OW 3249   2.026   0.611   2.249 -0.5499 -0.2185 -0.1018
  813SOL    HW1 3250   1.939   0.586   2.238 -1.0722 -0.0818 -1.8282
  813SOL    HW2 3251   2.023   0.689   2.306  1.6504  2.6783  1.9395
  813SOL     MW 3252   2.014   0.618   2.255 -0.3285  0.1817 -0.0602
  814SOL     OW 3253   2.697   1.217   1.653  0.1955 -0.4729  0.4299
  814SOL    HW1 3254   2.670   1.181   1.741 -1.3097 -1.3410 -1.3533
  814SOL    HW2 3255   2.685   1.145   1.594 -1.1087  1.4330  0.1231
  814SOL     MW 3256   2.692   1.203   1.657 -0.1752 -0.3360  0.1542
  815SOL     OW 3257   2.542   1.760   2.411  0.0727 -0.0738 -0.0995
  815SOL    HW1 3258   2.486   1.681   2.380 -3.5053 -1.9783 -0.5029
  815SOL    HW2 3259   2.627   1.719   2.422  0.2280 -1.4024 -0.5101
  815SOL     MW 3260   2.546   1.744   2.408 -0.3789 -0.5004 -0.2069
  816SOL     OW 3261   0.750   0.707   2.778 -0.1487 -0.3306 -0.1670
  816SOL    HW1 3262   0.777   0.620   2.800 -0.8474  4.3305 -2.8488
  816SOL    HW2 3263   0.654   0.685   2.744  1.6357 -1.0668 -0.7151
  816SOL     MW 3264   0.741   0.693   2.777 -0.0054  0.1873 -0.5932
  817SOL     OW 3265   2.985   1.238   1.457  0.5416 -0.0055  0.2349
  817SOL    HW1 3266   3.065   1.212   1.500 -1.3716  1.7248 -0.2658
  817SOL    HW2 3267   2.992   1.338   1.445  0.1548  1.6779 -0.5307
  817SOL     MW 3268   2.996   1.248   1.461  0.2381  0.4449  0.0678
  818SOL     OW 3269   1.906   1.051   2.634  0.7081 -0.1575  0.2140
  818SOL    HW1 3270   1.879   0.980   2.569  2.1125 -4.6361 -1.2448
  818SOL    HW2 3271   1.990   1.019   2.676 -0.7502 -0.7674 -1.7048
  818SOL     MW 3272   1.914   1.037   2.631  0.7010 -0.8288 -0.2316
  819SOL     OW 3273   1.970   0.323   2.491 -0.0616 -0.2519 -0.1716
  819SOL    HW1 3274   1.892   0.385   2.486  0.8559 -0.2104  3.8246
  819SOL    HW2 3275   1.995   0.335   2.584  0.2394 -0.4353  0.0151
  819SOL     MW 3276   1.963   0.333   2.503  0.0992 -0.2706  0.3803
  820SOL     OW 3277   2.453   1.669   2.636 -0.2732  0.1183 -0.0535
  820SOL    HW1 3278   2.514   1.604   2.675  1.3914  1.2592 -0.6787
  820SOL    HW2 3279   2.500   1.696   2.553  1.4875  0.3842  1.6029
  820SOL     MW 3280   2.467   1.664   2.630  0.1788  0.3039  0.0825
  821SOL     OW 3281   2.570   1.369   1.988 -0.2095  0.0676 -0.2328
  821SOL    HW1 3282   2.591   1.428   1.917 -1.0267 -4.0868  0.5776
  821SOL    HW2 3283   2.478   1.384   1.999 -0.9387 -2.3437  2.0317
  821SOL     MW 3284   2.561   1.379   1.980 -0.4136 -0.7987  0.1729
  822SOL     OW 3285   2.894   2.738   1.467 -0.4644 -0.5859 -0.3282
  822SOL    HW1 3286   2.893   2.700   1.552 -1.5625 -0.8398  0.8866
  822SOL    HW2 3287   2.926   2.826   1.475  1.3928  1.1380  1.5341
  822SOL     MW 3288   2.898   2.745   1.479 -0.3642 -0.3920  0.0778
  823SOL     OW 3289   2.374   0.523   1.847 -0.1334  0.4572 -0.3651
  823SOL    HW1 3290   2.454   0.485   1.812  4.3107  1.7532 -1.6423
  823SOL    HW2 3291   2.338   0.478   1.920 -1.3478 -1.3192 -1.3947
  823SOL     MW 3292   2.380   0.512   1.852  0.2927  0.3939 -0.6695
  824SOL     OW 3293   2.273   1.465   2.667 -0.2788 -0.2787 -0.3129
  824SOL    HW1 3294   2.347   1.514   2.631 -0.7455 -0.0098  0.3362
  824SOL    HW2 3295   2.210   1.538   2.682  1.1382 -1.6511  1.6873
  824SOL     MW 3296   2.274   1.481   2.664 -0.1534 -0.4243  0.0366
  825SOL     OW 3297   1.891   2.557   0.260  0.5703 -0.2074 -0.1913
  825SOL    HW1 3298   1.843   2.481   0.306  0.1437 -3.6759  0.2267
  825SOL    HW2 3299   1.959   2.510   0.212  0.7811 -0.1640  3.0014
  825SOL     MW 3300   1.894   2.541   0.259  0.5419 -0.6593  0.2851
  826SOL     OW 3301   1.793   2.382   0.435  0.0314  0.1959  0.1417
  826SOL    HW1 3302   1.748   2.311   0.488 -1.7995 -0.0893  1.2130
  826SOL    HW2 3303   1.782   2.463   0.488 -2.0471 -1.2592  4.7407
  826SOL     MW 3304   1.786   2.383   0.449 -0.4844 -0.0337  0.8898
  827SOL     OW 3305   1.890   2.197   0.797 -0.4760 -0.5907 -0.1431
  827SOL    HW1 3306   1.826   2.229   0.732  0.1846  0.9358 -0.8052
  827SOL    HW2 3307   1.840   2.136   0.845  2.2650 -0.8835  1.5707
  827SOL     MW 3308   1.875   2.193   0.795 -0.0272 -0.4279 -0.0043
  828SOL     OW 3309   0.048   2.613   0.573 -0.2825 -0.4956 -0.0060
  828SOL    HW1 3310   0.144   2.603   0.552 -0.8511  2.8353  1.1434
  828SOL    HW2 3311   0.003   2.645   0.495  0.5756  2.9609  1.7697
  828SOL     MW 3312   0.055   2.616   0.560 -0.2443  0.3999  0.3799
  829SOL     OW 3313   2.994   2.928   1.198  0.0291 -0.1594 -0.1274
  829SOL    HW1 3314   2.922   2.939   1.138  0.0722  0.6336  3.4638
  829SOL    HW2 3315   3.037   2.841   1.176  1.7182  0.6450 -0.7767
  829SOL     MW 3316   2.990   2.918   1.187  0.2576  0.0514  0.2608
  830SOL     OW 3317   2.579   2.811   2.029  0.2042 -0.0682 -0.1524
  830SOL    HW1 3318   2.485   2.828   2.001  2.1309  0.4235  1.1819
  830SOL    HW2 3319   2.614   2.770   1.948 -0.2393  1.1726  0.7916
  830SOL     MW 3320   2.572   2.808   2.015  0.3999  0.1604  0.1482
  831SOL     OW 3321   2.350   2.443   1.172 -0.3858  0.4563 -0.2111
  831SOL    HW1 3322   2.314   2.376   1.238 -0.9431  0.9964  0.3038
  831SOL    HW2 3323   2.444   2.421   1.165 -1.6576 -1.0328 -0.6942
  831SOL     MW 3324   2.358   2.431   1.180 -0.6271  0.3311 -0.2069
  832SOL     OW 3325   2.359   2.188   1.862 -0.1583 -0.1593  0.0769
  832SOL    HW1 3326   2.389   2.270   1.901  2.1290 -1.0359  0.8323
  832SOL    HW2 3327   2.441   2.153   1.823  1.1493  0.2017 -1.0645
  832SOL     MW 3328   2.374   2.194   1.862  0.3160 -0.2274  0.0260
  833SOL     OW 3329   1.727   2.467   0.869  0.4529  0.1953 -0.4660
  833SOL    HW1 3330   1.674   2.404   0.915  1.1309  0.2983 -1.0447
  833SOL    HW2 3331   1.708   2.545   0.917 -0.4382 -5.5668 -2.0996
  833SOL     MW 3332   1.717   2.469   0.881  0.4248 -0.5513 -0.7579
  834SOL     OW 3333   2.067   2.430   0.589 -0.4425  0.4687  0.0636
  834SOL    HW1 3334   1.973   2.425   0.569  0.7365 -1.1549  1.3353
  834SOL    HW2 3335   2.118   2.412   0.510  0.0296  1.9388 -1.1770
  834SOL     MW 3336   2.061   2.427   0.576 -0.2247  0.4484  0.0677
  835SOL     OW 3337   1.763   2.569   0.635 -0.1343 -0.0903 -0.3877
  835SOL    HW1 3338   1.706   2.521   0.705 -2.7995 -1.7933  1.1937
  835SOL    HW2 3339   1.840   2.604   0.684  1.2166  4.4846  1.5723
  835SOL     MW 3340   1.765   2.567   0.651 -0.3077  0.2887  0.0795
  836SOL     OW 3341   1.900   2.168   1.574  0.1287 -0.0633  0.0972
  836SOL    HW1 3342   1.979   2.211   1.600  0.6029  0.0788  0.5083
  836SOL    HW2 3343   1.827   2.231   1.595  0.6810  1.2649  2.1740
  836SOL     MW 3344   1.901   2.182   1.580  0.2641  0.1307  0.4254
  837SOL     OW 3345   2.129   0.239   0.683 -0.3947 -0.1108 -0.4818
  837SOL    HW1 3346   2.034   0.252   0.654  1.4160  3.1302  0.0344
  837SOL    HW2 3347   2.155   0.160   0.639  1.2964  0.6834  0.5398
  837SOL     MW 3348   2.119   0.230   0.673  0.0674  0.4216 -0.2789
  838SOL     OW 3349   2.921   2.034   0.937 -0.0156  0.1664  0.0944
  838SOL    HW1 3350   2.840   1.980   0.938 -0.4486 -0.6310  0.8568
  838SOL    HW2 3351   2.996   1.981   0.916 -1.5047 -0.8986 -1.4642
  838SOL     MW 3352   2.920   2.020   0.934 -0.2692 -0.0793 -0.0106
  839SOL     OW 3353   1.527   2.331   1.052 -0.2518 -0.3452  0.4173
  839SOL    HW1 3354   1.535   2.407   1.112 -2.1393 -1.0432 -1.3132
  839SOL    HW2 3355   1.545   2.256   1.112 -0.4163  1.4287 -0.7472
  839SOL     MW 3356   1.531   2.331   1.068 -0.5226 -0.2033  0.0353
  840SOL     OW 3357   2.364   2.167   2.468 -0.1821 -0.3189  0.4186
  840SOL    HW1 3358   2.317   2.220   2.409  0.5203 -1.7381  0.4626
  840SOL    HW2 3359   2.370   2.207   2.554 -0.6755 -1.8004 -1.9306
  840SOL     MW 3360   2.359   2.179   2.472 -0.1545 -0.7016  0.1144
  841SOL     OW 3361   2.085   2.453   0.122  0.5908  0.4748  0.5763
  841SOL    HW1 3362   2.108   2.532   0.070 -0.4374  0.4561 -2.2362
  841SOL    HW2 3363   2.068   2.385   0.058  0.9792 -0.7668 -2.4266
  841SOL     MW 3364   2.086   2.455   0.107  0.5063  0.3085 -0.1910
  842SOL     OW 3365   2.675   2.083   1.528 -0.8165  0.3277  0.0476
  842SOL    HW1 3366   2.621   2.044   1.595  1.2521 -1.7759  0.7020
  842SOL    HW2 3367   2.621   2.081   1.444  1.8439 -0.2549 -1.5702
  842SOL     MW 3368   2.661   2.078   1.526 -0.1926 -0.0267 -0.0795
  843SOL     OW 3369   2.665   2.768   1.774  0.6486  0.8675 -0.4189
  843SOL    HW1 3370   2.756   2.726   1.760  1.3644 -3.3065  1.6535
  843SOL    HW2 3371   2.604   2.690   1.740 -1.9797  2.4415  0.8474
  843SOL     MW 3372   2.669   2.752   1.767  0.3962  0.5244  0.0216
  844SOL     OW 3373   2.612   2.384   1.158  0.0639 -0.1870  0.3400
  844SOL    HW1 3374   2.659   2.361   1.073 -1.7509 -0.6631 -1.7220
  844SOL    HW2 3375   2.686   2.408   1.220 -0.8202 -1.7093  1.7354
  844SOL     MW 3376   2.628   2.384   1.155 -0.2922 -0.4507  0.2520
  845SOL     OW 3377   2.826   2.492   0.299 -0.1239 -0.1413  0.5391
  845SOL    HW1 3378   2.763   2.411   0.290 -2.4999 -2.2753  1.1082
  845SOL    HW2 3379   2.837   2.501   0.392 -0.7229  0.1170 -2.4095
  845SOL     MW 3380   2.819   2.483   0.310 -0.5164 -0.3888  0.2252
  846SOL     OW 3381   1.579   2.843   0.800 -0.5555 -0.1679  0.1418
  846SOL    HW1 3382   1.667   2.873   0.829 -1.0194  0.7902  1.4675
  846SOL    HW2 3383   1.521   2.893   0.852 -0.9441  0.2157 -1.6062
  846SOL     MW 3384   1.583   2.853   0.810 -0.6679  0.0091  0.0861
  847SOL     OW 3385   2.601   1.908   0.192  0.4712 -0.5999  0.0345
  847SOL    HW1 3386   2.689   1.883   0.199 -1.7889  0.1578 -2.2431
  847SOL    HW2 3387   2.585   1.879   0.104 -4.2432  0.5678 -1.5666
  847SOL     MW 3388   2.610   1.901   0.181 -0.4491 -0.3459 -0.4772
  848SOL     OW 3389   2.510   2.124   1.291 -0.1706  0.1451 -0.0727
  848SOL    HW1 3390   2.549   2.188   1.230 -1.6711  3.6150 -0.9562
  848SOL    HW2 3391   2.491   2.038   1.245 -2.5850 -1.0804  1.9766
  848SOL     MW 3392   2.513   2.121   1.277 -0.6872  0.4412  0.0811
  849SOL     OW 3393   1.989   2.732   0.803  0.1148  0.5019  0.0694
  849SOL    HW1 3394   2.008   2.657   0.862  2.3969 -0.2486 -1.7921
  849SOL    HW2 3395   2.059   2.730   0.742  0.7117 -0.6016  1.1663
  849SOL     MW 3396   2.001   2.722   0.803  0.4947  0.2573 -0.0315
  850SOL     OW 3397   2.191   1.964   1.680  0.3817  0.1455  0.2803
  850SOL    HW1 3398   2.115   1.925   1.634  0.1212  0.0100 -3.0739
  850SOL    HW2 3399   2.164   2.052   1.704 -1.6195  2.5350  0.4754
  850SOL     MW 3400   2.177   1.971   1.677  0.0833  0.4429 -0.1365
  851SOL     OW 3401   2.217   2.357   0.362 -0.3183 -0.3230  0.1828
  851SOL    HW1 3402   2.171   2.371   0.281  2.0793  4.8462 -2.5299
  851SOL    HW2 3403   2.297   2.409   0.355 -0.0214  1.3152  1.0790
  851SOL     MW 3404   2.222   2.366   0.350  0.0372  0.5752 -0.0569
  852SOL     OW 3405   2.283   2.135   0.188 -0.3682  0.3973 -0.8627
  852SOL    HW1 3406   2.272   2.201   0.259  0.6517 -0.5647  0.1352
  852SOL    HW2 3407   2.378   2.132   0.163  0.2286  0.3362 -1.1399
  852SOL     MW 3408   2.294   2.143   0.194 -0.1549  0.2623 -0.7676
  853SOL     OW 3409   2.439   2.447   1.967  0.5790  0.1101  0.2469
  853SOL    HW1 3410   2.463   2.498   1.890  0.4115  0.2631  2.3667
  853SOL    HW2 3411   2.523   2.443   2.016 -1.2626 -0.4566 -0.3464
  853SOL     MW 3412   2.453   2.454   1.963  0.3139  0.0555  0.4483
  854SOL     OW 3413   2.880   2.222   0.740  0.3327  0.1848 -0.0729
  854SOL    HW1 3414   2.808   2.180   0.690  1.1208 -0.3542 -0.4832
  854SOL    HW2 3415   2.897   2.165   0.818 -0.7043  1.3224  2.1695
  854SOL     MW 3416   2.873   2.209   0.744  0.2999  0.2638  0.1689
  855SOL     OW 3417   2.692   2.277   0.301 -0.0831  0.0604  0.2982
  855SOL    HW1 3418   2.652   2.315   0.377  3.2548  0.3739  0.8086
  855SOL    HW2 3419   2.775   2.231   0.331  2.9146  1.0623 -2.5496
  855SOL     MW 3420   2.698   2.276   0.315  0.7528  0.2339 -0.0102
  856SOL     OW 3421   2.169   1.874   0.188 -0.6464  0.0248  0.1808
  856SOL    HW1 3422   2.073   1.881   0.211 -1.5954 -0.2393 -0.6480
  856SOL    HW2 3423   2.206   1.962   0.206 -0.6263  2.2704  1.5294
  856SOL     MW 3424   2.161   1.886   0.194 -0.7689  0.2862  0.2494
  857SOL     OW 3425   2.551   1.910   0.459  0.0908 -0.1571 -0.0131
  857SOL    HW1 3426   2.540   1.929   0.368 -2.8309 -0.2871  3.6519
  857SOL    HW2 3427   2.463   1.889   0.482 -1.8948 -1.4755 -0.7719
  857SOL     MW 3428   2.538   1.909   0.450 -0.5566 -0.3482  0.3704
  858SOL     OW 3429   2.919   2.624   1.743 -0.0305 -0.4904 -0.1655
  858SOL    HW1 3430   3.010   2.645   1.767  0.0931  0.2568  0.3366
  858SOL    HW2 3431   2.895   2.541   1.783  1.4750  1.9772 -1.6348
  858SOL     MW 3432   2.927   2.616   1.751  0.1844 -0.0663 -0.2931
  859SOL     OW 3433   2.078   2.465   0.877 -0.3680  0.1972 -0.7624
  859SOL    HW1 3434   2.052   2.414   0.804  0.8293 -0.8311 -1.3996
  859SOL    HW2 3435   2.160   2.424   0.905 -0.2723 -1.1279  2.0319
  859SOL     MW 3436   2.086   2.453   0.871 -0.1974 -0.1133 -0.4778
  860SOL     OW 3437   2.643   2.630   0.155  0.5671  0.2154 -0.7767
  860SOL    HW1 3438   2.714   2.603   0.219 -0.0794  1.0291 -1.3525
  860SOL    HW2 3439   2.681   2.708   0.124 -0.4543 -1.4379 -0.9262
  860SOL     MW 3440   2.658   2.637   0.159  0.3470  0.1046 -0.8724
  861SOL     OW 3441   1.580   2.096   1.174  0.3823 -0.3369  0.4714
  861SOL    HW1 3442   1.650   2.102   1.238  0.2921  1.5786 -1.0559
  861SOL    HW2 3443   1.516   2.030   1.213  0.0557 -0.2369  0.6730
  861SOL     MW 3444   1.581   2.088   1.187  0.3273 -0.0709  0.2965
  862SOL     OW 3445   2.383   1.845   1.534  0.1013  0.2160  0.0781
  862SOL    HW1 3446   2.312   1.864   1.591  0.6692 -0.9036 -2.2004
  862SOL    HW2 3447   2.335   1.850   1.449 -1.6612 -2.6547  0.7996
  862SOL     MW 3448   2.367   1.848   1.530 -0.0563 -0.3105 -0.1273
  863SOL     OW 3449   3.055   1.797   1.174 -0.1021  0.1564  0.7725
  863SOL    HW1 3450   3.147   1.813   1.182 -0.1705 -1.1603 -0.0476
  863SOL    HW2 3451   3.026   1.881   1.200 -0.5486 -2.1293 -0.5248
  863SOL     MW 3452   3.063   1.810   1.179 -0.1700 -0.3189  0.4931
  864SOL     OW 3453   0.022   1.828   0.871 -0.1999 -0.3093 -0.7127
  864SOL    HW1 3454  -0.031   1.753   0.901 -1.7340  0.9955  1.5137
  864SOL    HW2 3455   0.002   1.829   0.770 -0.5927 -1.2926 -0.4215
  864SOL     MW 3456   0.012   1.819   0.861 -0.4541 -0.2669 -0.3806
  865SOL     OW 3457   2.530   2.175   0.051  0.1741  0.0847 -0.1043
  865SOL    HW1 3458   2.583   2.093   0.083  2.4189  0.7256  0.5754
  865SOL    HW2 3459   2.499   2.151  -0.036 -0.2354  0.9501  0.2332
  865SOL     MW 3460   2.533   2.161   0.044  0.4163  0.2835  0.0299
  866SOL     OW 3461   2.685   2.374   1.589 -0.8195 -0.3666  0.3694
  866SOL    HW1 3462   2.685   2.279   1.586  1.4395  0.3893 -0.3333
  866SOL    HW2 3463   2.724   2.388   1.504  0.5742 -2.1048  2.4568
  866SOL     MW 3464   2.690   2.363   1.577 -0.3375 -0.4962  0.5521
  867SOL     OW 3465   0.066   2.739   1.839 -0.5267  0.0397 -0.4441
  867SOL    HW1 3466   0.104   2.749   1.928 -1.1476  0.1882  0.8404
  867SOL    HW2 3467   0.029   2.820   1.811  1.7700 -1.9475  0.0944
  867SOL     MW 3468   0.066   2.751   1.847 -0.3056 -0.2029 -0.2036
  868SOL     OW 3469   2.790   2.561   0.555 -0.0893  0.0330 -0.0754
  868SOL    HW1 3470   2.715   2.502   0.528  0.5961 -0.7917 -1.0025
  868SOL    HW2 3471   2.778   2.651   0.520  1.2429  0.1414 -1.7368
  868SOL     MW 3472   2.779   2.565   0.547  0.1769 -0.0615 -0.4170
  869SOL     OW 3473   1.934   2.333   1.058  0.5288  0.1633  0.2160
  869SOL    HW1 3474   2.003   2.386   1.010 -0.8577  1.2797 -1.4360
  869SOL    HW2 3475   1.905   2.276   0.975  3.1579  0.0957 -1.1405
  869SOL     MW 3476   1.939   2.332   1.041  0.6928  0.3017 -0.1810
  870SOL     OW 3477   2.239   0.024   0.514 -0.3954 -0.1097  0.0930
  870SOL    HW1 3478   2.286   0.082   0.454 -0.2150 -0.9676  0.0779
  870SOL    HW2 3479   2.293  -0.054   0.527  1.7268 -0.2035 -2.0278
  870SOL     MW 3480   2.252   0.022   0.508 -0.0916 -0.2353 -0.1888
  871SOL     OW 3481   2.474   2.006   0.893 -0.0342 -0.7435  0.5259
  871SOL    HW1 3482   2.429   1.973   0.815  3.5951 -0.4636 -0.3052
  871SOL    HW2 3483   2.425   2.085   0.906 -1.4366 -2.2088  0.6945
  871SOL     MW 3484   2.462   2.012   0.884  0.2596 -0.8999  0.4385
  872SOL     OW 3485   2.008   2.520   1.373 -0.4419 -0.7216 -0.1206
  872SOL    HW1 3486   1.984   2.574   1.454  1.5979 -1.4419 -0.7902
  872SOL    HW2 3487   1.932   2.466   1.364  0.0074 -1.1668 -0.5375
  872SOL     MW 3488   1.995   2.520   1.382 -0.1135 -0.8754 -0.2639
  873SOL     OW 3489   2.829   2.086   1.935  0.1488 -0.3269  0.1335
  873SOL    HW1 3490   2.849   2.145   2.004 -1.6516 -2.9316 -0.2596
  873SOL    HW2 3491   2.905   2.082   1.877  0.2753  1.3408 -0.9030
  873SOL     MW 3492   2.842   2.094   1.937 -0.0721 -0.4505 -0.0551
  874SOL     OW 3493   2.432   1.528   2.375  0.2413  0.2585  0.4106
  874SOL    HW1 3494   2.357   1.472   2.352 -4.0033  1.1807  1.2930
  874SOL    HW2 3495   2.511   1.476   2.377  1.3108  0.7577  1.1298
  874SOL     MW 3496   2.433   1.514   2.372 -0.1776  0.4461  0.6219
  875SOL     OW 3497   2.320   2.290   0.925 -0.0436 -0.4525  0.7132
  875SOL    HW1 3498   2.399   2.306   0.871  0.4733  0.4607 -0.6393
  875SOL    HW2 3499   2.347   2.334   1.002  0.5705  1.5070 -1.2200
  875SOL     MW 3500   2.334   2.298   0.928  0.1057 -0.0734  0.2797
  876SOL     OW 3501   3.029   2.330   1.324  0.0490 -0.0685 -0.4639
  876SOL    HW1 3502   3.059   2.335   1.231 -1.3466 -1.9272 -0.2789
  876SOL    HW2 3503   3.074   2.388   1.388  0.3078  0.8528  0.8032
  876SOL     MW 3504   3.039   2.339   1.320 -0.1010 -0.1922 -0.2723
  877SOL     OW 3505   3.010   2.742   0.330 -0.3759 -0.4624  0.1359
  877SOL    HW1 3506   3.006   2.829   0.288  4.0943  0.5547  2.5498
  877SOL    HW2 3507   3.028   2.679   0.261  0.5314  1.4136  0.3813
  877SOL     MW 3508   3.012   2.745   0.316  0.3336 -0.0807  0.4868
  878SOL     OW 3509   2.305   1.822   1.285 -0.1807  0.1642 -0.4678
  878SOL    HW1 3510   2.240   1.750   1.302  0.6143  1.3562  0.3139
  878SOL    HW2 3511   2.382   1.777   1.253 -0.8000  2.5251 -0.3681
  878SOL     MW 3512   2.307   1.807   1.283 -0.1575  0.6330 -0.3515
  879SOL     OW 3513   2.754   2.435   0.891 -0.1155 -0.1281  0.0793
  879SOL    HW1 3514   2.829   2.487   0.933  0.8139  1.0432 -1.6007
  879SOL    HW2 3515   2.797   2.384   0.828 -0.9349  1.1274 -0.1612
  879SOL     MW 3516   2.770   2.435   0.888 -0.1010  0.1921 -0.1741
  880SOL     OW 3517   2.624   2.078   0.669 -0.2646  1.3051  0.2376
  880SOL    HW1 3518   2.572   2.052   0.751 -2.0781  0.4512  1.4701
  880SOL    HW2 3519   2.592   2.032   0.593  1.1139  1.0336 -1.9465
  880SOL     MW 3520   2.613   2.069   0.670 -0.3220  1.1566  0.1121
  881SOL     OW 3521   2.927   2.689   0.756  0.4905  0.3384 -0.0738
  881SOL    HW1 3522   2.863   2.635   0.707 -1.4862 -1.4484  0.2922
  881SOL    HW2 3523   3.002   2.667   0.700  0.4358 -0.7770 -3.0467
  881SOL     MW 3524   2.928   2.679   0.742  0.2225 -0.0445 -0.4177
  882SOL     OW 3525   2.320   2.801   1.901 -0.2186  0.7441  0.9860
  882SOL    HW1 3526   2.314   2.806   1.807 -0.3020  1.2393  1.7729
  882SOL    HW2 3527   2.242   2.754   1.932  0.4058  1.0899 -0.6439
  882SOL     MW 3528   2.309   2.795   1.893 -0.1472  0.8551  0.8748
  883SOL     OW 3529   2.267   2.270   1.371  0.0945  0.3270  0.3248
  883SOL    HW1 3530   2.347   2.213   1.362  2.2458 -1.0588  1.5690
  883SOL    HW2 3531   2.194   2.225   1.322 -0.9689 -1.6051  0.3312
  883SOL     MW 3532   2.268   2.257   1.363  0.2381 -0.1107  0.4898
  884SOL     OW 3533   1.882   1.880   1.131 -0.6240  0.3256  0.2380
  884SOL    HW1 3534   1.827   1.924   1.065 -1.4462  0.6265 -0.1754
  884SOL    HW2 3535   1.967   1.914   1.113  0.7712 -2.2595 -0.4707
  884SOL     MW 3536   1.886   1.890   1.120 -0.5484  0.0242  0.0900
  885SOL     OW 3537   2.789   2.418   1.846  0.1511  0.3482  0.1173
  885SOL    HW1 3538   2.876   2.367   1.843  2.4159 -0.7477  0.4588
  885SOL    HW2 3539   2.734   2.394   1.771  2.3406 -3.7303 -2.8882
  885SOL     MW 3540   2.793   2.408   1.836  0.7388 -0.3345 -0.2342
  886SOL     OW 3541   2.803   2.459   1.362 -0.0640 -0.4438 -0.7347
  886SOL    HW1 3542   2.885   2.409   1.363  0.5081  0.6976 -0.7890
  886SOL    HW2 3543   2.836   2.549   1.377 -1.5209 -0.8810 -0.2587
  886SOL     MW 3544   2.818   2.464   1.364 -0.1807 -0.3509 -0.6790
  887SOL     OW 3545   2.300   2.607   1.495 -0.0480 -0.0379 -0.0299
  887SOL    HW1 3546   2.317   2.671   1.424  0.3817  0.9996  1.7784
  887SOL    HW2 3547   2.263   2.528   1.454 -0.8591 -0.4666 -0.3695
  887SOL     MW 3548   2.298   2.605   1.480 -0.0983  0.0424  0.1639
  888SOL     OW 3549   1.804   2.082   1.338  0.0909 -0.1294 -0.0680
  888SOL    HW1 3550   1.894   2.080   1.304  1.7563  1.7364  1.1603
  888SOL    HW2 3551   1.825   2.105   1.431  0.9436  3.2124  0.4153
  888SOL     MW 3552   1.819   2.085   1.345  0.4231  0.5577  0.1578
  889SOL     OW 3553   2.355   2.016   2.106  0.5878 -0.0693  0.3427
  889SOL    HW1 3554   2.437   2.020   2.159  1.4827 -3.2337 -1.4332
  889SOL    HW2 3555   2.373   2.080   2.038 -1.0298  0.4011 -2.1763
  889SOL     MW 3556   2.368   2.025   2.104  0.4924 -0.4248 -0.2240
  890SOL     OW 3557   0.117   2.285   0.097 -0.7334 -0.2517  0.3337
  890SOL    HW1 3558   0.075   2.365   0.123 -0.4637 -0.3265 -0.7637
  890SOL    HW2 3559   0.115   2.231   0.179  1.0838 -0.7511 -0.0524
  890SOL     MW 3560   0.111   2.288   0.111 -0.4581 -0.3275  0.1379
  891SOL     OW 3561   3.045   2.053   1.306 -0.0038  0.1409 -0.7459
  891SOL    HW1 3562   3.133   2.051   1.283 -1.0874  0.4152  0.0153
  891SOL    HW2 3563   3.019   2.141   1.293 -0.6407  0.2601 -0.2456
  891SOL     MW 3564   3.053   2.064   1.301 -0.2308  0.1928 -0.5794
  892SOL     OW 3565   2.371   2.412   2.983  0.0199  0.0597 -0.2788
  892SOL    HW1 3566   2.337   2.324   2.991 -1.1223  2.9881  0.5455
  892SOL    HW2 3567   2.468   2.409   2.962  1.7707  0.9767 -0.5700
  892SOL     MW 3568   2.379   2.400   2.981  0.1002  0.5670 -0.2085
  893SOL     OW 3569   1.574   2.516   1.225  0.8119 -0.2043 -0.1892
  893SOL    HW1 3570   1.502   2.517   1.301 -1.2282 -1.8128  0.2439
  893SOL    HW2 3571   1.660   2.476   1.255 -1.3290 -0.3412 -2.2110
  893SOL     MW 3572   1.576   2.511   1.239  0.2603 -0.4346 -0.3988
  894SOL     OW 3573   2.829   1.912   0.503  0.1308  0.0765 -0.6319
  894SOL    HW1 3574   2.734   1.922   0.538 -0.2115  1.4228 -1.3878
  894SOL    HW2 3575   2.823   1.848   0.424 -0.5463 -0.4243  0.8062
  894SOL     MW 3576   2.816   1.905   0.497 -0.0037  0.1881 -0.5419
  895SOL     OW 3577   2.078   2.157   1.182  0.1825  0.0729  0.6416
  895SOL    HW1 3578   2.030   2.227   1.134  0.4429  0.4859 -0.1117
  895SOL    HW2 3579   2.120   2.094   1.120  1.7832  1.2040 -0.7871
  895SOL     MW 3580   2.077   2.158   1.167  0.4280  0.2767  0.3537
  896SOL     OW 3581   2.198   2.829   1.079 -0.2044 -0.2255  0.7335
  896SOL    HW1 3582   2.270   2.801   1.140 -0.7092  0.8726 -0.1190
  896SOL    HW2 3583   2.130   2.770   1.102 -0.4718 -3.0380 -1.9775
  896SOL     MW 3584   2.199   2.817   1.090 -0.3063 -0.4517  0.2634
  897SOL     OW 3585   2.978   2.977   0.185 -0.3366 -0.3059  0.4623
  897SOL    HW1 3586   3.062   2.969   0.137  1.4905  2.2708  1.2721
  897SOL    HW2 3587   2.924   2.915   0.140  1.8407  1.4199  2.4836
  897SOL     MW 3588   2.982   2.968   0.173  0.1917  0.2618  0.8359
  898SOL     OW 3589   2.077   0.195   1.447  0.4744  0.2723  0.8177
  898SOL    HW1 3590   2.021   0.143   1.385 -1.0588  2.0032  1.2175
  898SOL    HW2 3591   2.152   0.223   1.396  0.1138  0.7055  1.2388
  898SOL     MW 3592   2.079   0.192   1.432  0.2245  0.5579  0.9260
  899SOL     OW 3593   2.899   2.962   0.689 -0.4078 -0.7160  0.6900
  899SOL    HW1 3594   2.893   2.888   0.748 -2.5122 -0.0947  0.5046
  899SOL    HW2 3595   2.812   3.007   0.696 -1.3786 -0.2564 -1.0259
  899SOL     MW 3596   2.887   2.958   0.697 -0.8135 -0.5734  0.4391
  900SOL     OW 3597   0.130   2.366   1.110 -0.1356 -0.5191  0.1784
  900SOL    HW1 3598   0.136   2.453   1.068  1.5024 -0.4198  0.2752
  900SOL    HW2 3599   0.103   2.310   1.038  1.6424  1.3823 -1.7050
  900SOL     MW 3600   0.127   2.370   1.095  0.3151 -0.2552 -0.0573
  901SOL     OW 3601   1.748   2.838   1.720  0.5941  0.9186 -0.4655
  901SOL    HW1 3602   1.821   2.788   1.680 -0.3753  0.4951 -0.8181
  901SOL    HW2 3603   1.674   2.837   1.667  1.1220 -1.2009  0.6580
  901SOL     MW 3604   1.748   2.831   1.708  0.5359  0.5831 -0.3638
  902SOL     OW 3605   2.574   2.001   1.837  0.2531  0.2428  0.4589
  902SOL    HW1 3606   2.547   1.914   1.858 -1.0967  0.2419  0.8596
  902SOL    HW2 3607   2.666   2.028   1.855 -0.9796  0.7835 -0.5427
  902SOL     MW 3608   2.583   1.993   1.842 -0.0876  0.3140  0.3796
  903SOL     OW 3609   1.622   2.796   0.537 -0.5008 -0.2842  0.6868
  903SOL    HW1 3610   1.651   2.710   0.571 -2.1115  0.2336 -0.6251
  903SOL    HW2 3611   1.594   2.831   0.629 -1.1469  1.7700 -0.0139
  903SOL     MW 3612   1.622   2.789   0.554 -0.7985  0.0551  0.4213
  904SOL     OW 3613   2.495   2.573   1.691 -0.3522  0.0789  0.5583
  904SOL    HW1 3614   2.433   2.575   1.621  0.5995  2.3376  0.7090
  904SOL    HW2 3615   2.562   2.512   1.652 -1.7418 -0.2586  0.6702
  904SOL     MW 3616   2.496   2.566   1.677 -0.4100  0.3323  0.5930
  905SOL     OW 3617   2.339   2.581   2.188 -0.3936 -0.0789  0.3211
  905SOL    HW1 3618   2.376   2.539   2.112 -2.0055 -1.3046  1.9082
  905SOL    HW2 3619   2.312   2.500   2.242 -0.4238 -0.9057 -0.8582
  905SOL     MW 3620   2.341   2.565   2.185 -0.6103 -0.3497  0.3749
  906SOL     OW 3621   2.509   2.463   0.791 -0.2728 -0.0863 -0.9716
  906SOL    HW1 3622   2.598   2.457   0.836  0.8091  0.7658 -0.9559
  906SOL    HW2 3623   2.466   2.546   0.812 -2.4903  0.9401 -1.6368
  906SOL     MW 3624   2.515   2.473   0.800 -0.4226  0.1615 -1.0573
  907SOL     OW 3625   2.623   2.895   1.251  0.5052  0.6062 -0.1844
  907SOL    HW1 3626   2.692   2.916   1.313  0.0100 -1.2218  0.0803
  907SOL    HW2 3627   2.665   2.914   1.168 -0.0424  1.5976 -1.1879
  907SOL     MW 3628   2.637   2.900   1.248  0.3676  0.4958 -0.2819
  908SOL     OW 3629   2.710   2.397   0.017 -0.0589 -0.0671 -0.8213
  908SOL    HW1 3630   2.646   2.327   0.057  0.0113 -2.8306  4.3598
  908SOL    HW2 3631   2.687   2.480   0.059  1.9745  1.0003  3.9426
  908SOL     MW 3632   2.698   2.399   0.028  0.2187 -0.2909  0.4909
  909SOL     OW 3633   1.615   0.209   1.026 -0.0743 -0.5139  0.5465
  909SOL    HW1 3634   1.626   0.300   0.994 -0.2337 -1.7627 -2.8171
  909SOL    HW2 3635   1.587   0.214   1.114 -3.6736 -0.2732 -0.9363
  909SOL     MW 3636   1.612   0.222   1.034 -0.5702 -0.6469 -0.0929
  910SOL     OW 3637   2.293   1.772   0.413  0.2914  0.4723  0.2002
  910SOL    HW1 3638   2.260   1.680   0.410 -1.6705 -0.8825 -0.2059
  910SOL    HW2 3639   2.260   1.804   0.329  0.0514 -0.8728  1.9071
  910SOL     MW 3640   2.284   1.764   0.402  0.0009  0.1161  0.3718
  911SOL     OW 3641   2.155   2.301   1.657  0.1217  0.6125  0.2514
  911SOL    HW1 3642   2.219   2.277   1.723 -0.2102 -1.3865  3.1201
  911SOL    HW2 3643   2.202   2.304   1.570 -0.4756 -1.7450 -1.9334
  911SOL     MW 3644   2.170   2.298   1.654 -0.0009  0.0377  0.3416
  912SOL     OW 3645   2.907   1.926   1.503  0.0960  0.4329  0.4330
  912SOL    HW1 3646   2.966   1.967   1.438 -0.5857 -2.4610 -2.1509
  912SOL    HW2 3647   2.842   1.987   1.522 -0.8809  0.6362  0.6447
  912SOL     MW 3648   2.906   1.939   1.497 -0.1228  0.0779  0.1200
  913SOL     OW 3649   2.541   2.946   0.415  0.1700 -0.1352  0.1566
  913SOL    HW1 3650   2.625   2.896   0.433  0.2137 -1.1844  2.4856
  913SOL    HW2 3651   2.467   2.881   0.407 -0.7318 -1.3377  2.0537
  913SOL     MW 3652   2.542   2.931   0.416  0.0568 -0.4323  0.7142
  914SOL     OW 3653   2.785   1.651   0.021 -0.5269  0.2252 -0.4219
  914SOL    HW1 3654   2.811   1.714  -0.048  1.6662 -2.7684  0.8537
  914SOL    HW2 3655   2.698   1.665   0.045  4.1548 -0.1043 -1.3718
  914SOL     MW 3656   2.777   1.661   0.015  0.3802 -0.2133 -0.3789
  915SOL     OW 3657   1.846   0.167   0.225  0.2148  0.2724  0.4174
  915SOL    HW1 3658   1.895   0.093   0.261  2.2566  0.8031  0.2305
  915SOL    HW2 3659   1.754   0.160   0.251 -2.5528  1.8084 -1.8946
  915SOL     MW 3660   1.840   0.156   0.234  0.1190  0.5451  0.0877
  916SOL     OW 3661   1.819   2.082   1.989 -0.3150  0.1524 -0.0495
  916SOL    HW1 3662   1.798   2.171   1.955 -0.1306 -1.2857 -0.2306
  916SOL    HW2 3663   1.813   2.021   1.918  1.5422  1.0570  0.9438
  916SOL     MW 3664   1.815   2.085   1.975 -0.0457  0.0820  0.0577
  917SOL     OW 3665   2.310   2.345   2.687  0.5822  0.1075 -0.1066
  917SOL    HW1 3666   2.316   2.376   2.776 -0.6274 -0.1956 -0.9225
  917SOL    HW2 3667   2.309   2.418   2.626 -0.1600  0.1525  0.3926
  917SOL     MW 3668   2.311   2.359   2.691  0.3247  0.0734 -0.1484
  918SOL     OW 3669   2.081   1.662   2.666 -0.2406  0.0236  0.1000
  918SOL    HW1 3670   2.018   1.675   2.595  2.7015 -0.9822 -2.4357
  918SOL    HW2 3671   2.144   1.733   2.648 -1.6870 -1.6172 -0.0382
  918SOL     MW 3672   2.081   1.673   2.654 -0.0433 -0.3256 -0.2528
  919SOL     OW 3673   3.091   2.384   2.272  0.3745 -0.2052 -0.4142
  919SOL    HW1 3674   3.004   2.339   2.233  2.2235  0.5622 -0.9821
  919SOL    HW2 3675   3.158   2.371   2.201  1.2310 -2.0182 -3.5435
  919SOL     MW 3676   3.089   2.376   2.258  0.7315 -0.3432 -0.9020
  920SOL     OW 3677   2.770   2.837   0.021 -0.6356 -0.5418  0.6981
  920SOL    HW1 3678   2.686   2.883   0.037 -0.2030  0.1757 -0.0826
  920SOL    HW2 3679   2.768   2.786  -0.064  0.6782  2.2671 -1.0411
  920SOL     MW 3680   2.759   2.836   0.012 -0.4052 -0.0765  0.3656
  921SOL     OW 3681   2.506   2.615   2.671 -0.2921  0.2030 -0.1376
  921SOL    HW1 3682   2.572   2.618   2.601  0.8457  0.6675  0.4708
  921SOL    HW2 3683   2.521   2.541   2.718  0.6870  0.2809 -2.5559
  921SOL     MW 3684   2.517   2.606   2.668 -0.0128  0.2746 -0.3764
  922SOL     OW 3685   2.041   2.805   0.254 -0.0140  0.0972  0.0475
  922SOL    HW1 3686   2.032   2.868   0.179  1.0596 -2.2495  0.8633
  922SOL    HW2 3687   1.985   2.724   0.229  1.5603 -0.2119  1.2014
  922SOL     MW 3688   2.032   2.803   0.241  0.3354 -0.2532  0.3074
  923SOL     OW 3689   2.209   2.830   1.651  0.0021  0.2399 -0.0491
  923SOL    HW1 3690   2.255   2.768   1.593  0.1262  0.0380  1.2932
  923SOL    HW2 3691   2.208   2.914   1.605  0.1994 -1.1870  1.2683
  923SOL     MW 3692   2.215   2.833   1.637  0.0445  0.0250  0.3018
  924SOL     OW 3693   1.166   2.779   2.496 -0.1316  0.2607  0.4549
  924SOL    HW1 3694   1.215   2.841   2.438  1.1980 -1.0050  0.8294
  924SOL    HW2 3695   1.240   2.748   2.552  0.8690  0.7034  2.7327
  924SOL     MW 3696   1.182   2.783   2.496  0.1759  0.1521  0.8049
  925SOL     OW 3697   2.954   0.200   2.670 -0.2535 -0.3347 -0.5136
  925SOL    HW1 3698   2.982   0.248   2.590  0.1200 -2.5582  2.0179
  925SOL    HW2 3699   2.912   0.269   2.729  2.5961  1.5432  2.7897
  925SOL     MW 3700   2.952   0.215   2.667  0.1717 -0.3803  0.2562
  926SOL     OW 3701   2.669   2.398   2.098  0.7387  0.1775  0.1164
  926SOL    HW1 3702   2.704   2.462   2.160 -0.4844  0.1071  0.0868
  926SOL    HW2 3703   2.702   2.414   2.008 -0.3270 -0.0877  0.6945
  926SOL     MW 3704   2.678   2.408   2.094  0.4367  0.1333  0.1888
  927SOL     OW 3705   2.359   0.147   0.316  0.3053 -0.1578  0.1027
  927SOL    HW1 3706   2.444   0.148   0.280 -1.6774 -1.2849 -0.4195
  927SOL    HW2 3707   2.308   0.119   0.240 -2.8739 -1.1150 -1.7182
  927SOL     MW 3708   2.363   0.143   0.301 -0.3758 -0.4328 -0.2064
  928SOL     OW 3709   2.002   2.505   1.777 -0.1049 -0.1432 -0.3027
  928SOL    HW1 3710   2.044   2.426   1.732  0.5786 -0.9416  0.8799
  928SOL    HW2 3711   2.073   2.526   1.838 -0.0550 -0.2738  1.9137
  928SOL     MW 3712   2.017   2.497   1.779 -0.0082 -0.2657  0.1458
  929SOL     OW 3713   2.765   2.363   2.454 -0.3296 -0.0167  0.5139
  929SOL    HW1 3714   2.757   2.274   2.427  3.0143  1.3565  3.4522
  929SOL    HW2 3715   2.789   2.354   2.544  0.1080 -1.2473 -0.6985
  929SOL     MW 3716   2.767   2.350   2.462  0.1693  0.0021  0.7416
  930SOL     OW 3717   2.029   2.910   2.664  0.3277  0.1865  0.2020
  930SOL    HW1 3718   2.015   2.844   2.730 -0.0375  0.1865 -0.4269
  930SOL    HW2 3719   2.123   2.938   2.668 -1.3232 -0.9108  1.8266
  930SOL     MW 3720   2.039   2.905   2.674  0.0617  0.0417  0.3334
  931SOL     OW 3721   2.932   2.828   2.232  0.1021 -0.6704  0.2845
  931SOL    HW1 3722   3.020   2.793   2.217  0.4406  1.5979  0.5858
  931SOL    HW2 3723   2.892   2.843   2.150  2.5439  0.2379 -0.8741
  931SOL     MW 3724   2.938   2.826   2.219  0.4689 -0.2513  0.1714
  932SOL     OW 3725   2.833   1.928   2.572  0.0108  0.2512 -0.1950
  932SOL    HW1 3726   2.921   1.948   2.606 -0.0647  0.7083  0.9347
  932SOL    HW2 3727   2.838   1.913   2.481  0.3449 -2.9124 -2.0729
  932SOL     MW 3728   2.845   1.929   2.564  0.0449 -0.1059 -0.2937
  933SOL     OW 3729   2.029   2.818   2.221 -0.1359  0.3049 -0.2535
  933SOL    HW1 3730   2.122   2.812   2.246 -1.7943 -2.8495  0.7352
  933SOL    HW2 3731   2.013   2.906   2.186 -1.8547 -2.0948 -3.4241
  933SOL     MW 3732   2.039   2.829   2.219 -0.5815 -0.4279 -0.5414
  934SOL     OW 3733   2.031   2.696   2.474  0.7202  0.3473  0.6553
  934SOL    HW1 3734   2.014   2.767   2.533 -1.8037  1.5144 -1.5134
  934SOL    HW2 3735   2.021   2.749   2.389 -0.9489  0.1746  0.5677
  934SOL     MW 3736   2.028   2.712   2.470  0.1670  0.4785  0.3576
  935SOL     OW 3737   2.602   1.577   1.794  0.1370 -0.6610 -0.1317
  935SOL    HW1 3738   2.682   1.555   1.749 -1.4517 -1.8723  2.3712
  935SOL    HW2 3739   2.550   1.605   1.726  0.9525 -2.1711  3.1696
  935SOL     MW 3740   2.606   1.578   1.779  0.0350 -1.0200  0.6341
  936SOL     OW 3741   2.951   2.248   3.044 -0.1744  0.2469  0.6715
  936SOL    HW1 3742   3.032   2.291   3.067  2.1082 -0.2969 -1.1305
  936SOL    HW2 3743   2.877   2.301   3.077  0.4040 -0.9534 -0.3252
  936SOL     MW 3744   2.952   2.260   3.052  0.2031  0.0168  0.3023
  937SOL     OW 3745   1.975   2.194   2.629 -0.0139  0.0617 -0.4687
  937SOL    HW1 3746   2.033   2.141   2.685 -0.4934  0.6562  1.1773
  937SOL    HW2 3747   1.999   2.174   2.536 -1.0307 -0.4230 -0.4825
  937SOL     MW 3748   1.986   2.184   2.624 -0.2113  0.0761 -0.2533
  938SOL     OW 3749   2.284   1.836   1.905  0.2899 -0.4900 -0.0856
  938SOL    HW1 3750   2.251   1.881   1.827  2.2593  0.0291 -1.0761
  938SOL    HW2 3751   2.294   1.904   1.971  0.9751 -1.7252 -5.0756
  938SOL     MW 3752   2.281   1.851   1.904  0.6402 -0.5845 -0.8747
  939SOL     OW 3753   2.805   1.938   2.284  0.1785 -0.1033  0.5431
  939SOL    HW1 3754   2.827   1.885   2.210  0.3717 -0.6785  0.4478
  939SOL    HW2 3755   2.707   1.947   2.292 -1.4359  1.3530  0.8632
  939SOL     MW 3756   2.795   1.932   2.275 -0.0090  0.0129  0.5728
  940SOL     OW 3757   2.282   0.140   2.697  0.8918 -0.3728  0.3983
  940SOL    HW1 3758   2.271   0.048   2.686 -0.5184  1.4579  1.7953
  940SOL    HW2 3759   2.325   0.144   2.782  0.9429 -3.2200 -1.7091
  940SOL     MW 3760   2.286   0.128   2.707  0.7125 -0.5069  0.3046
  941SOL     OW 3761   0.158   2.347   2.067 -0.5612 -0.6909 -0.2349
  941SOL    HW1 3762   0.221   2.277   2.076 -3.5746  2.1269 -0.9484
  941SOL    HW2 3763   0.090   2.315   2.005  0.1286  0.0670  1.6635
  941SOL     MW 3764   0.158   2.334   2.060 -0.8677 -0.2191 -0.0785
  942SOL     OW 3765   2.882   2.226   2.167 -0.1783 -0.1789  0.3027
  942SOL    HW1 3766   2.793   2.275   2.170 -2.2817 -1.0423 -1.8067
  942SOL    HW2 3767   2.873   2.135   2.205 -0.0174  1.5020 -1.2732
  942SOL     MW 3768   2.869   2.220   2.172 -0.4346 -0.0710 -0.1835
  943SOL     OW 3769   0.282   2.015   2.329  0.7370  0.0591  0.2596
  943SOL    HW1 3770   0.221   2.078   2.379 -1.0888  2.2716 -0.6737
  943SOL    HW2 3771   0.367   2.045   2.365  2.4113  2.0359 -0.9191
  943SOL     MW 3772   0.285   2.027   2.340  0.7170  0.6118 -0.0191
  944SOL     OW 3773   2.113   2.650   1.997  0.1494 -0.4840 -0.1584
  944SOL    HW1 3774   2.169   2.600   2.060 -1.4959 -0.2051  1.5079
  944SOL    HW2 3775   2.051   2.687   2.056  2.5450 -1.4646  0.4844
  944SOL     MW 3776   2.112   2.648   2.013  0.2484 -0.5766  0.1463
  945SOL     OW 3777   2.760   2.683   2.885  0.0059 -0.4090 -0.2052
  945SOL    HW1 3778   2.698   2.611   2.876 -1.1629  3.6854 -1.7439
  945SOL    HW2 3779   2.812   2.673   2.805  0.1752 -1.1117  1.4151
  945SOL     MW 3780   2.759   2.672   2.873 -0.1260  0.0385 -0.1944
  946SOL     OW 3781   2.514   2.756   2.298 -0.5398  0.4210  0.3116
  946SOL    HW1 3782   2.552   2.807   2.224 -0.3639 -1.4513 -0.1627
  946SOL    HW2 3783   2.464   2.690   2.255  2.2971 -2.8861 -0.7948
  946SOL     MW 3784   2.513   2.754   2.282 -0.1423 -0.2623  0.1031
  947SOL     OW 3785   2.042   0.011   0.325 -0.4273 -0.8415 -1.1001
  947SOL    HW1 3786   2.050  -0.089   0.334 -0.8860 -3.1914 -0.1196
  947SOL    HW2 3787   2.090   0.039   0.402  0.8876  1.1882  3.4717
  947SOL     MW 3788   2.050   0.001   0.336 -0.3143 -0.8837 -0.3675
  948SOL     OW 3789   1.818   3.081   2.611 -0.4606 -0.4718  0.7170
  948SOL    HW1 3790   1.897   3.026   2.629  0.6801  0.2264 -1.7553
  948SOL    HW2 3791   1.832   3.127   2.529  0.0414 -3.5485  1.1562
  948SOL     MW 3792   1.830   3.080   2.602 -0.2438 -0.7856  0.4487
  949SOL     OW 3793   2.535   2.017   2.303  0.0381  0.6179 -0.4841
  949SOL    HW1 3794   2.520   1.921   2.325  0.7694 -0.5773 -1.5553
  949SOL    HW2 3795   2.484   2.077   2.364 -0.3152  1.6133 -0.0553
  949SOL     MW 3796   2.527   2.012   2.314  0.0880  0.5916 -0.5688
  950SOL     OW 3797   2.182   2.625   3.038 -0.0473  0.2659 -0.0942
  950SOL    HW1 3798   2.237   2.553   3.003  0.3396 -2.8684  1.8554
  950SOL    HW2 3799   2.113   2.631   2.969  2.1482 -3.6213 -0.2913
  950SOL     MW 3800   2.180   2.616   3.024  0.2934 -0.6605  0.1370
  951SOL     OW 3801   2.924   2.067   2.825  0.9403  0.0089 -0.7572
  951SOL    HW1 3802   2.963   2.111   2.898  1.8789 -0.5092 -2.8123
  951SOL    HW2 3803   2.991   2.050   2.755 -1.2740  0.4564  1.5042
  951SOL     MW 3804   2.938   2.071   2.825  0.7720 -0.0005 -0.7300
  952SOL     OW 3805   3.062   1.642   2.070 -0.9202  0.5354 -0.3758
  952SOL    HW1 3806   2.988   1.699   2.047 -3.1651  0.7644  0.1564
  952SOL    HW2 3807   3.124   1.707   2.108 -2.6486  0.6472 -3.1227
  952SOL     MW 3808   3.061   1.658   2.072 -1.4444  0.5804 -0.6680
  953SOL     OW 3809   1.950   1.828   2.866 -0.1293 -0.0313  0.2421
  953SOL    HW1 3810   1.860   1.803   2.890 -0.2944 -1.3842 -0.9656
  953SOL    HW2 3811   2.001   1.762   2.818 -2.8241 -0.1621  1.4858
  953SOL     MW 3812   1.945   1.816   2.863 -0.5067 -0.2270  0.2469
  954SOL     OW 3813   2.439   2.094   2.922  0.4273  0.0540 -0.8314
  954SOL    HW1 3814   2.354   2.100   2.868 -2.6357  3.3368 -0.2551
  954SOL    HW2 3815   2.499   2.058   2.852 -0.7137 -0.2487  2.0266
  954SOL     MW 3816   2.436   2.090   2.906 -0.1274  0.4472 -0.3783
  955SOL     OW 3817   1.585   1.634   2.596  0.4499 -0.3717 -0.3261
  955SOL    HW1 3818   1.579   1.614   2.505  1.0619 -1.8182 -3.0898
  955SOL    HW2 3819   1.684   1.651   2.601  1.9586 -1.2917  0.3370
  955SOL     MW 3820   1.597   1.634   2.585  0.7297 -0.6840 -0.6033
  956SOL     OW 3821   2.615   2.429   2.881  0.1271  0.7243  0.1556
  956SOL    HW1 3822   2.659   2.403   2.971 -0.3169 -0.4977  0.8552
  956SOL    HW2 3823   2.639   2.359   2.813  0.0147  0.1435 -1.7737
  956SOL     MW 3824   2.624   2.416   2.884  0.0537  0.4864 -0.0067
  957SOL     OW 3825   2.302   2.796   0.408 -0.2273 -0.2999 -0.0797
  957SOL    HW1 3826   2.224   2.801   0.341  0.6104  2.8174 -2.4466
  957SOL    HW2 3827   2.263   2.770   0.497  0.0797 -1.5264 -2.1462
  957SOL     MW 3828   2.287   2.793   0.411 -0.0762 -0.0504 -0.6646
  958SOL     OW 3829   1.999   2.679   2.841 -0.2811  0.0675 -0.4235
  958SOL    HW1 3830   1.983   2.605   2.777  0.9968 -0.5686 -0.0876
  958SOL    HW2 3831   1.915   2.703   2.873  3.6982 -1.6375 -1.2030
  958SOL     MW 3832   1.986   2.672   2.837  0.4125 -0.2414 -0.4820
  959SOL     OW 3833   2.439   2.561   0.335 -0.0826 -0.0553 -0.2057
  959SOL    HW1 3834   2.505   2.572   0.265 -2.2151  2.1432 -1.4869
  959SOL    HW2 3835   2.379   2.637   0.323 -1.7914  1.0791 -0.8651
  959SOL     MW 3836   2.439   2.572   0.324 -0.5894  0.3844 -0.4618
  960SOL     OW 3837   1.937   2.403   2.301 -0.4185 -0.7525 -0.0728
  960SOL    HW1 3838   1.950   2.312   2.311  1.1073  1.6651 -0.0243
  960SOL    HW2 3839   1.874   2.432   2.368  1.0303  2.2095  2.1749
  960SOL     MW 3840   1.930   2.395   2.311 -0.0260 -0.0427  0.2302
  961SOL     OW 3841   2.230   2.401   2.350 -0.3249 -0.1502  0.7896
  961SOL    HW1 3842   2.138   2.391   2.349  2.3779  0.7013 -1.6556
  961SOL    HW2 3843   2.231   2.483   2.398 -4.0883 -2.5902 -1.1172
  961SOL     MW 3844   2.218   2.411   2.356 -0.4649 -0.3598  0.2154
  962SOL     OW 3845   2.182   2.063   2.801  0.6560  0.2999  0.1944
  962SOL    HW1 3846   2.174   2.018   2.886 -0.1879 -0.7970 -0.4163
  962SOL    HW2 3847   2.200   1.986   2.746  1.3173 -0.8730 -3.7723
  962SOL     MW 3848   2.183   2.047   2.805  0.6319  0.0004 -0.4095
  963SOL     OW 3849   1.764   2.577   2.121  0.3663  0.3904 -0.5706
  963SOL    HW1 3850   1.828   2.553   2.180 -2.6207  1.0160 -2.6584
  963SOL    HW2 3851   1.773   2.508   2.058 -0.1980  1.3240  3.0362
  963SOL     MW 3852   1.774   2.564   2.120 -0.1022  0.5961 -0.3702
  964SOL     OW 3853   1.813   1.972   2.686  0.0431 -0.1230  1.0709
  964SOL    HW1 3854   1.870   2.055   2.664  2.0693  2.3973 -1.0136
  964SOL    HW2 3855   1.881   1.922   2.742  3.6935  2.0052 -1.2159
  964SOL     MW 3856   1.829   1.977   2.691  0.7920  0.4903  0.4941
  965SOL     OW 3857   2.199   2.692   0.640 -0.2671 -0.7626 -0.2385
  965SOL    HW1 3858   2.167   2.601   0.648 -0.2133  0.6433 -0.6467
  965SOL    HW2 3859   2.255   2.711   0.717  2.4859  1.5333 -0.6529
  965SOL     MW 3860   2.202   2.683   0.651  0.1033 -0.2742 -0.3470
  966SOL     OW 3861   2.699   2.644   2.471 -0.2979  0.3151 -0.4128
  966SOL    HW1 3862   2.640   2.687   2.406 -0.8509  0.6760 -0.8620
  966SOL    HW2 3863   2.737   2.564   2.431  0.0919  0.5239  1.5629
  966SOL     MW 3864   2.696   2.639   2.457 -0.3194  0.3903 -0.2114
  967SOL     OW 3865   2.881   2.995   2.929 -0.5638 -0.3600 -0.3744
  967SOL    HW1 3866   2.850   2.959   3.009  2.5978  2.9960  0.1892
  967SOL    HW2 3867   2.803   3.034   2.876 -0.6962  0.4264  1.1498
  967SOL     MW 3868   2.867   2.995   2.932 -0.1641  0.1865 -0.0990
  968SOL     OW 3869   3.015   2.550   2.993 -0.3287  0.2752 -0.7246
  968SOL    HW1 3870   2.946   2.608   2.987 -0.8589  2.7647 -0.2400
  968SOL    HW2 3871   3.000   2.474   2.938 -0.0348  1.5702 -3.1558
  968SOL     MW 3872   3.004   2.548   2.985 -0.3599  0.7745 -0.9815
  969SOL     OW 3873   1.550   2.112   1.729  0.1018  0.5071 -0.1642
  969SOL    HW1 3874   1.630   2.051   1.726 -2.0800  0.7825  0.1277
  969SOL    HW2 3875   1.500   2.100   1.814 -4.0996  1.6700  0.7314
  969SOL     MW 3876   1.554   2.102   1.740 -0.7404  0.6969 -0.0075
  970SOL     OW 3877   1.656   1.701   1.864 -0.4926  0.3871  0.0723
  970SOL    HW1 3878   1.707   1.658   1.934  0.6148  0.0287 -1.3135
  970SOL    HW2 3879   1.563   1.704   1.887 -1.8027 -1.8118  3.8659
  970SOL     MW 3880   1.650   1.695   1.876 -0.5193  0.0497  0.3900
  971SOL     OW 3881   1.842   0.113   2.371 -0.6323  0.6047 -0.4502
  971SOL    HW1 3882   1.872   0.056   2.302  2.3981  3.8756  2.0727
  971SOL    HW2 3883   1.916   0.181   2.388  2.4243  0.1857  0.6590
  971SOL     MW 3884   1.856   0.115   2.364  0.1708  0.9809  0.0290
  972SOL     OW 3885   0.286   2.791   2.530 -0.0662 -0.5780 -0.6391
  972SOL    HW1 3886   0.287   2.691   2.521  0.3554 -1.1178  1.8425
  972SOL    HW2 3887   0.356   2.800   2.596 -0.5108  0.8655  1.9976
  972SOL     MW 3888   0.296   2.779   2.537 -0.0692 -0.4587  0.0362
  973SOL     OW 3889   2.593   0.009   2.050 -0.4116  0.0580  0.1323
  973SOL    HW1 3890   2.613  -0.078   2.022 -2.4665  1.8035  1.9378
  973SOL    HW2 3891   2.604   0.060   1.970 -0.2382 -0.2302  0.2213
  973SOL     MW 3892   2.597   0.004   2.035 -0.6598  0.2503  0.3823
  974SOL     OW 3893   2.110   0.358   2.734  0.3308  0.2330  0.2583
  974SOL    HW1 3894   2.193   0.310   2.720  0.6490 -0.2650 -1.4547
  974SOL    HW2 3895   2.071   0.305   2.804  0.6185  2.0976 -1.6026
  974SOL     MW 3896   2.116   0.345   2.742  0.4107  0.4133 -0.2132
  975SOL     OW 3897   2.259   2.567   2.547 -0.5821 -0.4131 -0.3008
  975SOL    HW1 3898   2.322   2.623   2.586  1.8031 -2.4766  0.3727
  975SOL    HW2 3899   2.187   2.627   2.522 -0.9980  0.2151  2.3867
  975SOL     MW 3900   2.258   2.582   2.549 -0.3223 -0.6025  0.1426
  976SOL     OW 3901   0.216   0.272   1.702 -0.1481  0.4241 -0.4383
  976SOL    HW1 3902   0.269   0.204   1.739  2.6105 -0.4104 -0.4399
  976SOL    HW2 3903   0.126   0.229   1.678 -0.9744  1.9388  1.2915
  976SOL     MW 3904   0.211   0.257   1.704  0.1068  0.5138 -0.2103
  977SOL     OW 3905   1.692   2.754   2.471  0.5573 -0.3512  0.4431
  977SOL    HW1 3906   1.722   2.662   2.495  1.6955  0.5221  1.1174
  977SOL    HW2 3907   1.749   2.796   2.408  0.5002 -1.1430 -1.2788
  977SOL     MW 3908   1.703   2.748   2.466  0.6999 -0.3405  0.3049
   3.10000   3.10000   3.10000
