977 TIP4P/2005f water molecules t=   1.91000 step= 1910
 3908
    1SOL     OW    1   0.448   0.765   0.157  0.1018 -0.9040  0.4706
    1SOL    HW1    2   0.437   0.705   0.085 -0.6614 -1.0393  2.6645
    1SOL    HW2    3   0.463   0.702   0.224  0.5440  0.6380  1.2993
    1SOL     MW    4   0.449   0.749   0.156  0.0595 -0.7184  0.8694
    2SOL     OW    5   0.271   2.995   1.126  0.0026 -0.1850  0.8343
    2SOL    HW1    6   0.327   3.073   1.101 -0.1961  0.5089  0.3756
    2SOL    HW2    7   0.187   3.038   1.132  0.3736 -1.8997 -1.2872
    2SOL     MW    8   0.268   3.011   1.123  0.0253 -0.3196  0.4939
    3SOL     OW    9   2.698   0.345   0.907 -0.3484  0.3288 -0.6490
    3SOL    HW1   10   2.710   0.428   0.868 -1.0540  1.3426 -2.4226
    3SOL    HW2   11   2.687   0.364   0.995 -0.1444  0.0336 -2.5617
    3SOL     MW   12   2.699   0.359   0.913 -0.4146  0.4236 -1.1354
    4SOL     OW   13   2.934   1.744   0.536 -0.3422  0.5210  0.1434
    4SOL    HW1   14   2.877   1.822   0.519 -2.5636 -3.0706  2.1166
    4SOL    HW2   15   2.991   1.716   0.458  0.6602  0.3711 -1.1504
    4SOL     MW   16   2.934   1.751   0.524 -0.5030  0.0274  0.2330
    5SOL     OW   17   1.618   1.465   0.625 -0.1004 -0.1143  0.2029
    5SOL    HW1   18   1.659   1.451   0.709 -0.4555  0.3884  0.6715
    5SOL    HW2   19   1.518   1.481   0.630 -1.3985  1.1720 -1.4242
    5SOL     MW   20   1.610   1.465   0.637 -0.3185  0.1218  0.0501
    6SOL     OW   21   0.766   1.427   0.608 -0.2483  0.0961  0.2581
    6SOL    HW1   22   0.672   1.413   0.621  0.7809  0.2345 -1.6306
    6SOL    HW2   23   0.801   1.368   0.673  0.5472  1.4828  1.4143
    6SOL     MW   24   0.758   1.418   0.619 -0.0076  0.2973  0.1615
    7SOL     OW   25   2.009   1.008   0.020 -0.2946 -0.0508  0.1554
    7SOL    HW1   26   2.082   1.065   0.062  2.9207  0.2322  2.9074
    7SOL    HW2   27   1.949   0.987   0.091  2.1455  0.2023 -1.4415
    7SOL     MW   28   2.011   1.013   0.035  0.4516  0.0199  0.3078
    8SOL     OW   29   0.848   1.384   0.985  0.0994  0.1395  0.0629
    8SOL    HW1   30   0.898   1.454   1.027  2.1231 -0.0699  2.3467
    8SOL    HW2   31   0.869   1.316   1.049  3.4411  3.7374 -0.6151
    8SOL     MW   32   0.857   1.384   0.999  0.8073  0.5866  0.2748
    9SOL     OW   33   0.872   0.540   1.284 -0.1172 -0.1685  0.2951
    9SOL    HW1   34   0.850   0.448   1.291  0.5088  1.0461  1.2257
    9SOL    HW2   35   0.918   0.554   1.367  1.6106  1.9963 -0.7233
    9SOL     MW   36   0.875   0.530   1.296  0.1934  0.2774  0.2836
   10SOL     OW   37   0.323   0.837   0.511 -0.0515  0.8649 -0.1414
   10SOL    HW1   38   0.398   0.899   0.489  1.6002  1.8309  0.3101
   10SOL    HW2   39   0.275   0.880   0.579  1.0714 -1.2128 -0.9908
   10SOL     MW   40   0.327   0.851   0.517  0.3146  0.7183 -0.1939
   11SOL     OW   41   0.742   1.096   1.475 -0.2089 -0.3953 -0.4635
   11SOL    HW1   42   0.817   1.116   1.535  0.9832  0.0626 -1.3919
   11SOL    HW2   43   0.777   1.028   1.417 -0.1204  2.4641 -1.2751
   11SOL     MW   44   0.756   1.089   1.475 -0.0400  0.0424 -0.6931
   12SOL     OW   45   3.091   1.069   0.914 -0.4045 -0.3327 -0.1049
   12SOL    HW1   46   3.143   1.146   0.945  1.0529 -1.3636 -0.0308
   12SOL    HW2   47   3.056   1.104   0.829 -2.0731 -0.7250  0.1427
   12SOL     MW   48   3.093   1.083   0.907 -0.4323 -0.5205 -0.0625
   13SOL     OW   49   1.847   1.429   1.292  0.5398 -0.0601 -0.3277
   13SOL    HW1   50   1.863   1.337   1.261 -0.7587 -0.8284  1.3083
   13SOL    HW2   51   1.924   1.473   1.258  0.3066 -0.5753  0.2819
   13SOL     MW   52   1.859   1.422   1.283  0.3377 -0.2294 -0.0314
   14SOL     OW   53   0.588   0.256   1.860 -0.1308 -0.2546  0.6572
   14SOL    HW1   54   0.629   0.220   1.782  0.0226  1.0733 -2.0063
   14SOL    HW2   55   0.497   0.280   1.832 -2.0839 -0.2288  1.2109
   14SOL     MW   56   0.581   0.255   1.846 -0.3683 -0.0760  0.3788
   15SOL     OW   57   2.020   0.403   0.959 -0.8950 -0.0684  0.4509
   15SOL    HW1   58   2.049   0.474   1.016 -0.4217  1.4836 -0.5683
   15SOL    HW2   59   2.047   0.427   0.862  0.2406  3.1047 -0.5345
   15SOL     MW   60   2.028   0.415   0.954 -0.6827  0.5550  0.1864
   16SOL     OW   61   0.221   1.838   0.258  0.1962 -0.3678 -0.0957
   16SOL    HW1   62   0.305   1.784   0.274  1.3369  1.1753 -0.7065
   16SOL    HW2   63   0.229   1.906   0.324 -1.2733  0.0886  0.0931
   16SOL     MW   64   0.233   1.840   0.269  0.1529 -0.1040 -0.1514
   17SOL     OW   65   1.135   0.863   1.389  0.2729 -0.5450 -0.2742
   17SOL    HW1   66   1.154   0.840   1.478 -2.3775  0.7326 -0.5770
   17SOL    HW2   67   1.038   0.881   1.380 -2.0093 -1.0630  1.4051
   17SOL     MW   68   1.124   0.862   1.400 -0.3779 -0.4448 -0.0926
   18SOL     OW   69   0.004   1.628   0.349 -0.0928  0.2007  0.0504
   18SOL    HW1   70   0.055   1.709   0.352 -3.7126  0.6038 -0.7309
   18SOL    HW2   71  -0.003   1.604   0.255 -1.3745  1.8622  1.1133
   18SOL     MW   72   0.010   1.636   0.337 -0.7395  0.4731  0.0875
   19SOL     OW   73   0.082   1.389   0.950  0.3570  0.1113 -0.3700
   19SOL    HW1   74   0.092   1.405   0.855  0.3031  0.0666  0.4595
   19SOL    HW2   75  -0.007   1.374   0.966 -0.4122  1.0539 -0.8354
   19SOL     MW   76   0.072   1.389   0.940  0.2484  0.2298 -0.3220
   20SOL     OW   77   0.444   2.119   1.265  0.4117  0.4481 -0.1259
   20SOL    HW1   78   0.402   2.044   1.216  0.2393 -3.8378  0.2965
   20SOL    HW2   79   0.402   2.115   1.348 -1.2270 -3.3064 -0.9452
   20SOL     MW   80   0.433   2.109   1.270  0.1727 -0.6127 -0.1783
   21SOL     OW   81   0.563   0.928   0.456  0.0607  0.1219  0.3110
   21SOL    HW1   82   0.625   0.883   0.510 -0.5057  1.0747 -2.6543
   21SOL    HW2   83   0.600   0.916   0.366 -0.9035 -0.4661  2.3080
   21SOL     MW   84   0.576   0.921   0.451 -0.1413  0.1700  0.1833
   22SOL     OW   85   1.544   0.766   0.953 -0.0777  0.3888 -0.2044
   22SOL    HW1   86   1.533   0.693   0.890  0.8261 -0.0201  0.2411
   22SOL    HW2   87   1.466   0.815   0.937 -0.9014  1.1870 -0.5315
   22SOL     MW   88   1.532   0.763   0.942 -0.0671  0.4402 -0.1888
   23SOL     OW   89  -0.002   0.807   0.673 -0.0298  0.0695 -0.4944
   23SOL    HW1   90   0.045   0.744   0.735 -1.2152 -1.9350  0.9970
   23SOL    HW2   91   0.060   0.885   0.670  1.2735  2.7687 -2.3588
   23SOL     MW   92   0.012   0.809   0.681 -0.0142  0.1612 -0.5436
   24SOL     OW   93   2.013   2.175   0.062 -0.5217  0.3842 -0.1483
   24SOL    HW1   94   2.012   2.129   0.150  0.4979  0.8649 -3.5956
   24SOL    HW2   95   2.057   2.108   0.008 -1.5846 -1.0315 -2.5748
   24SOL     MW   96   2.019   2.160   0.066 -0.5274  0.2609 -0.9233
   25SOL     OW   97   0.223   1.453   0.394 -0.2239  0.0880  0.4931
   25SOL    HW1   98   0.150   1.500   0.368 -0.8269  1.3009 -2.6209
   25SOL    HW2   99   0.249   1.434   0.311 -0.9712 -0.7388  3.1728
   25SOL     MW  100   0.217   1.456   0.380 -0.4020  0.1389  0.4358
   26SOL     OW  101   1.941   1.018   0.330 -0.2642 -0.3691  0.2431
   26SOL    HW1  102   1.917   1.058   0.418  1.7563 -0.4169  0.4265
   26SOL    HW2  103   2.004   1.078   0.284  2.4529 -0.9819 -0.9707
   26SOL     MW  104   1.946   1.031   0.336  0.3609 -0.4563  0.1072
   27SOL     OW  105   1.839   1.368   0.150 -0.1009 -1.2208 -0.3038
   27SOL    HW1  106   1.776   1.421   0.203  0.6720  1.3117 -0.0309
   27SOL    HW2  107   1.913   1.370   0.210  0.0798  0.3289 -1.0998
   27SOL     MW  108   1.841   1.375   0.165  0.0250 -0.6822 -0.3728
   28SOL     OW  109   0.441   0.919   2.086  0.0787 -0.3886 -0.2973
   28SOL    HW1  110   0.476   0.884   2.168 -1.1416  1.8592 -0.5393
   28SOL    HW2  111   0.362   0.877   2.074 -1.3845  1.9798 -0.3398
   28SOL     MW  112   0.435   0.909   2.095 -0.2754  0.2205 -0.3349
   29SOL     OW  113   0.169   1.434   0.686  0.1321  0.1880  0.1670
   29SOL    HW1  114   0.176   1.525   0.656 -0.7104 -0.4695  1.1166
   29SOL    HW2  115   0.200   1.380   0.614 -0.7807  2.9418 -1.1663
   29SOL     MW  116   0.174   1.439   0.672 -0.0995  0.4646  0.1164
   30SOL     OW  117   0.717   1.279   1.231  0.5237 -0.0026 -0.0570
   30SOL    HW1  118   0.621   1.267   1.211  0.4113  1.2176  0.8290
   30SOL    HW2  119   0.722   1.221   1.309  0.4170  1.2475  2.8685
   30SOL     MW  120   0.705   1.270   1.238  0.4948  0.3234  0.4459
   31SOL     OW  121   0.473   0.251   0.175 -0.8076 -0.1578 -0.2476
   31SOL    HW1  122   0.507   0.176   0.228  0.5071 -0.6760  0.9950
   31SOL    HW2  123   0.442   0.205   0.094  2.1149  0.5294  0.7260
   31SOL     MW  124   0.474   0.235   0.171 -0.2485 -0.1355  0.0448
   32SOL     OW  125   2.735   0.997   1.075 -0.6682 -0.2657 -0.4654
   32SOL    HW1  126   2.666   0.957   1.130  0.9101  1.2481 -1.8619
   32SOL    HW2  127   2.822   0.943   1.083  2.7590 -0.3151  1.9211
   32SOL     MW  128   2.738   0.984   1.083 -0.0078 -0.0725 -0.3348
   33SOL     OW  129   1.629   1.277   0.393 -0.1577  1.2248 -0.1352
   33SOL    HW1  130   1.696   1.232   0.448 -0.1895  0.1647 -0.2458
   33SOL    HW2  131   1.607   1.354   0.448  3.1876  2.1759 -0.3990
   33SOL     MW  132   1.635   1.281   0.408  0.2795  1.2104 -0.1846
   34SOL     OW  133   1.147   2.002   1.177  0.0841  0.0598 -0.1833
   34SOL    HW1  134   1.055   1.984   1.195  0.8107  0.0660 -1.5996
   34SOL    HW2  135   1.197   2.015   1.255  0.2610  0.9750  3.1778
   34SOL     MW  136   1.141   2.002   1.190  0.2033  0.1814  0.0733
   35SOL     OW  137   0.346   0.139   1.664  0.6995 -0.4968  0.0552
   35SOL    HW1  138   0.341   0.106   1.753 -0.9681  0.2619 -0.0999
   35SOL    HW2  139   0.338   0.063   1.609 -0.2236 -0.7650 -1.0352
   35SOL     MW  140   0.344   0.124   1.668  0.3577 -0.4321 -0.1091
   36SOL     OW  141   1.950   2.016   0.582 -0.1812 -0.1512  1.0670
   36SOL    HW1  142   1.959   2.034   0.490 -0.6847  1.2342 -0.0282
   36SOL    HW2  143   1.982   1.933   0.611 -1.5565  1.5776 -0.1157
   36SOL     MW  144   1.955   2.007   0.574 -0.4291  0.2597  0.7664
   37SOL     OW  145   1.722   2.057   0.955 -0.4155 -0.3520 -0.3187
   37SOL    HW1  146   1.666   1.987   0.919  1.7722  1.8074 -1.5443
   37SOL    HW2  147   1.662   2.111   1.015 -0.4511 -0.0361 -2.8773
   37SOL     MW  148   1.707   2.055   0.958 -0.1315 -0.0254 -0.8180
   38SOL     OW  149   2.853   0.970   0.059  0.5461  0.1926  0.0126
   38SOL    HW1  150   2.922   0.967   0.125 -1.8358 -1.4215 -0.0137
   38SOL    HW2  151   2.911   0.966  -0.023 -0.4853  1.7200  0.6287
   38SOL     MW  152   2.870   0.969   0.057  0.0957  0.1811  0.0904
   39SOL     OW  153   1.520   0.606   0.698 -0.5302 -0.9165 -0.6486
   39SOL    HW1  154   1.481   0.543   0.754  0.2952  1.3311 -0.0961
   39SOL    HW2  155   1.447   0.670   0.692  2.1140 -2.0362  1.5778
   39SOL     MW  156   1.505   0.606   0.704 -0.0724 -0.7677 -0.2819
   40SOL     OW  157   1.279   1.882   0.227 -0.0279 -0.1407 -0.4919
   40SOL    HW1  158   1.334   1.807   0.252  1.2162  0.5886  0.7026
   40SOL    HW2  159   1.236   1.902   0.310  0.0380  1.8926  0.6638
   40SOL     MW  160   1.280   1.874   0.241  0.1449  0.2238 -0.1818
   41SOL     OW  161   0.466   0.499   1.576 -0.9651  0.1007 -0.3036
   41SOL    HW1  162   0.540   0.550   1.532 -1.7022  0.4482 -2.5048
   41SOL    HW2  163   0.380   0.531   1.538 -0.5183 -1.0425 -2.4862
   41SOL     MW  164   0.464   0.510   1.565 -1.0034 -0.0043 -0.8820
   42SOL     OW  165   1.258   2.893   1.985  0.2952 -0.1162  0.3043
   42SOL    HW1  166   1.204   2.918   2.058  1.4957 -1.8057 -1.6348
   42SOL    HW2  167   1.340   2.844   2.029  3.0419 -1.0345  0.7442
   42SOL     MW  168   1.262   2.890   2.000  0.8160 -0.4603  0.1065
   43SOL     OW  169   1.391   0.132   1.687  0.4270  0.3199  0.2069
   43SOL    HW1  170   1.457   0.083   1.639 -2.1694  1.9853 -4.3974
   43SOL    HW2  171   1.309   0.082   1.695  0.9271 -0.5716 -2.2791
   43SOL     MW  172   1.389   0.119   1.681  0.1504  0.4220 -0.7286
   44SOL     OW  173   1.197   0.846   0.936 -0.2120  0.2560  0.0600
   44SOL    HW1  174   1.179   0.938   0.959 -1.4201  0.2893  0.2062
   44SOL    HW2  175   1.139   0.796   0.992  0.1630  0.7656  1.4292
   44SOL     MW  176   1.187   0.852   0.946 -0.3219  0.3276  0.2599
   45SOL     OW  177   1.317   0.772   0.711  0.2436 -0.1518  0.2240
   45SOL    HW1  178   1.261   0.793   0.787 -0.8220  3.8410 -0.3589
   45SOL    HW2  179   1.254   0.745   0.639 -2.9613  1.1095 -2.1856
   45SOL     MW  180   1.301   0.771   0.712 -0.3198  0.5415 -0.1708
   46SOL     OW  181   0.439   1.121   0.686  0.2073  0.1226  0.3568
   46SOL    HW1  182   0.481   1.138   0.602  3.5020  0.6050 -0.2930
   46SOL    HW2  183   0.449   1.208   0.734  0.4719 -0.7319  1.1483
   46SOL     MW  184   0.446   1.135   0.681  0.6769  0.0735  0.3755
   47SOL     OW  185   0.154   2.021   1.926 -0.0312  0.3553  0.2669
   47SOL    HW1  186   0.132   1.944   1.870 -1.6759 -2.9101 -0.8929
   47SOL    HW2  187   0.165   1.979   2.012 -2.6073  1.2181 -1.5943
   47SOL     MW  188   0.152   2.005   1.930 -0.5881  0.0383 -0.1317
   48SOL     OW  189   1.284   0.500   1.050 -0.2174  0.4650 -0.6236
   48SOL    HW1  190   1.229   0.441   0.996  1.5202  0.1752 -0.1182
   48SOL    HW2  191   1.231   0.571   1.081 -0.2794 -0.6294 -0.7982
   48SOL     MW  192   1.269   0.502   1.047  0.0037  0.2823 -0.5800
   49SOL     OW  193   1.733   0.705   1.526  0.6420 -0.0090 -0.0149
   49SOL    HW1  194   1.761   0.650   1.603  3.1611 -1.6488 -0.7155
   49SOL    HW2  195   1.770   0.661   1.450  0.6919 -1.8713 -0.4656
   49SOL     MW  196   1.741   0.692   1.526  0.9810 -0.4711 -0.1668
   50SOL     OW  197   1.290   1.240   0.591 -0.3365  0.1710  0.0887
   50SOL    HW1  198   1.214   1.244   0.657  3.4954 -0.3859 -1.0237
   50SOL    HW2  199   1.350   1.171   0.625 -0.3732 -0.4862  2.4594
   50SOL     MW  200   1.288   1.232   0.604  0.1643  0.0108  0.2548
   51SOL     OW  201   0.337   2.913   0.857 -0.4203 -0.0725  0.1685
   51SOL    HW1  202   0.422   2.873   0.880  0.3419 -0.6013 -0.2003
   51SOL    HW2  203   0.306   2.967   0.930 -1.5185 -0.7757  0.5661
   51SOL     MW  204   0.344   2.915   0.870 -0.4646 -0.2350  0.1723
   52SOL     OW  205   0.806   1.852   0.455 -0.2496  0.1761 -0.0487
   52SOL    HW1  206   0.798   1.946   0.464 -0.1110  0.4338 -0.3215
   52SOL    HW2  207   0.817   1.826   0.361 -0.3851 -2.6487  0.1373
   52SOL     MW  208   0.807   1.861   0.443 -0.2492 -0.1626 -0.0602
   53SOL     OW  209   0.479   2.154   0.614 -0.0467  0.2078  0.7227
   53SOL    HW1  210   0.441   2.114   0.534  1.8227 -0.2922 -0.6209
   53SOL    HW2  211   0.459   2.247   0.603 -0.5455 -1.6193  1.7840
   53SOL     MW  212   0.471   2.161   0.602  0.1341 -0.0993  0.6855
   54SOL     OW  213   2.038   0.978   0.686  0.0198  0.0355 -0.2150
   54SOL    HW1  214   2.115   0.971   0.633 -0.6722  2.7773 -0.9796
   54SOL    HW2  215   2.009   0.887   0.688  0.3340 -0.0497  0.2600
   54SOL     MW  216   2.044   0.965   0.679 -0.0300  0.3860 -0.2532
   55SOL     OW  217   0.431   1.533   1.715 -0.1618  0.1145  0.1155
   55SOL    HW1  218   0.393   1.578   1.634 -0.1292  0.7368 -1.9829
   55SOL    HW2  219   0.520   1.506   1.689  0.5800 -3.1167 -0.4695
   55SOL     MW  220   0.438   1.535   1.701 -0.0596 -0.2297 -0.2386
   56SOL     OW  221   0.663   0.903   0.196  0.6751  0.5860  0.1560
   56SOL    HW1  222   0.662   0.989   0.150  2.2559 -0.4931  0.7743
   56SOL    HW2  223   0.584   0.849   0.169  2.7903  2.0103 -1.3072
   56SOL     MW  224   0.653   0.907   0.186  1.1628  0.6315  0.0445
   57SOL     OW  225   1.095   1.342   1.195 -0.4948  0.2577  0.1683
   57SOL    HW1  226   1.193   1.363   1.191 -1.6574 -0.7619  0.9719
   57SOL    HW2  227   1.083   1.277   1.265  2.2524 -1.6007 -0.9167
   57SOL     MW  228   1.107   1.336   1.204 -0.2857 -0.1220  0.1312
   58SOL     OW  229   0.440   1.245   1.297 -0.2190 -0.4078  0.4847
   58SOL    HW1  230   0.404   1.339   1.302 -2.1372 -0.4365 -3.5773
   58SOL    HW2  231   0.444   1.217   1.387 -2.8052 -1.0803 -1.6703
   58SOL     MW  232   0.436   1.254   1.310 -0.8133 -0.5003 -0.3355
   59SOL     OW  233   1.480   1.664   0.389 -0.2472  0.1276  0.3665
   59SOL    HW1  234   1.528   1.719   0.442 -2.4739 -3.5563 -1.4129
   59SOL    HW2  235   1.392   1.660   0.428  1.6465  1.3394 -2.1097
   59SOL     MW  236   1.475   1.671   0.401 -0.2912 -0.1986 -0.1950
   60SOL     OW  237   3.051   0.153   1.614 -0.1235 -0.2843  0.1384
   60SOL    HW1  238   2.973   0.209   1.640  1.0585 -0.2898  0.6319
   60SOL    HW2  239   3.099   0.147   1.693 -1.3264 -0.3721 -3.8749
   60SOL     MW  240   3.047   0.160   1.628 -0.1262 -0.2966 -0.3260
   61SOL     OW  241   1.975   1.369   2.997 -0.3710  0.5143  0.5121
   61SOL    HW1  242   1.930   1.366   3.087 -2.6729 -0.8823 -2.7570
   61SOL    HW2  243   2.037   1.300   2.997 -2.7295  0.1059  1.5269
   61SOL     MW  244   1.977   1.359   3.009 -0.9859  0.2761  0.2147
   62SOL     OW  245   0.542   1.793   0.554 -0.2573  0.5590 -0.5203
   62SOL    HW1  246   0.638   1.808   0.554  2.6337  0.7800 -0.5297
   62SOL    HW2  247   0.534   1.701   0.570 -0.6862  0.2050 -1.2814
   62SOL     MW  248   0.554   1.783   0.556  0.0675  0.5414 -0.6219
   63SOL     OW  249   1.712   0.668   0.504 -0.1000  0.1799 -0.0313
   63SOL    HW1  250   1.703   0.764   0.504 -1.0027  0.8382  0.5262
   63SOL    HW2  251   1.640   0.633   0.559  0.0127 -2.0108  0.5105
   63SOL     MW  252   1.701   0.676   0.511 -0.2042 -0.0223  0.1137
   64SOL     OW  253   0.191   1.705   0.632  0.1602 -0.2815 -0.3137
   64SOL    HW1  254   0.256   1.765   0.662 -0.9318 -0.8365  0.3370
   64SOL    HW2  255   0.107   1.726   0.673 -3.0827 -0.1062 -0.9367
   64SOL     MW  256   0.189   1.716   0.642 -0.4118 -0.3316 -0.3100
   65SOL     OW  257   1.553   2.324   0.368  1.0131  0.3819 -0.1091
   65SOL    HW1  258   1.637   2.360   0.398  1.1936 -0.9982 -0.6525
   65SOL    HW2  259   1.487   2.353   0.432 -1.2991  0.8144  1.3048
   65SOL     MW  260   1.556   2.333   0.380  0.7318  0.2569  0.0058
   66SOL     OW  261   0.402   0.571   0.524  0.3937  0.1731 -0.2003
   66SOL    HW1  262   0.470   0.553   0.457 -1.7412 -0.2529  0.3432
   66SOL    HW2  263   0.397   0.667   0.527 -0.4210  0.2258 -0.8316
   66SOL     MW  264   0.410   0.581   0.515  0.0046  0.1238 -0.2119
   67SOL     OW  265   1.342   0.082   1.987  0.0740  0.4804 -0.5524
   67SOL    HW1  266   1.360   0.111   1.900  0.5830 -1.5688 -1.4494
   67SOL    HW2  267   1.317  -0.010   1.978  3.2126  0.2501  0.2728
   67SOL     MW  268   1.341   0.074   1.975  0.5553  0.1796 -0.5619
   68SOL     OW  269   0.800   0.099   2.831  0.0526 -0.0677 -0.2624
   68SOL    HW1  270   0.744   0.178   2.820 -0.0612 -0.6980  0.6531
   68SOL    HW2  271   0.867   0.132   2.886  0.9421 -0.1427 -1.7830
   68SOL     MW  272   0.802   0.114   2.837  0.1549 -0.1607 -0.3422
   69SOL     OW  273   1.086   0.275   1.957  0.1826 -0.2663  0.2884
   69SOL    HW1  274   1.174   0.265   1.986 -2.3391 -3.8384  0.6424
   69SOL    HW2  275   1.039   0.208   2.014  0.2751  1.6868 -0.8031
   69SOL     MW  276   1.091   0.265   1.968 -0.1379 -0.4799  0.1911
   70SOL     OW  277   0.532   1.688   1.128  0.3406 -0.5116 -0.1830
   70SOL    HW1  278   0.621   1.713   1.159 -0.2654  1.6817  2.1914
   70SOL    HW2  279   0.533   1.627   1.050 -3.2346 -3.9406 -1.2850
   70SOL     MW  280   0.544   1.684   1.122 -0.2110 -0.6746 -0.0151
   71SOL     OW  281   1.584   0.622   1.215 -0.0012  0.5918  0.1612
   71SOL    HW1  282   1.551   0.688   1.266  1.5929  0.7531 -1.1830
   71SOL    HW2  283   1.565   0.641   1.123 -0.7412 -1.9791  3.0849
   71SOL     MW  284   1.577   0.633   1.210  0.1115  0.2739  0.3696
   72SOL     OW  285   0.793   1.845   1.086 -0.1300 -0.3210  0.1644
   72SOL    HW1  286   0.807   1.911   1.018  0.7310 -1.5431  1.6392
   72SOL    HW2  287   0.872   1.795   1.102  0.1388  0.4078 -0.1735
   72SOL     MW  288   0.805   1.847   1.079  0.0191 -0.3861  0.3144
   73SOL     OW  289   1.077   0.654   1.127  0.3297 -0.2343 -0.2337
   73SOL    HW1  290   0.990   0.614   1.143 -1.1520  1.8571 -1.3981
   73SOL    HW2  291   1.101   0.712   1.204  0.8425  1.9871  3.9895
   73SOL     MW  292   1.069   0.656   1.139  0.2018  0.3347  0.1699
   74SOL     OW  293   2.823   0.093   0.981 -0.2138  0.0576 -0.1165
   74SOL    HW1  294   2.917   0.113   0.973 -0.4349 -0.4804  0.7121
   74SOL    HW2  295   2.786   0.172   0.941  1.4439  0.9543 -1.0276
   74SOL     MW  296   2.831   0.106   0.974 -0.0242  0.1049 -0.1274
   75SOL     OW  297   1.463   1.312   0.175 -0.2056  0.0064  0.1685
   75SOL    HW1  298   1.533   1.300   0.110 -1.8946  0.8903 -1.5055
   75SOL    HW2  299   1.501   1.297   0.260  0.9685 -1.1549  0.8033
   75SOL     MW  300   1.477   1.309   0.178 -0.2735 -0.0302  0.0314
   76SOL     OW  301   3.039   0.689   0.451 -0.2339 -0.0491  1.4041
   76SOL    HW1  302   3.060   0.739   0.535 -0.1406  1.6276 -0.3991
   76SOL    HW2  303   3.115   0.633   0.448  1.1084  1.9105  0.1716
   76SOL     MW  304   3.052   0.688   0.462 -0.0445  0.4306  1.0036
   77SOL     OW  305   0.848   0.601   0.439  0.2471 -0.3989  0.0342
   77SOL    HW1  306   0.834   0.623   0.344 -0.5317  4.0165  1.1840
   77SOL    HW2  307   0.812   0.508   0.448 -2.0949 -0.0831  2.2170
   77SOL     MW  308   0.841   0.591   0.428 -0.1647  0.2253  0.4739
   78SOL     OW  309   0.796   0.869   1.102 -0.4792 -0.1870  0.3977
   78SOL    HW1  310   0.785   0.958   1.068 -0.7274  0.7827 -0.7672
   78SOL    HW2  311   0.702   0.853   1.126 -0.1521 -1.4319 -0.2760
   78SOL     MW  312   0.782   0.879   1.101 -0.4688 -0.2233  0.1551
   79SOL     OW  313   1.902   1.499   0.562  0.8789 -0.3107  0.3676
   79SOL    HW1  314   1.811   1.486   0.568  1.1025  1.3594 -1.6301
   79SOL    HW2  315   1.949   1.453   0.636 -1.0468 -1.9329  0.6671
   79SOL     MW  316   1.896   1.491   0.573  0.6543 -0.3044  0.1435
   80SOL     OW  317   0.224   0.981   0.299 -0.1003  0.2852  0.1952
   80SOL    HW1  318   0.179   0.928   0.237  0.0080  0.4265  0.3910
   80SOL    HW2  319   0.254   0.917   0.370 -0.8275 -0.6103 -0.3081
   80SOL     MW  320   0.222   0.966   0.301 -0.1819  0.1857  0.1547
   81SOL     OW  321   1.797   1.824   0.279 -0.7055 -0.1855 -0.7455
   81SOL    HW1  322   1.755   1.747   0.251 -1.2506  1.0081  0.5613
   81SOL    HW2  323   1.760   1.898   0.235  0.3636  0.9063 -0.4077
   81SOL     MW  324   1.787   1.823   0.269 -0.6363  0.1161 -0.5285
   82SOL     OW  325   0.957   1.027   0.565 -0.4118 -0.3470  0.2757
   82SOL    HW1  326   0.904   1.082   0.501 -0.5849  0.1186 -1.2717
   82SOL    HW2  327   0.917   0.941   0.562 -0.4689 -0.5524  0.0366
   82SOL     MW  328   0.945   1.023   0.556 -0.4422 -0.3126  0.0400
   83SOL     OW  329   0.004   0.711   1.515  0.0222 -0.2342 -0.4142
   83SOL    HW1  330  -0.007   0.779   1.450  2.4567 -0.1873 -1.1860
   83SOL    HW2  331   0.085   0.657   1.496  0.5526 -1.0389 -0.7073
   83SOL     MW  332   0.013   0.713   1.504  0.4134 -0.3342 -0.5547
   84SOL     OW  333   3.088   0.194   0.923  0.2611  0.6095  0.4305
   84SOL    HW1  334   3.089   0.289   0.957  0.7669  0.0055 -0.6914
   84SOL    HW2  335   3.113   0.141   1.000  2.7304 -0.8829 -1.0373
   84SOL     MW  336   3.092   0.199   0.938  0.6536  0.3329  0.0888
   85SOL     OW  337   0.367   0.466   0.785  0.0786 -0.4316 -0.1470
   85SOL    HW1  338   0.355   0.498   0.692  2.0222  0.2333 -1.6411
   85SOL    HW2  339   0.324   0.378   0.786 -2.3891  0.2763  0.5441
   85SOL     MW  340   0.359   0.459   0.773  0.0094 -0.2505 -0.2530
   86SOL     OW  341   1.293   0.270   1.206  0.1371 -0.3707  0.1527
   86SOL    HW1  342   1.287   0.348   1.154 -0.2456 -0.0815 -0.7793
   86SOL    HW2  343   1.379   0.281   1.251  1.0430 -2.4160  1.6855
   86SOL     MW  344   1.303   0.282   1.205  0.2061 -0.6024  0.2320
   87SOL     OW  345   0.981   1.587   1.189 -0.5713  0.2715  0.0553
   87SOL    HW1  346   1.055   1.645   1.162 -0.1823 -2.0771 -1.8744
   87SOL    HW2  347   1.024   1.504   1.180 -0.8145  0.3879  0.0909
   87SOL     MW  348   0.997   1.584   1.184 -0.5521 -0.0230 -0.1946
   88SOL     OW  349   1.162   1.132   1.015  0.4145 -0.1444 -0.2985
   88SOL    HW1  350   1.253   1.136   1.030 -0.6949  1.4329 -1.1637
   88SOL    HW2  351   1.123   1.171   1.092 -1.1802 -0.6109 -0.3559
   88SOL     MW  352   1.169   1.138   1.027  0.0577  0.0022 -0.4202
   89SOL     OW  353   1.787   0.738   0.215 -0.1322 -0.0554  0.0591
   89SOL    HW1  354   1.729   0.672   0.250  0.6782  1.4422 -0.7332
   89SOL    HW2  355   1.860   0.745   0.284 -0.0635  0.0739  2.2941
   89SOL     MW  356   1.789   0.730   0.229 -0.0162  0.1593  0.2495
   90SOL     OW  357   0.792   1.189   2.756 -0.2042  0.4432  0.3380
   90SOL    HW1  358   0.815   1.095   2.753 -2.5350  2.7513 -4.2783
   90SOL    HW2  359   0.803   1.213   2.846  1.0803  2.0329  0.1618
   90SOL     MW  360   0.796   1.180   2.767 -0.3422  0.9575 -0.2943
   91SOL     OW  361   2.278   0.613   0.531 -0.1742  0.2725 -0.3383
   91SOL    HW1  362   2.337   0.670   0.482 -0.0083 -1.7181 -0.2579
   91SOL    HW2  363   2.282   0.532   0.475  2.3284 -0.6997 -2.2360
   91SOL     MW  364   2.286   0.610   0.517  0.1779 -0.1184 -0.5780
   92SOL     OW  365   1.643   0.940   0.487  0.2221 -0.2987  0.3143
   92SOL    HW1  366   1.576   0.981   0.549 -2.9795 -1.2642 -0.5772
   92SOL    HW2  367   1.608   0.950   0.401  0.9012 -0.4027 -0.7673
   92SOL     MW  368   1.630   0.947   0.484 -0.1107 -0.4398  0.0539
   93SOL     OW  369   1.119   0.222   0.407 -0.1719 -0.0972 -0.2546
   93SOL    HW1  370   1.025   0.229   0.429 -1.0404 -1.9209  1.1445
   93SOL    HW2  371   1.129   0.250   0.314  1.0239  0.0383 -0.1115
   93SOL     MW  372   1.108   0.227   0.398 -0.1287 -0.3199 -0.0511
   94SOL     OW  373   1.908   1.377   1.586 -0.0806 -0.1718 -0.4549
   94SOL    HW1  374   1.872   1.391   1.497  0.1545  2.9654 -1.1290
   94SOL    HW2  375   1.871   1.294   1.620 -2.9822 -1.2333  2.9898
   94SOL     MW  376   1.898   1.368   1.579 -0.4324  0.1021 -0.0893
   95SOL     OW  377   0.604   1.506   0.931  0.2623 -0.3335  0.0029
   95SOL    HW1  378   0.684   1.457   0.935  0.1660  0.4550 -1.7761
   95SOL    HW2  379   0.531   1.442   0.898 -0.2196 -0.4825 -1.0095
   95SOL     MW  380   0.605   1.491   0.927  0.1860 -0.2491 -0.3654
   96SOL     OW  381   1.326   1.809   1.696 -0.3542 -0.0432  0.2375
   96SOL    HW1  382   1.241   1.822   1.734 -0.4469  2.2395 -2.0706
   96SOL    HW2  383   1.318   1.716   1.663  0.8807 -2.8888  1.5917
   96SOL     MW  384   1.314   1.798   1.697 -0.2035 -0.1175  0.1117
   97SOL     OW  385   1.089   1.564   0.844 -0.0750  0.0003  0.0591
   97SOL    HW1  386   1.122   1.648   0.882  0.6871 -1.8143  1.0287
   97SOL    HW2  387   1.005   1.584   0.806  0.5900 -1.0070  1.8080
   97SOL     MW  388   1.082   1.578   0.844  0.1133 -0.3720  0.4177
   98SOL     OW  389   1.354   1.395   1.204  0.3524  0.2290  0.4661
   98SOL    HW1  390   1.432   1.414   1.258 -0.4699 -0.2417 -1.1691
   98SOL    HW2  391   1.392   1.406   1.117 -1.7651 -1.0629 -0.3469
   98SOL     MW  392   1.369   1.399   1.199 -0.0355 -0.0035  0.1431
   99SOL     OW  393   1.536   0.335   1.312  0.1319  0.1215 -0.3440
   99SOL    HW1  394   1.557   0.424   1.271 -0.6157 -0.3682 -2.1119
   99SOL    HW2  395   1.468   0.355   1.383 -1.5370  1.6596 -2.1672
   99SOL     MW  396   1.530   0.349   1.316 -0.1870  0.2598 -0.8178
  100SOL     OW  397   1.082   1.157   1.403 -0.1952 -0.0694  0.2355
  100SOL    HW1  398   1.106   1.215   1.476 -1.0075  0.9038 -1.7170
  100SOL    HW2  399   1.108   1.069   1.429  1.3108 -2.0949  2.1945
  100SOL     MW  400   1.088   1.153   1.416 -0.1037 -0.2083  0.2363
  101SOL     OW  401   0.534   1.254   0.473  0.4755 -0.0664  0.3593
  101SOL    HW1  402   0.465   1.250   0.403 -0.0859 -3.5673 -1.4325
  101SOL    HW2  403   0.618   1.220   0.438  1.1066 -2.3376 -1.5284
  101SOL     MW  404   0.536   1.249   0.459  0.4847 -0.8280 -0.1261
  102SOL     OW  405   2.881   0.589   1.069  0.3195  0.3225 -0.3803
  102SOL    HW1  406   2.936   0.671   1.059 -0.4645 -3.2871  0.1723
  102SOL    HW2  407   2.864   0.557   1.159 -2.1188 -1.3302  1.8553
  102SOL     MW  408   2.886   0.596   1.080 -0.1056 -0.3718 -0.0124
  103SOL     OW  409   1.900   0.265   1.766 -0.0026 -0.4908  0.0981
  103SOL    HW1  410   1.900   0.172   1.737 -1.2963 -0.1217  3.7322
  103SOL    HW2  411   1.893   0.257   1.864 -1.2762  3.1703 -1.1222
  103SOL     MW  412   1.899   0.251   1.775 -0.3414  0.0409  0.4166
  104SOL     OW  413   0.044   1.536   1.676  0.1347  0.3932 -0.0218
  104SOL    HW1  414   0.095   1.462   1.705 -1.9154  0.0426 -0.9322
  104SOL    HW2  415  -0.051   1.506   1.675  1.2326 -0.7245 -1.3553
  104SOL     MW  416   0.038   1.522   1.679  0.0090  0.1995 -0.3178
  105SOL     OW  417   0.114   1.211   0.419  0.5694 -0.0321 -0.7736
  105SOL    HW1  418   0.164   1.137   0.382  2.3831  0.5762 -1.0045
  105SOL    HW2  419   0.148   1.292   0.384  0.8222 -0.3008 -2.0598
  105SOL     MW  420   0.125   1.212   0.409  0.8420  0.0127 -0.9738
  106SOL     OW  421   0.859   0.235   0.855  0.5425 -0.0313  0.1400
  106SOL    HW1  422   0.790   0.303   0.863 -1.4185  0.4655  1.0214
  106SOL    HW2  423   0.900   0.232   0.941  1.1634 -1.6512 -1.4282
  106SOL     MW  424   0.855   0.243   0.868  0.3657 -0.1794  0.0494
  107SOL     OW  425   0.795   2.190   2.873 -0.2784 -0.0937  0.0080
  107SOL    HW1  426   0.695   2.203   2.886 -1.2071 -1.7230  1.5475
  107SOL    HW2  427   0.818   2.118   2.929  2.4450 -0.1331  1.3834
  107SOL     MW  428   0.785   2.182   2.882 -0.0416 -0.3139  0.3926
  108SOL     OW  429   1.315   1.561   1.637  0.1451 -0.0613  0.3409
  108SOL    HW1  430   1.285   1.573   1.540  3.0686 -0.5960 -0.5449
  108SOL    HW2  431   1.409   1.542   1.627 -2.5548  2.5000 -1.6812
  108SOL     MW  432   1.323   1.560   1.623  0.1746  0.2061 -0.0428
  109SOL     OW  433   2.026   0.753   0.383 -0.5492  0.1111  0.1663
  109SOL    HW1  434   2.022   0.845   0.388  0.4368 -1.3713  1.3777
  109SOL    HW2  435   2.087   0.718   0.448 -0.0964  1.5472 -1.6311
  109SOL     MW  436   2.033   0.760   0.393 -0.3593  0.1050  0.0890
  110SOL     OW  437   0.396   1.891   0.780  0.0982  0.1781 -0.5946
  110SOL    HW1  438   0.466   1.861   0.720 -0.4612 -0.5603 -0.2786
  110SOL    HW2  439   0.395   1.985   0.757 -1.1985 -1.5384  0.0943
  110SOL     MW  440   0.405   1.899   0.769 -0.1467 -0.1458 -0.4620
  111SOL     OW  441   0.858   0.880   1.368  0.0060 -0.3681  0.2599
  111SOL    HW1  442   0.861   0.874   1.267 -1.5626 -1.0127 -1.1942
  111SOL    HW2  443   0.804   0.806   1.383 -1.5867  0.2285 -2.4785
  111SOL     MW  444   0.851   0.869   1.357 -0.4111 -0.3744 -0.2932
  112SOL     OW  445   1.337   1.160   1.659 -0.2106  0.0850 -0.5208
  112SOL    HW1  446   1.248   1.191   1.656  0.0187 -0.7468 -1.1497
  112SOL    HW2  447   1.330   1.063   1.662 -2.5593 -1.5232  0.2592
  112SOL     MW  448   1.324   1.152   1.659 -0.4902 -0.2369 -0.5008
  113SOL     OW  449   1.228   2.995   1.724  0.2079  0.0725 -0.6243
  113SOL    HW1  450   1.215   2.932   1.794  2.9270  0.0216  1.6330
  113SOL    HW2  451   1.182   2.961   1.645  0.0495 -0.9508 -1.5846
  113SOL     MW  452   1.220   2.982   1.723  0.5458 -0.0692 -0.4532
  114SOL     OW  453   0.338   2.906   1.840 -0.0964  0.2436  0.8777
  114SOL    HW1  454   0.425   2.939   1.855 -2.6575  0.8614  2.5095
  114SOL    HW2  455   0.305   2.914   1.932  5.0246  0.0771  0.9929
  114SOL     MW  456   0.345   2.911   1.854  0.2413  0.3032  1.1082
  115SOL     OW  457   0.519   0.869   1.177 -0.9572 -0.3430  0.1029
  115SOL    HW1  458   0.502   0.792   1.126 -1.7972  0.7509  1.0927
  115SOL    HW2  459   0.449   0.866   1.246  0.1947 -1.2119  0.5740
  115SOL     MW  460   0.508   0.859   1.179 -0.9161 -0.3133  0.2957
  116SOL     OW  461   0.708   1.117   0.991  0.1109 -0.1217 -0.4376
  116SOL    HW1  462   0.736   1.157   0.905  0.8608 -0.7834 -1.4606
  116SOL    HW2  463   0.703   1.188   1.052  1.7412 -2.1588  1.6058
  116SOL     MW  464   0.711   1.132   0.987  0.4250 -0.4778 -0.3030
  117SOL     OW  465   1.073   1.263   0.788  0.2458 -0.4324  0.6228
  117SOL    HW1  466   1.102   1.204   0.858 -0.1325 -1.9652  3.4823
  117SOL    HW2  467   1.068   1.354   0.822 -0.5072 -1.1585 -1.0430
  117SOL     MW  468   1.076   1.268   0.802  0.0966 -0.7305  0.7803
  118SOL     OW  469   3.101   2.957   1.836  0.0048 -0.5882  0.4184
  118SOL    HW1  470   3.129   3.040   1.870 -2.1154 -2.8739 -1.1746
  118SOL    HW2  471   3.009   2.972   1.833 -0.3466  1.2104  0.5383
  118SOL     MW  472   3.093   2.970   1.840 -0.3213 -0.6525  0.2240
  119SOL     OW  473   0.379   1.507   1.308 -0.4789  0.1389  0.0543
  119SOL    HW1  474   0.446   1.557   1.258  0.4594  1.5453 -0.1579
  119SOL    HW2  475   0.297   1.509   1.256 -0.8452  3.6484  0.5141
  119SOL     MW  476   0.377   1.514   1.295 -0.4035  0.7875  0.0870
  120SOL     OW  477   0.297   0.880   0.960 -0.1001 -0.0396 -0.2991
  120SOL    HW1  478   0.303   0.894   1.054  0.4810 -3.2683  1.2500
  120SOL    HW2  479   0.385   0.877   0.918  0.4882  0.2202  0.4347
  120SOL     MW  480   0.310   0.882   0.967  0.0542 -0.4313  0.0021
  121SOL     OW  481   1.767   1.125   1.613  0.0255  0.2979  0.2073
  121SOL    HW1  482   1.685   1.126   1.563  0.3381  3.8629 -0.7616
  121SOL    HW2  483   1.831   1.074   1.554  2.4136  2.1569 -0.4159
  121SOL     MW  484   1.765   1.118   1.599  0.3818  1.0136 -0.0028
  122SOL     OW  485   0.144   0.640   0.849  0.1048 -0.9454 -0.3726
  122SOL    HW1  486   0.225   0.584   0.825  1.7172  2.2648  0.1598
  122SOL    HW2  487   0.184   0.704   0.909 -0.9563 -0.9368 -2.6965
  122SOL     MW  488   0.160   0.641   0.854  0.1776 -0.5207 -0.6090
  123SOL     OW  489   1.853   1.133   0.564 -0.3117  0.1608  0.2592
  123SOL    HW1  490   1.782   1.069   0.549  1.8116 -0.3904 -0.3202
  123SOL    HW2  491   1.924   1.085   0.614  0.5509 -1.2820 -0.9385
  123SOL     MW  492   1.853   1.118   0.568  0.0823 -0.1023  0.0247
  124SOL     OW  493   0.670   0.472   0.810  0.0021  0.4774 -0.1770
  124SOL    HW1  494   0.576   0.473   0.790  2.1593 -0.7287 -0.5950
  124SOL    HW2  495   0.692   0.561   0.821  1.1471  0.0968 -2.3830
  124SOL     MW  496   0.661   0.484   0.809  0.4378  0.2681 -0.5232
  125SOL     OW  497   0.644   1.772   1.712 -0.2617  0.5602  0.2788
  125SOL    HW1  498   0.649   1.752   1.614  1.8270  2.9278  0.7417
  125SOL    HW2  499   0.593   1.858   1.719 -0.2581  0.6323 -0.8079
  125SOL     MW  500   0.638   1.780   1.700  0.0143  0.8821  0.1965
  126SOL     OW  501   2.123   1.540   1.863 -0.0756 -0.4086  0.0443
  126SOL    HW1  502   2.169   1.621   1.885 -1.6765  1.7166  1.7101
  126SOL    HW2  503   2.173   1.462   1.893  0.2542 -0.2207 -0.2289
  126SOL     MW  504   2.135   1.541   1.870 -0.2433 -0.1034  0.2281
  127SOL     OW  505   0.534   0.775   1.835  0.4203  0.2520 -0.0377
  127SOL    HW1  506   0.620   0.751   1.827 -0.6124 -0.6479  0.2795
  127SOL    HW2  507   0.523   0.819   1.921  1.3051  1.4841  2.7314
  127SOL     MW  508   0.544   0.778   1.846  0.4008  0.2958  0.3695
  128SOL     OW  509   1.730   0.747   2.860 -0.0320 -0.8796  0.0054
  128SOL    HW1  510   1.793   0.741   2.787  0.2072 -0.3850  1.2665
  128SOL    HW2  511   1.723   0.843   2.873 -0.0845 -0.2650 -1.1213
  128SOL     MW  512   1.737   0.759   2.852 -0.0074 -0.7333  0.0231
  129SOL     OW  513   1.624   0.953   0.155  0.3184  0.0163  0.1691
  129SOL    HW1  514   1.543   0.909   0.125  1.0723 -2.3966  0.3072
  129SOL    HW2  515   1.680   0.886   0.189  1.3346  2.3044 -1.3529
  129SOL     MW  516   1.621   0.938   0.155  0.5520 -0.0001 -0.0135
  130SOL     OW  517   0.855   1.463   0.343  0.2967 -0.0311  0.8318
  130SOL    HW1  518   0.828   1.479   0.435 -1.6139 -1.2116  3.9151
  130SOL    HW2  519   0.948   1.469   0.336  0.5423  0.9383 -3.1806
  130SOL     MW  520   0.864   1.466   0.354  0.0770 -0.0589  0.7092
  131SOL     OW  521   0.065   0.835   0.053  0.0650  0.2418 -0.1571
  131SOL    HW1  522   0.014   0.803  -0.024 -0.9607  0.5724  0.1949
  131SOL    HW2  523   0.131   0.760   0.057 -0.8484  0.9921 -1.1059
  131SOL     MW  524   0.067   0.821   0.044 -0.1908  0.3844 -0.2358
  132SOL     OW  525   2.718   0.062   1.237 -0.5977 -0.1050  0.5528
  132SOL    HW1  526   2.758   0.061   1.151 -2.9112 -0.5528  0.1090
  132SOL    HW2  527   2.634   0.026   1.220  1.0748 -1.0668 -0.0840
  132SOL     MW  528   2.712   0.057   1.224 -0.6823 -0.2909  0.4102
  133SOL     OW  529   1.090   0.117   1.732 -0.3863  0.5858 -0.5417
  133SOL    HW1  530   1.109   0.022   1.735  0.2961 -0.2644  0.5013
  133SOL    HW2  531   1.114   0.158   1.818  3.1182 -1.5952 -1.7933
  133SOL     MW  532   1.096   0.110   1.744  0.1662  0.1859 -0.5692
  134SOL     OW  533   1.405   2.466   1.467  0.0095 -0.0848  0.2613
  134SOL    HW1  534   1.366   2.537   1.414 -0.7119  1.3468 -1.2341
  134SOL    HW2  535   1.441   2.504   1.557 -0.2268  0.2531  1.3361
  134SOL     MW  536   1.405   2.480   1.472 -0.1169  0.1487  0.2058
  135SOL     OW  537   2.982   1.006   2.927 -0.3949  0.2153  0.3521
  135SOL    HW1  538   3.052   1.043   2.974  2.1516 -2.2465  0.7790
  135SOL    HW2  539   2.934   1.085   2.891 -0.3887  1.9629 -0.0872
  135SOL     MW  540   2.985   1.021   2.928 -0.0581  0.1211  0.3505
  136SOL     OW  541   0.140   2.000   0.850 -0.4560 -0.3516 -0.2069
  136SOL    HW1  542   0.056   1.957   0.847  0.2847  1.8258  1.2488
  136SOL    HW2  543   0.201   1.928   0.826  1.7487  1.6355 -2.4334
  136SOL     MW  544   0.137   1.985   0.846 -0.0674  0.1979 -0.3086
  137SOL     OW  545   0.740   2.084   0.621 -0.0001  0.4962  0.2324
  137SOL    HW1  546   0.779   2.070   0.706 -1.4855 -0.6166 -0.5714
  137SOL    HW2  547   0.647   2.108   0.643 -0.0516  0.2783 -0.9755
  137SOL     MW  548   0.733   2.085   0.635 -0.2029  0.3206 -0.0330
  138SOL     OW  549   0.525   0.633   1.060  0.0641  0.2043 -0.1170
  138SOL    HW1  550   0.446   0.579   1.049  0.6641  1.1097 -0.1128
  138SOL    HW2  551   0.599   0.603   0.999 -0.0728  1.4368 -0.9869
  138SOL     MW  552   0.525   0.622   1.051  0.1252  0.4864 -0.2312
  139SOL     OW  553   2.851   0.482   1.318 -0.4651 -0.0737 -0.1268
  139SOL    HW1  554   2.947   0.456   1.324 -2.1551 -0.7904  1.0618
  139SOL    HW2  555   2.838   0.536   1.397  0.3776 -1.2304 -1.6735
  139SOL     MW  556   2.862   0.485   1.330 -0.5769 -0.3208 -0.1741
  140SOL     OW  557   0.904   0.475   1.949 -0.4694  0.6115  0.1791
  140SOL    HW1  558   0.975   0.412   1.946  0.8129  1.5782 -1.6046
  140SOL    HW2  559   0.845   0.448   2.023  0.7887  0.1063 -1.2578
  140SOL     MW  560   0.905   0.463   1.959 -0.1342  0.6724 -0.2458
  141SOL     OW  561   1.135   0.686   1.719  0.2505 -0.2171 -0.1165
  141SOL    HW1  562   1.137   0.607   1.660  0.9147  1.4249 -0.2223
  141SOL    HW2  563   1.177   0.654   1.797 -1.2286  1.4261 -2.4682
  141SOL     MW  564   1.140   0.671   1.722  0.1430  0.2163 -0.4407
  142SOL     OW  565   0.828   1.175   0.754 -0.5425  0.1238 -0.8421
  142SOL    HW1  566   0.865   1.111   0.697  0.1083  0.6703 -0.3334
  142SOL    HW2  567   0.915   1.213   0.789  1.0399  1.5156  0.5812
  142SOL     MW  568   0.844   1.172   0.751 -0.2479  0.3795 -0.5872
  143SOL     OW  569   1.823   0.765   1.035 -0.2253  0.7814 -0.1509
  143SOL    HW1  570   1.840   0.755   0.939  0.5477  1.6456 -2.5807
  143SOL    HW2  571   1.742   0.719   1.047  0.4009  3.4000  0.6810
  143SOL     MW  572   1.815   0.757   1.024 -0.0407  1.2409 -0.3617
  144SOL     OW  573   0.235   1.344   1.758 -0.0208  0.4123 -0.1442
  144SOL    HW1  574   0.290   1.419   1.768  1.3071 -2.6539  1.3784
  144SOL    HW2  575   0.288   1.267   1.793  1.3710  0.4952  0.4085
  144SOL     MW  576   0.250   1.344   1.764  0.3380  0.0187  0.1296
  145SOL     OW  577   0.223   0.490   1.183 -0.3312 -0.2912  0.1950
  145SOL    HW1  578   0.252   0.402   1.205  1.3551  3.0571  1.3619
  145SOL    HW2  579   0.158   0.470   1.111  0.4212  0.0976 -1.4212
  145SOL     MW  580   0.218   0.476   1.176 -0.0095  0.2019  0.1357
  146SOL     OW  581   0.807   2.006   1.546  0.1848 -0.7206 -0.2345
  146SOL    HW1  582   0.829   1.999   1.453  0.5800 -1.1548  1.8063
  146SOL    HW2  583   0.748   1.933   1.555 -0.2026  0.6444 -0.2639
  146SOL     MW  584   0.802   1.996   1.535  0.1859 -0.5978  0.0309
  147SOL     OW  585   0.414   0.516   3.005 -0.8046  0.0579  0.4362
  147SOL    HW1  586   0.331   0.551   3.048 -2.6796 -1.9406  2.0391
  147SOL    HW2  587   0.412   0.565   2.918 -2.0307 -0.9851 -1.3798
  147SOL     MW  588   0.403   0.527   2.999 -1.2138 -0.3434  0.4080
  148SOL     OW  589   0.029   0.896   1.292  0.2382  0.4461 -0.6266
  148SOL    HW1  590   0.124   0.894   1.283  1.7297 -1.9394 -1.2398
  148SOL    HW2  591   0.010   0.992   1.304  0.9620  0.5332  0.2195
  148SOL     MW  592   0.039   0.908   1.293  0.5305  0.1429 -0.5959
  149SOL     OW  593   1.506   1.212   1.463  0.0297 -0.5155  0.1294
  149SOL    HW1  594   1.435   1.204   1.537 -2.9421  0.1951  1.9752
  149SOL    HW2  595   1.530   1.305   1.456 -0.5576  0.6424 -0.3775
  149SOL     MW  596   1.500   1.223   1.472 -0.4399 -0.2690  0.3061
  150SOL     OW  597   1.702   1.443   0.890  0.0551 -0.5152  0.2850
  150SOL    HW1  598   1.776   1.382   0.897  2.0042  0.5942  0.3918
  150SOL    HW2  599   1.750   1.523   0.856  1.0299 -0.8729 -1.8032
  150SOL     MW  600   1.718   1.446   0.886  0.4409 -0.4160  0.0236
  151SOL     OW  601   1.604   1.832   0.810  0.3540 -0.5016 -0.0770
  151SOL    HW1  602   1.587   1.868   0.720 -1.4845  1.3634  1.0774
  151SOL    HW2  603   1.522   1.780   0.821  0.6905  2.5102 -1.1374
  151SOL     MW  604   1.591   1.830   0.799  0.1558  0.1419 -0.0646
  152SOL     OW  605   0.643   1.412   1.612 -0.2487 -0.3872  0.9423
  152SOL    HW1  606   0.700   1.454   1.550 -0.8898 -4.4776 -2.6913
  152SOL    HW2  607   0.594   1.344   1.574  1.0050 -1.3079  0.7676
  152SOL     MW  608   0.644   1.409   1.599 -0.1679 -1.0484  0.4398
  153SOL     OW  609   2.622   1.229   0.735 -0.2212  0.0671 -0.2808
  153SOL    HW1  610   2.710   1.211   0.704  1.5313  0.6471 -1.7341
  153SOL    HW2  611   2.564   1.159   0.726  1.5977  3.9917 -1.7333
  153SOL     MW  612   2.626   1.218   0.730  0.2500  0.6614 -0.6642
  154SOL     OW  613   0.113   1.785   1.773  0.4090  0.3204  0.0895
  154SOL    HW1  614   0.078   1.687   1.761 -2.6865 -2.0151  1.7497
  154SOL    HW2  615   0.210   1.764   1.778  1.3009 -0.8662  0.0138
  154SOL     MW  616   0.121   1.769   1.772  0.1183 -0.1443  0.2985
  155SOL     OW  617   1.173   0.699   0.284  0.3318 -0.2532 -0.1242
  155SOL    HW1  618   1.146   0.676   0.367 -0.9488  0.5058 -3.7137
  155SOL    HW2  619   1.164   0.797   0.282  0.1161  2.5660  1.8724
  155SOL     MW  620   1.169   0.709   0.295  0.1344  0.2189 -0.3343
  156SOL     OW  621   1.559   3.092   1.105 -0.4846 -0.2661 -0.0156
  156SOL    HW1  622   1.607   3.133   1.179  2.7743  1.5933  2.6581
  156SOL    HW2  623   1.582   2.996   1.108 -1.2587  1.2327  1.9415
  156SOL     MW  624   1.568   3.085   1.115 -0.1567  0.1770  0.5954
  157SOL     OW  625   1.269   1.121   0.163  0.4444 -0.4085 -0.2907
  157SOL    HW1  626   1.292   1.051   0.218 -1.1423  0.8959  2.2953
  157SOL    HW2  627   1.338   1.184   0.183  1.3531  0.1492  2.5808
  157SOL     MW  628   1.281   1.120   0.173  0.3549 -0.1628  0.4293
  158SOL     OW  629   0.322   1.626   2.353 -0.4257 -0.2516  0.4354
  158SOL    HW1  630   0.272   1.648   2.276  0.3279 -1.4503  0.6715
  158SOL    HW2  631   0.331   1.714   2.383 -2.9135 -0.2389  0.3172
  158SOL     MW  632   0.317   1.640   2.347 -0.6545 -0.4081  0.4509
  159SOL     OW  633   1.229   1.717   0.478  0.5702  0.0798 -0.0973
  159SOL    HW1  634   1.196   1.647   0.419 -0.4683 -0.0223  0.3390
  159SOL    HW2  635   1.152   1.748   0.528 -1.1271  1.0576  1.3541
  159SOL     MW  636   1.215   1.712   0.477  0.2092  0.1954  0.1518
  160SOL     OW  637   0.470   1.161   1.568  0.0540  0.5356  0.3828
  160SOL    HW1  638   0.427   1.091   1.621  2.1533  0.1272 -2.0062
  160SOL    HW2  639   0.553   1.119   1.542  1.1948 -3.8898 -0.7654
  160SOL     MW  640   0.476   1.146   1.571  0.4815 -0.1022 -0.0839
  161SOL     OW  641   0.484   2.280   2.656  0.2275 -0.3160  0.6987
  161SOL    HW1  642   0.402   2.337   2.637 -1.6540 -2.1046 -0.4311
  161SOL    HW2  643   0.481   2.219   2.584  0.8785  1.8050 -3.1886
  161SOL     MW  644   0.473   2.280   2.644  0.0652 -0.2721  0.0367
  162SOL     OW  645   1.079   1.817   1.860 -0.3898  0.0639  0.3594
  162SOL    HW1  646   1.104   1.897   1.909 -0.6625 -0.1801  2.0282
  162SOL    HW2  647   0.987   1.799   1.903 -0.6087 -3.0581  1.0536
  162SOL     MW  648   1.070   1.825   1.872 -0.4547 -0.3802  0.6712
  163SOL     OW  649   2.092   3.041   0.797 -0.7280  0.2911 -0.1745
  163SOL    HW1  650   2.066   3.118   0.744 -2.1844  1.5757  1.9493
  163SOL    HW2  651   2.022   2.972   0.787 -1.1265  1.4177  1.0635
  163SOL     MW  652   2.080   3.042   0.788 -0.9728  0.6092  0.2691
  164SOL     OW  653   0.217   0.206   0.779  0.4874  0.4098  0.1633
  164SOL    HW1  654   0.122   0.192   0.811  1.7006  0.2216  0.3807
  164SOL    HW2  655   0.250   0.137   0.720 -1.1555 -0.8432 -1.0745
  164SOL     MW  656   0.209   0.195   0.775  0.4307  0.2196  0.0287
  165SOL     OW  657   1.147   1.281   0.387 -0.7603 -0.2593 -1.0979
  165SOL    HW1  658   1.188   1.252   0.467  0.3428 -0.6135  1.1692
  165SOL    HW2  659   1.183   1.213   0.332  1.3034  3.3372  0.8796
  165SOL     MW  660   1.157   1.268   0.390 -0.3424  0.1685 -0.5379
  166SOL     OW  661   0.324   1.188   1.049 -0.1064 -0.0814 -0.0172
  166SOL    HW1  662   0.352   1.219   1.136  0.8154 -0.7798  0.9278
  166SOL    HW2  663   0.377   1.110   1.023 -1.7473  0.3856 -0.4270
  166SOL     MW  664   0.335   1.182   1.057 -0.2013 -0.1119  0.0534
  167SOL     OW  665   0.788   1.150   0.386 -0.3008  0.3364 -0.3810
  167SOL    HW1  666   0.846   1.220   0.384 -2.1843 -0.8151 -2.1973
  167SOL    HW2  667   0.802   1.115   0.299  0.5632  2.1950 -1.3400
  167SOL     MW  668   0.798   1.154   0.374 -0.4353  0.4297 -0.7472
  168SOL     OW  669   1.685   1.652   3.060  0.1732  0.2941  0.2664
  168SOL    HW1  670   1.645   1.739   3.055 -0.2856 -0.0896 -1.1237
  168SOL    HW2  671   1.647   1.594   2.995  1.2599  0.2750 -1.1773
  168SOL     MW  672   1.675   1.656   3.050  0.2560  0.2410 -0.1075
  169SOL     OW  673   0.299   0.890   1.343  0.0090 -0.5064  0.1451
  169SOL    HW1  674   0.312   0.807   1.399  0.8953 -3.4395 -1.8201
  169SOL    HW2  675   0.333   0.969   1.393 -0.1810  0.4028 -2.2775
  169SOL     MW  676   0.305   0.889   1.357  0.1009 -0.7734 -0.4338
  170SOL     OW  677   1.085   1.557   1.452 -0.7792  0.0181  0.1522
  170SOL    HW1  678   1.051   1.627   1.507  2.1843 -0.9257  0.2326
  170SOL    HW2  679   1.047   1.555   1.361  2.1910  0.2573  0.2948
  170SOL     MW  680   1.076   1.566   1.447  0.0037 -0.0749  0.1816
  171SOL     OW  681   0.483   1.520   0.497 -0.0266  0.4120  0.3768
  171SOL    HW1  682   0.394   1.558   0.508 -2.8212  1.4782 -3.1890
  171SOL    HW2  683   0.479   1.423   0.479 -0.9725  2.6112 -0.2672
  171SOL     MW  684   0.471   1.513   0.496 -0.5201  0.8428 -0.1786
  172SOL     OW  685   0.786   0.281   1.311  0.3169 -0.1947  0.0373
  172SOL    HW1  686   0.744   0.226   1.241  1.9399 -2.5954  0.1907
  172SOL    HW2  687   0.825   0.211   1.358 -0.9908 -1.2458  0.1857
  172SOL     MW  688   0.786   0.264   1.308  0.3585 -0.6501  0.0771
  173SOL     OW  689   0.488   1.741   0.280 -0.2996 -0.0181 -0.6023
  173SOL    HW1  690   0.524   1.658   0.253  0.9299  2.9159  0.3341
  173SOL    HW2  691   0.515   1.757   0.374 -3.6355  0.3857  0.7162
  173SOL     MW  692   0.497   1.732   0.289 -0.5775  0.4223 -0.3048
  174SOL     OW  693   1.930   0.932   1.481  0.0529  0.6291 -0.4158
  174SOL    HW1  694   1.881   0.856   1.515 -2.1361 -1.6086 -1.1350
  174SOL    HW2  695   1.891   0.952   1.391 -1.3039  1.6453 -1.1300
  174SOL     MW  696   1.918   0.925   1.474 -0.4149  0.4680 -0.6049
  175SOL     OW  697   0.607   1.500   0.259 -0.1887  0.4322 -0.0844
  175SOL    HW1  698   0.557   1.491   0.344 -0.8249 -2.7541 -0.3474
  175SOL    HW2  699   0.704   1.506   0.275 -1.3333  0.2627  0.9433
  175SOL     MW  700   0.613   1.500   0.272 -0.4236 -0.0106  0.0165
  176SOL     OW  701   0.115   1.514   1.192  0.7984  0.0062 -0.6931
  176SOL    HW1  702   0.100   1.474   1.105 -1.4129 -0.7682  1.6336
  176SOL    HW2  703   0.029   1.503   1.240  0.4536  2.0414  2.6115
  176SOL     MW  704   0.102   1.507   1.187  0.4612  0.1726  0.0499
  177SOL     OW  705   0.558   0.280   1.447  0.1556 -0.2886  0.4672
  177SOL    HW1  706   0.647   0.297   1.414 -0.5617 -0.7807 -0.1530
  177SOL    HW2  707   0.526   0.362   1.483  0.4115  0.2457 -1.3567
  177SOL     MW  708   0.566   0.293   1.447  0.0948 -0.2830  0.1448
  178SOL     OW  709   3.091   0.649   2.909 -0.1199  0.3615 -0.0577
  178SOL    HW1  710   3.031   0.602   2.843  1.2344  1.0732 -3.7310
  178SOL    HW2  711   3.171   0.673   2.851  2.5077  2.9093 -1.4959
  178SOL     MW  712   3.094   0.646   2.893  0.4055  0.7915 -0.7321
  179SOL     OW  713   1.595   1.472   1.386  0.2278 -0.1678  0.5902
  179SOL    HW1  714   1.624   1.473   1.475 -0.2608 -0.9274 -0.4064
  179SOL    HW2  715   1.681   1.470   1.340 -1.4927  1.2716 -2.4267
  179SOL     MW  716   1.610   1.472   1.392 -0.0637 -0.0781  0.0606
  180SOL     OW  717   0.040   0.228   0.429 -0.5839 -0.3556 -0.4427
  180SOL    HW1  718  -0.040   0.259   0.389  0.1413  1.5082  1.7500
  180SOL    HW2  719   0.066   0.310   0.476  0.5447 -0.5950 -1.6626
  180SOL     MW  720   0.033   0.243   0.430 -0.3393 -0.1413 -0.3143
  181SOL     OW  721   1.055   1.319   0.028 -0.4124  0.1841 -0.2623
  181SOL    HW1  722   1.117   1.394   0.042 -1.3204  1.9588 -0.8767
  181SOL    HW2  723   1.098   1.275  -0.052 -0.5443 -2.6548 -1.5701
  181SOL     MW  724   1.069   1.323   0.020 -0.5496  0.0437 -0.5159
  182SOL     OW  725   0.358   0.939   1.661  0.0971  0.6257  0.9860
  182SOL    HW1  726   0.278   0.890   1.674  0.8472 -0.6944  1.1792
  182SOL    HW2  727   0.420   0.886   1.719 -0.9327 -0.4915  1.0078
  182SOL     MW  728   0.356   0.925   1.671  0.0602  0.3041  1.0144
  183SOL     OW  729   1.525   1.736   1.249 -0.4561 -0.0647 -0.1955
  183SOL    HW1  730   1.616   1.759   1.243 -1.1946  1.6169 -1.9920
  183SOL    HW2  731   1.525   1.681   1.322 -0.2452  2.0456 -3.8292
  183SOL     MW  732   1.537   1.732   1.258 -0.5257  0.4356 -0.9119
  184SOL     OW  733   0.852   0.639   1.692  0.4914 -0.0079  0.3151
  184SOL    HW1  734   0.935   0.685   1.681 -2.8492  0.2161 -0.5511
  184SOL    HW2  735   0.870   0.572   1.756  1.4957  1.8617  0.7120
  184SOL     MW  736   0.865   0.636   1.699  0.1831  0.2683  0.2532
  185SOL     OW  737   1.079   0.952   1.855  0.1504 -0.2465 -0.3472
  185SOL    HW1  738   1.048   0.872   1.898  0.0822  0.0803 -3.6342
  185SOL    HW2  739   1.112   1.006   1.930  4.3467  0.4906  1.7486
  185SOL     MW  740   1.080   0.949   1.871  0.6951 -0.1061 -0.5044
  186SOL     OW  741   0.302   1.645   1.515 -0.0198 -0.1485 -0.1005
  186SOL    HW1  742   0.342   1.594   1.445  0.6403  1.7177 -0.7194
  186SOL    HW2  743   0.220   1.603   1.530 -0.0780  0.7746  0.6043
  186SOL     MW  744   0.297   1.633   1.507  0.0596  0.2195 -0.0892
  187SOL     OW  745   1.402   0.855   1.361  0.0251  0.2376 -0.0930
  187SOL    HW1  746   1.431   0.875   1.446  0.7942  0.4834 -0.5028
  187SOL    HW2  747   1.309   0.869   1.377  1.0565  0.6431  0.2816
  187SOL     MW  748   1.394   0.860   1.374  0.2627  0.3235 -0.0976
  188SOL     OW  749   1.872   1.218   0.915 -0.0778 -0.0197 -0.1044
  188SOL    HW1  750   1.925   1.220   0.996 -1.8716 -0.3370  0.5133
  188SOL    HW2  751   1.858   1.127   0.899  1.1126 -0.6158  1.3120
  188SOL     MW  752   1.877   1.206   0.923 -0.1574 -0.1402  0.1640
  189SOL     OW  753   0.731   0.747   0.850  0.1088  0.7608  0.0471
  189SOL    HW1  754   0.658   0.807   0.842 -1.5982 -0.2283  0.9957
  189SOL    HW2  755   0.769   0.777   0.933  1.5096 -0.2038 -3.1098
  189SOL     MW  756   0.727   0.759   0.860  0.0684  0.5030 -0.2443
  190SOL     OW  757   1.871   0.305   2.038 -0.4566  0.0607  0.3519
  190SOL    HW1  758   1.878   0.261   2.122 -2.7482  2.2053  0.3349
  190SOL    HW2  759   1.948   0.370   2.039 -1.6573  3.4932  0.1753
  190SOL     MW  760   1.882   0.307   2.050 -0.9174  0.7965  0.3263
  191SOL     OW  761   1.498   1.065   1.209 -0.0466  0.4323 -0.5118
  191SOL    HW1  762   1.497   1.139   1.275  0.2678  2.6985  1.8488
  191SOL    HW2  763   1.470   0.988   1.257 -0.6540 -1.9211 -1.0199
  191SOL     MW  764   1.495   1.065   1.224 -0.0852  0.4208 -0.2674
  192SOL     OW  765   0.533   2.204   2.939  0.3524  0.1274 -0.4056
  192SOL    HW1  766   0.499   2.261   2.869  2.8296  0.0469 -0.1644
  192SOL    HW2  767   0.524   2.117   2.894 -2.6048  1.3965  1.0888
  192SOL     MW  768   0.527   2.200   2.924  0.2891  0.2842 -0.1766
  193SOL     OW  769   0.820   1.673   0.778  0.1090 -0.0988  0.3083
  193SOL    HW1  770   0.771   1.714   0.839  0.1802  0.0251 -5.1276
  193SOL    HW2  771   0.754   1.609   0.743 -2.2011 -1.5525 -2.2875
  193SOL     MW  772   0.805   1.670   0.781 -0.1864 -0.2742 -0.7514
  194SOL     OW  773   0.407   1.350   0.839  0.0559  0.4507  0.0439
  194SOL    HW1  774   0.363   1.309   0.911  2.8300  0.9672 -4.0912
  194SOL    HW2  775   0.335   1.385   0.790  1.9539 -0.5170 -0.6833
  194SOL     MW  776   0.392   1.350   0.842  0.6724  0.3911 -0.5976
  195SOL     OW  777   1.221   1.124   2.979 -0.6397  0.4197  0.7096
  195SOL    HW1  778   1.244   1.126   3.074 -0.2881 -1.7843  3.1910
  195SOL    HW2  779   1.141   1.064   2.994  1.5864 -3.1398 -1.6841
  195SOL     MW  780   1.213   1.116   2.993 -0.2996 -0.3407  0.7212
  196SOL     OW  781   2.255   0.969   0.516  0.1738 -0.3320  0.3658
  196SOL    HW1  782   2.309   0.957   0.431 -0.7734  2.0691 -0.9197
  196SOL    HW2  783   2.218   1.053   0.504  1.4944 -0.9099 -2.0701
  196SOL     MW  784   2.257   0.979   0.503  0.2230 -0.0915 -0.1252
  197SOL     OW  785   0.627   1.276   2.196  0.5354 -0.7231  0.3682
  197SOL    HW1  786   0.632   1.200   2.136  0.4047 -0.7868  2.1128
  197SOL    HW2  787   0.658   1.352   2.145  0.1092 -2.3215  0.6495
  197SOL     MW  788   0.632   1.276   2.182  0.4619 -0.9424  0.6355
  198SOL     OW  789   2.915   1.371   1.050  0.1401  0.4389  0.3897
  198SOL    HW1  790   2.898   1.459   1.016 -1.5757  0.0343 -0.1474
  198SOL    HW2  791   2.836   1.316   1.025 -4.0335 -0.4877 -0.2636
  198SOL     MW  792   2.902   1.376   1.042 -0.6370  0.2633  0.2327
  199SOL     OW  793   0.649   1.205   1.819 -0.1841  0.0459 -0.7063
  199SOL    HW1  794   0.570   1.200   1.876  2.2829  0.5142 -1.4607
  199SOL    HW2  795   0.629   1.281   1.767  2.9091 -3.3625  1.2108
  199SOL     MW  796   0.636   1.215   1.819  0.5495 -0.3420 -0.5529
  200SOL     OW  797   1.871   2.955   1.300  0.2437 -0.1175  0.1600
  200SOL    HW1  798   1.945   2.963   1.233  1.1699  0.0418 -1.6971
  200SOL    HW2  799   1.842   3.047   1.300  1.3147  0.6061 -0.6025
  200SOL     MW  800   1.877   2.968   1.291  0.5072 -0.0010 -0.1856
  201SOL     OW  801   1.206   0.316   0.865  0.3103  0.6077  0.1352
  201SOL    HW1  802   1.159   0.245   0.824  1.4196  1.8844  1.6566
  201SOL    HW2  803   1.296   0.281   0.869 -0.8444 -0.2736 -1.7949
  201SOL     MW  804   1.211   0.302   0.860  0.3043  0.6599  0.0813
  202SOL     OW  805   1.414   1.669   1.009 -0.7711 -0.2039 -0.1977
  202SOL    HW1  806   1.420   1.579   0.984 -0.8498  1.3694 -2.4767
  202SOL    HW2  807   1.448   1.667   1.104  0.0701 -2.8394  2.3996
  202SOL     MW  808   1.420   1.657   1.018 -0.6705 -0.3441 -0.1557
  203SOL     OW  809   0.007   0.414   1.340  0.2430  0.2476 -0.3553
  203SOL    HW1  810   0.002   0.319   1.330 -1.9166  1.0669 -2.1418
  203SOL    HW2  811   0.082   0.449   1.293 -2.3497  4.3871 -0.3156
  203SOL     MW  812   0.016   0.406   1.333 -0.3841  0.9019 -0.5858
  204SOL     OW  813   1.025   1.820   0.649  0.2153 -0.5685 -0.2621
  204SOL    HW1  814   0.969   1.777   0.713  0.9394  1.4769  0.9197
  204SOL    HW2  815   0.962   1.841   0.577  1.4877 -0.5663 -1.2820
  204SOL     MW  816   1.009   1.817   0.648  0.4787 -0.2983 -0.2408
  205SOL     OW  817   1.387   2.993   1.373 -0.1000  0.1996  0.3337
  205SOL    HW1  818   1.414   2.999   1.280 -1.6041 -3.5644  0.6823
  205SOL    HW2  819   1.312   3.050   1.376  1.6766  0.9874  0.9633
  205SOL     MW  820   1.380   3.001   1.361 -0.0641 -0.1931  0.4627
  206SOL     OW  821   0.345   2.867   1.381 -0.3800  0.0735  0.0826
  206SOL    HW1  822   0.344   2.913   1.298  0.8120 -0.8148 -0.9591
  206SOL    HW2  823   0.439   2.847   1.392 -1.0820 -0.0109 -0.7686
  206SOL     MW  824   0.357   2.871   1.372 -0.3154 -0.0548 -0.1672
  207SOL     OW  825   0.858   1.718   0.217  0.1979  0.0026 -0.4499
  207SOL    HW1  826   0.935   1.742   0.164 -0.2630 -0.6147 -0.5228
  207SOL    HW2  827   0.869   1.625   0.247 -2.6110 -0.0958  1.7345
  207SOL     MW  828   0.869   1.709   0.214 -0.2335 -0.0918 -0.1713
  208SOL     OW  829   0.772   1.497   1.374 -0.4563  0.0472 -0.2506
  208SOL    HW1  830   0.843   1.530   1.324 -0.1034  3.3718 -1.2763
  208SOL    HW2  831   0.747   1.409   1.328  3.6738  1.4204  1.8948
  208SOL     MW  832   0.778   1.490   1.361  0.1352  0.6670 -0.1029
  209SOL     OW  833   1.621   0.506   2.817 -0.1409  0.2064 -0.1291
  209SOL    HW1  834   1.682   0.581   2.798 -0.5000 -0.8552  1.1105
  209SOL    HW2  835   1.671   0.442   2.865  0.5793 -0.5622 -0.7570
  209SOL     MW  836   1.635   0.507   2.821 -0.0933 -0.0351 -0.0484
  210SOL     OW  837   1.449   1.405   0.945  0.6657  0.2587 -0.7308
  210SOL    HW1  838   1.547   1.412   0.921 -1.4871 -0.1014 -1.6507
  210SOL    HW2  839   1.402   1.421   0.858 -1.1728  0.1758 -0.1370
  210SOL     MW  840   1.456   1.408   0.930  0.1391  0.2002 -0.7738
  211SOL     OW  841   1.748   0.406   0.859 -0.1662 -1.4055 -0.4707
  211SOL    HW1  842   1.758   0.400   0.765 -0.2674  0.5595 -1.1445
  211SOL    HW2  843   1.827   0.395   0.908  3.1121 -2.2849  0.8936
  211SOL     MW  844   1.760   0.404   0.853  0.2530 -1.2622 -0.3796
  212SOL     OW  845   0.405   1.219   0.237 -0.3335 -0.0545 -0.0117
  212SOL    HW1  846   0.362   1.133   0.239  0.9168 -1.2353  0.3724
  212SOL    HW2  847   0.492   1.199   0.182  2.9442 -4.6579 -3.2804
  212SOL     MW  848   0.411   1.205   0.230  0.2639 -0.8176 -0.3923
  213SOL     OW  849   0.425   1.808   3.077 -0.0059  0.1336  0.0353
  213SOL    HW1  850   0.463   1.856   3.151  0.4586  0.1514  1.2019
  213SOL    HW2  851   0.470   1.862   3.008  0.1688  0.9954  2.3469
  213SOL     MW  852   0.436   1.822   3.077  0.0784  0.2496  0.4942
  214SOL     OW  853   0.573   0.353   2.120  0.3102 -0.3392 -0.3997
  214SOL    HW1  854   0.506   0.414   2.101 -0.1655 -2.5219  2.3095
  214SOL    HW2  855   0.598   0.333   2.026  1.2123  0.8001  1.6467
  214SOL     MW  856   0.568   0.359   2.105  0.3665 -0.4768  0.2277
  215SOL     OW  857   0.559   0.578   2.505  0.6990  0.5487  0.1622
  215SOL    HW1  858   0.485   0.592   2.449 -0.3032 -0.1823  1.6131
  215SOL    HW2  859   0.595   0.498   2.467  1.8940  2.0680  1.3957
  215SOL     MW  860   0.554   0.570   2.492  0.7245  0.6527  0.5164
  216SOL     OW  861   2.923   3.081   2.845  0.4232 -0.5977 -0.5016
  216SOL    HW1  862   2.829   3.058   2.855  1.0121  2.6227 -0.9824
  216SOL    HW2  863   2.925   3.143   2.775  2.9400  3.7309  0.4584
  216SOL     MW  864   2.911   3.086   2.837  0.8329  0.3983 -0.4384
  217SOL     OW  865   0.926   1.102   0.141 -0.6594 -0.0455 -0.0901
  217SOL    HW1  866   0.955   1.046   0.068  0.9251  3.3789  0.7262
  217SOL    HW2  867   0.980   1.183   0.125  0.7006  2.0812  0.9770
  217SOL     MW  868   0.937   1.105   0.129 -0.2709  0.6869  0.1584
  218SOL     OW  869   0.822   1.405   2.615  0.3363 -0.3470  0.1900
  218SOL    HW1  870   0.796   1.327   2.666  1.3072 -0.0715 -0.3324
  218SOL    HW2  871   0.901   1.425   2.673  0.9947 -0.4494  1.7996
  218SOL     MW  872   0.829   1.398   2.629  0.5512 -0.3242  0.3334
  219SOL     OW  873   1.077   0.449   2.534  0.1564 -0.1724 -0.5443
  219SOL    HW1  874   1.146   0.449   2.470  0.8678 -3.3320 -4.0087
  219SOL    HW2  875   1.026   0.527   2.516 -0.4111 -1.4149  0.5322
  219SOL     MW  876   1.080   0.459   2.523  0.1754 -0.7532 -0.8594
  220SOL     OW  877   1.672   0.503   2.201 -0.2980  0.0106 -0.5940
  220SOL    HW1  878   1.612   0.577   2.176  1.1668  0.5207  0.1434
  220SOL    HW2  879   1.674   0.447   2.124  0.7201  1.5182 -0.0241
  220SOL     MW  880   1.664   0.506   2.188  0.0296  0.2768 -0.4215
  221SOL     OW  881   0.340   1.362   2.932 -0.0677 -0.0743 -0.0069
  221SOL    HW1  882   0.363   1.284   2.876  0.2459  0.0010  0.9480
  221SOL    HW2  883   0.412   1.416   2.914 -2.5649  0.7468 -0.1632
  221SOL     MW  884   0.352   1.359   2.922 -0.3558  0.0440  0.0985
  222SOL     OW  885   0.514   0.912   2.730 -0.4890  0.3398 -0.0546
  222SOL    HW1  886   0.436   0.932   2.678 -0.4361 -1.1150 -1.3289
  222SOL    HW2  887   0.533   0.820   2.718  2.2466  1.5946  1.5802
  222SOL     MW  888   0.506   0.903   2.722 -0.1211  0.3134 -0.0070
  223SOL     OW  889   3.053   2.061   2.538 -0.2900  0.2244  0.6423
  223SOL    HW1  890   3.036   2.020   2.621  0.8436 -0.7335  2.2049
  223SOL    HW2  891   3.109   2.132   2.558 -0.7011  1.6373 -1.0512
  223SOL     MW  892   3.058   2.065   2.551 -0.1947  0.2844  0.6251
  224SOL     OW  893   1.443   0.596   2.409 -0.3093 -1.1624 -0.0569
  224SOL    HW1  894   1.504   0.556   2.466 -2.2259  1.6366 -0.1488
  224SOL    HW2  895   1.434   0.684   2.448 -0.5923 -0.2333 -0.8548
  224SOL     MW  896   1.450   0.603   2.421 -0.5995 -0.6705 -0.1743
  225SOL     OW  897   2.910   1.509   2.191 -0.1050  0.0835 -0.0392
  225SOL    HW1  898   2.956   1.590   2.164 -1.5855 -1.3338  0.8623
  225SOL    HW2  899   2.838   1.530   2.248 -0.2720  1.5825  0.0339
  225SOL     MW  900   2.907   1.522   2.195 -0.3224  0.0943  0.0894
  226SOL     OW  901   0.450   1.573   2.717 -0.1936 -0.0471  0.4784
  226SOL    HW1  902   0.529   1.593   2.663  1.0455  0.2885  1.0239
  226SOL    HW2  903   0.386   1.644   2.704 -1.0522 -0.3145  4.6273
  226SOL     MW  904   0.452   1.585   2.708 -0.1434 -0.0381  1.0978
  227SOL     OW  905   0.502   1.138   2.879 -0.3415 -0.2797 -0.5975
  227SOL    HW1  906   0.571   1.180   2.832 -0.7340  1.3730 -0.4050
  227SOL    HW2  907   0.504   1.043   2.846  1.8819 -2.8295 -1.1782
  227SOL     MW  908   0.512   1.131   2.869 -0.1000 -0.3981 -0.6487
  228SOL     OW  909   0.799   1.106   2.029  0.2218  0.3780  0.3131
  228SOL    HW1  910   0.744   1.142   1.966  2.0127 -2.7726  1.2704
  228SOL    HW2  911   0.878   1.157   2.015  0.9066 -1.3889  1.8344
  228SOL     MW  912   0.802   1.117   2.019  0.5485 -0.2708  0.6402
  229SOL     OW  913   0.172   0.587   0.030 -0.2551  0.0322 -0.0125
  229SOL    HW1  914   0.111   0.569  -0.048  1.4436  0.0772 -2.3165
  229SOL    HW2  915   0.165   0.502   0.075  1.9686  1.5912  0.4136
  229SOL     MW  916   0.163   0.573   0.025  0.2624  0.2438 -0.2603
  230SOL     OW  917   1.758   1.375   2.169 -0.3397  0.9159  0.5394
  230SOL    HW1  918   1.734   1.375   2.258  0.3523 -0.2693 -1.5536
  230SOL    HW2  919   1.805   1.292   2.142 -1.3018  0.1718 -0.3586
  230SOL     MW  920   1.761   1.364   2.177 -0.3754  0.6614  0.1447
  231SOL     OW  921   2.709   1.243   2.213  0.3264 -0.7812 -0.2546
  231SOL    HW1  922   2.736   1.334   2.207 -1.0807 -0.4810 -2.1447
  231SOL    HW2  923   2.650   1.235   2.132 -0.5880  2.2231 -1.0183
  231SOL     MW  924   2.705   1.254   2.202  0.0201 -0.3452 -0.6047
  232SOL     OW  925   2.261   0.887   2.003  0.3438  0.1150  0.3461
  232SOL    HW1  926   2.182   0.936   1.988 -1.5260 -2.5097  2.1288
  232SOL    HW2  927   2.254   0.843   2.091 -1.5593 -0.3437 -0.9707
  232SOL     MW  928   2.249   0.888   2.012 -0.1540 -0.2919  0.4075
  233SOL     OW  929   2.100   0.451   2.050  0.2891  0.0388 -0.3162
  233SOL    HW1  930   2.147   0.375   2.037 -2.2529  4.2705  0.2808
  233SOL    HW2  931   2.113   0.474   2.139  2.7372 -1.6156 -0.8022
  233SOL     MW  932   2.108   0.444   2.060  0.2767  0.3788 -0.3015
  234SOL     OW  933   0.266   1.057   2.622  0.1294 -0.4037  0.1149
  234SOL    HW1  934   0.190   1.067   2.561  1.4988  2.2839 -0.9889
  234SOL    HW2  935   0.299   1.141   2.634 -1.3860  0.3109  0.7953
  234SOL     MW  936   0.260   1.069   2.615  0.1102  0.0452  0.0590
  235SOL     OW  937   1.102   0.030   2.814 -0.3801 -0.1785 -0.1673
  235SOL    HW1  938   1.110   0.021   2.906  1.1125 -0.2724 -1.1681
  235SOL    HW2  939   1.086   0.125   2.804 -1.2674  0.2115 -0.3358
  235SOL     MW  940   1.101   0.041   2.825 -0.3002 -0.1394 -0.3216
  236SOL     OW  941   2.952   0.628   0.157 -0.2208  0.1386 -0.4104
  236SOL    HW1  942   2.965   0.664   0.241  0.7455 -2.1338 -0.5285
  236SOL    HW2  943   3.026   0.658   0.102  1.2600  1.8912 -1.5415
  236SOL     MW  944   2.964   0.637   0.161  0.1021  0.0700 -0.5752
  237SOL     OW  945   1.916   1.123   2.129  0.3475  0.0355  0.5401
  237SOL    HW1  946   1.856   1.039   2.121  1.0585 -1.3721 -0.8855
  237SOL    HW2  947   1.956   1.137   2.041  3.5995 -1.9995 -1.0932
  237SOL     MW  948   1.914   1.114   2.117  0.8704 -0.4187  0.1365
  238SOL     OW  949   1.100   1.706   2.900  0.1849 -0.2246  0.0259
  238SOL    HW1  950   1.082   1.621   2.858  0.0375 -3.4542  1.3975
  238SOL    HW2  951   1.178   1.680   2.952 -0.9519  0.2970 -0.0169
  238SOL     MW  952   1.108   1.691   2.902  0.0155 -0.5819  0.2012
  239SOL     OW  953   1.172   1.271   2.377  0.0868  0.0028  0.3166
  239SOL    HW1  954   1.163   1.366   2.362  1.2112 -0.0312  0.1565
  239SOL    HW2  955   1.168   1.257   2.471  1.6870  1.3884  0.2669
  239SOL     MW  956   1.170   1.282   2.387  0.4463  0.1811  0.2889
  240SOL     OW  957   0.586   0.839   2.304  0.3055  0.0850  0.3544
  240SOL    HW1  958   0.638   0.888   2.365  2.2887 -1.2059 -2.3884
  240SOL    HW2  959   0.654   0.833   2.241  0.3517  1.0573 -0.5553
  240SOL     MW  960   0.601   0.845   2.304  0.5732  0.0429 -0.1275
  241SOL     OW  961   0.670   0.459   3.084  0.1302 -0.0869  0.0403
  241SOL    HW1  962   0.701   0.523   3.153 -1.3575  0.1171  1.8387
  241SOL    HW2  963   0.575   0.468   3.075  1.7591  2.2907  1.5835
  241SOL     MW  964   0.662   0.469   3.092  0.1488  0.2537  0.4812
  242SOL     OW  965   1.518   1.613   2.289 -0.2396  0.0523  0.1186
  242SOL    HW1  966   1.486   1.699   2.317 -0.8713 -0.4963 -0.3262
  242SOL    HW2  967   1.442   1.581   2.244 -0.9425 -0.9912 -0.1469
  242SOL     MW  968   1.504   1.620   2.287 -0.4157 -0.1578  0.0249
  243SOL     OW  969   0.962   0.202   2.439  0.1961 -0.5423  0.7303
  243SOL    HW1  970   1.040   0.154   2.416 -1.0745 -2.1543  0.0720
  243SOL    HW2  971   0.998   0.285   2.472 -1.2695 -2.7535 -1.0942
  243SOL     MW  972   0.977   0.207   2.441 -0.1649 -1.0468  0.4028
  244SOL     OW  973   0.109   0.797   2.384 -0.6908 -0.5158 -0.2026
  244SOL    HW1  974   0.089   0.892   2.395 -0.6407  1.3833  0.2295
  244SOL    HW2  975   0.203   0.788   2.379  2.9994  1.5355 -0.1862
  244SOL     MW  976   0.119   0.808   2.385 -0.1973  0.0054 -0.1435
  245SOL     OW  977   1.247   0.098   2.399 -0.7772  0.0645  0.1386
  245SOL    HW1  978   1.318   0.073   2.343 -1.3832  0.1608  3.0145
  245SOL    HW2  979   1.263   0.047   2.475 -2.5265  0.0274 -2.5816
  245SOL     MW  980   1.259   0.088   2.401 -1.0879  0.0723  0.1591
  246SOL     OW  981   1.173   1.072   2.085 -0.7105  0.0171 -0.0287
  246SOL    HW1  982   1.121   1.049   2.161  1.2295 -0.0774  2.0349
  246SOL    HW2  983   1.255   1.029   2.116  0.9979  0.4673 -1.7010
  246SOL     MW  984   1.177   1.063   2.099 -0.2291  0.0640  0.0229
  247SOL     OW  985   0.782   0.651   0.167 -0.2912 -0.1809 -0.7805
  247SOL    HW1  986   0.755   0.746   0.174  0.2212  0.6992  0.3348
  247SOL    HW2  987   0.868   0.642   0.136  1.2863  1.1616 -0.8538
  247SOL     MW  988   0.790   0.662   0.164 -0.0154  0.1124 -0.6430
  248SOL     OW  989   0.353   1.315   2.626  0.1473 -0.4847 -0.3413
  248SOL    HW1  990   0.366   1.330   2.533  0.2927  1.4531 -0.7635
  248SOL    HW2  991   0.379   1.398   2.664  0.2489 -1.5881 -0.7947
  248SOL     MW  992   0.358   1.328   2.619  0.1799 -0.3746 -0.4568
  249SOL     OW  993   3.024   1.886   2.801 -0.0087 -0.8400 -0.3323
  249SOL    HW1  994   2.991   1.800   2.777  1.4012 -0.0071  1.5450
  249SOL    HW2  995   3.097   1.872   2.861 -0.4412 -2.4766  1.2436
  249SOL     MW  996   3.029   1.873   2.805  0.1203 -0.9460  0.1233
  250SOL     OW  997   2.272   0.696   2.207  0.4810 -0.2413  0.7417
  250SOL    HW1  998   2.226   0.622   2.236 -1.2704  0.0579 -0.3387
  250SOL    HW2  999   2.350   0.710   2.267 -1.6907  2.2237 -1.9045
  250SOL     MW 1000   2.276   0.688   2.219 -0.0366  0.1234  0.2500
  251SOL     OW 1001   0.157   0.880   1.987 -0.4000  0.3183 -0.6067
  251SOL    HW1 1002   0.096   0.814   2.030 -0.9923 -2.2724  1.2217
  251SOL    HW2 1003   0.120   0.904   1.900 -0.4979 -0.4073 -2.1051
  251SOL     MW 1004   0.144   0.875   1.981 -0.4911 -0.1192 -0.5632
  252SOL     OW 1005   1.717   1.026   2.893  0.1550 -0.0752  0.2066
  252SOL    HW1 1006   1.705   1.076   2.971  1.2256  0.3349  0.7308
  252SOL    HW2 1007   1.809   1.046   2.874  3.7365  2.7803  1.5102
  252SOL     MW 1008   1.727   1.035   2.901  0.7688  0.3557  0.4477
  253SOL     OW 1009   1.143   1.669   2.552  0.0419  0.1422  0.4763
  253SOL    HW1 1010   1.111   1.616   2.478 -0.9010 -2.1492 -1.8983
  253SOL    HW2 1011   1.076   1.733   2.552  2.5272  1.2415  0.1363
  253SOL     MW 1012   1.130   1.671   2.542  0.2454 -0.0151  0.1182
  254SOL     OW 1013   0.974   1.038   2.285 -0.2440 -0.4394  0.1435
  254SOL    HW1 1014   0.895   0.983   2.259 -2.1449  0.3555 -0.6040
  254SOL    HW2 1015   0.937   1.122   2.308  1.4392 -1.1146 -1.3249
  254SOL     MW 1016   0.959   1.042   2.284 -0.2728 -0.4236 -0.1488
  255SOL     OW 1017   0.870   2.448   2.163 -0.0682 -0.7871  0.4487
  255SOL    HW1 1018   0.777   2.417   2.149 -2.9433 -1.1432 -0.5327
  255SOL    HW2 1019   0.923   2.379   2.216  2.1682  0.7068 -0.5144
  255SOL     MW 1020   0.865   2.435   2.168 -0.1525 -0.6370  0.1921
  256SOL     OW 1021   1.320   2.831   3.067 -0.9364  0.5403  0.2827
  256SOL    HW1 1022   1.333   2.744   3.104  2.4481  0.3625 -0.6425
  256SOL    HW2 1023   1.366   2.817   2.982 -0.2152 -0.8966  1.4916
  256SOL     MW 1024   1.328   2.818   3.061 -0.3947  0.3273  0.3201
  257SOL     OW 1025   0.070   1.975   0.036  0.5142 -0.3822  0.1371
  257SOL    HW1 1026   0.131   1.917   0.087  1.6684 -0.2630  0.5355
  257SOL    HW2 1027   0.074   1.953  -0.055  1.6543  1.4171 -1.1938
  257SOL     MW 1028   0.079   1.965   0.031  0.8169 -0.1291  0.0141
  258SOL     OW 1029   0.704   0.979   2.535  0.2333 -0.2456 -0.1107
  258SOL    HW1 1030   0.721   1.066   2.486  0.3655 -0.7361 -0.5428
  258SOL    HW2 1031   0.647   0.976   2.613 -1.6409  0.0756 -4.1118
  258SOL     MW 1032   0.699   0.990   2.539  0.0035 -0.2679 -0.6956
  259SOL     OW 1033   0.810   0.421   2.260 -0.0404  0.1242  0.0330
  259SOL    HW1 1034   0.728   0.393   2.222  0.3309  0.1952  1.2967
  259SOL    HW2 1035   0.836   0.346   2.309 -0.7345  2.8841 -0.5705
  259SOL     MW 1036   0.803   0.407   2.262 -0.0830  0.4977  0.1201
  260SOL     OW 1037   0.672   0.080   1.610 -0.0842  0.1663  0.3611
  260SOL    HW1 1038   0.629   0.150   1.561  4.4609  3.4186 -1.6334
  260SOL    HW2 1039   0.767   0.093   1.602 -1.8164 -0.4281 -1.3591
  260SOL     MW 1040   0.679   0.091   1.602  0.2869  0.5170 -0.1290
  261SOL     OW 1041   1.011   0.732   2.016 -0.0661 -0.5061 -0.2682
  261SOL    HW1 1042   1.088   0.723   2.076 -2.5836 -1.9139  2.6400
  261SOL    HW2 1043   0.975   0.638   1.996 -0.8978 -2.3910  1.8956
  261SOL     MW 1044   1.017   0.719   2.021 -0.5080 -0.9405  0.4010
  262SOL     OW 1045   1.107   0.327   0.138  0.6592  0.1459  0.0372
  262SOL    HW1 1046   1.202   0.322   0.119  0.4222 -1.2863  1.8057
  262SOL    HW2 1047   1.061   0.271   0.075 -0.4993 -0.4694  0.0729
  262SOL     MW 1048   1.114   0.319   0.127  0.4751 -0.1243  0.2752
  263SOL     OW 1049   0.368   0.012   2.477 -0.7991  0.1976 -0.2528
  263SOL    HW1 1050   0.292   0.057   2.517 -1.5310 -0.4414  1.4935
  263SOL    HW2 1051   0.416   0.064   2.411  1.4871  1.1904 -2.5543
  263SOL     MW 1052   0.364   0.025   2.473 -0.5940  0.2443 -0.3261
  264SOL     OW 1053   1.540   1.460   1.948  0.1416  0.1168  0.6192
  264SOL    HW1 1054   1.444   1.437   1.940  1.5736 -1.1409 -0.0075
  264SOL    HW2 1055   1.563   1.453   2.041 -1.0063  3.2263  4.2241
  264SOL     MW 1056   1.530   1.456   1.959  0.1791  0.3611  1.0121
  265SOL     OW 1057   0.711   2.773   2.332  0.4166  0.1602 -0.2466
  265SOL    HW1 1058   0.795   2.727   2.317  0.0910  0.5312 -0.6094
  265SOL    HW2 1059   0.725   2.804   2.425 -2.6288  1.1252  1.5205
  265SOL     MW 1060   0.724   2.771   2.343 -0.0281  0.3365 -0.0613
  266SOL     OW 1061   0.791   0.854   2.135 -0.4620  0.2358 -0.4040
  266SOL    HW1 1062   0.789   0.931   2.081  1.6220  1.0843  1.6906
  266SOL    HW2 1063   0.870   0.805   2.100 -1.3653 -0.7120  0.1013
  266SOL     MW 1064   0.802   0.858   2.123 -0.3062  0.2227 -0.0610
  267SOL     OW 1065   1.377   1.730   2.700 -0.4628 -0.3370  0.2618
  267SOL    HW1 1066   1.439   1.671   2.660 -0.3527 -0.7709  0.4486
  267SOL    HW2 1067   1.297   1.727   2.639 -1.1418  1.6735 -0.3235
  267SOL     MW 1068   1.374   1.722   2.687 -0.5379 -0.1290  0.2092
  268SOL     OW 1069   0.082   0.903   1.703 -0.1440 -0.1642 -0.4994
  268SOL    HW1 1070  -0.007   0.926   1.725 -0.4582 -0.8190 -2.6474
  268SOL    HW2 1071   0.076   0.817   1.651  3.2585 -2.4854 -1.6365
  268SOL     MW 1072   0.070   0.895   1.699  0.2635 -0.5569 -0.9328
  269SOL     OW 1073   1.347   1.814   2.408 -0.2762 -0.6882 -0.0970
  269SOL    HW1 1074   1.377   1.886   2.463 -4.3670  1.1919 -0.9399
  269SOL    HW2 1075   1.251   1.800   2.424 -0.8764  2.1374 -0.4630
  269SOL     MW 1076   1.339   1.822   2.417 -0.8952 -0.0673 -0.2565
  270SOL     OW 1077   1.097   0.476   1.537  0.2971  0.3265  0.1372
  270SOL    HW1 1078   1.029   0.415   1.560  0.5308  1.2194 -0.5879
  270SOL    HW2 1079   1.175   0.430   1.527 -2.7195  1.1326  4.0358
  270SOL     MW 1080   1.099   0.462   1.538 -0.0700  0.5507  0.5559
  271SOL     OW 1081   0.731   0.096   2.573 -0.4164  0.2317 -0.1428
  271SOL    HW1 1082   0.771   0.080   2.659 -1.4277  1.6221  0.0372
  271SOL    HW2 1083   0.792   0.147   2.525 -2.0578  2.8616  1.5233
  271SOL     MW 1084   0.744   0.100   2.578 -0.7664  0.7621  0.1008
  272SOL     OW 1085   1.483   2.798   2.837  0.7215  0.4877  0.3887
  272SOL    HW1 1086   1.431   2.806   2.762  0.5892 -0.8310  0.2598
  272SOL    HW2 1087   1.523   2.890   2.849  0.3383 -1.2290  0.2114
  272SOL     MW 1088   1.481   2.812   2.829  0.6535  0.0872  0.3483
  273SOL     OW 1089   1.450   0.794   2.815 -0.3553 -0.3624  0.3525
  273SOL    HW1 1090   1.536   0.753   2.838  1.8458  1.5053 -0.9901
  273SOL    HW2 1091   1.468   0.889   2.802 -1.7762 -0.0494  2.5946
  273SOL     MW 1092   1.464   0.801   2.816 -0.2524 -0.0747  0.4712
  274SOL     OW 1093   1.397   0.654   0.140 -0.0161  0.3422  0.7717
  274SOL    HW1 1094   1.462   0.589   0.174 -0.5195  0.1959  0.6869
  274SOL    HW2 1095   1.319   0.646   0.203  1.2986 -1.3396  0.1417
  274SOL     MW 1096   1.396   0.645   0.153  0.0909  0.1010  0.6774
  275SOL     OW 1097   1.876   0.555   1.710  0.5077  0.0638  0.2370
  275SOL    HW1 1098   1.915   0.607   1.777 -0.7557 -0.1025  2.5171
  275SOL    HW2 1099   1.892   0.468   1.738  0.8023  0.1060 -0.2413
  275SOL     MW 1100   1.883   0.550   1.722  0.3798  0.0475  0.4747
  276SOL     OW 1101   0.421   1.170   1.951  0.2693 -0.0873  0.5855
  276SOL    HW1 1102   0.422   1.090   2.004 -0.6038  0.8951 -0.9847
  276SOL    HW2 1103   0.372   1.236   2.007 -2.1164  1.1406  0.6277
  276SOL     MW 1104   0.414   1.168   1.965 -0.1607  0.2043  0.3839
  277SOL     OW 1105   1.975   1.149   2.448  0.5887  0.2238 -0.4490
  277SOL    HW1 1106   2.023   1.230   2.465  0.3268  1.7292  0.2646
  277SOL    HW2 1107   1.887   1.175   2.410 -2.5815  1.1693  2.7630
  277SOL     MW 1108   1.969   1.163   2.445  0.1359  0.5472  0.0689
  278SOL     OW 1109   1.449   0.616   1.610 -0.3339 -0.1570  0.3563
  278SOL    HW1 1110   1.441   0.597   1.704  1.0802 -0.3790 -2.9950
  278SOL    HW2 1111   1.542   0.632   1.599  0.0693  0.7376  1.9961
  278SOL     MW 1112   1.460   0.616   1.621 -0.0941 -0.0682  0.1305
  279SOL     OW 1113   0.501   0.083   2.200  0.0798 -0.1504 -0.0606
  279SOL    HW1 1114   0.584   0.039   2.236  0.0769 -0.9743 -1.1013
  279SOL    HW2 1115   0.546   0.163   2.167  0.6726 -1.8484 -0.0099
  279SOL     MW 1116   0.518   0.088   2.201  0.1576 -0.4831 -0.1912
  280SOL     OW 1117   1.392   0.986   2.238  0.7205 -0.1998  0.3809
  280SOL    HW1 1118   1.483   0.990   2.210  1.6251  1.3253 -0.3676
  280SOL    HW2 1119   1.383   0.956   2.329  2.0416 -0.3739  1.2391
  280SOL     MW 1120   1.403   0.983   2.247  1.0141 -0.0215  0.3954
  281SOL     OW 1121   1.394   1.069   2.772 -0.0975  0.2429 -0.1222
  281SOL    HW1 1122   1.443   1.149   2.769  2.2442 -2.2055  0.2141
  281SOL    HW2 1123   1.338   1.090   2.847 -0.8683 -0.3107 -1.1508
  281SOL     MW 1124   1.393   1.082   2.782  0.1097 -0.1532 -0.2136
  282SOL     OW 1125   1.074   1.329   1.618 -0.2195  0.0768 -0.3293
  282SOL    HW1 1126   1.044   1.409   1.588 -1.2875 -1.6279  1.4713
  282SOL    HW2 1127   1.001   1.277   1.647 -0.8737  0.4350 -1.3467
  282SOL     MW 1128   1.060   1.332   1.618 -0.4467 -0.1008 -0.2260
  283SOL     OW 1129   0.819   1.324   3.000 -0.6443 -0.7493 -0.4343
  283SOL    HW1 1130   0.897   1.329   3.063  2.5300 -1.3881 -2.7867
  283SOL    HW2 1131   0.776   1.409   3.015  0.4199  1.4839 -0.5179
  283SOL     MW 1132   0.824   1.336   3.010 -0.0850 -0.5389 -0.7557
  284SOL     OW 1133   0.366   0.687   2.353  0.7877  0.3614  0.3804
  284SOL    HW1 1134   0.445   0.740   2.320 -0.3266 -0.7127 -1.2972
  284SOL    HW2 1135   0.342   0.627   2.282  0.5277  2.3045 -1.0489
  284SOL     MW 1136   0.373   0.686   2.339  0.6063  0.4761 -0.0295
  285SOL     OW 1137   0.873   0.934   2.795  0.4581 -0.0862 -0.0722
  285SOL    HW1 1138   0.942   0.945   2.725  0.0263  1.1159  1.8898
  285SOL    HW2 1139   0.810   0.870   2.769 -1.5029 -0.8202 -0.0647
  285SOL     MW 1140   0.874   0.927   2.782  0.1424 -0.0245  0.1877
  286SOL     OW 1141   1.053   1.448   2.735 -0.3039  0.8578 -0.2009
  286SOL    HW1 1142   1.105   1.372   2.716 -0.5764  1.1310  1.7767
  286SOL    HW2 1143   1.099   1.514   2.688 -1.1464 -0.0407  2.7650
  286SOL     MW 1144   1.066   1.446   2.726 -0.4511  0.7753  0.4513
  287SOL     OW 1145   1.092   0.968   0.327  0.0591  0.2739  0.2807
  287SOL    HW1 1146   1.047   0.994   0.406 -0.2749 -2.0510 -1.9219
  287SOL    HW2 1147   1.028   0.992   0.259 -1.0690 -0.6879 -0.7090
  287SOL     MW 1148   1.078   0.975   0.328 -0.1338 -0.1598 -0.1405
  288SOL     OW 1149   1.496   0.724   2.091 -0.1598  0.2962  0.3165
  288SOL    HW1 1150   1.412   0.725   2.136  3.6898  1.5082 -0.9461
  288SOL    HW2 1151   1.536   0.806   2.104 -0.0612 -1.5254 -2.7964
  288SOL     MW 1152   1.490   0.735   2.099  0.3611  0.2158 -0.2608
  289SOL     OW 1153   1.014   1.028   2.583  0.2238  0.4115 -0.4703
  289SOL    HW1 1154   1.064   0.964   2.539  0.0910 -0.4709 -0.1260
  289SOL    HW2 1155   0.938   1.045   2.532  3.4641 -0.0177  2.1175
  289SOL     MW 1156   1.011   1.022   2.570  0.6338  0.2384 -0.0835
  290SOL     OW 1157   0.696   0.651   1.475  0.1143  0.2978 -0.2567
  290SOL    HW1 1158   0.733   0.607   1.401 -1.0122 -0.7310  1.3419
  290SOL    HW2 1159   0.753   0.645   1.557  0.9016 -0.6667 -3.6061
  290SOL     MW 1160   0.708   0.644   1.476  0.0695  0.0348 -0.4877
  291SOL     OW 1161   0.192   0.345   0.214 -0.7731 -0.1663  0.1375
  291SOL    HW1 1162   0.276   0.308   0.220 -0.5558  1.2239 -2.2312
  291SOL    HW2 1163   0.139   0.294   0.274 -1.6502  0.0129  0.0614
  291SOL     MW 1164   0.196   0.333   0.223 -0.8602  0.0407 -0.1851
  292SOL     OW 1165   1.023   0.568   0.079 -0.3655  0.6567  0.1972
  292SOL    HW1 1166   1.079   0.621   0.133  1.6853 -1.4210 -1.3741
  292SOL    HW2 1167   1.059   0.477   0.100  2.1051 -0.2104  0.4592
  292SOL     MW 1168   1.035   0.563   0.089  0.2311  0.2682  0.0244
  293SOL     OW 1169   0.120   0.116   2.521 -0.9766 -0.2674 -0.3338
  293SOL    HW1 1170   0.119   0.079   2.432  1.2703 -2.8958  0.1002
  293SOL    HW2 1171   0.028   0.106   2.553  0.9032  1.6924 -2.1509
  293SOL     MW 1172   0.108   0.110   2.513 -0.4321 -0.3556 -0.5163
  294SOL     OW 1173   1.253   0.440   2.294 -0.1279  0.0941 -0.1403
  294SOL    HW1 1174   1.328   0.485   2.338  0.8237  0.6573  1.4069
  294SOL    HW2 1175   1.270   0.355   2.327 -0.1600  0.5480  1.0755
  294SOL     MW 1176   1.265   0.435   2.304 -0.0066  0.2283  0.2242
  295SOL     OW 1177   0.872   0.664   2.480  0.6092  0.0515 -0.0335
  295SOL    HW1 1178   0.832   0.611   2.410  1.1742  0.0956 -1.9123
  295SOL    HW2 1179   0.797   0.685   2.538  0.4620 -0.4463  0.1009
  295SOL     MW 1180   0.857   0.660   2.478  0.6643 -0.0084 -0.2637
  296SOL     OW 1181   1.376   0.357   2.051  0.0729  0.5213 -0.5355
  296SOL    HW1 1182   1.376   0.264   2.061 -1.2801  2.8422 -1.0138
  296SOL    HW2 1183   1.341   0.390   2.131  0.3726 -1.1060 -0.1610
  296SOL     MW 1184   1.371   0.349   2.063 -0.0661  0.6128 -0.5492
  297SOL     OW 1185   1.372   0.380   1.519  0.0142 -0.0898  0.3842
  297SOL    HW1 1186   1.398   0.462   1.558 -0.7487 -0.0951 -0.8793
  297SOL    HW2 1187   1.409   0.306   1.571 -2.2998  1.2634  1.3278
  297SOL     MW 1188   1.380   0.381   1.531 -0.3918  0.0880  0.3420
  298SOL     OW 1189   1.690   0.933   2.138 -0.3452  0.1824 -0.3352
  298SOL    HW1 1190   1.693   0.958   2.041 -2.0347  0.2337 -0.1620
  298SOL    HW2 1191   1.743   0.852   2.149  0.8311 -1.2924  0.7746
  298SOL     MW 1192   1.697   0.926   2.127 -0.4129 -0.0054 -0.1659
  299SOL     OW 1193   0.609   1.154   0.042  0.4105 -0.4057  0.7444
  299SOL    HW1 1194   0.568   1.112  -0.042 -0.7945 -1.2701 -1.6176
  299SOL    HW2 1195   0.685   1.205   0.016 -0.1650 -0.8966 -0.5044
  299SOL     MW 1196   0.613   1.155   0.027  0.1756 -0.5845  0.2680
  300SOL     OW 1197   1.171   1.217   2.673  0.5003  0.0651 -0.0495
  300SOL    HW1 1198   1.102   1.159   2.641  0.3368  0.5589  3.7511
  300SOL    HW2 1199   1.245   1.161   2.684 -0.2386  0.5859 -0.2713
  300SOL     MW 1200   1.172   1.202   2.670  0.3813  0.1990  0.4227
  301SOL     OW 1201   1.463   1.027   0.677 -0.4465  0.4970 -0.2530
  301SOL    HW1 1202   1.485   1.052   0.763 -0.4304 -0.6046  0.0428
  301SOL    HW2 1203   1.396   0.962   0.692 -3.2415  1.4583  0.8120
  301SOL     MW 1204   1.457   1.022   0.690 -0.8131  0.4785 -0.0734
  302SOL     OW 1205   0.235   1.580   2.052  0.0638 -0.1942  0.8058
  302SOL    HW1 1206   0.245   1.486   2.058 -0.1880 -1.6747  0.6060
  302SOL    HW2 1207   0.142   1.591   2.039 -1.1497 -0.0423 -1.1480
  302SOL     MW 1208   0.224   1.569   2.051 -0.1295 -0.3695  0.5216
  303SOL     OW 1209   0.301   1.791   2.689  0.5288  0.1654  0.0596
  303SOL    HW1 1210   0.247   1.817   2.616 -2.3389 -0.6900  1.5298
  303SOL    HW2 1211   0.242   1.804   2.768  0.0386  5.0185  0.6128
  303SOL     MW 1212   0.286   1.796   2.690  0.0857  0.6929  0.3266
  304SOL     OW 1213   0.539   2.111   2.452  0.3189  0.4684 -0.4047
  304SOL    HW1 1214   0.581   2.191   2.427 -1.2977 -0.4936  1.1801
  304SOL    HW2 1215   0.604   2.038   2.440  1.3284  0.7187 -3.1951
  304SOL     MW 1216   0.553   2.112   2.447  0.2388  0.3745 -0.5638
  305SOL     OW 1217   1.127   0.622   0.552 -0.3845  0.0731 -0.5359
  305SOL    HW1 1218   1.032   0.597   0.539 -0.3886 -1.1347 -1.2119
  305SOL    HW2 1219   1.179   0.537   0.538  3.6461 -3.1535 -0.8475
  305SOL     MW 1220   1.121   0.608   0.549  0.1468 -0.5120 -0.6662
  306SOL     OW 1221   1.140   1.538   0.302 -0.1486 -0.5817  0.3157
  306SOL    HW1 1222   1.158   1.444   0.324  0.6617  1.6510 -0.7150
  306SOL    HW2 1223   1.212   1.556   0.235  0.2705  1.7037  0.9382
  306SOL     MW 1224   1.152   1.528   0.296  0.0136  0.0144  0.2618
  307SOL     OW 1225   1.448   0.557   1.863 -0.4562  0.0647  0.0897
  307SOL    HW1 1226   1.433   0.479   1.918 -0.6175  0.9379  1.1085
  307SOL    HW2 1227   1.441   0.637   1.921 -1.3112 -0.3505 -2.6596
  307SOL     MW 1228   1.445   0.557   1.878 -0.5903  0.1251 -0.1386
  308SOL     OW 1229   2.270   0.581   2.725 -0.0855  0.3530 -0.0955
  308SOL    HW1 1230   2.351   0.585   2.774 -1.5114 -0.4909 -1.1394
  308SOL    HW2 1231   2.228   0.669   2.727 -0.6243 -0.3331 -3.0863
  308SOL     MW 1232   2.275   0.593   2.732 -0.3447  0.1511 -0.6279
  309SOL     OW 1233   0.549   0.520   0.297  0.3018  0.1943 -0.3116
  309SOL    HW1 1234   0.633   0.557   0.265  0.5201  2.7218  2.8792
  309SOL    HW2 1235   0.534   0.439   0.246 -1.0036 -1.6234  3.3566
  309SOL     MW 1236   0.558   0.514   0.286  0.1584  0.2879  0.5934
  310SOL     OW 1237   0.396   0.531   1.826  0.4255 -0.0574 -0.4990
  310SOL    HW1 1238   0.445   0.503   1.749  0.8582  2.6819 -1.6133
  310SOL    HW2 1239   0.437   0.620   1.826 -2.0674  1.6617 -1.4730
  310SOL     MW 1240   0.408   0.539   1.816  0.1537  0.5309 -0.7745
  311SOL     OW 1241   1.995   0.715   1.905 -0.0800  0.2574 -0.2161
  311SOL    HW1 1242   1.927   0.704   1.979 -1.8423 -2.4205 -1.3357
  311SOL    HW2 1243   2.071   0.694   1.953  2.1606 -3.0665 -0.2425
  311SOL     MW 1244   1.996   0.711   1.921 -0.0169 -0.5345 -0.3673
  312SOL     OW 1245   1.755   2.449   0.152  0.6091 -0.5421  0.1470
  312SOL    HW1 1246   1.766   2.435   0.244  1.2386 -1.7639  0.6522
  312SOL    HW2 1247   1.695   2.531   0.149 -0.3484  0.4946 -0.7053
  312SOL     MW 1248   1.749   2.458   0.163  0.5658 -0.5665  0.1012
  313SOL     OW 1249   0.074   1.145   3.074 -0.7250 -0.0343 -0.1252
  313SOL    HW1 1250   0.048   1.186   3.158 -0.7497  0.9419 -1.5757
  313SOL    HW2 1251   0.126   1.213   3.036  1.6301  0.0837 -1.5098
  313SOL     MW 1252   0.078   1.159   3.080 -0.4175  0.1101 -0.4992
  314SOL     OW 1253   2.225   2.872   3.070  0.1234  0.3062 -0.1041
  314SOL    HW1 1254   2.134   2.892   3.034  0.9715  0.1220  0.4978
  314SOL    HW2 1255   2.262   2.951   3.083 -0.5639 -0.5170  1.4825
  314SOL     MW 1256   2.218   2.885   3.067  0.1446  0.1733  0.1847
  315SOL     OW 1257   1.519   1.873   3.022  0.3106 -0.3214 -0.0866
  315SOL    HW1 1258   1.453   1.929   3.057  0.1280  2.4988  0.3715
  315SOL    HW2 1259   1.571   1.934   2.973  0.7061 -0.6112 -1.4690
  315SOL     MW 1260   1.517   1.888   3.020  0.3387  0.0125 -0.2086
  316SOL     OW 1261   1.212   0.694   2.711 -0.2185 -0.2220 -0.1330
  316SOL    HW1 1262   1.293   0.721   2.741  2.0644 -0.5557 -1.6140
  316SOL    HW2 1263   1.174   0.647   2.787 -1.1721 -2.3779 -2.3017
  316SOL     MW 1264   1.217   0.691   2.725 -0.0431 -0.5505 -0.6146
  317SOL     OW 1265   0.665   1.636   2.562 -0.5287  0.5997 -0.4896
  317SOL    HW1 1266   0.719   1.559   2.590  1.2732  0.3566  1.6763
  317SOL    HW2 1267   0.650   1.623   2.473 -2.3821 -0.3788 -1.4461
  317SOL     MW 1268   0.671   1.624   2.554 -0.5355  0.4385 -0.3300
  318SOL     OW 1269   1.358   0.393   2.860  0.0494  0.0658 -0.2054
  318SOL    HW1 1270   1.284   0.447   2.860  0.8484 -1.0660  0.0395
  318SOL    HW2 1271   1.428   0.448   2.837 -0.0170 -1.2848  1.1982
  318SOL     MW 1272   1.358   0.408   2.857  0.1461 -0.2617  0.0121
  319SOL     OW 1273   0.831   0.493   2.872  0.2345 -0.6524 -0.1752
  319SOL    HW1 1274   0.784   0.429   2.821 -0.5632  2.0601  1.7071
  319SOL    HW2 1275   0.799   0.493   2.961 -2.6333  1.5719  0.3645
  319SOL     MW 1276   0.821   0.485   2.877 -0.2492 -0.0011  0.1444
  320SOL     OW 1277   1.010   1.294   2.014 -0.2148 -0.4343  0.5977
  320SOL    HW1 1278   1.074   1.230   2.049  0.2731 -3.1664 -0.8099
  320SOL    HW2 1279   1.053   1.360   1.960  1.1346  0.0957  1.6597
  320SOL     MW 1280   1.024   1.294   2.011  0.0276 -0.7248  0.5521
  321SOL     OW 1281   1.011   0.946   3.026 -0.2106  0.1174 -0.4034
  321SOL    HW1 1282   0.965   0.946   2.938  3.7288  2.0430 -1.2999
  321SOL    HW2 1283   1.081   0.881   3.014  0.4174  2.4290 -1.4767
  321SOL     MW 1284   1.014   0.937   3.013  0.3920  0.6764 -0.6633
  322SOL     OW 1285   1.332   0.861   1.649 -0.3448  0.3133 -0.0188
  322SOL    HW1 1286   1.371   0.772   1.638 -0.5100  1.9225 -0.2729
  322SOL    HW2 1287   1.256   0.843   1.704 -0.8694 -0.1159 -1.9527
  322SOL     MW 1288   1.327   0.847   1.655 -0.4358  0.4690 -0.3075
  323SOL     OW 1289   1.143   1.519   1.910 -0.2531 -0.0464 -0.0333
  323SOL    HW1 1290   1.137   1.515   1.815 -0.2518 -1.4776  0.4931
  323SOL    HW2 1291   1.117   1.610   1.930 -2.8709  0.8138  0.0669
  323SOL     MW 1292   1.139   1.531   1.900 -0.5983 -0.1217  0.0494
  324SOL     OW 1293   1.434   0.875   2.499 -0.0243 -0.4302 -0.2406
  324SOL    HW1 1294   1.371   0.877   2.569 -5.4461 -2.3196  0.6782
  324SOL    HW2 1295   1.514   0.920   2.538 -0.6308 -2.4664 -1.2727
  324SOL     MW 1296   1.436   0.882   2.514 -0.8197 -0.9481 -0.2555
  325SOL     OW 1297   1.105   0.552   2.909  0.1847 -0.0396 -0.5024
  325SOL    HW1 1298   1.094   0.588   2.997 -0.6992 -0.6457  1.1450
  325SOL    HW2 1299   1.011   0.531   2.883 -3.2371  0.9914  3.4890
  325SOL     MW 1300   1.091   0.554   2.917 -0.3834  0.0164  0.2416
  326SOL     OW 1301   0.377   1.371   2.338 -0.0369 -0.0666  0.0898
  326SOL    HW1 1302   0.462   1.341   2.302  1.2204 -2.2120 -0.8402
  326SOL    HW2 1303   0.373   1.469   2.338 -0.4167  2.1852 -0.6324
  326SOL     MW 1304   0.387   1.380   2.333  0.0789 -0.0526 -0.1282
  327SOL     OW 1305   1.958   0.745   2.419  0.0254 -0.0317  0.1459
  327SOL    HW1 1306   1.953   0.711   2.510 -0.4680 -0.8893  0.4205
  327SOL    HW2 1307   2.007   0.828   2.422 -0.5383 -0.3012 -0.2857
  327SOL     MW 1308   1.964   0.752   2.431 -0.1141 -0.1804  0.1252
  328SOL     OW 1309   0.254   1.320   2.106 -0.2331 -0.8752 -0.3182
  328SOL    HW1 1310   0.170   1.281   2.104  1.1306  1.3286 -1.6129
  328SOL    HW2 1311   0.288   1.336   2.197  2.7831  2.2259  1.5737
  328SOL     MW 1312   0.247   1.317   2.118  0.3448 -0.1753 -0.2394
  329SOL     OW 1313   0.024   0.155   1.350 -0.1438 -0.1562 -0.4917
  329SOL    HW1 1314   0.003   0.145   1.448  0.2587  0.1276 -3.3753
  329SOL    HW2 1315   0.120   0.181   1.348 -1.6524  2.9840  2.6161
  329SOL     MW 1316   0.034   0.157   1.363 -0.2897  0.2956 -0.4621
  330SOL     OW 1317   0.343   0.061   1.968  0.0551  0.4084 -0.0578
  330SOL    HW1 1318   0.435   0.041   1.987  0.0219 -1.2633  0.1267
  330SOL    HW2 1319   0.304  -0.007   2.024  0.7878 -0.3876 -0.0325
  330SOL     MW 1320   0.350   0.050   1.978  0.1474  0.0828 -0.0301
  331SOL     OW 1321   0.810   1.212   2.409  0.2134 -0.3124  0.6498
  331SOL    HW1 1322   0.764   1.239   2.323  0.7157 -0.8496  1.6816
  331SOL    HW2 1323   0.806   1.284   2.481  1.2041 -2.5223 -3.7652
  331SOL     MW 1324   0.803   1.225   2.407  0.4104 -0.6749  0.2034
  332SOL     OW 1325   1.361   1.629   2.946  0.2501 -0.2400 -0.0227
  332SOL    HW1 1326   1.363   1.663   2.857  0.6093  0.0352  0.3236
  332SOL    HW2 1327   1.433   1.679   2.985  0.7992  0.9587  1.4632
  332SOL     MW 1328   1.370   1.640   2.939  0.3699 -0.0455  0.2191
  333SOL     OW 1329   1.715   1.354   2.926  0.1111  0.8317 -0.4564
  333SOL    HW1 1330   1.812   1.359   2.928  0.6569 -2.7523 -3.7229
  333SOL    HW2 1331   1.704   1.294   3.006  2.5206 -0.4815  1.4013
  333SOL     MW 1332   1.726   1.347   2.937  0.5010  0.1856 -0.6423
  334SOL     OW 1333   1.326   3.046   2.614 -0.0644  0.3455 -0.0602
  334SOL    HW1 1334   1.255   3.055   2.670  0.1472 -3.1277 -1.5182
  334SOL    HW2 1335   1.388   3.100   2.667  1.0940 -1.2477 -1.5311
  334SOL     MW 1336   1.325   3.054   2.628  0.1164 -0.3230 -0.4466
  335SOL     OW 1337   1.263   0.785   3.041  0.1125  0.2750  0.3286
  335SOL    HW1 1338   1.306   0.729   3.117 -2.9100  2.7378  0.5725
  335SOL    HW2 1339   1.319   0.776   2.964 -0.6227  1.6086 -1.1031
  335SOL     MW 1340   1.276   0.776   3.041 -0.3833  0.7759  0.1719
  336SOL     OW 1341   0.892   1.108   1.709 -1.1076  0.2798 -0.2535
  336SOL    HW1 1342   0.811   1.112   1.761 -3.0627  0.9369 -0.0523
  336SOL    HW2 1343   0.953   1.055   1.765  2.5514 -0.6694  1.5457
  336SOL     MW 1344   0.889   1.102   1.723 -0.8828  0.2412  0.0104
  337SOL     OW 1345   0.531   1.936   2.864  0.0665 -0.4605  0.4204
  337SOL    HW1 1346   0.493   1.871   2.805  0.8959 -0.4520  0.1938
  337SOL    HW2 1347   0.617   1.898   2.873  0.5648 -1.7413  0.3306
  337SOL     MW 1348   0.537   1.922   2.857  0.2417 -0.6283  0.3787
  338SOL     OW 1349   1.127   0.774   2.462  0.1731 -0.0666 -0.0837
  338SOL    HW1 1350   1.036   0.740   2.454  2.5350  1.6034  1.2573
  338SOL    HW2 1351   1.160   0.737   2.544 -1.1869  1.1416 -0.4955
  338SOL     MW 1352   1.119   0.765   2.472  0.3053  0.3132  0.0389
  339SOL     OW 1353   1.339   1.276   1.933 -0.6626 -0.1511  0.8868
  339SOL    HW1 1354   1.369   1.246   1.847  0.9994 -2.1709  1.4716
  339SOL    HW2 1355   1.283   1.207   1.971  0.1129  0.0684  0.0195
  339SOL     MW 1356   1.335   1.263   1.926 -0.3410 -0.3886  0.8495
  340SOL     OW 1357   1.328   1.549   0.105  0.3849 -0.0526  0.1466
  340SOL    HW1 1358   1.333   1.563   0.003  4.5347 -0.7857 -2.7803
  340SOL    HW2 1359   1.377   1.468   0.119  0.8916  0.9711  1.6008
  340SOL     MW 1360   1.335   1.540   0.093  0.9993 -0.0142 -0.0477
  341SOL     OW 1361   0.090   1.396   2.836 -1.0386  0.3604  0.1981
  341SOL    HW1 1362   0.185   1.390   2.872  3.6469  0.4185 -0.1435
  341SOL    HW2 1363   0.096   1.340   2.760  1.6804  0.2913  1.5189
  341SOL     MW 1364   0.104   1.387   2.831 -0.0617  0.3589  0.3273
  342SOL     OW 1365   1.383   0.340   0.022 -0.2806  0.3834  0.2946
  342SOL    HW1 1366   1.460   0.376   0.058  2.3206  0.0623 -0.4784
  342SOL    HW2 1367   1.370   0.378  -0.067 -1.8452  2.6862  1.2630
  342SOL     MW 1368   1.391   0.350   0.015 -0.1438  0.6449  0.3204
  343SOL     OW 1369   0.248   0.294   2.110 -0.3072  0.4674 -0.8579
  343SOL    HW1 1370   0.285   0.209   2.088 -0.3904 -0.2018 -1.1813
  343SOL    HW2 1371   0.155   0.278   2.143 -1.3778  3.2951  0.8520
  343SOL     MW 1372   0.241   0.281   2.111 -0.4594  0.7522 -0.6750
  344SOL     OW 1373   1.677   2.048   0.189 -0.3435  0.2096  0.1443
  344SOL    HW1 1374   1.665   2.096   0.104 -1.6704  1.8029 -3.2303
  344SOL    HW2 1375   1.594   2.032   0.218  3.6081  3.4021 -1.0855
  344SOL     MW 1376   1.664   2.052   0.181  0.0028  0.8411 -0.4632
  345SOL     OW 1377   0.622   1.569   2.284 -0.3544 -0.2607 -0.2437
  345SOL    HW1 1378   0.574   1.610   2.210  0.8621  3.9012 -0.0687
  345SOL    HW2 1379   0.706   1.542   2.243 -1.0815  1.5041  0.4770
  345SOL     MW 1380   0.627   1.571   2.269 -0.2898  0.5212 -0.1256
  346SOL     OW 1381   1.665   1.197   0.031  0.3027  0.6375  0.3112
  346SOL    HW1 1382   1.715   1.248   0.092 -0.5003 -0.0649  0.3077
  346SOL    HW2 1383   1.668   1.112   0.067 -3.6443 -1.8504 -1.2653
  346SOL     MW 1384   1.672   1.192   0.044 -0.3240  0.2166  0.1028
  347SOL     OW 1385   1.238   0.720   2.197  0.7929  0.7095  0.1316
  347SOL    HW1 1386   1.211   0.633   2.215  0.9700  1.9056 -1.0507
  347SOL    HW2 1387   1.220   0.773   2.277 -0.4492  0.0043 -1.8137
  347SOL     MW 1388   1.232   0.716   2.210  0.6524  0.7743 -0.2810
  348SOL     OW 1389   1.294   2.530   1.937  0.0084 -0.0134  0.1436
  348SOL    HW1 1390   1.312   2.446   1.991  2.5136 -0.5902  2.7166
  348SOL    HW2 1391   1.332   2.603   1.990 -0.8759 -1.1355 -1.7203
  348SOL     MW 1392   1.301   2.529   1.951  0.2223 -0.2375  0.2372
  349SOL     OW 1393   1.445   0.138   2.785 -0.2050 -0.9584  0.0537
  349SOL    HW1 1394   1.406   0.223   2.823 -0.2818 -0.3234 -3.6251
  349SOL    HW2 1395   1.508   0.104   2.847 -0.0690  1.6208 -2.1690
  349SOL     MW 1396   1.448   0.145   2.798 -0.1972 -0.5344 -0.7250
  350SOL     OW 1397   1.877   0.604   2.651  0.0904  0.0265  0.2642
  350SOL    HW1 1398   1.819   0.541   2.602  2.0898 -3.7613 -0.0109
  350SOL    HW2 1399   1.932   0.549   2.716  0.6516  0.1209 -1.9400
  350SOL     MW 1400   1.877   0.589   2.653  0.4282 -0.4608 -0.0629
  351SOL     OW 1401   0.124   1.150   1.544  0.4368 -0.7512 -0.3411
  351SOL    HW1 1402   0.106   1.064   1.584  0.0356 -0.5988  0.5687
  351SOL    HW2 1403   0.162   1.205   1.613 -1.1664 -3.2764  2.1259
  351SOL     MW 1404   0.126   1.146   1.558  0.1724 -1.0642  0.1045
  352SOL     OW 1405   0.748   1.791   2.830  0.3865  0.0597  0.0921
  352SOL    HW1 1406   0.786   1.724   2.888 -0.1632 -0.9820 -1.5183
  352SOL    HW2 1407   0.745   1.750   2.742  0.8664 -1.1346 -0.1256
  352SOL     MW 1408   0.752   1.777   2.826  0.3773 -0.2353 -0.1491
  353SOL     OW 1409   3.086   2.567   2.673 -0.0918 -0.2579  0.6471
  353SOL    HW1 1410   3.170   2.519   2.674 -0.4050 -2.2268  1.2751
  353SOL    HW2 1411   3.088   2.644   2.613  2.3559 -0.2647 -3.6691
  353SOL     MW 1412   3.097   2.571   2.665  0.1898 -0.5186  0.1605
  354SOL     OW 1413   0.336   2.417   0.792 -0.0981  0.3560  0.3421
  354SOL    HW1 1414   0.374   2.411   0.877  1.5825 -2.2737 -0.3156
  354SOL    HW2 1415   0.253   2.359   0.800  0.1332 -0.6193  1.2150
  354SOL     MW 1416   0.330   2.408   0.804  0.1542 -0.1196  0.3705
  355SOL     OW 1417   0.109   2.265   0.378  0.0100 -0.0774 -0.6880
  355SOL    HW1 1418   0.027   2.210   0.361  0.3931 -0.9529 -3.8719
  355SOL    HW2 1419   0.078   2.310   0.453  3.6199 -0.1638 -0.7342
  355SOL     MW 1420   0.094   2.264   0.386  0.5368 -0.2043 -1.1142
  356SOL     OW 1421   0.749   2.955   0.993  0.1705 -0.1315  0.0193
  356SOL    HW1 1422   0.818   2.953   0.925  0.7493 -2.7833 -1.0534
  356SOL    HW2 1423   0.685   2.883   0.976 -0.0629  3.0651 -0.3944
  356SOL     MW 1424   0.750   2.945   0.982  0.2161 -0.0596 -0.1768
  357SOL     OW 1425   1.884   2.809   0.447  0.0665  0.3128 -0.2522
  357SOL    HW1 1426   1.840   2.745   0.502  0.0618  0.5991 -0.9632
  357SOL    HW2 1427   1.962   2.764   0.416 -0.0329 -1.2847 -1.2700
  357SOL     MW 1428   1.888   2.795   0.450  0.0528  0.1398 -0.4803
  358SOL     OW 1429   0.395   0.112   1.044 -0.6627 -0.3127 -0.6902
  358SOL    HW1 1430   0.492   0.134   1.034 -0.0788  3.3543 -0.3449
  358SOL    HW2 1431   0.354   0.152   0.968  0.2033  1.4436  0.5335
  358SOL     MW 1432   0.402   0.121   1.033 -0.4714  0.4028 -0.4832
  359SOL     OW 1433   0.913   2.936   1.909 -0.1694  0.0668  0.2534
  359SOL    HW1 1434   0.886   2.857   1.962 -0.7899 -0.0965  1.0228
  359SOL    HW2 1435   0.923   2.903   1.813  1.1329 -0.5372 -1.8477
  359SOL     MW 1436   0.911   2.921   1.903 -0.0795 -0.0344  0.0777
  360SOL     OW 1437   0.564   2.757   0.902 -0.0143 -0.0185  0.1116
  360SOL    HW1 1438   0.597   2.733   0.817 -2.2897  0.1324  0.3805
  360SOL    HW2 1439   0.563   2.677   0.947  0.1663 -0.8529 -2.2961
  360SOL     MW 1440   0.568   2.743   0.896 -0.2907 -0.1087 -0.1706
  361SOL     OW 1441   0.118   2.716   1.333 -0.5944  0.0487  0.0793
  361SOL    HW1 1442   0.048   2.749   1.380  0.6475  0.5798  0.9751
  361SOL    HW2 1443   0.194   2.771   1.348  0.5816  0.9926  1.3875
  361SOL     MW 1444   0.119   2.727   1.341 -0.2754  0.2433  0.3701
  362SOL     OW 1445   1.399   2.419   0.592 -0.1173 -0.3357 -0.1904
  362SOL    HW1 1446   1.447   2.379   0.667  2.5361  0.8080 -1.0927
  362SOL    HW2 1447   1.449   2.503   0.581  0.3497  2.0724  0.7686
  362SOL     MW 1448   1.412   2.425   0.601  0.2944  0.1330 -0.1829
  363SOL     OW 1449   0.328   0.006   0.643  0.4763  0.0388  0.1441
  363SOL    HW1 1450   0.311  -0.058   0.709  3.0657 -2.7781 -1.5908
  363SOL    HW2 1451   0.265  -0.008   0.572  1.6731 -0.9322  0.6304
  363SOL     MW 1452   0.317  -0.004   0.643  0.9758 -0.4610 -0.0207
  364SOL     OW 1453   0.785   0.240   0.152  0.1887  0.6184  0.2519
  364SOL    HW1 1454   0.738   0.160   0.194  0.0760 -2.4064  0.7581
  364SOL    HW2 1455   0.723   0.284   0.090  1.3727  0.5435  2.5508
  364SOL     MW 1456   0.770   0.236   0.150  0.3300  0.2094  0.6220
  365SOL     OW 1457   0.876   1.986   1.296  0.1247  0.0637  0.3010
  365SOL    HW1 1458   0.853   2.079   1.282 -0.1880 -0.1968 -0.3024
  365SOL    HW2 1459   0.815   1.931   1.239  2.2270 -0.1174  2.0821
  365SOL     MW 1460   0.865   1.991   1.287  0.3608  0.0054  0.4564
  366SOL     OW 1461   2.869   2.655   0.962  0.2126 -0.3933  0.6443
  366SOL    HW1 1462   2.946   2.603   1.000 -0.6771  0.4539 -0.7368
  366SOL    HW2 1463   2.909   2.679   0.877 -2.5362  1.4079  0.6942
  366SOL     MW 1464   2.885   2.651   0.956 -0.2675 -0.0439  0.4687
  367SOL     OW 1465   1.330   3.063   0.982  0.2874  0.0619 -0.1450
  367SOL    HW1 1466   1.403   3.091   1.032 -1.0885  2.2610  0.2643
  367SOL    HW2 1467   1.340   3.051   0.887  0.9422 -0.4216  1.3846
  367SOL     MW 1468   1.341   3.065   0.976  0.1922  0.2883  0.1108
  368SOL     OW 1469   1.724   0.368   0.593  0.7796 -0.1198 -0.0974
  368SOL    HW1 1470   1.797   0.321   0.544  3.3685 -2.4416 -0.0056
  368SOL    HW2 1471   1.744   0.457   0.576 -0.5218 -2.5107  0.5216
  368SOL     MW 1472   1.737   0.374   0.584  0.9495 -0.7416 -0.0036
  369SOL     OW 1473   0.167   2.443   1.758  0.2185  0.5650  0.7512
  369SOL    HW1 1474   0.262   2.434   1.783  0.3993  2.8522 -2.9030
  369SOL    HW2 1475   0.162   2.534   1.728 -1.1292  0.1611 -1.5713
  369SOL     MW 1476   0.179   2.454   1.757  0.0645  0.8135 -0.0374
  370SOL     OW 1477   0.666   0.139   1.060 -0.1775 -0.2281 -0.2383
  370SOL    HW1 1478   0.717   0.156   0.979  0.0664 -1.3738 -2.9727
  370SOL    HW2 1479   0.676   0.047   1.082  0.2290  1.5594  2.5369
  370SOL     MW 1480   0.674   0.129   1.052 -0.0917 -0.1434 -0.2329
  371SOL     OW 1481   1.105   2.900   1.499  0.0610 -0.0125 -0.0195
  371SOL    HW1 1482   1.115   2.822   1.445  0.6314  2.1605 -0.8275
  371SOL    HW2 1483   1.099   2.966   1.432  1.1370 -1.2398 -0.2152
  371SOL     MW 1484   1.105   2.899   1.483  0.2782  0.1123 -0.1520
  372SOL     OW 1485   0.815   2.300   0.458  0.1977 -0.3412  0.1845
  372SOL    HW1 1486   0.781   2.227   0.513 -0.0126 -0.2838 -1.1676
  372SOL    HW2 1487   0.841   2.257   0.376  0.7266 -0.5905  0.5032
  372SOL     MW 1488   0.814   2.284   0.455  0.2397 -0.3665  0.0482
  373SOL     OW 1489   2.791   2.976   1.408 -0.2226 -0.1530 -0.3013
  373SOL    HW1 1490   2.862   2.939   1.356  2.1640 -0.5717 -0.5181
  373SOL    HW2 1491   2.760   3.049   1.359 -2.2149 -2.0781 -1.2648
  373SOL     MW 1492   2.796   2.981   1.395 -0.1706 -0.4622 -0.4571
  374SOL     OW 1493   1.574   0.452   0.232 -0.6031  0.0013 -0.4845
  374SOL    HW1 1494   1.667   0.424   0.219 -0.2653 -0.8130 -1.0048
  374SOL    HW2 1495   1.548   0.400   0.306 -1.3215 -1.1664  1.7087
  374SOL     MW 1496   1.583   0.441   0.240 -0.6533 -0.2602 -0.2638
  375SOL     OW 1497   1.094   2.011   2.175 -0.1868 -0.0096 -0.1161
  375SOL    HW1 1498   1.109   2.009   2.269 -0.9947 -2.5055 -2.8560
  375SOL    HW2 1499   1.001   1.980   2.171  1.2335 -0.8750 -1.3935
  375SOL     MW 1500   1.084   2.007   2.187 -0.1060 -0.4531 -0.6461
  376SOL     OW 1501   0.843   2.534   0.110 -0.8332  0.2465 -0.7203
  376SOL    HW1 1502   0.768   2.484   0.166 -3.1405 -1.6983 -2.1443
  376SOL    HW2 1503   0.843   2.496   0.016  0.3177 -1.3765 -2.0420
  376SOL     MW 1504   0.833   2.522   0.105 -0.9858 -0.2242 -1.0826
  377SOL     OW 1505   1.332   2.085   0.968 -0.4008  0.3378  0.0483
  377SOL    HW1 1506   1.248   2.058   0.934 -0.0505 -0.3849  0.2026
  377SOL    HW2 1507   1.328   2.042   1.059 -2.5262 -1.8752  1.5149
  377SOL     MW 1508   1.320   2.076   0.975 -0.6350 -0.0495  0.2621
  378SOL     OW 1509   0.874   2.852   1.610 -0.9470  0.0617  0.2530
  378SOL    HW1 1510   0.889   2.758   1.623 -1.3337 -0.3030 -0.8783
  378SOL    HW2 1511   0.950   2.862   1.549  3.4006  1.6166  0.6398
  378SOL     MW 1512   0.886   2.841   1.604 -0.4244  0.2188  0.1548
  379SOL     OW 1513   1.063   1.550   2.320 -0.5108 -0.3700  0.7503
  379SOL    HW1 1514   0.975   1.549   2.285 -0.2838  1.1239 -2.2826
  379SOL    HW2 1515   1.133   1.536   2.255 -1.1537  2.3818  1.3033
  379SOL     MW 1516   1.060   1.548   2.307 -0.5656  0.1902  0.4231
  380SOL     OW 1517   0.910   0.159   1.526  0.0980  0.6560  0.1058
  380SOL    HW1 1518   0.916   0.086   1.456  2.0409  1.6892 -1.6040
  380SOL    HW2 1519   0.966   0.133   1.606  1.2540 -0.6440  0.2483
  380SOL     MW 1520   0.918   0.146   1.527  0.5068  0.6208 -0.1010
  381SOL     OW 1521   0.848   2.063   0.885 -0.3638 -0.0763  0.0529
  381SOL    HW1 1522   0.947   2.049   0.888 -1.3867 -1.1828 -2.8357
  381SOL    HW2 1523   0.832   2.133   0.945 -0.5904 -2.0651 -0.0493
  381SOL     MW 1524   0.859   2.070   0.893 -0.5287 -0.4847 -0.3417
  382SOL     OW 1525   0.844   0.119   0.593 -0.4166 -0.7861  1.0920
  382SOL    HW1 1526   0.842   0.177   0.671 -0.5065 -2.6940  1.5997
  382SOL    HW2 1527   0.807   0.032   0.623  1.5291 -3.7985  2.6275
  382SOL     MW 1528   0.839   0.115   0.607 -0.1718 -1.4353  1.3616
  383SOL     OW 1529   0.666   0.021   0.266  0.2177  0.5171 -0.5674
  383SOL    HW1 1530   0.692  -0.061   0.230 -0.8014  0.0326 -0.7716
  383SOL    HW2 1531   0.625  -0.009   0.343  1.3209 -0.9124 -4.2210
  383SOL     MW 1532   0.664   0.007   0.272  0.2288  0.2646 -1.0764
  384SOL     OW 1533   0.803   2.950   0.619  0.1857 -0.3706  0.4780
  384SOL    HW1 1534   0.880   2.948   0.683 -2.5416 -0.3207  0.9456
  384SOL    HW2 1535   0.747   2.874   0.640  0.2891  0.4122  1.7853
  384SOL     MW 1536   0.805   2.940   0.630 -0.1605 -0.2607  0.7122
  385SOL     OW 1537   1.390   2.046   1.563 -0.6271 -0.0312  0.3651
  385SOL    HW1 1538   1.475   2.074   1.611  2.8507  0.2361  1.2898
  385SOL    HW2 1539   1.367   1.958   1.603 -0.0515 -1.3623  2.8986
  385SOL     MW 1540   1.398   2.038   1.575 -0.0923 -0.1716  0.8214
  386SOL     OW 1541   1.468   0.394   0.865  0.5130  0.4018  0.5240
  386SOL    HW1 1542   1.437   0.455   0.932  1.3783  0.5974 -0.9068
  386SOL    HW2 1543   1.563   0.406   0.865 -0.0769  2.0091  2.3491
  386SOL     MW 1544   1.477   0.404   0.874  0.5494  0.6397  0.5760
  387SOL     OW 1545   0.831   2.264   1.573 -0.2825  0.5265 -0.0764
  387SOL    HW1 1546   0.923   2.273   1.530  1.6995 -0.5380  1.3709
  387SOL    HW2 1547   0.827   2.162   1.580  0.3922  3.2346  0.3902
  387SOL     MW 1548   0.843   2.252   1.568  0.0680  0.7434  0.1761
  388SOL     OW 1549   1.506   2.785   1.526  0.5280 -0.4441  1.1923
  388SOL    HW1 1550   1.473   2.824   1.449  1.2383 -0.3653  1.0363
  388SOL    HW2 1551   1.593   2.744   1.501  1.3900  1.8793  0.1105
  388SOL     MW 1552   1.513   2.784   1.512  0.7355 -0.1272  1.0290
  389SOL     OW 1553   0.411   0.109   3.059 -0.4657  0.6003 -0.0283
  389SOL    HW1 1554   0.473   0.041   3.023  1.5618 -0.0542 -1.7605
  389SOL    HW2 1555   0.409   0.168   2.981 -1.6389 -0.7183  0.5297
  389SOL     MW 1556   0.419   0.108   3.044 -0.3530  0.3400 -0.1832
  390SOL     OW 1557   1.360   3.079   0.728 -0.5544 -0.0610 -0.1685
  390SOL    HW1 1558   1.353   3.044   0.638  0.7867  0.7386  0.5191
  390SOL    HW2 1559   1.426   3.148   0.727 -3.0899 -3.4750 -0.9595
  390SOL     MW 1560   1.368   3.083   0.716 -0.7120 -0.4060 -0.1821
  391SOL     OW 1561   0.312   2.156   1.507  0.1499  0.6096  0.4247
  391SOL    HW1 1562   0.307   2.147   1.600  3.1138 -2.1072 -2.1250
  391SOL    HW2 1563   0.241   2.221   1.482 -0.5527  0.4578 -0.3857
  391SOL     MW 1564   0.302   2.163   1.516  0.4483  0.2311 -0.0186
  392SOL     OW 1565   1.958   2.088   0.311 -0.0004 -0.0390 -0.7194
  392SOL    HW1 1566   1.991   2.175   0.341 -0.2035  0.0650 -3.6976
  392SOL    HW2 1567   1.862   2.098   0.289  0.6153 -1.3258 -2.1089
  392SOL     MW 1568   1.949   2.101   0.312  0.0540 -0.1951 -1.2956
  393SOL     OW 1569   0.266   2.957   2.793  0.1984  0.0260 -0.0362
  393SOL    HW1 1570   0.350   2.947   2.749 -0.0340 -0.3771  3.5609
  393SOL    HW2 1571   0.257   3.049   2.819 -0.9805  0.8795 -1.2097
  393SOL     MW 1572   0.276   2.968   2.791  0.0122  0.0854  0.2835
  394SOL     OW 1573   0.951   1.771   1.619 -0.0003 -0.0390  0.6260
  394SOL    HW1 1574   1.011   1.793   1.689  1.6068 -0.0351  0.9456
  394SOL    HW2 1575   0.919   1.854   1.587 -2.4474  0.3094  0.8383
  394SOL     MW 1576   0.955   1.785   1.624 -0.1111  0.0075  0.6962
  395SOL     OW 1577   0.954   2.941   2.706  0.2396  0.8594  0.1397
  395SOL    HW1 1578   1.012   3.009   2.744 -2.4966 -1.0665 -1.5074
  395SOL    HW2 1579   1.014   2.872   2.679  1.4823  0.2636 -0.2400
  395SOL     MW 1580   0.969   2.941   2.708  0.0426  0.5267 -0.1277
  396SOL     OW 1581   0.704   1.917   2.388  0.2855 -0.2095  0.6140
  396SOL    HW1 1582   0.774   1.906   2.455  2.3024  1.0114 -0.1027
  396SOL    HW2 1583   0.648   1.840   2.389 -1.3884  1.7727  1.6213
  396SOL     MW 1584   0.706   1.906   2.397  0.3307  0.2131  0.6524
  397SOL     OW 1585   1.049   2.301   1.414  0.2037  0.3470 -0.0401
  397SOL    HW1 1586   1.074   2.346   1.334  1.5896  0.2737 -1.1507
  397SOL    HW2 1587   1.111   2.305   1.496  0.3677 -0.2783 -0.3036
  397SOL     MW 1588   1.060   2.307   1.415  0.4082  0.2549 -0.2214
  398SOL     OW 1589   0.679   2.699   0.656  0.9473 -0.2532  0.1311
  398SOL    HW1 1590   0.644   2.694   0.562  3.6746  2.6259  0.4710
  398SOL    HW2 1591   0.750   2.634   0.659 -0.5639  0.6116  2.9630
  398SOL     MW 1592   0.684   2.689   0.644  1.1078  0.2408  0.5496
  399SOL     OW 1593   0.318   2.063   0.386 -0.2456  0.8821 -0.4710
  399SOL    HW1 1594   0.249   2.125   0.408 -2.8971  1.2311  1.1809
  399SOL    HW2 1595   0.357   2.098   0.305 -1.2293  1.6081  1.2969
  399SOL     MW 1596   0.314   2.076   0.378 -0.7252  1.0240 -0.0198
  400SOL     OW 1597   0.599   1.959   0.140 -0.0755  0.3448  0.0699
  400SOL    HW1 1598   0.544   2.043   0.157  0.8943 -0.3084  0.5488
  400SOL    HW2 1599   0.594   1.889   0.206 -1.1027 -0.2610  2.5098
  400SOL     MW 1600   0.591   1.961   0.151 -0.0831  0.1787  0.4550
  401SOL     OW 1601   0.838   2.008   0.007 -0.0111 -0.0258  0.5113
  401SOL    HW1 1602   0.897   1.934   0.022  3.1525  2.5966 -1.2299
  401SOL    HW2 1603   0.747   1.979   0.032 -2.3275  1.2194  0.1296
  401SOL     MW 1604   0.833   1.995   0.013  0.1007  0.4845  0.2312
  402SOL     OW 1605   0.581   3.027   1.860 -0.1468  0.2330  0.5212
  402SOL    HW1 1606   0.659   2.996   1.903 -0.7523 -1.6029 -1.9768
  402SOL    HW2 1607   0.610   3.087   1.786 -2.4389  1.4783 -1.6415
  402SOL     MW 1608   0.595   3.031   1.856 -0.5291  0.1551 -0.0937
  403SOL     OW 1609   0.136   0.494   0.434 -0.0716  0.3284  0.3133
  403SOL    HW1 1610   0.219   0.521   0.479 -2.3636  1.3939 -2.1123
  403SOL    HW2 1611   0.167   0.474   0.350  0.7129  0.3129  1.8980
  403SOL     MW 1612   0.151   0.495   0.429 -0.2705  0.4669  0.2023
  404SOL     OW 1613   0.976   2.980   0.834  0.9248  0.0370 -0.0222
  404SOL    HW1 1614   1.058   2.933   0.816 -1.2370  0.8565 -1.0564
  404SOL    HW2 1615   1.000   3.076   0.820 -0.6838  1.6542  1.5978
  404SOL     MW 1616   0.990   2.987   0.829  0.4274  0.3585  0.0551
  405SOL     OW 1617   0.519   2.515   1.493 -0.2714  0.2056 -0.3620
  405SOL    HW1 1618   0.526   2.584   1.434  0.8149 -1.3422 -0.7737
  405SOL    HW2 1619   0.547   2.447   1.434 -1.2537  2.9323  0.8660
  405SOL     MW 1620   0.524   2.515   1.477 -0.2577  0.3611 -0.2543
  406SOL     OW 1621   0.427   2.319   1.076 -0.4313 -0.3180 -0.4584
  406SOL    HW1 1622   0.336   2.357   1.098 -2.0658  2.4330 -3.8475
  406SOL    HW2 1623   0.427   2.237   1.131  0.4105  2.0566  1.0645
  406SOL     MW 1624   0.415   2.313   1.086 -0.5359  0.3583 -0.7046
  407SOL     OW 1625   0.038   2.623   1.090 -0.8730 -0.2043 -0.8613
  407SOL    HW1 1626   0.081   2.668   1.162  1.2078  0.3575 -1.8062
  407SOL    HW2 1627   0.090   2.649   1.013 -0.0278 -2.9437 -1.6576
  407SOL     MW 1628   0.050   2.632   1.090 -0.4869 -0.4916 -1.0911
  408SOL     OW 1629   2.113   2.182   0.709 -0.2526  0.1870  0.3446
  408SOL    HW1 1630   2.035   2.210   0.766 -0.2337  2.8203  0.1016
  408SOL    HW2 1631   2.059   2.121   0.653  0.2058 -0.7985 -1.4505
  408SOL     MW 1632   2.095   2.178   0.709 -0.1896  0.4044  0.0757
  409SOL     OW 1633   1.615   0.070   0.834  0.5311 -0.4784 -0.6546
  409SOL    HW1 1634   1.681   0.138   0.833  0.3460  0.7922 -0.1376
  409SOL    HW2 1635   1.585   0.067   0.925 -1.0871  1.2131  1.6654
  409SOL     MW 1636   1.620   0.078   0.846  0.2932 -0.0876 -0.2803
  410SOL     OW 1637   1.088   2.448   1.185  0.3522  0.0179  0.1224
  410SOL    HW1 1638   1.033   2.487   1.120  1.8094 -0.4623  0.4990
  410SOL    HW2 1639   1.149   2.411   1.123  2.1798  0.2821  1.6221
  410SOL     MW 1640   1.088   2.448   1.168  0.7856 -0.0106  0.3699
  411SOL     OW 1641   1.988   2.928   2.950  0.0769  0.7780 -0.0534
  411SOL    HW1 1642   1.996   2.903   2.853 -2.5558 -0.8844 -0.3425
  411SOL    HW2 1643   1.956   3.018   2.947 -1.0194 -0.7019  1.1559
  411SOL     MW 1644   1.985   2.937   2.937 -0.4151  0.3634  0.0680
  412SOL     OW 1645   1.062   2.248   0.629  1.1590  0.3985  0.8114
  412SOL    HW1 1646   1.080   2.336   0.657 -0.0099  0.0096 -0.9728
  412SOL    HW2 1647   0.995   2.248   0.559  0.1007 -1.2010 -2.0045
  412SOL     MW 1648   1.055   2.260   0.623  0.8651  0.1361  0.2045
  413SOL     OW 1649   0.604   2.679   0.047 -0.2258 -0.4102  0.9050
  413SOL    HW1 1650   0.676   2.620   0.068 -2.0561  0.6855  0.0480
  413SOL    HW2 1651   0.595   2.649  -0.042 -0.2939  3.8891 -1.0001
  413SOL     MW 1652   0.613   2.667   0.038 -0.4763  0.3016  0.5406
  414SOL     OW 1653   2.064   3.000   1.092  0.2626  0.4538 -0.1798
  414SOL    HW1 1654   2.032   3.091   1.109 -0.1177  1.0398  0.1100
  414SOL    HW2 1655   2.071   2.991   0.995  3.4322 -0.3353  1.4436
  414SOL     MW 1656   2.061   3.011   1.082  0.6306  0.4270  0.0727
  415SOL     OW 1657   1.653   2.849   1.169  0.2516 -0.3439  0.1859
  415SOL    HW1 1658   1.727   2.881   1.226  1.0458 -1.1565 -0.7183
  415SOL    HW2 1659   1.700   2.775   1.120  2.1660 -0.5035  2.7238
  415SOL     MW 1660   1.669   2.844   1.170  0.6090 -0.4722  0.4015
  416SOL     OW 1661   0.667   1.772   1.431  0.8021 -0.5320  0.3543
  416SOL    HW1 1662   0.590   1.811   1.384 -2.2099 -0.0877 -2.4912
  416SOL    HW2 1663   0.683   1.691   1.385 -0.5733 -2.6780 -0.1653
  416SOL     MW 1664   0.659   1.767   1.419  0.2232 -0.7565 -0.0897
  417SOL     OW 1665   0.928   0.063   2.096  0.4628  0.2629  0.1523
  417SOL    HW1 1666   0.869   0.034   2.162  0.4636  2.7052 -0.5739
  417SOL    HW2 1667   0.910   0.020   2.016 -2.4550  0.1624 -0.5092
  417SOL     MW 1668   0.918   0.054   2.094  0.0780  0.5719 -0.0308
  418SOL     OW 1669   0.755   2.852   0.191 -0.5249 -0.2604 -0.3802
  418SOL    HW1 1670   0.831   2.873   0.134  0.2552  0.6096  0.7545
  418SOL    HW2 1671   0.700   2.789   0.150  1.3084  1.1561 -0.5111
  418SOL     MW 1672   0.758   2.846   0.178 -0.1801  0.0413 -0.2477
  419SOL     OW 1673   0.641   2.692   1.344  0.0234 -0.2225 -0.2115
  419SOL    HW1 1674   0.646   2.766   1.407  0.3513  1.0781 -0.1717
  419SOL    HW2 1675   0.710   2.627   1.353  0.1200  2.0108  2.5377
  419SOL     MW 1676   0.651   2.693   1.354  0.0794  0.2438  0.1564
  420SOL     OW 1677   0.823   2.233   1.144 -0.1198  0.2902  0.3729
  420SOL    HW1 1678   0.752   2.274   1.190  0.7332 -2.0980 -0.6516
  420SOL    HW2 1679   0.872   2.304   1.106 -0.9782  0.5007  2.3399
  420SOL     MW 1680   0.820   2.248   1.145 -0.1205  0.0029  0.4973
  421SOL     OW 1681   2.923   0.125   0.069 -0.1614 -0.2201 -0.5065
  421SOL    HW1 1682   2.840   0.094   0.035  1.5941 -1.2720 -0.9979
  421SOL    HW2 1683   2.976   0.060   0.029 -2.4108  3.0422  2.7183
  421SOL     MW 1684   2.919   0.112   0.059 -0.2266  0.0715 -0.1458
  422SOL     OW 1685   0.900   2.446   0.967 -0.3493 -0.0408 -0.2302
  422SOL    HW1 1686   0.818   2.483   0.988  1.0164  2.1372  3.0526
  422SOL    HW2 1687   0.912   2.460   0.872 -1.6861  0.0371  0.1441
  422SOL     MW 1688   0.891   2.453   0.957 -0.3455  0.2568  0.2523
  423SOL     OW 1689   1.562   0.049   0.488  0.5040  0.2996 -0.0310
  423SOL    HW1 1690   1.587   0.015   0.404  2.6691  1.8482 -0.7521
  423SOL    HW2 1691   1.549   0.141   0.474  1.2257 -0.4036  0.5831
  423SOL     MW 1692   1.564   0.057   0.475  0.8849  0.4111 -0.0451
  424SOL     OW 1693   0.651   2.311   1.342  0.4468  0.1863  0.1818
  424SOL    HW1 1694   0.598   2.230   1.326 -0.8881  0.3367  3.7587
  424SOL    HW2 1695   0.714   2.292   1.413  1.0570  0.0777 -1.1268
  424SOL     MW 1696   0.652   2.298   1.349  0.3512  0.1918  0.4811
  425SOL     OW 1697   1.739   2.814   2.042  0.2466  0.0645 -0.6102
  425SOL    HW1 1698   1.744   2.828   1.941 -2.9041 -1.3683 -1.7596
  425SOL    HW2 1699   1.780   2.730   2.069  1.8390  0.1600  3.4573
  425SOL     MW 1700   1.745   2.805   2.032  0.0410 -0.1119 -0.2252
  426SOL     OW 1701   0.831   1.747   1.944 -0.0973  0.9144  0.0374
  426SOL    HW1 1702   0.779   1.779   1.867 -0.6558  0.2691  1.1262
  426SOL    HW2 1703   0.813   1.786   2.027 -3.2002 -3.5711  1.8707
  426SOL     MW 1704   0.822   1.756   1.945 -0.5804  0.2375  0.4229
  427SOL     OW 1705   0.400   1.765   1.883  0.6902  0.5128 -0.1983
  427SOL    HW1 1706   0.441   1.703   1.831 -1.8470  0.9950  2.4082
  427SOL    HW2 1707   0.333   1.713   1.928 -0.8269 -1.3601 -0.3799
  427SOL     MW 1708   0.397   1.750   1.882  0.1553  0.3293  0.1216
  428SOL     OW 1709   0.638   2.545   1.065 -0.1808 -0.2520 -1.0234
  428SOL    HW1 1710   0.573   2.473   1.063  1.4465 -1.4669  0.4908
  428SOL    HW2 1711   0.641   2.578   1.154 -0.9514  4.4365  1.0216
  428SOL     MW 1712   0.630   2.540   1.076 -0.0678  0.2063 -0.5538
  429SOL     OW 1713   1.242   2.814   1.061  0.6892  0.3640 -0.0914
  429SOL    HW1 1714   1.153   2.819   1.096  2.7686 -0.6495  0.5364
  429SOL    HW2 1715   1.259   2.896   1.019  0.0975  0.2177  2.4679
  429SOL     MW 1716   1.232   2.825   1.060  0.8855  0.2110  0.3291
  430SOL     OW 1717   1.197   2.815   0.788  0.3583  0.0786 -0.1218
  430SOL    HW1 1718   1.171   2.785   0.876 -1.4666 -1.6978 -1.0522
  430SOL    HW2 1719   1.149   2.753   0.731 -2.8418 -0.4645  0.9440
  430SOL     MW 1720   1.187   2.803   0.792 -0.3047 -0.2274 -0.1039
  431SOL     OW 1721   0.357   1.889   1.127  0.1018 -0.4192 -0.2910
  431SOL    HW1 1722   0.416   1.810   1.138  1.9019 -0.6492  0.8703
  431SOL    HW2 1723   0.350   1.913   1.033  0.3924 -0.9202  1.0145
  431SOL     MW 1724   0.364   1.881   1.116  0.3776 -0.5157  0.0345
  432SOL     OW 1725   0.022   0.010   1.123 -0.0730 -0.4220  0.1762
  432SOL    HW1 1726   0.038   0.041   1.219  2.3467  4.7220 -0.2642
  432SOL    HW2 1727  -0.036  -0.068   1.129  0.6723  4.6564 -1.2302
  432SOL     MW 1728   0.016   0.004   1.136  0.3446  0.9267 -0.0675
  433SOL     OW 1729   0.644   2.912   1.487  0.0153  0.1164  0.0834
  433SOL    HW1 1730   0.644   3.001   1.512 -0.0221 -1.6938  1.6362
  433SOL    HW2 1731   0.723   2.894   1.542  1.6430  0.0515 -2.0663
  433SOL     MW 1732   0.654   2.921   1.497  0.2251 -0.1310  0.0047
  434SOL     OW 1733   1.483   2.799   1.789  0.4449  0.3542 -0.5695
  434SOL    HW1 1734   1.413   2.846   1.836 -0.8623  1.5028 -0.1424
  434SOL    HW2 1735   1.465   2.797   1.692 -1.8579  1.3752 -1.0795
  434SOL     MW 1736   1.471   2.805   1.782 -0.0314  0.6404 -0.5804
  435SOL     OW 1737   2.691   1.785   0.276  0.6346  0.1223  0.0042
  435SOL    HW1 1738   2.740   1.838   0.222 -0.2782 -0.0950  1.6213
  435SOL    HW2 1739   2.597   1.793   0.259  0.0886 -0.2953  1.4056
  435SOL     MW 1740   2.685   1.793   0.267  0.4421  0.0386  0.4024
  436SOL     OW 1741   1.373   2.751   0.363 -0.0136  0.5753 -0.0224
  436SOL    HW1 1742   1.444   2.727   0.430 -4.1377 -0.4517 -0.7612
  436SOL    HW2 1743   1.353   2.838   0.390  1.8270  0.2405 -1.2219
  436SOL     MW 1744   1.380   2.759   0.375 -0.3149  0.3956 -0.2782
  437SOL     OW 1745   0.901   0.006   1.308 -0.3572  0.2768  0.2290
  437SOL    HW1 1746   0.978   0.036   1.251 -0.9629  0.0967 -1.9040
  437SOL    HW2 1747   0.848  -0.046   1.241 -1.1055  0.0297 -0.3125
  437SOL     MW 1748   0.904   0.003   1.291 -0.5358  0.2204 -0.1239
  438SOL     OW 1749   0.853   2.695   2.006 -0.1822  0.2332  0.2831
  438SOL    HW1 1750   0.869   2.615   2.063 -0.5707 -1.3487  2.6741
  438SOL    HW2 1751   0.796   2.665   1.939 -0.5393  0.2603  3.0741
  438SOL     MW 1752   0.848   2.680   2.005 -0.2806  0.0280  0.9668
  439SOL     OW 1753   1.156   2.077   0.426  0.0885  0.5176 -0.7216
  439SOL    HW1 1754   1.129   2.113   0.512  1.4816 -1.1627 -0.4354
  439SOL    HW2 1755   1.161   2.158   0.376  0.4888  0.2920  2.6865
  439SOL     MW 1756   1.153   2.092   0.431  0.3251  0.2661 -0.2342
  440SOL     OW 1757   1.816   2.746   3.027 -0.0175  0.1618  0.4333
  440SOL    HW1 1758   1.769   2.781   3.104 -0.0998  0.2942  0.0061
  440SOL    HW2 1759   1.874   2.814   3.005  0.7089 -0.6570  1.2677
  440SOL     MW 1760   1.818   2.759   3.034  0.0675  0.0713  0.4870
  441SOL     OW 1761   0.513   2.700   0.461 -0.1165 -0.4461  0.6927
  441SOL    HW1 1762   0.460   2.672   0.381  1.7999 -0.3759  0.3390
  441SOL    HW2 1763   0.495   2.787   0.481  0.6037 -0.0570 -0.0289
  441SOL     MW 1764   0.504   2.708   0.453  0.2314 -0.3855  0.5508
  442SOL     OW 1765   0.037   2.412   0.632 -0.2476  0.8748 -0.0542
  442SOL    HW1 1766   0.046   2.496   0.598  0.0426 -1.4685  0.2559
  442SOL    HW2 1767  -0.054   2.402   0.656 -0.5124  2.1496 -1.2188
  442SOL     MW 1768   0.026   2.422   0.631 -0.2442  0.7338 -0.1670
  443SOL     OW 1769   1.475   1.787   1.945  0.3461 -0.4367 -0.4158
  443SOL    HW1 1770   1.434   1.792   1.860 -1.6234  0.7000  1.1354
  443SOL    HW2 1771   1.444   1.702   1.979 -2.7941 -1.1544  0.3477
  443SOL     MW 1772   1.466   1.776   1.938 -0.3281 -0.3814 -0.1104
  444SOL     OW 1773   0.912   2.595   1.623 -0.7790  0.0285  0.7025
  444SOL    HW1 1774   0.983   2.538   1.654  1.0058  0.8969 -1.4592
  444SOL    HW2 1775   0.836   2.578   1.676  1.1202 -1.6615  0.5317
  444SOL     MW 1776   0.911   2.585   1.634 -0.2929 -0.0799  0.3948
  445SOL     OW 1777   1.166   0.088   1.392 -0.3388  0.1827  0.5067
  445SOL    HW1 1778   1.113   0.145   1.448 -1.3156  0.1586  0.6320
  445SOL    HW2 1779   1.224   0.143   1.341  1.3192 -1.0062  1.9003
  445SOL     MW 1780   1.166   0.103   1.393 -0.2489  0.0227  0.7071
  446SOL     OW 1781   2.684   2.821   1.053 -0.1975 -0.2761 -0.1258
  446SOL    HW1 1782   2.635   2.875   0.995 -1.5915 -2.6257  1.5396
  446SOL    HW2 1783   2.743   2.760   1.003  3.9714 -1.0487  2.0057
  446SOL     MW 1784   2.685   2.820   1.039  0.1687 -0.6881  0.3751
  447SOL     OW 1785   0.076   1.972   1.561 -0.0147  0.1541  0.2739
  447SOL    HW1 1786   0.080   1.906   1.637 -0.2685 -1.8651  0.8386
  447SOL    HW2 1787   0.005   1.937   1.514  0.1916  0.0023  1.1169
  447SOL     MW 1788   0.067   1.959   1.564 -0.0210 -0.1323  0.4596
  448SOL     OW 1789   1.692   2.354   1.665  0.2598  0.4485  0.3220
  448SOL    HW1 1790   1.663   2.272   1.702 -1.6063  2.7367 -0.9062
  448SOL    HW2 1791   1.621   2.415   1.692  0.6086  3.1402 -0.8562
  448SOL     MW 1792   1.679   2.351   1.674  0.0596  1.1056  0.0045
  449SOL     OW 1793   0.938   2.903   0.396 -0.3350  0.1834 -0.3363
  449SOL    HW1 1794   0.880   2.868   0.327  0.3225 -2.9290 -0.4600
  449SOL    HW2 1795   0.876   2.947   0.461 -1.3713  3.4305 -1.6081
  449SOL     MW 1796   0.922   2.904   0.396 -0.3850  0.2012 -0.5204
  450SOL     OW 1797   1.193   2.483   0.769  0.0982 -0.5904 -0.6532
  450SOL    HW1 1798   1.192   2.420   0.840  0.2124  0.8106 -3.1565
  450SOL    HW2 1799   1.276   2.474   0.714  0.1325  1.1152  0.5958
  450SOL     MW 1800   1.204   2.473   0.771  0.1178 -0.1805 -0.8187
  451SOL     OW 1801   0.526   1.996   1.682 -0.4451  0.2310 -0.2872
  451SOL    HW1 1802   0.577   2.073   1.652 -0.1079 -1.5866  1.8176
  451SOL    HW2 1803   0.470   1.970   1.605 -0.1490  2.3735  0.8532
  451SOL     MW 1804   0.525   2.003   1.668 -0.3615  0.2739  0.1410
  452SOL     OW 1805   0.273   2.648   0.004  0.1794  0.3967  0.0001
  452SOL    HW1 1806   0.353   2.697   0.004 -3.6027  1.7520 -0.5934
  452SOL    HW2 1807   0.220   2.714  -0.037 -0.9085 -3.2223 -2.9298
  452SOL     MW 1808   0.276   2.663  -0.001 -0.4631  0.0980 -0.4648
  453SOL     OW 1809   0.191   2.985   1.586 -0.2535  0.2050  0.0815
  453SOL    HW1 1810   0.228   2.945   1.665  0.9924 -1.4198 -1.6226
  453SOL    HW2 1811   0.240   2.942   1.518 -0.0015  0.1691  0.0928
  453SOL     MW 1812   0.202   2.974   1.587 -0.0559 -0.0141 -0.1419
  454SOL     OW 1813   0.951   2.795   1.177 -0.0563  0.5146 -0.3343
  454SOL    HW1 1814   0.935   2.724   1.243 -1.7942  0.3072  3.6896
  454SOL    HW2 1815   0.867   2.806   1.133 -0.5908  0.4369 -0.7339
  454SOL     MW 1816   0.938   2.787   1.180 -0.3561  0.4770  0.1439
  455SOL     OW 1817   1.753   2.802   0.191 -0.1481 -0.3632  0.2150
  455SOL    HW1 1818   1.792   2.798   0.278  2.5384 -1.0462 -3.5755
  455SOL    HW2 1819   1.682   2.738   0.199  1.3489 -0.4411  2.2951
  455SOL     MW 1820   1.749   2.793   0.204  0.4039 -0.4636 -0.0107
  456SOL     OW 1821   2.774   0.235   1.462  0.3527 -0.4971 -0.3775
  456SOL    HW1 1822   2.780   0.166   1.396  2.1110  1.8496 -0.3292
  456SOL    HW2 1823   2.778   0.318   1.415 -1.0676  1.2431  1.0827
  456SOL     MW 1824   2.775   0.237   1.447  0.3973  0.0421 -0.1785
  457SOL     OW 1825   0.809   1.648   3.042  0.0144 -0.4755 -0.1790
  457SOL    HW1 1826   0.723   1.597   3.035  0.7726 -0.9449 -0.3019
  457SOL    HW2 1827   0.799   1.681   3.134 -2.9015 -0.8643  0.3805
  457SOL     MW 1828   0.796   1.646   3.053 -0.2703 -0.5887 -0.1214
  458SOL     OW 1829   1.332   1.480   0.693 -0.8238  0.7838 -0.1583
  458SOL    HW1 1830   1.253   1.533   0.712  2.9244  1.2890 -1.7280
  458SOL    HW2 1831   1.313   1.399   0.639 -0.7188 -0.1264 -2.7032
  458SOL     MW 1832   1.319   1.477   0.688 -0.3154  0.7304 -0.7011
  459SOL     OW 1833   1.579   3.045   0.231  0.2240 -0.0834 -0.3811
  459SOL    HW1 1834   1.601   2.958   0.196  0.3396  0.1323  3.2871
  459SOL    HW2 1835   1.512   3.082   0.166  0.0553 -0.1337 -0.7584
  459SOL     MW 1836   1.573   3.039   0.218  0.2170 -0.0616  0.0531
  460SOL     OW 1837   1.780   2.231   0.641 -0.1593 -0.3187  0.2147
  460SOL    HW1 1838   1.696   2.209   0.680  2.7153  0.4247 -2.1919
  460SOL    HW2 1839   1.824   2.151   0.623 -0.2646  1.5345  3.3573
  460SOL     MW 1840   1.775   2.218   0.644  0.2061  0.0239  0.3118
  461SOL     OW 1841   0.432   2.450   0.544  0.7427 -0.1964  0.0047
  461SOL    HW1 1842   0.477   2.535   0.525 -0.1550 -1.9844 -1.5278
  461SOL    HW2 1843   0.390   2.461   0.626  0.3374  0.9772  0.0015
  461SOL     MW 1844   0.433   2.463   0.553  0.5708 -0.2774 -0.1979
  462SOL     OW 1845   0.306   0.236   1.271  0.7155 -0.1189  0.1133
  462SOL    HW1 1846   0.341   0.189   1.192 -0.0556  0.8665 -0.7050
  462SOL    HW2 1847   0.381   0.239   1.327 -1.2108 -1.3292 -1.1334
  462SOL     MW 1848   0.320   0.230   1.268  0.3596 -0.1486 -0.1592
  463SOL     OW 1849   1.108   0.101   0.721  0.3623 -0.0032 -0.1359
  463SOL    HW1 1850   1.190   0.055   0.703  2.2073  2.8022 -0.3396
  463SOL    HW2 1851   1.055   0.094   0.645 -0.9386  0.0166  2.1658
  463SOL     MW 1852   1.112   0.094   0.708  0.4341  0.3696  0.1409
  464SOL     OW 1853   0.745   3.053   2.286 -0.6406 -0.5740  0.7067
  464SOL    HW1 1854   0.750   2.958   2.311  1.9684  2.2961  2.3380
  464SOL    HW2 1855   0.738   3.088   2.377  1.6622 -5.0099 -1.4891
  464SOL     MW 1856   0.745   3.045   2.301  0.0075 -0.7806  0.6322
  465SOL     OW 1857   0.843   0.318   0.406  0.4126  0.3104 -0.8172
  465SOL    HW1 1858   0.820   0.238   0.453 -0.8282 -1.9145 -2.5180
  465SOL    HW2 1859   0.824   0.296   0.316  1.1034  1.1152 -0.1377
  465SOL     MW 1860   0.838   0.304   0.400  0.3400  0.1230 -0.9520
  466SOL     OW 1861   1.107   2.045   0.810  0.2996  0.1182  0.2779
  466SOL    HW1 1862   1.093   1.974   0.742  1.5811 -2.6740 -2.0514
  466SOL    HW2 1863   1.087   2.136   0.769  0.1663  0.8922  4.5231
  466SOL     MW 1864   1.102   2.048   0.795  0.4511 -0.1481  0.5307
  467SOL     OW 1865   1.267   2.356   1.004  0.6652 -0.6783  1.1383
  467SOL    HW1 1866   1.356   2.395   1.007 -0.5706 -0.2788  3.0312
  467SOL    HW2 1867   1.283   2.261   1.011  1.9916  0.8846  3.2234
  467SOL     MW 1868   1.281   2.349   1.005  0.6772 -0.4194  1.6632
  468SOL     OW 1869   0.440   2.669   1.940 -0.5749 -0.1660  0.5593
  468SOL    HW1 1870   0.427   2.596   1.873 -0.8068 -2.1977  2.3417
  468SOL    HW2 1871   0.392   2.741   1.899 -4.3362  2.4089 -0.7742
  468SOL     MW 1872   0.432   2.669   1.926 -1.1018 -0.0944  0.6186
  469SOL     OW 1873   0.330   2.137   1.784  0.7364  0.1702 -0.7620
  469SOL    HW1 1874   0.257   2.084   1.814  1.5387  1.8247  0.5153
  469SOL    HW2 1875   0.389   2.063   1.767 -0.1159  0.8879  0.0231
  469SOL     MW 1876   0.328   2.120   1.786  0.7298  0.4832 -0.4899
  470SOL     OW 1877   3.040   2.602   0.109  0.1323  0.1501  0.0445
  470SOL    HW1 1878   2.950   2.621   0.155 -0.2816  1.6431  2.4508
  470SOL    HW2 1879   3.028   2.622   0.014 -1.5067 -0.3947  0.9658
  470SOL     MW 1880   3.026   2.607   0.102 -0.1386  0.2752  0.4836
  471SOL     OW 1881   1.181   2.653   1.375  1.4876  0.4334 -0.3564
  471SOL    HW1 1882   1.126   2.583   1.335 -1.6940  0.7939  1.4082
  471SOL    HW2 1883   1.256   2.662   1.317  2.4274 -0.0819  2.1337
  471SOL     MW 1884   1.184   2.645   1.362  1.1918  0.4130  0.2050
  472SOL     OW 1885   2.972   2.141   0.357  0.5218  0.0941 -0.1137
  472SOL    HW1 1886   2.966   2.066   0.294 -1.7391 -1.7402 -1.5572
  472SOL    HW2 1887   2.919   2.096   0.431 -1.1042 -2.6577  2.1644
  472SOL     MW 1888   2.964   2.125   0.359  0.0090 -0.5110 -0.0036
  473SOL     OW 1889   0.869   2.569   1.343 -0.4008  0.3505  0.0580
  473SOL    HW1 1890   0.900   2.480   1.329 -0.3763  1.1277 -0.2518
  473SOL    HW2 1891   0.888   2.587   1.441  0.9828 -1.7048 -1.0534
  473SOL     MW 1892   0.876   2.560   1.354 -0.2150  0.1818 -0.1295
  474SOL     OW 1893   0.771   2.262   1.833  0.6246 -0.3987  0.1326
  474SOL    HW1 1894   0.862   2.261   1.868 -0.0327  0.5985 -0.9318
  474SOL    HW2 1895   0.777   2.270   1.738 -1.3514  0.2478 -0.5656
  474SOL     MW 1896   0.784   2.263   1.825  0.2772 -0.1818 -0.0999
  475SOL     OW 1897   1.576   3.082   1.543 -0.2092  0.1837  0.4919
  475SOL    HW1 1898   1.510   3.068   1.467 -0.9251 -2.4104 -1.3878
  475SOL    HW2 1899   1.578   2.993   1.580 -0.8290 -1.0362 -1.1187
  475SOL     MW 1900   1.568   3.068   1.538 -0.3854 -0.3195  0.0314
  476SOL     OW 1901   1.438   2.671   1.204 -0.1074 -0.1365  0.0585
  476SOL    HW1 1902   1.384   2.721   1.149 -0.2497 -2.1422 -1.3234
  476SOL    HW2 1903   1.518   2.721   1.209 -2.3338 -1.6382  0.8186
  476SOL     MW 1904   1.441   2.684   1.197 -0.4200 -0.5993 -0.0235
  477SOL     OW 1905   0.878   2.512   0.677 -0.2661 -0.8898 -0.4141
  477SOL    HW1 1906   0.958   2.564   0.650 -0.7509  0.0668 -1.5476
  477SOL    HW2 1907   0.870   2.454   0.605  1.0396  0.7018 -2.2196
  477SOL     MW 1908   0.888   2.511   0.664 -0.1578 -0.5536 -0.8019
  478SOL     OW 1909   0.200   2.654   0.845 -0.5972  0.4578 -0.2727
  478SOL    HW1 1910   0.251   2.733   0.848  0.6023  0.0109 -2.2335
  478SOL    HW2 1911   0.260   2.578   0.823  0.2897  1.4528  1.5424
  478SOL     MW 1912   0.215   2.655   0.842 -0.3219  0.5302 -0.2919
  479SOL     OW 1913   1.408   1.993   1.300  0.1822 -0.2930 -0.0130
  479SOL    HW1 1914   1.418   2.004   1.398 -2.5346 -0.9419 -0.4407
  479SOL    HW2 1915   1.451   1.906   1.285 -0.6417  0.4914  0.8558
  479SOL     MW 1916   1.415   1.983   1.311 -0.2850 -0.2751  0.0452
  480SOL     OW 1917   1.926   2.443   1.347 -0.8179  0.0761  0.0880
  480SOL    HW1 1918   1.946   2.361   1.382  0.4022  4.2919  0.7030
  480SOL    HW2 1919   1.942   2.436   1.254 -1.9047 -2.9607 -0.7616
  480SOL     MW 1920   1.931   2.431   1.340 -0.8003  0.2316  0.0570
  481SOL     OW 1921   1.074   0.062   1.112  0.2802 -0.0809  0.1470
  481SOL    HW1 1922   1.097   0.018   1.034 -4.0280  0.7030 -0.1263
  481SOL    HW2 1923   1.138   0.134   1.113  0.6547 -1.1134 -0.1762
  481SOL     MW 1924   1.086   0.066   1.102 -0.2388 -0.1137  0.0683
  482SOL     OW 1925   1.069   3.096   0.242  0.6396 -0.1086 -0.3410
  482SOL    HW1 1926   1.032   3.031   0.296  0.9031  2.8882  0.8970
  482SOL    HW2 1927   1.074   3.176   0.298 -1.7365 -0.1317  0.9389
  482SOL     MW 1928   1.065   3.098   0.257  0.3608  0.2838 -0.0088
  483SOL     OW 1929   0.492   3.014   0.455  0.2578  0.4350 -0.6068
  483SOL    HW1 1930   0.426   3.011   0.388  0.0866 -0.7867 -0.4711
  483SOL    HW2 1931   0.444   3.064   0.527  1.9079  0.0436  2.9356
  483SOL     MW 1932   0.477   3.020   0.456  0.4529  0.2221 -0.1215
  484SOL     OW 1933   1.861   2.039   1.431  0.8856 -0.2446  0.1261
  484SOL    HW1 1934   1.933   2.107   1.433  1.1504  0.0836 -0.7798
  484SOL    HW2 1935   1.847   2.028   1.526 -2.1442  1.1529  1.1425
  484SOL     MW 1936   1.868   2.046   1.444  0.5208 -0.0169  0.1406
  485SOL     OW 1937   0.633   2.420   0.277  0.0115 -0.1852 -0.5516
  485SOL    HW1 1938   0.671   2.360   0.349 -0.6272  0.0537  0.8513
  485SOL    HW2 1939   0.543   2.455   0.302  0.0897  1.8043 -1.9131
  485SOL     MW 1940   0.626   2.417   0.289 -0.0624  0.1088 -0.5461
  486SOL     OW 1941   0.155   2.378   1.489 -0.4889  0.5759 -0.2698
  486SOL    HW1 1942   0.189   2.456   1.449  0.6894 -1.2854 -1.2859
  486SOL    HW2 1943   0.142   2.408   1.578  2.3614  0.6418  1.2575
  486SOL     MW 1944   0.158   2.392   1.495  0.0427  0.3390 -0.2024
  487SOL     OW 1945   1.158   1.745   1.055 -0.6116 -0.3262  0.2647
  487SOL    HW1 1946   1.163   1.818   1.107 -0.3752 -4.2266 -1.0540
  487SOL    HW2 1947   1.253   1.721   1.040  0.6750 -2.1643 -0.7122
  487SOL     MW 1948   1.171   1.751   1.060 -0.4107 -1.0833 -0.0382
  488SOL     OW 1949   1.629   1.864   0.513  0.5153  0.3360 -0.7988
  488SOL    HW1 1950   1.709   1.851   0.458  0.2173 -0.3507 -0.8018
  488SOL    HW2 1951   1.581   1.942   0.484 -0.0906  0.4218  1.0986
  488SOL     MW 1952   1.633   1.873   0.502  0.3960  0.2567 -0.5488
  489SOL     OW 1953   0.779   0.817   0.586  0.3441  0.0314  0.3850
  489SOL    HW1 1954   0.820   0.737   0.544 -5.0498 -0.9172  1.5229
  489SOL    HW2 1955   0.773   0.809   0.681  0.2083  1.8527 -1.5953
  489SOL     MW 1956   0.784   0.805   0.593 -0.3855  0.1466  0.2738
  490SOL     OW 1957   1.439   2.088   0.460  0.3549  0.1788 -0.2888
  490SOL    HW1 1958   1.473   2.168   0.416  0.1265 -1.6340 -0.2157
  490SOL    HW2 1959   1.346   2.085   0.442 -0.9429  1.3379 -1.3809
  490SOL     MW 1960   1.431   2.098   0.451  0.1536  0.0926 -0.4232
  491SOL     OW 1961   1.324   3.032   0.423  0.0464 -0.0575  0.5051
  491SOL    HW1 1962   1.398   3.083   0.468  2.9520  1.2978  1.3431
  491SOL    HW2 1963   1.264   3.096   0.386  0.1795  0.4659 -1.4898
  491SOL     MW 1964   1.326   3.047   0.424  0.4473  0.1904  0.3524
  492SOL     OW 1965   1.486   2.199   0.737 -0.1263 -0.0039 -0.3918
  492SOL    HW1 1966   1.429   2.150   0.677 -2.0577 -1.9085 -1.4857
  492SOL    HW2 1967   1.453   2.162   0.821 -1.9510  0.4633 -1.9198
  492SOL     MW 1968   1.474   2.188   0.740 -0.6219 -0.1936 -0.7378
  493SOL     OW 1969   0.281   2.981   0.271  0.0076  0.0788 -0.6181
  493SOL    HW1 1970   0.227   3.021   0.342  2.9252 -0.0697  1.0354
  493SOL    HW2 1971   0.264   3.048   0.201  2.6922  1.3319  0.5577
  493SOL     MW 1972   0.271   2.995   0.271  0.7467  0.2245 -0.2448
  494SOL     OW 1973   0.462   2.431   1.758  0.2773  0.1528 -0.3517
  494SOL    HW1 1974   0.483   2.338   1.758 -1.1656  0.1723 -1.2793
  494SOL    HW2 1975   0.459   2.454   1.661  0.4322  1.6080  2.8543
  494SOL     MW 1976   0.465   2.422   1.745  0.1073  0.3473 -0.0511
  495SOL     OW 1977   2.827   1.762   2.566 -0.0127  0.3369 -0.0347
  495SOL    HW1 1978   2.792   1.846   2.561 -3.1158 -1.0983  3.4682
  495SOL    HW2 1979   2.788   1.740   2.647  1.0852 -2.4706 -3.3359
  495SOL     MW 1980   2.817   1.770   2.576 -0.2773 -0.2229 -0.0081
  496SOL     OW 1981   2.891   2.331   2.645 -0.2593  0.1664  0.0910
  496SOL    HW1 1982   2.932   2.282   2.717 -0.8361  0.1732 -2.8899
  496SOL    HW2 1983   2.940   2.416   2.645 -1.4746  1.4862  0.3206
  496SOL     MW 1984   2.903   2.336   2.654 -0.4957  0.3414 -0.2720
  497SOL     OW 1985   1.545   2.204   2.685  0.2376  0.1136  0.2212
  497SOL    HW1 1986   1.467   2.165   2.640  0.8265 -2.3250 -1.1238
  497SOL    HW2 1987   1.584   2.137   2.744 -2.3283  1.7933  0.4554
  497SOL     MW 1988   1.540   2.190   2.687 -0.0232  0.0135  0.0747
  498SOL     OW 1989   1.478   2.688   2.351 -0.4329 -0.4131 -0.2146
  498SOL    HW1 1990   1.446   2.597   2.342 -0.9465 -0.6080  0.2701
  498SOL    HW2 1991   1.572   2.684   2.344 -2.1293  1.3433  0.5376
  498SOL     MW 1992   1.486   2.675   2.349 -0.7245 -0.2071 -0.0514
  499SOL     OW 1993   0.971   0.166   3.084  0.1016 -0.0900 -0.2574
  499SOL    HW1 1994   0.900   0.187   3.147  1.5978 -1.3616  4.7826
  499SOL    HW2 1995   0.989   0.077   3.110  2.5045  2.6640 -0.6339
  499SOL     MW 1996   0.964   0.157   3.095  0.6160  0.1056  0.3579
  500SOL     OW 1997   1.012   2.506   2.780 -0.2606  0.5852  0.2330
  500SOL    HW1 1998   1.086   2.490   2.842  0.8186  1.7968 -0.0520
  500SOL    HW2 1999   0.930   2.491   2.833 -1.8325 -0.8070 -0.2541
  500SOL     MW 2000   1.011   2.502   2.795 -0.3256  0.5614  0.1311
  501SOL     OW 2001   1.764   2.192   3.054 -0.1118 -0.3890 -0.1214
  501SOL    HW1 2002   1.725   2.277   3.044 -0.1740  0.4398  2.2524
  501SOL    HW2 2003   1.850   2.205   3.089  2.4379 -2.4893 -2.6846
  501SOL     MW 2004   1.770   2.205   3.057  0.2164 -0.5568 -0.1464
  502SOL     OW 2005   0.119   2.810   2.980  0.6178 -0.5728 -0.5587
  502SOL    HW1 2006   0.041   2.763   2.954  2.0891 -0.2587 -3.0473
  502SOL    HW2 2007   0.157   2.841   2.903 -0.3592 -1.7782  1.0235
  502SOL     MW 2008   0.114   2.808   2.967  0.6830 -0.6904 -0.6783
  503SOL     OW 2009   1.054   2.928   2.168  0.4631  0.3952  0.1001
  503SOL    HW1 2010   1.020   2.897   2.084 -1.0714 -1.5199  0.9152
  503SOL    HW2 2011   1.015   3.019   2.180  2.9228  1.3154  2.4260
  503SOL     MW 2012   1.044   2.936   2.159  0.5852  0.2640  0.5145
  504SOL     OW 2013   0.138   2.706   2.118 -0.1190 -0.1861  0.0537
  504SOL    HW1 2014   0.149   2.609   2.102  2.8720  2.8124 -0.5758
  504SOL    HW2 2015   0.041   2.723   2.122  1.2822  0.6339 -2.9743
  504SOL     MW 2016   0.127   2.695   2.116  0.4605  0.3177 -0.4289
  505SOL     OW 2017   1.719   2.704   2.695  0.0085 -0.1544  0.3678
  505SOL    HW1 2018   1.663   2.704   2.614  0.8112 -1.6715 -2.3642
  505SOL    HW2 2019   1.655   2.688   2.766 -1.1740 -1.7729  0.8533
  505SOL     MW 2020   1.703   2.702   2.694 -0.0416 -0.5681  0.0714
  506SOL     OW 2021   1.646   2.999   2.872  0.2433 -0.0851  0.0763
  506SOL    HW1 2022   1.663   2.937   2.942 -0.6424  0.7239  0.0020
  506SOL    HW2 2023   1.712   2.981   2.805  0.8824  0.5400  0.3781
  506SOL     MW 2024   1.657   2.989   2.872  0.2107  0.1041  0.1063
  507SOL     OW 2025   0.784   2.860   2.914 -0.0884  0.6098  0.7344
  507SOL    HW1 2026   0.838   2.913   2.858 -0.8257  0.5116 -1.0886
  507SOL    HW2 2027   0.704   2.914   2.935  0.4326 -2.2124 -3.9504
  507SOL     MW 2028   0.781   2.874   2.910 -0.1170  0.2245 -0.1242
  508SOL     OW 2029   1.102   2.086   2.471 -0.2336 -0.0578 -0.1162
  508SOL    HW1 2030   1.170   2.085   2.536 -0.3983  0.4622 -1.4926
  508SOL    HW2 2031   1.033   2.153   2.497 -1.1112  0.4112 -2.8785
  508SOL     MW 2032   1.102   2.095   2.483 -0.3711  0.0727 -0.6622
  509SOL     OW 2033   0.575   2.552   2.898 -0.2230  0.5732 -0.3826
  509SOL    HW1 2034   0.592   2.561   2.798  0.6443 -1.0119 -1.3105
  509SOL    HW2 2035   0.480   2.521   2.891 -0.8113 -1.5710  3.3482
  509SOL     MW 2036   0.564   2.549   2.884 -0.1862  0.0812 -0.0128
  510SOL     OW 2037   1.472   2.531   1.740  0.1235 -0.8079 -0.1706
  510SOL    HW1 2038   1.493   2.623   1.763 -1.0482 -0.6364  1.8966
  510SOL    HW2 2039   1.423   2.505   1.823 -1.4474 -2.6034 -2.0800
  510SOL     MW 2040   1.468   2.540   1.754 -0.2384 -1.0221 -0.1497
  511SOL     OW 2041   0.410   2.598   2.490  0.2530  0.4660 -0.0276
  511SOL    HW1 2042   0.498   2.573   2.524 -1.2236  0.2331  0.7923
  511SOL    HW2 2043   0.417   2.625   2.393 -2.2641  1.0794  0.7970
  511SOL     MW 2044   0.423   2.599   2.482 -0.2739  0.5162  0.1894
  512SOL     OW 2045   1.004   1.954   2.815 -0.1880 -0.7817 -0.7018
  512SOL    HW1 2046   0.912   1.941   2.841 -0.7479 -0.7894 -1.7298
  512SOL    HW2 2047   1.044   1.866   2.831  0.4680 -0.5460  0.8470
  512SOL     MW 2048   0.997   1.940   2.821 -0.1753 -0.7516 -0.6331
  513SOL     OW 2049   1.460   2.382   2.368  0.2872 -0.0646 -0.1818
  513SOL    HW1 2050   1.551   2.387   2.395 -0.4615  1.5487 -1.4359
  513SOL    HW2 2051   1.445   2.289   2.385 -2.5635  0.4330 -0.5848
  513SOL     MW 2052   1.470   2.370   2.374 -0.1877  0.2139 -0.4004
  514SOL     OW 2053   0.249   2.421   2.603 -0.3539 -0.4751 -0.1130
  514SOL    HW1 2054   0.295   2.492   2.559  0.1990 -0.6796  0.9737
  514SOL    HW2 2055   0.275   2.429   2.694 -0.5346 -1.5901  2.5525
  514SOL     MW 2056   0.258   2.431   2.609 -0.3048 -0.6492  0.3821
  515SOL     OW 2057   1.181   2.066   1.911  0.2225 -0.1932 -0.0904
  515SOL    HW1 2058   1.163   2.158   1.907  0.7750  1.6240  1.5498
  515SOL    HW2 2059   1.175   2.049   2.005  0.4216 -1.3345  2.4756
  515SOL     MW 2060   1.178   2.076   1.923  0.3217 -0.1040  0.4646
  516SOL     OW 2061   1.444   2.491   3.064 -0.4381 -0.4378 -0.7865
  516SOL    HW1 2062   1.493   2.482   2.982  0.2852 -2.9669  2.4539
  516SOL    HW2 2063   1.350   2.475   3.041  2.1138  0.7495 -1.4285
  516SOL     MW 2064   1.438   2.488   3.050 -0.0060 -0.6149 -0.4437
  517SOL     OW 2065   0.581   2.415   2.083  0.4644  0.0771 -0.3000
  517SOL    HW1 2066   0.553   2.508   2.075  2.4399 -2.6703  0.9101
  517SOL    HW2 2067   0.514   2.357   2.037 -0.0932 -2.0927 -1.6770
  517SOL     MW 2068   0.569   2.420   2.076  0.6515 -0.5717 -0.3221
  518SOL     OW 2069   1.883   0.075   3.018  0.0733 -0.1712  0.4817
  518SOL    HW1 2070   1.837   0.136   2.954  3.6726  1.3068  0.5356
  518SOL    HW2 2071   1.845   0.096   3.107 -1.9069  0.4995 -0.4036
  518SOL     MW 2072   1.872   0.086   3.021  0.2869  0.1123  0.3720
  519SOL     OW 2073   0.724   2.541   1.810 -0.3706 -0.3986  0.4908
  519SOL    HW1 2074   0.737   2.441   1.829 -1.1912  1.8210 -2.7600
  519SOL    HW2 2075   0.623   2.533   1.818 -1.5652  0.6646 -1.6360
  519SOL     MW 2076   0.713   2.526   1.813 -0.6364  0.0345 -0.2187
  520SOL     OW 2077   1.176   2.157   2.900 -0.2362  0.2896 -0.0200
  520SOL    HW1 2078   1.106   2.093   2.890  0.5170  1.8231  0.0468
  520SOL    HW2 2079   1.254   2.125   2.950 -0.4565 -0.2476 -1.3381
  520SOL     MW 2080   1.177   2.144   2.906 -0.1659  0.4210 -0.1851
  521SOL     OW 2081   1.747   1.999   2.226  0.6525 -0.3401 -0.0966
  521SOL    HW1 2082   1.777   2.021   2.139  0.9408  0.3818  0.9406
  521SOL    HW2 2083   1.749   1.903   2.235  0.3159  1.0302  0.0133
  521SOL     MW 2084   1.752   1.989   2.216  0.6462 -0.0641  0.0547
  522SOL     OW 2085   2.884   2.612   2.238  0.1566 -0.3960  0.2653
  522SOL    HW1 2086   2.955   2.543   2.259  1.0265 -0.6551 -1.1295
  522SOL    HW2 2087   2.810   2.616   2.297 -0.6456 -1.1813 -1.5307
  522SOL     MW 2088   2.884   2.604   2.248  0.1656 -0.5338 -0.1557
  523SOL     OW 2089   0.835   1.510   2.107 -0.1869  0.2300 -0.4722
  523SOL    HW1 2090   0.826   1.584   2.044  0.1032  0.0358  0.0232
  523SOL    HW2 2091   0.896   1.444   2.068 -0.7531 -0.8626 -1.1424
  523SOL     MW 2092   0.842   1.511   2.093 -0.2233  0.0602 -0.4952
  524SOL     OW 2093   0.818   2.446   2.957  0.2563 -0.7872  0.3842
  524SOL    HW1 2094   0.742   2.497   2.933  1.9989  3.9348  0.0072
  524SOL    HW2 2095   0.813   2.353   2.936  0.5756 -0.7914  0.1420
  524SOL     MW 2096   0.808   2.441   2.951  0.5284 -0.1647  0.3025
  525SOL     OW 2097   0.343   2.289   2.021 -0.4854 -0.4327 -0.1304
  525SOL    HW1 2098   0.357   2.233   2.097  2.2701 -1.9575 -0.3825
  525SOL    HW2 2099   0.344   2.236   1.942  1.9992 -1.9390 -0.0956
  525SOL     MW 2100   0.345   2.274   2.020  0.2060 -0.8326 -0.1591
  526SOL     OW 2101   0.637   2.128   2.092  0.3779 -0.0206 -0.3642
  526SOL    HW1 2102   0.659   2.180   2.013 -1.9695  2.4641 -0.5028
  526SOL    HW2 2103   0.628   2.195   2.163  1.6253 -0.3573  0.2773
  526SOL     MW 2104   0.639   2.144   2.091  0.2328  0.2628 -0.2978
  527SOL     OW 2105   1.412   1.980   2.160 -0.4208  0.0632  0.1195
  527SOL    HW1 2106   1.351   1.949   2.224  0.3102  1.3470 -2.6914
  527SOL    HW2 2107   1.432   1.905   2.102 -0.3889  0.6037  0.1186
  527SOL     MW 2108   1.407   1.966   2.161 -0.3202  0.3039 -0.2515
  528SOL     OW 2109   0.598   3.042   2.930  0.0593  0.7728  0.0112
  528SOL    HW1 2110   0.677   3.097   2.920  0.9137 -0.4571 -0.7045
  528SOL    HW2 2111   0.573   3.017   2.838 -1.2257  0.2336  1.4226
  528SOL     MW 2112   0.605   3.046   2.916  0.0025  0.5394  0.1030
  529SOL     OW 2113   1.023   2.286   1.947  0.9315  0.3797 -0.1242
  529SOL    HW1 2114   0.980   2.339   2.013  0.8234  0.7859  1.3730
  529SOL    HW2 2115   1.051   2.346   1.877  1.9708 -3.0521  0.6515
  529SOL     MW 2116   1.021   2.301   1.947  1.0544 -0.0195  0.1757
  530SOL     OW 2117   1.168   2.440   2.995 -0.4096 -0.0914  0.1580
  530SOL    HW1 2118   1.128   2.456   3.082 -0.5105  0.0861  1.6979
  530SOL    HW2 2119   1.169   2.347   2.978 -0.8988  0.4202 -1.2055
  530SOL     MW 2120   1.163   2.430   3.004 -0.4875 -0.0005  0.1813
  531SOL     OW 2121   0.953   1.880   2.554  0.3907  0.1632 -0.3948
  531SOL    HW1 2122   1.013   1.951   2.525  0.0256  3.4851 -0.2275
  531SOL    HW2 2123   0.962   1.901   2.654 -2.6699  3.9858  3.6807
  531SOL     MW 2124   0.962   1.892   2.563 -0.0613  1.1059  0.1650
  532SOL     OW 2125   1.773   0.214   2.780  0.5825  0.4125  0.5809
  532SOL    HW1 2126   1.752   0.134   2.730  0.4582 -0.4838 -2.9209
  532SOL    HW2 2127   1.826   0.262   2.716 -0.3756  0.6909  2.0843
  532SOL     MW 2128   1.778   0.210   2.765  0.4397  0.3310  0.3173
  533SOL     OW 2129   1.967   2.533   0.011  0.1710 -0.7743  0.5833
  533SOL    HW1 2130   1.894   2.493   0.064 -0.5163 -1.2581 -0.3961
  533SOL    HW2 2131   1.921   2.613  -0.019 -0.9066  0.6865 -1.5799
  533SOL     MW 2132   1.951   2.538   0.014 -0.0619 -0.6454  0.1687
  534SOL     OW 2133   1.703   2.382   2.523 -0.0021  0.3874  0.2894
  534SOL    HW1 2134   1.648   2.320   2.571 -1.8765  0.2699  2.2136
  534SOL    HW2 2135   1.781   2.386   2.583  1.6162 -0.3387 -0.3873
  534SOL     MW 2136   1.706   2.374   2.537 -0.0359  0.2761  0.4540
  535SOL     OW 2137   1.891   2.361   1.873 -0.4443 -0.5278  0.2634
  535SOL    HW1 2138   1.831   2.367   1.797  3.0700 -0.4621  1.2077
  535SOL    HW2 2139   1.980   2.341   1.837 -1.2903 -0.6757  0.4271
  535SOL     MW 2140   1.895   2.359   1.858 -0.0922 -0.5386  0.4096
  536SOL     OW 2141   0.491   1.883   2.111 -0.0415  0.2478  0.0426
  536SOL    HW1 2142   0.472   1.850   2.018 -2.5139 -2.3545 -2.4598
  536SOL    HW2 2143   0.534   1.968   2.105 -0.6718 -0.8239 -1.7620
  536SOL     MW 2144   0.495   1.889   2.098 -0.4509 -0.2369 -0.5257
  537SOL     OW 2145   1.050   0.301   2.765 -0.2594  0.4998  0.1529
  537SOL    HW1 2146   1.074   0.341   2.845 -1.3630 -2.6083 -1.6351
  537SOL    HW2 2147   1.058   0.364   2.696  0.6236 -0.5256  1.4508
  537SOL     MW 2148   1.054   0.314   2.767 -0.2885 -0.0456  0.0883
  538SOL     OW 2149   1.431   0.071   0.039 -0.2981  0.1330 -0.5747
  538SOL    HW1 2150   1.397   0.158   0.022 -3.2028 -1.3992 -1.4364
  538SOL    HW2 2151   1.349   0.022   0.047  2.0287  0.4049 -0.3017
  538SOL     MW 2152   1.416   0.076   0.038 -0.3744 -0.0333 -0.6524
  539SOL     OW 2153   0.736   2.859   2.603  0.0635  0.2437  0.0672
  539SOL    HW1 2154   0.815   2.907   2.632 -0.0783  0.4420  0.3503
  539SOL    HW2 2155   0.754   2.783   2.647 -1.6717 -0.7826 -1.1373
  539SOL     MW 2156   0.749   2.855   2.612 -0.1841  0.1345 -0.0544
  540SOL     OW 2157   0.300   2.438   2.877 -0.1972  0.4931 -0.0797
  540SOL    HW1 2158   0.279   2.497   2.947  2.2265  0.6661 -1.6989
  540SOL    HW2 2159   0.288   2.351   2.921  0.4874 -0.2808 -1.2918
  540SOL     MW 2160   0.296   2.434   2.892  0.2129  0.4138 -0.4532
  541SOL     OW 2161   0.267   2.939   2.108  0.3318  0.2810 -0.0217
  541SOL    HW1 2162   0.214   2.857   2.102  0.8986 -1.0373 -0.8994
  541SOL    HW2 2163   0.338   2.920   2.166 -0.0493  0.0476 -0.5230
  541SOL     MW 2164   0.269   2.926   2.115  0.3563  0.0762 -0.2036
  542SOL     OW 2165   0.963   2.257   2.622 -0.2997 -0.4642  0.7390
  542SOL    HW1 2166   0.913   2.207   2.684 -1.1534 -1.8853  1.1207
  542SOL    HW2 2167   0.989   2.335   2.678  0.0715  0.7655 -0.1532
  542SOL     MW 2168   0.960   2.261   2.637 -0.3633 -0.4894  0.6716
  543SOL     OW 2169   1.613   2.462   2.842  0.3782 -0.0092  0.5654
  543SOL    HW1 2170   1.606   2.403   2.773  3.1692  2.0876 -0.9076
  543SOL    HW2 2171   1.682   2.523   2.815 -2.1334  1.8444 -0.1603
  543SOL     MW 2172   1.621   2.462   2.829  0.4151  0.5120  0.2753
  544SOL     OW 2173   0.662   0.314   2.719 -0.4421 -0.0292 -0.0888
  544SOL    HW1 2174   0.573   0.295   2.758 -2.4934  0.5923  3.6405
  544SOL    HW2 2175   0.672   0.241   2.655  0.5517  0.8174  0.5408
  544SOL     MW 2176   0.652   0.301   2.716 -0.5816  0.1645  0.4863
  545SOL     OW 2177   1.544   2.117   2.356  0.4116  0.2411  0.7086
  545SOL    HW1 2178   1.490   2.072   2.289  0.4116  1.7072  0.9021
  545SOL    HW2 2179   1.629   2.092   2.338 -0.3750 -1.5105  2.6506
  545SOL     MW 2180   1.548   2.108   2.345  0.3078  0.2034  0.9904
  546SOL     OW 2181   2.916   1.971   0.154  0.1574 -0.0257  0.1561
  546SOL    HW1 2182   2.902   2.050   0.098 -0.6760  0.8311  2.1678
  546SOL    HW2 2183   2.994   1.940   0.112  0.4984  0.0099 -0.2083
  546SOL     MW 2184   2.924   1.977   0.141  0.0924  0.0920  0.3735
  547SOL     OW 2185   0.198   0.057   0.091 -0.2154 -0.2175  0.2687
  547SOL    HW1 2186   0.269   0.088   0.027 -1.5399  1.1789 -1.7418
  547SOL    HW2 2187   0.136   0.021   0.033  0.7258  2.7767 -0.9950
  547SOL     MW 2188   0.199   0.057   0.075 -0.2660  0.3618 -0.1633
  548SOL     OW 2189   0.374   2.575   0.254 -0.1091  0.0212  0.1817
  548SOL    HW1 2190   0.356   2.585   0.160  0.9514  0.0111 -1.1438
  548SOL    HW2 2191   0.289   2.559   0.293 -2.5928 -0.1865  1.5225
  548SOL     MW 2192   0.361   2.574   0.247 -0.2969 -0.0075  0.1837
  549SOL     OW 2193   0.845   1.927   2.144 -0.3084  0.0396  0.4034
  549SOL    HW1 2194   0.787   1.973   2.083 -1.9524  3.6450 -0.2342
  549SOL    HW2 2195   0.796   1.929   2.229  2.8368  0.0896  2.3955
  549SOL     MW 2196   0.831   1.933   2.147 -0.1103  0.5219  0.5821
  550SOL     OW 2197   1.800   1.627   2.534 -0.5191  0.7091 -0.0948
  550SOL    HW1 2198   1.792   1.639   2.443  2.5994 -1.2218 -0.0404
  550SOL    HW2 2199   1.774   1.712   2.572  2.4698 -0.8404  1.6479
  550SOL     MW 2200   1.796   1.640   2.527  0.2867  0.2499  0.1423
  551SOL     OW 2201   0.916   2.234   0.213 -0.2927  0.0705  0.7538
  551SOL    HW1 2202   1.016   2.239   0.215 -0.2843 -0.2334 -1.5758
  551SOL    HW2 2203   0.894   2.184   0.138  2.8840  1.1585 -0.7899
  551SOL     MW 2204   0.926   2.228   0.203  0.1275  0.1740  0.2427
  552SOL     OW 2205   1.761   1.707   2.230  0.3218 -0.2438 -0.4080
  552SOL    HW1 2206   1.688   1.646   2.236 -0.3122 -3.4181 -3.9685
  552SOL    HW2 2207   1.792   1.672   2.148 -0.2652 -3.4460  0.3407
  552SOL     MW 2208   1.755   1.695   2.220  0.1607 -1.0851 -0.7790
  553SOL     OW 2209   1.252   2.302   1.593  0.1332 -0.4557  0.6145
  553SOL    HW1 2210   1.297   2.221   1.607  0.8770  1.6906  1.7661
  553SOL    HW2 2211   1.314   2.364   1.542 -1.2821 -0.4345  2.0222
  553SOL     MW 2212   1.266   2.299   1.588  0.0446 -0.1697  0.9522
  554SOL     OW 2213   0.503   2.976   2.675 -0.1353 -0.0649 -0.3572
  554SOL    HW1 2214   0.474   3.041   2.614  1.8536  0.1720 -0.4395
  554SOL    HW2 2215   0.587   2.938   2.640  0.6046  0.9824  1.6590
  554SOL     MW 2216   0.510   2.979   2.662  0.2247  0.1045 -0.1021
  555SOL     OW 2217   0.650   2.533   2.640  0.3387  0.2562  0.3954
  555SOL    HW1 2218   0.607   2.447   2.634 -0.4385 -2.9422 -0.7848
  555SOL    HW2 2219   0.730   2.529   2.585  1.4146  1.9617  0.2301
  555SOL     MW 2220   0.655   2.521   2.632  0.3781  0.0592  0.2179
  556SOL     OW 2221   1.044   1.824   0.058 -0.4190 -0.4219  0.5852
  556SOL    HW1 2222   1.061   1.800  -0.033 -2.3092  1.5273 -0.9429
  556SOL    HW2 2223   1.117   1.867   0.106 -0.9055 -2.5747  0.4091
  556SOL     MW 2224   1.056   1.826   0.052 -0.7326 -0.4487  0.3603
  557SOL     OW 2225   1.035   2.707   0.595  0.0817 -0.3985  0.0446
  557SOL    HW1 2226   1.084   2.654   0.532  1.5779  0.4604 -2.7962
  557SOL    HW2 2227   0.979   2.757   0.543  1.3626 -1.6676 -1.9044
  557SOL     MW 2228   1.034   2.706   0.580  0.4481 -0.4526 -0.5874
  558SOL     OW 2229   0.208   2.226   3.005 -0.3998 -0.3045 -0.5131
  558SOL    HW1 2230   0.271   2.177   3.053 -2.2708 -1.7925 -0.3912
  558SOL    HW2 2231   0.146   2.270   3.072 -2.5186  1.8213  2.1621
  558SOL     MW 2232   0.208   2.225   3.020 -0.9262 -0.2204 -0.1440
  559SOL     OW 2233   1.052   2.285   2.248  0.1445 -0.4305 -0.2559
  559SOL    HW1 2234   1.124   2.336   2.220  0.1749 -1.8429 -0.3032
  559SOL    HW2 2235   1.066   2.195   2.220 -1.1552 -0.6906 -0.3564
  559SOL     MW 2236   1.063   2.280   2.240 -0.0230 -0.6512 -0.2754
  560SOL     OW 2237   2.166   2.658   0.146 -0.4967 -0.5398  0.1536
  560SOL    HW1 2238   2.156   2.747   0.111  0.8056  1.2021  0.5568
  560SOL    HW2 2239   2.109   2.601   0.093  0.4021  0.1626 -0.3801
  560SOL     MW 2240   2.157   2.662   0.134 -0.2063 -0.2173  0.1364
  561SOL     OW 2241   0.492   2.204   0.166  0.1834 -0.1167 -0.4295
  561SOL    HW1 2242   0.546   2.227   0.092  1.5748 -0.7030  0.4177
  561SOL    HW2 2243   0.520   2.275   0.224 -0.5142  0.8228  0.1819
  561SOL     MW 2244   0.503   2.216   0.164  0.2750 -0.0701 -0.2371
  562SOL     OW 2245   0.658   2.336   2.365 -0.1637  0.7282 -0.2062
  562SOL    HW1 2246   0.610   2.384   2.303  1.0354  0.6445 -1.9037
  562SOL    HW2 2247   0.737   2.380   2.408  0.0979 -3.2521  2.6726
  562SOL     MW 2248   0.662   2.348   2.362  0.0290  0.1920 -0.0503
  563SOL     OW 2249   1.267   0.376   0.574 -0.3397 -0.8323 -0.1095
  563SOL    HW1 2250   1.209   0.324   0.516 -0.5986  0.4339 -1.3663
  563SOL    HW2 2251   1.226   0.361   0.666  1.1376 -1.3740  4.5154
  563SOL     MW 2252   1.254   0.367   0.579 -0.1789 -0.7367  0.3349
  564SOL     OW 2253   0.994   2.738   2.351 -0.3837  0.5602  0.7816
  564SOL    HW1 2254   1.028   2.811   2.304 -0.2409 -1.9021 -0.1101
  564SOL    HW2 2255   1.028   2.735   2.446 -1.9651 -1.1562 -3.2124
  564SOL     MW 2256   1.003   2.747   2.357 -0.5735  0.0089  0.1369
  565SOL     OW 2257   2.756   2.792   2.616  0.2038 -0.7462  0.2023
  565SOL    HW1 2258   2.723   2.870   2.574 -0.2161 -1.0995 -1.0668
  565SOL    HW2 2259   2.731   2.723   2.560  0.1296 -0.6371 -4.5035
  565SOL     MW 2260   2.748   2.793   2.603  0.1386 -0.7784 -0.5860
  566SOL     OW 2261   2.183   1.919   2.375  0.1019 -0.6699 -0.3956
  566SOL    HW1 2262   2.179   1.881   2.283 -1.2695  1.8593 -0.2856
  566SOL    HW2 2263   2.256   1.982   2.358 -3.1518 -1.2636  1.2547
  566SOL     MW 2264   2.192   1.922   2.361 -0.5084 -0.4145 -0.1633
  567SOL     OW 2265   1.184   3.037   0.005  0.5114 -0.1329 -0.1907
  567SOL    HW1 2266   1.150   3.024   0.094  3.4038  0.4729 -0.0264
  567SOL    HW2 2267   1.245   2.954  -0.008  0.6955 -1.2187  0.2494
  567SOL     MW 2268   1.188   3.024   0.015  0.9173 -0.1962 -0.1110
  568SOL     OW 2269   1.642   2.038   2.862  0.0090  0.0114 -0.0794
  568SOL    HW1 2270   1.701   2.085   2.922  1.9683 -0.9998  1.0830
  568SOL    HW2 2271   1.698   1.969   2.824 -1.4175 -0.4538  0.8259
  568SOL     MW 2272   1.657   2.035   2.865  0.0793 -0.1834  0.1934
  569SOL     OW 2273   0.128   2.243   2.415  0.4032  0.2561 -0.0435
  569SOL    HW1 2274   0.072   2.298   2.363 -0.9679 -1.9901  3.6690
  569SOL    HW2 2275   0.159   2.300   2.487 -0.4727  0.4526 -0.4739
  569SOL     MW 2276   0.125   2.258   2.417  0.1067 -0.0143  0.3895
  570SOL     OW 2277   1.507   0.317   0.457  0.2733  0.3380 -0.1907
  570SOL    HW1 2278   1.423   0.358   0.492 -0.9090 -1.1100 -0.1058
  570SOL    HW2 2279   1.578   0.341   0.529  1.2923 -0.1523  0.5612
  570SOL     MW 2280   1.505   0.325   0.471  0.2518  0.0822 -0.0803
  571SOL     OW 2281   1.344   2.357   2.131 -0.1950 -0.6588 -0.3601
  571SOL    HW1 2282   1.402   2.365   2.208  0.2533 -0.1627  1.0847
  571SOL    HW2 2283   1.389   2.287   2.081 -3.6069 -0.6097  0.3033
  571SOL     MW 2284   1.357   2.349   2.135 -0.5860 -0.5869 -0.0819
  572SOL     OW 2285   1.103   2.597   0.105 -0.1557  0.3715 -0.0408
  572SOL    HW1 2286   1.082   2.675   0.061  2.2728 -3.3813  2.8253
  572SOL    HW2 2287   1.009   2.558   0.106 -1.2439 -1.3918  0.4995
  572SOL     MW 2288   1.088   2.602   0.099  0.0211 -0.3563  0.4086
  573SOL     OW 2289   1.203   2.306   0.293 -0.2089  0.0759  0.0473
  573SOL    HW1 2290   1.288   2.301   0.244  0.6289  0.3053 -1.3612
  573SOL    HW2 2291   1.212   2.396   0.330 -1.9494  1.0011  0.3092
  573SOL     MW 2292   1.215   2.317   0.291 -0.3280  0.2283 -0.1040
  574SOL     OW 2293   1.174   2.582   0.373  0.3934  0.1445  0.0800
  574SOL    HW1 2294   1.253   2.637   0.380 -0.4170 -0.3101 -0.8022
  574SOL    HW2 2295   1.160   2.585   0.281  0.4870 -1.5759 -0.9002
  574SOL     MW 2296   1.182   2.590   0.362  0.2988 -0.1425 -0.1657
  575SOL     OW 2297  -0.005   2.213   1.682  0.8493 -0.1783  0.9668
  575SOL    HW1 2298   0.030   2.134   1.637  0.6610  0.8038 -1.5547
  575SOL    HW2 2299   0.063   2.261   1.731  1.4532 -2.3567  1.5027
  575SOL     MW 2300   0.009   2.209   1.682  0.9041 -0.3361  0.7048
  576SOL     OW 2301   2.915   1.854   1.915 -0.4757 -0.1454  0.0758
  576SOL    HW1 2302   2.940   1.924   1.857 -0.8252  0.5973 -1.2010
  576SOL    HW2 2303   2.831   1.842   1.865  1.3383 -1.5655  0.4825
  576SOL     MW 2304   2.907   1.862   1.900 -0.2825 -0.2348 -0.0390
  577SOL     OW 2305   2.147   0.166   0.047 -0.1734  0.2029  0.3829
  577SOL    HW1 2306   2.074   0.155  -0.010 -0.0992  1.5335  1.4772
  577SOL    HW2 2307   2.124   0.121   0.132  0.7274 -0.9612  1.3984
  577SOL     MW 2308   2.134   0.159   0.050 -0.0448  0.2249  0.6613
  578SOL     OW 2309   1.983   2.114   2.355 -0.0832  0.1137 -0.1925
  578SOL    HW1 2310   1.905   2.066   2.317 -2.1793 -3.5123  2.7677
  578SOL    HW2 2311   2.056   2.040   2.356 -0.4136 -3.3048  1.8184
  578SOL     MW 2312   1.983   2.098   2.350 -0.4034 -0.8157  0.4633
  579SOL     OW 2313   0.868   2.472   2.457  0.0473 -0.3318 -0.8145
  579SOL    HW1 2314   0.928   2.407   2.479  0.2296 -2.2825  0.2669
  579SOL    HW2 2315   0.906   2.521   2.387  2.6425 -2.3216  0.3666
  579SOL     MW 2316   0.881   2.470   2.450  0.4138 -0.8517 -0.5160
  580SOL     OW 2317   1.001   2.811   3.094 -0.1768 -0.5561 -0.1170
  580SOL    HW1 2318   1.047   2.876   3.040 -3.2947  0.8751 -0.1104
  580SOL    HW2 2319   0.908   2.779   3.061  0.5219 -2.3440 -0.1270
  580SOL     MW 2320   0.995   2.815   3.082 -0.4960 -0.6032 -0.1174
  581SOL     OW 2321   1.095   2.465   1.754  0.1207 -0.3977 -0.6761
  581SOL    HW1 2322   1.155   2.522   1.806  0.8648 -1.4016  0.7765
  581SOL    HW2 2323   1.159   2.419   1.699  0.8473 -0.7968  0.3257
  581SOL     MW 2324   1.112   2.467   1.753  0.3148 -0.5828 -0.3523
  582SOL     OW 2325   3.098   2.942   2.649 -0.1579 -0.5969 -0.3364
  582SOL    HW1 2326   3.037   2.968   2.724 -0.2306  2.0965 -0.6462
  582SOL    HW2 2327   3.186   2.958   2.675 -0.5920 -2.9420  0.8096
  582SOL     MW 2328   3.101   2.947   2.662 -0.2248 -0.5509 -0.2261
  583SOL     OW 2329   1.948   2.397   2.676  0.4794 -0.2122 -0.0975
  583SOL    HW1 2330   2.027   2.414   2.623  1.0454  0.4343  0.2657
  583SOL    HW2 2331   1.947   2.299   2.673 -0.2925 -2.5149  0.2046
  583SOL     MW 2332   1.959   2.386   2.669  0.4522 -0.4307 -0.0097
  584SOL     OW 2333   0.189   1.877   2.188  0.3180 -0.3558 -0.5074
  584SOL    HW1 2334   0.201   1.893   2.286  0.8600 -1.0330  0.5256
  584SOL    HW2 2335   0.279   1.862   2.167 -0.0237  2.1575  2.6371
  584SOL     MW 2336   0.203   1.877   2.198  0.3444 -0.1135  0.0437
  585SOL     OW 2337   1.547   2.642   0.169  0.5072 -0.6266  0.4145
  585SOL    HW1 2338   1.509   2.583   0.099  0.5138 -1.8696  1.1030
  585SOL    HW2 2339   1.472   2.674   0.227  1.1847 -3.2031 -0.8916
  585SOL     MW 2340   1.532   2.638   0.168  0.5975 -1.1305  0.3330
  586SOL     OW 2341   1.341   2.770   2.585 -0.1389 -0.1121 -0.0149
  586SOL    HW1 2342   1.387   2.723   2.515 -2.0686  1.6129  2.7986
  586SOL    HW2 2343   1.351   2.864   2.552 -0.0641 -0.7659 -1.5234
  586SOL     MW 2344   1.349   2.776   2.572 -0.3836  0.0292  0.1573
  587SOL     OW 2345   1.269   1.502   2.154  0.3279  0.4294 -0.1995
  587SOL    HW1 2346   1.276   1.417   2.194 -0.8593  0.3795  0.5322
  587SOL    HW2 2347   1.236   1.482   2.070 -0.6346  2.3396  1.2635
  587SOL     MW 2348   1.266   1.488   2.148  0.0442  0.6748  0.0901
  588SOL     OW 2349   1.302   2.041   2.658 -0.3197  0.2887 -0.4782
  588SOL    HW1 2350   1.368   1.972   2.679  1.2695  0.7688  0.6182
  588SOL    HW2 2351   1.278   2.088   2.738 -1.3650 -1.1350 -1.3112
  588SOL     MW 2352   1.308   2.038   2.671 -0.2479  0.1642 -0.4435
  589SOL     OW 2353   1.352   2.052   0.040 -0.5011 -0.3085  0.1645
  589SOL    HW1 2354   1.390   2.130   0.085 -3.7800  1.2308 -1.4920
  589SOL    HW2 2355   1.318   1.999   0.112 -2.3579 -1.2252  1.2530
  589SOL     MW 2356   1.353   2.056   0.055 -1.1787 -0.2263  0.0896
  590SOL     OW 2357   0.474   2.672   2.231 -0.0650  0.3615 -0.3465
  590SOL    HW1 2358   0.451   2.700   2.136 -1.5067 -0.2257  0.9567
  590SOL    HW2 2359   0.570   2.696   2.251  2.4944  0.1854 -1.6662
  590SOL     MW 2360   0.483   2.679   2.221  0.0825  0.2608 -0.3487
  591SOL     OW 2361   2.204   0.684   0.165 -0.1640 -0.0769  0.1249
  591SOL    HW1 2362   2.137   0.708   0.228  3.7844 -0.7194 -0.2615
  591SOL    HW2 2363   2.179   0.734   0.090  2.0517 -1.2596  0.1251
  591SOL     MW 2364   2.192   0.694   0.164  0.6493 -0.3177  0.0740
  592SOL     OW 2365   1.631   2.910   0.725  0.0402  0.5882 -0.2126
  592SOL    HW1 2366   1.611   3.000   0.749  0.5250 -1.0287  0.7543
  592SOL    HW2 2367   1.722   2.893   0.756  1.6413  0.2553 -0.7891
  592SOL     MW 2368   1.640   2.919   0.732  0.3154  0.3310 -0.1611
  593SOL     OW 2369   1.926   0.742   0.698 -0.7645 -0.3916 -0.5319
  593SOL    HW1 2370   1.854   0.720   0.642  2.0000  2.1952 -0.5093
  593SOL    HW2 2371   1.972   0.657   0.700 -1.6468 -2.0240 -2.0820
  593SOL     MW 2372   1.923   0.728   0.691 -0.5162 -0.2657 -0.7334
  594SOL     OW 2373   2.835   1.078   1.366  0.2810  1.0080  0.7249
  594SOL    HW1 2374   2.925   1.118   1.347  2.4541  0.8598 -0.8849
  594SOL    HW2 2375   2.769   1.100   1.294  1.0353  2.3550 -0.3082
  594SOL     MW 2376   2.838   1.086   1.354  0.6672  1.1662  0.3762
  595SOL     OW 2377   0.551   0.940   0.848  0.0307 -0.4042  0.1177
  595SOL    HW1 2378   0.508   0.997   0.778  1.1270  1.6380  0.8640
  595SOL    HW2 2379   0.601   1.008   0.905  0.6215 -1.6051 -0.7819
  595SOL     MW 2380   0.552   0.956   0.847  0.2533 -0.2932  0.0975
  596SOL     OW 2381   2.445   1.340   0.500 -0.3919 -0.6969 -0.0674
  596SOL    HW1 2382   2.445   1.415   0.444  0.6048 -0.9199  2.5879
  596SOL    HW2 2383   2.496   1.375   0.571 -0.4383  0.4907 -2.6727
  596SOL     MW 2384   2.451   1.354   0.502 -0.2665 -0.5696 -0.0608
  597SOL     OW 2385   2.239   0.673   1.644 -0.1727 -0.0710  0.4509
  597SOL    HW1 2386   2.282   0.601   1.701  3.1046  0.5786  2.8594
  597SOL    HW2 2387   2.168   0.628   1.597  2.9969  1.4985  3.0153
  597SOL     MW 2388   2.235   0.658   1.645  0.6779  0.2218  1.1070
  598SOL     OW 2389   2.579   1.003   2.865 -0.2249 -0.3117 -0.3029
  598SOL    HW1 2390   2.597   0.917   2.831  2.0693  0.0831 -1.6568
  598SOL    HW2 2391   2.655   1.039   2.909  0.2940 -0.1797  1.7894
  598SOL     MW 2392   2.591   0.996   2.866  0.1462 -0.2422 -0.2055
  599SOL     OW 2393   3.004   0.525   2.226 -0.4399  0.3582 -0.3903
  599SOL    HW1 2394   3.059   0.572   2.298 -0.7766  1.5324  1.2785
  599SOL    HW2 2395   3.049   0.537   2.132  1.5252  0.8117 -2.1683
  599SOL     MW 2396   3.017   0.533   2.223 -0.2250  0.5730 -0.4047
  600SOL     OW 2397   1.834   1.687   0.822 -0.2166 -0.3367  0.3058
  600SOL    HW1 2398   1.860   1.729   0.907  1.3359 -0.5863 -0.4701
  600SOL    HW2 2399   1.757   1.734   0.791  1.7907  2.5880 -0.5207
  600SOL     MW 2400   1.828   1.699   0.829  0.2531  0.0163  0.0944
  601SOL     OW 2401   2.540   0.767   0.846  0.1287  0.1160 -0.0394
  601SOL    HW1 2402   2.553   0.750   0.945  1.4612  2.3910 -1.1573
  601SOL    HW2 2403   2.476   0.699   0.809 -1.8716  0.3956 -1.1143
  601SOL     MW 2404   2.533   0.756   0.854  0.0406  0.4530 -0.3287
  602SOL     OW 2405   2.234   1.954   0.764 -0.4922  0.5189 -0.0781
  602SOL    HW1 2406   2.176   1.885   0.728 -2.5020 -2.8087  0.1623
  602SOL    HW2 2407   2.184   2.041   0.747  2.0421  0.1600 -1.5447
  602SOL     MW 2408   2.220   1.956   0.757 -0.4230  0.0325 -0.2399
  603SOL     OW 2409   3.030   1.338   1.983  0.1962 -0.3035 -0.0759
  603SOL    HW1 2410   2.990   1.392   2.050 -0.2742  0.4130  3.5497
  603SOL    HW2 2411   3.080   1.266   2.031  2.0845 -1.3803  0.4459
  603SOL     MW 2412   3.031   1.336   1.998  0.3833 -0.3511  0.4713
  604SOL     OW 2413   2.021   1.387   0.357  0.1017  0.0088  0.4390
  604SOL    HW1 2414   2.079   1.322   0.400  0.0855 -0.7322  1.3426
  604SOL    HW2 2415   1.951   1.398   0.419  2.7181 -0.6633  2.8162
  604SOL     MW 2416   2.019   1.380   0.371  0.4448 -0.1776  0.8718
  605SOL     OW 2417   2.436   1.440   0.785 -0.1349 -0.3483  0.1096
  605SOL    HW1 2418   2.421   1.509   0.720  3.3486  1.4298  0.6065
  605SOL    HW2 2419   2.524   1.411   0.763  0.6136  1.6667  2.2465
  605SOL     MW 2420   2.445   1.445   0.773  0.4234  0.1521  0.4571
  606SOL     OW 2421   2.690   1.786   1.778  0.0162  0.2626  0.0174
  606SOL    HW1 2422   2.615   1.816   1.726  0.4209  1.5751 -0.9480
  606SOL    HW2 2423   2.660   1.712   1.822 -0.5571  1.8731 -1.7422
  606SOL     MW 2424   2.676   1.780   1.777 -0.0061  0.6483 -0.3422
  607SOL     OW 2425   2.394   1.015   3.084  0.0358  0.5963 -0.1097
  607SOL    HW1 2426   2.468   1.003   3.015 -1.6824 -0.8148 -1.7003
  607SOL    HW2 2427   2.424   1.009   3.172 -0.6058 -3.1141  0.5626
  607SOL     MW 2428   2.408   1.013   3.086 -0.2756 -0.0794 -0.2308
  608SOL     OW 2429   1.913   0.250   0.444 -0.2949 -0.0908 -0.3611
  608SOL    HW1 2430   1.902   0.296   0.356 -0.2242 -2.3373 -0.2560
  608SOL    HW2 2431   1.884   0.156   0.441  0.8917 -0.6757 -1.2623
  608SOL     MW 2432   1.907   0.244   0.432 -0.1290 -0.4644 -0.4662
  609SOL     OW 2433   2.089   1.899   3.081 -0.2773  0.1390 -0.3152
  609SOL    HW1 2434   2.064   1.823   3.028  0.4482  1.8902 -0.2568
  609SOL    HW2 2435   2.081   1.869   3.172  0.6954  2.9654 -0.0110
  609SOL     MW 2436   2.084   1.885   3.086 -0.0532  0.7430 -0.2674
  610SOL     OW 2437   1.790   0.971   1.246 -0.3908  0.0577  0.7612
  610SOL    HW1 2438   1.783   0.906   1.168  1.5066 -1.7154 -2.8717
  610SOL    HW2 2439   1.705   1.016   1.263  0.0798 -0.9997 -1.5279
  610SOL     MW 2440   1.778   0.968   1.238 -0.0784 -0.3158 -0.0202
  611SOL     OW 2441   2.472   1.665   0.570 -0.4203 -0.0235 -0.6238
  611SOL    HW1 2442   2.455   1.627   0.484  0.5331  2.1413 -0.6024
  611SOL    HW2 2443   2.494   1.758   0.557  0.4824  2.5805 -0.6659
  611SOL     MW 2444   2.472   1.672   0.557 -0.1754  0.6057 -0.6265
  612SOL     OW 2445   2.897   2.847   0.394  0.2445 -0.1385 -0.3100
  612SOL    HW1 2446   2.917   2.878   0.480 -1.8470 -2.4495 -1.9007
  612SOL    HW2 2447   2.988   2.837   0.357 -0.5825 -1.3010 -0.0082
  612SOL     MW 2448   2.912   2.850   0.400 -0.1406 -0.5968 -0.4800
  613SOL     OW 2449   1.444   1.140   0.935  0.4018 -0.3718 -0.5622
  613SOL    HW1 2450   1.440   1.237   0.945 -2.1851  0.0728  2.6233
  613SOL    HW2 2451   1.480   1.110   1.022  0.5766  1.0513 -1.2778
  613SOL     MW 2452   1.448   1.149   0.948  0.0836 -0.1254 -0.2363
  614SOL     OW 2453   2.072   0.507   1.437  0.5021  0.6962 -0.0522
  614SOL    HW1 2454   2.065   0.441   1.506  1.0232 -0.3428  0.2578
  614SOL    HW2 2455   1.975   0.524   1.408  0.1827  1.8060  0.3084
  614SOL     MW 2456   2.058   0.500   1.443  0.5287  0.7056  0.0363
  615SOL     OW 2457   2.406   0.742   0.342  0.1835  0.1426  0.2060
  615SOL    HW1 2458   2.497   0.695   0.354  1.0281  3.3369  1.1873
  615SOL    HW2 2459   2.360   0.705   0.261 -0.5666  1.0271 -0.9257
  615SOL     MW 2460   2.412   0.731   0.333  0.1960  0.6808  0.1861
  616SOL     OW 2461   2.573   0.385   1.647 -0.3139 -0.1869  0.1287
  616SOL    HW1 2462   2.528   0.306   1.626 -1.2912  2.1128  1.6214
  616SOL    HW2 2463   2.526   0.450   1.590 -0.2776 -0.0511  0.8321
  616SOL     MW 2464   2.561   0.383   1.637 -0.4381  0.1345  0.4185
  617SOL     OW 2465   2.802   0.566   1.810  0.0125  0.0404 -1.0294
  617SOL    HW1 2466   2.716   0.564   1.843  0.3121  1.3326  0.8393
  617SOL    HW2 2467   2.829   0.469   1.783  1.2852  1.0116 -0.3763
  617SOL     MW 2468   2.794   0.553   1.811  0.2199  0.3390 -0.6967
  618SOL     OW 2469   2.831   0.203   1.995  0.7106 -0.3895  0.0702
  618SOL    HW1 2470   2.794   0.272   2.053  4.0518  1.4663 -1.7919
  618SOL    HW2 2471   2.921   0.187   2.025 -0.1964  2.0209  2.3141
  618SOL     MW 2472   2.838   0.210   2.007  1.0318  0.1734  0.1205
  619SOL     OW 2473   2.723   0.721   0.044  0.1508 -0.2792 -0.0419
  619SOL    HW1 2474   2.768   0.803   0.051 -0.7004 -0.9505 -0.9814
  619SOL    HW2 2475   2.785   0.675   0.096 -0.0468  1.1440 -2.3769
  619SOL     MW 2476   2.737   0.726   0.052  0.0124 -0.1800 -0.4739
  620SOL     OW 2477   2.230   1.011   0.902 -0.2205 -0.3378 -0.7775
  620SOL    HW1 2478   2.299   0.989   0.840  2.1305  0.7357  3.0032
  620SOL    HW2 2479   2.152   1.020   0.846  0.9642 -1.5389 -3.0680
  620SOL     MW 2480   2.228   1.009   0.887  0.2460 -0.3546 -0.5809
  621SOL     OW 2481   1.509   2.180   1.988 -0.4829 -0.3767  0.7878
  621SOL    HW1 2482   1.463   2.111   2.035  3.7908 -3.3941 -1.1688
  621SOL    HW2 2483   1.601   2.166   2.007 -1.3991  1.7069  0.1066
  621SOL     MW 2484   1.515   2.169   1.997 -0.0399 -0.4999  0.4398
  622SOL     OW 2485   2.641   0.284   0.190 -0.1377  0.2890 -0.1271
  622SOL    HW1 2486   2.723   0.335   0.180 -3.0911 -0.6568 -2.3981
  622SOL    HW2 2487   2.670   0.191   0.178 -0.6934  1.2616  1.2419
  622SOL     MW 2488   2.656   0.278   0.187 -0.6007  0.2926 -0.2461
  623SOL     OW 2489   2.347   2.785   0.809 -0.1517 -0.7377  0.3067
  623SOL    HW1 2490   2.409   2.859   0.796 -2.7515 -0.4750  3.7751
  623SOL    HW2 2491   2.336   2.783   0.909  2.3551  0.2300 -0.0184
  623SOL     MW 2492   2.354   2.794   0.821 -0.1640 -0.5754  0.7215
  624SOL     OW 2493   2.132   1.587   3.015  0.0287  0.2877  0.0218
  624SOL    HW1 2494   2.074   1.511   2.994 -1.0401 -0.9190  0.2719
  624SOL    HW2 2495   2.181   1.559   3.086  0.8528  0.3161 -2.6449
  624SOL     MW 2496   2.131   1.574   3.022 -0.0036  0.1322 -0.2971
  625SOL     OW 2497   2.136   1.944   1.038 -0.0583 -0.0953 -0.0207
  625SOL    HW1 2498   2.180   1.861   1.061 -0.9734 -1.2912  1.6763
  625SOL    HW2 2499   2.149   1.946   0.942  0.6796  1.0503 -1.6132
  625SOL     MW 2500   2.143   1.933   1.028 -0.0816 -0.1020 -0.0069
  626SOL     OW 2501   0.117   1.844   2.469  0.4033  0.1746  0.0904
  626SOL    HW1 2502   0.047   1.777   2.490 -3.2764 -1.6929 -1.2796
  626SOL    HW2 2503   0.065   1.924   2.472  0.7495  3.6193 -1.1214
  626SOL     MW 2504   0.101   1.845   2.473 -0.0365  0.3827 -0.2503
  627SOL     OW 2505   2.611   0.812   2.603  0.4056  0.6996 -0.2705
  627SOL    HW1 2506   2.531   0.869   2.605  0.1937  1.6146  2.4930
  627SOL    HW2 2507   2.586   0.751   2.534 -2.5900  0.3461 -0.2103
  627SOL     MW 2508   2.597   0.812   2.594 -0.0176  0.7737  0.1020
  628SOL     OW 2509   2.337   1.364   1.274  0.6137 -0.3756  0.0600
  628SOL    HW1 2510   2.321   1.300   1.207 -1.8781  0.6944  0.3159
  628SOL    HW2 2511   2.417   1.408   1.245 -3.4095  2.3781 -4.0713
  628SOL     MW 2512   2.346   1.361   1.261 -0.2458  0.1289 -0.4513
  629SOL     OW 2513   1.845   0.595   1.308 -0.1777 -0.4302 -0.6403
  629SOL    HW1 2514   1.907   0.647   1.256 -0.8333 -0.8266 -2.1829
  629SOL    HW2 2515   1.759   0.616   1.268 -0.4342  0.8769 -0.2942
  629SOL     MW 2516   1.841   0.605   1.296 -0.2980 -0.3100 -0.7982
  630SOL     OW 2517   2.379   1.956   3.058 -0.6256  0.2833  0.0381
  630SOL    HW1 2518   2.389   2.006   2.973 -1.3163  0.1893 -2.4868
  630SOL    HW2 2519   2.291   1.929   3.076  1.9985 -0.1510  0.0174
  630SOL     MW 2520   2.369   1.959   3.049 -0.3705  0.2136 -0.2978
  631SOL     OW 2521   2.095   1.881   1.476  0.1383  0.4720  0.1220
  631SOL    HW1 2522   2.062   1.807   1.528  1.2153  0.9587 -1.3109
  631SOL    HW2 2523   2.016   1.928   1.447 -1.8218 -1.0435 -0.8849
  631SOL     MW 2524   2.080   1.878   1.479  0.0218  0.3363 -0.1999
  632SOL     OW 2525   0.390   1.892   1.494  0.2349  0.3350  0.2078
  632SOL    HW1 2526   0.318   1.949   1.511 -0.8051 -1.8512 -1.0320
  632SOL    HW2 2527   0.356   1.796   1.502 -0.9555 -2.2533 -0.2524
  632SOL     MW 2528   0.376   1.886   1.497 -0.0594 -0.2949 -0.0165
  633SOL     OW 2529   2.620   0.582   0.362  0.1872  0.0218  0.0996
  633SOL    HW1 2530   2.694   0.580   0.422  1.6699 -0.2743 -1.0067
  633SOL    HW2 2531   2.591   0.494   0.346  0.7859  2.0146 -1.7711
  633SOL     MW 2532   2.626   0.570   0.368  0.4619  0.2457 -0.2932
  634SOL     OW 2533   2.716  -0.003   0.632  0.6276  0.3413  0.3069
  634SOL    HW1 2534   2.758   0.080   0.622 -0.3590  1.5639 -0.1224
  634SOL    HW2 2535   2.683  -0.021   0.543 -0.6228  0.3815  0.5308
  634SOL     MW 2536   2.717   0.005   0.619  0.3324  0.5079  0.2798
  635SOL     OW 2537   2.655   0.070   1.829  0.1840 -0.2122 -0.6798
  635SOL    HW1 2538   2.709   0.013   1.778 -3.8834 -0.1109  0.8520
  635SOL    HW2 2539   2.715   0.117   1.889 -3.1633 -0.2073  0.9983
  635SOL     MW 2540   2.670   0.068   1.830 -0.7943 -0.1982 -0.2563
  636SOL     OW 2541   2.692   1.633   0.746  0.1036 -0.1964 -0.2042
  636SOL    HW1 2542   2.652   1.634   0.660 -0.0173  2.4845 -1.5320
  636SOL    HW2 2543   2.704   1.725   0.759  1.9062 -0.8101  0.2578
  636SOL     MW 2544   2.689   1.645   0.737  0.3255  0.0764 -0.3184
  637SOL     OW 2545   2.949   1.432   0.712  0.3675 -0.0010 -0.1481
  637SOL    HW1 2546   2.990   1.519   0.690  0.4484 -1.8353 -2.4445
  637SOL    HW2 2547   2.859   1.442   0.688  1.4937 -0.0404 -0.4805
  637SOL     MW 2548   2.943   1.445   0.706  0.5267 -0.2482 -0.4950
  638SOL     OW 2549   2.827   0.529   0.558 -0.0913 -0.2656  0.1105
  638SOL    HW1 2550   2.903   0.571   0.522 -2.1864  0.2886 -0.4257
  638SOL    HW2 2551   2.833   0.561   0.650  3.8309  0.8136 -0.7633
  638SOL     MW 2552   2.838   0.539   0.566  0.1498 -0.0501 -0.0755
  639SOL     OW 2553   1.827   3.084   0.517 -0.1389  0.2341 -0.3938
  639SOL    HW1 2554   1.738   3.120   0.520  3.6851 -0.7736 -5.4192
  639SOL    HW2 2555   1.830   2.990   0.498  2.4073  0.2168  1.0673
  639SOL     MW 2556   1.815   3.076   0.515  0.7016  0.0989 -0.8641
  640SOL     OW 2557   0.294   1.445   0.127  0.3868  0.1116 -0.1075
  640SOL    HW1 2558   0.311   1.442   0.030 -1.0368 -3.4465  0.0116
  640SOL    HW2 2559   0.340   1.364   0.151 -2.6012  1.3207 -1.1160
  640SOL     MW 2560   0.302   1.434   0.118 -0.1952 -0.1983 -0.2248
  641SOL     OW 2561   2.332   0.388   0.399  0.3938  0.5991  0.6301
  641SOL    HW1 2562   2.308   0.305   0.357  1.6426  1.9094  0.6658
  641SOL    HW2 2563   2.388   0.356   0.472  4.4582 -0.0168  0.6928
  641SOL     MW 2564   2.337   0.373   0.403  1.0948  0.6907  0.6431
  642SOL     OW 2565   0.121   3.057   0.468 -0.2681 -0.4032 -0.0848
  642SOL    HW1 2566   0.093   3.152   0.467  1.1939 -0.6352 -0.3949
  642SOL    HW2 2567   0.042   3.010   0.490 -0.8281  4.1941  1.0848
  642SOL     MW 2568   0.106   3.063   0.471 -0.1491  0.1728  0.0286
  643SOL     OW 2569   2.132   0.343   1.665  0.2977 -0.3036 -0.7443
  643SOL    HW1 2570   2.060   0.308   1.724  0.6130 -1.2635  1.7133
  643SOL    HW2 2571   2.136   0.277   1.595 -0.1671  0.1167  1.3525
  643SOL     MW 2572   2.123   0.330   1.663  0.2780 -0.3748 -0.1434
  644SOL     OW 2573   2.700   1.903   0.939 -0.4616 -0.1920 -0.1629
  644SOL    HW1 2574   2.668   1.847   1.004  1.9337  0.3611  0.6598
  644SOL    HW2 2575   2.617   1.948   0.923  2.0206  0.0552  0.6278
  644SOL     MW 2576   2.685   1.902   0.945  0.1819 -0.0864  0.0500
  645SOL     OW 2577   2.831   0.989   0.789  0.1693 -0.1111  0.4617
  645SOL    HW1 2578   2.924   0.966   0.780  0.6277 -1.7517 -1.2776
  645SOL    HW2 2579   2.799   0.960   0.876 -2.2745  0.1140 -1.1693
  645SOL     MW 2580   2.839   0.982   0.799 -0.0926 -0.2979  0.0170
  646SOL     OW 2581   0.128   2.272   0.848 -0.0516  0.0702  0.3560
  646SOL    HW1 2582   0.143   2.175   0.828  2.2422 -5.1276 -1.5073
  646SOL    HW2 2583   0.073   2.299   0.772 -1.6306 -0.9129 -1.3966
  646SOL     MW 2584   0.122   2.263   0.835  0.0427 -0.7453 -0.1211
  647SOL     OW 2585   2.800   0.469   3.024  0.0614 -1.0085 -0.2065
  647SOL    HW1 2586   2.709   0.440   3.005  0.9613  0.3406 -2.8557
  647SOL    HW2 2587   2.801   0.544   3.085 -1.1002 -1.4928  0.5119
  647SOL     MW 2588   2.788   0.475   3.030  0.0269 -0.8944 -0.4612
  648SOL     OW 2589   2.113   0.629   1.121 -0.4508  0.2825 -0.1830
  648SOL    HW1 2590   2.183   0.587   1.178  0.3322 -1.0257  0.1526
  648SOL    HW2 2591   2.148   0.709   1.087 -0.3892 -2.8197 -3.5829
  648SOL     MW 2592   2.127   0.634   1.124 -0.3393 -0.2994 -0.5873
  649SOL     OW 2593   2.399   2.673   1.307 -0.1513 -0.9625 -0.3001
  649SOL    HW1 2594   2.485   2.719   1.312 -0.1347 -1.4289 -0.4992
  649SOL    HW2 2595   2.412   2.575   1.291 -2.0512  0.1031 -1.7463
  649SOL     MW 2596   2.412   2.666   1.305 -0.3998 -0.8835 -0.5172
  650SOL     OW 2597   2.743   0.259   0.520  0.7831  0.8391  0.2327
  650SOL    HW1 2598   2.796   0.338   0.546  1.7879 -0.7632  0.7570
  650SOL    HW2 2599   2.739   0.265   0.425  0.7594 -1.0780  0.6658
  650SOL     MW 2600   2.750   0.270   0.511  0.9126  0.3748  0.3590
  651SOL     OW 2601   0.010   0.467   0.993  0.3907 -0.2255 -0.1766
  651SOL    HW1 2602   0.040   0.521   0.917  1.9950 -0.4266 -0.9112
  651SOL    HW2 2603  -0.076   0.511   1.020  0.6359  2.5950  1.3879
  651SOL     MW 2604   0.003   0.480   0.987  0.6347  0.1201 -0.0671
  652SOL     OW 2605   2.328   1.427   2.887  0.1305 -0.1881 -0.1178
  652SOL    HW1 2606   2.389   1.466   2.823  0.9708 -0.0258  2.5408
  652SOL    HW2 2607   2.255   1.489   2.895  1.9237 -0.2661 -2.9762
  652SOL     MW 2608   2.326   1.440   2.879  0.4779 -0.1770 -0.1441
  653SOL     OW 2609   1.844   0.378   0.203 -0.0973  0.2221 -0.5129
  653SOL    HW1 2610   1.824   0.285   0.176 -1.2187  0.8966 -2.0964
  653SOL    HW2 2611   1.887   0.427   0.137  0.6329  0.6568  1.5733
  653SOL     MW 2612   1.847   0.372   0.191 -0.1489  0.3684 -0.4466
  654SOL     OW 2613   2.457   0.994   0.740  0.2222  0.0053  0.1423
  654SOL    HW1 2614   2.393   0.969   0.675 -0.2796 -2.8850 -0.2248
  654SOL    HW2 2615   2.483   0.917   0.803  0.3867  1.7421 -0.1469
  654SOL     MW 2616   2.452   0.980   0.739  0.1777 -0.1469  0.0557
  655SOL     OW 2617   2.944   0.954   0.309  1.2896 -0.2027  0.3924
  655SOL    HW1 2618   2.909   1.011   0.374  2.2153 -0.5852 -0.2533
  655SOL    HW2 2619   2.990   0.892   0.363  0.6938 -0.1149  1.5249
  655SOL     MW 2620   2.945   0.953   0.325  1.3331 -0.2416  0.4566
  656SOL     OW 2621   1.725   2.676   1.441 -0.3234  0.1201  0.1034
  656SOL    HW1 2622   1.805   2.723   1.428  0.6264 -0.5677 -0.9033
  656SOL    HW2 2623   1.749   2.584   1.447 -2.4171 -0.0197 -1.0392
  656SOL     MW 2624   1.738   2.670   1.440 -0.4743  0.0109 -0.1802
  657SOL     OW 2625   0.089   1.775   1.122  0.3259 -0.1230  0.3155
  657SOL    HW1 2626   0.166   1.829   1.128 -0.3186  3.1047 -0.2231
  657SOL    HW2 2627   0.094   1.701   1.180 -1.4157 -0.1459 -0.4494
  657SOL     MW 2628   0.100   1.772   1.130  0.0111  0.2998  0.1435
  658SOL     OW 2629   2.640   1.341   0.212 -0.5798 -0.0605  0.1718
  658SOL    HW1 2630   2.614   1.266   0.269 -1.0767 -1.5906 -0.9792
  658SOL    HW2 2631   2.675   1.410   0.275 -0.2538 -1.3876 -2.4045
  658SOL     MW 2632   2.641   1.340   0.228 -0.6023 -0.4375 -0.3200
  659SOL     OW 2633   2.117   1.411   1.031  0.7282  0.6697 -0.6684
  659SOL    HW1 2634   2.146   1.325   1.041 -2.4531  0.1593  1.2588
  659SOL    HW2 2635   2.144   1.452   1.108  0.0648 -1.1536 -0.6345
  659SOL     MW 2636   2.125   1.405   1.043  0.2209  0.3618 -0.4097
  660SOL     OW 2637   2.075   1.613   1.593 -0.5953 -0.2496 -0.4965
  660SOL    HW1 2638   2.098   1.605   1.685  0.5968  1.0740 -2.3728
  660SOL    HW2 2639   2.003   1.547   1.568  0.5700 -1.2496  0.3021
  660SOL     MW 2640   2.068   1.603   1.602 -0.2843 -0.2069 -0.6387
  661SOL     OW 2641   2.379   0.987   0.285  0.3802 -0.0809  0.3600
  661SOL    HW1 2642   2.468   1.023   0.321  2.2326  0.3178 -0.1365
  661SOL    HW2 2643   2.390   0.886   0.292 -1.5858  0.0976  2.0378
  661SOL     MW 2644   2.393   0.978   0.290  0.3652 -0.0047  0.5159
  662SOL     OW 2645   2.503   2.990   0.785  0.1792 -0.1026 -0.1306
  662SOL    HW1 2646   2.473   3.068   0.832  0.8580  3.1736 -1.8143
  662SOL    HW2 2647   2.590   3.010   0.752  1.8985  1.4812  1.0925
  662SOL     MW 2648   2.510   3.003   0.787  0.4956  0.5386 -0.1914
  663SOL     OW 2649   2.733   1.543   0.401  0.0987  0.2091  0.0822
  663SOL    HW1 2650   2.707   1.623   0.356  1.5370 -2.3879 -0.2632
  663SOL    HW2 2651   2.827   1.562   0.419  4.1409  0.5051  0.0475
  663SOL     MW 2652   2.742   1.556   0.397  0.8218 -0.0945  0.0321
  664SOL     OW 2653   2.533   1.495   1.566 -0.0830  0.4620  0.2447
  664SOL    HW1 2654   2.492   1.579   1.546 -2.6361 -0.5509  0.7798
  664SOL    HW2 2655   2.468   1.432   1.536  1.2780 -2.2677  4.9797
  664SOL     MW 2656   2.519   1.498   1.560 -0.2403 -0.0318  0.9400
  665SOL     OW 2657   2.871   0.766   2.165 -0.5270  0.5219  0.2973
  665SOL    HW1 2658   2.897   0.792   2.077  0.9643  0.0931  0.7163
  665SOL    HW2 2659   2.906   0.678   2.190 -1.3268 -0.5695  2.7395
  665SOL     MW 2660   2.879   0.758   2.157 -0.4358  0.3213  0.6748
  666SOL     OW 2661   2.812   2.961   1.683  0.4294  0.2991 -0.1570
  666SOL    HW1 2662   2.799   2.965   1.587  1.8321 -2.4983  0.9675
  666SOL    HW2 2663   2.753   2.884   1.712  0.7315 -3.1461 -0.4963
  666SOL     MW 2664   2.802   2.952   1.674  0.6543 -0.5246 -0.0534
  667SOL     OW 2665   1.990   2.694   1.736 -0.3359 -0.0397 -0.4269
  667SOL    HW1 2666   2.028   2.680   1.826  0.6049  1.0496  0.6716
  667SOL    HW2 2667   2.069   2.729   1.699 -2.7806 -2.5894  1.6785
  667SOL     MW 2668   2.006   2.697   1.743 -0.5343 -0.2324 -0.0042
  668SOL     OW 2669   2.756   0.621   0.810 -0.5822 -0.0311 -0.3317
  668SOL    HW1 2670   2.785   0.627   0.900 -1.7764  0.0269 -0.1168
  668SOL    HW2 2671   2.684   0.683   0.812 -1.2770 -0.1764  1.7790
  668SOL     MW 2672   2.751   0.630   0.822 -0.8314 -0.0426 -0.0248
  669SOL     OW 2673   0.196   0.992   0.689  0.2006 -0.5038  0.5736
  669SOL    HW1 2674   0.183   0.990   0.789  1.0766 -1.8793  1.2862
  669SOL    HW2 2675   0.289   1.031   0.689 -0.1853 -1.6180  0.6386
  669SOL     MW 2676   0.206   0.997   0.702  0.2652 -0.8323  0.6762
  670SOL     OW 2677   2.913   0.335   0.245  0.2739 -0.1435 -0.3067
  670SOL    HW1 2678   2.929   0.270   0.175  0.1548  1.4073  1.5896
  670SOL    HW2 2679   2.955   0.420   0.213  1.1548  0.5687 -0.0914
  670SOL     MW 2680   2.920   0.338   0.232  0.3744  0.1551 -0.0281
  671SOL     OW 2681   2.067   3.024   1.504  0.1546  0.2234  0.9736
  671SOL    HW1 2682   1.999   3.001   1.440  2.2599 -1.2679  1.3105
  671SOL    HW2 2683   2.020   3.058   1.582 -1.1628  2.0807  1.2076
  671SOL     MW 2684   2.052   3.025   1.506  0.2585  0.2717  1.0489
  672SOL     OW 2685   1.798   1.813   1.297  0.1743  0.6635 -0.2154
  672SOL    HW1 2686   1.808   1.909   1.335 -0.1340  1.4819 -1.7840
  672SOL    HW2 2687   1.818   1.828   1.206  0.2000 -0.9304 -1.0219
  672SOL     MW 2688   1.802   1.827   1.290  0.1370  0.5612 -0.5288
  673SOL     OW 2689   2.829   1.092   0.527  0.2719  0.1998  0.3596
  673SOL    HW1 2690   2.808   1.043   0.603 -2.0573 -1.5293  0.7746
  673SOL    HW2 2691   2.890   1.159   0.561 -0.3782  0.6597 -0.0297
  673SOL     MW 2692   2.835   1.094   0.542 -0.1212  0.0323  0.3630
  674SOL     OW 2693   2.478   3.043   1.185  0.1298  0.0630 -0.4952
  674SOL    HW1 2694   2.439   3.104   1.121  0.7895  0.7207 -1.0402
  674SOL    HW2 2695   2.427   2.966   1.177  2.4798 -1.4719 -1.9777
  674SOL     MW 2696   2.466   3.041   1.176  0.5269 -0.0527 -0.7627
  675SOL     OW 2697   3.009   0.842   1.036  0.3709 -0.1003 -0.4593
  675SOL    HW1 2698   3.059   0.859   1.118 -1.3944  3.0173  1.7611
  675SOL    HW2 2699   3.050   0.910   0.973  2.9080  1.0365 -0.7626
  675SOL     MW 2700   3.021   0.853   1.038  0.4727  0.4611 -0.2064
  676SOL     OW 2701   2.895   1.418   1.737  0.2173 -0.6135  0.4182
  676SOL    HW1 2702   2.876   1.338   1.689 -1.6289 -2.3746 -2.3715
  676SOL    HW2 2703   2.936   1.385   1.815  0.6651  2.4880  1.4867
  676SOL     MW 2704   2.898   1.403   1.741  0.0328 -0.4367  0.1911
  677SOL     OW 2705   2.494   0.722   1.876  0.6646  0.1377  0.2546
  677SOL    HW1 2706   2.467   0.633   1.853 -1.9687  0.6282 -1.6940
  677SOL    HW2 2707   2.404   0.768   1.880 -2.1197 -0.8766  0.3645
  677SOL     MW 2708   2.479   0.716   1.873 -0.0502  0.0686  0.0120
  678SOL     OW 2709   2.388   1.567   0.322  0.2912 -0.1651  0.0334
  678SOL    HW1 2710   2.300   1.573   0.361  0.9133  0.9841 -1.0690
  678SOL    HW2 2711   2.374   1.517   0.238 -0.3857 -0.3747 -0.6206
  678SOL     MW 2712   2.374   1.561   0.316  0.2840 -0.0411 -0.1984
  679SOL     OW 2713   2.272   0.470   1.249  0.0778  0.4484 -0.2720
  679SOL    HW1 2714   2.260   0.385   1.203  0.2610 -1.0699  0.9775
  679SOL    HW2 2715   2.199   0.475   1.309  1.1114 -2.5400  0.5287
  679SOL     MW 2716   2.261   0.460   1.251  0.2384 -0.1462 -0.0015
  680SOL     OW 2717   2.425   0.170   1.489 -0.7839  0.1549 -0.0438
  680SOL    HW1 2718   2.336   0.185   1.471  0.2674 -0.5021 -0.9252
  680SOL    HW2 2719   2.468   0.158   1.410 -2.6471  1.1524  3.6566
  680SOL     MW 2720   2.419   0.171   1.476 -0.8910  0.1998  0.3281
  681SOL     OW 2721   0.246   0.586   1.459  0.3455  0.0958  0.2942
  681SOL    HW1 2722   0.198   0.509   1.475 -1.3916  0.2178 -0.7934
  681SOL    HW2 2723   0.272   0.584   1.363  2.2619  1.1723 -1.3584
  681SOL     MW 2724   0.243   0.575   1.448  0.3692  0.2540 -0.0674
  682SOL     OW 2725   3.038   2.848   1.536  0.0500  0.1457  0.5515
  682SOL    HW1 2726   3.113   2.905   1.525 -2.3889 -1.9496 -2.2552
  682SOL    HW2 2727   2.981   2.883   1.600 -0.2066 -2.9706 -2.2560
  682SOL     MW 2728   3.040   2.860   1.543 -0.3056 -0.5419 -0.1893
  683SOL     OW 2729   2.117   0.802   3.026 -0.1572 -0.2223  0.2165
  683SOL    HW1 2730   2.046   0.736   3.024  0.2866  1.4065  0.1488
  683SOL    HW2 2731   2.086   0.895   3.056  3.9266  2.2388  1.8934
  683SOL     MW 2732   2.103   0.805   3.030  0.4402  0.3174  0.4288
  684SOL     OW 2733   2.058   1.770   0.691  0.0908  0.5827 -0.1839
  684SOL    HW1 2734   2.096   1.705   0.625 -2.2445 -1.6399  0.8329
  684SOL    HW2 2735   1.984   1.723   0.733 -0.2591 -0.9059  0.5626
  684SOL     MW 2736   2.054   1.755   0.688 -0.2635  0.0931  0.0487
  685SOL     OW 2737   2.621   1.748   1.169 -0.2016 -0.1964 -0.0478
  685SOL    HW1 2738   2.690   1.724   1.231  1.6997  2.2777 -1.8292
  685SOL    HW2 2739   2.604   1.666   1.124 -1.6111 -1.0272 -4.1805
  685SOL     MW 2740   2.628   1.734   1.171 -0.1367  0.0205 -0.8281
  686SOL     OW 2741   2.835   0.655   1.531  0.7459  0.0674 -0.1438
  686SOL    HW1 2742   2.822   0.622   1.622 -0.2400 -1.1793  2.0592
  686SOL    HW2 2743   2.933   0.655   1.518  0.6945  0.3167  0.0729
  686SOL     MW 2744   2.846   0.650   1.541  0.6091 -0.0642  0.1755
  687SOL     OW 2745   2.173   0.220   1.107  0.4794  0.5519  0.8886
  687SOL    HW1 2746   2.223   0.154   1.065  1.8055 -0.4176 -0.5068
  687SOL    HW2 2747   2.113   0.270   1.052 -0.2433 -1.7614  1.0069
  687SOL     MW 2748   2.171   0.218   1.094  0.5590  0.1188  0.7201
  688SOL     OW 2749   2.474   0.585   1.500 -0.3026 -0.4643  0.2178
  688SOL    HW1 2750   2.429   0.542   1.429 -0.3133  0.7173  1.2326
  688SOL    HW2 2751   2.402   0.620   1.554 -0.8550  0.8849  1.4669
  688SOL     MW 2752   2.459   0.584   1.497 -0.3769 -0.1304  0.5165
  689SOL     OW 2753   2.497   0.756   3.017 -0.2906  0.3163  0.0860
  689SOL    HW1 2754   2.441   0.810   3.071 -2.3243 -1.5280 -1.0151
  689SOL    HW2 2755   2.575   0.748   3.070  1.7238  1.1763 -1.2609
  689SOL     MW 2756   2.500   0.762   3.031 -0.2932  0.1864 -0.2370
  690SOL     OW 2757   2.033   0.968   1.836  0.4887  0.0813  0.1761
  690SOL    HW1 2758   2.020   0.873   1.841  0.4882 -0.3134  0.1271
  690SOL    HW2 2759   2.084   0.986   1.750  0.5629 -2.4165 -0.8886
  690SOL     MW 2760   2.038   0.958   1.825  0.4984 -0.3004  0.0292
  691SOL     OW 2761   2.432   0.293   0.891  0.4155 -0.1740  0.0233
  691SOL    HW1 2762   2.529   0.295   0.886  0.0509  0.8548 -0.3939
  691SOL    HW2 2763   2.397   0.376   0.876 -2.1055 -4.0677  1.5319
  691SOL     MW 2764   2.440   0.304   0.888  0.0348 -0.5520  0.1673
  692SOL     OW 2765   2.760   1.641   1.382  0.1216  0.1980 -0.4093
  692SOL    HW1 2766   2.702   1.641   1.461  2.1291  1.7335  3.1633
  692SOL    HW2 2767   2.840   1.685   1.404  0.6546 -1.3648  2.7895
  692SOL     MW 2768   2.763   1.647   1.395  0.4568  0.1944  0.4842
  693SOL     OW 2769   2.214   0.421   3.082 -0.6824 -0.3466 -0.3121
  693SOL    HW1 2770   2.201   0.334   3.118 -0.5924 -4.1518 -0.2359
  693SOL    HW2 2771   2.177   0.482   3.143  0.9518  0.2491  1.7920
  693SOL     MW 2772   2.207   0.418   3.095 -0.4549 -0.7701 -0.0245
  694SOL     OW 2773   1.971   1.185   1.186 -0.0383 -0.2077 -0.0755
  694SOL    HW1 2774   2.067   1.160   1.172  0.4490  0.3962 -1.6912
  694SOL    HW2 2775   1.927   1.099   1.209  0.8476 -2.0535  1.7914
  694SOL     MW 2776   1.978   1.170   1.187  0.1429 -0.3715 -0.0424
  695SOL     OW 2777   2.921   1.442   1.311 -0.3275  0.1532  0.3058
  695SOL    HW1 2778   2.897   1.407   1.222  0.7912 -0.8361 -1.4736
  695SOL    HW2 2779   2.856   1.506   1.343  2.6751 -1.3152  1.5064
  695SOL     MW 2780   2.910   1.446   1.304  0.2163 -0.1711  0.2294
  696SOL     OW 2781   2.045   1.332   0.751  0.2145 -0.6563 -0.1779
  696SOL    HW1 2782   2.072   1.391   0.823  2.0999  1.7691 -0.2451
  696SOL    HW2 2783   1.975   1.286   0.801 -1.4278  1.0002 -0.1931
  696SOL     MW 2784   2.039   1.333   0.767  0.2466 -0.1178 -0.1887
  697SOL     OW 2785   2.932   1.044   2.250  0.2109 -0.1926  0.5619
  697SOL    HW1 2786   2.853   1.095   2.224 -2.9758 -0.8444 -0.3624
  697SOL    HW2 2787   2.894   0.953   2.254  1.4831  0.8289  0.1048
  697SOL     MW 2788   2.916   1.038   2.247 -0.0417 -0.1438  0.3796
  698SOL     OW 2789   2.496   0.362   3.061 -0.3116 -0.3487  0.0323
  698SOL    HW1 2790   2.415   0.415   3.078  0.5911 -5.1928 -1.1854
  698SOL    HW2 2791   2.538   0.338   3.143  1.7238 -0.8702 -0.4106
  698SOL     MW 2792   2.491   0.366   3.074  0.0761 -1.0567 -0.1868
  699SOL     OW 2793   1.849   1.572   1.988 -0.4468  0.0737 -0.0828
  699SOL    HW1 2794   1.817   1.484   2.021 -0.2188 -0.0696  0.0323
  699SOL    HW2 2795   1.940   1.562   1.963  0.7723  1.5619 -0.4975
  699SOL     MW 2796   1.857   1.559   1.989 -0.2559  0.2511 -0.1223
  700SOL     OW 2797   2.721   0.889   1.570  0.3937 -0.1659  0.0839
  700SOL    HW1 2798   2.790   0.952   1.601  0.2898  2.5417 -0.8860
  700SOL    HW2 2799   2.762   0.803   1.567  1.7174 -0.2508 -1.4190
  700SOL     MW 2800   2.735   0.886   1.574  0.5546  0.1801 -0.2423
  701SOL     OW 2801   1.628   1.058   2.570  0.1252  0.0067 -0.6105
  701SOL    HW1 2802   1.716   1.041   2.615  0.2221 -0.8039  0.9170
  701SOL    HW2 2803   1.604   1.138   2.624  0.6718 -2.7741 -1.3702
  701SOL     MW 2804   1.637   1.066   2.583  0.2101 -0.4672 -0.5092
  702SOL     OW 2805   2.077   0.495   0.700  0.3017  0.0503  0.1889
  702SOL    HW1 2806   2.091   0.410   0.648 -0.8557  0.5303  2.2234
  702SOL    HW2 2807   2.144   0.551   0.654 -0.4499  1.0684  1.1715
  702SOL     MW 2808   2.088   0.491   0.687  0.0498  0.2480  0.5870
  703SOL     OW 2809   2.661   1.255   0.999 -0.5827 -0.2105  0.3617
  703SOL    HW1 2810   2.656   1.245   0.903  0.4519 -0.5794  0.5068
  703SOL    HW2 2811   2.673   1.167   1.042 -0.2052  0.2095  0.5877
  703SOL     MW 2812   2.662   1.242   0.992 -0.3964 -0.2038  0.4106
  704SOL     OW 2813   3.074   1.272   0.193  0.4485 -0.2939  0.7287
  704SOL    HW1 2814   2.982   1.248   0.164  0.3968 -4.3089  0.6960
  704SOL    HW2 2815   3.109   1.227   0.270  1.0242  2.3999  1.2441
  704SOL     MW 2816   3.066   1.263   0.199  0.5176 -0.4682  0.7924
  705SOL     OW 2817   2.052   1.617   1.304 -0.0036  0.2474  0.2210
  705SOL    HW1 2818   1.974   1.678   1.301 -2.5421  3.0878 -1.8492
  705SOL    HW2 2819   2.079   1.614   1.397  2.1002 -1.8323  0.3978
  705SOL     MW 2820   2.045   1.625   1.316 -0.0610  0.3478 -0.0288
  706SOL     OW 2821   3.059   1.188   0.641 -0.4194  0.3936 -0.3518
  706SOL    HW1 2822   3.126   1.187   0.573  3.4537  0.2792  0.8528
  706SOL    HW2 2823   3.042   1.278   0.672 -0.9029  1.6218 -0.6976
  706SOL     MW 2824   3.066   1.200   0.636  0.0279  0.5406 -0.2385
  707SOL     OW 2825   2.333   0.042   0.937 -0.0559 -0.1345 -0.0717
  707SOL    HW1 2826   2.353   0.138   0.920 -1.5448  1.1976 -1.2692
  707SOL    HW2 2827   2.272   0.018   0.872  3.3789 -1.0305  1.9855
  707SOL     MW 2828   2.327   0.052   0.926  0.2008 -0.0770  0.0417
  708SOL     OW 2829   2.384   1.423   0.076 -0.1394 -0.0258 -0.3250
  708SOL    HW1 2830   2.467   1.393   0.114 -0.9747  0.6608 -0.2102
  708SOL    HW2 2831   2.392   1.422  -0.017  2.1611 -0.2802  0.1109
  708SOL     MW 2832   2.396   1.419   0.069  0.0539  0.0312 -0.2524
  709SOL     OW 2833   1.698   1.578   0.229 -0.2748  0.3368  0.1218
  709SOL    HW1 2834   1.682   1.589   0.134 -1.6835  0.3049 -0.0999
  709SOL    HW2 2835   1.612   1.582   0.277  0.2574 -2.2944  0.5059
  709SOL     MW 2836   1.685   1.580   0.222 -0.3905 -0.0146  0.1432
  710SOL     OW 2837   2.250   1.156   1.116 -0.1718 -0.2721 -0.0064
  710SOL    HW1 2838   2.240   1.097   1.039  1.2390 -2.0867  0.9273
  710SOL    HW2 2839   2.297   1.105   1.183  1.1522 -2.1909  0.0664
  710SOL     MW 2840   2.255   1.142   1.115  0.1890 -0.7647  0.1264
  711SOL     OW 2841   2.399   0.090   1.762 -0.0119  0.0884 -0.3986
  711SOL    HW1 2842   2.492   0.100   1.791 -0.5011  2.8918 -0.9896
  711SOL    HW2 2843   2.398   0.119   1.671  1.7836  3.4197  2.0790
  711SOL     MW 2844   2.411   0.095   1.754  0.1604  0.8978 -0.1497
  712SOL     OW 2845   1.885   0.624   3.081 -0.1306  0.1622 -0.3334
  712SOL    HW1 2846   1.830   0.658   3.014  1.1106 -0.3688  0.4446
  712SOL    HW2 2847   1.852   0.659   3.171 -0.2198  0.3464 -0.6091
  712SOL     MW 2848   1.873   0.633   3.084  0.0214  0.1164 -0.2672
  713SOL     OW 2849   2.597   0.690   1.108  0.2172  0.2199  0.0043
  713SOL    HW1 2850   2.607   0.595   1.123 -0.6277  1.3203 -1.7673
  713SOL    HW2 2851   2.571   0.716   1.197 -3.1282  0.2694 -0.4178
  713SOL     MW 2852   2.595   0.681   1.122 -0.3357  0.3716 -0.2851
  714SOL     OW 2853   2.235   0.201   1.983  0.9624  0.0556 -0.0447
  714SOL    HW1 2854   2.277   0.165   2.060  0.2757 -0.7546  0.1860
  714SOL    HW2 2855   2.279   0.169   1.904 -0.7381  0.3128 -0.8623
  714SOL     MW 2856   2.247   0.192   1.982  0.6474 -0.0173 -0.1222
  715SOL     OW 2857   1.827   1.977   1.705  0.0401 -0.0445  0.0528
  715SOL    HW1 2858   1.921   1.999   1.735  0.0157 -0.1005  0.7303
  715SOL    HW2 2859   1.814   1.891   1.751 -2.3288 -0.9819  2.0997
  715SOL     MW 2860   1.838   1.968   1.715 -0.2756 -0.1755  0.4123
  716SOL     OW 2861   2.440   0.553   0.734 -0.1586  0.1680  0.0484
  716SOL    HW1 2862   2.522   0.524   0.686  2.1381 -1.0754 -0.5903
  716SOL    HW2 2863   2.392   0.586   0.661  0.2213 -0.6990 -0.2460
  716SOL     MW 2864   2.444   0.553   0.718  0.1945 -0.1104 -0.0747
  717SOL     OW 2865   2.783   1.680   2.832 -0.4542 -0.0794 -0.1153
  717SOL    HW1 2866   2.850   1.622   2.869  1.2133 -1.2178  0.9003
  717SOL    HW2 2867   2.736   1.714   2.905  0.8612  0.5914 -3.3134
  717SOL     MW 2868   2.786   1.677   2.847 -0.0606 -0.1411 -0.4033
  718SOL     OW 2869   2.634   1.302   1.325 -0.1125  0.0615  0.6930
  718SOL    HW1 2870   2.605   1.346   1.399 -0.8124 -1.4402  0.3315
  718SOL    HW2 2871   2.716   1.349   1.303  0.0921 -0.0772  1.0273
  718SOL     MW 2872   2.641   1.314   1.332 -0.1779 -0.1549  0.6894
  719SOL     OW 2873   2.177   1.227   0.521 -0.0708 -0.2349  0.0876
  719SOL    HW1 2874   2.273   1.236   0.523 -2.3388  1.1646  0.9577
  719SOL    HW2 2875   2.152   1.266   0.611 -0.5570  0.0266 -0.5768
  719SOL     MW 2876   2.186   1.234   0.533 -0.4342 -0.0158  0.1148
  720SOL     OW 2877   2.836   1.262   0.032 -0.2249  0.0495 -0.1605
  720SOL    HW1 2878   2.823   1.165   0.029 -1.9885 -1.7784 -0.9427
  720SOL    HW2 2879   2.775   1.288   0.099  0.4334 -0.9185 -0.0636
  720SOL     MW 2880   2.826   1.252   0.040 -0.3707 -0.3194 -0.2509
  721SOL     OW 2881   2.562   0.814   1.368 -0.5304  0.2669 -0.6086
  721SOL    HW1 2882   2.541   0.734   1.419 -0.4575 -1.9489 -0.5991
  721SOL    HW2 2883   2.604   0.861   1.438 -1.4381  0.0905  3.4965
  721SOL     MW 2884   2.564   0.810   1.384 -0.6405 -0.0487 -0.0657
  722SOL     OW 2885   2.591   1.135   0.388  0.0661  0.3114 -0.4069
  722SOL    HW1 2886   2.545   1.186   0.458 -0.1647 -2.3112 -0.6818
  722SOL    HW2 2887   2.672   1.097   0.427 -0.3222 -2.1165 -2.1835
  722SOL     MW 2888   2.596   1.137   0.402 -0.0156 -0.3550 -0.6776
  723SOL     OW 2889   2.277   1.350   1.549 -0.2653  0.0706  0.1662
  723SOL    HW1 2890   2.271   1.351   1.455 -0.8788  0.3644  0.5672
  723SOL    HW2 2891   2.186   1.381   1.572 -0.8312  2.8744  0.1826
  723SOL     MW 2892   2.264   1.354   1.540 -0.4209  0.4793  0.2213
  724SOL     OW 2893   2.461   0.240   0.604 -0.9464 -0.0241 -0.3616
  724SOL    HW1 2894   2.443   0.241   0.696  0.4932 -0.5591 -0.5814
  724SOL    HW2 2895   2.553   0.215   0.595 -0.4435 -3.8031 -0.6332
  724SOL     MW 2896   2.471   0.237   0.615 -0.6901 -0.5933 -0.4264
  725SOL     OW 2897   2.641   0.399   1.158 -0.1757 -0.4595 -0.2734
  725SOL    HW1 2898   2.713   0.424   1.211 -3.2316  0.1701 -0.8375
  725SOL    HW2 2899   2.603   0.326   1.206  0.9335  0.8193 -1.1174
  725SOL     MW 2900   2.646   0.393   1.171 -0.4326 -0.2077 -0.4592
  726SOL     OW 2901   2.475   2.481   0.434 -0.2999 -0.1936 -0.1159
  726SOL    HW1 2902   2.482   2.572   0.399 -1.7864  1.5882  2.0116
  726SOL    HW2 2903   2.414   2.486   0.512 -0.5537 -3.9925 -1.8557
  726SOL     MW 2904   2.468   2.494   0.440 -0.5295 -0.4597 -0.0648
  727SOL     OW 2905   2.867   0.324   1.732 -0.2643  0.3345 -0.0426
  727SOL    HW1 2906   2.783   0.328   1.685 -0.7433  0.9331  0.7761
  727SOL    HW2 2907   2.850   0.279   1.815 -1.1910  0.6855  3.9357
  727SOL     MW 2908   2.854   0.319   1.737 -0.4498  0.4598  0.5903
  728SOL     OW 2909   2.798   1.203   2.864  0.1479  0.5518  0.6178
  728SOL    HW1 2910   2.821   1.267   2.797 -0.7771  1.1492 -2.4743
  728SOL    HW2 2911   2.800   1.248   2.947  1.0628 -0.2964 -1.5288
  728SOL     MW 2912   2.801   1.217   2.866  0.1466  0.5187 -0.0734
  729SOL     OW 2913   2.552   1.494   1.062 -0.2184 -0.0174 -0.1690
  729SOL    HW1 2914   2.607   1.415   1.067 -1.4958 -2.2510  1.5590
  729SOL    HW2 2915   2.508   1.477   0.977  0.2024  0.8116 -2.0193
  729SOL     MW 2916   2.554   1.481   1.052 -0.3314 -0.2027 -0.1852
  730SOL     OW 2917   2.176   1.152   0.201 -0.5425  0.5323  0.0095
  730SOL    HW1 2918   2.252   1.089   0.218  1.8140 -0.9665  0.1172
  730SOL    HW2 2919   2.221   1.236   0.197 -0.1115 -0.3915 -1.8254
  730SOL     MW 2920   2.192   1.155   0.203 -0.1747  0.2127 -0.2184
  731SOL     OW 2921   2.783   1.974   2.930 -0.1396 -0.4335  0.4300
  731SOL    HW1 2922   2.728   1.998   2.854 -1.3549  2.9565 -1.9708
  731SOL    HW2 2923   2.863   1.940   2.894  0.5729  3.7293 -1.4728
  731SOL     MW 2924   2.786   1.973   2.915 -0.2059  0.5630 -0.1378
  732SOL     OW 2925   2.338   0.979   1.349  0.3106 -0.1494 -0.1285
  732SOL    HW1 2926   2.282   0.942   1.425  0.4691  2.4478  1.5446
  732SOL    HW2 2927   2.417   0.925   1.337  0.1170 -0.1559 -0.0924
  732SOL     MW 2928   2.341   0.967   1.357  0.3060  0.1924  0.0970
  733SOL     OW 2929   2.395   2.684   2.983  0.4770 -0.3052 -0.3137
  733SOL    HW1 2930   2.320   2.738   3.006 -2.0774  0.8587 -1.4586
  733SOL    HW2 2931   2.352   2.599   2.973 -1.2514  3.4681  0.2970
  733SOL     MW 2932   2.380   2.680   2.985 -0.0881  0.3462 -0.3842
  734SOL     OW 2933   1.515   0.277   2.517 -0.0563 -0.3240  0.5804
  734SOL    HW1 2934   1.499   0.230   2.598  0.0051 -0.0529 -0.2313
  734SOL    HW2 2935   1.521   0.209   2.450  0.9648  0.3316 -2.1077
  734SOL     MW 2936   1.514   0.262   2.519  0.0865 -0.2017  0.1187
  735SOL     OW 2937   3.023   0.863   2.685  0.2488 -0.0870 -0.3634
  735SOL    HW1 2938   3.040   0.772   2.698 -0.8223  0.7330 -1.4805
  735SOL    HW2 2939   3.014   0.900   2.773  0.3732 -0.4946 -1.0059
  735SOL     MW 2940   3.024   0.856   2.698  0.1239 -0.0326 -0.5956
  736SOL     OW 2941   0.140   0.552   2.532 -0.1922  0.4469  0.5873
  736SOL    HW1 2942   0.129   0.643   2.486 -0.4396  2.5616 -0.2749
  736SOL    HW2 2943   0.197   0.493   2.475  0.0899  0.8252 -0.1439
  736SOL     MW 2944   0.146   0.556   2.518 -0.1876  0.7758  0.3771
  737SOL     OW 2945   3.004   0.562   2.651  0.2290  0.0873 -0.3803
  737SOL    HW1 2946   2.938   0.581   2.580  1.0008  0.5488 -1.5460
  737SOL    HW2 2947   3.089   0.535   2.615 -2.7848 -1.1520  0.0741
  737SOL     MW 2948   3.007   0.561   2.637 -0.0668 -0.0153 -0.4741
  738SOL     OW 2949   0.114   0.409   1.859  0.3391 -0.4248  0.3818
  738SOL    HW1 2950   0.201   0.378   1.889  1.3781  2.4312  0.2506
  738SOL    HW2 2951   0.115   0.419   1.761 -0.0562 -1.1200 -0.1050
  738SOL     MW 2952   0.125   0.406   1.850  0.4240 -0.1397  0.3002
  739SOL     OW 2953   2.518   0.978   2.115 -0.1398 -0.3875  0.1865
  739SOL    HW1 2954   2.461   0.928   2.055 -2.0273 -2.5535 -4.3047
  739SOL    HW2 2955   2.608   0.975   2.082 -0.1272  2.2399 -2.1274
  739SOL     MW 2956   2.522   0.971   2.103 -0.3872 -0.3266 -0.7113
  740SOL     OW 2957   0.165   1.796   2.933  0.4546  0.5141 -0.1674
  740SOL    HW1 2958   0.128   1.708   2.968  0.3040 -0.4877 -0.2437
  740SOL    HW2 2959   0.249   1.817   2.982  1.6007 -0.3027 -1.1052
  740SOL     MW 2960   0.171   1.787   2.944  0.5860  0.2742 -0.3012
  741SOL     OW 2961   2.274   1.167   2.710  0.7653  0.3313 -0.2088
  741SOL    HW1 2962   2.208   1.221   2.669 -0.2777  0.3405 -0.0496
  741SOL    HW2 2963   2.239   1.132   2.797  0.5908  0.0863 -0.9955
  741SOL     MW 2964   2.261   1.169   2.716  0.6047  0.3002 -0.2916
  742SOL     OW 2965   1.531   1.233   2.359 -0.1135  0.0259  0.7233
  742SOL    HW1 2966   1.457   1.226   2.305  1.4230  3.6871  2.0513
  742SOL    HW2 2967   1.521   1.167   2.426 -2.4035  0.1493  0.5879
  742SOL     MW 2968   1.520   1.224   2.361 -0.2129  0.5253  0.8807
  743SOL     OW 2969   2.562   1.230   2.681  0.1248 -0.0872  0.1701
  743SOL    HW1 2970   2.467   1.190   2.690 -1.1749 -2.2486  2.4915
  743SOL    HW2 2971   2.620   1.160   2.714  1.3865 -0.0834  1.9328
  743SOL     MW 2972   2.558   1.215   2.687  0.1198 -0.3719  0.7089
  744SOL     OW 2973   2.713   0.884   1.931 -0.9415  0.5033  0.4946
  744SOL    HW1 2974   2.685   0.962   1.876 -1.5915  0.5653 -1.2152
  744SOL    HW2 2975   2.661   0.815   1.892 -0.1119  0.2409  2.1402
  744SOL     MW 2976   2.702   0.885   1.919 -0.9178  0.4768  0.4861
  745SOL     OW 2977   1.721   0.467   2.488  0.5711  0.1256 -0.0080
  745SOL    HW1 2978   1.722   0.490   2.395 -1.1906 -0.5065  0.3647
  745SOL    HW2 2979   1.651   0.400   2.492 -0.5071 -1.3084 -2.1726
  745SOL     MW 2980   1.712   0.461   2.476  0.1964 -0.1470 -0.2444
  746SOL     OW 2981   1.598   1.517   1.661  0.3589  0.6592  0.1739
  746SOL    HW1 2982   1.658   1.595   1.681  0.3271  2.0169  3.3562
  746SOL    HW2 2983   1.585   1.479   1.747 -0.4899 -2.3021 -1.1765
  746SOL     MW 2984   1.605   1.522   1.675  0.2427  0.4476  0.4156
  747SOL     OW 2985   2.601   1.126   1.817 -0.3744 -0.2941 -0.0705
  747SOL    HW1 2986   2.515   1.123   1.782  0.1832  1.2833  0.8189
  747SOL    HW2 2987   2.598   1.192   1.886  1.7997 -3.8882 -0.5822
  747SOL     MW 2988   2.589   1.134   1.821 -0.0140 -0.5602 -0.0206
  748SOL     OW 2989   0.075   0.136   1.858 -0.1426  0.5990 -0.4470
  748SOL    HW1 2990   0.163   0.114   1.854 -2.8813  1.5303 -0.1970
  748SOL    HW2 2991   0.073   0.213   1.912  0.4734 -1.5288  0.8569
  748SOL     MW 2992   0.086   0.143   1.864 -0.4226  0.4412 -0.2420
  749SOL     OW 2993   2.578   0.588   2.799 -0.1261 -0.0602  0.1430
  749SOL    HW1 2994   2.605   0.665   2.748  0.4047  0.0505 -1.5935
  749SOL    HW2 2995   2.558   0.633   2.884 -0.7181 -0.4468 -0.6313
  749SOL     MW 2996   2.579   0.604   2.803 -0.1341 -0.0966 -0.1883
  750SOL     OW 2997   2.056   0.005   1.949 -0.2964 -0.0476 -0.2970
  750SOL    HW1 2998   2.110   0.085   1.963 -0.4597  1.1067 -1.4404
  750SOL    HW2 2999   2.123  -0.067   1.956  2.0161 -1.6081  0.0622
  750SOL     MW 3000   2.072   0.006   1.952 -0.0128 -0.1012 -0.4005
  751SOL     OW 3001   0.278   0.367   2.401  0.2128  0.1726 -0.5388
  751SOL    HW1 3002   0.240   0.294   2.450  0.6103 -3.7979 -0.7402
  751SOL    HW2 3003   0.293   0.331   2.313  1.0243 -3.3832 -0.7774
  751SOL     MW 3004   0.275   0.352   2.396  0.3723 -0.8204 -0.5969
  752SOL     OW 3005   2.136   0.829   2.762 -0.2984 -0.0083 -0.4140
  752SOL    HW1 3006   2.215   0.864   2.723  2.1075 -0.5904  0.9699
  752SOL    HW2 3007   2.148   0.828   2.859  2.6023 -1.5497 -0.4998
  752SOL     MW 3008   2.148   0.834   2.770  0.4017 -0.2885 -0.2427
  753SOL     OW 3009   2.792   0.124   2.420  0.0264 -0.7275  0.6440
  753SOL    HW1 3010   2.769   0.031   2.414 -1.4731 -0.5021 -0.3019
  753SOL    HW2 3011   2.777   0.159   2.332 -1.6846  0.8618  0.5223
  753SOL     MW 3012   2.787   0.116   2.408 -0.3972 -0.4881  0.5032
  754SOL     OW 3013   2.297   2.945   2.645  0.6193 -0.6745 -0.1889
  754SOL    HW1 3014   2.300   2.931   2.548 -0.1422  3.3332 -1.7657
  754SOL    HW2 3015   2.368   2.895   2.684  2.2326 -0.5889 -1.2199
  754SOL     MW 3016   2.307   2.937   2.638  0.7317 -0.1344 -0.5329
  755SOL     OW 3017   2.749   1.529   2.405 -0.3263  0.2382  0.7550
  755SOL    HW1 3018   2.759   1.473   2.481  0.4728  0.1758  2.0964
  755SOL    HW2 3019   2.797   1.607   2.437  0.2782  1.0072 -3.1800
  755SOL     MW 3020   2.757   1.532   2.419 -0.1411  0.3314  0.4128
  756SOL     OW 3021   2.202   1.194   2.988 -0.1766 -0.5736 -0.1301
  756SOL    HW1 3022   2.273   1.251   2.957 -0.3724  1.0003 -1.0630
  756SOL    HW2 3023   2.243   1.119   3.035  0.4892  2.4195  2.1744
  756SOL     MW 3024   2.217   1.192   2.990 -0.1146  0.0290  0.0508
  757SOL     OW 3025   2.188   0.935   1.588 -0.4696  0.2459 -0.6533
  757SOL    HW1 3026   2.216   0.843   1.604  1.6199  2.4076 -0.0670
  757SOL    HW2 3027   2.099   0.933   1.542 -0.8201 -1.3352 -1.6829
  757SOL     MW 3028   2.180   0.923   1.584 -0.2402  0.3225 -0.7118
  758SOL     OW 3029   2.218   1.824   2.626 -0.0987 -0.6075 -0.3988
  758SOL    HW1 3030   2.222   1.875   2.544 -0.7390  4.0516 -0.5107
  758SOL    HW2 3031   2.305   1.793   2.634  0.4392 -0.2648  0.0510
  758SOL     MW 3032   2.230   1.826   2.616 -0.1122  0.0524 -0.3542
  759SOL     OW 3033   1.556   1.312   2.708  0.3306  0.2225  0.0190
  759SOL    HW1 3034   1.549   1.386   2.645 -3.7673  2.5093  1.4608
  759SOL    HW2 3035   1.618   1.346   2.780 -0.1836 -0.3758  0.1239
  759SOL     MW 3036   1.564   1.326   2.709 -0.2779  0.4453  0.2231
  760SOL     OW 3037   2.620   1.962   2.692  1.5285 -0.3981  0.0891
  760SOL    HW1 3038   2.574   1.873   2.664  0.3026  0.4816  0.3553
  760SOL    HW2 3039   2.639   2.005   2.610  0.6341 -2.3946  0.4640
  760SOL     MW 3040   2.616   1.956   2.677  1.2488 -0.5455  0.1737
  761SOL     OW 3041   2.232   0.391   2.530 -0.2279 -0.2951  0.0093
  761SOL    HW1 3042   2.187   0.320   2.575  2.9049  1.0699 -0.9948
  761SOL    HW2 3043   2.244   0.467   2.590 -0.0469 -2.7664  2.5359
  761SOL     MW 3044   2.228   0.392   2.544  0.2093 -0.4410  0.2102
  762SOL     OW 3045   3.081   0.252   2.162  0.2239  0.4138 -0.4057
  762SOL    HW1 3046   3.087   0.178   2.227 -2.2609 -1.3663  0.5167
  762SOL    HW2 3047   3.043   0.330   2.200  3.5874  0.8845  0.2227
  762SOL     MW 3048   3.077   0.252   2.175  0.3398  0.2410 -0.2011
  763SOL     OW 3049   2.373   1.038   2.322  0.3707 -0.0106 -0.0029
  763SOL    HW1 3050   2.416   1.001   2.242  2.3038  1.5374 -0.6837
  763SOL    HW2 3051   2.433   1.107   2.355  2.1257 -1.5232  0.8103
  763SOL     MW 3052   2.387   1.042   2.316  0.8573 -0.0059  0.0146
  764SOL     OW 3053   0.426   0.285   2.859  0.7217 -0.3368  0.3387
  764SOL    HW1 3054   0.335   0.249   2.844 -0.9610  1.1462 -1.0173
  764SOL    HW2 3055   0.427   0.360   2.922  0.2671  0.9312 -2.2398
  764SOL     MW 3056   0.414   0.291   2.865  0.4397  0.0262 -0.1804
  765SOL     OW 3057   2.717   2.957   2.397  0.2271  0.0670  0.0640
  765SOL    HW1 3058   2.679   2.971   2.310 -0.7476  1.4251 -1.3461
  765SOL    HW2 3059   2.807   2.933   2.375  0.6067 -0.3093 -0.1350
  765SOL     MW 3060   2.724   2.955   2.383  0.1486  0.1965 -0.1483
  766SOL     OW 3061   1.923   2.979   2.158  0.1781  0.4911 -0.0521
  766SOL    HW1 3062   1.946   3.039   2.084  0.5274  1.9423 -1.8334
  766SOL    HW2 3063   1.854   2.921   2.120 -1.3409 -2.0248 -0.3061
  766SOL     MW 3064   1.917   2.979   2.143  0.0238  0.3507 -0.3206
  767SOL     OW 3065   2.644   0.606   2.087  0.0926  0.0848 -0.5168
  767SOL    HW1 3066   2.705   0.677   2.107 -1.4927 -0.1877 -0.7704
  767SOL    HW2 3067   2.570   0.659   2.056  1.9679  2.1277  0.4539
  767SOL     MW 3068   2.642   0.622   2.086  0.1309  0.3184 -0.4222
  768SOL     OW 3069   2.991   1.549   2.949 -0.1156 -0.1554 -0.0512
  768SOL    HW1 3070   2.995   1.529   3.042 -0.2684  0.8166  3.2738
  768SOL    HW2 3071   3.051   1.489   2.913 -1.2593  0.9366 -0.4817
  768SOL     MW 3072   2.999   1.538   2.956 -0.2866  0.1169  0.3307
  769SOL     OW 3073   2.507   0.648   2.395  0.3118 -0.0313  1.0459
  769SOL    HW1 3074   2.453   0.568   2.413 -1.4925 -2.9253 -2.8050
  769SOL    HW2 3075   2.588   0.622   2.345  1.4898 -1.1475 -0.1084
  769SOL     MW 3076   2.510   0.634   2.391  0.2291 -0.5604  0.3855
  770SOL     OW 3077   3.072   1.622   2.522 -0.4641 -0.4818 -0.0341
  770SOL    HW1 3078   2.992   1.651   2.570 -1.3381  0.0562  3.1769
  770SOL    HW2 3079   3.053   1.541   2.483 -1.6220  3.9886  0.1239
  770SOL     MW 3080   3.059   1.615   2.523 -0.7322  0.1790  0.4104
  771SOL     OW 3081   3.077   0.606   1.982  0.0589  0.1836 -0.2467
  771SOL    HW1 3082   2.984   0.604   1.952  0.1641 -4.5342  0.5580
  771SOL    HW2 3083   3.136   0.541   1.941 -0.0547  1.7612  1.1492
  771SOL     MW 3084   3.072   0.597   1.973  0.0578 -0.2307  0.0437
  772SOL     OW 3085   0.046   0.016   2.280 -0.1609 -0.0337  0.0842
  772SOL    HW1 3086   0.003  -0.056   2.322 -2.2687 -0.3835 -1.3046
  772SOL    HW2 3087   0.100  -0.028   2.219 -1.2033 -0.9421 -1.8715
  772SOL     MW 3088   0.047   0.000   2.277 -0.5765 -0.1997 -0.3571
  773SOL     OW 3089   2.484   2.815   2.766 -0.1296 -0.0280 -0.1271
  773SOL    HW1 3090   2.474   2.745   2.698 -1.1286 -1.4380 -1.1492
  773SOL    HW2 3091   2.441   2.766   2.837  1.9990  0.5985 -0.6853
  773SOL     MW 3092   2.477   2.800   2.766  0.0195 -0.1313 -0.3356
  774SOL     OW 3093   2.287   1.144   1.738  0.3010  0.2331 -0.7195
  774SOL    HW1 3094   2.288   1.215   1.672 -0.0638  0.2824  1.0038
  774SOL    HW2 3095   2.274   1.060   1.690 -0.8755 -0.4447  1.0334
  774SOL     MW 3096   2.285   1.142   1.723  0.0976  0.1502 -0.2609
  775SOL     OW 3097   2.298   2.922   2.361 -0.0259  0.0664  0.2346
  775SOL    HW1 3098   2.308   3.001   2.310  0.3825 -1.2336 -0.2975
  775SOL    HW2 3099   2.355   2.858   2.326 -2.9797  2.5427  1.6800
  775SOL     MW 3100   2.307   2.924   2.350 -0.3617  0.2216  0.3551
  776SOL     OW 3101   0.018   1.538   0.105 -0.0540 -0.3411 -0.1190
  776SOL    HW1 3102   0.111   1.523   0.108  1.3892 -1.0666 -1.5616
  776SOL    HW2 3103  -0.014   1.443   0.120  1.4836  2.3257  0.0474
  776SOL     MW 3104   0.026   1.523   0.108  0.3393 -0.0850 -0.2874
  777SOL     OW 3105   2.943   0.963   1.791  0.6369  0.7789 -0.0467
  777SOL    HW1 3106   2.921   1.045   1.753  3.1464 -2.7283  1.9105
  777SOL    HW2 3107   2.863   0.918   1.827 -0.3547 -0.2047 -2.4343
  777SOL     MW 3108   2.930   0.968   1.791  0.8371  0.1864 -0.1035
  778SOL     OW 3109   2.903   0.355   2.781 -0.1673 -0.0668  0.4128
  778SOL    HW1 3110   2.869   0.389   2.864 -2.0430  0.6635  0.0959
  778SOL    HW2 3111   2.955   0.431   2.735 -0.0489  2.7532 -0.9681
  778SOL     MW 3112   2.905   0.369   2.786 -0.3992  0.4016  0.1888
  779SOL     OW 3113   2.098   0.528   2.327 -0.1055 -0.1791 -0.2620
  779SOL    HW1 3114   2.056   0.601   2.371  3.4368 -1.4147  2.5272
  779SOL    HW2 3115   2.128   0.478   2.402 -4.1688  0.2874 -0.2728
  779SOL     MW 3116   2.097   0.531   2.343 -0.1743 -0.2806  0.1045
  780SOL     OW 3117   0.197   0.135   2.792  0.1300  0.2774 -0.0637
  780SOL    HW1 3118   0.137   0.153   2.862  1.7950  1.8140  0.6841
  780SOL    HW2 3119   0.163   0.172   2.708  1.2035  0.1075 -0.7877
  780SOL     MW 3120   0.185   0.142   2.790  0.4913  0.4578 -0.0605
  781SOL     OW 3121   3.033   1.354   2.387  0.2678 -0.1925 -0.8588
  781SOL    HW1 3122   2.988   1.412   2.319  0.4861 -1.4723 -2.5012
  781SOL    HW2 3123   3.062   1.267   2.352  3.2125 -2.5834  1.7136
  781SOL     MW 3124   3.031   1.350   2.374  0.6852 -0.6768 -0.7361
  782SOL     OW 3125   0.583   1.533   3.068  0.1209 -0.3334  0.1831
  782SOL    HW1 3126   0.519   1.605   3.083 -1.6901 -0.4164 -0.0916
  782SOL    HW2 3127   0.585   1.493   3.157  0.7087  0.3788 -3.1611
  782SOL     MW 3128   0.575   1.537   3.081 -0.0405 -0.2504 -0.2944
  783SOL     OW 3129   2.822   0.569   2.428  0.0972  0.6956  0.1898
  783SOL    HW1 3130   2.850   0.544   2.342 -0.7378 -2.3010  0.3006
  783SOL    HW2 3131   2.765   0.503   2.479  0.1325 -0.7706  2.1009
  783SOL     MW 3132   2.818   0.557   2.424 -0.0083  0.1068  0.4566
  784SOL     OW 3133   0.204   0.919   2.881  0.4422  0.1392 -0.6155
  784SOL    HW1 3134   0.195   0.980   2.954 -1.9727  2.3751  0.9711
  784SOL    HW2 3135   0.217   0.972   2.811 -0.9355 -0.2980  2.9441
  784SOL     MW 3136   0.204   0.934   2.882 -0.0582  0.3765  0.0635
  785SOL     OW 3137   0.343   0.543   2.119 -0.1698 -0.2418  0.3500
  785SOL    HW1 3138   0.351   0.561   2.028 -0.1543  2.3617  0.8652
  785SOL    HW2 3139   0.301   0.459   2.136 -2.6720 -1.4152 -1.5410
  785SOL     MW 3140   0.338   0.534   2.109 -0.4979 -0.0531  0.1685
  786SOL     OW 3141   2.034   0.469   2.837 -0.1988 -0.1614 -0.0874
  786SOL    HW1 3142   2.013   0.479   2.930  0.7096  1.0934 -1.2547
  786SOL    HW2 3143   2.133   0.483   2.819  1.5181  0.5993 -2.6176
  786SOL     MW 3144   2.044   0.472   2.847  0.1476  0.1045 -0.5753
  787SOL     OW 3145   2.442   0.153   2.915  0.9272  0.3588  0.0529
  787SOL    HW1 3146   2.486   0.147   2.834  1.4920  0.7378  0.4206
  787SOL    HW2 3147   2.453   0.245   2.949  0.6808  0.6304 -0.5429
  787SOL     MW 3148   2.449   0.164   2.909  0.9692  0.4446  0.0228
  788SOL     OW 3149   2.959   2.866   2.290  0.3799  0.2189  0.3283
  788SOL    HW1 3150   2.939   2.775   2.254  0.7031 -0.1164 -2.0714
  788SOL    HW2 3151   3.036   2.831   2.340  3.3670  1.8502 -0.8373
  788SOL     MW 3152   2.967   2.849   2.291  0.8167  0.3899 -0.1421
  789SOL     OW 3153   0.053   0.291   3.032  0.3384 -0.2580  0.1752
  789SOL    HW1 3154  -0.037   0.269   3.043  1.5688  1.0728  2.0223
  789SOL    HW2 3155   0.091   0.237   3.100 -0.7573  2.4647 -1.1929
  789SOL     MW 3156   0.047   0.281   3.043  0.3562  0.2769  0.2384
  790SOL     OW 3157   0.025   1.035   2.447  0.1625 -0.3199 -0.6897
  790SOL    HW1 3158  -0.015   0.975   2.513 -0.5710 -1.6553  0.9816
  790SOL    HW2 3159  -0.041   1.047   2.381 -1.2051  0.5201  1.8852
  790SOL     MW 3160   0.011   1.029   2.447 -0.1147 -0.3853 -0.1295
  791SOL     OW 3161   2.693   0.409   2.613  0.0266 -0.3659  0.6347
  791SOL    HW1 3162   2.634   0.468   2.666  1.3810 -1.2786  0.0120
  791SOL    HW2 3163   2.766   0.382   2.671  0.3845  1.6358 -1.0057
  791SOL     MW 3164   2.695   0.413   2.628  0.2525 -0.2222  0.3361
  792SOL     OW 3165   2.411   0.281   2.381  0.3805 -0.3459 -0.5170
  792SOL    HW1 3166   2.334   0.328   2.426  2.6533 -1.9743  1.3769
  792SOL    HW2 3167   2.456   0.257   2.460 -2.3763  0.1596 -1.3079
  792SOL     MW 3168   2.407   0.284   2.397  0.3166 -0.4941 -0.3715
  793SOL     OW 3169   1.751   1.007   1.887 -0.4240 -0.2293  0.6277
  793SOL    HW1 3170   1.719   1.052   1.809  0.8275  0.6159 -2.0215
  793SOL    HW2 3171   1.848   0.998   1.856  2.4233  2.4072  1.3394
  793SOL     MW 3172   1.759   1.012   1.872  0.1168  0.2300  0.3720
  794SOL     OW 3173   1.430   2.290   0.145 -0.0323  0.6616  0.6083
  794SOL    HW1 3174   1.447   2.346   0.065  0.2580  0.5132  1.8115
  794SOL    HW2 3175   1.497   2.321   0.214  0.7878 -1.7690  2.4459
  794SOL     MW 3176   1.441   2.301   0.143  0.1142  0.3213  1.0095
  795SOL     OW 3177   2.356   0.944   2.588 -0.3390 -0.1333 -0.2475
  795SOL    HW1 3178   2.337   1.029   2.629  1.1868 -0.4761  0.8294
  795SOL    HW2 3179   2.358   0.957   2.490  0.5627  2.4979 -1.1868
  795SOL     MW 3180   2.354   0.957   2.581 -0.0187  0.1686 -0.2293
  796SOL     OW 3181   0.312   0.652   2.796 -0.5370  0.1850 -0.4274
  796SOL    HW1 3182   0.288   0.745   2.793 -0.6561 -0.7493 -2.3487
  796SOL    HW2 3183   0.315   0.624   2.704 -0.4773 -0.7884 -0.5679
  796SOL     MW 3184   0.309   0.660   2.784 -0.5448 -0.0667 -0.6994
  797SOL     OW 3185   2.574   0.171   2.600  0.4536  0.0199  0.2467
  797SOL    HW1 3186   2.620   0.258   2.620  2.1668  3.4577  0.5696
  797SOL    HW2 3187   2.622   0.136   2.522 -1.5949 -1.7749 -1.3518
  797SOL     MW 3188   2.586   0.178   2.593  0.4093  0.2367  0.0784
  798SOL     OW 3189   2.369   0.056   2.205 -0.5100  0.5400  0.5932
  798SOL    HW1 3190   2.381   0.130   2.267 -2.6580  0.6084  0.4913
  798SOL    HW2 3191   2.457   0.017   2.191 -0.2148  0.1549  1.5758
  798SOL     MW 3192   2.382   0.061   2.211 -0.7545  0.4982  0.7094
  799SOL     OW 3193   2.537   2.902   0.202 -0.2980 -0.7304 -0.2754
  799SOL    HW1 3194   2.583   2.873   0.123  0.7954 -0.2873 -0.3680
  799SOL    HW2 3195   2.462   2.944   0.165 -0.2397  0.3455  1.3797
  799SOL     MW 3196   2.533   2.903   0.187 -0.1460 -0.5300 -0.0693
  800SOL     OW 3197   1.919   3.094   1.719  0.3273  0.0523 -0.3590
  800SOL    HW1 3198   1.834   3.051   1.739  0.7473 -0.3825  1.4544
  800SOL    HW2 3199   1.970   3.079   1.799 -1.9993 -1.0125  2.3396
  800SOL     MW 3200   1.914   3.086   1.732  0.0757 -0.1455  0.2363
  801SOL     OW 3201   2.835   1.334   2.579  0.0379  0.0189 -0.3373
  801SOL    HW1 3202   2.821   1.236   2.580 -0.2431  0.6038 -1.0209
  801SOL    HW2 3203   2.926   1.339   2.543  0.2454 -1.9609 -1.1483
  801SOL     MW 3204   2.845   1.322   2.575  0.0282 -0.1652 -0.5345
  802SOL     OW 3205   2.548   1.500   2.752  0.2786 -0.1119  0.1142
  802SOL    HW1 3206   2.561   1.409   2.717  0.7946  1.3185 -2.5909
  802SOL    HW2 3207   2.631   1.540   2.792  1.4224  3.3019  1.2077
  802SOL     MW 3208   2.561   1.494   2.753  0.4976  0.5272 -0.0984
  803SOL     OW 3209   2.236   1.311   1.952 -0.2028  0.8733 -0.1632
  803SOL    HW1 3210   2.237   1.259   2.038  0.3476 -2.9331 -0.4158
  803SOL    HW2 3211   2.245   1.240   1.888 -2.5793  0.9044  2.4582
  803SOL     MW 3212   2.237   1.295   1.955 -0.4437  0.3752  0.1494
  804SOL     OW 3213   2.361   3.092   0.060  0.0705 -0.7962 -0.2475
  804SOL    HW1 3214   2.302   3.163   0.019  0.5504  0.2617 -1.7397
  804SOL    HW2 3215   2.441   3.105   0.011 -1.9867  1.0833  0.6852
  804SOL     MW 3216   2.364   3.103   0.048 -0.1376 -0.4086 -0.3213
  805SOL     OW 3217   2.831   1.046   2.609 -0.5396  0.0161  1.0043
  805SOL    HW1 3218   2.767   0.990   2.566  1.2565 -2.1358 -2.5525
  805SOL    HW2 3219   2.903   0.985   2.626  1.6574 -1.2274 -1.5692
  805SOL     MW 3220   2.832   1.031   2.606 -0.0127 -0.4319  0.1955
  806SOL     OW 3221   2.652   0.329   2.184  0.0874 -0.1130 -0.1019
  806SOL    HW1 3222   2.568   0.315   2.222 -1.0356 -1.4927  2.6312
  806SOL    HW2 3223   2.646   0.414   2.149  0.4632 -0.2296  0.1914
  806SOL     MW 3224   2.640   0.339   2.185 -0.0111 -0.3105  0.2974
  807SOL     OW 3225   0.059   1.145   2.126  0.6249 -0.4744 -0.0575
  807SOL    HW1 3226   0.105   1.075   2.083 -0.8866 -1.3623  1.4384
  807SOL    HW2 3227  -0.011   1.098   2.168  0.4413  1.0891  1.1975
  807SOL     MW 3228   0.056   1.130   2.126  0.4013 -0.3852  0.3055
  808SOL     OW 3229   2.657   3.059   2.800 -0.1567 -0.1478 -0.5366
  808SOL    HW1 3230   2.598   2.983   2.801  0.2080  0.1197 -0.9231
  808SOL    HW2 3231   2.628   3.117   2.734  0.0208  0.0326  0.6841
  808SOL     MW 3232   2.645   3.056   2.791 -0.0852 -0.0887 -0.4266
  809SOL     OW 3233   2.528   1.227   2.416 -0.2761  0.2500 -0.3963
  809SOL    HW1 3234   2.557   1.223   2.504  1.7016 -1.8752  0.4217
  809SOL    HW2 3235   2.599   1.220   2.354 -0.3090 -2.4799 -2.2044
  809SOL     MW 3236   2.541   1.226   2.419 -0.0195 -0.3906 -0.5269
  810SOL     OW 3237   2.202   1.225   2.219  0.4611  0.7013  0.7938
  810SOL    HW1 3238   2.249   1.140   2.244  0.3991 -0.7065  1.6759
  810SOL    HW2 3239   2.106   1.202   2.224  0.2152  0.2799  1.7341
  810SOL     MW 3240   2.196   1.210   2.223  0.4205  0.4600  1.0343
  811SOL     OW 3241   1.479   0.067   2.225 -0.0603 -0.2345 -0.2702
  811SOL    HW1 3242   1.552   0.011   2.236  1.0726  0.9735  1.5930
  811SOL    HW2 3243   1.450   0.085   2.131  3.1182 -1.9051 -0.2117
  811SOL     MW 3244   1.485   0.062   2.214  0.5086 -0.2956 -0.0166
  812SOL     OW 3245   1.464   2.761   2.085  0.4204 -0.1027  0.4535
  812SOL    HW1 3246   1.554   2.772   2.054 -0.9874 -0.0205 -0.3801
  812SOL    HW2 3247   1.468   2.739   2.179  0.2116 -2.9581  0.5667
  812SOL     MW 3248   1.476   2.760   2.093  0.2071 -0.4686  0.3584
  813SOL     OW 3249   1.843   0.687   2.142  0.0081 -0.3392 -0.2291
  813SOL    HW1 3250   1.795   0.601   2.145 -0.9390 -2.9872 -1.4167
  813SOL    HW2 3251   1.866   0.713   2.232 -1.0110  1.4467  1.2436
  813SOL     MW 3252   1.840   0.679   2.155 -0.2513 -0.4529 -0.1915
  814SOL     OW 3253   2.816   1.170   1.622 -0.1606 -0.3108 -0.4147
  814SOL    HW1 3254   2.731   1.154   1.657 -1.6346  1.6283 -1.3875
  814SOL    HW2 3255   2.810   1.154   1.528 -0.2982 -1.2155 -0.9967
  814SOL     MW 3256   2.804   1.166   1.615 -0.3733 -0.1744 -0.6199
  815SOL     OW 3257   2.501   1.653   2.373 -0.2925  0.1388  0.1521
  815SOL    HW1 3258   2.432   1.585   2.369  0.7748  4.2428 -2.0849
  815SOL    HW2 3259   2.586   1.611   2.382  3.2531  1.5743 -0.3926
  815SOL     MW 3260   2.503   1.638   2.373  0.3161  0.8697 -0.2149
  816SOL     OW 3261   0.667   0.674   2.720 -0.0425  0.5919  0.2937
  816SOL    HW1 3262   0.711   0.616   2.779 -0.6415  1.0108  0.1085
  816SOL    HW2 3263   0.611   0.615   2.658  0.6788 -0.2825  1.1325
  816SOL     MW 3264   0.665   0.658   2.720 -0.0263  0.5318  0.3799
  817SOL     OW 3265   3.080   1.177   1.330  0.5504 -0.0011  0.4000
  817SOL    HW1 3266   3.135   1.175   1.408  1.9729 -2.7147  0.6871
  817SOL    HW2 3267   3.071   1.264   1.304 -1.7601 -0.4348  1.9470
  817SOL     MW 3268   3.086   1.188   1.337  0.4333 -0.4164  0.6420
  818SOL     OW 3269   1.906   1.011   2.677 -0.1037  0.6367 -0.1329
  818SOL    HW1 3270   1.931   1.047   2.591  2.3137  0.0409 -1.0995
  818SOL    HW2 3271   1.982   0.959   2.705 -0.5785 -2.3548 -0.2647
  818SOL     MW 3272   1.919   1.009   2.670  0.1526  0.1634 -0.2778
  819SOL     OW 3273   1.947   0.209   2.323  0.5580 -0.6715 -0.0599
  819SOL    HW1 3274   2.026   0.174   2.294 -2.8748 -1.2466  1.0292
  819SOL    HW2 3275   1.963   0.220   2.421 -0.9574  0.2870  1.7237
  819SOL     MW 3276   1.959   0.206   2.332 -0.0948 -0.6209  0.3191
  820SOL     OW 3277   2.482   1.750   2.628 -0.0828  0.0314 -0.0753
  820SOL    HW1 3278   2.501   1.662   2.669  1.8136  2.3039  2.6613
  820SOL    HW2 3279   2.496   1.736   2.536 -1.7754 -1.5149 -0.0481
  820SOL     MW 3280   2.487   1.737   2.621 -0.0559  0.1272  0.2894
  821SOL     OW 3281   2.533   1.339   1.997 -0.2018  0.0562  0.3472
  821SOL    HW1 3282   2.561   1.412   1.943 -0.1329 -1.2570  1.3338
  821SOL    HW2 3283   2.437   1.331   1.983 -2.4312  0.0488 -1.4092
  821SOL     MW 3284   2.524   1.347   1.988 -0.4868 -0.1180  0.2457
  822SOL     OW 3285   2.898   2.614   1.428  0.2732  0.0907  0.0755
  822SOL    HW1 3286   2.813   2.647   1.390  0.6764  1.5123 -0.3912
  822SOL    HW2 3287   2.917   2.675   1.504  3.0325 -0.6391  0.8907
  822SOL     MW 3288   2.889   2.626   1.433  0.6905  0.1820  0.1215
  823SOL     OW 3289   2.356   0.495   1.793  0.4189  0.2929  0.3718
  823SOL    HW1 3290   2.413   0.426   1.752 -1.5968 -1.7579 -0.8406
  823SOL    HW2 3291   2.277   0.449   1.827 -3.9092 -0.1081 -0.9800
  823SOL     MW 3292   2.353   0.480   1.792 -0.4181 -0.0306  0.0335
  824SOL     OW 3293   2.115   1.359   2.572 -0.1261  0.0872  0.0618
  824SOL    HW1 3294   2.184   1.398   2.511 -1.3556 -0.4230  1.6974
  824SOL    HW2 3295   2.080   1.435   2.614 -2.9228  0.0263 -4.2399
  824SOL     MW 3296   2.119   1.374   2.569 -0.6573  0.0118 -0.2899
  825SOL     OW 3297   2.107   2.312   0.368 -0.2971 -0.1203  0.0957
  825SOL    HW1 3298   2.150   2.333   0.289 -1.7010  0.7220  2.4691
  825SOL    HW2 3299   2.163   2.339   0.443  0.2195 -1.1397 -0.5041
  825SOL     MW 3300   2.120   2.319   0.367 -0.4142 -0.1437  0.3297
  826SOL     OW 3301   1.784   2.445   0.454  0.1598  0.2269 -0.0432
  826SOL    HW1 3302   1.780   2.378   0.518 -0.1184  1.8375  0.5806
  826SOL    HW2 3303   1.876   2.478   0.455 -0.2515 -1.5506  0.3431
  826SOL     MW 3304   1.796   2.441   0.463  0.0688  0.2049  0.0901
  827SOL     OW 3305   1.915   2.252   0.888 -0.3965 -0.1299  0.2418
  827SOL    HW1 3306   1.856   2.259   0.813  0.5542 -2.6709  0.6044
  827SOL    HW2 3307   1.869   2.181   0.936 -1.7836 -0.7473 -0.0789
  827SOL     MW 3308   1.901   2.243   0.885 -0.4541 -0.5466  0.2473
  828SOL     OW 3309   0.072   2.667   0.510 -0.5033  0.1840 -0.1205
  828SOL    HW1 3310   0.163   2.670   0.522 -0.7265 -0.3761 -0.0134
  828SOL    HW2 3311   0.057   2.705   0.425 -1.0855 -0.2832  0.3024
  828SOL     MW 3312   0.082   2.672   0.500 -0.6096  0.0484 -0.0505
  829SOL     OW 3313   2.967   2.880   1.162 -0.3842  0.0723 -0.3838
  829SOL    HW1 3314   2.873   2.877   1.125 -2.8738 -0.2328 -1.6600
  829SOL    HW2 3315   3.001   2.794   1.148 -1.3910 -0.8346 -0.7300
  829SOL     MW 3316   2.959   2.868   1.155 -0.8455 -0.0876 -0.5978
  830SOL     OW 3317   2.524   2.837   1.993  0.3509  0.2885  0.3818
  830SOL    HW1 3318   2.453   2.892   1.948  0.1378  0.0825 -2.4174
  830SOL    HW2 3319   2.578   2.798   1.922  0.4896 -0.6219  0.1492
  830SOL     MW 3320   2.522   2.839   1.978  0.3411  0.1412 -0.0182
  831SOL     OW 3321   2.454   2.418   1.206 -0.1240  0.1417 -0.5053
  831SOL    HW1 3322   2.434   2.332   1.253 -0.1675 -3.7221 -0.8726
  831SOL    HW2 3323   2.533   2.402   1.146  0.2606  1.9280 -1.5058
  831SOL     MW 3324   2.462   2.404   1.205 -0.0790 -0.1324 -0.6858
  832SOL     OW 3325   2.407   2.130   1.910 -0.0807  0.4496 -0.3577
  832SOL    HW1 3326   2.420   2.228   1.910  1.5280  3.1410 -0.4737
  832SOL    HW2 3327   2.478   2.092   1.861 -3.2032  1.2545 -2.0728
  832SOL     MW 3328   2.418   2.138   1.903 -0.2804  0.9109 -0.5993
  833SOL     OW 3329   1.618   2.505   0.805 -0.0933 -0.1756  0.7395
  833SOL    HW1 3330   1.573   2.439   0.867 -0.7285 -1.8812  0.0715
  833SOL    HW2 3331   1.560   2.584   0.802  2.8764  0.2158  1.3974
  833SOL     MW 3332   1.604   2.506   0.813  0.2147 -0.3490  0.7382
  834SOL     OW 3333   2.229   2.415   0.603  0.1532  0.0332  0.3820
  834SOL    HW1 3334   2.196   2.343   0.654 -0.3213  1.4685  1.4316
  834SOL    HW2 3335   2.301   2.430   0.667 -1.3880 -1.6798 -2.9628
  834SOL     MW 3336   2.234   2.408   0.619 -0.1128 -0.0034  0.0792
  835SOL     OW 3337   1.835   2.615   0.692  0.7334  0.4851 -0.0855
  835SOL    HW1 3338   1.761   2.564   0.729  0.0059 -3.5135  2.8694
  835SOL    HW2 3339   1.916   2.589   0.742 -1.5885  0.7018 -0.7476
  835SOL     MW 3340   1.836   2.605   0.703  0.3311 -0.0139  0.2170
  836SOL     OW 3341   2.078   2.047   1.793 -0.1379  0.5114  0.4811
  836SOL    HW1 3342   2.136   1.973   1.814  1.1149 -0.5491 -2.5537
  836SOL    HW2 3343   2.126   2.123   1.824  1.3132 -3.3007  3.3834
  836SOL     MW 3344   2.092   2.047   1.800  0.2189 -0.1315  0.4636
  837SOL     OW 3345   2.073   0.204   0.670  0.0033 -0.3633 -0.1765
  837SOL    HW1 3346   2.003   0.216   0.607  1.9817 -1.4912  0.8334
  837SOL    HW2 3347   2.132   0.151   0.614 -1.2348  0.2389 -0.5266
  837SOL     MW 3348   2.072   0.199   0.655  0.1010 -0.4326 -0.0895
  838SOL     OW 3349   2.952   2.054   0.923  0.2070 -0.1734  0.7896
  838SOL    HW1 3350   2.870   2.002   0.928 -1.6236 -1.3970 -0.7874
  838SOL    HW2 3351   3.001   2.045   1.006  1.4634  2.8125 -0.2625
  838SOL     MW 3352   2.948   2.046   0.935  0.1312  0.0591  0.4427
  839SOL     OW 3353   1.522   2.450   1.064 -0.5740  0.6316  0.6743
  839SOL    HW1 3354   1.493   2.521   1.126  1.5421 -1.1540  0.8859
  839SOL    HW2 3355   1.542   2.383   1.120  2.3850 -1.5721 -1.8028
  839SOL     MW 3356   1.521   2.451   1.080  0.0956  0.1053  0.3754
  840SOL     OW 3357   2.372   2.096   2.324 -0.1186 -0.1294  0.0583
  840SOL    HW1 3358   2.302   2.156   2.302 -0.3170  1.2611  2.0373
  840SOL    HW2 3359   2.411   2.133   2.404 -2.1664 -0.8996 -0.0670
  840SOL     MW 3360   2.368   2.109   2.332 -0.4150 -0.0475  0.3029
  841SOL     OW 3361   2.258   2.317   0.129 -0.4761  0.4634 -0.3326
  841SOL    HW1 3362   2.282   2.389   0.074  1.7568 -1.6188 -2.4506
  841SOL    HW2 3363   2.173   2.287   0.092 -2.2441  2.7306  0.4541
  841SOL     MW 3364   2.249   2.323   0.117 -0.4147  0.4878 -0.5082
  842SOL     OW 3365   2.662   1.968   1.459  0.0659 -0.1441  0.3237
  842SOL    HW1 3366   2.594   1.909   1.419  1.7336 -1.9556 -0.8750
  842SOL    HW2 3367   2.687   2.031   1.391 -0.0421 -0.6048 -0.3965
  842SOL     MW 3368   2.656   1.969   1.444  0.2717 -0.4439  0.0705
  843SOL     OW 3369   2.680   2.748   1.805  0.2336  0.2215  0.8018
  843SOL    HW1 3370   2.750   2.705   1.850 -1.4722 -0.0209 -0.5394
  843SOL    HW2 3371   2.638   2.670   1.752 -0.3098  1.9387 -0.1492
  843SOL     MW 3372   2.684   2.732   1.804 -0.0632  0.4161  0.4993
  844SOL     OW 3373   2.702   2.359   1.113 -0.1337  0.6675 -0.0050
  844SOL    HW1 3374   2.726   2.384   1.020  2.0366  0.2630 -0.2705
  844SOL    HW2 3375   2.766   2.391   1.173  0.5939 -3.1390  0.7612
  844SOL     MW 3376   2.713   2.366   1.109  0.2487  0.1119  0.0610
  845SOL     OW 3377   2.808   2.610   0.272 -0.0050 -0.2322  0.2919
  845SOL    HW1 3378   2.808   2.521   0.319 -0.8694 -1.6841  0.2421
  845SOL    HW2 3379   2.834   2.672   0.342  0.8426  2.9276 -1.3583
  845SOL     MW 3380   2.811   2.606   0.287 -0.0072 -0.0069  0.0676
  846SOL     OW 3381   1.459   2.715   0.782  0.1334  0.3722  0.0929
  846SOL    HW1 3382   1.516   2.793   0.780 -0.3658  0.9363 -0.4774
  846SOL    HW2 3383   1.366   2.749   0.794  0.7034  0.3883 -2.0669
  846SOL     MW 3384   1.454   2.730   0.783  0.1427  0.4487 -0.2673
  847SOL     OW 3385   2.434   1.826   0.237 -0.1146  0.2470 -0.1461
  847SOL    HW1 3386   2.399   1.740   0.240 -0.9625 -0.7993  3.2331
  847SOL    HW2 3387   2.443   1.852   0.152  0.1621  0.1730  2.0619
  847SOL     MW 3388   2.430   1.818   0.226 -0.1900  0.0992  0.5910
  848SOL     OW 3389   2.731   2.099   1.242  0.2271 -0.0038  0.1439
  848SOL    HW1 3390   2.749   2.183   1.205  0.8998  2.5043  0.4418
  848SOL    HW2 3391   2.722   2.037   1.169 -1.7314 -0.8596  1.4246
  848SOL     MW 3392   2.732   2.102   1.228  0.0574  0.2142  0.3522
  849SOL     OW 3393   1.890   2.845   0.856 -0.5885  0.0284  0.0200
  849SOL    HW1 3394   1.835   2.801   0.919 -1.9349  0.7557 -0.8075
  849SOL    HW2 3395   1.901   2.784   0.777  0.1556 -1.2316 -0.3498
  849SOL     MW 3396   1.884   2.831   0.854 -0.6680 -0.0419 -0.1379
  850SOL     OW 3397   2.334   1.923   1.611  0.0228 -0.4334 -0.1485
  850SOL    HW1 3398   2.248   1.920   1.564  0.5478 -0.9126  0.2702
  850SOL    HW2 3399   2.358   2.020   1.600  1.6602  0.9759 -1.9609
  850SOL     MW 3400   2.326   1.936   1.603  0.3081 -0.3106 -0.3324
  851SOL     OW 3401   2.602   2.225   0.385  0.1580  0.2196 -0.0176
  851SOL    HW1 3402   2.573   2.201   0.295  3.5943 -0.6288 -0.5137
  851SOL    HW2 3403   2.557   2.307   0.412  0.9490  4.1446  0.3607
  851SOL     MW 3404   2.592   2.233   0.377  0.7158  0.6255 -0.0332
  852SOL     OW 3405   2.334   2.046   0.366 -0.0394  0.0708  0.3597
  852SOL    HW1 3406   2.396   2.103   0.320  0.2296 -1.4264  1.0163
  852SOL    HW2 3407   2.353   1.958   0.318  1.1925 -0.7170 -0.1719
  852SOL     MW 3408   2.345   2.042   0.353  0.1587 -0.2307  0.3762
  853SOL     OW 3409   2.524   2.393   1.898 -0.1685 -0.3721  0.3524
  853SOL    HW1 3410   2.528   2.445   1.816  1.9644  0.2266 -1.0812
  853SOL    HW2 3411   2.612   2.406   1.937 -0.3877 -1.7364  2.5203
  853SOL     MW 3412   2.536   2.401   1.892  0.0840 -0.4731  0.4493
  854SOL     OW 3413   2.881   2.271   0.753 -0.3726  0.1906 -0.2524
  854SOL    HW1 3414   2.800   2.231   0.712 -0.6914  1.4888  1.2034
  854SOL    HW2 3415   2.912   2.199   0.819 -0.2571  0.2501  0.0613
  854SOL     MW 3416   2.874   2.256   0.757 -0.3994  0.3697 -0.0189
  855SOL     OW 3417   2.829   2.375   0.409 -0.4911  0.3636 -0.2186
  855SOL    HW1 3418   2.740   2.332   0.404 -0.0310 -2.2625 -0.5329
  855SOL    HW2 3419   2.882   2.308   0.362  1.5684  0.9824  0.3398
  855SOL     MW 3420   2.824   2.361   0.402 -0.1586  0.0987 -0.1864
  856SOL     OW 3421   2.054   1.840   0.254 -0.4790  0.3807  0.1371
  856SOL    HW1 3422   1.959   1.822   0.257  1.5801 -1.3518 -0.8778
  856SOL    HW2 3423   2.058   1.936   0.259 -2.6959 -0.7363 -0.0101
  856SOL     MW 3424   2.042   1.851   0.255 -0.4998  0.0048 -0.0162
  857SOL     OW 3425   2.489   1.934   0.591  0.1223  0.4453  0.2583
  857SOL    HW1 3426   2.445   1.976   0.519 -2.3396 -0.6106  0.8982
  857SOL    HW2 3427   2.420   1.918   0.652  0.7913  2.6222 -2.0577
  857SOL     MW 3428   2.474   1.938   0.589 -0.1143  0.5932  0.0372
  858SOL     OW 3429   2.962   2.688   1.896  0.6300 -0.0355  0.5835
  858SOL    HW1 3430   3.040   2.739   1.899  0.4805  0.6740  1.6486
  858SOL    HW2 3431   2.963   2.630   1.818 -1.4706 -1.6163 -0.4428
  858SOL     MW 3432   2.972   2.687   1.886  0.3331 -0.1505  0.5886
  859SOL     OW 3433   1.763   2.662   1.008  0.3582  0.0213  0.6073
  859SOL    HW1 3434   1.690   2.624   0.964 -0.2868  4.2036  2.7984
  859SOL    HW2 3435   1.815   2.587   1.044  1.7694 -2.3312  2.1071
  859SOL     MW 3436   1.760   2.647   1.007  0.4593  0.2627  1.0943
  860SOL     OW 3437   2.659   2.553   0.059 -0.0589 -0.3547 -0.0824
  860SOL    HW1 3438   2.688   2.596   0.142 -0.5794 -0.5239 -0.7779
  860SOL    HW2 3439   2.654   2.631   0.001  0.3988  0.8891 -2.9185
  860SOL     MW 3440   2.662   2.569   0.062 -0.0672 -0.2129 -0.5484
  861SOL     OW 3441   1.582   2.160   1.176 -0.3486  0.6887  0.0964
  861SOL    HW1 3442   1.590   2.220   1.258  0.0267  0.1778  1.9842
  861SOL    HW2 3443   1.513   2.094   1.194 -0.0648  1.1376 -0.1000
  861SOL     MW 3444   1.574   2.159   1.189 -0.2617  0.6805  0.3195
  862SOL     OW 3445   2.469   1.756   1.465  0.2946  1.1079  0.3365
  862SOL    HW1 3446   2.425   1.831   1.511  1.5799 -0.5864 -1.0711
  862SOL    HW2 3447   2.403   1.732   1.403  2.5389  0.2004 -1.8948
  862SOL     MW 3448   2.455   1.763   1.463  0.7603  0.7646 -0.1436
  863SOL     OW 3449   2.871   1.642   0.956  0.2211 -0.5406  0.6407
  863SOL    HW1 3450   2.854   1.726   1.000  0.1649  0.5071 -0.8203
  863SOL    HW2 3451   2.797   1.632   0.894  0.9383 -0.2297 -0.0869
  863SOL     MW 3452   2.859   1.652   0.953  0.3083 -0.3613  0.3519
  864SOL     OW 3453   3.072   1.777   0.778 -0.3126  0.1974  0.1550
  864SOL    HW1 3454   3.021   1.721   0.837  0.9163  1.0384 -0.1948
  864SOL    HW2 3455   3.001   1.812   0.723 -1.6782  0.5197  2.2999
  864SOL     MW 3456   3.056   1.775   0.778 -0.3306  0.3509  0.3918
  865SOL     OW 3457   2.508   2.163   0.122 -0.1131  0.1722 -0.3456
  865SOL    HW1 3458   2.481   2.091   0.069 -3.1339 -1.2993 -0.3708
  865SOL    HW2 3459   2.430   2.218   0.113 -2.9902  2.5485 -0.5801
  865SOL     MW 3460   2.494   2.161   0.114 -0.8913  0.2916 -0.3798
  866SOL     OW 3461   2.721   2.339   1.522  0.0055 -0.5716  0.0417
  866SOL    HW1 3462   2.735   2.251   1.560 -1.8316  0.9523 -0.2500
  866SOL    HW2 3463   2.775   2.335   1.445  0.5341 -1.7369 -3.0189
  866SOL     MW 3464   2.730   2.327   1.517 -0.1672 -0.5243 -0.4006
  867SOL     OW 3465   0.157   2.701   1.711 -0.7353 -0.4548 -0.2598
  867SOL    HW1 3466   0.237   2.735   1.753  0.5619 -0.5184 -0.3142
  867SOL    HW2 3467   0.092   2.769   1.718  2.4612 -0.9741 -0.4647
  867SOL     MW 3468   0.159   2.715   1.717 -0.1424 -0.5317 -0.2940
  868SOL     OW 3469   2.743   2.620   0.567  0.2944 -0.8902 -0.2429
  868SOL    HW1 3470   2.735   2.532   0.550  0.0094  0.9427 -1.2358
  868SOL    HW2 3471   2.668   2.660   0.524  0.2968 -0.1507  1.7497
  868SOL     MW 3472   2.732   2.614   0.559  0.2571 -0.5508 -0.1110
  869SOL     OW 3473   1.953   2.461   1.053  0.4507  0.7568 -0.4394
  869SOL    HW1 3474   2.034   2.485   1.002 -0.2434 -4.0295 -4.1596
  869SOL    HW2 3475   1.928   2.373   1.017  1.2212  2.1630 -0.8191
  869SOL     MW 3476   1.960   2.452   1.042  0.4608  0.3108 -0.9803
  870SOL     OW 3477   2.170   0.020   0.460 -0.1629 -0.3225  0.3383
  870SOL    HW1 3478   2.245   0.051   0.408  3.2508  0.4149 -2.7885
  870SOL    HW2 3479   2.203  -0.069   0.485  0.9789  0.3517 -1.3015
  870SOL     MW 3480   2.184   0.012   0.457  0.4381 -0.1362 -0.2906
  871SOL     OW 3481   2.442   2.052   0.908  0.3545  0.1589  0.3851
  871SOL    HW1 3482   2.365   2.026   0.850 -1.7973  1.5067 -0.5423
  871SOL    HW2 3483   2.399   2.138   0.941  0.5082  0.9294 -1.3512
  871SOL     MW 3484   2.426   2.060   0.905  0.0909  0.4384  0.0336
  872SOL     OW 3485   2.110   2.468   1.616 -0.1522 -0.0940  0.1093
  872SOL    HW1 3486   2.047   2.533   1.643  1.0128  0.6421 -0.2548
  872SOL    HW2 3487   2.060   2.422   1.552  1.4403  0.6085 -0.5496
  872SOL     MW 3488   2.095   2.470   1.611  0.2116  0.0958 -0.0257
  873SOL     OW 3489   2.897   2.133   1.823 -0.2307 -0.2672 -0.0309
  873SOL    HW1 3490   2.914   2.185   1.899 -0.0611 -1.6828  0.2528
  873SOL    HW2 3491   2.965   2.158   1.761  1.0240  0.2331  0.0644
  873SOL     MW 3492   2.908   2.143   1.825 -0.0428 -0.3879  0.0191
  874SOL     OW 3493   2.338   1.420   2.376  0.6912 -0.3746 -0.2919
  874SOL    HW1 3494   2.288   1.368   2.309 -0.7379  1.5325  2.2849
  874SOL    HW2 3495   2.406   1.361   2.406 -3.3286  1.8003  1.9362
  874SOL     MW 3496   2.340   1.405   2.371 -0.0277  0.1640  0.3420
  875SOL     OW 3497   2.333   2.276   0.998 -0.2657  0.1004 -0.1771
  875SOL    HW1 3498   2.330   2.337   0.924  0.3614  0.2608  0.3246
  875SOL    HW2 3499   2.357   2.331   1.072  1.5433 -0.4908  0.7872
  875SOL     MW 3500   2.336   2.291   0.998  0.0557  0.0435  0.0163
  876SOL     OW 3501   0.025   2.209   1.288  0.9061 -0.2253 -0.4389
  876SOL    HW1 3502   0.092   2.268   1.253  1.7132 -2.2392 -2.0150
  876SOL    HW2 3503   0.013   2.221   1.383  1.7632  1.4823  2.6292
  876SOL     MW 3504   0.032   2.218   1.296  1.1257 -0.2657 -0.2420
  877SOL     OW 3505   0.039   2.789   0.273  0.7748  0.1551 -0.1558
  877SOL    HW1 3506   0.117   2.845   0.250 -0.6499 -1.2854  1.1930
  877SOL    HW2 3507   0.018   2.731   0.199  2.2182  0.8600  1.8365
  877SOL     MW 3508   0.046   2.789   0.260  0.7772  0.0581  0.2851
  878SOL     OW 3509   2.255   1.725   1.141 -0.0631  0.8117 -0.2316
  878SOL    HW1 3510   2.187   1.691   1.211 -0.4167  1.7627  3.1139
  878SOL    HW2 3511   2.350   1.696   1.140  0.8161  0.7599 -0.0229
  878SOL     MW 3512   2.259   1.717   1.150  0.0063  0.9303  0.2374
  879SOL     OW 3513   2.710   2.451   0.865 -0.3265 -0.3481  0.0956
  879SOL    HW1 3514   2.774   2.521   0.893 -1.5217  1.1891  2.6021
  879SOL    HW2 3515   2.765   2.389   0.813  2.5387  3.9801  1.5079
  879SOL     MW 3516   2.726   2.452   0.862 -0.1062  0.4258  0.6126
  880SOL     OW 3517   2.620   2.198   0.705  0.1992 -0.0490  0.1476
  880SOL    HW1 3518   2.566   2.203   0.782  4.5877 -1.2142 -2.0387
  880SOL    HW2 3519   2.567   2.145   0.640  0.1372 -1.1310 -2.3139
  880SOL     MW 3520   2.606   2.192   0.707  0.7700 -0.3455 -0.4657
  881SOL     OW 3521   2.958   2.706   0.697 -0.1056 -0.0891 -0.1612
  881SOL    HW1 3522   2.881   2.669   0.647 -2.7488 -0.0612 -0.4534
  881SOL    HW2 3523   3.030   2.700   0.636  0.1176  0.0613 -3.9027
  881SOL     MW 3524   2.958   2.700   0.682 -0.4249 -0.0656 -0.6934
  882SOL     OW 3525   2.247   2.899   1.912  0.3358 -0.3673 -0.3551
  882SOL    HW1 3526   2.253   2.882   1.818 -0.3905 -2.4232  0.2300
  882SOL    HW2 3527   2.206   2.821   1.948 -1.7582 -0.1067  2.5721
  882SOL     MW 3528   2.242   2.886   1.904 -0.0363 -0.6042  0.1083
  883SOL     OW 3529   2.436   2.172   1.325 -0.0817  0.0093  0.5100
  883SOL    HW1 3530   2.514   2.133   1.283 -1.9987  0.2357 -1.5833
  883SOL    HW2 3531   2.357   2.159   1.269 -2.8634  2.9522  1.7003
  883SOL     MW 3532   2.436   2.165   1.312 -0.7016  0.4275  0.3908
  884SOL     OW 3533   1.883   1.861   1.047  0.1844 -0.6169  0.2596
  884SOL    HW1 3534   1.822   1.945   1.040 -0.9214  0.6288  1.2544
  884SOL    HW2 3535   1.976   1.895   1.056  0.4077 -0.8894 -0.3411
  884SOL     MW 3536   1.888   1.877   1.047  0.0680 -0.4885  0.3116
  885SOL     OW 3537   2.920   2.444   1.720 -0.6500  0.3241  0.1679
  885SOL    HW1 3538   2.997   2.387   1.695  0.4664  1.7597  0.0047
  885SOL    HW2 3539   2.863   2.439   1.645  1.3985  1.0426  0.4626
  885SOL     MW 3540   2.923   2.436   1.707 -0.2324  0.6083  0.1852
  886SOL     OW 3541   2.893   2.385   1.292 -0.0181  0.1247  0.3466
  886SOL    HW1 3542   2.974   2.333   1.293  0.5631 -1.9169  1.4252
  886SOL    HW2 3543   2.900   2.464   1.346 -0.9579 -0.7902 -1.6001
  886SOL     MW 3544   2.905   2.389   1.299 -0.0654 -0.2654  0.2321
  887SOL     OW 3545   2.338   2.620   1.553  0.1052 -0.3105 -0.0196
  887SOL    HW1 3546   2.356   2.635   1.458 -1.6144  0.5350 -0.0332
  887SOL    HW2 3547   2.273   2.552   1.552 -1.5604  0.0500 -0.2979
  887SOL     MW 3548   2.331   2.613   1.540 -0.3415 -0.1514 -0.0581
  888SOL     OW 3549   2.069   2.213   1.436 -0.1014  0.5415  0.6735
  888SOL    HW1 3550   2.097   2.219   1.348 -0.6348  3.0312 -0.1187
  888SOL    HW2 3551   2.150   2.211   1.486 -3.0396  1.0565  0.7688
  888SOL     MW 3552   2.083   2.214   1.431 -0.5594  0.9380  0.5815
  889SOL     OW 3553   2.293   1.928   2.073  0.7407 -0.0908  0.2787
  889SOL    HW1 3554   2.370   1.903   2.121 -0.1210  0.6355  0.8088
  889SOL    HW2 3555   2.319   2.006   2.020 -0.7382  0.5500 -0.8314
  889SOL     MW 3556   2.306   1.935   2.072  0.4319  0.0896  0.2022
  890SOL     OW 3557   0.053   2.348   0.118 -0.3312 -0.2819 -0.2026
  890SOL    HW1 3558   0.017   2.438   0.120  0.3716 -0.3005 -0.3464
  890SOL    HW2 3559   0.067   2.318   0.207 -2.0392  0.4778  1.3429
  890SOL     MW 3560   0.050   2.356   0.130 -0.4638 -0.1841 -0.0177
  891SOL     OW 3561   3.007   1.960   1.204 -0.1802 -0.0677 -0.0095
  891SOL    HW1 3562   3.071   1.906   1.155  2.2667  1.8757  1.9023
  891SOL    HW2 3563   3.053   2.048   1.208 -1.7405 -0.6208 -0.8538
  891SOL     MW 3564   3.022   1.964   1.198 -0.0632  0.1158  0.1314
  892SOL     OW 3565   2.431   2.356   2.738 -0.0767 -0.2641  0.0595
  892SOL    HW1 3566   2.401   2.267   2.775 -0.7949  0.7061  1.8428
  892SOL    HW2 3567   2.525   2.369   2.759  0.9894 -0.0034 -1.7556
  892SOL     MW 3568   2.440   2.346   2.746 -0.0308 -0.1017  0.0553
  893SOL     OW 3569   1.635   2.339   1.383  0.2174  0.0188 -0.5546
  893SOL    HW1 3570   1.560   2.392   1.404 -0.2159 -0.0518  2.5325
  893SOL    HW2 3571   1.652   2.309   1.471 -0.3673  1.4046 -0.5416
  893SOL     MW 3572   1.628   2.342   1.398  0.0831  0.1923 -0.1456
  894SOL     OW 3573   2.793   1.973   0.514  0.4900 -0.1744  0.5942
  894SOL    HW1 3574   2.722   1.989   0.571 -0.5475 -1.3873  3.0454
  894SOL    HW2 3575   2.749   1.933   0.438 -1.1280 -1.0129  1.6179
  894SOL     MW 3576   2.778   1.970   0.512  0.1397 -0.4451  1.0527
  895SOL     OW 3577   2.187   2.173   1.194  0.0785  0.4213 -0.1125
  895SOL    HW1 3578   2.226   2.224   1.120  0.0623 -2.3810  0.3154
  895SOL    HW2 3579   2.179   2.081   1.156 -2.5343 -1.8490  0.4346
  895SOL     MW 3580   2.191   2.168   1.179 -0.2684 -0.2480  0.0161
  896SOL     OW 3581   2.342   2.798   1.087  0.6582  0.1340 -0.2749
  896SOL    HW1 3582   2.368   2.746   1.168 -1.2052  0.0354 -0.1034
  896SOL    HW2 3583   2.246   2.813   1.102 -0.6485  0.3605 -2.2677
  896SOL     MW 3584   2.333   2.793   1.100  0.2399  0.1509 -0.5152
  897SOL     OW 3585   0.017   3.057   3.026 -0.2915 -0.0646 -0.7072
  897SOL    HW1 3586   0.053   2.967   3.010  1.6591  2.1158 -1.1342
  897SOL    HW2 3587  -0.058   3.068   2.970  0.3850  1.1828  1.6478
  897SOL     MW 3588   0.012   3.047   3.017  0.0551  0.3876 -0.4528
  898SOL     OW 3589   2.148   0.185   1.433 -0.4131 -0.4024  0.1541
  898SOL    HW1 3590   2.129   0.092   1.456  0.8042  0.5759  3.4692
  898SOL    HW2 3591   2.139   0.200   1.339 -0.6886  0.6641 -1.6194
  898SOL     MW 3592   2.144   0.175   1.424 -0.2888 -0.1326  0.3575
  899SOL     OW 3593   3.008   2.955   0.619 -0.4956 -0.5251  0.4286
  899SOL    HW1 3594   2.987   2.882   0.675 -0.7950 -0.4509 -0.0109
  899SOL    HW2 3595   2.937   3.014   0.645  1.9490 -2.6499  0.5935
  899SOL     MW 3596   2.996   2.953   0.630 -0.2126 -0.7956  0.3924
  900SOL     OW 3597   0.169   2.374   1.132 -0.4877  0.2489 -0.2898
  900SOL    HW1 3598   0.113   2.449   1.154 -1.3249  0.3682  2.4312
  900SOL    HW2 3599   0.139   2.342   1.044 -0.5604  0.5387 -2.0416
  900SOL     MW 3600   0.158   2.379   1.123 -0.6077  0.3029 -0.1619
  901SOL     OW 3601   1.747   2.865   1.771  0.1023  0.0897 -0.0224
  901SOL    HW1 3602   1.818   2.819   1.735  1.5045 -1.3817  0.5231
  901SOL    HW2 3603   1.660   2.820   1.743 -1.0682 -2.8804 -0.5970
  901SOL     MW 3604   1.745   2.853   1.763  0.1329 -0.4963 -0.0262
  902SOL     OW 3605   2.614   2.087   1.723  0.2234  0.0790 -0.2100
  902SOL    HW1 3606   2.644   2.042   1.644  3.0823  0.0970 -1.7948
  902SOL    HW2 3607   2.694   2.108   1.773  0.2526  0.7878  2.4398
  902SOL     MW 3608   2.628   2.084   1.719  0.6045  0.1749 -0.0695
  903SOL     OW 3609   1.548   2.657   0.530  0.5957 -0.1750  0.1524
  903SOL    HW1 3610   1.630   2.613   0.554  1.7140  0.1029 -1.8217
  903SOL    HW2 3611   1.518   2.702   0.608 -2.2783  2.6357 -1.3792
  903SOL     MW 3612   1.555   2.657   0.543  0.3641  0.2325 -0.3102
  904SOL     OW 3613   2.552   2.539   1.676  0.2961 -0.0725  0.3384
  904SOL    HW1 3614   2.471   2.568   1.628 -1.6690 -0.1170 -1.9098
  904SOL    HW2 3615   2.591   2.466   1.625 -0.9872  0.2095  0.0901
  904SOL     MW 3616   2.547   2.533   1.663 -0.1325 -0.0412  0.0090
  905SOL     OW 3617   2.333   2.512   2.084 -0.0841  0.2897 -0.3844
  905SOL    HW1 3618   2.388   2.472   2.015  1.2823 -0.5070  0.0404
  905SOL    HW2 3619   2.310   2.430   2.133  1.1120  0.5008  1.4236
  905SOL     MW 3620   2.337   2.496   2.081  0.2540  0.2124 -0.0898
  906SOL     OW 3621   2.404   2.461   0.798 -0.1330 -0.2174  0.5119
  906SOL    HW1 3622   2.497   2.447   0.807 -0.4839 -1.2707  1.7780
  906SOL    HW2 3623   2.383   2.554   0.827 -0.7900 -0.4325  2.8555
  906SOL     MW 3624   2.414   2.472   0.803 -0.2660 -0.3848  0.9882
  907SOL     OW 3625   2.664   2.746   1.327 -0.1606  0.4869  0.2319
  907SOL    HW1 3626   2.689   2.830   1.356  3.1501 -2.2698 -3.7583
  907SOL    HW2 3627   2.665   2.750   1.230 -1.4507  2.6719 -4.3571
  907SOL     MW 3628   2.667   2.757   1.318  0.1060  0.4114 -0.9000
  908SOL     OW 3629   2.675   2.304   3.073 -0.1238 -0.0573  0.2064
  908SOL    HW1 3630   2.617   2.256   3.124 -3.4753 -0.5388 -2.7544
  908SOL    HW2 3631   2.681   2.390   3.118  0.0222 -2.4895  1.0188
  908SOL     MW 3632   2.668   2.309   3.086 -0.5468 -0.4418 -0.0771
  909SOL     OW 3633   1.713   0.100   1.305  0.0351 -0.0561  0.1808
  909SOL    HW1 3634   1.699   0.194   1.307 -1.7909 -1.6262  2.1854
  909SOL    HW2 3635   1.686   0.065   1.395  2.4917  0.3758 -0.4640
  909SOL     MW 3636   1.708   0.108   1.317  0.1183 -0.2062  0.3602
  910SOL     OW 3637   2.140   1.637   0.456  0.1560  0.0000  0.4569
  910SOL    HW1 3638   2.054   1.600   0.450  0.6765  3.0454  0.4076
  910SOL    HW2 3639   2.134   1.710   0.388  1.4666 -1.3469  0.3947
  910SOL     MW 3640   2.128   1.642   0.446  0.3976  0.2241  0.4422
  911SOL     OW 3641   2.373   2.199   1.586 -0.5434 -0.4322  0.2632
  911SOL    HW1 3642   2.442   2.190   1.648 -3.6962 -0.5963  2.1185
  911SOL    HW2 3643   2.412   2.205   1.504  0.4256  1.1492  3.3567
  911SOL     MW 3644   2.387   2.198   1.584 -0.8315 -0.2452  0.9161
  912SOL     OW 3645   2.930   1.845   1.449 -0.2253 -0.0645  0.0355
  912SOL    HW1 3646   2.944   1.888   1.357 -1.5912  1.3464 -0.3949
  912SOL    HW2 3647   2.842   1.876   1.478 -0.0770  2.1628  4.0358
  912SOL     MW 3648   2.920   1.855   1.441 -0.3859  0.4155  0.5065
  913SOL     OW 3649   2.689   3.095   0.318  0.3241 -0.2451  0.3781
  913SOL    HW1 3650   2.768   3.048   0.325 -1.6666 -0.9240  1.0654
  913SOL    HW2 3651   2.635   3.033   0.272  1.8621  0.1307  1.5926
  913SOL     MW 3652   2.692   3.081   0.313  0.2644 -0.2851  0.6290
  914SOL     OW 3653   2.646   1.776   3.063  0.0989  0.3085  0.2788
  914SOL    HW1 3654   2.682   1.867   3.059  0.1250 -0.3747  1.0186
  914SOL    HW2 3655   2.566   1.787   3.015  1.2488 -2.0473  2.1762
  914SOL     MW 3656   2.640   1.789   3.056  0.2540 -0.0925  0.6267
  915SOL     OW 3657   1.808   0.112   0.170  0.3677 -0.6084  0.1986
  915SOL    HW1 3658   1.873   0.040   0.207  1.9462  0.5097 -0.9315
  915SOL    HW2 3659   1.724   0.066   0.182  0.9519  1.1389  0.1154
  915SOL     MW 3660   1.806   0.097   0.177  0.6531 -0.2303  0.0385
  916SOL     OW 3661   1.784   2.109   1.985  0.0906 -0.8606 -0.1047
  916SOL    HW1 3662   1.827   2.191   1.964  0.1147 -1.8626 -0.7965
  916SOL    HW2 3663   1.808   2.055   1.907 -1.7988 -0.1074  0.1769
  916SOL     MW 3664   1.793   2.113   1.972 -0.1555 -0.8934 -0.1588
  917SOL     OW 3665   2.507   2.196   2.530 -0.2358 -0.1000 -0.0603
  917SOL    HW1 3666   2.495   2.260   2.602  0.7811  1.2019  3.0868
  917SOL    HW2 3667   2.584   2.225   2.484 -0.7320  3.3788 -2.7646
  917SOL     MW 3668   2.516   2.208   2.533 -0.1671  0.5307 -0.0018
  918SOL     OW 3669   2.025   1.597   2.673  0.1402 -0.3354  0.1694
  918SOL    HW1 3670   1.951   1.606   2.608  0.9586 -0.6700 -1.2013
  918SOL    HW2 3671   2.088   1.670   2.662 -3.6684  0.3196  0.2931
  918SOL     MW 3672   2.024   1.608   2.663 -0.2543 -0.2932  0.0049
  919SOL     OW 3673   3.052   2.394   2.276 -0.2929  0.1244 -0.8906
  919SOL    HW1 3674   2.978   2.359   2.235  3.1201 -1.1604 -0.1858
  919SOL    HW2 3675   3.117   2.394   2.204  1.5397 -0.1371 -1.7829
  919SOL     MW 3676   3.051   2.389   2.261  0.3992 -0.0796 -0.9154
  920SOL     OW 3677   2.593   2.876   3.030  0.2973  0.0763 -0.1033
  920SOL    HW1 3678   2.506   2.833   3.029  0.4802  2.2312  2.2470
  920SOL    HW2 3679   2.648   2.807   2.998 -0.3615 -0.8616  0.1797
  920SOL     MW 3680   2.589   2.861   3.026  0.2345  0.2369  0.2442
  921SOL     OW 3681   2.406   2.586   2.589  0.0384  0.1927 -0.2621
  921SOL    HW1 3682   2.466   2.588   2.515 -3.9217  0.2427 -3.0688
  921SOL    HW2 3683   2.430   2.512   2.643  0.1171  0.7481 -2.7206
  921SOL     MW 3684   2.417   2.577   2.586 -0.4737  0.2726 -0.9568
  922SOL     OW 3685   2.095   2.651   0.407  0.5755  0.1966  0.2104
  922SOL    HW1 3686   2.122   2.659   0.314  3.9737 -2.3822 -2.4289
  922SOL    HW2 3687   2.138   2.570   0.424 -2.2392  3.1832 -0.0204
  922SOL     MW 3688   2.104   2.641   0.397  0.6525  0.2504 -0.1683
  923SOL     OW 3689   2.218   2.846   1.647 -0.3014 -0.7524 -0.3757
  923SOL    HW1 3690   2.270   2.780   1.599 -0.0855 -0.3796  1.5737
  923SOL    HW2 3691   2.160   2.898   1.588 -0.2137 -3.2462 -1.4271
  923SOL     MW 3692   2.217   2.844   1.633 -0.2613 -1.0322 -0.2572
  924SOL     OW 3693   1.069   2.726   2.601  0.3949 -0.0095 -0.3722
  924SOL    HW1 3694   1.165   2.737   2.603 -0.3701 -0.0082 -2.4817
  924SOL    HW2 3695   1.051   2.654   2.663 -2.1686 -1.1672  0.6011
  924SOL     MW 3696   1.080   2.718   2.610 -0.0443 -0.1621 -0.5221
  925SOL     OW 3697   2.972   0.152   2.634 -0.8929 -0.0112  0.4904
  925SOL    HW1 3698   2.895   0.144   2.574 -2.3768  0.3770 -3.2391
  925SOL    HW2 3699   2.947   0.228   2.692  1.4183  0.4798 -1.8786
  925SOL     MW 3700   2.959   0.161   2.634 -0.7838  0.1048 -0.3143
  926SOL     OW 3701   2.791   2.410   1.954 -0.2298 -0.0464  0.1484
  926SOL    HW1 3702   2.820   2.488   1.999 -0.1268  2.2643  1.5179
  926SOL    HW2 3703   2.829   2.413   1.865  0.4549 -0.2946  0.3499
  926SOL     MW 3704   2.800   2.421   1.948 -0.1259  0.2257  0.3557
  927SOL     OW 3705   2.359   0.116   0.298  0.1774 -0.1262 -0.1649
  927SOL    HW1 3706   2.450   0.113   0.321 -0.0553  0.6857  3.6564
  927SOL    HW2 3707   2.355   0.089   0.204 -0.2238  0.5416  1.7659
  927SOL     MW 3708   2.371   0.112   0.288  0.0938  0.0690  0.5940
  928SOL     OW 3709   2.174   2.334   1.859  0.0901  0.1049 -0.2937
  928SOL    HW1 3710   2.175   2.390   1.780  2.4889 -0.3688  1.7036
  928SOL    HW2 3711   2.193   2.396   1.929  0.2510  3.9380 -1.9966
  928SOL     MW 3712   2.177   2.350   1.858  0.4278  0.5481 -0.2549
  929SOL     OW 3713   2.715   2.356   2.419 -0.5063  0.5264 -0.5355
  929SOL    HW1 3714   2.736   2.310   2.336  2.1255 -1.6867  1.1178
  929SOL    HW2 3715   2.783   2.325   2.482  0.6334 -0.9691  1.8630
  929SOL     MW 3716   2.727   2.346   2.417 -0.0087  0.0371 -0.0009
  930SOL     OW 3717   2.046   2.830   2.684  0.1021 -0.4662  0.6742
  930SOL    HW1 3718   2.058   2.745   2.720 -0.3021 -2.2210 -0.6700
  930SOL    HW2 3719   2.132   2.878   2.689  1.3029  0.7501 -1.8576
  930SOL     MW 3720   2.059   2.825   2.690  0.2072 -0.5372  0.1628
  931SOL     OW 3721   0.032   2.761   2.460 -0.1949 -0.1368  0.5261
  931SOL    HW1 3722  -0.004   2.821   2.536  0.7379  1.1069  1.4976
  931SOL    HW2 3723   0.127   2.781   2.449 -1.5499  0.6947  1.9982
  931SOL     MW 3724   0.040   2.771   2.468 -0.2506  0.1370  0.8485
  932SOL     OW 3725   2.755   2.034   2.451 -0.1124 -0.5029  0.1098
  932SOL    HW1 3726   2.839   2.081   2.464 -1.0089 -0.5745  0.7362
  932SOL    HW2 3727   2.752   2.006   2.361  0.6077  2.3047 -0.2624
  932SOL     MW 3728   2.765   2.037   2.441 -0.1357 -0.1419  0.1434
  933SOL     OW 3729   2.091   2.780   2.226 -0.2501  0.3357  0.3581
  933SOL    HW1 3730   2.142   2.821   2.293 -1.6535 -0.8952  2.6017
  933SOL    HW2 3731   2.018   2.847   2.199  3.8434  3.1110 -0.2058
  933SOL     MW 3732   2.088   2.794   2.232  0.1049  0.5394  0.5797
  934SOL     OW 3733   2.003   2.657   2.455 -0.2677 -0.2241  0.0548
  934SOL    HW1 3734   2.015   2.727   2.513 -0.3361  1.1771  2.2943
  934SOL    HW2 3735   2.018   2.695   2.368  1.5090  0.3458 -0.8933
  934SOL     MW 3736   2.007   2.671   2.451 -0.0423  0.0360  0.2252
  935SOL     OW 3737   2.649   1.519   1.824  0.2146  0.6564  0.1047
  935SOL    HW1 3738   2.740   1.493   1.803  1.6667  0.5049  1.1362
  935SOL    HW2 3739   2.604   1.516   1.740  1.9644 -0.3269  0.2590
  935SOL     MW 3740   2.655   1.515   1.810  0.6370  0.5067  0.2612
  936SOL     OW 3741   2.930   2.218   0.027  0.5760 -0.0774  0.4138
  936SOL    HW1 3742   2.994   2.264   0.086 -2.2706  0.0160 -0.6248
  936SOL    HW2 3743   2.848   2.263   0.019 -2.0252  0.6905 -2.7341
  936SOL     MW 3744   2.927   2.230   0.034 -0.1428  0.0362 -0.1386
  937SOL     OW 3745   1.941   2.114   2.622  1.0857 -0.3352  0.6935
  937SOL    HW1 3746   2.022   2.104   2.676  0.7501  0.4699  0.4191
  937SOL    HW2 3747   1.965   2.127   2.529  0.0391  0.9257 -0.3874
  937SOL     MW 3748   1.955   2.114   2.617  0.9034 -0.0626  0.5147
  938SOL     OW 3749   2.219   1.824   1.834 -0.1900  0.1431  0.0295
  938SOL    HW1 3750   2.271   1.865   1.772  1.3510  2.5684  2.3999
  938SOL    HW2 3751   2.241   1.867   1.914  1.0253 -1.9851 -2.2055
  938SOL     MW 3752   2.228   1.835   1.836  0.1737  0.1823  0.0473
  939SOL     OW 3753   2.767   1.979   2.133 -0.3342  0.2243 -0.9760
  939SOL    HW1 3754   2.817   1.937   2.062 -1.7911 -1.4357 -1.1659
  939SOL    HW2 3755   2.680   1.945   2.140 -0.6017  0.0583 -0.3139
  939SOL     MW 3756   2.762   1.969   2.124 -0.5617 -0.0166 -0.9137
  940SOL     OW 3757   2.214   0.085   2.774 -0.2783  0.3070  0.0784
  940SOL    HW1 3758   2.254   0.002   2.735 -2.0615 -1.2569  1.6200
  940SOL    HW2 3759   2.270   0.133   2.834 -1.5263 -0.9569 -0.1363
  940SOL     MW 3760   2.227   0.080   2.777 -0.6782 -0.0661  0.2535
  941SOL     OW 3761   0.105   2.439   2.035 -0.4712 -0.5024 -0.7548
  941SOL    HW1 3762   0.195   2.387   2.028 -0.9547 -2.9817  0.2935
  941SOL    HW2 3763   0.078   2.461   1.947 -0.7258  1.8164 -2.3343
  941SOL     MW 3764   0.114   2.435   2.023 -0.5686 -0.5236 -0.8249
  942SOL     OW 3765   2.789   2.260   2.193  0.2635 -0.0702 -0.0169
  942SOL    HW1 3766   2.773   2.306   2.106 -1.3934 -2.7981  3.7084
  942SOL    HW2 3767   2.791   2.163   2.181 -3.1282  2.3097  1.2555
  942SOL     MW 3768   2.787   2.254   2.180 -0.4026 -0.1161  0.6425
  943SOL     OW 3769   0.354   2.185   2.285  0.2199  0.3984  0.3093
  943SOL    HW1 3770   0.270   2.213   2.324 -3.0576 -0.1337  0.2294
  943SOL    HW2 3771   0.409   2.145   2.353  0.1051  0.5984  0.5570
  943SOL     MW 3772   0.350   2.183   2.299 -0.2277  0.3546  0.3315
  944SOL     OW 3773   2.124   2.680   1.976 -0.0100  0.0936 -0.3567
  944SOL    HW1 3774   2.208   2.648   2.007  0.8032  1.3757  1.8548
  944SOL    HW2 3775   2.078   2.705   2.064  1.0613  1.5172 -0.5175
  944SOL     MW 3776   2.129   2.679   1.992  0.2387  0.4506 -0.0861
  945SOL     OW 3777   2.749   2.673   2.888  0.1513 -0.0544 -0.1109
  945SOL    HW1 3778   2.727   2.573   2.861 -0.3546 -0.0018 -0.0884
  945SOL    HW2 3779   2.735   2.725   2.804 -0.4253  0.2074  1.0388
  945SOL     MW 3780   2.744   2.667   2.873  0.0085 -0.0129  0.0438
  946SOL     OW 3781   2.461   2.711   2.229  0.5904 -0.2090 -0.6992
  946SOL    HW1 3782   2.495   2.750   2.157 -1.9678 -2.5569  3.1409
  946SOL    HW2 3783   2.416   2.631   2.191  0.7728  0.8620  0.2969
  946SOL     MW 3784   2.460   2.705   2.215  0.2769 -0.3775 -0.0611
  947SOL     OW 3785   2.032   3.035   0.197 -0.0953  0.3905  0.0091
  947SOL    HW1 3786   2.014   2.940   0.196 -3.0979 -2.6930 -0.2275
  947SOL    HW2 3787   2.076   3.046   0.286 -0.4421  3.2344 -0.2707
  947SOL     MW 3788   2.036   3.024   0.209 -0.5372  0.3589 -0.0590
  948SOL     OW 3789   1.821   3.032   2.625  0.1767 -0.1475 -0.1979
  948SOL    HW1 3790   1.883   2.958   2.613  0.0436 -1.1109 -0.4996
  948SOL    HW2 3791   1.794   3.054   2.533 -1.8659 -0.2132 -0.4160
  948SOL     MW 3792   1.826   3.025   2.611 -0.1104 -0.2833 -0.2665
  949SOL     OW 3793   2.518   1.896   2.203  0.3166 -0.0718 -0.5972
  949SOL    HW1 3794   2.510   1.817   2.259 -0.1837 -0.1125  0.2217
  949SOL    HW2 3795   2.487   1.971   2.256 -2.1213  0.1618 -0.7673
  949SOL     MW 3796   2.513   1.895   2.217 -0.0710 -0.0463 -0.5116
  950SOL     OW 3797   2.276   2.445   2.948 -0.2703 -0.2943  0.2672
  950SOL    HW1 3798   2.337   2.424   2.879 -2.4261 -2.4921 -0.0205
  950SOL    HW2 3799   2.195   2.470   2.902 -1.9379  2.0408 -1.0453
  950SOL     MW 3800   2.273   2.445   2.933 -0.7747 -0.2762  0.0561
  951SOL     OW 3801   3.029   2.228   2.860  0.4610  0.0256 -0.0358
  951SOL    HW1 3802   2.995   2.227   2.946  1.5076  2.0196 -2.0290
  951SOL    HW2 3803   3.108   2.171   2.867 -0.5004 -3.3553 -0.8575
  951SOL     MW 3804   3.035   2.220   2.872  0.4723 -0.1574 -0.4072
  952SOL     OW 3805   3.069   1.730   2.117  0.2260 -0.3964  0.0072
  952SOL    HW1 3806   3.041   1.779   2.036  0.2104  0.2075 -1.2341
  952SOL    HW2 3807   3.140   1.786   2.156  0.1129 -0.4738 -0.6631
  952SOL     MW 3808   3.074   1.744   2.111  0.2090 -0.3269 -0.2450
  953SOL     OW 3809   1.896   1.769   2.858 -0.1621 -0.2029 -0.6461
  953SOL    HW1 3810   1.855   1.721   2.935 -1.7585  0.9774  0.2234
  953SOL    HW2 3811   1.943   1.697   2.816 -1.5622 -0.4901 -1.2330
  953SOL     MW 3812   1.897   1.753   2.863 -0.5574 -0.0851 -0.6088
  954SOL     OW 3813   2.408   2.089   2.831 -0.1349 -0.5853 -0.4643
  954SOL    HW1 3814   2.321   2.071   2.792  0.8655 -0.1159 -2.0553
  954SOL    HW2 3815   2.474   2.056   2.761  1.4472  2.9424 -2.0370
  954SOL     MW 3816   2.405   2.083   2.816  0.2059 -0.0579 -0.8817
  955SOL     OW 3817   1.524   1.559   2.578 -1.1189 -0.0558 -0.3128
  955SOL    HW1 3818   1.493   1.534   2.495 -1.8331  1.6780  5.3890
  955SOL    HW2 3819   1.621   1.560   2.572 -0.9384  1.7638 -1.2455
  955SOL     MW 3820   1.532   1.556   2.566 -1.1893  0.4130  0.3164
  956SOL     OW 3821   2.681   2.403   2.814  0.4301 -0.2988  0.2987
  956SOL    HW1 3822   2.679   2.364   2.902 -0.3728  0.8741 -0.8687
  956SOL    HW2 3823   2.757   2.374   2.761 -5.6737 -1.7319 -4.7218
  956SOL     MW 3824   2.691   2.394   2.819 -0.4812 -0.3331 -0.5178
  957SOL     OW 3825   2.279   2.839   0.531  0.1361 -0.1591 -0.0031
  957SOL    HW1 3826   2.208   2.783   0.494 -1.5143  0.5659 -2.9877
  957SOL    HW2 3827   2.301   2.806   0.614  1.4595  2.3380 -2.6315
  957SOL     MW 3828   2.273   2.827   0.537  0.0930  0.2660 -0.7437
  958SOL     OW 3829   2.060   2.576   2.843 -0.3743  0.6798 -0.3192
  958SOL    HW1 3830   2.020   2.506   2.792  1.3206  3.8216 -0.5038
  958SOL    HW2 3831   2.020   2.560   2.931 -0.7750  1.3943  0.0197
  958SOL     MW 3832   2.049   2.565   2.848 -0.2036  1.1886 -0.2989
  959SOL     OW 3833   2.537   2.760   0.428 -0.3562  0.2255  0.1766
  959SOL    HW1 3834   2.543   2.812   0.342  0.0453 -0.9800  0.6746
  959SOL    HW2 3835   2.452   2.780   0.462 -0.0475 -1.9324  0.5145
  959SOL     MW 3836   2.527   2.770   0.421 -0.2625 -0.2183  0.2869
  960SOL     OW 3837   1.887   2.380   2.317 -0.5161 -0.4857  0.3375
  960SOL    HW1 3838   1.918   2.294   2.350  1.5283 -1.6116  0.4034
  960SOL    HW2 3839   1.810   2.404   2.368 -2.0029  3.3681  0.6086
  960SOL     MW 3840   1.881   2.372   2.328 -0.4425 -0.1258  0.3820
  961SOL     OW 3841   2.212   2.334   2.243 -0.3487 -0.4309 -0.2972
  961SOL    HW1 3842   2.121   2.325   2.215  0.0766  1.0880  1.3181
  961SOL    HW2 3843   2.190   2.381   2.330 -0.7002 -0.3083  0.9690
  961SOL     MW 3844   2.197   2.339   2.251 -0.3390 -0.2143  0.0830
  962SOL     OW 3845   2.157   2.030   2.767 -0.0120  0.0824 -0.2577
  962SOL    HW1 3846   2.128   2.007   2.853 -3.1561  3.1046 -2.7552
  962SOL    HW2 3847   2.161   1.957   2.700 -0.7501 -0.0717  1.9024
  962SOL     MW 3848   2.153   2.018   2.770 -0.5243  0.4608 -0.3022
  963SOL     OW 3849   1.842   2.533   2.094 -0.0980  0.1071 -0.1426
  963SOL    HW1 3850   1.873   2.472   2.163 -1.5494 -1.0481  0.6088
  963SOL    HW2 3851   1.835   2.477   2.018 -0.0478  0.5554  1.5276
  963SOL     MW 3852   1.845   2.518   2.093 -0.2829  0.0138  0.1769
  964SOL     OW 3853   1.777   1.892   2.629 -0.2179 -0.0002 -0.3109
  964SOL    HW1 3854   1.821   1.977   2.620 -3.5197 -1.8252 -0.4642
  964SOL    HW2 3855   1.820   1.848   2.703 -2.1375 -0.0002  2.0161
  964SOL     MW 3856   1.788   1.897   2.638 -0.9068 -0.2410 -0.0241
  965SOL     OW 3857   2.129   2.564   0.877 -0.5623 -0.3554  0.1864
  965SOL    HW1 3858   2.159   2.517   0.801 -1.2433 -0.8052  0.3421
  965SOL    HW2 3859   2.126   2.656   0.856 -0.6166 -1.5874  1.2390
  965SOL     MW 3860   2.133   2.570   0.864 -0.6593 -0.5773  0.3458
  966SOL     OW 3861   2.650   2.614   2.406 -0.1482 -0.2005 -0.2971
  966SOL    HW1 3862   2.610   2.646   2.327 -0.0923  1.3047  3.3941
  966SOL    HW2 3863   2.654   2.517   2.412 -2.0270  0.2177  1.7474
  966SOL     MW 3864   2.646   2.605   2.397 -0.3887  0.0533  0.4597
  967SOL     OW 3865   2.655   0.040   0.008 -0.1294 -0.1129  0.1266
  967SOL    HW1 3866   2.655  -0.040  -0.046 -0.9379  1.4364  3.5503
  967SOL    HW2 3867   2.620   0.100  -0.061  0.8467  2.0182 -0.2862
  967SOL     MW 3868   2.651   0.037  -0.008 -0.1073  0.3727  0.5239
  968SOL     OW 3869   3.014   2.633   2.937 -0.3729 -0.9165 -0.0496
  968SOL    HW1 3870   2.922   2.649   2.909 -1.5667  2.0493  1.4664
  968SOL    HW2 3871   3.059   2.599   2.858  2.8753 -2.0534 -0.0892
  968SOL     MW 3872   3.007   2.631   2.923 -0.1018 -0.6752  0.1452
  969SOL     OW 3873   1.587   2.097   1.725  0.3568 -0.1187  0.0502
  969SOL    HW1 3874   1.667   2.046   1.722  0.9097  2.7680  0.7251
  969SOL    HW2 3875   1.558   2.102   1.818  0.0005  0.6246 -2.3929
  969SOL     MW 3876   1.594   2.091   1.737  0.3828  0.3603 -0.1831
  970SOL     OW 3877   1.742   1.778   1.861  0.0208 -0.7982  0.0272
  970SOL    HW1 3878   1.785   1.696   1.891  1.9734 -1.0712  1.2805
  970SOL    HW2 3879   1.654   1.784   1.895  1.9289 -1.3251  0.5318
  970SOL     MW 3880   1.736   1.768   1.870  0.5301 -0.9037  0.2592
  971SOL     OW 3881   1.771   0.004   2.361  0.4359 -0.0134  0.0185
  971SOL    HW1 3882   1.791  -0.067   2.295 -0.5358 -0.5974 -1.8396
  971SOL    HW2 3883   1.819   0.079   2.330  0.0913 -2.4723  0.4189
  971SOL     MW 3884   1.780   0.005   2.348  0.2623 -0.4149 -0.1739
  972SOL     OW 3885   0.293   2.836   2.424 -0.2444  0.6602  0.5181
  972SOL    HW1 3886   0.341   2.773   2.474 -0.8224  1.1744 -2.2856
  972SOL    HW2 3887   0.333   2.923   2.446 -0.5494  0.1767 -0.9475
  972SOL     MW 3888   0.304   2.839   2.434 -0.3609  0.6643 -0.0452
  973SOL     OW 3889   2.623   3.030   2.154 -0.0119  0.5054 -0.1706
  973SOL    HW1 3890   2.603   2.956   2.089  1.0779  1.1428  0.6050
  973SOL    HW2 3891   2.644   3.109   2.104  1.0489 -0.5112  0.8079
  973SOL     MW 3892   2.623   3.031   2.139  0.2719  0.4554  0.0609
  974SOL     OW 3893   2.010   0.142   2.610 -0.0593  0.1975  0.1244
  974SOL    HW1 3894   2.087   0.124   2.666 -1.1496  1.2688 -1.7129
  974SOL    HW2 3895   1.941   0.083   2.640  0.2497  0.0799  1.4529
  974SOL     MW 3896   2.011   0.132   2.621 -0.1624  0.3233  0.0573
  975SOL     OW 3897   2.165   2.448   2.499 -0.3252 -0.6524 -0.3517
  975SOL    HW1 3898   2.235   2.497   2.540 -0.5617  2.6357  0.0146
  975SOL    HW2 3899   2.093   2.505   2.469 -1.4003 -0.7442  0.5966
  975SOL     MW 3900   2.165   2.462   2.500 -0.4983 -0.2307 -0.1783
  976SOL     OW 3901   0.159   0.352   1.602  0.1105  0.2297  0.2880
  976SOL    HW1 3902   0.223   0.280   1.601 -3.1242 -1.6551  1.3182
  976SOL    HW2 3903   0.079   0.298   1.600 -0.7691  0.1307 -0.2784
  976SOL     MW 3904   0.157   0.335   1.601 -0.4323 -0.0321  0.3492
  977SOL     OW 3905   1.750   2.742   2.392 -0.3686 -0.0295  0.0590
  977SOL    HW1 3906   1.827   2.696   2.432  1.6386  0.4051  2.7306
  977SOL    HW2 3907   1.753   2.832   2.428  1.9740  1.0370  1.3017
  977SOL     MW 3908   1.761   2.748   2.402  0.2053  0.1686  0.5755
   3.10000   3.10000   3.10000
