977 TIP4P/2005f water molecules t=   1.58000 step= 1580
 3908
    1SOL     OW    1   0.404   0.824   0.098  0.0707 -0.4723  0.1397
    1SOL    HW1    2   0.354   0.811   0.018  0.7132  2.9310  1.5587
    1SOL    HW2    3   0.407   0.731   0.127  2.6208 -0.2438  1.5858
    1SOL     MW    4   0.398   0.810   0.091  0.4919  0.0069  0.5177
    2SOL     OW    5   0.323   3.025   1.071  0.0502 -0.1134 -0.4051
    2SOL    HW1    6   0.376   3.109   1.060  0.5458 -0.4617 -3.9322
    2SOL    HW2    7   0.241   3.054   1.108  0.6740 -1.9714  1.0663
    2SOL     MW    8   0.319   3.040   1.074  0.1979 -0.4045 -0.6764
    3SOL     OW    9   2.632   0.337   0.965  0.0718  0.6633 -0.2206
    3SOL    HW1   10   2.700   0.393   0.939 -1.2717 -4.6193  1.2000
    3SOL    HW2   11   2.608   0.365   1.053 -0.5680 -1.2649  0.3762
    3SOL     MW   12   2.638   0.348   0.973 -0.1899 -0.2881  0.0455
    4SOL     OW   13   2.997   1.714   0.526 -0.2455 -0.3183  0.1905
    4SOL    HW1   14   2.920   1.768   0.510  2.2025  0.6229 -1.1273
    4SOL    HW2   15   3.051   1.698   0.444  1.7842 -2.7838  0.1007
    4SOL     MW   16   2.994   1.719   0.513  0.3453 -0.5194  0.0048
    5SOL     OW   17   1.647   1.405   0.629 -0.3406  0.1153  0.5647
    5SOL    HW1   18   1.685   1.382   0.708  0.7592 -1.9915  0.1095
    5SOL    HW2   19   1.570   1.460   0.641 -0.1606 -1.4214  0.9702
    5SOL     MW   20   1.642   1.409   0.641 -0.1717 -0.3654  0.5581
    6SOL     OW   21   0.791   1.441   0.600  0.4538 -0.2795 -0.4026
    6SOL    HW1   22   0.696   1.444   0.571 -1.0962  0.3844  1.1961
    6SOL    HW2   23   0.814   1.358   0.634 -2.3330  0.6046 -0.5975
    6SOL     MW   24   0.781   1.430   0.601 -0.1184 -0.0752 -0.2174
    7SOL     OW   25   1.932   1.040   0.025 -0.2663  0.4585 -0.2042
    7SOL    HW1   26   1.942   1.131  -0.006 -1.7358 -1.7392  0.2060
    7SOL    HW2   27   1.939   1.041   0.124 -1.7579 -1.6210  0.8658
    7SOL     MW   28   1.934   1.052   0.034 -0.6570 -0.1058 -0.0089
    8SOL     OW   29   0.786   1.478   1.132 -0.0396 -0.2947 -0.5570
    8SOL    HW1   30   0.879   1.479   1.119  0.3770  3.5182 -1.5070
    8SOL    HW2   31   0.788   1.399   1.186  0.5365 -0.0828  0.5164
    8SOL     MW   32   0.798   1.468   1.138  0.0914  0.2363 -0.5407
    9SOL     OW   33   0.983   0.476   1.339 -0.4599 -0.2928  0.8904
    9SOL    HW1   34   0.911   0.414   1.317 -2.5330 -1.6670 -1.0763
    9SOL    HW2   35   1.039   0.446   1.414 -0.6586  1.6554 -1.3266
    9SOL     MW   36   0.981   0.464   1.346 -0.7596 -0.2170  0.3384
   10SOL     OW   37   0.283   0.865   0.484 -0.0664  0.3963 -0.2470
   10SOL    HW1   38   0.380   0.882   0.491  0.7557 -0.6183 -1.9488
   10SOL    HW2   39   0.254   0.906   0.565 -0.1070 -1.1451  0.0363
   10SOL     MW   40   0.292   0.872   0.496  0.0367  0.0590 -0.4342
   11SOL     OW   41   0.773   1.132   1.519 -0.5764  0.1148 -1.0092
   11SOL    HW1   42   0.847   1.139   1.581 -1.2082 -2.2766 -2.4148
   11SOL    HW2   43   0.792   1.051   1.468  3.0523  2.2588  1.0054
   11SOL     MW   44   0.785   1.122   1.521 -0.1810  0.0822 -0.9288
   12SOL     OW   45   3.064   1.102   0.874  0.1998  0.0423  0.2068
   12SOL    HW1   46   3.123   1.171   0.905  0.0538  1.0878 -2.7463
   12SOL    HW2   47   3.004   1.147   0.807  0.9280 -1.4895 -0.5621
   12SOL     MW   48   3.064   1.117   0.869  0.2766 -0.0219 -0.2843
   13SOL     OW   49   1.821   1.430   1.273 -0.9591 -0.2846  0.1171
   13SOL    HW1   50   1.851   1.370   1.210 -1.3738  0.8085  0.1877
   13SOL    HW2   51   1.849   1.522   1.249  2.4732  0.7812  0.3303
   13SOL     MW   52   1.828   1.434   1.261 -0.5609  0.0002  0.1545
   14SOL     OW   53   0.516   0.354   1.810 -0.1563 -0.1486 -0.9702
   14SOL    HW1   54   0.455   0.282   1.790  1.3253 -0.0118  2.8983
   14SOL    HW2   55   0.518   0.410   1.730 -1.1781  0.0708  0.8777
   14SOL     MW   56   0.508   0.352   1.797 -0.0956 -0.1016 -0.2160
   15SOL     OW   57   1.993   0.406   1.034 -0.0862  0.5496 -0.6809
   15SOL    HW1   58   1.976   0.487   1.083  3.3593  0.9061  0.1797
   15SOL    HW2   59   2.025   0.417   0.943  0.1777  0.4437 -2.6048
   15SOL     MW   60   1.995   0.418   1.029  0.4032  0.5827 -0.8212
   16SOL     OW   61   0.284   1.824   0.281  0.3028 -0.3526  0.4942
   16SOL    HW1   62   0.364   1.787   0.317  0.3975 -1.1238  2.7457
   16SOL    HW2   63   0.274   1.920   0.301  0.9193 -0.6502 -3.5925
   16SOL     MW   64   0.293   1.832   0.288  0.3966 -0.4936  0.2520
   17SOL     OW   65   1.108   0.903   1.429 -0.2208 -0.3104  0.1695
   17SOL    HW1   66   1.115   0.890   1.522  0.6428 -0.1558  2.6263
   17SOL    HW2   67   1.016   0.908   1.403  0.2647 -0.8203  1.6946
   17SOL     MW   68   1.097   0.902   1.438 -0.0428 -0.3573  0.6949
   18SOL     OW   69   0.122   1.635   0.340 -0.4640  0.7006  0.2988
   18SOL    HW1   70   0.200   1.698   0.323  2.6558  0.9366  2.1172
   18SOL    HW2   71   0.103   1.601   0.254 -0.2638 -0.8066 -2.4750
   18SOL     MW   72   0.130   1.639   0.326 -0.0260  0.5329  0.1727
   19SOL     OW   73   0.088   1.330   0.954 -0.4276 -0.6081  0.4833
   19SOL    HW1   74   0.134   1.351   0.868 -2.9819 -1.4925  1.4964
   19SOL    HW2   75   0.007   1.376   0.942  0.0252  2.1381 -3.4316
   19SOL     MW   76   0.084   1.339   0.941 -0.7049 -0.3625  0.1004
   20SOL     OW   77   0.442   2.112   1.275 -0.1087 -0.0164  0.4673
   20SOL    HW1   78   0.378   2.049   1.230 -1.6521 -1.1636  0.4936
   20SOL    HW2   79   0.402   2.110   1.363  0.5341 -0.7246 -0.9732
   20SOL     MW   80   0.428   2.104   1.281 -0.2275 -0.2612  0.2807
   21SOL     OW   81   0.560   0.855   0.427  0.2596 -0.1907 -0.1828
   21SOL    HW1   82   0.620   0.844   0.506  1.5734  0.6764  2.3467
   21SOL    HW2   83   0.627   0.901   0.368  2.1698 -0.1666  1.2416
   21SOL     MW   84   0.577   0.860   0.430  0.6850 -0.0731  0.3388
   22SOL     OW   85   1.540   0.709   1.008 -0.2480  0.3850  0.3727
   22SOL    HW1   86   1.539   0.679   0.921  1.2600 -0.5455  1.5837
   22SOL    HW2   87   1.456   0.745   1.023  0.1304 -1.2602 -2.1186
   22SOL     MW   88   1.529   0.710   0.999  0.0009  0.0451  0.2038
   23SOL     OW   89   3.085   0.780   0.700 -0.1261  0.7836  0.6332
   23SOL    HW1   90   3.132   0.720   0.762  1.6481  0.7963 -0.5810
   23SOL    HW2   91   3.148   0.851   0.696  0.9615 -0.9527  2.2919
   23SOL     MW   92   3.100   0.781   0.708  0.2515  0.5562  0.6918
   24SOL     OW   93   2.089   2.194   0.024 -0.0567  0.4325  0.7096
   24SOL    HW1   94   2.099   2.189   0.119  0.7251  3.2069 -1.2046
   24SOL    HW2   95   2.073   2.102  -0.002 -1.4523 -0.1771 -2.1568
   24SOL     MW   96   2.089   2.181   0.033 -0.1377  0.7182  0.0789
   25SOL     OW   97   0.183   1.396   0.433 -0.1362  0.5353 -0.2252
   25SOL    HW1   98   0.164   1.487   0.404 -0.5982  0.1117  3.5109
   25SOL    HW2   99   0.260   1.379   0.385 -3.4324  0.4626 -2.4359
   25SOL     MW  100   0.191   1.406   0.423 -0.6321  0.4698 -0.0239
   26SOL     OW  101   1.991   1.020   0.308 -0.3702  0.2669 -0.1876
   26SOL    HW1  102   1.935   1.080   0.362  2.8574  2.4955  0.3908
   26SOL    HW2  103   2.064   1.082   0.284 -1.2575 -1.2181  0.6380
   26SOL     MW  104   1.993   1.036   0.312 -0.0615  0.3650 -0.0023
   27SOL     OW  105   1.891   1.351   0.163 -0.2405  0.2830 -1.0941
   27SOL    HW1  106   1.818   1.408   0.193 -1.6489  2.2087 -2.4776
   27SOL    HW2  107   1.948   1.345   0.240  0.7932  2.4431 -0.3529
   27SOL     MW  108   1.889   1.358   0.177 -0.2900  0.8221 -1.1788
   28SOL     OW  109   0.424   0.922   2.003  0.1347 -0.0232  0.1803
   28SOL    HW1  110   0.490   0.899   2.068  0.5220 -0.4752 -0.9917
   28SOL    HW2  111   0.339   0.907   2.032  2.7752  1.1285  1.3990
   28SOL     MW  112   0.422   0.917   2.015  0.5342  0.0691  0.1865
   29SOL     OW  113   0.228   1.390   0.720 -0.0548  0.5539  0.2857
   29SOL    HW1  114   0.208   1.485   0.734  0.8875 -1.6907  0.1627
   29SOL    HW2  115   0.213   1.394   0.625 -2.8845 -1.2120  0.3602
   29SOL     MW  116   0.223   1.403   0.709 -0.3038  0.0248  0.2793
   30SOL     OW  117   0.777   1.223   1.249 -0.3069 -0.8469 -0.1235
   30SOL    HW1  118   0.695   1.190   1.285 -2.6567  1.0868 -2.4664
   30SOL    HW2  119   0.842   1.201   1.311 -0.3039  1.6314  1.2784
   30SOL     MW  120   0.775   1.216   1.262 -0.6165 -0.2648 -0.2477
   31SOL     OW  121   0.491   0.300   0.186  0.0848  0.4530 -0.0507
   31SOL    HW1  122   0.505   0.226   0.242  1.0317  2.0945  1.5785
   31SOL    HW2  123   0.513   0.250   0.106 -0.8318 -0.1423  1.3552
   31SOL     MW  124   0.496   0.284   0.183  0.0888  0.5910  0.3497
   32SOL     OW  125   2.733   0.988   1.098  0.2820 -0.3507 -0.1405
   32SOL    HW1  126   2.673   0.917   1.081  0.1280 -4.3211 -0.1046
   32SOL    HW2  127   2.824   0.951   1.088 -1.0960  2.2370 -0.0311
   32SOL     MW  128   2.737   0.974   1.094  0.0799 -0.5331 -0.1213
   33SOL     OW  129   1.668   1.266   0.403 -0.0450 -0.7774 -0.4430
   33SOL    HW1  130   1.743   1.218   0.430 -0.4251  0.5910 -0.8670
   33SOL    HW2  131   1.655   1.310   0.491  1.4076  0.3512 -0.2247
   33SOL     MW  132   1.676   1.265   0.418  0.0965 -0.4479 -0.4701
   34SOL     OW  133   1.184   1.931   1.161 -0.7813  0.3610 -0.3168
   34SOL    HW1  134   1.092   1.962   1.186 -1.5650  0.2015 -2.1210
   34SOL    HW2  135   1.254   1.959   1.226  0.3116  0.5536  3.0486
   34SOL     MW  136   1.181   1.939   1.173 -0.7405  0.3653 -0.1108
   35SOL     OW  137   0.352   0.151   1.815 -0.4209  0.3486 -0.3629
   35SOL    HW1  138   0.397   0.107   1.887 -1.0752 -1.9616 -1.3305
   35SOL    HW2  139   0.360   0.097   1.737 -0.1938 -2.4650  1.7079
   35SOL     MW  140   0.359   0.138   1.814 -0.4773 -0.3274 -0.2173
   36SOL     OW  141   1.927   1.967   0.573 -0.0111  0.3649  0.3084
   36SOL    HW1  142   1.881   1.919   0.509  2.3551  0.9573 -0.0102
   36SOL    HW2  143   1.964   1.889   0.620 -2.3004 -0.3958 -0.0129
   36SOL     MW  144   1.926   1.950   0.571 -0.0009  0.3427  0.2240
   37SOL     OW  145   1.816   2.054   1.012 -0.4614 -0.1236 -0.6360
   37SOL    HW1  146   1.768   1.989   0.966  0.9846 -0.4575 -1.0902
   37SOL    HW2  147   1.756   2.098   1.071  0.0284  1.4562  1.9421
   37SOL     MW  148   1.802   2.052   1.014 -0.2060  0.0408 -0.3558
   38SOL     OW  149   2.860   0.958   0.155  0.1049  0.0955 -0.6429
   38SOL    HW1  150   2.882   0.942   0.249 -0.3205 -0.2501 -0.2607
   38SOL    HW2  151   2.939   0.937   0.108 -1.7686 -0.4145  1.9398
   38SOL     MW  152   2.874   0.953   0.161 -0.1984 -0.0174 -0.2518
   39SOL     OW  153   1.490   0.622   0.745  0.5291  0.9763 -0.3360
   39SOL    HW1  154   1.448   0.545   0.785  1.1207  2.0091 -0.8934
   39SOL    HW2  155   1.425   0.686   0.738 -1.0170 -2.5092  2.4456
   39SOL     MW  156   1.476   0.620   0.750  0.4031  0.6527 -0.0425
   40SOL     OW  157   1.252   1.863   0.248 -0.0530 -0.2273 -0.2583
   40SOL    HW1  158   1.314   1.796   0.280  0.7552 -2.2310 -0.8153
   40SOL    HW2  159   1.241   1.925   0.321  0.7400  1.4076 -0.5186
   40SOL     MW  160   1.259   1.862   0.262  0.1582 -0.2760 -0.3661
   41SOL     OW  161   0.530   0.571   1.593 -0.5551  0.6913 -0.8657
   41SOL    HW1  162   0.604   0.614   1.553 -0.7118 -3.6511  0.6990
   41SOL    HW2  163   0.455   0.616   1.567  1.2001  1.1766  2.0306
   41SOL     MW  164   0.529   0.583   1.584 -0.3442  0.1824 -0.2771
   42SOL     OW  165   1.240   2.973   1.948  0.1520  0.2853  0.3401
   42SOL    HW1  166   1.171   3.003   2.010 -3.6488 -2.1563  0.5605
   42SOL    HW2  167   1.276   2.900   1.998 -0.6232  1.0083 -0.2778
   42SOL     MW  168   1.235   2.967   1.962 -0.4517  0.0586  0.2877
   43SOL     OW  169   1.467   0.128   1.698 -0.2516 -0.6672  0.5035
   43SOL    HW1  170   1.533   0.112   1.629  1.2882  3.9385 -1.1521
   43SOL    HW2  171   1.388   0.079   1.683  0.3769 -1.1882  2.3462
   43SOL     MW  172   1.465   0.120   1.687  0.0345 -0.1283  0.5282
   44SOL     OW  173   1.251   0.794   1.065  0.2213  0.1796 -0.1631
   44SOL    HW1  174   1.243   0.888   1.082 -0.7593 -0.1585 -0.2450
   44SOL    HW2  175   1.243   0.762   1.157 -0.2179  0.4214  0.4146
   44SOL     MW  176   1.249   0.803   1.079  0.0339  0.1669 -0.0977
   45SOL     OW  177   1.281   0.820   0.757 -0.0221  0.4311 -0.4247
   45SOL    HW1  178   1.231   0.810   0.837  0.7670  1.0399  1.6200
   45SOL    HW2  179   1.213   0.788   0.698  0.6890  1.7471  0.4994
   45SOL     MW  180   1.266   0.814   0.759  0.1759  0.6851 -0.0330
   46SOL     OW  181   0.478   1.087   0.655 -0.4899  0.7615  0.3511
   46SOL    HW1  182   0.522   1.101   0.574  0.1134 -0.5182  2.0474
   46SOL    HW2  183   0.508   1.158   0.711  1.8954 -4.0215  0.9074
   46SOL     MW  184   0.488   1.098   0.652 -0.0956 -0.0384  0.6483
   47SOL     OW  185   0.133   2.046   1.880 -0.5483  0.3579 -0.1151
   47SOL    HW1  186   0.095   1.969   1.840 -2.1557  1.2452 -1.9285
   47SOL    HW2  187   0.095   2.039   1.974 -1.5644  1.3381  0.3554
   47SOL     MW  188   0.123   2.035   1.887 -0.8945  0.6043 -0.2923
   48SOL     OW  189   1.185   0.510   1.028  0.4266  0.2387 -0.3260
   48SOL    HW1  190   1.117   0.493   0.957  1.2648 -1.4882 -0.2868
   48SOL    HW2  191   1.213   0.602   1.024 -0.8910 -0.2409  1.7540
   48SOL     MW  192   1.179   0.520   1.018  0.3633 -0.0525 -0.0464
   49SOL     OW  193   1.663   0.664   1.549 -0.3742  0.4653  0.1320
   49SOL    HW1  194   1.715   0.624   1.623 -0.3767  0.5735 -0.8006
   49SOL    HW2  195   1.703   0.629   1.468 -1.0453 -2.3647  0.0522
   49SOL     MW  196   1.675   0.654   1.548 -0.4631  0.1062 -0.0015
   50SOL     OW  197   1.266   1.235   0.599 -0.1154  0.4022 -0.1245
   50SOL    HW1  198   1.219   1.231   0.675  3.5447  2.1377 -2.2726
   50SOL    HW2  199   1.336   1.170   0.612  1.9571 -1.4825 -0.1585
   50SOL     MW  200   1.269   1.226   0.611  0.6410  0.3825 -0.4124
   51SOL     OW  201   0.306   2.889   0.836  0.1166  0.3070 -0.0368
   51SOL    HW1  202   0.396   2.858   0.836 -0.5405  2.3734 -4.1191
   51SOL    HW2  203   0.314   2.932   0.918 -1.7863 -0.4347  0.7084
   51SOL     MW  204   0.319   2.891   0.847 -0.2212  0.4818 -0.4771
   52SOL     OW  205   0.816   1.795   0.471 -0.0960  0.0048  0.0695
   52SOL    HW1  206   0.777   1.885   0.485  0.2475  0.1417 -0.3031
   52SOL    HW2  207   0.839   1.794   0.375  1.0531  1.6866  0.1181
   52SOL     MW  208   0.814   1.806   0.460  0.1009  0.2447  0.0268
   53SOL     OW  209   0.451   2.142   0.498  0.5537 -0.1672 -0.0426
   53SOL    HW1  210   0.368   2.127   0.448 -0.8681  0.2179 -0.4341
   53SOL    HW2  211   0.450   2.224   0.551 -1.6775 -1.1845 -0.2166
   53SOL     MW  212   0.440   2.151   0.499  0.0717 -0.2506 -0.1172
   54SOL     OW  213   2.030   0.972   0.724  0.0556 -0.2324  0.2038
   54SOL    HW1  214   2.104   0.960   0.665 -1.3800 -1.3265  2.0122
   54SOL    HW2  215   2.003   0.886   0.762 -2.8777  1.0167  0.7062
   54SOL     MW  216   2.036   0.959   0.721 -0.5208 -0.2119  0.5087
   55SOL     OW  217   0.447   1.509   1.678 -0.2032  0.3648 -0.0835
   55SOL    HW1  218   0.417   1.547   1.598 -0.0632 -1.6480  0.6196
   55SOL    HW2  219   0.507   1.443   1.646 -0.9615 -1.8473  0.1654
   55SOL     MW  220   0.451   1.505   1.663 -0.2848 -0.1927  0.0421
   56SOL     OW  221   0.647   0.897   0.162  0.3402  0.0680 -0.2897
   56SOL    HW1  222   0.630   0.961   0.096 -1.3904 -0.7945 -1.9283
   56SOL    HW2  223   0.559   0.861   0.162 -0.2179 -1.1696 -0.2528
   56SOL     MW  224   0.633   0.900   0.154  0.0382 -0.2091 -0.5011
   57SOL     OW  225   1.091   1.271   1.119  0.1682  0.3064  0.1699
   57SOL    HW1  226   1.187   1.299   1.123  1.2410  0.5582 -1.8661
   57SOL    HW2  227   1.070   1.222   1.201 -2.1961 -0.3558  0.3530
   57SOL     MW  228   1.101   1.268   1.131 -0.0022  0.2523 -0.0746
   58SOL     OW  229   0.442   1.253   1.296 -0.7899  0.4472  0.4513
   58SOL    HW1  230   0.428   1.340   1.266 -0.2086 -2.0055 -0.3374
   58SOL    HW2  231   0.446   1.241   1.391  0.0905 -0.4926 -1.3496
   58SOL     MW  232   0.441   1.263   1.304 -0.5970 -0.0004  0.1096
   59SOL     OW  233   1.436   1.701   0.403 -0.3624 -0.0228  0.4062
   59SOL    HW1  234   1.490   1.719   0.483 -0.0518  0.8023  1.1615
   59SOL    HW2  235   1.358   1.657   0.443 -2.0790 -2.1781 -0.3054
   59SOL     MW  236   1.433   1.698   0.418 -0.5479 -0.1983  0.4120
   60SOL     OW  237   3.075   0.190   1.649 -0.1039 -0.6097 -0.4937
   60SOL    HW1  238   2.995   0.235   1.692  0.6082  2.7445 -0.5715
   60SOL    HW2  239   3.113   0.150   1.721  1.5813 -1.0712  0.3826
   60SOL     MW  240   3.070   0.191   1.664  0.2124 -0.2280 -0.3883
   61SOL     OW  241   1.948   1.384   2.998 -0.5186 -0.2577  0.2377
   61SOL    HW1  242   1.933   1.382   3.097 -3.0050 -0.3650  1.1618
   61SOL    HW2  243   2.004   1.313   2.973 -2.7515  1.0906  0.8608
   61SOL     MW  244   1.953   1.374   3.008 -1.1413 -0.0940  0.4418
   62SOL     OW  245   0.597   1.712   0.597  0.1506 -0.1645  0.4561
   62SOL    HW1  246   0.676   1.727   0.539 -0.0604 -1.1860 -1.3798
   62SOL    HW2  247   0.575   1.618   0.582 -1.2943 -0.0787  0.3085
   62SOL     MW  248   0.605   1.702   0.587 -0.0678 -0.2880  0.1944
   63SOL     OW  249   1.732   0.696   0.648 -0.1387  0.2394 -0.1078
   63SOL    HW1  250   1.697   0.774   0.606 -1.6575 -0.9218  2.4325
   63SOL    HW2  251   1.653   0.663   0.698  0.0376  0.8489 -1.0366
   63SOL     MW  252   1.717   0.702   0.649 -0.3158  0.1666  0.1048
   64SOL     OW  253   0.237   1.649   0.749  0.5036 -0.2245 -0.3623
   64SOL    HW1  254   0.317   1.703   0.748 -2.8540  2.8922  0.7195
   64SOL    HW2  255   0.165   1.709   0.736  0.8456  2.6948  0.7654
   64SOL     MW  256   0.238   1.664   0.748  0.1058  0.5719 -0.0708
   65SOL     OW  257   1.484   2.316   0.360 -0.4745 -0.1446  0.0343
   65SOL    HW1  258   1.576   2.334   0.361 -0.4585 -0.2379  2.2505
   65SOL    HW2  259   1.456   2.356   0.444  0.1517  2.1870  1.9701
   65SOL     MW  260   1.492   2.324   0.371 -0.3897  0.1507  0.5821
   66SOL     OW  261   0.355   0.609   0.489 -0.0374 -0.5464 -0.1309
   66SOL    HW1  262   0.420   0.605   0.420  1.5555  1.7881 -0.6687
   66SOL    HW2  263   0.321   0.705   0.497  0.3768 -1.2397  1.1738
   66SOL     MW  264   0.359   0.621   0.481  0.2274 -0.3299 -0.0297
   67SOL     OW  265   1.481   0.046   2.001 -0.2674 -0.3538  0.5114
   67SOL    HW1  266   1.503   0.109   1.927 -0.0083  0.2187 -1.0181
   67SOL    HW2  267   1.432  -0.023   1.966  0.4834 -0.2815 -0.7136
   67SOL     MW  268   1.478   0.045   1.987 -0.1341 -0.2687  0.1479
   68SOL     OW  269   0.782   3.087   2.984 -0.5159  0.8445 -0.5706
   68SOL    HW1  270   0.779   3.121   2.895  0.1550 -1.3979 -0.7026
   68SOL    HW2  271   0.861   3.139   3.020  0.8530  1.3964 -1.4049
   68SOL     MW  272   0.792   3.098   2.977 -0.2468  0.6214 -0.6981
   69SOL     OW  273   1.014   0.230   1.943  0.9106  0.0737 -0.3380
   69SOL    HW1  274   1.100   0.237   1.987 -0.9752  2.3521  3.1586
   69SOL    HW2  275   0.980   0.150   1.978 -0.3870 -1.6675  0.6440
   69SOL     MW  276   1.021   0.221   1.953  0.4906  0.1446  0.2529
   70SOL     OW  277   0.494   1.754   1.074 -0.0945 -0.0192  0.1849
   70SOL    HW1  278   0.580   1.802   1.073  2.9637 -0.8686 -0.4375
   70SOL    HW2  279   0.500   1.706   0.992  4.0300  0.3906 -0.4292
   70SOL     MW  280   0.506   1.754   1.063  0.8532 -0.0772  0.0217
   71SOL     OW  281   1.513   0.542   1.235  0.9030  0.0117  0.7562
   71SOL    HW1  282   1.464   0.599   1.298  0.3398 -0.7718  1.4673
   71SOL    HW2  283   1.527   0.595   1.154 -2.7572 -0.2967  1.2338
   71SOL     MW  284   1.509   0.556   1.233  0.3458 -0.1323  0.9131
   72SOL     OW  285   0.753   1.843   1.007 -0.0772 -0.8193 -0.1108
   72SOL    HW1  286   0.776   1.907   0.938 -0.0126  0.8793  0.1815
   72SOL    HW2  287   0.803   1.766   0.973  2.1495 -1.3067 -0.8613
   72SOL     MW  288   0.763   1.842   0.993  0.2251 -0.6595 -0.1713
   73SOL     OW  289   1.196   0.669   1.295 -0.4585  0.0935 -0.6248
   73SOL    HW1  290   1.133   0.587   1.296 -3.4874 -2.3000 -0.8640
   73SOL    HW2  291   1.137   0.727   1.345 -0.7161  0.3014 -0.3524
   73SOL     MW  292   1.180   0.665   1.302 -0.8921 -0.1948 -0.6204
   74SOL     OW  293   2.842   0.126   1.008 -0.6056 -0.8380 -0.4553
   74SOL    HW1  294   2.912   0.172   0.961 -0.7986  3.7565 -0.9128
   74SOL    HW2  295   2.763   0.155   0.967 -1.1709 -1.3535 -1.5479
   74SOL     MW  296   2.841   0.136   0.997 -0.7056 -0.2998 -0.6598
   75SOL     OW  297   1.567   1.346   0.152 -0.3014 -0.0618 -0.1238
   75SOL    HW1  298   1.634   1.297   0.102  0.8216  0.4078 -0.7274
   75SOL    HW2  299   1.594   1.324   0.248 -0.9749  0.0707  2.0188
   75SOL     MW  300   1.579   1.337   0.158 -0.2421  0.0176  0.0792
   76SOL     OW  301   2.988   0.648   0.497 -0.1686 -0.0462 -0.4691
   76SOL    HW1  302   3.032   0.710   0.560  2.0128 -0.7058  1.1662
   76SOL    HW2  303   3.057   0.602   0.443 -0.9217 -2.0019  1.4608
   76SOL     MW  304   3.003   0.650   0.498  0.0198 -0.3912  0.0013
   77SOL     OW  305   0.872   0.612   0.424 -0.1576  0.5516  0.1402
   77SOL    HW1  306   0.853   0.630   0.333 -1.3345 -2.5607 -0.2095
   77SOL    HW2  307   0.862   0.518   0.425  0.3000  0.1321 -0.6305
   77SOL     MW  308   0.868   0.602   0.412 -0.2525  0.0856 -0.0076
   78SOL     OW  309   0.751   0.845   1.099  0.5545  0.5560  0.3301
   78SOL    HW1  310   0.745   0.919   1.033 -3.3629 -3.3017  0.2224
   78SOL    HW2  311   0.659   0.850   1.133 -1.3650  0.5753 -0.1481
   78SOL     MW  312   0.738   0.856   1.095 -0.2157  0.0495  0.2528
   79SOL     OW  313   1.865   1.557   0.572  0.5693 -0.3507 -0.0368
   79SOL    HW1  314   1.783   1.515   0.592 -1.4077 -2.2710  0.8524
   79SOL    HW2  315   1.912   1.574   0.654 -1.1168 -1.7828 -1.4181
   79SOL     MW  316   1.860   1.554   0.586  0.0860 -0.7930 -0.1017
   80SOL     OW  317   0.081   0.980   0.336  0.7750  0.5961 -0.5070
   80SOL    HW1  318  -0.003   0.933   0.369 -1.2881  0.0609 -0.0857
   80SOL    HW2  319   0.161   0.937   0.364  0.4153  0.8382 -2.6056
   80SOL     MW  320   0.081   0.968   0.344  0.4554  0.5574 -0.7283
   81SOL     OW  321   1.809   1.862   0.339 -0.3623  0.2321 -0.2062
   81SOL    HW1  322   1.807   1.778   0.298  0.8823  2.8690  0.9719
   81SOL    HW2  323   1.771   1.924   0.269 -0.5267 -1.0241  0.4011
   81SOL     MW  324   1.804   1.859   0.324 -0.2198  0.4143  0.0294
   82SOL     OW  325   0.900   1.040   0.516  0.2997  0.5524 -0.1826
   82SOL    HW1  326   0.873   1.080   0.435 -0.8193  0.5165  0.4716
   82SOL    HW2  327   0.834   0.982   0.557  2.0995 -0.9126 -1.0328
   82SOL     MW  328   0.887   1.037   0.511  0.3895  0.3544 -0.2085
   83SOL     OW  329   0.034   0.779   1.545 -0.4345  0.5571  0.0874
   83SOL    HW1  330   0.031   0.817   1.454  0.1046 -2.0976  0.3897
   83SOL    HW2  331   0.107   0.725   1.527 -3.7334  0.7071  0.2228
   83SOL     MW  332   0.044   0.777   1.531 -0.7986  0.2267  0.1452
   84SOL     OW  333   0.048   0.202   0.911 -0.2097 -0.2841 -0.0983
   84SOL    HW1  334   0.011   0.286   0.940  0.6385  0.3637 -0.0046
   84SOL    HW2  335   0.051   0.157   0.996  0.5886 -1.0778  1.3773
   84SOL     MW  336   0.044   0.207   0.926  0.0075 -0.3033  0.1087
   85SOL     OW  337   0.395   0.459   0.724 -0.1831 -0.0975  0.3628
   85SOL    HW1  338   0.380   0.497   0.636  3.2754  1.3542 -0.0650
   85SOL    HW2  339   0.379   0.366   0.723  0.6088  1.3728  0.9931
   85SOL     MW  340   0.391   0.452   0.712  0.3777  0.2880  0.3895
   86SOL     OW  341   1.226   0.270   1.162  0.5531  0.1895  0.6415
   86SOL    HW1  342   1.184   0.358   1.154 -1.7743 -0.5785 -0.7624
   86SOL    HW2  343   1.302   0.278   1.218 -1.2956  3.1799  0.0730
   86SOL     MW  344   1.231   0.283   1.168  0.0021  0.4828  0.3813
   87SOL     OW  345   1.047   1.523   1.216  0.2064  0.5636 -0.4368
   87SOL    HW1  346   1.103   1.584   1.171 -1.4356 -0.1635  0.4965
   87SOL    HW2  347   1.066   1.437   1.170 -0.1350 -3.5233  1.1623
   87SOL     MW  348   1.057   1.520   1.204 -0.0552 -0.0716 -0.1027
   88SOL     OW  349   1.260   1.065   1.025 -0.3522 -0.0926 -0.3316
   88SOL    HW1  350   1.347   1.102   1.045  2.2883  0.7474 -0.5194
   88SOL    HW2  351   1.197   1.120   1.070  0.4918  1.1122  2.3643
   88SOL     MW  352   1.263   1.077   1.034  0.1075  0.1772 -0.0007
   89SOL     OW  353   1.738   0.717   0.275  0.2526 -0.4378 -0.4638
   89SOL    HW1  354   1.733   0.621   0.279 -0.6537 -0.9510 -0.0175
   89SOL    HW2  355   1.823   0.735   0.315 -0.3388 -0.2463  0.0377
   89SOL     MW  356   1.749   0.706   0.281  0.0550 -0.4802 -0.3388
   90SOL     OW  357   0.838   1.213   2.895 -0.2691  0.2229  0.0403
   90SOL    HW1  358   0.894   1.147   2.942  1.9021  0.1126 -2.5871
   90SOL    HW2  359   0.854   1.284   2.956 -0.0148  1.6269 -2.3672
   90SOL     MW  360   0.848   1.213   2.910  0.0509  0.3936 -0.6240
   91SOL     OW  361   2.183   0.626   0.449 -0.4282 -0.1366  0.4301
   91SOL    HW1  362   2.258   0.657   0.396  3.8968  0.8579 -0.4561
   91SOL    HW2  363   2.175   0.533   0.430  1.0047  2.0580 -0.2237
   91SOL     MW  364   2.191   0.618   0.439  0.3315  0.2842  0.2269
   92SOL     OW  365   1.644   0.960   0.562  0.1626  0.0630 -0.2990
   92SOL    HW1  366   1.591   0.981   0.639 -2.2922  0.2536 -2.1097
   92SOL    HW2  367   1.597   0.989   0.486  1.2051 -1.4672  0.3502
   92SOL     MW  368   1.630   0.966   0.562 -0.0238 -0.1137 -0.4522
   93SOL     OW  369   1.078   0.246   0.353 -0.6144  0.5555  0.0233
   93SOL    HW1  370   0.981   0.249   0.361  0.2718 -1.1384 -0.4505
   93SOL    HW2  371   1.109   0.296   0.271  0.2544  0.9247 -2.6783
   93SOL     MW  372   1.069   0.253   0.343 -0.3828  0.3808 -0.3956
   94SOL     OW  373   1.838   1.374   1.578  0.9594  0.7456  0.7008
   94SOL    HW1  374   1.844   1.398   1.482  2.1412  1.0305 -1.4130
   94SOL    HW2  375   1.825   1.276   1.585 -0.9588 -0.4250 -1.2828
   94SOL     MW  376   1.837   1.364   1.566  0.8622  0.6288  0.1602
   95SOL     OW  377   0.604   1.551   0.923 -0.3627 -0.0554 -0.0802
   95SOL    HW1  378   0.641   1.510   1.007  0.2403  0.1765 -3.6048
   95SOL    HW2  379   0.574   1.477   0.870 -3.8011  3.1613  1.2042
   95SOL     MW  380   0.605   1.536   0.927 -0.7368  0.3996 -0.3758
   96SOL     OW  381   1.324   1.847   1.651 -0.4059 -0.0240 -0.2492
   96SOL    HW1  382   1.253   1.854   1.712  1.8145 -1.8579 -0.1776
   96SOL    HW2  383   1.332   1.753   1.629 -2.9158 -0.7679 -1.7648
   96SOL     MW  384   1.316   1.836   1.656 -0.4441 -0.3641 -0.4397
   97SOL     OW  385   1.076   1.491   0.922 -0.0284  0.6508 -0.8377
   97SOL    HW1  386   1.117   1.565   0.968  2.0797  1.2840 -1.7309
   97SOL    HW2  387   0.990   1.521   0.881 -2.6743  2.1109  2.8445
   97SOL     MW  388   1.070   1.505   0.923 -0.0994  0.9270 -0.4697
   98SOL     OW  389   1.353   1.382   1.180 -0.3872  0.4999  0.2064
   98SOL    HW1  390   1.411   1.397   1.253 -0.8340 -1.6490  2.5701
   98SOL    HW2  391   1.395   1.428   1.105  1.5250 -0.8438 -1.2847
   98SOL     MW  392   1.366   1.390   1.180 -0.1939  0.0391  0.3216
   99SOL     OW  393   1.474   0.273   1.281  0.6921  0.5407  0.3196
   99SOL    HW1  394   1.475   0.374   1.270  0.0496 -1.9967  2.7585
   99SOL    HW2  395   1.497   0.265   1.375 -0.6608 -1.0452 -2.4064
   99SOL     MW  396   1.477   0.286   1.292  0.4288 -0.0034  0.2817
  100SOL     OW  397   1.065   1.156   1.362  0.1977 -0.2305  0.0566
  100SOL    HW1  398   1.100   1.200   1.441 -1.9558  0.5839  0.5935
  100SOL    HW2  399   1.100   1.065   1.370  2.9904 -0.6316  3.6672
  100SOL     MW  400   1.074   1.150   1.373  0.2820 -0.1760  0.6038
  101SOL     OW  401   0.533   1.209   0.407  0.4393  0.5168  0.6035
  101SOL    HW1  402   0.465   1.161   0.353 -0.0172 -2.4264  0.0447
  101SOL    HW2  403   0.615   1.159   0.377 -0.3732 -2.1352 -1.2749
  101SOL     MW  404   0.534   1.196   0.396  0.2719 -0.2214  0.2819
  102SOL     OW  405   2.912   0.659   1.104 -0.0724 -0.0704  0.4606
  102SOL    HW1  406   2.959   0.743   1.087 -0.3182  0.7597  1.8503
  102SOL    HW2  407   2.886   0.652   1.201  1.0386 -1.5971  4.1262
  102SOL     MW  408   2.915   0.669   1.115  0.0417 -0.1623  1.1276
  103SOL     OW  409   1.861   0.252   1.836  0.2702 -0.1787 -0.2787
  103SOL    HW1  410   1.862   0.160   1.799  1.0826  0.4867  0.4286
  103SOL    HW2  411   1.858   0.251   1.936 -0.4787  0.8983  0.1734
  103SOL     MW  412   1.861   0.240   1.844  0.2786  0.0512 -0.1257
  104SOL     OW  413   0.089   1.516   1.652  0.3149 -0.6069  0.1637
  104SOL    HW1  414   0.140   1.448   1.709 -0.6310 -0.1656  0.1303
  104SOL    HW2  415  -0.004   1.475   1.663  2.1470  1.5469  0.1779
  104SOL     MW  416   0.084   1.502   1.661  0.4319 -0.2645  0.1612
  105SOL     OW  417   3.058   1.234   0.402  0.2437  0.0959 -0.0384
  105SOL    HW1  418   3.099   1.152   0.385 -1.6326  1.5808 -0.9089
  105SOL    HW2  419   3.127   1.295   0.409  0.3741 -0.8955  0.1522
  105SOL     MW  420   3.073   1.231   0.401  0.0134  0.1610 -0.1281
  106SOL     OW  421   0.786   0.379   0.859  0.2287 -0.1087 -0.4561
  106SOL    HW1  422   0.724   0.438   0.897  1.4740  1.3368 -0.8177
  106SOL    HW2  423   0.844   0.435   0.809  1.0044 -2.2261  0.7218
  106SOL     MW  424   0.786   0.394   0.857  0.4953 -0.1974 -0.3484
  107SOL     OW  425   0.818   2.163   2.878 -0.7819  0.1533  0.0444
  107SOL    HW1  426   0.736   2.148   2.836 -0.2275 -1.1629  3.1348
  107SOL    HW2  427   0.794   2.132   2.969 -1.9509 -0.3820  0.0624
  107SOL     MW  428   0.804   2.157   2.884 -0.8630 -0.0910  0.4546
  108SOL     OW  429   1.346   1.572   1.644  0.1269 -0.1879 -0.1687
  108SOL    HW1  430   1.289   1.560   1.558  3.2811 -2.1631  2.4625
  108SOL    HW2  431   1.417   1.511   1.641 -1.3249 -3.2799 -1.7542
  108SOL     MW  432   1.348   1.563   1.633  0.3515 -0.8565 -0.0307
  109SOL     OW  433   2.049   0.756   0.243  0.6502 -0.0483 -0.0966
  109SOL    HW1  434   2.033   0.851   0.272  0.2923  2.2053  1.9607
  109SOL    HW2  435   2.077   0.714   0.327  0.3385 -1.2710  1.5438
  109SOL     MW  436   2.050   0.763   0.258  0.5618  0.0877  0.3913
  110SOL     OW  437   0.421   1.975   0.711 -0.0185 -0.6728  0.4788
  110SOL    HW1  438   0.507   1.934   0.717 -0.3785  1.2252  2.6425
  110SOL    HW2  439   0.433   2.047   0.654  0.4537  1.6694 -0.6886
  110SOL     MW  440   0.434   1.979   0.704 -0.0037 -0.1134  0.6103
  111SOL     OW  441   0.846   0.894   1.363  0.1327 -0.3895 -0.2991
  111SOL    HW1  442   0.813   0.893   1.271  2.3027 -1.5710 -1.6738
  111SOL    HW2  443   0.818   0.801   1.399  0.2245 -1.3485  0.3723
  111SOL     MW  444   0.838   0.882   1.356  0.4311 -0.6719 -0.3919
  112SOL     OW  445   1.374   1.071   1.607 -0.5461  0.0030 -0.2295
  112SOL    HW1  446   1.309   1.150   1.600 -0.2024  0.6605  1.6216
  112SOL    HW2  447   1.334   0.988   1.632  2.3858 -0.4959 -0.0906
  112SOL     MW  448   1.360   1.071   1.610 -0.1139  0.0240  0.0330
  113SOL     OW  449   1.249   3.036   1.690 -0.4922 -0.4905 -0.2150
  113SOL    HW1  450   1.224   3.007   1.778 -0.5958  0.5659  0.6031
  113SOL    HW2  451   1.227   2.972   1.624 -2.7824  0.6835  0.7791
  113SOL     MW  452   1.243   3.023   1.693 -0.8081 -0.1962  0.0241
  114SOL     OW  453   0.263   2.900   1.888 -0.1266  0.3318 -0.3596
  114SOL    HW1  454   0.323   2.960   1.926 -2.8248 -0.6546 -3.6414
  114SOL    HW2  455   0.181   2.944   1.896 -1.6210  0.1280  1.5920
  114SOL     MW  456   0.260   2.914   1.894 -0.6798  0.1748 -0.5351
  115SOL     OW  457   0.463   0.810   1.181  0.5660  0.2313 -0.4369
  115SOL    HW1  458   0.453   0.715   1.213  2.0468  0.1023 -2.5061
  115SOL    HW2  459   0.417   0.863   1.241 -1.3701  0.8079  0.0238
  115SOL     MW  460   0.456   0.804   1.193  0.5059  0.2903 -0.6491
  116SOL     OW  461   0.778   1.105   0.963 -0.3244  0.1795 -0.2513
  116SOL    HW1  462   0.818   1.131   0.873  2.3570  2.2697  0.5615
  116SOL    HW2  463   0.824   1.162   1.033  1.5338  0.8973 -1.0269
  116SOL     MW  464   0.789   1.116   0.960  0.2746  0.5500 -0.2464
  117SOL     OW  465   1.130   1.238   0.825  0.2571  0.1190  0.0293
  117SOL    HW1  466   1.166   1.184   0.896 -3.1897 -0.2873 -0.3749
  117SOL    HW2  467   1.099   1.315   0.879  1.1025  2.8512  1.3364
  117SOL     MW  468   1.131   1.241   0.842 -0.0862  0.4258  0.1484
  118SOL     OW  469   3.025   2.958   1.734  0.6257  0.3536  0.3345
  118SOL    HW1  470   3.073   3.028   1.787  2.6880  0.4848 -1.0110
  118SOL    HW2  471   2.935   2.980   1.731 -0.8892  0.8952  0.8808
  118SOL     MW  472   3.020   2.970   1.740  0.6979  0.4424  0.2290
  119SOL     OW  473   0.404   1.554   1.229 -0.1716  0.3228  0.4852
  119SOL    HW1  474   0.437   1.629   1.175 -2.8610  0.2739 -2.1345
  119SOL    HW2  475   0.314   1.543   1.202  2.4685 -1.5904 -2.0872
  119SOL     MW  476   0.396   1.563   1.219 -0.1781  0.0639 -0.1999
  120SOL     OW  477   0.262   0.801   0.995  0.0633  0.3378  0.0526
  120SOL    HW1  478   0.314   0.799   1.076 -0.9726 -4.5277  2.0658
  120SOL    HW2  479   0.329   0.855   0.948  0.9847 -1.7165  0.5742
  120SOL     MW  480   0.278   0.808   0.999  0.0482 -0.5752  0.3870
  121SOL     OW  481   1.799   1.108   1.615 -0.3988  0.2064  0.1071
  121SOL    HW1  482   1.717   1.109   1.562  3.8265 -2.1165 -1.5491
  121SOL    HW2  483   1.851   1.034   1.572  1.3337 -1.2091  1.7941
  121SOL     MW  484   1.795   1.098   1.602  0.3873 -0.2868  0.1112
  122SOL     OW  485   0.153   0.582   0.832 -0.8650  0.2932  0.3150
  122SOL    HW1  486   0.221   0.540   0.781 -3.2186 -0.4512  3.8985
  122SOL    HW2  487   0.197   0.654   0.878  1.4965  3.3453 -1.0399
  122SOL     MW  488   0.167   0.586   0.831 -0.8639  0.5977  0.6090
  123SOL     OW  489   1.859   1.116   0.515  0.2144  0.2726  0.1909
  123SOL    HW1  490   1.775   1.068   0.533 -0.9467  1.7152  0.0606
  123SOL    HW2  491   1.916   1.094   0.588 -1.7823 -5.2146 -1.9013
  123SOL     MW  492   1.856   1.107   0.527 -0.2022 -0.2610 -0.1023
  124SOL     OW  493   0.534   0.524   0.954 -0.0477 -1.2031 -0.3939
  124SOL    HW1  494   0.487   0.511   0.869  0.1731  0.5881 -0.1627
  124SOL    HW2  495   0.580   0.607   0.942  0.0929 -0.9421  4.0595
  124SOL     MW  496   0.534   0.533   0.941 -0.0000 -0.9323  0.2242
  125SOL     OW  497   0.701   1.726   1.791 -0.4369 -0.1535  0.3920
  125SOL    HW1  498   0.691   1.641   1.749  0.8491 -0.4376 -0.5856
  125SOL    HW2  499   0.669   1.800   1.735  0.3642  3.9732  1.2656
  125SOL     MW  500   0.696   1.725   1.778 -0.1615  0.3535  0.3783
  126SOL     OW  501   2.171   1.538   1.942  0.5977  0.4061 -0.2751
  126SOL    HW1  502   2.243   1.592   1.912 -0.4696 -2.4331  0.2467
  126SOL    HW2  503   2.210   1.451   1.959 -0.9080 -2.3401 -1.2769
  126SOL     MW  504   2.186   1.533   1.941  0.2582 -0.3308 -0.3384
  127SOL     OW  505   0.544   0.831   1.772 -0.9111 -0.3606  0.1918
  127SOL    HW1  506   0.632   0.797   1.785  1.6354  0.1634 -2.8261
  127SOL    HW2  507   0.512   0.868   1.859  0.6244  2.1724 -0.1067
  127SOL     MW  508   0.551   0.832   1.785 -0.3725  0.0427 -0.2458
  128SOL     OW  509   1.740   0.693   2.876  0.0643  0.0249  0.3657
  128SOL    HW1  510   1.774   0.665   2.781  1.3728  0.4360 -4.0303
  128SOL    HW2  511   1.710   0.779   2.848  0.7549  1.0349  0.2302
  128SOL     MW  512   1.741   0.700   2.860  0.3280  0.2124 -0.2322
  129SOL     OW  513   1.575   0.934   0.191  0.0480 -0.5170  0.0687
  129SOL    HW1  514   1.524   0.851   0.174  0.9822 -0.1088 -0.7670
  129SOL    HW2  515   1.661   0.901   0.226  1.0904  1.1275  1.5595
  129SOL     MW  516   1.580   0.919   0.193  0.3088 -0.2462  0.1551
  130SOL     OW  517   0.839   1.443   0.319  0.1426  0.2820  0.3272
  130SOL    HW1  518   0.832   1.459   0.419 -0.7499  1.3525 -1.0453
  130SOL    HW2  519   0.924   1.478   0.288  2.8311  0.4690 -1.1292
  130SOL     MW  520   0.850   1.450   0.328  0.3795  0.4479 -0.0460
  131SOL     OW  521   0.006   0.779   0.053  0.3028 -0.1788  0.0981
  131SOL    HW1  522  -0.001   0.830  -0.026  1.6156  0.4585  2.1707
  131SOL    HW2  523   0.092   0.734   0.056  3.4202  0.2766  1.3349
  131SOL     MW  524   0.016   0.779   0.043  0.8873 -0.0346  0.5347
  132SOL     OW  525   2.752   0.116   1.264  0.2655 -0.4390  0.2048
  132SOL    HW1  526   2.786   0.138   1.178 -2.5777  1.5546 -2.4007
  132SOL    HW2  527   2.653   0.091   1.243 -1.5088 -1.2679 -1.2527
  132SOL     MW  528   2.743   0.115   1.250 -0.3438 -0.2854 -0.3313
  133SOL     OW  529   1.020   0.109   1.652  0.4278  0.5323 -0.5492
  133SOL    HW1  530   1.103   0.051   1.657  1.0866 -2.0214 -0.3651
  133SOL    HW2  531   0.994   0.120   1.744  0.4192  1.3633 -0.7957
  133SOL     MW  532   1.028   0.103   1.665  0.5136  0.3050 -0.5574
  134SOL     OW  533   1.416   2.425   1.481 -0.0238  0.1036  0.2328
  134SOL    HW1  534   1.350   2.494   1.459  0.3881  1.8322  1.6417
  134SOL    HW2  535   1.443   2.464   1.567 -0.2522 -2.5188  0.2594
  134SOL     MW  536   1.411   2.439   1.490  0.0004 -0.0143  0.4222
  135SOL     OW  537   2.994   0.989   2.969 -0.5230  0.0910  0.5115
  135SOL    HW1  538   3.086   1.023   2.981  0.6776 -1.0600  2.2811
  135SOL    HW2  539   2.932   1.055   2.929 -0.3908  1.2549 -2.0052
  135SOL     MW  540   2.998   1.002   2.965 -0.3472  0.0927  0.4129
  136SOL     OW  541   0.210   1.991   0.878 -0.1504 -0.3010 -0.3898
  136SOL    HW1  542   0.140   1.945   0.830  1.4145  3.0782  0.3367
  136SOL    HW2  543   0.289   1.984   0.826  0.4014 -1.6347  1.5370
  136SOL     MW  544   0.211   1.984   0.865  0.1289 -0.0311 -0.0397
  137SOL     OW  545   0.705   2.026   0.564  0.1238 -0.0238 -0.2323
  137SOL    HW1  546   0.705   2.022   0.660 -0.5435 -2.6357 -0.2465
  137SOL    HW2  547   0.612   2.046   0.539  2.1742 -1.4229 -0.9715
  137SOL     MW  548   0.693   2.028   0.574  0.3062 -0.5531 -0.3317
  138SOL     OW  549   0.441   0.548   1.226  0.4801 -0.1215  0.4701
  138SOL    HW1  550   0.378   0.484   1.243 -0.4477  1.9865  0.4131
  138SOL    HW2  551   0.474   0.530   1.138  0.2464  1.3976 -0.4312
  138SOL     MW  552   0.437   0.537   1.217  0.3268  0.3570  0.3437
  139SOL     OW  553   2.821   0.570   1.344  0.5753  0.0947 -0.3458
  139SOL    HW1  554   2.881   0.492   1.345 -0.2672  0.3475 -0.0509
  139SOL    HW2  555   2.827   0.608   1.433 -1.5527 -1.3175 -0.7130
  139SOL     MW  556   2.830   0.565   1.356  0.1833 -0.0583 -0.3553
  140SOL     OW  557   0.897   0.478   1.963  0.1100 -0.3949 -0.0965
  140SOL    HW1  558   0.938   0.393   1.949  1.1314 -1.5407  0.7518
  140SOL    HW2  559   0.852   0.463   2.047 -1.6390  0.2128 -0.5849
  140SOL     MW  560   0.897   0.465   1.972  0.0140 -0.4659 -0.0490
  141SOL     OW  561   1.010   0.656   1.637 -0.0606 -0.5046 -0.4791
  141SOL    HW1  562   1.042   0.566   1.650  2.0861 -1.2705 -0.7596
  141SOL    HW2  563   1.085   0.711   1.655 -2.7744 -2.0861  1.4319
  141SOL     MW  564   1.024   0.652   1.641 -0.1354 -0.8144 -0.2640
  142SOL     OW  565   0.875   1.207   0.721 -0.3415 -0.0506  0.1404
  142SOL    HW1  566   0.870   1.158   0.635  0.5956  0.6725 -1.6188
  142SOL    HW2  567   0.965   1.200   0.753  0.5684 -1.7929  1.7962
  142SOL     MW  568   0.886   1.200   0.714 -0.0978 -0.1851  0.1267
  143SOL     OW  569   1.849   0.658   1.062 -0.4112 -0.3227  0.0248
  143SOL    HW1  570   1.908   0.682   0.985 -2.7356 -0.2798 -0.8171
  143SOL    HW2  571   1.765   0.636   1.016  0.3566  0.5956 -2.9582
  143SOL     MW  572   1.846   0.659   1.046 -0.6165 -0.1959 -0.4798
  144SOL     OW  573   0.272   1.324   1.750 -0.3020  0.3158  0.1283
  144SOL    HW1  574   0.328   1.401   1.731  0.3161 -1.8033  3.5170
  144SOL    HW2  575   0.337   1.267   1.801  1.6468  1.4849 -0.2970
  144SOL     MW  576   0.288   1.327   1.754  0.0367  0.1905  0.5193
  145SOL     OW  577   0.163   0.451   1.256 -0.5745  0.2347 -0.1356
  145SOL    HW1  578   0.185   0.353   1.278 -0.5196 -0.6542  0.5214
  145SOL    HW2  579   0.164   0.459   1.161  0.9504 -0.7544 -1.1008
  145SOL     MW  580   0.166   0.439   1.246 -0.3661 -0.0131 -0.1763
  146SOL     OW  581   0.821   1.900   1.415 -0.1346  0.1526  0.7076
  146SOL    HW1  582   0.832   1.959   1.338  1.5239 -0.3382  1.6887
  146SOL    HW2  583   0.730   1.877   1.427 -0.1415  0.1131  0.7051
  146SOL     MW  584   0.810   1.905   1.407  0.0833  0.0827  0.8367
  147SOL     OW  585   0.442   0.469   2.906  0.0274 -0.0791  0.0068
  147SOL    HW1  586   0.376   0.500   2.966 -0.1405 -1.5261  0.0207
  147SOL    HW2  587   0.427   0.529   2.835  0.8986 -0.9498  1.1486
  147SOL     MW  588   0.431   0.481   2.905  0.1202 -0.3849  0.1593
  148SOL     OW  589   0.065   0.935   1.306  0.0417 -0.4268  0.5886
  148SOL    HW1  590   0.154   0.950   1.299 -0.6020  4.1878  1.2234
  148SOL    HW2  591   0.022   1.015   1.333 -0.9202 -1.5344 -1.4546
  148SOL     MW  592   0.071   0.947   1.308 -0.1702  0.0359  0.4028
  149SOL     OW  593   1.583   1.173   1.444  0.3420 -0.1263 -0.8867
  149SOL    HW1  594   1.504   1.151   1.507 -2.1153 -1.0998  2.2373
  149SOL    HW2  595   1.573   1.266   1.428 -1.6469 -0.1726  0.1204
  149SOL     MW  596   1.571   1.182   1.450 -0.2447 -0.2609 -0.3417
  150SOL     OW  597   1.731   1.393   0.892  0.5627  0.2438  0.0698
  150SOL    HW1  598   1.808   1.331   0.881 -0.9949 -2.5179 -0.9622
  150SOL    HW2  599   1.759   1.481   0.908 -2.0757 -0.3537 -1.4529
  150SOL     MW  600   1.745   1.396   0.892  0.0091 -0.1994 -0.2673
  151SOL     OW  601   1.676   1.876   0.814  0.0323  0.8390 -0.0118
  151SOL    HW1  602   1.636   1.868   0.725 -0.1343  1.4638  1.6308
  151SOL    HW2  603   1.613   1.848   0.876  1.0505  0.4286  0.0266
  151SOL     MW  604   1.662   1.871   0.810  0.1447  0.8673  0.2100
  152SOL     OW  605   0.701   1.422   1.584 -0.2291 -0.7372 -0.5327
  152SOL    HW1  606   0.748   1.488   1.523 -2.5702  1.3345 -1.5677
  152SOL    HW2  607   0.709   1.336   1.539 -2.8720  0.9574  1.2127
  152SOL     MW  608   0.708   1.419   1.570 -0.8867 -0.2403 -0.4390
  153SOL     OW  609   2.568   1.202   0.741 -0.3030 -0.7018 -0.3511
  153SOL    HW1  610   2.650   1.183   0.690 -0.6211  1.3093  1.3448
  153SOL    HW2  611   2.527   1.112   0.760 -1.3006  0.8929 -1.0450
  153SOL     MW  612   2.573   1.187   0.737 -0.4766 -0.2260 -0.2189
  154SOL     OW  613   0.095   1.778   1.760  0.1555  0.5202  0.0996
  154SOL    HW1  614   0.080   1.688   1.740  1.4263 -0.8546  0.4155
  154SOL    HW2  615   0.168   1.779   1.824 -1.9288 -0.0533 -1.5544
  154SOL     MW  616   0.102   1.766   1.766  0.0482  0.2632 -0.0769
  155SOL     OW  617   1.221   0.737   0.300 -0.0246 -0.3763  0.0344
  155SOL    HW1  618   1.197   0.716   0.398 -0.7162 -0.8722 -1.0091
  155SOL    HW2  619   1.238   0.832   0.302 -0.2138 -1.0039 -1.3246
  155SOL     MW  620   1.220   0.747   0.314 -0.1408 -0.5245 -0.2826
  156SOL     OW  621   1.533   3.080   1.105 -0.0760 -0.1271 -0.1467
  156SOL    HW1  622   1.591   3.137   1.152 -0.3096  0.6086 -2.2452
  156SOL    HW2  623   1.583   2.998   1.090 -2.7246 -3.0782 -2.3144
  156SOL     MW  624   1.547   3.077   1.110 -0.4563 -0.4194 -0.7096
  157SOL     OW  625   1.388   1.147   0.122 -0.9293  0.8133 -0.1654
  157SOL    HW1  626   1.447   1.073   0.149 -3.3385  0.8617 -0.9149
  157SOL    HW2  627   1.444   1.223   0.136 -1.1590 -1.8492  1.8543
  157SOL     MW  628   1.403   1.148   0.127 -1.2775  0.4684  0.0022
  158SOL     OW  629   0.446   1.685   2.266  0.0358 -0.3871 -0.4049
  158SOL    HW1  630   0.476   1.735   2.188 -2.4119  1.8445 -0.5665
  158SOL    HW2  631   0.375   1.734   2.304 -0.1391 -1.0326  2.5576
  158SOL     MW  632   0.441   1.698   2.260 -0.3102 -0.1778 -0.0354
  159SOL     OW  633   1.200   1.619   0.497  0.0569  0.2986  0.1390
  159SOL    HW1  634   1.145   1.582   0.425 -2.4376 -0.7283  0.5004
  159SOL    HW2  635   1.145   1.689   0.538 -1.0803  1.3188 -0.2997
  159SOL     MW  636   1.186   1.624   0.493 -0.4223  0.2977  0.1288
  160SOL     OW  637   0.497   1.189   1.540 -0.0413 -0.7813  0.2718
  160SOL    HW1  638   0.443   1.115   1.581  1.8807 -1.0323  0.4825
  160SOL    HW2  639   0.589   1.163   1.556 -1.3622 -0.2886 -0.0663
  160SOL     MW  640   0.502   1.176   1.548  0.0380 -0.7494  0.2549
  161SOL     OW  641   0.428   2.255   2.637 -0.1205  0.0219  0.6474
  161SOL    HW1  642   0.344   2.282   2.651  0.2147  1.3201  1.9732
  161SOL    HW2  643   0.415   2.178   2.572 -2.1391 -2.4834 -0.9789
  161SOL     MW  644   0.415   2.248   2.630 -0.3426 -0.1373  0.6077
  162SOL     OW  645   1.074   1.806   1.790 -0.0185  0.1364 -0.4205
  162SOL    HW1  646   1.048   1.897   1.783 -1.8463 -0.5006 -2.8898
  162SOL    HW2  647   1.014   1.776   1.858  0.1429 -1.6299 -3.0987
  162SOL     MW  648   1.062   1.814   1.798 -0.2384 -0.1807 -1.0997
  163SOL     OW  649   2.133   3.091   0.858 -0.0596  0.2646  0.0070
  163SOL    HW1  650   2.129   3.161   0.786 -0.1319  0.6293  1.3256
  163SOL    HW2  651   2.091   3.008   0.823  0.3778 -3.5971 -0.0804
  163SOL     MW  652   2.127   3.090   0.844 -0.0114 -0.1968  0.1695
  164SOL     OW  653   0.304   0.214   0.793  0.2874  0.1139  0.2702
  164SOL    HW1  654   0.211   0.217   0.812  0.4145  0.6659  1.0971
  164SOL    HW2  655   0.319   0.137   0.742  0.1168  2.3798 -0.0185
  164SOL     MW  656   0.294   0.204   0.789  0.2817  0.4857  0.3412
  165SOL     OW  657   1.195   1.299   0.328  0.3276 -0.2547  0.5387
  165SOL    HW1  658   1.203   1.276   0.424  0.1618 -0.1036  0.0966
  165SOL    HW2  659   1.252   1.233   0.286  0.1700 -1.9238 -2.2954
  165SOL     MW  660   1.204   1.287   0.335  0.2849 -0.4550  0.1064
  166SOL     OW  661   0.490   1.111   1.035 -0.5976 -0.5112 -0.0435
  166SOL    HW1  662   0.466   1.130   1.121 -1.2410  0.4111 -0.7238
  166SOL    HW2  663   0.589   1.113   1.045 -0.4382  1.4013 -1.1434
  166SOL     MW  664   0.500   1.114   1.047 -0.6615 -0.1372 -0.2784
  167SOL     OW  665   0.790   1.154   0.282  0.0583 -0.0957  0.4132
  167SOL    HW1  666   0.790   1.254   0.290  1.8943  0.3354  2.1484
  167SOL    HW2  667   0.879   1.130   0.243  1.7793 -1.1716  0.9796
  167SOL     MW  668   0.802   1.164   0.278  0.5276 -0.1808  0.7169
  168SOL     OW  669   1.719   1.621   3.047  0.0525 -0.2406  0.1503
  168SOL    HW1  670   1.659   1.688   3.014 -1.0156  0.7978  0.5127
  168SOL    HW2  671   1.707   1.536   3.002  0.7692 -0.1271  0.4288
  168SOL     MW  672   1.710   1.618   3.037  0.0061 -0.0886  0.2349
  169SOL     OW  673   0.335   0.995   1.372  0.0452  1.0390 -0.0690
  169SOL    HW1  674   0.343   0.972   1.471  1.5057  1.5396  0.2961
  169SOL    HW2  675   0.336   1.089   1.377  1.0755  1.9873 -1.6788
  169SOL     MW  676   0.336   1.005   1.386  0.3738  1.2302 -0.2332
  170SOL     OW  677   1.168   1.521   1.466  0.3115 -0.1484  0.7138
  170SOL    HW1  678   1.103   1.573   1.514  1.2012 -0.7922  2.9375
  170SOL    HW2  679   1.131   1.525   1.375 -1.6183 -4.2684  0.2905
  170SOL     MW  680   1.155   1.528   1.461  0.1743 -0.7770  0.9513
  171SOL     OW  681   0.523   1.477   0.492 -0.1481  0.4491  0.5501
  171SOL    HW1  682   0.480   1.414   0.554 -2.9527 -3.0973  2.5138
  171SOL    HW2  683   0.539   1.415   0.420  1.2940 -1.3914 -1.4137
  171SOL     MW  684   0.519   1.461   0.490 -0.3279 -0.2617  0.5501
  172SOL     OW  685   0.751   0.268   1.261 -0.6325  1.2235  0.5237
  172SOL    HW1  686   0.735   0.231   1.169  0.7696 -2.5134 -1.3023
  172SOL    HW2  687   0.797   0.200   1.311 -0.5378  1.0071  2.8770
  172SOL     MW  688   0.755   0.254   1.255 -0.4350  0.7019  0.5933
  173SOL     OW  689   0.555   1.723   0.329  0.4942 -0.2488 -0.3484
  173SOL    HW1  690   0.607   1.646   0.305 -0.9874  3.8267  0.5807
  173SOL    HW2  691   0.544   1.713   0.423 -1.0621  0.8767  0.8614
  173SOL     MW  692   0.560   1.711   0.338  0.0934  0.4374 -0.0662
  174SOL     OW  693   1.862   0.869   1.509  0.2373 -0.2090 -0.2220
  174SOL    HW1  694   1.808   0.796   1.548 -3.3684  0.3282 -1.6950
  174SOL    HW2  695   1.858   0.850   1.410 -3.7178 -1.5134 -0.6189
  174SOL     MW  696   1.854   0.857   1.501 -0.7603 -0.3102 -0.4687
  175SOL     OW  697   0.575   1.502   0.148  0.2804 -0.2164  0.3620
  175SOL    HW1  698   0.483   1.469   0.146  1.0924  0.3940 -1.6796
  175SOL    HW2  699   0.626   1.419   0.146  0.8042 -2.9421 -0.9140
  175SOL     MW  700   0.569   1.487   0.147  0.4566 -0.4955 -0.0758
  176SOL     OW  701   0.141   1.486   1.183 -0.4651  0.4328  0.6002
  176SOL    HW1  702   0.127   1.421   1.111 -1.6388 -2.4202 -1.9667
  176SOL    HW2  703   0.064   1.469   1.241 -2.4517  1.9490  0.1952
  176SOL     MW  704   0.129   1.475   1.181 -0.8820  0.2564  0.2081
  177SOL     OW  705   0.541   0.325   1.448 -0.1621 -0.1164 -0.5874
  177SOL    HW1  706   0.612   0.319   1.383  3.5081 -1.8266  1.0553
  177SOL    HW2  707   0.538   0.420   1.469  1.7053  0.2375 -1.5687
  177SOL     MW  708   0.550   0.337   1.443  0.5685 -0.2954 -0.5001
  178SOL     OW  709   3.097   0.490   2.998 -0.0983 -0.0720  0.0466
  178SOL    HW1  710   3.036   0.506   3.077 -2.9972  0.3746  2.0313
  178SOL    HW2  711   3.050   0.514   2.921 -2.3545  0.3452  2.5407
  178SOL     MW  712   3.083   0.495   2.998 -0.7784  0.0420  0.6375
  179SOL     OW  713   1.561   1.463   1.353  0.2178  0.3954 -1.0953
  179SOL    HW1  714   1.570   1.472   1.451  1.4665 -1.8658 -2.7840
  179SOL    HW2  715   1.651   1.455   1.326 -0.5480 -0.0698 -1.0196
  179SOL     MW  716   1.574   1.463   1.363  0.2815  0.0357 -1.3081
  180SOL     OW  717   3.056   0.299   0.449  0.9694 -0.2068 -0.1794
  180SOL    HW1  718   3.009   0.305   0.369  0.0325  0.2186  3.3821
  180SOL    HW2  719   3.132   0.352   0.432  2.3905  0.9672 -1.3343
  180SOL     MW  720   3.060   0.307   0.436  1.0333  0.0042  0.1381
  181SOL     OW  721   1.111   1.284   3.092 -0.2454  0.4400  0.0506
  181SOL    HW1  722   1.174   1.356   3.115  1.8152 -4.7748  0.6707
  181SOL    HW2  723   1.174   1.224   3.059 -0.9437  0.4220 -2.5886
  181SOL     MW  724   1.127   1.285   3.091 -0.0657 -0.2504 -0.2158
  182SOL     OW  725   0.374   0.974   1.636  0.3463 -0.0766  0.4285
  182SOL    HW1  726   0.301   0.968   1.705 -1.1909 -0.8804 -1.9617
  182SOL    HW2  727   0.452   0.935   1.675  0.9121 -1.7492  1.7562
  182SOL     MW  728   0.374   0.968   1.651  0.2181 -0.4033  0.2883
  183SOL     OW  729   1.544   1.726   1.264  0.7990  0.2079  0.6240
  183SOL    HW1  730   1.636   1.729   1.280 -1.7902  0.3753 -0.4884
  183SOL    HW2  731   1.529   1.633   1.289  0.1772  1.3395  2.1252
  183SOL     MW  732   1.554   1.714   1.269  0.3753  0.3793  0.6753
  184SOL     OW  733   0.788   0.724   1.796  0.3963 -0.0736 -0.4221
  184SOL    HW1  734   0.863   0.711   1.742  0.6093 -1.4856 -0.3345
  184SOL    HW2  735   0.809   0.673   1.872 -1.2090  1.4831 -1.5591
  184SOL     MW  736   0.801   0.715   1.799  0.2126 -0.0545 -0.5606
  185SOL     OW  737   1.082   0.958   1.879  0.6151  0.2348 -0.2336
  185SOL    HW1  738   1.049   0.871   1.908 -2.0954  1.4022 -2.8852
  185SOL    HW2  739   1.137   1.003   1.947  0.5609  2.6341 -0.3208
  185SOL     MW  740   1.085   0.952   1.892  0.2504  0.7054 -0.5950
  186SOL     OW  741   0.302   1.635   1.488 -0.4521 -0.4477 -0.2870
  186SOL    HW1  742   0.316   1.600   1.402  2.0911  0.7005  0.1387
  186SOL    HW2  743   0.220   1.595   1.515 -0.3174 -0.4524  3.0777
  186SOL     MW  744   0.293   1.625   1.480 -0.0988 -0.2969  0.2131
  187SOL     OW  745   1.440   0.768   1.387 -0.3436 -0.1955 -0.0475
  187SOL    HW1  746   1.487   0.732   1.463 -1.5879 -0.4586  0.3030
  187SOL    HW2  747   1.351   0.744   1.408 -0.2264  0.6655  0.6028
  187SOL     MW  748   1.435   0.760   1.400 -0.4923 -0.1166  0.0846
  188SOL     OW  749   1.913   1.205   0.835 -0.5769  0.0339  0.1066
  188SOL    HW1  750   1.917   1.188   0.932 -1.7729  0.0780  2.5552
  188SOL    HW2  751   1.920   1.123   0.789 -0.0210 -1.4666 -0.7624
  188SOL     MW  752   1.914   1.192   0.842 -0.6613 -0.1582  0.3150
  189SOL     OW  753   0.675   0.733   0.877 -0.2876  0.0297 -0.0477
  189SOL    HW1  754   0.596   0.782   0.876  0.5168 -2.1012  1.1015
  189SOL    HW2  755   0.707   0.755   0.970  3.5092  0.8934 -0.8171
  189SOL     MW  756   0.669   0.742   0.889  0.3195 -0.1375  0.0024
  190SOL     OW  757   1.866   0.282   2.099  0.0531  0.1099  0.7996
  190SOL    HW1  758   1.855   0.253   2.195 -2.4337 -1.6241 -0.0804
  190SOL    HW2  759   1.943   0.346   2.094 -0.5595  0.3696 -3.0859
  190SOL     MW  760   1.875   0.286   2.111 -0.3558 -0.0847  0.1709
  191SOL     OW  761   1.528   0.983   1.238  0.1137 -0.3315 -0.1024
  191SOL    HW1  762   1.527   1.048   1.311  2.4780  1.9768  0.2229
  191SOL    HW2  763   1.489   0.904   1.279  0.1216 -1.7377 -0.2898
  191SOL     MW  764   1.523   0.981   1.253  0.4267 -0.2125 -0.0842
  192SOL     OW  765   0.526   2.177   2.874  0.5827  0.4850  0.0205
  192SOL    HW1  766   0.495   2.229   2.801 -2.6943 -0.1827 -1.7324
  192SOL    HW2  767   0.525   2.084   2.854  0.2286 -0.3539  0.1584
  192SOL     MW  768   0.522   2.171   2.862  0.1037  0.2862 -0.1926
  193SOL     OW  769   0.860   1.622   0.785 -0.0319  0.6846  0.1786
  193SOL    HW1  770   0.767   1.607   0.804 -3.0510 -0.2397 -3.1375
  193SOL    HW2  771   0.858   1.570   0.696 -0.0355  0.1523  3.0132
  193SOL     MW  772   0.848   1.613   0.776 -0.4307  0.4925  0.1151
  194SOL     OW  773   0.491   1.320   0.805 -0.3712  0.2579 -0.2751
  194SOL    HW1  774   0.497   1.266   0.888 -0.4606  0.4206  1.1408
  194SOL    HW2  775   0.401   1.350   0.798  0.2290 -2.0817 -0.2838
  194SOL     MW  776   0.480   1.317   0.815 -0.3038 -0.0293 -0.0894
  195SOL     OW  777   1.302   1.097   2.962 -0.1104 -0.0840  0.7923
  195SOL    HW1  778   1.351   1.115   3.040 -1.4417  0.3344  2.8302
  195SOL    HW2  779   1.239   1.031   2.990  0.4749 -0.6720 -1.0357
  195SOL     MW  780   1.300   1.090   2.976 -0.2088 -0.1064  0.8200
  196SOL     OW  781   2.267   1.010   0.582 -0.1241  0.5328  0.4219
  196SOL    HW1  782   2.291   1.013   0.488  2.4281  1.6683 -2.3357
  196SOL    HW2  783   2.252   1.103   0.607  0.6780  1.2718  1.7882
  196SOL     MW  784   2.269   1.022   0.573  0.3185  0.7801  0.2383
  197SOL     OW  785   0.635   1.321   2.212  0.3639  0.9242 -0.3015
  197SOL    HW1  786   0.663   1.246   2.161 -0.6871  2.7893  0.6517
  197SOL    HW2  787   0.665   1.402   2.169  0.4863  1.8400  2.1967
  197SOL     MW  788   0.643   1.322   2.200  0.2414  1.2911  0.1539
  198SOL     OW  789   2.920   1.426   0.989  0.5020  0.3253 -0.4101
  198SOL    HW1  790   2.858   1.489   0.954  2.4637  1.4982  0.1670
  198SOL    HW2  791   2.865   1.344   0.995  2.4918 -1.7685 -2.2317
  198SOL     MW  792   2.904   1.423   0.985  1.0234  0.2038 -0.5743
  199SOL     OW  793   0.722   1.310   1.849 -0.7079  0.0361 -0.7577
  199SOL    HW1  794   0.627   1.298   1.854 -1.7449  0.7554 -1.3111
  199SOL    HW2  795   0.738   1.357   1.765 -2.3635  1.4042 -2.2768
  199SOL     MW  796   0.712   1.315   1.838 -1.0631  0.3115 -1.0311
  200SOL     OW  797   1.850   2.923   1.340  0.2781 -0.2056 -0.1103
  200SOL    HW1  798   1.907   2.977   1.275  1.2119  0.2947 -0.5739
  200SOL    HW2  799   1.765   2.965   1.342 -5.6517  0.7890  0.3132
  200SOL     MW  800   1.846   2.936   1.331 -0.3811 -0.0084 -0.1156
  201SOL     OW  801   1.143   0.332   0.789  0.5386  0.1155  0.6469
  201SOL    HW1  802   1.129   0.243   0.821  1.1901 -0.6804  0.0459
  201SOL    HW2  803   1.223   0.356   0.831  0.9652 -0.2785 -3.2359
  201SOL     MW  804   1.152   0.324   0.799  0.6809 -0.0415  0.0553
  202SOL     OW  805   1.496   1.774   0.999  0.1163 -0.2016 -0.2087
  202SOL    HW1  806   1.513   1.682   0.970 -1.1797 -0.0864  1.1032
  202SOL    HW2  807   1.509   1.774   1.096  1.2899  1.7105 -3.8215
  202SOL     MW  808   1.500   1.762   1.008  0.1001  0.0659 -0.5122
  203SOL     OW  809   2.995   0.350   1.337  0.1616  0.0112 -0.5381
  203SOL    HW1  810   3.024   0.268   1.368  2.0691  1.3324 -1.2491
  203SOL    HW2  811   3.050   0.377   1.266  1.5994 -1.4238 -0.5485
  203SOL     MW  812   3.006   0.343   1.332  0.6030 -0.0038 -0.6333
  204SOL     OW  813   1.013   1.785   0.633 -0.4505 -0.0185  0.1199
  204SOL    HW1  814   0.979   1.739   0.709  0.4089 -0.4995  1.2964
  204SOL    HW2  815   0.935   1.792   0.575 -1.4113  0.3403  2.3450
  204SOL     MW  816   0.998   1.780   0.635 -0.4638 -0.0346  0.5687
  205SOL     OW  817   1.398   3.035   1.324 -0.2518  0.3545 -0.0811
  205SOL    HW1  818   1.426   3.070   1.237  0.8699 -0.1039 -1.7357
  205SOL    HW2  819   1.334   3.101   1.357 -0.5692  0.0770 -2.0558
  205SOL     MW  820   1.393   3.049   1.317 -0.1457  0.2574 -0.5599
  206SOL     OW  821   0.405   2.998   1.343 -0.1707 -0.9649  0.1413
  206SOL    HW1  822   0.401   2.986   1.248  1.3848  2.6902 -1.1606
  206SOL    HW2  823   0.491   2.963   1.364 -1.0671  0.3653 -1.6206
  206SOL     MW  824   0.416   2.992   1.333 -0.0837 -0.3072 -0.2629
  207SOL     OW  825   0.873   1.765   0.214 -0.4426  0.5914  0.3019
  207SOL    HW1  826   0.927   1.828   0.174 -1.2534 -0.0748  1.0039
  207SOL    HW2  827   0.939   1.695   0.218  1.3285 -0.0893 -1.1584
  207SOL     MW  828   0.889   1.764   0.209 -0.3159  0.4137  0.2018
  208SOL     OW  829   0.793   1.588   1.394 -0.5083 -0.6994 -0.2028
  208SOL    HW1  830   0.879   1.599   1.427  0.4070 -2.4487  1.1223
  208SOL    HW2  831   0.792   1.592   1.295  1.3139  1.0321  1.7339
  208SOL     MW  832   0.804   1.590   1.385 -0.1471 -0.7017  0.2275
  209SOL     OW  833   1.538   0.527   2.849 -0.0132  0.2975 -0.1161
  209SOL    HW1  834   1.613   0.586   2.875 -1.0567  0.2732  0.9833
  209SOL    HW2  835   1.583   0.441   2.846  1.1237 -1.0704  0.4274
  209SOL     MW  836   1.554   0.524   2.852 -0.0009  0.1138  0.1007
  210SOL     OW  837   1.483   1.485   0.959 -0.6234 -0.5599 -0.2079
  210SOL    HW1  838   1.562   1.444   0.928 -0.8069 -0.7117 -0.9153
  210SOL    HW2  839   1.422   1.486   0.881  0.7160 -1.5511 -1.0955
  210SOL     MW  840   1.485   1.480   0.944 -0.4709 -0.7107 -0.4184
  211SOL     OW  841   1.746   0.338   0.968 -0.1452  0.3463  0.0654
  211SOL    HW1  842   1.753   0.358   0.875 -0.4139  0.7586 -0.4947
  211SOL    HW2  843   1.841   0.350   0.996 -0.3104  0.1487 -3.6520
  211SOL     MW  844   1.759   0.342   0.960 -0.2024  0.3747 -0.4990
  212SOL     OW  845   0.313   1.118   0.267 -0.0840  0.3235 -0.5497
  212SOL    HW1  846   0.224   1.083   0.289  1.6390 -1.9964  0.6364
  212SOL    HW2  847   0.352   1.066   0.201 -0.1621  1.4372  0.6681
  212SOL     MW  848   0.306   1.106   0.261  0.1330  0.1643 -0.2325
  213SOL     OW  849   0.366   1.857   3.032  0.1061  0.4761 -0.0630
  213SOL    HW1  850   0.407   1.887   3.119  0.2943 -0.2628  0.5722
  213SOL    HW2  851   0.431   1.898   2.967  0.7889  3.0300  0.3123
  213SOL     MW  852   0.380   1.866   3.035  0.2210  0.7155  0.0703
  214SOL     OW  853   0.602   0.298   2.121 -0.1227 -0.2297 -0.0312
  214SOL    HW1  854   0.547   0.389   2.117 -1.3931  2.8510 -2.9856
  214SOL    HW2  855   0.606   0.281   2.030 -0.7523  1.2619  1.4566
  214SOL     MW  856   0.595   0.307   2.109 -0.3734  0.3736 -0.2247
  215SOL     OW  857   0.491   0.551   2.529 -0.0569 -0.1196 -0.4941
  215SOL    HW1  858   0.486   0.596   2.447  2.0846 -1.6363  1.9018
  215SOL    HW2  859   0.416   0.580   2.578 -0.7812  2.6526 -2.8785
  215SOL     MW  860   0.480   0.561   2.525  0.1301  0.0460 -0.4926
  216SOL     OW  861   2.931   3.067   2.722 -0.3331  0.1821  0.0666
  216SOL    HW1  862   2.868   3.048   2.793 -3.8702  0.4640 -1.8484
  216SOL    HW2  863   2.943   3.169   2.729  1.0042  2.0650 -0.8852
  216SOL     MW  864   2.924   3.078   2.733 -0.6234  0.4677 -0.3117
  217SOL     OW  865   1.036   1.071   0.147 -0.4326 -0.2578 -0.2235
  217SOL    HW1  866   1.044   0.998   0.086 -0.8695  2.2052  1.8388
  217SOL    HW2  867   1.068   1.156   0.105  1.7143  1.3898  0.6815
  217SOL     MW  868   1.042   1.073   0.133 -0.2070  0.2845  0.1680
  218SOL     OW  869   0.863   1.362   2.655  0.0360 -0.1498 -0.3624
  218SOL    HW1  870   0.884   1.301   2.727  2.9342 -1.6284 -0.9590
  218SOL    HW2  871   0.947   1.410   2.642  0.3857  0.1031  2.0740
  218SOL     MW  872   0.877   1.361   2.663  0.4645 -0.3115 -0.1197
  219SOL     OW  873   1.039   0.412   2.620 -0.0100 -0.2289  0.2115
  219SOL    HW1  874   1.106   0.472   2.659 -0.2850 -0.9648 -1.0569
  219SOL    HW2  875   0.953   0.459   2.630 -1.6844  0.6699 -1.9333
  219SOL     MW  876   1.037   0.426   2.626 -0.2672 -0.2074 -0.2388
  220SOL     OW  877   1.726   0.515   2.184  0.2371 -0.0532 -0.3169
  220SOL    HW1  878   1.629   0.530   2.184 -1.5167 -1.5025 -1.0525
  220SOL    HW2  879   1.751   0.449   2.116  1.6575  0.1087  0.8093
  220SOL     MW  880   1.716   0.509   2.175  0.1931 -0.2230 -0.2654
  221SOL     OW  881   0.343   1.322   2.942 -0.0264  0.0787  0.0701
  221SOL    HW1  882   0.406   1.254   2.936  0.3431  2.4606 -3.0436
  221SOL    HW2  883   0.374   1.390   2.887 -0.5315  0.7848  0.1788
  221SOL     MW  884   0.356   1.322   2.934 -0.0443  0.4862 -0.3264
  222SOL     OW  885   0.504   0.974   2.684  0.2441 -0.1552 -0.1827
  222SOL    HW1  886   0.425   0.988   2.634  0.1507  1.0843  2.9867
  222SOL    HW2  887   0.497   0.876   2.697 -0.5929 -1.6718 -2.4428
  222SOL     MW  888   0.492   0.963   2.679  0.1213 -0.1918 -0.0627
  223SOL     OW  889   0.017   2.046   2.552  0.1154  0.1687 -0.6735
  223SOL    HW1  890  -0.034   2.083   2.620  0.2134  1.4966 -0.3392
  223SOL    HW2  891   0.047   2.117   2.490  2.5959  2.0865 -1.8825
  223SOL     MW  892   0.014   2.060   2.553  0.4556  0.5970 -0.7889
  224SOL     OW  893   1.440   0.717   2.464  0.3674 -0.0549  0.1649
  224SOL    HW1  894   1.501   0.698   2.537 -0.4250  4.0531 -0.6216
  224SOL    HW2  895   1.431   0.813   2.447 -0.3076  1.2383 -0.3053
  224SOL     MW  896   1.447   0.727   2.472  0.1738  0.6577 -0.0009
  225SOL     OW  897   2.942   1.446   2.290 -0.5882  0.1123  0.6636
  225SOL    HW1  898   2.985   1.521   2.243 -0.5939  1.1886  2.6449
  225SOL    HW2  899   2.886   1.494   2.350  0.8168 -0.8129 -1.3435
  225SOL     MW  900   2.940   1.462   2.292 -0.4036  0.1322  0.6602
  226SOL     OW  901   0.417   1.480   2.713  0.3786  0.1161  0.2158
  226SOL    HW1  902   0.499   1.531   2.720  1.2122 -0.4783 -2.0861
  226SOL    HW2  903   0.366   1.552   2.686  0.5123 -3.2281  0.3789
  226SOL     MW  904   0.421   1.496   2.711  0.5062 -0.4035 -0.0664
  227SOL     OW  905   0.564   1.134   2.916 -0.5477  0.4953  0.6904
  227SOL    HW1  906   0.646   1.166   2.878 -1.2989 -1.2656  3.1608
  227SOL    HW2  907   0.540   1.073   2.847 -0.6428  0.3353 -0.2513
  227SOL     MW  908   0.572   1.131   2.902 -0.6593  0.2419  0.8921
  228SOL     OW  909   0.757   1.132   2.041 -0.3398 -0.0820  0.1208
  228SOL    HW1  910   0.741   1.200   1.972  1.5604 -0.6372  1.0852
  228SOL    HW2  911   0.837   1.149   2.093  0.4304 -2.2981 -1.2376
  228SOL     MW  912   0.765   1.143   2.039  0.0126 -0.4477  0.0688
  229SOL     OW  913   0.239   0.576   3.085  0.5215 -0.4317 -0.1825
  229SOL    HW1  914   0.175   0.564   3.007 -1.5558  2.3895 -1.3514
  229SOL    HW2  915   0.216   0.509   3.155 -1.0959 -0.2497  1.9990
  229SOL     MW  916   0.228   0.566   3.084  0.0340 -0.0355 -0.0489
  230SOL     OW  917   1.798   1.378   2.016 -0.3735  0.2449  0.4078
  230SOL    HW1  918   1.750   1.331   2.080  1.0017 -1.1660 -0.4789
  230SOL    HW2  919   1.829   1.302   1.966  3.6353 -0.5660 -0.2160
  230SOL     MW  920   1.796   1.361   2.018  0.3369 -0.0483  0.2085
  231SOL     OW  921   2.722   1.253   2.261 -0.3243 -0.8234  0.2891
  231SOL    HW1  922   2.801   1.304   2.243  1.1912  1.9135  2.5528
  231SOL    HW2  923   2.669   1.260   2.184 -0.3731 -1.8974  2.6394
  231SOL     MW  924   2.725   1.260   2.248 -0.1308 -0.6040  0.8978
  232SOL     OW  925   2.305   0.808   1.956 -0.0810  0.2185 -0.3073
  232SOL    HW1  926   2.222   0.827   1.906 -0.8786 -0.0751 -2.3886
  232SOL    HW2  927   2.258   0.814   2.040  0.0642  0.5907 -1.4353
  232SOL     MW  928   2.288   0.811   1.961 -0.1671  0.2289 -0.7307
  233SOL     OW  929   2.110   0.437   2.088 -0.0858 -0.1266 -0.0878
  233SOL    HW1  930   2.161   0.361   2.054  1.6118 -0.9275 -1.5861
  233SOL    HW2  931   2.161   0.472   2.159 -3.8530 -1.2787 -2.4522
  233SOL     MW  932   2.124   0.432   2.093 -0.3589 -0.3843 -0.5975
  234SOL     OW  933   0.244   1.038   2.627 -0.5632 -0.1890  0.4564
  234SOL    HW1  934   0.174   1.014   2.572 -1.3229  0.4598  3.6444
  234SOL    HW2  935   0.269   1.134   2.606  0.2204 -0.5371  1.9516
  234SOL     MW  936   0.239   1.048   2.617 -0.5601 -0.1494  1.0743
  235SOL     OW  937   1.085   3.003   2.823  0.9831  0.3633  0.2035
  235SOL    HW1  938   1.099   2.986   2.916 -0.1139  0.1429  1.4680
  235SOL    HW2  939   1.068   3.099   2.808  1.9010 -0.8424 -1.0899
  235SOL     MW  940   1.084   3.014   2.833  0.9595  0.1752  0.1997
  236SOL     OW  941   2.955   0.611   0.194  0.1949  0.1135  0.9345
  236SOL    HW1  942   2.962   0.647   0.279  0.1879  0.2176  0.0861
  236SOL    HW2  943   3.013   0.672   0.149  0.2478 -1.6118 -0.1564
  236SOL     MW  944   2.963   0.623   0.199  0.2010 -0.1004  0.6786
  237SOL     OW  945   1.955   1.062   2.136 -0.5281 -0.1867 -0.1915
  237SOL    HW1  946   1.878   1.115   2.129  0.7438  3.7479  2.4248
  237SOL    HW2  947   1.931   0.975   2.146 -1.9101  1.7276 -1.5007
  237SOL     MW  948   1.942   1.058   2.137 -0.5426  0.5850 -0.0191
  238SOL     OW  949   1.096   1.760   2.962 -0.0193 -0.6250 -0.5260
  238SOL    HW1  950   1.029   1.691   2.954  2.5210 -0.3978 -0.0725
  238SOL    HW2  951   1.186   1.721   2.957  0.6038 -0.7253  1.3664
  238SOL     MW  952   1.099   1.746   2.961  0.3980 -0.6082 -0.2165
  239SOL     OW  953   1.168   1.289   2.281 -0.1673 -0.1269  0.4297
  239SOL    HW1  954   1.083   1.258   2.251  1.0381  0.7167  0.5577
  239SOL    HW2  955   1.194   1.236   2.360  0.6672 -0.5287  3.0842
  239SOL     MW  956   1.160   1.278   2.287  0.1018 -0.0686  0.7968
  240SOL     OW  957   0.589   0.891   2.210 -0.4472  0.2253 -0.3226
  240SOL    HW1  958   0.608   0.933   2.306  1.1165 -1.3060  1.6772
  240SOL    HW2  959   0.681   0.866   2.184  0.1901 -0.7372  2.0379
  240SOL     MW  960   0.604   0.893   2.219 -0.1568 -0.1037  0.2527
  241SOL     OW  961   0.675   0.451   3.065 -0.2803  0.1064  0.4724
  241SOL    HW1  962   0.687   0.524   3.125 -0.7499 -0.7300 -2.4152
  241SOL    HW2  963   0.598   0.469   3.012 -1.4470 -0.9822  0.1657
  241SOL     MW  964   0.666   0.463   3.066 -0.4962 -0.1476  0.0509
  242SOL     OW  965   1.494   1.687   2.310  0.3581 -0.6061  0.0800
  242SOL    HW1  966   1.435   1.760   2.315 -1.7817 -1.0754  1.9847
  242SOL    HW2  967   1.448   1.618   2.254  0.7275  0.5832  0.6633
  242SOL     MW  968   1.480   1.687   2.304  0.1245 -0.5111  0.4083
  243SOL     OW  969   1.049   0.329   2.353  0.0329 -0.2062 -0.0931
  243SOL    HW1  970   1.136   0.281   2.348  0.4377 -0.9040 -0.8027
  243SOL    HW2  971   1.046   0.346   2.442  1.7237  0.1037  0.0965
  243SOL     MW  972   1.060   0.325   2.364  0.3094 -0.2574 -0.1617
  244SOL     OW  973   0.110   0.753   2.389  0.0650 -0.5515  0.0048
  244SOL    HW1  974   0.081   0.841   2.380  0.1505  1.8971  1.0110
  244SOL    HW2  975   0.198   0.743   2.357 -0.3461 -0.7294 -0.4001
  244SOL     MW  976   0.118   0.763   2.383  0.0221 -0.2519  0.0842
  245SOL     OW  977   1.279   0.203   2.374  0.3124 -0.5999  0.2572
  245SOL    HW1  978   1.357   0.161   2.328  0.7480 -1.1259  0.8545
  245SOL    HW2  979   1.290   0.171   2.468 -1.9427  1.0801  3.3861
  245SOL     MW  980   1.291   0.193   2.381  0.0723 -0.4476  0.7488
  246SOL     OW  981   1.231   1.091   2.062 -0.1272  0.0939  0.7687
  246SOL    HW1  982   1.161   1.110   2.123  2.0663  0.6262 -0.1613
  246SOL    HW2  983   1.304   1.084   2.130  1.4362  0.3681  1.8175
  246SOL     MW  984   1.231   1.093   2.079  0.3684  0.2003  0.7844
  247SOL     OW  985   0.759   0.649   0.133  0.0553  0.1079 -0.2203
  247SOL    HW1  986   0.732   0.740   0.114  1.5690  1.7352 -1.1544
  247SOL    HW2  987   0.852   0.647   0.107 -2.1943 -3.3659 -1.5787
  247SOL     MW  988   0.768   0.660   0.127 -0.0418 -0.1357 -0.5228
  248SOL     OW  989   0.310   1.277   2.546 -0.3986 -0.1982 -0.3481
  248SOL    HW1  990   0.306   1.317   2.455 -0.9454  5.2337  0.3607
  248SOL    HW2  991   0.375   1.341   2.591 -0.6734 -0.5397 -1.2809
  248SOL     MW  992   0.318   1.291   2.540 -0.5070  0.4735 -0.3777
  249SOL     OW  993   2.985   1.939   2.808 -0.0472  0.2549 -0.2684
  249SOL    HW1  994   2.956   1.879   2.741  0.0736 -0.0721  0.8792
  249SOL    HW2  995   3.064   1.904   2.847  0.1498 -0.4446 -0.8936
  249SOL     MW  996   2.991   1.926   2.805 -0.0052  0.1195 -0.1995
  250SOL     OW  997   2.189   0.811   2.198  0.4614 -0.1312 -0.4720
  250SOL    HW1  998   2.149   0.733   2.235 -2.7698 -2.0842  4.6082
  250SOL    HW2  999   2.199   0.877   2.268 -0.2224 -2.6196  2.2237
  250SOL     MW 1000   2.185   0.809   2.212 -0.0552 -0.7172  0.5540
  251SOL     OW 1001   0.136   0.889   2.030 -0.0509 -0.3897 -0.4661
  251SOL    HW1 1002   0.091   0.807   2.040 -1.0175 -2.4277  0.5406
  251SOL    HW2 1003   0.146   0.895   1.934 -0.9274  0.7347 -0.0024
  251SOL     MW 1004   0.132   0.879   2.019 -0.2941 -0.5103 -0.2721
  252SOL     OW 1005   1.672   0.982   2.825 -0.2358  0.0365  0.3850
  252SOL    HW1 1006   1.672   0.995   2.919 -0.7256  1.4455  1.6279
  252SOL    HW2 1007   1.761   1.009   2.792  3.4986 -0.1475  1.3642
  252SOL     MW 1008   1.684   0.987   2.833  0.1923  0.1981  0.6782
  253SOL     OW 1009   1.171   1.704   2.469  0.3306  0.5437  0.0473
  253SOL    HW1 1010   1.143   1.686   2.381  0.5097 -3.1746 -0.6891
  253SOL    HW2 1011   1.106   1.753   2.520  4.8355 -2.2049  1.3780
  253SOL     MW 1012   1.159   1.708   2.464  0.9486 -0.3096  0.1257
  254SOL     OW 1013   0.962   1.132   2.228  0.3310  0.0390  0.0567
  254SOL    HW1 1014   0.937   1.036   2.222 -0.6406 -2.0345 -3.8030
  254SOL    HW2 1015   0.924   1.174   2.306 -0.4753  0.2079  0.5848
  254SOL     MW 1016   0.953   1.125   2.238  0.0964 -0.2123 -0.3829
  255SOL     OW 1017   0.832   2.560   2.123 -0.2542 -0.2153 -0.4468
  255SOL    HW1 1018   0.763   2.493   2.139 -1.9002 -1.0494  3.0531
  255SOL    HW2 1019   0.895   2.525   2.179  0.8837 -0.2288  0.9843
  255SOL     MW 1020   0.831   2.547   2.133 -0.3212 -0.3271  0.2038
  256SOL     OW 1021   1.214   2.766   3.005  0.0231  0.2052 -0.0267
  256SOL    HW1 1022   1.168   2.688   2.981 -0.7463 -1.4531  1.4272
  256SOL    HW2 1023   1.296   2.766   2.954  1.3703 -0.6272 -2.9513
  256SOL     MW 1024   1.218   2.756   2.995  0.0993 -0.1234 -0.2208
  257SOL     OW 1025   0.045   1.874   0.102 -0.6226  0.1119 -0.2208
  257SOL    HW1 1026   0.128   1.844   0.138  0.8077 -1.7960  3.5085
  257SOL    HW2 1027   0.062   1.866   0.009  1.4277  0.5921  0.4165
  257SOL     MW 1028   0.058   1.869   0.094 -0.1633 -0.0764  0.3553
  258SOL     OW 1029   0.643   1.000   2.442  0.1434  0.4223  0.2739
  258SOL    HW1 1030   0.698   1.077   2.448 -1.9122 -2.2000  2.6045
  258SOL    HW2 1031   0.606   0.992   2.526 -1.5598 -0.8833 -0.6523
  258SOL     MW 1032   0.646   1.009   2.454 -0.3525 -0.0959  0.4592
  259SOL     OW 1033   0.824   0.508   2.276  0.3486 -0.0672 -0.3989
  259SOL    HW1 1034   0.757   0.441   2.257 -0.2301  2.2826  0.8568
  259SOL    HW2 1035   0.911   0.468   2.280  0.8439  0.5411  1.4542
  259SOL     MW 1036   0.827   0.494   2.274  0.3376  0.3231  0.0113
  260SOL     OW 1037   0.641   0.105   1.563 -0.1621  0.5007  0.1258
  260SOL    HW1 1038   0.612   0.185   1.523  2.8891  0.0925  0.7352
  260SOL    HW2 1039   0.721   0.080   1.522 -0.7083 -1.8096  3.6927
  260SOL     MW 1040   0.647   0.112   1.552  0.1684  0.1420  0.6768
  261SOL     OW 1041   1.015   0.707   1.994 -0.0088 -0.2786 -0.1655
  261SOL    HW1 1042   1.077   0.713   2.067  1.7451 -1.9084  2.5034
  261SOL    HW2 1043   0.978   0.619   1.994 -0.3620 -0.9287  0.0277
  261SOL     MW 1044   1.018   0.696   2.004  0.1760 -0.5794  0.2121
  262SOL     OW 1045   1.151   0.359   0.112  0.2810  1.0358 -0.4377
  262SOL    HW1 1046   1.247   0.346   0.129  1.1477 -2.6902 -0.6061
  262SOL    HW2 1047   1.140   0.304   0.034 -0.7359  1.5913 -3.6685
  262SOL     MW 1048   1.162   0.350   0.104  0.2612  0.6175 -0.8862
  263SOL     OW 1049   0.364   0.010   2.499  0.4029  0.4602  0.0879
  263SOL    HW1 1050   0.299   0.083   2.493  0.0226  0.2999  1.2652
  263SOL    HW2 1051   0.432   0.049   2.442 -1.6227  1.3819  0.0198
  263SOL     MW 1052   0.365   0.025   2.491  0.0855  0.5606  0.2343
  264SOL     OW 1053   1.543   1.420   1.934 -0.0582  0.4277  0.1695
  264SOL    HW1 1054   1.495   1.344   1.902 -0.1209  0.4287  0.7036
  264SOL    HW2 1055   1.636   1.397   1.951 -1.4187  2.8341 -0.4959
  264SOL     MW 1056   1.549   1.407   1.932 -0.2460  0.7454  0.1522
  265SOL     OW 1057   0.731   2.809   2.284 -0.3302  0.3933 -0.4132
  265SOL    HW1 1058   0.804   2.755   2.255  0.7761 -1.9780  1.6921
  265SOL    HW2 1059   0.722   2.789   2.378  1.7665  0.2606 -0.3052
  265SOL     MW 1060   0.739   2.799   2.293  0.0924  0.0629 -0.1212
  266SOL     OW 1061   0.879   0.886   2.117 -0.3180  0.0536  0.6191
  266SOL    HW1 1062   0.850   0.936   2.043 -3.2390 -0.2500 -0.1896
  266SOL    HW2 1063   0.913   0.810   2.081 -2.3225 -1.5433  1.8867
  266SOL     MW 1064   0.880   0.883   2.102 -0.9678 -0.1972  0.6796
  267SOL     OW 1065   1.373   1.678   2.650 -0.0198 -0.3579 -0.0728
  267SOL    HW1 1066   1.434   1.634   2.595 -3.3092  1.4347 -0.7155
  267SOL    HW2 1067   1.287   1.680   2.605 -0.7165 -0.8646  2.2117
  267SOL     MW 1068   1.370   1.672   2.636 -0.5457 -0.1883  0.1438
  268SOL     OW 1069   0.159   0.892   1.770  0.1557 -0.1734  1.2150
  268SOL    HW1 1070   0.126   0.974   1.726  1.5852 -0.6933 -2.6090
  268SOL    HW2 1071   0.127   0.822   1.712  0.2324  1.9470  0.2220
  268SOL     MW 1072   0.150   0.893   1.756  0.3545  0.0378  0.5795
  269SOL     OW 1073   1.320   1.886   2.295 -0.3751 -0.0845  0.0683
  269SOL    HW1 1074   1.322   1.977   2.333 -2.4674 -0.0167 -0.7664
  269SOL    HW2 1075   1.250   1.838   2.347 -2.8137 -0.0504  1.1481
  269SOL     MW 1076   1.311   1.891   2.307 -0.9729 -0.0711  0.1006
  270SOL     OW 1077   1.121   0.380   1.564 -0.0023 -0.5826 -0.2604
  270SOL    HW1 1078   1.082   0.300   1.597 -0.8156 -1.7592 -0.4956
  270SOL    HW2 1079   1.208   0.388   1.601 -0.7406 -0.2986  0.7128
  270SOL     MW 1080   1.127   0.371   1.573 -0.2070 -0.7004 -0.1630
  271SOL     OW 1081   0.883   0.119   2.475  0.2998  0.3403  0.0366
  271SOL    HW1 1082   0.925   0.039   2.502 -0.0284  1.7010  1.6352
  271SOL    HW2 1083   0.943   0.170   2.419  1.0643 -1.0547  2.9138
  271SOL     MW 1084   0.896   0.116   2.471  0.3573  0.3358  0.6271
  272SOL     OW 1085   1.451   2.801   2.827  0.3256 -0.5173 -0.1391
  272SOL    HW1 1086   1.426   2.810   2.736  1.6081 -0.7392  0.1993
  272SOL    HW2 1087   1.505   2.880   2.839 -2.0754 -1.0703 -1.5475
  272SOL     MW 1088   1.455   2.813   2.816  0.1781 -0.6195 -0.2803
  273SOL     OW 1089   1.406   0.799   2.754  0.1490 -0.0126  0.2437
  273SOL    HW1 1090   1.485   0.829   2.801 -0.9639 -2.5946  0.5104
  273SOL    HW2 1091   1.380   0.882   2.711  2.0753  1.9421 -1.7968
  273SOL     MW 1092   1.413   0.814   2.755  0.2563 -0.0954  0.0097
  274SOL     OW 1093   1.453   0.695   0.163  0.2443 -0.4355 -0.4557
  274SOL    HW1 1094   1.514   0.661   0.228 -1.3829 -1.4034  0.8594
  274SOL    HW2 1095   1.372   0.713   0.214  1.3259 -1.7557  0.2534
  274SOL     MW 1096   1.451   0.693   0.178  0.1723 -0.7374 -0.1886
  275SOL     OW 1097   1.797   0.540   1.750  0.2352  0.1895 -0.1316
  275SOL    HW1 1098   1.859   0.563   1.822  1.1713  1.0316  1.0710
  275SOL    HW2 1099   1.790   0.447   1.746  0.2609  1.4293 -0.5085
  275SOL     MW 1100   1.804   0.531   1.759  0.3621  0.4642 -0.0226
  276SOL     OW 1101   0.456   1.204   1.911 -0.4370 -0.0746  0.1890
  276SOL    HW1 1102   0.476   1.116   1.946  0.6663 -2.8657 -3.5944
  276SOL    HW2 1103   0.398   1.253   1.971 -1.0946  2.7124  0.1544
  276SOL     MW 1104   0.451   1.198   1.924 -0.3782 -0.0751 -0.3147
  277SOL     OW 1105   1.987   1.084   2.436 -0.7586  0.2259 -0.0502
  277SOL    HW1 1106   2.014   1.175   2.449  1.5498 -1.1999  1.5645
  277SOL    HW2 1107   1.991   1.079   2.340  2.3801 -1.0205  0.6407
  277SOL     MW 1108   1.991   1.095   2.425 -0.0399 -0.1267  0.2540
  278SOL     OW 1109   1.452   0.653   1.704  0.1379 -0.5430 -0.3963
  278SOL    HW1 1110   1.452   0.570   1.767 -0.8598 -2.2804 -0.0743
  278SOL    HW2 1111   1.527   0.642   1.644 -2.1803 -1.2813 -0.1327
  278SOL     MW 1112   1.462   0.641   1.705 -0.2996 -0.8696 -0.3190
  279SOL     OW 1113   0.530   0.075   2.291 -0.8305 -0.0445  0.7496
  279SOL    HW1 1114   0.620   0.040   2.298  1.0734  0.3045 -0.2940
  279SOL    HW2 1115   0.547   0.167   2.258  3.6704 -0.6214 -0.1311
  279SOL     MW 1116   0.544   0.082   2.288  0.0145 -0.0746  0.4957
  280SOL     OW 1117   1.466   1.096   2.202  0.3373 -0.7791  0.0723
  280SOL    HW1 1118   1.520   1.023   2.165  2.0214 -3.0656  1.0808
  280SOL    HW2 1119   1.462   1.063   2.296  0.6367  0.8592  1.0925
  280SOL     MW 1120   1.473   1.082   2.209  0.5990 -0.8647  0.3399
  281SOL     OW 1121   1.328   1.142   2.691 -0.5047  0.4119  0.9796
  281SOL    HW1 1122   1.411   1.198   2.693 -1.0437  0.0841  0.2702
  281SOL    HW2 1123   1.304   1.132   2.783 -2.3336 -0.3812  0.5259
  281SOL     MW 1124   1.336   1.148   2.703 -0.8171  0.2640  0.8261
  282SOL     OW 1125   1.189   1.271   1.591  0.3812  0.0702 -0.2181
  282SOL    HW1 1126   1.176   1.360   1.566  0.1346 -1.3899  1.2659
  282SOL    HW2 1127   1.105   1.236   1.639 -2.1364  0.4688  1.7539
  282SOL     MW 1128   1.176   1.278   1.594  0.0165 -0.0699  0.2379
  283SOL     OW 1129   0.837   1.404   0.016 -0.3671  0.2407 -0.2097
  283SOL    HW1 1130   0.926   1.388   0.047 -1.5974  2.3885  1.2428
  283SOL    HW2 1131   0.824   1.499  -0.010  1.1961  0.2629  1.5301
  283SOL     MW 1132   0.847   1.414   0.017 -0.3232  0.5270  0.2115
  284SOL     OW 1133   0.400   0.699   2.323 -0.0969 -0.5345  0.4461
  284SOL    HW1 1134   0.476   0.763   2.300  0.8350  2.3978 -0.8134
  284SOL    HW2 1135   0.399   0.622   2.257 -2.8847 -2.9924  1.4377
  284SOL     MW 1136   0.410   0.697   2.311 -0.3418 -0.4719  0.4107
  285SOL     OW 1137   0.887   0.845   2.874  0.0998 -0.5506  0.3136
  285SOL    HW1 1138   0.892   0.879   2.785  1.3250  3.4958  2.8811
  285SOL    HW2 1139   0.799   0.803   2.870 -1.4735 -1.6958 -0.6570
  285SOL     MW 1140   0.876   0.844   2.862  0.0539 -0.1678  0.5243
  286SOL     OW 1141   1.131   1.451   2.597 -0.3885  0.3399  0.6563
  286SOL    HW1 1142   1.126   1.363   2.559  0.3685  3.3170  0.9219
  286SOL    HW2 1143   1.131   1.513   2.524  4.1678  0.2397 -1.9847
  286SOL     MW 1144   1.130   1.448   2.582  0.3125  0.7194  0.3429
  287SOL     OW 1145   1.189   1.020   0.367  0.1675 -0.3248  0.3074
  287SOL    HW1 1146   1.142   1.051   0.448 -2.3767 -0.2383 -1.7426
  287SOL    HW2 1147   1.117   1.036   0.302 -1.9760 -1.2284  2.0025
  287SOL     MW 1148   1.173   1.026   0.369 -0.4510 -0.4326  0.2605
  288SOL     OW 1149   1.460   0.616   2.117  0.0648  0.0199  0.2965
  288SOL    HW1 1150   1.403   0.624   2.195 -1.2727 -0.2389  4.6130
  288SOL    HW2 1151   1.485   0.713   2.110 -1.2231 -1.0549  0.5199
  288SOL     MW 1152   1.456   0.630   2.127 -0.2816 -0.1561  0.8955
  289SOL     OW 1153   0.931   0.951   2.598 -0.3651 -0.2659  0.0054
  289SOL    HW1 1154   0.985   0.879   2.568  1.7852 -1.5021 -0.1706
  289SOL    HW2 1155   0.862   0.960   2.531 -0.4341  0.4409 -2.1030
  289SOL     MW 1156   0.929   0.942   2.585 -0.0905 -0.3358 -0.2960
  290SOL     OW 1157   0.804   0.648   1.458 -0.4058  0.4354 -0.0276
  290SOL    HW1 1158   0.853   0.581   1.408 -1.3643  0.1639  0.6480
  290SOL    HW2 1159   0.867   0.655   1.533  1.9645 -0.1612 -0.9812
  290SOL     MW 1160   0.819   0.640   1.461 -0.2195  0.3209 -0.0643
  291SOL     OW 1161   0.210   0.345   0.154  0.7638 -0.6139 -0.4573
  291SOL    HW1 1162   0.306   0.334   0.180  0.2427 -1.8176  0.3123
  291SOL    HW2 1163   0.191   0.268   0.102  0.6204 -1.2522  0.8791
  291SOL     MW 1164   0.220   0.333   0.151  0.6762 -0.8569 -0.1794
  292SOL     OW 1165   1.043   0.639   0.098 -0.3385 -0.1304  0.1863
  292SOL    HW1 1166   1.100   0.688   0.157 -1.8893 -1.3618 -0.8637
  292SOL    HW2 1167   1.095   0.557   0.081  0.4748  0.5528  0.2496
  292SOL     MW 1168   1.057   0.635   0.103 -0.4358 -0.2027  0.0561
  293SOL     OW 1169   0.096   0.110   2.557  0.0910 -0.2380 -0.0988
  293SOL    HW1 1170   0.073   0.065   2.476  0.3030 -1.1794  0.5885
  293SOL    HW2 1171   0.016   0.126   2.603 -1.3727 -0.9751  0.1959
  293SOL     MW 1172   0.083   0.106   2.552 -0.0741 -0.4595  0.0307
  294SOL     OW 1173   1.317   0.492   2.349  0.1343 -0.9553 -0.3589
  294SOL    HW1 1174   1.340   0.555   2.415 -0.4043  0.9977 -1.6148
  294SOL    HW2 1175   1.337   0.401   2.380  4.4009 -0.1627  1.3306
  294SOL     MW 1176   1.323   0.488   2.362  0.6262 -0.5931 -0.3017
  295SOL     OW 1177   0.832   0.595   2.543  0.4686  0.6621  0.0228
  295SOL    HW1 1178   0.805   0.563   2.458  0.5845  0.2010 -0.3042
  295SOL    HW2 1179   0.750   0.631   2.587 -0.5397  3.1159  1.5696
  295SOL     MW 1180   0.818   0.595   2.538  0.3509  0.9250  0.1837
  296SOL     OW 1181   1.261   0.247   2.054  0.1080  0.7350  0.1374
  296SOL    HW1 1182   1.318   0.175   2.027 -0.2599  0.9368 -1.8945
  296SOL    HW2 1183   1.286   0.263   2.141  1.1488  0.6083 -0.7488
  296SOL     MW 1184   1.272   0.240   2.062  0.1968  0.7449 -0.2477
  297SOL     OW 1185   1.409   0.377   1.600 -0.7449  0.4018  0.2482
  297SOL    HW1 1186   1.440   0.454   1.643 -0.0561 -2.6758  0.3868
  297SOL    HW2 1187   1.420   0.304   1.661 -3.1732  0.8164  2.4510
  297SOL     MW 1188   1.415   0.378   1.613 -0.9744  0.0504  0.5572
  298SOL     OW 1189   1.585   0.880   2.093  0.0830  0.0392  0.5602
  298SOL    HW1 1190   1.618   0.936   2.022 -0.1214  1.1046 -0.2080
  298SOL    HW2 1191   1.662   0.870   2.148 -0.0505  2.2592 -1.7763
  298SOL     MW 1192   1.599   0.886   2.091  0.0384  0.4727  0.1506
  299SOL     OW 1193   0.576   1.180   0.085  0.4065  0.2148 -0.1719
  299SOL    HW1 1194   0.564   1.166  -0.007 -3.3337 -1.4257 -0.2244
  299SOL    HW2 1195   0.664   1.212   0.103  0.3252  2.1094  1.0947
  299SOL     MW 1196   0.586   1.183   0.075 -0.0977  0.2483 -0.0117
  300SOL     OW 1197   1.103   1.184   2.561 -0.3148 -0.6846  0.0289
  300SOL    HW1 1198   1.067   1.095   2.562 -1.9262  1.0137 -1.4071
  300SOL    HW2 1199   1.189   1.180   2.613  1.9834 -2.1711  0.4935
  300SOL     MW 1200   1.109   1.172   2.568 -0.2242 -0.6566 -0.0993
  301SOL     OW 1201   1.447   1.059   0.742  0.5194  0.3987  0.4240
  301SOL    HW1 1202   1.464   1.098   0.829 -0.1242 -0.5056  0.7082
  301SOL    HW2 1203   1.377   0.995   0.762 -1.9058 -0.4346  1.2770
  301SOL     MW 1204   1.440   1.056   0.756  0.1145  0.1694  0.5740
  302SOL     OW 1205   0.170   1.560   2.037 -0.0519  0.1861  0.0477
  302SOL    HW1 1206   0.189   1.460   2.034  3.0855  1.3515 -0.3459
  302SOL    HW2 1207   0.078   1.579   2.059 -0.5617 -0.5624 -1.2328
  302SOL     MW 1208   0.160   1.550   2.039  0.2948  0.2411 -0.1732
  303SOL     OW 1209   0.345   1.773   2.656 -0.6131 -0.1026 -0.3126
  303SOL    HW1 1210   0.307   1.777   2.572  1.2129  2.7969  0.0952
  303SOL    HW2 1211   0.274   1.786   2.715  0.2858  1.4838  2.7896
  303SOL     MW 1212   0.331   1.775   2.652 -0.2536  0.4893  0.1505
  304SOL     OW 1213   0.485   2.052   2.427  0.1153 -0.2532  0.7906
  304SOL    HW1 1214   0.545   2.119   2.382 -2.4731  2.6838 -1.5800
  304SOL    HW2 1215   0.546   1.979   2.441  0.4775 -0.6436  1.3104
  304SOL     MW 1216   0.501   2.051   2.423 -0.1784  0.0828  0.5464
  305SOL     OW 1217   1.117   0.677   0.538  0.4919  0.1703 -0.4542
  305SOL    HW1 1218   1.026   0.672   0.507  2.1470 -0.9420  2.6315
  305SOL    HW2 1219   1.148   0.587   0.533 -2.3768 -0.1983 -1.1314
  305SOL     MW 1220   1.109   0.664   0.533  0.3317 -0.0251 -0.1364
  306SOL     OW 1221   1.073   1.522   0.266  0.1603 -0.2640  0.4161
  306SOL    HW1 1222   1.116   1.437   0.288  2.6987 -1.7148 -1.6964
  306SOL    HW2 1223   1.135   1.543   0.192  1.1118 -1.5079  0.0276
  306SOL     MW 1224   1.087   1.514   0.259  0.6207 -0.6195  0.0861
  307SOL     OW 1225   1.386   0.459   1.913  0.4553  0.4534 -0.0353
  307SOL    HW1 1226   1.319   0.396   1.943  0.2614 -0.5175  1.0840
  307SOL    HW2 1227   1.395   0.528   1.982  0.8457 -0.4767  0.1904
  307SOL     MW 1228   1.379   0.460   1.926  0.4812  0.2026  0.1422
  308SOL     OW 1229   2.206   0.494   2.679 -0.1637 -0.0119  0.2238
  308SOL    HW1 1230   2.299   0.518   2.703 -1.1596  2.9203 -0.4565
  308SOL    HW2 1231   2.156   0.579   2.689  0.1516 -1.6422  1.0083
  308SOL     MW 1232   2.212   0.509   2.683 -0.2535  0.1599  0.2375
  309SOL     OW 1233   0.509   0.576   0.239 -0.0779 -0.6346  0.0630
  309SOL    HW1 1234   0.595   0.621   0.240  0.7311  0.1823 -2.1656
  309SOL    HW2 1235   0.531   0.485   0.219  0.9558  1.1023  0.9248
  309SOL     MW 1236   0.523   0.570   0.237  0.1652 -0.2977 -0.1173
  310SOL     OW 1237   0.437   0.600   1.882 -0.3283 -0.8104 -0.3862
  310SOL    HW1 1238   0.453   0.506   1.857 -0.5151  0.7006  2.9668
  310SOL    HW2 1239   0.488   0.662   1.821  1.7194 -0.0678 -0.8607
  310SOL     MW 1240   0.446   0.595   1.871 -0.0828 -0.5130 -0.0064
  311SOL     OW 1241   1.956   0.624   1.952  0.4995 -0.3490  0.0394
  311SOL    HW1 1242   1.925   0.670   2.033 -1.6259  1.4616  1.6688
  311SOL    HW2 1243   2.025   0.555   1.977  0.9760 -2.4264 -0.1567
  311SOL     MW 1244   1.961   0.621   1.966  0.2819 -0.3842  0.2285
  312SOL     OW 1245   1.737   2.446   0.109 -0.3654  0.0691 -0.0851
  312SOL    HW1 1246   1.785   2.440   0.189 -0.0710  0.5683 -1.2075
  312SOL    HW2 1247   1.659   2.503   0.125 -0.5104  0.8488  0.9928
  312SOL     MW 1248   1.733   2.453   0.121 -0.3457  0.2378 -0.0910
  313SOL     OW 1249   0.131   1.119   3.035  0.2687 -0.2340 -0.1680
  313SOL    HW1 1250   0.079   1.159   3.109  1.6440  1.3670 -0.4322
  313SOL    HW2 1251   0.157   1.200   2.984  0.5037  1.0128 -0.5300
  313SOL     MW 1252   0.127   1.135   3.038  0.4812  0.1417 -0.2506
  314SOL     OW 1253   2.161   2.949   0.022 -0.1095 -0.0928 -0.0321
  314SOL    HW1 1254   2.120   2.956  -0.057 -0.5079 -1.1673  5.0050
  314SOL    HW2 1255   2.225   3.024   0.028  0.7800 -1.7457  2.5669
  314SOL     MW 1256   2.165   2.960   0.013 -0.0447 -0.4527  0.9754
  315SOL     OW 1257   1.540   1.821   2.966  0.1450  0.3774 -0.0971
  315SOL    HW1 1258   1.496   1.884   3.031  0.5193  1.5970 -0.9714
  315SOL    HW2 1259   1.590   1.870   2.903 -0.6091  0.8693 -0.3693
  315SOL     MW 1260   1.541   1.836   2.966  0.0949  0.6032 -0.2483
  316SOL     OW 1261   1.201   0.630   2.705 -0.1547  0.9344 -0.7046
  316SOL    HW1 1262   1.294   0.664   2.720 -2.0878  3.7766  0.1842
  316SOL    HW2 1263   1.157   0.612   2.796 -1.1986 -1.4038 -1.0598
  316SOL     MW 1264   1.208   0.632   2.719 -0.5475  1.0009 -0.6342
  317SOL     OW 1265   0.660   1.597   2.637 -0.2236 -0.1721 -0.0049
  317SOL    HW1 1266   0.726   1.534   2.643  1.2562  0.3559 -4.5232
  317SOL    HW2 1267   0.662   1.610   2.537  1.1513  1.0221 -0.4562
  317SOL     MW 1268   0.669   1.590   2.625  0.1530  0.0552 -0.6606
  318SOL     OW 1269   1.322   0.389   2.965  0.0049 -0.3365  0.0794
  318SOL    HW1 1270   1.229   0.415   2.983  1.2489  0.6457 -1.0217
  318SOL    HW2 1271   1.369   0.466   2.919  0.2172 -0.0080 -1.2280
  318SOL     MW 1272   1.316   0.402   2.961  0.1970 -0.1636 -0.2383
  319SOL     OW 1273   0.806   0.420   2.818 -1.0595  0.5627 -0.2005
  319SOL    HW1 1274   0.791   0.343   2.770 -0.7143  3.0924  0.1401
  319SOL    HW2 1275   0.769   0.406   2.903  0.3956 -1.7170 -4.4067
  319SOL     MW 1276   0.800   0.408   2.823 -0.8220  0.5957 -0.7105
  320SOL     OW 1277   1.055   1.373   1.962  0.3448 -0.6384 -0.0513
  320SOL    HW1 1278   1.101   1.306   2.005 -2.7133  1.1925  1.2212
  320SOL    HW2 1279   1.112   1.449   1.942 -1.6905  0.0968 -0.7013
  320SOL     MW 1280   1.068   1.374   1.965 -0.3272 -0.2998  0.0309
  321SOL     OW 1281   1.105   0.906   3.041 -0.8061  0.4856  0.6163
  321SOL    HW1 1282   1.030   0.883   2.986  1.1128 -0.3838  0.2177
  321SOL    HW2 1283   1.157   0.819   3.044 -0.4020 -0.1780 -3.0242
  321SOL     MW 1284   1.102   0.891   3.034 -0.4996  0.2833  0.0833
  322SOL     OW 1285   1.245   0.835   1.673  0.7322  0.4859 -0.6156
  322SOL    HW1 1286   1.321   0.783   1.696  0.0388  1.7186  0.2721
  322SOL    HW2 1287   1.202   0.873   1.748 -0.9491  2.2268 -1.8355
  322SOL     MW 1288   1.249   0.833   1.686  0.4189  0.8782 -0.6595
  323SOL     OW 1289   1.241   1.589   1.885  0.2316 -0.7362  0.1095
  323SOL    HW1 1290   1.291   1.556   1.811 -1.0120  0.1490 -0.5873
  323SOL    HW2 1291   1.187   1.659   1.846  1.5999  1.8404  1.0315
  323SOL     MW 1292   1.241   1.594   1.870  0.2481 -0.2794  0.1392
  324SOL     OW 1293   1.447   0.988   2.464  0.4685  0.1051 -0.0127
  324SOL    HW1 1294   1.382   1.024   2.527 -3.9275  1.1316  2.7522
  324SOL    HW2 1295   1.529   1.043   2.477  0.8738 -1.1465 -2.8130
  324SOL     MW 1296   1.449   1.000   2.474 -0.0580  0.0754 -0.0173
  325SOL     OW 1297   1.056   0.524   2.923 -0.3504  0.3892 -0.1753
  325SOL    HW1 1298   1.061   0.587   2.991 -0.9951  0.9423 -1.0355
  325SOL    HW2 1299   0.968   0.496   2.912  0.2166  0.1986 -1.7899
  325SOL     MW 1300   1.045   0.528   2.931 -0.3607  0.4370 -0.5019
  326SOL     OW 1301   0.329   1.389   2.275  0.2532  0.4458  0.4188
  326SOL    HW1 1302   0.415   1.372   2.238  1.2915 -1.5838 -0.7915
  326SOL    HW2 1303   0.313   1.480   2.267 -0.3628 -1.0938  2.2449
  326SOL     MW 1304   0.339   1.399   2.269  0.3089 -0.0251  0.5000
  327SOL     OW 1305   1.957   0.815   2.428 -0.0128  0.2910 -0.0918
  327SOL    HW1 1306   1.902   0.793   2.507 -1.0156 -0.3492  0.4873
  327SOL    HW2 1307   1.977   0.905   2.446  1.3065 -0.1738 -3.4687
  327SOL     MW 1308   1.952   0.824   2.441  0.0290  0.1452 -0.4609
  328SOL     OW 1309   0.191   1.302   2.040  0.0327  0.6041 -0.2394
  328SOL    HW1 1310   0.120   1.243   2.049  1.9728  0.2852  0.1627
  328SOL    HW2 1311   0.228   1.302   2.126 -1.3464  0.9924  0.8118
  328SOL     MW 1312   0.187   1.294   2.053  0.1067  0.6133 -0.0477
  329SOL     OW 1313   0.039   0.114   1.391 -0.2130 -0.3536  0.4668
  329SOL    HW1 1314   0.014   0.145   1.479 -3.3315  2.2834  0.5421
  329SOL    HW2 1315   0.140   0.133   1.390 -0.0572  1.1195  0.0941
  329SOL     MW 1316   0.049   0.121   1.402 -0.6039  0.1887  0.4275
  330SOL     OW 1317   0.389   3.086   2.045  0.0493  0.3167 -0.2748
  330SOL    HW1 1318   0.458   3.099   2.114  0.3066  1.3457  0.0435
  330SOL    HW2 1319   0.318   3.046   2.101 -0.4257 -1.1372 -0.6566
  330SOL     MW 1320   0.389   3.082   2.062  0.0206  0.2607 -0.2832
  331SOL     OW 1321   0.779   1.230   2.433 -0.4728  0.4107 -0.5392
  331SOL    HW1 1322   0.717   1.273   2.371  3.2779  0.7915 -0.2464
  331SOL    HW2 1323   0.796   1.295   2.503  1.4714 -1.9926  0.6041
  331SOL     MW 1324   0.773   1.245   2.434  0.2786  0.1439 -0.3497
  332SOL     OW 1325   1.334   1.637   2.925 -0.2103 -0.2530  0.4874
  332SOL    HW1 1326   1.324   1.639   2.831 -1.3603 -0.8183 -0.0631
  332SOL    HW2 1327   1.385   1.719   2.950 -1.1151  1.9030 -0.0250
  332SOL     MW 1328   1.339   1.648   2.916 -0.4814 -0.0432  0.3471
  333SOL     OW 1329   1.687   1.371   2.930 -0.0949 -1.2883  0.2675
  333SOL    HW1 1330   1.785   1.359   2.958  1.4699 -1.1519  1.3720
  333SOL    HW2 1331   1.658   1.286   2.961 -1.2588  1.4774 -0.2421
  333SOL     MW 1332   1.696   1.358   2.938 -0.0420 -0.9054  0.3460
  334SOL     OW 1333   1.295   3.073   2.631  0.3914  1.1226 -0.5028
  334SOL    HW1 1334   1.253   3.020   2.695 -0.3978  1.6550  0.3424
  334SOL    HW2 1335   1.336   3.135   2.695  0.6693 -0.6196 -2.2250
  334SOL     MW 1336   1.295   3.074   2.648  0.3239  0.9630 -0.6185
  335SOL     OW 1337   1.284   0.698   3.029  0.3992 -0.3352 -0.0586
  335SOL    HW1 1338   1.345   0.690   3.092 -2.3162 -2.1495 -0.4326
  335SOL    HW2 1339   1.344   0.723   2.954  2.4339  2.2556 -0.4281
  335SOL     MW 1340   1.300   0.700   3.027  0.3094 -0.2328 -0.1567
  336SOL     OW 1341   0.977   1.154   1.715  0.1583 -0.0586 -0.3161
  336SOL    HW1 1342   0.895   1.188   1.768 -0.2188  1.4977  3.5117
  336SOL    HW2 1343   1.007   1.093   1.782 -0.8031 -0.4376 -0.3218
  336SOL     MW 1344   0.970   1.150   1.731 -0.0183  0.0967  0.1882
  337SOL     OW 1345   0.561   1.904   2.845 -0.3199  0.5802 -0.1600
  337SOL    HW1 1346   0.514   1.851   2.780  1.0880  0.2226 -1.3030
  337SOL    HW2 1347   0.653   1.867   2.845  1.2363 -0.0837  0.7074
  337SOL     MW 1348   0.567   1.892   2.836  0.0712  0.4454 -0.1964
  338SOL     OW 1349   1.064   0.741   2.507  0.0688 -0.3974  0.4382
  338SOL    HW1 1350   0.977   0.691   2.518  0.9400 -0.7819  0.4496
  338SOL    HW2 1351   1.123   0.712   2.580 -0.4136  1.6009 -2.4150
  338SOL     MW 1352   1.060   0.731   2.518  0.1201 -0.1845  0.0633
  339SOL     OW 1353   1.436   1.180   1.838 -0.1450  0.6455  0.0265
  339SOL    HW1 1354   1.420   1.135   1.752  2.6056 -2.8253  0.6404
  339SOL    HW2 1355   1.368   1.151   1.902  0.5592  0.7917  1.9219
  339SOL     MW 1356   1.425   1.170   1.835  0.3108  0.2068  0.3576
  340SOL     OW 1357   1.253   1.506   0.062 -0.5829  0.2006 -0.0620
  340SOL    HW1 1358   1.298   1.532  -0.018  2.0313 -2.8687  0.4483
  340SOL    HW2 1359   1.324   1.490   0.125  0.6147  1.5841  4.2657
  340SOL     MW 1360   1.268   1.507   0.060 -0.0800 -0.0218  0.5764
  341SOL     OW 1361   0.091   1.363   2.816  0.9500  0.2972  0.6235
  341SOL    HW1 1362   0.185   1.364   2.839  1.8526 -1.0453 -0.3409
  341SOL    HW2 1363   0.081   1.301   2.737  0.4326  1.8942 -1.0661
  341SOL     MW 1364   0.102   1.355   2.808  1.0008  0.3307  0.2733
  342SOL     OW 1365   1.413   0.298   0.121  0.3856 -0.0987 -0.0028
  342SOL    HW1 1366   1.475   0.343   0.173 -0.7455  1.0293 -2.7670
  342SOL    HW2 1367   1.423   0.338   0.034  1.8461 -0.0172  0.7515
  342SOL     MW 1368   1.422   0.309   0.117  0.4290  0.0609 -0.2680
  343SOL     OW 1369   0.258   0.277   2.203 -1.1219 -0.0252 -0.5705
  343SOL    HW1 1370   0.333   0.239   2.159 -0.4690 -1.9745 -3.3107
  343SOL    HW2 1371   0.179   0.225   2.187  1.2328 -0.0236 -0.7557
  343SOL     MW 1372   0.257   0.265   2.195 -0.7251 -0.2822 -0.9565
  344SOL     OW 1373   1.706   2.004   0.116 -0.4990 -0.4296 -0.2769
  344SOL    HW1 1374   1.731   2.091   0.079 -1.3690  2.4596 -1.9321
  344SOL    HW2 1375   1.623   1.983   0.090  2.1608  1.9803 -0.1391
  344SOL     MW 1376   1.699   2.012   0.108 -0.2629  0.2696 -0.4771
  345SOL     OW 1377   0.688   1.595   2.366 -0.2018 -0.4828 -0.3443
  345SOL    HW1 1378   0.603   1.593   2.319  1.4542  0.9145 -2.1376
  345SOL    HW2 1379   0.758   1.592   2.296  1.0936  0.9646  1.1245
  345SOL     MW 1380   0.686   1.594   2.350  0.1876 -0.1075 -0.3871
  346SOL     OW 1381   1.673   1.099   3.088 -0.2558  0.6972  0.2155
  346SOL    HW1 1382   1.758   1.064   3.108 -1.7885 -0.6204 -2.8302
  346SOL    HW2 1383   1.615   1.062   3.147  3.2426 -1.6393 -0.2184
  346SOL     MW 1384   1.677   1.089   3.099  0.0035  0.2151 -0.2436
  347SOL     OW 1385   1.149   0.684   2.244  0.1001 -0.5665 -0.3043
  347SOL    HW1 1386   1.196   0.599   2.262 -1.4085 -0.3115  0.6352
  347SOL    HW2 1387   1.122   0.702   2.333 -0.2483  2.1519 -1.2374
  347SOL     MW 1388   1.152   0.675   2.258 -0.1449 -0.1742 -0.3034
  348SOL     OW 1389   1.341   2.535   1.928 -0.0743 -0.1141 -0.3864
  348SOL    HW1 1390   1.335   2.474   2.003 -0.3497  2.1887 -0.3337
  348SOL    HW2 1391   1.344   2.623   1.977 -1.5526  0.1764 -0.6558
  348SOL     MW 1392   1.341   2.538   1.945 -0.3057  0.2281 -0.4150
  349SOL     OW 1393   1.435   0.174   2.763  0.5336 -0.4024  0.1307
  349SOL    HW1 1394   1.380   0.229   2.824 -1.3388  2.4446  0.5939
  349SOL    HW2 1395   1.498   0.139   2.827  1.4758 -2.3852  1.8297
  349SOL     MW 1396   1.436   0.177   2.779  0.4109 -0.2884  0.4160
  350SOL     OW 1397   1.843   0.662   2.625  0.1595 -0.4988 -0.2376
  350SOL    HW1 1398   1.819   0.592   2.559  1.5520 -2.2858 -0.8513
  350SOL    HW2 1399   1.934   0.638   2.656 -0.8500  3.3677  0.6224
  350SOL     MW 1400   1.852   0.650   2.621  0.2100 -0.2244 -0.2051
  351SOL     OW 1401   0.092   1.125   1.636  0.2163 -0.0649 -0.3375
  351SOL    HW1 1402   0.010   1.120   1.692  0.0613 -0.0870  0.4293
  351SOL    HW2 1403   0.143   1.204   1.649  0.3781 -3.3842  0.4873
  351SOL     MW 1404   0.088   1.135   1.645  0.2172 -0.5058 -0.1275
  352SOL     OW 1405   0.820   1.775   2.795 -0.6865  0.4734 -0.0578
  352SOL    HW1 1406   0.816   1.760   2.896 -0.1404  1.0444  1.8980
  352SOL    HW2 1407   0.752   1.718   2.753 -2.2233 -1.8036  1.7066
  352SOL     MW 1408   0.811   1.765   2.803 -0.8172  0.2483  0.4330
  353SOL     OW 1409   0.024   2.560   2.701 -0.3430 -0.4954 -0.4751
  353SOL    HW1 1410   0.104   2.542   2.651  1.3395  2.1552  1.4932
  353SOL    HW2 1411   0.023   2.655   2.691 -1.1487 -0.8210 -1.8712
  353SOL     MW 1412   0.034   2.571   2.693 -0.2273 -0.1887 -0.3996
  354SOL     OW 1413   0.358   2.442   0.889  0.0681  0.5017  0.0013
  354SOL    HW1 1414   0.386   2.403   0.974 -1.2657 -0.4866  0.7652
  354SOL    HW2 1415   0.299   2.362   0.861 -1.5014 -3.8272 -0.6838
  354SOL     MW 1416   0.354   2.426   0.897 -0.3150 -0.1998  0.0117
  355SOL     OW 1417   3.075   2.179   0.360  0.4636 -0.0822  0.0379
  355SOL    HW1 1418   2.986   2.144   0.353 -2.2464 -0.6830  0.5474
  355SOL    HW2 1419   3.086   2.215   0.456  0.3736  1.0770  0.8309
  355SOL     MW 1420   3.064   2.179   0.372  0.0941 -0.0085  0.2097
  356SOL     OW 1421   0.780   2.874   1.023  0.1365  0.7966  0.9919
  356SOL    HW1 1422   0.853   2.882   0.965 -1.1947 -2.3437  2.1747
  356SOL    HW2 1423   0.704   2.844   0.970 -0.3429  1.1795 -0.6625
  356SOL     MW 1424   0.780   2.871   1.008 -0.1024  0.4328  0.9297
  357SOL     OW 1425   1.826   2.810   0.482  0.1183  0.2333 -0.0544
  357SOL    HW1 1426   1.824   2.770   0.569  0.6195  0.0295  0.2293
  357SOL    HW2 1427   1.915   2.796   0.446  1.2336  0.8602 -1.3115
  357SOL     MW 1428   1.838   2.803   0.489  0.3316  0.2892 -0.1828
  358SOL     OW 1429   0.422   0.166   1.044 -0.5160 -0.3420 -0.0472
  358SOL    HW1 1430   0.509   0.195   1.032 -1.6848  0.7648  0.3749
  358SOL    HW2 1431   0.375   0.185   0.961 -0.3156 -0.0320 -0.7519
  358SOL     MW 1432   0.427   0.172   1.031 -0.6438 -0.1551 -0.0845
  359SOL     OW 1433   0.890   2.994   1.825  0.3338 -0.0555  0.1704
  359SOL    HW1 1434   0.877   2.911   1.871 -0.8029 -3.1972  1.3649
  359SOL    HW2 1435   0.879   2.955   1.735 -0.2384  0.8213 -0.1874
  359SOL     MW 1436   0.887   2.978   1.819  0.1083 -0.3543  0.2808
  360SOL     OW 1437   0.560   2.778   0.885 -0.2651  0.1805 -0.3441
  360SOL    HW1 1438   0.593   2.728   0.807  2.6689  1.1395  0.6126
  360SOL    HW2 1439   0.558   2.714   0.955  0.7520  0.7132 -0.9833
  360SOL     MW 1440   0.564   2.763   0.884  0.2562  0.3773 -0.3022
  361SOL     OW 1441   0.235   2.641   1.389  0.5827  0.1081 -0.2584
  361SOL    HW1 1442   0.195   2.706   1.449 -2.2573  0.7989 -0.0442
  361SOL    HW2 1443   0.305   2.680   1.339 -2.5051 -0.1586  1.4220
  361SOL     MW 1444   0.239   2.655   1.390 -0.1994  0.1641 -0.0084
  362SOL     OW 1445   1.391   2.402   0.615 -0.0151  0.3030 -0.1788
  362SOL    HW1 1446   1.427   2.341   0.680 -0.6738 -1.4172  0.2628
  362SOL    HW2 1447   1.442   2.488   0.605 -0.1684  0.3403  3.3124
  362SOL     MW 1448   1.403   2.406   0.622 -0.1222  0.0809  0.3401
  363SOL     OW 1449   0.322   3.091   0.623  0.7542  0.0582  0.4944
  363SOL    HW1 1450   0.335   3.030   0.698 -2.9289  0.9440  0.5678
  363SOL    HW2 1451   0.226   3.093   0.616  1.3473 -2.6062  2.8412
  363SOL     MW 1452   0.311   3.084   0.632  0.3465 -0.1765  0.8137
  364SOL     OW 1453   0.793   0.261   0.126  0.3178  0.0266  0.0970
  364SOL    HW1 1454   0.718   0.198   0.141 -1.6704 -0.5820 -0.0632
  364SOL    HW2 1455   0.747   0.319   0.063 -0.4553 -1.2432 -0.2674
  364SOL     MW 1456   0.777   0.260   0.120 -0.0465 -0.2213  0.0278
  365SOL     OW 1457   0.904   2.029   1.165 -0.0667 -0.0125  0.5199
  365SOL    HW1 1458   0.875   2.118   1.149  0.9948  0.9087 -0.4758
  365SOL    HW2 1459   0.860   1.976   1.092  0.8098 -0.2607  5.0502
  365SOL     MW 1460   0.894   2.034   1.153  0.1890  0.0763  0.9863
  366SOL     OW 1461   2.957   2.638   0.953  0.0512  0.2769  0.7476
  366SOL    HW1 1462   3.040   2.637   0.991 -0.5471  0.5053 -0.1353
  366SOL    HW2 1463   2.978   2.667   0.860  0.8571 -1.4065 -1.9209
  366SOL     MW 1464   2.971   2.642   0.945  0.0786  0.0850  0.2790
  367SOL     OW 1465   1.212   2.964   0.928 -0.4506 -0.4107  0.5663
  367SOL    HW1 1466   1.255   3.028   0.873  1.6377  0.6282  0.5540
  367SOL    HW2 1467   1.140   2.925   0.874 -2.8098 -3.4843 -0.5498
  367SOL     MW 1468   1.208   2.967   0.914 -0.4864 -0.6792  0.4174
  368SOL     OW 1469   1.750   0.413   0.702  0.1112  0.0632 -0.4492
  368SOL    HW1 1470   1.794   0.347   0.653  0.4652  2.9446 -1.3448
  368SOL    HW2 1471   1.764   0.496   0.658  0.4664 -0.5981 -2.0376
  368SOL     MW 1472   1.758   0.415   0.690  0.2047  0.3561 -0.7770
  369SOL     OW 1473   0.152   2.388   1.761  0.1364  0.0746  0.1021
  369SOL    HW1 1474   0.251   2.368   1.746  0.9875 -0.5866 -2.4948
  369SOL    HW2 1475   0.145   2.485   1.759 -0.2825 -2.6892  0.4302
  369SOL     MW 1476   0.164   2.398   1.759  0.1934 -0.3773 -0.1973
  370SOL     OW 1477   0.733   0.145   0.996 -0.0622 -0.7308  0.2003
  370SOL    HW1 1478   0.778   0.220   0.958  0.1568 -0.0419 -0.2229
  370SOL    HW2 1479   0.799   0.083   1.010  0.2023  2.7566  0.6897
  370SOL     MW 1480   0.748   0.147   0.992  0.0016 -0.1798  0.2090
  371SOL     OW 1481   1.236   2.810   1.499  0.4586  0.4097 -0.1352
  371SOL    HW1 1482   1.201   2.722   1.494 -0.3171  1.0597  1.2005
  371SOL    HW2 1483   1.223   2.844   1.414  0.5566 -0.1351 -0.8608
  371SOL     MW 1484   1.230   2.803   1.487  0.3692  0.4235 -0.0547
  372SOL     OW 1485   0.787   2.322   0.511 -0.3295  0.1661 -0.0728
  372SOL    HW1 1486   0.758   2.241   0.551 -0.6572  1.0525  1.9404
  372SOL    HW2 1487   0.848   2.304   0.441  0.2499  2.4697  0.7514
  372SOL     MW 1488   0.792   2.309   0.507 -0.2963  0.5870  0.3016
  373SOL     OW 1489   2.847   3.013   1.407 -0.2636 -0.3281  0.1360
  373SOL    HW1 1490   2.937   3.011   1.374 -1.5015  2.4272  1.6576
  373SOL    HW2 1491   2.815   3.088   1.356  0.3151  0.9237  1.8159
  373SOL     MW 1492   2.855   3.022   1.396 -0.3506  0.2006  0.5584
  374SOL     OW 1493   1.605   0.457   0.295 -0.2467  0.4619 -0.0821
  374SOL    HW1 1494   1.695   0.430   0.294  0.8191  2.2053 -1.3566
  374SOL    HW2 1495   1.572   0.428   0.379 -0.8841 -2.5029  0.8979
  374SOL     MW 1496   1.613   0.450   0.306 -0.1902  0.3007 -0.1210
  375SOL     OW 1497   0.941   2.172   2.314  0.5878 -0.3349 -0.5907
  375SOL    HW1 1498   0.994   2.130   2.387 -0.2329  2.0054 -0.1224
  375SOL    HW2 1499   0.907   2.093   2.269  2.8598  1.9237  0.3875
  375SOL     MW 1500   0.943   2.156   2.318  0.7793  0.2719 -0.3999
  376SOL     OW 1501   0.733   2.522   0.046  0.6967 -0.3073  0.2811
  376SOL    HW1 1502   0.697   2.451   0.107  0.4371 -1.9256 -0.4153
  376SOL    HW2 1503   0.742   2.488  -0.043  2.3161  1.8290  0.6446
  376SOL     MW 1504   0.730   2.508   0.042  0.8761 -0.2389  0.2372
  377SOL     OW 1505   1.298   2.072   0.907  0.3086 -0.4418 -0.2020
  377SOL    HW1 1506   1.236   2.038   0.846  0.2389 -1.4273 -0.4065
  377SOL    HW2 1507   1.284   2.020   0.984 -1.4112  0.8392 -0.0787
  377SOL     MW 1508   1.288   2.061   0.909  0.0725 -0.4028 -0.2127
  378SOL     OW 1509   0.932   2.863   1.548 -0.2863 -0.3725 -0.2460
  378SOL    HW1 1510   0.961   2.772   1.582 -2.1344 -0.4125  1.6020
  378SOL    HW2 1511   1.004   2.914   1.503 -2.2542  0.5072 -3.5292
  378SOL     MW 1512   0.946   2.857   1.546 -0.7898 -0.2617 -0.4354
  379SOL     OW 1513   1.126   1.647   2.198  0.0373 -0.4970  0.3709
  379SOL    HW1 1514   1.051   1.600   2.168  1.2012  1.1674 -1.6027
  379SOL    HW2 1515   1.205   1.594   2.178  0.4116  1.9987  1.8020
  379SOL     MW 1516   1.127   1.634   2.191  0.2402  0.0519  0.2993
  380SOL     OW 1517   0.895   0.073   1.422 -0.4400  0.4406  0.4252
  380SOL    HW1 1518   0.947  -0.002   1.380  2.9481 -0.3157 -0.2597
  380SOL    HW2 1519   0.943   0.084   1.506  1.5954 -0.8856  0.5066
  380SOL     MW 1520   0.908   0.065   1.427  0.2756  0.1658  0.3456
  381SOL     OW 1521   0.805   2.039   0.838  0.6982  0.5474  0.1128
  381SOL    HW1 1522   0.900   2.038   0.832  1.1706 -0.3351 -1.8115
  381SOL    HW2 1523   0.787   2.106   0.913  2.0638 -1.4394 -0.2633
  381SOL     MW 1524   0.815   2.048   0.847  0.9407  0.1688 -0.1907
  382SOL     OW 1525   0.805   0.143   0.641  0.4970  0.3332 -0.5953
  382SOL    HW1 1526   0.776   0.180   0.723  1.0037 -0.3254  1.2522
  382SOL    HW2 1527   0.763   0.056   0.638  0.2193 -0.5198  0.7106
  382SOL     MW 1528   0.796   0.136   0.652  0.5272  0.1338 -0.1792
  383SOL     OW 1529   0.585   0.063   0.303  0.2806 -0.1306  0.5096
  383SOL    HW1 1530   0.637  -0.004   0.257  0.4056 -1.4581 -0.0172
  383SOL    HW2 1531   0.507   0.010   0.325 -2.2839  0.6600 -0.5261
  383SOL     MW 1532   0.582   0.047   0.300 -0.0413 -0.2014  0.3034
  384SOL     OW 1533   0.750   2.966   0.645 -0.1274 -0.3304  0.9188
  384SOL    HW1 1534   0.812   2.947   0.723 -0.0469  0.0077  0.3441
  384SOL    HW2 1535   0.674   2.902   0.650  1.4381 -0.0173  2.7753
  384SOL     MW 1536   0.748   2.955   0.656  0.0898 -0.2445  1.0879
  385SOL     OW 1537   1.413   2.097   1.546 -0.5223  0.6216  0.2105
  385SOL    HW1 1538   1.483   2.140   1.603  0.4308 -0.9956 -0.9274
  385SOL    HW2 1539   1.411   2.007   1.582 -0.7158  0.7174 -4.3246
  385SOL     MW 1540   1.422   2.091   1.558 -0.4221  0.4209 -0.5380
  386SOL     OW 1541   1.418   0.366   0.872  0.2837  0.1834  0.7374
  386SOL    HW1 1542   1.376   0.369   0.958  2.4106 -0.2277  2.3951
  386SOL    HW2 1543   1.487   0.298   0.877  1.1122  0.2357 -0.5417
  386SOL     MW 1544   1.422   0.357   0.884  0.6737  0.1361  0.7874
  387SOL     OW 1545   0.802   2.122   1.543  0.0940  0.5459  0.4659
  387SOL    HW1 1546   0.876   2.178   1.505  1.4437 -0.5030  4.0436
  387SOL    HW2 1547   0.816   2.034   1.502 -1.2951 -1.3105  0.6442
  387SOL     MW 1548   0.814   2.118   1.532  0.0888  0.1626  0.9615
  388SOL     OW 1549   1.463   2.770   1.314  0.0171  0.5267  0.2516
  388SOL    HW1 1550   1.440   2.866   1.301  3.9197 -0.3394  0.2445
  388SOL    HW2 1551   1.392   2.716   1.282 -0.9423 -2.3001  1.8731
  388SOL     MW 1552   1.450   2.775   1.308  0.4054  0.0394  0.4646
  389SOL     OW 1553   0.544   0.139   3.052 -0.3050  0.1991 -0.0642
  389SOL    HW1 1554   0.610   0.080   3.024 -2.9774  1.1748  1.1696
  389SOL    HW2 1555   0.529   0.195   2.977  1.6722 -0.9226  1.6417
  389SOL     MW 1556   0.550   0.139   3.039 -0.3968  0.1798  0.3237
  390SOL     OW 1557   1.346   0.028   0.748  0.3579  0.3338 -0.1920
  390SOL    HW1 1558   1.376   0.022   0.657  0.9571 -0.4433  2.6375
  390SOL    HW2 1559   1.415   0.062   0.798  2.0670 -0.3761  0.7497
  390SOL     MW 1560   1.359   0.031   0.743  0.6625  0.1376  0.3056
  391SOL     OW 1561   0.361   2.175   1.514  0.0438  0.3284 -0.0012
  391SOL    HW1 1562   0.304   2.098   1.538 -1.0303  1.3756  0.2491
  391SOL    HW2 1563   0.312   2.257   1.513  0.0962  0.6746 -0.6396
  391SOL     MW 1564   0.347   2.176   1.517 -0.0910  0.5122 -0.0524
  392SOL     OW 1565   2.043   2.229   0.308 -0.3218  0.1763  0.1156
  392SOL    HW1 1566   2.056   2.316   0.340  0.2439 -1.1534  0.2764
  392SOL    HW2 1567   1.956   2.205   0.328 -1.0300 -0.3795 -1.9197
  392SOL     MW 1568   2.033   2.237   0.315 -0.3406 -0.0725 -0.1317
  393SOL     OW 1569   0.256   2.961   2.861  0.0500  0.3315  0.2043
  393SOL    HW1 1570   0.335   2.925   2.813  0.3303 -0.0841  0.6877
  393SOL    HW2 1571   0.257   3.052   2.826  0.2183  1.7231 -1.7934
  393SOL     MW 1572   0.266   2.968   2.850  0.1092  0.4603  0.0045
  394SOL     OW 1573   1.010   1.721   1.520  0.2172  1.2855  0.0376
  394SOL    HW1 1574   1.043   1.759   1.596  1.5494  2.6640 -0.8219
  394SOL    HW2 1575   0.961   1.795   1.479 -0.4881  1.6026  0.3590
  394SOL     MW 1576   1.008   1.736   1.525  0.2999  1.5092 -0.0334
  395SOL     OW 1577   0.946   2.979   2.579 -0.4532 -0.1364  0.6764
  395SOL    HW1 1578   0.983   2.988   2.663 -0.8449  1.1415  0.0111
  395SOL    HW2 1579   0.991   2.895   2.553  1.0213 -0.6905  0.9047
  395SOL     MW 1580   0.957   2.969   2.587 -0.3103 -0.0409  0.6187
  396SOL     OW 1581   0.720   1.863   2.435  0.2960  1.0640 -0.1245
  396SOL    HW1 1582   0.802   1.847   2.479 -0.6407 -1.4324 -0.9284
  396SOL    HW2 1583   0.693   1.782   2.389 -1.0435 -0.1644  2.6300
  396SOL     MW 1584   0.727   1.850   2.435 -0.0043  0.5725  0.1329
  397SOL     OW 1585   0.965   2.309   1.396 -0.2666 -0.1021 -0.5830
  397SOL    HW1 1586   0.974   2.338   1.302  3.1252  0.2557  1.0120
  397SOL    HW2 1587   1.048   2.294   1.444  2.2495  0.5438  0.1511
  397SOL     MW 1588   0.977   2.311   1.390  0.5129  0.0303 -0.2757
  398SOL     OW 1589   0.602   2.726   0.610  0.0518 -0.0894  0.6832
  398SOL    HW1 1590   0.530   2.701   0.557  0.0102  2.0780  0.0686
  398SOL    HW2 1591   0.673   2.662   0.597  1.3769  1.2020 -0.7926
  398SOL     MW 1592   0.602   2.714   0.601  0.2212  0.3669  0.4074
  399SOL     OW 1593   0.256   2.098   0.333  0.9294  0.4993  0.2413
  399SOL    HW1 1594   0.167   2.125   0.329  0.2608 -2.2552 -0.5040
  399SOL    HW2 1595   0.303   2.138   0.255  0.9329 -1.0325  0.3731
  399SOL     MW 1596   0.251   2.107   0.322  0.8416 -0.0662  0.1604
  400SOL     OW 1597   0.576   1.917   0.100  0.3014 -0.3895  0.4223
  400SOL    HW1 1598   0.524   1.995   0.105  1.8782  0.2329 -0.7635
  400SOL    HW2 1599   0.559   1.875   0.181 -0.4418 -0.6984  2.2714
  400SOL     MW 1600   0.567   1.922   0.111  0.4114 -0.3482  0.5098
  401SOL     OW 1601   0.798   2.060   0.043 -0.4590  0.2673 -0.0950
  401SOL    HW1 1602   0.884   2.041   0.083  1.1070  1.1476 -0.9728
  401SOL    HW2 1603   0.741   1.990   0.069  0.5141 -1.4833 -1.9584
  401SOL     MW 1604   0.802   2.048   0.052 -0.1240  0.1525 -0.4566
  402SOL     OW 1605   0.538   3.016   1.697  0.2280  0.4495 -0.2017
  402SOL    HW1 1606   0.569   3.010   1.790 -3.6734 -0.1798  1.5831
  402SOL    HW2 1607   0.574   3.099   1.662 -0.0891  1.0701 -1.9081
  402SOL     MW 1608   0.546   3.026   1.705 -0.3286  0.4484 -0.1913
  403SOL     OW 1609   0.109   0.517   0.370  0.3891  0.2125  0.6502
  403SOL    HW1 1610   0.184   0.546   0.432  0.5387 -0.3215  1.2414
  403SOL    HW2 1611   0.151   0.475   0.301  0.0206  2.8942  0.5046
  403SOL     MW 1612   0.124   0.515   0.369  0.3602  0.4959  0.7090
  404SOL     OW 1613   0.969   2.910   0.796 -0.3062  0.6384  0.5014
  404SOL    HW1 1614   1.024   2.846   0.747 -2.2701 -1.0744  1.1058
  404SOL    HW2 1615   1.001   3.000   0.761 -1.3332  1.2417  1.7338
  404SOL     MW 1616   0.981   2.913   0.785 -0.7008  0.4920  0.7437
  405SOL     OW 1617   0.447   2.476   1.522 -0.1030 -0.3046 -0.3017
  405SOL    HW1 1618   0.441   2.562   1.486 -1.7020  0.1292 -2.7471
  405SOL    HW2 1619   0.478   2.422   1.453 -0.9119  2.3270  1.8431
  405SOL     MW 1620   0.450   2.480   1.508 -0.4207  0.0998 -0.3414
  406SOL     OW 1621   0.374   2.392   1.163  0.5534 -0.2023  0.2734
  406SOL    HW1 1622   0.278   2.382   1.176  2.2872 -2.0811 -0.7382
  406SOL    HW2 1623   0.411   2.304   1.185  1.9891 -0.3034 -1.5875
  406SOL     MW 1624   0.366   2.379   1.168  0.9716 -0.4635 -0.1056
  407SOL     OW 1625   0.059   2.658   1.170 -0.7313 -0.1909  0.0121
  407SOL    HW1 1626   0.108   2.640   1.254  0.8889  1.0552 -0.4763
  407SOL    HW2 1627   0.118   2.661   1.090  0.9447 -2.1881  0.1870
  407SOL     MW 1628   0.073   2.656   1.170 -0.2964 -0.2900 -0.0292
  408SOL     OW 1629   2.116   2.115   0.752 -0.1221  0.3686  0.0665
  408SOL    HW1 1630   2.077   2.185   0.810  2.0458  1.7380 -0.7230
  408SOL    HW2 1631   2.050   2.063   0.712  3.8217 -1.5450 -1.6916
  408SOL     MW 1632   2.102   2.117   0.755  0.6843  0.2968 -0.2696
  409SOL     OW 1633   1.562   0.152   0.882  0.6006 -0.1428 -0.1836
  409SOL    HW1 1634   1.649   0.169   0.918 -0.4015  1.8670 -1.9963
  409SOL    HW2 1635   1.536   0.086   0.948 -0.5128 -0.7771  1.7850
  409SOL     MW 1636   1.570   0.146   0.896  0.3215  0.0387 -0.1630
  410SOL     OW 1637   1.048   2.442   1.161  0.2072 -0.5420 -0.0567
  410SOL    HW1 1638   1.025   2.522   1.112  2.1169  0.9167 -0.8362
  410SOL    HW2 1639   1.117   2.407   1.103  0.8965 -0.6162  2.2245
  410SOL     MW 1640   1.054   2.448   1.147  0.5501 -0.3593  0.1415
  411SOL     OW 1641   2.013   2.997   2.867 -0.2120 -0.0088  0.1521
  411SOL    HW1 1642   1.991   2.960   2.784  0.9088 -2.4754  1.4466
  411SOL    HW2 1643   1.981   3.087   2.867  2.1064  1.8755 -2.6194
  411SOL     MW 1644   2.006   3.004   2.856  0.2418 -0.0857 -0.0427
  412SOL     OW 1645   1.059   2.269   0.606 -0.3921 -0.4300 -0.0420
  412SOL    HW1 1646   1.103   2.326   0.671  0.2503  0.0321 -1.9166
  412SOL    HW2 1647   0.972   2.303   0.588  0.6495 -2.2998 -2.0749
  412SOL     MW 1648   1.054   2.281   0.612 -0.1699 -0.6158 -0.5576
  413SOL     OW 1649   0.596   2.766   0.079 -0.3576  0.1807 -0.0815
  413SOL    HW1 1650   0.657   2.693   0.077  1.5275 -2.3208 -1.6793
  413SOL    HW2 1651   0.598   2.813  -0.007  0.9398  1.2322  4.3670
  413SOL     MW 1652   0.604   2.762   0.068  0.0623 -0.0107  0.2946
  414SOL     OW 1653   1.996   3.038   1.154 -0.1480  0.0805 -0.5609
  414SOL    HW1 1654   2.055   3.107   1.137 -0.3088  0.0706 -0.9654
  414SOL    HW2 1655   1.951   3.040   1.068 -0.8174  0.1422 -1.6010
  414SOL     MW 1656   1.998   3.047   1.140 -0.2575  0.0873 -0.7515
  415SOL     OW 1657   1.632   2.819   1.106 -0.4095  0.6839  0.6191
  415SOL    HW1 1658   1.599   2.803   1.196  1.1462 -0.1746  0.1412
  415SOL    HW2 1659   1.710   2.765   1.107 -0.3341  1.4038  0.6241
  415SOL     MW 1660   1.638   2.810   1.118 -0.1943  0.6656  0.5567
  416SOL     OW 1661   0.606   1.766   1.486  0.1317 -0.5200  0.5320
  416SOL    HW1 1662   0.522   1.730   1.486 -1.5234 -2.0792  1.1715
  416SOL    HW2 1663   0.669   1.707   1.446  1.2116  2.2074  0.3085
  416SOL     MW 1664   0.603   1.754   1.481  0.0558 -0.3659  0.5869
  417SOL     OW 1665   0.981   3.048   2.092 -0.0997  0.7531  0.4167
  417SOL    HW1 1666   0.917   3.070   2.158  0.1870 -0.3717  1.4136
  417SOL    HW2 1667   0.928   3.034   2.010 -0.9296 -1.2768 -1.2312
  417SOL     MW 1668   0.965   3.049   2.090 -0.1714  0.3369  0.3308
  418SOL     OW 1669   0.744   2.988   0.163  0.6883  0.2476  0.0194
  418SOL    HW1 1670   0.812   2.998   0.096  1.6216  1.4581  0.7443
  418SOL    HW2 1671   0.682   2.922   0.131 -1.6936  1.1798  2.0593
  418SOL     MW 1672   0.745   2.981   0.150  0.4972  0.5303  0.3842
  419SOL     OW 1673   0.547   2.699   1.343 -0.0085 -0.2118 -0.1611
  419SOL    HW1 1674   0.567   2.772   1.400  0.1915  0.6414 -0.6355
  419SOL    HW2 1675   0.613   2.636   1.362 -1.3794 -0.8692  1.3941
  419SOL     MW 1676   0.558   2.700   1.353 -0.1630 -0.1860 -0.0185
  420SOL     OW 1677   0.763   2.231   1.041 -0.0578 -0.3941 -0.4960
  420SOL    HW1 1678   0.698   2.252   1.108  0.5256 -0.5957  0.8859
  420SOL    HW2 1679   0.800   2.322   1.015  0.3891  0.0615 -1.0763
  420SOL     MW 1680   0.759   2.246   1.047  0.0782 -0.3606 -0.3903
  421SOL     OW 1681   2.927   0.165   0.008 -0.2780  0.1314  0.4804
  421SOL    HW1 1682   2.878   0.146  -0.071 -1.9416 -0.0294  2.9641
  421SOL    HW2 1683   2.948   0.075   0.041  0.0969 -1.4735 -1.2201
  421SOL     MW 1684   2.924   0.151   0.002 -0.4480 -0.1016  0.5837
  422SOL     OW 1685   0.826   2.524   0.985  0.2951  0.4876  0.0703
  422SOL    HW1 1686   0.751   2.560   1.031 -0.1017  0.4084 -0.0127
  422SOL    HW2 1687   0.804   2.525   0.894  0.1076  0.8221  1.3313
  422SOL     MW 1688   0.813   2.529   0.979  0.2180  0.5213  0.2257
  423SOL     OW 1689   1.443   0.064   0.480  0.3003  0.0683  0.1870
  423SOL    HW1 1690   1.469   0.042   0.393 -2.2459  0.6037  1.0766
  423SOL    HW2 1691   1.454   0.155   0.501 -3.7192 -0.9520 -0.7354
  423SOL     MW 1692   1.448   0.073   0.471 -0.5660  0.0043  0.1826
  424SOL     OW 1693   0.650   2.299   1.359 -0.1976  0.0315  0.2459
  424SOL    HW1 1694   0.586   2.228   1.333  0.3092 -1.4427 -0.3898
  424SOL    HW2 1695   0.702   2.251   1.426  0.7571 -0.0453  0.8781
  424SOL     MW 1696   0.649   2.283   1.364 -0.0048 -0.1731  0.2454
  425SOL     OW 1697   1.675   2.778   2.060 -0.0657  0.2265  0.0199
  425SOL    HW1 1698   1.719   2.784   1.972  0.4418  0.9148 -1.8768
  425SOL    HW2 1699   1.732   2.707   2.102 -1.6497  0.4865 -0.9252
  425SOL     MW 1700   1.688   2.769   2.054 -0.2077  0.3516 -0.3551
  426SOL     OW 1701   0.912   1.743   1.998  0.2178  0.1527  0.2101
  426SOL    HW1 1702   0.840   1.749   1.928 -1.9537 -3.9773 -0.2255
  426SOL    HW2 1703   0.898   1.809   2.066 -0.6229 -3.1017 -0.5951
  426SOL     MW 1704   0.901   1.752   1.997 -0.1796 -0.8216  0.0464
  427SOL     OW 1705   0.351   1.701   1.875  0.2430 -0.0835  0.1283
  427SOL    HW1 1706   0.404   1.643   1.812  0.0483 -1.3628  1.2420
  427SOL    HW2 1707   0.291   1.636   1.928 -3.4953 -2.1880 -0.1508
  427SOL     MW 1708   0.350   1.685   1.873 -0.2759 -0.5300  0.2384
  428SOL     OW 1709   0.579   2.580   1.083  0.0175 -0.1077  0.3546
  428SOL    HW1 1710   0.522   2.498   1.078 -0.3955  0.7204 -1.0529
  428SOL    HW2 1711   0.560   2.630   1.168  0.6308 -0.7884 -1.4626
  428SOL     MW 1712   0.569   2.575   1.093  0.0439 -0.0883 -0.0709
  429SOL     OW 1713   1.182   2.741   1.124  0.1633 -0.1371 -0.2545
  429SOL    HW1 1714   1.089   2.741   1.144 -1.9784 -0.1859 -1.8260
  429SOL    HW2 1715   1.201   2.832   1.094  0.2730  0.0124 -3.2654
  429SOL     MW 1716   1.173   2.753   1.122 -0.1048 -0.1238 -0.8591
  430SOL     OW 1717   1.160   2.747   0.688 -0.3179  0.2957 -0.7227
  430SOL    HW1 1718   1.172   2.661   0.735  0.6002 -0.1280  0.7966
  430SOL    HW2 1719   1.130   2.728   0.594  1.8350  1.5161  1.6492
  430SOL     MW 1720   1.158   2.733   0.682  0.0873  0.4008 -0.2093
  431SOL     OW 1721   0.293   1.923   1.133 -0.0997  0.3024 -0.1472
  431SOL    HW1 1722   0.365   1.853   1.127  0.5032 -2.5114 -2.8998
  431SOL    HW2 1723   0.264   1.934   1.039 -0.9504 -2.1235 -1.0004
  431SOL     MW 1724   0.299   1.915   1.120 -0.1324 -0.3889 -0.6229
  432SOL     OW 1725   0.076   0.024   1.131  0.3776 -0.2070  0.1559
  432SOL    HW1 1726   0.072   0.048   1.223  0.9062 -1.3083  0.1463
  432SOL    HW2 1727   0.029  -0.062   1.137  1.5144  0.7127 -0.6445
  432SOL     MW 1728   0.069   0.016   1.144  0.5974 -0.2310  0.0490
  433SOL     OW 1729   0.664   2.919   1.472  0.1432  0.6182  0.1912
  433SOL    HW1 1730   0.620   2.962   1.546  1.1404 -1.5651 -0.5035
  433SOL    HW2 1731   0.766   2.920   1.489 -1.5081 -0.4284 -0.9993
  433SOL     MW 1732   0.672   2.925   1.484  0.0569  0.1921 -0.0576
  434SOL     OW 1733   1.503   2.848   1.572 -0.8856  0.1391  0.2470
  434SOL    HW1 1734   1.407   2.835   1.570 -0.4983  1.2292 -0.9471
  434SOL    HW2 1735   1.522   2.816   1.482  0.3215 -2.6924  0.4069
  434SOL     MW 1736   1.493   2.842   1.560 -0.6752 -0.0907  0.1105
  435SOL     OW 1737   2.759   1.783   0.212  0.3815  0.1529 -0.6080
  435SOL    HW1 1738   2.784   1.825   0.138 -1.5344 -1.5147  1.9739
  435SOL    HW2 1739   2.666   1.799   0.209  0.3591 -0.8540  1.2185
  435SOL     MW 1740   2.750   1.790   0.202  0.1258 -0.1999 -0.0264
  436SOL     OW 1741   1.373   2.690   0.318 -0.5109  0.2826  0.1287
  436SOL    HW1 1742   1.416   2.666   0.402 -3.4283 -4.1802 -0.0257
  436SOL    HW2 1743   1.340   2.777   0.346 -1.7312  0.1945  0.3434
  436SOL     MW 1744   1.374   2.698   0.333 -1.0568 -0.3178  0.1366
  437SOL     OW 1745   1.061   2.986   1.300  0.2261 -0.2526 -0.3483
  437SOL    HW1 1746   1.040   3.044   1.223  0.2000  0.2910  1.9939
  437SOL    HW2 1747   1.028   2.897   1.285  0.3046  1.5877 -3.2968
  437SOL     MW 1748   1.054   2.982   1.288  0.2330  0.0619 -0.4283
  438SOL     OW 1749   0.891   2.728   1.925  0.3132  0.1920 -0.1120
  438SOL    HW1 1750   0.872   2.664   1.998  1.4395 -2.0407 -2.6021
  438SOL    HW2 1751   0.901   2.672   1.844 -0.6927  0.9810 -1.8814
  438SOL     MW 1752   0.890   2.712   1.924  0.3291  0.0015 -0.6740
  439SOL     OW 1753   1.187   2.086   0.415  0.5487  0.1584 -0.0362
  439SOL    HW1 1754   1.116   2.107   0.474  1.2298 -0.2308 -1.6801
  439SOL    HW2 1755   1.181   2.164   0.354 -1.1743 -0.8926  1.2204
  439SOL     MW 1756   1.177   2.099   0.415  0.4112 -0.0316 -0.0873
  440SOL     OW 1757   1.776   2.968   3.075  0.2277  0.2310 -0.4131
  440SOL    HW1 1758   1.797   2.923   3.156 -0.5797 -0.1162 -0.8371
  440SOL    HW2 1759   1.851   2.973   3.022 -0.2277  0.4935  0.5962
  440SOL     MW 1760   1.789   2.963   3.079  0.0611  0.2198 -0.3358
  441SOL     OW 1761   0.340   2.664   0.450  0.4482 -0.1073 -0.7803
  441SOL    HW1 1762   0.333   2.601   0.370 -0.2699  0.5382 -1.1944
  441SOL    HW2 1763   0.357   2.749   0.408 -0.1893  1.0464  0.8368
  441SOL     MW 1764   0.341   2.667   0.434  0.2693  0.1301 -0.6216
  442SOL     OW 1765   3.095   2.290   0.616  0.2443  0.2708 -0.0369
  442SOL    HW1 1766   3.089   2.383   0.606  2.0068 -1.9637  3.7645
  442SOL    HW2 1767   3.007   2.268   0.654 -0.6244 -0.9354 -0.0809
  442SOL     MW 1768   3.083   2.300   0.620  0.3622 -0.1831  0.4588
  443SOL     OW 1769   1.500   1.778   1.900 -0.2456  0.3528  0.2161
  443SOL    HW1 1770   1.465   1.800   1.809 -0.1678  2.5780  0.7380
  443SOL    HW2 1771   1.466   1.692   1.916  2.0494  0.0463  1.5557
  443SOL     MW 1772   1.491   1.770   1.890  0.0674  0.6059  0.4617
  444SOL     OW 1773   1.002   2.608   1.621  0.4241 -0.0125  0.3578
  444SOL    HW1 1774   1.058   2.548   1.678 -1.1303 -3.1137  1.2942
  444SOL    HW2 1775   0.914   2.584   1.647 -0.0255  0.2105  1.7838
  444SOL     MW 1776   0.998   2.597   1.632  0.1597 -0.3922  0.6695
  445SOL     OW 1777   1.226   0.140   1.429  0.6120 -0.2344 -0.2362
  445SOL    HW1 1778   1.235   0.214   1.489 -0.5379  0.3656  1.9305
  445SOL    HW2 1779   1.169   0.167   1.360  0.7643 -3.1565 -1.3845
  445SOL     MW 1780   1.219   0.153   1.428  0.4804 -0.5408 -0.1018
  446SOL     OW 1781   2.784   2.849   1.033  0.0044 -0.1898 -0.1015
  446SOL    HW1 1782   2.712   2.866   0.977  0.9943 -0.0438  2.0694
  446SOL    HW2 1783   2.829   2.784   0.985  1.2452 -1.5200  2.7050
  446SOL     MW 1784   2.780   2.842   1.020  0.2987 -0.3461  0.5553
  447SOL     OW 1785   0.029   1.956   1.587  0.2085 -0.0359  0.1019
  447SOL    HW1 1786   0.038   1.880   1.648 -0.1827 -1.3139  0.1877
  447SOL    HW2 1787  -0.041   1.924   1.521 -2.4148 -0.9001 -2.6665
  447SOL     MW 1788   0.021   1.942   1.587 -0.1892 -0.3186 -0.2520
  448SOL     OW 1789   1.782   2.423   1.666 -0.2147 -0.6723 -0.1098
  448SOL    HW1 1790   1.720   2.348   1.666 -0.1003  2.4183  1.1486
  448SOL    HW2 1791   1.716   2.498   1.665  0.3582 -0.0192 -0.4259
  448SOL     MW 1792   1.765   2.423   1.666 -0.1240 -0.1783  0.0145
  449SOL     OW 1793   0.883   2.938   0.393 -0.2068 -0.4480 -0.4700
  449SOL    HW1 1794   0.822   2.949   0.320 -0.2391  0.4377  1.8217
  449SOL    HW2 1795   0.827   2.957   0.473  0.8584  1.0007 -0.8088
  449SOL     MW 1796   0.868   2.942   0.394 -0.0705 -0.1400 -0.2123
  450SOL     OW 1797   1.180   2.476   0.780  0.0121  0.1717  0.2481
  450SOL    HW1 1798   1.225   2.447   0.856  2.5902  1.0146 -0.4934
  450SOL    HW2 1799   1.242   2.458   0.707  0.4047  0.2994  1.1676
  450SOL     MW 1800   1.194   2.470   0.781  0.4040  0.2998  0.2716
  451SOL     OW 1801   0.539   1.976   1.707 -0.5850 -0.8340 -0.2861
  451SOL    HW1 1802   0.575   2.060   1.690  1.9228 -0.1921 -0.5333
  451SOL    HW2 1803   0.466   1.959   1.650 -0.3168  0.3606 -2.4674
  451SOL     MW 1804   0.534   1.985   1.697 -0.2187 -0.5917 -0.6065
  452SOL     OW 1805   0.354   2.632   0.044  0.0029 -0.8216 -0.2449
  452SOL    HW1 1806   0.438   2.671   0.067  1.6960  0.6771 -0.2219
  452SOL    HW2 1807   0.285   2.693   0.042 -2.1595 -0.7617  2.8274
  452SOL     MW 1808   0.356   2.645   0.047 -0.0590 -0.6160  0.1635
  453SOL     OW 1809   0.300   3.089   1.603  0.0096  0.0218  0.0240
  453SOL    HW1 1810   0.361   3.029   1.649  1.4985 -0.6613  1.0913
  453SOL    HW2 1811   0.334   3.086   1.514  0.6347 -0.4289 -2.3686
  453SOL     MW 1812   0.312   3.081   1.598  0.2886 -0.1278 -0.1509
  454SOL     OW 1813   0.920   2.758   1.245 -0.4476  0.3255 -0.2635
  454SOL    HW1 1814   0.889   2.679   1.297 -0.2809 -1.6715  3.4075
  454SOL    HW2 1815   0.850   2.798   1.190 -0.4261  2.1911  0.0339
  454SOL     MW 1816   0.906   2.753   1.244 -0.4227  0.3082  0.2601
  455SOL     OW 1817   1.695   2.870   0.245  0.9061 -0.1054  0.0470
  455SOL    HW1 1818   1.755   2.834   0.316  1.6420  2.0030 -0.7057
  455SOL    HW2 1819   1.644   2.799   0.202 -1.1972  0.3864  0.1359
  455SOL     MW 1820   1.696   2.856   0.249  0.7257  0.2377 -0.0406
  456SOL     OW 1821   2.755   0.286   1.487 -0.2843 -0.2263 -0.3249
  456SOL    HW1 1822   2.759   0.217   1.420  1.0329 -1.9554 -1.1115
  456SOL    HW2 1823   2.834   0.338   1.466  1.9748  1.6923 -1.7340
  456SOL     MW 1824   2.766   0.284   1.476  0.1876 -0.2013 -0.6146
  457SOL     OW 1825   0.784   1.657   3.052  0.0286  0.3520  0.4668
  457SOL    HW1 1826   0.705   1.621   3.005 -0.0534  1.3377 -1.7909
  457SOL    HW2 1827   0.754   1.710   3.124  0.7950 -0.3379 -1.9017
  457SOL     MW 1828   0.770   1.659   3.055  0.1189  0.3911 -0.1436
  458SOL     OW 1829   1.372   1.517   0.691  0.0305 -0.0728  0.5501
  458SOL    HW1 1830   1.313   1.578   0.633  1.0578  1.2211 -1.0500
  458SOL    HW2 1831   1.343   1.430   0.667 -0.4423 -3.8106  1.4143
  458SOL     MW 1832   1.360   1.513   0.680  0.1036 -0.3952  0.4530
  459SOL     OW 1833   1.563   0.030   0.224  0.2684  0.0040  0.5499
  459SOL    HW1 1834   1.599  -0.058   0.220 -0.3947  1.8388  0.6020
  459SOL    HW2 1835   1.500   0.039   0.148  0.5137  0.0131  1.1228
  459SOL     MW 1836   1.559   0.019   0.213  0.2133  0.2473  0.6324
  460SOL     OW 1837   1.780   2.213   0.664  0.2536  0.6004 -0.4326
  460SOL    HW1 1838   1.686   2.196   0.693  0.9881 -0.4033  0.0707
  460SOL    HW2 1839   1.819   2.129   0.637  0.7142  0.0218 -0.6473
  460SOL     MW 1840   1.773   2.199   0.665  0.4113  0.3916 -0.3945
  461SOL     OW 1841   0.465   2.434   0.636 -0.3986  0.3111  0.0408
  461SOL    HW1 1842   0.431   2.513   0.590  1.9919  0.9049  0.3763
  461SOL    HW2 1843   0.429   2.432   0.724 -0.9638  1.2015  1.4260
  461SOL     MW 1844   0.456   2.444   0.642 -0.1577  0.5069  0.2678
  462SOL     OW 1845   0.291   0.194   1.305  0.0542  0.1251  0.0578
  462SOL    HW1 1846   0.351   0.176   1.234 -0.8781 -2.0283 -0.0760
  462SOL    HW2 1847   0.358   0.226   1.364 -1.4072 -0.4832  2.0868
  462SOL     MW 1848   0.308   0.196   1.304 -0.2616 -0.2393  0.3079
  463SOL     OW 1849   1.064   0.049   0.723 -0.0216 -0.4077  0.4189
  463SOL    HW1 1850   1.138   0.047   0.656 -1.1986  0.6724 -1.4478
  463SOL    HW2 1851   0.981   0.095   0.687  2.4793  1.9225 -0.0731
  463SOL     MW 1852   1.063   0.055   0.710  0.1531  0.0423  0.1077
  464SOL     OW 1853   0.784   3.100   2.259  0.4670  0.3906  0.1488
  464SOL    HW1 1854   0.781   3.005   2.267  0.6929  3.0846 -0.5204
  464SOL    HW2 1855   0.820   3.138   2.336  1.1771 -0.4035  0.0546
  464SOL     MW 1856   0.788   3.092   2.270  0.5905  0.6413  0.0481
  465SOL     OW 1857   0.804   0.320   0.409 -1.0769 -0.5137 -0.0786
  465SOL    HW1 1858   0.765   0.243   0.459 -1.3200 -0.0699  3.7161
  465SOL    HW2 1859   0.759   0.328   0.319  2.9945 -0.4376  0.1513
  465SOL     MW 1860   0.793   0.311   0.404 -0.5718 -0.4451  0.4524
  466SOL     OW 1861   1.082   2.023   0.744  0.4526 -0.2073  0.6891
  466SOL    HW1 1862   1.057   1.945   0.696 -1.4660 -1.1847  0.3383
  466SOL    HW2 1863   1.068   2.106   0.687 -0.6072  1.0043 -0.0002
  466SOL     MW 1864   1.077   2.024   0.730  0.0596 -0.1764  0.5519
  467SOL     OW 1865   1.269   2.327   1.004 -0.2825 -0.1512 -0.0031
  467SOL    HW1 1866   1.365   2.335   1.015  0.7008 -0.5469 -0.7533
  467SOL    HW2 1867   1.259   2.238   0.966  1.6579 -1.1461 -2.2662
  467SOL     MW 1868   1.280   2.316   1.000  0.1033 -0.3347 -0.4007
  468SOL     OW 1869   0.461   2.657   1.879  0.6897 -0.2463  0.5456
  468SOL    HW1 1870   0.432   2.571   1.847 -0.7758  1.3597 -2.3775
  468SOL    HW2 1871   0.400   2.727   1.839  1.4771  0.4518  2.6662
  468SOL     MW 1872   0.449   2.655   1.869  0.6003  0.0577  0.4397
  469SOL     OW 1873   0.384   2.131   1.878  0.2857 -0.0177  0.0775
  469SOL    HW1 1874   0.296   2.085   1.855 -1.8292  0.9795  0.1153
  469SOL    HW2 1875   0.453   2.085   1.828  0.0266  1.6731  0.4252
  469SOL     MW 1876   0.382   2.119   1.868 -0.0275  0.3369  0.1284
  470SOL     OW 1877   3.066   2.592   0.144 -0.4248 -0.1611 -0.0657
  470SOL    HW1 1878   2.976   2.579   0.191 -0.0164  0.8431  0.1539
  470SOL    HW2 1879   3.051   2.608   0.051 -0.5266  1.4776 -2.5125
  470SOL     MW 1880   3.052   2.593   0.138 -0.3843  0.1876 -0.3596
  471SOL     OW 1881   1.174   2.542   1.429  0.0679  0.4261 -0.2359
  471SOL    HW1 1882   1.100   2.557   1.486  1.6323  1.0372  1.5823
  471SOL    HW2 1883   1.150   2.479   1.357 -2.6172 -1.4108  1.9323
  471SOL     MW 1884   1.161   2.536   1.427 -0.0800  0.2644  0.2901
  472SOL     OW 1885   2.817   2.101   0.359  0.4410  0.0222 -0.2198
  472SOL    HW1 1886   2.849   2.070   0.273  0.7727  0.6344 -0.6779
  472SOL    HW2 1887   2.802   2.026   0.413  2.2172  0.6527  0.2379
  472SOL     MW 1888   2.820   2.087   0.354  0.7191  0.1861 -0.2199
  473SOL     OW 1889   0.806   2.551   1.383  0.3824 -0.1836  0.3524
  473SOL    HW1 1890   0.795   2.459   1.359  1.3343 -2.0032 -0.2691
  473SOL    HW2 1891   0.839   2.557   1.474 -0.6133  0.9192 -0.3075
  473SOL     MW 1892   0.809   2.540   1.392  0.3766 -0.2782  0.1833
  474SOL     OW 1893   0.715   2.282   1.727 -0.1640 -0.0072  0.2771
  474SOL    HW1 1894   0.785   2.326   1.783  1.9873  0.4655 -0.8458
  474SOL    HW2 1895   0.756   2.208   1.678 -2.2347  1.5612  1.2478
  474SOL     MW 1896   0.730   2.278   1.728 -0.1533  0.2621  0.2570
  475SOL     OW 1897   1.595   3.088   1.489  0.2264  0.2240  0.6420
  475SOL    HW1 1898   1.534   3.082   1.414  1.7797 -2.0211 -0.4700
  475SOL    HW2 1899   1.556   3.010   1.531  0.5914 -1.5987 -1.7074
  475SOL     MW 1900   1.582   3.077   1.484  0.4795 -0.3127  0.1853
  476SOL     OW 1901   1.425   2.591   1.086 -0.0836 -0.1841  0.2188
  476SOL    HW1 1902   1.333   2.624   1.074 -0.0961 -0.8453 -3.2452
  476SOL    HW2 1903   1.489   2.664   1.100 -0.7697 -2.4091  0.6145
  476SOL     MW 1904   1.421   2.605   1.086 -0.1758 -0.5649 -0.1860
  477SOL     OW 1905   0.825   2.573   0.658  0.3719 -0.2523 -0.0254
  477SOL    HW1 1906   0.900   2.613   0.615  0.8150  0.2099  0.1185
  477SOL    HW2 1907   0.812   2.498   0.609  0.2911  3.0263  1.5430
  477SOL     MW 1908   0.833   2.568   0.646  0.4197  0.2413  0.2005
  478SOL     OW 1909   0.161   2.666   0.906  0.7615 -0.5762  0.2473
  478SOL    HW1 1910   0.205   2.746   0.879 -0.1586  0.5035  1.4350
  478SOL    HW2 1911   0.222   2.590   0.886 -0.0514 -2.6006  0.2300
  478SOL     MW 1912   0.175   2.666   0.900  0.5328 -0.7008  0.4017
  479SOL     OW 1913   1.435   1.987   1.289 -0.2545 -0.2713 -0.0389
  479SOL    HW1 1914   1.432   2.022   1.375  1.5644 -1.0605 -1.8599
  479SOL    HW2 1915   1.453   1.891   1.302  0.1975 -0.4420 -0.5477
  479SOL     MW 1916   1.437   1.979   1.302  0.0451 -0.3980 -0.3463
  480SOL     OW 1917   2.018   2.445   1.314 -0.0292 -0.3202 -0.0716
  480SOL    HW1 1918   2.017   2.350   1.335  1.0455 -2.3753 -0.4906
  480SOL    HW2 1919   2.019   2.452   1.218  0.4816  2.0120 -1.3689
  480SOL     MW 1920   2.018   2.433   1.304  0.1800 -0.2836 -0.2980
  481SOL     OW 1921   1.034   0.039   1.080 -0.2049  0.1800 -0.4499
  481SOL    HW1 1922   1.091  -0.005   1.013 -0.9889 -3.3289 -1.1131
  481SOL    HW2 1923   1.090   0.118   1.103 -0.2732  1.7782 -1.1835
  481SOL     MW 1924   1.049   0.044   1.074 -0.3173 -0.0721 -0.6342
  482SOL     OW 1925   1.096   3.075   0.277 -0.2353 -0.0412  0.1443
  482SOL    HW1 1926   1.029   3.034   0.334 -1.4533  0.6241  0.8844
  482SOL    HW2 1927   1.107   3.169   0.310  0.7132 -1.1785 -0.9192
  482SOL     MW 1928   1.088   3.082   0.289 -0.2708 -0.1035  0.1016
  483SOL     OW 1929   0.436   2.944   0.399  0.3781  0.5311  0.2342
  483SOL    HW1 1930   0.353   2.980   0.357 -3.4956  0.2141 -0.4831
  483SOL    HW2 1931   0.428   2.985   0.485 -0.9562 -0.7091  1.1748
  483SOL     MW 1932   0.424   2.954   0.405 -0.3091  0.3257  0.2637
  484SOL     OW 1933   1.878   1.926   1.491 -0.0465 -0.0334  0.3122
  484SOL    HW1 1934   1.912   1.991   1.432 -1.8257  0.6981 -0.4914
  484SOL    HW2 1935   1.840   1.973   1.568 -3.2098 -1.4599  0.0891
  484SOL     MW 1936   1.878   1.940   1.493 -0.6986 -0.1251  0.1767
  485SOL     OW 1937   0.564   2.302   0.264  0.2912  0.3651  0.0354
  485SOL    HW1 1938   0.615   2.276   0.340 -1.0958  0.7788 -2.4281
  485SOL    HW2 1939   0.490   2.356   0.300 -0.3032 -0.7044 -0.8687
  485SOL     MW 1940   0.561   2.306   0.279  0.0298  0.2786 -0.4089
  486SOL     OW 1941   0.164   2.384   1.504  0.3505  0.6377 -0.1813
  486SOL    HW1 1942   0.198   2.470   1.468  1.4660  0.6477  0.4307
  486SOL    HW2 1943   0.144   2.397   1.599  1.2999  1.6327  1.4397
  486SOL     MW 1944   0.166   2.397   1.512  0.6229  0.7703  0.1133
  487SOL     OW 1945   1.227   1.679   1.049 -0.0056  0.4445  0.0569
  487SOL    HW1 1946   1.219   1.766   1.094 -2.0165  0.3659  0.2306
  487SOL    HW2 1947   1.311   1.694   1.004 -1.2435 -3.6773 -2.6548
  487SOL     MW 1948   1.237   1.693   1.049 -0.4343 -0.1097 -0.2779
  488SOL     OW 1949   1.604   1.826   0.554  0.1852 -0.1010  0.3854
  488SOL    HW1 1950   1.672   1.791   0.498 -2.5548 -0.4119  1.9667
  488SOL    HW2 1951   1.561   1.903   0.512 -1.0296 -2.2410  0.5981
  488SOL     MW 1952   1.607   1.831   0.541 -0.3366 -0.4244  0.6221
  489SOL     OW 1953   0.764   0.817   0.615 -0.0993  0.6316  0.4736
  489SOL    HW1 1954   0.818   0.750   0.571 -0.3312 -0.4661  0.2883
  489SOL    HW2 1955   0.742   0.786   0.703 -1.8610  1.7796 -2.0458
  489SOL     MW 1956   0.768   0.804   0.620 -0.3624  0.6382  0.1168
  490SOL     OW 1957   1.463   2.064   0.464  0.6938 -0.2359  0.0760
  490SOL    HW1 1958   1.464   2.147   0.422  0.1402 -3.0340 -0.2502
  490SOL    HW2 1959   1.364   2.044   0.466 -0.1563  1.3144  2.5458
  490SOL     MW 1960   1.450   2.072   0.458  0.5086 -0.4005  0.3589
  491SOL     OW 1961   1.290   2.923   0.426  0.8629 -0.1103  0.4845
  491SOL    HW1 1962   1.337   2.995   0.465 -2.0731 -1.7768 -0.2322
  491SOL    HW2 1963   1.218   2.969   0.377 -0.7087  2.6770  1.6670
  491SOL     MW 1964   1.287   2.939   0.425  0.2682  0.0376  0.5460
  492SOL     OW 1965   1.487   2.193   0.738 -0.5394  0.4032  0.1331
  492SOL    HW1 1966   1.466   2.151   0.656 -0.7853  0.1337  2.4389
  492SOL    HW2 1967   1.439   2.136   0.799  0.9560 -2.7377  1.5992
  492SOL     MW 1968   1.478   2.180   0.735 -0.3745 -0.0467  0.6308
  493SOL     OW 1969   0.178   3.048   0.357 -0.4585  0.3166 -0.3063
  493SOL    HW1 1970   0.114   3.086   0.421 -1.7920 -1.6244  1.6204
  493SOL    HW2 1971   0.178   3.108   0.282  1.3116  0.6104  2.1485
  493SOL     MW 1972   0.170   3.061   0.356 -0.4009  0.0993  0.2718
  494SOL     OW 1973   0.409   2.415   1.778 -0.0142 -0.1473  0.1384
  494SOL    HW1 1974   0.407   2.320   1.794  1.5562 -0.8681 -0.2713
  494SOL    HW2 1975   0.435   2.430   1.682 -0.8820 -0.6292 -0.9003
  494SOL     MW 1976   0.413   2.404   1.768  0.0785 -0.3060 -0.0527
  495SOL     OW 1977   2.876   1.658   2.594  0.2570  0.4284 -0.4578
  495SOL    HW1 1978   2.870   1.748   2.571  0.8847  1.9073  1.7940
  495SOL    HW2 1979   2.831   1.650   2.680 -1.7506  0.7064 -1.4125
  495SOL     MW 1980   2.869   1.669   2.602  0.0749  0.6602 -0.2866
  496SOL     OW 1981   2.914   2.390   2.709 -0.0731  0.2647  0.1285
  496SOL    HW1 1982   2.965   2.328   2.770 -0.0921  0.3008 -0.4203
  496SOL    HW2 1983   2.980   2.457   2.693  1.1807 -0.1776 -0.6753
  496SOL     MW 1984   2.930   2.391   2.715  0.0899  0.2111 -0.0500
  497SOL     OW 1985   1.642   2.195   2.616 -0.2234 -0.4789  0.6549
  497SOL    HW1 1986   1.564   2.151   2.580 -0.3285 -1.8861 -1.7799
  497SOL    HW2 1987   1.645   2.168   2.709  0.0028 -0.5320  2.0454
  497SOL     MW 1988   1.632   2.185   2.623 -0.2074 -0.6716  0.5171
  498SOL     OW 1989   1.443   2.719   2.346 -0.1339 -0.0764  0.0874
  498SOL    HW1 1990   1.439   2.623   2.348 -0.3703  2.8727 -0.5451
  498SOL    HW2 1991   1.536   2.744   2.377  1.2861  0.3298  0.1985
  498SOL     MW 1992   1.455   2.710   2.350  0.0223  0.3663  0.0186
  499SOL     OW 1993   0.996   0.145   3.085  0.4141 -0.3284  0.1073
  499SOL    HW1 1994   0.955   0.184   3.168 -1.5386  1.5195  3.7384
  499SOL    HW2 1995   1.052   0.077   3.115 -2.2781 -1.5948 -3.4854
  499SOL     MW 1996   0.998   0.141   3.100 -0.1988 -0.2517  0.1123
  500SOL     OW 1997   1.096   2.519   2.771  0.1384  0.1360 -0.5502
  500SOL    HW1 1998   1.163   2.472   2.825  1.1760 -2.0859 -2.1289
  500SOL    HW2 1999   1.015   2.512   2.827  1.2439  0.7462  0.7183
  500SOL     MW 2000   1.094   2.512   2.786  0.4211 -0.0766 -0.5911
  501SOL     OW 2001   1.793   2.204   3.069 -0.2933 -0.1812 -0.0733
  501SOL    HW1 2002   1.766   2.295   3.091  0.4987 -3.7230  1.7225
  501SOL    HW2 2003   1.890   2.213   3.086 -0.3961  0.5874  0.9564
  501SOL     MW 2004   1.802   2.217   3.074 -0.2024 -0.5471  0.2995
  502SOL     OW 2005   0.147   2.796   3.081 -0.2844  0.3541 -0.2532
  502SOL    HW1 2006   0.087   2.745   3.025 -0.1556 -0.4158  1.0461
  502SOL    HW2 2007   0.198   2.864   3.034 -1.3800 -1.6753  2.5817
  502SOL     MW 2008   0.146   2.798   3.068 -0.4120 -0.0153  0.2923
  503SOL     OW 2009   1.038   2.796   2.179 -0.3825  0.2153  0.1959
  503SOL    HW1 2010   1.056   2.754   2.096 -0.7834  2.8718  1.1407
  503SOL    HW2 2011   1.032   2.892   2.179  0.8156  2.8341  1.2049
  503SOL     MW 2012   1.040   2.803   2.168 -0.2774  0.9113  0.4537
  504SOL     OW 2013   0.071   2.678   2.106 -0.2440  0.3390 -0.0789
  504SOL    HW1 2014   0.122   2.603   2.063  1.0454  3.2748 -1.8390
  504SOL    HW2 2015   0.033   2.648   2.183 -0.0264 -0.7511 -0.0980
  504SOL     MW 2016   0.073   2.664   2.111 -0.0451  0.5825 -0.3137
  505SOL     OW 2017   1.696   2.688   2.683 -0.1937  0.1589 -0.3329
  505SOL    HW1 2018   1.691   2.713   2.590  1.2446 -3.7441  0.3081
  505SOL    HW2 2019   1.612   2.715   2.722  0.0727  1.5035  1.4126
  505SOL     MW 2020   1.684   2.695   2.676  0.0312 -0.1787 -0.0180
  506SOL     OW 2021   1.616   3.046   2.831  0.3955 -0.1176  0.0421
  506SOL    HW1 2022   1.654   3.037   2.919  1.6014 -0.7782  0.2468
  506SOL    HW2 2023   1.694   3.029   2.774 -0.4234  2.3542 -1.4069
  506SOL     MW 2024   1.631   3.042   2.835  0.4466  0.1214 -0.1221
  507SOL     OW 2025   0.875   2.734   2.862  0.1972 -0.1309  0.3265
  507SOL    HW1 2026   0.919   2.780   2.798  1.2770 -1.6528 -3.1791
  507SOL    HW2 2027   0.780   2.729   2.857  1.3681  2.3570 -0.8111
  507SOL     MW 2028   0.869   2.739   2.853  0.4942 -0.0034 -0.2861
  508SOL     OW 2029   1.130   2.085   2.521 -0.0218  0.0232  0.0222
  508SOL    HW1 2030   1.211   2.049   2.555  0.7194  1.5505  0.2727
  508SOL    HW2 2031   1.100   2.162   2.578 -0.0794 -1.4112  1.0755
  508SOL     MW 2032   1.137   2.091   2.533  0.0684  0.0355  0.1943
  509SOL     OW 2033   0.592   2.525   2.837 -0.3303  0.4759  0.9937
  509SOL    HW1 2034   0.579   2.490   2.750 -2.2218  2.3544  2.8024
  509SOL    HW2 2035   0.504   2.527   2.861  0.8108 -1.1265  1.4382
  509SOL     MW 2036   0.578   2.521   2.829 -0.4293  0.5123  1.2910
  510SOL     OW 2037   1.527   2.552   1.709 -0.5692  0.0732  0.0169
  510SOL    HW1 2038   1.516   2.634   1.660  0.0529 -2.4347  1.3986
  510SOL    HW2 2039   1.467   2.541   1.782  1.0150  1.5487 -1.4466
  510SOL     MW 2040   1.517   2.562   1.712 -0.2781 -0.0630  0.0061
  511SOL     OW 2041   0.452   2.645   2.449 -0.8093 -0.0599 -0.1970
  511SOL    HW1 2042   0.531   2.610   2.491 -1.0488  0.1365 -2.8065
  511SOL    HW2 2043   0.466   2.655   2.357 -0.2023  0.0399  3.6963
  511SOL     MW 2044   0.464   2.642   2.442 -0.7608 -0.0208 -0.0276
  512SOL     OW 2045   1.046   2.013   2.864  0.1852 -0.1092  0.2105
  512SOL    HW1 2046   0.956   2.047   2.867 -0.1705  0.9989 -0.0206
  512SOL    HW2 2047   1.045   1.926   2.905  0.4282 -0.3470 -0.7375
  512SOL     MW 2048   1.034   2.006   2.870  0.1703  0.0056  0.0549
  513SOL     OW 2049   1.508   2.435   2.352 -0.2150 -0.3880  0.7390
  513SOL    HW1 2050   1.602   2.445   2.375  0.3570 -0.6567  1.3949
  513SOL    HW2 2051   1.476   2.347   2.366 -2.4530  1.2919  0.0449
  513SOL     MW 2052   1.516   2.425   2.357 -0.4348 -0.2018  0.7340
  514SOL     OW 2053   0.254   2.486   2.586  0.5522 -0.5942 -0.0273
  514SOL    HW1 2054   0.296   2.545   2.524 -2.7324 -1.5593  0.3311
  514SOL    HW2 2055   0.299   2.516   2.663 -1.8994 -1.3283  1.0035
  514SOL     MW 2056   0.265   2.498   2.588 -0.2046 -0.8184  0.1560
  515SOL     OW 2057   1.052   2.078   1.816 -0.0706 -0.3677  1.0241
  515SOL    HW1 2058   1.004   2.161   1.831 -1.3989  0.4295  0.7456
  515SOL    HW2 2059   1.101   2.066   1.892 -2.3408  0.2728 -0.0125
  515SOL     MW 2060   1.052   2.087   1.828 -0.5454 -0.1780  0.8506
  516SOL     OW 2061   1.463   2.492   3.033  0.4707  0.2389 -0.3291
  516SOL    HW1 2062   1.519   2.470   2.952  1.1993 -0.6829  1.1435
  516SOL    HW2 2063   1.371   2.476   3.011  0.6706  0.5092  2.4658
  516SOL     MW 2064   1.458   2.487   3.019  0.5932  0.1530  0.2340
  517SOL     OW 2065   0.609   2.417   2.141  0.1713 -0.2029 -0.3880
  517SOL    HW1 2066   0.568   2.501   2.155 -2.6742  0.5929  0.2957
  517SOL    HW2 2067   0.538   2.364   2.111 -0.2371  2.4381 -2.1454
  517SOL     MW 2068   0.594   2.421   2.139 -0.2580  0.2505 -0.5296
  518SOL     OW 2069   1.923   0.148   2.961 -0.0242 -0.2727 -0.3721
  518SOL    HW1 2070   1.885   0.222   2.915  0.1634  0.3208 -2.0458
  518SOL    HW2 2071   1.867   0.145   3.040  1.4177 -2.9143 -1.0982
  518SOL     MW 2072   1.911   0.157   2.965  0.1908 -0.5429 -0.6887
  519SOL     OW 2073   0.731   2.577   1.709  0.5825  0.4747  0.4321
  519SOL    HW1 2074   0.703   2.489   1.708 -1.8280  0.4373 -1.4391
  519SOL    HW2 2075   0.660   2.622   1.747 -1.9460 -1.8582 -0.1556
  519SOL     MW 2076   0.718   2.571   1.714 -0.0692  0.1620  0.1076
  520SOL     OW 2077   1.270   2.146   2.936 -0.5423  0.1648  0.1257
  520SOL    HW1 2078   1.179   2.111   2.927  1.0731 -0.9049 -0.6788
  520SOL    HW2 2079   1.316   2.121   3.014 -0.3427 -2.0275  1.6814
  520SOL     MW 2080   1.264   2.138   2.945 -0.3028 -0.2656  0.2248
  521SOL     OW 2081   1.722   2.055   2.306 -0.2353  0.1440 -0.7464
  521SOL    HW1 2082   1.754   2.100   2.227  2.2122 -0.8131  1.2614
  521SOL    HW2 2083   1.727   1.962   2.275 -1.1617 -0.6008  1.5497
  521SOL     MW 2084   1.727   2.048   2.291 -0.0346 -0.0805 -0.1785
  522SOL     OW 2085   2.841   2.557   2.164 -0.3378  0.5821  0.1830
  522SOL    HW1 2086   2.920   2.506   2.190  1.4430 -1.7638 -0.4845
  522SOL    HW2 2087   2.805   2.591   2.247  0.3271 -0.9588  0.9699
  522SOL     MW 2088   2.847   2.555   2.178 -0.0151  0.0693  0.1988
  523SOL     OW 2089   0.851   1.511   2.132 -0.4394 -0.2839  0.0205
  523SOL    HW1 2090   0.867   1.590   2.079 -0.2149  0.1687  3.5168
  523SOL    HW2 2091   0.893   1.446   2.078 -0.1087  3.3134  0.3660
  523SOL     MW 2092   0.859   1.513   2.118 -0.3662  0.2504  0.5274
  524SOL     OW 2093   0.882   2.440   2.901  0.7192  0.1129  0.3947
  524SOL    HW1 2094   0.805   2.475   2.858  3.1449  1.2577  0.5640
  524SOL    HW2 2095   0.869   2.346   2.891  0.1475  1.3320 -1.2789
  524SOL     MW 2096   0.870   2.432   2.894  0.9638  0.4248  0.1962
  525SOL     OW 2097   0.401   2.260   2.111 -1.1458 -0.1674 -0.4724
  525SOL    HW1 2098   0.377   2.189   2.171  1.9081 -2.2397  1.5428
  525SOL    HW2 2099   0.388   2.215   2.024 -2.5050  0.5267  1.0762
  525SOL     MW 2100   0.396   2.245   2.107 -0.9222 -0.3493 -0.0022
  526SOL     OW 2101   0.706   2.095   1.982  0.2839  0.1430  0.0165
  526SOL    HW1 2102   0.722   2.140   1.902  0.1914  0.2819  1.1419
  526SOL    HW2 2103   0.685   2.155   2.052 -0.9896 -1.1057 -2.4965
  526SOL     MW 2104   0.705   2.109   1.981  0.1037 -0.0034 -0.1666
  527SOL     OW 2105   1.318   1.968   2.020  0.4208  0.1709  0.0555
  527SOL    HW1 2106   1.286   1.947   2.109 -1.1828 -1.7321  0.3659
  527SOL    HW2 2107   1.376   1.896   1.990 -0.1401 -3.3867  0.7012
  527SOL     MW 2108   1.322   1.956   2.028  0.1352 -0.5496  0.1816
  528SOL     OW 2109   0.628   2.877   2.944  0.0209  0.0209  0.9463
  528SOL    HW1 2110   0.691   2.946   2.950 -0.4239 -1.6135  0.0962
  528SOL    HW2 2111   0.566   2.894   2.869  0.0176 -0.9289  0.2071
  528SOL     MW 2112   0.628   2.889   2.935 -0.0382 -0.3201  0.7366
  529SOL     OW 2113   0.925   2.343   1.882 -0.4976 -0.5851  0.3523
  529SOL    HW1 2114   0.925   2.360   1.976 -2.2020 -0.8412 -2.4394
  529SOL    HW2 2115   1.006   2.384   1.843 -1.8812 -3.4789 -0.0997
  529SOL     MW 2116   0.935   2.351   1.889 -0.9050 -1.0007 -0.0757
  530SOL     OW 2117   1.217   2.398   3.021  0.5658 -0.4097 -0.0323
  530SOL    HW1 2118   1.136   2.397   3.064 -1.4583 -1.0687 -0.2615
  530SOL    HW2 2119   1.230   2.301   3.001 -0.4187 -0.3968  0.6458
  530SOL     MW 2120   1.208   2.385   3.024  0.1688 -0.4949  0.0269
  531SOL     OW 2121   0.977   1.862   2.580 -0.2332  0.2658 -0.5911
  531SOL    HW1 2122   1.018   1.951   2.575 -0.7292 -0.6817  3.5294
  531SOL    HW2 2123   0.955   1.848   2.669  0.2640 -1.7140  3.4845
  531SOL     MW 2124   0.979   1.872   2.591 -0.2330 -0.1204  0.4903
  532SOL     OW 2125   1.738   0.333   2.819  0.5496 -0.1135 -0.3959
  532SOL    HW1 2126   1.767   0.258   2.765  0.6924 -1.1622 -0.8150
  532SOL    HW2 2127   1.811   0.397   2.811  3.8229  0.6257  1.0652
  532SOL     MW 2128   1.751   0.331   2.811  1.0003 -0.1543 -0.2584
  533SOL     OW 2129   1.832   2.678   3.012 -0.3375  0.3138  0.4120
  533SOL    HW1 2130   1.776   2.597   3.030 -1.9840 -2.0357 -1.2620
  533SOL    HW2 2131   1.778   2.755   3.010 -2.7436  1.0248  1.2056
  533SOL     MW 2132   1.817   2.677   3.014 -0.8722  0.0976  0.2959
  534SOL     OW 2133   1.760   2.424   2.505  0.0952 -0.1309 -0.5260
  534SOL    HW1 2134   1.709   2.358   2.556 -2.2259 -0.0756  1.9508
  534SOL    HW2 2135   1.838   2.444   2.551 -0.3827  0.5111 -0.8774
  534SOL     MW 2136   1.764   2.418   2.518 -0.2741 -0.0389 -0.2455
  535SOL     OW 2137   1.910   2.397   1.917 -0.0984 -0.1387  0.0113
  535SOL    HW1 2138   1.867   2.400   1.826 -0.7733 -0.7203  0.3502
  535SOL    HW2 2139   2.004   2.394   1.896 -1.1779  1.3454 -0.6562
  535SOL     MW 2140   1.916   2.397   1.902 -0.3299 -0.0197 -0.0320
  536SOL     OW 2141   0.571   1.804   2.062  0.2081  0.1168 -0.0656
  536SOL    HW1 2142   0.550   1.755   1.984  2.3398 -0.7565 -1.9552
  536SOL    HW2 2143   0.600   1.884   2.024  0.0055 -2.1532  1.5670
  536SOL     MW 2144   0.572   1.808   2.047  0.4626 -0.2979 -0.0995
  537SOL     OW 2145   1.089   0.177   2.790 -0.1054 -0.5749 -0.5676
  537SOL    HW1 2146   1.041   0.194   2.872  1.1520  0.8040 -0.4501
  537SOL    HW2 2147   1.076   0.250   2.734  2.2333 -1.0814  1.0186
  537SOL     MW 2148   1.081   0.189   2.793  0.3691 -0.4598 -0.3428
  538SOL     OW 2149   1.455   0.046   3.070  0.4307  0.1350  0.2729
  538SOL    HW1 2150   1.433   0.131   3.105  0.8589 -1.4542  1.2134
  538SOL    HW2 2151   1.364   0.001   3.067  0.2142 -1.6760  0.1012
  538SOL     MW 2152   1.440   0.051   3.075  0.4586 -0.3136  0.3743
  539SOL     OW 2153   0.711   2.807   2.579 -0.4993 -0.0577  0.4013
  539SOL    HW1 2154   0.764   2.885   2.607 -0.9825  2.9278  0.7941
  539SOL    HW2 2155   0.761   2.737   2.616  2.6366 -2.0746 -2.4539
  539SOL     MW 2156   0.725   2.808   2.588 -0.1493  0.0701  0.0764
  540SOL     OW 2157   0.335   2.496   2.892 -0.9112 -0.1246 -0.1159
  540SOL    HW1 2158   0.357   2.553   2.967  1.7888 -0.6095  0.0715
  540SOL    HW2 2159   0.283   2.418   2.929  0.1915 -1.2498  0.7594
  540SOL     MW 2160   0.331   2.493   2.907 -0.4095 -0.3371  0.0243
  541SOL     OW 2161   0.197   2.925   2.162 -0.5437 -0.2765 -0.8164
  541SOL    HW1 2162   0.144   2.843   2.155  0.3492 -2.5502  1.0582
  541SOL    HW2 2163   0.256   2.899   2.237 -0.0405  0.4298  2.4481
  541SOL     MW 2164   0.198   2.911   2.171 -0.3595 -0.4833 -0.1383
  542SOL     OW 2165   1.019   2.273   2.689 -0.6136 -0.0589 -0.4295
  542SOL    HW1 2166   0.946   2.243   2.745  1.0326 -0.5528  1.5698
  542SOL    HW2 2167   1.042   2.365   2.717 -1.9087  1.1805 -0.5282
  542SOL     MW 2168   1.013   2.281   2.700 -0.5673  0.0395 -0.1788
  543SOL     OW 2169   1.688   2.420   2.836 -0.8244  0.2235  0.6551
  543SOL    HW1 2170   1.663   2.354   2.773 -2.1298 -0.5537 -2.3803
  543SOL    HW2 2171   1.734   2.491   2.788  1.1245  1.0183 -0.7751
  543SOL     MW 2172   1.690   2.421   2.821 -0.7395  0.2258  0.0659
  544SOL     OW 2173   0.775   0.154   2.745  0.1319  0.1104 -0.1558
  544SOL    HW1 2174   0.676   0.169   2.744 -0.7938  2.0505 -4.0969
  544SOL    HW2 2175   0.797   0.152   2.650  1.9536 -0.7189 -0.9735
  544SOL     MW 2176   0.765   0.156   2.732  0.2501  0.2570 -0.7836
  545SOL     OW 2177   1.441   2.152   2.330  0.1562 -0.6781 -0.4887
  545SOL    HW1 2178   1.416   2.186   2.246 -0.2204 -1.1761 -0.0175
  545SOL    HW2 2179   1.541   2.125   2.327  2.0899 -0.4081 -0.6798
  545SOL     MW 2180   1.451   2.153   2.319  0.3616 -0.7082 -0.4518
  546SOL     OW 2181   2.890   2.012   0.121  0.0174 -0.3238 -0.0962
  546SOL    HW1 2182   2.915   2.085   0.066  0.3021 -1.6524  0.6587
  546SOL    HW2 2183   2.968   1.959   0.140 -2.2878  1.2712  1.8311
  546SOL     MW 2184   2.903   2.015   0.116 -0.2492 -0.2886  0.2577
  547SOL     OW 2185   0.210   0.065   0.100  0.3849 -0.3453  0.0371
  547SOL    HW1 2186   0.263   0.063   0.023 -0.1413 -1.4677  4.2620
  547SOL    HW2 2187   0.122   0.040   0.069  0.3213  0.1693 -0.4740
  547SOL     MW 2188   0.205   0.061   0.086  0.3071 -0.4255  0.5271
  548SOL     OW 2189   0.312   2.448   0.244  0.1119 -0.3595 -0.3763
  548SOL    HW1 2190   0.345   2.498   0.168 -1.1497 -1.6475  1.1937
  548SOL    HW2 2191   0.227   2.413   0.217 -3.1275 -2.4104 -2.1974
  548SOL     MW 2192   0.305   2.450   0.231 -0.4820 -0.8000 -0.4094
  549SOL     OW 2193   0.851   1.952   2.175  0.3131  0.2038 -0.7246
  549SOL    HW1 2194   0.785   1.988   2.111 -1.4274  1.3098  0.0229
  549SOL    HW2 2195   0.801   1.909   2.241 -3.0920 -3.4095 -2.0543
  549SOL     MW 2196   0.836   1.951   2.175 -0.3658 -0.1270 -0.8014
  550SOL     OW 2197   1.849   1.738   2.543  0.7723  0.4746 -0.0279
  550SOL    HW1 2198   1.826   1.771   2.455  2.4189  2.4036 -2.7987
  550SOL    HW2 2199   1.836   1.815   2.601 -0.0199  1.4086  1.1844
  550SOL     MW 2200   1.844   1.752   2.539  0.8850  0.8523 -0.2335
  551SOL     OW 2201   0.882   2.233   0.260 -0.3712 -0.6312 -0.3110
  551SOL    HW1 2202   0.961   2.276   0.243 -3.1649 -0.7528 -0.7735
  551SOL    HW2 2203   0.840   2.190   0.180 -2.9426  2.0324  1.3087
  551SOL     MW 2204   0.887   2.233   0.247 -1.0791 -0.2958 -0.1583
  552SOL     OW 2205   1.757   1.795   2.259  0.0101 -0.3472 -0.1919
  552SOL    HW1 2206   1.672   1.751   2.255 -1.7151  4.3369 -0.4867
  552SOL    HW2 2207   1.831   1.733   2.224  1.9563 -2.0322  0.6517
  552SOL     MW 2208   1.756   1.781   2.254  0.0392  0.0485 -0.1195
  553SOL     OW 2209   1.189   2.249   1.544 -0.4618  0.6085 -0.3289
  553SOL    HW1 2210   1.248   2.177   1.574  2.1272 -0.8274  1.8709
  553SOL    HW2 2211   1.255   2.295   1.487  1.5775  1.0108 -0.9813
  553SOL     MW 2212   1.206   2.245   1.540  0.1489  0.4721 -0.1247
  554SOL     OW 2213   0.476   2.911   2.702 -0.1627 -0.0463 -0.5299
  554SOL    HW1 2214   0.447   2.987   2.654 -2.7567 -0.5735  0.2867
  554SOL    HW2 2215   0.543   2.865   2.649 -0.2272  0.3179  1.6966
  554SOL     MW 2216   0.481   2.915   2.688 -0.5134 -0.0678 -0.1284
  555SOL     OW 2217   0.604   2.458   2.586 -0.2438 -0.1824 -0.1066
  555SOL    HW1 2218   0.568   2.371   2.582  1.7249 -0.3738  0.4351
  555SOL    HW2 2219   0.687   2.440   2.541 -1.9790 -1.4953  1.5737
  555SOL     MW 2220   0.610   2.444   2.580 -0.2130 -0.3809  0.1866
  556SOL     OW 2221   1.068   1.920   0.073  0.0320 -0.1152 -0.1622
  556SOL    HW1 2222   1.088   1.874  -0.007 -2.6289  3.5445  0.6731
  556SOL    HW2 2223   1.125   1.881   0.144  1.0457 -0.8841 -0.6053
  556SOL     MW 2224   1.078   1.909   0.072 -0.1853  0.2662 -0.1104
  557SOL     OW 2225   1.028   2.711   0.467  0.2659  0.5861 -0.0397
  557SOL    HW1 2226   1.056   2.647   0.397  3.3823  0.6351  1.6500
  557SOL    HW2 2227   0.963   2.774   0.430  3.4970  0.6656  0.8457
  557SOL     MW 2228   1.023   2.711   0.453  1.1034  0.6030  0.3000
  558SOL     OW 2229   0.191   2.248   3.015 -0.6020  0.0298  0.2358
  558SOL    HW1 2230   0.137   2.202   2.949  1.7009 -2.0273  1.6854
  558SOL    HW2 2231   0.162   2.233   3.101 -0.2360 -3.2226  0.4695
  558SOL     MW 2232   0.180   2.240   3.018 -0.2498 -0.6707  0.4579
  559SOL     OW 2233   1.052   2.390   2.175 -0.4513  0.0331 -0.6639
  559SOL    HW1 2234   1.142   2.367   2.179  1.1215  0.3282 -0.6293
  559SOL    HW2 2235   1.007   2.323   2.224 -1.6858  0.4175  0.2810
  559SOL     MW 2236   1.058   2.378   2.182 -0.4066  0.1228 -0.5347
  560SOL     OW 2237   1.981   2.765   0.150  0.6801 -0.8182 -0.2066
  560SOL    HW1 2238   2.050   2.803   0.096  1.9636 -0.7700  0.4621
  560SOL    HW2 2239   1.917   2.737   0.086  2.6187 -0.1229  0.1269
  560SOL     MW 2240   1.982   2.766   0.134  1.1052 -0.7201 -0.0744
  561SOL     OW 2241   0.421   2.133   0.097  0.7899 -0.1939  0.2356
  561SOL    HW1 2242   0.430   2.169   0.006  1.7165 -0.0781 -0.2779
  561SOL    HW2 2243   0.492   2.184   0.144  3.6724 -2.1180  0.2010
  561SOL     MW 2244   0.432   2.144   0.091  1.2925 -0.4325  0.1633
  562SOL     OW 2245   0.673   2.183   2.275  0.1466 -0.2961  0.5345
  562SOL    HW1 2246   0.660   2.271   2.248  2.9338 -3.0856  2.1242
  562SOL    HW2 2247   0.758   2.190   2.321  2.9387  2.0745  2.0069
  562SOL     MW 2248   0.682   2.196   2.278  0.8827 -0.3513  0.9385
  563SOL     OW 2249   1.223   0.412   0.528  0.1930 -0.0888  0.5840
  563SOL    HW1 2250   1.172   0.342   0.482  0.4346 -0.5438  2.4546
  563SOL    HW2 2251   1.202   0.381   0.621  1.7223 -1.6329 -3.2744
  563SOL     MW 2252   1.214   0.399   0.534  0.4267 -0.3526  0.3217
  564SOL     OW 2253   1.049   2.596   2.366 -0.4416 -0.0475 -0.3160
  564SOL    HW1 2254   1.040   2.674   2.302  2.2763 -0.3061  0.4307
  564SOL    HW2 2255   1.076   2.641   2.446  2.3844  1.2107 -0.6182
  564SOL     MW 2256   1.051   2.612   2.368  0.2899  0.0844 -0.2574
  565SOL     OW 2257   2.763   2.829   2.550  0.2605  0.1059  0.0868
  565SOL    HW1 2258   2.744   2.918   2.526 -0.3871 -0.6173  0.3638
  565SOL    HW2 2259   2.745   2.782   2.473 -1.6140  0.4517  3.6172
  565SOL     MW 2260   2.758   2.835   2.537 -0.0723  0.0561  0.5891
  566SOL     OW 2261   2.179   1.930   2.303  0.1717  0.3771 -0.0073
  566SOL    HW1 2262   2.193   1.919   2.209  0.5164  0.2564 -0.3974
  566SOL    HW2 2263   2.259   1.978   2.332  2.3652  1.4301  0.7123
  566SOL     MW 2264   2.191   1.935   2.294  0.5066  0.5001  0.0362
  567SOL     OW 2265   1.210   3.021   0.008  0.1532 -0.1732 -0.4066
  567SOL    HW1 2266   1.176   3.010   0.096  1.1520  2.6644  2.1488
  567SOL    HW2 2267   1.232   2.935  -0.026 -1.8135  1.5635 -3.4670
  567SOL     MW 2268   1.209   3.008   0.015  0.0255  0.4303 -0.4732
  568SOL     OW 2269   1.645   2.106   2.871  0.9030  0.3071  0.1283
  568SOL    HW1 2270   1.683   2.152   2.944 -1.5648  1.7833  0.7045
  568SOL    HW2 2271   1.716   2.050   2.838 -2.5945 -0.0572 -0.0869
  568SOL     MW 2272   1.659   2.104   2.876  0.1160  0.4538  0.1760
  569SOL     OW 2273   0.118   2.294   2.460 -0.3246 -0.2517  0.5189
  569SOL    HW1 2274   0.097   2.342   2.379 -1.7208  0.1881 -0.5429
  569SOL    HW2 2275   0.163   2.365   2.509 -0.6164  1.4329 -1.6915
  569SOL     MW 2276   0.121   2.310   2.456 -0.5473  0.0286  0.0871
  570SOL     OW 2277   1.490   0.351   0.535  0.0447 -0.5736  0.0571
  570SOL    HW1 2278   1.406   0.390   0.540  1.2934  0.2488  1.4097
  570SOL    HW2 2279   1.530   0.376   0.618  1.7696 -0.0604 -0.3909
  570SOL     MW 2280   1.484   0.360   0.546  0.4371 -0.3974  0.1764
  571SOL     OW 2281   1.333   2.368   2.127  0.2119  0.0139 -0.0024
  571SOL    HW1 2282   1.395   2.394   2.194 -0.6916  2.2293 -1.8943
  571SOL    HW2 2283   1.382   2.315   2.061  1.6370 -2.5149 -1.1110
  571SOL     MW 2284   1.348   2.365   2.127  0.2807 -0.0275 -0.3983
  572SOL     OW 2285   1.012   2.562   0.063  0.6801 -0.1890  0.2340
  572SOL    HW1 2286   1.001   2.652   0.064 -2.8597 -0.8653  1.0377
  572SOL    HW2 2287   0.916   2.537   0.056 -0.9661  0.6476  0.6742
  572SOL     MW 2288   0.998   2.571   0.062 -0.0041 -0.1678  0.3981
  573SOL     OW 2289   1.173   2.278   0.229 -0.1986  0.6641  0.3737
  573SOL    HW1 2290   1.248   2.260   0.169  0.5313 -4.0448 -0.5617
  573SOL    HW2 2291   1.189   2.363   0.270  2.1134 -0.1207  1.5477
  573SOL     MW 2292   1.185   2.287   0.227  0.2027 -0.0607  0.4052
  574SOL     OW 2293   1.162   2.539   0.309 -0.2615 -0.3640 -0.0887
  574SOL    HW1 2294   1.248   2.584   0.314  3.6112 -0.3689 -3.1950
  574SOL    HW2 2295   1.111   2.559   0.229  0.8580 -3.4952 -0.1175
  574SOL     MW 2296   1.167   2.548   0.299  0.3972 -0.7777 -0.5023
  575SOL     OW 2297   3.053   2.200   1.672  0.6157  0.2738 -0.5287
  575SOL    HW1 2298   3.077   2.107   1.639 -3.3731 -0.6391  0.6835
  575SOL    HW2 2299   3.119   2.226   1.741 -1.3174 -2.7746  0.3703
  575SOL     MW 2300   3.065   2.191   1.677 -0.1657 -0.2489 -0.2501
  576SOL     OW 2301   2.832   1.837   2.017 -0.3802 -0.0413  0.1435
  576SOL    HW1 2302   2.852   1.913   1.957 -1.6826  2.7676 -1.8604
  576SOL    HW2 2303   2.746   1.804   1.978 -0.2854 -0.2411 -4.2434
  576SOL     MW 2304   2.823   1.843   2.004 -0.5396  0.3029 -0.6997
  577SOL     OW 2305   2.102   0.241   0.035  0.2617 -0.1802 -0.7177
  577SOL    HW1 2306   2.040   0.205  -0.029  2.7042 -0.9972  1.7820
  577SOL    HW2 2307   2.078   0.193   0.111  0.1622 -0.1225 -3.5747
  577SOL     MW 2308   2.091   0.230   0.037  0.5708 -0.2804 -0.7648
  578SOL     OW 2309   1.992   2.100   2.401  0.4405  0.4633  0.0581
  578SOL    HW1 2310   1.904   2.067   2.382  2.2724  0.2729 -2.0239
  578SOL    HW2 2311   2.059   2.034   2.367 -2.9091 -0.6696  0.7305
  578SOL     MW 2312   1.990   2.087   2.394  0.2403  0.2887 -0.1279
  579SOL     OW 2313   0.890   2.427   2.499  0.4154  0.0553  0.1373
  579SOL    HW1 2314   0.949   2.347   2.522  0.5630 -4.4790 -0.1359
  579SOL    HW2 2315   0.954   2.476   2.439  0.1034  1.5478  0.1899
  579SOL     MW 2316   0.906   2.423   2.494  0.3937 -0.3461  0.1082
  580SOL     OW 2317   0.962   2.844   3.098 -0.2191 -0.3603 -0.1739
  580SOL    HW1 2318   1.058   2.837   3.084  0.8275 -0.1464 -1.0813
  580SOL    HW2 2319   0.926   2.813   3.013  1.3295  1.3115 -1.3403
  580SOL     MW 2320   0.970   2.839   3.085  0.1233 -0.1115 -0.4475
  581SOL     OW 2321   1.140   2.429   1.754  0.1229  0.4907  0.6660
  581SOL    HW1 2322   1.215   2.450   1.810 -0.6907 -1.0735 -2.8469
  581SOL    HW2 2323   1.165   2.364   1.682 -2.0060 -3.8305 -0.6039
  581SOL     MW 2324   1.153   2.423   1.752 -0.2653 -0.2858  0.0350
  582SOL     OW 2325   0.025   2.877   2.735 -0.3587 -0.2395 -0.3854
  582SOL    HW1 2326  -0.054   2.940   2.730  1.1138  2.7204 -0.3483
  582SOL    HW2 2327   0.098   2.927   2.778 -0.5641 -2.5394  1.8547
  582SOL     MW 2328   0.024   2.892   2.740 -0.1915 -0.1524 -0.0850
  583SOL     OW 2329   1.996   2.424   2.684 -0.0665 -0.2325  0.0759
  583SOL    HW1 2330   2.064   2.413   2.624 -2.1205 -0.7398  0.3694
  583SOL    HW2 2331   1.963   2.335   2.700 -2.6979  1.2963  0.9259
  583SOL     MW 2332   2.001   2.411   2.678 -0.6847 -0.0977  0.2267
  584SOL     OW 2333   0.099   1.906   2.188  0.2919 -0.3300 -0.0263
  584SOL    HW1 2334   0.090   1.864   2.279 -0.7886  0.4185  0.6956
  584SOL    HW2 2335   0.176   1.968   2.203  0.5233  0.6687  0.3034
  584SOL     MW 2336   0.108   1.908   2.202  0.1799 -0.0995  0.1125
  585SOL     OW 2337   1.563   2.645   0.140 -0.6567 -0.2331 -0.4464
  585SOL    HW1 2338   1.525   2.628   0.056  2.8276 -0.7235  0.5131
  585SOL    HW2 2339   1.488   2.648   0.195  0.0021 -3.2329 -0.2204
  585SOL     MW 2340   1.548   2.643   0.136 -0.1101 -0.6936 -0.2900
  586SOL     OW 2341   1.351   2.817   2.571 -0.3972 -0.4160  0.3000
  586SOL    HW1 2342   1.373   2.773   2.478 -0.9548 -1.2247  0.2916
  586SOL    HW2 2343   1.319   2.905   2.561 -0.5578  0.1982 -0.6514
  586SOL     MW 2344   1.349   2.823   2.557 -0.4920 -0.4417  0.1733
  587SOL     OW 2345   1.362   1.493   2.187 -0.2410  0.6022 -0.1965
  587SOL    HW1 2346   1.310   1.414   2.219  1.7222 -1.5934 -1.3717
  587SOL    HW2 2347   1.386   1.476   2.095  0.2607  0.4321 -0.2667
  587SOL     MW 2348   1.358   1.481   2.179  0.0842  0.2900 -0.3608
  588SOL     OW 2349   1.386   1.980   2.629 -0.0593  0.0367 -0.0608
  588SOL    HW1 2350   1.387   1.880   2.622  1.8090 -1.0810  1.1759
  588SOL    HW2 2351   1.393   1.996   2.723 -1.0271  1.5584 -0.3478
  588SOL     MW 2352   1.387   1.969   2.640  0.0595  0.0900  0.0645
  589SOL     OW 2353   1.419   1.988   0.059  0.1432 -0.1017  0.6597
  589SOL    HW1 2354   1.437   2.075   0.092  1.8283 -0.3213  0.2823
  589SOL    HW2 2355   1.351   1.957   0.118 -0.2660  2.0482 -1.0551
  589SOL     MW 2356   1.413   1.995   0.071  0.3115  0.1530  0.3837
  590SOL     OW 2357   0.500   2.676   2.166  0.1373  0.0981 -0.6068
  590SOL    HW1 2358   0.466   2.676   2.075 -1.0311  0.3821  0.3393
  590SOL    HW2 2359   0.580   2.728   2.163  1.7852 -3.5263  1.4396
  590SOL     MW 2360   0.506   2.683   2.154  0.2005 -0.3426 -0.2120
  591SOL     OW 2361   2.255   0.677   0.084 -0.6572 -0.7475  0.8726
  591SOL    HW1 2362   2.178   0.716   0.121  1.4858  2.0619 -1.3530
  591SOL    HW2 2363   2.268   0.716   0.001 -1.0451 -2.9677  1.6282
  591SOL     MW 2364   2.246   0.687   0.078 -0.4256 -0.6697  0.6786
  592SOL     OW 2365   1.699   2.956   0.802 -0.3270  0.3921  0.1925
  592SOL    HW1 2366   1.712   3.001   0.716 -0.4135  2.2073 -1.4727
  592SOL    HW2 2367   1.781   2.924   0.830  0.2822  2.3050  0.6115
  592SOL     MW 2368   1.712   2.958   0.794 -0.2581  0.8840  0.0280
  593SOL     OW 2369   1.993   0.693   0.778  0.4698  0.5748 -0.3676
  593SOL    HW1 2370   1.915   0.683   0.721  0.4646  2.8593  0.7807
  593SOL    HW2 2371   2.050   0.615   0.778 -0.1567  0.8522 -0.2410
  593SOL     MW 2372   1.990   0.681   0.770  0.3865  0.9128 -0.1994
  594SOL     OW 2373   2.716   1.065   1.389 -0.0020 -0.4714 -0.0651
  594SOL    HW1 2374   2.790   1.007   1.376 -1.3585  1.2007  1.1694
  594SOL    HW2 2375   2.666   1.073   1.308 -3.2482  0.9336  0.6926
  594SOL     MW 2376   2.719   1.058   1.377 -0.6093 -0.0654  0.1977
  595SOL     OW 2377   0.475   0.905   0.861  0.5248  0.6832  0.0089
  595SOL    HW1 2378   0.498   0.940   0.775 -1.3696 -1.5521  1.0465
  595SOL    HW2 2379   0.490   0.981   0.925  0.4507  1.0395 -1.9282
  595SOL     MW 2380   0.480   0.920   0.858  0.2651  0.4353 -0.1098
  596SOL     OW 2381   2.457   1.338   0.523  0.0040  0.5718 -0.0809
  596SOL    HW1 2382   2.498   1.424   0.521  1.1395 -0.3079  1.1561
  596SOL    HW2 2383   2.492   1.302   0.605  0.3851 -2.2859  0.1041
  596SOL     MW 2384   2.467   1.344   0.534  0.2041  0.0787  0.1067
  597SOL     OW 2385   2.212   0.642   1.575  0.8089 -0.4485  0.0875
  597SOL    HW1 2386   2.232   0.586   1.646 -1.8972  0.9790  2.3164
  597SOL    HW2 2387   2.138   0.589   1.526 -1.0212 -1.4039 -3.1796
  597SOL     MW 2388   2.205   0.628   1.578  0.2104 -0.3862 -0.0495
  598SOL     OW 2389   2.596   1.054   2.857 -0.0738  0.3742 -0.2006
  598SOL    HW1 2390   2.605   0.958   2.845  0.5070  0.0981 -2.0111
  598SOL    HW2 2391   2.684   1.097   2.876 -1.6515  3.0129  3.0196
  598SOL     MW 2392   2.609   1.047   2.858 -0.2053  0.6859 -0.0146
  599SOL     OW 2393   3.028   0.429   2.197  0.6447 -0.0371  1.1567
  599SOL    HW1 2394   3.055   0.441   2.285  2.3204 -2.9103 -3.2988
  599SOL    HW2 2395   3.050   0.508   2.145 -0.5331  1.1554 -0.1324
  599SOL     MW 2396   3.035   0.441   2.202  0.7104 -0.2588  0.3987
  600SOL     OW 2397   1.849   1.650   0.873 -0.0988  0.3488 -0.5936
  600SOL    HW1 2398   1.899   1.698   0.942  1.2176  0.3605 -1.5654
  600SOL    HW2 2399   1.803   1.726   0.842  1.2789  0.2214 -0.6125
  600SOL     MW 2400   1.850   1.666   0.878  0.2567  0.3336 -0.7243
  601SOL     OW 2401   2.540   0.708   0.816  0.5554  0.3276  0.4610
  601SOL    HW1 2402   2.529   0.701   0.912 -0.6878 -1.2076 -0.5688
  601SOL    HW2 2403   2.467   0.665   0.760 -2.1594  2.9025 -3.1228
  601SOL     MW 2404   2.529   0.701   0.821  0.0332  0.4648 -0.1477
  602SOL     OW 2405   2.304   1.928   0.752 -0.4332 -0.6250 -0.1642
  602SOL    HW1 2406   2.282   1.838   0.715  3.8491  0.0078 -1.5491
  602SOL    HW2 2407   2.224   1.989   0.755  0.5649 -0.3093 -1.0593
  602SOL     MW 2408   2.290   1.924   0.747  0.2635 -0.4999 -0.4650
  603SOL     OW 2409   2.959   1.381   1.978 -0.0185  0.2196  0.0662
  603SOL    HW1 2410   2.966   1.390   2.070 -0.6721 -3.4816  0.5020
  603SOL    HW2 2411   2.988   1.288   1.975  3.3416 -0.8680  3.0046
  603SOL     MW 2412   2.964   1.370   1.989  0.3386 -0.4123  0.5114
  604SOL     OW 2413   2.014   1.388   0.403  0.5140 -0.2557  0.4635
  604SOL    HW1 2414   2.054   1.320   0.462  2.7018 -2.6436 -0.2224
  604SOL    HW2 2415   1.962   1.444   0.464 -0.8257  0.2279  1.0850
  604SOL     MW 2416   2.012   1.386   0.419  0.6259 -0.5069  0.4550
  605SOL     OW 2417   2.440   1.462   0.832 -0.5875  0.4129  0.2680
  605SOL    HW1 2418   2.480   1.519   0.763 -0.1403  0.6921 -2.0501
  605SOL    HW2 2419   2.474   1.376   0.816 -1.7672  0.5306 -1.4336
  605SOL     MW 2420   2.450   1.458   0.820 -0.6842  0.4652 -0.2624
  606SOL     OW 2421   2.607   1.809   1.874  0.4119 -0.2383 -0.2977
  606SOL    HW1 2422   2.513   1.786   1.890 -0.6537 -0.1055  1.9664
  606SOL    HW2 2423   2.650   1.732   1.834 -0.7313  2.9801  0.6001
  606SOL     MW 2424   2.601   1.796   1.870  0.1205  0.2039  0.1195
  607SOL     OW 2425   2.408   1.026   3.069 -0.0475 -0.3131  0.1237
  607SOL    HW1 2426   2.491   1.036   3.022  0.4393 -1.4567 -1.0490
  607SOL    HW2 2427   2.419   1.023   3.162 -2.3372 -0.9151 -0.9008
  607SOL     MW 2428   2.420   1.027   3.075 -0.2854 -0.5435 -0.1662
  608SOL     OW 2429   1.856   0.215   0.530 -0.0162 -0.3692  0.0071
  608SOL    HW1 2430   1.841   0.238   0.438  4.2043  0.2691  1.8897
  608SOL    HW2 2431   1.823   0.115   0.534 -0.2732 -1.5785  1.0364
  608SOL     MW 2432   1.850   0.205   0.519  0.5068 -0.4445  0.3913
  609SOL     OW 2433   2.128   1.897   3.083 -0.0752 -0.4671  0.2722
  609SOL    HW1 2434   2.058   1.842   3.055 -1.2330  0.4057 -0.1109
  609SOL    HW2 2435   2.127   1.899   3.177  3.5874  0.4012 -0.6232
  609SOL     MW 2436   2.118   1.890   3.092  0.2553 -0.2374  0.1035
  610SOL     OW 2437   1.806   0.913   1.233  0.5568 -0.0192 -0.0362
  610SOL    HW1 2438   1.809   0.839   1.167  1.3326  0.3337 -2.2200
  610SOL    HW2 2439   1.711   0.934   1.242 -0.3970 -4.0413  0.6894
  610SOL     MW 2440   1.794   0.906   1.225  0.5333 -0.5033 -0.2286
  611SOL     OW 2441   2.503   1.626   0.632 -0.1330 -0.0029 -0.1164
  611SOL    HW1 2442   2.577   1.632   0.572  0.0703  3.1352  1.2937
  611SOL    HW2 2443   2.438   1.667   0.581  1.2203 -2.1825  1.9034
  611SOL     MW 2444   2.504   1.632   0.617  0.0724  0.1236  0.3361
  612SOL     OW 2445   2.959   2.965   0.317 -0.3458  0.0306  0.0011
  612SOL    HW1 2446   2.924   2.989   0.399  1.7647  0.9617 -4.0510
  612SOL    HW2 2447   3.033   2.899   0.332  1.1211  2.5002  0.1080
  612SOL     MW 2448   2.964   2.959   0.330  0.1262  0.4793 -0.5194
  613SOL     OW 2449   1.523   1.145   1.011 -0.0587  0.5255 -0.0352
  613SOL    HW1 2450   1.522   1.233   1.042 -1.1598 -0.5851 -0.2484
  613SOL    HW2 2451   1.543   1.081   1.079 -1.0167  1.4527  0.2571
  613SOL     MW 2452   1.526   1.148   1.024 -0.3304  0.5013 -0.0247
  614SOL     OW 2453   2.023   0.480   1.400 -0.3380 -0.0928 -0.4805
  614SOL    HW1 2454   2.013   0.400   1.446 -2.0726  0.4840 -1.2811
  614SOL    HW2 2455   1.932   0.495   1.368 -0.3319  2.6908  1.4932
  614SOL     MW 2456   2.010   0.471   1.402 -0.5660  0.3506 -0.3257
  615SOL     OW 2457   2.411   0.721   0.332  0.0599 -0.1117 -0.3201
  615SOL    HW1 2458   2.479   0.670   0.377 -2.2490  1.6656  0.8222
  615SOL    HW2 2459   2.387   0.682   0.242 -0.1785 -0.2888 -4.2956
  615SOL     MW 2460   2.417   0.709   0.326 -0.2762  0.0994 -0.6939
  616SOL     OW 2461   2.512   0.425   1.605  0.5856 -0.8188  0.1002
  616SOL    HW1 2462   2.570   0.356   1.573  1.1000 -0.3643  2.4730
  616SOL    HW2 2463   2.484   0.481   1.528  1.6793  1.9862 -0.0259
  616SOL     MW 2464   2.516   0.423   1.591  0.7977 -0.3887  0.3966
  617SOL     OW 2465   2.881   0.562   1.869  0.3088 -0.5615 -0.1220
  617SOL    HW1 2466   2.807   0.574   1.926  0.0666 -0.1162 -1.0013
  617SOL    HW2 2467   2.862   0.481   1.827  3.0016  0.3780 -2.3350
  617SOL     MW 2468   2.869   0.553   1.871  0.6321 -0.3788 -0.5300
  618SOL     OW 2469   2.762   0.273   2.000  0.2533 -0.5751 -0.4348
  618SOL    HW1 2470   2.715   0.346   2.046 -1.7760  0.8881  1.3443
  618SOL    HW2 2471   2.846   0.269   2.043 -0.6420  0.7135 -3.3447
  618SOL     MW 2472   2.767   0.282   2.012 -0.1326 -0.2120 -0.5840
  619SOL     OW 2473   2.676   0.736   0.077  0.3715 -0.1924 -0.0690
  619SOL    HW1 2474   2.750   0.794   0.087 -2.3921  0.3679 -0.4995
  619SOL    HW2 2475   2.680   0.683   0.158  0.7299  1.6245 -0.7387
  619SOL     MW 2476   2.686   0.737   0.089  0.0542  0.1213 -0.2142
  620SOL     OW 2477   2.216   1.064   0.923 -0.1297 -0.2509 -0.3580
  620SOL    HW1 2478   2.295   1.023   0.892  0.1391  0.8734  2.3684
  620SOL    HW2 2479   2.147   1.045   0.858  1.2899 -1.4273 -3.4567
  620SOL     MW 2480   2.217   1.056   0.910  0.0930 -0.2577 -0.4071
  621SOL     OW 2481   1.468   2.204   1.960  0.0176  0.0168 -0.1525
  621SOL    HW1 2482   1.419   2.119   1.979 -0.1698 -0.4809  2.4903
  621SOL    HW2 2483   1.563   2.181   1.985  1.3948 -0.8025  1.2266
  621SOL     MW 2484   1.474   2.189   1.966  0.1746 -0.1569  0.3782
  622SOL     OW 2485   2.658   0.240   0.276 -0.5432 -0.5935  0.0820
  622SOL    HW1 2486   2.740   0.287   0.249  1.1504  2.4006 -1.4251
  622SOL    HW2 2487   2.691   0.151   0.281  0.6234  0.5652 -0.4992
  622SOL     MW 2488   2.673   0.234   0.273 -0.1658 -0.0456 -0.1936
  623SOL     OW 2489   2.405   2.758   0.890 -0.6248  0.0905  0.0531
  623SOL    HW1 2490   2.459   2.834   0.897 -0.2013 -1.0679  1.1250
  623SOL    HW2 2491   2.328   2.765   0.958  1.0536 -0.8473  1.1546
  623SOL     MW 2492   2.402   2.769   0.900 -0.3474 -0.1861  0.3399
  624SOL     OW 2493   2.162   1.567   3.045  0.1591 -0.5349  0.3478
  624SOL    HW1 2494   2.105   1.488   3.023 -1.2883 -1.9293  0.3836
  624SOL    HW2 2495   2.115   1.637   3.009  0.1465  1.0012 -0.1682
  624SOL     MW 2496   2.148   1.566   3.037 -0.0335 -0.5162  0.2844
  625SOL     OW 2497   2.220   1.900   1.041  0.0360 -0.4604 -0.4769
  625SOL    HW1 2498   2.273   1.844   1.095 -2.2594 -1.0640 -2.5331
  625SOL    HW2 2499   2.251   1.891   0.952  0.5826 -3.1062  0.8794
  625SOL     MW 2500   2.231   1.891   1.036 -0.1948 -0.8891 -0.5692
  626SOL     OW 2501   0.124   1.789   2.453  0.1774  0.5308  0.0802
  626SOL    HW1 2502   0.085   1.720   2.501  2.6826 -0.9747  0.7601
  626SOL    HW2 2503   0.103   1.868   2.497  1.3516 -0.6736 -0.0481
  626SOL     MW 2504   0.116   1.791   2.465  0.6629  0.1732  0.1530
  627SOL     OW 2505   2.518   0.835   2.559  0.4624  0.4361 -0.4495
  627SOL    HW1 2506   2.449   0.892   2.595 -1.1375 -1.7466 -2.7275
  627SOL    HW2 2507   2.484   0.799   2.476  1.8602 -2.1261  0.2464
  627SOL     MW 2508   2.504   0.837   2.553  0.4358 -0.1899 -0.6582
  628SOL     OW 2509   2.286   1.358   1.313  0.4767 -0.5300 -0.2511
  628SOL    HW1 2510   2.226   1.299   1.273  1.8097  1.6207  1.3813
  628SOL    HW2 2511   2.363   1.352   1.257 -0.2723  1.2120 -1.5665
  628SOL     MW 2512   2.288   1.349   1.301  0.5538 -0.0164 -0.2093
  629SOL     OW 2513   1.767   0.572   1.313  0.0433  0.0077 -0.0395
  629SOL    HW1 2514   1.806   0.620   1.241  0.6715  0.9955  0.2328
  629SOL    HW2 2515   1.682   0.551   1.271  1.2636  2.7324 -0.9956
  629SOL     MW 2516   1.761   0.576   1.298  0.2872  0.4975 -0.1297
  630SOL     OW 2517   2.420   1.881   3.021  0.4392  0.4733  0.5337
  630SOL    HW1 2518   2.414   1.976   3.006 -1.7630 -1.6670 -1.7405
  630SOL    HW2 2519   2.326   1.860   3.041  0.3408  1.6259 -1.0909
  630SOL     MW 2520   2.407   1.891   3.022  0.1357  0.3430  0.0193
  631SOL     OW 2521   2.109   1.761   1.511  0.2306  0.3220 -0.7409
  631SOL    HW1 2522   2.093   1.693   1.574  0.9269  2.9261  0.0495
  631SOL    HW2 2523   2.035   1.820   1.524  1.5694  2.3700  4.0925
  631SOL     MW 2524   2.097   1.759   1.521  0.4991  0.9358  0.0011
  632SOL     OW 2525   0.283   1.905   1.536  0.1721 -0.8044  0.3238
  632SOL    HW1 2526   0.192   1.941   1.545  4.7295  0.0664  0.9207
  632SOL    HW2 2527   0.278   1.808   1.536 -0.1660  1.4206  1.4469
  632SOL     MW 2528   0.270   1.897   1.537  0.7288 -0.3959  0.5508
  633SOL     OW 2529   2.627   0.540   0.394 -0.1599  0.0351  0.4198
  633SOL    HW1 2530   2.668   0.512   0.474 -1.1242 -0.4682  1.1286
  633SOL    HW2 2531   2.596   0.454   0.358  1.4625 -0.0598  0.0732
  633SOL     MW 2532   2.629   0.525   0.400 -0.0731 -0.0439  0.4676
  634SOL     OW 2533   2.625  -0.002   0.646 -0.5000 -0.0158  0.1821
  634SOL    HW1 2534   2.677   0.082   0.647 -0.7020  0.9467 -0.0414
  634SOL    HW2 2535   2.628  -0.038   0.556  2.2925  0.3526  0.1826
  634SOL     MW 2536   2.633   0.004   0.634 -0.1582  0.1598  0.1527
  635SOL     OW 2537   2.629   0.048   1.902  0.1609 -0.2452 -0.3283
  635SOL    HW1 2538   2.685  -0.001   1.836 -0.4604  2.1014  0.7233
  635SOL    HW2 2539   2.682   0.122   1.931 -0.7872 -2.0925  0.1987
  635SOL     MW 2540   2.644   0.051   1.897 -0.0462 -0.1794 -0.1200
  636SOL     OW 2541   2.725   1.681   0.813  0.0855  0.7658 -0.3900
  636SOL    HW1 2542   2.636   1.684   0.774 -1.9715  0.8372 -1.2291
  636SOL    HW2 2543   2.748   1.764   0.850 -1.4137  1.0861 -3.1592
  636SOL     MW 2544   2.716   1.692   0.812 -0.3837  0.8175 -0.8661
  637SOL     OW 2545   2.862   1.504   0.659 -0.0439 -0.2576 -0.1031
  637SOL    HW1 2546   2.924   1.569   0.620 -0.7944  0.1462 -0.5443
  637SOL    HW2 2547   2.821   1.554   0.731  0.2215  1.1820  1.5210
  637SOL     MW 2548   2.865   1.519   0.664 -0.1079 -0.0144  0.0529
  638SOL     OW 2549   2.795   0.496   0.618  0.0855  0.5657  0.2740
  638SOL    HW1 2550   2.877   0.531   0.574 -1.4346 -0.3877 -0.9658
  638SOL    HW2 2551   2.784   0.534   0.702 -1.4908 -0.0092 -0.2839
  638SOL     MW 2552   2.804   0.506   0.623 -0.3230  0.3641  0.0368
  639SOL     OW 2553   1.719   3.073   0.563 -0.4861 -0.1805 -0.0543
  639SOL    HW1 2554   1.636   3.098   0.523 -0.1829  2.3439 -1.0811
  639SOL    HW2 2555   1.753   2.998   0.520 -1.7250 -1.8973  0.8528
  639SOL     MW 2556   1.713   3.066   0.552 -0.6095 -0.0739 -0.0701
  640SOL     OW 2557   0.318   1.369   0.100 -0.6206 -0.1000  0.3576
  640SOL    HW1 2558   0.341   1.365   0.002 -0.1419 -0.3086 -2.6389
  640SOL    HW2 2559   0.321   1.276   0.127  0.0061  1.7016 -2.7539
  640SOL     MW 2560   0.321   1.356   0.091 -0.4747  0.1102 -0.4483
  641SOL     OW 2561   2.132   0.364   0.396  0.6709 -0.9056  0.2765
  641SOL    HW1 2562   2.200   0.299   0.401  3.3969 -0.2590  1.3559
  641SOL    HW2 2563   2.055   0.335   0.447  2.4985 -0.9399 -0.3672
  641SOL     MW 2564   2.131   0.352   0.404  1.2717 -0.8248  0.3340
  642SOL     OW 2565   0.050   0.044   0.575 -0.2730  0.2702 -0.0961
  642SOL    HW1 2566   0.035   0.141   0.554  0.6544 -2.2085 -3.0991
  642SOL    HW2 2567  -0.031  -0.001   0.598  0.8444 -0.3893  0.2157
  642SOL     MW 2568   0.037   0.051   0.575 -0.0032 -0.1439 -0.4512
  643SOL     OW 2569   2.068   0.314   1.665  0.1416 -0.1769 -0.2806
  643SOL    HW1 2570   2.007   0.298   1.737 -1.3730  0.5251  0.0306
  643SOL    HW2 2571   2.068   0.239   1.610  0.2297 -1.5750  0.8401
  643SOL     MW 2572   2.060   0.302   1.667 -0.0466 -0.2687 -0.0916
  644SOL     OW 2573   2.676   1.897   1.008  0.0652 -0.1353  0.2553
  644SOL    HW1 2574   2.678   1.809   1.052 -0.1268  0.0456  0.1388
  644SOL    HW2 2575   2.584   1.924   0.984  1.3762  1.5131 -1.8350
  644SOL     MW 2576   2.664   1.889   1.010  0.2129  0.1061 -0.0359
  645SOL     OW 2577   2.773   0.860   0.703 -0.3636 -0.0106  0.7018
  645SOL    HW1 2578   2.852   0.820   0.739 -1.1135  1.9009 -1.5967
  645SOL    HW2 2579   2.690   0.820   0.745 -2.0298 -1.1805 -1.1003
  645SOL     MW 2580   2.772   0.849   0.713 -0.6824  0.0872  0.1607
  646SOL     OW 2581   0.169   2.256   0.822  0.4764 -0.5752  0.3566
  646SOL    HW1 2582   0.183   2.164   0.862  0.3332  0.1742  2.4227
  646SOL    HW2 2583   0.108   2.246   0.745 -0.8505  0.2575  1.0258
  646SOL     MW 2584   0.163   2.242   0.817  0.2824 -0.3665  0.7175
  647SOL     OW 2585   2.733   0.503   3.026  0.3127 -0.0643 -0.2163
  647SOL    HW1 2586   2.665   0.436   3.045 -0.6808 -2.9737  0.3506
  647SOL    HW2 2587   2.705   0.579   3.078 -0.6671  2.4264  0.7109
  647SOL     MW 2588   2.720   0.505   3.035  0.0524 -0.1195 -0.0192
  648SOL     OW 2589   2.259   0.674   1.113 -0.0510 -0.2857  0.0830
  648SOL    HW1 2590   2.222   0.588   1.132  0.0394  2.9879  0.1317
  648SOL    HW2 2591   2.243   0.731   1.189  2.0997  0.1931 -0.0143
  648SOL     MW 2592   2.252   0.670   1.125  0.2447  0.2094  0.0766
  649SOL     OW 2593   2.440   2.701   1.252  0.5963 -0.1322 -0.3565
  649SOL    HW1 2594   2.523   2.754   1.264 -0.0779  0.0415  1.9097
  649SOL    HW2 2595   2.467   2.621   1.212 -1.3629  1.0422  0.6292
  649SOL     MW 2596   2.454   2.698   1.248  0.2488  0.0456  0.0726
  650SOL     OW 2597   2.773   0.228   0.627  0.4888  0.1093 -0.5023
  650SOL    HW1 2598   2.767   0.323   0.646  0.4162 -0.5994  0.9625
  650SOL    HW2 2599   2.845   0.228   0.562 -0.8969 -0.8378 -3.8891
  650SOL     MW 2600   2.782   0.241   0.621  0.2964 -0.1092 -0.7559
  651SOL     OW 2601   3.071   0.454   1.002  0.1548 -0.0394 -0.1163
  651SOL    HW1 2602   3.137   0.508   0.950 -0.1328  1.4526  0.6802
  651SOL    HW2 2603   3.024   0.518   1.051  4.3298  0.6908  1.8031
  651SOL     MW 2604   3.074   0.470   1.002  0.6677  0.2538  0.2420
  652SOL     OW 2605   2.369   1.411   3.011  0.6772  0.7978 -0.1260
  652SOL    HW1 2606   2.418   1.434   2.930  0.0512 -1.4308 -1.2988
  652SOL    HW2 2607   2.306   1.485   3.026 -1.7181 -2.1045 -2.3777
  652SOL     MW 2608   2.367   1.424   3.002  0.2785  0.1208 -0.5778
  653SOL     OW 2609   1.860   0.349   0.272  0.0169 -0.2046 -0.2382
  653SOL    HW1 2610   1.838   0.276   0.206 -1.0844 -0.1965 -0.2370
  653SOL    HW2 2611   1.946   0.381   0.250  0.1319  0.0748  1.0119
  653SOL     MW 2612   1.868   0.343   0.260 -0.1132 -0.1667 -0.0731
  654SOL     OW 2613   2.470   0.960   0.775 -0.1821  0.4785 -0.2825
  654SOL    HW1 2614   2.410   0.952   0.698 -0.6923  3.3260  0.1927
  654SOL    HW2 2615   2.493   0.870   0.794  0.5261 -1.0305 -0.2430
  654SOL     MW 2616   2.465   0.947   0.768 -0.1560  0.6551 -0.2146
  655SOL     OW 2617   2.945   0.928   0.419 -0.6076  0.3266 -0.5305
  655SOL    HW1 2618   2.879   0.985   0.458 -1.3973  0.3326  1.2397
  655SOL    HW2 2619   2.933   0.839   0.458  0.0368 -1.5312 -1.7356
  655SOL     MW 2620   2.935   0.924   0.429 -0.6268  0.0823 -0.4559
  656SOL     OW 2621   1.824   2.645   1.409  0.2339  0.5620 -0.1216
  656SOL    HW1 2622   1.837   2.738   1.381 -0.8469  0.5888 -2.2438
  656SOL    HW2 2623   1.866   2.593   1.343 -0.7955  0.3429  1.1498
  656SOL     MW 2624   1.831   2.650   1.396 -0.0445  0.5366 -0.2339
  657SOL     OW 2625   0.065   1.805   1.240  0.0707 -0.1648 -0.4003
  657SOL    HW1 2626   0.137   1.838   1.185 -1.5555  1.5595 -3.3251
  657SOL    HW2 2627   0.092   1.830   1.326 -1.5495  0.1437 -1.2732
  657SOL     MW 2628   0.078   1.813   1.244 -0.3576  0.1034 -0.9013
  658SOL     OW 2629   2.736   1.356   0.247  0.3652  0.7159  0.1561
  658SOL    HW1 2630   2.697   1.269   0.277 -1.9002 -1.3778 -0.4259
  658SOL    HW2 2631   2.712   1.412   0.321  0.2881 -1.9739 -0.7665
  658SOL     MW 2632   2.728   1.352   0.261  0.0561  0.0847 -0.0424
  659SOL     OW 2633   2.186   1.497   1.029 -0.0936 -0.3299 -0.3481
  659SOL    HW1 2634   2.229   1.413   1.058  1.0623 -2.0913  1.6549
  659SOL    HW2 2635   2.123   1.512   1.095  1.6076 -0.0673  2.2353
  659SOL     MW 2636   2.183   1.488   1.042  0.2834 -0.5276  0.2570
  660SOL     OW 2637   2.079   1.502   1.676 -0.2165 -0.1297 -0.5197
  660SOL    HW1 2638   2.065   1.503   1.771 -0.1173 -0.3862  1.4588
  660SOL    HW2 2639   1.999   1.459   1.642 -1.5151 -0.2639  1.4933
  660SOL     MW 2640   2.066   1.497   1.684 -0.3747 -0.1812  0.0069
  661SOL     OW 2641   2.400   0.988   0.241  0.4456 -0.1398  0.2398
  661SOL    HW1 2642   2.474   1.018   0.297 -1.6008 -1.0089 -1.2834
  661SOL    HW2 2643   2.398   0.886   0.253 -1.0266 -0.4185  2.1102
  661SOL     MW 2644   2.409   0.978   0.250 -0.0186 -0.2912  0.2856
  662SOL     OW 2645   2.584   2.973   0.890  0.2529 -0.0530 -0.5215
  662SOL    HW1 2646   2.508   3.036   0.916 -0.7987  0.2709  1.6112
  662SOL    HW2 2647   2.596   2.999   0.793 -0.4497  1.0924 -0.7203
  662SOL     MW 2648   2.576   2.985   0.881  0.0214  0.1409 -0.2664
  663SOL     OW 2649   2.684   1.509   0.456  0.5836  0.4199 -0.2093
  663SOL    HW1 2650   2.721   1.590   0.415  0.2393 -1.0894  0.9080
  663SOL    HW2 2651   2.755   1.484   0.512 -1.3163 -0.2416 -3.1199
  663SOL     MW 2652   2.699   1.517   0.458  0.2875  0.1335 -0.4459
  664SOL     OW 2653   2.542   1.492   1.537  0.0381  0.1900 -0.6157
  664SOL    HW1 2654   2.536   1.582   1.514 -2.1177 -0.0542 -2.8782
  664SOL    HW2 2655   2.449   1.475   1.524 -2.2082  0.4872  1.8732
  664SOL     MW 2656   2.529   1.501   1.532 -0.5427  0.1970 -0.5859
  665SOL     OW 2657   2.847   0.813   2.101  0.3710  0.1593  0.1029
  665SOL    HW1 2658   2.837   0.867   2.021 -1.0181  0.5214 -0.2219
  665SOL    HW2 2659   2.929   0.764   2.089 -0.7379 -0.5320  1.6579
  665SOL     MW 2660   2.856   0.814   2.089  0.0414  0.1159  0.2652
  666SOL     OW 2661   2.757   3.022   1.675  0.1194  0.0121 -0.0999
  666SOL    HW1 2662   2.775   3.020   1.582 -1.4343 -0.2096 -0.6512
  666SOL    HW2 2663   2.718   2.937   1.685 -0.1243 -0.2015  0.5132
  666SOL     MW 2664   2.754   3.010   1.664 -0.1177 -0.0453 -0.0918
  667SOL     OW 2665   1.985   2.702   1.724 -0.3036  0.2589 -0.6205
  667SOL    HW1 2666   2.000   2.680   1.817 -0.0354  2.7199  0.7737
  667SOL    HW2 2667   2.056   2.764   1.698  1.0203 -2.4500 -0.2862
  667SOL     MW 2668   1.997   2.707   1.733 -0.0936  0.2262 -0.3925
  668SOL     OW 2669   2.762   0.574   0.870 -0.1295 -0.1394  0.1360
  668SOL    HW1 2670   2.817   0.628   0.936  3.1431  1.1635  0.1807
  668SOL    HW2 2671   2.678   0.618   0.852  2.4041 -0.7242  1.5897
  668SOL     MW 2672   2.758   0.587   0.877  0.6366 -0.0447  0.3337
  669SOL     OW 2673   0.196   0.980   0.724  0.6219  0.1511  0.1256
  669SOL    HW1 2674   0.139   1.029   0.785  3.0162  0.5873 -0.5491
  669SOL    HW2 2675   0.274   1.031   0.746 -0.7108  1.5678  0.4150
  669SOL     MW 2676   0.199   0.993   0.735  0.7620  0.3956  0.0748
  670SOL     OW 2677   2.919   0.346   0.213  0.0845  0.2095 -0.1462
  670SOL    HW1 2678   2.917   0.291   0.131  3.6476 -0.2473 -1.7172
  670SOL    HW2 2679   2.918   0.439   0.188 -0.7996 -1.8329 -2.7736
  670SOL     MW 2680   2.919   0.351   0.199  0.4380 -0.1203 -0.7002
  671SOL     OW 2681   2.014   3.003   1.538 -0.3082 -0.0303 -0.2539
  671SOL    HW1 2682   1.939   2.975   1.483  0.5935  1.0418  0.7892
  671SOL    HW2 2683   1.972   3.027   1.624 -2.7929  0.9936 -2.6327
  671SOL     MW 2684   1.998   3.002   1.542 -0.5171  0.2462 -0.4301
  672SOL     OW 2685   1.829   1.734   1.307  0.1741  0.1188  0.0621
  672SOL    HW1 2686   1.851   1.782   1.390  1.9144 -1.0316 -2.8504
  672SOL    HW2 2687   1.889   1.774   1.246 -1.7736 -1.1897 -0.1228
  672SOL     MW 2688   1.840   1.746   1.310  0.1467 -0.2057 -0.3466
  673SOL     OW 2689   2.768   1.114   0.577  0.3386 -0.0167 -0.9976
  673SOL    HW1 2690   2.771   1.042   0.631 -0.0549 -0.5144 -1.6159
  673SOL    HW2 2691   2.841   1.174   0.607  3.0399 -1.0225  2.3859
  673SOL     MW 2692   2.778   1.112   0.588  0.6431 -0.2151 -0.6328
  674SOL     OW 2693   2.482   0.018   1.207 -0.0426 -0.3432 -0.1319
  674SOL    HW1 2694   2.431   0.027   1.128  1.3979 -0.4205  1.2284
  674SOL    HW2 2695   2.521  -0.067   1.197  0.5827 -1.0493 -0.8088
  674SOL     MW 2696   2.480   0.008   1.196  0.2299 -0.4466 -0.0418
  675SOL     OW 2697   2.986   0.914   1.051  0.1941 -0.4239  0.6356
  675SOL    HW1 2698   3.045   0.946   1.119  0.9985 -1.4044  1.6623
  675SOL    HW2 2699   3.006   0.962   0.973 -2.7825 -4.4039 -0.7368
  675SOL     MW 2700   2.996   0.924   1.049 -0.0925 -1.0784  0.5900
  676SOL     OW 2701   2.919   1.444   1.718 -0.3272  0.5570 -0.4636
  676SOL    HW1 2702   2.870   1.367   1.686  2.9182  0.8952  2.2305
  676SOL    HW2 2703   2.930   1.410   1.812 -0.6878 -1.4107 -0.2403
  676SOL     MW 2704   2.914   1.429   1.726  0.0534  0.3420 -0.0787
  677SOL     OW 2705   2.402   0.577   2.018 -0.1408  0.4730 -0.6701
  677SOL    HW1 2706   2.369   0.523   1.949  0.4355 -2.2523  0.9578
  677SOL    HW2 2707   2.387   0.673   1.990  0.4773 -0.3923 -1.8011
  677SOL     MW 2708   2.396   0.583   2.005  0.0168 -0.0008 -0.6046
  678SOL     OW 2709   2.406   1.644   0.269 -0.3519  0.3772  0.5947
  678SOL    HW1 2710   2.325   1.648   0.318  0.1159 -1.7615 -0.3069
  678SOL    HW2 2711   2.420   1.549   0.234 -3.4440 -0.6330 -1.1509
  678SOL     MW 2712   2.397   1.632   0.271 -0.6981 -0.0383  0.2454
  679SOL     OW 2713   2.239   0.418   1.244  0.0969 -0.1171  0.4062
  679SOL    HW1 2714   2.223   0.322   1.248  1.3321 -0.2285  0.7645
  679SOL    HW2 2715   2.165   0.448   1.300  2.2355 -0.8692 -0.1036
  679SOL     MW 2716   2.227   0.409   1.252  0.5420 -0.2310  0.3862
  680SOL     OW 2717   2.394   0.108   1.479  0.6253  0.1063  0.3612
  680SOL    HW1 2718   2.302   0.108   1.482  2.2050  0.1649 -0.3586
  680SOL    HW2 2719   2.408   0.074   1.389 -0.2834 -6.3487 -1.0736
  680SOL     MW 2720   2.384   0.104   1.468  0.7138 -0.7376  0.0770
  681SOL     OW 2721   0.233   0.589   1.503  1.2380  0.1966 -0.3114
  681SOL    HW1 2722   0.182   0.509   1.535 -0.5825 -1.5889  1.3457
  681SOL    HW2 2723   0.222   0.579   1.412 -1.4518 -1.3033  1.3767
  681SOL     MW 2724   0.225   0.577   1.495  0.6429 -0.2368  0.1300
  682SOL     OW 2725   0.088   2.920   1.516 -0.5620 -0.0816  0.6002
  682SOL    HW1 2726   0.154   2.986   1.532 -2.3565 -1.6035  0.3639
  682SOL    HW2 2727   0.032   2.940   1.589  0.3915 -1.4707  2.5008
  682SOL     MW 2728   0.090   2.932   1.528 -0.6729 -0.4657  0.8198
  683SOL     OW 2729   2.052   0.833   2.997  0.1387  0.0059  0.2926
  683SOL    HW1 2730   2.003   0.750   3.007  3.1456  0.9051 -0.8267
  683SOL    HW2 2731   2.018   0.901   3.059  1.1419  0.7879  0.3813
  683SOL     MW 2732   2.041   0.831   3.006  0.6678  0.2277  0.1566
  684SOL     OW 2733   2.121   1.734   0.653 -0.0117  0.0160 -0.2781
  684SOL    HW1 2734   2.117   1.697   0.562 -0.7524  3.0147  1.6927
  684SOL    HW2 2735   2.094   1.667   0.714 -4.0938  1.7554 -1.8553
  684SOL     MW 2736   2.117   1.720   0.649 -0.6480  0.6411 -0.2261
  685SOL     OW 2737   2.689   1.682   1.161 -0.1630  0.1286 -0.0885
  685SOL    HW1 2738   2.712   1.694   1.253 -2.1006  0.5174 -1.1613
  685SOL    HW2 2739   2.613   1.617   1.151 -1.4192 -0.3253  0.6991
  685SOL     MW 2740   2.682   1.675   1.172 -0.5844  0.1200 -0.1261
  686SOL     OW 2741   2.909   0.630   1.593 -0.1582 -0.3245  0.1534
  686SOL    HW1 2742   2.889   0.612   1.681 -0.2448  0.0199 -3.5696
  686SOL    HW2 2743   2.994   0.669   1.590  0.6616  2.4387 -1.6958
  686SOL     MW 2744   2.917   0.632   1.604 -0.0615  0.0855 -0.5818
  687SOL     OW 2745   2.162   0.176   1.118 -0.1259 -0.0424 -0.4760
  687SOL    HW1 2746   2.245   0.139   1.090  0.7630  1.3036 -2.6250
  687SOL    HW2 2747   2.144   0.260   1.067 -0.3092  1.5142  0.5168
  687SOL     MW 2748   2.171   0.182   1.108 -0.0328  0.3406 -0.6285
  688SOL     OW 2749   2.418   0.586   1.409 -0.2382  0.5107  0.1829
  688SOL    HW1 2750   2.378   0.517   1.355  0.6216  0.1852 -0.2836
  688SOL    HW2 2751   2.351   0.598   1.481 -0.1695  0.1454 -2.9742
  688SOL     MW 2752   2.404   0.579   1.412 -0.1157  0.4196 -0.2952
  689SOL     OW 2753   2.498   0.782   2.970  0.5065  0.1145  0.6651
  689SOL    HW1 2754   2.446   0.858   2.983 -0.1885 -0.6377  0.0964
  689SOL    HW2 2755   2.555   0.781   3.048 -0.8248  0.4681  0.8131
  689SOL     MW 2756   2.499   0.792   2.982  0.2392  0.0619  0.6096
  690SOL     OW 2757   2.045   0.867   1.873  0.4269 -0.4248 -0.7377
  690SOL    HW1 2758   2.019   0.778   1.885 -2.9330  2.1826  0.1875
  690SOL    HW2 2759   2.067   0.881   1.782  0.8565 -1.1878  0.7752
  690SOL     MW 2760   2.045   0.857   1.863  0.0403 -0.1815 -0.4160
  691SOL     OW 2761   2.369   0.271   0.862  0.1026  0.6551 -0.0794
  691SOL    HW1 2762   2.448   0.306   0.917  2.8566  1.9108  2.3043
  691SOL    HW2 2763   2.295   0.331   0.866  0.8342  2.5089 -0.1628
  691SOL     MW 2764   2.370   0.284   0.870  0.5625  1.0653  0.2241
  692SOL     OW 2765   2.889   1.597   1.431 -0.0780  0.0392  0.3212
  692SOL    HW1 2766   2.926   1.589   1.517 -0.5991  1.8100 -1.0478
  692SOL    HW2 2767   2.906   1.687   1.402 -0.9925 -0.0476 -1.7502
  692SOL     MW 2768   2.896   1.608   1.438 -0.2674  0.2614 -0.1327
  693SOL     OW 2769   2.349   0.425   0.062  0.0702  0.7081 -0.3127
  693SOL    HW1 2770   2.277   0.366   0.072  0.7487  1.1229  3.2177
  693SOL    HW2 2771   2.310   0.516   0.047 -0.7864 -0.2652  0.5185
  693SOL     MW 2772   2.334   0.429   0.062  0.0467  0.6344  0.2628
  694SOL     OW 2773   1.867   1.174   1.109 -0.5501  0.9344  0.5287
  694SOL    HW1 2774   1.963   1.180   1.138  3.6440 -0.6260  0.1480
  694SOL    HW2 2775   1.835   1.095   1.165  1.7567  0.7712  1.7853
  694SOL     MW 2776   1.875   1.164   1.120  0.3077  0.7070  0.6443
  695SOL     OW 2777   2.964   1.384   1.271 -0.0387  0.3606 -0.0752
  695SOL    HW1 2778   2.948   1.419   1.190 -1.0051  0.8737 -0.5951
  695SOL    HW2 2779   2.928   1.452   1.334  2.7258  0.0677  0.4255
  695SOL     MW 2780   2.957   1.397   1.268  0.1985  0.3896 -0.0778
  696SOL     OW 2781   2.093   1.445   0.762 -0.2346  0.1268 -0.1826
  696SOL    HW1 2782   2.146   1.455   0.840 -1.6518 -0.9585 -0.9122
  696SOL    HW2 2783   2.021   1.392   0.792 -0.5673  0.7248  1.4602
  696SOL     MW 2784   2.091   1.439   0.777 -0.4655  0.0625 -0.0621
  697SOL     OW 2785   2.921   1.042   2.271  0.0954  0.7760 -0.3075
  697SOL    HW1 2786   2.842   1.100   2.290 -3.1819  3.2941  1.6281
  697SOL    HW2 2787   2.890   0.952   2.249  1.5122  1.3032 -3.0648
  697SOL     MW 2788   2.907   1.038   2.270 -0.1501  1.1778 -0.4159
  698SOL     OW 2789   2.551   0.292   3.073  0.1941  0.0251 -0.7267
  698SOL    HW1 2790   2.470   0.341   3.102 -0.8400  0.5694 -2.4130
  698SOL    HW2 2791   2.582   0.258   3.154  0.7296  2.2492 -2.0508
  698SOL     MW 2792   2.544   0.294   3.087  0.1283  0.3904 -1.1239
  699SOL     OW 2793   1.898   1.616   2.076 -0.7040 -0.3146 -0.0313
  699SOL    HW1 2794   1.847   1.529   2.077  3.0814 -2.5801  0.4429
  699SOL    HW2 2795   1.995   1.601   2.066 -0.9083  1.4069  0.2798
  699SOL     MW 2796   1.904   1.603   2.075 -0.2315 -0.3863  0.0723
  700SOL     OW 2797   2.699   0.821   1.563 -0.0994 -0.2224 -0.0720
  700SOL    HW1 2798   2.717   0.912   1.543 -2.3614 -1.6710  1.9881
  700SOL    HW2 2799   2.775   0.776   1.600 -0.1112 -0.0092 -0.6008
  700SOL     MW 2800   2.711   0.827   1.565 -0.3994 -0.3854  0.1301
  701SOL     OW 2801   1.680   1.161   2.515 -0.1317 -0.1614  0.1602
  701SOL    HW1 2802   1.757   1.125   2.553  1.0411 -1.8095 -2.0870
  701SOL    HW2 2803   1.648   1.234   2.564  2.3655 -1.0987 -1.6571
  701SOL     MW 2804   1.686   1.166   2.526  0.3525 -0.5025 -0.3761
  702SOL     OW 2805   2.159   0.417   0.814 -0.1133 -0.3227 -0.7130
  702SOL    HW1 2806   2.129   0.348   0.753 -1.2663  0.8045  0.2654
  702SOL    HW2 2807   2.225   0.467   0.763 -2.0298  0.5726 -0.9540
  702SOL     MW 2808   2.163   0.414   0.799 -0.5183 -0.0558 -0.6157
  703SOL     OW 2809   2.730   1.220   0.959 -0.1942 -0.1696  0.0091
  703SOL    HW1 2810   2.671   1.192   0.887  1.7648 -0.7822 -2.2843
  703SOL    HW2 2811   2.743   1.136   1.001 -0.2691 -0.5148 -0.3407
  703SOL     MW 2812   2.724   1.205   0.955  0.0544 -0.2960 -0.3397
  704SOL     OW 2813   3.052   1.227   0.108  0.3816 -0.6639  0.2961
  704SOL    HW1 2814   2.956   1.229   0.072 -0.2864  1.9200  0.7002
  704SOL    HW2 2815   3.050   1.209   0.205 -1.6692  2.0291  0.0818
  704SOL     MW 2816   3.039   1.225   0.116  0.0229  0.0323  0.3211
  705SOL     OW 2817   2.086   1.579   1.286 -0.4594  0.2621  0.9286
  705SOL    HW1 2818   2.092   1.654   1.344 -2.6926 -1.2892 -2.9734
  705SOL    HW2 2819   2.154   1.519   1.314 -1.7279  1.3426  0.8825
  705SOL     MW 2820   2.096   1.581   1.297 -0.9214  0.2000  0.4077
  706SOL     OW 2821   2.966   1.267   0.676  0.2935  0.0357 -0.1631
  706SOL    HW1 2822   3.010   1.255   0.586  2.0380 -0.6322 -0.7936
  706SOL    HW2 2823   2.922   1.355   0.675 -0.3101 -1.8812 -0.5875
  706SOL     MW 2824   2.966   1.277   0.664  0.4441 -0.3053 -0.3023
  707SOL     OW 2825   2.360   0.033   0.979  0.4358 -0.0674  0.4038
  707SOL    HW1 2826   2.391   0.113   0.929  1.9081  2.0277  0.0938
  707SOL    HW2 2827   2.276   0.015   0.926 -1.5374  3.4491 -1.0875
  707SOL     MW 2828   2.353   0.041   0.966  0.3697  0.6730  0.1662
  708SOL     OW 2829   2.455   1.389   0.172 -0.4825  0.0378  0.2765
  708SOL    HW1 2830   2.548   1.379   0.193  0.3145 -2.4028 -1.2386
  708SOL    HW2 2831   2.439   1.412   0.077 -2.7648 -1.6723 -0.4736
  708SOL     MW 2832   2.465   1.390   0.163 -0.6785 -0.5099 -0.0223
  709SOL     OW 2833   1.713   1.604   0.223  0.3477 -0.3939  0.2758
  709SOL    HW1 2834   1.719   1.618   0.129  0.5474 -0.2710 -0.3915
  709SOL    HW2 2835   1.619   1.582   0.229  2.2722  2.6798 -2.0395
  709SOL     MW 2836   1.701   1.603   0.211  0.6280  0.0279 -0.1178
  710SOL     OW 2837   2.145   1.187   1.156  0.6530 -0.2440  0.3903
  710SOL    HW1 2838   2.145   1.149   1.065 -2.5612  0.4140  3.0938
  710SOL    HW2 2839   2.154   1.114   1.213 -1.3262  1.1241  1.0755
  710SOL     MW 2840   2.146   1.173   1.151 -0.0322  0.0233  0.8374
  711SOL     OW 2841   2.379   0.182   1.779  0.3387  0.3881 -0.2361
  711SOL    HW1 2842   2.451   0.128   1.814  1.9517 -0.1165 -0.2541
  711SOL    HW2 2843   2.397   0.179   1.685 -0.0495 -2.9962 -2.4848
  711SOL     MW 2844   2.391   0.175   1.771  0.5003 -0.1250 -0.5352
  712SOL     OW 2845   1.902   0.620   0.001 -0.2337 -0.4100  0.8139
  712SOL    HW1 2846   1.821   0.659  -0.038  0.6720  0.1252 -0.5041
  712SOL    HW2 2847   1.928   0.668   0.082  1.9747  0.3093 -2.2742
  712SOL     MW 2848   1.895   0.631   0.006  0.1772 -0.2445  0.2325
  713SOL     OW 2849   2.530   0.702   1.085 -0.1439  0.0397  0.0102
  713SOL    HW1 2850   2.573   0.676   1.169 -2.2770 -1.0689  3.2849
  713SOL    HW2 2851   2.437   0.669   1.092 -1.0423 -1.1870 -0.8858
  713SOL     MW 2852   2.523   0.694   1.097 -0.5439 -0.2684  0.3241
  714SOL     OW 2853   2.231   0.195   2.013 -0.1435  0.1117 -0.2920
  714SOL    HW1 2854   2.282   0.164   2.088  0.8793  1.5914 -2.2852
  714SOL    HW2 2855   2.284   0.197   1.930 -0.2105  2.1538 -0.4433
  714SOL     MW 2856   2.245   0.191   2.012 -0.0174  0.5764 -0.5749
  715SOL     OW 2857   1.803   2.049   1.772 -0.3309  0.1996  0.3755
  715SOL    HW1 2858   1.892   2.071   1.749  0.5769 -2.5900  1.3043
  715SOL    HW2 2859   1.814   1.969   1.832  0.0104  0.3880 -0.7544
  715SOL     MW 2860   1.816   2.041   1.777 -0.1661 -0.1436  0.3489
  716SOL     OW 2861   2.357   0.538   0.660 -0.3118 -0.0897 -0.0339
  716SOL    HW1 2862   2.410   0.467   0.622  0.0142  0.5777  0.3284
  716SOL    HW2 2863   2.310   0.585   0.584 -1.1169 -2.9143  1.7279
  716SOL     MW 2864   2.358   0.535   0.645 -0.3750 -0.3743  0.2464
  717SOL     OW 2865   2.817   1.574   2.871  0.3803 -0.7343 -0.1402
  717SOL    HW1 2866   2.908   1.557   2.887 -1.3014  0.6639  1.6375
  717SOL    HW2 2867   2.784   1.652   2.907 -0.1645 -0.1836 -1.0881
  717SOL     MW 2868   2.825   1.582   2.878  0.0865 -0.4771 -0.0307
  718SOL     OW 2869   2.657   1.359   1.313 -0.0011 -0.2031  0.2602
  718SOL    HW1 2870   2.649   1.381   1.405  0.3383 -1.8211 -0.2379
  718SOL    HW2 2871   2.731   1.304   1.304 -0.7547 -0.0533  0.6256
  718SOL     MW 2872   2.666   1.355   1.324 -0.0558 -0.3968  0.2427
  719SOL     OW 2873   2.202   1.274   0.583 -0.7141 -0.1956 -0.1849
  719SOL    HW1 2874   2.286   1.302   0.557 -0.6180  1.5161  0.8347
  719SOL    HW2 2875   2.165   1.331   0.660 -2.2585  1.7791  1.6376
  719SOL     MW 2876   2.208   1.286   0.590 -0.9052  0.2908  0.1901
  720SOL     OW 2877   2.798   1.208   0.033  0.0160  0.1355  0.0368
  720SOL    HW1 2878   2.828   1.124   0.074  1.7765  0.9085 -0.2024
  720SOL    HW2 2879   2.775   1.278   0.098  0.8366  0.6429 -1.2385
  720SOL     MW 2880   2.799   1.206   0.047  0.3566  0.3044 -0.1630
  721SOL     OW 2881   2.471   0.848   1.353 -0.1627  0.0228 -0.2821
  721SOL    HW1 2882   2.458   0.756   1.363 -1.2926  0.5170  1.3180
  721SOL    HW2 2883   2.524   0.869   1.435 -0.5313 -1.4668 -1.2909
  721SOL     MW 2884   2.476   0.838   1.365 -0.3604 -0.1085 -0.2041
  722SOL     OW 2885   2.586   1.145   0.359  0.7682 -0.7071  0.3462
  722SOL    HW1 2886   2.542   1.226   0.396  1.1824 -2.5956 -0.2396
  722SOL    HW2 2887   2.646   1.122   0.431 -2.5580  1.8436 -1.0146
  722SOL     MW 2888   2.588   1.153   0.374  0.3840 -0.6198  0.0894
  723SOL     OW 2889   2.304   1.340   1.594 -0.1975  0.7616 -0.4025
  723SOL    HW1 2890   2.297   1.331   1.495 -3.0948  0.5568 -0.7381
  723SOL    HW2 2891   2.222   1.383   1.623 -2.3490  2.6007 -0.3543
  723SOL     MW 2892   2.292   1.345   1.585 -0.8637  0.9772 -0.4404
  724SOL     OW 2893   2.485   0.313   0.609 -0.0216 -0.2200  0.2300
  724SOL    HW1 2894   2.448   0.291   0.698  1.8074 -1.4488  1.4190
  724SOL    HW2 2895   2.575   0.283   0.607  0.7197  0.7478 -2.3348
  724SOL     MW 2896   2.492   0.306   0.621  0.3175 -0.2544  0.0485
  725SOL     OW 2897   2.628   0.415   1.243  0.2051 -0.0832  0.1187
  725SOL    HW1 2898   2.689   0.473   1.295  2.3524  2.0737 -0.8248
  725SOL    HW2 2899   2.610   0.336   1.294  1.6613  0.1947  0.1167
  725SOL     MW 2900   2.633   0.412   1.257  0.6805  0.2380 -0.0061
  726SOL     OW 2901   2.522   2.512   0.497 -0.0917 -0.2833 -0.2268
  726SOL    HW1 2902   2.504   2.597   0.455 -2.5110 -0.1020  0.9385
  726SOL    HW2 2903   2.512   2.521   0.591  0.6620 -1.7961  1.1770
  726SOL     MW 2904   2.518   2.525   0.504 -0.3115 -0.4590  0.1121
  727SOL     OW 2905   2.845   0.316   1.747  0.5022 -0.5220  0.1118
  727SOL    HW1 2906   2.789   0.294   1.667  1.5236  2.4071 -0.0052
  727SOL    HW2 2907   2.801   0.287   1.825 -2.3136 -0.9615  0.7740
  727SOL     MW 2908   2.832   0.309   1.747  0.2654 -0.1935  0.1837
  728SOL     OW 2909   2.832   1.184   2.853  0.1319  0.0568 -0.4095
  728SOL    HW1 2910   2.818   1.238   2.778 -2.1302  0.4092  0.0985
  728SOL    HW2 2911   2.821   1.241   2.934  1.4074  0.2447 -0.6953
  728SOL     MW 2912   2.829   1.199   2.854  0.0017  0.1281 -0.3802
  729SOL     OW 2913   2.501   1.490   1.121  0.2900  0.2504 -0.5151
  729SOL    HW1 2914   2.578   1.443   1.150  0.1445  1.4774 -3.9026
  729SOL    HW2 2915   2.497   1.475   1.025  0.3955  2.3872 -0.0791
  729SOL     MW 2916   2.511   1.482   1.113  0.2848  0.6942 -0.9045
  730SOL     OW 2917   2.200   1.166   0.244 -0.4582  0.2395 -0.6020
  730SOL    HW1 2918   2.269   1.115   0.194 -1.5131 -0.3362 -1.2375
  730SOL    HW2 2919   2.246   1.253   0.253  0.6647  0.0752 -1.8501
  730SOL     MW 2920   2.216   1.171   0.239 -0.4492  0.1419 -0.8505
  731SOL     OW 2921   2.753   2.103   2.871 -0.2474 -0.0940 -0.0536
  731SOL    HW1 2922   2.690   2.056   2.811 -0.6659  0.3578  0.6204
  731SOL    HW2 2923   2.842   2.094   2.838  0.7430  2.0569  0.3312
  731SOL     MW 2924   2.757   2.096   2.859 -0.1719  0.2494  0.0861
  732SOL     OW 2925   2.214   0.975   1.362 -0.0733  0.0104  0.4834
  732SOL    HW1 2926   2.203   0.941   1.447  2.1379 -2.1480  0.7499
  732SOL    HW2 2927   2.311   0.964   1.358  0.5456  3.8851 -0.0122
  732SOL     MW 2928   2.225   0.969   1.372  0.3001  0.2368  0.4532
  733SOL     OW 2929   2.400   2.807   3.028 -0.4335  0.3401 -0.2511
  733SOL    HW1 2930   2.319   2.852   3.059  0.9303 -0.4744  0.5312
  733SOL    HW2 2931   2.382   2.711   3.035  0.5635  0.2317  1.3574
  733SOL     MW 2932   2.387   2.800   3.033 -0.1220  0.2183  0.0644
  734SOL     OW 2933   1.570   0.250   2.536  0.5060  0.0675  0.3172
  734SOL    HW1 2934   1.509   0.230   2.608  0.0813 -0.9792 -0.0311
  734SOL    HW2 2935   1.534   0.205   2.459  0.7172 -1.2620  0.4983
  734SOL     MW 2936   1.557   0.242   2.536  0.4778 -0.2460  0.2952
  735SOL     OW 2937   3.002   0.954   2.693  0.1903  0.2178  0.3744
  735SOL    HW1 2938   2.971   0.860   2.681  0.2803 -0.6686 -0.7868
  735SOL    HW2 2939   3.000   0.977   2.785  0.7652  0.0724  0.0048
  735SOL     MW 2940   2.998   0.944   2.703  0.2780  0.0817  0.1725
  736SOL     OW 2941   0.124   0.607   2.610 -0.0895  0.0088  0.1804
  736SOL    HW1 2942   0.127   0.669   2.533  0.0323  0.1117 -0.8326
  736SOL    HW2 2943   0.120   0.521   2.562  1.3868 -0.6286  0.0447
  736SOL     MW 2944   0.124   0.604   2.594  0.1213 -0.0618  0.0289
  737SOL     OW 2945   2.960   0.687   2.608  0.7478 -0.5556 -0.1923
  737SOL    HW1 2946   2.911   0.632   2.539 -1.0960 -0.7499 -1.6212
  737SOL    HW2 2947   3.050   0.658   2.600  0.0928  3.4359 -0.6676
  737SOL     MW 2948   2.966   0.676   2.597  0.4181 -0.0546 -0.4435
  738SOL     OW 2949   0.180   0.541   1.883 -0.5245 -0.2344  0.3445
  738SOL    HW1 2950   0.270   0.584   1.864 -0.3009  0.9262  0.2190
  738SOL    HW2 2951   0.166   0.483   1.806 -0.6263 -0.1755 -1.4593
  738SOL     MW 2952   0.190   0.539   1.870 -0.5084 -0.0735  0.0900
  739SOL     OW 2953   2.465   1.003   2.079  0.1954  0.3570 -0.4504
  739SOL    HW1 2954   2.458   0.917   2.031  1.7289 -3.4198  1.7621
  739SOL    HW2 2955   2.507   1.066   2.020  3.8177 -1.1826 -2.4632
  739SOL     MW 2956   2.469   1.000   2.065  0.8757 -0.3444 -0.4241
  740SOL     OW 2957   0.113   1.860   2.944 -0.8861  0.6567 -0.4668
  740SOL    HW1 2958   0.084   1.769   2.941  0.3184  0.7835 -0.1548
  740SOL    HW2 2959   0.203   1.860   2.986 -1.8965 -0.3358  0.2226
  740SOL     MW 2960   0.121   1.848   2.949 -0.8605  0.5425 -0.3346
  741SOL     OW 2961   2.265   1.188   2.718  0.0099 -0.5227  0.1256
  741SOL    HW1 2962   2.223   1.252   2.664  1.7883  0.0803  0.8629
  741SOL    HW2 2963   2.211   1.195   2.793 -0.9460 -2.2206  1.7873
  741SOL     MW 2964   2.252   1.198   2.721  0.1184 -0.6671  0.4421
  742SOL     OW 2965   1.701   1.245   2.222 -0.3965 -0.4410  0.1556
  742SOL    HW1 2966   1.617   1.198   2.221 -0.3609 -1.0864 -0.5767
  742SOL    HW2 2967   1.709   1.289   2.307 -1.8214  0.2170  1.4279
  742SOL     MW 2968   1.691   1.245   2.233 -0.5798 -0.4393  0.2268
  743SOL     OW 2969   2.530   1.244   2.685  0.5057  0.3447  0.3086
  743SOL    HW1 2970   2.434   1.235   2.697  1.5421 -0.3325 -0.9314
  743SOL    HW2 2971   2.577   1.173   2.727 -2.7631 -0.1517 -1.9510
  743SOL     MW 2972   2.523   1.233   2.692  0.2112  0.1899 -0.1532
  744SOL     OW 2973   2.782   0.948   1.862 -0.0933 -0.1953 -0.1126
  744SOL    HW1 2974   2.711   1.014   1.870 -0.6240 -0.4534  1.8497
  744SOL    HW2 2975   2.764   0.877   1.802 -2.3139  0.5499 -1.2364
  744SOL     MW 2976   2.771   0.947   1.855 -0.4563 -0.1310 -0.0019
  745SOL     OW 2977   1.693   0.501   2.466 -0.1325  0.7566 -0.1460
  745SOL    HW1 2978   1.664   0.500   2.374  1.0051 -2.3048 -0.5793
  745SOL    HW2 2979   1.648   0.421   2.504 -1.0058  1.1710  0.1321
  745SOL     MW 2980   1.684   0.490   2.459 -0.0976  0.4074 -0.1665
  746SOL     OW 2981   1.585   1.434   1.636  0.0526  0.1075  0.0418
  746SOL    HW1 2982   1.677   1.425   1.621 -2.6164 -1.6408  1.0293
  746SOL    HW2 2983   1.580   1.427   1.731  0.6762 -0.6029 -0.9843
  746SOL     MW 2984   1.596   1.431   1.646 -0.2173 -0.2169  0.0367
  747SOL     OW 2985   2.603   1.156   1.825  0.4514  0.6545 -0.2177
  747SOL    HW1 2986   2.515   1.130   1.788 -0.9513 -0.1170  0.1328
  747SOL    HW2 2987   2.589   1.247   1.860 -2.1031  0.0551 -0.1411
  747SOL     MW 2988   2.589   1.164   1.824 -0.0707  0.4736 -0.1613
  748SOL     OW 2989   0.085   0.018   1.884  0.2120  0.4480 -1.0317
  748SOL    HW1 2990   0.174   0.063   1.882 -1.4341  0.7427  0.2579
  748SOL    HW2 2991   0.045   0.052   1.968 -0.3362 -0.6912  1.6783
  748SOL     MW 2992   0.091   0.029   1.894 -0.0775  0.3366 -0.5040
  749SOL     OW 2993   2.466   0.610   2.732 -0.2980 -0.1611 -0.0850
  749SOL    HW1 2994   2.497   0.659   2.656  1.4355  0.8888 -0.7038
  749SOL    HW2 2995   2.484   0.657   2.811  2.6451 -1.9846  1.5377
  749SOL     MW 2996   2.473   0.623   2.732  0.3190 -0.2632  0.0475
  750SOL     OW 2997   2.050   3.086   1.985  0.1628 -0.2136 -0.2339
  750SOL    HW1 2998   2.098   3.165   2.006 -2.0661 -0.3458  0.9996
  750SOL    HW2 2999   2.108   3.011   1.995 -1.5495 -2.5364  1.0786
  750SOL     MW 3000   2.064   3.087   1.989 -0.3572 -0.5375  0.1020
  751SOL     OW 3001   0.118   0.364   2.444  0.0920 -0.9425  0.9573
  751SOL    HW1 3002   0.094   0.280   2.484 -0.1502 -1.7839  1.2735
  751SOL    HW2 3003   0.191   0.343   2.390  1.1398 -2.7808  0.3440
  751SOL     MW 3004   0.124   0.350   2.442  0.1983 -1.2961  0.9181
  752SOL     OW 3005   2.087   0.752   2.729 -0.2203  0.0203 -0.2000
  752SOL    HW1 3006   2.150   0.809   2.679  2.2750  0.2898  0.8996
  752SOL    HW2 3007   2.103   0.774   2.821  1.5780  0.3020  0.1840
  752SOL     MW 3008   2.097   0.763   2.735  0.3462  0.0930 -0.0043
  753SOL     OW 3009   2.899   0.216   2.416 -0.1346 -0.3580 -0.5736
  753SOL    HW1 3010   2.843   0.145   2.384  0.8290  2.0572 -0.5849
  753SOL    HW2 3011   2.855   0.293   2.388 -0.3017 -1.9159 -1.2182
  753SOL     MW 3012   2.885   0.217   2.408 -0.0295 -0.2449 -0.6601
  754SOL     OW 3013   2.228   2.982   2.578 -0.3598 -0.4522 -0.4359
  754SOL    HW1 3014   2.247   2.956   2.485  0.5552  0.5743 -1.2650
  754SOL    HW2 3015   2.302   2.956   2.643 -1.9003  0.7478 -1.4457
  754SOL     MW 3016   2.240   2.975   2.574 -0.4423 -0.1584 -0.6786
  755SOL     OW 3017   2.698   1.521   2.462  0.1264 -0.2079 -0.3262
  755SOL    HW1 3018   2.726   1.445   2.507 -1.1327  3.0103 -0.2322
  755SOL    HW2 3019   2.748   1.588   2.517 -1.1979 -1.1134  0.2040
  755SOL     MW 3020   2.708   1.520   2.475 -0.2145  0.0972 -0.2438
  756SOL     OW 3021   2.161   1.219   3.012  0.2205 -0.0734 -0.2455
  756SOL    HW1 3022   2.253   1.258   2.997 -0.2798 -0.5134 -0.3665
  756SOL    HW2 3023   2.176   1.139   3.063 -0.0879  0.1371  4.1798
  756SOL     MW 3024   2.175   1.214   3.017  0.1138 -0.1037  0.3224
  757SOL     OW 3025   2.122   0.888   1.607  0.9604  0.1638  0.1187
  757SOL    HW1 3026   2.152   0.798   1.601  0.1476  0.2423  0.5100
  757SOL    HW2 3027   2.034   0.882   1.558  0.8452  0.3202 -2.0288
  757SOL     MW 3028   2.115   0.875   1.600  0.8379  0.1948 -0.1130
  758SOL     OW 3029   2.232   1.842   2.616 -0.1953  0.3656  0.6966
  758SOL    HW1 3030   2.200   1.854   2.522 -0.6139 -0.0913 -3.5933
  758SOL    HW2 3031   2.320   1.813   2.594 -1.1524  1.7154 -0.5564
  758SOL     MW 3032   2.240   1.840   2.601 -0.3768  0.4834 -0.0347
  759SOL     OW 3033   1.571   1.339   2.695 -0.2002 -0.7772 -0.0955
  759SOL    HW1 3034   1.544   1.425   2.658  0.5572  1.5930 -0.2512
  759SOL    HW2 3035   1.600   1.359   2.785  1.0142 -1.1768 -0.4106
  759SOL     MW 3036   1.571   1.353   2.702  0.0600 -0.5172 -0.1576
  760SOL     OW 3037   2.555   1.985   2.710 -0.6657  0.0009 -0.2706
  760SOL    HW1 3038   2.556   1.893   2.682  2.6847  0.2030  2.0034
  760SOL    HW2 3039   2.541   2.050   2.633 -0.4298  1.9457  2.0174
  760SOL     MW 3040   2.553   1.982   2.696 -0.1925  0.2842  0.3313
  761SOL     OW 3041   2.133   0.339   2.451 -0.3098  0.4248  0.6648
  761SOL    HW1 3042   2.124   0.248   2.478 -1.4032 -1.6000  1.0524
  761SOL    HW2 3043   2.163   0.374   2.535 -0.0758 -1.9506 -1.0367
  761SOL     MW 3044   2.136   0.332   2.466 -0.4232 -0.1558  0.4914
  762SOL     OW 3045   3.095   0.166   2.110 -0.2330 -0.2005 -0.1615
  762SOL    HW1 3046   3.106   0.118   2.194  1.4293 -0.3307  2.4026
  762SOL    HW2 3047   3.068   0.248   2.144  3.6909 -2.7435  2.2129
  762SOL     MW 3048   3.093   0.171   2.125  0.5040 -0.5532  0.4901
  763SOL     OW 3049   2.345   1.019   2.342 -0.2082  0.4528  0.5624
  763SOL    HW1 3050   2.394   0.992   2.263 -0.6973 -0.6837  0.4964
  763SOL    HW2 3051   2.402   1.099   2.372 -0.2184  3.3218 -0.6107
  763SOL     MW 3052   2.359   1.026   2.336 -0.2741  0.6814  0.3989
  764SOL     OW 3053   0.526   0.233   2.791  0.2882  0.1855  0.2851
  764SOL    HW1 3054   0.436   0.201   2.774 -2.1228 -0.6620 -2.1730
  764SOL    HW2 3055   0.517   0.323   2.816  1.0613  0.5258  2.6851
  764SOL     MW 3056   0.513   0.240   2.792  0.0721  0.1186  0.2774
  765SOL     OW 3057   2.751   3.092   2.358  0.0706  0.2474 -0.0898
  765SOL    HW1 3058   2.671   3.095   2.298  1.2844 -2.0163 -0.6034
  765SOL    HW2 3059   2.809   3.022   2.324 -0.6743 -0.0320  1.9392
  765SOL     MW 3060   2.748   3.083   2.346  0.1325 -0.0881  0.1101
  766SOL     OW 3061   1.861   2.970   2.165 -0.3683  0.0649  0.0742
  766SOL    HW1 3062   1.893   3.016   2.090  1.0944  0.9507 -0.5554
  766SOL    HW2 3063   1.797   2.900   2.137 -1.2998  1.5381  0.0470
  766SOL     MW 3064   1.857   2.967   2.152 -0.2982  0.3761 -0.0125
  767SOL     OW 3065   2.684   0.562   2.062  0.3193  0.4788  1.0970
  767SOL    HW1 3066   2.730   0.642   2.090 -0.0891 -0.0797  0.4012
  767SOL    HW2 3067   2.589   0.578   2.032  0.1494 -1.6378 -0.4757
  767SOL     MW 3068   2.677   0.574   2.062  0.2430  0.1259  0.7977
  768SOL     OW 3069   3.092   1.603   2.945 -0.0215 -0.2394 -1.2091
  768SOL    HW1 3070   3.101   1.590   3.041  0.5233  0.9906  1.0318
  768SOL    HW2 3071   3.135   1.537   2.905 -0.1797 -3.1790 -0.0203
  768SOL     MW 3072   3.099   1.592   2.952  0.0295 -0.4650 -0.7566
  769SOL     OW 3073   2.443   0.705   2.328  0.0411 -0.3550  0.3038
  769SOL    HW1 3074   2.354   0.681   2.348 -0.0961  0.4642 -0.2283
  769SOL    HW2 3075   2.448   0.754   2.247 -0.8619  4.8723  1.6966
  769SOL     MW 3076   2.432   0.708   2.320 -0.0961  0.4428  0.4174
  770SOL     OW 3077   0.047   1.586   2.610 -0.7125  0.3385 -0.0667
  770SOL    HW1 3078  -0.051   1.584   2.615  2.6556 -2.6753 -0.3745
  770SOL    HW2 3079   0.082   1.509   2.663  0.2408 -0.2437  2.0874
  770SOL     MW 3080   0.039   1.576   2.618 -0.1423 -0.1360  0.1769
  771SOL     OW 3081   3.081   0.650   2.036  0.2841  0.0273  0.3133
  771SOL    HW1 3082   3.014   0.603   1.988 -0.3249  0.9522 -0.9508
  771SOL    HW2 3083   3.159   0.622   1.974 -1.8556 -2.3424 -1.0234
  771SOL     MW 3084   3.082   0.640   2.022 -0.0786 -0.1633 -0.0299
  772SOL     OW 3085   0.041   3.084   2.306  0.7142  0.0023  0.0466
  772SOL    HW1 3086  -0.027   3.022   2.304  0.0581 -0.0233  1.4745
  772SOL    HW2 3087   0.111   3.036   2.258  1.9799  2.0955 -3.4239
  772SOL     MW 3088   0.041   3.070   2.299  0.7946  0.2751 -0.2229
  773SOL     OW 3089   2.393   2.861   2.756 -0.2093  0.2843  0.3894
  773SOL    HW1 3090   2.414   2.776   2.710 -0.4361 -1.1115  0.1969
  773SOL    HW2 3091   2.392   2.831   2.845 -1.8372 -1.0137 -1.6110
  773SOL     MW 3092   2.396   2.846   2.761 -0.4540 -0.0711  0.1000
  774SOL     OW 3093   2.316   1.098   1.735  0.2364 -0.4640  0.1712
  774SOL    HW1 3094   2.309   1.178   1.679 -1.6349  1.0516  0.5064
  774SOL    HW2 3095   2.277   1.034   1.684  2.6741 -1.6021  0.2381
  774SOL     MW 3096   2.310   1.100   1.721  0.3112 -0.4142  0.2242
  775SOL     OW 3097   2.292   2.900   2.327  0.4061  0.5514  0.8143
  775SOL    HW1 3098   2.309   2.973   2.264  0.2027  0.4550 -0.3702
  775SOL    HW2 3099   2.355   2.836   2.299  0.4589  0.4843  1.2841
  775SOL     MW 3100   2.303   2.901   2.315  0.3863  0.5298  0.7200
  776SOL     OW 3101   0.069   1.493   0.096 -0.0281 -0.2622  0.1143
  776SOL    HW1 3102   0.151   1.442   0.101 -1.9017  0.8699  1.0108
  776SOL    HW2 3103   0.008   1.418   0.078 -2.6843 -1.6088 -0.1572
  776SOL     MW 3104   0.072   1.476   0.094 -0.6257 -0.2905  0.1967
  777SOL     OW 3105   2.952   1.128   1.742 -0.0385 -1.0267  0.4301
  777SOL    HW1 3106   2.881   1.156   1.687  1.0670 -2.6314  0.5977
  777SOL    HW2 3107   2.917   1.053   1.786  0.1152 -0.6820  0.5001
  777SOL     MW 3108   2.938   1.122   1.740  0.1277 -1.1930  0.4615
  778SOL     OW 3109   2.897   0.493   2.818 -0.6254  0.2562 -0.5428
  778SOL    HW1 3110   2.833   0.507   2.893  1.7448  1.2794 -1.0696
  778SOL    HW2 3111   2.889   0.568   2.760  3.8113  0.7709  1.5492
  778SOL     MW 3112   2.887   0.505   2.820  0.2727  0.4591 -0.3363
  779SOL     OW 3113   2.164   0.586   2.347  0.3589 -0.2759 -0.2190
  779SOL    HW1 3114   2.094   0.647   2.388 -0.3687  0.2051  0.0970
  779SOL    HW2 3115   2.151   0.511   2.402 -0.4958  3.0454 -0.5323
  779SOL     MW 3116   2.153   0.584   2.360  0.1502  0.2257 -0.2186
  780SOL     OW 3117   0.259   0.136   2.799  0.3782  0.2436 -0.1056
  780SOL    HW1 3118   0.187   0.161   2.863 -1.2259 -1.4651 -2.1762
  780SOL    HW2 3119   0.209   0.113   2.720 -0.2053 -2.2528  1.0108
  780SOL     MW 3120   0.243   0.136   2.797  0.0895 -0.3112 -0.2315
  781SOL     OW 3121   3.064   1.288   2.518  0.1317 -0.0146 -0.0309
  781SOL    HW1 3122   3.034   1.346   2.447 -0.2885  0.8893  0.1314
  781SOL    HW2 3123   3.077   1.203   2.473  0.8489 -0.4125 -0.9571
  781SOL     MW 3124   3.061   1.285   2.503  0.1709  0.0521 -0.1317
  782SOL     OW 3125   0.517   1.619   3.000  0.0657  0.3125 -0.0687
  782SOL    HW1 3126   0.475   1.704   3.014  0.5557  1.9194  1.8652
  782SOL    HW2 3127   0.548   1.584   3.091  0.1103 -0.8552  3.8700
  782SOL     MW 3128   0.516   1.625   3.014  0.1363  0.3705  0.7061
  783SOL     OW 3129   2.801   0.509   2.465 -0.3538  0.6002  0.1458
  783SOL    HW1 3130   2.738   0.498   2.387  2.3142 -0.7064 -0.8648
  783SOL    HW2 3131   2.745   0.476   2.538  2.4099 -0.5330  0.2384
  783SOL     MW 3132   2.785   0.503   2.465  0.3629  0.2783  0.0246
  784SOL     OW 3133   0.246   0.920   2.896  0.2162  0.3344 -0.1698
  784SOL    HW1 3134   0.224   0.991   2.967  1.4271 -1.7868 -1.0810
  784SOL    HW2 3135   0.215   0.959   2.811  0.9725  0.9722 -1.1016
  784SOL     MW 3136   0.239   0.935   2.894  0.4758  0.1386 -0.4130
  785SOL     OW 3137   0.428   0.502   2.144 -0.5068 -0.1922 -0.2108
  785SOL    HW1 3138   0.435   0.540   2.049  0.2490  0.2000 -0.8905
  785SOL    HW2 3139   0.351   0.444   2.134  0.0003 -1.9016 -0.4521
  785SOL     MW 3140   0.419   0.499   2.130 -0.3402 -0.3660 -0.3324
  786SOL     OW 3141   1.988   0.460   2.847 -0.7045 -0.7394 -0.3442
  786SOL    HW1 3142   1.978   0.470   2.938 -1.8690 -0.8070  1.7679
  786SOL    HW2 3143   2.071   0.441   2.814 -0.9681  2.4751  0.4156
  786SOL     MW 3144   1.997   0.459   2.854 -0.8929 -0.3242  0.0347
  787SOL     OW 3145   2.426   0.126   2.881 -0.1442  0.5505 -0.0273
  787SOL    HW1 3146   2.493   0.054   2.856 -1.6774 -0.2192  0.6651
  787SOL    HW2 3147   2.485   0.192   2.927 -1.2065 -2.0360 -0.5462
  787SOL     MW 3148   2.442   0.125   2.884 -0.4867  0.1077 -0.0044
  788SOL     OW 3149   2.943   2.897   2.288  0.0278  0.6888 -0.7214
  788SOL    HW1 3150   2.964   2.835   2.212 -1.2546  1.0003 -1.7453
  788SOL    HW2 3151   2.988   2.864   2.363 -0.1461 -0.9312 -1.3522
  788SOL     MW 3152   2.952   2.884   2.288 -0.1644  0.5162 -0.9397
  789SOL     OW 3153   0.069   0.217   2.978 -0.3569  0.0784  0.3444
  789SOL    HW1 3154  -0.007   0.188   3.034  0.2598  2.4466  1.2239
  789SOL    HW2 3155   0.061   0.313   2.973  0.3316  1.8367  1.1608
  789SOL     MW 3156   0.058   0.226   2.984 -0.1847  0.6228  0.5682
  790SOL     OW 3157   0.027   1.010   2.434  0.2175  0.2691  0.2200
  790SOL    HW1 3158  -0.009   1.007   2.520 -0.8563  2.2400 -1.5292
  790SOL    HW2 3159  -0.042   1.032   2.371  1.3582  1.6801  0.1578
  790SOL     MW 3160   0.013   1.013   2.437  0.2263  0.7153 -0.0190
  791SOL     OW 3161   2.690   0.388   2.674 -0.0860  0.0062 -0.3172
  791SOL    HW1 3162   2.610   0.442   2.685  1.4879 -1.8640 -0.4199
  791SOL    HW2 3163   2.751   0.419   2.740 -1.3107 -0.7496 -1.7210
  791SOL     MW 3164   2.687   0.399   2.684 -0.0399 -0.3403 -0.5160
  792SOL     OW 3165   2.423   0.238   2.369 -0.0666 -0.1834  0.7017
  792SOL    HW1 3166   2.339   0.265   2.416 -1.5316  1.1597  1.9688
  792SOL    HW2 3167   2.471   0.187   2.445 -0.0312  0.4933  1.1038
  792SOL     MW 3168   2.419   0.235   2.386 -0.2552  0.0831  0.9219
  793SOL     OW 3169   1.759   1.009   1.907  0.0375 -0.0479 -0.0076
  793SOL    HW1 3170   1.756   1.037   1.810  0.7892  2.9156 -2.1622
  793SOL    HW2 3171   1.841   0.956   1.913 -0.5693 -0.4846 -2.2228
  793SOL     MW 3172   1.769   1.005   1.895  0.0566  0.2855 -0.5841
  794SOL     OW 3173   1.416   2.260   0.101  0.2969  0.9661  0.3190
  794SOL    HW1 3174   1.418   2.339   0.045 -1.9406  0.4359  1.3662
  794SOL    HW2 3175   1.447   2.284   0.189  0.9329 -1.2229  2.9991
  794SOL     MW 3176   1.421   2.274   0.105  0.0856  0.6074  0.8108
  795SOL     OW 3177   2.236   0.936   2.593  0.4465 -0.1859  0.6496
  795SOL    HW1 3178   2.241   1.022   2.638 -0.1715 -0.0074  2.1806
  795SOL    HW2 3179   2.262   0.957   2.505 -0.3306  2.1633  0.0220
  795SOL     MW 3180   2.240   0.950   2.587  0.2625  0.1476  0.7688
  796SOL     OW 3181   0.345   0.685   2.729  0.1725 -0.3226  0.1918
  796SOL    HW1 3182   0.318   0.757   2.788 -1.1108 -0.5032 -2.1473
  796SOL    HW2 3183   0.264   0.653   2.682  2.7828  0.7898  0.9718
  796SOL     MW 3184   0.331   0.691   2.730  0.3475 -0.1997 -0.0139
  797SOL     OW 3185   2.582   0.109   2.561 -0.4983 -0.0416 -0.4643
  797SOL    HW1 3186   2.636   0.184   2.585  2.0243  0.7901  4.5080
  797SOL    HW2 3187   2.643   0.057   2.506 -0.0201  0.8980  0.2066
  797SOL     MW 3188   2.597   0.112   2.557 -0.1023  0.1921  0.2803
  798SOL     OW 3189   2.330   0.040   2.204  0.0376 -0.5199  0.2194
  798SOL    HW1 3190   2.370   0.113   2.263  1.8773 -2.8013 -0.9252
  798SOL    HW2 3191   2.407  -0.010   2.162  1.6475  0.5773 -1.8693
  798SOL     MW 3192   2.345   0.043   2.206  0.4927 -0.6762 -0.2072
  799SOL     OW 3193   2.474   2.911   0.190  0.4249 -0.5505  0.0968
  799SOL    HW1 3194   2.485   2.854   0.115 -1.2885  0.2803 -2.5213
  799SOL    HW2 3195   2.396   2.960   0.170  2.0396 -0.2027  0.6117
  799SOL     MW 3196   2.465   2.910   0.178  0.4119 -0.3950 -0.1807
  800SOL     OW 3197   1.872   3.064   1.773  0.4178  0.0983  0.1538
  800SOL    HW1 3198   1.812   2.994   1.799 -1.6973  0.0023 -1.8219
  800SOL    HW2 3199   1.944   3.069   1.837  1.4908  0.2097  0.5700
  800SOL     MW 3200   1.873   3.056   1.785  0.2803  0.1003 -0.0519
  801SOL     OW 3201   2.809   1.323   2.621 -0.4157 -0.0996 -0.0512
  801SOL    HW1 3202   2.755   1.246   2.585  1.3685 -1.0464  0.4899
  801SOL    HW2 3203   2.901   1.311   2.593 -0.6401 -2.0200 -1.6623
  801SOL     MW 3204   2.814   1.311   2.613 -0.2099 -0.4779 -0.1924
  802SOL     OW 3205   2.567   1.492   2.820 -0.5787 -0.7127 -0.3759
  802SOL    HW1 3206   2.572   1.406   2.773  1.8802  0.0886 -4.0375
  802SOL    HW2 3207   2.654   1.522   2.853  2.5937  1.7721  1.9381
  802SOL     MW 3208   2.579   1.485   2.818  0.1643 -0.2791 -0.5537
  803SOL     OW 3209   2.332   1.274   1.936  0.0236  0.6353  0.4124
  803SOL    HW1 3210   2.315   1.241   2.022 -0.3687  0.1605 -0.6436
  803SOL    HW2 3211   2.316   1.200   1.881 -0.1705 -0.7721 -0.1792
  803SOL     MW 3212   2.328   1.260   1.940 -0.0538  0.3870  0.1950
  804SOL     OW 3213   2.311   0.065   0.028  0.4741  0.2933  0.1190
  804SOL    HW1 3214   2.234   0.120   0.020  1.8369 -1.4804  1.3877
  804SOL    HW2 3215   2.354   0.085  -0.056 -0.7379  0.4023  0.0720
  804SOL     MW 3216   2.306   0.075   0.016  0.4940  0.0737  0.2802
  805SOL     OW 3217   2.725   1.041   2.556  0.4277 -0.0895 -0.5829
  805SOL    HW1 3218   2.660   0.967   2.553 -2.3445  0.7567  0.0119
  805SOL    HW2 3219   2.808   1.004   2.584  1.3847 -1.1032  0.9592
  805SOL     MW 3220   2.728   1.027   2.559  0.1882 -0.1116 -0.3010
  806SOL     OW 3221   2.637   0.410   2.272  0.3193 -0.0302  0.3025
  806SOL    HW1 3222   2.552   0.360   2.285 -1.3930  0.8819 -1.8470
  806SOL    HW2 3223   2.632   0.470   2.193 -0.9061 -0.3180  1.0220
  806SOL     MW 3224   2.625   0.412   2.263 -0.0683  0.0522  0.1138
  807SOL     OW 3225   3.086   1.125   2.054 -0.4939  0.0878 -0.4758
  807SOL    HW1 3226   3.124   1.038   2.038 -0.8722 -0.4509 -1.4829
  807SOL    HW2 3227   3.022   1.113   2.127 -2.3849  2.0824 -1.1454
  807SOL     MW 3228   3.083   1.112   2.061 -0.7933  0.2799 -0.6970
  808SOL     OW 3229   2.594   3.050   2.768 -0.4846  0.6138  0.1189
  808SOL    HW1 3230   2.522   2.989   2.749  0.0550 -1.1925  0.3823
  808SOL    HW2 3231   2.592   3.121   2.698 -0.8096 -2.6018  0.8246
  808SOL     MW 3232   2.584   3.051   2.757 -0.4563 -0.0488  0.2468
  809SOL     OW 3233   2.486   1.235   2.415  0.0891 -0.0490  0.0057
  809SOL    HW1 3234   2.492   1.250   2.517  3.2209 -1.0047  1.6820
  809SOL    HW2 3235   2.580   1.219   2.398  0.5535 -0.5530 -2.2219
  809SOL     MW 3236   2.499   1.235   2.426  0.5636 -0.2416 -0.0670
  810SOL     OW 3237   2.187   1.194   2.189  0.2368  0.5686 -0.0916
  810SOL    HW1 3238   2.231   1.131   2.256  0.8060 -1.9460 -0.0391
  810SOL    HW2 3239   2.100   1.154   2.175  0.8672 -1.5008  1.4694
  810SOL     MW 3240   2.182   1.180   2.196  0.3951 -0.0362  0.1213
  811SOL     OW 3241   1.519   0.093   2.267 -0.8852  0.0185 -0.6969
  811SOL    HW1 3242   1.609   0.061   2.306 -2.5083 -0.5872 -2.9178
  811SOL    HW2 3243   1.514   0.063   2.167  1.2947 -0.0700  0.4142
  811SOL     MW 3244   1.530   0.085   2.259 -0.8117 -0.0731 -0.8433
  812SOL     OW 3245   1.390   2.783   2.066 -0.0540 -0.2613  0.1513
  812SOL    HW1 3246   1.478   2.774   2.026  2.4781 -3.2673  0.9103
  812SOL    HW2 3247   1.402   2.777   2.161 -2.5677 -2.3275  0.6516
  812SOL     MW 3248   1.403   2.781   2.073 -0.0516 -0.9305  0.3175
  813SOL     OW 3249   1.830   0.807   2.189 -0.3970  0.3358 -0.1306
  813SOL    HW1 3250   1.779   0.730   2.171  0.7539 -1.4755  1.9797
  813SOL    HW2 3251   1.871   0.800   2.279 -2.2079  1.5278 -0.8540
  813SOL     MW 3252   1.829   0.796   2.198 -0.4841  0.2541  0.0524
  814SOL     OW 3253   2.741   1.244   1.600  0.0231 -0.8584  0.2836
  814SOL    HW1 3254   2.686   1.212   1.677  2.9062 -0.4054  0.3487
  814SOL    HW2 3255   2.718   1.181   1.529 -1.7343 -0.7514 -0.7984
  814SOL     MW 3256   2.731   1.231   1.601  0.1717 -0.7845  0.1494
  815SOL     OW 3257   2.458   1.662   2.362 -0.7456 -1.4087 -0.0554
  815SOL    HW1 3258   2.385   1.610   2.331  2.2360  0.0481  0.0142
  815SOL    HW2 3259   2.542   1.612   2.355 -0.5822  1.7877 -0.2870
  815SOL     MW 3260   2.459   1.648   2.357 -0.3306 -0.7948 -0.0767
  816SOL     OW 3261   0.651   0.620   2.763 -0.3690  0.2537  0.0487
  816SOL    HW1 3262   0.717   0.551   2.785 -2.2350  0.3339 -2.9022
  816SOL    HW2 3263   0.595   0.561   2.709 -1.1623  0.5750 -1.1530
  816SOL     MW 3264   0.652   0.603   2.759 -0.7198  0.3067 -0.4992
  817SOL     OW 3265   3.039   1.135   1.402  0.2073 -0.0668 -0.2862
  817SOL    HW1 3266   3.106   1.142   1.473 -1.4223  1.7117 -0.3571
  817SOL    HW2 3267   3.026   1.223   1.359  4.2281 -0.5211  0.2330
  817SOL     MW 3268   3.046   1.148   1.406  0.5228  0.1079 -0.2271
  818SOL     OW 3269   1.935   0.991   2.721  0.4137  0.0034 -0.6698
  818SOL    HW1 3270   1.964   1.009   2.631  1.3582 -0.0861 -2.5912
  818SOL    HW2 3271   1.998   0.923   2.758 -1.3799 -2.0276 -0.2118
  818SOL     MW 3272   1.947   0.984   2.714  0.3016 -0.2764 -0.8629
  819SOL     OW 3273   1.829   0.232   2.358  0.0797  0.0075 -0.9013
  819SOL    HW1 3274   1.773   0.303   2.394 -1.0836  0.5983  2.5350
  819SOL    HW2 3275   1.882   0.221   2.439  0.6294  1.5776  0.9808
  819SOL     MW 3276   1.829   0.240   2.373 -0.0013  0.2926 -0.1996
  820SOL     OW 3277   2.491   1.712   2.643 -0.2809 -0.1741 -0.1370
  820SOL    HW1 3278   2.522   1.636   2.695  0.2106  0.1870  1.7939
  820SOL    HW2 3279   2.500   1.700   2.548 -1.0695  0.6871 -3.8288
  820SOL     MW 3280   2.497   1.700   2.638 -0.3201 -0.0129 -0.3693
  821SOL     OW 3281   2.582   1.352   2.006 -0.1906 -0.3449  0.4825
  821SOL    HW1 3282   2.608   1.429   1.958 -1.2566 -1.3170 -0.4756
  821SOL    HW2 3283   2.488   1.345   1.989 -0.4867 -2.5972  0.9290
  821SOL     MW 3284   2.573   1.361   1.997 -0.3703 -0.7703  0.4150
  822SOL     OW 3285   2.859   2.680   1.401  0.0373  0.5439  0.0734
  822SOL    HW1 3286   2.815   2.726   1.470  1.5063  0.8129 -2.7258
  822SOL    HW2 3287   2.867   2.752   1.335  0.8061 -1.4595 -1.6497
  822SOL     MW 3288   2.854   2.696   1.401  0.3325  0.3151 -0.5233
  823SOL     OW 3289   2.274   0.463   1.757 -0.0411  0.2114 -0.3052
  823SOL    HW1 3290   2.359   0.444   1.716  0.8576  2.3415  0.5506
  823SOL    HW2 3291   2.212   0.394   1.745 -0.8170  1.1635 -0.3289
  823SOL     MW 3292   2.277   0.452   1.750 -0.0249  0.6181 -0.1954
  824SOL     OW 3293   2.116   1.349   2.522 -0.1120  0.3839  0.4473
  824SOL    HW1 3294   2.199   1.378   2.461 -0.0571 -1.7270 -1.3276
  824SOL    HW2 3295   2.095   1.430   2.573  0.4952  1.1111  2.2809
  824SOL     MW 3296   2.124   1.364   2.521 -0.0246  0.2013  0.4550
  825SOL     OW 3297   2.181   2.447   0.426  0.4249 -1.0020 -0.6019
  825SOL    HW1 3298   2.256   2.423   0.364 -0.8993 -1.4987  0.2078
  825SOL    HW2 3299   2.220   2.409   0.507 -0.5879  2.8839  0.9130
  825SOL     MW 3300   2.196   2.439   0.428  0.1165 -0.5548 -0.2952
  826SOL     OW 3301   1.752   2.344   0.402 -0.3050 -0.2772 -0.4526
  826SOL    HW1 3302   1.747   2.298   0.488 -0.9197 -2.0015  1.2990
  826SOL    HW2 3303   1.768   2.436   0.424 -1.9562 -1.7043 -1.6987
  826SOL     MW 3304   1.754   2.350   0.416 -0.6040 -0.6930 -0.3859
  827SOL     OW 3305   1.950   2.279   0.907 -0.6247  0.3166  0.2798
  827SOL    HW1 3306   1.884   2.286   0.837  2.1730  3.6578 -1.9422
  827SOL    HW2 3307   1.921   2.221   0.974  1.1873  0.7401  0.7720
  827SOL     MW 3308   1.938   2.273   0.906 -0.0165  0.8133  0.0516
  828SOL     OW 3309   0.084   2.625   0.575 -0.0905 -0.1421 -0.2008
  828SOL    HW1 3310   0.175   2.631   0.594 -0.8810 -2.2730  1.8537
  828SOL    HW2 3311   0.082   2.652   0.481 -0.7292  0.7696 -1.9373
  828SOL     MW 3312   0.096   2.630   0.565 -0.2791 -0.3030 -0.1589
  829SOL     OW 3313   3.011   2.902   1.187 -0.3773 -0.2244  0.1338
  829SOL    HW1 3314   2.942   2.883   1.131  1.3492  0.5346  1.2748
  829SOL    HW2 3315   3.065   2.828   1.188  0.3410  2.4252 -1.7274
  829SOL     MW 3316   3.009   2.890   1.180 -0.0547  0.2254  0.0387
  830SOL     OW 3317   2.548   2.782   2.004 -0.3420  0.0389 -0.4473
  830SOL    HW1 3318   2.453   2.799   1.993  4.1338 -2.1801 -0.2679
  830SOL    HW2 3319   2.588   2.780   1.914  1.8638 -1.1588  0.3687
  830SOL     MW 3320   2.541   2.784   1.990  0.5396 -0.4119 -0.3160
  831SOL     OW 3321   2.487   2.456   1.179 -0.1263  0.1038  0.1039
  831SOL    HW1 3322   2.464   2.392   1.241 -1.2783 -1.3205 -0.8911
  831SOL    HW2 3323   2.576   2.422   1.151 -0.1015  1.4561  0.0970
  831SOL     MW 3324   2.496   2.443   1.184 -0.2750  0.0943 -0.0283
  832SOL     OW 3325   2.422   2.127   1.836  0.0474  0.4779  0.8020
  832SOL    HW1 3326   2.453   2.212   1.866 -1.9636 -0.2548 -1.1818
  832SOL    HW2 3327   2.495   2.065   1.855 -0.7402 -2.8528  1.7207
  832SOL     MW 3328   2.435   2.130   1.842 -0.3219 -0.0582  0.6615
  833SOL     OW 3329   1.683   2.608   0.903 -0.4581 -0.0819 -0.0932
  833SOL    HW1 3330   1.667   2.527   0.961 -0.8602  2.8179 -2.2258
  833SOL    HW2 3331   1.604   2.664   0.911 -1.5225 -1.7287  1.7146
  833SOL     MW 3332   1.671   2.605   0.911 -0.6516  0.0834 -0.1361
  834SOL     OW 3333   2.257   2.359   0.668 -0.3804 -0.4344  0.6058
  834SOL    HW1 3334   2.221   2.274   0.646  2.3170  0.4905  4.0693
  834SOL    HW2 3335   2.349   2.360   0.656 -0.1330 -0.3979  1.6086
  834SOL     MW 3336   2.264   2.347   0.663  0.0081 -0.3076  1.1951
  835SOL     OW 3337   1.766   2.550   0.633 -1.0524 -0.2112 -0.1801
  835SOL    HW1 3338   1.736   2.572   0.723 -0.8541 -3.4735 -0.8652
  835SOL    HW2 3339   1.839   2.492   0.655  2.3029  0.0438 -3.7075
  835SOL     MW 3340   1.772   2.545   0.648 -0.5836 -0.6080 -0.7359
  836SOL     OW 3341   2.040   2.136   1.665 -0.1051 -0.5886  0.2425
  836SOL    HW1 3342   2.121   2.092   1.642  0.3116  2.6464  0.6626
  836SOL    HW2 3343   2.069   2.226   1.685 -0.3849  0.5346 -0.9482
  836SOL     MW 3344   2.054   2.142   1.664 -0.0871 -0.0136  0.1408
  837SOL     OW 3345   2.118   0.193   0.656 -0.1478  0.3343 -0.8249
  837SOL    HW1 3346   2.026   0.181   0.632 -1.8249  0.1362  2.5178
  837SOL    HW2 3347   2.176   0.134   0.598  3.0726  2.0526  0.5152
  837SOL     MW 3348   2.114   0.184   0.645  0.0558  0.5348 -0.2070
  838SOL     OW 3349   2.865   2.084   0.922 -0.1681 -0.1735 -0.6432
  838SOL    HW1 3350   2.788   2.027   0.936 -0.3124 -2.1822 -0.1688
  838SOL    HW2 3351   2.908   2.092   1.007  0.1016 -0.6167  0.3607
  838SOL     MW 3352   2.861   2.078   0.935 -0.1516 -0.4970 -0.4482
  839SOL     OW 3353   1.572   2.355   1.018  0.1034  0.4938  0.4016
  839SOL    HW1 3354   1.521   2.437   1.059 -0.0901 -1.5540  2.5219
  839SOL    HW2 3355   1.601   2.299   1.096  0.8188 -4.1676  2.3393
  839SOL     MW 3356   1.569   2.358   1.034  0.1723 -0.3914  0.9370
  840SOL     OW 3357   2.382   2.083   2.406  0.7589 -0.0669 -0.4267
  840SOL    HW1 3358   2.319   2.150   2.367 -1.8701  1.5651  0.9610
  840SOL    HW2 3359   2.435   2.144   2.460 -0.6481  1.5130 -0.1705
  840SOL     MW 3360   2.380   2.100   2.408  0.2264  0.3569 -0.2098
  841SOL     OW 3361   2.325   2.384   0.071  0.0013 -0.8315  0.4782
  841SOL    HW1 3362   2.334   2.470   0.025  0.2918 -0.4585 -1.1608
  841SOL    HW2 3363   2.254   2.341   0.023  0.1214  0.5257 -1.7826
  841SOL     MW 3364   2.317   2.390   0.059  0.0554 -0.6032 -0.0363
  842SOL     OW 3365   2.677   1.949   1.409 -0.4389 -0.5753  0.3340
  842SOL    HW1 3366   2.626   1.875   1.380 -1.9440 -0.4496 -0.4242
  842SOL    HW2 3367   2.660   2.015   1.336  0.1231  1.0557 -1.0288
  842SOL     MW 3368   2.668   1.948   1.395 -0.5633 -0.3435  0.0541
  843SOL     OW 3369   2.631   2.772   1.746 -0.1898  0.0693 -0.0148
  843SOL    HW1 3370   2.717   2.740   1.771 -0.2280  3.5983 -1.3317
  843SOL    HW2 3371   2.583   2.690   1.747  0.0685 -0.5672  0.0447
  843SOL     MW 3372   2.636   2.757   1.749 -0.1608  0.4509 -0.1807
  844SOL     OW 3373   2.737   2.339   1.139 -0.2849  0.0080 -0.5936
  844SOL    HW1 3374   2.787   2.379   1.073 -0.4976 -1.3822  1.6345
  844SOL    HW2 3375   2.780   2.367   1.217 -0.7181  0.5399 -2.2574
  844SOL     MW 3376   2.749   2.348   1.140 -0.3701 -0.1052 -0.5191
  845SOL     OW 3377   2.844   2.564   0.276  0.3386 -0.0901 -0.1097
  845SOL    HW1 3378   2.841   2.479   0.320 -0.3045 -2.6517 -0.0072
  845SOL    HW2 3379   2.850   2.615   0.356 -0.1281  0.7974 -0.7808
  845SOL     MW 3380   2.844   2.559   0.292  0.1921 -0.3110 -0.1847
  846SOL     OW 3381   1.447   2.832   0.794  0.0593 -0.4839 -0.2954
  846SOL    HW1 3382   1.515   2.894   0.830  0.0018  1.6767 -0.0907
  846SOL    HW2 3383   1.368   2.882   0.788 -1.0976 -1.3313 -2.1844
  846SOL     MW 3384   1.445   2.847   0.798 -0.1009 -0.3106 -0.5177
  847SOL     OW 3385   2.502   1.873   0.195 -0.6449  0.1032  0.1782
  847SOL    HW1 3386   2.468   1.784   0.215 -1.2716 -3.1152 -0.8270
  847SOL    HW2 3387   2.482   1.877   0.102  0.0374 -0.2602  2.2433
  847SOL     MW 3388   2.495   1.862   0.186 -0.6376 -0.3694  0.3180
  848SOL     OW 3389   2.608   2.096   1.189  0.7089 -0.1270  0.2094
  848SOL    HW1 3390   2.642   2.175   1.159  0.9242 -2.0096 -0.8765
  848SOL    HW2 3391   2.663   2.030   1.146  1.8877  0.8331 -2.4132
  848SOL     MW 3392   2.620   2.098   1.180  0.8928 -0.2487 -0.2799
  849SOL     OW 3393   1.986   2.849   0.801 -0.5571  0.0622  0.1598
  849SOL    HW1 3394   1.971   2.813   0.894 -2.2778 -0.1707 -0.3667
  849SOL    HW2 3395   2.029   2.773   0.760  0.6880 -1.0776  1.2903
  849SOL     MW 3396   1.990   2.835   0.808 -0.6199 -0.1189  0.2395
  850SOL     OW 3397   2.342   1.836   1.654  0.0966  0.0354 -0.0327
  850SOL    HW1 3398   2.260   1.809   1.604 -4.4242  0.8369  3.3042
  850SOL    HW2 3399   2.343   1.932   1.646 -0.4703  1.4411 -2.8664
  850SOL     MW 3400   2.331   1.845   1.646 -0.5747  0.3267  0.0337
  851SOL     OW 3401   2.404   2.278   0.307  0.3183 -0.3078  0.4220
  851SOL    HW1 3402   2.386   2.300   0.216  0.9512 -2.1718  1.1234
  851SOL    HW2 3403   2.465   2.341   0.336  0.5433  1.2626  0.6115
  851SOL     MW 3404   2.409   2.289   0.299  0.4315 -0.3466  0.5395
  852SOL     OW 3405   2.314   2.010   0.344 -0.0624 -0.8057 -0.5230
  852SOL    HW1 3406   2.324   2.105   0.334  0.3232 -1.7372  2.6311
  852SOL    HW2 3407   2.379   1.966   0.293  0.5740  1.7680  1.7337
  852SOL     MW 3408   2.324   2.017   0.336  0.0724 -0.5890  0.1909
  853SOL     OW 3409   2.519   2.386   1.924 -0.3627 -0.0648  0.2727
  853SOL    HW1 3410   2.508   2.455   1.858 -1.1702  3.2398  0.6477
  853SOL    HW2 3411   2.613   2.391   1.946  0.9755  0.5124 -0.9293
  853SOL     MW 3412   2.530   2.396   1.918 -0.2927  0.4473  0.1636
  854SOL     OW 3413   2.849   2.265   0.721  0.3368 -0.2889  0.1342
  854SOL    HW1 3414   2.766   2.258   0.672 -0.9920  1.7486  0.6370
  854SOL    HW2 3415   2.845   2.200   0.796 -1.3794  0.4066 -0.5045
  854SOL     MW 3416   2.837   2.256   0.725 -0.0649  0.0717  0.1163
  855SOL     OW 3417   2.776   2.357   0.443 -0.1070 -0.0594  0.4653
  855SOL    HW1 3418   2.685   2.373   0.459  0.7411  2.0378 -2.5391
  855SOL    HW2 3419   2.784   2.262   0.419 -1.2190 -1.6468 -1.0804
  855SOL     MW 3420   2.765   2.347   0.442 -0.1418  0.0078 -0.1350
  856SOL     OW 3421   2.082   1.894   0.255 -0.5709  0.2477  0.4721
  856SOL    HW1 3422   1.994   1.915   0.281  1.3531  2.2140  1.5363
  856SOL    HW2 3423   2.143   1.955   0.301 -2.2128  0.6999  1.1996
  856SOL     MW 3424   2.078   1.905   0.264 -0.5337  0.5668  0.7085
  857SOL     OW 3425   2.519   1.953   0.531 -0.1495 -0.2308  0.5193
  857SOL    HW1 3426   2.456   1.992   0.470  0.9940 -1.4410 -1.4907
  857SOL    HW2 3427   2.481   1.938   0.615  1.2023 -1.5769 -1.7506
  857SOL     MW 3428   2.506   1.956   0.534  0.1798 -0.5681 -0.0454
  858SOL     OW 3429   2.884   2.657   1.789  0.0327  0.1867  0.1554
  858SOL    HW1 3430   2.975   2.687   1.800 -0.1657  2.6788 -2.4195
  858SOL    HW2 3431   2.896   2.568   1.753 -1.0524 -0.6253 -2.9578
  858SOL     MW 3432   2.898   2.649   1.786 -0.1367  0.4083 -0.5951
  859SOL     OW 3433   1.914   2.737   1.022 -0.0448 -0.1345 -0.5735
  859SOL    HW1 3434   1.853   2.682   0.965 -3.6593  1.3648 -3.0423
  859SOL    HW2 3435   1.985   2.669   1.025 -0.2352 -2.9958  1.2826
  859SOL     MW 3436   1.915   2.721   1.015 -0.5468 -0.3142 -0.6543
  860SOL     OW 3437   2.602   2.651   0.163 -0.4315  0.3630  0.0049
  860SOL    HW1 3438   2.678   2.614   0.217  1.7217 -0.3527  1.1332
  860SOL    HW2 3439   2.637   2.682   0.084 -0.0629 -0.8895  0.2892
  860SOL     MW 3440   2.617   2.651   0.159 -0.0988  0.1033  0.1913
  861SOL     OW 3441   1.649   2.163   1.202 -0.1586 -0.0094 -0.0894
  861SOL    HW1 3442   1.669   2.234   1.270  3.4078 -1.8393  1.1987
  861SOL    HW2 3443   1.587   2.102   1.237 -0.4759 -0.5496 -0.9597
  861SOL     MW 3444   1.644   2.165   1.215  0.2701 -0.3221 -0.0343
  862SOL     OW 3445   2.509   1.728   1.425 -0.6508 -0.0320  0.0528
  862SOL    HW1 3446   2.461   1.785   1.486  0.2301  1.1793 -0.8368
  862SOL    HW2 3447   2.450   1.698   1.359  3.3328  2.3783 -1.0721
  862SOL     MW 3448   2.495   1.732   1.425 -0.0090  0.4458 -0.2130
  863SOL     OW 3449   3.008   1.714   0.971  0.2685 -0.0827 -0.2102
  863SOL    HW1 3450   3.048   1.666   1.041 -1.1257 -2.6492 -1.5858
  863SOL    HW2 3451   2.993   1.799   1.010 -0.8056 -0.3771 -1.7171
  863SOL     MW 3452   3.011   1.719   0.986 -0.0572 -0.4601 -0.5905
  864SOL     OW 3453   0.012   1.826   0.744 -0.4547 -0.3877  0.1119
  864SOL    HW1 3454  -0.038   1.790   0.816  0.7629 -1.7329 -0.1206
  864SOL    HW2 3455  -0.030   1.790   0.664  0.1067  0.1205  0.3118
  864SOL     MW 3456  -0.000   1.816   0.743 -0.2200 -0.4981  0.1076
  865SOL     OW 3457   2.618   2.189   0.079 -0.6040 -0.0821  0.2886
  865SOL    HW1 3458   2.639   2.132   0.152 -1.1851 -2.5417  0.9581
  865SOL    HW2 3459   2.557   2.145   0.019  0.0557 -3.2595  2.4597
  865SOL     MW 3460   2.613   2.175   0.081 -0.5936 -0.8259  0.6634
  866SOL     OW 3461   2.652   2.392   1.530  0.9532  0.1338 -0.6320
  866SOL    HW1 3462   2.653   2.294   1.542  0.8257 -2.5958 -1.2950
  866SOL    HW2 3463   2.709   2.394   1.458 -0.2897 -2.0100  0.0267
  866SOL     MW 3464   2.659   2.379   1.522  0.7724 -0.5092 -0.6326
  867SOL     OW 3465   0.117   2.655   1.756 -0.1300 -0.3563 -0.1348
  867SOL    HW1 3466   0.129   2.698   1.842  1.4861 -2.0136  0.6804
  867SOL    HW2 3467   0.128   2.729   1.694 -1.0143 -3.4234 -0.1580
  867SOL     MW 3468   0.120   2.671   1.759 -0.0335 -0.9797 -0.0303
  868SOL     OW 3469   2.766   2.688   0.515 -0.4508  0.3411 -0.0602
  868SOL    HW1 3470   2.731   2.603   0.560  1.4550 -0.5743  2.2100
  868SOL    HW2 3471   2.688   2.733   0.486  1.6797  1.8889 -2.1415
  868SOL     MW 3472   2.751   2.683   0.517  0.0818  0.4246 -0.0352
  869SOL     OW 3473   2.064   2.497   1.034 -0.0194  0.4784  0.1308
  869SOL    HW1 3474   2.154   2.488   1.008 -0.5451  0.2913  0.2435
  869SOL    HW2 3475   2.028   2.414   1.005  3.5964 -1.7354 -0.5655
  869SOL     MW 3476   2.071   2.485   1.027  0.3883  0.1616  0.0538
  870SOL     OW 3477   2.194   0.022   0.457  0.0986 -0.4425  0.4493
  870SOL    HW1 3478   2.260   0.075   0.407  0.8481  0.9454 -0.1124
  870SOL    HW2 3479   2.238  -0.055   0.489 -2.8263  2.0710 -2.1491
  870SOL     MW 3480   2.209   0.019   0.454 -0.1885  0.0722  0.0324
  871SOL     OW 3481   2.479   2.094   0.854 -0.4278  0.0011 -0.0063
  871SOL    HW1 3482   2.412   2.026   0.823 -2.2733  3.3957  0.1873
  871SOL    HW2 3483   2.428   2.167   0.896 -0.8687  0.1714 -0.7988
  871SOL     MW 3484   2.464   2.095   0.855 -0.7295  0.4714 -0.0853
  872SOL     OW 3485   2.118   2.566   1.532  0.4596  0.3420  0.4550
  872SOL    HW1 3486   2.039   2.606   1.571 -0.9551  0.4701 -0.2198
  872SOL    HW2 3487   2.087   2.530   1.447 -1.2374 -0.5108 -0.5468
  872SOL     MW 3488   2.103   2.566   1.526  0.0490  0.2464  0.2338
  873SOL     OW 3489   2.846   2.088   1.820  0.2197  0.2405  0.1933
  873SOL    HW1 3490   2.814   2.156   1.880 -0.2086 -1.7079 -1.3361
  873SOL    HW2 3491   2.931   2.116   1.778  1.4417 -1.6722 -0.5097
  873SOL     MW 3492   2.853   2.101   1.822  0.3244 -0.2689 -0.1012
  874SOL     OW 3493   2.289   1.416   2.337 -0.2641  0.5800 -0.2148
  874SOL    HW1 3494   2.248   1.361   2.270  0.0978  0.4265 -0.6717
  874SOL    HW2 3495   2.369   1.365   2.365  0.1090 -4.0674  0.4027
  874SOL     MW 3496   2.294   1.402   2.332 -0.1671 -0.0534 -0.1936
  875SOL     OW 3497   2.345   2.345   0.972 -0.0068 -0.0065 -0.6283
  875SOL    HW1 3498   2.356   2.398   0.896  0.8098  1.7093 -0.1186
  875SOL    HW2 3499   2.410   2.388   1.036 -1.7878  1.9975 -1.1637
  875SOL     MW 3500   2.355   2.357   0.971 -0.1340  0.4843 -0.6317
  876SOL     OW 3501   3.084   2.253   1.327  0.1327  0.3236  0.7634
  876SOL    HW1 3502   3.141   2.281   1.253  0.6062 -2.8818 -0.0467
  876SOL    HW2 3503   3.130   2.274   1.411  0.9198  1.8492 -1.0176
  876SOL     MW 3504   3.098   2.260   1.328  0.2991  0.1019  0.4215
  877SOL     OW 3505   0.051   2.777   0.330  0.2314 -0.5541 -0.1909
  877SOL    HW1 3506   0.121   2.835   0.314 -1.1985 -2.1287  2.2384
  877SOL    HW2 3507   0.041   2.730   0.248 -0.7205  1.3109  1.0733
  877SOL     MW 3508   0.059   2.778   0.317 -0.0828 -0.5158  0.2965
  878SOL     OW 3509   2.321   1.693   1.201 -0.6130  0.2478  0.3071
  878SOL    HW1 3510   2.230   1.650   1.212 -0.4543 -1.4355 -0.4244
  878SOL    HW2 3511   2.362   1.631   1.134  0.6290  0.0426 -0.1937
  878SOL     MW 3512   2.315   1.679   1.194 -0.4282 -0.0014  0.1445
  879SOL     OW 3513   2.754   2.452   0.865 -0.4465  0.3398  0.6412
  879SOL    HW1 3514   2.821   2.512   0.893  0.0342 -3.2118  0.4481
  879SOL    HW2 3515   2.784   2.378   0.810 -2.2312  0.0079  0.9512
  879SOL     MW 3516   2.766   2.450   0.861 -0.6186 -0.1726  0.6566
  880SOL     OW 3517   2.584   2.204   0.632  0.3426  0.9063  0.0783
  880SOL    HW1 3518   2.534   2.152   0.699 -0.7823  0.1074 -0.0723
  880SOL    HW2 3519   2.574   2.133   0.561  1.3714 -4.1950 -1.7890
  880SOL     MW 3520   2.576   2.188   0.632  0.3299  0.1278 -0.1880
  881SOL     OW 3521   2.944   2.763   0.716 -0.0595 -0.3357 -0.1370
  881SOL    HW1 3522   2.880   2.755   0.652  1.0022  4.4649 -0.2258
  881SOL    HW2 3523   3.022   2.758   0.659 -1.1972  0.4553  0.7796
  881SOL     MW 3524   2.946   2.761   0.700 -0.0695  0.4021 -0.0278
  882SOL     OW 3525   2.300   2.862   1.935 -0.4986  0.4192  0.0837
  882SOL    HW1 3526   2.300   2.891   1.842  0.9320 -0.3592  1.1139
  882SOL    HW2 3527   2.234   2.792   1.934  0.0479  1.0590 -0.0039
  882SOL     MW 3528   2.291   2.856   1.923 -0.2378  0.4009  0.2080
  883SOL     OW 3529   2.406   2.227   1.314  0.9012 -0.3625  0.1349
  883SOL    HW1 3530   2.474   2.176   1.268  0.3763  2.5252  0.9155
  883SOL    HW2 3531   2.324   2.195   1.270 -0.9520 -3.2119 -0.2290
  883SOL     MW 3532   2.404   2.216   1.302  0.5875 -0.3575  0.1899
  884SOL     OW 3533   1.953   1.812   1.071 -0.1670  0.1103  0.3465
  884SOL    HW1 3534   1.902   1.894   1.063 -3.4804 -0.8275 -2.3398
  884SOL    HW2 3535   2.044   1.838   1.057 -2.4066  0.3940  0.7802
  884SOL     MW 3536   1.958   1.827   1.068 -0.8997  0.0240  0.0493
  885SOL     OW 3537   2.854   2.405   1.715  0.9413 -0.4294 -0.5616
  885SOL    HW1 3538   2.925   2.350   1.680 -0.8895  0.1680  1.1642
  885SOL    HW2 3539   2.789   2.401   1.645 -0.2286  1.9369 -0.7056
  885SOL     MW 3540   2.855   2.397   1.701  0.5454 -0.0384 -0.3529
  886SOL     OW 3541   2.861   2.398   1.368 -0.2674 -0.2613 -0.2461
  886SOL    HW1 3542   2.949   2.354   1.375 -1.6457  1.3027 -1.9102
  886SOL    HW2 3543   2.861   2.503   1.369 -0.3102 -0.4567 -0.5363
  886SOL     MW 3544   2.872   2.406   1.369 -0.4549 -0.0807 -0.5040
  887SOL     OW 3545   2.356   2.703   1.505  0.2950 -0.3308  0.3560
  887SOL    HW1 3546   2.408   2.694   1.427  0.0020  1.2580  2.6247
  887SOL    HW2 3547   2.272   2.657   1.486  3.0034  0.1547 -0.9737
  887SOL     MW 3548   2.352   2.696   1.492  0.6137 -0.0572  0.4799
  888SOL     OW 3549   2.044   2.173   1.344  0.5295  0.1704  0.1239
  888SOL    HW1 3550   2.095   2.184   1.259  1.4940 -1.0145  0.3652
  888SOL    HW2 3551   2.107   2.142   1.407  2.1912  0.7999  2.0001
  888SOL     MW 3552   2.059   2.170   1.341  0.8760  0.0971  0.4033
  889SOL     OW 3553   2.287   1.923   2.051 -0.0940 -0.6455 -0.7645
  889SOL    HW1 3554   2.372   1.908   2.097 -1.4387  1.3661 -0.5830
  889SOL    HW2 3555   2.309   1.994   1.995 -1.2420 -0.8130 -1.1205
  889SOL     MW 3556   2.301   1.930   2.050 -0.4229 -0.4022 -0.7875
  890SOL     OW 3557   0.039   2.343   0.168 -0.5383  0.6296  0.2852
  890SOL    HW1 3558   0.020   2.438   0.175  0.5002 -0.5241 -3.2514
  890SOL    HW2 3559   0.011   2.288   0.247  0.8785 -2.3750  1.9579
  890SOL     MW 3560   0.033   2.348   0.179 -0.2143  0.0810  0.0393
  891SOL     OW 3561   2.980   2.050   1.169  0.2319  0.0299 -0.4961
  891SOL    HW1 3562   3.055   1.989   1.153  0.2873  0.9282 -0.8163
  891SOL    HW2 3563   3.021   2.116   1.221  0.9947 -3.3482  0.3465
  891SOL     MW 3564   2.996   2.050   1.174  0.3398 -0.2973 -0.4272
  892SOL     OW 3565   2.487   2.404   2.840  0.3226  0.0594 -0.2017
  892SOL    HW1 3566   2.496   2.317   2.881  3.9767  2.1403  0.4561
  892SOL    HW2 3567   2.579   2.440   2.857 -1.5775 -3.5214 -0.4082
  892SOL     MW 3568   2.500   2.398   2.848  0.5540 -0.1385 -0.1422
  893SOL     OW 3569   1.675   2.380   1.367 -0.1096 -0.0176  0.6469
  893SOL    HW1 3570   1.599   2.423   1.398  0.7453  1.2336  0.5145
  893SOL    HW2 3571   1.751   2.406   1.419  1.3510  0.7299 -1.4062
  893SOL     MW 3572   1.675   2.389   1.378  0.1959  0.2461  0.3586
  894SOL     OW 3573   2.773   1.846   0.479 -0.3683  0.6003  0.1548
  894SOL    HW1 3574   2.675   1.880   0.497 -2.4357  2.4306  1.4403
  894SOL    HW2 3575   2.779   1.820   0.382 -1.8481 -1.7438 -1.7705
  894SOL     MW 3576   2.761   1.847   0.468 -0.8363  0.5325  0.0704
  895SOL     OW 3577   2.190   2.187   1.137  0.2386  0.1622 -0.5233
  895SOL    HW1 3578   2.233   2.253   1.082 -0.3379 -0.1967  0.7999
  895SOL    HW2 3579   2.190   2.098   1.100 -2.7535  2.8100 -1.0100
  895SOL     MW 3580   2.196   2.184   1.125 -0.2323  0.4642 -0.4130
  896SOL     OW 3581   2.214   2.759   1.085  0.0856 -0.2321 -0.5062
  896SOL    HW1 3582   2.291   2.750   1.145 -1.1406 -1.9836  3.4072
  896SOL    HW2 3583   2.158   2.819   1.137 -3.1376  0.0796 -1.2844
  896SOL     MW 3584   2.217   2.766   1.100 -0.5015 -0.4220 -0.0925
  897SOL     OW 3585   3.065   3.006   3.093 -0.2805  0.2419  0.3376
  897SOL    HW1 3586   3.112   2.928   3.104  0.1973  0.5092  0.0361
  897SOL    HW2 3587   2.997   2.987   3.032 -1.6759 -1.8797 -0.8036
  897SOL     MW 3588   3.062   2.994   3.086 -0.4016 -0.0028  0.1473
  898SOL     OW 3589   2.089   0.149   1.431  0.9647 -0.2881  0.6780
  898SOL    HW1 3590   2.060   0.057   1.448 -0.5345 -0.2595  0.0207
  898SOL    HW2 3591   2.091   0.156   1.331  0.6420  1.7663  0.3642
  898SOL     MW 3592   2.085   0.138   1.420  0.7243 -0.0133  0.5499
  899SOL     OW 3593   2.899   3.019   0.600 -0.6670  0.8899 -0.1761
  899SOL    HW1 3594   2.928   2.951   0.665 -1.6013 -2.5546  0.9449
  899SOL    HW2 3595   2.814   3.047   0.630  0.2245 -0.7543 -0.4024
  899SOL     MW 3596   2.891   3.014   0.612 -0.6727  0.2185 -0.0581
  900SOL     OW 3597   0.088   2.351   1.094  0.0099  0.0301 -0.2175
  900SOL    HW1 3598   0.077   2.444   1.075 -3.6290 -0.5888 -1.9273
  900SOL    HW2 3599   0.097   2.307   1.011  1.8716 -0.0941  1.0076
  900SOL     MW 3600   0.088   2.358   1.081 -0.2246 -0.0679 -0.2815
  901SOL     OW 3601   1.740   2.832   1.804  0.1601  0.8218  0.2694
  901SOL    HW1 3602   1.814   2.775   1.768  5.0649  0.7983  0.6261
  901SOL    HW2 3603   1.680   2.819   1.732  0.2641 -0.0559 -0.8693
  901SOL     MW 3604   1.742   2.823   1.790  0.8210  0.7029  0.1662
  902SOL     OW 3605   2.645   2.140   1.602 -0.1264 -0.2375 -0.4819
  902SOL    HW1 3606   2.656   2.065   1.536 -1.0201 -1.8560 -1.3357
  902SOL    HW2 3607   2.684   2.110   1.686 -1.2295 -0.8417  0.1822
  902SOL     MW 3608   2.652   2.126   1.604 -0.3899 -0.5307 -0.5069
  903SOL     OW 3609   1.492   2.648   0.575  0.0420  0.1366 -0.1191
  903SOL    HW1 3610   1.587   2.665   0.586  0.7761  0.4766 -3.1768
  903SOL    HW2 3611   1.449   2.693   0.656 -0.3955  0.7497 -1.5294
  903SOL     MW 3612   1.499   2.656   0.587  0.0811  0.2624 -0.7086
  904SOL     OW 3613   2.481   2.546   1.700 -0.0170  0.2610 -0.1765
  904SOL    HW1 3614   2.417   2.601   1.641 -2.3485 -0.3736  1.6552
  904SOL    HW2 3615   2.530   2.497   1.630 -0.5616  0.1268  0.3658
  904SOL     MW 3616   2.479   2.547   1.683 -0.3965  0.1596  0.1367
  905SOL     OW 3617   2.317   2.446   2.094 -0.1793 -0.3886 -0.4214
  905SOL    HW1 3618   2.395   2.430   2.043 -0.8198  0.7344  0.3973
  905SOL    HW2 3619   2.290   2.379   2.166  0.3891  1.7963  1.3083
  905SOL     MW 3620   2.324   2.435   2.097 -0.1888  0.0478 -0.0852
  906SOL     OW 3621   2.516   2.517   0.772 -0.2950 -0.0438 -0.7159
  906SOL    HW1 3622   2.586   2.483   0.826  2.1394  0.6207  0.0284
  906SOL    HW2 3623   2.482   2.589   0.825 -0.3242  0.0623  0.2420
  906SOL     MW 3624   2.521   2.522   0.786  0.0224  0.0579 -0.4913
  907SOL     OW 3625   2.659   2.867   1.280 -0.4274  0.0247  0.1090
  907SOL    HW1 3626   2.704   2.929   1.341  1.6182  2.8851  1.2547
  907SOL    HW2 3627   2.698   2.883   1.197 -1.1114 -1.1276 -2.0348
  907SOL     MW 3628   2.670   2.877   1.277 -0.2478  0.2501 -0.0227
  908SOL     OW 3629   2.716   2.436   0.031  0.0917  0.0066  0.4065
  908SOL    HW1 3630   2.664   2.355   0.025  1.5339 -0.1707 -1.5403
  908SOL    HW2 3631   2.672   2.491   0.088 -0.5535  0.2036  1.5950
  908SOL     MW 3632   2.704   2.433   0.038  0.1969  0.0092  0.3065
  909SOL     OW 3633   1.716   0.139   1.259 -0.2805 -0.0615  0.4742
  909SOL    HW1 3634   1.650   0.202   1.250 -0.5487 -1.3440  4.0099
  909SOL    HW2 3635   1.698   0.106   1.347 -0.2410 -0.2769  1.0528
  909SOL     MW 3636   1.705   0.143   1.269 -0.3107 -0.2591  1.0170
  910SOL     OW 3637   2.133   1.658   0.392 -0.0177 -0.5866 -0.0261
  910SOL    HW1 3638   2.089   1.573   0.370  0.4299 -1.5116  0.4308
  910SOL    HW2 3639   2.102   1.738   0.344  0.0876 -0.6967  1.0218
  910SOL     MW 3640   2.123   1.657   0.383  0.0553 -0.7232  0.1725
  911SOL     OW 3641   2.322   2.126   1.569  0.4576  0.2658 -0.0864
  911SOL    HW1 3642   2.382   2.141   1.649  1.6733  0.4607  2.2452
  911SOL    HW2 3643   2.364   2.174   1.492  1.2246 -0.1026  0.2015
  911SOL     MW 3644   2.335   2.134   1.569  0.7192  0.2429  0.2592
  912SOL     OW 3645   2.940   1.863   1.392 -0.2222 -0.0015 -0.3196
  912SOL    HW1 3646   2.956   1.876   1.298 -0.8297 -1.2018  3.9924
  912SOL    HW2 3647   2.852   1.895   1.410 -2.7603 -1.3008  0.6031
  912SOL     MW 3648   2.930   1.869   1.382 -0.6372 -0.3313  0.3711
  913SOL     OW 3649   2.700   3.065   0.265  0.2344  0.2692 -0.1223
  913SOL    HW1 3650   2.790   3.024   0.266  1.4650  1.2509  1.0340
  913SOL    HW2 3651   2.640   2.994   0.258 -1.4583  0.6781  0.9710
  913SOL     MW 3652   2.704   3.050   0.264  0.1735  0.4527  0.1745
  914SOL     OW 3653   2.700   1.816   2.936  0.2503  0.0754 -0.2788
  914SOL    HW1 3654   2.734   1.906   2.949  0.2615  1.6098  2.3538
  914SOL    HW2 3655   2.608   1.819   2.976 -0.1248 -1.2601 -0.4187
  914SOL     MW 3656   2.693   1.829   2.943  0.2023  0.1017  0.0501
  915SOL     OW 3657   1.802   0.138   0.124  0.0892 -0.5833 -0.2607
  915SOL    HW1 3658   1.852   0.080   0.176 -0.4740 -0.0824 -3.0025
  915SOL    HW2 3659   1.707   0.108   0.136 -1.5001 -2.4528 -3.3619
  915SOL     MW 3660   1.796   0.127   0.133 -0.1948 -0.7639 -1.0316
  916SOL     OW 3661   1.738   2.192   2.008  0.5090 -0.1639 -0.5135
  916SOL    HW1 3662   1.806   2.261   1.996  0.3446 -0.7369 -0.4005
  916SOL    HW2 3663   1.754   2.125   1.944 -1.8279  0.2071  0.0628
  916SOL     MW 3664   1.749   2.192   1.998  0.1790 -0.1905 -0.4226
  917SOL     OW 3665   2.519   2.264   2.596 -0.0695 -0.5194  0.0178
  917SOL    HW1 3666   2.491   2.298   2.679 -2.1353 -1.7513  1.0100
  917SOL    HW2 3667   2.596   2.306   2.569 -0.3470 -2.5874 -0.2138
  917SOL     MW 3668   2.525   2.274   2.603 -0.3787 -0.9548  0.1181
  918SOL     OW 3669   2.070   1.592   2.631  0.6260 -0.4951 -0.5328
  918SOL    HW1 3670   1.991   1.621   2.587 -0.0421  1.4319 -0.0311
  918SOL    HW2 3671   2.131   1.667   2.620  1.3223  1.8207 -0.1062
  918SOL     MW 3672   2.067   1.606   2.624  0.6297  0.0647 -0.4103
  919SOL     OW 3673   3.085   2.418   2.249  0.5230 -0.1626  0.2651
  919SOL    HW1 3674   3.022   2.351   2.234 -2.2530  0.5675  1.9532
  919SOL    HW2 3675   3.148   2.424   2.175  0.8944  0.1261  0.0945
  919SOL     MW 3676   3.085   2.410   2.237  0.2057 -0.0282  0.4653
  920SOL     OW 3677   2.667   2.780   3.032 -0.3899 -0.8338 -0.0779
  920SOL    HW1 3678   2.575   2.808   3.030  1.8348 -0.8122  2.0781
  920SOL    HW2 3679   2.703   2.758   2.949  0.5455 -0.9119  0.0470
  920SOL     MW 3680   2.660   2.781   3.021  0.0270 -0.8413  0.2230
  921SOL     OW 3681   2.473   2.632   2.629  0.5321  0.2982 -0.3571
  921SOL    HW1 3682   2.552   2.658   2.581  1.6332 -1.6512  0.5901
  921SOL    HW2 3683   2.496   2.557   2.684 -1.8301  1.6319  1.6053
  921SOL     MW 3684   2.487   2.625   2.630  0.3657  0.2170  0.0268
  922SOL     OW 3685   2.094   2.712   0.396 -0.0420 -0.4734  0.2702
  922SOL    HW1 3686   2.067   2.706   0.306 -0.4949 -0.5675  3.7461
  922SOL    HW2 3687   2.131   2.616   0.410  5.8338  0.2395 -1.0466
  922SOL     MW 3688   2.096   2.699   0.386  0.6735 -0.3918  0.5551
  923SOL     OW 3689   2.204   2.856   1.660 -0.3694  0.5856 -0.0453
  923SOL    HW1 3690   2.257   2.811   1.594  3.2688  3.2713 -0.6410
  923SOL    HW2 3691   2.151   2.914   1.604  0.1954  0.4693 -0.5297
  923SOL     MW 3692   2.204   2.858   1.644  0.1852  0.9246 -0.1878
  924SOL     OW 3693   1.082   2.739   2.609  0.2235  0.2230 -0.0921
  924SOL    HW1 3694   1.177   2.760   2.588 -2.3828 -0.7342  1.5839
  924SOL    HW2 3695   1.088   2.657   2.662  0.3800 -1.1147  1.4431
  924SOL     MW 3696   1.095   2.731   2.613 -0.0997 -0.0798  0.3316
  925SOL     OW 3697   2.972   0.249   2.679 -0.0587  0.0786  0.0008
  925SOL    HW1 3698   2.947   0.245   2.583  0.4123  0.2589  0.8706
  925SOL    HW2 3699   2.953   0.343   2.706  2.8076 -0.3747 -2.0003
  925SOL     MW 3700   2.966   0.261   2.670  0.3816  0.0426 -0.1485
  926SOL     OW 3701   2.790   2.354   1.985  0.4218 -0.1198 -0.3780
  926SOL    HW1 3702   2.793   2.443   2.029  0.6136 -2.5242 -2.0017
  926SOL    HW2 3703   2.812   2.369   1.892  0.4017  0.3260  0.3853
  926SOL     MW 3704   2.793   2.368   1.978  0.4445 -0.3782 -0.4915
  927SOL     OW 3705   2.381   0.155   0.295  0.0560  0.1124 -0.4892
  927SOL    HW1 3706   2.474   0.176   0.306  0.3903 -2.3152  2.1728
  927SOL    HW2 3707   2.370   0.151   0.204 -2.0997  0.0074 -0.2549
  927SOL     MW 3708   2.392   0.157   0.285 -0.1843 -0.2218 -0.1071
  928SOL     OW 3709   2.133   2.385   1.735 -0.4667 -0.7618  0.7603
  928SOL    HW1 3710   2.108   2.437   1.657  2.4902  1.5573  2.2093
  928SOL    HW2 3711   2.226   2.398   1.727  0.7180 -3.1865  1.2431
  928SOL     MW 3712   2.142   2.394   1.723  0.0798 -0.7757  1.0152
  929SOL     OW 3713   2.759   2.352   2.476  0.7472 -0.0003  0.4521
  929SOL    HW1 3714   2.795   2.305   2.409 -4.1946  1.3658  0.4660
  929SOL    HW2 3715   2.828   2.366   2.542  1.0957  0.3498  2.0768
  929SOL     MW 3716   2.773   2.348   2.476  0.1412  0.2261  0.6683
  930SOL     OW 3717   2.036   2.801   2.664  0.7095 -0.0205  0.4698
  930SOL    HW1 3718   2.049   2.745   2.743 -2.1570  0.5258  0.2639
  930SOL    HW2 3719   2.108   2.867   2.663  4.2467  0.8439 -1.8489
  930SOL     MW 3720   2.047   2.802   2.674  0.7980  0.1656  0.1367
  931SOL     OW 3721   0.030   2.777   2.474  0.1364 -0.1441  0.3798
  931SOL    HW1 3722   0.014   2.810   2.558  1.0665 -1.1379 -3.3873
  931SOL    HW2 3723   0.104   2.819   2.437 -0.0979  0.6809 -1.5982
  931SOL     MW 3724   0.038   2.787   2.480  0.2282 -0.1664 -0.3782
  932SOL     OW 3725   2.843   1.919   2.517 -0.3487  0.9295  0.1686
  932SOL    HW1 3726   2.932   1.955   2.510  0.8332 -1.9706  0.4484
  932SOL    HW2 3727   2.809   1.930   2.425 -1.3185  0.8169  0.3755
  932SOL     MW 3728   2.850   1.925   2.504 -0.3207  0.5320  0.2328
  933SOL     OW 3729   2.060   2.796   2.215 -0.0124  0.0779 -0.1379
  933SOL    HW1 3730   2.133   2.835   2.259  3.3361  0.7790  1.0862
  933SOL    HW2 3731   2.000   2.869   2.201 -0.2145 -2.5800  1.3753
  933SOL     MW 3732   2.062   2.811   2.219  0.4027 -0.1803  0.2233
  934SOL     OW 3733   2.008   2.641   2.442  0.3260  0.3283 -0.4337
  934SOL    HW1 3734   2.015   2.719   2.500 -0.6064 -2.0131 -4.6636
  934SOL    HW2 3735   2.024   2.685   2.357 -1.6404 -0.0869  1.9763
  934SOL     MW 3736   2.011   2.657   2.438 -0.0565 -0.0354 -0.6738
  935SOL     OW 3737   2.644   1.516   1.795 -0.0701 -0.8405 -0.7453
  935SOL    HW1 3738   2.736   1.509   1.791 -2.5925  0.0215  1.3586
  935SOL    HW2 3739   2.601   1.491   1.714 -3.8251 -0.2082 -0.5098
  935SOL     MW 3740   2.651   1.512   1.784 -0.8983 -0.6433 -0.4366
  936SOL     OW 3741   2.946   2.247   3.085  0.1274 -0.2471  0.0787
  936SOL    HW1 3742   3.010   2.281   3.146 -1.1805 -0.1231 -0.4012
  936SOL    HW2 3743   2.868   2.309   3.087  0.4311 -0.5796 -2.1644
  936SOL     MW 3744   2.944   2.260   3.093 -0.0051 -0.2746 -0.2805
  937SOL     OW 3745   1.980   2.160   2.696  0.0190  0.0999 -0.6564
  937SOL    HW1 3746   2.068   2.132   2.723  1.1930  0.9379 -4.6221
  937SOL    HW2 3747   1.977   2.135   2.606  0.1521  1.2780  0.5602
  937SOL     MW 3748   1.991   2.153   2.688  0.1914  0.3659 -1.0192
  938SOL     OW 3749   2.357   1.708   1.905  0.2592  0.1021 -0.6035
  938SOL    HW1 3750   2.355   1.736   1.812 -1.8898  1.9712 -0.6640
  938SOL    HW2 3751   2.312   1.784   1.952 -1.9284 -2.2286 -0.8181
  938SOL     MW 3752   2.351   1.722   1.899 -0.3129  0.0412 -0.6398
  939SOL     OW 3753   2.764   1.960   2.247  0.5980 -0.4276  0.2387
  939SOL    HW1 3754   2.797   1.924   2.161 -0.6023  0.2200 -0.7175
  939SOL    HW2 3755   2.671   1.956   2.238  1.7542 -2.4170  0.1996
  939SOL     MW 3756   2.756   1.955   2.235  0.5922 -0.6046  0.1074
  940SOL     OW 3757   2.224   0.134   2.676 -0.3365 -0.2478  0.4033
  940SOL    HW1 3758   2.242   0.044   2.654 -0.0173 -0.8776 -1.2432
  940SOL    HW2 3759   2.285   0.150   2.747  0.2666  1.1962  0.7602
  940SOL     MW 3760   2.234   0.125   2.682 -0.2148 -0.1404  0.2332
  941SOL     OW 3761   0.184   2.447   2.030 -0.2438  0.2995  0.0657
  941SOL    HW1 3762   0.258   2.396   2.046  0.0510 -3.4127 -1.2838
  941SOL    HW2 3763   0.155   2.409   1.950  0.3241  0.4178 -1.0211
  941SOL     MW 3764   0.190   2.435   2.022 -0.1300 -0.1747 -0.2558
  942SOL     OW 3765   2.876   2.218   2.223  0.3133  0.1191 -0.4898
  942SOL    HW1 3766   2.837   2.253   2.146 -1.5403  3.1675 -0.7803
  942SOL    HW2 3767   2.824   2.141   2.241 -0.3250  0.7205 -1.8964
  942SOL     MW 3768   2.864   2.212   2.215 -0.0155  0.6006 -0.7137
  943SOL     OW 3769   0.252   2.121   2.305  0.9033  0.1516 -0.1763
  943SOL    HW1 3770   0.231   2.203   2.360  1.6933  2.4513 -1.9428
  943SOL    HW2 3771   0.331   2.085   2.354 -0.5055  2.5491  0.5846
  943SOL     MW 3772   0.260   2.127   2.319  0.8217  0.7713 -0.3090
  944SOL     OW 3773   2.113   2.654   1.977  0.7057 -0.5463 -0.0284
  944SOL    HW1 3774   2.153   2.571   1.989  0.5813 -1.4877  0.3524
  944SOL    HW2 3775   2.080   2.674   2.060  1.3738  0.7032 -0.9531
  944SOL     MW 3776   2.114   2.645   1.990  0.7774 -0.5056 -0.1002
  945SOL     OW 3777   2.822   2.752   2.813 -0.6797  0.2088  0.1434
  945SOL    HW1 3778   2.775   2.673   2.820  2.4473 -0.8107 -0.9863
  945SOL    HW2 3779   2.803   2.787   2.723 -0.0125  1.9881  2.7062
  945SOL     MW 3780   2.813   2.746   2.802 -0.1791  0.3090  0.3325
  946SOL     OW 3781   2.452   2.643   2.232  0.2334  0.0218  0.1408
  946SOL    HW1 3782   2.511   2.650   2.162  3.4515  0.7812  0.6557
  946SOL    HW2 3783   2.380   2.581   2.207 -0.3245 -1.0303  0.1096
  946SOL     MW 3784   2.450   2.636   2.219  0.5844 -0.0168  0.2046
  947SOL     OW 3785   2.042   0.062   0.241  0.3110 -0.3486 -0.0238
  947SOL    HW1 3786   2.081  -0.020   0.199  2.2113 -1.6793 -0.6265
  947SOL    HW2 3787   2.076   0.044   0.329 -2.4068 -1.0898 -1.5166
  947SOL     MW 3788   2.052   0.049   0.247  0.2031 -0.6220 -0.3003
  948SOL     OW 3789   1.811   3.005   2.647 -0.5187 -0.1211 -0.3775
  948SOL    HW1 3790   1.815   2.908   2.647 -0.9943  1.3514 -1.0645
  948SOL    HW2 3791   1.749   3.021   2.575  0.3113  1.8671 -0.7881
  948SOL     MW 3792   1.803   2.994   2.638 -0.4719  0.3355 -0.5223
  949SOL     OW 3793   2.490   1.900   2.230 -0.6406 -0.1287 -0.6501
  949SOL    HW1 3794   2.470   1.816   2.279  3.1246  0.8843 -1.3269
  949SOL    HW2 3795   2.463   1.970   2.294 -0.5360 -0.3145  0.2547
  949SOL     MW 3796   2.484   1.898   2.245 -0.1300 -0.0196 -0.6200
  950SOL     OW 3797   2.297   2.570   2.983  0.3741 -0.1842  0.6870
  950SOL    HW1 3798   2.351   2.522   2.920  1.7144  1.5586 -0.7129
  950SOL    HW2 3799   2.210   2.591   2.947 -1.1903  2.6397 -2.1711
  950SOL     MW 3800   2.292   2.566   2.970  0.3445  0.4183  0.1252
  951SOL     OW 3801   3.058   2.184   2.848 -0.4066 -0.2326  0.3250
  951SOL    HW1 3802   2.994   2.214   2.915 -2.0350  2.7107  0.6131
  951SOL    HW2 3803   3.037   2.089   2.835  3.2304 -1.4310  0.2238
  951SOL     MW 3804   3.047   2.175   2.855 -0.1416 -0.0024  0.3497
  952SOL     OW 3805   3.029   1.689   2.133  0.3407  0.4984 -0.3074
  952SOL    HW1 3806   2.942   1.729   2.111  1.3657  2.1751 -1.6928
  952SOL    HW2 3807   3.079   1.760   2.169 -1.1149  0.3596  3.6525
  952SOL     MW 3808   3.024   1.703   2.135  0.2839  0.7013  0.0323
  953SOL     OW 3809   1.971   1.718   2.908 -0.3076 -0.2549  0.4576
  953SOL    HW1 3810   1.890   1.690   2.948 -0.4001  0.9028 -0.5033
  953SOL    HW2 3811   2.012   1.657   2.844  0.9730  2.3352 -1.6906
  953SOL     MW 3812   1.965   1.706   2.905 -0.1509  0.2396  0.0474
  954SOL     OW 3813   2.459   2.135   2.929 -0.8521 -0.1322  0.0155
  954SOL    HW1 3814   2.371   2.125   2.894  1.4518 -1.6592 -2.5919
  954SOL    HW2 3815   2.506   2.084   2.869 -2.4215 -1.8951 -2.0025
  954SOL     MW 3816   2.454   2.127   2.916 -0.7552 -0.5662 -0.5948
  955SOL     OW 3817   1.585   1.558   2.540 -0.1452 -0.9792  0.1025
  955SOL    HW1 3818   1.571   1.589   2.443  1.4584 -0.2049 -1.8136
  955SOL    HW2 3819   1.661   1.608   2.572 -2.6310 -1.6811 -0.1473
  955SOL     MW 3820   1.593   1.569   2.531 -0.2616 -0.9697 -0.1833
  956SOL     OW 3821   2.728   2.518   2.875  0.4593  0.5418 -0.4239
  956SOL    HW1 3822   2.749   2.494   2.963  2.0589 -0.7543 -1.2665
  956SOL    HW2 3823   2.781   2.463   2.815  1.3401  0.8115 -3.0790
  956SOL     MW 3824   2.737   2.508   2.879  0.7865  0.4064 -0.8854
  957SOL     OW 3825   2.266   2.864   0.545  0.4986 -0.5425  0.5787
  957SOL    HW1 3826   2.201   2.818   0.485 -0.6432  0.0138  1.2602
  957SOL    HW2 3827   2.267   2.788   0.612 -1.7359  0.6872  2.0303
  957SOL     MW 3828   2.257   2.848   0.546  0.0531 -0.3068  0.8601
  958SOL     OW 3829   2.068   2.630   2.877 -0.0289 -0.6653 -0.1529
  958SOL    HW1 3830   2.039   2.563   2.816 -0.3593 -3.3015  1.2257
  958SOL    HW2 3831   1.984   2.644   2.923  2.3776 -2.4100  0.2817
  958SOL     MW 3832   2.053   2.623   2.875  0.2451 -1.2434  0.0864
  959SOL     OW 3833   2.517   2.817   0.446  0.1035  0.0382  0.2419
  959SOL    HW1 3834   2.489   2.839   0.355  2.6712  1.1275 -0.3822
  959SOL    HW2 3835   2.437   2.830   0.499 -0.5039 -0.2863 -2.1603
  959SOL     MW 3836   2.503   2.821   0.441  0.3622  0.1391 -0.1574
  960SOL     OW 3837   1.927   2.338   2.297 -0.2413  0.0655 -0.3237
  960SOL    HW1 3838   1.941   2.247   2.333  0.1825  0.7821  1.6955
  960SOL    HW2 3839   1.878   2.378   2.371 -3.5584  0.7307 -2.1383
  960SOL     MW 3840   1.923   2.331   2.312 -0.6231  0.2478 -0.2967
  961SOL     OW 3841   2.221   2.275   2.308  0.5540  0.3250  0.3777
  961SOL    HW1 3842   2.136   2.313   2.285  0.1075  0.0639 -1.2184
  961SOL    HW2 3843   2.255   2.345   2.360 -1.1547 -1.7783 -0.6520
  961SOL     MW 3844   2.214   2.289   2.311  0.2696  0.0130  0.0313
  962SOL     OW 3845   2.213   2.062   2.835 -0.1959 -0.1204  0.1688
  962SOL    HW1 3846   2.202   2.014   2.917 -0.1741 -2.1194  0.1571
  962SOL    HW2 3847   2.246   1.992   2.772  1.7089 -3.9716 -3.3493
  962SOL     MW 3848   2.216   2.046   2.837  0.0583 -0.8923 -0.2969
  963SOL     OW 3849   1.842   2.568   2.116  0.5460  0.5848 -0.6738
  963SOL    HW1 3850   1.858   2.502   2.182  0.6823  2.0514 -2.2004
  963SOL    HW2 3851   1.865   2.514   2.032  1.1927 -1.3416  1.1631
  963SOL     MW 3852   1.847   2.552   2.114  0.6493  0.5242 -0.6329
  964SOL     OW 3853   1.837   1.921   2.784 -0.2109 -0.9922  0.2362
  964SOL    HW1 3854   1.910   1.981   2.764  0.5034  0.9298 -0.2110
  964SOL    HW2 3855   1.894   1.851   2.825 -1.4375  0.5641 -0.2493
  964SOL     MW 3856   1.855   1.920   2.787 -0.2785 -0.5333  0.1132
  965SOL     OW 3857   2.206   2.618   0.730 -0.2813 -0.3032  0.9858
  965SOL    HW1 3858   2.237   2.528   0.727  0.4683  0.7194 -0.0182
  965SOL    HW2 3859   2.264   2.673   0.779  0.2750 -2.2634 -0.6870
  965SOL     MW 3860   2.218   2.613   0.736 -0.1090 -0.4269  0.6326
  966SOL     OW 3861   2.668   2.604   2.416 -0.3287 -0.1729  0.0725
  966SOL    HW1 3862   2.594   2.598   2.359  0.2366  0.9459  4.8956
  966SOL    HW2 3863   2.705   2.516   2.429  0.8249  1.9437 -1.2243
  966SOL     MW 3864   2.663   2.591   2.410 -0.1019  0.2540  0.5377
  967SOL     OW 3865   2.798   3.017   2.959 -0.1891  0.1646  0.5936
  967SOL    HW1 3866   2.774   2.945   3.013 -0.2896  0.4708 -3.6362
  967SOL    HW2 3867   2.720   3.029   2.900 -2.0575 -1.3555 -0.6978
  967SOL     MW 3868   2.785   3.009   2.958 -0.4489  0.0045 -0.1349
  968SOL     OW 3869   3.061   2.653   2.966  0.2634  0.6081 -0.3111
  968SOL    HW1 3870   2.996   2.707   2.928 -0.9739 -2.5036 -0.0472
  968SOL    HW2 3871   3.099   2.612   2.891  0.5139  0.3219 -0.0707
  968SOL     MW 3872   3.057   2.655   2.951  0.1332  0.1598 -0.2446
  969SOL     OW 3873   1.607   2.217   1.698 -0.0068 -0.2967  0.6147
  969SOL    HW1 3874   1.671   2.145   1.720  0.9050  0.4046 -0.2179
  969SOL    HW2 3875   1.564   2.234   1.781 -1.0906  0.7059  2.3194
  969SOL     MW 3876   1.610   2.209   1.712 -0.0295 -0.0719  0.7298
  970SOL     OW 3877   1.805   1.831   1.924 -0.1476  0.3176 -0.0416
  970SOL    HW1 3878   1.838   1.764   1.987 -2.2316  2.4386  1.2548
  970SOL    HW2 3879   1.708   1.812   1.925  0.2544 -3.3061 -2.2217
  970SOL     MW 3880   1.796   1.820   1.933 -0.3696  0.1193 -0.1582
  971SOL     OW 3881   1.728   3.095   2.368 -0.0185  0.3044 -0.2137
  971SOL    HW1 3882   1.769   3.040   2.298 -0.8064  2.2401  2.0419
  971SOL    HW2 3883   1.770   3.177   2.354 -0.0059  0.0535  0.7837
  971SOL     MW 3884   1.739   3.099   2.357 -0.1208  0.5267  0.2155
  972SOL     OW 3885   0.317   2.862   2.404  0.5776  0.6414 -0.4792
  972SOL    HW1 3886   0.374   2.789   2.433 -0.1232 -1.4728  2.5539
  972SOL    HW2 3887   0.341   2.945   2.448 -0.5387 -0.2403 -0.0903
  972SOL     MW 3888   0.327   2.863   2.414  0.3378  0.2461 -0.0277
  973SOL     OW 3889   2.566   3.039   2.125 -0.3979 -0.4486  0.3470
  973SOL    HW1 3890   2.579   2.946   2.102 -0.7175  1.5560 -2.6413
  973SOL    HW2 3891   2.585   3.082   2.037  2.1367  0.1203 -2.6024
  973SOL     MW 3892   2.570   3.033   2.111 -0.1056 -0.1091 -0.4365
  974SOL     OW 3893   1.941   0.145   2.599  0.0850  0.5678 -0.2813
  974SOL    HW1 3894   2.024   0.143   2.643 -1.2491  1.3814 -0.1355
  974SOL    HW2 3895   1.898   0.060   2.616  1.5340 -2.3898 -1.4453
  974SOL     MW 3896   1.946   0.133   2.607  0.1002  0.2849 -0.4156
  975SOL     OW 3897   2.227   2.482   2.493  0.2625 -0.2884 -0.3503
  975SOL    HW1 3898   2.292   2.537   2.542 -1.4841 -0.8674  2.1676
  975SOL    HW2 3899   2.149   2.547   2.482  0.0734  2.0021  2.8166
  975SOL     MW 3900   2.225   2.498   2.498  0.0071 -0.0626  0.3998
  976SOL     OW 3901   0.186   0.363   1.672  0.8288 -0.3069 -0.5721
  976SOL    HW1 3902   0.259   0.298   1.682 -1.3640 -1.6503 -1.6663
  976SOL    HW2 3903   0.102   0.313   1.667  0.7851  1.7156  0.8535
  976SOL     MW 3904   0.184   0.348   1.673  0.5337 -0.2173 -0.5284
  977SOL     OW 3905   1.713   2.748   2.394  0.4099  0.7247 -0.2426
  977SOL    HW1 3906   1.729   2.656   2.380  1.7845  0.8000 -0.1056
  977SOL    HW2 3907   1.801   2.791   2.393  3.2950 -1.1836 -2.7358
  977SOL     MW 3908   1.727   2.742   2.392  0.9719  0.4829 -0.5535
   3.10000   3.10000   3.10000
