977 TIP4P/2005f water molecules t=   0.92000 step= 920
 3908
    1SOL     OW    1   0.366   0.808   3.076  0.2245 -0.0609  0.1768
    1SOL    HW1    2   0.384   0.826   2.984  0.6977  0.0397  2.3639
    1SOL    HW2    3   0.290   0.756   3.081  3.1024 -0.6611  1.3485
    1SOL     MW    4   0.358   0.804   3.065  0.6667 -0.1268  0.6200
    2SOL     OW    5   0.320   3.021   1.163 -0.1617  0.2581  0.1569
    2SOL    HW1    6   0.361   3.105   1.139  1.4169  1.7081  0.1087
    2SOL    HW2    7   0.223   3.022   1.178 -0.6246  2.5781  0.3854
    2SOL     MW    8   0.313   3.032   1.162 -0.0145  0.7555  0.1807
    3SOL     OW    9   2.640   0.415   0.947  0.2843 -0.0580 -0.1262
    3SOL    HW1   10   2.682   0.484   0.901 -3.1746 -2.2583 -0.2993
    3SOL    HW2   11   2.613   0.447   1.042 -3.1680 -0.2136  3.4006
    3SOL     MW   12   2.642   0.428   0.954 -0.6276 -0.3688  0.3163
    4SOL     OW   13   2.988   1.666   0.611 -0.6546 -0.4811 -0.0805
    4SOL    HW1   14   2.927   1.730   0.564 -0.7006  0.0369 -0.3509
    4SOL    HW2   15   3.033   1.629   0.529  0.2017  0.6914 -3.1397
    4SOL     MW   16   2.986   1.670   0.594 -0.5477 -0.2581 -0.5198
    5SOL     OW   17   1.740   1.512   0.513  0.1873 -0.0403  0.0829
    5SOL    HW1   18   1.775   1.448   0.577  1.6763 -1.6508 -0.8075
    5SOL    HW2   19   1.651   1.491   0.521  1.9267  2.6154  0.7168
    5SOL     MW   20   1.733   1.501   0.522  0.6133  0.0976  0.0491
    6SOL     OW   21   0.799   1.436   0.607 -0.0749 -0.0283 -0.0135
    6SOL    HW1   22   0.704   1.431   0.629  1.1529 -3.6245 -0.2461
    6SOL    HW2   23   0.831   1.365   0.657 -1.2830 -1.3364 -0.9226
    6SOL     MW   24   0.791   1.426   0.617 -0.0723 -0.6754 -0.1641
    7SOL     OW   25   2.048   1.107   3.046  0.3137 -0.9385 -0.2187
    7SOL    HW1   26   2.088   1.174   2.989 -0.3500 -1.9715  1.0984
    7SOL    HW2   27   2.099   1.105   3.127 -1.5228  0.4983 -0.0208
    7SOL     MW   28   2.060   1.116   3.049 -0.0162 -0.8853 -0.0188
    8SOL     OW   29   0.912   1.406   1.049 -0.0309  0.1253  0.5485
    8SOL    HW1   30   1.010   1.408   1.072  1.0914  0.3693  1.3065
    8SOL    HW2   31   0.881   1.334   1.109  1.6456 -2.2585  1.5634
    8SOL     MW   32   0.921   1.397   1.060  0.3384 -0.1570  0.7824
    9SOL     OW   33   1.019   0.523   1.407  0.0105  0.5201  0.1293
    9SOL    HW1   34   0.987   0.449   1.356 -0.5239 -1.7496 -0.9369
    9SOL    HW2   35   1.054   0.475   1.485  0.1086 -1.3134  1.5896
    9SOL     MW   36   1.020   0.507   1.411 -0.0471 -0.0212  0.1813
   10SOL     OW   37   0.260   0.770   0.454 -0.7358  0.0394 -0.1866
   10SOL    HW1   38   0.346   0.797   0.412  1.1876 -2.7751 -1.0984
   10SOL    HW2   39   0.239   0.841   0.518 -1.9941 -0.9091  3.1710
   10SOL     MW   40   0.269   0.783   0.457 -0.6480 -0.4571  0.1361
   11SOL     OW   41   0.806   1.145   1.733  0.2337 -0.0020  0.2184
   11SOL    HW1   42   0.860   1.102   1.794  1.0063  2.1677 -1.1548
   11SOL    HW2   43   0.816   1.075   1.668 -1.3258  3.0284 -1.7838
   11SOL     MW   44   0.814   1.130   1.732  0.1299  0.6841 -0.2270
   12SOL     OW   45   0.062   1.088   0.864  0.0208 -0.3696 -0.7653
   12SOL    HW1   46   0.090   1.164   0.923  2.2661  0.6358  3.8746
   12SOL    HW2   47  -0.013   1.123   0.811 -2.9169  1.2483  2.8727
   12SOL     MW   48   0.056   1.103   0.865 -0.0706 -0.0234  0.3269
   13SOL     OW   49   1.857   1.436   1.343  0.5991 -0.2963 -0.5118
   13SOL    HW1   50   1.895   1.377   1.276  2.1464  1.5075  1.5047
   13SOL    HW2   51   1.893   1.523   1.322 -0.2449  0.1632 -1.1280
   13SOL     MW   52   1.867   1.440   1.331  0.6919  0.0023 -0.3271
   14SOL     OW   53   0.644   0.418   1.881 -0.1291  0.4877  0.0919
   14SOL    HW1   54   0.602   0.337   1.866  0.5322 -0.2801  0.8345
   14SOL    HW2   55   0.704   0.390   1.958 -2.9190 -0.2809  0.6641
   14SOL     MW   56   0.646   0.404   1.890 -0.4099  0.2850  0.2654
   15SOL     OW   57   1.950   0.360   1.007 -0.3336 -0.4709 -0.3291
   15SOL    HW1   58   1.919   0.430   1.067 -0.7279 -0.8183 -0.2412
   15SOL    HW2   59   2.012   0.411   0.951 -0.3417 -1.1622 -1.6494
   15SOL     MW   60   1.954   0.376   1.008 -0.3867 -0.6080 -0.4917
   16SOL     OW   61   0.176   1.817   0.322  0.5269 -0.1406 -0.1276
   16SOL    HW1   62   0.253   1.783   0.365  1.3353  0.4093 -0.7260
   16SOL    HW2   63   0.183   1.912   0.339  0.0031 -1.4394 -0.4601
   16SOL     MW   64   0.187   1.825   0.330  0.5644 -0.2394 -0.2504
   17SOL     OW   65   1.134   0.907   1.454 -0.0187 -0.0669 -0.5124
   17SOL    HW1   66   1.192   0.887   1.524  2.1630 -0.4078 -1.7053
   17SOL    HW2   67   1.045   0.893   1.491  1.3431 -0.7417 -2.1369
   17SOL     MW   68   1.130   0.902   1.468  0.4488 -0.2009 -0.8841
   18SOL     OW   69   0.045   1.580   0.407 -0.2980  0.3031  0.2345
   18SOL    HW1   70   0.076   1.668   0.379 -0.5755 -0.9118 -0.7987
   18SOL    HW2   71   0.030   1.528   0.333 -0.7943  0.3366  0.0890
   18SOL     MW   72   0.047   1.585   0.394 -0.4001  0.1473  0.0790
   19SOL     OW   73   0.119   1.300   1.018 -0.4848  0.0831  0.1356
   19SOL    HW1   74   0.170   1.343   0.951  0.8952 -2.7610  1.4836
   19SOL    HW2   75   0.025   1.333   1.028 -4.7765 -2.8891  2.8219
   19SOL     MW   76   0.113   1.310   1.010 -0.8689 -0.6843  0.6679
   20SOL     OW   77   0.457   2.128   1.178  0.1781  0.2328  0.6713
   20SOL    HW1   78   0.414   2.046   1.136  0.5322 -1.8493 -0.9754
   20SOL    HW2   79   0.393   2.158   1.247  1.4965 -2.0456 -1.8896
   20SOL     MW   80   0.443   2.121   1.182  0.3988 -0.3425  0.1161
   21SOL     OW   81   0.499   0.831   0.366 -0.6408  0.3459  0.6542
   21SOL    HW1   82   0.561   0.791   0.428  1.9669 -0.3724  0.0607
   21SOL    HW2   83   0.543   0.817   0.283 -1.0835 -1.3930  1.9103
   21SOL     MW   84   0.513   0.824   0.363 -0.3552  0.0217  0.7416
   22SOL     OW   85   1.546   0.711   1.059  0.7015 -0.4765 -0.1580
   22SOL    HW1   86   1.490   0.682   0.981  1.6034 -0.1237 -0.1955
   22SOL    HW2   87   1.517   0.803   1.065  0.3550  1.5514 -1.6841
   22SOL     MW   88   1.534   0.719   1.049  0.7748 -0.1624 -0.3643
   23SOL     OW   89   0.009   0.772   0.659 -0.4336 -0.1143 -0.0837
   23SOL    HW1   90   0.063   0.703   0.701  0.5316  1.3692  1.7391
   23SOL    HW2   91   0.064   0.850   0.672  1.2933 -3.0831  0.5069
   23SOL     MW   92   0.024   0.773   0.667 -0.0784 -0.3103  0.2348
   24SOL     OW   93   1.997   2.226   0.086  0.1136 -0.2295 -0.8313
   24SOL    HW1   94   2.008   2.209   0.182 -3.0093 -0.7358  2.4935
   24SOL    HW2   95   2.015   2.145   0.031 -0.2156 -1.5343 -1.8609
   24SOL     MW   96   2.001   2.213   0.091 -0.3419 -0.4684 -0.5285
   25SOL     OW   97   0.266   1.412   0.513  0.2817 -0.0516  0.1634
   25SOL    HW1   98   0.203   1.474   0.477 -1.0336 -1.5054  1.9555
   25SOL    HW2   99   0.341   1.426   0.466  0.5207  1.1020  3.3946
   25SOL     MW  100   0.268   1.422   0.502  0.1397 -0.0912  0.8262
   26SOL     OW  101   2.036   0.989   0.348  0.0400  0.0835 -0.1861
   26SOL    HW1  102   1.978   1.040   0.399  0.8836  0.2989 -0.3409
   26SOL    HW2  103   2.079   1.062   0.306  1.9556  1.4235  2.4465
   26SOL     MW  104   2.034   1.005   0.349  0.4041  0.2887  0.1409
   27SOL     OW  105   2.043   1.416   0.264 -0.1670  0.3906 -0.1365
   27SOL    HW1  106   1.957   1.445   0.291 -0.5697 -1.3661  0.8111
   27SOL    HW2  107   2.100   1.469   0.322 -0.1106  0.2277 -1.4809
   27SOL     MW  108   2.039   1.427   0.275 -0.2127  0.1374 -0.1888
   28SOL     OW  109   0.439   0.977   1.986  0.3532  0.0265 -0.1413
   28SOL    HW1  110   0.511   1.007   2.049  2.9156 -1.0686 -2.4806
   28SOL    HW2  111   0.375   0.916   2.024  3.2828 -0.0880 -4.0740
   28SOL     MW  112   0.440   0.973   1.999  1.0778 -0.1331 -0.9688
   29SOL     OW  113   0.264   1.437   0.808  0.3077  0.2120  0.0475
   29SOL    HW1  114   0.232   1.528   0.793  1.1443 -0.0477 -1.7529
   29SOL    HW2  115   0.277   1.404   0.722  2.2582 -0.2716  1.3962
   29SOL     MW  116   0.262   1.445   0.795  0.6754  0.1140 -0.0121
   30SOL     OW  117   0.833   1.180   1.218 -0.3278  0.4166 -0.0223
   30SOL    HW1  118   0.743   1.193   1.245  0.9590 -0.0219 -2.0020
   30SOL    HW2  119   0.890   1.187   1.298  2.3144 -1.2088  2.2250
   30SOL     MW  120   0.829   1.183   1.232  0.1906  0.1443  0.0130
   31SOL     OW  121   0.393   0.137   0.188 -0.1601  0.2492 -0.0917
   31SOL    HW1  122   0.409   0.073   0.253 -0.7599  0.5757  0.2280
   31SOL    HW2  123   0.418   0.099   0.100 -4.3359 -1.0664  2.5982
   31SOL     MW  124   0.398   0.123   0.185 -0.7902  0.1187  0.3054
   32SOL     OW  125   2.807   0.980   1.119  0.6138 -0.2241  0.3112
   32SOL    HW1  126   2.730   0.934   1.095 -1.4376  0.3136  2.8327
   32SOL    HW2  127   2.877   0.934   1.080 -0.7872 -0.9847 -1.5791
   32SOL     MW  128   2.806   0.968   1.111  0.1583 -0.2535  0.3945
   33SOL     OW  129   1.761   1.292   0.327 -0.4062 -0.1160 -0.1263
   33SOL    HW1  130   1.797   1.242   0.401 -0.3477 -0.9623  1.3233
   33SOL    HW2  131   1.747   1.375   0.370 -0.7260 -0.3762 -0.4213
   33SOL     MW  132   1.764   1.296   0.342 -0.4407 -0.2620  0.0261
   34SOL     OW  133   1.235   1.852   1.074 -0.0373 -0.1697  0.5648
   34SOL    HW1  134   1.143   1.872   1.087 -1.5108  0.6936  0.1278
   34SOL    HW2  135   1.280   1.902   1.138 -0.1598 -0.0881 -1.7341
   34SOL     MW  136   1.229   1.861   1.084 -0.2479 -0.0451  0.2038
   35SOL     OW  137   0.442   0.222   1.818 -0.5852  0.0329  0.0247
   35SOL    HW1  138   0.444   0.161   1.892 -1.0594 -1.7231 -2.2680
   35SOL    HW2  139   0.455   0.174   1.739 -0.2637  0.0511 -1.1379
   35SOL     MW  140   0.444   0.208   1.818 -0.6054 -0.1964 -0.4312
   36SOL     OW  141   1.944   1.975   0.535 -0.1492  0.1051  0.5564
   36SOL    HW1  142   1.953   1.957   0.439 -1.1866  2.1634  1.6113
   36SOL    HW2  143   1.965   1.883   0.569 -0.8867  0.0534 -0.1213
   36SOL     MW  144   1.948   1.961   0.527 -0.3834  0.3698  0.6062
   37SOL     OW  145   1.776   1.995   0.987  0.3454 -0.0830 -0.1689
   37SOL    HW1  146   1.713   1.942   0.933 -0.9181 -2.1118 -0.7819
   37SOL    HW2  147   1.726   2.044   1.050  1.4982 -0.5073  2.0584
   37SOL     MW  148   1.761   1.994   0.988  0.3308 -0.4066  0.0441
   38SOL     OW  149   2.823   0.899   0.113  0.1002 -0.2775  0.0274
   38SOL    HW1  150   2.857   0.904   0.203 -2.3845 -0.9021  2.1178
   38SOL    HW2  151   2.910   0.899   0.066  0.0355 -1.6139  1.9139
   38SOL     MW  152   2.839   0.900   0.119 -0.2362 -0.5362  0.5521
   39SOL     OW  153   1.443   0.621   0.792 -0.0971  0.2553 -0.0466
   39SOL    HW1  154   1.408   0.533   0.805 -0.6109 -0.3765  0.6633
   39SOL    HW2  155   1.360   0.668   0.776 -4.0035  0.7983  1.7437
   39SOL     MW  156   1.427   0.615   0.792 -0.6803  0.2436  0.2833
   40SOL     OW  157   1.154   1.909   0.324 -0.0505  0.4517  0.6373
   40SOL    HW1  158   1.221   1.841   0.347 -2.9768 -2.3679 -0.2276
   40SOL    HW2  159   1.146   1.983   0.386 -1.7769 -1.2522  0.4147
   40SOL     MW  160   1.162   1.910   0.335 -0.6644 -0.1451  0.4938
   41SOL     OW  161   0.563   0.564   1.635 -1.0328  0.2426  0.8401
   41SOL    HW1  162   0.641   0.618   1.629 -1.7285  1.1896  3.4974
   41SOL    HW2  163   0.578   0.529   1.718 -0.4681 -1.1018 -1.7167
   41SOL     MW  164   0.576   0.566   1.645 -1.0501  0.1901  0.8534
   42SOL     OW  165   1.289   3.003   1.989 -0.4029  0.2020 -0.0789
   42SOL    HW1  166   1.211   3.022   2.044  0.4233 -2.9203 -0.7557
   42SOL    HW2  167   1.351   2.947   2.042  3.0018  2.0174  1.2983
   42SOL     MW  168   1.287   2.998   2.003  0.1554  0.0296  0.0135
   43SOL     OW  169   1.568   0.113   1.702 -0.8253  0.4482 -0.0242
   43SOL    HW1  170   1.612   0.079   1.620  0.5399 -1.5015  3.3078
   43SOL    HW2  171   1.477   0.081   1.703 -0.4241  1.0703 -0.4102
   43SOL     MW  172   1.562   0.104   1.691 -0.5922  0.2730  0.3645
   44SOL     OW  173   1.048   0.798   1.009 -0.2500  0.3047 -0.0052
   44SOL    HW1  174   1.101   0.878   1.007  1.3802 -0.6587 -3.6462
   44SOL    HW2  175   1.035   0.782   1.102  1.0327 -1.2424  1.2760
   44SOL     MW  176   1.053   0.806   1.021  0.1343 -0.0265 -0.3166
   45SOL     OW  177   1.224   0.761   0.665 -0.5718  0.1925 -0.2440
   45SOL    HW1  178   1.143   0.807   0.664  0.5930  0.3127  1.6940
   45SOL    HW2  179   1.215   0.694   0.601  2.3453 -0.1410 -0.1979
   45SOL     MW  180   1.212   0.758   0.656 -0.0332  0.1643  0.0178
   46SOL     OW  181   0.545   1.177   0.624  0.1018  0.5533 -0.4889
   46SOL    HW1  182   0.511   1.158   0.536  2.9304 -0.2662 -0.8401
   46SOL    HW2  183   0.635   1.141   0.610 -2.9600  1.7171 -1.2973
   46SOL     MW  184   0.552   1.170   0.611  0.0710  0.5987 -0.6419
   47SOL     OW  185   0.166   1.980   1.936  0.1853 -0.0128  0.3386
   47SOL    HW1  186   0.256   1.952   1.956  0.1058  2.0518  2.2795
   47SOL    HW2  187   0.144   2.012   2.023  0.8500 -1.3907 -0.8708
   47SOL     MW  188   0.175   1.981   1.950  0.2625  0.0778  0.4351
   48SOL     OW  189   1.082   0.505   0.968 -0.4259  0.5960  0.5074
   48SOL    HW1  190   0.996   0.460   0.973 -1.9351 -0.4797 -1.1890
   48SOL    HW2  191   1.062   0.592   0.977  1.4619 -1.0884  0.0045
   48SOL     MW  192   1.068   0.511   0.970 -0.3760  0.2318  0.2172
   49SOL     OW  193   1.816   0.727   1.563 -0.5638 -0.1788 -0.3808
   49SOL    HW1  194   1.767   0.666   1.622  1.2840  1.3870  0.2854
   49SOL    HW2  195   1.876   0.664   1.527  0.6584 -2.3325  1.7030
   49SOL     MW  196   1.818   0.711   1.566 -0.1587 -0.2564 -0.0180
   50SOL     OW  197   1.262   1.062   0.514  0.6016 -0.3616 -0.3991
   50SOL    HW1  198   1.215   1.093   0.594  0.0403  3.1573  1.8446
   50SOL    HW2  199   1.328   1.006   0.553  1.1388 -2.0033 -0.8678
   50SOL     MW  200   1.265   1.059   0.530  0.5984 -0.1140 -0.1649
   51SOL     OW  201   0.302   2.893   0.918  0.8542 -0.3233 -0.0430
   51SOL    HW1  202   0.388   2.850   0.927 -2.6584  0.0789 -2.3955
   51SOL    HW2  203   0.299   2.937   1.005 -1.3931  0.0194 -1.0751
   51SOL     MW  204   0.313   2.893   0.930  0.0942 -0.2251 -0.4896
   52SOL     OW  205   0.795   1.802   0.476  0.1923  0.0142 -0.2161
   52SOL    HW1  206   0.794   1.897   0.491 -3.0011 -1.1639 -0.2177
   52SOL    HW2  207   0.748   1.794   0.392 -3.3034  0.3878  1.9591
   52SOL     MW  208   0.789   1.814   0.467 -0.6902 -0.0919  0.0707
   53SOL     OW  209   0.451   2.115   0.570  0.1595 -0.0511 -0.5969
   53SOL    HW1  210   0.373   2.085   0.519  1.5522  1.3669 -2.3600
   53SOL    HW2  211   0.440   2.209   0.581 -0.3467  0.3375 -2.9172
   53SOL     MW  212   0.440   2.123   0.565  0.2765  0.1872 -1.1356
   54SOL     OW  213   2.048   0.943   0.808 -0.5724 -0.0909 -0.3597
   54SOL    HW1  214   2.101   0.961   0.730 -1.1241 -0.4167 -0.1041
   54SOL    HW2  215   2.020   0.850   0.806 -4.9039  0.7980 -2.1618
   54SOL     MW  216   2.052   0.933   0.797 -1.2167 -0.0166 -0.5637
   55SOL     OW  217   0.529   1.554   1.636 -0.3340  0.3075 -0.6738
   55SOL    HW1  218   0.456   1.592   1.585  1.7967  2.9723  0.0903
   55SOL    HW2  219   0.565   1.490   1.579 -0.6335  0.5794 -0.5236
   55SOL     MW  220   0.524   1.551   1.622 -0.0923  0.6950 -0.5531
   56SOL     OW  221   0.593   0.787   0.110  0.3330 -0.2376  0.8086
   56SOL    HW1  222   0.614   0.877   0.097  0.7265  0.5507 -0.4523
   56SOL    HW2  223   0.511   0.779   0.055 -0.4433  0.4770 -0.7546
   56SOL     MW  224   0.585   0.798   0.101  0.2825 -0.0393  0.4360
   57SOL     OW  225   1.165   1.259   1.115 -0.0477  0.6883  0.2797
   57SOL    HW1  226   1.258   1.268   1.081  0.3922  0.1690  1.0547
   57SOL    HW2  227   1.179   1.211   1.192 -0.3737  3.0559 -1.4395
   57SOL     MW  228   1.179   1.254   1.120 -0.0327  0.9322  0.1551
   58SOL     OW  229   0.554   1.167   1.333  0.5023 -0.0517  0.3034
   58SOL    HW1  230   0.498   1.244   1.303 -2.3962 -0.2625  0.6212
   58SOL    HW2  231   0.552   1.176   1.425  1.8258  1.5075 -0.5979
   58SOL     MW  232   0.547   1.178   1.341  0.2945  0.1262  0.2264
   59SOL     OW  233   1.553   1.711   0.354 -0.2653  0.1447  0.1848
   59SOL    HW1  234   1.586   1.780   0.412 -0.2436  1.2647  1.0998
   59SOL    HW2  235   1.457   1.714   0.368  2.5275 -0.6234 -0.9273
   59SOL     MW  236   1.545   1.721   0.363  0.1061  0.1911  0.1588
   60SOL     OW  237   0.057   0.213   1.576  0.8031  0.5501  0.0755
   60SOL    HW1  238  -0.030   0.242   1.595  3.6722 -3.2818 -0.0145
   60SOL    HW2  239   0.081   0.149   1.646 -1.3300 -0.8988  1.9707
   60SOL     MW  240   0.049   0.208   1.588  0.9002 -0.1466  0.3137
   61SOL     OW  241   2.040   1.500   3.086  0.3916 -0.2896 -0.1761
   61SOL    HW1  242   2.059   1.493   3.183  0.3609 -2.2227  0.1303
   61SOL    HW2  243   2.099   1.437   3.040  1.5610 -1.0395  1.5498
   61SOL     MW  244   2.051   1.491   3.093  0.5418 -0.6436  0.0920
   62SOL     OW  245   0.588   1.734   0.624 -0.7853 -0.1784 -0.2286
   62SOL    HW1  246   0.681   1.750   0.583  2.0060 -0.1537 -1.5152
   62SOL    HW2  247   0.576   1.641   0.640  0.9164  0.3517 -0.1633
   62SOL     MW  248   0.599   1.724   0.621 -0.1925 -0.1052 -0.3897
   63SOL     OW  249   1.710   0.685   0.716 -0.1642  0.1468 -0.7738
   63SOL    HW1  250   1.727   0.760   0.657  0.7416  1.1297  0.7725
   63SOL    HW2  251   1.615   0.686   0.734 -1.0490  0.1890 -3.6379
   63SOL     MW  252   1.700   0.695   0.710 -0.1614  0.2820 -0.9477
   64SOL     OW  253   0.170   1.698   0.814  0.0616 -0.3441  0.3255
   64SOL    HW1  254   0.247   1.749   0.774  1.3582  0.9069  3.1722
   64SOL    HW2  255   0.095   1.766   0.819  1.9103  0.0557  0.3003
   64SOL     MW  256   0.170   1.714   0.810  0.4766 -0.1263  0.6977
   65SOL     OW  257   1.593   2.292   0.386  0.5608 -0.0758  0.3346
   65SOL    HW1  258   1.629   2.231   0.447 -0.2917  0.5567  1.0038
   65SOL    HW2  259   1.563   2.361   0.447 -1.6565  2.1975 -0.7548
   65SOL     MW  260   1.594   2.293   0.402  0.1558  0.3076  0.2791
   66SOL     OW  261   0.278   0.513   0.535 -0.1197  0.3847  0.5095
   66SOL    HW1  262   0.354   0.472   0.477  0.1613  0.0255  0.3579
   66SOL    HW2  263   0.265   0.600   0.503 -2.7683  1.8523 -0.4166
   66SOL     MW  264   0.286   0.519   0.523 -0.4321  0.5309  0.3673
   67SOL     OW  265   1.551   0.059   2.042 -0.3819  0.4731 -0.4122
   67SOL    HW1  266   1.603   0.061   1.960  1.2377 -2.6246  1.8103
   67SOL    HW2  267   1.531  -0.037   2.056  0.2120 -1.4107  0.4929
   67SOL     MW  268   1.556   0.047   2.033 -0.0899 -0.1842  0.0005
   68SOL     OW  269   0.725   0.071   2.921  0.6075 -0.0535 -0.0671
   68SOL    HW1  270   0.752   0.140   2.860 -1.5656  0.2374 -1.8193
   68SOL    HW2  271   0.780   0.083   2.998 -0.2027 -1.2308 -2.1091
   68SOL     MW  272   0.736   0.082   2.923  0.2139 -0.1705 -0.5677
   69SOL     OW  273   1.042   0.244   1.981  0.4114 -0.2432 -0.5666
   69SOL    HW1  274   1.134   0.262   1.993 -1.1589 -1.6456  0.7490
   69SOL    HW2  275   1.029   0.153   2.011  0.8555 -2.7055  0.9160
   69SOL     MW  276   1.053   0.235   1.986  0.2628 -0.7531 -0.1974
   70SOL     OW  277   0.537   1.738   1.129  0.1910  0.0854 -0.3309
   70SOL    HW1  278   0.576   1.750   1.218  0.8339  0.4776  0.1894
   70SOL    HW2  279   0.610   1.762   1.076  1.2566 -1.0574  2.2315
   70SOL     MW  280   0.552   1.743   1.134  0.4164 -0.0136  0.0759
   71SOL     OW  281   1.582   0.498   1.244  0.1774 -0.4246 -0.1453
   71SOL    HW1  282   1.530   0.558   1.296  1.8777  1.3989 -0.1584
   71SOL    HW2  283   1.574   0.534   1.157 -0.4087 -0.6053 -0.1281
   71SOL     MW  284   1.574   0.510   1.240  0.3244 -0.2079 -0.1448
   72SOL     OW  285   0.753   1.847   0.957 -0.1877 -0.0268 -0.0101
   72SOL    HW1  286   0.742   1.903   0.877 -1.2896 -3.3656 -2.8130
   72SOL    HW2  287   0.741   1.755   0.921 -0.5622 -3.0265 -0.6803
   72SOL     MW  288   0.750   1.842   0.941 -0.3825 -0.8631 -0.4683
   73SOL     OW  289   1.190   0.712   1.270  0.6835 -0.5440 -0.1848
   73SOL    HW1  290   1.127   0.649   1.308 -0.1193 -0.2052 -2.1245
   73SOL    HW2  291   1.174   0.793   1.326 -1.0794  2.1727 -1.9782
   73SOL     MW  292   1.179   0.715   1.282  0.3450 -0.1408 -0.6774
   74SOL     OW  293   2.711   0.137   0.968 -0.2816  0.0814 -0.3007
   74SOL    HW1  294   2.775   0.111   0.907  0.9394  1.2590 -0.0211
   74SOL    HW2  295   2.689   0.231   0.959 -1.2847 -1.4069  0.0669
   74SOL     MW  296   2.716   0.146   0.959 -0.2528  0.0404 -0.2153
   75SOL     OW  297   1.611   1.376   0.107  0.2286  0.7391 -0.0861
   75SOL    HW1  298   1.659   1.460   0.105  1.3912  1.2504 -0.3538
   75SOL    HW2  299   1.658   1.329   0.178  1.3468  2.3680 -2.9286
   75SOL     MW  300   1.624   1.381   0.116  0.5295  1.0215 -0.4965
   76SOL     OW  301   2.993   0.573   0.481 -0.6533 -0.6477  0.0016
   76SOL    HW1  302   3.033   0.632   0.546  0.2700 -0.9777  0.0316
   76SOL    HW2  303   3.064   0.548   0.417 -0.0360  0.6411 -2.4716
   76SOL     MW  304   3.007   0.577   0.481 -0.4500 -0.5212 -0.3207
   77SOL     OW  305   0.813   0.531   0.471 -0.0881  0.5023  0.3742
   77SOL    HW1  306   0.780   0.556   0.381  0.3232  0.6278 -0.9733
   77SOL    HW2  307   0.761   0.454   0.496  0.5412  2.3808 -1.0344
   77SOL     MW  308   0.801   0.524   0.462  0.0492  0.7667  0.0105
   78SOL     OW  309   0.726   0.902   1.300  0.3019 -0.2432 -0.5156
   78SOL    HW1  310   0.689   0.989   1.298 -2.1675  0.4294  0.3283
   78SOL    HW2  311   0.665   0.850   1.242 -1.1551 -2.0715 -0.4873
   78SOL     MW  312   0.713   0.906   1.292 -0.2162 -0.3957 -0.4005
   79SOL     OW  313   1.963   1.684   0.594  0.3008 -0.0079  0.0139
   79SOL    HW1  314   1.885   1.643   0.554 -0.3927 -0.7457  3.0717
   79SOL    HW2  315   1.946   1.673   0.691  0.2323 -1.5276 -0.4616
   79SOL     MW  316   1.950   1.677   0.602  0.2002 -0.3058  0.3546
   80SOL     OW  317   0.081   0.942   0.334  0.3428  0.1684 -0.3057
   80SOL    HW1  318  -0.011   0.907   0.353  0.2857 -0.2202  2.1873
   80SOL    HW2  319   0.140   0.874   0.365  1.3914 -0.0854  0.6945
   80SOL     MW  320   0.077   0.928   0.340  0.4736  0.0836  0.1552
   81SOL     OW  321   1.923   1.886   0.274 -0.2219 -0.6515  0.3155
   81SOL    HW1  322   1.879   1.800   0.270 -1.3292 -0.6393 -2.0312
   81SOL    HW2  323   1.860   1.952   0.241 -3.7869 -0.1864  0.3435
   81SOL     MW  324   1.909   1.884   0.269 -0.8383 -0.5885  0.0096
   82SOL     OW  325   0.793   1.013   0.551 -0.6857 -0.1176  0.3833
   82SOL    HW1  326   0.790   1.004   0.448  1.3832 -0.8531  0.1348
   82SOL    HW2  327   0.764   0.926   0.571  1.3375  0.6685  1.3416
   82SOL     MW  328   0.789   1.000   0.540 -0.1458 -0.1109  0.4770
   83SOL     OW  329   0.065   0.644   1.459 -0.1565 -0.2024 -0.6090
   83SOL    HW1  330   0.087   0.712   1.387  1.4089 -1.0817  0.5850
   83SOL    HW2  331   0.151   0.609   1.489 -0.3530 -0.8818  2.5186
   83SOL     MW  332   0.079   0.648   1.454  0.0241 -0.4080 -0.0388
   84SOL     OW  333   0.120   0.250   1.021 -0.5863 -0.5609  0.3541
   84SOL    HW1  334   0.027   0.283   1.003  0.2066 -2.1417  2.9345
   84SOL    HW2  335   0.112   0.180   1.084  1.4471  0.8358  1.1610
   84SOL     MW  336   0.107   0.245   1.027 -0.2134 -0.5851  0.8010
   85SOL     OW  337   0.468   0.445   0.727  0.3920  0.0129  0.4741
   85SOL    HW1  338   0.404   0.465   0.660 -2.0261  0.2022 -0.0240
   85SOL    HW2  339   0.446   0.353   0.753 -0.4542 -1.1052  2.1770
   85SOL     MW  340   0.456   0.436   0.722 -0.0387 -0.1096  0.6331
   86SOL     OW  341   1.169   0.263   1.131  0.2842 -0.1645  0.2196
   86SOL    HW1  342   1.142   0.345   1.096 -0.4345  1.1676  0.1288
   86SOL    HW2  343   1.177   0.286   1.223  0.4650 -1.5048  0.2712
   86SOL     MW  344   1.166   0.277   1.138  0.2132 -0.1656  0.2144
   87SOL     OW  345   1.274   1.473   1.325  0.4196  0.1249 -0.4727
   87SOL    HW1  346   1.267   1.530   1.248  0.4477  0.0103 -1.2379
   87SOL    HW2  347   1.246   1.388   1.287 -0.0321  1.7574 -1.5944
   87SOL     MW  348   1.269   1.469   1.310  0.3637  0.3252 -0.7217
   88SOL     OW  349   1.186   1.027   0.982 -0.1466  0.2905  0.1771
   88SOL    HW1  350   1.276   0.995   0.974 -0.4737  0.2005  1.7619
   88SOL    HW2  351   1.177   1.112   1.027 -1.4198 -1.9114 -1.1915
   88SOL     MW  352   1.197   1.034   0.987 -0.3577 -0.0119  0.2056
   89SOL     OW  353   1.757   0.706   0.364 -0.3691  0.4687 -0.2447
   89SOL    HW1  354   1.745   0.615   0.402  1.4136 -0.8188 -0.4882
   89SOL    HW2  355   1.834   0.691   0.311 -1.2885 -0.5788 -1.5005
   89SOL     MW  356   1.766   0.692   0.362 -0.2552  0.1606 -0.4425
   90SOL     OW  357   0.742   1.143   2.731  0.6210 -0.5601 -0.3096
   90SOL    HW1  358   0.817   1.091   2.740  1.3802  0.4451  1.9327
   90SOL    HW2  359   0.743   1.166   2.820  1.7314  3.7216  0.6720
   90SOL     MW  360   0.752   1.139   2.744  0.8677  0.1375  0.1158
   91SOL     OW  361   2.190   0.670   0.434  0.5238  0.0009 -0.0697
   91SOL    HW1  362   2.264   0.691   0.377  0.4496  1.5522  0.8795
   91SOL    HW2  363   2.172   0.579   0.423  1.6261 -0.1053  0.0339
   91SOL     MW  364   2.197   0.661   0.425  0.6594  0.1916  0.0692
   92SOL     OW  365   1.720   0.902   0.553 -0.3654 -0.4102  0.5066
   92SOL    HW1  366   1.626   0.930   0.554  1.9714  1.9397  2.0770
   92SOL    HW2  367   1.723   0.837   0.483  0.5829  1.9564  1.6342
   92SOL     MW  368   1.708   0.897   0.544  0.0681  0.2121  0.8626
   93SOL     OW  369   0.968   0.237   0.394  0.6313 -0.1584  0.0093
   93SOL    HW1  370   0.908   0.304   0.425  0.5871  0.8142 -0.0472
   93SOL    HW2  371   0.996   0.277   0.310 -2.2403  1.5176  0.1818
   93SOL     MW  372   0.964   0.251   0.387  0.2466  0.1910  0.0246
   94SOL     OW  373   1.816   1.426   1.648  0.6311 -0.0599 -0.0214
   94SOL    HW1  374   1.851   1.412   1.562  3.3565 -2.0697 -0.5677
   94SOL    HW2  375   1.788   1.335   1.676  0.4209 -2.0841 -0.4578
   94SOL     MW  376   1.817   1.413   1.640  0.9630 -0.5922 -0.1510
   95SOL     OW  377   0.740   1.572   0.914  0.3642  0.7271  0.2678
   95SOL    HW1  378   0.786   1.524   0.980  0.1894 -0.6611 -1.4463
   95SOL    HW2  379   0.652   1.535   0.936  0.3875 -0.1907  0.9567
   95SOL     MW  380   0.734   1.561   0.926  0.3442  0.4228  0.1326
   96SOL     OW  381   1.276   1.867   1.661  0.2234 -0.3755 -0.6005
   96SOL    HW1  382   1.178   1.860   1.681 -3.7578  2.4160 -2.9414
   96SOL    HW2  383   1.304   1.787   1.636 -1.5034  2.7504  0.2275
   96SOL     MW  384   1.267   1.856   1.660 -0.5297  0.4052 -0.8001
   97SOL     OW  385   1.262   1.445   0.738 -0.0573  0.5444  0.3272
   97SOL    HW1  386   1.273   1.481   0.825 -1.3501  2.1459  1.0101
   97SOL    HW2  387   1.172   1.478   0.722 -0.8488  1.1518  1.2098
   97SOL     MW  388   1.251   1.454   0.748 -0.3323  0.8358  0.5338
   98SOL     OW  389   1.436   1.282   1.042 -0.4552 -0.7928 -0.0101
   98SOL    HW1  390   1.493   1.361   1.072 -2.3484  2.7266 -1.3856
   98SOL    HW2  391   1.489   1.255   0.965 -1.2364 -0.8318 -0.5236
   98SOL     MW  392   1.451   1.289   1.036 -0.8080 -0.3336 -0.2594
   99SOL     OW  393   1.346   0.344   1.343 -0.3188 -0.3443  0.1168
   99SOL    HW1  394   1.413   0.354   1.276 -3.6039  0.0193 -0.3330
   99SOL    HW2  395   1.386   0.348   1.427 -0.3327 -3.9530 -0.0146
   99SOL     MW  396   1.360   0.346   1.345 -0.7541 -0.7725  0.0401
  100SOL     OW  397   1.007   1.180   1.445 -0.1247 -0.2178  0.3679
  100SOL    HW1  398   1.042   1.219   1.529  0.1205  2.0863 -0.2800
  100SOL    HW2  399   0.994   1.087   1.459  0.9837  0.9270  0.5114
  100SOL     MW  400   1.010   1.173   1.458  0.0539  0.2373  0.3014
  101SOL     OW  401   0.482   1.102   0.347  0.1024  0.4804  0.6240
  101SOL    HW1  402   0.489   1.006   0.353 -1.0860 -2.2100  0.0003
  101SOL    HW2  403   0.483   1.131   0.257 -2.1540  0.3401 -2.3834
  101SOL     MW  404   0.483   1.093   0.335 -0.3521  0.1069  0.1449
  102SOL     OW  405   2.931   0.645   1.082 -0.0813  0.3693  0.0127
  102SOL    HW1  406   2.984   0.726   1.080  0.7570 -1.9213 -1.8961
  102SOL    HW2  407   2.925   0.624   1.176 -0.5562 -1.9716 -1.7724
  102SOL     MW  408   2.937   0.653   1.094 -0.0333 -0.2418 -0.4747
  103SOL     OW  409   1.795   0.277   1.797 -0.8361  1.0889  0.4871
  103SOL    HW1  410   1.734   0.202   1.761 -0.4612  1.1758  0.3969
  103SOL    HW2  411   1.791   0.268   1.890  0.3210  0.1306 -2.9284
  103SOL     MW  412   1.786   0.266   1.805 -0.6339  0.9739  0.0246
  104SOL     OW  413   0.126   1.627   1.490  0.9481 -0.4134 -0.1332
  104SOL    HW1  414   0.088   1.667   1.572  2.9032 -3.9449 -0.1872
  104SOL    HW2  415   0.057   1.569   1.457 -3.4338 -2.4361 -0.0272
  104SOL     MW  416   0.112   1.624   1.496  0.6279 -1.1462 -0.1263
  105SOL     OW  417   0.023   1.214   0.433  0.2621  0.6119  0.0666
  105SOL    HW1  418   0.037   1.123   0.397  0.7165 -1.4216 -0.6555
  105SOL    HW2  419   0.112   1.251   0.460  0.0144 -1.2256  0.8382
  105SOL     MW  420   0.037   1.207   0.432  0.2894  0.1012  0.0731
  106SOL     OW  421   0.855   0.358   0.996  0.2243 -0.2707 -0.5401
  106SOL    HW1  422   0.787   0.417   0.957 -0.9912 -0.9132  1.0193
  106SOL    HW2  423   0.892   0.303   0.924  0.0364  0.1260 -0.2983
  106SOL     MW  424   0.851   0.359   0.982  0.0391 -0.3031 -0.3025
  107SOL     OW  425   0.798   2.174   2.992  0.2345  0.4583  0.0039
  107SOL    HW1  426   0.719   2.132   2.955  0.2637  0.4767 -0.5327
  107SOL    HW2  427   0.803   2.125   3.077  0.0249  0.9906  1.6372
  107SOL     MW  428   0.788   2.162   2.998  0.2107  0.5310  0.1486
  108SOL     OW  429   1.323   1.587   1.637  0.1980  1.0234  0.2328
  108SOL    HW1  430   1.260   1.535   1.576  0.8154 -1.6172  1.7093
  108SOL    HW2  431   1.411   1.547   1.641 -0.5634  2.4696  1.6830
  108SOL     MW  432   1.326   1.575   1.630  0.1790  0.8658  0.6189
  109SOL     OW  433   1.961   0.782   0.180 -0.0239  0.5704  1.0191
  109SOL    HW1  434   1.919   0.868   0.200 -1.6696  2.0163  0.5298
  109SOL    HW2  435   2.035   0.804   0.235  1.2547  0.8486  1.4083
  109SOL     MW  436   1.965   0.796   0.190 -0.0723  0.7979  1.0059
  110SOL     OW  437   0.377   1.897   0.713 -0.6904 -0.5059 -0.8374
  110SOL    HW1  438   0.442   1.830   0.691 -0.1131 -1.8924 -0.0136
  110SOL    HW2  439   0.416   1.981   0.682  1.2573 -1.8327 -3.4676
  110SOL     MW  440   0.390   1.900   0.706 -0.3573 -0.8639 -1.0757
  111SOL     OW  441   0.859   0.924   1.542 -0.0203 -0.7540  0.1299
  111SOL    HW1  442   0.808   0.929   1.458 -2.4191  1.0946 -2.3101
  111SOL    HW2  443   0.835   0.834   1.571  1.3537 -0.6970  0.2973
  111SOL     MW  444   0.849   0.913   1.534 -0.1555 -0.5026 -0.1700
  112SOL     OW  445   1.345   1.111   1.612  0.1417  0.2102 -0.0046
  112SOL    HW1  446   1.263   1.162   1.634 -0.2440  2.8924  0.5396
  112SOL    HW2  447   1.321   1.023   1.636  0.8015 -0.6177  0.2244
  112SOL     MW  448   1.331   1.106   1.618  0.1779  0.4549  0.0974
  113SOL     OW  449   1.288   0.023   1.718  0.2370 -0.6620 -0.0794
  113SOL    HW1  450   1.296  -0.041   1.789 -1.9931 -2.9754 -0.6143
  113SOL    HW2  451   1.269  -0.044   1.652 -3.4706 -0.5595 -2.3908
  113SOL     MW  452   1.287   0.005   1.718 -0.5464 -0.9537 -0.4549
  114SOL     OW  453   0.267   2.857   1.945  0.4145  0.0434 -0.0057
  114SOL    HW1  454   0.338   2.919   1.964  2.9661  0.2288  3.8522
  114SOL    HW2  455   0.267   2.856   1.847  0.3962  0.3428  1.4467
  114SOL     MW  456   0.276   2.865   1.934  0.7488  0.1074  0.6949
  115SOL     OW  457   0.492   0.849   1.104  0.1743  0.3235 -0.1880
  115SOL    HW1  458   0.529   0.760   1.083  0.7691  0.1793  0.8015
  115SOL    HW2  459   0.470   0.854   1.197  0.8789  2.0714  2.4897
  115SOL     MW  460   0.494   0.838   1.114  0.3458  0.5351  0.2958
  116SOL     OW  461   0.779   1.076   0.931 -0.0126  0.3560 -0.3403
  116SOL    HW1  462   0.819   1.130   0.862  2.9164 -0.2334  0.3874
  116SOL    HW2  463   0.845   1.096   1.003  1.6904  2.0908  0.5783
  116SOL     MW  464   0.793   1.086   0.931  0.5986  0.5071 -0.1231
  117SOL     OW  465   1.171   1.179   0.748  0.2489 -0.2568 -0.3260
  117SOL    HW1  466   1.165   1.141   0.836 -0.1623 -1.3433 -0.3650
  117SOL    HW2  467   1.208   1.265   0.750 -2.5471 -1.0830 -0.5552
  117SOL     MW  468   1.175   1.186   0.760 -0.1743 -0.5091 -0.3614
  118SOL     OW  469   3.055   2.981   1.727  0.4759 -0.2403 -0.4566
  118SOL    HW1  470   3.090   3.065   1.760 -1.5536  0.1390  0.9959
  118SOL    HW2  471   2.959   2.996   1.716 -0.5500  1.5676 -3.3591
  118SOL     MW  472   3.047   2.994   1.730  0.0727  0.0483 -0.6480
  119SOL     OW  473   0.436   1.475   1.270 -0.7277  0.6513  0.5702
  119SOL    HW1  474   0.457   1.521   1.187  2.0460  0.3386  0.3071
  119SOL    HW2  475   0.338   1.468   1.260 -0.5261 -2.3221  1.5522
  119SOL     MW  476   0.426   1.480   1.258 -0.3352  0.2178  0.6651
  120SOL     OW  477   0.249   0.693   0.978  0.0081 -0.1630  0.3839
  120SOL    HW1  478   0.232   0.632   1.051  0.7915  0.2546  1.2081
  120SOL    HW2  479   0.278   0.778   1.017  1.0587  1.2871 -1.0899
  120SOL     MW  480   0.250   0.696   0.993  0.2501  0.0834  0.2982
  121SOL     OW  481   1.725   1.193   1.732 -0.1070 -0.7114 -0.1037
  121SOL    HW1  482   1.634   1.157   1.756 -3.1485 -4.3927  4.8134
  121SOL    HW2  483   1.761   1.132   1.668 -0.6369  1.8053  0.2791
  121SOL     MW  484   1.718   1.180   1.727 -0.5782 -0.8650  0.5955
  122SOL     OW  485   0.137   0.550   0.793  0.1749  0.1855 -0.5359
  122SOL    HW1  486   0.194   0.525   0.722 -0.7060 -0.3793 -0.3492
  122SOL    HW2  487   0.194   0.596   0.863 -0.7534  1.2659 -2.4830
  122SOL     MW  488   0.152   0.553   0.793 -0.0638  0.2535 -0.7681
  123SOL     OW  489   1.882   1.128   0.514  0.6606  0.3137 -0.4807
  123SOL    HW1  490   1.830   1.063   0.559  0.2400 -1.4570 -1.0422
  123SOL    HW2  491   1.948   1.158   0.570 -0.2955  1.0228 -1.2064
  123SOL     MW  492   1.884   1.123   0.527  0.4790  0.1737 -0.6505
  124SOL     OW  493   0.687   0.536   0.866  0.0093  0.3922  0.6376
  124SOL    HW1  494   0.606   0.504   0.813 -0.4144 -0.5725  1.6023
  124SOL    HW2  495   0.684   0.630   0.851 -0.5764 -0.1964 -0.1803
  124SOL     MW  496   0.676   0.544   0.857 -0.1239  0.1873  0.6570
  125SOL     OW  497   0.668   1.789   1.716 -0.6438 -0.3647 -0.7486
  125SOL    HW1  498   0.632   1.711   1.671  1.3179  0.4061  2.1028
  125SOL    HW2  499   0.613   1.860   1.679 -1.2693  2.5724 -1.9739
  125SOL     MW  500   0.656   1.788   1.705 -0.4675  0.1245 -0.5341
  126SOL     OW  501   2.077   1.591   1.942 -0.2211  0.4152  0.3592
  126SOL    HW1  502   2.132   1.671   1.940 -0.1876 -0.6873  0.5891
  126SOL    HW2  503   2.143   1.523   1.948 -2.8527  0.0874  0.1552
  126SOL     MW  504   2.093   1.592   1.943 -0.5639  0.2265  0.3626
  127SOL     OW  505   0.692   0.792   1.839 -0.5951  0.2953  0.0812
  127SOL    HW1  506   0.766   0.729   1.858  1.3003  0.4037 -2.0852
  127SOL    HW2  507   0.696   0.850   1.919  0.9940  0.5094  1.2095
  127SOL     MW  508   0.703   0.791   1.852 -0.1354  0.3379 -0.0558
  128SOL     OW  509   1.796   0.721   2.937 -0.1227 -0.3712 -0.3617
  128SOL    HW1  510   1.808   0.672   2.855 -0.7030 -0.1535 -0.0350
  128SOL    HW2  511   1.754   0.806   2.909 -1.1437  1.3603  1.0842
  128SOL     MW  512   1.792   0.725   2.923 -0.3340 -0.1141 -0.1278
  129SOL     OW  513   1.609   0.946   0.187 -0.4152 -0.0065 -0.3129
  129SOL    HW1  514   1.569   0.863   0.159  2.2104  1.1415  1.2614
  129SOL    HW2  515   1.646   0.927   0.272 -2.5343  0.5331 -1.5770
  129SOL     MW  516   1.608   0.932   0.195 -0.3484  0.2161 -0.2719
  130SOL     OW  517   0.757   1.374   0.347  0.3310  0.4828 -0.6344
  130SOL    HW1  518   0.794   1.399   0.432  1.0729  3.1082  0.9978
  130SOL    HW2  519   0.828   1.409   0.295 -3.9247 -1.6538 -0.0531
  130SOL     MW  520   0.771   1.382   0.351 -0.1326  0.5473 -0.3424
  131SOL     OW  521   3.042   0.815   3.097  0.7072 -0.2275  0.2203
  131SOL    HW1  522   3.050   0.882   3.022 -0.2225  0.2057  0.8816
  131SOL    HW2  523   3.131   0.774   3.089  0.2998 -0.2136  2.0120
  131SOL     MW  524   3.055   0.818   3.086  0.5308 -0.1685  0.5439
  132SOL     OW  525   2.681   0.124   1.250 -0.1375 -0.2938  0.6099
  132SOL    HW1  526   2.699   0.112   1.151  1.1404  0.2308 -0.9020
  132SOL    HW2  527   2.585   0.100   1.256  2.2161 -2.6548 -1.8862
  132SOL     MW  528   2.671   0.120   1.238  0.3416 -0.5361  0.0811
  133SOL     OW  529   1.015   0.147   1.727  0.3514  0.4800 -0.1270
  133SOL    HW1  530   1.105   0.114   1.728  1.4418  3.1695 -0.0133
  133SOL    HW2  531   1.003   0.169   1.821  1.8893  1.3050 -1.0508
  133SOL     MW  532   1.025   0.146   1.740  0.6982  0.9437 -0.2339
  134SOL     OW  533   1.365   2.521   1.457 -0.5273  0.2098 -0.3026
  134SOL    HW1  534   1.321   2.600   1.426 -0.5015 -0.4605 -3.1501
  134SOL    HW2  535   1.417   2.548   1.536 -1.9252 -1.4883  2.6626
  134SOL     MW  536   1.366   2.535   1.463 -0.7084 -0.1027 -0.2871
  135SOL     OW  537   3.020   0.966   2.874 -0.0553  0.2532 -0.2587
  135SOL    HW1  538   3.065   1.046   2.897  2.5911 -4.5572  0.0484
  135SOL    HW2  539   2.931   0.999   2.857  0.1408 -0.3202  0.1554
  135SOL     MW  540   3.014   0.981   2.875  0.3197 -0.4572 -0.1636
  136SOL     OW  541   0.185   2.029   0.844 -0.1549  0.0283 -0.3636
  136SOL    HW1  542   0.097   1.989   0.828 -1.3196  1.5611 -1.3381
  136SOL    HW2  543   0.249   1.976   0.802 -0.5722 -0.1763  0.9040
  136SOL     MW  544   0.182   2.017   0.837 -0.3636  0.2035 -0.3249
  137SOL     OW  545   0.705   2.057   0.506 -0.2405 -0.7783 -0.5814
  137SOL    HW1  546   0.735   2.077   0.599 -2.6095  1.4579 -1.6842
  137SOL    HW2  547   0.611   2.047   0.517  4.6408  2.1309 -1.7415
  137SOL     MW  548   0.696   2.058   0.519  0.0910 -0.0995 -0.8800
  138SOL     OW  549   0.554   0.565   1.132 -0.2606 -0.2123 -0.1438
  138SOL    HW1  550   0.463   0.537   1.122  1.4353  0.6589 -0.0188
  138SOL    HW2  551   0.593   0.549   1.045 -2.2369  2.2953  0.6105
  138SOL     MW  552   0.547   0.559   1.119 -0.2976  0.2335 -0.0278
  139SOL     OW  553   2.781   0.602   1.352  0.1469  0.3482 -0.0033
  139SOL    HW1  554   2.825   0.515   1.369  3.8075 -0.6045  2.1244
  139SOL    HW2  555   2.827   0.669   1.399 -3.2226 -0.4586  0.5964
  139SOL     MW  556   2.793   0.599   1.361  0.1853  0.1161  0.3566
  140SOL     OW  557   0.834   0.387   2.082  0.3760  0.0270 -0.1147
  140SOL    HW1  558   0.911   0.358   2.031 -2.2719 -0.7456 -0.1428
  140SOL    HW2  559   0.862   0.375   2.173  0.1479 -0.8203 -2.3418
  140SOL     MW  560   0.848   0.382   2.087 -0.0035 -0.1868 -0.4122
  141SOL     OW  561   1.072   0.660   1.729 -0.1354  0.1636  0.1133
  141SOL    HW1  562   1.106   0.575   1.698 -0.5217  0.5555 -0.9651
  141SOL    HW2  563   1.140   0.731   1.712 -0.8066 -1.0573 -1.2883
  141SOL     MW  564   1.085   0.658   1.722 -0.2749  0.0542 -0.2139
  142SOL     OW  565   0.900   1.220   0.715  0.7662 -0.1663  0.2736
  142SOL    HW1  566   0.862   1.147   0.661  2.2457 -0.1594 -0.7637
  142SOL    HW2  567   0.996   1.208   0.722 -0.2694  0.7120  0.8695
  142SOL     MW  568   0.908   1.209   0.708  0.8248 -0.0495  0.2154
  143SOL     OW  569   1.814   0.786   1.100 -0.2788  0.8191  0.2738
  143SOL    HW1  570   1.854   0.776   1.016  0.6256 -0.6388  2.5228
  143SOL    HW2  571   1.727   0.750   1.094 -2.2550  2.4875  0.3707
  143SOL     MW  572   1.808   0.780   1.088 -0.4202  0.8469  0.5833
  144SOL     OW  573   0.241   1.178   1.588  0.5459  0.4163  0.1431
  144SOL    HW1  574   0.326   1.175   1.548  1.4533  0.9493  0.7614
  144SOL    HW2  575   0.273   1.182   1.680 -0.5905 -0.8446  1.7291
  144SOL     MW  576   0.256   1.178   1.595  0.5157  0.3202  0.4340
  145SOL     OW  577   0.220   0.474   1.162 -0.2291  0.1347  0.7623
  145SOL    HW1  578   0.248   0.426   1.241 -0.3603 -3.3343  3.9827
  145SOL    HW2  579   0.200   0.388   1.104  0.4433 -2.0054 -1.4546
  145SOL     MW  580   0.221   0.456   1.165 -0.1577 -0.6054  0.8947
  146SOL     OW  581   0.868   1.939   1.336  0.4582  0.2560  0.2018
  146SOL    HW1  582   0.915   1.971   1.253 -0.3969  3.2135  1.8702
  146SOL    HW2  583   0.790   1.886   1.308  0.2384 -1.1054  2.7908
  146SOL     MW  584   0.864   1.936   1.321  0.3164  0.4666  0.7635
  147SOL     OW  585   0.427   0.432   2.952  0.5694  0.7099 -0.6992
  147SOL    HW1  586   0.386   0.461   3.033 -0.3175 -0.0613  0.9906
  147SOL    HW2  587   0.374   0.481   2.886 -1.1791 -0.2673 -0.5426
  147SOL     MW  588   0.414   0.442   2.954  0.2217  0.4792 -0.4556
  148SOL     OW  589   0.138   0.827   1.282 -0.2116  0.1734  0.1480
  148SOL    HW1  590   0.234   0.845   1.298  1.6626 -0.3265  4.1915
  148SOL    HW2  591   0.100   0.886   1.354  0.8455 -0.1634  0.8918
  148SOL     MW  592   0.146   0.838   1.293  0.1751  0.0630  0.7796
  149SOL     OW  593   1.340   1.120   1.341 -0.7742  0.4907  0.1128
  149SOL    HW1  594   1.315   1.117   1.436 -2.5760  0.4883  0.0566
  149SOL    HW2  595   1.383   1.203   1.324  0.2582 -0.1572 -1.1977
  149SOL     MW  596   1.342   1.131   1.351 -0.8757  0.4049 -0.0676
  150SOL     OW  597   1.837   1.347   0.722 -0.1432 -0.4227 -0.3199
  150SOL    HW1  598   1.867   1.286   0.785 -1.4826  0.5644 -0.7004
  150SOL    HW2  599   1.868   1.430   0.760 -1.1649  0.3379 -2.7426
  150SOL     MW  600   1.845   1.350   0.735 -0.4547 -0.1921 -0.6897
  151SOL     OW  601   1.674   1.784   0.801 -0.1683  0.5420 -0.0933
  151SOL    HW1  602   1.667   1.787   0.704 -3.6980  1.4364  0.7933
  151SOL    HW2  603   1.598   1.719   0.817 -2.3328 -3.4609 -0.8983
  151SOL     MW  604   1.663   1.776   0.790 -0.9196  0.1318 -0.0825
  152SOL     OW  605   0.748   1.380   1.500  0.2700 -0.6264 -0.0033
  152SOL    HW1  606   0.762   1.293   1.467 -0.7585  0.0578  0.6160
  152SOL    HW2  607   0.832   1.423   1.501 -0.7642 -0.8361 -0.2202
  152SOL     MW  608   0.761   1.374   1.495 -0.0022 -0.5638  0.0498
  153SOL     OW  609   2.621   1.216   0.774  0.3788  0.4166 -0.1957
  153SOL    HW1  610   2.688   1.192   0.709 -1.3596  1.6791  2.2949
  153SOL    HW2  611   2.552   1.145   0.774  0.3254 -0.9466  2.1137
  153SOL     MW  612   2.621   1.204   0.766  0.1424  0.4033  0.4376
  154SOL     OW  613   0.250   1.814   1.704 -0.7696  0.0027 -0.0128
  154SOL    HW1  614   0.333   1.837   1.657 -0.2034 -0.0234 -2.0510
  154SOL    HW2  615   0.271   1.752   1.776 -0.4954 -0.9528 -1.6268
  154SOL     MW  616   0.264   1.809   1.707 -0.6587 -0.1268 -0.4947
  155SOL     OW  617   1.235   0.695   0.243 -0.6432 -0.0860 -0.1271
  155SOL    HW1  618   1.222   0.644   0.326 -0.2068 -0.4746  2.6314
  155SOL    HW2  619   1.188   0.781   0.265 -1.8749  0.2430 -2.2398
  155SOL     MW  620   1.227   0.700   0.257 -0.7481 -0.0939 -0.0419
  156SOL     OW  621   1.490   3.082   1.128 -0.2789  0.1383 -0.0472
  156SOL    HW1  622   1.574   3.138   1.130  0.7829  0.2150 -1.3994
  156SOL    HW2  623   1.510   2.988   1.144 -1.3902 -0.3442 -0.0719
  156SOL     MW  624   1.504   3.077   1.131 -0.2854  0.0848 -0.2289
  157SOL     OW  625   1.446   1.162   0.096 -0.1777 -0.3375  0.0051
  157SOL    HW1  626   1.500   1.083   0.137  0.7583 -2.3561 -1.8094
  157SOL    HW2  627   1.513   1.234   0.083  0.8498  2.2180  0.1927
  157SOL     MW  628   1.462   1.161   0.100  0.0813 -0.2667 -0.2095
  158SOL     OW  629   0.538   1.659   2.213 -0.4775  0.0939  0.2695
  158SOL    HW1  630   0.521   1.719   2.144 -0.3394 -2.2542 -0.3007
  158SOL    HW2  631   0.462   1.632   2.259  0.3272  0.0615 -1.5889
  158SOL     MW  632   0.526   1.664   2.210 -0.3531 -0.2202 -0.0509
  159SOL     OW  633   1.283   1.680   0.410  0.5190  0.1158  0.2706
  159SOL    HW1  634   1.265   1.599   0.359  1.0367  2.1791 -1.4296
  159SOL    HW2  635   1.202   1.683   0.463 -0.9853  0.0981  1.1656
  159SOL     MW  636   1.270   1.670   0.410  0.3888  0.3857  0.1643
  160SOL     OW  637   0.554   1.142   1.626 -0.4327 -0.8330  0.4184
  160SOL    HW1  638   0.530   1.054   1.652 -1.2511  0.6543 -2.2818
  160SOL    HW2  639   0.635   1.157   1.672  0.9336 -0.9413  1.0906
  160SOL     MW  640   0.562   1.133   1.636 -0.3604 -0.6511  0.1508
  161SOL     OW  641   0.480   2.232   2.565  0.2030  0.7326 -0.0478
  161SOL    HW1  642   0.389   2.246   2.578  2.8267  1.3987  0.8541
  161SOL    HW2  643   0.493   2.164   2.499  1.1991 -2.9170 -0.9932
  161SOL     MW  644   0.470   2.225   2.558  0.6806  0.3389 -0.0535
  162SOL     OW  645   1.062   1.762   1.850  0.0497 -0.4932  0.2410
  162SOL    HW1  646   1.062   1.848   1.893 -3.4585 -1.6432  0.2637
  162SOL    HW2  647   0.974   1.727   1.867  1.1607  1.7970  1.3744
  162SOL     MW  648   1.050   1.769   1.858 -0.2666 -0.3427  0.3935
  163SOL     OW  649   2.157   3.097   0.934 -0.4816  0.5043 -0.1106
  163SOL    HW1  650   2.144   3.154   0.859  0.3480 -0.9840 -2.0589
  163SOL    HW2  651   2.107   3.019   0.937  1.7827 -2.4726  0.8515
  163SOL     MW  652   2.148   3.095   0.925 -0.0734 -0.0849 -0.2407
  164SOL     OW  653   0.358   0.182   0.865  0.0469 -0.2072 -0.5844
  164SOL    HW1  654   0.271   0.216   0.879 -0.8450  0.2435  0.4978
  164SOL    HW2  655   0.350   0.112   0.800 -0.0943  0.4494  1.9513
  164SOL     MW  656   0.345   0.177   0.858 -0.0894 -0.0611 -0.1071
  165SOL     OW  657   1.340   1.266   0.330  0.0454  0.1225  0.4364
  165SOL    HW1  658   1.310   1.191   0.386  0.3602 -2.1249 -0.1190
  165SOL    HW2  659   1.379   1.217   0.254 -0.4014 -3.3831  1.3310
  165SOL     MW  660   1.341   1.250   0.328  0.0280 -0.6366  0.4812
  166SOL     OW  661   0.535   1.166   1.045 -0.4732  0.2787 -0.0363
  166SOL    HW1  662   0.551   1.107   1.112 -0.3625  1.9494 -1.1808
  166SOL    HW2  663   0.614   1.141   0.998 -0.1525 -1.8308  2.4454
  166SOL     MW  664   0.547   1.155   1.048 -0.4163  0.2208  0.1401
  167SOL     OW  665   0.791   1.008   0.264  0.1870  0.2634  0.4007
  167SOL    HW1  666   0.709   1.040   0.247  1.6928 -1.3403 -0.2920
  167SOL    HW2  667   0.848   1.050   0.199 -0.8244 -0.8497 -4.4631
  167SOL     MW  668   0.787   1.018   0.254  0.2523 -0.0951 -0.3324
  168SOL     OW  669   1.717   1.654   3.038 -0.0877  0.0076  0.1791
  168SOL    HW1  670   1.665   1.679   2.962 -2.8635 -2.3877  0.6883
  168SOL    HW2  671   1.741   1.566   3.023  1.0523 -2.3840  0.3173
  168SOL     MW  672   1.713   1.646   3.026 -0.3035 -0.6240  0.2645
  169SOL     OW  673   0.410   0.921   1.358  0.0850  0.4891 -0.2326
  169SOL    HW1  674   0.446   0.873   1.435 -0.3896  0.2428 -3.0932
  169SOL    HW2  675   0.464   0.998   1.363  0.7933 -1.5888 -2.0582
  169SOL     MW  676   0.422   0.925   1.369  0.1159  0.1825 -0.8509
  170SOL     OW  677   1.024   1.491   1.505  0.7099 -0.3504  0.2722
  170SOL    HW1  678   0.982   1.576   1.523 -0.8882  0.7632 -0.0683
  170SOL    HW2  679   1.054   1.495   1.417 -3.1380 -0.1391 -1.5915
  170SOL     MW  680   1.022   1.502   1.496 -0.0086 -0.1756 -0.0186
  171SOL     OW  681   0.543   1.456   0.644 -0.5223 -0.1603 -0.6549
  171SOL    HW1  682   0.543   1.460   0.738 -0.7097  4.8029  0.8877
  171SOL    HW2  683   0.527   1.365   0.615  0.1564  2.1421 -0.8108
  171SOL     MW  684   0.541   1.444   0.653 -0.4575  0.7983 -0.4720
  172SOL     OW  685   0.853   0.324   1.275 -0.3498 -0.4023 -0.1311
  172SOL    HW1  686   0.856   0.335   1.178  0.5300  1.8808 -2.4604
  172SOL    HW2  687   0.761   0.336   1.311  0.6274  0.1403 -0.7695
  172SOL     MW  688   0.841   0.327   1.267 -0.1048 -0.0295 -0.5227
  173SOL     OW  689   0.451   1.724   0.373 -0.2973 -0.2177  0.5692
  173SOL    HW1  690   0.476   1.638   0.339 -2.0721  1.4981 -3.6300
  173SOL    HW2  691   0.488   1.742   0.462 -0.2842 -0.9235  3.1184
  173SOL     MW  692   0.459   1.715   0.381 -0.5298 -0.0845  0.3515
  174SOL     OW  693   1.813   1.005   1.566 -0.0310  0.0564 -0.1613
  174SOL    HW1  694   1.814   0.907   1.573  1.2491 -1.3313  0.2266
  174SOL    HW2  695   1.796   1.015   1.472 -1.6431  1.2131  1.9201
  174SOL     MW  696   1.811   0.994   1.554 -0.0748  0.0260  0.1645
  175SOL     OW  697   0.527   1.476   0.264 -0.0673 -0.2674 -0.4261
  175SOL    HW1  698   0.475   1.415   0.211  2.4099  1.6055  0.6066
  175SOL    HW2  699   0.613   1.437   0.284  0.6526  0.2196  0.3264
  175SOL     MW  700   0.532   1.463   0.260  0.3546  0.0440 -0.1906
  176SOL     OW  701   0.171   1.465   1.220  0.2088  0.4726  0.5179
  176SOL    HW1  702   0.152   1.399   1.154  1.8701 -0.0399  0.4498
  176SOL    HW2  703   0.087   1.519   1.245 -1.8260  1.0938 -0.3593
  176SOL     MW  704   0.157   1.464   1.215  0.1595  0.4869  0.3932
  177SOL     OW  705   0.620   0.443   1.371  0.2311 -0.5017 -0.2136
  177SOL    HW1  706   0.602   0.508   1.302 -1.6685  0.0780  2.8181
  177SOL    HW2  707   0.597   0.488   1.459  1.2052  0.0689  1.5139
  177SOL     MW  708   0.615   0.458   1.374  0.1090 -0.3499  0.4143
  178SOL     OW  709   3.067   0.493   2.951 -0.2040  0.6955  0.3705
  178SOL    HW1  710   3.010   0.538   3.016 -0.1956  2.5685 -1.4625
  178SOL    HW2  711   3.021   0.468   2.866  0.6408 -1.8180 -0.6381
  178SOL     MW  712   3.054   0.496   2.948 -0.0915  0.6110 -0.0044
  179SOL     OW  713   1.590   1.337   1.359 -0.1256 -0.2271 -0.0647
  179SOL    HW1  714   1.560   1.371   1.447 -0.4273  1.5086 -0.8716
  179SOL    HW2  715   1.686   1.359   1.358  0.6713 -0.8998 -0.2484
  179SOL     MW  716   1.598   1.344   1.370 -0.0603 -0.0869 -0.1954
  180SOL     OW  717   3.071   0.195   0.437 -0.5304  0.1428 -0.1030
  180SOL    HW1  718   3.014   0.208   0.356  1.0728  1.5889 -0.6278
  180SOL    HW2  719   3.126   0.275   0.423 -1.2689  0.3718 -1.1375
  180SOL     MW  720   3.071   0.207   0.425 -0.4163  0.3638 -0.3088
  181SOL     OW  721   1.121   1.317   3.084 -0.0201 -0.6050  0.0419
  181SOL    HW1  722   1.172   1.398   3.110 -3.2887 -1.2950 -0.3552
  181SOL    HW2  723   1.191   1.258   3.041  2.9331  1.9174 -0.1118
  181SOL     MW  724   1.137   1.319   3.081 -0.0617 -0.3633 -0.0308
  182SOL     OW  725   0.457   0.880   1.647 -0.2560  0.3973 -0.3220
  182SOL    HW1  726   0.359   0.876   1.658  0.7130  2.7547  0.4255
  182SOL    HW2  727   0.504   0.854   1.723  2.6214  0.3904 -2.1612
  182SOL     MW  728   0.450   0.876   1.658  0.2515  0.7075 -0.4660
  183SOL     OW  729   1.586   1.509   1.147  0.3015  0.2667 -0.4025
  183SOL    HW1  730   1.554   1.588   1.185 -0.5417  0.3562 -1.5403
  183SOL    HW2  731   1.588   1.446   1.226  1.3221  1.9690  0.1275
  183SOL     MW  732   1.582   1.511   1.162  0.3249  0.5031 -0.4827
  184SOL     OW  733   0.911   0.635   1.959 -0.6889  0.3338 -0.3306
  184SOL    HW1  734   0.972   0.632   1.888  0.7336 -1.4622  1.9716
  184SOL    HW2  735   0.894   0.545   1.989  2.3198 -0.4424  1.9753
  184SOL     MW  736   0.917   0.623   1.953 -0.1043 -0.0056  0.2774
  185SOL     OW  737   1.244   1.021   1.932 -0.5088 -0.2121  0.5241
  185SOL    HW1  738   1.248   0.943   1.993 -2.4486 -2.6196  0.9739
  185SOL    HW2  739   1.283   1.089   1.992 -0.3345 -0.5738 -2.2110
  185SOL     MW  740   1.250   1.020   1.948 -0.7418 -0.5774  0.2226
  186SOL     OW  741   0.374   1.690   1.437  0.0035  0.3007  0.3762
  186SOL    HW1  742   0.423   1.623   1.388 -1.3046 -1.2229 -1.3232
  186SOL    HW2  743   0.284   1.652   1.442  1.3687 -0.3446  0.2650
  186SOL     MW  744   0.369   1.676   1.431  0.0110  0.0145  0.1373
  187SOL     OW  745   1.439   0.701   1.404 -0.2396 -0.0652 -0.3179
  187SOL    HW1  746   1.426   0.674   1.493 -0.1119 -0.5992 -0.4076
  187SOL    HW2  747   1.354   0.696   1.364 -1.0555 -2.1593  0.1408
  187SOL     MW  748   1.426   0.697   1.411 -0.3304 -0.4119 -0.2692
  188SOL     OW  749   1.897   1.161   0.903  0.0277 -0.2024  0.9290
  188SOL    HW1  750   1.927   1.166   1.001 -0.4776  0.3450  1.1341
  188SOL    HW2  751   1.954   1.090   0.865  0.9932 -1.1898  1.9653
  188SOL     MW  752   1.909   1.153   0.911  0.0884 -0.2605  1.0928
  189SOL     OW  753   0.653   0.825   0.860 -0.0705 -0.4289 -0.4101
  189SOL    HW1  754   0.582   0.881   0.835  0.3987  1.2826  0.3468
  189SOL    HW2  755   0.724   0.889   0.879  2.2586  1.1936 -2.5319
  189SOL     MW  756   0.653   0.841   0.859  0.2987  0.0110 -0.5902
  190SOL     OW  757   1.868   0.270   2.127  0.5240 -0.2146  0.7809
  190SOL    HW1  758   1.899   0.208   2.193  2.5956  1.1301 -0.4331
  190SOL    HW2  759   1.947   0.322   2.096  0.0812  0.7793 -1.4325
  190SOL     MW  760   1.883   0.269   2.132  0.7389  0.0940  0.3287
  191SOL     OW  761   1.517   0.933   1.239  0.1516 -0.0605 -0.0535
  191SOL    HW1  762   1.442   0.991   1.270 -0.8184 -0.6710 -0.2301
  191SOL    HW2  763   1.502   0.859   1.301 -0.7414  1.9483  0.4614
  191SOL     MW  764   1.505   0.931   1.251 -0.0942  0.1240 -0.0089
  192SOL     OW  765   0.607   2.099   2.801 -0.2299  0.1849 -0.2055
  192SOL    HW1  766   0.581   2.143   2.719  3.4875  0.9662  0.9534
  192SOL    HW2  767   0.607   2.004   2.783  1.1146 -2.2948 -2.6803
  192SOL     MW  768   0.603   2.093   2.788  0.4380 -0.0392 -0.3791
  193SOL     OW  769   0.996   1.573   0.743  0.2101 -0.2190 -0.7347
  193SOL    HW1  770   0.946   1.589   0.831 -2.5109  0.2456  1.9104
  193SOL    HW2  771   0.926   1.526   0.692 -1.1688  1.2627 -0.3777
  193SOL     MW  772   0.981   1.569   0.748 -0.3308  0.0378 -0.3386
  194SOL     OW  773   0.513   1.433   0.942 -0.0525  0.6274 -0.2206
  194SOL    HW1  774   0.522   1.347   0.988  1.9511 -0.2768  0.1958
  194SOL    HW2  775   0.417   1.447   0.942  0.8564 -2.4258 -1.2284
  194SOL     MW  776   0.502   1.423   0.948  0.3318  0.1053 -0.2986
  195SOL     OW  777   1.289   1.142   2.985  0.4345 -0.1498  0.1643
  195SOL    HW1  778   1.349   1.151   3.064 -0.6392 -0.3799  0.1871
  195SOL    HW2  779   1.234   1.058   2.991 -1.1139 -3.3033 -0.2393
  195SOL     MW  780   1.290   1.132   2.996  0.0885 -0.5962  0.1141
  196SOL     OW  781   2.201   1.002   0.575  0.3386 -0.1762  0.1979
  196SOL    HW1  782   2.165   0.980   0.486 -1.6041 -0.6262  0.0730
  196SOL    HW2  783   2.186   1.096   0.574 -0.6803  0.8076 -2.5019
  196SOL     MW  784   2.194   1.012   0.563 -0.0522 -0.1058 -0.1748
  197SOL     OW  785   0.664   1.226   2.090 -0.9430 -0.2377  0.6441
  197SOL    HW1  786   0.681   1.144   2.049 -1.5549  2.8021  0.0451
  197SOL    HW2  787   0.651   1.281   2.015 -1.3383  2.0579 -0.4794
  197SOL     MW  788   0.664   1.222   2.074 -1.0759  0.4662  0.4168
  198SOL     OW  789   2.956   1.372   1.101 -0.0324 -0.0498 -0.5507
  198SOL    HW1  790   2.929   1.464   1.088 -0.2785  2.0332 -2.5023
  198SOL    HW2  791   2.879   1.316   1.088  3.0800 -0.7718  2.6444
  198SOL     MW  792   2.943   1.377   1.098  0.3458  0.1298 -0.3866
  199SOL     OW  793   0.544   1.377   1.897  0.2627  0.4886  0.0685
  199SOL    HW1  794   0.460   1.334   1.880  2.8307  0.1256  2.2415
  199SOL    HW2  795   0.553   1.448   1.840  0.5561  1.0683 -0.9285
  199SOL     MW  796   0.534   1.381   1.888  0.6402  0.5172  0.2237
  200SOL     OW  797   1.872   3.024   1.307 -0.2256 -0.5773  0.0573
  200SOL    HW1  798   1.858   2.991   1.217  1.7793  0.4899  1.4089
  200SOL    HW2  799   1.789   3.048   1.342  2.6005 -0.4325 -0.1031
  200SOL     MW  800   1.859   3.023   1.300  0.4118 -0.4174  0.2145
  201SOL     OW  801   1.017   0.193   0.844  0.5842  0.2202  0.0762
  201SOL    HW1  802   0.973   0.154   0.764  0.4656 -1.6653 -1.5535
  201SOL    HW2  803   1.097   0.233   0.818 -2.5379 -1.0907  0.3536
  201SOL     MW  804   1.022   0.193   0.830  0.1566 -0.2015 -0.1022
  202SOL     OW  805   1.513   1.556   0.883 -0.1101  0.4239 -0.3533
  202SOL    HW1  806   1.535   1.472   0.839  0.2350 -0.7456 -0.7135
  202SOL    HW2  807   1.563   1.541   0.962 -2.4407 -1.2995  1.1611
  202SOL     MW  808   1.522   1.543   0.888 -0.3721  0.0422 -0.2010
  203SOL     OW  809   3.072   0.459   1.279  0.3532 -0.4180  0.3493
  203SOL    HW1  810   3.150   0.464   1.227  2.6158 -1.2238 -1.1179
  203SOL    HW2  811   3.086   0.518   1.355 -3.4375 -1.8027  1.1140
  203SOL     MW  812   3.085   0.467   1.282  0.1516 -0.7070  0.2566
  204SOL     OW  813   1.053   1.742   0.544 -0.0405 -0.0622 -0.2924
  204SOL    HW1  814   1.026   1.697   0.630 -2.0434  1.3223 -2.6071
  204SOL    HW2  815   0.969   1.742   0.492 -1.5766 -0.8454  1.9310
  204SOL     MW  816   1.038   1.736   0.548 -0.5074  0.0172 -0.3044
  205SOL     OW  817   1.361   0.063   1.365  0.2440  0.4893 -0.5387
  205SOL    HW1  818   1.364   0.033   1.276 -1.8686 -0.8845 -0.2454
  205SOL    HW2  819   1.319   0.151   1.368 -0.8859  0.9397  2.2950
  205SOL     MW  820   1.356   0.070   1.354 -0.1838  0.3675 -0.1261
  206SOL     OW  821   0.421   3.005   1.438  0.2622  0.1390 -0.3800
  206SOL    HW1  822   0.393   3.004   1.340 -0.0519 -1.5776  0.7991
  206SOL    HW2  823   0.481   2.934   1.438 -1.6326 -1.5553 -2.8827
  206SOL     MW  824   0.425   2.995   1.425 -0.0293 -0.3111 -0.5546
  207SOL     OW  825   0.919   1.527   0.200 -0.2631  0.1931  0.0284
  207SOL    HW1  826   0.937   1.620   0.175  0.9216  0.1139 -1.1946
  207SOL    HW2  827   0.999   1.476   0.199  1.9951 -0.2511  2.0459
  207SOL     MW  828   0.932   1.533   0.197  0.1912  0.1240  0.1332
  208SOL     OW  829   0.690   1.666   1.368 -0.0416  0.2292  0.2983
  208SOL    HW1  830   0.758   1.681   1.433 -0.1939 -0.1944 -0.3240
  208SOL    HW2  831   0.688   1.574   1.359 -2.3050  0.8080  0.3772
  208SOL     MW  832   0.698   1.656   1.375 -0.3603  0.2497  0.2266
  209SOL     OW  833   1.544   0.508   3.015 -0.1902 -0.3256  0.2214
  209SOL    HW1  834   1.559   0.595   2.975  0.1081  0.1552 -1.1672
  209SOL    HW2  835   1.613   0.458   2.981 -1.0797 -0.2297 -2.3021
  209SOL     MW  836   1.555   0.513   3.005 -0.2682 -0.2495 -0.2948
  210SOL     OW  837   1.572   1.299   0.806 -0.4404 -0.6211  0.1090
  210SOL    HW1  838   1.670   1.296   0.787 -0.4438  0.3878 -0.8009
  210SOL    HW2  839   1.532   1.329   0.724 -3.4175 -0.2158  1.9713
  210SOL     MW  840   1.579   1.303   0.793 -0.8336 -0.4345  0.2347
  211SOL     OW  841   1.656   0.346   0.953  0.5350 -0.7027 -0.3049
  211SOL    HW1  842   1.651   0.383   0.860 -0.1072  1.9718 -0.6899
  211SOL    HW2  843   1.739   0.377   0.983  0.7519  1.3592 -0.4157
  211SOL     MW  844   1.666   0.355   0.944  0.4789 -0.0778 -0.3703
  212SOL     OW  845   0.249   1.025   0.118  0.0555 -0.3857  0.2354
  212SOL    HW1  846   0.177   1.018   0.183 -0.1757  0.4295 -1.8617
  212SOL    HW2  847   0.275   0.937   0.097  2.8469 -1.0058  0.4082
  212SOL     MW  848   0.243   1.013   0.124  0.3933 -0.3599 -0.0185
  213SOL     OW  849   0.532   1.724   3.028  0.2530 -0.5374 -0.2931
  213SOL    HW1  850   0.527   1.775   3.115 -1.0681  0.1418  1.9311
  213SOL    HW2  851   0.545   1.782   2.952 -0.9041  2.4645  2.1742
  213SOL     MW  852   0.533   1.738   3.030 -0.0740 -0.0517  0.3259
  214SOL     OW  853   0.586   0.292   2.229  0.8011  0.5973 -0.5432
  214SOL    HW1  854   0.535   0.366   2.189  1.9969 -0.0096 -0.6261
  214SOL    HW2  855   0.668   0.326   2.266 -0.4996 -2.3840 -0.8405
  214SOL     MW  856   0.590   0.306   2.229  0.7873  0.1239 -0.5934
  215SOL     OW  857   0.520   0.709   2.666 -0.5060  0.3856  0.2918
  215SOL    HW1  858   0.546   0.694   2.577 -1.4890 -3.8355  1.2930
  215SOL    HW2  859   0.442   0.656   2.667  3.1525 -0.0842 -1.8317
  215SOL     MW  860   0.513   0.700   2.654 -0.1530 -0.2333  0.1437
  216SOL     OW  861   2.900   3.050   2.652  0.3685 -0.4835  0.5556
  216SOL    HW1  862   2.850   3.037   2.736 -0.7503  1.6719 -3.9329
  216SOL    HW2  863   2.917   3.146   2.648 -2.3368 -2.2536  2.6483
  216SOL     MW  864   2.896   3.061   2.663 -0.1361 -0.4327  0.2395
  217SOL     OW  865   0.969   1.089   0.066  0.3507 -0.1355  0.1811
  217SOL    HW1  866   1.017   1.012   0.027  0.3919 -0.0619  2.0025
  217SOL    HW2  867   1.038   1.158   0.080  2.0958  0.9848  0.2129
  217SOL     MW  868   0.984   1.088   0.062  0.5864  0.0221  0.4256
  218SOL     OW  869   0.971   1.314   2.542  0.1539 -0.1558  0.3985
  218SOL    HW1  870   0.966   1.223   2.568  1.0654 -1.2612 -0.0629
  218SOL    HW2  871   1.043   1.361   2.581 -1.9628  1.7142  2.7627
  218SOL     MW  872   0.980   1.308   2.551 -0.0051 -0.0549  0.6495
  219SOL     OW  873   1.129   0.428   2.639  0.4934 -0.3793 -0.0555
  219SOL    HW1  874   1.194   0.485   2.681  2.0272  1.3049  0.5022
  219SOL    HW2  875   1.065   0.493   2.622 -1.5912  0.5493  0.9147
  219SOL     MW  876   1.129   0.444   2.642  0.4207 -0.0346  0.1461
  220SOL     OW  877   1.747   0.475   2.224  0.1818 -0.2877 -0.1081
  220SOL    HW1  878   1.662   0.507   2.180 -3.2296  1.9658  0.8935
  220SOL    HW2  879   1.762   0.381   2.184 -0.6788 -1.5003 -3.0765
  220SOL     MW  880   1.738   0.467   2.213 -0.3818 -0.1503 -0.3676
  221SOL     OW  881   0.406   1.346   2.943  0.0124 -0.6424  0.1980
  221SOL    HW1  882   0.428   1.258   2.908 -1.3466  2.8625  1.3680
  221SOL    HW2  883   0.429   1.410   2.875  2.0398 -1.6498  2.2276
  221SOL     MW  884   0.412   1.343   2.929  0.1006 -0.3129  0.6201
  222SOL     OW  885   0.365   0.931   2.667 -0.5055  0.4375  0.4688
  222SOL    HW1  886   0.330   0.958   2.581  1.7988 -0.4508  1.5202
  222SOL    HW2  887   0.426   0.857   2.655  2.5676 -0.8068  1.8737
  222SOL     MW  888   0.368   0.925   2.654  0.2040  0.1561  0.7929
  223SOL     OW  889   0.009   2.032   2.527 -0.1283 -0.3213 -0.3806
  223SOL    HW1  890   0.057   1.992   2.599 -0.2151  0.5076 -1.0020
  223SOL    HW2  891   0.055   2.119   2.519  2.4392 -1.3026  0.2265
  223SOL     MW  892   0.022   2.038   2.535  0.1990 -0.3414 -0.3825
  224SOL     OW  893   1.499   0.801   2.632 -0.1474 -0.5851 -0.2450
  224SOL    HW1  894   1.461   0.867   2.689  1.2657 -0.4461 -3.3553
  224SOL    HW2  895   1.521   0.866   2.558  2.5319  1.8577 -0.5650
  224SOL     MW  896   1.497   0.818   2.630  0.3925 -0.2444 -0.6976
  225SOL     OW  897   2.898   1.444   2.306 -0.0869  0.0508 -0.3815
  225SOL    HW1  898   2.958   1.508   2.277 -1.4922 -3.2365 -0.3194
  225SOL    HW2  899   2.833   1.502   2.349 -2.5986  0.4120  0.1996
  225SOL     MW  900   2.897   1.460   2.308 -0.6037 -0.3353 -0.2967
  226SOL     OW  901   0.478   1.475   2.702 -0.4087  0.4582  0.0044
  226SOL    HW1  902   0.566   1.457   2.657 -0.1263  1.5435  1.5856
  226SOL    HW2  903   0.446   1.560   2.666  4.4089  0.9322 -3.0964
  226SOL     MW  904   0.486   1.484   2.691  0.2642  0.6640 -0.1961
  227SOL     OW  905   0.484   1.112   2.841  0.0301 -0.2485 -0.3015
  227SOL    HW1  906   0.564   1.122   2.788  0.9918  0.8423 -3.0961
  227SOL    HW2  907   0.427   1.057   2.783  1.5384 -1.5779 -0.4583
  227SOL     MW  908   0.487   1.106   2.827  0.3560 -0.2800 -0.6909
  228SOL     OW  909   0.709   0.961   2.045  0.6676  0.2879  0.0084
  228SOL    HW1  910   0.803   0.979   2.020 -0.2827 -2.5365 -2.0520
  228SOL    HW2  911   0.712   0.904   2.129  0.9784 -1.2941  2.3004
  228SOL     MW  912   0.722   0.956   2.053  0.5832 -0.2935  0.0389
  229SOL     OW  913   0.175   0.617   0.026 -0.5512  0.1570 -0.5321
  229SOL    HW1  914   0.131   0.586  -0.050 -0.1974  0.7748  1.5930
  229SOL    HW2  915   0.191   0.541   0.082 -1.6148 -0.4352 -2.0507
  229SOL     MW  916   0.172   0.603   0.024 -0.6449  0.1604 -0.4521
  230SOL     OW  917   1.701   1.353   2.032 -0.7873 -0.1410  0.2288
  230SOL    HW1  918   1.633   1.337   2.100 -1.7441  0.9693 -0.1199
  230SOL    HW2  919   1.746   1.268   2.027 -0.8296  0.5745 -0.3603
  230SOL     MW  920   1.698   1.339   2.040 -0.9191  0.0999  0.1051
  231SOL     OW  921   2.742   1.253   2.188  0.0034  0.1712  0.1010
  231SOL    HW1  922   2.792   1.327   2.217 -3.7181 -0.8026 -3.3498
  231SOL    HW2  923   2.685   1.297   2.132 -2.7062 -0.1383 -0.7097
  231SOL     MW  924   2.741   1.268   2.185 -0.8451  0.0019 -0.4613
  232SOL     OW  925   2.297   0.831   2.018 -0.0914  0.3230 -0.1371
  232SOL    HW1  926   2.221   0.848   1.966 -0.9958  0.3286  0.2827
  232SOL    HW2  927   2.265   0.862   2.099  0.7284 -2.0802 -1.5357
  232SOL     MW  928   2.283   0.837   2.022 -0.1025  0.0067 -0.2662
  233SOL     OW  929   2.051   0.442   2.028 -0.6893 -0.3387  0.5673
  233SOL    HW1  930   2.133   0.397   2.000  1.7295 -0.3306  1.9004
  233SOL    HW2  931   2.071   0.486   2.110 -0.7755  1.7681 -1.2157
  233SOL     MW  932   2.065   0.442   2.035 -0.3815 -0.0597  0.5079
  234SOL     OW  933   0.289   1.070   2.422 -0.2020 -0.0389 -0.4219
  234SOL    HW1  934   0.189   1.072   2.413 -0.5763  1.4906  1.3083
  234SOL    HW2  935   0.318   1.157   2.449  1.6393 -1.5358 -1.1537
  234SOL     MW  936   0.280   1.082   2.424 -0.0085 -0.0346 -0.2902
  235SOL     OW  937   1.112   3.062   2.700  0.3442 -0.1896  0.5933
  235SOL    HW1  938   1.132   3.014   2.780  2.1145  0.0308  2.4278
  235SOL    HW2  939   1.075   3.140   2.739 -0.9219  0.2133 -3.7739
  235SOL     MW  940   1.110   3.066   2.716  0.4107 -0.1074  0.2591
  236SOL     OW  941   2.923   0.570   0.055  0.5217 -0.0720  1.0921
  236SOL    HW1  942   2.823   0.581   0.046  0.1797 -3.2098  1.0252
  236SOL    HW2  943   2.964   0.655   0.044 -1.1298  1.0043 -1.5415
  236SOL     MW  944   2.915   0.583   0.052  0.2587 -0.3440  0.7358
  237SOL     OW  945   2.004   1.106   2.180  0.3949  0.1913  0.5334
  237SOL    HW1  946   1.981   1.082   2.094 -0.1495  1.9615 -0.9465
  237SOL    HW2  947   2.028   1.031   2.232 -0.8904 -0.6831 -1.5184
  237SOL     MW  948   2.004   1.093   2.176  0.1535  0.3095  0.0674
  238SOL     OW  949   1.045   1.818   2.973  0.2658  0.4576  0.3783
  238SOL    HW1  950   1.001   1.731   2.960  1.3239 -0.9286  0.8111
  238SOL    HW2  951   1.135   1.810   2.992 -2.9782  2.3799 -1.6746
  238SOL     MW  952   1.051   1.806   2.974 -0.0226  0.5283  0.1645
  239SOL     OW  953   1.260   1.355   2.375  0.4075 -0.0890 -0.3523
  239SOL    HW1  954   1.207   1.397   2.445 -0.4253  0.0855  1.2766
  239SOL    HW2  955   1.310   1.285   2.424  0.6233  1.8819  1.2567
  239SOL     MW  956   1.260   1.351   2.391  0.3261  0.1941  0.0749
  240SOL     OW  957   0.694   0.817   2.282 -0.3724 -0.1889  0.0170
  240SOL    HW1  958   0.713   0.893   2.333 -0.0264  1.1402 -4.1653
  240SOL    HW2  959   0.780   0.787   2.255 -0.7791 -1.2797 -0.8423
  240SOL     MW  960   0.708   0.823   2.285 -0.3804 -0.1575 -0.6482
  241SOL     OW  961   0.638   0.376   0.015  0.1958 -0.2052  0.6069
  241SOL    HW1  962   0.674   0.439   0.077  3.2512 -0.7568 -2.0024
  241SOL    HW2  963   0.573   0.425  -0.038 -0.3208  1.9941 -1.0118
  241SOL     MW  964   0.634   0.391   0.016  0.5308  0.0122  0.0491
  242SOL     OW  965   1.510   1.679   2.338  0.0146 -0.0618 -0.1721
  242SOL    HW1  966   1.474   1.767   2.357 -3.4574  0.3369  0.2320
  242SOL    HW2  967   1.440   1.636   2.292 -0.2423 -0.0190 -2.4995
  242SOL     MW  968   1.496   1.685   2.334 -0.4774 -0.0036 -0.4258
  243SOL     OW  969   1.041   0.224   2.494  0.1458 -0.5619  0.4065
  243SOL    HW1  970   1.107   0.218   2.417  2.6815 -1.6409 -0.2080
  243SOL    HW2  971   1.077   0.291   2.555  1.6814 -1.3297  1.9427
  243SOL     MW  972   1.054   0.232   2.492  0.6830 -0.8055  0.5281
  244SOL     OW  973   0.277   0.792   2.428 -0.2630  0.0887  0.3791
  244SOL    HW1  974   0.280   0.877   2.386 -0.0170 -0.1638  1.3410
  244SOL    HW2  975   0.365   0.757   2.419  0.7745  0.9434 -0.9993
  244SOL     MW  976   0.289   0.799   2.421 -0.0936  0.1681  0.3242
  245SOL     OW  977   1.237   0.222   2.326 -0.1460  0.0728 -0.1901
  245SOL    HW1  978   1.278   0.138   2.356 -2.4428 -1.1885 -1.3298
  245SOL    HW2  979   1.266   0.296   2.377  1.0588 -3.8079 -0.9886
  245SOL     MW  980   1.246   0.220   2.336 -0.2901 -0.6056 -0.4459
  246SOL     OW  981   1.223   1.209   2.135  0.1157 -0.0772  0.2135
  246SOL    HW1  982   1.170   1.129   2.164  4.4454  0.7973  0.7326
  246SOL    HW2  983   1.241   1.258   2.213  2.1979  1.0469  3.5114
  246SOL     MW  984   1.218   1.205   2.149  0.9617  0.1865  0.7171
  247SOL     OW  985   0.746   0.568   0.196 -0.0472  0.3616  0.3528
  247SOL    HW1  986   0.698   0.643   0.169  2.1459  2.4754 -2.1430
  247SOL    HW2  987   0.834   0.588   0.158 -0.5882  0.7902 -1.8299
  247SOL     MW  988   0.751   0.580   0.188  0.1708  0.6970 -0.2645
  248SOL     OW  989   0.351   1.339   2.483 -1.1903  0.5556  0.3655
  248SOL    HW1  990   0.403   1.366   2.407  1.0220  1.0899  1.4082
  248SOL    HW2  991   0.405   1.364   2.563 -1.8012  1.4447  0.4300
  248SOL     MW  992   0.365   1.346   2.484 -0.9790  0.7434  0.5116
  249SOL     OW  993   0.181   1.910   2.732 -0.1473  0.1902 -0.4421
  249SOL    HW1  994   0.136   1.839   2.693 -0.1149  0.1202  0.6632
  249SOL    HW2  995   0.213   1.875   2.819  1.0122 -0.3885  1.9527
  249SOL     MW  996   0.179   1.896   2.738  0.0100  0.1046  0.0197
  250SOL     OW  997   2.173   0.887   2.288 -0.3002 -0.1554 -0.4210
  250SOL    HW1  998   2.220   0.797   2.292  1.4778  3.3489 -1.5784
  250SOL    HW2  999   2.244   0.942   2.317 -1.6556  0.5885 -0.1590
  250SOL     MW 1000   2.189   0.882   2.292 -0.2445  0.4051 -0.5391
  251SOL     OW 1001   0.154   0.870   1.982 -0.1133 -0.3870  0.1370
  251SOL    HW1 1002   0.069   0.816   1.981 -1.4654 -0.2007  0.5543
  251SOL    HW2 1003   0.155   0.887   1.886 -0.8845  1.3856  0.9004
  251SOL     MW 1004   0.143   0.865   1.969 -0.3935 -0.1286  0.2928
  252SOL     OW 1005   1.714   1.000   2.841 -0.0572  0.1671  0.1364
  252SOL    HW1 1006   1.747   1.011   2.932  1.3106  0.2618  2.1191
  252SOL    HW2 1007   1.789   1.017   2.783  0.8815  1.8618  0.4536
  252SOL     MW 1008   1.728   1.003   2.845  0.2472  0.4032  0.4398
  253SOL     OW 1009   1.246   1.781   2.554 -0.6659 -0.1959  0.0904
  253SOL    HW1 1010   1.233   1.805   2.461  1.3121  0.1905 -1.7951
  253SOL    HW2 1011   1.160   1.821   2.583  0.8434  0.3221  4.5181
  253SOL     MW 1012   1.233   1.790   2.546 -0.2058 -0.0766  0.4258
  254SOL     OW 1013   1.070   1.001   2.250  0.3270  0.2013 -0.5100
  254SOL    HW1 1014   1.050   0.912   2.219 -1.0459  0.0338  1.4055
  254SOL    HW2 1015   0.991   1.048   2.235 -0.6594  0.4275  0.4387
  254SOL     MW 1016   1.057   0.996   2.244  0.0157  0.2091 -0.1321
  255SOL     OW 1017   0.760   2.587   2.144  0.3088 -0.0126  0.0812
  255SOL    HW1 1018   0.700   2.529   2.187  0.2073 -0.4904 -0.5690
  255SOL    HW2 1019   0.842   2.560   2.185  0.5379 -1.7963  1.4265
  255SOL     MW 1020   0.763   2.576   2.155  0.3256 -0.3110  0.1729
  256SOL     OW 1021   1.316   2.662   2.948  0.4983  0.0597  0.1124
  256SOL    HW1 1022   1.329   2.582   2.889 -1.7743 -0.6969  1.5367
  256SOL    HW2 1023   1.393   2.715   2.936  1.3099 -1.0635  1.0961
  256SOL     MW 1024   1.328   2.659   2.938  0.3056 -0.1883  0.4301
  257SOL     OW 1025   0.113   1.902   0.064  0.1516 -0.5412 -0.1418
  257SOL    HW1 1026   0.153   1.867   0.147 -0.6041 -2.5796  1.6006
  257SOL    HW2 1027   0.152   1.859  -0.012 -1.6342  0.9436 -0.7295
  257SOL     MW 1028   0.124   1.892   0.065 -0.1837 -0.6142  0.0106
  258SOL     OW 1029   0.752   1.026   2.452  0.2387  0.5635 -0.2797
  258SOL    HW1 1030   0.780   1.091   2.377  1.1202 -0.4316 -1.9631
  258SOL    HW2 1031   0.701   1.062   2.523  0.4823  0.0938  0.6772
  258SOL     MW 1032   0.749   1.039   2.452  0.3871  0.3702 -0.3755
  259SOL     OW 1033   0.841   0.360   2.365 -0.3196  0.3595 -0.2009
  259SOL    HW1 1034   0.771   0.362   2.425 -0.4198 -2.2114 -0.8120
  259SOL    HW2 1035   0.901   0.303   2.416 -0.3752  1.3410  0.8282
  259SOL     MW 1036   0.840   0.353   2.380 -0.3402  0.1498 -0.1458
  260SOL     OW 1037   0.483   0.139   1.568 -0.0639  0.2190 -0.4548
  260SOL    HW1 1038   0.456   0.061   1.515 -1.1661 -0.5368  0.7811
  260SOL    HW2 1039   0.566   0.163   1.528  3.7290 -1.5835 -1.4150
  260SOL     MW 1040   0.490   0.132   1.556  0.2911 -0.1185 -0.4184
  261SOL     OW 1041   1.220   0.765   2.012 -1.6216 -0.1022 -0.0653
  261SOL    HW1 1042   1.222   0.756   2.107 -0.6074  0.0313 -0.3377
  261SOL    HW2 1043   1.253   0.685   1.983  1.7671  0.7428  3.0958
  261SOL     MW 1044   1.224   0.754   2.021 -1.0407  0.0269  0.3158
  262SOL     OW 1045   1.042   0.338   0.164  0.2425  0.0285 -0.3554
  262SOL    HW1 1046   1.140   0.342   0.147 -0.4836 -0.6021 -1.5712
  262SOL    HW2 1047   1.005   0.273   0.101 -2.5443 -0.4327 -0.3776
  262SOL     MW 1048   1.050   0.330   0.154 -0.2210 -0.1156 -0.5187
  263SOL     OW 1049   0.407   3.090   2.502  0.2112 -0.1192  0.2659
  263SOL    HW1 1050   0.324   3.136   2.494 -0.0715  2.1015 -0.1402
  263SOL    HW2 1051   0.448   3.102   2.416 -0.6408 -0.0838 -1.1731
  263SOL     MW 1052   0.402   3.098   2.490  0.0615  0.1784  0.0224
  264SOL     OW 1053   1.475   1.341   1.884  0.1422  0.0300 -0.0830
  264SOL    HW1 1054   1.425   1.358   1.963 -0.0057  0.1826 -0.9578
  264SOL    HW2 1055   1.564   1.353   1.918  1.9504  1.3295  2.1487
  264SOL     MW 1056   1.480   1.345   1.899  0.3612  0.2216  0.0961
  265SOL     OW 1057   0.705   2.806   2.285  0.1730  0.3174 -0.1869
  265SOL    HW1 1058   0.748   2.726   2.247  0.2579  0.0571 -0.6457
  265SOL    HW2 1059   0.726   2.801   2.379  0.5164  4.2359  1.0781
  265SOL     MW 1060   0.713   2.795   2.292  0.2295  0.8001 -0.0805
  266SOL     OW 1061   0.982   0.734   2.226  0.2162  0.2341  0.2407
  266SOL    HW1 1062   0.969   0.685   2.141  2.4388  3.0903 -0.6443
  266SOL    HW2 1063   1.056   0.688   2.270 -0.5758  1.3458 -0.8753
  266SOL     MW 1064   0.990   0.721   2.221  0.4050  0.7576 -0.0233
  267SOL     OW 1065   1.439   1.775   2.783 -0.0316  0.1440 -0.4211
  267SOL    HW1 1066   1.479   1.723   2.716  1.4237  2.4196 -0.1621
  267SOL    HW2 1067   1.375   1.836   2.738  0.8318 -1.2207 -0.4668
  267SOL     MW 1068   1.435   1.776   2.768  0.2743  0.2642 -0.3930
  268SOL     OW 1069   0.185   0.813   1.676  0.1686 -0.0188 -0.5916
  268SOL    HW1 1070   0.121   0.853   1.621  0.3008 -0.4313 -1.8067
  268SOL    HW2 1071   0.167   0.719   1.685 -1.0936 -1.5240 -2.5259
  268SOL     MW 1072   0.174   0.806   1.670  0.0195 -0.2718 -1.0071
  269SOL     OW 1073   1.413   1.936   2.372 -0.0667  0.0846  0.1022
  269SOL    HW1 1074   1.495   1.988   2.364 -0.3849  0.9160 -0.8601
  269SOL    HW2 1075   1.352   1.991   2.413  0.3489 -2.0246 -1.3543
  269SOL     MW 1076   1.416   1.950   2.376 -0.0538 -0.0840 -0.2170
  270SOL     OW 1077   1.113   0.412   1.643  0.4424 -0.0480  0.5096
  270SOL    HW1 1078   1.073   0.329   1.671 -1.1028 -2.5582  0.1454
  270SOL    HW2 1079   1.206   0.388   1.651  1.8196 -0.6731 -1.9346
  270SOL     MW 1080   1.120   0.398   1.648  0.4202 -0.4617  0.1391
  271SOL     OW 1081   0.887   0.017   2.542 -0.3484  0.1684 -0.1359
  271SOL    HW1 1082   0.952  -0.026   2.603 -0.5147  0.3340  0.8482
  271SOL    HW2 1083   0.939   0.103   2.523  0.6292  1.7993 -0.1201
  271SOL     MW 1084   0.903   0.023   2.548 -0.2414  0.4054 -0.0040
  272SOL     OW 1085   1.493   2.873   2.829 -0.2259 -0.3821 -0.1554
  272SOL    HW1 1086   1.432   2.915   2.770  0.0712 -2.2732  1.2965
  272SOL    HW2 1087   1.545   2.944   2.862  0.6024  2.5200 -0.3181
  272SOL     MW 1088   1.492   2.888   2.826 -0.0774 -0.2487  0.0147
  273SOL     OW 1089   1.452   0.993   2.817 -0.0057 -0.1594 -0.0893
  273SOL    HW1 1090   1.548   0.998   2.814 -0.4958  0.4415  1.1402
  273SOL    HW2 1091   1.427   1.074   2.862  0.2785  0.1371  2.9338
  273SOL     MW 1092   1.461   1.005   2.823 -0.0328 -0.0410  0.4718
  274SOL     OW 1093   1.482   0.727   0.121 -0.0138 -0.2895  0.1183
  274SOL    HW1 1094   1.503   0.636   0.097 -2.5632  0.7202 -0.0373
  274SOL    HW2 1095   1.401   0.712   0.180  4.3769 -1.0669  0.6533
  274SOL     MW 1096   1.474   0.713   0.126  0.2291 -0.2589  0.1684
  275SOL     OW 1097   1.726   0.547   1.756  0.0346 -0.3044 -0.5564
  275SOL    HW1 1098   1.795   0.588   1.810 -2.1314 -1.0863  3.0983
  275SOL    HW2 1099   1.745   0.452   1.760 -0.0263 -2.9814  2.0909
  275SOL     MW 1100   1.738   0.540   1.764 -0.2593 -0.7608  0.2751
  276SOL     OW 1101   0.311   1.216   1.897  0.3595 -0.3609  0.3106
  276SOL    HW1 1102   0.366   1.135   1.918  2.8426  0.4149  0.6208
  276SOL    HW2 1103   0.224   1.195   1.932 -2.1639 -0.0515 -0.6521
  276SOL     MW 1104   0.307   1.203   1.905  0.3542 -0.2177  0.2245
  277SOL     OW 1105   1.883   1.281   2.414 -0.0891 -0.4411 -0.3637
  277SOL    HW1 1106   1.961   1.285   2.475  2.8663 -0.5615  0.5397
  277SOL    HW2 1107   1.910   1.317   2.332 -1.0001 -0.4780 -1.1725
  277SOL     MW 1108   1.896   1.286   2.411  0.1807 -0.4619 -0.3512
  278SOL     OW 1109   1.449   0.611   1.733 -0.0395 -0.2870  0.0250
  278SOL    HW1 1110   1.411   0.590   1.824  2.8411  0.3370  0.4642
  278SOL    HW2 1111   1.542   0.592   1.750  1.2486 -0.1871  1.1433
  278SOL     MW 1112   1.456   0.606   1.747  0.5105 -0.1915  0.2305
  279SOL     OW 1113   0.557   0.029   2.272  0.1016  0.1536 -0.6127
  279SOL    HW1 1114   0.649   0.014   2.265  2.4523  0.7635 -0.8663
  279SOL    HW2 1115   0.557   0.123   2.270  2.2457 -0.3911  1.0141
  279SOL     MW 1116   0.569   0.039   2.271  0.6946  0.1622 -0.4316
  280SOL     OW 1117   1.463   0.963   2.130  0.8395  0.0441  0.7018
  280SOL    HW1 1118   1.511   0.887   2.090 -1.0525 -1.9935  0.1103
  280SOL    HW2 1119   1.470   0.950   2.226  1.5873 -2.0767 -0.5344
  280SOL     MW 1120   1.470   0.951   2.137  0.6886 -0.5045  0.4606
  281SOL     OW 1121   1.287   1.337   2.780  0.2092  0.6801 -0.1966
  281SOL    HW1 1122   1.381   1.344   2.768 -3.3370  1.5262 -0.2057
  281SOL    HW2 1123   1.278   1.284   2.861 -0.8107  1.8750  1.7128
  281SOL     MW 1124   1.298   1.331   2.789 -0.3933  0.9494  0.0541
  282SOL     OW 1125   1.101   1.294   1.694 -0.1380  0.1753  0.0443
  282SOL    HW1 1126   1.047   1.366   1.645  0.2892  0.8721  1.8487
  282SOL    HW2 1127   1.101   1.317   1.787 -0.8000  1.4478 -0.4174
  282SOL     MW 1128   1.094   1.307   1.700 -0.1690  0.4352  0.2215
  283SOL     OW 1129   0.794   1.200   2.998  0.9062 -0.5505 -0.0119
  283SOL    HW1 1130   0.876   1.172   3.039  4.8487  1.0506 -0.2245
  283SOL    HW2 1131   0.788   1.292   3.024  1.8633  1.0131  0.1875
  283SOL     MW 1132   0.804   1.208   3.007  1.5527 -0.1330 -0.0137
  284SOL     OW 1133   0.518   0.651   2.384  0.5202  0.6486 -0.4810
  284SOL    HW1 1134   0.590   0.708   2.344  0.7503 -1.1181  2.3965
  284SOL    HW2 1135   0.486   0.593   2.315  0.0747 -0.6855  3.5897
  284SOL     MW 1136   0.523   0.651   2.370  0.4918  0.2395  0.4358
  285SOL     OW 1137   0.941   0.937   2.824  0.2752  0.1497 -0.0258
  285SOL    HW1 1138   0.980   0.960   2.739  1.2206  0.6615  0.8613
  285SOL    HW2 1139   0.885   0.858   2.806  0.1328 -2.8030 -1.2617
  285SOL     MW 1140   0.939   0.930   2.810  0.3811 -0.1724 -0.0718
  286SOL     OW 1141   1.178   1.494   2.587 -0.0519 -0.1233 -0.0974
  286SOL    HW1 1142   1.208   1.473   2.675  1.4041 -2.8948 -0.0197
  286SOL    HW2 1143   1.204   1.582   2.591 -2.7866 -0.2456  0.4788
  286SOL     MW 1144   1.185   1.503   2.599 -0.2206 -0.5051 -0.0112
  287SOL     OW 1145   1.107   0.945   0.286  0.5542 -0.1300  0.4872
  287SOL    HW1 1146   1.136   0.996   0.366 -0.0767 -0.2999  0.3011
  287SOL    HW2 1147   1.010   0.947   0.285  1.1520 -5.0130 -1.2429
  287SOL     MW 1148   1.098   0.952   0.297  0.5498 -0.7967  0.2344
  288SOL     OW 1149   1.534   0.570   2.102  0.0286  0.1116 -0.3382
  288SOL    HW1 1150   1.519   0.596   2.195  1.1937 -1.6691  2.4465
  288SOL    HW2 1151   1.560   0.653   2.056 -0.9284 -0.2659  0.5251
  288SOL     MW 1152   1.536   0.584   2.108  0.0561 -0.1732  0.1431
  289SOL     OW 1153   1.000   1.042   2.570  1.1274 -0.4851  0.0295
  289SOL    HW1 1154   1.043   0.970   2.527  1.8068 -0.4545  0.0943
  289SOL    HW2 1155   0.914   1.033   2.528  1.0821  0.3919  2.0273
  289SOL     MW 1156   0.994   1.032   2.559  1.2111 -0.3654  0.3016
  290SOL     OW 1157   0.818   0.650   1.601  0.3067  0.5725 -0.2565
  290SOL    HW1 1158   0.873   0.635   1.523  0.0100 -1.3780  1.3225
  290SOL    HW2 1159   0.875   0.634   1.674 -1.5313 -0.8450  0.3521
  290SOL     MW 1160   0.833   0.646   1.601  0.0251  0.1281  0.0322
  291SOL     OW 1161   0.217   0.341   0.118  0.2989  1.0618  0.0378
  291SOL    HW1 1162   0.280   0.266   0.125  0.6853 -1.4476 -1.3965
  291SOL    HW2 1163   0.149   0.326   0.054 -2.3771  0.6309 -0.1974
  291SOL     MW 1164   0.217   0.329   0.110 -0.0032  0.6739 -0.1825
  292SOL     OW 1165   1.014   0.598   0.095 -0.2268 -0.2038  0.0269
  292SOL    HW1 1166   1.093   0.642   0.130  3.1643 -0.3052  0.8470
  292SOL    HW2 1167   1.012   0.505   0.129  0.3081 -0.9038 -2.2299
  292SOL     MW 1168   1.024   0.591   0.104  0.2912 -0.3096 -0.1627
  293SOL     OW 1169   0.179   0.127   2.437 -0.4624  0.3177  0.0360
  293SOL    HW1 1170   0.122   0.108   2.361 -0.5281 -1.7414 -1.0720
  293SOL    HW2 1171   0.128   0.186   2.492 -0.0754 -0.2743 -0.9226
  293SOL     MW 1172   0.164   0.132   2.434 -0.4200 -0.0321 -0.2367
  294SOL     OW 1173   1.502   0.639   2.369 -0.1573 -0.2562  0.2263
  294SOL    HW1 1174   1.531   0.683   2.444 -0.8483  2.3651  0.3684
  294SOL    HW2 1175   1.473   0.551   2.392 -0.3477 -3.2201 -3.4195
  294SOL     MW 1176   1.502   0.633   2.382 -0.2736 -0.3014 -0.2360
  295SOL     OW 1177   0.914   0.605   2.527  0.2538 -0.2156  0.1575
  295SOL    HW1 1178   0.881   0.534   2.477 -3.7009 -1.0655 -0.1971
  295SOL    HW2 1179   0.851   0.643   2.591 -1.4406 -0.3394 -1.7461
  295SOL     MW 1180   0.901   0.600   2.529 -0.4915 -0.3441 -0.1404
  296SOL     OW 1181   1.307   0.256   2.055  0.2406  0.4113  0.1814
  296SOL    HW1 1182   1.365   0.181   2.041 -0.0747  2.1527 -0.8182
  296SOL    HW2 1183   1.286   0.242   2.152  0.0157 -1.8749 -1.2146
  296SOL     MW 1184   1.312   0.244   2.066  0.1693  0.3395 -0.1347
  297SOL     OW 1185   1.385   0.363   1.630 -0.5822 -0.1261 -0.1191
  297SOL    HW1 1186   1.414   0.444   1.675 -2.0581  2.1729  1.0216
  297SOL    HW2 1187   1.445   0.292   1.661 -0.5150 -0.4681  0.9697
  297SOL     MW 1188   1.397   0.364   1.640 -0.7681  0.1321  0.1751
  298SOL     OW 1189   1.653   0.802   1.985 -0.1217 -0.3080 -0.2144
  298SOL    HW1 1190   1.632   0.864   1.912  1.9564  0.3588  0.2850
  298SOL    HW2 1191   1.721   0.845   2.040  1.2327 -1.1727 -0.7671
  298SOL     MW 1192   1.659   0.816   1.983  0.3312 -0.3341 -0.2215
  299SOL     OW 1193   0.585   1.098   0.043 -0.4487 -0.3912  0.3980
  299SOL    HW1 1194   0.670   1.117  -0.000 -2.6555 -1.2016  0.3604
  299SOL    HW2 1195   0.521   1.091  -0.027  0.0123  2.9356 -0.0472
  299SOL     MW 1196   0.587   1.099   0.028 -0.6790 -0.0592  0.3343
  300SOL     OW 1197   1.297   1.150   2.540  0.1885 -0.4375 -0.4888
  300SOL    HW1 1198   1.210   1.128   2.522  3.2959 -1.0846 -2.8440
  300SOL    HW2 1199   1.302   1.198   2.626  1.5349  0.5378 -0.8811
  300SOL     MW 1200   1.286   1.154   2.549  0.7761 -0.3942 -0.8513
  301SOL     OW 1201   1.455   0.916   0.647  0.9108 -0.1718 -0.2557
  301SOL    HW1 1202   1.470   0.943   0.740 -0.5933  0.4620 -1.5619
  301SOL    HW2 1203   1.402   0.837   0.654  1.5484  2.6292 -0.6667
  301SOL     MW 1204   1.450   0.910   0.660  0.7964  0.2814 -0.4823
  302SOL     OW 1205   0.131   1.483   2.021 -0.5652  0.6764 -0.4832
  302SOL    HW1 1206   0.148   1.420   2.089  2.7596  1.2075 -2.0505
  302SOL    HW2 1207   0.063   1.548   2.061 -2.7619  0.3101 -1.9085
  302SOL     MW 1208   0.124   1.483   2.035 -0.4164  0.6982 -0.8780
  303SOL     OW 1209   0.377   1.726   2.633  0.0085 -0.0294 -0.4461
  303SOL    HW1 1210   0.332   1.707   2.550 -0.6135  0.9896 -2.9883
  303SOL    HW2 1211   0.344   1.807   2.664  3.5403  2.4484 -0.1655
  303SOL     MW 1212   0.367   1.734   2.626  0.3924  0.4320 -0.7445
  304SOL     OW 1213   0.557   2.072   2.353 -0.7522  0.1473 -0.1591
  304SOL    HW1 1214   0.623   2.134   2.311 -1.6058 -1.0122  1.3482
  304SOL    HW2 1215   0.602   1.985   2.351  1.7802  0.9571  1.4456
  304SOL     MW 1216   0.572   2.069   2.347 -0.5307  0.1012  0.2515
  305SOL     OW 1217   1.126   0.586   0.482  0.1517  0.1766 -0.8834
  305SOL    HW1 1218   1.032   0.590   0.484 -1.2174 -2.6655 -0.4439
  305SOL    HW2 1219   1.134   0.492   0.499  1.4836 -2.1086 -2.5019
  305SOL     MW 1220   1.114   0.574   0.484  0.1468 -0.4999 -1.0390
  306SOL     OW 1221   1.171   1.476   0.271 -0.8897 -0.2796 -0.3304
  306SOL    HW1 1222   1.203   1.389   0.303  2.4105  0.1710 -2.0494
  306SOL    HW2 1223   1.227   1.486   0.200 -2.0356 -0.1984  0.6189
  306SOL     MW 1224   1.182   1.466   0.266 -0.6054 -0.2095 -0.4320
  307SOL     OW 1225   1.326   0.508   1.952 -0.2018  0.0841  0.3109
  307SOL    HW1 1226   1.295   0.419   1.971 -0.0605 -3.2182 -0.6193
  307SOL    HW2 1227   1.404   0.530   2.015  0.9901 -0.2605 -1.5568
  307SOL     MW 1228   1.332   0.499   1.963 -0.0259 -0.3971 -0.0583
  308SOL     OW 1229   2.141   0.547   2.728  0.3269 -0.3268 -0.0768
  308SOL    HW1 1230   2.234   0.546   2.751 -3.3170  0.4385  0.1034
  308SOL    HW2 1231   2.121   0.637   2.701 -0.0483  1.0998  1.0751
  308SOL     MW 1232   2.151   0.559   2.728 -0.2033 -0.0376  0.0989
  309SOL     OW 1233   0.450   0.411   0.372  0.5176  0.1254 -0.2903
  309SOL    HW1 1234   0.534   0.387   0.410  0.3782  1.1155 -1.0279
  309SOL    HW2 1235   0.429   0.342   0.310 -0.8862  2.7708 -2.8437
  309SOL     MW 1236   0.458   0.399   0.369  0.3140  0.6051 -0.7245
  310SOL     OW 1237   0.497   0.620   1.943 -0.3197 -0.3107  0.2633
  310SOL    HW1 1238   0.560   0.539   1.935 -3.3433 -1.3467 -0.8614
  310SOL    HW2 1239   0.545   0.686   1.902 -2.4612  0.0106 -2.1277
  310SOL     MW 1240   0.512   0.618   1.936 -1.0012 -0.4050 -0.2005
  311SOL     OW 1241   1.932   0.685   1.894 -0.1419 -0.9138 -0.1955
  311SOL    HW1 1242   1.890   0.711   1.973 -1.5855  0.9147 -0.0050
  311SOL    HW2 1243   1.987   0.614   1.935  0.6960 -0.0388  2.0445
  311SOL     MW 1244   1.934   0.679   1.910 -0.2218 -0.5571  0.1252
  312SOL     OW 1245   1.765   2.556   0.130 -0.1546 -0.5455  0.4226
  312SOL    HW1 1246   1.845   2.589   0.176 -1.1090  1.6048  0.4194
  312SOL    HW2 1247   1.683   2.610   0.162 -1.8475 -1.1727  0.9946
  312SOL     MW 1248   1.764   2.567   0.140 -0.5039 -0.3445  0.4976
  313SOL     OW 1249   0.088   1.133   2.990  0.3374 -0.9558  0.2292
  313SOL    HW1 1250   0.106   1.118   3.081  0.1775  1.3443 -0.5390
  313SOL    HW2 1251   0.147   1.204   2.964  0.2739  0.7882 -0.3142
  313SOL     MW 1252   0.098   1.140   2.998  0.3080 -0.4222  0.0561
  314SOL     OW 1253   2.154   2.934   2.985  0.4852  0.0254 -0.4508
  314SOL    HW1 1254   2.084   2.966   2.928  1.8543 -3.5100  0.0029
  314SOL    HW2 1255   2.216   3.004   3.008 -0.3944 -0.2900 -1.2304
  314SOL     MW 1256   2.153   2.948   2.980  0.5498 -0.4826 -0.4938
  315SOL     OW 1257   1.522   1.973   0.005 -0.1199 -0.0559  0.2673
  315SOL    HW1 1258   1.439   2.002   0.039  0.8742 -0.7680  2.2370
  315SOL    HW2 1259   1.554   2.027  -0.062 -2.1921  0.4167  3.1962
  315SOL     MW 1260   1.515   1.984   0.001 -0.2621 -0.0875  0.9136
  316SOL     OW 1261   1.283   0.678   2.716 -0.3188 -0.3562  0.1564
  316SOL    HW1 1262   1.358   0.721   2.679 -2.1107  0.6391 -1.4508
  316SOL    HW2 1263   1.300   0.701   2.807 -0.8796 -0.1213  2.4213
  316SOL     MW 1264   1.295   0.687   2.724 -0.6292 -0.1939  0.2432
  317SOL     OW 1265   0.726   1.450   2.586 -0.0578 -0.3885  0.1895
  317SOL    HW1 1266   0.804   1.391   2.575 -0.6981 -0.9828  0.0497
  317SOL    HW2 1267   0.732   1.492   2.494  1.0121 -2.2311 -1.8682
  317SOL     MW 1268   0.737   1.448   2.572 -0.0011 -0.7101 -0.1004
  318SOL     OW 1269   1.320   0.356   2.906  0.1142 -0.2070  0.3888
  318SOL    HW1 1270   1.221   0.383   2.922 -0.8916  1.5011  0.5128
  318SOL    HW2 1271   1.376   0.432   2.938 -1.6837  1.2134 -0.0654
  318SOL     MW 1272   1.315   0.370   2.913 -0.2557  0.2058  0.3452
  319SOL     OW 1273   0.784   0.420   2.871  0.0583  0.1257  0.3211
  319SOL    HW1 1274   0.757   0.355   2.806  1.4564 -0.0099  1.7978
  319SOL    HW2 1275   0.739   0.399   2.955  3.6040  1.7723 -0.3253
  319SOL     MW 1276   0.774   0.409   2.873  0.7106  0.3251  0.4307
  320SOL     OW 1277   1.079   1.348   1.953 -0.7656 -0.0144  0.6967
  320SOL    HW1 1278   1.128   1.285   2.007  1.3205  2.5395  0.1814
  320SOL    HW2 1279   1.147   1.416   1.958  0.8217 -0.7442  0.0006
  320SOL     MW 1280   1.095   1.349   1.961 -0.2809  0.2263  0.5369
  321SOL     OW 1281   1.117   0.909   3.026  0.6258  0.1780  0.3682
  321SOL    HW1 1282   1.036   0.912   2.982  0.5197 -1.3179  3.3360
  321SOL    HW2 1283   1.169   0.834   2.999  1.9401  0.9941 -1.3250
  321SOL     MW 1284   1.113   0.900   3.017  0.7852  0.0883  0.5363
  322SOL     OW 1285   1.281   0.848   1.687 -0.2700  0.5472 -0.0835
  322SOL    HW1 1286   1.351   0.778   1.700 -1.1528  0.5710 -2.2756
  322SOL    HW2 1287   1.270   0.898   1.772 -1.2765 -1.4101  1.5595
  322SOL     MW 1288   1.289   0.845   1.700 -0.5193  0.2921 -0.1559
  323SOL     OW 1289   1.243   1.560   1.909 -0.2152  0.3530  0.0610
  323SOL    HW1 1290   1.271   1.545   1.814 -1.4290  2.9854 -2.3167
  323SOL    HW2 1291   1.178   1.635   1.898 -0.0336  0.4082  0.8156
  323SOL     MW 1292   1.238   1.568   1.895 -0.3514  0.7076 -0.1531
  324SOL     OW 1293   1.488   0.963   2.417 -0.7671  0.6896  0.4660
  324SOL    HW1 1294   1.415   1.009   2.444  3.6523 -3.9333  0.9395
  324SOL    HW2 1295   1.564   1.024   2.425 -0.8076 -0.5771 -4.6028
  324SOL     MW 1296   1.489   0.977   2.422 -0.1894 -0.0875 -0.1403
  325SOL     OW 1297   1.073   0.427   2.967 -0.3079  0.7637  0.5666
  325SOL    HW1 1298   1.045   0.465   3.050  1.0386  1.4852  0.5758
  325SOL    HW2 1299   1.012   0.450   2.889 -1.7746 -0.0017 -0.0201
  325SOL     MW 1300   1.061   0.435   2.968 -0.3238  0.7579  0.4904
  326SOL     OW 1301   0.485   1.374   2.222  0.7870  0.1011  0.0656
  326SOL    HW1 1302   0.544   1.314   2.173  1.6768 -1.4174 -0.4219
  326SOL    HW2 1303   0.487   1.450   2.162 -0.6032 -0.5804  1.6775
  326SOL     MW 1304   0.493   1.376   2.207  0.7210 -0.1892  0.2140
  327SOL     OW 1305   1.931   0.792   2.421  0.1915 -0.1283 -0.0982
  327SOL    HW1 1306   1.922   0.762   2.509 -2.2973  2.1273 -0.5982
  327SOL    HW2 1307   2.022   0.826   2.412 -0.7929 -0.4478  0.1316
  327SOL     MW 1308   1.942   0.792   2.431 -0.2667  0.1272 -0.1338
  328SOL     OW 1309   0.158   1.303   2.219  0.2400  0.2585  0.9542
  328SOL    HW1 1310   0.112   1.232   2.169  1.6323  0.7560  0.9375
  328SOL    HW2 1311   0.247   1.287   2.210 -0.6099  2.0514 -0.5337
  328SOL     MW 1312   0.164   1.292   2.211  0.3116  0.5607  0.7557
  329SOL     OW 1313   0.154   0.193   1.312  0.0799  0.7843  0.1351
  329SOL    HW1 1314   0.129   0.205   1.403  0.3253  1.8388 -1.9259
  329SOL    HW2 1315   0.231   0.244   1.319 -3.9897 -0.5055  0.5271
  329SOL     MW 1316   0.161   0.201   1.325 -0.4247  0.7533 -0.0851
  330SOL     OW 1317   0.385   3.097   2.060  0.6399  0.4162  0.3242
  330SOL    HW1 1318   0.453   3.111   2.131  2.2818 -0.6523  1.5724
  330SOL    HW2 1319   0.307   3.064   2.108 -2.4256 -0.1200  2.1910
  330SOL     MW 1320   0.384   3.094   2.076  0.4520  0.2045  0.7352
  331SOL     OW 1321   0.866   1.215   2.277 -0.0793 -0.1601 -0.2014
  331SOL    HW1 1322   0.802   1.284   2.246  0.1452  3.5822 -1.2109
  331SOL    HW2 1323   0.934   1.263   2.331  1.1032  0.9873  2.3922
  331SOL     MW 1324   0.866   1.231   2.280  0.1063  0.4851  0.0076
  332SOL     OW 1325   1.328   1.767   3.028 -0.0486 -0.2647 -0.5204
  332SOL    HW1 1326   1.359   1.746   2.940  0.9326 -1.2703 -1.3305
  332SOL    HW2 1327   1.402   1.824   3.066  0.1755 -3.2352  2.8541
  332SOL     MW 1328   1.342   1.772   3.022  0.1104 -0.7893 -0.1821
  333SOL     OW 1329   1.747   1.390   2.971  0.3335 -0.0065  0.8013
  333SOL    HW1 1330   1.842   1.381   2.977 -2.6599  1.5054  0.7938
  333SOL    HW2 1331   1.715   1.351   3.050 -1.6827 -2.3639  1.1015
  333SOL     MW 1332   1.756   1.384   2.982 -0.3275 -0.1181  0.8399
  334SOL     OW 1333   1.392  -0.001   2.622 -0.4652  0.2246  0.0468
  334SOL    HW1 1334   1.311   0.024   2.662  1.3840  0.1988  0.3403
  334SOL    HW2 1335   1.459   0.056   2.657  2.6624 -2.0323 -1.0164
  334SOL     MW 1336   1.390   0.010   2.632  0.1915 -0.0766 -0.0547
  335SOL     OW 1337   1.358   0.768   2.967  0.2704 -0.3171 -0.8269
  335SOL    HW1 1338   1.384   0.748   3.056 -1.3162 -1.4987 -1.2996
  335SOL    HW2 1339   1.403   0.849   2.942  0.7714  2.4106 -1.2273
  335SOL     MW 1340   1.368   0.776   2.975  0.1272 -0.1131 -0.9421
  336SOL     OW 1341   0.952   1.062   1.980  0.0497  0.2693  0.0492
  336SOL    HW1 1342   0.980   1.152   1.977 -0.6170  2.6243 -1.1409
  336SOL    HW2 1343   1.029   1.011   1.947 -2.9433 -0.8223 -4.9239
  336SOL     MW 1344   0.966   1.067   1.975 -0.4332  0.4360 -0.7640
  337SOL     OW 1345   0.596   1.827   2.785 -0.4639  0.4386  0.4864
  337SOL    HW1 1346   0.549   1.770   2.724 -0.1612  2.6564  1.7837
  337SOL    HW2 1347   0.687   1.803   2.774  2.1028  2.1670  1.5045
  337SOL     MW 1348   0.602   1.816   2.776 -0.0853  0.9593  0.7919
  338SOL     OW 1349   1.119   0.793   2.517 -0.0172  0.1778  0.5097
  338SOL    HW1 1350   1.041   0.729   2.511 -3.3991  0.4648  0.3370
  338SOL    HW2 1351   1.187   0.759   2.584  2.1161  0.4162  1.8067
  338SOL     MW 1352   1.118   0.780   2.525 -0.1819  0.2471  0.6581
  339SOL     OW 1353   1.525   1.031   1.813 -0.5838  0.2891  0.2638
  339SOL    HW1 1354   1.478   1.074   1.743 -0.0433  1.6950  0.6711
  339SOL    HW2 1355   1.463   1.023   1.887 -1.2734 -2.7744 -2.2277
  339SOL     MW 1356   1.511   1.036   1.814 -0.6035  0.0704 -0.0112
  340SOL     OW 1357   1.339   1.518   0.075 -0.8509  0.9239 -0.0689
  340SOL    HW1 1358   1.350   1.592   0.020  1.2894  1.8739  0.5604
  340SOL    HW2 1359   1.427   1.496   0.106  0.3910 -0.8560  0.3087
  340SOL     MW 1360   1.352   1.525   0.072 -0.4047  0.8144  0.0639
  341SOL     OW 1361   0.157   1.422   2.733  0.5789  0.0754  0.8138
  341SOL    HW1 1362   0.221   1.416   2.661 -2.4021 -0.6732  0.2225
  341SOL    HW2 1363   0.082   1.380   2.693 -0.5756  0.5015  0.3942
  341SOL     MW 1364   0.156   1.416   2.718  0.0333  0.0329  0.6804
  342SOL     OW 1365   1.288   0.349   0.088  0.1979  0.1227 -0.1931
  342SOL    HW1 1366   1.366   0.393   0.118 -0.9159  0.5208  0.4614
  342SOL    HW2 1367   1.288   0.364  -0.006 -1.7054 -0.5697 -0.2534
  342SOL     MW 1368   1.298   0.357   0.080 -0.2002  0.0839 -0.1147
  343SOL     OW 1369   0.221   0.296   2.148 -0.3867 -0.3455  0.0183
  343SOL    HW1 1370   0.275   0.225   2.176 -0.4519 -3.2998  2.2338
  343SOL    HW2 1371   0.171   0.266   2.069  4.4298  0.1167 -3.7338
  343SOL     MW 1372   0.221   0.283   2.141  0.2402 -0.6743 -0.1845
  344SOL     OW 1373   1.715   2.072   0.180  0.3926  0.0385 -0.2608
  344SOL    HW1 1374   1.699   2.151   0.125  0.6054 -0.7595  0.0437
  344SOL    HW2 1375   1.632   2.021   0.167  3.2259 -1.4528  0.2875
  344SOL     MW 1376   1.702   2.076   0.171  0.7945 -0.2635 -0.1483
  345SOL     OW 1377   0.764   1.592   2.358  0.4663  0.1832 -0.4237
  345SOL    HW1 1378   0.689   1.611   2.302  2.0093 -2.7969  1.5534
  345SOL    HW2 1379   0.829   1.587   2.293  0.5969  0.2029  1.9285
  345SOL     MW 1380   0.762   1.594   2.342  0.6871 -0.2074  0.1475
  346SOL     OW 1381   1.769   1.050   0.005 -0.4059 -0.3027  0.2306
  346SOL    HW1 1382   1.841   1.097   0.044  0.4164 -4.6794  1.3803
  346SOL    HW2 1383   1.714   1.015   0.074  1.3055 -0.1696  1.3354
  346SOL     MW 1384   1.771   1.052   0.019 -0.0716 -0.8626  0.5280
  347SOL     OW 1385   1.251   0.729   2.286 -0.8333 -0.3623 -0.5476
  347SOL    HW1 1386   1.337   0.712   2.319  0.1762 -0.9723 -1.5615
  347SOL    HW2 1387   1.208   0.777   2.359 -2.0114 -0.2749  0.5492
  347SOL     MW 1388   1.257   0.733   2.300 -0.8555 -0.4312 -0.5367
  348SOL     OW 1389   1.428   2.674   1.899 -0.2381  0.1865  0.3861
  348SOL    HW1 1390   1.454   2.590   1.938 -0.9293  1.7746 -0.1128
  348SOL    HW2 1391   1.432   2.736   1.975  0.6946 -2.0519  0.8646
  348SOL     MW 1392   1.432   2.671   1.914 -0.2063  0.1007  0.3834
  349SOL     OW 1393   1.500   0.284   2.696 -0.3652 -0.0553 -0.0336
  349SOL    HW1 1394   1.422   0.308   2.746  0.8194 -2.1542  1.0684
  349SOL    HW2 1395   1.563   0.256   2.764  0.7471  1.4354  3.6538
  349SOL     MW 1396   1.498   0.284   2.712 -0.0621 -0.1355  0.5983
  350SOL     OW 1397   1.866   0.642   2.691 -0.5145  0.3156  0.3604
  350SOL    HW1 1398   1.832   0.573   2.626 -0.7407  0.0977 -2.6004
  350SOL    HW2 1399   1.952   0.613   2.703 -2.4390  0.0073 -2.0260
  350SOL     MW 1400   1.873   0.629   2.684 -0.7982  0.2461 -0.3451
  351SOL     OW 1401   0.056   0.985   1.481  0.3241  0.0528 -0.2235
  351SOL    HW1 1402  -0.017   1.024   1.537  0.1199  2.3387 -1.0479
  351SOL    HW2 1403   0.122   1.053   1.485 -2.7422  2.9647  2.7623
  351SOL     MW 1404   0.056   0.999   1.489 -0.1074  0.7386  0.0617
  352SOL     OW 1405   0.824   1.674   2.697 -0.0796 -0.9192 -1.1514
  352SOL    HW1 1406   0.870   1.641   2.777 -1.1399 -1.0218  2.0797
  352SOL    HW2 1407   0.796   1.592   2.658 -0.9488  2.6419  0.2403
  352SOL     MW 1408   0.827   1.659   2.702 -0.3342 -0.4629 -0.5414
  353SOL     OW 1409   3.069   2.487   2.639  0.0510  0.3967 -0.1210
  353SOL    HW1 1410   3.166   2.501   2.631 -1.5146 -2.1561 -1.0446
  353SOL    HW2 1411   3.023   2.570   2.631 -1.3399  2.0024 -0.7644
  353SOL     MW 1412   3.076   2.500   2.637 -0.3391  0.2717 -0.3278
  354SOL     OW 1413   0.287   2.528   0.811  0.0835 -0.0664 -0.3302
  354SOL    HW1 1414   0.341   2.498   0.885  0.1641 -1.5301  1.2631
  354SOL    HW2 1415   0.218   2.462   0.821 -0.0343 -0.7438  0.1765
  354SOL     MW 1416   0.285   2.515   0.822  0.0786 -0.3489 -0.0531
  355SOL     OW 1417   0.074   2.278   0.380  0.4376 -0.1103 -0.2251
  355SOL    HW1 1418  -0.006   2.223   0.389  0.6317  1.1947 -0.3689
  355SOL    HW2 1419   0.058   2.338   0.451 -1.3346  0.7787 -0.8648
  355SOL     MW 1420   0.061   2.278   0.391  0.2294  0.1792 -0.3285
  356SOL     OW 1421   0.805   2.812   0.968 -0.0545 -0.8022 -0.3829
  356SOL    HW1 1422   0.817   2.857   0.881 -0.8670 -0.5277 -1.4170
  356SOL    HW2 1423   0.713   2.787   0.966  2.6827 -0.0430 -0.9216
  356SOL     MW 1424   0.794   2.815   0.956  0.1994 -0.6658 -0.5904
  357SOL     OW 1425   1.789   2.929   0.418 -0.2980  0.0509 -0.0543
  357SOL    HW1 1426   1.725   2.874   0.474 -2.8682 -0.2518  0.6109
  357SOL    HW2 1427   1.878   2.891   0.398  3.7286 -0.4572 -2.0228
  357SOL     MW 1428   1.792   2.917   0.422 -0.1059 -0.0561 -0.2262
  358SOL     OW 1429   0.477   0.125   1.109 -0.3499  0.3802 -0.3379
  358SOL    HW1 1430   0.567   0.129   1.075  0.6693  1.7833 -0.3170
  358SOL    HW2 1431   0.427   0.153   1.024 -0.4919 -0.2470  1.7282
  358SOL     MW 1432   0.483   0.129   1.093 -0.2341  0.4826 -0.0625
  359SOL     OW 1433   0.877   2.954   1.857 -0.2091 -0.0729  0.2974
  359SOL    HW1 1434   0.854   2.876   1.910  0.0328  3.6834  1.6803
  359SOL    HW2 1435   0.929   2.925   1.786  0.3300 -0.4298  0.9901
  359SOL     MW 1436   0.880   2.940   1.855 -0.1060  0.3756  0.5712
  360SOL     OW 1437   0.530   2.745   0.970 -0.0662  0.5362 -0.3367
  360SOL    HW1 1438   0.529   2.707   0.882  0.3938 -1.1580 -1.7138
  360SOL    HW2 1439   0.568   2.680   1.034  1.9094  0.6148  1.9485
  360SOL     MW 1440   0.535   2.731   0.967  0.2552  0.3231 -0.2169
  361SOL     OW 1441   0.150   2.685   1.327  0.2120 -0.0822  0.7457
  361SOL    HW1 1442   0.118   2.758   1.384  0.2226  1.2411 -0.5374
  361SOL    HW2 1443   0.244   2.688   1.341 -1.4447 -2.7377  0.7687
  361SOL     MW 1444   0.158   2.695   1.336 -0.0052 -0.2580  0.5794
  362SOL     OW 1445   1.489   2.436   0.610  0.0849 -0.2801 -0.0591
  362SOL    HW1 1446   1.476   2.371   0.679  2.5992 -1.0999  0.0080
  362SOL    HW2 1447   1.482   2.526   0.651  0.9179  0.2414 -1.0560
  362SOL     MW 1448   1.486   2.439   0.625  0.5266 -0.3195 -0.1818
  363SOL     OW 1449   0.328   3.069   0.697  0.5238 -0.1005 -0.2593
  363SOL    HW1 1450   0.311   3.001   0.770  1.2614 -1.1920  0.3874
  363SOL    HW2 1451   0.246   3.079   0.656  1.6543 -0.2532 -0.4570
  363SOL     MW 1452   0.315   3.061   0.701  0.7703 -0.2647 -0.2000
  364SOL     OW 1453   0.695   0.172   0.212  0.9065  0.5230 -0.1204
  364SOL    HW1 1454   0.622   0.108   0.230 -1.8303 -0.7254 -2.4218
  364SOL    HW2 1455   0.650   0.245   0.175  0.1145 -1.2790 -1.2749
  364SOL     MW 1456   0.680   0.173   0.210  0.4409  0.1206 -0.5764
  365SOL     OW 1457   0.966   1.981   1.088  0.0259  0.2491  0.3176
  365SOL    HW1 1458   0.969   2.065   1.052 -0.1275 -0.2024  2.1475
  365SOL    HW2 1459   0.890   1.936   1.045  0.8635 -0.5722 -1.1973
  365SOL     MW 1460   0.956   1.986   1.077  0.1162  0.0812  0.3592
  366SOL     OW 1461   2.825   2.637   1.008 -0.1411  0.3936 -0.0830
  366SOL    HW1 1462   2.913   2.637   1.058 -0.2070  0.8909  0.2895
  366SOL    HW2 1463   2.833   2.660   0.919 -1.4534 -1.1357  1.0507
  366SOL     MW 1464   2.838   2.640   1.003 -0.3230  0.2575  0.1158
  367SOL     OW 1465   1.261   2.939   0.867  0.1261  0.0173 -0.9773
  367SOL    HW1 1466   1.235   2.999   0.798  0.1021 -2.4006  0.6030
  367SOL    HW2 1467   1.225   2.852   0.838  0.3138  1.0069 -1.0290
  367SOL     MW 1468   1.253   2.935   0.854  0.1477 -0.1711 -0.7756
  368SOL     OW 1469   1.650   0.407   0.691  0.0596  0.3662 -0.0515
  368SOL    HW1 1470   1.739   0.363   0.680  2.1708 -1.5097  1.3640
  368SOL    HW2 1471   1.670   0.501   0.695 -0.1359 -2.6309  0.2621
  368SOL     MW 1472   1.664   0.414   0.690  0.3124 -0.2768  0.1766
  369SOL     OW 1473   0.119   2.513   1.659 -0.7367  0.0121  0.3226
  369SOL    HW1 1474   0.209   2.522   1.697 -0.3890 -0.0674 -2.7235
  369SOL    HW2 1475   0.088   2.595   1.680  3.4367 -2.3595  1.1234
  369SOL     MW 1476   0.127   2.525   1.667 -0.1402 -0.3113  0.0264
  370SOL     OW 1477   0.737   0.079   0.957 -0.4765  0.2293  0.7845
  370SOL    HW1 1478   0.822   0.104   0.992  0.3289  0.0845  0.3201
  370SOL    HW2 1479   0.741  -0.016   0.980 -0.3024  1.6861  3.1630
  370SOL     MW 1480   0.749   0.070   0.964 -0.3472  0.4024  1.0370
  371SOL     OW 1481   1.340   2.932   1.506  0.2962 -0.7788  0.9221
  371SOL    HW1 1482   1.277   2.861   1.488  0.9941 -2.1234  1.2872
  371SOL    HW2 1483   1.334   2.996   1.431  0.5094 -0.3425 -1.6679
  371SOL     MW 1484   1.330   2.931   1.493  0.4164 -0.8987  0.6285
  372SOL     OW 1485   0.757   2.305   0.477 -0.2007 -0.5762 -0.1276
  372SOL    HW1 1486   0.750   2.210   0.493  1.8403  1.9236  0.8730
  372SOL    HW2 1487   0.789   2.300   0.389 -0.0731 -1.0814 -2.4984
  372SOL     MW 1488   0.760   2.292   0.468  0.0855 -0.3131 -0.3084
  373SOL     OW 1489   2.750   3.032   1.432  0.0504 -0.3699 -0.7028
  373SOL    HW1 1490   2.832   3.002   1.402 -0.0831 -0.5191  2.0565
  373SOL    HW2 1491   2.730   3.096   1.363  3.3165  0.0514  0.7524
  373SOL     MW 1492   2.758   3.037   1.419  0.4637 -0.3340 -0.1467
  374SOL     OW 1493   1.495   0.462   0.210 -0.1259  0.1841  0.3652
  374SOL    HW1 1494   1.564   0.404   0.224 -0.1713  0.9568  0.4256
  374SOL    HW2 1495   1.456   0.461   0.299 -1.3621  2.2688  1.2543
  374SOL     MW 1496   1.499   0.454   0.224 -0.2950  0.5611  0.4905
  375SOL     OW 1497   1.024   2.079   2.309 -0.4466  0.1704 -0.1147
  375SOL    HW1 1498   1.080   2.062   2.383 -1.5824 -0.0307  4.0783
  375SOL    HW2 1499   1.038   2.009   2.251 -2.4035 -2.1045  2.3527
  375SOL     MW 1500   1.033   2.068   2.311 -0.8546 -0.1563  0.7641
  376SOL     OW 1501   0.643   2.584   0.066  0.7727 -0.4963  0.3097
  376SOL    HW1 1502   0.645   2.536   0.151 -2.0775  3.7034 -3.6346
  376SOL    HW2 1503   0.608   2.517   0.011  1.4139  2.7752  0.4418
  376SOL     MW 1504   0.639   2.569   0.070  0.4812  0.4894 -0.1933
  377SOL     OW 1505   1.290   2.023   0.862 -0.3874  0.8225  0.2698
  377SOL    HW1 1506   1.216   1.991   0.809  1.5805 -2.3224  0.7125
  377SOL    HW2 1507   1.276   1.993   0.954  0.8625 -1.1197 -0.6261
  377SOL     MW 1508   1.279   2.015   0.867  0.0371  0.1513  0.2100
  378SOL     OW 1509   0.990   2.796   1.635 -0.8678 -0.2911 -0.3264
  378SOL    HW1 1510   0.951   2.707   1.633  1.0561 -0.2517  2.0043
  378SOL    HW2 1511   0.945   2.837   1.561 -1.1101 -0.4442 -2.7370
  378SOL     MW 1512   0.979   2.790   1.625 -0.6459 -0.3061 -0.3369
  379SOL     OW 1513   1.155   1.777   2.269  0.1787 -0.0386  0.0949
  379SOL    HW1 1514   1.088   1.771   2.201  1.1002 -2.6609 -0.4706
  379SOL    HW2 1515   1.221   1.714   2.240  0.5658  2.1263 -1.1795
  379SOL     MW 1516   1.155   1.768   2.256  0.3514 -0.0989 -0.1478
  380SOL     OW 1517   0.769   0.062   1.563  0.0031  0.4399 -0.4029
  380SOL    HW1 1518   0.840   0.064   1.495  4.5732  1.0302  0.7656
  380SOL    HW2 1519   0.820   0.092   1.641 -0.8038 -0.7616  2.5511
  380SOL     MW 1520   0.785   0.066   1.564  0.4996  0.3593  0.1410
  381SOL     OW 1521   0.811   2.049   0.774  0.0183 -0.2424  0.3601
  381SOL    HW1 1522   0.900   2.030   0.739 -1.1326 -0.9381  1.8965
  381SOL    HW2 1523   0.835   2.127   0.821 -1.7540  1.6672  0.1949
  381SOL     MW 1524   0.826   2.057   0.775 -0.3674 -0.0823  0.5410
  382SOL     OW 1525   0.636   0.119   0.696  0.6443 -0.0290  0.2666
  382SOL    HW1 1526   0.656   0.095   0.796  1.8119 -0.3452  0.9794
  382SOL    HW2 1527   0.584   0.044   0.668 -0.1975  2.2593  0.9134
  382SOL     MW 1528   0.632   0.106   0.705  0.6873  0.2312  0.4460
  383SOL     OW 1529   0.572   3.046   0.315 -0.0640 -0.3864 -0.4312
  383SOL    HW1 1530   0.617   2.987   0.257 -1.5361 -2.9538 -0.2580
  383SOL    HW2 1531   0.522   2.998   0.375  1.8596 -0.4758 -3.8106
  383SOL     MW 1532   0.571   3.032   0.315 -0.0045 -0.7369 -0.8542
  384SOL     OW 1533   0.635   2.927   0.616  0.1798 -0.5504 -0.3285
  384SOL    HW1 1534   0.718   2.940   0.663  0.8618 -1.2627  2.0439
  384SOL    HW2 1535   0.604   2.844   0.657 -0.2545 -1.2479  1.2879
  384SOL     MW 1536   0.642   2.918   0.627  0.2125 -0.7364  0.1978
  385SOL     OW 1537   1.339   2.103   1.526 -0.1764  0.0175  0.2982
  385SOL    HW1 1538   1.431   2.119   1.563  1.7036 -0.9412  0.5350
  385SOL    HW2 1539   1.320   2.030   1.584 -2.8317  0.6133 -2.0078
  385SOL     MW 1540   1.349   2.095   1.539 -0.2787 -0.0304  0.0252
  386SOL     OW 1541   1.302   0.377   0.851  0.1658  0.5865  0.1623
  386SOL    HW1 1542   1.246   0.426   0.910  1.4140  1.0104  2.5218
  386SOL    HW2 1543   1.323   0.305   0.913 -0.5346 -1.2684  1.4357
  386SOL     MW 1544   1.297   0.374   0.867  0.2381  0.3977  0.6416
  387SOL     OW 1545   0.859   2.172   1.484 -0.4154 -0.1476 -0.1948
  387SOL    HW1 1546   0.929   2.219   1.445 -2.3734  0.7934  0.2219
  387SOL    HW2 1547   0.849   2.096   1.429 -0.5381  1.5877 -0.3834
  387SOL     MW 1548   0.867   2.168   1.472 -0.6899  0.2055 -0.1647
  388SOL     OW 1549   1.567   2.809   1.237  0.0506 -0.3460  0.0333
  388SOL    HW1 1550   1.483   2.783   1.199  1.3025  3.8939 -0.3826
  388SOL    HW2 1551   1.638   2.778   1.185  0.8949  1.7562 -0.5692
  388SOL     MW 1552   1.565   2.802   1.225  0.3271  0.4908 -0.1011
  389SOL     OW 1553   0.460   0.058   3.048  0.0470  0.4258 -0.2040
  389SOL    HW1 1554   0.550   0.059   3.005 -1.1419 -1.2994  1.3132
  389SOL    HW2 1555   0.411   0.099   2.972  0.4170 -0.0057 -0.2873
  389SOL     MW 1556   0.465   0.063   3.032 -0.0610  0.1412 -0.0148
  390SOL     OW 1557   1.287   0.102   0.659 -0.2384  0.2406  0.6709
  390SOL    HW1 1558   1.363   0.095   0.602 -0.1511  0.1481 -1.0029
  390SOL    HW2 1559   1.322   0.117   0.747  3.8426 -2.3830 -2.2418
  390SOL     MW 1560   1.302   0.103   0.663  0.3116 -0.1178  0.0657
  391SOL     OW 1561   0.317   2.196   1.398  0.3287  0.7633  0.3669
  391SOL    HW1 1562   0.254   2.113   1.398 -0.7760 -0.6839  0.0447
  391SOL    HW2 1563   0.264   2.278   1.406 -1.7583 -0.3659 -0.8431
  391SOL     MW 1564   0.302   2.196   1.399 -0.0924  0.4233  0.1647
  392SOL     OW 1565   2.064   2.178   0.352  0.3494  0.0020 -0.6909
  392SOL    HW1 1566   2.158   2.177   0.330 -0.0805 -0.5420 -1.3183
  392SOL    HW2 1567   2.048   2.257   0.404  3.5065  3.0888  1.0500
  392SOL     MW 1568   2.074   2.188   0.356  0.7092  0.3375 -0.5440
  393SOL     OW 1569   0.152   3.028   2.756  0.1253 -0.5942  0.0611
  393SOL    HW1 1570   0.208   3.000   2.679  0.1848  1.2996 -0.8611
  393SOL    HW2 1571   0.152   3.123   2.754  1.0604 -1.5855 -1.1220
  393SOL     MW 1572   0.159   3.037   2.746  0.2565 -0.4751 -0.2167
  394SOL     OW 1573   0.885   1.764   1.545 -1.1653  0.6881  0.3629
  394SOL    HW1 1574   0.816   1.775   1.607  1.6029 -0.8437 -0.5608
  394SOL    HW2 1575   0.884   1.833   1.478  1.0862  2.5253  0.3211
  394SOL     MW 1576   0.876   1.774   1.544 -0.5030  0.7284  0.2355
  395SOL     OW 1577   1.038   2.794   2.590  0.1129 -0.4417 -0.0140
  395SOL    HW1 1578   1.076   2.883   2.601  0.2723  2.3311 -0.5359
  395SOL    HW2 1579   1.103   2.735   2.554  1.8091  1.5131  0.6780
  395SOL     MW 1580   1.052   2.798   2.587  0.3577  0.1820  0.0085
  396SOL     OW 1581   0.739   1.858   2.395  0.0380  0.0626  0.0826
  396SOL    HW1 1582   0.819   1.892   2.436 -1.9127  0.6106  0.1251
  396SOL    HW2 1583   0.750   1.757   2.392 -1.3290 -2.4576 -1.4644
  396SOL     MW 1584   0.751   1.849   2.400 -0.3997 -0.1976 -0.1159
  397SOL     OW 1585   1.011   2.312   1.247  0.0259 -0.4374  0.2391
  397SOL    HW1 1586   1.058   2.374   1.179 -1.0541  1.0589 -0.7261
  397SOL    HW2 1587   1.075   2.319   1.324  0.5521  0.8081 -0.4211
  397SOL     MW 1588   1.026   2.321   1.248 -0.0472 -0.0756  0.0246
  398SOL     OW 1589   0.532   2.668   0.711 -0.1984 -0.1624 -0.5741
  398SOL    HW1 1590   0.446   2.637   0.687  2.6336  0.6265 -0.9815
  398SOL    HW2 1591   0.595   2.596   0.682 -0.8921 -1.9543 -1.4090
  398SOL     MW 1592   0.529   2.654   0.704  0.0837 -0.2947 -0.7380
  399SOL     OW 1593   0.248   2.076   0.389  0.1332 -0.3409  0.1079
  399SOL    HW1 1594   0.191   2.149   0.404 -0.9552 -0.6038  3.3131
  399SOL    HW2 1595   0.305   2.097   0.320  4.0795 -2.1442  1.7198
  399SOL     MW 1596   0.248   2.088   0.382  0.5103 -0.6135  0.7435
  400SOL     OW 1597   0.514   1.898   0.186 -0.8694  0.2760  0.0367
  400SOL    HW1 1598   0.484   1.990   0.186 -2.4869  0.5408 -0.3609
  400SOL    HW2 1599   0.470   1.841   0.251 -0.6733  1.0018 -1.1851
  400SOL     MW 1600   0.504   1.902   0.195 -1.0569  0.4067 -0.1770
  401SOL     OW 1601   0.783   2.014   0.112  0.4224  0.6547 -0.1286
  401SOL    HW1 1602   0.838   1.935   0.138  1.3365 -1.7110 -0.6945
  401SOL    HW2 1603   0.696   1.984   0.149 -0.2254 -2.0445 -0.4919
  401SOL     MW 1604   0.779   2.000   0.120  0.4576 -0.0135 -0.2512
  402SOL     OW 1605   0.618   3.007   1.773 -0.0768 -0.3186  1.0395
  402SOL    HW1 1606   0.701   2.995   1.820 -1.3111 -2.3830  0.9197
  402SOL    HW2 1607   0.637   3.079   1.711  0.4680 -2.3959  0.7856
  402SOL     MW 1608   0.631   3.015   1.771 -0.1677 -0.8650  0.9902
  403SOL     OW 1609   0.101   0.413   0.367 -0.7953 -0.1714 -0.7039
  403SOL    HW1 1610   0.155   0.454   0.433  0.8036 -3.3877 -1.1863
  403SOL    HW2 1611   0.162   0.404   0.295 -0.3233  0.0970  0.3413
  403SOL     MW 1612   0.116   0.417   0.367 -0.5221 -0.5604 -0.6297
  404SOL     OW 1613   0.881   2.887   0.707  0.2015  0.7520  0.3079
  404SOL    HW1 1614   0.927   2.823   0.656  0.7401  2.3259  0.6424
  404SOL    HW2 1615   0.915   2.971   0.676  1.3162  0.1303 -0.8288
  404SOL     MW 1616   0.891   2.889   0.696  0.4196  0.8776  0.2020
  405SOL     OW 1617   0.512   2.374   1.482 -0.0573  0.0706  0.5401
  405SOL    HW1 1618   0.496   2.460   1.450 -0.2208 -2.6148  0.0926
  405SOL    HW2 1619   0.445   2.319   1.449 -1.4333  0.3098 -1.9385
  405SOL     MW 1620   0.502   2.378   1.474 -0.2604 -0.2522  0.1540
  406SOL     OW 1621   0.381   2.380   1.032 -0.0912  0.3722 -0.8584
  406SOL    HW1 1622   0.299   2.392   1.079  0.8759  1.8832 -3.5145
  406SOL    HW2 1623   0.409   2.289   1.051  0.3234 -0.7259  1.5644
  406SOL     MW 1624   0.373   2.370   1.041  0.0911  0.4267 -0.8892
  407SOL     OW 1625   3.067   2.704   1.152 -0.0045 -0.0580 -0.0549
  407SOL    HW1 1626   3.137   2.703   1.227  0.3932 -0.8046  1.5982
  407SOL    HW2 1627   3.123   2.714   1.073 -1.3887 -0.2069 -0.7064
  407SOL     MW 1628   3.084   2.705   1.152 -0.1346 -0.1762  0.0773
  408SOL     OW 1629   2.139   2.076   0.777  0.3920  0.1230 -0.3984
  408SOL    HW1 1630   2.060   2.063   0.831 -2.4147 -1.1327 -1.9215
  408SOL    HW2 1631   2.099   2.097   0.692  1.9969 -0.2052  0.8756
  408SOL     MW 1632   2.123   2.077   0.773  0.2334 -0.0860 -0.4312
  409SOL     OW 1633   1.447   0.121   0.891  0.6942 -0.1172  0.1451
  409SOL    HW1 1634   1.515   0.190   0.898  1.6795 -0.2387  2.6080
  409SOL    HW2 1635   1.452   0.082   0.976 -1.8349 -1.0017  0.6706
  409SOL     MW 1636   1.456   0.125   0.903  0.4905 -0.2500  0.5394
  410SOL     OW 1637   1.105   2.467   1.050 -0.1383  0.1718  0.1357
  410SOL    HW1 1638   1.025   2.481   0.996 -2.3894  0.0403 -1.6687
  410SOL    HW2 1639   1.159   2.408   0.996 -0.3562  0.5151 -0.3619
  410SOL     MW 1640   1.102   2.461   1.036 -0.4640  0.1998 -0.1680
  411SOL     OW 1641   1.972   0.035   2.883 -0.0393 -0.1498  0.3677
  411SOL    HW1 1642   1.916   0.008   2.813  1.8029 -1.3954  0.9425
  411SOL    HW2 1643   1.914   0.093   2.932  1.2554 -0.1175 -1.4105
  411SOL     MW 1644   1.957   0.039   2.880  0.3746 -0.3099  0.2089
  412SOL     OW 1645   0.998   2.258   0.615 -0.2939  0.4626 -0.3332
  412SOL    HW1 1646   1.058   2.335   0.613  3.8691  1.9484  3.0864
  412SOL    HW2 1647   0.925   2.297   0.570  1.0272 -1.7554  1.2394
  412SOL     MW 1648   0.996   2.273   0.609  0.4296  0.3660  0.3255
  413SOL     OW 1649   0.520   2.811   3.048  0.1036  0.2383 -0.2239
  413SOL    HW1 1650   0.561   2.737   3.090 -0.5001 -0.7641  1.1456
  413SOL    HW2 1651   0.570   2.831   2.974  0.0054  0.5494 -4.4426
  413SOL     MW 1652   0.532   2.804   3.044  0.0110  0.1471 -0.5999
  414SOL     OW 1653   1.926   2.854   1.066 -0.3261 -0.4016  0.2596
  414SOL    HW1 1654   1.906   2.898   0.983  0.9845 -0.8174 -1.3295
  414SOL    HW2 1655   2.025   2.844   1.071 -1.2923 -1.4781 -0.3335
  414SOL     MW 1656   1.936   2.858   1.055 -0.2807 -0.5985 -0.0283
  415SOL     OW 1657   1.767   2.634   1.099  0.3533  0.0131 -0.2398
  415SOL    HW1 1658   1.758   2.595   1.181  2.9511  4.2465 -0.2415
  415SOL    HW2 1659   1.824   2.707   1.127 -0.9368  0.5242 -0.0767
  415SOL     MW 1660   1.773   2.638   1.113  0.5259  0.6391 -0.2185
  416SOL     OW 1661   0.511   1.933   1.353  0.5751 -0.2763  0.4615
  416SOL    HW1 1662   0.470   2.005   1.304 -2.0282 -1.7017  1.5041
  416SOL    HW2 1663   0.436   1.872   1.381 -1.7315 -1.2768  1.1689
  416SOL     MW 1664   0.495   1.934   1.350 -0.0727 -0.5963  0.6924
  417SOL     OW 1665   1.039   3.075   2.076 -0.1526  0.4423  0.5654
  417SOL    HW1 1666   0.978   3.059   2.152  1.0863  1.2699 -2.4550
  417SOL    HW2 1667   0.994   3.046   1.988 -3.4780 -1.8640 -1.7164
  417SOL     MW 1668   1.025   3.069   2.074 -0.4279  0.2472 -0.1342
  418SOL     OW 1669   0.724   2.892   0.144  0.4846  0.3487  0.2844
  418SOL    HW1 1670   0.788   2.920   0.077 -0.6077  2.2242 -0.4433
  418SOL    HW2 1671   0.647   2.859   0.097  1.8845  0.5017 -0.1349
  418SOL     MW 1672   0.723   2.892   0.129  0.5252  0.6163  0.1331
  419SOL     OW 1673   0.438   2.658   1.405 -0.1601 -0.0528 -0.5702
  419SOL    HW1 1674   0.507   2.715   1.455 -0.3915  0.8611 -0.0533
  419SOL    HW2 1675   0.478   2.650   1.319 -1.2266 -1.3908  2.2794
  419SOL     MW 1676   0.452   2.665   1.400 -0.3313 -0.1087 -0.1260
  420SOL     OW 1677   0.892   2.249   0.964  0.2817  0.9546  0.3337
  420SOL    HW1 1678   0.850   2.259   1.051 -0.6122 -0.1183 -0.2201
  420SOL    HW2 1679   0.840   2.308   0.906 -1.7333  0.3352 -3.1292
  420SOL     MW 1680   0.880   2.258   0.968 -0.1021  0.7313 -0.1962
  421SOL     OW 1681   2.951   0.046   3.100 -0.3483  0.0528 -0.7117
  421SOL    HW1 1682   2.890   0.024   3.028  0.3780 -3.1433 -2.4634
  421SOL    HW2 1683   2.964  -0.039   3.149 -1.2390 -0.2858 -2.8562
  421SOL     MW 1684   2.945   0.032   3.097 -0.3700 -0.4135 -1.2258
  422SOL     OW 1685   0.891   2.564   0.884 -0.3709  0.5416  0.0320
  422SOL    HW1 1686   0.868   2.647   0.926  0.2517  0.7804 -1.2666
  422SOL    HW2 1687   0.824   2.561   0.813  1.4802 -0.2220  2.1864
  422SOL     MW 1688   0.879   2.574   0.880 -0.0445  0.4724  0.1449
  423SOL     OW 1689   1.499   0.111   0.500 -0.8047 -0.6044  0.1928
  423SOL    HW1 1690   1.494   0.080   0.408  0.4189  2.3583 -0.0068
  423SOL    HW2 1691   1.461   0.201   0.479  1.8184  2.6386  1.2908
  423SOL     MW 1692   1.493   0.119   0.485 -0.2972  0.2144  0.3113
  424SOL     OW 1693   0.696   2.269   1.183  0.3887  0.0812  0.2072
  424SOL    HW1 1694   0.620   2.217   1.187  2.3945 -0.6465  0.2839
  424SOL    HW2 1695   0.754   2.238   1.249  1.7053 -0.1294  1.1874
  424SOL     MW 1696   0.694   2.258   1.192  0.8270 -0.0426  0.3466
  425SOL     OW 1697   1.736   2.822   1.998  0.3030  0.1267  0.2416
  425SOL    HW1 1698   1.728   2.826   1.902  0.1968 -0.4617  0.4331
  425SOL    HW2 1699   1.781   2.738   2.007  2.0185 -0.6702  1.3542
  425SOL     MW 1700   1.741   2.812   1.987  0.5153 -0.0561  0.4136
  426SOL     OW 1701   0.801   1.699   1.951 -0.0971  0.2898  0.0520
  426SOL    HW1 1702   0.754   1.741   1.872  1.0810 -1.5542 -1.6595
  426SOL    HW2 1703   0.820   1.771   2.013  2.2932 -3.6194  0.3350
  426SOL     MW 1704   0.797   1.714   1.949  0.3738 -0.4692 -0.1365
  427SOL     OW 1705   0.379   1.632   1.912 -0.0585  0.7060  0.4191
  427SOL    HW1 1706   0.420   1.553   1.947  0.0283 -1.2405 -0.6967
  427SOL    HW2 1707   0.285   1.614   1.926 -0.5666  0.1745  3.6178
  427SOL     MW 1708   0.372   1.619   1.918 -0.1141  0.3790  0.6939
  428SOL     OW 1709   0.584   2.575   1.173 -0.3121  0.4261 -0.3744
  428SOL    HW1 1710   0.666   2.541   1.228  1.9213  2.2994  2.9608
  428SOL    HW2 1711   0.543   2.498   1.140 -1.6981  2.0572 -1.0839
  428SOL     MW 1712   0.589   2.561   1.176 -0.2003  0.8885 -0.0280
  429SOL     OW 1713   1.323   2.755   1.105 -0.4325  0.4534 -0.3059
  429SOL    HW1 1714   1.250   2.696   1.127 -0.7235  1.8967 -1.7817
  429SOL    HW2 1715   1.277   2.816   1.048 -2.2789  1.3669  0.3637
  429SOL     MW 1716   1.307   2.756   1.100 -0.7145  0.7643 -0.4122
  430SOL     OW 1717   1.154   2.723   0.733 -0.0334  0.7152  0.4911
  430SOL    HW1 1718   1.169   2.637   0.769  1.2571  1.1448 -0.8647
  430SOL    HW2 1719   1.120   2.698   0.645 -0.8661 -0.9362 -1.7536
  430SOL     MW 1720   1.152   2.708   0.726  0.0270  0.5540  0.0160
  431SOL     OW 1721   0.335   1.922   1.080  0.4189 -0.1753 -0.1900
  431SOL    HW1 1722   0.421   1.878   1.068  2.1901 -1.0567  1.8394
  431SOL    HW2 1723   0.293   1.954   0.997 -0.1050  0.2829 -2.9175
  431SOL     MW 1724   0.341   1.920   1.068  0.5835 -0.2312 -0.2821
  432SOL     OW 1725   0.048   3.083   1.168  0.3850  0.2154  0.8153
  432SOL    HW1 1726   0.063   3.153   1.233 -1.9453 -0.0132 -0.7476
  432SOL    HW2 1727  -0.035   3.040   1.178  1.6833  0.6116 -0.6299
  432SOL     MW 1728   0.039   3.087   1.178  0.2488  0.2375  0.4184
  433SOL     OW 1729   0.619   2.853   1.537  0.4611 -0.2977  0.1014
  433SOL    HW1 1730   0.628   2.867   1.633  1.0875  3.7566 -3.2453
  433SOL    HW2 1731   0.701   2.872   1.491  1.9334 -0.0071  0.5829
  433SOL     MW 1732   0.631   2.858   1.544  0.7380  0.2756 -0.2767
  434SOL     OW 1733   1.604   2.839   1.509 -0.7826 -0.1304  0.8468
  434SOL    HW1 1734   1.515   2.874   1.497  0.6315 -2.1118 -1.1063
  434SOL    HW2 1735   1.610   2.808   1.417 -0.9339 -0.1645  0.0878
  434SOL     MW 1736   1.593   2.839   1.496 -0.6159 -0.3963  0.4890
  435SOL     OW 1737   2.827   1.816   0.228  0.5511 -0.2383  0.1446
  435SOL    HW1 1738   2.871   1.892   0.179 -1.4293  1.0335 -1.2473
  435SOL    HW2 1739   2.783   1.770   0.151 -0.2284 -0.6144 -0.6784
  435SOL     MW 1740   2.827   1.820   0.211  0.1869 -0.1201 -0.1476
  436SOL     OW 1741   1.342   2.777   0.385  0.2476 -0.5054  0.6894
  436SOL    HW1 1742   1.433   2.783   0.427  0.7914 -0.4387 -0.1285
  436SOL    HW2 1743   1.296   2.864   0.415 -0.7885  0.0544  0.0305
  436SOL     MW 1744   1.348   2.789   0.394  0.1826 -0.4227  0.4946
  437SOL     OW 1745   0.866   2.892   1.399 -1.0395  0.7697 -0.1606
  437SOL    HW1 1746   0.843   2.986   1.402  1.2356  1.4838  1.4814
  437SOL    HW2 1747   0.904   2.885   1.312  0.4653  0.4386  0.0066
  437SOL     MW 1748   0.868   2.903   1.388 -0.5408  0.8202  0.0781
  438SOL     OW 1749   0.853   2.665   1.916  0.0630  0.5671 -0.1423
  438SOL    HW1 1750   0.830   2.628   1.995 -0.3370  0.2003 -2.3283
  438SOL    HW2 1751   0.817   2.600   1.853  0.5441 -0.8434  0.4855
  438SOL     MW 1752   0.845   2.651   1.918  0.0737  0.3326 -0.3479
  439SOL     OW 1753   1.147   2.141   0.434  0.9011 -0.2801  0.1137
  439SOL    HW1 1754   1.088   2.181   0.509  0.0487 -1.4397  1.8124
  439SOL    HW2 1755   1.147   2.212   0.364  0.1702 -1.0908 -0.9029
  439SOL     MW 1756   1.139   2.155   0.435  0.6922 -0.5400  0.2037
  440SOL     OW 1757   1.714   2.989   0.008  0.1535 -0.3933  0.5592
  440SOL    HW1 1758   1.673   2.949   0.079  1.1550  0.2618 -2.1403
  440SOL    HW2 1759   1.796   2.939  -0.002  0.1729  0.5857  2.6781
  440SOL     MW 1760   1.719   2.977   0.016  0.2882 -0.1777  0.4826
  441SOL     OW 1761   0.325   2.646   0.492  0.4338 -0.3545 -0.4724
  441SOL    HW1 1762   0.311   2.627   0.403  1.1021 -0.2443  0.5193
  441SOL    HW2 1763   0.350   2.743   0.496  1.3419 -0.8461 -0.4698
  441SOL     MW 1764   0.326   2.656   0.480  0.6418 -0.4048 -0.3412
  442SOL     OW 1765   3.074   2.394   0.623  0.0559  0.3142  0.2734
  442SOL    HW1 1766   3.092   2.481   0.604 -0.1911 -1.6136 -1.4230
  442SOL    HW2 1767   2.987   2.395   0.655  0.7631  0.8975 -0.0618
  442SOL     MW 1768   3.065   2.406   0.625  0.1167  0.1368  0.0054
  443SOL     OW 1769   1.414   1.806   1.929 -0.4335 -0.3935  0.3354
  443SOL    HW1 1770   1.405   1.844   1.843  0.9268 -0.7183 -0.2690
  443SOL    HW2 1771   1.344   1.747   1.946 -0.2059 -1.8895  1.9178
  443SOL     MW 1772   1.404   1.803   1.920 -0.2240 -0.6338  0.4644
  444SOL     OW 1773   0.885   2.539   1.592  0.2105 -0.2843 -0.3534
  444SOL    HW1 1774   0.956   2.482   1.625  0.5429 -1.2594 -0.1022
  444SOL    HW2 1775   0.808   2.511   1.646 -2.3953 -0.4198  1.4975
  444SOL     MW 1776   0.884   2.528   1.603 -0.0894 -0.4308 -0.0761
  445SOL     OW 1777   0.920   0.078   1.334  0.4636  0.6083  0.1981
  445SOL    HW1 1778   0.881   0.168   1.320  1.1504  1.6980  2.8265
  445SOL    HW2 1779   0.999   0.075   1.290 -0.1934 -0.0996  1.8253
  445SOL     MW 1780   0.925   0.089   1.327  0.4676  0.6587  0.7596
  446SOL     OW 1781   2.723   2.889   1.084  0.0541  0.0489  0.1961
  446SOL    HW1 1782   2.690   2.935   1.010  1.3666 -0.7192  1.3631
  446SOL    HW2 1783   2.766   2.808   1.048  1.1144  1.3424  0.3023
  446SOL     MW 1784   2.725   2.884   1.070  0.3672  0.1182  0.3641
  447SOL     OW 1785   0.046   2.038   1.672  0.7179 -0.0550 -0.2924
  447SOL    HW1 1786   0.094   1.965   1.721  4.1844 -1.6863 -0.2010
  447SOL    HW2 1787  -0.026   1.998   1.625 -2.2991  0.4355  0.6875
  447SOL     MW 1788   0.043   2.023   1.672  0.7772 -0.2055 -0.1511
  448SOL     OW 1789   1.701   2.389   1.664 -0.3609  0.3354 -0.9066
  448SOL    HW1 1790   1.646   2.312   1.652  2.4846  1.4498  0.5482
  448SOL    HW2 1791   1.639   2.465   1.653 -1.8334  2.8101  0.4260
  448SOL     MW 1792   1.685   2.389   1.661 -0.1797  0.8090 -0.5389
  449SOL     OW 1793   0.767   2.829   0.416  0.2411 -0.0124 -0.2076
  449SOL    HW1 1794   0.730   2.811   0.329 -1.0296 -1.9040 -0.0182
  449SOL    HW2 1795   0.698   2.856   0.475 -0.1168 -2.6316 -0.8792
  449SOL     MW 1796   0.753   2.830   0.412  0.0263 -0.6075 -0.2712
  450SOL     OW 1797   1.213   2.441   0.679  0.1045 -0.1601  0.6144
  450SOL    HW1 1798   1.221   2.388   0.753  0.9766  2.1748 -2.7346
  450SOL    HW2 1799   1.306   2.440   0.649 -0.8255 -0.9366 -0.9187
  450SOL     MW 1800   1.226   2.434   0.684  0.0969  0.0455 -0.0297
  451SOL     OW 1801   0.543   2.027   1.624  0.3154  0.0383 -0.0330
  451SOL    HW1 1802   0.610   2.099   1.625  1.7827  2.8612 -1.5266
  451SOL    HW2 1803   0.540   1.994   1.534  1.0139  0.2239 -0.3388
  451SOL     MW 1804   0.551   2.032   1.612  0.6011  0.4352 -0.2704
  452SOL     OW 1805   0.254   2.728   0.016  0.0318  0.6985 -0.1898
  452SOL    HW1 1806   0.340   2.745  -0.022  2.8517  2.8844  0.7093
  452SOL    HW2 1807   0.196   2.765  -0.051  1.2654  0.2487  2.2338
  452SOL     MW 1808   0.258   2.735   0.002  0.5666  0.9275  0.2486
  453SOL     OW 1809   0.356   2.890   1.687 -0.2661 -0.3023  0.3196
  453SOL    HW1 1810   0.450   2.902   1.706 -0.7761  1.5490  0.5986
  453SOL    HW2 1811   0.353   2.951   1.617 -1.2734 -2.5172 -0.3795
  453SOL     MW 1812   0.368   2.900   1.680 -0.4663 -0.3503  0.2642
  454SOL     OW 1813   1.005   2.752   1.185  0.1742 -0.2075  0.1729
  454SOL    HW1 1814   0.951   2.684   1.228  1.5221 -3.4373  0.7157
  454SOL    HW2 1815   0.955   2.775   1.104 -0.5102 -2.4700  0.1659
  454SOL     MW 1816   0.992   2.746   1.180  0.2618 -0.9322  0.2436
  455SOL     OW 1817   1.593   2.910   0.235  0.3510 -0.1427 -0.3775
  455SOL    HW1 1818   1.670   2.900   0.289 -1.9424  2.4076 -0.1568
  455SOL    HW2 1819   1.552   2.817   0.225  0.8303 -0.5591  1.1199
  455SOL     MW 1820   1.598   2.896   0.241  0.1116  0.1388 -0.1508
  456SOL     OW 1821   2.833   0.330   1.371 -0.1870  0.5287  0.3439
  456SOL    HW1 1822   2.781   0.260   1.324  1.7731  1.5787  1.3005
  456SOL    HW2 1823   2.921   0.321   1.328  0.0989 -0.0177  1.0806
  456SOL     MW 1824   2.838   0.320   1.359  0.1093  0.5951  0.5673
  457SOL     OW 1825   0.959   1.578   2.917  0.3512 -0.1830 -0.0383
  457SOL    HW1 1826   0.892   1.529   2.968 -0.9998  0.2181 -0.0734
  457SOL    HW2 1827   1.036   1.530   2.891  0.9409  3.7342  0.4061
  457SOL     MW 1828   0.960   1.565   2.921  0.2507  0.3868  0.0157
  458SOL     OW 1829   1.495   1.405   0.552  0.3807  0.1439 -0.1711
  458SOL    HW1 1830   1.418   1.464   0.559  1.5113  0.7958 -0.6266
  458SOL    HW2 1831   1.474   1.345   0.479 -1.2539  0.3268 -2.2994
  458SOL     MW 1832   1.482   1.405   0.543  0.3142  0.2540 -0.5120
  459SOL     OW 1833   1.482   0.055   0.238 -0.4037  0.0101 -0.1570
  459SOL    HW1 1834   1.520  -0.036   0.230  0.0799 -0.2498  1.9975
  459SOL    HW2 1835   1.395   0.065   0.205  0.1808 -3.0542 -0.4866
  459SOL     MW 1836   1.476   0.044   0.232 -0.2628 -0.4285  0.0838
  460SOL     OW 1837   1.779   2.199   0.606 -0.0845  0.1223 -0.3491
  460SOL    HW1 1838   1.711   2.151   0.654 -1.3862  1.1213 -1.3370
  460SOL    HW2 1839   1.835   2.131   0.561  2.2349  1.7103  0.1096
  460SOL     MW 1840   1.778   2.184   0.607  0.0497  0.4636 -0.4189
  461SOL     OW 1841   0.401   2.386   0.582 -0.5178 -0.1791 -0.0535
  461SOL    HW1 1842   0.350   2.442   0.527  1.5378  1.5740 -0.0822
  461SOL    HW2 1843   0.344   2.382   0.657 -1.8409  1.2162  1.8164
  461SOL     MW 1844   0.387   2.393   0.585 -0.4212  0.2363  0.1894
  462SOL     OW 1845   0.397   0.297   1.312  0.9051  1.1284 -0.0308
  462SOL    HW1 1846   0.431   0.229   1.257 -2.9858  1.5205 -0.0478
  462SOL    HW2 1847   0.475   0.351   1.337 -1.0178  0.1992 -0.6925
  462SOL     MW 1848   0.412   0.296   1.308  0.1380  1.0575 -0.1203
  463SOL     OW 1849   0.909   0.061   0.645 -0.1186  0.0312 -0.0138
  463SOL    HW1 1850   0.933   0.059   0.550 -0.0916  0.9910 -1.7403
  463SOL    HW2 1851   0.814   0.079   0.643 -0.1900  2.8591 -1.9781
  463SOL     MW 1852   0.899   0.063   0.632 -0.1244  0.5310 -0.5007
  464SOL     OW 1853   0.856   3.030   2.278 -0.2139 -0.3990  0.0520
  464SOL    HW1 1854   0.796   2.956   2.262  0.5354  0.1122  0.1612
  464SOL    HW2 1855   0.865   3.033   2.375 -2.2935 -1.7711  4.2902
  464SOL     MW 1856   0.849   3.021   2.288 -0.3894 -0.5126  0.6256
  465SOL     OW 1857   0.664   0.299   0.504 -0.1446 -0.3581 -0.1179
  465SOL    HW1 1858   0.648   0.240   0.579 -0.9326 -0.1662 -0.3463
  465SOL    HW2 1859   0.657   0.235   0.434 -0.5447  1.1023 -3.1650
  465SOL     MW 1860   0.661   0.283   0.505 -0.3014 -0.1401 -0.5501
  466SOL     OW 1861   1.074   1.980   0.695  0.1726 -0.1267  0.2238
  466SOL    HW1 1862   1.048   1.905   0.638 -1.6158 -1.5789  0.7525
  466SOL    HW2 1863   1.104   2.040   0.625 -1.6831  0.1139 -3.4928
  466SOL     MW 1864   1.074   1.978   0.678 -0.3082 -0.2866 -0.1968
  467SOL     OW 1865   1.273   2.291   0.891 -0.3161 -0.2134 -0.0033
  467SOL    HW1 1866   1.365   2.303   0.897 -1.3223 -0.1044 -1.1743
  467SOL    HW2 1867   1.258   2.196   0.903 -1.8626  0.2785  0.2417
  467SOL     MW 1868   1.283   2.280   0.894 -0.6529 -0.1341 -0.1255
  468SOL     OW 1869   0.386   2.622   1.982  0.1989  0.3660  0.3237
  468SOL    HW1 1870   0.400   2.565   1.911 -0.4472  1.5259  0.6942
  468SOL    HW2 1871   0.340   2.704   1.963  0.2160 -0.3651  1.1738
  468SOL     MW 1872   0.382   2.625   1.970  0.1159  0.4226  0.4847
  469SOL     OW 1873   0.379   2.175   1.800 -0.3712  0.0622 -0.0487
  469SOL    HW1 1874   0.299   2.120   1.813  1.1368 -0.9220 -1.5827
  469SOL    HW2 1875   0.433   2.122   1.739  3.2891  2.4349 -2.1150
  469SOL     MW 1876   0.375   2.161   1.794  0.3107  0.2454 -0.5238
  470SOL     OW 1877   3.035   2.569   0.095  0.0340  0.7589 -0.2205
  470SOL    HW1 1878   2.961   2.528   0.147 -1.1116 -0.1512 -4.4229
  470SOL    HW2 1879   3.013   2.587   0.002  0.5118  4.3969 -0.2769
  470SOL     MW 1880   3.022   2.566   0.090 -0.0541  1.1188 -0.7824
  471SOL     OW 1881   1.166   2.725   1.420 -0.0515 -0.6101 -0.0666
  471SOL    HW1 1882   1.107   2.735   1.495  0.9358 -0.0217  0.9788
  471SOL    HW2 1883   1.125   2.772   1.346 -0.2106 -1.2712  1.8705
  471SOL     MW 1884   1.153   2.733   1.421  0.0578 -0.6197  0.3269
  472SOL     OW 1885   2.954   2.104   0.397  0.1949  0.0259 -0.5578
  472SOL    HW1 1886   2.976   2.060   0.308  0.3469 -1.3364 -1.7983
  472SOL    HW2 1887   2.897   2.037   0.439  0.6900 -1.1958 -1.5390
  472SOL     MW 1888   2.950   2.089   0.391  0.2803 -0.3150 -0.8509
  473SOL     OW 1889   0.859   2.539   1.308  0.4420  0.7208  0.2690
  473SOL    HW1 1890   0.915   2.465   1.278  0.4720  0.4833 -0.4537
  473SOL    HW2 1891   0.870   2.548   1.403  3.6453 -0.8571 -1.2044
  473SOL     MW 1892   0.868   2.531   1.317  0.8686  0.4813 -0.0208
  474SOL     OW 1893   0.820   2.170   1.765 -0.1428 -0.4787  0.3063
  474SOL    HW1 1894   0.916   2.196   1.792  0.1509  2.8082  1.9865
  474SOL    HW2 1895   0.833   2.146   1.675  1.8110  3.2677  1.7788
  474SOL     MW 1896   0.834   2.170   1.756  0.1538  0.4493  0.7223
  475SOL     OW 1897   1.625   0.007   1.457  0.4412  0.3553 -0.7568
  475SOL    HW1 1898   1.537   0.035   1.448  3.0504  2.3504  2.3596
  475SOL    HW2 1899   1.613  -0.086   1.464  0.3495  2.3078  1.6799
  475SOL     MW 1900   1.612  -0.002   1.456  0.7734  0.8762 -0.0241
  476SOL     OW 1901   1.454   2.608   0.875 -0.6079  0.0991 -0.0239
  476SOL    HW1 1902   1.422   2.631   0.968  1.1953 -0.9633  5.3339
  476SOL    HW2 1903   1.482   2.698   0.845  0.2630 -0.2540 -1.0389
  476SOL     MW 1904   1.454   2.623   0.883 -0.2551 -0.0876  0.5491
  477SOL     OW 1905   0.757   2.534   0.638  0.5462  0.2520  0.2412
  477SOL    HW1 1906   0.818   2.572   0.580 -2.9418 -0.8687 -2.3255
  477SOL    HW2 1907   0.737   2.452   0.592 -0.5984 -0.6891  1.9836
  477SOL     MW 1908   0.762   2.528   0.625 -0.0650 -0.0200  0.1324
  478SOL     OW 1909   0.111   2.700   0.928  0.2214  0.2694 -0.0055
  478SOL    HW1 1910   0.179   2.767   0.952  3.8272  0.0497  3.5881
  478SOL    HW2 1911   0.158   2.620   0.880 -1.2047 -0.1428 -2.7019
  478SOL     MW 1912   0.126   2.698   0.925  0.5090  0.1860  0.1129
  479SOL     OW 1913   1.418   1.959   1.293  0.0270  0.3330  0.3021
  479SOL    HW1 1914   1.377   1.995   1.372  2.5470  0.1395 -1.9705
  479SOL    HW2 1915   1.495   1.907   1.328  0.8407 -1.9623  0.0234
  479SOL     MW 1916   1.423   1.957   1.308  0.4668  0.0046 -0.0345
  480SOL     OW 1917   1.892   2.336   1.355 -0.0133 -0.0383 -0.0934
  480SOL    HW1 1918   1.882   2.245   1.385  2.0497 -1.2530 -1.1292
  480SOL    HW2 1919   1.964   2.342   1.284  1.4002  1.6822  1.1565
  480SOL     MW 1920   1.900   2.325   1.350  0.4454  0.0285 -0.0651
  481SOL     OW 1921   1.156   3.076   1.123 -1.3850 -0.4753 -0.5123
  481SOL    HW1 1922   1.220   3.056   1.052  1.9164  1.1436  1.5398
  481SOL    HW2 1923   1.146   3.173   1.119 -1.5522 -2.2090  1.7555
  481SOL     MW 1924   1.164   3.086   1.113 -0.9715 -0.4904  0.0577
  482SOL     OW 1925   0.937   3.054   0.369  0.4341 -0.3307 -0.6529
  482SOL    HW1 1926   0.852   3.004   0.377 -0.6001  0.3853 -1.1465
  482SOL    HW2 1927   0.918   3.144   0.336  0.6350 -0.0654 -1.6842
  482SOL     MW 1928   0.923   3.059   0.366  0.3241 -0.2012 -0.8541
  483SOL     OW 1929   0.357   2.919   0.467  0.0859 -0.3070  0.1448
  483SOL    HW1 1930   0.265   2.908   0.426  0.1170 -1.0994  0.6571
  483SOL    HW2 1931   0.349   2.973   0.551  0.9359 -0.2896  1.2359
  483SOL     MW 1932   0.344   2.925   0.473  0.2021 -0.4093  0.3563
  484SOL     OW 1933   1.682   1.813   1.390 -0.4195  0.2288  0.4231
  484SOL    HW1 1934   1.736   1.884   1.353 -1.3521  0.2275 -0.6150
  484SOL    HW2 1935   1.683   1.833   1.484  0.4347  1.8846 -0.3870
  484SOL     MW 1936   1.690   1.825   1.397 -0.4299  0.4471  0.1792
  485SOL     OW 1937   0.532   2.438   0.305  0.1058  0.4838 -0.5242
  485SOL    HW1 1938   0.569   2.424   0.397 -0.4551  1.0407  4.4384
  485SOL    HW2 1939   0.451   2.488   0.311  0.1234 -1.2304  0.2073
  485SOL     MW 1940   0.526   2.443   0.318  0.0341  0.3311  0.2270
  486SOL     OW 1941   0.125   2.416   1.414 -0.0379 -0.4886  0.5655
  486SOL    HW1 1942   0.131   2.490   1.355  0.0215  1.6067  2.3395
  486SOL    HW2 1943   0.102   2.463   1.497  2.8935  0.0515 -0.7851
  486SOL     MW 1944   0.123   2.432   1.417  0.3567 -0.1409  0.6214
  487SOL     OW 1945   1.271   1.577   1.068 -0.2615  0.0606  0.0558
  487SOL    HW1 1946   1.258   1.673   1.059  1.6353  0.0028  1.1477
  487SOL    HW2 1947   1.355   1.548   1.022  2.9552 -1.1359 -2.5525
  487SOL     MW 1948   1.281   1.586   1.061  0.4132 -0.1049 -0.1443
  488SOL     OW 1949   1.679   1.873   0.555  0.5947  0.3810  0.0588
  488SOL    HW1 1950   1.765   1.915   0.534 -0.4735 -0.2776  3.3868
  488SOL    HW2 1951   1.616   1.936   0.591 -1.6719  0.1329 -1.5888
  488SOL     MW 1952   1.682   1.887   0.557  0.1547  0.2614  0.2805
  489SOL     OW 1953   0.685   0.757   0.573 -0.0216 -0.1384 -0.4702
  489SOL    HW1 1954   0.749   0.686   0.570  0.7842 -1.6142 -0.7157
  489SOL    HW2 1955   0.675   0.772   0.664 -3.2063  0.4541 -1.0607
  489SOL     MW 1956   0.692   0.749   0.585 -0.3355 -0.2549 -0.5805
  490SOL     OW 1957   1.422   2.069   0.416 -0.0284 -0.7945 -0.4272
  490SOL    HW1 1958   1.486   2.130   0.385  1.9122  0.5317 -2.6431
  490SOL    HW2 1959   1.338   2.116   0.426  0.7167 -2.5097 -3.1902
  490SOL     MW 1960   1.419   2.083   0.413  0.3260 -0.8459 -1.0841
  491SOL     OW 1961   1.189   2.988   0.475 -0.4260 -0.5184 -0.2182
  491SOL    HW1 1962   1.194   3.041   0.551  0.8026 -2.1767 -0.0880
  491SOL    HW2 1963   1.105   3.010   0.433  2.4290  3.1627  1.8731
  491SOL     MW 1964   1.179   2.998   0.480  0.1128 -0.2515  0.0749
  492SOL     OW 1965   1.547   2.083   0.667  0.2370 -0.8815 -0.1441
  492SOL    HW1 1966   1.485   2.070   0.597 -1.5640  0.3843  4.9691
  492SOL    HW2 1967   1.501   2.051   0.746  0.8628 -2.0062  1.4383
  492SOL     MW 1968   1.533   2.077   0.668  0.0819 -0.8629  0.7393
  493SOL     OW 1969   0.116   2.913   0.353 -0.1382  0.0055 -0.3648
  493SOL    HW1 1970   0.082   2.983   0.414  1.2430  0.2096  0.6404
  493SOL    HW2 1971   0.151   2.952   0.273 -0.3321 -1.4131  1.1956
  493SOL     MW 1972   0.116   2.927   0.351  0.0184 -0.1548 -0.0263
  494SOL     OW 1973   0.385   2.444   1.725  0.1932  0.1929 -0.1936
  494SOL    HW1 1974   0.363   2.347   1.733  1.0096 -1.3314 -0.8975
  494SOL    HW2 1975   0.454   2.443   1.656  2.4157  2.5607 -3.0527
  494SOL     MW 1976   0.391   2.431   1.717  0.5941  0.3042 -0.6637
  495SOL     OW 1977   2.913   1.703   2.698  0.1797  0.1152 -0.5338
  495SOL    HW1 1978   2.890   1.795   2.713  2.3232  0.8668 -2.8855
  495SOL    HW2 1979   2.912   1.656   2.785 -0.3430 -1.4241  0.0408
  495SOL     MW 1980   2.910   1.709   2.711  0.3935  0.0113 -0.7683
  496SOL     OW 1981   2.872   2.316   2.661 -0.2340 -0.5791  0.1152
  496SOL    HW1 1982   2.916   2.244   2.709  0.9627  1.6732 -0.7369
  496SOL    HW2 1983   2.960   2.374   2.652  1.8126 -0.2467  0.1447
  496SOL     MW 1984   2.889   2.314   2.666  0.1939 -0.2380  0.0067
  497SOL     OW 1985   1.571   2.282   2.604  0.1779  0.0053  0.5165
  497SOL    HW1 1986   1.494   2.247   2.562  1.0602  0.0217 -0.5836
  497SOL    HW2 1987   1.570   2.244   2.695  0.5137 -1.6392  1.1796
  497SOL     MW 1988   1.561   2.273   2.610  0.3386 -0.2095  0.4588
  498SOL     OW 1989   1.545   2.727   2.348 -0.6129  0.2855  0.2491
  498SOL    HW1 1990   1.538   2.638   2.318  3.2947  3.1979  1.7810
  498SOL    HW2 1991   1.604   2.709   2.428  0.1526 -2.1732  3.1287
  498SOL     MW 1992   1.552   2.713   2.355  0.0037  0.3454  0.8312
  499SOL     OW 1993   0.890   0.119   0.034 -0.0867 -0.6069  0.0275
  499SOL    HW1 1994   0.816   0.132   0.092 -0.2510 -1.9042  3.1315
  499SOL    HW2 1995   0.907   0.019   0.028 -0.2512 -0.9528  1.7604
  499SOL     MW 1996   0.883   0.108   0.041 -0.1301 -0.8237  0.6657
  500SOL     OW 1997   1.079   2.445   2.785  0.7370  0.5092  0.0832
  500SOL    HW1 1998   1.141   2.445   2.856  1.5946  0.3432 -1.5732
  500SOL    HW2 1999   1.029   2.523   2.798  1.3242 -1.3279 -2.8141
  500SOL     MW 2000   1.081   2.455   2.796  0.9277  0.2449 -0.5176
  501SOL     OW 2001   1.719   2.306   0.002  0.2285  0.0726  0.5487
  501SOL    HW1 2002   1.697   2.398   0.024 -3.7821  0.5811  1.0107
  501SOL    HW2 2003   1.807   2.290   0.025 -1.2205 -1.2552 -1.0298
  501SOL     MW 2004   1.727   2.316   0.008 -0.4918 -0.0355  0.4014
  502SOL     OW 2005   0.080   2.868   2.949  0.2945 -0.4833 -0.0780
  502SOL    HW1 2006   0.018   2.797   2.921 -1.5521 -1.1792 -1.2857
  502SOL    HW2 2007   0.092   2.929   2.874  0.5945  0.9402 -1.6773
  502SOL     MW 2008   0.074   2.867   2.936  0.0904 -0.3873 -0.4484
  503SOL     OW 2009   1.152   2.624   1.985 -0.4546  0.4793 -0.3776
  503SOL    HW1 2010   1.232   2.636   1.943 -0.3242 -0.2935  0.3121
  503SOL    HW2 2011   1.092   2.637   1.915 -3.1542 -0.7682  1.6984
  503SOL     MW 2012   1.155   2.627   1.970 -0.7936  0.2127 -0.0127
  504SOL     OW 2013   0.072   2.644   2.087 -0.6099  1.1828  0.2948
  504SOL    HW1 2014   0.150   2.587   2.063 -1.0444 -0.5283 -0.1075
  504SOL    HW2 2015  -0.009   2.597   2.078 -0.3564  2.4921  2.5013
  504SOL     MW 2016   0.071   2.631   2.083 -0.6338  1.1298  0.5328
  505SOL     OW 2017   1.650   2.662   2.762 -0.1812 -0.0713 -0.1717
  505SOL    HW1 2018   1.683   2.645   2.674 -1.2888  1.8164 -0.6224
  505SOL    HW2 2019   1.614   2.751   2.767  1.4286  1.0416  3.0802
  505SOL     MW 2020   1.650   2.672   2.751 -0.1149  0.3246  0.1979
  506SOL     OW 2021   1.639   3.099   2.871 -0.0849 -0.0341 -0.4483
  506SOL    HW1 2022   1.657   3.065   2.961 -2.5083  1.5937 -0.5418
  506SOL    HW2 2023   1.691   3.044   2.800  1.6494 -1.9889 -0.2241
  506SOL     MW 2024   1.648   3.088   2.873 -0.1758 -0.0773 -0.4311
  507SOL     OW 2025   0.943   2.716   2.850 -0.1956  0.1069  0.3364
  507SOL    HW1 2026   0.966   2.738   2.761  0.3443 -0.5134 -0.7163
  507SOL    HW2 2027   0.846   2.711   2.850 -0.2556 -0.8685  2.1683
  507SOL     MW 2028   0.933   2.718   2.838 -0.1323 -0.1036  0.4392
  508SOL     OW 2029   1.247   2.113   2.502 -0.2853  0.3600 -0.2257
  508SOL    HW1 2030   1.273   2.092   2.600 -0.6182 -1.8237  0.3717
  508SOL    HW2 2031   1.187   2.177   2.521 -0.5173 -3.1116 -1.8842
  508SOL     MW 2032   1.243   2.118   2.518 -0.3598 -0.3862 -0.3657
  509SOL     OW 2033   0.643   2.585   2.803 -0.4755  0.0529  0.3327
  509SOL    HW1 2034   0.635   2.534   2.725  0.2788  1.4061 -1.4275
  509SOL    HW2 2035   0.570   2.641   2.804 -1.2465 -2.7496 -1.9874
  509SOL     MW 2036   0.632   2.586   2.793 -0.4777 -0.1383 -0.2056
  510SOL     OW 2037   1.536   2.604   1.656  0.1160  0.2276  0.4951
  510SOL    HW1 2038   1.535   2.699   1.616 -1.7220  2.7273  2.2267
  510SOL    HW2 2039   1.526   2.624   1.752 -1.1152 -0.3988 -2.2470
  510SOL     MW 2040   1.534   2.619   1.664 -0.2889  0.4748  0.3617
  511SOL     OW 2041   0.426   2.631   2.452  0.1625  0.7389 -0.8411
  511SOL    HW1 2042   0.510   2.579   2.465  3.7963 -1.2563 -0.1806
  511SOL    HW2 2043   0.427   2.674   2.370 -2.2360  0.7062  2.0053
  511SOL     MW 2044   0.437   2.630   2.443  0.3255  0.4714 -0.3784
  512SOL     OW 2045   0.974   2.024   2.818 -0.2906 -0.2285 -0.3664
  512SOL    HW1 2046   0.885   2.060   2.840 -0.6037 -1.4783 -1.1618
  512SOL    HW2 2047   0.995   1.944   2.872  0.3776  1.4415  0.1999
  512SOL     MW 2048   0.965   2.018   2.828 -0.2437 -0.1730 -0.3967
  513SOL     OW 2049   1.634   2.467   2.217 -0.1739  0.2532  0.4548
  513SOL    HW1 2050   1.697   2.523   2.173 -1.8898 -0.4900  1.1283
  513SOL    HW2 2051   1.675   2.405   2.274 -1.6204  0.5770 -0.4293
  513SOL     MW 2052   1.648   2.466   2.219 -0.5911  0.1979  0.4270
  514SOL     OW 2053   0.231   2.488   2.604  0.2187 -0.2064 -0.0119
  514SOL    HW1 2054   0.306   2.536   2.569  0.1824  1.0283 -4.2621
  514SOL    HW2 2055   0.266   2.451   2.687 -0.1158  2.9895 -2.6432
  514SOL     MW 2056   0.245   2.489   2.610  0.1697  0.3781 -0.9199
  515SOL     OW 2057   1.121   2.017   1.998  0.3773  0.0609  0.4699
  515SOL    HW1 2058   1.134   2.086   1.935 -0.1663 -2.7169 -2.0952
  515SOL    HW2 2059   1.203   2.007   2.040  1.1836  1.4045  1.9473
  515SOL     MW 2060   1.134   2.024   1.995  0.4120 -0.1284  0.3264
  516SOL     OW 2061   1.469   2.456   3.065  0.4624 -0.1782  0.4398
  516SOL    HW1 2062   1.504   2.444   2.980 -0.5576 -0.2266  2.0655
  516SOL    HW2 2063   1.375   2.460   3.058  2.0146  1.2058  0.8254
  516SOL     MW 2064   1.461   2.455   3.053  0.5326 -0.0020  0.7052
  517SOL     OW 2065   0.551   2.438   2.256 -0.2120  0.6682  0.2636
  517SOL    HW1 2066   0.483   2.437   2.325  0.2131 -1.6641  1.0314
  517SOL    HW2 2067   0.514   2.423   2.162  0.7230  1.8615 -0.8837
  517SOL     MW 2068   0.537   2.436   2.252 -0.0326  0.5179  0.2135
  518SOL     OW 2069   1.800   0.148   3.071 -0.3460  0.2404  0.3988
  518SOL    HW1 2070   1.806   0.193   3.156  0.7046 -0.4333  0.5772
  518SOL    HW2 2071   1.748   0.070   3.094  0.4051 -0.8711 -1.1258
  518SOL     MW 2072   1.794   0.144   3.085 -0.1083  0.0049  0.2212
  519SOL     OW 2073   0.699   2.435   1.765  0.4237 -0.8988 -0.3700
  519SOL    HW1 2074   0.735   2.348   1.757  0.1141 -0.5541  0.5108
  519SOL    HW2 2075   0.614   2.415   1.799  2.9498 -2.8985  1.1061
  519SOL     MW 2076   0.692   2.421   1.769  0.7162 -1.1171 -0.0590
  520SOL     OW 2077   1.168   2.162   2.972  0.0224 -0.7918 -0.0892
  520SOL    HW1 2078   1.093   2.121   2.923  0.6557 -1.8980 -1.1977
  520SOL    HW2 2079   1.174   2.118   3.055  1.1618 -1.6316 -1.1280
  520SOL     MW 2080   1.159   2.151   2.976  0.2563 -1.0486 -0.3725
  521SOL     OW 2081   1.738   2.006   2.182  0.2453 -0.6244 -0.3225
  521SOL    HW1 2082   1.771   2.041   2.103  1.4314 -0.3848  1.2900
  521SOL    HW2 2083   1.699   1.919   2.174  0.9867  0.7405 -1.8913
  521SOL     MW 2084   1.737   1.999   2.171  0.4996 -0.4127 -0.3167
  522SOL     OW 2085   2.934   2.511   2.253 -0.5742  0.2382 -0.2037
  522SOL    HW1 2086   3.012   2.459   2.293 -0.5630  0.2119  0.7658
  522SOL    HW2 2087   2.933   2.588   2.306 -0.2788 -2.1403 -2.4011
  522SOL     MW 2088   2.944   2.514   2.265 -0.5337 -0.0791 -0.3657
  523SOL     OW 2089   0.936   1.513   2.132  0.1108  0.2879  0.2835
  523SOL    HW1 2090   0.873   1.557   2.081  3.1723  1.0019  1.5101
  523SOL    HW2 2091   0.968   1.444   2.072  0.4927 -0.1864 -1.0124
  523SOL     MW 2092   0.932   1.510   2.118  0.5651  0.3195  0.2744
  524SOL     OW 2093   0.613   2.378   2.968  0.5849 -0.1438 -0.4444
  524SOL    HW1 2094   0.648   2.444   2.910 -1.5562  0.6807  0.1023
  524SOL    HW2 2095   0.674   2.304   2.994  0.7965  1.6842  1.1990
  524SOL     MW 2096   0.626   2.377   2.964  0.3303  0.2062 -0.1554
  525SOL     OW 2097   0.428   2.276   2.049  0.5741  0.6498 -0.2946
  525SOL    HW1 2098   0.418   2.200   2.110  0.5844 -0.8113 -1.5621
  525SOL    HW2 2099   0.405   2.236   1.963 -3.6290 -1.8528 -3.7512
  525SOL     MW 2100   0.424   2.260   2.046  0.0209  0.1269 -0.9179
  526SOL     OW 2101   0.655   2.070   1.987  0.0701 -0.6174 -0.4754
  526SOL    HW1 2102   0.717   2.088   1.916 -4.3335 -0.1775  1.3848
  526SOL    HW2 2103   0.687   2.130   2.054 -1.3537  0.1284  1.2820
  526SOL     MW 2104   0.668   2.080   1.986 -0.6988 -0.4609  0.0019
  527SOL     OW 2105   1.389   2.005   2.090  0.5239 -0.0342 -0.0632
  527SOL    HW1 2106   1.400   1.972   2.181  1.4673 -0.2242  2.5012
  527SOL    HW2 2107   1.404   1.922   2.037  3.9346  0.7295  1.3138
  527SOL     MW 2108   1.392   1.990   2.095  1.0984  0.0415  0.4569
  528SOL     OW 2109   0.714   2.901   2.860  0.0054 -1.2095 -0.3538
  528SOL    HW1 2110   0.728   2.995   2.875 -2.0489  0.1087  0.7330
  528SOL    HW2 2111   0.646   2.892   2.791 -1.4885  0.0427 -1.1809
  528SOL     MW 2112   0.707   2.912   2.853 -0.4627 -0.8703 -0.3195
  529SOL     OW 2113   1.051   2.276   1.853  0.6853 -0.3298  0.4775
  529SOL    HW1 2114   1.044   2.319   1.941  1.3986  1.7103 -0.1808
  529SOL    HW2 2115   1.092   2.336   1.795  1.4254  3.5698 -0.0225
  529SOL     MW 2116   1.055   2.290   1.857  0.8771  0.4539  0.3246
  530SOL     OW 2117   1.171   2.423   3.055 -0.3496  0.6348  0.1112
  530SOL    HW1 2118   1.103   2.483   3.088 -4.6991 -2.4096 -0.3129
  530SOL    HW2 2119   1.122   2.342   3.043  0.7133 -0.3928  1.4974
  530SOL     MW 2120   1.156   2.420   3.058 -0.7832  0.0975  0.2382
  531SOL     OW 2121   0.971   1.861   2.578 -0.3754 -0.1471 -0.4843
  531SOL    HW1 2122   0.956   1.922   2.647 -1.3932 -1.5532  0.4133
  531SOL    HW2 2123   0.924   1.782   2.615  0.4112 -0.3740 -1.6346
  531SOL     MW 2124   0.963   1.859   2.592 -0.4059 -0.3625 -0.5176
  532SOL     OW 2125   1.713   0.318   2.892 -0.6619  0.2366 -0.5577
  532SOL    HW1 2126   1.739   0.246   2.958  0.2603  1.2070 -2.2606
  532SOL    HW2 2127   1.796   0.366   2.872  2.1883  3.9612 -1.9331
  532SOL     MW 2128   1.728   0.315   2.898 -0.1641  0.8560 -0.9638
  533SOL     OW 2129   1.806   2.669   2.987  1.0481  0.6797 -0.3848
  533SOL    HW1 2130   1.762   2.626   3.056  1.6907 -2.4510 -0.1259
  533SOL    HW2 2131   1.756   2.665   2.901 -0.3472 -0.6364 -0.1521
  533SOL     MW 2132   1.794   2.663   2.985  0.9488  0.0930 -0.3200
  534SOL     OW 2133   1.802   2.352   2.467  0.4767  0.1303 -0.0968
  534SOL    HW1 2134   1.729   2.290   2.489 -1.7797 -0.2939 -0.4645
  534SOL    HW2 2135   1.859   2.362   2.548  1.2487 -1.8888  2.2956
  534SOL     MW 2136   1.800   2.345   2.480  0.2809 -0.1921  0.1703
  535SOL     OW 2137   1.860   2.352   1.894  0.7078  0.1220 -0.2497
  535SOL    HW1 2138   1.819   2.393   1.813  1.4927  2.6249  1.4208
  535SOL    HW2 2139   1.948   2.391   1.904 -0.2905  0.3724 -2.5297
  535SOL     MW 2140   1.866   2.363   1.885  0.6796  0.4853 -0.3301
  536SOL     OW 2141   0.440   1.887   2.021 -0.0633 -0.1531  0.1320
  536SOL    HW1 2142   0.457   1.816   1.963 -1.7162  0.1597 -1.8191
  536SOL    HW2 2143   0.518   1.949   2.010  1.2861  1.3394  0.8369
  536SOL     MW 2144   0.452   1.886   2.012 -0.1034  0.0851 -0.0325
  537SOL     OW 2145   1.024   0.166   2.894 -0.7650 -0.1413  0.0800
  537SOL    HW1 2146   0.986   0.119   2.975 -0.7729 -2.8216 -1.3776
  537SOL    HW2 2147   1.057   0.248   2.926 -0.2559  0.8011  2.5558
  537SOL     MW 2148   1.024   0.170   2.909 -0.6989 -0.3706  0.2143
  538SOL     OW 2149   1.368   0.074   2.974  0.1420 -0.0109  0.1895
  538SOL    HW1 2150   1.347   0.169   2.972 -2.1586 -0.7197 -1.0878
  538SOL    HW2 2151   1.448   0.068   2.922 -0.6949 -0.6587  0.5953
  538SOL     MW 2152   1.376   0.086   2.967 -0.2719 -0.1899  0.0745
  539SOL     OW 2153   0.759   2.782   2.551 -0.2816 -0.0260  0.0267
  539SOL    HW1 2154   0.862   2.794   2.542  0.2437  2.3703  0.0005
  539SOL    HW2 2155   0.745   2.709   2.613 -0.4933 -2.2890 -0.6128
  539SOL     MW 2156   0.771   2.774   2.558 -0.2403 -0.0084 -0.0612
  540SOL     OW 2157   0.360   2.392   2.840  0.4343  0.1091  0.0363
  540SOL    HW1 2158   0.453   2.372   2.866 -0.4354  2.1080  0.1738
  540SOL    HW2 2159   0.316   2.329   2.897 -0.4001  0.2600 -1.9519
  540SOL     MW 2160   0.366   2.381   2.851  0.2094  0.3927 -0.2079
  541SOL     OW 2161   0.182   2.924   2.215 -0.0987  0.0299  0.1040
  541SOL    HW1 2162   0.225   2.874   2.148  0.7694  0.9049 -0.6220
  541SOL    HW2 2163   0.215   2.891   2.295  0.0794  1.1890 -0.1465
  541SOL     MW 2164   0.192   2.913   2.217  0.0394  0.2983 -0.0248
  542SOL     OW 2165   1.000   2.246   2.583 -0.3850 -0.4568  0.3506
  542SOL    HW1 2166   0.968   2.163   2.627  1.5387  0.1493  0.0374
  542SOL    HW2 2167   1.017   2.305   2.660  0.7839  2.6365 -0.0226
  542SOL     MW 2168   0.998   2.243   2.599  0.0230  0.0313  0.2600
  543SOL     OW 2169   1.452   2.478   2.767 -0.3540 -0.2840  0.5151
  543SOL    HW1 2170   1.486   2.432   2.692 -0.6304 -1.5438  0.5031
  543SOL    HW2 2171   1.512   2.555   2.781 -0.2200  1.5160  2.4912
  543SOL     MW 2172   1.465   2.482   2.759 -0.3728 -0.2127  0.7742
  544SOL     OW 2173   0.690   0.234   2.677  0.6656 -0.5213  0.1060
  544SOL    HW1 2174   0.599   0.233   2.682  4.4489  0.8430 -1.4198
  544SOL    HW2 2175   0.715   0.144   2.671  0.3715 -0.9049  0.2974
  544SOL     MW 2176   0.681   0.222   2.677  1.1260 -0.3919 -0.0700
  545SOL     OW 2177   1.587   2.163   2.317 -0.0004  0.1894  0.0708
  545SOL    HW1 2178   1.517   2.175   2.257 -0.2099 -1.2770  0.5435
  545SOL    HW2 2179   1.649   2.108   2.261 -2.1051 -0.0189  0.1291
  545SOL     MW 2180   1.586   2.157   2.301 -0.3058 -0.0316  0.1409
  546SOL     OW 2181   2.986   2.009   0.129  0.6749  0.1774  0.1309
  546SOL    HW1 2182   2.960   2.089   0.076  0.3701 -2.5745 -0.2898
  546SOL    HW2 2183   3.068   1.962   0.094  2.5364  1.2497 -0.5029
  546SOL     MW 2184   2.994   2.014   0.118  0.8803 -0.0442 -0.0082
  547SOL     OW 2185   0.294   2.987   0.138  0.6302 -0.1849 -0.7913
  547SOL    HW1 2186   0.312   3.031   0.062 -1.1751  0.5101  0.4355
  547SOL    HW2 2187   0.278   2.895   0.100 -1.9471 -0.0940  0.9231
  547SOL     MW 2188   0.294   2.981   0.123  0.0520 -0.0812 -0.4033
  548SOL     OW 2189   0.276   2.563   0.249 -0.0289  0.0819  0.1613
  548SOL    HW1 2190   0.259   2.632   0.183 -1.0012 -2.2758 -0.7252
  548SOL    HW2 2191   0.298   2.493   0.192  1.1628 -0.2267 -0.6241
  548SOL     MW 2192   0.277   2.563   0.233  0.0000 -0.2699 -0.0593
  549SOL     OW 2193   0.842   1.885   2.135  0.1920 -0.4090  0.4330
  549SOL    HW1 2194   0.781   1.942   2.090  2.6837  4.1399 -1.5065
  549SOL    HW2 2195   0.805   1.863   2.219  0.9287 -0.0201  1.2014
  549SOL     MW 2196   0.829   1.890   2.140  0.6180  0.2425  0.2785
  550SOL     OW 2197   1.799   1.709   2.545  0.1633  0.4137  0.3397
  550SOL    HW1 2198   1.803   1.732   2.449 -1.7323 -1.7754  0.1006
  550SOL    HW2 2199   1.791   1.801   2.573 -2.7974 -0.2454 -0.7932
  550SOL     MW 2200   1.798   1.724   2.536 -0.4774  0.0379  0.1587
  551SOL     OW 2201   0.878   2.247   0.212 -0.0267 -0.4971  0.1115
  551SOL    HW1 2202   0.970   2.260   0.193 -0.1730  0.1718  0.7058
  551SOL    HW2 2203   0.853   2.174   0.155  0.8447 -1.0821 -2.6292
  551SOL     MW 2204   0.887   2.239   0.202  0.0690 -0.4860 -0.1717
  552SOL     OW 2205   1.767   1.739   2.266 -0.2082  0.1312  0.7086
  552SOL    HW1 2206   1.675   1.714   2.283  4.5159  2.3982 -0.2937
  552SOL    HW2 2207   1.796   1.686   2.184  1.7222 -1.5648 -0.2328
  552SOL     MW 2208   1.759   1.729   2.258  0.6698  0.2065  0.4522
  553SOL     OW 2209   1.188   2.313   1.445  0.1386 -0.2440 -0.3463
  553SOL    HW1 2210   1.222   2.230   1.478  0.2388  3.2524  0.7611
  553SOL    HW2 2211   1.272   2.358   1.458  0.5400  1.0246 -1.8049
  553SOL     MW 2212   1.204   2.308   1.451  0.2048  0.3847 -0.3927
  554SOL     OW 2213   0.552   2.925   2.660 -0.1701  0.1892 -0.7703
  554SOL    HW1 2214   0.501   2.997   2.618  0.0339 -1.2713  1.4411
  554SOL    HW2 2215   0.625   2.891   2.607 -1.6437  1.7065 -0.4122
  554SOL     MW 2216   0.555   2.930   2.648 -0.3376  0.1967 -0.4313
  555SOL     OW 2217   0.627   2.462   2.567 -0.1620  0.2595 -0.3746
  555SOL    HW1 2218   0.591   2.376   2.561  0.7658  2.1182 -4.0000
  555SOL    HW2 2219   0.713   2.468   2.522 -2.0571  0.1472  1.0518
  555SOL     MW 2220   0.634   2.451   2.560 -0.2896  0.4899 -0.6647
  556SOL     OW 2221   0.941   1.813   0.165  0.4623  0.3890  0.3762
  556SOL    HW1 2222   0.961   1.828   0.073 -0.1930  2.7464 -1.2914
  556SOL    HW2 2223   1.020   1.834   0.214  0.6058 -0.4648 -2.1515
  556SOL     MW 2224   0.954   1.818   0.159  0.3947  0.5874 -0.1774
  557SOL     OW 2225   0.979   2.676   0.502  0.0209 -0.4064  0.2612
  557SOL    HW1 2226   1.033   2.658   0.422 -0.5862  3.3085 -0.5759
  557SOL    HW2 2227   0.905   2.729   0.461  1.3610 -0.0680 -0.1303
  557SOL     MW 2228   0.976   2.680   0.486  0.1176  0.1284  0.0991
  558SOL     OW 2229   0.266   2.181   3.054  0.3463  0.9893 -0.6307
  558SOL    HW1 2230   0.232   2.098   3.022  0.5260 -0.2962 -0.5463
  558SOL    HW2 2231   0.198   2.236   3.090 -2.2095  0.7197 -1.5958
  558SOL     MW 2232   0.253   2.177   3.054  0.0328  0.7842 -0.7469
  559SOL     OW 2233   1.023   2.321   2.127 -0.3506  0.7576 -0.2775
  559SOL    HW1 2234   1.081   2.388   2.167 -1.2900  1.1820  2.7393
  559SOL    HW2 2235   1.041   2.235   2.176  0.1782 -3.4463  0.3094
  559SOL     MW 2236   1.033   2.318   2.139 -0.4048  0.2589  0.1980
  560SOL     OW 2237   1.957   2.850   0.038  0.5085 -0.1282 -0.5885
  560SOL    HW1 2238   2.015   2.897  -0.020  0.3316  0.8924  0.0979
  560SOL    HW2 2239   1.930   2.770   0.000 -0.0265 -1.6566 -1.2634
  560SOL     MW 2240   1.961   2.846   0.026  0.4146 -0.1952 -0.5870
  561SOL     OW 2241   0.423   2.191   0.202 -0.2369  0.1833 -0.3838
  561SOL    HW1 2242   0.397   2.212   0.113  1.5177  4.6798 -4.2317
  561SOL    HW2 2243   0.479   2.264   0.227 -1.8236 -0.9703 -1.0651
  561SOL     MW 2244   0.427   2.203   0.193 -0.2147  0.6244 -0.9814
  562SOL     OW 2245   0.773   2.219   2.208 -0.6893 -0.3489 -0.2946
  562SOL    HW1 2246   0.815   2.301   2.179 -1.8612 -0.4377 -1.1821
  562SOL    HW2 2247   0.840   2.187   2.265  0.1667  2.0446  0.8146
  562SOL     MW 2248   0.787   2.225   2.212 -0.7310 -0.0448 -0.2654
  563SOL     OW 2249   1.171   0.336   0.564  0.4214 -0.2783 -0.2689
  563SOL    HW1 2250   1.089   0.310   0.524  0.2324 -0.9376  1.0454
  563SOL    HW2 2251   1.214   0.251   0.588  2.4934  0.3857 -1.9793
  563SOL     MW 2252   1.166   0.321   0.562  0.6698 -0.2777 -0.3212
  564SOL     OW 2253   1.036   2.624   2.226  0.3895 -0.0063 -0.3776
  564SOL    HW1 2254   1.082   2.630   2.139 -0.1358 -2.0448  3.2489
  564SOL    HW2 2255   1.103   2.613   2.290 -2.5098  1.0325  0.7067
  564SOL     MW 2256   1.051   2.624   2.223 -0.0623 -0.1382  0.2439
  565SOL     OW 2257   2.899   2.727   2.663 -0.3113  0.4706  0.2777
  565SOL    HW1 2258   2.969   2.776   2.615  1.5438  0.4833  1.9225
  565SOL    HW2 2259   2.828   2.712   2.604  1.3465  1.3581 -2.0685
  565SOL     MW 2260   2.899   2.732   2.649  0.1522  0.5893  0.1851
  566SOL     OW 2261   2.151   1.888   2.370 -0.3665  0.1309 -0.2245
  566SOL    HW1 2262   2.164   1.844   2.286  2.3498  1.0374 -0.6306
  566SOL    HW2 2263   2.219   1.960   2.373 -1.1657 -2.1151  0.7763
  566SOL     MW 2264   2.162   1.891   2.359 -0.1136 -0.0458 -0.1460
  567SOL     OW 2265   1.181   2.900   2.941  0.2089 -0.2402 -0.6783
  567SOL    HW1 2266   1.270   2.937   2.953 -0.4071 -1.7685 -1.0157
  567SOL    HW2 2267   1.215   2.813   2.949 -0.2314 -2.9570  0.6690
  567SOL     MW 2268   1.197   2.893   2.944  0.0695 -0.8003 -0.5451
  568SOL     OW 2269   1.604   2.140   2.883  0.0536  0.4622 -0.2451
  568SOL    HW1 2270   1.646   2.208   2.941  1.8909 -1.6236  2.2158
  568SOL    HW2 2271   1.679   2.078   2.861 -2.4457 -0.4746  1.2968
  568SOL     MW 2272   1.620   2.141   2.888 -0.0338  0.0634  0.2830
  569SOL     OW 2273   0.175   2.242   2.485  0.5356  0.2339  0.4694
  569SOL    HW1 2274   0.110   2.263   2.415 -1.2742  2.2096 -0.6317
  569SOL    HW2 2275   0.207   2.331   2.512 -1.0739  1.5707  0.4454
  569SOL     MW 2276   0.171   2.257   2.480  0.0845  0.6710  0.3209
  570SOL     OW 2277   1.419   0.380   0.488 -0.2310  0.0263  0.2912
  570SOL    HW1 2278   1.328   0.373   0.525 -2.9619 -3.8082 -0.8665
  570SOL    HW2 2279   1.488   0.404   0.555  1.2173  1.2585 -0.3296
  570SOL     MW 2280   1.416   0.382   0.501 -0.4002 -0.3171  0.0565
  571SOL     OW 2281   1.487   2.423   1.987  0.3854  0.4596  0.3179
  571SOL    HW1 2282   1.533   2.433   2.073  0.4617 -0.2805  2.1178
  571SOL    HW2 2283   1.504   2.337   1.944  0.9444  1.9709  1.3768
  571SOL     MW 2284   1.495   2.413   1.992  0.4692  0.5613  0.6951
  572SOL     OW 2285   0.946   2.647   0.038  0.5227  0.8011 -0.0420
  572SOL    HW1 2286   0.980   2.648  -0.050  2.3046 -0.1293  1.4061
  572SOL    HW2 2287   0.850   2.640   0.025  2.4251 -1.1200 -1.2958
  572SOL     MW 2288   0.938   2.646   0.024  1.0088  0.4248 -0.0164
  573SOL     OW 2289   1.163   2.324   0.249 -0.2387 -0.6539 -0.8020
  573SOL    HW1 2290   1.244   2.321   0.209 -0.7658  1.0521  0.6975
  573SOL    HW2 2291   1.135   2.420   0.255 -0.4978  0.1011  0.8722
  573SOL     MW 2292   1.170   2.336   0.245 -0.3425 -0.3292 -0.3832
  574SOL     OW 2293   1.132   2.611   0.272 -0.1433 -0.1058  0.6164
  574SOL    HW1 2294   1.179   2.686   0.294  0.1535 -1.7296  0.6189
  574SOL    HW2 2295   1.066   2.636   0.206 -2.4941 -0.7566 -2.4383
  574SOL     MW 2296   1.129   2.624   0.266 -0.4143 -0.4059  0.2137
  575SOL     OW 2297   0.044   2.305   1.793  0.4558 -0.1625  0.1553
  575SOL    HW1 2298   0.026   2.224   1.750  0.3218  1.8072 -1.4415
  575SOL    HW2 2299   0.080   2.376   1.734  2.3687  2.6587  2.1665
  575SOL     MW 2300   0.047   2.304   1.779  0.6905  0.4696  0.2100
  576SOL     OW 2301   2.824   1.827   2.080 -0.8498  0.0272  0.6107
  576SOL    HW1 2302   2.842   1.903   2.020 -0.4301  0.1810  2.6581
  576SOL    HW2 2303   2.731   1.813   2.059 -0.8670 -1.0216  0.7533
  576SOL     MW 2304   2.814   1.835   2.069 -0.7967 -0.0909  0.8997
  577SOL     OW 2305   2.085   0.201   0.097 -0.3580 -0.2086  0.3361
  577SOL    HW1 2306   2.028   0.217   0.019  0.2282  1.4341  2.9537
  577SOL    HW2 2307   2.034   0.169   0.168 -0.3446  0.4887  0.0192
  577SOL     MW 2308   2.070   0.199   0.096 -0.2789  0.1001  0.6397
  578SOL     OW 2309   1.921   2.026   2.389  0.8747 -0.2345 -0.3827
  578SOL    HW1 2310   1.864   2.002   2.316 -0.0403 -0.8653  1.8950
  578SOL    HW2 2311   2.007   1.983   2.365  0.6440 -2.6865 -0.3497
  578SOL     MW 2312   1.925   2.017   2.377  0.7235 -0.6413 -0.0778
  579SOL     OW 2313   0.877   2.456   2.420 -0.1990 -0.2370 -0.7457
  579SOL    HW1 2314   0.919   2.373   2.460 -0.7357 -1.1715  0.7607
  579SOL    HW2 2315   0.943   2.517   2.390  0.1887 -1.5115  0.6576
  579SOL     MW 2316   0.892   2.453   2.422 -0.2187 -0.5284 -0.3618
  580SOL     OW 2317   0.928   2.969   3.055  0.0378 -0.7963  0.3669
  580SOL    HW1 2318   1.020   2.955   3.020  1.1186  1.0465 -0.7844
  580SOL    HW2 2319   0.884   2.898   3.009  0.8860  1.0662 -0.2284
  580SOL     MW 2320   0.934   2.958   3.044  0.2923 -0.3074  0.1365
  581SOL     OW 2321   1.187   2.479   1.698 -0.6058  0.3395 -0.0982
  581SOL    HW1 2322   1.252   2.551   1.703  0.4939 -3.9549  2.2971
  581SOL    HW2 2323   1.177   2.458   1.609 -2.6373 -0.8693  1.0308
  581SOL     MW 2324   1.194   2.486   1.687 -0.7288 -0.3866  0.3668
  582SOL     OW 2325   0.006   2.865   2.553  0.1621 -0.0393  0.7642
  582SOL    HW1 2326  -0.027   2.930   2.616  1.6160  3.0972  1.6938
  582SOL    HW2 2327   0.100   2.858   2.546  1.0451  0.2737 -0.7494
  582SOL     MW 2328   0.014   2.873   2.560  0.4704  0.4159  0.6872
  583SOL     OW 2329   2.032   2.368   2.685 -0.5615  0.3643  0.1856
  583SOL    HW1 2330   2.089   2.388   2.609 -3.0377  2.0815 -0.8789
  583SOL    HW2 2331   2.013   2.270   2.683 -0.0918 -2.3365 -1.3794
  583SOL     MW 2332   2.037   2.358   2.674 -0.8262  0.2345 -0.1613
  584SOL     OW 2333   0.239   1.822   2.215 -0.1366  0.5252  0.4690
  584SOL    HW1 2334   0.324   1.815   2.171  1.4233 -1.3066 -1.4679
  584SOL    HW2 2335   0.240   1.911   2.244  2.5658 -0.1708 -0.3071
  584SOL     MW 2336   0.251   1.833   2.213  0.4258  0.1917  0.1111
  585SOL     OW 2337   1.520   2.666   0.159  1.0995 -0.0101  0.1989
  585SOL    HW1 2338   1.483   2.604   0.096  2.6390  1.1755  0.7038
  585SOL    HW2 2339   1.454   2.657   0.229  2.4909  0.4433 -1.7736
  585SOL     MW 2340   1.506   2.656   0.160  1.4862  0.2061  0.0053
  586SOL     OW 2341   1.354   2.846   2.523 -0.4610  0.1466  0.0612
  586SOL    HW1 2342   1.426   2.821   2.458  2.2908 -1.6741 -0.4833
  586SOL    HW2 2343   1.375   2.941   2.539 -1.2827 -1.3128 -1.4834
  586SOL     MW 2344   1.366   2.855   2.517 -0.2063 -0.2862 -0.2144
  587SOL     OW 2345   1.326   1.554   2.184  0.2409  0.1663  0.4727
  587SOL    HW1 2346   1.298   1.486   2.251  1.6111  0.0462  0.9889
  587SOL    HW2 2347   1.310   1.518   2.095 -1.3046 -0.5352  1.2227
  587SOL     MW 2348   1.320   1.540   2.181  0.2177  0.0579  0.6397
  588SOL     OW 2349   1.366   2.112   2.749 -0.4249 -0.4794 -0.0128
  588SOL    HW1 2350   1.449   2.092   2.792 -2.1580  3.1575 -1.9236
  588SOL    HW2 2351   1.304   2.128   2.828 -2.0286 -0.6308 -0.4377
  588SOL     MW 2352   1.369   2.111   2.765 -0.8652 -0.0195 -0.3210
  589SOL     OW 2353   1.254   2.039   0.105 -0.0187 -0.0872 -0.0295
  589SOL    HW1 2354   1.292   2.118   0.146  0.1833 -0.5961  1.5907
  589SOL    HW2 2355   1.211   1.994   0.178  0.8744  1.6921 -0.0466
  589SOL     MW 2356   1.254   2.043   0.120  0.1258  0.0804  0.1820
  590SOL     OW 2357   0.438   2.770   2.201  0.8636  0.1713  0.0701
  590SOL    HW1 2358   0.450   2.722   2.124 -2.0355  1.4154  1.3874
  590SOL    HW2 2359   0.527   2.781   2.228 -0.4209 -1.9783  1.0266
  590SOL     MW 2360   0.452   2.765   2.194  0.3116  0.0518  0.3701
  591SOL     OW 2361   2.269   0.675   3.101 -0.7221 -0.7463  0.1429
  591SOL    HW1 2362   2.186   0.718   3.067 -1.6309  0.3077  1.7791
  591SOL    HW2 2363   2.355   0.723   3.067  2.7876  2.9138 -2.5529
  591SOL     MW 2364   2.269   0.687   3.092 -0.3789 -0.1243  0.0031
  592SOL     OW 2365   1.766   2.957   0.820 -0.5116 -0.0113 -0.0055
  592SOL    HW1 2366   1.754   3.030   0.754 -4.0983  1.8135 -2.2039
  592SOL    HW2 2367   1.832   2.899   0.774 -0.2189 -1.3429  0.8660
  592SOL     MW 2368   1.773   2.959   0.805 -0.9462  0.0537 -0.1806
  593SOL     OW 2369   1.936   0.694   0.858  0.9909 -0.7136 -0.1909
  593SOL    HW1 2370   1.859   0.697   0.803  0.9085 -0.5558 -1.1528
  593SOL    HW2 2371   2.002   0.649   0.806  0.6123  3.0168 -3.3906
  593SOL     MW 2372   1.935   0.688   0.844  0.9301 -0.2006 -0.7400
  594SOL     OW 2373   2.821   1.143   1.357  0.1073 -0.1084  0.2271
  594SOL    HW1 2374   2.915   1.138   1.379  0.1504 -0.5812  0.5552
  594SOL    HW2 2375   2.835   1.093   1.275  0.7842  0.3966  2.1579
  594SOL     MW 2376   2.835   1.135   1.349  0.2023 -0.1042  0.5251
  595SOL     OW 2377   0.452   1.010   0.816 -1.0602  0.0942  0.6006
  595SOL    HW1 2378   0.494   1.069   0.751 -0.6372 -0.3457 -1.7405
  595SOL    HW2 2379   0.452   1.039   0.913  1.4516 -0.2449  3.6851
  595SOL     MW 2380   0.458   1.021   0.820 -0.6730 -0.0086  0.6986
  596SOL     OW 2381   2.448   1.328   0.599 -0.2082 -0.2670  0.1282
  596SOL    HW1 2382   2.493   1.402   0.558  0.1929  1.3477  2.0786
  596SOL    HW2 2383   2.498   1.293   0.673  2.7693 -1.9682  0.4847
  596SOL     MW 2384   2.461   1.333   0.603  0.2376 -0.2784  0.4326
  597SOL     OW 2385   2.194   0.735   1.608  0.3592 -0.4506  0.0550
  597SOL    HW1 2386   2.228   0.671   1.674  1.6667 -0.1132  0.6331
  597SOL    HW2 2387   2.126   0.678   1.561  1.7909 -1.1776 -1.7189
  597SOL     MW 2388   2.190   0.719   1.611  0.7206 -0.5020 -0.1028
  598SOL     OW 2389   2.601   1.011   2.870  0.1764 -0.1219 -0.0778
  598SOL    HW1 2390   2.602   0.987   2.777  0.3203  0.5557 -0.7983
  598SOL    HW2 2391   2.688   1.047   2.889  1.9691  0.5507  1.7376
  598SOL     MW 2392   2.613   1.013   2.860  0.4319  0.0563  0.0667
  599SOL     OW 2393   2.971   0.418   2.062 -0.1184 -0.4815  0.4290
  599SOL    HW1 2394   3.002   0.432   2.155 -1.0928 -1.0097  1.4909
  599SOL    HW2 2395   3.000   0.503   2.018  0.0700 -0.1798  1.0997
  599SOL     MW 2396   2.979   0.431   2.069 -0.2221 -0.5114  0.6576
  600SOL     OW 2397   1.891   1.613   0.845 -0.4704 -0.3714 -0.3889
  600SOL    HW1 2398   1.936   1.641   0.925  2.3708 -1.0099 -2.2509
  600SOL    HW2 2399   1.808   1.659   0.859  0.3895  1.1641 -0.6387
  600SOL     MW 2400   1.886   1.623   0.858  0.0180 -0.2530 -0.6675
  601SOL     OW 2401   2.474   0.775   0.829 -0.3700 -0.4546 -0.4996
  601SOL    HW1 2402   2.474   0.776   0.926 -0.0364 -0.5464  2.7235
  601SOL    HW2 2403   2.397   0.724   0.799  0.3756  0.0052  3.3882
  601SOL     MW 2404   2.464   0.768   0.838 -0.2276 -0.4061  0.4386
  602SOL     OW 2405   2.349   1.920   0.837 -0.2195  0.7398 -0.8120
  602SOL    HW1 2406   2.323   1.832   0.806  1.6078  0.0778 -1.7727
  602SOL    HW2 2407   2.276   1.977   0.808 -2.2721  0.4077 -0.6768
  602SOL     MW 2408   2.336   1.916   0.829 -0.2492  0.6086 -0.9209
  603SOL     OW 2409   3.088   1.368   1.811  0.2844 -0.4139  0.4328
  603SOL    HW1 2410   3.134   1.408   1.887 -2.4292  0.7261  0.5879
  603SOL    HW2 2411   3.077   1.275   1.815  0.9772  1.1939 -1.5598
  603SOL     MW 2412   3.093   1.361   1.821  0.0177 -0.0513  0.1904
  604SOL     OW 2413   2.168   1.590   0.453 -0.0208 -0.0004 -0.0964
  604SOL    HW1 2414   2.176   1.499   0.481  0.6747  0.3370  0.7294
  604SOL    HW2 2415   2.080   1.625   0.497  0.0050  1.8203  0.7503
  604SOL     MW 2416   2.158   1.583   0.462  0.0744  0.2843  0.1242
  605SOL     OW 2417   2.610   1.520   0.836 -0.1848 -0.5022  0.4959
  605SOL    HW1 2418   2.572   1.601   0.784  0.5570  1.9384  1.6654
  605SOL    HW2 2419   2.598   1.453   0.767 -2.4564 -0.1453 -2.1901
  605SOL     MW 2420   2.603   1.522   0.820 -0.3867 -0.1331  0.2958
  606SOL     OW 2421   2.553   1.766   1.996  0.8054 -1.1778  0.4297
  606SOL    HW1 2422   2.460   1.782   1.984 -0.3120  0.2268 -0.1122
  606SOL    HW2 2423   2.583   1.702   1.932  1.9921  0.6776 -2.2152
  606SOL     MW 2424   2.545   1.760   1.986  0.8145 -0.7477  0.0092
  607SOL     OW 2425   2.390   1.123   3.046 -0.0359  0.4724  0.1209
  607SOL    HW1 2426   2.445   1.074   2.987 -1.4429 -0.5820 -0.9290
  607SOL    HW2 2427   2.398   1.084   3.137  0.1530 -1.8401  1.9536
  607SOL     MW 2428   2.398   1.112   3.050 -0.1966  0.0282  0.2242
  608SOL     OW 2429   1.873   0.263   0.634 -0.4509  0.0308 -0.2833
  608SOL    HW1 2430   1.846   0.305   0.547  0.0113  1.3528  1.3612
  608SOL    HW2 2431   1.830   0.176   0.624 -1.2455 -1.3470  1.1790
  608SOL     MW 2432   1.864   0.257   0.621 -0.4948  0.0235  0.1266
  609SOL     OW 2433   2.040   2.008   3.040  0.0784  0.2178 -0.1357
  609SOL    HW1 2434   1.975   1.946   3.020  2.4444  1.9127 -3.6249
  609SOL    HW2 2435   2.085   1.977   3.129  1.0195  0.2110  1.5726
  609SOL     MW 2436   2.037   1.996   3.049  0.5147  0.4405 -0.3706
  610SOL     OW 2437   1.768   1.005   1.294  0.5493 -0.2700 -0.8117
  610SOL    HW1 2438   1.801   0.932   1.247 -0.9470 -2.2205  3.1598
  610SOL    HW2 2439   1.673   0.999   1.282  1.6460 -0.8776  1.3567
  610SOL     MW 2440   1.760   0.995   1.286  0.4966 -0.6075 -0.0016
  611SOL     OW 2441   2.528   1.735   0.697  0.1844 -0.5765  0.1985
  611SOL    HW1 2442   2.532   1.820   0.736  2.5966 -2.7280  0.6775
  611SOL    HW2 2443   2.498   1.734   0.607 -0.5512 -1.7929 -1.4528
  611SOL     MW 2444   2.525   1.746   0.690  0.4056 -1.0209  0.0438
  612SOL     OW 2445   2.787   2.835   0.418 -0.0766  0.6309  0.1802
  612SOL    HW1 2446   2.834   2.893   0.479 -0.6238 -1.9109  0.3264
  612SOL    HW2 2447   2.855   2.818   0.349  0.4717 -2.0333  0.4817
  612SOL     MW 2448   2.802   2.840   0.417 -0.0764 -0.0560  0.2393
  613SOL     OW 2449   1.472   0.989   0.931  0.0956  0.6336 -0.5448
  613SOL    HW1 2450   1.550   1.032   0.896 -2.4358 -0.4647 -1.8609
  613SOL    HW2 2451   1.476   0.995   1.031 -0.8361 -1.2453  0.1669
  613SOL     MW 2452   1.483   0.995   0.940 -0.3613  0.2408 -0.6245
  614SOL     OW 2453   2.012   0.558   1.466  0.1021  0.3505 -0.4463
  614SOL    HW1 2454   2.012   0.468   1.505 -1.1530  2.1410 -0.6397
  614SOL    HW2 2455   1.962   0.560   1.389  0.9347 -1.9601  1.5206
  614SOL     MW 2456   2.005   0.547   1.461  0.0464  0.2819 -0.2123
  615SOL     OW 2457   2.393   0.739   0.253 -0.3537 -0.0426 -0.0784
  615SOL    HW1 2458   2.472   0.690   0.235  2.0277  2.0987  1.6656
  615SOL    HW2 2459   2.324   0.724   0.188 -2.9813 -0.8818 -1.6141
  615SOL     MW 2460   2.394   0.731   0.242 -0.3862  0.1292 -0.0510
  616SOL     OW 2461   2.526   0.407   1.644  0.6521  0.0943  0.3151
  616SOL    HW1 2462   2.505   0.311   1.648  2.8205  0.1614 -1.3349
  616SOL    HW2 2463   2.496   0.441   1.561 -0.0378 -1.6394 -0.8325
  616SOL     MW 2464   2.519   0.399   1.634  0.8472 -0.1256 -0.0540
  617SOL     OW 2465   2.851   0.655   1.749 -0.8375  0.3172  0.0892
  617SOL    HW1 2466   2.789   0.664   1.817 -0.5911  2.1640  0.8787
  617SOL    HW2 2467   2.835   0.575   1.696 -1.2049 -0.8025  2.2849
  617SOL     MW 2468   2.841   0.645   1.751 -0.8535  0.4132  0.4831
  618SOL     OW 2469   2.711   0.365   1.903  0.1686 -0.8177  0.4857
  618SOL    HW1 2470   2.684   0.447   1.948 -0.4285  2.4129 -0.6589
  618SOL    HW2 2471   2.805   0.355   1.919  0.9715 -0.9871  0.0284
  618SOL     MW 2472   2.720   0.375   1.911  0.1957 -0.4138  0.2743
  619SOL     OW 2473   2.669   0.648   0.082 -0.0836  0.8196 -0.2336
  619SOL    HW1 2474   2.724   0.723   0.113 -0.1325  0.3641  0.1585
  619SOL    HW2 2475   2.685   0.585   0.153  0.7210  0.2812 -0.3195
  619SOL     MW 2476   2.678   0.650   0.095  0.0161  0.6885 -0.1932
  620SOL     OW 2477   2.229   1.061   1.009 -0.6120  0.3658 -0.1774
  620SOL    HW1 2478   2.303   1.061   0.942  0.1396 -0.8049  1.5330
  620SOL    HW2 2479   2.159   1.016   0.961  4.1468 -0.8811 -1.0724
  620SOL     MW 2480   2.229   1.055   0.993  0.1151  0.0468 -0.0698
  621SOL     OW 2481   1.548   2.165   1.922 -0.1198  0.4473 -0.4826
  621SOL    HW1 2482   1.500   2.120   1.999  2.4071  0.0913  3.6821
  621SOL    HW2 2483   1.646   2.152   1.933  3.5933 -1.2346  0.1533
  621SOL     MW 2484   1.555   2.157   1.933  0.7035  0.1784  0.1508
  622SOL     OW 2485   2.628   0.167   0.241 -0.0308  0.1789 -0.3428
  622SOL    HW1 2486   2.719   0.194   0.225 -0.2777  1.1303  0.2244
  622SOL    HW2 2487   2.643   0.075   0.267  1.8646  0.8627  0.0879
  622SOL     MW 2488   2.642   0.159   0.242  0.1867  0.3946 -0.2111
  623SOL     OW 2489   2.347   2.784   0.841  0.2734 -1.1535  0.0652
  623SOL    HW1 2490   2.407   2.858   0.861  0.2415 -2.9024 -0.2894
  623SOL    HW2 2491   2.295   2.779   0.921  2.1878  1.6458 -1.7173
  623SOL     MW 2492   2.348   2.793   0.854  0.5218 -1.0149 -0.2168
  624SOL     OW 2493   2.182   1.720   2.987 -0.1771  0.0375 -0.0197
  624SOL    HW1 2494   2.129   1.662   3.037  0.8612  0.0304 -2.9815
  624SOL    HW2 2495   2.108   1.783   2.977  1.4688 -2.0710 -1.3512
  624SOL     MW 2496   2.165   1.721   2.992  0.1770 -0.2416 -0.5862
  625SOL     OW 2497   2.201   1.922   1.087  0.7402 -0.9156  0.3340
  625SOL    HW1 2498   2.261   1.880   1.145 -1.8332  2.1175  0.1635
  625SOL    HW2 2499   2.251   1.944   1.006  1.6288  0.3626  2.0826
  625SOL     MW 2500   2.215   1.920   1.084  0.5179 -0.3468  0.5422
  626SOL     OW 2501   0.314   1.600   2.342  0.0781 -0.2101  0.1662
  626SOL    HW1 2502   0.252   1.536   2.364  3.6665 -0.5936  0.9568
  626SOL    HW2 2503   0.262   1.674   2.309  2.1682 -1.0616 -3.1381
  626SOL     MW 2504   0.299   1.602   2.341  0.8273 -0.3730 -0.1655
  627SOL     OW 2505   2.448   0.709   2.557 -0.6291 -0.3120 -0.2464
  627SOL    HW1 2506   2.383   0.774   2.582  1.0830  1.8168 -0.5625
  627SOL    HW2 2507   2.435   0.701   2.462  1.7199 -0.0597  1.0033
  627SOL     MW 2508   2.438   0.716   2.548 -0.0933  0.0021 -0.1232
  628SOL     OW 2509   2.339   1.415   1.360 -0.1791 -0.2240 -0.6606
  628SOL    HW1 2510   2.299   1.357   1.298  1.7190 -0.9621  0.9761
  628SOL    HW2 2511   2.436   1.406   1.346  2.4625  1.5411 -0.7584
  628SOL     MW 2512   2.347   1.406   1.350  0.4199 -0.0885 -0.4575
  629SOL     OW 2513   1.858   0.512   1.242  0.3449  0.1227  0.3542
  629SOL    HW1 2514   1.884   0.602   1.222 -0.4693  0.1781 -1.0018
  629SOL    HW2 2515   1.765   0.511   1.272 -2.3379  1.3990  2.5349
  629SOL     MW 2516   1.849   0.523   1.243 -0.1165  0.2984  0.4630
  630SOL     OW 2517   2.421   1.840   2.985 -0.5985 -0.3327  0.7618
  630SOL    HW1 2518   2.418   1.937   2.962 -0.2270 -0.9060  3.0383
  630SOL    HW2 2519   2.325   1.816   2.988 -1.9969 -0.2727  0.2767
  630SOL     MW 2520   2.408   1.850   2.982 -0.7340 -0.4004  0.9982
  631SOL     OW 2521   1.994   1.813   1.593  0.2096  0.4372  0.5552
  631SOL    HW1 2522   2.004   1.724   1.624  0.8974  3.4003  1.9724
  631SOL    HW2 2523   1.986   1.793   1.496 -1.7915  0.2349 -1.6927
  631SOL     MW 2524   1.994   1.798   1.584  0.0363  0.8015  0.4456
  632SOL     OW 2525   0.182   1.956   1.418  0.0277 -0.6005 -0.4656
  632SOL    HW1 2526   0.145   1.963   1.504 -1.5309 -0.0630 -0.3476
  632SOL    HW2 2527   0.196   1.859   1.392  1.4969  0.2680 -0.5586
  632SOL     MW 2528   0.179   1.944   1.426  0.0159 -0.4150 -0.4623
  633SOL     OW 2529   2.560   0.488   0.325 -0.1993 -0.0468 -0.2363
  633SOL    HW1 2530   2.593   0.486   0.413  0.9417 -1.3584  0.3836
  633SOL    HW2 2531   2.521   0.405   0.296 -1.3481  0.7291 -0.7995
  633SOL     MW 2532   2.559   0.477   0.333 -0.2003 -0.1175 -0.2288
  634SOL     OW 2533   2.649   0.022   0.660 -0.4084  0.4872  0.3066
  634SOL    HW1 2534   2.689   0.108   0.675  0.4181  0.1056 -1.3370
  634SOL    HW2 2535   2.599   0.042   0.585  0.9525  1.6043  1.5044
  634SOL     MW 2536   2.648   0.036   0.652 -0.1198  0.5842  0.2478
  635SOL     OW 2537   2.614   0.133   1.845  0.0821 -0.2777  0.2936
  635SOL    HW1 2538   2.671   0.061   1.822 -3.4353 -0.5586 -1.6754
  635SOL    HW2 2539   2.659   0.213   1.864  2.2669  1.1134  1.8505
  635SOL     MW 2540   2.627   0.134   1.844 -0.0938 -0.1312  0.2393
  636SOL     OW 2541   2.842   1.602   1.063  0.1035  0.4701 -0.9739
  636SOL    HW1 2542   2.751   1.621   1.073  0.3369 -1.1609  1.3492
  636SOL    HW2 2543   2.885   1.683   1.029 -2.1871 -0.6340 -0.2450
  636SOL     MW 2544   2.836   1.615   1.060 -0.1679  0.1093 -0.5712
  637SOL     OW 2545   2.875   1.446   0.755  0.0541  0.5913  0.0863
  637SOL    HW1 2546   2.929   1.520   0.735 -1.2879 -1.2838 -3.4462
  637SOL    HW2 2547   2.798   1.481   0.804 -0.5779  2.1090 -0.1155
  637SOL     MW 2548   2.872   1.460   0.759 -0.2063  0.5441 -0.4064
  638SOL     OW 2549   2.718   0.519   0.584 -0.5900  0.2678  0.2689
  638SOL    HW1 2550   2.813   0.521   0.556  1.1881 -1.4725  2.6471
  638SOL    HW2 2551   2.714   0.586   0.654  0.5884 -1.0904 -1.0958
  638SOL     MW 2552   2.730   0.528   0.590 -0.1999 -0.1410  0.4026
  639SOL     OW 2553   1.763   0.017   0.609 -0.0572 -0.0194 -0.3834
  639SOL    HW1 2554   1.675   0.042   0.601  0.1144  1.0205  0.0700
  639SOL    HW2 2555   1.775  -0.040   0.530  0.1982 -3.3004  0.0065
  639SOL     MW 2556   1.753   0.013   0.597 -0.0009 -0.3151 -0.2721
  640SOL     OW 2557   0.337   1.295   0.139 -0.2089  0.2328  0.1602
  640SOL    HW1 2558   0.386   1.327   0.058 -0.7041  2.1542  0.0472
  640SOL    HW2 2559   0.331   1.197   0.129 -1.4988 -2.2228 -0.9549
  640SOL     MW 2560   0.343   1.286   0.127 -0.4444  0.1623 -0.0018
  641SOL     OW 2561   2.166   0.390   0.375  0.1230 -0.2010  0.5829
  641SOL    HW1 2562   2.213   0.399   0.286 -1.8978  1.1582 -1.7312
  641SOL    HW2 2563   2.218   0.320   0.420  0.2169 -1.1160 -1.0374
  641SOL     MW 2564   2.179   0.382   0.369 -0.1312 -0.1424  0.0638
  642SOL     OW 2565   0.078   3.084   0.563 -0.7355  0.2873 -0.0768
  642SOL    HW1 2566   0.044   3.167   0.516 -0.9939  1.1490 -2.2709
  642SOL    HW2 2567   0.004   3.042   0.613  1.9105  0.0255  1.6310
  642SOL     MW 2568   0.064   3.090   0.563 -0.4205  0.3664 -0.1409
  643SOL     OW 2569   1.978   0.337   1.614 -0.0796  0.1649 -0.0743
  643SOL    HW1 2570   1.918   0.313   1.687 -1.1228 -2.6599  1.3524
  643SOL    HW2 2571   1.999   0.249   1.570 -1.0728  0.2881 -0.4277
  643SOL     MW 2572   1.973   0.322   1.618 -0.3483 -0.1915  0.0673
  644SOL     OW 2573   2.752   2.020   1.046  0.2262 -0.6617  0.0592
  644SOL    HW1 2574   2.722   1.978   1.124  1.0514  0.4471  1.6282
  644SOL    HW2 2575   2.674   2.074   1.016 -1.9650  0.7944  2.4885
  644SOL     MW 2576   2.738   2.021   1.052  0.0459 -0.3233  0.5867
  645SOL     OW 2577   2.852   0.834   0.632 -0.1479  0.5677 -0.5637
  645SOL    HW1 2578   2.945   0.826   0.645  1.1408  1.0150 -1.2236
  645SOL    HW2 2579   2.818   0.769   0.691 -1.1278 -0.7743  0.1978
  645SOL     MW 2580   2.859   0.824   0.641 -0.1071  0.4496 -0.5503
  646SOL     OW 2581   0.121   2.318   0.815 -1.2150 -0.5950  0.1044
  646SOL    HW1 2582   0.140   2.225   0.781  0.9440  0.3600  1.4403
  646SOL    HW2 2583   0.038   2.337   0.767  0.8034  1.0195  1.8523
  646SOL     MW 2584   0.113   2.308   0.804 -0.6638 -0.2560  0.5113
  647SOL     OW 2585   2.678   0.467   2.925  0.7618 -0.2773 -0.7273
  647SOL    HW1 2586   2.624   0.399   2.964 -0.2048  2.3567 -2.2722
  647SOL    HW2 2587   2.621   0.542   2.944 -0.7991 -0.8675 -1.6165
  647SOL     MW 2588   2.663   0.468   2.933  0.4283 -0.0077 -1.0485
  648SOL     OW 2589   2.086   0.737   1.189  0.5927 -0.2843 -0.2463
  648SOL    HW1 2590   2.165   0.709   1.143  0.0512  0.5542  1.1049
  648SOL    HW2 2591   2.110   0.804   1.245 -1.5991  1.5263  0.6950
  648SOL     MW 2592   2.099   0.742   1.191  0.2321  0.0652  0.0562
  649SOL     OW 2593   2.391   2.669   1.268 -0.2728 -0.1583 -0.0637
  649SOL    HW1 2594   2.473   2.712   1.293  1.3414  0.8120  2.4155
  649SOL    HW2 2595   2.414   2.580   1.281  2.2257 -1.9186 -0.1163
  649SOL     MW 2596   2.405   2.663   1.273  0.2698 -0.2625  0.2565
  650SOL     OW 2597   2.847   0.217   0.617 -0.0371  0.1401 -0.2796
  650SOL    HW1 2598   2.871   0.298   0.662  2.1353 -0.6538  0.1437
  650SOL    HW2 2599   2.933   0.202   0.568  2.8552  3.2598 -0.2014
  650SOL     MW 2600   2.862   0.225   0.616  0.6311  0.4470 -0.2134
  651SOL     OW 2601   3.017   0.425   0.917  0.8695  0.2306  0.5963
  651SOL    HW1 2602   3.095   0.473   0.889  1.7989  0.9283 -0.2121
  651SOL    HW2 2603   2.981   0.471   0.993 -0.6653 -2.0217  1.9937
  651SOL     MW 2604   3.023   0.438   0.923  0.7896  0.0255  0.6740
  652SOL     OW 2605   2.465   1.505   3.003 -0.3505  0.3246  0.6170
  652SOL    HW1 2606   2.536   1.496   2.936  2.6442  1.9032  1.1167
  652SOL    HW2 2607   2.441   1.605   3.001  1.1762  2.7462 -0.6499
  652SOL     MW 2608   2.471   1.517   2.994  0.2460  0.8524  0.5158
  653SOL     OW 2609   1.796   0.416   0.400 -0.4142  0.5123 -0.0188
  653SOL    HW1 2610   1.771   0.361   0.328  0.6513 -3.0180  2.0050
  653SOL    HW2 2611   1.893   0.426   0.383  1.2903 -1.5266 -2.4833
  653SOL     MW 2612   1.805   0.410   0.389 -0.0487 -0.2225 -0.0770
  654SOL     OW 2613   2.406   1.023   0.780  0.3219  0.0304 -0.1448
  654SOL    HW1 2614   2.339   1.006   0.710  1.8585 -1.1067  0.3560
  654SOL    HW2 2615   2.437   0.928   0.784 -1.7605  2.1497 -0.6490
  654SOL     MW 2616   2.401   1.008   0.771  0.2499  0.1600 -0.1452
  655SOL     OW 2617   2.918   0.841   0.365  0.2305  0.1246  0.2412
  655SOL    HW1 2618   2.877   0.856   0.452 -0.2938 -0.2145  1.3786
  655SOL    HW2 2619   2.943   0.751   0.370  2.2584  3.0834  0.9003
  655SOL     MW 2620   2.916   0.831   0.377  0.4289  0.4703  0.4783
  656SOL     OW 2621   1.882   2.735   1.328  0.3996  0.1358  0.1415
  656SOL    HW1 2622   1.921   2.820   1.328 -3.0169  0.5757 -1.4622
  656SOL    HW2 2623   1.905   2.692   1.405 -1.8617  3.4650 -1.6144
  656SOL     MW 2624   1.890   2.741   1.338 -0.3496  0.6331 -0.3017
  657SOL     OW 2625   0.159   1.754   1.170  0.1329  0.6085  0.0414
  657SOL    HW1 2626   0.228   1.813   1.139 -0.2834 -2.1700 -2.3215
  657SOL    HW2 2627   0.179   1.666   1.150  1.1334 -0.2616  0.1274
  657SOL     MW 2628   0.171   1.750   1.164  0.2100  0.1271 -0.2590
  658SOL     OW 2629   2.690   1.367   0.251 -0.1794 -0.0307 -0.0302
  658SOL    HW1 2630   2.673   1.277   0.303  0.5700 -1.5590 -0.0306
  658SOL    HW2 2631   2.724   1.430   0.312 -1.8046  0.0384  0.9644
  658SOL     MW 2632   2.692   1.364   0.266 -0.2950 -0.2232  0.1009
  659SOL     OW 2633   2.283   1.539   1.067 -0.3482  0.4807 -0.6276
  659SOL    HW1 2634   2.381   1.513   1.063  1.9196 -0.9685 -1.3600
  659SOL    HW2 2635   2.264   1.590   1.145 -0.5171 -2.5716 -2.0275
  659SOL     MW 2636   2.294   1.542   1.077 -0.0713 -0.1132 -0.9090
  660SOL     OW 2637   2.028   1.568   1.675  0.5947 -0.5911 -0.4544
  660SOL    HW1 2638   2.037   1.595   1.769  1.3241  0.7754 -1.4854
  660SOL    HW2 2639   1.938   1.522   1.672  1.1777 -0.2051 -3.1202
  660SOL     MW 2640   2.018   1.565   1.687  0.7679 -0.3599 -0.9421
  661SOL     OW 2641   2.448   1.021   0.191  0.3852  0.4868  0.1591
  661SOL    HW1 2642   2.514   1.042   0.258  0.6526  0.9525 -0.1670
  661SOL    HW2 2643   2.431   0.922   0.199  1.8996 -0.5454 -1.3160
  661SOL     MW 2644   2.454   1.011   0.201  0.6203  0.4120 -0.0786
  662SOL     OW 2645   2.564   2.976   0.867 -0.0398  0.5003  0.5791
  662SOL    HW1 2646   2.526   3.034   0.935 -1.2691 -1.0568 -0.4310
  662SOL    HW2 2647   2.586   3.032   0.790  0.0659  0.3692  0.7093
  662SOL     MW 2648   2.562   2.991   0.866 -0.1880  0.2775  0.4630
  663SOL     OW 2649   2.653   1.485   0.512 -0.3150  0.1114  0.2527
  663SOL    HW1 2650   2.646   1.552   0.452 -1.7975 -1.9594 -0.5801
  663SOL    HW2 2651   2.723   1.499   0.578  0.5363  0.5014 -0.0435
  663SOL     MW 2652   2.662   1.496   0.513 -0.3983 -0.1104  0.1037
  664SOL     OW 2653   2.538   1.510   1.562  0.1015 -0.1281 -0.4656
  664SOL    HW1 2654   2.536   1.604   1.555  0.3392 -1.5646 -0.0097
  664SOL    HW2 2655   2.449   1.490   1.538  0.9169  1.4726  0.5119
  664SOL     MW 2656   2.526   1.519   1.558  0.2405 -0.1064 -0.2765
  665SOL     OW 2657   2.853   0.858   2.015 -0.1620 -0.0064 -0.5118
  665SOL    HW1 2658   2.799   0.887   1.947  1.7546 -2.4603  0.9644
  665SOL    HW2 2659   2.902   0.783   1.986  1.5404  1.5813  1.9697
  665SOL     MW 2660   2.853   0.852   2.002  0.3155 -0.1207  0.0104
  666SOL     OW 2661   2.763   3.035   1.717  0.3360  0.6243  0.6211
  666SOL    HW1 2662   2.754   3.039   1.623 -0.6358 -0.6359  1.1947
  666SOL    HW2 2663   2.710   2.965   1.739  1.8616  2.0661 -1.2090
  666SOL     MW 2664   2.755   3.027   1.708  0.4091  0.6483  0.4553
  667SOL     OW 2665   1.958   2.694   1.770  0.3210 -0.3433  0.4085
  667SOL    HW1 2666   2.004   2.659   1.843 -0.9227 -0.3204  0.6484
  667SOL    HW2 2667   2.026   2.752   1.728  1.0279  0.4411  1.4325
  667SOL     MW 2668   1.973   2.697   1.774  0.2502 -0.2368  0.5752
  668SOL     OW 2669   2.761   0.651   0.827 -0.2139  0.1488  0.1316
  668SOL    HW1 2670   2.833   0.656   0.896 -0.2189 -1.5200 -0.5032
  668SOL    HW2 2671   2.683   0.698   0.849  4.0857 -0.7236 -2.1420
  668SOL     MW 2672   2.760   0.658   0.839  0.3527 -0.1865 -0.2521
  669SOL     OW 2673   0.199   0.963   0.688 -0.1389 -0.4360 -0.0142
  669SOL    HW1 2674   0.147   1.016   0.750  0.2823  2.1931  3.0077
  669SOL    HW2 2675   0.279   0.945   0.735 -2.3276  0.6991 -1.6836
  669SOL     MW 2676   0.203   0.967   0.703 -0.3721  0.0606  0.1642
  670SOL     OW 2677   2.882   0.230   0.203 -0.4081  0.3218  0.4359
  670SOL    HW1 2678   2.910   0.154   0.145  1.1481  2.3777 -2.7333
  670SOL    HW2 2679   2.927   0.312   0.177  1.5101 -0.5180 -0.2098
  670SOL     MW 2680   2.892   0.230   0.192  0.0503  0.4823 -0.0675
  671SOL     OW 2681   2.031   3.011   1.521  0.5946  1.0644  0.4863
  671SOL    HW1 2682   1.972   3.019   1.444 -0.0705  1.0317 -0.4662
  671SOL    HW2 2683   1.982   3.063   1.594 -3.1046 -0.2622 -1.9167
  671SOL     MW 2684   2.017   3.019   1.521  0.0188  0.8850  0.0436
  672SOL     OW 2685   1.911   1.708   1.305  0.5781  0.3523  0.4837
  672SOL    HW1 2686   1.829   1.721   1.351  0.2411 -1.7150 -0.4316
  672SOL    HW2 2687   1.905   1.752   1.218 -0.8756  1.2808 -0.7111
  672SOL     MW 2688   1.899   1.716   1.299  0.3418  0.2020  0.2053
  673SOL     OW 2689   2.768   1.101   0.580  0.1371 -0.3053  0.6187
  673SOL    HW1 2690   2.788   1.010   0.601 -3.5876  0.0020  0.1422
  673SOL    HW2 2691   2.846   1.140   0.615  2.5881 -0.2326  0.8555
  673SOL     MW 2692   2.781   1.094   0.587 -0.0309 -0.2552  0.5871
  674SOL     OW 2693   2.437   0.009   1.277 -0.2197 -0.6749  0.1926
  674SOL    HW1 2694   2.428   0.030   1.179 -1.4123 -3.0645  1.0990
  674SOL    HW2 2695   2.471  -0.080   1.272  2.2448  0.3068 -0.9648
  674SOL     MW 2696   2.440   0.000   1.263 -0.0519 -0.8606  0.1595
  675SOL     OW 2697   3.060   0.894   1.071  0.1991  0.5318 -0.0026
  675SOL    HW1 2698   3.119   0.878   1.148 -2.8657  0.7208 -1.7102
  675SOL    HW2 2699   3.117   0.948   1.015  0.1766  0.2525  0.0429
  675SOL     MW 2700   3.075   0.899   1.074 -0.2082  0.5199 -0.2219
  676SOL     OW 2701   2.895   1.508   1.657  0.4239 -0.4351  0.5953
  676SOL    HW1 2702   2.836   1.449   1.605  1.4204 -0.0007 -2.6696
  676SOL    HW2 2703   2.957   1.463   1.711  0.4660  0.7313 -1.0437
  676SOL     MW 2704   2.895   1.494   1.657  0.5610 -0.2239 -0.0517
  677SOL     OW 2705   2.412   0.553   1.993 -0.5146  0.2420 -0.4782
  677SOL    HW1 2706   2.357   0.518   1.918 -0.5139 -3.6177 -1.1872
  677SOL    HW2 2707   2.379   0.638   2.009 -0.0665  0.1021  0.1861
  677SOL     MW 2708   2.400   0.560   1.985 -0.4553 -0.2857 -0.4841
  678SOL     OW 2709   2.570   1.679   0.303 -0.4679  0.2421 -0.2622
  678SOL    HW1 2710   2.498   1.708   0.368 -1.3064  1.1088  0.9710
  678SOL    HW2 2711   2.540   1.601   0.250 -0.1895 -2.7384 -0.9927
  678SOL     MW 2712   2.557   1.673   0.304 -0.5418 -0.0368 -0.1959
  679SOL     OW 2713   2.220   0.464   1.250 -0.6805 -0.1168  0.5336
  679SOL    HW1 2714   2.198   0.378   1.210  0.7699 -1.5361  0.5470
  679SOL    HW2 2715   2.161   0.480   1.324  2.6125  0.7838  2.7204
  679SOL     MW 2716   2.209   0.455   1.255 -0.0546 -0.1853  0.8239
  680SOL     OW 2717   2.342   0.178   1.521  0.3031 -0.1008 -0.2392
  680SOL    HW1 2718   2.245   0.198   1.494  2.8852 -0.3402  0.1700
  680SOL    HW2 2719   2.376   0.128   1.452  1.4635 -0.1052  0.4356
  680SOL     MW 2720   2.334   0.174   1.508  0.7969 -0.1330 -0.0961
  681SOL     OW 2721   0.313   0.547   1.543  0.7535 -0.7620  0.1968
  681SOL    HW1 2722   0.289   0.473   1.593  1.2434  2.5305 -2.0094
  681SOL    HW2 2723   0.398   0.574   1.579  1.7243 -2.4276 -2.2663
  681SOL     MW 2724   0.321   0.541   1.555  0.9462 -0.5474 -0.4192
  682SOL     OW 2725   0.067   2.891   1.499  0.0936 -0.0688  0.0236
  682SOL    HW1 2726   0.157   2.906   1.522 -1.0004 -2.6966  0.6721
  682SOL    HW2 2727   0.029   2.921   1.585  1.2731  2.2905 -0.1532
  682SOL     MW 2728   0.074   2.897   1.513  0.1049 -0.1042  0.0858
  683SOL     OW 2729   2.051   0.829   2.994  0.9069  0.4091 -0.2807
  683SOL    HW1 2730   1.958   0.801   2.997  0.1604  0.3662 -1.5402
  683SOL    HW2 2731   2.046   0.918   3.028 -0.4957 -0.9675  4.1436
  683SOL     MW 2732   2.038   0.837   2.999  0.6234  0.2218  0.1368
  684SOL     OW 2733   2.219   1.676   0.816 -0.0384 -0.4581 -0.4524
  684SOL    HW1 2734   2.148   1.621   0.788  0.5410  1.8259  0.0136
  684SOL    HW2 2735   2.246   1.640   0.904 -0.4176  0.5611  1.3629
  684SOL     MW 2736   2.213   1.664   0.824 -0.0120 -0.0223 -0.1514
  685SOL     OW 2737   2.628   1.747   1.205 -0.4666  0.2547  0.3284
  685SOL    HW1 2738   2.699   1.736   1.268  0.2725  0.5692 -0.2576
  685SOL    HW2 2739   2.607   1.656   1.183 -0.2072  1.3650  1.9908
  685SOL     MW 2740   2.634   1.734   1.210 -0.3349  0.4427  0.4704
  686SOL     OW 2741   2.893   0.797   1.513  0.0782  0.6197  0.3401
  686SOL    HW1 2742   2.886   0.748   1.596 -1.5166 -1.2703 -1.3595
  686SOL    HW2 2743   2.987   0.805   1.496  0.1478  1.2809 -3.0718
  686SOL     MW 2744   2.905   0.791   1.522 -0.1230  0.4576 -0.3343
  687SOL     OW 2745   2.144   0.217   1.157  0.7332 -0.8386  0.4459
  687SOL    HW1 2746   2.188   0.150   1.109  0.5730  1.1929  1.8384
  687SOL    HW2 2747   2.069   0.248   1.104 -1.5843  0.6179  2.1557
  687SOL     MW 2748   2.140   0.212   1.144  0.4063 -0.3784  0.8552
  688SOL     OW 2749   2.394   0.585   1.456  0.2091  0.0023  0.3657
  688SOL    HW1 2750   2.326   0.567   1.384 -3.1713  0.9530 -1.5081
  688SOL    HW2 2751   2.339   0.638   1.521 -2.2112  1.0995  0.1884
  688SOL     MW 2752   2.377   0.590   1.455 -0.5562  0.2725  0.0950
  689SOL     OW 2753   2.516   0.763   2.998 -0.2706  0.0902  0.1251
  689SOL    HW1 2754   2.555   0.846   2.977 -0.2038 -0.9887  1.0084
  689SOL    HW2 2755   2.582   0.731   3.063 -2.0181  4.2206 -3.3065
  689SOL     MW 2756   2.530   0.769   3.004 -0.4924  0.4928 -0.2112
  690SOL     OW 2757   2.039   0.932   1.896 -0.0098 -0.1458  0.1202
  690SOL    HW1 2758   2.012   0.842   1.869  1.4221 -1.4862  0.2049
  690SOL    HW2 2759   2.039   0.991   1.817 -2.2366  0.9950 -1.4672
  690SOL     MW 2760   2.035   0.928   1.882 -0.1146 -0.1721 -0.0781
  691SOL     OW 2761   2.392   0.305   0.904  0.1311  0.5480 -0.0012
  691SOL    HW1 2762   2.456   0.371   0.925  0.9278  0.9618 -0.3705
  691SOL    HW2 2763   2.306   0.349   0.908 -1.2465 -1.1883  1.5484
  691SOL     MW 2764   2.389   0.319   0.907  0.0545  0.3735  0.1546
  692SOL     OW 2765   2.844   1.700   1.409  0.4825 -0.1396 -1.0711
  692SOL    HW1 2766   2.862   1.642   1.486 -0.9194  0.2161 -0.0790
  692SOL    HW2 2767   2.884   1.787   1.435  3.7636  0.6717  1.2822
  692SOL     MW 2768   2.851   1.704   1.422  0.7304  0.0144 -0.6297
  693SOL     OW 2769   2.299   0.409   0.120  0.0473  0.0563  0.4020
  693SOL    HW1 2770   2.232   0.338   0.102  0.1435  1.1056  2.7546
  693SOL    HW2 2771   2.273   0.488   0.080 -3.0321  0.4803  2.9105
  693SOL     MW 2772   2.287   0.410   0.112 -0.3463  0.2507  1.0434
  694SOL     OW 2773   1.944   1.184   1.174 -0.2840  0.1239  0.7199
  694SOL    HW1 2774   2.034   1.185   1.205 -1.2407 -2.3774 -0.5726
  694SOL    HW2 2775   1.897   1.118   1.224 -1.4499  0.4406  1.6733
  694SOL     MW 2776   1.950   1.176   1.185 -0.5641 -0.1643  0.6751
  695SOL     OW 2777   3.012   1.504   1.345  0.0838  0.6207  0.2102
  695SOL    HW1 2778   2.983   1.453   1.270  0.0802  0.3371  1.2701
  695SOL    HW2 2779   2.954   1.576   1.363  2.7493 -0.2861 -0.4653
  695SOL     MW 2780   3.001   1.507   1.338  0.4350  0.4637  0.2610
  696SOL     OW 2781   2.148   1.331   0.846 -0.4998 -0.6813 -0.2211
  696SOL    HW1 2782   2.199   1.383   0.904  2.7339  2.9077 -0.4987
  696SOL    HW2 2783   2.082   1.294   0.906  0.3084 -2.8988 -0.5440
  696SOL     MW 2784   2.146   1.333   0.862  0.0335 -0.5004 -0.3003
  697SOL     OW 2785   2.934   1.053   2.201  0.1604 -0.4649  0.5366
  697SOL    HW1 2786   2.853   1.114   2.198 -1.9494 -1.4177  4.5038
  697SOL    HW2 2787   2.904   0.980   2.149  0.7346  1.9860  0.0481
  697SOL     MW 2788   2.919   1.051   2.194 -0.0422 -0.2672  0.9956
  698SOL     OW 2789   2.514   0.298   0.013  0.5184 -0.0445  0.1519
  698SOL    HW1 2790   2.439   0.341   0.060 -0.8179  0.0897 -1.9610
  698SOL    HW2 2791   2.564   0.249   0.080  0.1247  1.7440 -2.0059
  698SOL     MW 2792   2.511   0.297   0.028  0.2902  0.2092 -0.4116
  699SOL     OW 2793   1.826   1.630   2.022 -0.0408 -0.5586 -0.0473
  699SOL    HW1 2794   1.777   1.544   1.995 -1.7497 -0.5466  0.6951
  699SOL    HW2 2795   1.928   1.616   2.022 -0.5329  1.5468 -1.7796
  699SOL     MW 2796   1.833   1.617   2.018 -0.3312 -0.2792 -0.1779
  700SOL     OW 2797   2.664   0.971   1.491  0.3010  0.3443  0.0923
  700SOL    HW1 2798   2.695   1.047   1.440 -1.8209  1.7143  1.6464
  700SOL    HW2 2799   2.725   0.902   1.458  0.9817  0.3498 -0.6397
  700SOL     MW 2800   2.676   0.972   1.480  0.1108  0.5258  0.2008
  701SOL     OW 2801   1.640   1.190   2.469  0.5157 -0.2821 -0.7929
  701SOL    HW1 2802   1.726   1.229   2.458 -2.1007  0.4888  0.2537
  701SOL    HW2 2803   1.627   1.187   2.565 -0.4605 -1.2123  1.0531
  701SOL     MW 2804   1.650   1.195   2.480  0.0417 -0.3031 -0.4112
  702SOL     OW 2805   2.164   0.452   0.821 -0.3503  0.7556  0.0964
  702SOL    HW1 2806   2.170   0.373   0.758 -0.6623 -0.6585  2.2271
  702SOL    HW2 2807   2.215   0.514   0.768 -0.6651 -0.1691  0.5973
  702SOL     MW 2808   2.171   0.450   0.806 -0.4330  0.4470  0.4436
  703SOL     OW 2809   2.748   1.221   1.020 -0.3196 -0.2304  0.0871
  703SOL    HW1 2810   2.703   1.205   0.936 -0.4442 -2.2278 -2.6385
  703SOL    HW2 2811   2.755   1.131   1.066 -0.7521  0.3587  1.7997
  703SOL     MW 2812   2.743   1.207   1.015 -0.3931 -0.4162 -0.0466
  704SOL     OW 2813   3.041   1.203   0.129 -0.6468 -0.5734 -0.6846
  704SOL    HW1 2814   2.957   1.219   0.092 -1.3697 -0.5746 -2.5472
  704SOL    HW2 2815   3.039   1.183   0.228  2.4653 -2.9321  0.7204
  704SOL     MW 2816   3.030   1.203   0.137 -0.3316 -0.8848 -0.7450
  705SOL     OW 2817   2.181   1.656   1.296 -0.1519  0.2098 -0.4567
  705SOL    HW1 2818   2.089   1.683   1.305 -4.3606  2.7021 -2.5485
  705SOL    HW2 2819   2.183   1.560   1.316 -2.0597 -2.0238  1.0960
  705SOL     MW 2820   2.169   1.647   1.300 -0.9589  0.2440 -0.5278
  706SOL     OW 2821   2.992   1.222   0.674  0.4772 -0.1717 -0.1430
  706SOL    HW1 2822   3.061   1.225   0.602  3.0459 -0.0479 -1.1956
  706SOL    HW2 2823   2.964   1.312   0.693  0.9488 -2.1762  0.1774
  706SOL     MW 2824   2.998   1.234   0.667  0.8783 -0.4198 -0.2396
  707SOL     OW 2825   2.418   0.042   1.022 -0.4726  0.2040 -0.2089
  707SOL    HW1 2826   2.427   0.123   0.977 -0.3039  2.1534  2.4662
  707SOL    HW2 2827   2.319   0.032   1.014 -0.7283  0.6394 -0.6343
  707SOL     MW 2828   2.406   0.052   1.015 -0.4841  0.5187  0.0879
  708SOL     OW 2829   2.441   1.447   0.176 -0.4213  0.1729  0.5640
  708SOL    HW1 2830   2.519   1.402   0.210  1.0007 -1.4400  1.4841
  708SOL    HW2 2831   2.445   1.460   0.081  1.5908  0.4137  0.1391
  708SOL     MW 2832   2.452   1.443   0.168  0.0318 -0.0081  0.6293
  709SOL     OW 2833   1.776   1.642   0.200  0.0939  0.6087  0.5895
  709SOL    HW1 2834   1.740   1.676   0.112 -0.3579 -2.6718  1.1647
  709SOL    HW2 2835   1.707   1.640   0.266  2.1445 -0.4403  2.9918
  709SOL     MW 2836   1.762   1.646   0.197  0.3049  0.0375  0.9824
  710SOL     OW 2837   2.201   1.237   1.199  0.3769 -0.2156  0.4401
  710SOL    HW1 2838   2.221   1.215   1.105 -1.6668 -1.1688 -1.2276
  710SOL    HW2 2839   2.225   1.147   1.236  1.6237 -0.2663 -0.2905
  710SOL     MW 2840   2.207   1.222   1.191  0.2718 -0.3481  0.1237
  711SOL     OW 2841   2.346   0.124   1.785 -0.5443  0.0055  0.3634
  711SOL    HW1 2842   2.441   0.112   1.785  0.1047  0.9761 -3.7806
  711SOL    HW2 2843   2.337   0.126   1.684  0.7556  2.9409 -1.2063
  711SOL     MW 2844   2.357   0.123   1.772 -0.2872  0.5209 -0.3905
  712SOL     OW 2845   1.935   0.521   0.094 -0.4810 -0.5070  0.4536
  712SOL    HW1 2846   1.850   0.535   0.050  0.3802 -0.1418  2.1984
  712SOL    HW2 2847   1.970   0.606   0.126  1.6385  2.2291  0.0589
  712SOL     MW 2848   1.928   0.534   0.092 -0.0878 -0.0978  0.6317
  713SOL     OW 2849   2.555   0.845   1.080  0.0596 -0.3683 -0.0008
  713SOL    HW1 2850   2.584   0.759   1.104  0.2523  1.5643 -1.5224
  713SOL    HW2 2851   2.479   0.868   1.138 -0.4212 -0.8066 -1.4215
  713SOL     MW 2852   2.549   0.836   1.091  0.0216 -0.1711 -0.3890
  714SOL     OW 2853   2.220   0.227   2.006  0.0596 -0.4250 -0.0786
  714SOL    HW1 2854   2.263   0.184   2.082  3.4760  1.9087 -3.9001
  714SOL    HW2 2855   2.263   0.191   1.924  3.3249  1.1762  1.0516
  714SOL     MW 2856   2.231   0.217   2.005  0.9412  0.0941 -0.4337
  715SOL     OW 2857   1.754   1.922   1.644  0.5069 -0.7239 -0.0600
  715SOL    HW1 2858   1.849   1.900   1.633  2.6787 -1.5452  0.1498
  715SOL    HW2 2859   1.731   1.864   1.719 -0.1196 -2.1605  0.4082
  715SOL     MW 2860   1.763   1.912   1.652  0.7108 -1.0218  0.0295
  716SOL     OW 2861   2.308   0.617   0.697 -0.3330 -0.0532 -0.3048
  716SOL    HW1 2862   2.372   0.551   0.665 -1.9536 -0.0382 -0.5171
  716SOL    HW2 2863   2.271   0.645   0.611 -1.5060 -0.0525  0.7851
  716SOL     MW 2864   2.312   0.612   0.681 -0.7016 -0.0511 -0.1890
  717SOL     OW 2865   2.868   1.550   2.931 -0.2296  0.0531 -0.1948
  717SOL    HW1 2866   2.961   1.542   2.960  0.5179 -0.6295  0.8231
  717SOL    HW2 2867   2.835   1.600   3.006  1.8104  2.3655 -1.1520
  717SOL     MW 2868   2.876   1.556   2.945  0.1382  0.2681 -0.1868
  718SOL     OW 2869   2.693   1.386   1.328  0.1944 -0.1000 -0.1429
  718SOL    HW1 2870   2.684   1.414   1.418 -0.8310  0.5091 -0.7471
  718SOL    HW2 2871   2.751   1.305   1.323 -0.7002  1.2845  0.0081
  718SOL     MW 2872   2.699   1.379   1.339 -0.0589  0.1631 -0.2027
  719SOL     OW 2873   2.179   1.286   0.583  0.0141  0.3968 -0.3606
  719SOL    HW1 2874   2.273   1.293   0.574  1.2920 -0.9890  0.6252
  719SOL    HW2 2875   2.159   1.303   0.679  0.3912 -2.9480 -0.3500
  719SOL     MW 2876   2.189   1.289   0.595  0.2325 -0.2274 -0.2292
  720SOL     OW 2877   2.761   1.213   0.019 -0.5405  0.4515 -0.0345
  720SOL    HW1 2878   2.729   1.126   0.049 -0.2809 -2.0161  1.2297
  720SOL    HW2 2879   2.725   1.285   0.076 -2.7803  1.0456  2.3896
  720SOL     MW 2880   2.752   1.211   0.030 -0.8018  0.2043  0.4521
  721SOL     OW 2881   2.450   0.856   1.370 -0.4095 -0.2325 -0.0030
  721SOL    HW1 2882   2.456   0.778   1.422 -1.1253 -2.2250 -2.4379
  721SOL    HW2 2883   2.515   0.919   1.414  0.6564 -1.1643  1.8185
  721SOL     MW 2884   2.459   0.854   1.383 -0.3633 -0.6183 -0.0839
  722SOL     OW 2885   2.594   1.144   0.379 -0.5777 -0.2723 -0.3515
  722SOL    HW1 2886   2.525   1.196   0.428  1.8474  1.3512  1.1828
  722SOL    HW2 2887   2.657   1.111   0.451  0.2530 -1.8501 -2.1930
  722SOL     MW 2888   2.593   1.147   0.395 -0.1481 -0.2663 -0.3920
  723SOL     OW 2889   2.236   1.398   1.617 -0.1530  0.2465 -0.2207
  723SOL    HW1 2890   2.244   1.411   1.519 -2.0328 -1.1881 -0.3900
  723SOL    HW2 2891   2.154   1.447   1.650 -3.0613 -3.5013  2.0098
  723SOL     MW 2892   2.226   1.406   1.609 -0.7847 -0.4373  0.0513
  724SOL     OW 2893   2.445   0.385   0.640  0.2000 -0.2312 -0.0211
  724SOL    HW1 2894   2.437   0.352   0.727  2.2967 -1.5081  0.1204
  724SOL    HW2 2895   2.539   0.387   0.619 -0.1978 -0.6992 -0.8413
  724SOL     MW 2896   2.457   0.381   0.648  0.4242 -0.4614 -0.1107
  725SOL     OW 2897   2.553   0.592   1.205 -0.8547  0.8270 -0.5834
  725SOL    HW1 2898   2.636   0.588   1.249 -0.2227  2.0123 -0.1253
  725SOL    HW2 2899   2.503   0.543   1.270 -1.8687 -1.0215  0.9253
  725SOL     MW 2900   2.558   0.586   1.219 -0.9051  0.7395 -0.3239
  726SOL     OW 2901   2.592   2.449   0.546 -0.0240  0.2670  0.1765
  726SOL    HW1 2902   2.562   2.517   0.481  3.9981  0.3030 -2.5616
  726SOL    HW2 2903   2.514   2.421   0.585  1.2702  0.0535 -0.1290
  726SOL     MW 2904   2.578   2.454   0.543  0.6774  0.2436 -0.2251
  727SOL     OW 2905   2.869   0.317   1.644 -0.0853  0.6794  0.4994
  727SOL    HW1 2906   2.846   0.348   1.553  0.5672 -0.4259 -1.2532
  727SOL    HW2 2907   2.793   0.321   1.701  0.1485 -1.8587 -0.0908
  727SOL     MW 2908   2.856   0.322   1.639  0.0316  0.1987  0.1903
  728SOL     OW 2909   2.817   1.170   2.844 -0.0256  0.0787 -0.4594
  728SOL    HW1 2910   2.816   1.244   2.780  1.4460  0.1599  1.4919
  728SOL    HW2 2911   2.827   1.217   2.932 -0.8206 -0.9335 -0.2319
  728SOL     MW 2912   2.818   1.186   2.847  0.0637 -0.0441 -0.1719
  729SOL     OW 2913   2.558   1.503   1.095 -0.2288 -0.4089 -0.3170
  729SOL    HW1 2914   2.614   1.432   1.137  1.2057 -2.2423  0.0248
  729SOL    HW2 2915   2.585   1.506   0.999  0.0124 -3.2313  0.0898
  729SOL     MW 2916   2.569   1.494   1.088 -0.0077 -1.0232 -0.2183
  730SOL     OW 2917   2.170   1.177   0.216  0.5304 -0.6231 -0.1164
  730SOL    HW1 2918   2.265   1.187   0.234  3.4338  1.9454 -0.2795
  730SOL    HW2 2919   2.131   1.262   0.210 -0.5205 -1.2735 -0.7884
  730SOL     MW 2920   2.178   1.190   0.217  0.7748 -0.3700 -0.2266
  731SOL     OW 2921   2.816   1.915   2.874 -0.3973  0.1042 -0.3021
  731SOL    HW1 2922   2.737   1.942   2.820 -2.5105  2.0425 -0.1779
  731SOL    HW2 2923   2.894   1.970   2.849  1.8820  1.4245 -1.3212
  731SOL     MW 2924   2.816   1.926   2.864 -0.3754  0.5342 -0.4201
  732SOL     OW 2925   2.211   0.994   1.329  0.1192  0.8224 -0.0160
  732SOL    HW1 2926   2.168   1.002   1.412 -0.4355  0.8572 -1.6079
  732SOL    HW2 2927   2.296   0.962   1.353  0.7963  0.4675 -0.0127
  732SOL     MW 2928   2.217   0.991   1.343  0.1354  0.7802 -0.2256
  733SOL     OW 2929   2.351   2.741   3.045  0.0774 -0.6060 -0.7487
  733SOL    HW1 2930   2.278   2.808   3.032 -2.6749 -0.0337  1.8272
  733SOL    HW2 2931   2.316   2.654   3.022 -1.1376  0.5684 -1.1987
  733SOL     MW 2932   2.337   2.738   3.040 -0.4461 -0.3755 -0.4682
  734SOL     OW 2933   1.457   0.391   2.443  0.0304  0.2331  0.1549
  734SOL    HW1 2934   1.458   0.372   2.535 -2.0269  0.8995 -0.3175
  734SOL    HW2 2935   1.497   0.313   2.397 -0.8438 -1.0512 -0.7249
  734SOL     MW 2936   1.462   0.379   2.449 -0.3564  0.1516 -0.0235
  735SOL     OW 2937   2.915   0.884   2.604 -0.0927 -0.3844  0.1166
  735SOL    HW1 2938   2.916   0.794   2.570  1.7146  0.9357 -1.6852
  735SOL    HW2 2939   2.987   0.890   2.670 -1.8946  0.0872  1.3827
  735SOL     MW 2940   2.925   0.873   2.608 -0.0920 -0.1480  0.0459
  736SOL     OW 2941   0.126   0.571   2.517 -0.1824  0.0364 -0.4245
  736SOL    HW1 2942   0.152   0.646   2.470 -2.9436  0.7391 -1.0204
  736SOL    HW2 2943   0.110   0.507   2.451  0.3964  0.0850  0.5127
  736SOL     MW 2944   0.128   0.572   2.502 -0.4703  0.1355 -0.3794
  737SOL     OW 2945   2.938   0.622   2.547 -0.6420 -0.1971  0.1347
  737SOL    HW1 2946   2.900   0.587   2.465 -1.7710 -1.5866  2.0856
  737SOL    HW2 2947   3.026   0.587   2.535 -0.9748  0.8878 -0.1304
  737SOL     MW 2948   2.944   0.613   2.534 -0.8349 -0.2373  0.3571
  738SOL     OW 2949   0.205   0.592   1.881  0.4631 -0.3012 -0.4164
  738SOL    HW1 2950   0.294   0.620   1.891 -1.3723 -0.2627 -3.8368
  738SOL    HW2 2951   0.210   0.508   1.833 -0.0212  0.6892  1.5172
  738SOL     MW 2952   0.217   0.585   1.876  0.1570 -0.1655 -0.6126
  739SOL     OW 2953   2.437   1.067   2.074  0.0299 -0.7696 -0.4395
  739SOL    HW1 2954   2.384   0.987   2.047 -1.9402  1.4731 -1.5822
  739SOL    HW2 2955   2.481   1.091   1.991 -0.2764 -0.0529 -1.1178
  739SOL     MW 2956   2.436   1.060   2.059 -0.2705 -0.3791 -0.6798
  740SOL     OW 2957   0.247   1.759   2.978  0.4027  0.0140  0.6917
  740SOL    HW1 2958   0.197   1.676   2.970  0.7167  0.8626  0.0246
  740SOL    HW2 2959   0.332   1.721   3.002  1.2607 -0.8088 -0.8811
  740SOL     MW 2960   0.252   1.743   2.980  0.5574  0.0174  0.3962
  741SOL     OW 2961   2.269   1.230   2.722 -0.0846 -0.7462  0.5346
  741SOL    HW1 2962   2.205   1.267   2.664  1.6477  1.7216 -1.1077
  741SOL    HW2 2963   2.229   1.234   2.806 -2.0836 -1.9526 -0.0068
  741SOL     MW 2964   2.256   1.235   2.725 -0.1198 -0.5798  0.2465
  742SOL     OW 2965   1.520   1.263   2.212 -0.2094 -0.3134  0.1867
  742SOL    HW1 2966   1.463   1.194   2.177 -2.2354  1.9279 -0.0291
  742SOL    HW2 2967   1.545   1.240   2.303  0.0923 -0.9688 -1.3172
  742SOL     MW 2968   1.516   1.251   2.220 -0.4369 -0.1042 -0.0402
  743SOL     OW 2969   2.536   1.261   2.775  0.2377 -0.4195 -0.5536
  743SOL    HW1 2970   2.438   1.263   2.758 -2.1494  0.9670 -1.3446
  743SOL    HW2 2971   2.567   1.169   2.809 -1.8223  2.2405 -0.1235
  743SOL     MW 2972   2.527   1.249   2.777 -0.3490  0.1144 -0.6012
  744SOL     OW 2973   2.760   0.955   1.747  0.3006  0.0844 -0.0619
  744SOL    HW1 2974   2.682   1.006   1.777  2.2553  2.0187 -0.0437
  744SOL    HW2 2975   2.735   0.939   1.651  1.4805 -1.3747 -1.7415
  744SOL     MW 2976   2.747   0.960   1.738  0.7142  0.1471 -0.2811
  745SOL     OW 2977   1.731   0.444   2.500  0.2275  0.0736 -0.1709
  745SOL    HW1 2978   1.754   0.443   2.409  1.0702  1.1771  2.7286
  745SOL    HW2 2979   1.636   0.463   2.504  0.3752 -0.9654 -2.9011
  745SOL     MW 2980   1.721   0.446   2.488  0.3582  0.0821 -0.1486
  746SOL     OW 2981   1.536   1.437   1.612  0.1537 -0.1055 -0.4109
  746SOL    HW1 2982   1.632   1.439   1.620  1.9808 -2.0125 -2.6209
  746SOL    HW2 2983   1.511   1.380   1.687 -2.7979  0.1630  0.4238
  746SOL     MW 2984   1.546   1.429   1.623  0.0053 -0.3217 -0.5923
  747SOL     OW 2985   2.535   1.122   1.830  0.3892  0.3263 -0.2757
  747SOL    HW1 2986   2.452   1.133   1.792 -0.1592 -2.5319  0.8010
  747SOL    HW2 2987   2.549   1.207   1.873 -2.0845  2.9612 -4.8905
  747SOL     MW 2988   2.526   1.134   1.831 -0.0095  0.2968 -0.7425
  748SOL     OW 2989   0.119   0.066   1.823 -0.0751 -0.3042 -0.2783
  748SOL    HW1 2990   0.195   0.017   1.861  2.3100 -0.3310 -0.3144
  748SOL    HW2 2991   0.081   0.116   1.895  1.6879  1.3315 -0.3157
  748SOL     MW 2992   0.124   0.066   1.838  0.4722 -0.0919 -0.2880
  749SOL     OW 2993   2.423   0.569   2.802  0.4237  0.3658 -0.7701
  749SOL    HW1 2994   2.440   0.633   2.735  1.0950  0.5157  0.6919
  749SOL    HW2 2995   2.430   0.629   2.880 -1.8613  1.7758  2.3138
  749SOL     MW 2996   2.426   0.585   2.803  0.2108  0.5716 -0.1703
  750SOL     OW 2997   2.070   0.018   1.949 -0.0555  0.3403 -0.1028
  750SOL    HW1 2998   2.111   0.095   1.981 -0.3440 -1.5395  0.4205
  750SOL    HW2 2999   2.139  -0.050   1.936  0.4223 -0.0042  0.5656
  750SOL     MW 3000   2.084   0.019   1.951 -0.0305  0.0468  0.0544
  751SOL     OW 3001   0.012   0.407   2.302  0.0302 -0.7890 -0.6428
  751SOL    HW1 3002  -0.045   0.339   2.343 -0.0043  1.2503 -0.1438
  751SOL    HW2 3003   0.085   0.364   2.258 -0.4716 -0.1062 -2.4307
  751SOL     MW 3004   0.014   0.392   2.301 -0.0405 -0.4298 -0.8129
  752SOL     OW 3005   2.111   0.839   2.719 -0.0263 -0.4761 -0.0277
  752SOL    HW1 3006   2.197   0.884   2.710  1.9813 -2.4427  1.4939
  752SOL    HW2 3007   2.079   0.844   2.807  0.6569 -1.9146 -0.0891
  752SOL     MW 3008   2.118   0.846   2.730  0.3287 -0.9254  0.1650
  753SOL     OW 3009   2.894   0.248   2.356  0.3937 -0.1439  0.0753
  753SOL    HW1 3010   2.844   0.182   2.306  0.6181  1.6901 -1.5315
  753SOL    HW2 3011   2.834   0.326   2.363 -0.9195  2.4120  1.8060
  753SOL     MW 3012   2.880   0.249   2.350  0.2500  0.4353  0.0917
  754SOL     OW 3013   2.237   3.005   2.673  0.0214 -0.2480  0.0246
  754SOL    HW1 3014   2.231   2.968   2.579  0.4706 -2.2756 -0.6487
  754SOL    HW2 3015   2.304   2.947   2.712  0.2199 -0.0458  1.8599
  754SOL     MW 3016   2.245   2.992   2.666  0.1069 -0.4889  0.1779
  755SOL     OW 3017   2.732   1.583   2.445  0.0877  0.2268 -0.0134
  755SOL    HW1 3018   2.713   1.506   2.501  1.8188 -0.0546 -0.4534
  755SOL    HW2 3019   2.778   1.649   2.491 -2.3056  0.4350 -1.4061
  755SOL     MW 3020   2.736   1.582   2.458  0.0004  0.2171 -0.2552
  756SOL     OW 3021   2.240   1.343   3.022 -0.4938  0.5978 -0.1915
  756SOL    HW1 3022   2.310   1.406   3.004 -0.1459  1.0480 -2.0654
  756SOL    HW2 3023   2.282   1.253   3.034 -1.3894 -0.5588 -1.0415
  756SOL     MW 3024   2.255   1.340   3.022 -0.5660  0.5046 -0.5509
  757SOL     OW 3025   2.089   0.981   1.619 -0.4954 -0.1133 -0.8108
  757SOL    HW1 3026   2.120   0.892   1.609  0.0800  1.6152 -0.7613
  757SOL    HW2 3027   2.003   0.990   1.582  1.0727  0.6323 -0.0924
  757SOL     MW 3028   2.082   0.970   1.613 -0.2126  0.2131 -0.7095
  758SOL     OW 3029   2.179   1.791   2.652 -0.0265 -0.2440 -0.7196
  758SOL    HW1 3030   2.161   1.803   2.559  0.7168  0.8182 -0.3220
  758SOL    HW2 3031   2.262   1.749   2.669 -1.7364  1.1986 -1.0361
  758SOL     MW 3032   2.188   1.787   2.642 -0.1540  0.0865 -0.7089
  759SOL     OW 3033   1.557   1.322   2.715  0.1687  0.6606 -0.2466
  759SOL    HW1 3034   1.577   1.393   2.656  2.6213 -0.2941  1.6677
  759SOL    HW2 3035   1.604   1.347   2.799  0.2294  1.3956  2.3802
  759SOL     MW 3036   1.566   1.335   2.719  0.5003  0.6316  0.3525
  760SOL     OW 3037   2.572   1.955   2.711 -0.4892  0.2509  0.2446
  760SOL    HW1 3038   2.540   1.877   2.657 -3.0181 -5.8897 -2.0948
  760SOL    HW2 3039   2.585   2.026   2.650  0.3587  0.6566 -1.7116
  760SOL     MW 3040   2.569   1.954   2.696 -0.7110 -0.5058 -0.3222
  761SOL     OW 3041   2.076   0.419   2.460  0.1005  0.4056 -0.1457
  761SOL    HW1 3042   1.989   0.373   2.462 -2.8204 -3.1721  0.1793
  761SOL    HW2 3043   2.104   0.432   2.548 -2.2469 -2.7353 -1.4799
  761SOL     MW 3044   2.068   0.414   2.472 -0.5946 -0.4809 -0.2789
  762SOL     OW 3045   3.094   0.182   2.019 -0.2895  0.0603 -0.1339
  762SOL    HW1 3046   3.061   0.130   2.089  1.7604 -1.5002 -0.6534
  762SOL    HW2 3047   3.034   0.256   2.027  0.1154  0.4896 -1.5847
  762SOL     MW 3048   3.082   0.185   2.029  0.0344 -0.0889 -0.3939
  763SOL     OW 3049   2.406   1.075   2.345  0.2856 -0.6770 -0.2920
  763SOL    HW1 3050   2.434   1.065   2.248  0.5401 -2.6910 -0.4977
  763SOL    HW2 3051   2.429   1.162   2.378 -1.0058 -0.6125  0.7469
  763SOL     MW 3052   2.413   1.085   2.336  0.1488 -0.9342 -0.1821
  764SOL     OW 3053   0.375   0.226   2.775  0.2063  0.2809 -0.3622
  764SOL    HW1 3054   0.282   0.225   2.794  1.1190 -0.2130  2.3236
  764SOL    HW2 3055   0.406   0.305   2.825 -1.4818  0.5901  0.4157
  764SOL     MW 3056   0.367   0.236   2.784  0.1040  0.2565  0.0948
  765SOL     OW 3057   2.695   0.099   2.276  0.3400 -0.0508 -0.4735
  765SOL    HW1 3058   2.652   0.069   2.193 -0.2801  1.0810 -0.3023
  765SOL    HW2 3059   2.746   0.023   2.312  0.1656 -0.1547 -0.7966
  765SOL     MW 3060   2.696   0.085   2.270  0.2352  0.0848 -0.4936
  766SOL     OW 3061   1.844   3.028   2.144 -0.1260  0.1783  0.7201
  766SOL    HW1 3062   1.900   3.085   2.087  1.3446 -1.2331 -0.9880
  766SOL    HW2 3063   1.800   2.967   2.082 -1.6281 -2.1077  2.6977
  766SOL     MW 3064   1.846   3.028   2.128 -0.1302 -0.3096  0.7556
  767SOL     OW 3065   2.660   0.647   1.946 -0.3430  0.1329  0.2572
  767SOL    HW1 3066   2.679   0.679   2.034 -1.2594  1.4935 -0.9969
  767SOL    HW2 3067   2.565   0.624   1.938 -3.1418 -0.0560  0.7665
  767SOL     MW 3068   2.650   0.648   1.957 -0.8332  0.2875  0.1589
  768SOL     OW 3069   0.084   1.556   2.974 -0.4910  0.0355 -0.3570
  768SOL    HW1 3070   0.094   1.506   3.056 -0.9927  0.2742  1.2700
  768SOL    HW2 3071   0.123   1.499   2.901 -0.7483  0.9445 -2.6186
  768SOL     MW 3072   0.090   1.542   2.976 -0.5912  0.1869 -0.4407
  769SOL     OW 3073   2.353   0.688   2.324  0.3139  0.2729 -0.2950
  769SOL    HW1 3074   2.280   0.633   2.311  3.2996  1.0249  2.8030
  769SOL    HW2 3075   2.427   0.626   2.305 -0.2648 -0.3972  4.1117
  769SOL     MW 3076   2.353   0.673   2.320  0.6315  0.2837  0.6952
  770SOL     OW 3077   0.078   1.701   2.593  0.6908 -0.1058  0.2594
  770SOL    HW1 3078  -0.020   1.694   2.614 -2.3215  1.9618 -1.0025
  770SOL    HW2 3079   0.119   1.624   2.624 -1.6253  1.9156 -0.6759
  770SOL     MW 3080   0.070   1.690   2.600 -0.0123  0.4337 -0.0305
  771SOL     OW 3081   3.037   0.648   1.929 -0.6359 -0.3109  0.2102
  771SOL    HW1 3082   2.976   0.643   1.844 -2.8382  0.9024 -1.2980
  771SOL    HW2 3083   3.126   0.627   1.900 -3.2106 -1.4490 -0.3660
  771SOL     MW 3084   3.041   0.645   1.914 -1.2662 -0.3010 -0.0648
  772SOL     OW 3085   3.074   0.020   2.247 -0.2984 -0.0150 -0.0578
  772SOL    HW1 3086   2.999  -0.029   2.288 -0.9132  0.1893  1.0313
  772SOL    HW2 3087   3.136  -0.050   2.246 -0.6191 -0.0372 -2.9022
  772SOL     MW 3088   3.072   0.004   2.252 -0.4218  0.0090 -0.2894
  773SOL     OW 3089   2.411   2.793   2.768  0.0861 -0.1087  0.1075
  773SOL    HW1 3090   2.399   2.724   2.699 -1.8661  1.7550  2.1360
  773SOL    HW2 3091   2.408   2.758   2.858 -0.4296 -0.1990 -1.0799
  773SOL     MW 3092   2.409   2.779   2.770 -0.2395  0.1253  0.2185
  774SOL     OW 3093   2.278   1.187   1.777  0.2640  0.2990  0.2991
  774SOL    HW1 3094   2.258   1.261   1.721 -2.0581 -0.7335  1.1670
  774SOL    HW2 3095   2.225   1.120   1.733 -1.2563 -0.5257 -2.4291
  774SOL     MW 3096   2.269   1.188   1.764 -0.2430  0.0539  0.0537
  775SOL     OW 3097   2.261   2.974   2.398  0.6357 -0.4949 -0.4087
  775SOL    HW1 3098   2.266   3.050   2.341  3.5597  0.7536 -2.7703
  775SOL    HW2 3099   2.319   2.907   2.362  0.2935  0.4866  0.0244
  775SOL     MW 3100   2.270   2.975   2.385  0.9763 -0.2007 -0.6631
  776SOL     OW 3101   0.100   1.446   0.167  0.0231 -0.2336  0.4216
  776SOL    HW1 3102   0.191   1.413   0.169 -1.7272  1.5768  0.7855
  776SOL    HW2 3103   0.061   1.367   0.131 -0.9473  3.0073  0.0668
  776SOL     MW 3104   0.107   1.431   0.163 -0.3359  0.4329  0.4228
  777SOL     OW 3105   2.982   1.071   1.688 -0.3581  0.5699 -0.1184
  777SOL    HW1 3106   2.950   1.152   1.653  0.4934 -1.0033  0.0322
  777SOL    HW2 3107   2.901   1.027   1.712 -0.9972  0.8799  1.9885
  777SOL     MW 3108   2.967   1.076   1.687 -0.3301  0.4033  0.1794
  778SOL     OW 3109   2.889   0.450   2.743 -0.1523  0.0114 -0.2696
  778SOL    HW1 3110   2.821   0.474   2.808  1.3361 -1.7701 -1.8635
  778SOL    HW2 3111   2.907   0.535   2.684  0.9655  0.5396  0.4775
  778SOL     MW 3112   2.882   0.464   2.744  0.1916 -0.1539 -0.3813
  779SOL     OW 3113   2.091   0.594   2.261 -0.2425  0.1603  0.4502
  779SOL    HW1 3114   2.014   0.642   2.241 -2.7303  1.2207  3.2577
  779SOL    HW2 3115   2.069   0.539   2.330  2.8431  1.4938 -1.4103
  779SOL     MW 3116   2.078   0.593   2.267 -0.1637  0.4762  0.5752
  780SOL     OW 3117   0.092   0.212   2.766  0.5609 -0.2187 -0.4778
  780SOL    HW1 3118   0.057   0.207   2.855 -1.1190  1.8086 -0.1048
  780SOL    HW2 3119   0.014   0.235   2.717  0.9705 -0.6739 -0.7463
  780SOL     MW 3120   0.077   0.214   2.771  0.3933 -0.0113 -0.4640
  781SOL     OW 3121   3.054   1.320   2.564 -0.5134 -0.0958 -0.1166
  781SOL    HW1 3122   3.021   1.379   2.495 -0.5289 -2.2071 -1.1480
  781SOL    HW2 3123   3.072   1.241   2.513  0.5125  0.3411 -1.2779
  781SOL     MW 3124   3.052   1.318   2.548 -0.3801 -0.3167 -0.4059
  782SOL     OW 3125   0.769   1.456   3.064  0.0282  0.4955  0.3585
  782SOL    HW1 3126   0.694   1.504   3.046  0.2328  0.0048 -0.4584
  782SOL    HW2 3127   0.797   1.479   3.156  1.2186  2.3620  0.8669
  782SOL     MW 3128   0.763   1.466   3.073  0.2123  0.6770  0.3178
  783SOL     OW 3129   2.751   0.478   2.395  0.3715 -0.4798  0.0506
  783SOL    HW1 3130   2.688   0.488   2.325 -0.3884 -1.3154  1.0400
  783SOL    HW2 3131   2.698   0.455   2.472  1.4880  0.8381 -0.4193
  783SOL     MW 3132   2.735   0.476   2.396  0.4186 -0.4162  0.1191
  784SOL     OW 3133   0.201   0.824   2.837  0.1326 -0.4377  0.7340
  784SOL    HW1 3134   0.146   0.883   2.879  2.0528  1.7469  0.0382
  784SOL    HW2 3135   0.247   0.874   2.769  1.2134  1.7782 -1.8573
  784SOL     MW 3136   0.200   0.838   2.834  0.5285  0.1429  0.3003
  785SOL     OW 3137   0.425   0.507   2.172 -0.0988 -0.1060 -0.4342
  785SOL    HW1 3138   0.438   0.562   2.093  1.0680  1.4921  0.3982
  785SOL    HW2 3139   0.348   0.457   2.147 -2.3517 -1.0652 -0.2548
  785SOL     MW 3140   0.416   0.508   2.159 -0.2421 -0.0217 -0.3007
  786SOL     OW 3141   2.006   0.382   2.936  0.5057  0.0878 -0.7800
  786SOL    HW1 3142   2.029   0.440   3.000 -1.5291 -0.1986  2.1450
  786SOL    HW2 3143   2.023   0.421   2.853 -0.0704  1.7028  0.8614
  786SOL     MW 3144   2.011   0.394   2.934  0.1612  0.2631 -0.1775
  787SOL     OW 3145   2.420   0.219   2.880 -0.1184 -0.5909 -0.1063
  787SOL    HW1 3146   2.484   0.161   2.848 -0.6726  3.8925  0.8077
  787SOL    HW2 3147   2.462   0.257   2.960  2.2363  1.6457  1.5765
  787SOL     MW 3148   2.434   0.217   2.886  0.1191  0.2958  0.2363
  788SOL     OW 3149   2.845   2.994   2.376  0.0726 -0.3289 -0.0044
  788SOL    HW1 3150   2.874   3.019   2.460  3.1330 -2.6489 -5.7324
  788SOL    HW2 3151   2.896   2.917   2.344  2.6701 -2.1109  1.5964
  788SOL     MW 3152   2.855   2.987   2.383  0.8191 -0.8701 -0.5490
  789SOL     OW 3153   0.027   0.222   3.049 -0.8754  0.1364 -0.1245
  789SOL    HW1 3154  -0.046   0.160   3.077 -2.6165  3.1747 -2.6504
  789SOL    HW2 3155  -0.007   0.308   3.030  1.3786  3.4186  0.3120
  789SOL     MW 3156   0.013   0.226   3.050 -0.8078  0.9703 -0.4001
  790SOL     OW 3157   3.076   1.067   2.439 -0.4801 -0.0881  0.0667
  790SOL    HW1 3158   3.036   0.994   2.497 -1.4411  0.1956  1.2837
  790SOL    HW2 3159   3.013   1.065   2.365 -2.0122 -2.6294  0.2526
  790SOL     MW 3160   3.063   1.057   2.437 -0.8090 -0.3859  0.2518
  791SOL     OW 3161   2.624   0.378   2.613  0.4614 -0.0286 -0.2116
  791SOL    HW1 3162   2.542   0.412   2.656 -2.1028 -2.6777 -0.4414
  791SOL    HW2 3163   2.695   0.409   2.667  1.8283 -0.3386  1.3332
  791SOL     MW 3164   2.623   0.387   2.626  0.3034 -0.4190 -0.0381
  792SOL     OW 3165   2.328   0.317   2.395 -0.3815 -0.3574 -0.5315
  792SOL    HW1 3166   2.251   0.375   2.397  1.2177  2.2512 -0.3913
  792SOL    HW2 3167   2.331   0.272   2.479  2.2494 -1.7115  0.4481
  792SOL     MW 3168   2.318   0.319   2.407  0.1766 -0.1919 -0.3838
  793SOL     OW 3169   1.796   1.073   1.959 -0.4627 -0.8542 -0.0997
  793SOL    HW1 3170   1.768   1.115   1.877 -1.5675 -1.3047  1.2069
  793SOL    HW2 3171   1.878   1.024   1.936  2.5125 -5.1132 -1.9730
  793SOL     MW 3172   1.803   1.072   1.945 -0.2159 -1.4756 -0.1745
  794SOL     OW 3173   1.423   2.254   0.179 -0.0645  0.4406  0.1913
  794SOL    HW1 3174   1.449   2.308   0.101 -0.8896  1.4719 -0.0456
  794SOL    HW2 3175   1.480   2.278   0.247  1.0743 -0.6483 -1.6121
  794SOL     MW 3176   1.434   2.264   0.178 -0.0231  0.4330 -0.0779
  795SOL     OW 3177   2.341   0.956   2.636  0.0364 -0.7388  0.0063
  795SOL    HW1 3178   2.329   1.045   2.679 -0.8453 -0.3052 -1.8100
  795SOL    HW2 3179   2.388   0.967   2.555  1.2648  0.0111  2.1170
  795SOL     MW 3180   2.346   0.969   2.631  0.0822 -0.5826  0.0451
  796SOL     OW 3181   0.278   0.574   2.744  0.1837  0.0551  0.2786
  796SOL    HW1 3182   0.243   0.654   2.778 -2.0246 -2.2989  2.8361
  796SOL    HW2 3183   0.229   0.552   2.661  1.1492  0.3201 -1.0407
  796SOL     MW 3184   0.267   0.581   2.737  0.0197 -0.2205  0.4420
  797SOL     OW 3185   2.595   0.126   2.541 -0.2955  0.1031 -0.2119
  797SOL    HW1 3186   2.604   0.213   2.578 -1.1764  3.6140  1.9973
  797SOL    HW2 3187   2.620   0.123   2.442  0.0597 -0.5204  0.9456
  797SOL     MW 3188   2.599   0.137   2.533 -0.3648  0.4841  0.2323
  798SOL     OW 3189   2.318   0.095   2.232  0.5224 -0.5914 -0.1116
  798SOL    HW1 3190   2.356   0.140   2.308  0.0337 -0.6216 -0.9664
  798SOL    HW2 3191   2.394   0.063   2.175  1.1692 -3.7381  1.9253
  798SOL     MW 3192   2.333   0.097   2.234  0.5433 -1.0105  0.0443
  799SOL     OW 3193   2.516   2.977   0.008 -0.0460  0.2117  0.5758
  799SOL    HW1 3194   2.463   2.909  -0.037  0.6281 -0.2971  0.2603
  799SOL    HW2 3195   2.454   3.046   0.014 -0.9201  0.1655  0.0693
  799SOL     MW 3196   2.501   2.977   0.003 -0.0724  0.1385  0.4673
  800SOL     OW 3197   1.923   0.032   1.725 -0.3474 -0.8587 -0.0620
  800SOL    HW1 3198   1.844  -0.023   1.724 -1.1203 -0.4922  0.4867
  800SOL    HW2 3199   1.965   0.042   1.809  0.3140  1.7783  1.1678
  800SOL     MW 3200   1.918   0.026   1.736 -0.3621 -0.4624  0.1726
  801SOL     OW 3201   2.782   1.303   2.566  0.1124 -0.2268 -0.5394
  801SOL    HW1 3202   2.768   1.212   2.582  0.2686 -1.5454  1.0877
  801SOL    HW2 3203   2.881   1.304   2.564 -1.4093 -1.3230 -1.3928
  801SOL     MW 3204   2.793   1.291   2.568 -0.0678 -0.5454 -0.4373
  802SOL     OW 3205   2.620   1.528   2.767  0.2348  0.7809  0.1127
  802SOL    HW1 3206   2.625   1.432   2.755  0.7994 -0.8938 -0.5939
  802SOL    HW2 3207   2.688   1.542   2.832 -2.3093  1.2354 -0.1259
  802SOL     MW 3208   2.629   1.517   2.774 -0.0264  0.6199 -0.0120
  803SOL     OW 3209   2.246   1.372   1.959  0.1403  0.1291  0.2013
  803SOL    HW1 3210   2.254   1.345   2.054 -1.0241  3.5872  0.8379
  803SOL    HW2 3211   2.277   1.295   1.909  3.0041 -1.0689  1.8125
  803SOL     MW 3212   2.252   1.358   1.965  0.3645  0.4273  0.4979
  804SOL     OW 3213   2.308   0.049   3.074  0.4083  0.1679  0.0294
  804SOL    HW1 3214   2.233   0.101   3.106 -2.7061  0.7903 -0.6048
  804SOL    HW2 3215   2.348   0.101   3.006 -0.1904  2.9037  0.3443
  804SOL     MW 3216   2.303   0.062   3.069 -0.0816  0.6110 -0.0127
  805SOL     OW 3217   2.673   1.034   2.570  0.5831 -0.2118 -0.0187
  805SOL    HW1 3218   2.625   1.030   2.488  0.3187  0.4413 -0.3492
  805SOL    HW2 3219   2.755   0.978   2.566 -0.5780 -1.2017 -1.7226
  805SOL     MW 3220   2.678   1.026   2.559  0.3950 -0.2562 -0.2871
  806SOL     OW 3221   2.514   0.495   2.237  0.2015 -0.0900  0.5644
  806SOL    HW1 3222   2.467   0.429   2.292  1.9096 -1.1768  1.3883
  806SOL    HW2 3223   2.483   0.492   2.145 -0.4411  2.7357  2.0203
  806SOL     MW 3224   2.504   0.486   2.232  0.3421  0.1395  0.8652
  807SOL     OW 3225   0.054   1.114   2.065  0.4187  0.6679  0.3760
  807SOL    HW1 3226   0.106   1.038   2.066 -0.3720  0.8681  0.5799
  807SOL    HW2 3227  -0.036   1.099   2.105 -2.4185 -0.2959  1.0389
  807SOL     MW 3228   0.049   1.102   2.071 -0.0600  0.5671  0.4904
  808SOL     OW 3229   2.553   3.084   2.759 -0.2035 -0.5466 -0.2571
  808SOL    HW1 3230   2.531   2.994   2.741  0.3119 -1.5164 -0.4113
  808SOL    HW2 3231   2.566   3.128   2.674  0.7256  0.4032  0.7801
  808SOL     MW 3232   2.552   3.078   2.745 -0.0129 -0.5492 -0.1406
  809SOL     OW 3233   2.551   1.303   2.413 -0.2804  0.5488  0.2375
  809SOL    HW1 3234   2.595   1.301   2.502  0.9920 -1.4929  0.3295
  809SOL    HW2 3235   2.627   1.289   2.359 -1.9754  3.4749  0.3768
  809SOL     MW 3236   2.566   1.301   2.418 -0.3362  0.6655  0.2680
  810SOL     OW 3237   2.212   1.286   2.259  0.0113  0.0187  0.0338
  810SOL    HW1 3238   2.285   1.221   2.275  1.6391  0.9837 -0.9607
  810SOL    HW2 3239   2.145   1.235   2.209 -2.3100 -1.3048 -1.3040
  810SOL     MW 3240   2.213   1.271   2.255 -0.0802 -0.0286 -0.2739
  811SOL     OW 3241   1.555   0.150   2.314 -0.3606  0.6066 -0.1659
  811SOL    HW1 3242   1.623   0.095   2.351  2.3231 -2.2697  0.6271
  811SOL    HW2 3243   1.545   0.120   2.223  1.2723 -2.0501  0.3108
  811SOL     MW 3244   1.562   0.139   2.307  0.2090 -0.1234  0.0016
  812SOL     OW 3245   1.498   2.877   2.121 -0.2779 -0.2976  0.2920
  812SOL    HW1 3246   1.589   2.844   2.084  2.5615 -1.8551  1.8056
  812SOL    HW2 3247   1.498   2.838   2.209 -2.9969  0.2005  2.4150
  812SOL     MW 3248   1.510   2.867   2.128 -0.2620 -0.4374  0.7718
  813SOL     OW 3249   1.874   0.745   2.160  0.0176  0.2398  0.5361
  813SOL    HW1 3250   1.824   0.662   2.189 -0.4323  0.6199  0.0052
  813SOL    HW2 3251   1.899   0.789   2.245  0.4813  2.2452  0.2098
  813SOL     MW 3252   1.871   0.740   2.175  0.0194  0.5546  0.4230
  814SOL     OW 3253   2.747   1.270   1.598  0.3854 -0.1240  0.1031
  814SOL    HW1 3254   2.664   1.235   1.626 -0.5314  0.6060 -1.3577
  814SOL    HW2 3255   2.772   1.222   1.512  1.4402  0.6684  1.2397
  814SOL     MW 3256   2.739   1.259   1.591  0.4036  0.0768  0.0603
  815SOL     OW 3257   2.474   1.666   2.325 -0.4096 -0.3622  0.4475
  815SOL    HW1 3258   2.389   1.622   2.351  2.0856 -1.0670 -1.8851
  815SOL    HW2 3259   2.550   1.606   2.346  1.3257 -2.7443  2.5249
  815SOL     MW 3260   2.473   1.652   2.331  0.1486 -0.7695  0.4138
  816SOL     OW 3261   0.780   0.673   2.750  0.0503  0.2533 -0.6826
  816SOL    HW1 3262   0.780   0.597   2.811  1.0609  0.2281  2.7570
  816SOL    HW2 3263   0.688   0.694   2.745  0.5425 -2.1795 -3.1409
  816SOL     MW 3264   0.768   0.666   2.757  0.2486 -0.0710 -0.5531
  817SOL     OW 3265   3.060   1.267   1.492 -0.7729  0.0785 -0.2576
  817SOL    HW1 3266   3.137   1.278   1.546 -1.2781  0.3205  0.4704
  817SOL    HW2 3267   3.050   1.350   1.453  0.3078  0.5718 -1.0271
  817SOL     MW 3268   3.069   1.280   1.494 -0.6970  0.1755 -0.2631
  818SOL     OW 3269   1.923   1.054   2.678  0.0720  0.3860 -0.0016
  818SOL    HW1 3270   1.921   1.092   2.589  2.1809 -0.5451 -1.9965
  818SOL    HW2 3271   1.975   0.973   2.673 -1.8564 -0.4724  0.7643
  818SOL     MW 3272   1.930   1.049   2.666  0.0958  0.1499 -0.1638
  819SOL     OW 3273   1.892   0.201   2.466 -0.2938  0.8336 -0.0751
  819SOL    HW1 3274   1.814   0.252   2.498  3.3329 -0.0985  3.3311
  819SOL    HW2 3275   1.955   0.194   2.546 -0.3244  0.9314  2.1037
  819SOL     MW 3276   1.890   0.207   2.480  0.1806  0.7236  0.6618
  820SOL     OW 3277   2.445   1.719   2.612 -0.1345  0.6924  0.3563
  820SOL    HW1 3278   2.501   1.657   2.658 -2.0714  0.3531 -1.8818
  820SOL    HW2 3279   2.494   1.726   2.529  0.1732 -3.5876  0.2058
  820SOL     MW 3280   2.459   1.712   2.607 -0.3494  0.0829  0.0412
  821SOL     OW 3281   2.581   1.341   1.963  0.5331 -0.1246  0.0375
  821SOL    HW1 3282   2.632   1.392   1.895 -0.6505 -2.8899 -0.6479
  821SOL    HW2 3283   2.505   1.399   1.989 -0.6522 -2.2188  1.4224
  821SOL     MW 3284   2.578   1.355   1.957  0.2205 -0.7657  0.1298
  822SOL     OW 3285   2.756   2.600   1.491  0.2590  0.3314  0.3927
  822SOL    HW1 3286   2.800   2.644   1.558  0.6073  1.3451 -1.3322
  822SOL    HW2 3287   2.715   2.671   1.435 -0.1106 -0.0096 -0.1964
  822SOL     MW 3288   2.756   2.615   1.493  0.2562  0.4202  0.0874
  823SOL     OW 3289   2.270   0.506   1.762 -0.1409 -0.0948  0.6215
  823SOL    HW1 3290   2.327   0.450   1.707 -1.1209 -1.9528  0.5174
  823SOL    HW2 3291   2.196   0.445   1.771 -0.7975  2.3508 -0.1090
  823SOL     MW 3292   2.268   0.491   1.756 -0.3569 -0.0173  0.5114
  824SOL     OW 3293   2.082   1.386   2.576 -0.3089 -0.3623  0.0596
  824SOL    HW1 3294   2.147   1.414   2.509  0.4570 -1.1855 -0.1387
  824SOL    HW2 3295   2.050   1.468   2.613  1.3161 -1.8249 -1.9156
  824SOL     MW 3296   2.087   1.400   2.572  0.0066 -0.6639 -0.2272
  825SOL     OW 3297   1.983   2.565   0.267  0.7836  0.6732 -0.1038
  825SOL    HW1 3298   1.944   2.508   0.332  2.0123 -0.8671 -0.6074
  825SOL    HW2 3299   2.043   2.516   0.206  2.3331 -0.2088  0.6173
  825SOL     MW 3300   1.986   2.551   0.267  1.1501  0.3536 -0.0751
  826SOL     OW 3301   1.896   2.425   0.501 -0.1863  0.3953  0.6893
  826SOL    HW1 3302   1.850   2.341   0.517 -2.5800 -0.9426  2.8550
  826SOL    HW2 3303   1.843   2.487   0.553 -1.0633  2.1908 -1.0491
  826SOL     MW 3304   1.883   2.422   0.510 -0.6178  0.4557  0.7457
  827SOL     OW 3305   1.934   2.194   0.965 -0.4474 -0.6350 -0.9247
  827SOL    HW1 3306   1.908   2.260   0.897  2.2608 -0.4487  0.7335
  827SOL    HW2 3307   1.874   2.114   0.974 -1.9277 -1.8136  1.1555
  827SOL     MW 3308   1.923   2.192   0.957 -0.2854 -0.7659 -0.4315
  828SOL     OW 3309   0.054   2.643   0.582 -0.8119  0.7553  0.4612
  828SOL    HW1 3310   0.140   2.650   0.543 -0.9967  1.5883  1.0669
  828SOL    HW2 3311   0.004   2.692   0.519  1.0609  1.9628 -2.2940
  828SOL     MW 3312   0.059   2.650   0.568 -0.5892  1.0245  0.1776
  829SOL     OW 3313   2.938   2.942   1.252  0.1008  0.2552  0.4769
  829SOL    HW1 3314   2.861   2.936   1.190 -0.1973 -3.6760  0.2636
  829SOL    HW2 3315   2.984   2.857   1.246 -0.2731 -0.6496  2.0425
  829SOL     MW 3316   2.934   2.930   1.243  0.0121 -0.3828  0.6553
  830SOL     OW 3317   2.506   2.858   2.016  0.1759 -0.4328  0.1608
  830SOL    HW1 3318   2.420   2.839   1.978  0.8286  0.7071  2.1492
  830SOL    HW2 3319   2.566   2.834   1.946  0.0512  0.7409  3.2957
  830SOL     MW 3320   2.503   2.852   2.001  0.2456 -0.1276  0.8368
  831SOL     OW 3321   2.416   2.390   1.312 -0.0644 -0.2173 -0.0479
  831SOL    HW1 3322   2.371   2.327   1.367  2.9644 -0.3067  2.3086
  831SOL    HW2 3323   2.502   2.343   1.299  0.6452 -0.1577  2.0552
  831SOL     MW 3324   2.421   2.375   1.318  0.4289 -0.2212  0.5405
  832SOL     OW 3325   2.437   2.201   1.907  0.0205  0.3643  0.1134
  832SOL    HW1 3326   2.469   2.295   1.930  1.5299 -0.1796 -0.9718
  832SOL    HW2 3327   2.520   2.152   1.882 -0.3617  0.3386 -2.4346
  832SOL     MW 3328   2.452   2.207   1.907  0.1692  0.2891 -0.3659
  833SOL     OW 3329   1.795   2.461   0.879  0.1673 -0.5569 -0.0360
  833SOL    HW1 3330   1.705   2.416   0.875 -0.5941  0.7713 -4.7345
  833SOL    HW2 3331   1.803   2.517   0.968  2.7165  0.2444  1.2311
  833SOL     MW 3332   1.784   2.462   0.890  0.4032 -0.2759 -0.4887
  834SOL     OW 3333   2.243   2.485   0.612  0.0520 -0.0568 -0.2392
  834SOL    HW1 3334   2.175   2.434   0.650 -0.3005  1.8344  1.9411
  834SOL    HW2 3335   2.258   2.444   0.520  0.8453 -1.8150 -3.6095
  834SOL     MW 3336   2.236   2.473   0.605  0.1102 -0.0393 -0.3962
  835SOL     OW 3337   1.731   2.615   0.655 -0.0534 -0.4445  0.0300
  835SOL    HW1 3338   1.744   2.565   0.736  0.3894  0.1294  0.4031
  835SOL    HW2 3339   1.813   2.675   0.668  1.9924  1.4325  0.2192
  835SOL     MW 3340   1.744   2.616   0.667  0.2749 -0.1212  0.1042
  836SOL     OW 3341   1.959   2.188   1.622  0.4573 -0.5317  0.0200
  836SOL    HW1 3342   2.030   2.201   1.682  0.7228 -2.2426 -0.4868
  836SOL    HW2 3343   1.881   2.231   1.654  2.5405  1.2036 -0.1030
  836SOL     MW 3344   1.958   2.195   1.634  0.7672 -0.5285 -0.0631
  837SOL     OW 3345   2.118   0.208   0.690 -0.1664 -0.1438  0.1326
  837SOL    HW1 3346   2.035   0.243   0.667  1.0831  0.4756  2.8498
  837SOL    HW2 3347   2.144   0.147   0.617 -1.3094 -1.5036  1.8717
  837SOL     MW 3348   2.111   0.205   0.677 -0.1524 -0.2415  0.7206
  838SOL     OW 3349   2.938   2.133   0.884  0.1865 -0.3625  0.3556
  838SOL    HW1 3350   2.864   2.110   0.946  0.3362  0.7044 -0.9474
  838SOL    HW2 3351   2.960   2.052   0.835  1.1428 -0.0821  0.5012
  838SOL     MW 3352   2.931   2.119   0.886  0.3325 -0.1847  0.2029
  839SOL     OW 3353   1.546   2.349   0.923  0.1447 -0.1215  0.1810
  839SOL    HW1 3354   1.524   2.444   0.919 -2.5810  0.4022 -1.4914
  839SOL    HW2 3355   1.562   2.335   1.013 -0.0242  1.1917 -0.4639
  839SOL     MW 3356   1.545   2.360   0.934 -0.2372  0.1209 -0.1247
  840SOL     OW 3357   2.319   2.097   2.397  0.2236  0.4208 -0.1821
  840SOL    HW1 3358   2.292   2.186   2.367  0.3297 -0.3373  2.2201
  840SOL    HW2 3359   2.391   2.127   2.451 -0.6130 -2.2387 -0.0241
  840SOL     MW 3360   2.325   2.113   2.400  0.1272 -0.0301  0.1557
  841SOL     OW 3361   2.173   2.425   0.118  0.3855 -0.1043  0.6956
  841SOL    HW1 3362   2.216   2.451   0.038 -1.2146  0.2721 -2.5638
  841SOL    HW2 3363   2.118   2.355   0.083 -2.8012  1.5384  1.5026
  841SOL     MW 3364   2.172   2.419   0.103 -0.2461  0.1621  0.3720
  842SOL     OW 3365   2.667   1.980   1.570 -0.1913  0.6151 -0.5104
  842SOL    HW1 3366   2.646   1.886   1.577 -1.7571 -1.1886  0.6705
  842SOL    HW2 3367   2.609   2.001   1.505  0.7892 -0.1347 -0.0664
  842SOL     MW 3368   2.657   1.970   1.563 -0.2685  0.2782 -0.2960
  843SOL     OW 3369   2.667   2.768   1.798  0.1967  0.0919 -0.0372
  843SOL    HW1 3370   2.761   2.745   1.793  0.5490 -0.2959  4.0225
  843SOL    HW2 3371   2.613   2.699   1.766  3.3919  1.9481 -1.1946
  843SOL     MW 3372   2.672   2.756   1.793  0.6647  0.2856  0.3457
  844SOL     OW 3373   2.639   2.245   1.226  0.0660 -0.2502  0.0852
  844SOL    HW1 3374   2.650   2.284   1.134  2.5014  0.9136 -2.0141
  844SOL    HW2 3375   2.697   2.288   1.292  2.5250  0.6598  1.0123
  844SOL     MW 3376   2.648   2.256   1.223  0.7118  0.0234 -0.0695
  845SOL     OW 3377   2.872   2.476   0.289  0.4281  0.2090 -0.0273
  845SOL    HW1 3378   2.836   2.390   0.306 -0.5711  0.1301 -2.2030
  845SOL    HW2 3379   2.919   2.494   0.371  2.8222 -1.0626  1.1019
  845SOL     MW 3380   2.874   2.467   0.302  0.6122  0.0308 -0.1654
  846SOL     OW 3381   1.522   2.855   0.782 -0.0283  0.2832  0.3863
  846SOL    HW1 3382   1.613   2.887   0.805  1.5803  2.1124 -0.3820
  846SOL    HW2 3383   1.455   2.915   0.812 -1.2911 -2.3238 -0.1025
  846SOL     MW 3384   1.525   2.867   0.789  0.0173  0.1806  0.2205
  847SOL     OW 3385   2.494   1.918   0.147 -0.0727  0.4923 -0.3093
  847SOL    HW1 3386   2.545   1.848   0.179 -0.2255  2.2884 -2.4029
  847SOL    HW2 3387   2.452   1.877   0.074 -0.4177  1.3537  3.6299
  847SOL     MW 3388   2.495   1.903   0.142 -0.1384  0.8429 -0.0658
  848SOL     OW 3389   2.520   2.055   1.367  0.2130 -0.1019 -0.3531
  848SOL    HW1 3390   2.583   2.117   1.320  3.2132 -0.9103  0.0746
  848SOL    HW2 3391   2.471   2.014   1.295  1.8407 -1.5744  0.5691
  848SOL     MW 3392   2.522   2.058   1.351  0.8236 -0.4028 -0.1750
  849SOL     OW 3393   1.958   2.755   0.740  0.8183 -0.4838 -0.0088
  849SOL    HW1 3394   1.968   2.702   0.820  1.2066  0.1013 -1.8962
  849SOL    HW2 3395   2.043   2.770   0.700 -0.4026  0.3668  2.1251
  849SOL     MW 3396   1.971   2.750   0.745  0.7085 -0.2944  0.0237
  850SOL     OW 3397   2.225   1.930   1.680  0.0385  0.2116  0.1749
  850SOL    HW1 3398   2.139   1.899   1.641 -0.1640 -3.6170 -1.1155
  850SOL    HW2 3399   2.220   2.015   1.721  0.3565 -0.1410  1.0032
  850SOL     MW 3400   2.213   1.937   1.680  0.0538 -0.3400  0.1139
  851SOL     OW 3401   2.325   2.377   0.353  0.2577 -0.7435  0.1626
  851SOL    HW1 3402   2.274   2.394   0.272  1.6541  1.2781  0.2960
  851SOL    HW2 3403   2.403   2.445   0.344  1.5281  0.3841  0.6979
  851SOL     MW 3404   2.329   2.388   0.341  0.6096 -0.3280  0.2508
  852SOL     OW 3405   2.342   2.091   0.302 -0.4798  0.5027 -0.1427
  852SOL    HW1 3406   2.369   2.181   0.308  3.3441 -1.6217 -2.7724
  852SOL    HW2 3407   2.421   2.056   0.261  1.5657 -2.1796 -0.2190
  852SOL     MW 3408   2.356   2.098   0.298  0.2946 -0.1315 -0.4998
  853SOL     OW 3409   2.497   2.457   1.990  0.2740  0.3043 -0.2793
  853SOL    HW1 3410   2.508   2.490   1.898  0.2635 -0.6869  1.5103
  853SOL    HW2 3411   2.583   2.416   2.011 -1.4449 -1.0449 -3.0847
  853SOL     MW 3412   2.510   2.456   1.981  0.0458 -0.0045 -0.4133
  854SOL     OW 3413   2.826   2.353   0.756 -0.0477 -0.4303  0.3386
  854SOL    HW1 3414   2.759   2.314   0.700 -2.0912  0.2430 -0.9353
  854SOL    HW2 3415   2.876   2.278   0.795  2.0626  1.0036 -1.5875
  854SOL     MW 3416   2.824   2.338   0.754 -0.0389 -0.1523 -0.0836
  855SOL     OW 3417   2.695   2.227   0.375 -0.8741  0.2394  0.1277
  855SOL    HW1 3418   2.676   2.273   0.458  3.3502 -0.2374 -2.7338
  855SOL    HW2 3419   2.771   2.173   0.400 -1.0861 -0.6911  0.8162
  855SOL     MW 3420   2.702   2.226   0.389 -0.3447  0.0537 -0.1590
  856SOL     OW 3421   2.168   1.943   0.160 -0.2746 -0.3724  0.5268
  856SOL    HW1 3422   2.080   1.923   0.196 -0.5685  0.4885 -0.0159
  856SOL    HW2 3423   2.218   2.001   0.219 -2.3489  1.2220 -0.2813
  856SOL     MW 3424   2.163   1.948   0.173 -0.5871 -0.0485  0.3486
  857SOL     OW 3425   2.519   1.998   0.507 -0.6718  0.8118  0.1556
  857SOL    HW1 3426   2.538   2.061   0.441  0.1801 -2.9312  2.8362
  857SOL    HW2 3427   2.442   1.958   0.476 -1.9146 -2.4975  1.9760
  857SOL     MW 3428   2.511   2.001   0.494 -0.7234 -0.1187  0.7495
  858SOL     OW 3429   2.898   2.650   1.747 -0.1747  0.2885  0.0679
  858SOL    HW1 3430   2.984   2.675   1.776 -0.5690 -1.5519 -0.4278
  858SOL    HW2 3431   2.887   2.558   1.776 -2.2268  0.0895  0.4500
  858SOL     MW 3432   2.908   2.641   1.754 -0.4975  0.0194  0.0529
  859SOL     OW 3433   2.084   2.562   0.965 -0.3570 -0.0240 -0.0254
  859SOL    HW1 3434   2.065   2.494   1.028 -1.3444  1.5666  1.2321
  859SOL    HW2 3435   2.144   2.519   0.904 -0.9219  0.0010  1.4261
  859SOL     MW 3436   2.089   2.547   0.965 -0.5618  0.1891  0.3320
  860SOL     OW 3437   2.681   2.615   0.146 -0.4041  0.1153 -0.2450
  860SOL    HW1 3438   2.752   2.575   0.206 -0.4456 -1.5510  1.5746
  860SOL    HW2 3439   2.724   2.691   0.099  0.8452  1.8496 -3.9635
  860SOL     MW 3440   2.696   2.620   0.148 -0.2447  0.1243 -0.4956
  861SOL     OW 3441   1.584   2.129   1.162  0.5004 -0.2344 -0.6529
  861SOL    HW1 3442   1.604   2.187   1.232  1.2366  0.1705 -1.7033
  861SOL    HW2 3443   1.510   2.082   1.198  0.5539  0.8107  0.3422
  861SOL     MW 3444   1.577   2.130   1.176  0.6046 -0.0431 -0.6602
  862SOL     OW 3445   2.466   1.791   1.546  0.0737  0.2929  0.4434
  862SOL    HW1 3446   2.419   1.838   1.620  0.1685 -2.2822  0.9569
  862SOL    HW2 3447   2.425   1.833   1.467  2.6406  1.9635 -0.9384
  862SOL     MW 3448   2.454   1.803   1.545  0.4249  0.1736  0.3288
  863SOL     OW 3449   2.992   1.822   1.051 -0.5828 -0.5247  0.1526
  863SOL    HW1 3450   3.077   1.807   1.096 -2.7700  0.8540 -0.4199
  863SOL    HW2 3451   2.944   1.886   1.106 -0.8872  0.6848 -1.4009
  863SOL     MW 3452   2.997   1.828   1.064 -0.9115 -0.1832 -0.1279
  864SOL     OW 3453   3.059   1.861   0.796 -0.0706 -0.6837 -0.6973
  864SOL    HW1 3454   3.019   1.847   0.886  0.4654  1.6932 -0.9279
  864SOL    HW2 3455   3.043   1.786   0.732  0.4303 -1.4296 -2.6986
  864SOL     MW 3456   3.052   1.850   0.799  0.0662 -0.4685 -0.9918
  865SOL     OW 3457   2.579   2.151   0.027 -0.4275  0.2266  0.2794
  865SOL    HW1 3458   2.608   2.066   0.065 -2.7259  0.0705 -0.4559
  865SOL    HW2 3459   2.507   2.127  -0.031 -1.0714  0.2625 -0.6109
  865SOL     MW 3460   2.574   2.136   0.025 -0.8157  0.2107  0.0650
  866SOL     OW 3461   2.675   2.376   1.676 -0.0308  0.2984 -0.1368
  866SOL    HW1 3462   2.632   2.310   1.728 -2.4327  1.4958 -1.0571
  866SOL    HW2 3463   2.711   2.336   1.599 -0.2406  2.4558  1.5182
  866SOL     MW 3464   2.674   2.362   1.673 -0.3754  0.7410 -0.0399
  867SOL     OW 3465   0.037   2.737   1.816 -0.0610  0.3717 -0.1382
  867SOL    HW1 3466   0.066   2.737   1.912 -0.9983 -0.3608 -0.5130
  867SOL    HW2 3467   0.023   2.828   1.795  0.0980 -1.8004  0.4192
  867SOL     MW 3468   0.039   2.749   1.826 -0.1637 -0.0115 -0.1141
  868SOL     OW 3469   2.857   2.599   0.555 -0.3997  0.3833 -0.1994
  868SOL    HW1 3470   2.779   2.540   0.561 -0.4683 -0.4178 -1.8747
  868SOL    HW2 3471   2.827   2.674   0.501  0.2400 -0.5248  0.1155
  868SOL     MW 3472   2.843   2.601   0.549 -0.3243  0.1578 -0.3789
  869SOL     OW 3473   2.073   2.356   1.146  0.1776 -0.0949  0.3378
  869SOL    HW1 3474   2.166   2.335   1.119  0.9230 -0.6333  1.1165
  869SOL    HW2 3475   2.011   2.309   1.085  2.2020  0.3883 -1.7144
  869SOL     MW 3476   2.077   2.347   1.134  0.5431 -0.1022  0.1697
  870SOL     OW 3477   2.179   0.028   0.460  0.5438  0.1059 -0.5094
  870SOL    HW1 3478   2.251   0.061   0.410 -1.7545  0.2205  1.9405
  870SOL    HW2 3479   2.185  -0.067   0.475  0.2243  1.1498  0.9900
  870SOL     MW 3480   2.189   0.020   0.455  0.1984  0.2587  0.0117
  871SOL     OW 3481   2.526   2.121   0.947  0.0585 -0.8063  0.2067
  871SOL    HW1 3482   2.467   2.063   0.901 -1.6022 -3.3762  1.0717
  871SOL    HW2 3483   2.464   2.178   0.995  0.6955  0.1409 -0.2498
  871SOL     MW 3484   2.510   2.121   0.947 -0.0766 -1.0204  0.2606
  872SOL     OW 3485   1.977   2.537   1.525 -0.1228 -0.6098 -0.0234
  872SOL    HW1 3486   1.941   2.544   1.612  1.7508  1.9246 -0.4824
  872SOL    HW2 3487   1.948   2.451   1.485  1.1028 -2.5865  0.6257
  872SOL     MW 3488   1.969   2.527   1.531  0.2861 -0.5362  0.0017
  873SOL     OW 3489   2.932   2.032   1.943  0.0616 -0.2744 -0.0893
  873SOL    HW1 3490   2.934   2.097   2.015  1.9134  2.6265 -2.1749
  873SOL    HW2 3491   3.012   2.040   1.897 -0.9640 -0.2699  3.6850
  873SOL     MW 3492   2.943   2.042   1.947  0.1706  0.1089  0.1335
  874SOL     OW 3493   2.275   1.491   2.418  0.1970 -0.2623  0.7423
  874SOL    HW1 3494   2.260   1.434   2.333 -1.3034 -1.6169 -1.3810
  874SOL    HW2 3495   2.344   1.449   2.471  1.4346  2.4750 -0.6889
  874SOL     MW 3496   2.282   1.478   2.414  0.1623 -0.0799  0.2733
  875SOL     OW 3497   2.350   2.327   1.051 -0.3048  0.1652 -0.5472
  875SOL    HW1 3498   2.377   2.395   0.985  1.0420  0.4574 -0.3874
  875SOL    HW2 3499   2.384   2.348   1.138  1.9897  0.9805 -0.5885
  875SOL     MW 3500   2.358   2.339   1.054  0.1756  0.3113 -0.5316
  876SOL     OW 3501   3.043   2.248   1.270  0.0754 -0.4129  0.5620
  876SOL    HW1 3502   3.075   2.294   1.192  0.8084 -3.9010  0.9210
  876SOL    HW2 3503   3.098   2.272   1.346  2.4495  1.9889 -0.9896
  876SOL     MW 3504   3.054   2.258   1.270  0.4853 -0.5562  0.4046
  877SOL     OW 3505   3.034   2.721   0.327  0.5027 -0.2478  0.7361
  877SOL    HW1 3506   3.101   2.788   0.321 -0.4209 -1.0630  0.0658
  877SOL    HW2 3507   3.042   2.672   0.242 -0.8589  0.2298 -0.4335
  877SOL     MW 3508   3.044   2.723   0.315  0.2012 -0.2923  0.4934
  878SOL     OW 3509   2.376   1.844   1.280 -0.8723  0.1011 -0.5276
  878SOL    HW1 3510   2.309   1.786   1.308  4.0242 -1.5744  1.2157
  878SOL    HW2 3511   2.441   1.783   1.257 -2.2862  0.5871  0.0314
  878SOL     MW 3512   2.376   1.828   1.281 -0.4128 -0.0558 -0.2238
  879SOL     OW 3513   2.673   2.402   1.010  0.1163  0.4443  0.0285
  879SOL    HW1 3514   2.732   2.477   1.022  0.7332  1.6953 -0.6097
  879SOL    HW2 3515   2.701   2.372   0.929  0.1788 -1.7425 -0.2031
  879SOL     MW 3516   2.684   2.408   1.001  0.2059  0.3208 -0.0863
  880SOL     OW 3517   2.621   2.176   0.687  0.3349 -0.1038 -0.7771
  880SOL    HW1 3518   2.580   2.174   0.779 -1.4287 -0.5841  1.7719
  880SOL    HW2 3519   2.599   2.099   0.634 -0.5137 -3.6793  2.2909
  880SOL     MW 3520   2.613   2.166   0.692 -0.0097 -0.6389 -0.0360
  881SOL     OW 3521   2.919   2.731   0.771 -0.6025 -0.0055 -0.5006
  881SOL    HW1 3522   2.876   2.681   0.690 -0.6693 -1.4352 -1.3520
  881SOL    HW2 3523   3.013   2.727   0.758  0.8370 -1.2816  2.7554
  881SOL     MW 3524   2.926   2.724   0.758 -0.4214 -0.3625 -0.1833
  882SOL     OW 3525   2.226   2.864   1.938 -0.1923 -0.2148  0.2289
  882SOL    HW1 3526   2.197   2.852   1.846 -0.2919  2.1622  1.0956
  882SOL    HW2 3527   2.159   2.824   1.985 -0.1176  0.7383  0.5324
  882SOL     MW 3528   2.213   2.857   1.932 -0.1956  0.2246  0.3833
  883SOL     OW 3529   2.307   2.181   1.481 -0.5625 -0.1944 -0.3311
  883SOL    HW1 3530   2.386   2.130   1.450  0.0963  2.4854  0.9885
  883SOL    HW2 3531   2.243   2.174   1.409 -1.4344 -0.5427  1.8718
  883SOL     MW 3532   2.309   2.173   1.467 -0.5906  0.1132  0.1337
  884SOL     OW 3533   1.958   1.793   1.059 -0.6727  0.0657 -0.4694
  884SOL    HW1 3534   1.892   1.855   1.028  2.3743  2.6687 -0.0705
  884SOL    HW2 3535   2.050   1.838   1.058  1.7676  2.1257  1.5679
  884SOL     MW 3536   1.961   1.807   1.055  0.0513  0.6809 -0.1480
  885SOL     OW 3537   2.885   2.388   1.858  0.2224 -0.1812  0.6713
  885SOL    HW1 3538   2.978   2.358   1.844 -1.4847 -1.9489  1.6290
  885SOL    HW2 3539   2.828   2.344   1.792 -0.1869 -0.8912  2.9465
  885SOL     MW 3540   2.890   2.378   1.847 -0.0568 -0.5081  1.0979
  886SOL     OW 3541   2.801   2.350   1.405  0.2141 -0.5207  0.4297
  886SOL    HW1 3542   2.891   2.343   1.368  0.7494 -0.7719 -2.4416
  886SOL    HW2 3543   2.780   2.440   1.435 -0.6479 -0.2342  0.6918
  886SOL     MW 3544   2.810   2.361   1.404  0.1710 -0.5160  0.0854
  887SOL     OW 3545   2.238   2.635   1.505 -0.0136 -0.1848  0.3043
  887SOL    HW1 3546   2.276   2.668   1.424 -0.0764  3.8995  0.1220
  887SOL    HW2 3547   2.155   2.590   1.481  1.8593 -3.2451 -1.3274
  887SOL     MW 3548   2.232   2.633   1.492  0.2252 -0.0497  0.0650
  888SOL     OW 3549   1.874   2.016   1.397 -0.0232  0.1978 -0.3209
  888SOL    HW1 3550   1.958   1.996   1.353  0.3324  1.0593 -0.4489
  888SOL    HW2 3551   1.900   2.048   1.482 -2.4469 -0.2453 -0.7942
  888SOL     MW 3552   1.888   2.017   1.403 -0.2961  0.2530 -0.4002
  889SOL     OW 3553   2.288   2.022   2.079  0.2724  0.2159  0.1538
  889SOL    HW1 3554   2.356   1.996   2.137 -0.3555 -4.0438 -2.0655
  889SOL    HW2 3555   2.324   2.084   2.018 -0.3271 -1.8183 -1.1185
  889SOL     MW 3556   2.302   2.026   2.078  0.1104 -0.6145 -0.3069
  890SOL     OW 3557   0.086   2.346   0.105 -0.5845 -0.3700  0.1902
  890SOL    HW1 3558   0.046   2.434   0.106 -0.3429 -0.4757  1.3964
  890SOL    HW2 3559   0.080   2.304   0.193  1.5209 -0.5565  1.4072
  890SOL     MW 3560   0.080   2.352   0.116 -0.2749 -0.4085  0.5099
  891SOL     OW 3561   3.018   1.990   1.263 -0.0999 -0.0987  0.2645
  891SOL    HW1 3562   3.114   1.979   1.273  1.0657  1.0558  1.6612
  891SOL    HW2 3563   3.021   2.093   1.257  0.7322  0.3092 -0.8633
  891SOL     MW 3564   3.031   2.002   1.264  0.1637  0.1074  0.3000
  892SOL     OW 3565   2.438   2.331   2.781  0.6033 -0.4505 -0.6527
  892SOL    HW1 3566   2.413   2.251   2.828 -3.8397  0.7068  0.2608
  892SOL    HW2 3567   2.526   2.358   2.793 -1.9322 -0.2752 -2.1766
  892SOL     MW 3568   2.446   2.324   2.789 -0.3175 -0.2747 -0.7332
  893SOL     OW 3569   1.638   2.368   1.300  0.1621  0.0752 -0.6120
  893SOL    HW1 3570   1.580   2.429   1.352  0.9647  0.3964  1.3333
  893SOL    HW2 3571   1.725   2.379   1.337 -0.0518 -0.2480  0.6075
  893SOL     MW 3572   1.641   2.377   1.311  0.2398  0.0749 -0.1944
  894SOL     OW 3573   2.795   1.881   0.494 -0.5336 -0.1357 -0.0939
  894SOL    HW1 3574   2.707   1.890   0.509  2.1834 -1.6711 -0.2561
  894SOL    HW2 3575   2.806   1.853   0.405  1.9684  1.3203  3.2513
  894SOL     MW 3576   2.785   1.879   0.484  0.1550 -0.1462  0.3260
  895SOL     OW 3577   2.140   2.113   1.263 -0.0449  0.3864 -0.3107
  895SOL    HW1 3578   2.107   2.191   1.210 -0.6341  1.3107  2.0835
  895SOL    HW2 3579   2.167   2.043   1.196 -0.5220  0.1719  2.7324
  895SOL     MW 3580   2.139   2.114   1.247 -0.1856  0.4801  0.4067
  896SOL     OW 3581   2.201   2.790   1.071  0.6245  0.1376 -0.1763
  896SOL    HW1 3582   2.256   2.771   1.156  5.1911  1.1239 -0.1097
  896SOL    HW2 3583   2.154   2.700   1.050 -3.2620 -3.1966  1.6904
  896SOL     MW 3584   2.202   2.775   1.080  0.7142 -0.1722  0.0788
  897SOL     OW 3585   2.992   2.917   0.115 -0.4889  0.4763 -0.5557
  897SOL    HW1 3586   3.074   2.886   0.066 -2.4363 -0.0555  0.3805
  897SOL    HW2 3587   2.922   2.865   0.083  1.8895  0.7402  3.0933
  897SOL     MW 3588   2.993   2.906   0.105 -0.4320  0.4410  0.0493
  898SOL     OW 3589   2.080   0.162   1.438 -0.4696 -0.0832  0.0385
  898SOL    HW1 3590   2.086   0.066   1.456 -0.8514  2.0570  0.3577
  898SOL    HW2 3591   2.092   0.177   1.342 -1.5538 -1.4417 -1.1441
  898SOL     MW 3592   2.083   0.151   1.428 -0.6630  0.0199 -0.0754
  899SOL     OW 3593   2.904   2.961   0.625 -0.1787 -0.1338 -0.1653
  899SOL    HW1 3594   2.901   2.877   0.674  2.2824  0.1684 -0.3819
  899SOL    HW2 3595   2.832   3.018   0.646  2.6793  1.1814  1.4093
  899SOL     MW 3596   2.894   2.958   0.634  0.5231  0.0796  0.0139
  900SOL     OW 3597   0.114   2.405   1.083 -0.0503 -0.1560  0.0433
  900SOL    HW1 3598   0.071   2.489   1.069 -0.0513 -2.5273 -0.4820
  900SOL    HW2 3599   0.113   2.353   1.002  1.6051  1.2214 -0.0015
  900SOL     MW 3600   0.108   2.409   1.071  0.1680 -0.2871 -0.0319
  901SOL     OW 3601   1.738   2.905   1.730 -0.1904  0.3526  0.1799
  901SOL    HW1 3602   1.816   2.843   1.731  2.3568  0.7152  0.9039
  901SOL    HW2 3603   1.690   2.886   1.648 -0.5747 -1.1435  1.6959
  901SOL     MW 3604   1.742   2.894   1.719  0.0949  0.2030  0.4755
  902SOL     OW 3605   2.673   2.112   1.819 -0.0008 -0.2634  0.3299
  902SOL    HW1 3606   2.672   2.061   1.743 -0.7490  2.5272  0.2065
  902SOL    HW2 3607   2.755   2.091   1.860 -0.4209  0.1647  0.8267
  902SOL     MW 3608   2.683   2.102   1.815 -0.1550  0.1613  0.3791
  903SOL     OW 3609   1.577   2.781   0.516 -0.7022  0.2075  0.2827
  903SOL    HW1 3610   1.626   2.706   0.570 -0.1028 -1.8753  1.2209
  903SOL    HW2 3611   1.539   2.823   0.597  2.0664  1.3045 -0.8025
  903SOL     MW 3612   1.578   2.776   0.534 -0.2578  0.0774  0.2633
  904SOL     OW 3613   2.484   2.564   1.727 -0.2667  0.8573  0.0261
  904SOL    HW1 3614   2.413   2.545   1.662 -1.3176  2.7659  2.8242
  904SOL    HW2 3615   2.568   2.535   1.690  0.4596 -0.7367 -0.9036
  904SOL     MW 3616   2.486   2.558   1.713 -0.3095  0.8988  0.2726
  905SOL     OW 3617   2.333   2.576   2.177 -0.3705  0.1656 -0.0401
  905SOL    HW1 3618   2.411   2.552   2.123  0.1326 -1.8556 -0.3906
  905SOL    HW2 3619   2.292   2.493   2.207 -0.6278  0.6402  3.1276
  905SOL     MW 3620   2.338   2.562   2.174 -0.3381 -0.0385  0.3316
  906SOL     OW 3621   2.420   2.523   0.876 -0.0273  0.2322  0.1901
  906SOL    HW1 3622   2.516   2.514   0.896 -2.0795 -1.1303 -0.2421
  906SOL    HW2 3623   2.405   2.621   0.849  1.4369 -0.2523  0.3814
  906SOL     MW 3624   2.431   2.535   0.875 -0.1049 -0.0115  0.1583
  907SOL     OW 3625   2.620   2.808   1.345  0.5875 -0.6070 -0.1052
  907SOL    HW1 3626   2.631   2.888   1.393 -0.2293 -1.9687  1.5510
  907SOL    HW2 3627   2.665   2.827   1.263  0.5625  0.9508 -1.8890
  907SOL     MW 3628   2.627   2.821   1.341  0.4765 -0.5811 -0.1220
  908SOL     OW 3629   2.756   2.381   3.083  0.4112 -0.0822 -0.3138
  908SOL    HW1 3630   2.689   2.308   3.101 -4.2544 -1.2051  0.0877
  908SOL    HW2 3631   2.716   2.461   3.122 -0.8915 -1.1372  0.1999
  908SOL     MW 3632   2.742   2.382   3.091 -0.3763 -0.3695 -0.1931
  909SOL     OW 3633   1.722   0.145   1.125 -0.0044  0.1416 -0.1295
  909SOL    HW1 3634   1.680   0.214   1.074 -0.9048 -0.3043 -0.2056
  909SOL    HW2 3635   1.772   0.191   1.184 -2.2677 -0.6433 -2.9502
  909SOL     MW 3636   1.723   0.160   1.126 -0.4218 -0.0208 -0.5117
  910SOL     OW 3637   2.364   1.789   0.428  0.3689 -1.1760  0.4803
  910SOL    HW1 3638   2.308   1.711   0.435  0.1014  0.5046  0.2205
  910SOL    HW2 3639   2.321   1.837   0.357 -0.1361  1.7583  2.1552
  910SOL     MW 3640   2.351   1.785   0.419  0.2670 -0.5671  0.6670
  911SOL     OW 3641   2.223   2.242   1.723  0.2468 -0.0009 -0.3469
  911SOL    HW1 3642   2.293   2.234   1.788 -0.2502 -2.6376 -0.3913
  911SOL    HW2 3643   2.273   2.233   1.640  1.8536 -0.2661  0.1135
  911SOL     MW 3644   2.239   2.240   1.721  0.3932 -0.3838 -0.2920
  912SOL     OW 3645   2.935   1.932   1.515 -0.2512  0.0270 -0.0534
  912SOL    HW1 3646   2.946   1.981   1.428  0.7990  0.4885 -0.9161
  912SOL    HW2 3647   2.845   1.952   1.550 -2.4084  0.7150 -1.7275
  912SOL     MW 3648   2.925   1.941   1.508 -0.3972  0.1787 -0.3881
  913SOL     OW 3649   2.602   3.026   0.368  0.7614 -0.1002 -0.1296
  913SOL    HW1 3650   2.670   2.963   0.391  1.5359  0.4397 -0.7543
  913SOL    HW2 3651   2.544   2.957   0.342  2.8358  2.3669  0.1106
  913SOL     MW 3652   2.603   3.009   0.368  1.1373  0.2966 -0.1803
  914SOL     OW 3653   2.690   1.745   3.048 -0.3859  0.1450 -0.1612
  914SOL    HW1 3654   2.723   1.816   2.986 -0.2268  1.5034  1.3623
  914SOL    HW2 3655   2.590   1.751   3.049 -3.0909 -1.7130  3.7198
  914SOL     MW 3656   2.681   1.755   3.040 -0.7218  0.0791  0.5519
  915SOL     OW 3657   1.705   0.227   0.220 -0.0550  0.1200 -0.2827
  915SOL    HW1 3658   1.778   0.185   0.261 -0.4656  0.4549  0.0667
  915SOL    HW2 3659   1.629   0.164   0.227  2.0373  0.5719 -1.0123
  915SOL     MW 3660   1.704   0.213   0.227  0.1669  0.2238 -0.3329
  916SOL     OW 3661   1.813   2.091   1.937 -0.2061  0.5735 -0.0466
  916SOL    HW1 3662   1.852   2.182   1.944  0.8350  0.5723 -1.3498
  916SOL    HW2 3663   1.830   2.062   1.848 -0.5731 -1.2015 -0.0010
  916SOL     MW 3664   1.820   2.099   1.926 -0.1171  0.3391 -0.2126
  917SOL     OW 3665   2.528   2.183   2.544  0.5670  0.0579 -0.1348
  917SOL    HW1 3666   2.467   2.232   2.601 -0.3031  0.1991 -1.8529
  917SOL    HW2 3667   2.589   2.241   2.506 -0.5503 -1.0456 -0.2479
  917SOL     MW 3668   2.528   2.197   2.547  0.3048 -0.0691 -0.3764
  918SOL     OW 3669   1.987   1.622   2.722  0.4252  0.3925  0.3475
  918SOL    HW1 3670   1.910   1.620   2.665  2.1193  0.1180  1.0607
  918SOL    HW2 3671   2.044   1.687   2.683  1.2445 -0.0362  1.4863
  918SOL     MW 3672   1.984   1.630   2.709  0.7568  0.2997  0.5918
  919SOL     OW 3673   0.036   2.312   2.269 -0.4367 -0.2746 -0.0015
  919SOL    HW1 3674  -0.028   2.243   2.242 -1.3600 -0.7265 -1.7499
  919SOL    HW2 3675   0.091   2.338   2.194 -0.1955  0.0153 -0.8843
  919SOL     MW 3676   0.035   2.306   2.256 -0.5267 -0.2960 -0.3486
  920SOL     OW 3677   2.743   2.826   3.098 -0.2756  0.2225 -0.4541
  920SOL    HW1 3678   2.665   2.887   3.097  1.3904  3.5812  1.3316
  920SOL    HW2 3679   2.738   2.764   3.020 -1.4644  0.8935 -0.5543
  920SOL     MW 3680   2.732   2.826   3.088 -0.2127  0.7542 -0.2317
  921SOL     OW 3681   2.430   2.573   2.601 -0.0067 -0.0841 -0.0213
  921SOL    HW1 3682   2.510   2.590   2.556 -1.7521  2.0452  1.3019
  921SOL    HW2 3683   2.453   2.502   2.663 -0.3932 -2.1696  3.4041
  921SOL     MW 3684   2.443   2.566   2.603 -0.2879 -0.0783  0.6052
  922SOL     OW 3685   2.027   2.843   0.328  0.2132 -0.3962  0.2123
  922SOL    HW1 3686   1.994   2.864   0.240  0.3249 -0.6367  0.4868
  922SOL    HW2 3687   2.026   2.746   0.330  2.6919  1.2832  0.6247
  922SOL     MW 3688   2.022   2.833   0.317  0.5550 -0.2064  0.3029
  923SOL     OW 3689   2.158   2.842   1.672 -0.2496 -0.3991  0.0291
  923SOL    HW1 3690   2.208   2.785   1.614 -0.1165  1.9366  0.5881
  923SOL    HW2 3691   2.116   2.903   1.614  0.4142  0.0868  1.2778
  923SOL     MW 3692   2.159   2.842   1.657 -0.1445 -0.0268  0.2676
  924SOL     OW 3693   1.211   2.607   2.492 -0.1490  0.4471 -0.0204
  924SOL    HW1 3694   1.271   2.678   2.503 -3.1562  1.2984 -0.7868
  924SOL    HW2 3695   1.210   2.557   2.572 -2.5772 -1.3034  0.6367
  924SOL     MW 3696   1.219   2.610   2.504 -0.8661  0.3284 -0.0348
  925SOL     OW 3697   2.963   0.217   2.609 -0.0674 -0.3543  0.7914
  925SOL    HW1 3698   2.948   0.246   2.510 -1.1105  0.8818 -0.1714
  925SOL    HW2 3699   2.940   0.295   2.656  1.1643  1.6878 -0.8131
  925SOL     MW 3700   2.958   0.231   2.602 -0.0425  0.0782  0.4527
  926SOL     OW 3701   2.758   2.386   2.086 -0.0023  0.1904 -0.1334
  926SOL    HW1 3702   2.813   2.450   2.137 -2.5756  3.7292  0.0155
  926SOL    HW2 3703   2.806   2.367   2.000 -0.9610 -2.5140 -3.6614
  926SOL     MW 3704   2.772   2.392   2.082 -0.4683  0.3005 -0.5792
  927SOL     OW 3705   2.365   0.139   0.309 -0.2521 -0.1712 -0.1968
  927SOL    HW1 3706   2.462   0.146   0.304  3.0587  0.9613  0.9971
  927SOL    HW2 3707   2.335   0.133   0.218 -1.4780  1.5046 -1.4226
  927SOL     MW 3708   2.374   0.139   0.296  0.0230  0.1993 -0.2010
  928SOL     OW 3709   2.101   2.434   1.934  0.0971 -0.0978  0.2111
  928SOL    HW1 3710   2.151   2.490   1.883 -2.5044 -1.5179  0.7326
  928SOL    HW2 3711   2.148   2.352   1.935  1.6252  0.1942 -2.3836
  928SOL     MW 3712   2.114   2.430   1.928 -0.0445 -0.2467 -0.0625
  929SOL     OW 3713   2.716   2.379   2.447  0.3334 -0.0465  0.1826
  929SOL    HW1 3714   2.773   2.382   2.366 -1.5334  3.5109 -1.8685
  929SOL    HW2 3715   2.767   2.372   2.525  0.1672 -0.8340 -0.0150
  929SOL     MW 3716   2.730   2.379   2.447  0.0652  0.3190 -0.1141
  930SOL     OW 3717   2.010   2.832   2.692  0.0373  0.5417 -0.2055
  930SOL    HW1 3718   2.036   2.759   2.748  1.2135  0.8987  1.2181
  930SOL    HW2 3719   2.086   2.902   2.704 -0.3220  1.1578  1.8669
  930SOL     MW 3720   2.023   2.832   2.701  0.1451  0.6701  0.2558
  931SOL     OW 3721   3.015   2.776   2.299 -0.0098  0.1033 -0.3649
  931SOL    HW1 3722   3.075   2.781   2.369 -1.9123  4.0772  0.8398
  931SOL    HW2 3723   3.067   2.757   2.220 -2.6105 -2.1013  2.1672
  931SOL     MW 3724   3.030   2.774   2.298 -0.6039  0.3367  0.1282
  932SOL     OW 3725   2.828   1.993   2.555  0.3254 -0.2977  0.1892
  932SOL    HW1 3726   2.920   2.026   2.552  0.6520  1.1149 -0.4970
  932SOL    HW2 3727   2.803   1.975   2.462 -2.1478 -1.6260  2.0212
  932SOL     MW 3728   2.837   1.995   2.542  0.0421 -0.2866  0.3404
  933SOL     OW 3729   2.012   2.882   2.293 -0.3479  0.0110  0.4750
  933SOL    HW1 3730   2.091   2.929   2.308 -0.5198  0.2319  0.3670
  933SOL    HW2 3731   1.953   2.941   2.243  2.7295  0.1620 -1.3119
  933SOL     MW 3732   2.015   2.896   2.288  0.0354  0.0600  0.2250
  934SOL     OW 3733   2.009   2.673   2.478  0.4327 -0.5324 -0.4657
  934SOL    HW1 3734   2.014   2.729   2.559 -2.7191  0.0724  0.7792
  934SOL    HW2 3735   2.004   2.737   2.406  1.9210 -0.5379 -0.5251
  934SOL     MW 3736   2.009   2.689   2.479  0.2132 -0.4533 -0.3093
  935SOL     OW 3737   2.664   1.583   1.804  0.0761 -0.2792  0.5589
  935SOL    HW1 3738   2.747   1.577   1.745  2.7570 -1.1898 -1.8168
  935SOL    HW2 3739   2.600   1.566   1.733 -1.1995  0.1439  1.4417
  935SOL     MW 3740   2.667   1.580   1.787  0.2615 -0.3435  0.3619
  936SOL     OW 3741   2.972   2.228   3.068  0.5174 -0.6935  0.1039
  936SOL    HW1 3742   3.041   2.272   3.124  0.0442  1.3626  0.6451
  936SOL    HW2 3743   2.883   2.270   3.082 -2.2662  0.2987  0.1858
  936SOL     MW 3744   2.969   2.239   3.077  0.0877 -0.2913  0.1861
  937SOL     OW 3745   1.948   2.121   2.641 -0.1741  0.5852 -0.8689
  937SOL    HW1 3746   2.032   2.082   2.679  0.0212  0.2679 -0.4353
  937SOL    HW2 3747   1.935   2.084   2.550 -2.2879 -2.2096 -1.0980
  937SOL     MW 3748   1.958   2.111   2.634 -0.4272  0.1746 -0.8419
  938SOL     OW 3749   2.239   1.796   1.939 -0.3601 -0.6744  0.8225
  938SOL    HW1 3750   2.226   1.839   1.853 -0.2143 -0.1308 -0.2438
  938SOL    HW2 3751   2.248   1.866   2.002  1.4237  0.8877 -0.0032
  938SOL     MW 3752   2.238   1.811   1.936 -0.1055 -0.3966  0.5729
  939SOL     OW 3753   2.752   1.973   2.303 -0.3294 -0.6060 -0.0244
  939SOL    HW1 3754   2.787   1.904   2.251  0.7625  0.9827  2.3009
  939SOL    HW2 3755   2.657   1.958   2.306 -2.3923  3.1502  1.1919
  939SOL     MW 3756   2.744   1.962   2.297 -0.4575  0.0992  0.4429
  940SOL     OW 3757   2.318   0.187   2.635 -0.3370 -0.0496  0.4394
  940SOL    HW1 3758   2.338   0.094   2.638 -1.4427 -3.5500 -0.5601
  940SOL    HW2 3759   2.346   0.220   2.716 -1.0598 -0.2990  0.0134
  940SOL     MW 3760   2.324   0.179   2.646 -0.5782 -0.5443  0.2513
  941SOL     OW 3761   0.184   2.369   2.047 -0.5408  0.4056 -0.4292
  941SOL    HW1 3762   0.273   2.341   2.063  0.1855 -0.2525  1.2736
  941SOL    HW2 3763   0.143   2.334   1.966  1.5120 -0.5332  1.6289
  941SOL     MW 3764   0.191   2.361   2.038 -0.1741  0.1949  0.0670
  942SOL     OW 3765   2.889   2.167   2.172 -0.1853 -0.3085  0.3612
  942SOL    HW1 3766   2.840   2.249   2.150 -2.0491 -0.8444  0.2409
  942SOL    HW2 3767   2.832   2.115   2.224  0.5356  0.9190 -1.3568
  942SOL     MW 3768   2.875   2.171   2.176 -0.3361 -0.2172  0.1187
  943SOL     OW 3769   0.315   2.104   2.262  0.3688 -0.1567  0.4783
  943SOL    HW1 3770   0.276   2.132   2.348  0.0548  0.2915  2.0649
  943SOL    HW2 3771   0.406   2.078   2.283 -0.5523 -1.3721  0.2843
  943SOL     MW 3772   0.322   2.104   2.276  0.2058 -0.2579  0.6620
  944SOL     OW 3773   2.085   2.711   2.093 -0.1520 -0.1132 -0.0828
  944SOL    HW1 3774   2.147   2.661   2.148  2.4658  2.5726  0.2724
  944SOL    HW2 3775   2.050   2.783   2.160 -3.2335 -2.6428  1.7903
  944SOL     MW 3776   2.089   2.714   2.109 -0.2132 -0.0926  0.2112
  945SOL     OW 3777   2.656   2.671   2.871 -0.3259  0.3996  0.1224
  945SOL    HW1 3778   2.657   2.578   2.846 -2.0288  2.0746  2.1053
  945SOL    HW2 3779   2.601   2.716   2.807 -1.4669  1.0490  2.1142
  945SOL     MW 3780   2.649   2.665   2.860 -0.7011  0.7063  0.6468
  946SOL     OW 3781   2.438   2.806   2.306 -0.2008  0.3012 -0.3982
  946SOL    HW1 3782   2.480   2.812   2.216 -0.1068  1.7779 -1.2267
  946SOL    HW2 3783   2.387   2.731   2.290  3.2088  2.6145  1.0466
  946SOL     MW 3784   2.437   2.797   2.292  0.2615  0.8012 -0.3169
  947SOL     OW 3785   1.936   0.093   0.322 -0.7198 -0.5569 -0.0715
  947SOL    HW1 3786   1.912   0.005   0.315 -1.4523  3.4098  4.4791
  947SOL    HW2 3787   1.999   0.083   0.393  0.4424 -2.1294 -1.5190
  947SOL     MW 3788   1.941   0.080   0.330 -0.6631 -0.2410  0.3379
  948SOL     OW 3789   1.818   3.012   2.681  0.3163  1.1024 -0.0820
  948SOL    HW1 3790   1.890   2.946   2.693  1.7391  3.2193  0.2275
  948SOL    HW2 3791   1.810   3.023   2.587  0.7800  0.5006 -1.6180
  948SOL     MW 3792   1.826   3.005   2.670  0.5652  1.3023 -0.2438
  949SOL     OW 3793   2.492   1.927   2.286 -0.6672  0.0896 -0.3713
  949SOL    HW1 3794   2.481   1.831   2.317 -0.4750  1.3121 -1.2976
  949SOL    HW2 3795   2.427   1.976   2.337 -1.4131  0.2262  2.2855
  949SOL     MW 3796   2.482   1.921   2.297 -0.7403  0.2689 -0.1430
  950SOL     OW 3797   2.266   2.512   2.951  0.3825  0.0434  0.2979
  950SOL    HW1 3798   2.326   2.468   2.889  0.2842 -0.5701 -0.8600
  950SOL    HW2 3799   2.182   2.516   2.911  1.6240 -1.5116 -0.8557
  950SOL     MW 3800   2.263   2.507   2.937  0.5334 -0.2427 -0.0071
  951SOL     OW 3801   2.998   2.099   2.825 -0.4203 -0.6454 -0.0662
  951SOL    HW1 3802   2.982   2.137   2.918  0.5124  4.1747  0.7354
  951SOL    HW2 3803   3.090   2.105   2.814 -0.8503  0.3006  1.6064
  951SOL     MW 3804   3.008   2.105   2.835 -0.3540  0.1154  0.2603
  952SOL     OW 3805   3.056   1.660   2.153 -0.4379 -0.3838 -0.2525
  952SOL    HW1 3806   2.980   1.704   2.112 -0.9705  0.2757  0.2489
  952SOL    HW2 3807   3.124   1.726   2.163 -2.3236  0.6348  0.0312
  952SOL     MW 3808   3.055   1.675   2.149 -0.7569 -0.1624 -0.1489
  953SOL     OW 3809   1.917   1.786   2.907 -0.0541 -0.6358  0.0036
  953SOL    HW1 3810   1.862   1.732   2.961  0.3009 -0.0761 -0.2567
  953SOL    HW2 3811   1.951   1.713   2.850  0.1318 -0.7488  0.9334
  953SOL     MW 3812   1.914   1.769   2.907  0.0173 -0.5769  0.0920
  954SOL     OW 3813   2.387   2.087   2.886 -0.0213 -0.4419  0.1001
  954SOL    HW1 3814   2.307   2.065   2.841  2.8604  2.6091 -1.0868
  954SOL    HW2 3815   2.448   2.043   2.821 -0.1733  0.0827 -1.0605
  954SOL     MW 3816   2.384   2.078   2.872  0.3388  0.0299 -0.2096
  955SOL     OW 3817   1.533   1.574   2.593 -0.7395 -0.2677 -0.2611
  955SOL    HW1 3818   1.480   1.579   2.520 -1.6315  1.4292 -0.2131
  955SOL    HW2 3819   1.617   1.620   2.564 -0.0103 -1.8900 -0.0123
  955SOL     MW 3820   1.537   1.581   2.580 -0.7610 -0.2578 -0.2220
  956SOL     OW 3821   2.683   2.410   2.822 -0.3604  0.2142  0.2668
  956SOL    HW1 3822   2.726   2.410   2.906 -0.0058  0.1959  0.4823
  956SOL    HW2 3823   2.752   2.379   2.764 -0.9861 -0.9647 -1.0516
  956SOL     MW 3824   2.698   2.406   2.826 -0.3962  0.0562  0.1213
  957SOL     OW 3825   2.361   2.843   0.360 -0.0755 -0.1366 -0.5636
  957SOL    HW1 3826   2.276   2.843   0.325 -0.4397  0.2797  0.9960
  957SOL    HW2 3827   2.331   2.834   0.453 -0.7090 -0.9869  0.2533
  957SOL     MW 3828   2.345   2.842   0.368 -0.2071 -0.1939 -0.2501
  958SOL     OW 3829   2.034   2.596   2.836 -0.2102  0.4727 -0.2094
  958SOL    HW1 3830   2.009   2.527   2.767  0.5840 -0.8289 -1.1944
  958SOL    HW2 3831   1.962   2.614   2.894 -0.1419 -0.9713  1.4106
  958SOL     MW 3832   2.021   2.589   2.834 -0.0964  0.1105 -0.1256
  959SOL     OW 3833   2.480   2.595   0.341  0.3021 -0.2514  0.2849
  959SOL    HW1 3834   2.542   2.619   0.273 -1.1286  2.2981 -2.2981
  959SOL    HW2 3835   2.429   2.677   0.354 -0.6193  2.7520 -1.9028
  959SOL     MW 3836   2.481   2.609   0.334 -0.0082  0.4813 -0.3446
  960SOL     OW 3837   1.931   2.252   2.217 -0.4802 -0.3452  0.1637
  960SOL    HW1 3838   1.961   2.165   2.209 -1.7172  0.4777  0.8165
  960SOL    HW2 3839   1.889   2.264   2.304 -2.9672 -0.3583  0.9317
  960SOL     MW 3840   1.929   2.242   2.228 -0.9715 -0.2383  0.3512
  961SOL     OW 3841   2.198   2.327   2.256  0.2217 -0.0864  0.3889
  961SOL    HW1 3842   2.105   2.304   2.227 -0.0817 -2.9675  0.2290
  961SOL    HW2 3843   2.185   2.384   2.341 -2.1157 -1.0818 -1.2761
  961SOL     MW 3844   2.184   2.331   2.264 -0.1267 -0.5979  0.1481
  962SOL     OW 3845   2.152   2.032   2.793 -0.5508 -0.2093 -0.1961
  962SOL    HW1 3846   2.100   2.035   2.870 -1.2410  2.8727 -3.4267
  962SOL    HW2 3847   2.156   1.937   2.763 -1.8411 -2.7479 -0.3158
  962SOL     MW 3848   2.146   2.020   2.799 -0.8121 -0.1376 -0.6381
  963SOL     OW 3849   1.832   2.584   2.068  0.2830 -0.5755 -0.4141
  963SOL    HW1 3850   1.929   2.608   2.081 -0.4726 -1.2166  0.7018
  963SOL    HW2 3851   1.830   2.501   2.020  0.6050  0.1797 -0.5175
  963SOL     MW 3852   1.844   2.576   2.063  0.2258 -0.5605 -0.2805
  964SOL     OW 3853   1.777   1.925   2.723  0.3199 -0.3128  0.1740
  964SOL    HW1 3854   1.815   1.997   2.678 -0.5721  2.8143 -3.4619
  964SOL    HW2 3855   1.834   1.897   2.798 -2.9102 -0.2293  1.8025
  964SOL     MW 3856   1.789   1.931   2.727 -0.2240  0.1108 -0.0908
  965SOL     OW 3857   2.220   2.769   0.617 -0.2607 -0.2845 -0.2272
  965SOL    HW1 3858   2.231   2.676   0.605 -2.2800  1.2428  0.0098
  965SOL    HW2 3859   2.269   2.785   0.700 -0.3759  2.6365  0.8140
  965SOL     MW 3860   2.228   2.759   0.626 -0.5423  0.3024 -0.0586
  966SOL     OW 3861   2.683   2.675   2.475  0.2186 -0.0868 -0.3205
  966SOL    HW1 3862   2.634   2.737   2.424  1.2784 -0.7731 -1.7316
  966SOL    HW2 3863   2.679   2.593   2.425  1.8525  1.7979 -1.7363
  966SOL     MW 3864   2.676   2.672   2.462  0.5740  0.0714 -0.6935
  967SOL     OW 3865   2.780   3.045   2.900  0.4653  0.6208  0.1494
  967SOL    HW1 3866   2.755   2.971   2.957 -0.0443  0.2712  1.8428
  967SOL    HW2 3867   2.700   3.069   2.847 -1.3322  2.3513  0.3307
  967SOL     MW 3868   2.766   3.039   2.901  0.1609  0.8030  0.3967
  968SOL     OW 3869   3.027   2.632   2.914 -0.6558 -0.4587 -0.4854
  968SOL    HW1 3870   2.958   2.654   2.845  0.2479  1.6713  2.6937
  968SOL    HW2 3871   3.053   2.541   2.887 -1.3451  0.2519 -0.6174
  968SOL     MW 3872   3.021   2.623   2.902 -0.6275 -0.0839 -0.0834
  969SOL     OW 3873   1.577   2.126   1.638  0.8762 -0.6964 -0.4958
  969SOL    HW1 3874   1.649   2.060   1.627 -0.7999  0.0902  1.2901
  969SOL    HW2 3875   1.541   2.128   1.729  0.9845 -1.0451 -0.4713
  969SOL     MW 3876   1.582   2.117   1.649  0.6694 -0.6386 -0.2570
  970SOL     OW 3877   1.671   1.770   1.844  0.5412  0.5681  0.7066
  970SOL    HW1 3878   1.727   1.736   1.910  3.2734  1.2603 -0.4125
  970SOL    HW2 3879   1.584   1.759   1.876 -1.0975  0.4579 -1.3339
  970SOL     MW 3880   1.667   1.764   1.857  0.6855  0.6449  0.2897
  971SOL     OW 3881   1.763   3.086   2.400  0.0743 -0.3453  0.0080
  971SOL    HW1 3882   1.763   3.073   2.306  1.7022  0.3514  3.0252
  971SOL    HW2 3883   1.821   3.159   2.416 -0.4621 -1.4066 -0.0404
  971SOL     MW 3884   1.771   3.094   2.390  0.2183 -0.3934  0.3997
  972SOL     OW 3885   0.266   2.865   2.476  0.0627 -0.8661  0.3783
  972SOL    HW1 3886   0.315   2.781   2.474 -1.9754 -2.4627  0.9873
  972SOL    HW2 3887   0.337   2.929   2.466  2.5587 -0.9850  0.8558
  972SOL     MW 3888   0.282   2.862   2.474  0.1231 -1.0924  0.5216
  973SOL     OW 3889   2.524   0.019   2.071 -0.2220  0.2416  0.5128
  973SOL    HW1 3890   2.507  -0.070   2.047 -1.8861 -0.8382  0.5743
  973SOL    HW2 3891   2.546   0.066   1.988  1.8856 -0.7034  0.2191
  973SOL     MW 3892   2.525   0.014   2.057 -0.1635 -0.0255  0.4821
  974SOL     OW 3893   2.056   0.209   2.690  0.0436 -0.2652  0.1070
  974SOL    HW1 3894   2.145   0.195   2.661  0.0891  0.7742 -0.1904
  974SOL    HW2 3895   2.043   0.157   2.771 -2.9623  0.0937 -1.4983
  974SOL     MW 3896   2.066   0.201   2.697 -0.3470 -0.0807 -0.1441
  975SOL     OW 3897   2.204   2.473   2.491  0.0954  0.8186 -0.3227
  975SOL    HW1 3898   2.288   2.511   2.528  3.6658 -1.4802 -2.1007
  975SOL    HW2 3899   2.139   2.547   2.478  2.7720  2.1268 -1.5892
  975SOL     MW 3900   2.206   2.488   2.494  0.9197  0.6879 -0.7244
  976SOL     OW 3901   0.205   0.349   1.736 -0.3990  0.1451 -0.0684
  976SOL    HW1 3902   0.282   0.292   1.767 -0.8986  0.1803  1.4530
  976SOL    HW2 3903   0.149   0.291   1.674  1.4560  1.4590  3.3171
  976SOL     MW 3904   0.208   0.334   1.732 -0.2201  0.3231  0.5790
  977SOL     OW 3905   1.741   2.613   2.517  0.3941  0.3368  0.4386
  977SOL    HW1 3906   1.723   2.530   2.476  1.0315  0.6627 -0.5735
  977SOL    HW2 3907   1.830   2.625   2.492 -1.4144 -1.6632  0.4308
  977SOL     MW 3908   1.750   2.603   2.508  0.2396  0.1159  0.3041
   3.10000   3.10000   3.10000
