977 TIP4P/2005f water molecules t=   0.87000 step= 870
 3908
    1SOL     OW    1   0.335   0.821   3.054  0.7630 -0.6605  0.3927
    1SOL    HW1    2   0.277   0.827   2.973 -2.7301 -0.3675  1.2252
    1SOL    HW2    3   0.297   0.745   3.090  3.2461  1.4166  1.0413
    1SOL     MW    4   0.323   0.812   3.048  0.6297 -0.3478  0.5881
    2SOL     OW    5   0.314   2.991   1.175  0.2237  0.2644 -0.5965
    2SOL    HW1    6   0.370   3.064   1.153  2.2433  0.1572  0.3806
    2SOL    HW2    7   0.225   3.034   1.164 -1.0145  0.5750  0.8216
    2SOL     MW    8   0.310   3.006   1.170  0.3268  0.2912 -0.2805
    3SOL     OW    9   2.641   0.425   0.957  0.3430 -0.2570 -0.5785
    3SOL    HW1   10   2.688   0.506   0.921  0.2906 -1.2882  0.8388
    3SOL    HW2   11   2.600   0.466   1.039 -1.8700  4.7754  1.6247
    3SOL     MW   12   2.642   0.441   0.963  0.0441  0.2709 -0.1008
    4SOL     OW   13   2.998   1.695   0.625  0.2649 -0.4698 -0.1383
    4SOL    HW1   14   2.936   1.761   0.582 -3.1347 -0.2291 -0.8638
    4SOL    HW2   15   3.060   1.659   0.561  1.7354 -3.1610 -0.0612
    4SOL     MW   16   2.998   1.699   0.611  0.0104 -0.7931 -0.2239
    5SOL     OW   17   1.745   1.505   0.515 -0.4378  0.2198 -0.3781
    5SOL    HW1   18   1.787   1.462   0.592 -1.4100 -2.4317  1.5293
    5SOL    HW2   19   1.651   1.504   0.520  2.7075 -0.6352 -0.0897
    5SOL     MW   20   1.738   1.499   0.526 -0.1511 -0.2428 -0.0884
    6SOL     OW   21   0.828   1.458   0.605 -0.7550 -0.1758 -0.0244
    6SOL    HW1   22   0.733   1.468   0.625 -0.7891 -0.2041  0.7255
    6SOL    HW2   23   0.858   1.373   0.641  3.2061 -2.4233 -0.0860
    6SOL     MW   24   0.819   1.448   0.613 -0.2369 -0.4761  0.0664
    7SOL     OW   25   2.048   1.151   3.063  0.1414 -0.5025 -0.3339
    7SOL    HW1   26   2.113   1.196   3.009  1.7623 -0.5022 -2.3855
    7SOL    HW2   27   2.084   1.163   3.153 -0.3845  0.2795 -0.9680
    7SOL     MW   28   2.061   1.158   3.068  0.2859 -0.3993 -0.6882
    8SOL     OW   29   0.917   1.390   1.030 -0.2451  0.7701  0.1925
    8SOL    HW1   30   1.009   1.380   1.041  1.7062 -1.6253 -0.6620
    8SOL    HW2   31   0.876   1.346   1.102 -2.6305 -0.3468 -0.2922
    8SOL     MW   32   0.924   1.383   1.041 -0.3024  0.3067  0.0158
    9SOL     OW   33   1.019   0.518   1.394 -0.2749 -0.1412  0.0474
    9SOL    HW1   34   0.959   0.455   1.348  2.0934 -2.1881 -3.5214
    9SOL    HW2   35   1.059   0.472   1.472  0.3109  0.0082  3.4798
    9SOL     MW   36   1.017   0.504   1.398  0.1149 -0.3916  0.0294
   10SOL     OW   37   0.279   0.784   0.467 -0.5237 -0.5650 -0.4065
   10SOL    HW1   38   0.369   0.792   0.425  0.4509  0.7259  1.5178
   10SOL    HW2   39   0.284   0.843   0.543  2.9108 -0.5368 -0.6097
   10SOL     MW   40   0.291   0.793   0.472  0.0581 -0.3909 -0.1794
   11SOL     OW   41   0.803   1.128   1.729 -0.2391  0.0206 -0.0692
   11SOL    HW1   42   0.856   1.089   1.802  1.5756  1.0612  1.1806
   11SOL    HW2   43   0.831   1.089   1.640  4.6337  0.9081 -0.0962
   11SOL     MW   44   0.814   1.118   1.727  0.6433  0.2750  0.0921
   12SOL     OW   45   0.035   1.082   0.879  0.6759  0.4255 -0.0856
   12SOL    HW1   46   0.075   1.169   0.923  0.8869  2.3455  0.8704
   12SOL    HW2   47  -0.038   1.116   0.821 -0.0662  2.9940  1.2403
   12SOL     MW   48   0.031   1.098   0.877  0.6059  1.0178  0.2155
   13SOL     OW   49   1.832   1.425   1.367 -0.1183  0.5851 -0.3340
   13SOL    HW1   50   1.878   1.365   1.306  0.8949 -0.2296 -1.3845
   13SOL    HW2   51   1.857   1.516   1.349 -1.5557  0.8291  2.0226
   13SOL     MW   52   1.841   1.429   1.357 -0.1742  0.5098 -0.1617
   14SOL     OW   53   0.653   0.397   1.868 -0.2741 -0.1923  0.2936
   14SOL    HW1   54   0.605   0.317   1.873  0.4027 -1.6036 -1.2872
   14SOL    HW2   55   0.713   0.411   1.946 -0.6655  1.2317  1.0430
   14SOL     MW   56   0.655   0.388   1.879 -0.2365 -0.1906  0.1839
   15SOL     OW   57   1.951   0.397   1.010  0.4654 -0.8784  0.5808
   15SOL    HW1   58   1.915   0.458   1.082 -0.3782 -0.1017 -1.6244
   15SOL    HW2   59   2.030   0.431   0.961  0.9564  0.2045  1.2000
   15SOL     MW   60   1.957   0.410   1.013  0.4189 -0.6330  0.3715
   16SOL     OW   61   0.163   1.824   0.333 -0.1153 -0.0694  0.1350
   16SOL    HW1   62   0.255   1.796   0.334 -0.9831 -0.2398 -3.9086
   16SOL    HW2   63   0.173   1.920   0.351  0.6994 -0.4281  0.5199
   16SOL     MW   64   0.177   1.833   0.335 -0.1223 -0.1392 -0.3477
   17SOL     OW   65   1.114   0.907   1.499  0.2274 -0.1266 -0.6276
   17SOL    HW1   66   1.157   0.857   1.566 -1.0028 -0.2806 -3.8218
   17SOL    HW2   67   1.017   0.917   1.519  2.7765 -0.8371 -0.2649
   17SOL     MW   68   1.107   0.902   1.510  0.4014 -0.2406 -1.0012
   18SOL     OW   69   0.070   1.573   0.391 -0.3571 -0.2092  0.3134
   18SOL    HW1   70   0.111   1.659   0.361  0.4799  0.6189  0.8725
   18SOL    HW2   71   0.063   1.534   0.308 -0.5992 -0.4712  2.1379
   18SOL     MW   72   0.075   1.579   0.376 -0.2786 -0.1345  0.6279
   19SOL     OW   73   0.134   1.307   0.994  0.4517 -0.1674  0.2212
   19SOL    HW1   74   0.152   1.363   0.922 -3.0532  0.5181 -0.2005
   19SOL    HW2   75   0.041   1.321   1.014 -0.9902  3.3497 -2.1416
   19SOL     MW   76   0.124   1.316   0.987 -0.2010  0.3871 -0.1462
   20SOL     OW   77   0.448   2.144   1.157  0.2191  0.3464  0.3557
   20SOL    HW1   78   0.385   2.089   1.100  1.7559 -1.4250 -1.3875
   20SOL    HW2   79   0.401   2.157   1.235  0.3569 -1.4231 -1.4030
   20SOL     MW   80   0.433   2.139   1.160  0.4400 -0.1208 -0.1063
   21SOL     OW   81   0.532   0.820   0.345 -0.2367  0.0492  0.0505
   21SOL    HW1   82   0.610   0.820   0.396 -0.6305  0.7627  0.6978
   21SOL    HW2   83   0.555   0.812   0.251 -2.8271  2.0500  0.2799
   21SOL     MW   84   0.545   0.819   0.339 -0.6305  0.4074  0.1661
   22SOL     OW   85   1.520   0.702   1.061  0.3129  0.5927  0.0941
   22SOL    HW1   86   1.486   0.706   0.967 -0.8639  0.8065 -3.6874
   22SOL    HW2   87   1.489   0.774   1.114  2.6394  0.3442  0.9009
   22SOL     MW   88   1.511   0.712   1.055  0.4646  0.5881 -0.2984
   23SOL     OW   89   0.030   0.764   0.663 -0.1389  0.3291 -0.1721
   23SOL    HW1   90   0.069   0.689   0.711 -3.1052 -0.8412  0.0504
   23SOL    HW2   91   0.097   0.832   0.680 -3.1277  0.9202 -0.7602
   23SOL     MW   92   0.044   0.763   0.672 -0.9246  0.2527 -0.2204
   24SOL     OW   93   1.976   2.229   0.108  0.1739  0.0376 -0.4573
   24SOL    HW1   94   1.995   2.209   0.205  2.3689 -0.8953  2.1080
   24SOL    HW2   95   2.002   2.147   0.063  3.6213 -0.4176  0.1048
   24SOL     MW   96   1.982   2.215   0.115  0.9183 -0.1455 -0.0447
   25SOL     OW   97   0.243   1.408   0.495  0.4345  0.4776  0.2788
   25SOL    HW1   98   0.175   1.465   0.460  1.1022  0.1148  0.2137
   25SOL    HW2   99   0.326   1.434   0.443 -1.4832 -0.3100 -1.7998
   25SOL     MW  100   0.245   1.419   0.484  0.2696  0.3258 -0.0040
   26SOL     OW  101   2.030   0.979   0.355 -0.1831  0.1167 -0.0909
   26SOL    HW1  102   1.968   1.030   0.401  0.1281  1.1091 -0.7646
   26SOL    HW2  103   2.081   1.040   0.300  3.8513  1.6535  0.1627
   26SOL     MW  104   2.029   0.994   0.354  0.3902  0.4504 -0.1463
   27SOL     OW  105   2.037   1.433   0.266  0.4082 -0.4460 -0.0496
   27SOL    HW1  106   1.980   1.379   0.322  0.3752 -0.2713 -0.5226
   27SOL    HW2  107   2.113   1.473   0.315 -0.3969  0.1899  0.7631
   27SOL     MW  108   2.039   1.431   0.280  0.2976 -0.3391 -0.0048
   28SOL     OW  109   0.388   0.988   1.996  0.7473 -0.4798 -0.3002
   28SOL    HW1  110   0.444   0.926   2.031 -1.4083 -0.4990  1.7901
   28SOL    HW2  111   0.318   0.924   1.968  4.0709 -0.4250  3.1144
   28SOL     MW  112   0.386   0.972   1.997  0.9014 -0.4751  0.4261
   29SOL     OW  113   0.241   1.444   0.798  0.2448 -0.4617  0.6623
   29SOL    HW1  114   0.213   1.536   0.784 -0.3026 -0.6752  1.0722
   29SOL    HW2  115   0.258   1.412   0.711  0.1489  0.1373  2.3587
   29SOL     MW  116   0.240   1.452   0.785  0.1599 -0.4108  0.9402
   30SOL     OW  117   0.827   1.171   1.215  0.4937  0.0834 -0.1807
   30SOL    HW1  118   0.732   1.179   1.250  0.0621  2.7190  2.2276
   30SOL    HW2  119   0.884   1.172   1.295 -0.4922 -0.0230  2.6275
   30SOL     MW  120   0.822   1.172   1.230  0.3067  0.4171  0.5076
   31SOL     OW  121   0.405   0.156   0.202 -0.1631 -0.4394 -0.1874
   31SOL    HW1  122   0.427   0.099   0.275 -1.3812 -0.7701 -3.2096
   31SOL    HW2  123   0.436   0.098   0.133 -0.3171  2.8137  1.5474
   31SOL     MW  124   0.412   0.141   0.203 -0.3441 -0.0538 -0.3572
   32SOL     OW  125   2.793   0.984   1.116 -0.0230  0.1631 -0.2305
   32SOL    HW1  126   2.718   0.928   1.113  3.1192 -0.1927 -0.1039
   32SOL    HW2  127   2.871   0.946   1.082 -1.2882 -2.4943  1.1410
   32SOL     MW  128   2.794   0.972   1.111  0.2247 -0.2345 -0.0328
   33SOL     OW  129   1.780   1.308   0.336 -0.5516 -0.0679 -0.4059
   33SOL    HW1  130   1.795   1.255   0.412 -1.5654 -1.6146 -0.8295
   33SOL    HW2  131   1.760   1.398   0.364 -3.1233 -0.0686  1.3405
   33SOL     MW  132   1.779   1.313   0.350 -1.0246 -0.2720 -0.2314
   34SOL     OW  133   1.236   1.857   1.071 -0.0506 -0.0687  0.1261
   34SOL    HW1  134   1.149   1.891   1.065  1.0305  3.1542 -3.8944
   34SOL    HW2  135   1.288   1.911   1.133  0.4671 -1.6682 -2.0605
   34SOL     MW  136   1.231   1.869   1.078  0.1604  0.1455 -0.6929
   35SOL     OW  137   0.461   0.219   1.845  0.1892  0.5443 -0.5005
   35SOL    HW1  138   0.457   0.134   1.888 -0.6762 -0.5756  0.0852
   35SOL    HW2  139   0.473   0.198   1.748  1.3037  2.5073 -3.8877
   35SOL     MW  140   0.462   0.205   1.838  0.2221  0.6556 -0.8701
   36SOL     OW  141   1.939   1.954   0.538  0.4497  0.5232 -0.5986
   36SOL    HW1  142   1.949   1.979   0.443 -0.3446  1.1826  1.0046
   36SOL    HW2  143   1.950   1.853   0.540 -0.9397 -0.3604 -1.8727
   36SOL     MW  144   1.941   1.944   0.526  0.1616  0.4936 -0.5552
   37SOL     OW  145   1.751   1.989   1.000  0.4175  0.4716 -0.2601
   37SOL    HW1  146   1.702   1.926   0.951  0.4341 -1.5260 -1.5571
   37SOL    HW2  147   1.686   2.031   1.054 -1.3081 -2.7383 -1.1095
   37SOL     MW  148   1.736   1.986   1.001  0.1920 -0.2155 -0.5433
   38SOL     OW  149   2.793   0.919   0.113  0.5523 -0.4476 -0.0909
   38SOL    HW1  150   2.800   0.902   0.205  0.2123  0.3943  0.0961
   38SOL    HW2  151   2.878   0.892   0.068  2.3707  0.3158  0.7348
   38SOL     MW  152   2.805   0.913   0.119  0.7474 -0.2358  0.0427
   39SOL     OW  153   1.439   0.610   0.806  0.6276  0.2275 -0.2158
   39SOL    HW1  154   1.407   0.520   0.816  0.1454 -0.3368  0.1140
   39SOL    HW2  155   1.370   0.659   0.762  0.1174  1.0290 -2.8949
   39SOL     MW  156   1.426   0.605   0.801  0.4967  0.2588 -0.5258
   40SOL     OW  157   1.151   1.893   0.275  0.4273  0.6401  0.7143
   40SOL    HW1  158   1.183   1.821   0.330 -1.2604 -0.4507  2.3504
   40SOL    HW2  159   1.133   1.952   0.346 -0.0045 -2.5813  0.5986
   40SOL     MW  160   1.153   1.891   0.292  0.1477  0.0712  0.9149
   41SOL     OW  161   0.584   0.549   1.608  0.0866  0.1730 -0.1918
   41SOL    HW1  162   0.666   0.597   1.611 -0.6962  1.9869  2.3289
   41SOL    HW2  163   0.599   0.465   1.661 -1.8086  0.9747  2.1589
   41SOL     MW  164   0.597   0.544   1.615 -0.2668  0.5181  0.4510
   42SOL     OW  165   1.292   3.016   1.974 -0.1106 -0.4901  0.6667
   42SOL    HW1  166   1.214   3.005   2.034  0.3209 -0.6529 -0.8362
   42SOL    HW2  167   1.360   2.960   2.002  0.6750  1.2992  0.5573
   42SOL     MW  168   1.290   3.007   1.985  0.0500 -0.2755  0.4540
   43SOL     OW  169   1.586   0.102   1.714  0.2138  0.0637 -0.5003
   43SOL    HW1  170   1.608   0.073   1.625 -0.5527  0.4000  1.2242
   43SOL    HW2  171   1.489   0.086   1.716 -0.6292  1.1608 -0.5946
   43SOL     MW  172   1.576   0.096   1.702  0.0014  0.2528 -0.2852
   44SOL     OW  173   1.055   0.768   1.018 -0.7648  0.7772 -0.0881
   44SOL    HW1  174   1.082   0.855   0.991  2.0237 -0.9309 -1.3213
   44SOL    HW2  175   1.105   0.760   1.098  1.8731  1.3036 -3.5321
   44SOL     MW  176   1.065   0.779   1.025 -0.0489  0.6213 -0.7053
   45SOL     OW  177   1.240   0.749   0.682  0.2481  0.6305 -0.7253
   45SOL    HW1  178   1.172   0.755   0.750 -1.8619  0.3248 -1.8630
   45SOL    HW2  179   1.200   0.688   0.619 -3.3498 -0.4453  0.3016
   45SOL     MW  180   1.226   0.742   0.683 -0.5050  0.4482 -0.7399
   46SOL     OW  181   0.560   1.163   0.603 -0.5893  0.0830  1.0273
   46SOL    HW1  182   0.514   1.172   0.519 -1.7777 -0.2094  2.5919
   46SOL    HW2  183   0.660   1.157   0.593 -0.1541 -1.7470  2.2763
   46SOL     MW  184   0.567   1.163   0.590 -0.6886 -0.1971  1.3985
   47SOL     OW  185   0.161   1.998   1.926 -0.0490 -0.3932  0.3007
   47SOL    HW1  186   0.200   1.926   1.872 -0.0853 -0.7366  0.7734
   47SOL    HW2  187   0.186   1.993   2.019 -0.1901  1.5339  2.2628
   47SOL     MW  188   0.169   1.988   1.931 -0.0724 -0.1843  0.6220
   48SOL     OW  189   1.099   0.493   0.956  0.0486 -0.1435  0.1489
   48SOL    HW1  190   1.009   0.464   0.954 -2.0257  2.3429 -0.6581
   48SOL    HW2  191   1.092   0.585   0.973  1.2185 -3.2138 -2.4506
   48SOL     MW  192   1.086   0.501   0.958 -0.0707 -0.2205 -0.3006
   49SOL     OW  193   1.832   0.732   1.579 -0.3020  0.0723 -0.3957
   49SOL    HW1  194   1.803   0.695   1.667 -0.5778 -1.6648  0.4429
   49SOL    HW2  195   1.896   0.674   1.545  0.2352  1.1248  0.5015
   49SOL     MW  196   1.836   0.719   1.586 -0.2675 -0.0180 -0.1667
   50SOL     OW  197   1.235   1.079   0.513  0.5336 -0.5532 -0.2357
   50SOL    HW1  198   1.187   1.106   0.592  0.7789  1.2461  3.1080
   50SOL    HW2  199   1.299   1.017   0.547  0.8545  1.5093  2.4470
   50SOL     MW  200   1.237   1.074   0.528  0.6083 -0.0437  0.5594
   51SOL     OW  201   0.288   2.906   0.919  0.0567  0.3457  0.0127
   51SOL    HW1  202   0.378   2.858   0.911 -1.9842 -1.6387  0.8581
   51SOL    HW2  203   0.289   2.946   1.009  1.7024 -1.1957 -1.1361
   51SOL     MW  204   0.300   2.905   0.930  0.0046 -0.1195 -0.0273
   52SOL     OW  205   0.810   1.807   0.457 -0.4879 -0.1544  0.5811
   52SOL    HW1  206   0.775   1.896   0.472 -2.3670 -2.6714 -0.8042
   52SOL    HW2  207   0.832   1.804   0.365  2.4751 -0.7173  0.6095
   52SOL     MW  208   0.808   1.818   0.447 -0.3449 -0.5607  0.4021
   53SOL     OW  209   0.433   2.123   0.589  0.6603  0.2388 -0.0327
   53SOL    HW1  210   0.372   2.097   0.517  0.1968 -2.3668  0.0540
   53SOL    HW2  211   0.422   2.214   0.611 -2.4120 -0.8107  2.6802
   53SOL     MW  212   0.423   2.132   0.582  0.1938 -0.2435  0.3367
   54SOL     OW  213   2.074   0.951   0.827 -0.2919  0.0550 -0.1679
   54SOL    HW1  214   2.121   0.974   0.745  0.7064 -0.8856  0.3932
   54SOL    HW2  215   2.037   0.867   0.802 -1.6288  1.5926 -1.4820
   54SOL     MW  216   2.075   0.943   0.813 -0.3365  0.1337 -0.2672
   55SOL     OW  217   0.558   1.534   1.663 -0.8493 -0.1218 -0.2821
   55SOL    HW1  218   0.507   1.581   1.598 -0.2113  0.9258 -0.7220
   55SOL    HW2  219   0.628   1.497   1.610 -0.1080  3.0999  1.9868
   55SOL     MW  220   0.561   1.535   1.648 -0.6673  0.4415 -0.0408
   56SOL     OW  221   0.600   0.790   0.082 -0.4016  0.1159  0.6939
   56SOL    HW1  222   0.644   0.875   0.081  1.4617 -2.6808  0.5312
   56SOL    HW2  223   0.529   0.797   0.017 -1.6346  1.7352 -1.0779
   56SOL     MW  224   0.596   0.802   0.073 -0.3184 -0.0395  0.4387
   57SOL     OW  225   1.184   1.232   1.128 -0.6366  0.2472 -0.4615
   57SOL    HW1  226   1.267   1.252   1.079  0.8770  0.6958  0.8989
   57SOL    HW2  227   1.210   1.192   1.214 -1.1868  1.5917 -1.5869
   57SOL     MW  228   1.199   1.229   1.133 -0.5095  0.4838 -0.4305
   58SOL     OW  229   0.537   1.174   1.337  0.4432 -0.4398  0.1081
   58SOL    HW1  230   0.493   1.255   1.314 -0.9445  1.4453 -0.3246
   58SOL    HW2  231   0.551   1.172   1.429 -0.0708 -0.7938  0.1560
   58SOL     MW  232   0.533   1.184   1.346  0.1923 -0.2378  0.0573
   59SOL     OW  233   1.552   1.701   0.340  0.1987  0.2460  0.2500
   59SOL    HW1  234   1.598   1.766   0.389 -2.5663  1.2840  1.5781
   59SOL    HW2  235   1.455   1.712   0.363  0.4724 -1.9929  0.4380
   59SOL     MW  236   1.545   1.711   0.350 -0.1300  0.0876  0.4500
   60SOL     OW  237   0.012   0.195   1.576  0.3002  0.3245  0.0069
   60SOL    HW1  238  -0.071   0.230   1.607  3.8434  0.5184 -2.4774
   60SOL    HW2  239   0.033   0.127   1.635  1.1941  0.2643 -1.7965
   60SOL     MW  240   0.004   0.190   1.588  0.8856  0.3421 -0.5588
   61SOL     OW  241   2.023   1.510   3.094  0.1077 -0.0364 -0.1624
   61SOL    HW1  242   2.011   1.529   3.188 -0.6153  1.8331  0.7375
   61SOL    HW2  243   2.099   1.452   3.092  1.4769  0.2098  0.1549
   61SOL     MW  244   2.031   1.505   3.106  0.1929  0.2428 -0.0018
   62SOL     OW  245   0.587   1.734   0.641 -0.0107  0.3384 -0.2297
   62SOL    HW1  246   0.676   1.740   0.593  3.7623  0.3171 -0.4416
   62SOL    HW2  247   0.581   1.642   0.672 -0.5184  1.1594 -0.2163
   62SOL     MW  248   0.598   1.723   0.639  0.4201  0.4439 -0.2559
   63SOL     OW  249   1.691   0.674   0.737  0.6422  0.1467  0.0298
   63SOL    HW1  250   1.705   0.741   0.671  1.2640  0.2498  1.2880
   63SOL    HW2  251   1.595   0.661   0.751 -0.0659 -1.6307 -1.5043
   63SOL     MW  252   1.680   0.681   0.730  0.6308 -0.0742 -0.0066
   64SOL     OW  253   0.178   1.703   0.793 -0.4112 -0.2337  0.5972
   64SOL    HW1  254   0.249   1.766   0.788  1.4276  0.5831 -3.2567
   64SOL    HW2  255   0.094   1.759   0.783 -2.4468 -0.1046  0.1907
   64SOL     MW  256   0.176   1.719   0.791 -0.4371 -0.1089  0.0350
   65SOL     OW  257   1.576   2.303   0.388  0.2312 -0.8574 -0.0902
   65SOL    HW1  258   1.670   2.324   0.384  0.1375  0.5862 -1.5170
   65SOL    HW2  259   1.535   2.366   0.445  0.7209  0.8061  1.4790
   65SOL     MW  260   1.583   2.314   0.395  0.2835 -0.4475 -0.0714
   66SOL     OW  261   0.293   0.531   0.549  0.0542 -0.9981 -0.0688
   66SOL    HW1  262   0.343   0.482   0.483  1.6726  2.1465  0.8353
   66SOL    HW2  263   0.301   0.630   0.526 -1.4905  2.6100 -2.4111
   66SOL     MW  264   0.301   0.538   0.538  0.0640 -0.1071 -0.2585
   67SOL     OW  265   1.553   0.060   2.054  0.3723 -0.0619  0.0148
   67SOL    HW1  266   1.602   0.060   1.973 -1.6179 -0.2059 -3.4025
   67SOL    HW2  267   1.545  -0.030   2.086 -2.2036 -0.9636  0.1091
   67SOL     MW  268   1.558   0.048   2.048 -0.2301 -0.1999 -0.4236
   68SOL     OW  269   0.702   0.102   2.940  0.5325 -1.0824 -0.1469
   68SOL    HW1  270   0.696   0.138   2.854  2.2112 -1.7018  0.4835
   68SOL    HW2  271   0.772   0.153   2.983 -1.8072 -1.3826 -1.2691
   68SOL     MW  272   0.710   0.113   2.934  0.4453 -1.2038 -0.2118
   69SOL     OW  273   1.030   0.235   2.002  0.2714  0.8640  0.0050
   69SOL    HW1  274   1.125   0.250   2.016 -1.9114  1.3332 -0.2583
   69SOL    HW2  275   1.035   0.140   2.008 -0.2301 -1.0584 -2.9188
   69SOL     MW  276   1.043   0.224   2.005 -0.0828  0.6723 -0.4155
   70SOL     OW  277   0.533   1.730   1.131  0.0101  0.2814 -0.0463
   70SOL    HW1  278   0.592   1.695   1.196 -1.6093 -0.2707  1.6310
   70SOL    HW2  279   0.583   1.766   1.056 -1.0057 -1.8131 -0.9929
   70SOL     MW  280   0.547   1.730   1.129 -0.3376 -0.0678  0.0501
   71SOL     OW  281   1.571   0.518   1.258 -0.2616 -0.2724 -0.3121
   71SOL    HW1  282   1.562   0.590   1.320  3.9852 -0.6014 -0.7157
   71SOL    HW2  283   1.549   0.556   1.171 -1.2396 -0.3518  0.3731
   71SOL     MW  284   1.567   0.532   1.254  0.1697 -0.3263 -0.2749
   72SOL     OW  285   0.755   1.854   0.963  0.3282  0.4581 -0.1508
   72SOL    HW1  286   0.746   1.910   0.883 -1.6742  1.5995 -0.5010
   72SOL    HW2  287   0.767   1.763   0.944 -0.6736 -2.0131  3.4968
   72SOL     MW  288   0.755   1.850   0.950 -0.0682  0.2826  0.2842
   73SOL     OW  289   1.164   0.726   1.296  0.3844 -0.2253 -0.6097
   73SOL    HW1  290   1.100   0.656   1.326 -0.2514  1.2046  0.2841
   73SOL    HW2  291   1.153   0.799   1.361 -1.1257 -0.7514  1.5688
   73SOL     MW  292   1.154   0.726   1.308  0.1013 -0.1060 -0.2044
   74SOL     OW  293   2.726   0.143   0.975 -0.5011 -0.2744  0.2875
   74SOL    HW1  294   2.800   0.123   0.914 -0.8524 -2.5400  0.3791
   74SOL    HW2  295   2.704   0.235   0.948  0.4061 -0.1028 -0.4926
   74SOL     MW  296   2.733   0.152   0.963 -0.4278 -0.5507  0.1967
   75SOL     OW  297   1.631   1.374   0.124 -0.5329 -0.6644 -0.1079
   75SOL    HW1  298   1.669   1.457   0.147 -1.5348  0.3187  0.8665
   75SOL    HW2  299   1.687   1.317   0.179 -1.6552  0.1475 -1.6387
   75SOL     MW  300   1.644   1.377   0.135 -0.8132 -0.4276 -0.1813
   76SOL     OW  301   3.010   0.603   0.476 -0.1836 -0.2348  0.4929
   76SOL    HW1  302   3.056   0.637   0.553 -0.7952  1.3452 -0.6857
   76SOL    HW2  303   3.075   0.561   0.418 -0.0235 -3.3590 -1.3441
   76SOL     MW  304   3.024   0.602   0.479 -0.2432 -0.4386  0.0950
   77SOL     OW  305   0.827   0.522   0.452 -0.4699 -0.5172  0.4972
   77SOL    HW1  306   0.784   0.555   0.371 -1.5693  0.1507 -0.9286
   77SOL    HW2  307   0.761   0.461   0.486  0.2054  1.3639 -0.1403
   77SOL     MW  308   0.813   0.518   0.446 -0.5258 -0.1809  0.2250
   78SOL     OW  309   0.720   0.921   1.315 -0.1257 -0.5326 -0.0787
   78SOL    HW1  310   0.770   0.988   1.269  0.2821 -0.8502  1.6208
   78SOL    HW2  311   0.681   0.871   1.250  0.3834  0.2044  0.4256
   78SOL     MW  312   0.721   0.923   1.300 -0.0048 -0.4773  0.2121
   79SOL     OW  313   1.940   1.689   0.585  0.3280  0.2572  0.1661
   79SOL    HW1  314   1.857   1.644   0.559  1.9469 -0.0188  0.6439
   79SOL    HW2  315   1.923   1.696   0.682  2.0249 -1.8732  0.6764
   79SOL     MW  316   1.927   1.684   0.594  0.7655 -0.0603  0.2965
   80SOL     OW  317   0.069   0.939   0.339  0.2193 -0.0608 -0.0625
   80SOL    HW1  318  -0.017   0.896   0.363 -2.6035  0.6611  0.0146
   80SOL    HW2  319   0.134   0.901   0.397 -1.0054  0.7436  0.2587
   80SOL     MW  320   0.067   0.928   0.350 -0.3147  0.1406 -0.0100
   81SOL     OW  321   1.926   1.913   0.248  0.1460 -0.4352  0.7426
   81SOL    HW1  322   1.907   1.823   0.219  2.6215 -1.1239 -0.5366
   81SOL    HW2  323   1.846   1.961   0.228 -0.5578  1.0259  3.3461
   81SOL     MW  324   1.913   1.907   0.241  0.3797 -0.3333  0.9173
   82SOL     OW  325   0.807   1.022   0.530 -0.2834 -0.1296  0.4477
   82SOL    HW1  326   0.798   1.018   0.428  1.4508 -1.2321 -0.3362
   82SOL    HW2  327   0.784   0.933   0.559  2.4753  1.5645  0.1175
   82SOL     MW  328   0.803   1.010   0.520  0.3094 -0.0516  0.3007
   83SOL     OW  329   0.050   0.660   1.468  0.7078 -0.3585  0.3907
   83SOL    HW1  330   0.087   0.722   1.396  0.8154 -3.5291 -0.6396
   83SOL    HW2  331   0.129   0.615   1.494  1.9174 -0.4396  0.8548
   83SOL     MW  332   0.065   0.662   1.462  0.8816 -0.7875  0.3160
   84SOL     OW  333   0.127   0.278   0.987  0.3641 -0.4911  1.0107
   84SOL    HW1  334   0.045   0.313   0.938  2.4748  1.5692 -0.1614
   84SOL    HW2  335   0.097   0.197   1.033 -1.5314  0.8295  0.8435
   84SOL     MW  336   0.113   0.272   0.987  0.3925 -0.0450  0.8340
   85SOL     OW  337   0.467   0.432   0.723 -0.2962  0.6731 -0.7889
   85SOL    HW1  338   0.404   0.470   0.662 -2.2686  1.3052 -0.9256
   85SOL    HW2  339   0.428   0.358   0.766 -1.6217  0.4925  1.0896
   85SOL     MW  340   0.453   0.427   0.721 -0.7313  0.7326 -0.5591
   86SOL     OW  341   1.164   0.281   1.125 -0.4114 -0.4763 -0.0933
   86SOL    HW1  342   1.126   0.357   1.084  1.1002 -1.2849  0.5609
   86SOL    HW2  343   1.227   0.310   1.191  1.9142  0.2063 -1.5757
   86SOL     MW  344   1.167   0.295   1.128  0.0949 -0.4929 -0.2026
   87SOL     OW  345   1.237   1.468   1.354  0.9825 -0.0604 -0.6647
   87SOL    HW1  346   1.245   1.494   1.262 -0.4991  1.5536 -0.5091
   87SOL    HW2  347   1.221   1.375   1.356 -0.9990 -0.8850  1.7837
   87SOL     MW  348   1.236   1.459   1.342  0.5256  0.0437 -0.3211
   88SOL     OW  349   1.206   1.016   0.954 -0.4776  0.4985  0.7367
   88SOL    HW1  350   1.300   0.996   0.964 -0.6825  0.4459  2.6682
   88SOL    HW2  351   1.182   1.067   1.027 -0.2347 -0.0386 -0.5916
   88SOL     MW  352   1.215   1.020   0.965 -0.4726  0.4207  0.8163
   89SOL     OW  353   1.774   0.691   0.375 -0.2258  0.4622  0.0480
   89SOL    HW1  354   1.795   0.602   0.404 -2.0070 -2.5834 -0.0539
   89SOL    HW2  355   1.829   0.710   0.300 -1.7228  1.4107  0.3088
   89SOL     MW  356   1.784   0.681   0.369 -0.6583  0.1855  0.0690
   90SOL     OW  357   0.714   1.146   2.731  0.6322  0.0902  0.1642
   90SOL    HW1  358   0.750   1.060   2.762 -0.2762  1.0582  0.2031
   90SOL    HW2  359   0.719   1.209   2.806 -2.1374  2.1862  4.8976
   90SOL     MW  360   0.720   1.143   2.745  0.1469  0.4945  0.7939
   91SOL     OW  361   2.177   0.662   0.440  0.0059 -0.1338 -0.3034
   91SOL    HW1  362   2.206   0.718   0.371  0.5595  0.5741  0.7139
   91SOL    HW2  363   2.166   0.577   0.399  2.1092  1.5950 -1.1680
   91SOL     MW  364   2.179   0.658   0.426  0.3565  0.1877 -0.2833
   92SOL     OW  365   1.708   0.896   0.535  0.8656  0.2269  0.0017
   92SOL    HW1  366   1.613   0.926   0.535  0.5623  0.7871 -1.7489
   92SOL    HW2  367   1.716   0.820   0.480 -2.2206  0.5553  1.3570
   92SOL     MW  368   1.696   0.890   0.527  0.4184  0.3441 -0.0504
   93SOL     OW  369   0.935   0.247   0.412  0.5935 -0.2190 -0.5766
   93SOL    HW1  370   0.894   0.319   0.459  2.4197 -2.1487  2.4105
   93SOL    HW2  371   0.963   0.282   0.327  1.3966 -1.1931 -1.1639
   93SOL     MW  372   0.933   0.261   0.407  0.9404 -0.6022 -0.2600
   94SOL     OW  373   1.790   1.464   1.627  0.2423 -0.7170  0.3685
   94SOL    HW1  374   1.830   1.452   1.545 -0.0186 -0.2271  2.1836
   94SOL    HW2  375   1.804   1.378   1.678 -1.4286 -2.1906  0.5083
   94SOL     MW  376   1.797   1.451   1.623 -0.0126 -0.8468  0.6264
   95SOL     OW  377   0.736   1.560   0.905 -0.0494 -0.1578 -0.0245
   95SOL    HW1  378   0.798   1.503   0.951  0.8164  0.3528 -0.5152
   95SOL    HW2  379   0.644   1.539   0.921 -0.6666 -0.1444 -0.2471
   95SOL     MW  380   0.732   1.549   0.913 -0.0166 -0.0887 -0.1186
   96SOL     OW  381   1.278   1.857   1.695  0.6509  0.0061  0.1321
   96SOL    HW1  382   1.185   1.854   1.729 -4.9330  1.8496 -0.9323
   96SOL    HW2  383   1.278   1.769   1.662  0.5505  4.5411  1.9181
   96SOL     MW  384   1.266   1.845   1.695 -0.0991  0.8477  0.2273
   97SOL     OW  385   1.265   1.432   0.730  0.0780 -0.2902 -0.0555
   97SOL    HW1  386   1.325   1.479   0.785 -0.2978 -1.2562 -1.8011
   97SOL    HW2  387   1.179   1.474   0.727 -1.2435  0.0584 -0.9833
   97SOL     MW  388   1.261   1.443   0.737 -0.1459 -0.3717 -0.4082
   98SOL     OW  389   1.444   1.299   1.045  0.0352 -0.1054  0.0782
   98SOL    HW1  390   1.469   1.382   1.090  2.2795  2.5933  0.4017
   98SOL    HW2  391   1.509   1.285   0.974 -0.0404 -0.0680 -1.9457
   98SOL     MW  392   1.456   1.308   1.042  0.3213  0.2556 -0.1461
   99SOL     OW  393   1.368   0.354   1.333 -0.2418 -0.0578  0.1625
   99SOL    HW1  394   1.438   0.415   1.300 -0.7714  0.8818  3.8951
   99SOL    HW2  395   1.389   0.354   1.427 -2.6230  0.9818 -0.8439
   99SOL     MW  396   1.380   0.362   1.341 -0.6258  0.2033  0.5222
  100SOL     OW  397   1.009   1.183   1.423 -0.4357  0.0303  0.5553
  100SOL    HW1  398   1.026   1.247   1.495 -0.2390  0.3673  1.6777
  100SOL    HW2  399   1.071   1.112   1.447  1.9157 -0.2367  0.4445
  100SOL     MW  400   1.019   1.182   1.435 -0.0995  0.0396  0.6888
  101SOL     OW  401   0.492   1.095   0.332 -0.4038  0.2015 -0.0784
  101SOL    HW1  402   0.496   0.999   0.327  0.0452 -3.3784 -0.0205
  101SOL    HW2  403   0.448   1.120   0.254  1.1563  0.4475  1.7621
  101SOL     MW  404   0.487   1.085   0.321 -0.1387 -0.2384  0.1721
  102SOL     OW  405   2.922   0.635   1.066  0.2386  0.5651  0.5932
  102SOL    HW1  406   2.972   0.717   1.055  1.0818 -2.7042  2.0204
  102SOL    HW2  407   2.959   0.594   1.147  1.0001 -0.1814  0.5908
  102SOL     MW  408   2.934   0.640   1.075  0.4503  0.0352  0.7812
  103SOL     OW  409   1.794   0.275   1.817  0.4225 -0.4129 -0.5160
  103SOL    HW1  410   1.731   0.209   1.773  0.9414 -3.8669 -3.4519
  103SOL    HW2  411   1.808   0.240   1.914  2.5536 -2.3475 -1.7004
  103SOL     MW  412   1.788   0.261   1.824  0.7721 -1.1238 -1.0596
  104SOL     OW  413   0.079   1.661   1.498  0.5962 -1.1431 -0.3395
  104SOL    HW1  414   0.026   1.700   1.564  0.7790  3.4040  3.2318
  104SOL    HW2  415   0.026   1.633   1.431  1.6508  0.7373  0.8541
  104SOL     MW  416   0.065   1.662   1.498  0.7595 -0.2950  0.2892
  105SOL     OW  417   0.014   1.196   0.432 -0.2392  0.3121 -0.1402
  105SOL    HW1  418   0.045   1.104   0.407  0.2559 -1.1138 -1.2272
  105SOL    HW2  419   0.100   1.245   0.447  2.1778  2.5325  0.6218
  105SOL     MW  420   0.029   1.190   0.430  0.1450  0.4169 -0.1830
  106SOL     OW  421   0.851   0.376   1.012 -0.0543 -0.3393 -0.1085
  106SOL    HW1  422   0.784   0.419   0.954 -0.4168 -2.1198 -1.0903
  106SOL    HW2  423   0.894   0.308   0.953  1.1312  1.0961  0.2624
  106SOL     MW  424   0.848   0.372   0.996  0.0543 -0.3849 -0.1891
  107SOL     OW  425   0.784   2.150   2.975  0.2701 -0.0878 -0.0110
  107SOL    HW1  426   0.703   2.121   2.927 -0.1328  2.3920 -0.1343
  107SOL    HW2  427   0.788   2.103   3.062 -1.7462  2.6262  2.5156
  107SOL     MW  428   0.774   2.140   2.980 -0.0491  0.5974  0.3061
  108SOL     OW  429   1.294   1.564   1.616  0.6425  0.0748  0.7374
  108SOL    HW1  430   1.277   1.525   1.529  1.1042  0.4612 -3.8949
  108SOL    HW2  431   1.382   1.519   1.629  0.8522 -0.7040  0.5513
  108SOL     MW  432   1.303   1.553   1.606  0.7311  0.0230  0.1017
  109SOL     OW  433   1.961   0.769   0.169 -0.0833 -0.3435 -0.2337
  109SOL    HW1  434   2.004   0.765   0.086 -1.6626  3.4218 -1.2598
  109SOL    HW2  435   1.975   0.847   0.224  4.5675 -1.9620  1.6217
  109SOL     MW  436   1.968   0.779   0.165  0.3219 -0.0603 -0.1243
  110SOL     OW  437   0.411   1.902   0.762 -0.5033  0.1777 -1.0382
  110SOL    HW1  438   0.480   1.844   0.726 -0.5368 -1.6156  2.0444
  110SOL    HW2  439   0.427   1.982   0.706 -1.0365  0.2420 -3.0650
  110SOL     MW  440   0.422   1.904   0.750 -0.5781 -0.0505 -0.8989
  111SOL     OW  441   0.862   0.937   1.550  0.5425  0.3292 -0.2927
  111SOL    HW1  442   0.812   0.939   1.463 -3.6355 -1.8395 -0.6213
  111SOL    HW2  443   0.832   0.849   1.581 -1.9300  1.0746  0.0973
  111SOL     MW  444   0.852   0.926   1.542 -0.3349  0.1414 -0.2846
  112SOL     OW  445   1.336   1.096   1.614  0.2762  0.0009  0.0035
  112SOL    HW1  446   1.279   1.169   1.643 -0.5761  0.7656  2.7303
  112SOL    HW2  447   1.292   1.014   1.638 -1.2815  1.1480 -0.4839
  112SOL     MW  448   1.323   1.095   1.621 -0.0418  0.2531  0.2990
  113SOL     OW  449   1.294   0.044   1.734 -0.0470 -0.3119 -0.3390
  113SOL    HW1  450   1.303  -0.012   1.813 -3.3418 -0.5945  1.8558
  113SOL    HW2  451   1.270  -0.007   1.661 -1.1782  0.6988 -0.4941
  113SOL     MW  452   1.292   0.030   1.735 -0.6310 -0.2159 -0.0699
  114SOL     OW  453   0.259   2.862   1.928 -0.3392 -0.1032  0.0597
  114SOL    HW1  454   0.290   2.936   1.977  1.4239  0.1092 -0.3241
  114SOL    HW2  455   0.304   2.869   1.839 -0.8542  1.4526  1.2519
  114SOL     MW  456   0.269   2.873   1.923 -0.1745  0.1301  0.1664
  115SOL     OW  457   0.477   0.835   1.124  0.1197  0.2976 -0.5875
  115SOL    HW1  458   0.526   0.748   1.129  2.7015 -0.5373 -1.1382
  115SOL    HW2  459   0.429   0.839   1.202  1.8390  1.4788  0.4502
  115SOL     MW  460   0.477   0.824   1.135  0.6872  0.3433 -0.5232
  116SOL     OW  461   0.784   1.063   0.948 -0.6740  0.3485 -0.3778
  116SOL    HW1  462   0.797   1.117   0.868  0.4775 -1.7478 -2.3440
  116SOL    HW2  463   0.824   1.105   1.022  0.8975 -0.6771  2.2663
  116SOL     MW  464   0.791   1.076   0.947 -0.3147 -0.0634 -0.2884
  117SOL     OW  465   1.143   1.186   0.755  0.8970  0.1409  0.0241
  117SOL    HW1  466   1.176   1.126   0.822  2.0900  0.2285  0.9301
  117SOL    HW2  467   1.200   1.260   0.763 -0.6654  0.0634  1.8748
  117SOL     MW  468   1.155   1.188   0.765  0.8483  0.1422  0.3878
  118SOL     OW  469   3.030   2.975   1.753  0.4691  0.2945 -0.3313
  118SOL    HW1  470   3.067   3.057   1.791  2.6786 -0.1350  1.0455
  118SOL    HW2  471   2.937   2.987   1.737 -0.7845  0.3574 -1.6429
  118SOL     MW  472   3.023   2.988   1.756  0.5952  0.2461 -0.3227
  119SOL     OW  473   0.469   1.449   1.244 -0.5757  0.5462  0.5711
  119SOL    HW1  474   0.509   1.476   1.162 -0.6830  2.1771  0.4131
  119SOL    HW2  475   0.374   1.428   1.219  0.3023 -1.3131 -4.4810
  119SOL     MW  476   0.462   1.450   1.230 -0.4740  0.5161 -0.1163
  120SOL     OW  477   0.257   0.707   0.984 -0.3995 -0.2798  0.0179
  120SOL    HW1  478   0.248   0.647   1.058  1.0497 -0.4763 -0.6025
  120SOL    HW2  479   0.334   0.757   1.002  0.8138 -1.5352 -0.9996
  120SOL     MW  480   0.266   0.705   0.996 -0.0482 -0.4713 -0.1982
  121SOL     OW  481   1.733   1.201   1.722  0.2340  0.4382  0.3022
  121SOL    HW1  482   1.657   1.151   1.744 -2.3497 -2.7982 -1.5470
  121SOL    HW2  483   1.782   1.133   1.676 -0.5542  1.6572  0.7771
  121SOL     MW  484   1.730   1.185   1.719 -0.2109  0.1721  0.1209
  122SOL     OW  485   0.116   0.538   0.793  0.6237  0.2064  0.2603
  122SOL    HW1  486   0.175   0.513   0.720  0.7143 -1.7273  0.9628
  122SOL    HW2  487   0.178   0.576   0.856 -2.2961 -1.1184 -0.4966
  122SOL     MW  488   0.132   0.539   0.792  0.2504 -0.2236  0.2531
  123SOL     OW  489   1.862   1.122   0.529  0.6327  0.2191 -0.1872
  123SOL    HW1  490   1.802   1.045   0.525 -3.0571  0.2104 -0.0347
  123SOL    HW2  491   1.863   1.149   0.623  0.4301 -0.8835  0.3328
  123SOL     MW  492   1.854   1.115   0.541  0.1192  0.0725 -0.0985
  124SOL     OW  493   0.684   0.530   0.850  0.0825  0.0921 -0.0342
  124SOL    HW1  494   0.614   0.489   0.790  0.5492 -0.2002  0.7553
  124SOL    HW2  495   0.682   0.627   0.843 -0.2869 -1.1640  0.3851
  124SOL     MW  496   0.674   0.538   0.841  0.0954 -0.1122  0.1253
  125SOL     OW  497   0.688   1.794   1.732 -0.1142 -0.1460  0.2245
  125SOL    HW1  498   0.644   1.706   1.719 -0.0656  2.3415 -0.6516
  125SOL    HW2  499   0.629   1.863   1.708 -0.0208  0.2272 -3.2085
  125SOL     MW  500   0.674   1.791   1.727 -0.0954  0.2314 -0.3441
  126SOL     OW  501   2.102   1.583   1.953 -0.4746 -0.4017 -0.7789
  126SOL    HW1  502   2.156   1.662   1.950  0.1982 -1.5277 -0.6485
  126SOL    HW2  503   2.156   1.505   1.946 -0.3002  0.1519  1.2966
  126SOL     MW  504   2.116   1.583   1.952 -0.3628 -0.4772 -0.4879
  127SOL     OW  505   0.715   0.781   1.846 -0.5441  0.1009 -0.4748
  127SOL    HW1  506   0.791   0.723   1.868  2.4049 -0.1916  1.7311
  127SOL    HW2  507   0.704   0.841   1.925 -1.3079 -0.5429  1.6746
  127SOL     MW  508   0.724   0.781   1.859 -0.2558 -0.0226  0.0998
  128SOL     OW  509   1.785   0.734   2.942  0.6146 -0.1611  0.3199
  128SOL    HW1  510   1.780   0.676   2.863 -0.9218  2.7476 -1.7308
  128SOL    HW2  511   1.736   0.813   2.913 -1.7593  1.2166  1.2830
  128SOL     MW  512   1.778   0.737   2.928  0.0987  0.4045  0.1764
  129SOL     OW  513   1.627   0.952   0.211 -0.3135 -0.2479 -0.3827
  129SOL    HW1  514   1.587   0.874   0.183 -1.8301  2.1766 -1.5816
  129SOL    HW2  515   1.666   0.929   0.296  0.9997 -1.6254  1.1733
  129SOL     MW  516   1.627   0.939   0.218 -0.3403 -0.1098 -0.3356
  130SOL     OW  517   0.751   1.344   0.365  0.1802  0.3862 -0.4035
  130SOL    HW1  518   0.779   1.409   0.432  1.8653  2.2849  3.0490
  130SOL    HW2  519   0.804   1.345   0.280  0.8801  0.8330  1.1968
  130SOL     MW  520   0.761   1.353   0.362  0.4949  0.6957  0.2632
  131SOL     OW  521   3.039   0.807   3.084 -0.0010  0.2452  0.0591
  131SOL    HW1  522   3.024   0.869   3.008 -0.5063 -0.1809  1.0969
  131SOL    HW2  523   3.129   0.811   3.114  2.4385 -0.4100 -1.0080
  131SOL     MW  524   3.049   0.816   3.078  0.2542  0.1025  0.0552
  132SOL     OW  525   2.686   0.140   1.234 -0.1581  0.0742  0.0749
  132SOL    HW1  526   2.710   0.142   1.137  2.2372  0.6019  0.9469
  132SOL    HW2  527   2.594   0.104   1.247  2.1559 -2.1758  0.3560
  132SOL     MW  528   2.677   0.135   1.223  0.4632 -0.1531  0.2270
  133SOL     OW  529   1.001   0.128   1.725 -0.1094 -0.0550  0.1290
  133SOL    HW1  530   1.097   0.124   1.713 -0.1109  1.2358 -2.5731
  133SOL    HW2  531   0.987   0.163   1.816  1.1544  0.9821  1.3306
  133SOL     MW  532   1.012   0.132   1.735  0.0572  0.2521 -0.0690
  134SOL     OW  533   1.379   2.516   1.449 -0.0924 -0.0216  0.6056
  134SOL    HW1  534   1.350   2.587   1.391 -0.4653  1.5940  1.8158
  134SOL    HW2  535   1.446   2.538   1.520  2.1307  0.5640 -1.0212
  134SOL     MW  536   1.384   2.529   1.451  0.1518  0.2688  0.5506
  135SOL     OW  537   3.018   0.973   2.858 -0.1700 -0.3589  0.5565
  135SOL    HW1  538   3.099   1.013   2.862 -3.4621 -2.0913  1.9442
  135SOL    HW2  539   2.959   1.049   2.871  3.7272  1.2278  0.5382
  135SOL     MW  540   3.021   0.989   2.860 -0.0902 -0.3781  0.7371
  136SOL     OW  541   0.191   2.036   0.871 -0.1080 -0.4272 -0.2220
  136SOL    HW1  542   0.110   1.990   0.840 -0.4351 -1.3242 -2.4780
  136SOL    HW2  543   0.261   2.016   0.812 -0.7629  0.3344  0.9921
  136SOL     MW  544   0.189   2.027   0.859 -0.2376 -0.4451 -0.3595
  137SOL     OW  545   0.700   2.063   0.539  0.2148  0.1233  0.1170
  137SOL    HW1  546   0.748   2.051   0.621  0.0234 -1.9217 -0.5056
  137SOL    HW2  547   0.611   2.081   0.552  4.0931 -3.5397 -0.1737
  137SOL     MW  548   0.695   2.064   0.552  0.7013 -0.6298 -0.0035
  138SOL     OW  549   0.558   0.570   1.120  0.1602 -0.1882  0.5144
  138SOL    HW1  550   0.476   0.532   1.082 -1.6254 -0.0693  0.4949
  138SOL    HW2  551   0.629   0.562   1.051  0.4836 -0.7809  1.1736
  138SOL     MW  552   0.557   0.564   1.106 -0.0328 -0.2507  0.5988
  139SOL     OW  553   2.796   0.582   1.354 -0.3266  0.4721 -0.1847
  139SOL    HW1  554   2.831   0.500   1.393 -0.9023 -2.1826  0.8808
  139SOL    HW2  555   2.826   0.658   1.408 -0.6340 -0.1693 -2.1706
  139SOL     MW  556   2.805   0.582   1.366 -0.4431  0.0372 -0.3061
  140SOL     OW  557   0.823   0.393   2.096  0.3506 -0.4468 -0.1319
  140SOL    HW1  558   0.886   0.330   2.063 -0.1381  3.9629 -2.9257
  140SOL    HW2  559   0.843   0.394   2.195  2.9001  2.3391 -0.8727
  140SOL     MW  560   0.834   0.385   2.105  0.6225  0.5026 -0.5983
  141SOL     OW  561   1.070   0.661   1.738 -0.1966  0.2582 -0.2312
  141SOL    HW1  562   1.102   0.575   1.714 -1.6890 -0.9031  0.7597
  141SOL    HW2  563   1.151   0.719   1.736  1.7412 -0.6592 -1.5734
  141SOL     MW  564   1.085   0.658   1.735 -0.1378 -0.0161 -0.2776
  142SOL     OW  565   0.871   1.197   0.721  0.2947  0.5044 -0.3907
  142SOL    HW1  566   0.847   1.141   0.642 -0.0594 -0.5018  0.4143
  142SOL    HW2  567   0.967   1.179   0.727  0.5941  2.4006  0.1409
  142SOL     MW  568   0.880   1.187   0.711  0.2875  0.6218 -0.2144
  143SOL     OW  569   1.792   0.755   1.102  0.9967 -0.0239 -0.8564
  143SOL    HW1  570   1.843   0.777   1.024  1.7171  0.7377  0.8632
  143SOL    HW2  571   1.702   0.749   1.073  2.1653  5.1639  0.5449
  143SOL     MW  572   1.787   0.757   1.088  1.2460  0.7611 -0.4446
  144SOL     OW  573   0.224   1.164   1.581  0.1963  0.1437 -0.2461
  144SOL    HW1  574   0.311   1.203   1.574  0.9541 -1.8241  0.9796
  144SOL    HW2  575   0.204   1.160   1.674  0.8596  1.3118  1.4195
  144SOL     MW  576   0.233   1.169   1.592  0.3838  0.0382  0.1353
  145SOL     OW  577   0.241   0.475   1.128 -0.6622 -0.0069  0.1718
  145SOL    HW1  578   0.269   0.427   1.198 -2.7472  1.3103 -0.9699
  145SOL    HW2  579   0.200   0.411   1.055  1.8887  0.9937  0.1126
  145SOL     MW  580   0.239   0.460   1.128 -0.6008  0.2989  0.0134
  146SOL     OW  581   0.841   1.926   1.328  0.8040 -0.0476 -0.0059
  146SOL    HW1  582   0.863   1.941   1.234 -2.5308  1.7079  0.4312
  146SOL    HW2  583   0.747   1.929   1.320  0.3471  0.1817 -1.3438
  146SOL     MW  584   0.832   1.928   1.314  0.3037  0.2143 -0.1247
  147SOL     OW  585   0.380   0.415   2.978  1.2465  0.2323 -0.1411
  147SOL    HW1  586   0.312   0.398   3.042 -0.2068 -0.3259 -2.9982
  147SOL    HW2  587   0.343   0.475   2.910  1.9380  0.6503 -2.1498
  147SOL     MW  588   0.366   0.421   2.977  1.1460  0.2138 -0.7831
  148SOL     OW  589   0.145   0.835   1.266 -0.1172 -0.0838 -0.1012
  148SOL    HW1  590   0.232   0.849   1.293 -1.9834 -2.1710  1.0219
  148SOL    HW2  591   0.099   0.901   1.318 -1.0398 -1.5558 -1.0993
  148SOL     MW  592   0.150   0.846   1.276 -0.4852 -0.5534 -0.0847
  149SOL     OW  593   1.375   1.136   1.334 -0.4238 -1.1444 -0.1673
  149SOL    HW1  594   1.357   1.123   1.430 -2.8934  3.3348  0.7878
  149SOL    HW2  595   1.450   1.196   1.337  0.6825 -3.8798  0.5172
  149SOL     MW  596   1.383   1.142   1.347 -0.6037 -0.9143  0.0490
  150SOL     OW  597   1.847   1.398   0.743 -0.1332 -1.0608 -0.3467
  150SOL    HW1  598   1.880   1.330   0.799 -1.0965 -0.7560  0.6500
  150SOL    HW2  599   1.872   1.486   0.783  0.5914 -1.8229 -0.0185
  150SOL     MW  600   1.855   1.401   0.756 -0.1647 -1.1212 -0.1719
  151SOL     OW  601   1.689   1.764   0.817 -0.0374  0.2927 -0.6017
  151SOL    HW1  602   1.661   1.790   0.728  1.3180  1.2802 -0.4117
  151SOL    HW2  603   1.632   1.695   0.858  0.0937 -3.6021  2.5173
  151SOL     MW  604   1.678   1.759   0.811  0.1587 -0.0909 -0.1651
  152SOL     OW  605   0.745   1.418   1.493 -0.0011 -0.8260 -0.1450
  152SOL    HW1  606   0.737   1.368   1.573  0.6433 -0.1782  1.1818
  152SOL    HW2  607   0.840   1.415   1.479 -0.3951  0.5943 -0.1557
  152SOL     MW  608   0.757   1.411   1.502  0.0319 -0.5531  0.0287
  153SOL     OW  609   2.595   1.197   0.779  0.5704  0.2160  0.1795
  153SOL    HW1  610   2.666   1.169   0.715 -1.7832  0.1295  0.4841
  153SOL    HW2  611   2.523   1.132   0.760 -0.1655 -1.5047  0.9162
  153SOL     MW  612   2.595   1.185   0.768  0.1628 -0.0225  0.3169
  154SOL     OW  613   0.297   1.815   1.714 -0.8620  0.2417 -0.3969
  154SOL    HW1  614   0.300   1.798   1.624 -0.5043  0.9046  0.4610
  154SOL    HW2  615   0.301   1.724   1.751 -0.9599 -1.9203  0.2723
  154SOL     MW  616   0.298   1.801   1.707 -0.8277  0.0439 -0.1954
  155SOL     OW  617   1.239   0.713   0.252  0.7118 -0.7243 -0.4567
  155SOL    HW1  618   1.233   0.677   0.337 -0.2087  0.5649  0.9883
  155SOL    HW2  619   1.191   0.802   0.260 -0.8475 -0.9134  0.3680
  155SOL     MW  620   1.232   0.720   0.264  0.3846 -0.5792 -0.1572
  156SOL     OW  621   1.516   3.073   1.129 -0.7671  0.4171  0.3171
  156SOL    HW1  622   1.591   3.136   1.147  1.3647 -0.2757  0.0700
  156SOL    HW2  623   1.547   2.998   1.177  1.5219  1.1351  2.0877
  156SOL     MW  624   1.530   3.072   1.138 -0.1838  0.4204  0.5181
  157SOL     OW  625   1.441   1.152   0.099  0.0015  0.6049 -0.0928
  157SOL    HW1  626   1.488   1.068   0.134  1.9335 -1.8459  0.0970
  157SOL    HW2  627   1.508   1.222   0.095 -0.0967  1.7738  1.3513
  157SOL     MW  628   1.456   1.150   0.103  0.2434  0.4358  0.1228
  158SOL     OW  629   0.540   1.658   2.201  0.5233  0.0304  0.2562
  158SOL    HW1  630   0.541   1.731   2.137  2.4561  2.2942  1.5714
  158SOL    HW2  631   0.467   1.682   2.252  0.8457 -2.1054 -0.7566
  158SOL     MW  632   0.530   1.671   2.199  0.8209  0.0473  0.2961
  159SOL     OW  633   1.283   1.688   0.419 -0.3071 -0.4016 -0.3999
  159SOL    HW1  634   1.266   1.606   0.370  1.1471 -0.5967 -0.4323
  159SOL    HW2  635   1.217   1.702   0.485 -1.3198 -1.4958  0.1193
  159SOL     MW  636   1.272   1.679   0.421 -0.2488 -0.5717 -0.3357
  160SOL     OW  637   0.559   1.171   1.597  0.0831 -0.0009  0.2602
  160SOL    HW1  638   0.496   1.097   1.607  0.4699 -1.1802 -0.6507
  160SOL    HW2  639   0.632   1.143   1.648 -0.1820 -1.7381  1.2045
  160SOL     MW  640   0.561   1.157   1.605  0.0991 -0.3857  0.2646
  161SOL     OW  641   0.466   2.198   2.575  0.2548  0.7822  0.1411
  161SOL    HW1  642   0.372   2.212   2.546 -0.8073 -2.1112 -2.0365
  161SOL    HW2  643   0.499   2.142   2.511 -0.3056 -0.0241 -0.4607
  161SOL     MW  644   0.458   2.192   2.563  0.0407  0.2941 -0.2256
  162SOL     OW  645   1.070   1.788   1.848 -0.1845 -0.1905 -0.0743
  162SOL    HW1  646   1.081   1.865   1.906  2.4118 -1.5628 -2.1936
  162SOL    HW2  647   0.988   1.743   1.881  0.7719 -0.3865 -2.6359
  162SOL     MW  648   1.061   1.792   1.860  0.2843 -0.3975 -0.6919
  163SOL     OW  649   2.171   0.002   0.936 -0.1438 -0.6558  0.0640
  163SOL    HW1  650   2.179   0.027   0.846  1.6563  1.5403  1.6959
  163SOL    HW2  651   2.079  -0.027   0.933  0.9442  0.4649 -0.7579
  163SOL     MW  652   2.160   0.001   0.924  0.2373 -0.2182  0.1709
  164SOL     OW  653   0.363   0.198   0.883 -0.1433 -0.5102 -0.1755
  164SOL    HW1  654   0.276   0.223   0.900 -0.3281 -1.0184  0.8242
  164SOL    HW2  655   0.363   0.132   0.814 -2.1941  0.7559  1.0090
  164SOL     MW  656   0.351   0.193   0.876 -0.4382 -0.4102  0.1127
  165SOL     OW  657   1.344   1.257   0.338 -0.0432  0.1082 -0.6556
  165SOL    HW1  658   1.299   1.205   0.405 -2.5808  2.3324  0.3274
  165SOL    HW2  659   1.383   1.199   0.269  0.2612  1.9584 -1.8415
  165SOL     MW  660   1.343   1.243   0.338 -0.3378  0.6458 -0.6824
  166SOL     OW  661   0.546   1.150   1.027  0.2656  0.4725  0.7764
  166SOL    HW1  662   0.509   1.110   1.110 -2.5120 -1.1739 -0.7225
  166SOL    HW2  663   0.635   1.120   1.004  0.5432 -0.8790 -1.4900
  166SOL     MW  664   0.553   1.141   1.035 -0.0642  0.0769  0.2796
  167SOL     OW  665   0.774   1.009   0.261  0.5282  0.2179 -0.0438
  167SOL    HW1  666   0.701   1.077   0.268  1.7793 -1.5964 -0.4767
  167SOL    HW2  667   0.813   1.040   0.182 -2.2053 -5.3352 -0.6826
  167SOL     MW  668   0.769   1.022   0.251  0.3326 -0.7542 -0.1852
  168SOL     OW  669   1.711   1.667   3.005  0.7128  0.2686  0.5669
  168SOL    HW1  670   1.619   1.674   3.026  0.4867 -0.4071  1.7780
  168SOL    HW2  671   1.719   1.576   2.974  0.4056 -3.4624 -3.0934
  168SOL     MW  672   1.700   1.656   3.004  0.6424 -0.3128  0.2438
  169SOL     OW  673   0.403   0.901   1.380  0.0850  0.3569 -0.3511
  169SOL    HW1  674   0.414   0.851   1.466  2.0410  0.0798  0.0564
  169SOL    HW2  675   0.451   0.986   1.389  0.6793 -0.3557 -2.5619
  169SOL     MW  676   0.411   0.906   1.392  0.4215  0.2263 -0.5890
  170SOL     OW  677   1.004   1.495   1.501  0.0745  0.9100 -0.0434
  170SOL    HW1  678   0.967   1.584   1.526 -2.6626  0.7968  0.3871
  170SOL    HW2  679   1.043   1.516   1.416  0.4968 -2.0045  1.6295
  170SOL     MW  680   1.004   1.510   1.493 -0.2309  0.5105  0.2342
  171SOL     OW  681   0.552   1.450   0.689 -0.3939  0.2545 -0.7328
  171SOL    HW1  682   0.542   1.437   0.778  2.6385 -0.9879 -2.5660
  171SOL    HW2  683   0.539   1.355   0.672  1.2218  0.3966  0.6339
  171SOL     MW  684   0.549   1.435   0.699  0.2194  0.1093 -0.7944
  172SOL     OW  685   0.854   0.345   1.287  0.3477  0.1619  0.1686
  172SOL    HW1  686   0.856   0.345   1.191  0.0038 -0.9852 -1.2632
  172SOL    HW2  687   0.759   0.369   1.315 -0.5565 -2.3379 -1.9687
  172SOL     MW  688   0.842   0.348   1.278  0.1830 -0.3192 -0.3023
  173SOL     OW  689   0.458   1.725   0.368  0.2437  0.0252  0.0804
  173SOL    HW1  690   0.467   1.633   0.342 -3.8203 -0.1060 -0.5603
  173SOL    HW2  691   0.464   1.722   0.460 -0.3204 -2.3702 -1.0328
  173SOL     MW  692   0.460   1.712   0.376 -0.3669 -0.3082 -0.1510
  174SOL     OW  693   1.834   1.001   1.569 -1.0432  0.1650 -0.0594
  174SOL    HW1  694   1.825   0.903   1.587  1.6214 -2.2875 -0.5653
  174SOL    HW2  695   1.795   1.012   1.484  1.4932 -0.6543 -0.3064
  174SOL     MW  696   1.828   0.989   1.560 -0.3570 -0.2667 -0.1588
  175SOL     OW  697   0.511   1.473   0.285  0.4689  0.4313 -0.3578
  175SOL    HW1  698   0.468   1.406   0.221  0.7430  1.5858 -1.9076
  175SOL    HW2  699   0.589   1.427   0.312  0.4629 -0.1104 -0.2940
  175SOL     MW  700   0.516   1.458   0.280  0.5043  0.5122 -0.5539
  176SOL     OW  701   0.180   1.463   1.213 -0.3753 -0.1344 -0.0576
  176SOL    HW1  702   0.156   1.426   1.127  0.2029  1.7000 -2.1624
  176SOL    HW2  703   0.102   1.444   1.262 -3.0199 -1.7022  1.1198
  176SOL     MW  704   0.166   1.456   1.208 -0.6479 -0.0992 -0.1799
  177SOL     OW  705   0.609   0.446   1.365  0.1841  0.7576  0.2494
  177SOL    HW1  706   0.595   0.517   1.300 -2.1146 -1.5611  2.4835
  177SOL    HW2  707   0.619   0.482   1.459  1.0526 -0.4424  1.5982
  177SOL     MW  708   0.609   0.460   1.369 -0.0046  0.2933  0.7221
  178SOL     OW  709   3.095   0.455   2.944 -0.5338  0.6716 -0.0758
  178SOL    HW1  710   3.022   0.483   3.001 -2.2437  2.2877 -2.5538
  178SOL    HW2  711   3.045   0.419   2.874 -2.6874  0.6338  0.7345
  178SOL     MW  712   3.079   0.454   2.942 -1.0436  0.8798 -0.2958
  179SOL     OW  713   1.583   1.330   1.377  0.8651  0.7053 -0.7999
  179SOL    HW1  714   1.555   1.367   1.465  0.6729  1.6795 -0.3481
  179SOL    HW2  715   1.677   1.355   1.369  0.5142 -1.4450 -0.3968
  179SOL     MW  716   1.592   1.338   1.388  0.7934  0.5501 -0.6871
  180SOL     OW  717   3.073   0.184   0.440  0.2281  0.3357 -0.0424
  180SOL    HW1  718   3.022   0.178   0.357  0.5662 -2.7546 -2.2969
  180SOL    HW2  719   3.128   0.263   0.438  0.6885 -0.7268  1.9267
  180SOL     MW  720   3.074   0.194   0.429  0.3335 -0.2122 -0.0801
  181SOL     OW  721   1.118   1.355   3.088  0.2710 -0.6672  0.0755
  181SOL    HW1  722   1.168   1.428   3.135  0.6866  2.0202  2.1241
  181SOL    HW2  723   1.186   1.291   3.055 -0.3687 -1.5725 -1.9714
  181SOL     MW  724   1.133   1.356   3.090  0.2414 -0.4321  0.0757
  182SOL     OW  725   0.458   0.868   1.657 -0.3791 -0.0562  0.0902
  182SOL    HW1  726   0.395   0.873   1.728  0.5092 -1.0102  0.4585
  182SOL    HW2  727   0.514   0.795   1.690 -1.2947  1.4226  1.0733
  182SOL     MW  728   0.457   0.859   1.670 -0.3827  0.0131  0.2685
  183SOL     OW  729   1.574   1.513   1.173  0.1912 -0.7647 -0.0507
  183SOL    HW1  730   1.590   1.598   1.213 -0.1383  0.4162 -2.0476
  183SOL    HW2  731   1.568   1.451   1.246  0.1618  2.0803 -2.1833
  183SOL     MW  732   1.575   1.516   1.188  0.1438 -0.2335 -0.5955
  184SOL     OW  733   0.926   0.637   1.963  0.2023 -0.3403 -0.1149
  184SOL    HW1  734   0.989   0.625   1.894 -1.4289  0.7033  0.2514
  184SOL    HW2  735   0.927   0.557   2.012 -1.2827  0.4100  0.7246
  184SOL     MW  736   0.934   0.625   1.961 -0.2089 -0.1036  0.0442
  185SOL     OW  737   1.262   1.031   1.901 -0.0368 -0.1864  0.1343
  185SOL    HW1  738   1.290   0.962   1.967  0.6044 -0.2631  1.9726
  185SOL    HW2  739   1.262   1.115   1.957  0.9980  0.4724  3.0900
  185SOL     MW  740   1.266   1.033   1.917  0.1843 -0.1096  0.7668
  186SOL     OW  741   0.372   1.679   1.428  0.3205  0.4010 -0.1809
  186SOL    HW1  742   0.407   1.615   1.368 -0.1285  0.1977  1.5839
  186SOL    HW2  743   0.277   1.657   1.435  0.1685  2.2266  2.4504
  186SOL     MW  744   0.364   1.667   1.421  0.2412  0.6150  0.3991
  187SOL     OW  745   1.443   0.710   1.405  0.0662 -0.5738  0.0159
  187SOL    HW1  746   1.450   0.712   1.500  0.0990  0.3540 -0.0720
  187SOL    HW2  747   1.355   0.688   1.381  0.7938  0.7978 -0.9099
  187SOL     MW  748   1.432   0.707   1.414  0.1666 -0.2704 -0.1179
  188SOL     OW  749   1.909   1.154   0.867 -0.3097  0.0426  0.7073
  188SOL    HW1  750   1.913   1.167   0.968 -1.9889  1.0162 -0.2430
  188SOL    HW2  751   1.979   1.089   0.842  1.3725  1.0533  0.7679
  188SOL     MW  752   1.918   1.147   0.877 -0.3093  0.3044  0.5900
  189SOL     OW  753   0.672   0.808   0.863 -0.5084  0.8793  0.3625
  189SOL    HW1  754   0.594   0.867   0.866 -2.8691  0.2712 -1.8012
  189SOL    HW2  755   0.737   0.872   0.888  2.2961  0.0236 -2.1861
  189SOL     MW  756   0.670   0.825   0.866 -0.4499  0.6862 -0.2593
  190SOL     OW  757   1.848   0.266   2.084  0.0955 -0.2024  0.6612
  190SOL    HW1  758   1.875   0.191   2.139 -0.1060  1.3485  4.9738
  190SOL    HW2  759   1.928   0.314   2.055  0.6121 -0.7140  0.8418
  190SOL     MW  760   1.862   0.263   2.087  0.1371 -0.0653  1.2540
  191SOL     OW  761   1.499   0.916   1.233  0.3060  0.7615  0.4017
  191SOL    HW1  762   1.456   0.998   1.263 -0.5752  0.8962 -3.3846
  191SOL    HW2  763   1.487   0.846   1.302  1.1836  0.3234  0.5572
  191SOL     MW  764   1.492   0.918   1.246  0.3055  0.7214 -0.0773
  192SOL     OW  765   0.604   2.088   2.800  0.5040  0.3843  0.5754
  192SOL    HW1  766   0.545   2.137   2.737 -2.2004  1.6438  0.8827
  192SOL    HW2  767   0.601   2.000   2.768  1.8284 -0.1154 -1.6496
  192SOL     MW  768   0.596   2.083   2.787  0.3219  0.4846  0.3224
  193SOL     OW  769   1.006   1.566   0.769 -0.8005  0.1739 -0.2789
  193SOL    HW1  770   0.967   1.586   0.846  0.8625  0.4043 -2.1155
  193SOL    HW2  771   0.934   1.534   0.710 -0.5920  0.8869 -0.9453
  193SOL     MW  772   0.991   1.565   0.771 -0.5535  0.2984 -0.6092
  194SOL     OW  773   0.491   1.408   0.946  0.6098  0.5917 -0.0190
  194SOL    HW1  774   0.533   1.323   0.967  1.7026  0.2227  0.4446
  194SOL    HW2  775   0.395   1.386   0.933 -1.1110 -1.5125 -0.3443
  194SOL     MW  776   0.484   1.394   0.947  0.5270  0.2654 -0.0007
  195SOL     OW  777   1.266   1.128   2.983  0.8482  0.5707 -0.4069
  195SOL    HW1  778   1.315   1.118   3.068 -0.8884  2.3985 -1.4035
  195SOL    HW2  779   1.190   1.060   2.995 -2.3601 -1.3011  0.5922
  195SOL     MW  780   1.262   1.118   2.996  0.1957  0.5649 -0.4065
  196SOL     OW  781   2.193   1.016   0.581  0.1281 -0.0583 -0.2006
  196SOL    HW1  782   2.155   0.980   0.498 -0.3196 -2.9822 -1.5847
  196SOL    HW2  783   2.183   1.113   0.574  0.6324  1.5579  1.1450
  196SOL     MW  784   2.186   1.024   0.569  0.1355 -0.2308 -0.2057
  197SOL     OW  785   0.700   1.238   2.063 -0.4686 -0.8889  0.6315
  197SOL    HW1  786   0.682   1.145   2.041  1.0271  0.5851 -0.7880
  197SOL    HW2  787   0.674   1.292   1.991 -1.5347  1.3934 -1.6934
  197SOL     MW  788   0.694   1.233   2.050 -0.4119 -0.3933  0.1375
  198SOL     OW  789   2.975   1.354   1.115 -0.4994  0.1278  0.3876
  198SOL    HW1  790   2.949   1.443   1.080 -3.2694  1.9112 -1.0548
  198SOL    HW2  791   2.895   1.313   1.077 -0.4253  2.1646  2.5203
  198SOL     MW  792   2.961   1.361   1.105 -0.8551  0.6319  0.4787
  199SOL     OW  793   0.520   1.365   1.884  0.4589  0.3140  0.1521
  199SOL    HW1  794   0.437   1.315   1.887  1.1268  2.1033  1.2828
  199SOL    HW2  795   0.529   1.384   1.793 -1.8318 -1.1914  2.4981
  199SOL     MW  796   0.510   1.361   1.872  0.2448  0.3515  0.6108
  200SOL     OW  797   1.859   3.051   1.291  0.0947 -0.1890  0.5913
  200SOL    HW1  798   1.869   3.013   1.200 -0.2049 -1.6524  1.9114
  200SOL    HW2  799   1.762   3.071   1.302  0.7933 -1.3574 -1.2847
  200SOL     MW  800   1.847   3.049   1.280  0.1473 -0.5362  0.5180
  201SOL     OW  801   1.000   0.204   0.859  0.3991 -0.3056 -0.0740
  201SOL    HW1  802   0.979   0.148   0.779 -0.0972 -0.7365 -1.0788
  201SOL    HW2  803   1.068   0.268   0.824  1.0867  1.6033 -1.0687
  201SOL     MW  804   1.006   0.205   0.844  0.4243 -0.1106 -0.3378
  202SOL     OW  805   1.519   1.558   0.905 -0.1937 -0.3323 -0.2859
  202SOL    HW1  806   1.555   1.488   0.844  2.6008  0.5254 -3.2590
  202SOL    HW2  807   1.543   1.543   0.996 -0.7618 -0.4894 -0.0100
  202SOL     MW  808   1.527   1.547   0.909  0.1000 -0.2399 -0.6418
  203SOL     OW  809   3.055   0.484   1.273  0.2201 -0.4509  0.1955
  203SOL    HW1  810   3.142   0.488   1.240 -3.1762 -0.1669  2.1005
  203SOL    HW2  811   3.060   0.546   1.347  2.2849  0.5780 -1.9582
  203SOL     MW  812   3.067   0.493   1.278  0.0444 -0.2777  0.1627
  204SOL     OW  813   1.063   1.751   0.575  0.0689 -0.4343 -0.6895
  204SOL    HW1  814   1.039   1.684   0.642  2.1195  2.6064 -2.3928
  204SOL    HW2  815   0.991   1.737   0.512 -2.5343  3.8579  0.4386
  204SOL     MW  816   1.050   1.740   0.575 -0.0040  0.5332 -0.7654
  205SOL     OW  817   1.363   0.082   1.355  0.0483 -1.2075  0.3644
  205SOL    HW1  818   1.311   0.053   1.282 -0.5435  2.3359  0.8581
  205SOL    HW2  819   1.375   0.172   1.330  0.4216 -0.1041  0.6389
  205SOL     MW  820   1.358   0.090   1.342  0.0194 -0.5944  0.4658
  206SOL     OW  821   0.401   3.013   1.434  0.7244  0.0177  0.6354
  206SOL    HW1  822   0.344   3.020   1.350 -2.4770 -2.1876 -0.3058
  206SOL    HW2  823   0.475   2.965   1.410  0.1722  0.3264  1.4468
  206SOL     MW  824   0.403   3.007   1.420  0.2291 -0.2325  0.6183
  207SOL     OW  825   0.913   1.517   0.187  0.1100  0.4266  0.2621
  207SOL    HW1  826   0.932   1.614   0.172  0.6083  1.9530 -1.6956
  207SOL    HW2  827   0.991   1.489   0.231 -0.7454  0.5258  2.0241
  207SOL     MW  828   0.926   1.526   0.190  0.0629  0.6411  0.2363
  208SOL     OW  829   0.698   1.649   1.352  0.0568  0.2602  0.4239
  208SOL    HW1  830   0.777   1.691   1.383 -1.4631  1.6204  2.6064
  208SOL    HW2  831   0.690   1.563   1.397  0.0791  0.9805 -0.6826
  208SOL     MW  832   0.707   1.643   1.362 -0.1408  0.5347  0.5659
  209SOL     OW  833   1.555   0.514   2.991 -0.4403 -0.1842  0.6062
  209SOL    HW1  834   1.608   0.588   3.002 -1.4488 -0.6044  1.1570
  209SOL    HW2  835   1.610   0.444   2.964 -1.2060  0.3722 -0.3128
  209SOL     MW  836   1.570   0.514   2.989 -0.6744 -0.1663  0.5576
  210SOL     OW  837   1.596   1.319   0.785 -0.4038 -0.2378  0.3354
  210SOL    HW1  838   1.692   1.328   0.760  0.1428  0.6495 -1.3977
  210SOL    HW2  839   1.549   1.327   0.700  0.3162 -1.5795  1.2501
  210SOL     MW  840   1.602   1.321   0.771 -0.2367 -0.2978  0.2275
  211SOL     OW  841   1.649   0.366   0.968  0.0006 -0.2698 -0.2588
  211SOL    HW1  842   1.623   0.396   0.880 -2.8244  1.4152 -1.4408
  211SOL    HW2  843   1.743   0.383   0.967 -1.2547  0.6280  0.0107
  211SOL     MW  844   1.658   0.372   0.956 -0.5377  0.0710 -0.3792
  212SOL     OW  845   0.233   1.047   0.112  0.3236 -0.3402  0.0856
  212SOL    HW1  846   0.168   1.014   0.178  0.3873 -3.9358 -0.4992
  212SOL    HW2  847   0.275   0.970   0.081  0.5453  1.9698  0.7140
  212SOL     MW  848   0.230   1.033   0.117  0.3612 -0.5098  0.0914
  213SOL     OW  849   0.515   1.739   3.033  0.5308 -0.2615  0.0399
  213SOL    HW1  850   0.513   1.797   3.108  0.1842  1.0200  2.2176
  213SOL    HW2  851   0.548   1.792   2.957  0.5273 -2.7511 -1.8293
  213SOL     MW  852   0.519   1.753   3.033  0.4846 -0.4209  0.0806
  214SOL     OW  853   0.554   0.281   2.258  0.0933  0.2000 -0.2371
  214SOL    HW1  854   0.494   0.359   2.235  1.1398  0.3491 -1.8684
  214SOL    HW2  855   0.626   0.291   2.193  2.2475  0.1216 -1.2451
  214SOL     MW  856   0.556   0.292   2.246  0.5156  0.2093 -0.5853
  215SOL     OW  857   0.528   0.690   2.651 -0.1541  0.3110 -0.0160
  215SOL    HW1  858   0.524   0.673   2.559 -2.5666 -0.0668  0.2959
  215SOL    HW2  859   0.447   0.669   2.700  1.9504  1.1263  0.8174
  215SOL     MW  860   0.516   0.685   2.645 -0.1947  0.3687  0.1351
  216SOL     OW  861   2.897   3.068   2.634 -0.1558  0.1210  0.2129
  216SOL    HW1  862   2.826   3.045   2.702  0.7476 -1.3407 -0.5357
  216SOL    HW2  863   2.902   3.163   2.643  0.0834 -2.8682 -1.1205
  216SOL     MW  864   2.889   3.077   2.644 -0.0050 -0.4663 -0.0618
  217SOL     OW  865   0.947   1.109   0.057  0.1272 -0.6219  0.4880
  217SOL    HW1  866   1.010   1.046   0.013  0.4767  0.1329 -0.7217
  217SOL    HW2  867   1.000   1.186   0.074  0.8640  0.2916 -1.0972
  217SOL     MW  868   0.962   1.111   0.053  0.2705 -0.4018  0.1192
  218SOL     OW  869   0.954   1.337   2.519  0.2522 -0.7276  0.5849
  218SOL    HW1  870   0.995   1.253   2.521  0.5536  0.5503 -2.2158
  218SOL    HW2  871   1.025   1.392   2.547 -0.1788 -0.3462 -1.1939
  218SOL     MW  872   0.968   1.333   2.523  0.2351 -0.5086 -0.0193
  219SOL     OW  873   1.105   0.462   2.644  0.2986 -0.8099  0.1232
  219SOL    HW1  874   1.170   0.526   2.661  0.9972 -0.3498 -2.1960
  219SOL    HW2  875   1.024   0.501   2.616  0.6636  2.1897 -1.5553
  219SOL     MW  876   1.103   0.476   2.643  0.4389 -0.3535 -0.4043
  220SOL     OW  877   1.759   0.499   2.238 -0.2907 -0.0025 -0.1377
  220SOL    HW1  878   1.681   0.540   2.188 -2.9770  0.0426  0.3465
  220SOL    HW2  879   1.771   0.411   2.190  0.7635 -1.2884  0.1480
  220SOL     MW  880   1.750   0.493   2.225 -0.5060 -0.1662 -0.0361
  221SOL     OW  881   0.397   1.363   2.948  0.4269  0.0707 -0.5500
  221SOL    HW1  882   0.413   1.278   2.907 -2.4305  2.9334  1.1355
  221SOL    HW2  883   0.418   1.417   2.872  0.7525 -2.6361 -0.5585
  221SOL     MW  884   0.402   1.359   2.932  0.0928  0.0913 -0.3287
  222SOL     OW  885   0.386   0.942   2.655 -0.6423 -0.1511 -0.3333
  222SOL    HW1  886   0.358   0.997   2.574  1.4608 -0.7634 -0.2199
  222SOL    HW2  887   0.442   0.877   2.619 -0.0763 -2.6710 -0.0743
  222SOL     MW  888   0.389   0.941   2.640 -0.2901 -0.5643 -0.2842
  223SOL     OW  889   0.006   2.036   2.556  0.0260  0.0734 -0.4259
  223SOL    HW1  890   0.062   1.976   2.610  0.2460 -1.1105 -0.8567
  223SOL    HW2  891   0.067   2.107   2.524 -0.9025  0.8479 -2.5893
  223SOL     MW  892   0.021   2.038   2.559 -0.0675  0.0194 -0.7682
  224SOL     OW  893   1.518   0.811   2.624 -0.6885  0.0009  0.8115
  224SOL    HW1  894   1.487   0.863   2.698  2.0226 -0.7145 -0.1896
  224SOL    HW2  895   1.551   0.875   2.558  0.0050  0.6179 -3.3769
  224SOL     MW  896   1.518   0.826   2.625 -0.2393 -0.0121  0.1268
  225SOL     OW  897   2.934   1.446   2.309 -0.7159 -0.4173 -0.0353
  225SOL    HW1  898   3.003   1.503   2.262 -2.6577  0.5037 -0.4969
  225SOL    HW2  899   2.874   1.503   2.358 -0.7026  2.2701  1.1485
  225SOL     MW  900   2.935   1.461   2.309 -0.9703  0.0588  0.0600
  226SOL     OW  901   0.479   1.455   2.700  0.1621  0.3043  0.0250
  226SOL    HW1  902   0.566   1.436   2.654  0.1795 -1.0898  3.3499
  226SOL    HW2  903   0.443   1.542   2.678  0.9073 -0.2065  0.2108
  226SOL     MW  904   0.486   1.464   2.691  0.2627  0.0530  0.4882
  227SOL     OW  905   0.476   1.107   2.863  0.2387  0.3054 -0.5417
  227SOL    HW1  906   0.557   1.130   2.817  3.5173  2.4003  1.5938
  227SOL    HW2  907   0.435   1.041   2.805 -0.0313 -0.4796 -1.0630
  227SOL     MW  908   0.481   1.101   2.849  0.6356  0.4783 -0.3287
  228SOL     OW  909   0.702   0.959   2.057 -0.1663  0.4171 -0.3281
  228SOL    HW1  910   0.789   1.005   2.049 -0.4483 -1.5726 -1.0617
  228SOL    HW2  911   0.714   0.911   2.147  0.8144 -2.0188  0.7346
  228SOL     MW  912   0.715   0.959   2.068 -0.0741 -0.1668 -0.2847
  229SOL     OW  913   0.185   0.596   0.031 -0.0300  0.3991 -0.0244
  229SOL    HW1  914   0.109   0.564  -0.023  1.1246  1.1324 -0.2682
  229SOL    HW2  915   0.195   0.532   0.102  1.3150  2.7925  2.0331
  229SOL     MW  916   0.176   0.584   0.033  0.2998  0.8117  0.2149
  230SOL     OW  917   1.742   1.361   2.027 -0.5913 -0.3160 -0.2420
  230SOL    HW1  918   1.682   1.334   2.097 -0.2570 -1.7097 -1.2904
  230SOL    HW2  919   1.779   1.273   2.002  0.2473 -0.7376  1.3768
  230SOL     MW  920   1.739   1.346   2.033 -0.4366 -0.5555 -0.1667
  231SOL     OW  921   2.743   1.272   2.199  0.2516 -0.8522 -0.1657
  231SOL    HW1  922   2.817   1.325   2.214 -0.5693  0.5762 -1.5962
  231SOL    HW2  923   2.703   1.285   2.119  0.5092 -0.4872  3.3946
  231SOL     MW  924   2.747   1.280   2.191  0.1773 -0.6155  0.1153
  232SOL     OW  925   2.293   0.822   2.040  0.1461 -0.1497 -0.4010
  232SOL    HW1  926   2.235   0.874   1.986  3.5042  0.2146  0.9685
  232SOL    HW2  927   2.249   0.802   2.125 -0.9015  1.1949 -1.8592
  232SOL     MW  928   2.280   0.826   2.044  0.4510  0.0758 -0.4127
  233SOL     OW  929   2.071   0.463   1.995 -0.0904 -0.2746  0.9763
  233SOL    HW1  930   2.141   0.397   2.004  2.1254 -0.5164  0.9380
  233SOL    HW2  931   2.072   0.495   2.087 -0.1431 -0.0024  1.3829
  233SOL     MW  932   2.080   0.459   2.008  0.1950 -0.2706  1.0249
  234SOL     OW  933   0.282   1.067   2.435  0.2511  0.3775 -0.2481
  234SOL    HW1  934   0.186   1.090   2.438 -1.0384  1.9366  2.3599
  234SOL    HW2  935   0.320   1.155   2.438  1.1048 -1.4754  0.2050
  234SOL     MW  936   0.275   1.082   2.436  0.1936  0.3387  0.1558
  235SOL     OW  937   1.118   3.063   2.710 -0.5844  0.2736 -0.6190
  235SOL    HW1  938   1.135   3.004   2.781 -1.6712  2.3413 -0.1990
  235SOL    HW2  939   1.077   3.139   2.752  0.0931 -1.5208  1.1555
  235SOL     MW  940   1.115   3.065   2.725 -0.6384  0.3097 -0.3295
  236SOL     OW  941   2.918   0.564   0.019  0.2359  0.3332  0.4659
  236SOL    HW1  942   2.827   0.572   0.057 -0.9809  0.1735  1.3883
  236SOL    HW2  943   2.941   0.653  -0.004 -3.9757 -1.0356 -0.5283
  236SOL     MW  944   2.909   0.577   0.021 -0.4803  0.1315  0.4564
  237SOL     OW  945   2.011   1.100   2.184 -0.4375  0.0509 -0.6276
  237SOL    HW1  946   1.934   1.122   2.127  0.8838 -2.2518 -0.5310
  237SOL    HW2  947   2.024   1.006   2.169  3.0549 -0.0534  2.9332
  237SOL     MW  948   2.003   1.091   2.174  0.1976 -0.2666 -0.1451
  238SOL     OW  949   1.058   1.811   2.988 -0.1861  0.0288 -0.5818
  238SOL    HW1  950   1.040   1.721   2.963 -0.3475 -1.3699 -0.0660
  238SOL    HW2  951   1.151   1.800   3.014 -2.5467  2.3702 -2.9362
  238SOL     MW  952   1.068   1.798   2.988 -0.5188  0.1532 -0.8244
  239SOL     OW  953   1.246   1.356   2.359  0.0914  0.0425  0.2485
  239SOL    HW1  954   1.211   1.425   2.412  1.8709  2.2716 -0.3263
  239SOL    HW2  955   1.257   1.286   2.430 -1.3912 -0.3627  1.7226
  239SOL     MW  956   1.243   1.356   2.376  0.1306  0.2832  0.3672
  240SOL     OW  957   0.721   0.812   2.283 -0.2023  0.5039  0.2140
  240SOL    HW1  958   0.725   0.876   2.352 -0.8765  2.9536 -2.9102
  240SOL    HW2  959   0.810   0.780   2.267 -1.4376 -0.7088 -2.0209
  240SOL     MW  960   0.733   0.817   2.290 -0.4543  0.6671 -0.4931
  241SOL     OW  961   0.640   0.374   3.095 -0.0630  0.1356  0.2804
  241SOL    HW1  962   0.663   0.420   3.177 -1.0898 -0.3051 -0.1845
  241SOL    HW2  963   0.558   0.416   3.067 -1.3749  1.7061  0.0591
  241SOL     MW  964   0.633   0.386   3.102 -0.3716  0.2847  0.1899
  242SOL     OW  965   1.510   1.678   2.342  0.2255 -0.3176 -0.0083
  242SOL    HW1  966   1.481   1.770   2.348  0.2080  3.5097 -0.2486
  242SOL    HW2  967   1.437   1.632   2.310  0.6281 -1.1393 -0.7490
  242SOL     MW  968   1.497   1.684   2.338  0.2763  0.0790 -0.1377
  243SOL     OW  969   1.032   0.238   2.488 -0.3256 -0.1758 -0.1212
  243SOL    HW1  970   1.106   0.234   2.418  0.9837 -0.1329  0.2676
  243SOL    HW2  971   1.056   0.309   2.552 -0.1299  0.7177  0.5932
  243SOL     MW  972   1.045   0.247   2.487 -0.1270 -0.0523  0.0244
  244SOL     OW  973   0.276   0.770   2.401  0.6485  0.3470  0.5651
  244SOL    HW1  974   0.267   0.867   2.397 -0.2087  1.1429  1.0146
  244SOL    HW2  975   0.366   0.745   2.408  1.0125 -0.1069  0.5339
  244SOL     MW  976   0.287   0.779   2.402  0.5834  0.3921  0.6203
  245SOL     OW  977   1.272   0.231   2.325 -0.7286  0.2593  0.3376
  245SOL    HW1  978   1.333   0.158   2.321  1.8750  0.9404 -0.9293
  245SOL    HW2  979   1.331   0.288   2.382 -2.2878 -1.2726 -1.3148
  245SOL     MW  980   1.288   0.229   2.332 -0.5908  0.1470 -0.0476
  246SOL     OW  981   1.208   1.194   2.140  0.0442  0.3681 -0.2830
  246SOL    HW1  982   1.153   1.120   2.176  0.6080  3.2681  0.6130
  246SOL    HW2  983   1.224   1.239   2.216  2.6561 -0.6870  0.7984
  246SOL     MW  984   1.203   1.190   2.155  0.4632  0.6115 -0.0221
  247SOL     OW  985   0.744   0.559   0.184 -0.1650  0.1260  0.3394
  247SOL    HW1  986   0.695   0.634   0.167  1.1939 -1.7088  1.7411
  247SOL    HW2  987   0.838   0.580   0.163  1.3561 -2.1941 -0.7090
  247SOL     MW  988   0.750   0.571   0.179  0.2150 -0.4222  0.3860
  248SOL     OW  989   0.408   1.303   2.472 -1.0635  0.7706 -0.1455
  248SOL    HW1  990   0.450   1.334   2.390 -0.1553 -0.2176  0.1608
  248SOL    HW2  991   0.410   1.378   2.533 -2.1984  1.5293  1.4667
  248SOL     MW  992   0.414   1.317   2.469 -1.0934  0.7404  0.1077
  249SOL     OW  993   0.172   1.888   2.730  0.4315  0.5605  0.4870
  249SOL    HW1  994   0.129   1.807   2.698  0.2515 -1.6152  1.7377
  249SOL    HW2  995   0.206   1.862   2.825  1.7515  0.1330  2.0764
  249SOL     MW  996   0.170   1.874   2.738  0.5819  0.2170  0.8617
  250SOL     OW  997   2.188   0.909   2.310 -0.2293 -0.4051 -0.2259
  250SOL    HW1  998   2.254   0.836   2.331 -0.0730 -0.2331 -2.8584
  250SOL    HW2  999   2.227   0.993   2.336 -0.4311 -1.5876 -2.6352
  250SOL     MW 1000   2.202   0.911   2.316 -0.2353 -0.5385 -0.8911
  251SOL     OW 1001   0.163   0.869   1.966  0.2951  0.6484 -0.1078
  251SOL    HW1 1002   0.106   0.800   1.991 -0.7622 -1.1147  0.2721
  251SOL    HW2 1003   0.152   0.883   1.866  0.0123 -0.0810 -0.4759
  251SOL     MW 1004   0.154   0.861   1.956  0.1183  0.3195 -0.1062
  252SOL     OW 1005   1.722   0.978   2.846 -0.0220  0.3262 -0.3791
  252SOL    HW1 1006   1.744   1.023   2.934  0.9963 -0.3158  1.6318
  252SOL    HW2 1007   1.785   1.014   2.779 -0.1869  0.2311 -1.8745
  252SOL     MW 1008   1.733   0.989   2.848  0.0906  0.2290 -0.3111
  253SOL     OW 1009   1.249   1.781   2.550  0.1884 -0.1378  0.2320
  253SOL    HW1 1010   1.233   1.750   2.462  1.0750  2.9408 -0.4635
  253SOL    HW2 1011   1.171   1.842   2.562 -1.1632 -1.7629 -4.7853
  253SOL     MW 1012   1.236   1.785   2.540  0.1270  0.0540 -0.5217
  254SOL     OW 1013   1.061   1.000   2.262  0.0137 -0.1206 -0.4489
  254SOL    HW1 1014   0.999   0.931   2.275  0.4648  0.6931  1.3207
  254SOL    HW2 1015   1.009   1.075   2.278  2.8584 -0.8103  0.8668
  254SOL     MW 1016   1.046   1.001   2.266  0.4486 -0.1042 -0.0418
  255SOL     OW 1017   0.751   2.575   2.158  0.0330  0.3057 -0.3368
  255SOL    HW1 1018   0.673   2.526   2.185 -1.0166 -0.9855 -0.2472
  255SOL    HW2 1019   0.824   2.553   2.208 -0.4212  1.8763  0.6591
  255SOL     MW 1020   0.751   2.565   2.168 -0.1654  0.3426 -0.1936
  256SOL     OW 1021   1.302   2.697   2.915  0.2352 -0.9191  1.0320
  256SOL    HW1 1022   1.289   2.615   2.869  1.2276 -3.0634 -2.2975
  256SOL    HW2 1023   1.377   2.731   2.866  0.3641 -2.9515  0.7342
  256SOL     MW 1024   1.310   2.690   2.902  0.3831 -1.4702  0.5534
  257SOL     OW 1025   0.126   1.930   0.066 -0.1136 -0.3232 -0.3414
  257SOL    HW1 1026   0.134   1.866   0.135 -0.4423 -2.4152  0.1605
  257SOL    HW2 1027   0.156   1.877  -0.010 -0.9086 -1.3833  1.0865
  257SOL     MW 1028   0.131   1.914   0.065 -0.2618 -0.7391 -0.0868
  258SOL     OW 1029   0.725   1.026   2.464  0.7801 -0.6426  0.1216
  258SOL    HW1 1030   0.746   1.106   2.405  0.2432  1.5759 -0.7248
  258SOL    HW2 1031   0.680   1.079   2.527  0.5889 -0.7697 -2.5817
  258SOL     MW 1032   0.722   1.044   2.465  0.6841 -0.3666 -0.3468
  259SOL     OW 1033   0.820   0.380   2.372  0.6305 -0.9849 -0.1642
  259SOL    HW1 1034   0.734   0.332   2.376  2.6884 -2.6256  3.9763
  259SOL    HW2 1035   0.895   0.328   2.403  3.0150  1.8814 -0.4544
  259SOL     MW 1036   0.818   0.367   2.376  1.2167 -0.8232  0.3438
  260SOL     OW 1037   0.482   0.136   1.590  0.0998 -0.2908 -0.1606
  260SOL    HW1 1038   0.420   0.070   1.550  0.0381 -1.3009 -2.9230
  260SOL    HW2 1039   0.562   0.113   1.546 -3.1343  3.2286 -1.8772
  260SOL     MW 1040   0.484   0.124   1.579 -0.3350  0.0403 -0.7516
  261SOL     OW 1041   1.289   0.771   2.011 -1.0829 -0.5690  0.1218
  261SOL    HW1 1042   1.287   0.789   2.105  0.6463  2.8511 -0.9500
  261SOL    HW2 1043   1.293   0.675   2.011 -2.4897  1.8237  0.1667
  261SOL     MW 1044   1.289   0.761   2.024 -1.0403  0.1979 -0.0137
  262SOL     OW 1045   1.032   0.339   0.171  0.2963 -0.0223  0.1186
  262SOL    HW1 1046   1.127   0.322   0.157 -1.3463 -2.6473 -0.6982
  262SOL    HW2 1047   0.988   0.273   0.114 -1.5487  0.3214 -1.5375
  262SOL     MW 1048   1.039   0.328   0.162 -0.1639 -0.3233 -0.2077
  263SOL     OW 1049   0.415   0.004   2.508 -0.3278 -0.1649 -0.8041
  263SOL    HW1 1050   0.327   0.048   2.497 -1.8323 -1.2278  1.7637
  263SOL    HW2 1051   0.465   0.015   2.424  1.2497 -0.9916 -1.1064
  263SOL     MW 1052   0.410   0.012   2.495 -0.3182 -0.4142 -0.5052
  264SOL     OW 1053   1.476   1.334   1.884 -0.1949  0.2879 -0.1176
  264SOL    HW1 1054   1.415   1.292   1.941 -1.6940 -0.2496 -0.1280
  264SOL    HW2 1055   1.539   1.378   1.936  0.4512  0.6568  0.6523
  264SOL     MW 1056   1.476   1.334   1.898 -0.3074  0.2657 -0.0174
  265SOL     OW 1057   0.689   2.805   2.292  0.2410 -0.3309 -0.1360
  265SOL    HW1 1058   0.728   2.725   2.246  0.7158 -1.2073  0.8771
  265SOL    HW2 1059   0.711   2.803   2.385  1.8664  0.8652 -1.3391
  265SOL     MW 1060   0.697   2.794   2.298  0.5181 -0.2887 -0.1611
  266SOL     OW 1061   0.962   0.717   2.214 -0.0392  0.0122  0.1582
  266SOL    HW1 1062   0.942   0.688   2.122  0.9611  1.4478  0.9490
  266SOL    HW2 1063   1.059   0.723   2.214  1.8914 -0.4205 -1.0908
  266SOL     MW 1064   0.972   0.714   2.202  0.3475  0.1445  0.0977
  267SOL     OW 1065   1.433   1.759   2.790  0.2807  0.4006 -0.0121
  267SOL    HW1 1066   1.500   1.712   2.737 -0.4412 -0.9126  1.6031
  267SOL    HW2 1067   1.375   1.794   2.720 -1.0640  2.4454 -1.4209
  267SOL     MW 1068   1.434   1.758   2.774  0.0081  0.4971  0.0151
  268SOL     OW 1069   0.190   0.828   1.722 -0.1214 -0.3523 -0.4967
  268SOL    HW1 1070   0.153   0.856   1.639  1.0101 -0.1875  0.8883
  268SOL    HW2 1071   0.214   0.739   1.714 -1.7128  0.8970  2.0715
  268SOL     MW 1072   0.188   0.820   1.710 -0.1821 -0.1657  0.0249
  269SOL     OW 1073   1.428   1.948   2.356 -0.3973 -0.4155  0.5088
  269SOL    HW1 1074   1.478   2.032   2.360 -1.0031  2.5728 -0.3672
  269SOL    HW2 1075   1.368   1.967   2.426  2.0181  0.0118 -2.0092
  269SOL     MW 1076   1.427   1.962   2.366 -0.1586  0.0351  0.0610
  270SOL     OW 1077   1.109   0.395   1.627 -0.3068  0.6103  0.0846
  270SOL    HW1 1078   1.058   0.320   1.643  1.1384  0.4009  0.6568
  270SOL    HW2 1079   1.200   0.377   1.652  1.1917 -0.7742  0.2502
  270SOL     MW 1080   1.114   0.382   1.633  0.0816  0.4000  0.1820
  271SOL     OW 1081   0.885   0.008   2.540  0.0312 -0.0161  0.1337
  271SOL    HW1 1082   0.949  -0.034   2.602  1.2420 -0.8546  2.2264
  271SOL    HW2 1083   0.939   0.091   2.508  1.1466  0.7147  0.6057
  271SOL     MW 1084   0.901   0.014   2.544  0.3381 -0.0303  0.4721
  272SOL     OW 1085   1.482   2.882   2.824  0.3061  0.1421  0.5099
  272SOL    HW1 1086   1.415   2.892   2.753 -0.4286  0.9304 -0.9925
  272SOL    HW2 1087   1.509   2.967   2.843  1.8178 -1.5985  0.5072
  272SOL     MW 1088   1.476   2.894   2.817  0.4086  0.0165  0.3113
  273SOL     OW 1089   1.443   0.992   2.832  0.0911  0.1803 -0.5356
  273SOL    HW1 1090   1.535   1.015   2.841  1.3643  0.2426 -1.2909
  273SOL    HW2 1091   1.392   1.047   2.890  0.0610  0.1940 -1.1639
  273SOL     MW 1092   1.448   1.003   2.841  0.2551  0.1903 -0.7181
  274SOL     OW 1093   1.480   0.732   0.121 -0.5245  0.0665 -0.3657
  274SOL    HW1 1094   1.505   0.640   0.107  0.8000 -0.0459  1.3142
  274SOL    HW2 1095   1.400   0.735   0.166  2.0874  0.5320 -1.7021
  274SOL     MW 1096   1.473   0.720   0.125 -0.0052  0.1131 -0.3204
  275SOL     OW 1097   1.722   0.569   1.773  0.2284 -0.3520 -0.5151
  275SOL    HW1 1098   1.783   0.609   1.837 -1.0504  1.4618  0.3667
  275SOL    HW2 1099   1.732   0.479   1.790  0.0595 -0.0237 -0.6315
  275SOL     MW 1100   1.731   0.562   1.784  0.0374 -0.0694 -0.4141
  276SOL     OW 1101   0.293   1.215   1.870  0.3150  0.2648  0.5193
  276SOL    HW1 1102   0.335   1.142   1.924 -1.1517  0.0816  1.5748
  276SOL    HW2 1103   0.226   1.247   1.927  2.9320 -1.1594  1.8176
  276SOL     MW 1104   0.290   1.209   1.885  0.4668  0.0527  0.8298
  277SOL     OW 1105   1.881   1.299   2.431 -0.1321 -0.1317 -0.2501
  277SOL    HW1 1106   1.957   1.299   2.488  3.8890  0.6071 -0.8144
  277SOL    HW2 1107   1.904   1.235   2.363  1.1231  1.5629 -1.1823
  277SOL     MW 1108   1.894   1.290   2.430  0.5641  0.1893 -0.4476
  278SOL     OW 1109   1.454   0.626   1.726 -0.5034 -0.0688  0.3578
  278SOL    HW1 1110   1.408   0.584   1.798 -0.6467  1.3270 -2.1551
  278SOL    HW2 1111   1.546   0.603   1.729  0.4401 -0.2765 -0.4468
  278SOL     MW 1112   1.460   0.617   1.736 -0.3978  0.0879 -0.0799
  279SOL     OW 1113   0.559   0.005   2.282 -0.2166  0.7412  0.3947
  279SOL    HW1 1114   0.650  -0.001   2.264 -2.0749 -1.9255  0.0725
  279SOL    HW2 1115   0.537   0.097   2.281 -1.2339  1.6524  1.3237
  279SOL     MW 1116   0.568   0.016   2.280 -0.5960  0.5096  0.4748
  280SOL     OW 1117   1.444   0.980   2.121 -0.1122 -0.4632 -0.1914
  280SOL    HW1 1118   1.511   0.917   2.081 -0.6579 -2.0249 -3.3980
  280SOL    HW2 1119   1.457   0.958   2.216 -1.1223 -1.8451 -0.4852
  280SOL     MW 1120   1.455   0.968   2.128 -0.3175 -0.8516 -0.6533
  281SOL     OW 1121   1.295   1.307   2.774  0.1568  0.2366  0.2267
  281SOL    HW1 1122   1.387   1.316   2.754 -0.6974 -2.8173  2.3620
  281SOL    HW2 1123   1.287   1.236   2.836 -1.5322  1.1699  2.3859
  281SOL     MW 1124   1.306   1.299   2.779 -0.1788 -0.0432  0.7933
  282SOL     OW 1125   1.118   1.273   1.655 -0.4930  0.1495  0.9562
  282SOL    HW1 1126   1.111   1.373   1.632 -1.1616  3.1532  0.3618
  282SOL    HW2 1127   1.090   1.275   1.748 -0.2922 -1.6961  0.2695
  282SOL     MW 1128   1.114   1.286   1.665 -0.5547  0.3023  0.7871
  283SOL     OW 1129   0.763   1.210   2.981 -0.0207 -0.3557  0.0511
  283SOL    HW1 1130   0.847   1.179   3.017  1.7044 -3.7703  0.9674
  283SOL    HW2 1131   0.749   1.303   3.019 -0.1318  0.6401  1.5987
  283SOL     MW 1132   0.772   1.218   2.991  0.1922 -0.6748  0.3762
  284SOL     OW 1133   0.511   0.640   2.394 -0.5641 -0.0200 -0.0152
  284SOL    HW1 1134   0.585   0.694   2.358 -1.8591 -1.0251 -0.8245
  284SOL    HW2 1135   0.476   0.599   2.317  2.1287  0.7505  0.6179
  284SOL     MW 1136   0.516   0.641   2.379 -0.3796 -0.0510 -0.0384
  285SOL     OW 1137   0.908   0.923   2.802  1.1022  0.6504  0.5051
  285SOL    HW1 1138   0.955   0.972   2.729  0.8764  0.5230 -0.6891
  285SOL    HW2 1139   0.867   0.845   2.768 -0.4871 -1.6933  0.6944
  285SOL     MW 1140   0.909   0.920   2.788  0.8627  0.3244  0.3725
  286SOL     OW 1141   1.183   1.519   2.595  0.0538 -0.1147 -0.3031
  286SOL    HW1 1142   1.217   1.466   2.665  0.4601 -0.7236  0.6742
  286SOL    HW2 1143   1.205   1.612   2.597 -2.5527 -0.6948  3.0829
  286SOL     MW 1144   1.191   1.524   2.604 -0.2365 -0.2716  0.2726
  287SOL     OW 1145   1.101   0.947   0.290 -0.1058 -0.1609 -0.3507
  287SOL    HW1 1146   1.096   0.993   0.377 -0.6383  1.8324  0.8855
  287SOL    HW2 1147   1.044   1.001   0.235 -0.9693  2.3627  1.9872
  287SOL     MW 1148   1.093   0.960   0.294 -0.2900  0.4351  0.1209
  288SOL     OW 1149   1.533   0.592   2.101  0.1028 -0.7294 -0.0792
  288SOL    HW1 1150   1.501   0.611   2.190 -0.0481  0.3091  0.9412
  288SOL    HW2 1151   1.573   0.673   2.062 -0.2215 -1.7988  0.9420
  288SOL     MW 1152   1.534   0.605   2.108  0.0401 -0.7335  0.1902
  289SOL     OW 1153   0.977   1.036   2.570 -0.4570  0.2547  0.0933
  289SOL    HW1 1154   1.017   0.964   2.525 -0.0323  2.4099 -1.3208
  289SOL    HW2 1155   0.883   1.042   2.549  0.0930  0.1162 -0.5206
  289SOL     MW 1156   0.970   1.028   2.562 -0.3284  0.5208 -0.1743
  290SOL     OW 1157   0.856   0.641   1.583 -1.0797  0.0553  0.8303
  290SOL    HW1 1158   0.902   0.594   1.509 -2.2205 -2.3713  0.2311
  290SOL    HW2 1159   0.928   0.650   1.647 -1.1554  0.5484 -0.9569
  290SOL     MW 1160   0.871   0.636   1.581 -1.2402 -0.1998  0.5154
  291SOL     OW 1161   0.215   0.322   0.139  0.1420 -0.0064 -0.4755
  291SOL    HW1 1162   0.293   0.263   0.157  1.6612 -2.3937 -2.1613
  291SOL    HW2 1163   0.172   0.260   0.072 -2.9233  0.0474 -3.3397
  291SOL     MW 1164   0.220   0.306   0.133 -0.0620 -0.3143 -1.0758
  292SOL     OW 1165   1.009   0.597   0.097  0.1332  0.3845 -0.0053
  292SOL    HW1 1166   1.083   0.634   0.137 -1.0870  0.6077 -0.6700
  292SOL    HW2 1167   1.023   0.503   0.127 -0.0326  0.2410  0.5223
  292SOL     MW 1168   1.020   0.589   0.106 -0.0497  0.3950 -0.0234
  293SOL     OW 1169   0.180   0.128   2.440  0.5116 -0.0549 -0.3159
  293SOL    HW1 1170   0.130   0.088   2.368 -1.6647 -2.7224  1.4441
  293SOL    HW2 1171   0.117   0.142   2.510  0.1858  1.2167  1.6420
  293SOL     MW 1172   0.165   0.124   2.440  0.1815 -0.2391  0.1747
  294SOL     OW 1173   1.522   0.650   2.371 -0.5370  0.2035 -0.4699
  294SOL    HW1 1174   1.533   0.721   2.436 -0.8359 -4.0713 -0.5469
  294SOL    HW2 1175   1.496   0.577   2.422 -1.3518  2.4376  3.8474
  294SOL     MW 1176   1.520   0.650   2.387 -0.6839 -0.0657  0.0896
  295SOL     OW 1177   0.926   0.610   2.524 -0.1183 -0.2158 -0.1593
  295SOL    HW1 1178   0.866   0.559   2.472  2.8126  1.0449 -1.8274
  295SOL    HW2 1179   0.865   0.629   2.601  0.3693  1.2866  2.6568
  295SOL     MW 1180   0.910   0.606   2.527  0.3328  0.1488 -0.0078
  296SOL     OW 1181   1.300   0.232   2.054  0.1006  0.3385  0.1974
  296SOL    HW1 1182   1.367   0.166   2.027  0.5866  0.2909 -0.4059
  296SOL    HW2 1183   1.282   0.232   2.152 -2.9729 -1.4245 -0.4556
  296SOL     MW 1184   1.307   0.223   2.063 -0.2408  0.0996  0.0316
  297SOL     OW 1185   1.410   0.362   1.626 -0.4179  0.0222  0.2300
  297SOL    HW1 1186   1.427   0.450   1.658  2.7980  0.4803  1.2063
  297SOL    HW2 1187   1.485   0.312   1.650  0.0225 -0.8312  0.1819
  297SOL     MW 1188   1.422   0.367   1.633  0.0645 -0.0299  0.3525
  298SOL     OW 1189   1.630   0.829   1.991  0.7804 -0.5142  0.1872
  298SOL    HW1 1190   1.618   0.885   1.909 -1.5662 -0.9563 -0.0205
  298SOL    HW2 1191   1.722   0.840   2.015  1.3689 -0.2718 -0.7271
  298SOL     MW 1192   1.641   0.838   1.983  0.5484 -0.5405  0.0392
  299SOL     OW 1193   0.578   1.085   0.048  0.8122  0.8518 -0.3281
  299SOL    HW1 1194   0.653   1.125   0.002 -0.6773 -0.6911  1.2354
  299SOL    HW2 1195   0.514   1.084  -0.023  0.6942 -1.4591  0.1569
  299SOL     MW 1196   0.580   1.090   0.033  0.6001  0.3434 -0.0578
  300SOL     OW 1197   1.266   1.153   2.562  0.8613  0.2015 -0.2105
  300SOL    HW1 1198   1.205   1.082   2.597  0.2004  2.9116  1.4593
  300SOL    HW2 1199   1.274   1.205   2.642  1.0197 -1.3761  0.8886
  300SOL     MW 1200   1.259   1.150   2.577  0.7950  0.3509  0.1548
  301SOL     OW 1201   1.434   0.930   0.660 -0.3696 -0.8417 -0.1676
  301SOL    HW1 1202   1.451   0.961   0.751 -0.5072 -0.7665  1.9082
  301SOL    HW2 1203   1.374   0.856   0.663  3.3598 -0.1771 -1.6374
  301SOL     MW 1204   1.428   0.924   0.673  0.1043 -0.7441 -0.0876
  302SOL     OW 1205   0.149   1.482   2.016  0.1620 -0.3640  0.2288
  302SOL    HW1 1206   0.134   1.410   2.076 -0.4274 -0.8375  0.7056
  302SOL    HW2 1207   0.097   1.562   2.053 -3.9465  0.2438  1.5813
  302SOL     MW 1208   0.140   1.483   2.029 -0.4579 -0.3463  0.4701
  303SOL     OW 1209   0.376   1.713   2.649  0.1527  0.4963  0.2375
  303SOL    HW1 1210   0.325   1.684   2.579  1.7526  0.5983  0.2525
  303SOL    HW2 1211   0.324   1.783   2.681 -2.0557 -0.5571 -1.4688
  303SOL     MW 1212   0.362   1.719   2.644  0.0724  0.3708  0.0143
  304SOL     OW 1213   0.591   2.082   2.352 -0.3146 -0.3454 -0.2571
  304SOL    HW1 1214   0.646   2.148   2.299 -0.5493 -0.0278  1.0913
  304SOL    HW2 1215   0.641   1.999   2.351  0.8353  0.1450  1.4583
  304SOL     MW 1216   0.605   2.080   2.345 -0.1939 -0.2388  0.1471
  305SOL     OW 1217   1.102   0.596   0.504  0.5878  0.1407  0.0903
  305SOL    HW1 1218   1.009   0.585   0.491  1.5188 -0.4278 -0.9604
  305SOL    HW2 1219   1.135   0.506   0.527  3.4669 -2.6351 -0.4933
  305SOL     MW 1220   1.094   0.582   0.505  1.0905 -0.3006 -0.1253
  306SOL     OW 1221   1.191   1.472   0.275  0.0735  0.2823  0.1915
  306SOL    HW1 1222   1.228   1.383   0.300  0.7124 -0.1731  1.1049
  306SOL    HW2 1223   1.232   1.497   0.199 -3.7164 -0.4683 -1.8911
  306SOL     MW 1224   1.201   1.464   0.268 -0.3422  0.1232  0.0372
  307SOL     OW 1225   1.327   0.501   1.937 -0.2114  0.4703  0.1041
  307SOL    HW1 1226   1.307   0.413   1.949  3.7402  1.0974  0.8111
  307SOL    HW2 1227   1.400   0.503   1.999 -2.6029  1.4991  1.2456
  307SOL     MW 1228   1.334   0.489   1.947 -0.0056  0.6888  0.3480
  308SOL     OW 1229   2.145   0.566   2.720 -0.2282 -0.5172  0.3587
  308SOL    HW1 1230   2.239   0.567   2.752 -2.3867 -0.6826  0.9699
  308SOL    HW2 1231   2.131   0.659   2.716  0.2256 -0.3070  1.1618
  308SOL     MW 1232   2.156   0.578   2.724 -0.4531 -0.5113  0.5453
  309SOL     OW 1233   0.447   0.369   0.367  0.1972  0.8075  0.2801
  309SOL    HW1 1234   0.537   0.363   0.400  0.2422  1.6155 -2.2634
  309SOL    HW2 1235   0.436   0.315   0.290 -1.2406  0.0677  2.1206
  309SOL     MW 1236   0.457   0.361   0.361  0.0134  0.8165  0.1873
  310SOL     OW 1237   0.506   0.631   1.942  0.0632  0.2129 -0.2017
  310SOL    HW1 1238   0.554   0.545   1.930  1.2664  2.7551  0.4197
  310SOL    HW2 1239   0.563   0.691   1.902 -0.2999 -1.4841  2.0231
  310SOL     MW 1240   0.520   0.628   1.935  0.1741  0.3244  0.1738
  311SOL     OW 1241   1.942   0.694   1.897 -0.3435  0.3346 -0.2424
  311SOL    HW1 1242   1.915   0.699   1.988 -0.5854 -0.9653  0.1227
  311SOL    HW2 1243   2.002   0.618   1.889  1.7635 -1.4759 -0.3179
  311SOL     MW 1244   1.946   0.685   1.908 -0.0974 -0.0758 -0.2042
  312SOL     OW 1245   1.733   2.554   0.119  1.4298  0.5948 -0.1048
  312SOL    HW1 1246   1.801   2.574   0.189  1.6700  1.0364 -0.2912
  312SOL    HW2 1247   1.642   2.578   0.147 -2.4808 -1.0939  0.2740
  312SOL     MW 1248   1.730   2.560   0.132  0.9455  0.4302 -0.0794
  313SOL     OW 1249   0.086   1.175   2.980  0.0457 -0.6291  0.2240
  313SOL    HW1 1250   0.092   1.189   3.075 -0.5174 -1.4131  0.1656
  313SOL    HW2 1251   0.159   1.216   2.940 -1.8206 -1.7909  0.3245
  313SOL     MW 1252   0.097   1.182   2.987 -0.2748 -0.8858  0.2295
  314SOL     OW 1253   2.130   2.948   2.998  0.6141 -0.2889 -0.2031
  314SOL    HW1 1254   2.085   3.008   2.937  0.8148  0.0469 -0.3282
  314SOL    HW2 1255   2.192   3.021   3.018  0.6636  1.1491 -1.5104
  314SOL     MW 1256   2.132   2.966   2.992  0.6471 -0.0549 -0.3921
  315SOL     OW 1257   1.516   1.975   3.086  0.0709  0.3156 -0.1910
  315SOL    HW1 1258   1.446   2.024   3.130  2.1554 -0.1608  0.5272
  315SOL    HW2 1259   1.537   2.031   3.015 -1.6787 -2.5721  0.7069
  315SOL     MW 1260   1.509   1.989   3.083  0.1151 -0.1283  0.0222
  316SOL     OW 1261   1.281   0.679   2.712  0.1702 -0.1441 -0.0069
  316SOL    HW1 1262   1.366   0.715   2.682 -0.2823  4.0721  1.9915
  316SOL    HW2 1263   1.276   0.683   2.805  1.4128  1.2585  0.0264
  316SOL     MW 1264   1.292   0.684   2.721  0.2745  0.5973  0.2612
  317SOL     OW 1265   0.736   1.474   2.593 -0.0748 -0.4490 -0.6063
  317SOL    HW1 1266   0.811   1.410   2.580 -0.8629 -2.1416  0.8377
  317SOL    HW2 1267   0.725   1.525   2.511 -1.4607 -0.0179 -0.8544
  317SOL     MW 1268   0.745   1.472   2.580 -0.3617 -0.6154 -0.4485
  318SOL     OW 1269   1.356   0.365   2.897 -0.5232  0.0787  0.1060
  318SOL    HW1 1270   1.261   0.398   2.887 -0.4215 -3.9359 -0.3963
  318SOL    HW2 1271   1.416   0.436   2.931 -1.6199 -0.1307 -0.4513
  318SOL     MW 1272   1.351   0.379   2.900 -0.6545 -0.4786 -0.0338
  319SOL     OW 1273   0.775   0.410   2.858 -0.1727  0.1165 -0.1640
  319SOL    HW1 1274   0.738   0.367   2.782 -0.6158 -0.5090  2.7677
  319SOL    HW2 1275   0.718   0.382   2.935  2.5558  0.6106 -0.1739
  319SOL     MW 1276   0.763   0.400   2.858  0.1289  0.0991  0.2215
  320SOL     OW 1277   1.085   1.342   1.943  0.3327  0.2807 -0.0569
  320SOL    HW1 1278   1.104   1.293   2.021 -1.2151 -1.7796 -0.7124
  320SOL    HW2 1279   1.146   1.415   1.942  1.9165  0.0763 -0.2592
  320SOL     MW 1280   1.096   1.345   1.953  0.3374 -0.0181 -0.1701
  321SOL     OW 1281   1.103   0.920   3.019  0.1138 -0.5664 -0.0428
  321SOL    HW1 1282   1.034   0.905   2.955 -0.5622 -1.2847  1.3313
  321SOL    HW2 1283   1.175   0.864   2.986 -0.5676 -0.6573 -1.6183
  321SOL     MW 1284   1.104   0.911   3.006 -0.0653 -0.6731 -0.0694
  322SOL     OW 1285   1.289   0.830   1.705  0.3343  0.3541 -0.5279
  322SOL    HW1 1286   1.362   0.767   1.725 -0.7263  1.2514  0.6887
  322SOL    HW2 1287   1.291   0.875   1.791 -0.9059 -0.8535  0.8098
  322SOL     MW 1288   1.299   0.827   1.719  0.0308  0.3131 -0.1909
  323SOL     OW 1289   1.256   1.565   1.900 -0.1308 -0.7031  0.7081
  323SOL    HW1 1290   1.255   1.550   1.802  1.9704 -0.8329 -1.5459
  323SOL    HW2 1291   1.201   1.647   1.915  1.6601  0.7547 -0.6427
  323SOL     MW 1292   1.248   1.574   1.889  0.3827 -0.5279  0.2325
  324SOL     OW 1293   1.498   0.964   2.398 -0.1375 -0.2764  0.5539
  324SOL    HW1 1294   1.416   1.002   2.438  3.8272 -0.9222 -2.6721
  324SOL    HW2 1295   1.552   1.044   2.403  0.0742 -1.9291  0.0352
  324SOL     MW 1296   1.495   0.980   2.404  0.4135 -0.5797  0.0598
  325SOL     OW 1297   1.069   0.430   2.941  0.3813 -0.6126  0.4364
  325SOL    HW1 1298   1.065   0.502   3.006  1.6631 -0.7303  1.2197
  325SOL    HW2 1299   0.977   0.433   2.918 -2.9187  0.3918 -1.0949
  325SOL     MW 1300   1.056   0.440   2.947  0.1150 -0.4956  0.3377
  326SOL     OW 1301   0.448   1.364   2.213  0.2096 -0.0834  0.4287
  326SOL    HW1 1302   0.515   1.315   2.170  2.1237  1.8131  0.3025
  326SOL    HW2 1303   0.465   1.457   2.191  2.0959  2.5654  1.9305
  326SOL     MW 1304   0.459   1.370   2.204  0.7110  0.5163  0.6102
  327SOL     OW 1305   1.929   0.799   2.430 -0.0988 -0.2781 -0.1543
  327SOL    HW1 1306   1.908   0.764   2.519  0.6876  1.3589 -0.4484
  327SOL    HW2 1307   2.017   0.836   2.436  1.3105  1.0290  0.3685
  327SOL     MW 1308   1.938   0.799   2.442  0.1909  0.1104 -0.1241
  328SOL     OW 1309   0.161   1.273   2.212 -0.2820  0.5057 -0.3622
  328SOL    HW1 1310   0.121   1.201   2.161  0.3509  0.4292  0.5486
  328SOL    HW2 1311   0.255   1.248   2.225 -1.6368  1.8045  0.2057
  328SOL     MW 1312   0.168   1.260   2.207 -0.3773  0.6670 -0.1671
  329SOL     OW 1313   0.130   0.144   1.325  0.8489  0.7301 -0.6816
  329SOL    HW1 1314   0.086   0.157   1.410 -0.3514  1.5552 -1.3077
  329SOL    HW2 1315   0.213   0.180   1.320 -2.5306  0.3986 -1.9392
  329SOL     MW 1316   0.135   0.151   1.336  0.2446  0.7952 -0.9301
  330SOL     OW 1317   0.348   3.081   2.046  0.6028 -0.1329 -0.1268
  330SOL    HW1 1318   0.428   3.090   2.095  3.6779  2.2382 -0.3499
  330SOL    HW2 1319   0.279   3.073   2.112 -1.0480  0.6984  3.8551
  330SOL     MW 1320   0.349   3.081   2.061  0.7907  0.2896  0.3692
  331SOL     OW 1321   0.868   1.191   2.293  0.1352  0.7244 -0.2530
  331SOL    HW1 1322   0.822   1.225   2.214  2.4593 -0.5004 -5.2453
  331SOL    HW2 1323   0.889   1.262   2.352 -1.3031  1.4420  2.4525
  331SOL     MW 1324   0.865   1.204   2.291  0.2521  0.6575 -0.5547
  332SOL     OW 1325   1.324   1.769   3.051 -0.2128  0.0915 -0.3803
  332SOL    HW1 1326   1.357   1.777   2.961  2.1612  2.4975 -0.4483
  332SOL    HW2 1327   1.373   1.845   3.086  2.8934  1.0074  1.6785
  332SOL     MW 1328   1.335   1.780   3.044  0.5103  0.5298 -0.1177
  333SOL     OW 1329   1.739   1.395   2.927 -0.1036 -0.2442  0.6464
  333SOL    HW1 1330   1.835   1.414   2.947  3.1610 -1.5730  2.9972
  333SOL    HW2 1331   1.710   1.347   3.000  0.5818  1.1764 -0.9055
  333SOL     MW 1332   1.748   1.391   2.940  0.4176 -0.2321  0.7518
  334SOL     OW 1333   1.390  -0.004   2.632  0.1459  0.0302 -0.2503
  334SOL    HW1 1334   1.305   0.014   2.671  2.2075 -1.8979  0.0661
  334SOL    HW2 1335   1.453   0.064   2.655 -1.5047  0.5180 -0.7040
  334SOL     MW 1336   1.387   0.008   2.640  0.2001 -0.1599 -0.2684
  335SOL     OW 1337   1.337   0.783   2.985  0.5749 -0.2476  0.4174
  335SOL    HW1 1338   1.368   0.757   3.071  3.1893 -1.0594 -0.9244
  335SOL    HW2 1339   1.407   0.832   2.950  1.2122 -0.7483  0.5435
  335SOL     MW 1340   1.350   0.786   2.992  1.0039 -0.4208  0.2570
  336SOL     OW 1341   0.952   1.053   1.978  0.1089  0.1155  0.2861
  336SOL    HW1 1342   0.974   1.143   1.995  0.1022 -2.6341 -0.7398
  336SOL    HW2 1343   1.035   1.009   1.970  1.6092  1.7996  2.7269
  336SOL     MW 1344   0.966   1.059   1.979  0.3059 -0.0251  0.4728
  337SOL     OW 1345   0.592   1.813   2.770  0.2360 -0.2118 -0.0000
  337SOL    HW1 1346   0.547   1.746   2.713  1.8851  1.0232 -1.3130
  337SOL    HW2 1347   0.679   1.772   2.769  1.9069 -1.9113 -3.2315
  337SOL     MW 1348   0.598   1.799   2.762  0.6741 -0.2731 -0.5996
  338SOL     OW 1349   1.118   0.801   2.514 -0.0105 -0.0698 -0.4218
  338SOL    HW1 1350   1.053   0.725   2.507 -0.1667 -1.0452  0.9896
  338SOL    HW2 1351   1.175   0.769   2.591  0.8058 -3.2529  0.4907
  338SOL     MW 1352   1.117   0.787   2.524  0.0766 -0.6185 -0.1152
  339SOL     OW 1353   1.542   1.016   1.808 -0.3584  0.1788 -0.0704
  339SOL    HW1 1354   1.481   1.024   1.733 -0.9516 -0.9387  1.7174
  339SOL    HW2 1355   1.484   1.042   1.881  0.9837  2.2161  2.5260
  339SOL     MW 1356   1.526   1.020   1.807 -0.2596  0.3002  0.5081
  340SOL     OW 1357   1.369   1.484   0.055 -0.1542  0.4045  0.5332
  340SOL    HW1 1358   1.391   1.560   0.009 -1.5453  0.1165  2.9044
  340SOL    HW2 1359   1.446   1.436   0.073 -1.4194  0.7449 -0.1436
  340SOL     MW 1360   1.382   1.488   0.051 -0.5047  0.4114  0.7568
  341SOL     OW 1361   0.151   1.439   2.701 -0.0204 -0.6029  0.2256
  341SOL    HW1 1362   0.228   1.383   2.696  1.5095 -2.1482  1.0032
  341SOL    HW2 1363   0.079   1.392   2.658 -2.5013  0.8222  1.1177
  341SOL     MW 1364   0.152   1.425   2.695 -0.1459 -0.6188  0.4459
  342SOL     OW 1365   1.296   0.335   0.085 -0.3217  0.3782  0.3359
  342SOL    HW1 1366   1.364   0.376   0.135 -0.5485  2.3557 -1.8142
  342SOL    HW2 1367   1.330   0.323  -0.004  0.5533  2.0063  0.4827
  342SOL     MW 1368   1.309   0.339   0.080 -0.2362  0.8540  0.0716
  343SOL     OW 1369   0.224   0.318   2.148  0.2360 -0.5595  0.2145
  343SOL    HW1 1370   0.298   0.263   2.129 -0.2273  3.3902 -0.9779
  343SOL    HW2 1371   0.154   0.280   2.092 -1.0774 -0.3536 -1.2014
  343SOL     MW 1372   0.225   0.305   2.138  0.0016 -0.0112 -0.1296
  344SOL     OW 1373   1.700   2.070   0.192  0.0446  0.1276  0.1398
  344SOL    HW1 1374   1.729   2.143   0.134 -1.0339  2.4597 -0.0052
  344SOL    HW2 1375   1.632   2.022   0.136  1.4066 -0.7543 -2.7656
  344SOL     MW 1376   1.695   2.073   0.177  0.0820  0.3189 -0.2627
  345SOL     OW 1377   0.750   1.589   2.341 -0.1488 -0.0311  0.8140
  345SOL    HW1 1378   0.662   1.593   2.301 -0.6212 -0.1594 -1.5261
  345SOL    HW2 1379   0.820   1.564   2.280 -0.4357  1.7175  1.8549
  345SOL     MW 1380   0.747   1.586   2.328 -0.2490  0.1827  0.6426
  346SOL     OW 1381   1.774   1.072   3.087 -0.0435 -0.5308  0.2985
  346SOL    HW1 1382   1.871   1.074   3.080  0.5826 -0.1622 -0.2432
  346SOL    HW2 1383   1.753   1.038   3.173 -2.5514  1.5020 -0.5900
  346SOL     MW 1384   1.784   1.067   3.097 -0.2918 -0.2139  0.1098
  347SOL     OW 1385   1.281   0.748   2.296 -0.0403 -0.3516  0.0118
  347SOL    HW1 1386   1.362   0.717   2.332  0.4835 -1.8017  1.5085
  347SOL    HW2 1387   1.224   0.781   2.371 -1.0070 -2.8258  1.5238
  347SOL     MW 1388   1.284   0.748   2.311 -0.0987 -0.8694  0.4088
  348SOL     OW 1389   1.430   2.663   1.885 -0.0859  0.2823  0.5023
  348SOL    HW1 1390   1.433   2.576   1.921  1.1959 -0.4214 -1.9623
  348SOL    HW2 1391   1.474   2.720   1.947  1.9388  0.9226  0.3351
  348SOL     MW 1392   1.436   2.659   1.898  0.3504  0.2739  0.1551
  349SOL     OW 1393   1.508   0.279   2.694 -0.0909  0.3780  0.1449
  349SOL    HW1 1394   1.443   0.315   2.757 -1.8512 -2.2225 -2.3672
  349SOL    HW2 1395   1.590   0.295   2.732 -0.6236  0.1735 -1.7366
  349SOL     MW 1396   1.510   0.286   2.707 -0.3934  0.0079 -0.4348
  350SOL     OW 1397   1.887   0.618   2.674  0.4544  0.1695  0.6493
  350SOL    HW1 1398   1.841   0.557   2.618 -2.1316  1.5591 -1.9391
  350SOL    HW2 1399   1.975   0.582   2.691  0.0971  2.6218 -2.4114
  350SOL     MW 1400   1.892   0.605   2.669  0.0661  0.6764 -0.0960
  351SOL     OW 1401   0.051   0.955   1.493 -0.1611  1.2691  0.1483
  351SOL    HW1 1402  -0.017   0.952   1.566 -2.5310 -1.1965 -2.3998
  351SOL    HW2 1403   0.109   1.026   1.514 -1.1403 -1.5077 -0.8288
  351SOL     MW 1404   0.050   0.964   1.505 -0.6030  0.5774 -0.3168
  352SOL     OW 1405   0.832   1.689   2.723 -0.7056  0.1151  0.0221
  352SOL    HW1 1406   0.880   1.647   2.798  0.3038 -1.6738  1.4900
  352SOL    HW2 1407   0.802   1.617   2.667  2.8037  1.5390  1.1314
  352SOL     MW 1408   0.835   1.674   2.726 -0.1094  0.0669  0.3621
  353SOL     OW 1409   3.075   2.489   2.653 -0.2168  0.1609 -0.4430
  353SOL    HW1 1410   3.167   2.514   2.649 -1.7025  0.1845  0.9960
  353SOL    HW2 1411   3.026   2.569   2.643  0.8289  1.4255 -1.6165
  353SOL     MW 1412   3.080   2.503   2.651 -0.2749  0.3309 -0.4080
  354SOL     OW 1413   0.314   2.537   0.831 -0.9086 -0.0346 -0.3603
  354SOL    HW1 1414   0.365   2.520   0.908 -1.5814 -0.3270 -0.6563
  354SOL    HW2 1415   0.277   2.452   0.804 -1.3312 -0.2353 -1.3625
  354SOL     MW 1416   0.316   2.523   0.838 -1.0531 -0.0996 -0.5316
  355SOL     OW 1417   0.039   2.280   0.378  0.5672  0.1006  0.5472
  355SOL    HW1 1418  -0.017   2.200   0.391  1.2318  0.3159 -1.6574
  355SOL    HW2 1419   0.028   2.316   0.468 -0.2783 -1.2330  2.0842
  355SOL     MW 1420   0.030   2.274   0.392  0.5434 -0.0469  0.4592
  356SOL     OW 1421   0.805   2.850   0.985 -0.1114 -0.7371 -0.0994
  356SOL    HW1 1422   0.838   2.850   0.894 -0.6524  0.3338 -1.2970
  356SOL    HW2 1423   0.709   2.825   0.988  2.1370 -0.9526  0.5395
  356SOL     MW 1424   0.796   2.847   0.973  0.1139 -0.6243 -0.1731
  357SOL     OW 1425   1.794   2.938   0.429 -0.3732  0.0263  0.0458
  357SOL    HW1 1426   1.733   2.864   0.453  3.1057 -3.3780 -1.5492
  357SOL    HW2 1427   1.874   2.891   0.402  0.6622 -3.0422 -2.5579
  357SOL     MW 1428   1.797   2.922   0.428  0.2225 -0.8277 -0.5082
  358SOL     OW 1429   0.503   0.115   1.100 -0.6407  0.5964  0.1663
  358SOL    HW1 1430   0.593   0.111   1.077 -1.0953 -1.8596  1.9141
  358SOL    HW2 1431   0.451   0.136   1.019  1.6291 -0.9516  0.9071
  358SOL     MW 1432   0.508   0.117   1.086 -0.4012  0.0681  0.4947
  359SOL     OW 1433   0.889   2.934   1.853 -0.0852  0.5848 -0.1801
  359SOL    HW1 1434   0.870   2.840   1.878  0.3252  0.1197 -1.3971
  359SOL    HW2 1435   0.948   2.909   1.781 -1.0943  2.2282  0.9931
  359SOL     MW 1436   0.894   2.919   1.847 -0.1642  0.7403 -0.1859
  360SOL     OW 1437   0.536   2.743   0.993 -0.4043  0.0351 -0.5433
  360SOL    HW1 1438   0.541   2.714   0.899  0.2021 -1.9169 -2.7504
  360SOL    HW2 1439   0.558   2.665   1.046  1.8347 -1.6174 -0.6286
  360SOL     MW 1440   0.540   2.729   0.988 -0.0289 -0.4404 -0.8457
  361SOL     OW 1441   0.175   2.693   1.325 -0.6505  0.0786 -0.0773
  361SOL    HW1 1442   0.146   2.759   1.390  0.5179 -0.0037 -0.4328
  361SOL    HW2 1443   0.268   2.667   1.350 -1.2203  0.1768 -0.5618
  361SOL     MW 1444   0.183   2.698   1.337 -0.5715  0.0807 -0.1881
  362SOL     OW 1445   1.479   2.441   0.620 -0.2410  0.0907 -0.2872
  362SOL    HW1 1446   1.506   2.370   0.680  0.6178  1.6072  1.5053
  362SOL    HW2 1447   1.492   2.516   0.677  3.3821  0.9023  1.2617
  362SOL     MW 1448   1.484   2.442   0.635  0.3503  0.3979  0.1536
  363SOL     OW 1449   0.305   3.072   0.715  0.2168 -0.0393 -0.3815
  363SOL    HW1 1450   0.289   3.015   0.796 -0.7549 -0.6378 -0.5289
  363SOL    HW2 1451   0.221   3.081   0.676 -1.0450 -1.0823  0.0128
  363SOL     MW 1452   0.292   3.065   0.721 -0.0779 -0.2559 -0.3489
  364SOL     OW 1453   0.692   0.173   0.224 -0.5763 -0.2813 -0.3041
  364SOL    HW1 1454   0.646   0.091   0.256 -3.1305 -1.9686  1.2990
  364SOL    HW2 1455   0.633   0.223   0.164  0.3952  0.7864  0.0973
  364SOL     MW 1456   0.678   0.169   0.220 -0.7851 -0.3630 -0.0397
  365SOL     OW 1457   0.979   1.968   1.067 -0.4052  0.2853  0.3495
  365SOL    HW1 1458   0.952   2.057   1.052 -0.0892 -3.2205  0.1688
  365SOL    HW2 1459   0.904   1.919   1.027 -0.5136 -0.4719 -0.4863
  365SOL     MW 1460   0.965   1.974   1.060 -0.3778 -0.2772  0.2154
  366SOL     OW 1461   2.826   2.626   1.018  0.4202  0.2450 -0.0193
  366SOL    HW1 1462   2.919   2.646   1.050  2.4716 -0.8880  0.0332
  366SOL    HW2 1463   2.849   2.639   0.929  0.7584  0.2099  0.6044
  366SOL     MW 1464   2.841   2.631   1.010  0.7355  0.0909  0.0699
  367SOL     OW 1465   1.252   2.934   0.906 -0.1146  0.0448 -0.6938
  367SOL    HW1 1466   1.271   3.018   0.860  0.9414  3.5186  1.0866
  367SOL    HW2 1467   1.186   2.885   0.853  1.1814  0.2978 -1.8842
  367SOL     MW 1468   1.246   2.938   0.893  0.1957  0.5365 -0.6159
  368SOL     OW 1469   1.633   0.403   0.682  0.2307  0.0570  0.1872
  368SOL    HW1 1470   1.709   0.344   0.695  2.2113  1.1610  0.4982
  368SOL    HW2 1471   1.674   0.494   0.689 -1.3730 -1.4943 -0.3028
  368SOL     MW 1472   1.648   0.407   0.685  0.2804 -0.0020  0.1636
  369SOL     OW 1473   0.142   2.531   1.653 -0.5908  0.2940 -0.0102
  369SOL    HW1 1474   0.225   2.503   1.696  1.2397 -1.1956 -1.0030
  369SOL    HW2 1475   0.110   2.608   1.687  1.3976 -3.3716 -1.5766
  369SOL     MW 1476   0.149   2.537   1.663 -0.0870 -0.3862 -0.3479
  370SOL     OW 1477   0.747   0.047   0.925 -0.1558  0.8952  0.4701
  370SOL    HW1 1478   0.816   0.113   0.911 -0.4160  0.7526  0.6939
  370SOL    HW2 1479   0.781  -0.038   0.955  1.7535 -1.5452 -1.8227
  370SOL     MW 1480   0.760   0.044   0.927  0.0618  0.5544  0.1971
  371SOL     OW 1481   1.337   2.939   1.505 -0.4302  0.1044 -0.3381
  371SOL    HW1 1482   1.277   2.873   1.469  0.9222 -0.2861 -1.5373
  371SOL    HW2 1483   1.343   3.005   1.430  0.5972  0.4318 -2.0964
  371SOL     MW 1484   1.330   2.939   1.490 -0.1162  0.0960 -0.7283
  372SOL     OW 1485   0.774   2.335   0.461 -0.2608 -0.0741  0.6871
  372SOL    HW1 1486   0.742   2.247   0.473  2.5211 -0.4272 -0.8756
  372SOL    HW2 1487   0.804   2.336   0.368 -0.1020 -0.4529 -1.9058
  372SOL     MW 1488   0.774   2.324   0.450  0.1272 -0.1707  0.1388
  373SOL     OW 1489   2.751   3.048   1.439 -0.1818 -0.3105  0.4166
  373SOL    HW1 1490   2.821   3.003   1.398 -0.8736  1.7784  1.1463
  373SOL    HW2 1491   2.740   3.128   1.387 -0.6264 -0.9887  1.0107
  373SOL     MW 1492   2.759   3.052   1.427 -0.3318 -0.1243  0.5913
  374SOL     OW 1493   1.521   0.445   0.218 -0.6214  0.2039 -0.2505
  374SOL    HW1 1494   1.587   0.379   0.187 -2.9300 -0.0634 -1.7755
  374SOL    HW2 1495   1.490   0.423   0.306  0.8797 -2.9490  1.0616
  374SOL     MW 1496   1.526   0.434   0.225 -0.7279 -0.2473 -0.2786
  375SOL     OW 1497   1.049   2.078   2.283 -0.3751  0.0320  0.8195
  375SOL    HW1 1498   1.101   2.052   2.354 -2.4052  0.5251 -2.4488
  375SOL    HW2 1499   1.071   2.026   2.207 -0.1894  0.8668  1.3566
  375SOL     MW 1500   1.059   2.068   2.283 -0.6184  0.2072  0.4591
  376SOL     OW 1501   0.620   2.571   0.064  0.4232  0.2974 -0.2923
  376SOL    HW1 1502   0.560   2.542   0.147 -2.6385  1.7726 -1.0662
  376SOL    HW2 1503   0.608   2.511  -0.005  0.6999  2.7761 -0.0436
  376SOL     MW 1504   0.610   2.559   0.066  0.0558  0.8191 -0.3616
  377SOL     OW 1505   1.308   2.007   0.833 -0.5143  0.0578  0.4150
  377SOL    HW1 1506   1.229   2.007   0.776 -2.1129 -1.2175  2.9505
  377SOL    HW2 1507   1.280   1.962   0.915  1.5165 -0.0905  2.1589
  377SOL     MW 1508   1.294   2.001   0.837 -0.4573 -0.1300  0.9796
  378SOL     OW 1509   1.022   2.808   1.635 -0.4128 -0.1566  0.0293
  378SOL    HW1 1510   0.984   2.724   1.669 -2.4393  0.0838 -0.3810
  378SOL    HW2 1511   0.963   2.830   1.562 -3.0015 -0.4461  0.6115
  378SOL     MW 1512   1.009   2.800   1.630 -1.0217 -0.1631  0.0520
  379SOL     OW 1513   1.150   1.780   2.262  0.1350 -0.2545 -0.0655
  379SOL    HW1 1514   1.057   1.778   2.281  0.1259  3.1601  0.4708
  379SOL    HW2 1515   1.180   1.693   2.228 -0.8643 -1.5655 -0.1675
  379SOL     MW 1516   1.141   1.768   2.260  0.0020  0.0230 -0.0082
  380SOL     OW 1517   0.781   0.057   1.570 -0.6287 -0.3220  0.1649
  380SOL    HW1 1518   0.837   0.028   1.503 -1.8141  0.8047 -2.2617
  380SOL    HW2 1519   0.842   0.076   1.641 -0.0888 -0.8416  1.8856
  380SOL     MW 1520   0.796   0.055   1.571 -0.7139 -0.2419  0.0718
  381SOL     OW 1521   0.824   2.045   0.768 -0.2939  0.6653 -0.4616
  381SOL    HW1 1522   0.913   2.001   0.759  0.0513  2.6373  0.0634
  381SOL    HW2 1523   0.834   2.119   0.827 -0.1015  1.8549 -1.5915
  381SOL     MW 1524   0.837   2.049   0.774 -0.2230  1.0824 -0.5414
  382SOL     OW 1525   0.613   0.106   0.689 -0.0284 -0.0483 -0.1312
  382SOL    HW1 1526   0.642   0.081   0.784  0.8542  0.3590  2.3255
  382SOL    HW2 1527   0.599   0.020   0.644  2.9259  1.1596  1.2203
  382SOL     MW 1528   0.615   0.092   0.695  0.4778  0.1648  0.3712
  383SOL     OW 1529   0.562   3.057   0.347  0.1025 -0.2537 -0.1909
  383SOL    HW1 1530   0.586   2.988   0.289 -1.3611  1.2409 -0.6632
  383SOL    HW2 1531   0.514   3.006   0.409  1.6470  2.1244 -1.4442
  383SOL     MW 1532   0.559   3.041   0.347  0.1132  0.2573 -0.4186
  384SOL     OW 1533   0.612   2.951   0.635  0.3823 -0.2078 -0.2169
  384SOL    HW1 1534   0.681   2.905   0.678  1.6914  1.2794  0.6921
  384SOL    HW2 1535   0.531   2.910   0.655 -0.9804  1.1553 -1.8177
  384SOL     MW 1536   0.611   2.940   0.644  0.3752  0.1682 -0.3081
  385SOL     OW 1537   1.330   2.080   1.505  0.2813  0.5484  0.1574
  385SOL    HW1 1538   1.410   2.098   1.561  0.5243 -2.0854  3.7030
  385SOL    HW2 1539   1.278   2.012   1.547  0.1126  2.6675 -0.6045
  385SOL     MW 1540   1.334   2.073   1.518  0.2911  0.4805  0.5246
  386SOL     OW 1541   1.296   0.366   0.829 -0.0532 -0.2220  0.3669
  386SOL    HW1 1542   1.221   0.401   0.881 -1.8348  2.1921  1.0132
  386SOL    HW2 1543   1.319   0.278   0.853 -0.0048 -0.1196  4.3239
  386SOL     MW 1544   1.289   0.359   0.839 -0.2819  0.1100  0.9743
  387SOL     OW 1545   0.882   2.161   1.483 -0.5431  0.2749  0.1455
  387SOL    HW1 1546   0.927   2.230   1.434  2.1918 -0.1412  1.0017
  387SOL    HW2 1547   0.864   2.094   1.417  1.2249  1.6246  1.3802
  387SOL     MW 1548   0.885   2.161   1.468  0.0510  0.3981  0.4213
  388SOL     OW 1549   1.569   2.815   1.212 -0.2679  0.0354  0.7450
  388SOL    HW1 1550   1.488   2.770   1.194  1.5606  0.5201  0.3274
  388SOL    HW2 1551   1.627   2.763   1.161 -1.4517 -1.0668  2.5202
  388SOL     MW 1552   1.566   2.802   1.203 -0.1828 -0.0461  0.9241
  389SOL     OW 1553   0.458   0.045   3.033  0.4613  0.1995  0.2701
  389SOL    HW1 1554   0.550   0.087   3.031  0.3511 -1.0019 -1.9775
  389SOL    HW2 1555   0.429   0.046   2.944 -0.7820 -1.2630 -0.5476
  389SOL     MW 1556   0.466   0.051   3.021  0.2827 -0.1520 -0.1343
  390SOL     OW 1557   1.286   0.099   0.647 -0.1655 -0.1397  0.1604
  390SOL    HW1 1558   1.359   0.117   0.591 -1.9094  0.6060 -0.3495
  390SOL    HW2 1559   1.327   0.110   0.735 -1.3725 -0.4776 -0.1757
  390SOL     MW 1560   1.301   0.103   0.651 -0.5548 -0.0859  0.0488
  391SOL     OW 1561   0.310   2.199   1.381  0.1072 -0.4525  0.4805
  391SOL    HW1 1562   0.247   2.125   1.417  0.6672 -2.1186  0.0693
  391SOL    HW2 1563   0.243   2.271   1.376 -1.6983 -0.8573 -1.7386
  391SOL     MW 1564   0.293   2.199   1.385 -0.0571 -0.7257  0.1335
  392SOL     OW 1565   2.045   2.190   0.371  0.4436 -0.2317 -0.1000
  392SOL    HW1 1566   2.098   2.130   0.420  1.3171 -0.9431 -0.8439
  392SOL    HW2 1567   2.009   2.254   0.430 -0.3987 -0.5464 -2.7489
  392SOL     MW 1568   2.047   2.190   0.385  0.4477 -0.3671 -0.5476
  393SOL     OW 1569   0.148   3.058   2.745  0.0145 -0.0362 -0.0251
  393SOL    HW1 1570   0.237   3.080   2.749  0.7003 -1.4993  0.3253
  393SOL    HW2 1571   0.102   3.143   2.760 -1.5177 -2.7123  2.4077
  393SOL     MW 1572   0.154   3.072   2.748 -0.0972 -0.5823  0.3421
  394SOL     OW 1573   0.918   1.738   1.526 -0.1004 -0.4789  0.4014
  394SOL    HW1 1574   0.875   1.768   1.609  0.5266 -0.6830 -0.9998
  394SOL    HW2 1575   0.910   1.815   1.472 -0.6312 -0.4563  1.0882
  394SOL     MW 1576   0.911   1.752   1.530 -0.0877 -0.5029  0.3071
  395SOL     OW 1577   1.038   2.800   2.590 -0.0639  0.2257  0.0387
  395SOL    HW1 1578   1.086   2.862   2.542 -1.1762 -1.8371 -0.0048
  395SOL    HW2 1579   1.080   2.718   2.569 -3.2280 -0.5021  1.5931
  395SOL     MW 1580   1.050   2.798   2.581 -0.6281 -0.1425  0.2380
  396SOL     OW 1581   0.768   1.868   2.396 -0.9058  0.1710 -0.2649
  396SOL    HW1 1582   0.841   1.872   2.462 -1.1334 -2.9296  0.4163
  396SOL    HW2 1583   0.753   1.771   2.382  0.4866 -2.8380 -1.2941
  396SOL     MW 1584   0.775   1.856   2.403 -0.7521 -0.6351 -0.3109
  397SOL     OW 1585   1.006   2.324   1.248 -0.0642 -0.0225 -0.2198
  397SOL    HW1 1586   1.066   2.364   1.177 -0.2055 -0.7172  0.7151
  397SOL    HW2 1587   1.065   2.307   1.325 -0.4660 -1.4807 -0.0068
  397SOL     MW 1588   1.022   2.327   1.249 -0.1358 -0.3066 -0.0684
  398SOL     OW 1589   0.537   2.684   0.723 -0.2113 -0.4210  0.0379
  398SOL    HW1 1590   0.444   2.654   0.700 -0.7051  1.0155 -0.0143
  398SOL    HW2 1591   0.601   2.618   0.687  1.2361 -0.7075 -0.0815
  398SOL     MW 1592   0.533   2.671   0.715 -0.0855 -0.2693  0.0153
  399SOL     OW 1593   0.243   2.089   0.384  0.2156 -0.3149 -0.0366
  399SOL    HW1 1594   0.191   2.165   0.402 -0.7953  0.7008 -2.6061
  399SOL    HW2 1595   0.298   2.113   0.308 -1.5684  3.6992 -3.2901
  399SOL     MW 1596   0.243   2.102   0.376 -0.1531  0.3488 -0.8049
  400SOL     OW 1597   0.546   1.897   0.168  0.5069  0.3277  0.0310
  400SOL    HW1 1598   0.527   1.988   0.194 -0.3197  0.6859  2.8284
  400SOL    HW2 1599   0.528   1.857   0.256  0.8569 -2.3130 -0.4457
  400SOL     MW 1600   0.541   1.904   0.183  0.4440  0.0265  0.3372
  401SOL     OW 1601   0.773   2.016   0.117 -1.1688 -0.5292  0.1153
  401SOL    HW1 1602   0.834   1.941   0.129  0.3419 -3.7290 -2.2396
  401SOL    HW2 1603   0.691   1.978   0.161  0.8891 -2.5428  1.2815
  401SOL     MW 1604   0.770   2.001   0.124 -0.6980 -1.2171 -0.0416
  402SOL     OW 1605   0.622   3.021   1.739  0.1759  0.0069  0.1591
  402SOL    HW1 1606   0.678   2.968   1.796  0.1976  2.9836  0.0901
  402SOL    HW2 1607   0.680   3.092   1.701 -1.3472  1.1476  1.9465
  402SOL     MW 1608   0.637   3.023   1.741 -0.0222  0.5502  0.3858
  403SOL     OW 1609   0.101   0.418   0.369  0.4310 -0.0482  0.1287
  403SOL    HW1 1610   0.161   0.439   0.437 -0.2164  0.3964  1.9659
  403SOL    HW2 1611   0.151   0.374   0.297 -0.3445  1.6985 -1.5395
  403SOL     MW 1612   0.115   0.415   0.369  0.2432  0.2409  0.1510
  404SOL     OW 1613   0.876   2.856   0.712  0.3292  0.4079 -0.6858
  404SOL    HW1 1614   0.934   2.790   0.670 -0.0305  0.8830 -0.4803
  404SOL    HW2 1615   0.880   2.940   0.665 -1.0531  1.4016  1.7046
  404SOL     MW 1616   0.884   2.859   0.700  0.0994  0.6017 -0.3433
  405SOL     OW 1617   0.509   2.383   1.475  0.1670 -0.1639 -0.1396
  405SOL    HW1 1618   0.487   2.477   1.456  1.1504 -1.0187 -0.7342
  405SOL    HW2 1619   0.434   2.335   1.452  3.7836 -1.2469 -1.1232
  405SOL     MW 1620   0.496   2.389   1.470  0.7739 -0.4196 -0.3478
  406SOL     OW 1621   0.388   2.383   1.072  0.1069 -0.7180 -0.5494
  406SOL    HW1 1622   0.294   2.390   1.097  1.1581 -0.0461 -1.8520
  406SOL    HW2 1623   0.415   2.297   1.103  0.9186 -0.7223  3.2654
  406SOL     MW 1624   0.379   2.373   1.080  0.3527 -0.6300 -0.2179
  407SOL     OW 1625   3.042   2.710   1.141  0.0446  0.1112 -0.3301
  407SOL    HW1 1626   3.109   2.707   1.216 -1.2353  0.4533  0.4314
  407SOL    HW2 1627   3.091   2.715   1.057 -0.5278 -2.3452  1.2031
  407SOL     MW 1628   3.057   2.710   1.140 -0.1998 -0.1677 -0.0273
  408SOL     OW 1629   2.121   2.074   0.789  0.3255  0.1246  0.0328
  408SOL    HW1 1630   2.070   2.140   0.834  2.0112  2.3615 -2.8126
  408SOL    HW2 1631   2.060   2.003   0.768 -3.1303 -0.1066 -0.7958
  408SOL     MW 1632   2.107   2.074   0.792  0.0920  0.3893 -0.4519
  409SOL     OW 1633   1.420   0.120   0.893  0.4461  0.4459 -0.3940
  409SOL    HW1 1634   1.502   0.165   0.896 -0.3105  0.6360 -0.6132
  409SOL    HW2 1635   1.408   0.083   0.978  0.2295  0.4537 -1.7216
  409SOL     MW 1636   1.429   0.121   0.904  0.3177  0.4720 -0.5980
  410SOL     OW 1637   1.125   2.462   1.035 -0.4951 -0.0799  0.4153
  410SOL    HW1 1638   1.072   2.493   0.965  1.1858  2.7298 -0.6054
  410SOL    HW2 1639   1.205   2.420   0.994 -0.5080 -0.8851  0.3960
  410SOL     MW 1640   1.129   2.460   1.020 -0.2750  0.1846  0.2781
  411SOL     OW 1641   1.971   0.029   2.865  0.0796  0.4052  0.3913
  411SOL    HW1 1642   1.894  -0.014   2.829  2.7921 -0.9207  3.3485
  411SOL    HW2 1643   1.939   0.099   2.923 -2.9795 -0.7509 -1.0190
  411SOL     MW 1644   1.956   0.032   2.868  0.0339  0.0777  0.5954
  412SOL     OW 1645   0.983   2.265   0.636  0.0460 -0.7487 -0.5649
  412SOL    HW1 1646   1.061   2.309   0.666  0.8816  2.9428 -1.5727
  412SOL    HW2 1647   0.931   2.323   0.572  1.6257  1.0529  1.4615
  412SOL     MW 1648   0.986   2.278   0.631  0.3647 -0.0239 -0.4305
  413SOL     OW 1649   0.520   2.798   3.061  0.1412  0.7097  0.0830
  413SOL    HW1 1650   0.543   2.706   3.096  0.8228 -1.5567 -1.1410
  413SOL    HW2 1651   0.582   2.823   2.998 -0.2412 -3.9916 -1.9789
  413SOL     MW 1652   0.531   2.789   3.057  0.1807 -0.2096 -0.3505
  414SOL     OW 1653   1.922   2.899   1.065  0.4275 -1.2879 -0.7281
  414SOL    HW1 1654   1.886   2.905   0.977  0.9246  0.4195  0.6325
  414SOL    HW2 1655   2.010   2.849   1.067  0.3689 -0.0386  0.0211
  414SOL     MW 1656   1.929   2.893   1.054  0.4854 -0.8978 -0.4498
  415SOL     OW 1657   1.731   2.618   1.110  0.8603  0.2095 -0.5032
  415SOL    HW1 1658   1.693   2.545   1.167  1.4307 -0.2337 -1.8334
  415SOL    HW2 1659   1.803   2.663   1.150 -1.6456  3.2299 -1.4510
  415SOL     MW 1660   1.735   2.614   1.123  0.6049  0.5495 -0.8038
  416SOL     OW 1661   0.512   1.950   1.359 -0.5792 -0.0013 -0.4955
  416SOL    HW1 1662   0.472   1.992   1.280  2.3618  1.1515 -1.4800
  416SOL    HW2 1663   0.497   1.858   1.350  0.7532 -2.2512  1.3725
  416SOL     MW 1664   0.505   1.943   1.348 -0.0154 -0.1461 -0.3789
  417SOL     OW 1665   1.033   3.063   2.052  0.5272  0.1184  0.8322
  417SOL    HW1 1666   0.973   3.068   2.132  4.5774  0.8432 -0.7861
  417SOL    HW2 1667   0.970   3.031   1.980 -2.0773  1.2481 -2.0860
  417SOL     MW 1668   1.017   3.060   2.053  0.7180  0.3630  0.2336
  418SOL     OW 1669   0.694   2.883   0.146  0.5622 -0.0961 -0.2563
  418SOL    HW1 1670   0.768   2.906   0.088  0.8627 -0.4674  0.1049
  418SOL    HW2 1671   0.619   2.853   0.085  0.0174 -1.6573  0.5650
  418SOL     MW 1672   0.694   2.882   0.130  0.5299 -0.3511 -0.1003
  419SOL     OW 1673   0.451   2.649   1.409 -0.0661  0.4625 -0.1283
  419SOL    HW1 1674   0.509   2.705   1.468 -1.2678  1.2555  3.4200
  419SOL    HW2 1675   0.488   2.639   1.318  0.3198 -0.6152  3.4313
  419SOL     MW 1676   0.464   2.655   1.405 -0.1737  0.4249  0.8095
  420SOL     OW 1677   0.875   2.210   0.966  0.4167  0.2727 -0.4992
  420SOL    HW1 1678   0.799   2.250   1.010 -0.7081  2.0939 -1.3568
  420SOL    HW2 1679   0.941   2.269   0.985 -1.9022 -0.3402 -1.4532
  420SOL     MW 1680   0.873   2.223   0.974 -0.0377  0.4321 -0.7382
  421SOL     OW 1681   2.948   0.037   0.027  0.1651  0.0406  0.2923
  421SOL    HW1 1682   2.908   0.006  -0.053  0.8237  0.0105 -0.2417
  421SOL    HW2 1683   2.978  -0.043   0.064 -1.0182  2.4106  2.6505
  421SOL     MW 1684   2.947   0.023   0.021  0.0959  0.3493  0.5330
  422SOL     OW 1685   0.900   2.530   0.889  0.0286  0.8679 -0.1211
  422SOL    HW1 1686   0.848   2.605   0.919 -0.9727  0.0863  0.5430
  422SOL    HW2 1687   0.869   2.512   0.794 -3.3659 -2.2089 -0.4100
  422SOL     MW 1688   0.889   2.537   0.880 -0.5514  0.3588 -0.0716
  423SOL     OW 1689   1.538   0.127   0.505 -0.4876 -0.5721 -0.2637
  423SOL    HW1 1690   1.512   0.129   0.410  0.8412  0.1957 -1.5129
  423SOL    HW2 1691   1.531   0.219   0.542 -0.2928  2.0153  0.8756
  423SOL     MW 1692   1.533   0.140   0.498 -0.2865 -0.1294 -0.2782
  424SOL     OW 1693   0.689   2.265   1.169 -0.2125 -0.0118  0.4560
  424SOL    HW1 1694   0.614   2.210   1.163  1.7148  0.6521 -1.3164
  424SOL    HW2 1695   0.673   2.312   1.250  0.0844 -1.3341 -1.7039
  424SOL     MW 1696   0.677   2.264   1.179  0.0810 -0.0986 -0.0628
  425SOL     OW 1697   1.722   2.834   1.972 -0.0916 -0.1168  0.3476
  425SOL    HW1 1698   1.716   2.856   1.875 -0.6877 -0.3257  1.0112
  425SOL    HW2 1699   1.772   2.756   1.992 -0.5330 -0.7770 -0.4198
  425SOL     MW 1700   1.728   2.826   1.962 -0.2285 -0.2315  0.3339
  426SOL     OW 1701   0.816   1.688   1.946 -0.7271  0.1379  0.1132
  426SOL    HW1 1702   0.760   1.714   1.868  0.6279  1.7541  0.6654
  426SOL    HW2 1703   0.819   1.760   2.004 -2.2526 -1.5454 -3.4816
  426SOL     MW 1704   0.809   1.701   1.944 -0.7496  0.1291 -0.2882
  427SOL     OW 1705   0.370   1.612   1.895  0.0419 -0.0725  0.3749
  427SOL    HW1 1706   0.414   1.541   1.851  3.3017  2.3782 -0.7047
  427SOL    HW2 1707   0.332   1.567   1.969  0.5322 -0.2416  0.5857
  427SOL     MW 1708   0.371   1.597   1.899  0.5367  0.2285  0.2603
  428SOL     OW 1709   0.589   2.541   1.192 -0.1208  0.4521 -0.3888
  428SOL    HW1 1710   0.675   2.513   1.236  1.2453 -2.7254 -1.1878
  428SOL    HW2 1711   0.566   2.460   1.142  2.0533 -0.2466  3.1133
  428SOL     MW 1712   0.598   2.526   1.191  0.3463 -0.0593 -0.0322
  429SOL     OW 1713   1.335   2.722   1.110  0.1313  0.4744  0.1321
  429SOL    HW1 1714   1.248   2.684   1.123 -1.6957  0.8747  0.5427
  429SOL    HW2 1715   1.328   2.805   1.064  2.0936  0.2974  1.4570
  429SOL     MW 1716   1.322   2.728   1.106  0.1491  0.5039  0.3611
  430SOL     OW 1717   1.161   2.701   0.722 -0.5061 -0.0366  0.1675
  430SOL    HW1 1718   1.173   2.607   0.701  1.0418  0.3102 -0.7856
  430SOL    HW2 1719   1.132   2.737   0.643  1.4098  1.1083  1.7895
  430SOL     MW 1720   1.159   2.694   0.708 -0.0491  0.1602  0.2557
  431SOL     OW 1721   0.303   1.921   1.078  0.3885  0.3664  0.0498
  431SOL    HW1 1722   0.381   1.880   1.043  0.9860 -0.4711  1.9547
  431SOL    HW2 1723   0.251   1.957   0.997  0.3937 -0.2054 -3.4128
  431SOL     MW 1724   0.307   1.920   1.062  0.4680  0.1804 -0.1557
  432SOL     OW 1725   0.053   3.089   1.130 -0.3711 -0.1331  1.0956
  432SOL    HW1 1726   0.060   3.136   1.214  0.6169  2.6221 -0.0668
  432SOL    HW2 1727  -0.034   3.050   1.145  1.2959 -1.5843  0.5778
  432SOL     MW 1728   0.042   3.090   1.143 -0.0208  0.0390  0.8739
  433SOL     OW 1729   0.618   2.839   1.519 -0.3633  0.2594  0.7513
  433SOL    HW1 1730   0.620   2.905   1.597 -0.4358  1.8091 -0.8843
  433SOL    HW2 1731   0.708   2.841   1.488 -1.1679 -1.7132 -1.0703
  433SOL     MW 1732   0.630   2.848   1.525 -0.4790  0.2036  0.2951
  434SOL     OW 1733   1.605   2.828   1.487  0.3758  0.8529 -0.0498
  434SOL    HW1 1734   1.514   2.861   1.494 -0.0056 -2.2946  0.2920
  434SOL    HW2 1735   1.642   2.811   1.398  1.6765 -0.0008 -2.4299
  434SOL     MW 1736   1.598   2.830   1.476  0.4971  0.3250 -0.3188
  435SOL     OW 1737   2.798   1.819   0.221  0.6236  0.0779  0.3667
  435SOL    HW1 1738   2.855   1.884   0.169  0.4275  0.9263 -1.4057
  435SOL    HW2 1739   2.779   1.752   0.158 -2.8057 -0.3587 -1.3578
  435SOL     MW 1740   2.803   1.819   0.206  0.1453  0.1323 -0.0947
  436SOL     OW 1741   1.322   2.794   0.350  0.5422 -0.4213  0.4742
  436SOL    HW1 1742   1.403   2.783   0.405  1.3854  1.5013  0.2866
  436SOL    HW2 1743   1.280   2.879   0.386  0.8026 -1.3477  0.5867
  436SOL     MW 1744   1.328   2.803   0.362  0.6878 -0.2898  0.4643
  437SOL     OW 1745   0.897   2.869   1.412 -0.1124  0.1279 -0.1713
  437SOL    HW1 1746   0.890   2.963   1.392  2.3571  0.6435 -2.9355
  437SOL    HW2 1747   0.902   2.831   1.323  0.0978  0.1248 -0.2082
  437SOL     MW 1748   0.897   2.877   1.398  0.2411  0.1955 -0.5409
  438SOL     OW 1749   0.857   2.652   1.898 -0.2445 -0.0705  0.4865
  438SOL    HW1 1750   0.832   2.634   1.983  0.3888  1.2316  0.4285
  438SOL    HW2 1751   0.787   2.607   1.851  1.2917 -0.4558 -2.8977
  438SOL     MW 1752   0.844   2.644   1.903  0.0417  0.0504  0.0324
  439SOL     OW 1753   1.133   2.142   0.426 -0.1544  0.1978  0.3673
  439SOL    HW1 1754   1.104   2.194   0.506  1.4772  0.3415  0.2144
  439SOL    HW2 1755   1.142   2.208   0.356  0.9281 -0.5945  1.7091
  439SOL     MW 1756   1.130   2.157   0.427  0.2037  0.1122  0.5242
  440SOL     OW 1757   1.716   2.988   0.007 -0.1590  0.0632 -0.0554
  440SOL    HW1 1758   1.654   2.948   0.058  1.3647  2.4437 -2.5360
  440SOL    HW2 1759   1.798   2.931   0.018  0.7302 -0.6529  1.6552
  440SOL     MW 1760   1.719   2.975   0.015  0.1594  0.2828 -0.1570
  441SOL     OW 1761   0.322   2.663   0.499 -0.9016 -0.0712  0.2583
  441SOL    HW1 1762   0.299   2.651   0.411 -1.3852 -0.9517 -1.0955
  441SOL    HW2 1763   0.358   2.756   0.496  0.0661 -0.3045 -0.3184
  441SOL     MW 1764   0.324   2.674   0.487 -0.8377 -0.2181  0.0036
  442SOL     OW 1765   3.061   2.374   0.612 -0.0868  0.1713 -0.1548
  442SOL    HW1 1766   3.103   2.467   0.605  2.3818  4.8575  0.0038
  442SOL    HW2 1767   2.972   2.391   0.637  0.6577  0.1597 -0.9167
  442SOL     MW 1768   3.055   2.389   0.614  0.3371  0.7881 -0.2344
  443SOL     OW 1769   1.412   1.810   1.903 -0.0518  0.1735 -0.1219
  443SOL    HW1 1770   1.364   1.828   1.816 -2.4602 -0.7982 -1.2748
  443SOL    HW2 1771   1.382   1.723   1.923  1.2626  2.1188 -1.6438
  443SOL     MW 1772   1.402   1.801   1.894 -0.1961  0.3020 -0.4748
  444SOL     OW 1773   0.885   2.559   1.602 -0.0916 -0.2077 -0.2098
  444SOL    HW1 1774   0.951   2.494   1.618  0.9134  0.1014  0.3708
  444SOL    HW2 1775   0.814   2.534   1.660 -1.1243 -0.8387  2.5982
  444SOL     MW 1776   0.885   2.547   1.611 -0.0952 -0.2501  0.2373
  445SOL     OW 1777   0.906   0.036   1.307 -0.0969  0.6940  0.6101
  445SOL    HW1 1778   0.873   0.125   1.291  3.3313  2.2513 -0.0814
  445SOL    HW2 1779   0.983   0.042   1.247 -0.4530 -0.0107  1.8715
  445SOL     MW 1780   0.912   0.048   1.297  0.3085  0.8065  0.6853
  446SOL     OW 1781   2.710   2.871   1.068  0.3494  0.5981  0.0067
  446SOL    HW1 1782   2.681   2.913   0.986 -0.6784  0.3983  2.4880
  446SOL    HW2 1783   2.751   2.786   1.041  1.1360  1.2734 -0.4292
  446SOL     MW 1784   2.712   2.865   1.053  0.3176  0.6608  0.2766
  447SOL     OW 1785   0.020   2.050   1.689  0.1515 -0.0586 -0.4341
  447SOL    HW1 1786   0.057   2.013   1.768  0.5204 -2.7439  1.2327
  447SOL    HW2 1787  -0.041   1.991   1.641 -1.2787 -1.0336  0.0520
  447SOL     MW 1788   0.017   2.037   1.693  0.0115 -0.5415 -0.1501
  448SOL     OW 1789   1.718   2.364   1.686 -0.3120 -0.2945 -0.0051
  448SOL    HW1 1790   1.658   2.291   1.686  1.8843  0.5982 -0.4552
  448SOL    HW2 1791   1.670   2.441   1.660 -2.9910 -0.1312  1.6157
  448SOL     MW 1792   1.704   2.365   1.682 -0.3757 -0.1552  0.1493
  449SOL     OW 1793   0.765   2.835   0.403  0.0135 -0.1899  0.2268
  449SOL    HW1 1794   0.735   2.834   0.311 -1.1842 -2.1110  1.0072
  449SOL    HW2 1795   0.692   2.875   0.449  1.3314  0.6436  0.7370
  449SOL     MW 1796   0.751   2.840   0.397  0.0293 -0.3334  0.3971
  450SOL     OW 1797   1.195   2.435   0.659  0.2778  0.3798  0.4550
  450SOL    HW1 1798   1.214   2.394   0.740  1.5018 -0.7300 -3.2254
  450SOL    HW2 1799   1.275   2.440   0.604  1.7161  0.6356 -1.5851
  450SOL     MW 1800   1.208   2.430   0.663  0.6291  0.2671 -0.2998
  451SOL     OW 1801   0.527   2.008   1.626  0.0139  0.5580  0.0235
  451SOL    HW1 1802   0.589   2.073   1.615 -0.3359 -0.2058  0.9109
  451SOL    HW2 1803   0.504   1.982   1.533  0.9785 -2.5904 -0.2352
  451SOL     MW 1804   0.532   2.013   1.612  0.0950  0.0418  0.1065
  452SOL     OW 1805   0.251   2.713   0.016 -0.2564 -0.3141  0.1691
  452SOL    HW1 1806   0.335   2.746  -0.008 -0.8472 -0.4891 -0.8536
  452SOL    HW2 1807   0.185   2.750  -0.048  0.9626  0.6168  1.6105
  452SOL     MW 1808   0.253   2.722   0.004 -0.1735 -0.2144  0.2243
  453SOL     OW 1809   0.358   2.910   1.690  0.0024 -0.6327 -0.4015
  453SOL    HW1 1810   0.428   2.973   1.701 -0.1004  0.8685  0.6634
  453SOL    HW2 1811   0.322   2.907   1.600  1.7602  0.7455  0.3812
  453SOL     MW 1812   0.363   2.918   1.679  0.2207 -0.2528 -0.1577
  454SOL     OW 1813   0.987   2.762   1.181  0.5352  0.1721  0.3456
  454SOL    HW1 1814   0.984   2.670   1.164 -0.1728  1.1655 -0.8831
  454SOL    HW2 1815   0.926   2.801   1.114 -1.9109  0.8577  0.4428
  454SOL     MW 1816   0.979   2.755   1.170  0.1191  0.3937  0.1963
  455SOL     OW 1817   1.581   2.914   0.220  0.3659 -0.0038  0.4250
  455SOL    HW1 1818   1.647   2.910   0.292 -1.8577  0.1526 -0.2082
  455SOL    HW2 1819   1.533   2.829   0.220  1.3656 -1.2164  0.7001
  455SOL     MW 1820   1.584   2.902   0.230  0.2045 -0.1432  0.3778
  456SOL     OW 1821   2.845   0.319   1.356 -0.7910 -0.3775 -0.2433
  456SOL    HW1 1822   2.770   0.274   1.307  1.7977  1.8787 -0.1020
  456SOL    HW2 1823   2.922   0.343   1.302  0.7916  1.6271  1.1049
  456SOL     MW 1824   2.845   0.316   1.342 -0.2406  0.1847 -0.0468
  457SOL     OW 1825   0.957   1.548   2.917 -0.3824  1.0555 -0.3915
  457SOL    HW1 1826   0.882   1.501   2.956 -0.9433  0.3063  1.8018
  457SOL    HW2 1827   1.026   1.490   2.955 -0.5099 -1.5326 -0.5066
  457SOL     MW 1828   0.956   1.534   2.927 -0.4732  0.6152 -0.1173
  458SOL     OW 1829   1.464   1.389   0.558  0.7944  0.2970  0.1155
  458SOL    HW1 1830   1.377   1.409   0.600  0.7480  0.0641  2.3725
  458SOL    HW2 1831   1.445   1.364   0.470  0.6206  2.7072 -0.6257
  458SOL     MW 1832   1.450   1.389   0.552  0.7654  0.5842  0.3155
  459SOL     OW 1833   1.487   0.072   0.230  0.0936 -0.4396  0.2951
  459SOL    HW1 1834   1.508  -0.022   0.226  0.9211  0.0662  2.1941
  459SOL    HW2 1835   1.433   0.079   0.150 -0.0288 -0.0415  0.3073
  459SOL     MW 1836   1.482   0.060   0.219  0.1866 -0.3204  0.5473
  460SOL     OW 1837   1.802   2.188   0.611 -0.4922  0.4570 -0.2383
  460SOL    HW1 1838   1.716   2.150   0.634  0.1329 -0.5394 -2.2478
  460SOL    HW2 1839   1.860   2.114   0.584  0.0208 -2.0488  2.4600
  460SOL     MW 1840   1.798   2.173   0.610 -0.3421 -0.0051 -0.1474
  461SOL     OW 1841   0.423   2.396   0.594 -0.4922 -0.9021 -0.3963
  461SOL    HW1 1842   0.388   2.475   0.554  1.4142  0.2939 -0.3420
  461SOL    HW2 1843   0.433   2.418   0.685 -0.5697  0.6186 -3.0570
  461SOL     MW 1844   0.419   2.409   0.601 -0.2509 -0.5436 -0.7402
  462SOL     OW 1845   0.394   0.269   1.306 -0.0715  0.0702  0.2074
  462SOL    HW1 1846   0.428   0.201   1.255 -1.2982  1.8225  0.8794
  462SOL    HW2 1847   0.471   0.327   1.332  1.8684 -1.0139  1.5527
  462SOL     MW 1848   0.408   0.268   1.303  0.0226  0.1584  0.4736
  463SOL     OW 1849   0.898   0.036   0.654  0.3904  0.6309 -0.6034
  463SOL    HW1 1850   0.930   0.008   0.563  0.7226 -1.5240 -1.5071
  463SOL    HW2 1851   0.812   0.078   0.641  0.6077  1.0734  0.1074
  463SOL     MW 1852   0.891   0.038   0.640  0.4629  0.4050 -0.6289
  464SOL     OW 1853   0.855   3.050   2.271  0.1643 -0.4244 -0.1304
  464SOL    HW1 1854   0.809   2.969   2.242  1.8132 -0.5958 -0.8770
  464SOL    HW2 1855   0.866   3.047   2.366  0.8144  2.1654  2.9343
  464SOL     MW 1856   0.851   3.039   2.280  0.4677 -0.1053  0.1754
  465SOL     OW 1857   0.674   0.302   0.501  0.0338  0.3017  0.4398
  465SOL    HW1 1858   0.627   0.248   0.567 -1.2077 -0.4040 -1.2435
  465SOL    HW2 1859   0.690   0.256   0.420 -3.3304  1.1088  0.1336
  465SOL     MW 1860   0.670   0.289   0.499 -0.5739  0.3151  0.1773
  466SOL     OW 1861   1.075   1.985   0.693 -0.0584 -0.1135 -0.2789
  466SOL    HW1 1862   1.071   1.898   0.650  0.7851 -1.7554  1.2690
  466SOL    HW2 1863   1.035   2.049   0.640 -0.9355 -0.0601  1.1517
  466SOL     MW 1864   1.070   1.982   0.680 -0.0628 -0.3231  0.1141
  467SOL     OW 1865   1.290   2.296   0.894 -0.0281  0.2512  0.2172
  467SOL    HW1 1866   1.382   2.290   0.885 -1.0505 -0.8387 -0.6274
  467SOL    HW2 1867   1.260   2.205   0.895  1.7383 -0.5379  1.8664
  467SOL     MW 1868   1.298   2.283   0.893  0.0701  0.0033  0.3234
  468SOL     OW 1869   0.376   2.600   1.962  0.3875  0.1092  0.1206
  468SOL    HW1 1870   0.385   2.545   1.882 -0.0822  0.8192  0.5559
  468SOL    HW2 1871   0.332   2.674   1.921 -0.4217  0.8729  1.2219
  468SOL     MW 1872   0.371   2.603   1.946  0.2188  0.3037  0.3233
  469SOL     OW 1873   0.371   2.159   1.804  0.2985  0.6818  0.0232
  469SOL    HW1 1874   0.307   2.099   1.850 -0.4020 -2.4578  0.4440
  469SOL    HW2 1875   0.417   2.106   1.738  0.0071  0.3712 -0.3750
  469SOL     MW 1876   0.369   2.144   1.801  0.1676  0.2266  0.0262
  470SOL     OW 1877   3.029   2.536   0.106  0.1578  0.3672 -0.1148
  470SOL    HW1 1878   2.947   2.513   0.155  2.7721 -1.2082  1.7285
  470SOL    HW2 1879   3.011   2.578   0.022  0.0029  1.5729  0.9108
  470SOL     MW 1880   3.016   2.539   0.101  0.4823  0.3185  0.2637
  471SOL     OW 1881   1.175   2.744   1.417 -0.1148  0.2514  0.0183
  471SOL    HW1 1882   1.134   2.766   1.502  0.0857  0.0997  0.4883
  471SOL    HW2 1883   1.097   2.761   1.359 -2.7138 -3.4976  0.4850
  471SOL     MW 1884   1.159   2.749   1.421 -0.4313 -0.2633  0.1419
  472SOL     OW 1885   2.945   2.099   0.416  0.0867  0.4272  0.1866
  472SOL    HW1 1886   2.959   2.068   0.322  0.0678  1.6534 -1.9611
  472SOL    HW2 1887   2.902   2.021   0.458 -0.0324 -0.1167  1.1711
  472SOL     MW 1888   2.941   2.085   0.409  0.0685  0.5172  0.0331
  473SOL     OW 1889   0.828   2.521   1.297  0.5694  0.1575 -0.0041
  473SOL    HW1 1890   0.887   2.446   1.271 -1.3893  0.7072 -0.2053
  473SOL    HW2 1891   0.860   2.541   1.388 -0.9122  0.0542  1.2893
  473SOL     MW 1892   0.840   2.514   1.305  0.1155  0.2164  0.1400
  474SOL     OW 1893   0.790   2.179   1.742  0.7726 -0.3683  0.0789
  474SOL    HW1 1894   0.885   2.197   1.775  2.5368 -0.3328  0.0193
  474SOL    HW2 1895   0.795   2.150   1.653  2.3266  1.6807  2.5743
  474SOL     MW 1896   0.803   2.177   1.735  1.2104 -0.0933  0.4003
  475SOL     OW 1897   1.609   3.100   1.455 -0.1027 -0.4467  0.2882
  475SOL    HW1 1898   1.525   3.132   1.425  1.3461 -0.0747  3.4189
  475SOL    HW2 1899   1.606   3.009   1.442 -0.6465  0.3816  0.3149
  475SOL     MW 1900   1.598   3.092   1.449  0.0167 -0.2883  0.7048
  476SOL     OW 1901   1.477   2.604   0.875 -0.1700 -0.0248 -0.1599
  476SOL    HW1 1902   1.418   2.633   0.939 -3.0523  0.3354 -1.2105
  476SOL    HW2 1903   1.527   2.684   0.842 -1.2782  2.6844  1.7474
  476SOL     MW 1904   1.476   2.618   0.879 -0.6965  0.3802 -0.0468
  477SOL     OW 1905   0.756   2.544   0.636  0.1635 -0.4471 -0.2718
  477SOL    HW1 1906   0.815   2.603   0.587 -3.4186 -0.7752  0.0624
  477SOL    HW2 1907   0.753   2.460   0.588 -2.4465 -1.8343  0.0342
  477SOL     MW 1908   0.763   2.541   0.623 -0.6535 -0.6734 -0.1873
  478SOL     OW 1909   0.093   2.693   0.911  0.1024  0.0147  0.4233
  478SOL    HW1 1910   0.158   2.744   0.952  1.6633 -0.6789  0.5023
  478SOL    HW2 1911   0.157   2.625   0.864  1.7277  0.7689  0.1788
  478SOL     MW 1912   0.110   2.691   0.910  0.5228  0.0227  0.4014
  479SOL     OW 1913   1.407   1.937   1.290 -0.0434  0.6069  0.3170
  479SOL    HW1 1914   1.371   1.976   1.372  0.6429  0.1012 -2.4361
  479SOL    HW2 1915   1.484   1.889   1.310  0.2556 -0.9610  0.2816
  479SOL     MW 1916   1.413   1.936   1.304  0.0866  0.3333 -0.0509
  480SOL     OW 1917   1.893   2.343   1.369  0.0337 -0.2233 -0.0728
  480SOL    HW1 1918   1.939   2.272   1.414  0.0864 -0.8949 -0.8184
  480SOL    HW2 1919   1.959   2.371   1.299  0.7457  0.3866 -2.7951
  480SOL     MW 1920   1.908   2.338   1.365  0.1346 -0.2314 -0.5304
  481SOL     OW 1921   1.211   0.004   1.142 -0.4525 -0.7341 -0.5220
  481SOL    HW1 1922   1.200  -0.049   1.065 -3.1834  1.1159 -1.3357
  481SOL    HW2 1923   1.155   0.085   1.127 -0.6142 -0.3019  1.3671
  481SOL     MW 1924   1.202   0.008   1.130 -0.8342 -0.4330 -0.3801
  482SOL     OW 1925   0.927   3.059   0.406  0.1463  0.2543 -0.5013
  482SOL    HW1 1926   0.859   2.988   0.390 -1.9372 -0.9746  2.1428
  482SOL    HW2 1927   0.896   3.144   0.370 -0.9250  0.5020 -1.8582
  482SOL     MW 1928   0.914   3.061   0.399 -0.2700  0.1248 -0.3314
  483SOL     OW 1929   0.370   2.931   0.469 -0.0807 -0.1577 -0.6679
  483SOL    HW1 1930   0.288   2.930   0.418  0.8116 -1.5129  2.5348
  483SOL    HW2 1931   0.343   2.989   0.544 -1.0181  1.4520 -1.2666
  483SOL     MW 1932   0.356   2.939   0.472 -0.0866 -0.1242 -0.3243
  484SOL     OW 1933   1.675   1.824   1.377  0.4557 -0.0660  0.1728
  484SOL    HW1 1934   1.717   1.909   1.398  1.0463 -0.3217  1.3058
  484SOL    HW2 1935   1.650   1.791   1.464  0.5866 -4.6433  0.0534
  484SOL     MW 1936   1.677   1.830   1.391  0.5509 -0.7037  0.3065
  485SOL     OW 1937   0.534   2.418   0.300  0.1673  0.3002  0.6647
  485SOL    HW1 1938   0.576   2.405   0.379 -0.2189 -1.5552 -0.9460
  485SOL    HW2 1939   0.444   2.448   0.320 -0.4787  4.4408 -1.7872
  485SOL     MW 1940   0.528   2.420   0.313  0.0311  0.6017  0.1287
  486SOL     OW 1941   0.132   2.417   1.386 -0.2263  0.0344  0.3256
  486SOL    HW1 1942   0.145   2.503   1.350 -1.1267 -1.8671 -1.1318
  486SOL    HW2 1943   0.095   2.422   1.476  0.3555 -0.8343 -0.1284
  486SOL     MW 1944   0.129   2.429   1.393 -0.2683 -0.3311  0.0734
  487SOL     OW 1945   1.277   1.577   1.070  0.0333 -0.1448 -0.2437
  487SOL    HW1 1946   1.248   1.671   1.080 -1.9219  0.9141  0.4281
  487SOL    HW2 1947   1.331   1.582   0.999  0.5690 -0.2240  1.0683
  487SOL     MW 1948   1.281   1.590   1.062 -0.1540 -0.0155  0.0181
  488SOL     OW 1949   1.662   1.860   0.543  0.3259  0.0475  0.1291
  488SOL    HW1 1950   1.748   1.910   0.550  1.4272 -0.3619 -1.7655
  488SOL    HW2 1951   1.604   1.919   0.500  0.9870  0.9557  1.5372
  488SOL     MW 1952   1.666   1.875   0.539  0.5585  0.1133  0.0649
  489SOL     OW 1953   0.693   0.770   0.594 -0.3652 -0.1496 -0.1816
  489SOL    HW1 1954   0.731   0.686   0.582 -1.5485 -0.1729  0.6704
  489SOL    HW2 1955   0.662   0.785   0.683  1.0724 -2.6698 -0.0731
  489SOL     MW 1956   0.694   0.760   0.604 -0.3317 -0.4852 -0.0548
  490SOL     OW 1957   1.396   2.095   0.451  1.0384 -0.1528 -0.1217
  490SOL    HW1 1958   1.454   2.162   0.424  1.5519  0.4026 -0.3468
  490SOL    HW2 1959   1.305   2.131   0.433  0.1259 -0.9578 -0.9194
  490SOL     MW 1960   1.391   2.109   0.445  0.9858 -0.1858 -0.2567
  491SOL     OW 1961   1.196   3.005   0.474 -0.1698 -0.0014  0.2462
  491SOL    HW1 1962   1.216   3.035   0.562  1.3690  0.0157 -2.4913
  491SOL    HW2 1963   1.112   3.047   0.442  1.2755 -0.6202  1.2122
  491SOL     MW 1964   1.187   3.015   0.482  0.2239 -0.0808  0.0125
  492SOL     OW 1965   1.521   2.113   0.677  0.1840 -0.7181 -0.8246
  492SOL    HW1 1966   1.454   2.093   0.612 -0.9498  0.3751 -3.5784
  492SOL    HW2 1967   1.492   2.064   0.752  0.9529  1.1911  0.9560
  492SOL     MW 1968   1.508   2.104   0.678  0.1359 -0.3220 -0.9530
  493SOL     OW 1969   0.118   2.916   0.357  0.1450  0.3135 -0.0945
  493SOL    HW1 1970   0.080   2.983   0.414  0.7025  0.8109 -1.8291
  493SOL    HW2 1971   0.156   2.963   0.285 -0.1267 -1.9505  0.4072
  493SOL     MW 1972   0.118   2.931   0.355  0.1827  0.0804 -0.2572
  494SOL     OW 1973   0.391   2.433   1.740 -0.4996  0.4012  0.0706
  494SOL    HW1 1974   0.363   2.340   1.769  1.6058 -1.2999  2.2576
  494SOL    HW2 1975   0.436   2.417   1.660  0.3113  1.9797 -1.7385
  494SOL     MW 1976   0.393   2.418   1.734 -0.1148  0.3850  0.1205
  495SOL     OW 1977   2.903   1.693   2.714  0.0781  0.3220 -0.1475
  495SOL    HW1 1978   2.884   1.780   2.758  2.2945  0.4297  1.6247
  495SOL    HW2 1979   2.921   1.640   2.795  0.7293 -0.4734  1.4563
  495SOL     MW 1980   2.903   1.698   2.730  0.4565  0.2312  0.2979
  496SOL     OW 1981   2.876   2.304   2.648  0.0402  0.5911  0.6938
  496SOL    HW1 1982   2.902   2.215   2.679 -0.7099 -0.8619 -2.2471
  496SOL    HW2 1983   2.943   2.376   2.656 -2.9031  1.6527 -0.4396
  496SOL     MW 1984   2.888   2.302   2.653 -0.4471  0.5394  0.1562
  497SOL     OW 1985   1.555   2.282   2.589  0.0157  0.3784  0.6564
  497SOL    HW1 1986   1.554   2.248   2.498  2.0717 -0.2269  1.3904
  497SOL    HW2 1987   1.510   2.209   2.629  2.4394 -2.7336  0.3349
  497SOL     MW 1988   1.549   2.268   2.583  0.6068 -0.1121  0.7108
  498SOL     OW 1989   1.554   2.712   2.321  0.0748  0.3402  0.3570
  498SOL    HW1 1990   1.553   2.637   2.253 -2.4277 -0.0211 -1.0291
  498SOL    HW2 1991   1.615   2.689   2.393 -0.3534  0.5884  4.9390
  498SOL     MW 1992   1.562   2.699   2.322 -0.3119  0.3253  0.7787
  499SOL     OW 1993   0.896   0.158   0.032  0.0834 -0.5063 -0.0146
  499SOL    HW1 1994   0.815   0.158   0.083 -1.6887 -2.3247 -0.1154
  499SOL    HW2 1995   0.915   0.059   0.024  1.3350  1.1333 -0.5615
  499SOL     MW 1996   0.888   0.145   0.038  0.0147 -0.5299 -0.1001
  500SOL     OW 1997   1.040   2.433   2.788  0.6811 -0.0040 -0.2145
  500SOL    HW1 1998   1.093   2.421   2.867  0.0241  0.9444 -0.1566
  500SOL    HW2 1999   0.994   2.518   2.810  1.8559 -0.5487  0.5325
  500SOL     MW 2000   1.041   2.443   2.802  0.7494  0.0492 -0.1083
  501SOL     OW 2001   1.739   2.291   3.085 -0.5946  0.5303  0.3616
  501SOL    HW1 2002   1.712   2.376   3.111  1.0985 -0.9341  0.9297
  501SOL    HW2 2003   1.830   2.295   3.119 -1.2869  2.1904 -3.7710
  501SOL     MW 2004   1.748   2.303   3.093 -0.4626  0.5561 -0.1087
  502SOL     OW 2005   0.066   2.877   2.989  0.3543 -0.0800 -0.7671
  502SOL    HW1 2006   0.017   2.794   2.964 -1.1567 -0.0646  0.3586
  502SOL    HW2 2007   0.068   2.931   2.911  0.1838  0.0154 -1.9976
  502SOL     MW 2008   0.060   2.873   2.975  0.1325 -0.0654 -0.7809
  503SOL     OW 2009   1.176   2.606   1.995 -0.0155  0.2480 -0.4390
  503SOL    HW1 2010   1.257   2.637   1.959 -3.5895  0.4000 -1.0560
  503SOL    HW2 2011   1.102   2.627   1.938  1.5885  1.7647 -0.8120
  503SOL     MW 2012   1.177   2.613   1.983 -0.2755  0.4681 -0.5696
  504SOL     OW 2013   0.099   2.609   2.072 -0.4925 -0.0244  0.1584
  504SOL    HW1 2014   0.172   2.558   2.034  3.1317 -0.6380  2.3142
  504SOL    HW2 2015   0.030   2.541   2.068 -1.1117 -1.5774 -0.6757
  504SOL     MW 2016   0.099   2.593   2.066 -0.0960 -0.3103  0.3328
  505SOL     OW 2017   1.652   2.667   2.753  0.1613 -0.4538  0.3179
  505SOL    HW1 2018   1.683   2.660   2.663 -2.2476  1.0490 -0.5164
  505SOL    HW2 2019   1.620   2.757   2.767  0.0346 -0.2522  2.4577
  505SOL     MW 2020   1.652   2.678   2.743 -0.1733 -0.2289  0.4902
  506SOL     OW 2021   1.627   0.013   2.873  0.3865 -0.3374  0.3452
  506SOL    HW1 2022   1.657  -0.021   2.959 -1.8631  0.3985 -0.1609
  506SOL    HW2 2023   1.679  -0.046   2.806  0.6986 -1.7564 -1.1231
  506SOL     MW 2024   1.638   0.001   2.875  0.1308 -0.4275  0.0847
  507SOL     OW 2025   0.946   2.695   2.839 -0.1706  0.5262  0.0277
  507SOL    HW1 2026   0.989   2.749   2.776  0.8027 -1.9139  0.6623
  507SOL    HW2 2027   0.857   2.730   2.846  0.5983  3.3326 -2.0033
  507SOL     MW 2028   0.940   2.707   2.832  0.0593  0.5745 -0.1565
  508SOL     OW 2029   1.248   2.112   2.516  0.1620  0.2710 -0.3273
  508SOL    HW1 2030   1.310   2.115   2.597 -0.4141 -0.1375  0.9926
  508SOL    HW2 2031   1.177   2.173   2.538  0.8049 -5.2036  0.5355
  508SOL     MW 2032   1.247   2.121   2.530  0.1708 -0.5052 -0.0393
  509SOL     OW 2033   0.674   2.604   2.800 -0.4843 -0.1557 -0.1096
  509SOL    HW1 2034   0.677   2.530   2.741  2.1479 -3.5318 -0.1786
  509SOL    HW2 2035   0.590   2.648   2.774 -1.5473  1.1901  2.5671
  509SOL     MW 2036   0.664   2.600   2.789 -0.2773 -0.4236  0.2344
  510SOL     OW 2037   1.558   2.601   1.643 -1.0398 -0.0255  0.3105
  510SOL    HW1 2038   1.581   2.683   1.591  3.1433  1.5493 -1.6748
  510SOL    HW2 2039   1.531   2.634   1.732 -0.4684 -1.3970 -2.9846
  510SOL     MW 2040   1.557   2.616   1.648 -0.4124  0.0013 -0.3862
  511SOL     OW 2041   0.424   2.610   2.468 -0.4979  0.4140 -0.0605
  511SOL    HW1 2042   0.508   2.569   2.493  3.4545 -1.7242 -0.8347
  511SOL    HW2 2043   0.442   2.664   2.391  1.6888  0.1339  3.0945
  511SOL     MW 2044   0.438   2.611   2.462  0.3121  0.0950  0.2536
  512SOL     OW 2045   0.984   2.041   2.833  0.0180 -0.0696  0.0457
  512SOL    HW1 2046   0.901   2.085   2.870  1.2098  0.7526 -0.9844
  512SOL    HW2 2047   0.988   1.960   2.883 -1.2825  0.2856 -1.6802
  512SOL     MW 2048   0.973   2.036   2.845  0.0037  0.0858 -0.3179
  513SOL     OW 2049   1.634   2.448   2.203  0.3025  0.5125  0.0782
  513SOL    HW1 2050   1.705   2.500   2.170  0.1806 -0.8848  0.6083
  513SOL    HW2 2051   1.688   2.409   2.274 -0.2239 -0.7621 -0.0904
  513SOL     MW 2052   1.651   2.450   2.208  0.2169  0.1600  0.1259
  514SOL     OW 2053   0.241   2.479   2.623 -0.3039  0.3113  0.0069
  514SOL    HW1 2054   0.310   2.513   2.570 -1.8058 -1.4415 -3.2891
  514SOL    HW2 2055   0.276   2.441   2.705  0.7521  2.0000 -3.9882
  514SOL     MW 2056   0.255   2.478   2.627 -0.3627  0.3028 -0.9551
  515SOL     OW 2057   1.105   2.013   1.979  0.4653 -0.1539  0.3653
  515SOL    HW1 2058   1.090   2.086   1.918 -1.8492  0.4837  1.1500
  515SOL    HW2 2059   1.187   2.025   2.018  1.0641  0.6571 -2.2265
  515SOL     MW 2060   1.114   2.024   1.976  0.2390  0.0373  0.1269
  516SOL     OW 2061   1.447   2.446   3.052 -0.0760  0.1532  0.1471
  516SOL    HW1 2062   1.470   2.453   2.957 -0.6259  2.3695 -0.3942
  516SOL    HW2 2063   1.351   2.457   3.047 -0.6600 -0.7288  0.4086
  516SOL     MW 2064   1.437   2.448   3.039 -0.2256  0.3293  0.1102
  517SOL     OW 2065   0.554   2.412   2.247  0.1265  0.2118 -0.1066
  517SOL    HW1 2066   0.480   2.459   2.275 -0.9046 -1.1032 -0.9075
  517SOL    HW2 2067   0.506   2.369   2.167 -2.2891  1.0362 -0.4739
  517SOL     MW 2068   0.538   2.412   2.240 -0.3282  0.1471 -0.2608
  518SOL     OW 2069   1.833   0.124   0.005 -0.8703  0.6358 -1.1754
  518SOL    HW1 2070   1.787   0.179   0.071 -0.1822 -1.6684  0.7139
  518SOL    HW2 2071   1.784   0.041   0.007  0.0135  0.0782 -0.8734
  518SOL     MW 2072   1.820   0.120   0.014 -0.6629  0.2582 -0.8863
  519SOL     OW 2073   0.681   2.477   1.780  0.1675 -0.8905  0.0010
  519SOL    HW1 2074   0.684   2.380   1.787  0.0515  0.1399  1.1723
  519SOL    HW2 2075   0.597   2.506   1.739  0.4547 -0.5195 -2.0622
  519SOL     MW 2076   0.670   2.468   1.776  0.1901 -0.7056 -0.1167
  520SOL     OW 2077   1.168   2.167   2.962 -0.4421  0.0046  0.2738
  520SOL    HW1 2078   1.083   2.134   2.926 -0.1192 -0.8058 -0.1891
  520SOL    HW2 2079   1.187   2.110   3.037 -2.3464 -0.2517 -0.9229
  520SOL     MW 2080   1.159   2.155   2.967 -0.6508 -0.1361  0.0549
  521SOL     OW 2081   1.748   1.994   2.185 -0.1922 -0.0112 -0.0110
  521SOL    HW1 2082   1.766   2.013   2.097  2.3333  1.3397  0.5143
  521SOL    HW2 2083   1.753   1.897   2.187 -0.8889  0.2729 -3.5074
  521SOL     MW 2084   1.751   1.984   2.174  0.0491  0.2045 -0.4030
  522SOL     OW 2085   2.951   2.505   2.264  0.3596  0.0392  0.0094
  522SOL    HW1 2086   3.026   2.439   2.279 -0.2229 -2.2843  1.5392
  522SOL    HW2 2087   2.964   2.596   2.288 -1.0183 -2.6455 -2.3329
  522SOL     MW 2088   2.962   2.508   2.269  0.1009 -0.6216 -0.0978
  523SOL     OW 2089   0.913   1.504   2.120  0.1988  0.1347  0.1576
  523SOL    HW1 2090   0.861   1.560   2.063  4.1668 -0.4908  0.1875
  523SOL    HW2 2091   0.955   1.446   2.061  1.6992  1.2179  0.4809
  523SOL     MW 2092   0.912   1.503   2.105  0.9203  0.1951  0.2042
  524SOL     OW 2093   0.594   2.389   2.984  0.1414 -0.1242  0.0964
  524SOL    HW1 2094   0.646   2.442   2.929 -0.7559 -0.9409 -0.0808
  524SOL    HW2 2095   0.660   2.319   3.003  1.6137 -0.8041  0.8448
  524SOL     MW 2096   0.610   2.386   2.980  0.2172 -0.3217  0.1718
  525SOL     OW 2097   0.440   2.248   2.085 -0.6370  0.4463 -0.4181
  525SOL    HW1 2098   0.385   2.191   2.149  0.3657  1.8435 -0.0807
  525SOL    HW2 2099   0.473   2.190   2.024  1.1020  0.1840 -0.5991
  525SOL     MW 2100   0.437   2.233   2.086 -0.2753  0.5961 -0.3975
  526SOL     OW 2101   0.676   2.096   2.001 -0.4082 -0.6471 -0.2050
  526SOL    HW1 2102   0.713   2.121   1.911 -1.1089 -0.6357  2.5102
  526SOL    HW2 2103   0.726   2.144   2.068  0.3919  1.7918 -0.3967
  526SOL     MW 2104   0.687   2.106   1.998 -0.3950 -0.3238  0.1280
  527SOL     OW 2105   1.353   2.018   2.099  0.6046 -0.2164 -0.3149
  527SOL    HW1 2106   1.355   1.980   2.186  0.4817 -0.2706  1.4420
  527SOL    HW2 2107   1.340   1.942   2.039  0.5493 -1.1905  1.1779
  527SOL     MW 2108   1.351   2.003   2.103  0.5811 -0.3521  0.1139
  528SOL     OW 2109   0.717   2.931   2.896  0.4939 -0.1369 -0.2653
  528SOL    HW1 2110   0.691   3.025   2.911 -2.3388  1.7419 -0.7510
  528SOL    HW2 2111   0.677   2.927   2.805  0.2450 -0.4317 -1.9097
  528SOL     MW 2112   0.708   2.943   2.886  0.0873  0.0721 -0.5464
  529SOL     OW 2113   1.034   2.286   1.847  0.3644  0.0059 -0.2623
  529SOL    HW1 2114   1.065   2.305   1.939 -1.7014 -0.7112  2.4648
  529SOL    HW2 2115   1.088   2.339   1.797 -1.7601 -2.9167 -1.1477
  529SOL     MW 2116   1.045   2.295   1.852 -0.1885 -0.4743 -0.0193
  530SOL     OW 2117   1.190   2.435   3.056  0.3635 -0.2002  0.1219
  530SOL    HW1 2118   1.104   2.444   3.089  0.7463  0.0577 -1.5533
  530SOL    HW2 2119   1.214   2.350   3.019  2.2444 -2.1523  1.2847
  530SOL     MW 2120   1.182   2.425   3.056  0.6622 -0.4238  0.0543
  531SOL     OW 2121   0.992   1.880   2.600 -0.4623 -0.4080 -0.2271
  531SOL    HW1 2122   0.975   1.947   2.665  2.1316 -1.3509 -1.7637
  531SOL    HW2 2123   0.962   1.799   2.643  0.2311 -0.1111 -0.8526
  531SOL     MW 2124   0.986   1.878   2.614 -0.0286 -0.4932 -0.5124
  532SOL     OW 2125   1.722   0.329   2.897 -0.1297 -0.4454  0.4259
  532SOL    HW1 2126   1.721   0.230   2.917  0.7459 -2.3760 -0.2551
  532SOL    HW2 2127   1.820   0.353   2.904  4.7983  1.2345  2.0797
  532SOL     MW 2128   1.735   0.319   2.901  0.6360 -0.4785  0.5543
  533SOL     OW 2129   1.805   2.670   2.981 -0.8694 -0.3467  0.1923
  533SOL    HW1 2130   1.755   2.618   3.044  0.4058 -1.1333  3.3978
  533SOL    HW2 2131   1.758   2.642   2.895 -0.2492 -1.0006 -2.4278
  533SOL     MW 2132   1.793   2.660   2.978 -0.6193 -0.5368  0.2696
  534SOL     OW 2133   1.796   2.346   2.456  0.1240  0.2895  0.0117
  534SOL    HW1 2134   1.723   2.319   2.518 -2.4721  0.4805  0.5050
  534SOL    HW2 2135   1.868   2.302   2.494  0.8005 -0.3059  2.9870
  534SOL     MW 2136   1.796   2.337   2.469 -0.1293  0.2361  0.4694
  535SOL     OW 2137   1.826   2.353   1.930  0.3634 -0.0800 -1.3142
  535SOL    HW1 2138   1.779   2.354   1.843 -1.9538 -1.3450  1.7831
  535SOL    HW2 2139   1.915   2.379   1.914 -1.7005 -1.3927 -1.2079
  535SOL     MW 2140   1.831   2.357   1.917 -0.2147 -0.4201 -0.8915
  536SOL     OW 2141   0.443   1.879   2.019 -0.1735  0.5391 -0.0006
  536SOL    HW1 2142   0.430   1.800   1.967  1.7814  0.5827  1.0117
  536SOL    HW2 2143   0.518   1.926   1.988  1.8263 -0.3348 -0.9414
  536SOL     MW 2144   0.451   1.875   2.008  0.3483  0.4295  0.0089
  537SOL     OW 2145   1.057   0.149   2.875 -0.4775  0.2652  0.1825
  537SOL    HW1 2146   1.015   0.118   2.955 -1.9319  1.9335  3.7394
  537SOL    HW2 2147   1.074   0.238   2.898  1.4997 -1.4346 -0.9560
  537SOL     MW 2148   1.053   0.157   2.888 -0.4085  0.2610  0.5016
  538SOL     OW 2149   1.373   0.067   2.966 -0.0781  0.4538  0.2669
  538SOL    HW1 2150   1.315   0.121   2.912  1.3741  1.1932 -1.9832
  538SOL    HW2 2151   1.456   0.055   2.915 -0.1130 -1.4011  0.5944
  538SOL     MW 2152   1.376   0.072   2.952  0.1089  0.3066  0.0132
  539SOL     OW 2153   0.765   2.771   2.562 -0.1375  0.1610 -0.1983
  539SOL    HW1 2154   0.862   2.807   2.568  0.5955  0.4122  0.5015
  539SOL    HW2 2155   0.777   2.678   2.572  0.8260  1.8423  1.1178
  539SOL     MW 2156   0.780   2.763   2.564  0.0863  0.4160  0.0676
  540SOL     OW 2157   0.342   2.369   2.855  0.2362  0.7329 -0.7536
  540SOL    HW1 2158   0.417   2.363   2.921  0.9057 -0.0602  0.0081
  540SOL    HW2 2159   0.290   2.289   2.864 -0.7661  0.4965  1.9810
  540SOL     MW 2160   0.345   2.358   2.865  0.1923  0.5971 -0.2923
  541SOL     OW 2161   0.175   2.930   2.204  0.3443 -0.1645  0.3633
  541SOL    HW1 2162   0.221   2.873   2.144 -1.0629 -0.4541  0.6087
  541SOL    HW2 2163   0.207   2.905   2.290  1.6435  1.9842  0.2659
  541SOL     MW 2164   0.185   2.919   2.207  0.3300  0.0808  0.3829
  542SOL     OW 2165   1.023   2.271   2.573 -0.2669 -0.4330 -0.1706
  542SOL    HW1 2166   0.952   2.221   2.610 -2.4163 -1.5831  2.0204
  542SOL    HW2 2167   1.054   2.324   2.650 -1.2079 -1.2676  1.3198
  542SOL     MW 2168   1.018   2.271   2.588 -0.6747 -0.6948  0.3151
  543SOL     OW 2169   1.453   2.488   2.748  0.3629 -0.1509  0.0855
  543SOL    HW1 2170   1.500   2.424   2.697 -0.3274  1.9583  0.0441
  543SOL    HW2 2171   1.523   2.560   2.754  3.3421 -0.0772 -0.6266
  543SOL     MW 2172   1.469   2.489   2.742  0.6649  0.1371 -0.0139
  544SOL     OW 2173   0.643   0.247   2.675  0.8733  0.0853 -0.0492
  544SOL    HW1 2174   0.547   0.250   2.686  4.5961 -2.0865  0.0521
  544SOL    HW2 2175   0.657   0.181   2.608  2.0527  2.4771 -0.0434
  544SOL     MW 2176   0.632   0.238   2.667  1.5201  0.1143 -0.0351
  545SOL     OW 2177   1.557   2.180   2.329  0.7732 -0.5750 -0.2572
  545SOL    HW1 2178   1.508   2.243   2.274  1.0014 -0.3296 -0.1131
  545SOL    HW2 2179   1.619   2.133   2.273 -0.4269 -1.6618  1.2202
  545SOL     MW 2180   1.558   2.182   2.315  0.6449 -0.6860 -0.0432
  546SOL     OW 2181   2.953   2.027   0.134  0.3060 -0.6053 -0.1504
  546SOL    HW1 2182   2.945   2.100   0.062 -1.5638 -1.9588  0.3966
  546SOL    HW2 2183   3.035   1.988   0.097  2.0450  0.3461 -0.3726
  546SOL     MW 2184   2.962   2.031   0.119  0.2887 -0.6584 -0.1075
  547SOL     OW 2185   0.270   2.975   0.146  0.2504  0.6111  0.3986
  547SOL    HW1 2186   0.276   3.013   0.054  1.0397 -0.1865  2.4070
  547SOL    HW2 2187   0.246   2.881   0.132  0.4155 -2.4754 -2.0394
  547SOL     MW 2188   0.268   2.968   0.132  0.3764  0.0986  0.3419
  548SOL     OW 2189   0.277   2.562   0.239 -0.1334  0.0719 -0.2789
  548SOL    HW1 2190   0.264   2.608   0.155  0.8937 -0.3639 -1.0770
  548SOL    HW2 2191   0.205   2.499   0.251  1.3333  1.5627  0.8467
  548SOL     MW 2192   0.266   2.560   0.230  0.1957  0.2111 -0.2357
  549SOL     OW 2193   0.816   1.905   2.125  0.7884 -0.3667  0.3527
  549SOL    HW1 2194   0.773   1.963   2.069 -1.0966  0.3219  1.3913
  549SOL    HW2 2195   0.785   1.925   2.210 -2.6573 -0.2909 -2.5368
  549SOL     MW 2196   0.806   1.915   2.129  0.0851 -0.2658  0.1085
  550SOL     OW 2197   1.790   1.711   2.530  0.2324 -0.2002  0.2023
  550SOL    HW1 2198   1.765   1.696   2.436 -2.2004 -3.3111 -0.0064
  550SOL    HW2 2199   1.763   1.799   2.567 -2.7180 -0.0315  0.8967
  550SOL     MW 2200   1.783   1.721   2.523 -0.4778 -0.5884  0.2664
  551SOL     OW 2201   0.873   2.280   0.229  0.0296 -0.7421 -0.2507
  551SOL    HW1 2202   0.966   2.301   0.225  0.8667 -0.5918 -1.0992
  551SOL    HW2 2203   0.850   2.211   0.172 -1.1289 -0.2218 -0.2948
  551SOL     MW 2204   0.883   2.274   0.221 -0.0128 -0.6537 -0.3685
  552SOL     OW 2205   1.757   1.744   2.255  0.0049 -0.1955  0.0693
  552SOL    HW1 2206   1.672   1.718   2.263  3.5138  3.1790 -1.2059
  552SOL    HW2 2207   1.794   1.699   2.173 -0.2993  0.2949 -0.0413
  552SOL     MW 2208   1.751   1.735   2.245  0.4277  0.3144 -0.1135
  553SOL     OW 2209   1.186   2.317   1.466  0.0247 -0.2449 -0.2565
  553SOL    HW1 2210   1.215   2.227   1.464 -0.7801  1.0141  1.8422
  553SOL    HW2 2211   1.255   2.382   1.460 -1.5687  1.5696 -1.0110
  553SOL     MW 2212   1.199   2.314   1.465 -0.2917  0.1606 -0.0791
  554SOL     OW 2213   0.551   2.914   2.672  0.1940  0.0766 -0.0838
  554SOL    HW1 2214   0.516   2.984   2.613 -1.7899 -0.2097 -0.2514
  554SOL    HW2 2215   0.613   2.874   2.608 -0.5616  2.9735  0.3708
  554SOL     MW 2216   0.555   2.918   2.656 -0.1674  0.4210 -0.0459
  555SOL     OW 2217   0.627   2.447   2.573  0.2335  0.1396  0.0853
  555SOL    HW1 2218   0.591   2.362   2.556 -1.4549  2.1051 -0.7436
  555SOL    HW2 2219   0.707   2.446   2.514  0.0137  0.7538  1.5640
  555SOL     MW 2220   0.633   2.436   2.563 -0.0183  0.4799  0.1711
  556SOL     OW 2221   0.941   1.779   0.159 -0.1371  0.5611  0.4069
  556SOL    HW1 2222   0.960   1.792   0.068 -0.9353 -1.1137  0.8247
  556SOL    HW2 2223   1.018   1.817   0.203 -1.0130  0.0988  0.2361
  556SOL     MW 2224   0.954   1.786   0.153 -0.3580  0.2791  0.4395
  557SOL     OW 2225   0.972   2.685   0.499  0.1937 -0.2448  0.0929
  557SOL    HW1 2226   1.025   2.668   0.421  1.0035 -0.0829 -0.0561
  557SOL    HW2 2227   0.900   2.747   0.474  0.5918 -0.8732  3.2951
  557SOL     MW 2228   0.970   2.691   0.485  0.3530 -0.3063  0.4958
  558SOL     OW 2229   0.258   2.146   3.095 -0.0916  0.5665 -1.0072
  558SOL    HW1 2230   0.206   2.070   3.126  1.3237 -0.9220  2.1927
  558SOL    HW2 2231   0.203   2.222   3.115 -1.4332  1.4655 -1.1299
  558SOL     MW 2232   0.244   2.146   3.102 -0.0819  0.4887 -0.6012
  559SOL     OW 2233   1.053   2.305   2.125 -0.8845 -0.3004  0.1119
  559SOL    HW1 2234   1.095   2.387   2.145 -0.0824  1.3725 -2.2106
  559SOL    HW2 2235   1.080   2.238   2.187  0.2761  1.3111  6.0447
  559SOL     MW 2236   1.062   2.307   2.136 -0.6256  0.1329  0.5882
  560SOL     OW 2237   1.922   2.853   0.067  0.7875  0.1664  0.2617
  560SOL    HW1 2238   1.991   2.891   0.014 -0.5378  1.3025 -3.1676
  560SOL    HW2 2239   1.896   2.783   0.011 -1.6170  0.3096  0.3200
  560SOL     MW 2240   1.928   2.849   0.053  0.2954  0.3352 -0.1830
  561SOL     OW 2241   0.436   2.162   0.217 -0.3374  0.8926  0.2396
  561SOL    HW1 2242   0.396   2.183   0.135 -1.4724 -3.5007 -3.5067
  561SOL    HW2 2243   0.488   2.237   0.256 -0.3269 -0.3092  2.0547
  561SOL     MW 2244   0.438   2.175   0.211 -0.4858  0.1544 -0.0152
  562SOL     OW 2245   0.796   2.200   2.226 -0.4963  0.5964 -0.2644
  562SOL    HW1 2246   0.828   2.286   2.202  1.9979  1.8256  0.5889
  562SOL    HW2 2247   0.871   2.153   2.258 -2.7485  0.1339 -0.8172
  562SOL     MW 2248   0.810   2.205   2.227 -0.4644  0.6975 -0.2248
  563SOL     OW 2249   1.137   0.324   0.580  0.4611  0.6181 -0.4007
  563SOL    HW1 2250   1.052   0.289   0.552  0.1682 -0.0012  2.3391
  563SOL    HW2 2251   1.184   0.249   0.623 -0.5281 -0.9298 -0.1727
  563SOL     MW 2252   1.132   0.310   0.582  0.2919  0.3322 -0.0091
  564SOL     OW 2253   1.026   2.613   2.250  0.0888  0.5265 -0.7871
  564SOL    HW1 2254   1.090   2.618   2.177 -1.8405 -1.7380  1.1459
  564SOL    HW2 2255   1.075   2.642   2.329  0.2831 -0.1021 -1.2483
  564SOL     MW 2256   1.041   2.617   2.251 -0.1401  0.1448 -0.5929
  565SOL     OW 2257   2.909   2.686   2.653 -0.1731  0.1784  0.1514
  565SOL    HW1 2258   2.972   2.759   2.636  1.3114  1.3155  0.4792
  565SOL    HW2 2259   2.841   2.713   2.592  1.5841  0.1932  0.4363
  565SOL     MW 2260   2.908   2.699   2.643  0.2546  0.3303  0.2323
  566SOL     OW 2261   2.148   1.872   2.393  0.4379  0.5374 -0.7262
  566SOL    HW1 2262   2.205   1.831   2.329 -1.2094  1.2411 -2.2408
  566SOL    HW2 2263   2.180   1.962   2.401 -1.4150 -2.4254  0.9394
  566SOL     MW 2264   2.160   1.878   2.385 -0.0239  0.2394 -0.7063
  567SOL     OW 2265   1.171   2.940   2.964 -0.5696 -0.8578  0.0276
  567SOL    HW1 2266   1.251   3.002   2.969  3.4554 -0.5141 -1.5931
  567SOL    HW2 2267   1.199   2.849   2.958  2.2317 -2.5108  0.7302
  567SOL     MW 2268   1.185   2.936   2.964  0.3310 -1.0305 -0.0935
  568SOL     OW 2269   1.625   2.118   2.889 -0.5184  0.3413  0.2221
  568SOL    HW1 2270   1.686   2.169   2.942 -1.8737  0.8158  1.0261
  568SOL    HW2 2271   1.672   2.039   2.844  0.4377  0.4601 -1.8355
  568SOL     MW 2272   1.640   2.114   2.890 -0.5711  0.4196  0.0567
  569SOL     OW 2273   0.187   2.238   2.474 -0.6995 -0.0300 -0.1999
  569SOL    HW1 2274   0.135   2.288   2.403 -1.4993  1.8242  1.0146
  569SOL    HW2 2275   0.195   2.313   2.537  0.0946 -1.1988  3.1799
  569SOL     MW 2276   0.181   2.254   2.473 -0.7003  0.0604  0.4063
  570SOL     OW 2277   1.457   0.385   0.473 -0.6400 -0.3184  0.0619
  570SOL    HW1 2278   1.368   0.369   0.493  0.5238  1.4308  2.2437
  570SOL    HW2 2279   1.480   0.433   0.553 -2.7911  1.7048  0.8811
  570SOL     MW 2280   1.448   0.390   0.486 -0.7703  0.1793  0.4579
  571SOL     OW 2281   1.473   2.411   1.978 -0.1113  0.1056 -0.1568
  571SOL    HW1 2282   1.525   2.419   2.057  1.4336  1.2646  1.2717
  571SOL    HW2 2283   1.504   2.319   1.954  0.4160 -0.4465  0.3038
  571SOL     MW 2284   1.484   2.400   1.985  0.1621  0.1856  0.0925
  572SOL     OW 2285   0.920   2.613   0.034  0.3347  0.8219  0.0400
  572SOL    HW1 2286   0.924   2.650  -0.056 -1.2770  1.0600  0.2321
  572SOL    HW2 2287   0.833   2.572   0.047  0.4019 -2.0124  0.9756
  572SOL     MW 2288   0.909   2.613   0.024  0.1309  0.4794  0.1888
  573SOL     OW 2289   1.179   2.361   0.265 -0.0262 -0.5272 -0.1945
  573SOL    HW1 2290   1.266   2.359   0.231 -4.1567 -1.0025  0.4055
  573SOL    HW2 2291   1.157   2.460   0.261 -1.9794  1.3968 -0.5785
  573SOL     MW 2292   1.188   2.374   0.260 -0.8289 -0.3361 -0.1660
  574SOL     OW 2293   1.137   2.623   0.252  0.1398 -0.4588  0.2757
  574SOL    HW1 2294   1.188   2.697   0.281 -2.8609 -1.5281 -0.2506
  574SOL    HW2 2295   1.088   2.646   0.179  3.6572  0.7911  0.3347
  574SOL     MW 2296   1.137   2.636   0.246  0.2080 -0.4350  0.2140
  575SOL     OW 2297   0.028   2.290   1.796 -0.0800 -0.2652 -0.0896
  575SOL    HW1 2298   0.033   2.209   1.743  0.0111  2.3692 -1.9147
  575SOL    HW2 2299   0.061   2.358   1.742 -0.1961  1.5391  0.7398
  575SOL     MW 2300   0.033   2.288   1.782 -0.0833  0.3204 -0.2210
  576SOL     OW 2301   2.853   1.811   2.058 -0.4721  0.3689  0.2493
  576SOL    HW1 2302   2.886   1.895   2.016  0.0556  0.1077  0.9532
  576SOL    HW2 2303   2.762   1.792   2.036 -0.5928  2.1552 -1.3256
  576SOL     MW 2304   2.846   1.820   2.050 -0.4184  0.5701  0.1344
  577SOL     OW 2305   2.107   0.208   0.070  0.0201 -0.5681  0.4749
  577SOL    HW1 2306   2.019   0.213   0.023 -1.1546  1.8482 -0.5842
  577SOL    HW2 2307   2.073   0.180   0.155  0.7974  3.4437 -1.0592
  577SOL     MW 2308   2.091   0.205   0.075 -0.0323  0.2800  0.1328
  578SOL     OW 2309   1.902   2.035   2.412  0.0581 -0.0532 -0.6129
  578SOL    HW1 2310   1.822   2.030   2.355 -0.1290  2.3101 -0.8147
  578SOL    HW2 2311   1.958   1.959   2.391 -1.3236 -1.7984 -2.3522
  578SOL     MW 2312   1.899   2.025   2.401 -0.1488  0.0283 -0.8690
  579SOL     OW 2313   0.884   2.474   2.455 -0.2162 -0.2149 -0.7450
  579SOL    HW1 2314   0.933   2.391   2.487  0.6520 -1.1095  1.2790
  579SOL    HW2 2315   0.953   2.503   2.392  0.7298 -0.8375  0.2998
  579SOL     MW 2316   0.900   2.467   2.451  0.0232 -0.4150 -0.3401
  580SOL     OW 2317   0.929   2.981   3.054  0.1089 -0.5138 -0.5501
  580SOL    HW1 2318   1.012   2.955   3.008 -0.7309 -0.9468 -1.1711
  580SOL    HW2 2319   0.853   2.951   2.995  1.4184  2.2857 -3.1664
  580SOL     MW 2320   0.930   2.974   3.040  0.1709 -0.2015 -0.9772
  581SOL     OW 2321   1.201   2.473   1.702  0.0338 -0.0315 -0.0317
  581SOL    HW1 2322   1.225   2.555   1.664 -1.0411  1.5574 -2.6017
  581SOL    HW2 2323   1.200   2.416   1.623  3.8973  2.8572  0.5905
  581SOL     MW 2324   1.204   2.476   1.686  0.4017  0.5593 -0.2887
  582SOL     OW 2325   3.089   2.867   2.527  0.1789 -0.2183  0.0547
  582SOL    HW1 2326   3.078   2.943   2.578  0.2559  0.1020 -1.6292
  582SOL    HW2 2327   3.184   2.862   2.533  1.7199 -1.7241 -0.1167
  582SOL     MW 2328   3.100   2.876   2.535  0.3924 -0.3747 -0.1901
  583SOL     OW 2329   2.035   2.359   2.695  0.3737 -0.0704 -0.3909
  583SOL    HW1 2330   2.087   2.376   2.612 -1.5966  0.9721 -1.2268
  583SOL    HW2 2331   2.020   2.261   2.698  1.3680 -1.2759 -1.3320
  583SOL     MW 2332   2.040   2.348   2.684  0.2449 -0.0919 -0.6254
  584SOL     OW 2333   0.220   1.828   2.191  0.4944 -0.2251  0.5174
  584SOL    HW1 2334   0.293   1.825   2.134 -0.1473  0.9026 -1.1696
  584SOL    HW2 2335   0.237   1.904   2.250  0.0732 -1.9845  2.9331
  584SOL     MW 2336   0.232   1.837   2.191  0.3542 -0.3085  0.6135
  585SOL     OW 2337   1.460   2.654   0.154  0.8056  0.2706  0.2347
  585SOL    HW1 2338   1.438   2.607   0.071  1.7164  0.4982  1.6610
  585SOL    HW2 2339   1.384   2.708   0.191 -0.7633  1.0407 -0.4052
  585SOL     MW 2340   1.447   2.655   0.148  0.7188  0.4022  0.3385
  586SOL     OW 2341   1.379   2.837   2.518 -0.6696  0.5379  0.1520
  586SOL    HW1 2342   1.444   2.790   2.469  1.4808 -1.8746  1.8001
  586SOL    HW2 2343   1.392   2.936   2.512  1.6073  1.0709  0.3954
  586SOL     MW 2344   1.389   2.844   2.511 -0.0855  0.2899  0.4016
  587SOL     OW 2345   1.312   1.560   2.172  0.2565 -0.2297  0.0147
  587SOL    HW1 2346   1.306   1.479   2.227  1.9541 -0.6474  0.4656
  587SOL    HW2 2347   1.288   1.532   2.081 -4.7781  1.3174 -0.4203
  587SOL     MW 2348   1.308   1.545   2.167 -0.1838 -0.0807  0.0168
  588SOL     OW 2349   1.374   2.123   2.763  0.2970 -0.4938 -0.4984
  588SOL    HW1 2350   1.456   2.130   2.824 -3.1528  1.5700 -1.0017
  588SOL    HW2 2351   1.298   2.148   2.820 -0.5691  3.2433 -0.1775
  588SOL     MW 2352   1.375   2.127   2.779 -0.2724  0.2715 -0.5225
  589SOL     OW 2353   1.265   2.048   0.087 -0.2566 -0.2123  0.8578
  589SOL    HW1 2354   1.301   2.132   0.122 -0.1413 -0.6475  2.0186
  589SOL    HW2 2355   1.212   2.002   0.153 -1.8548 -0.4170 -2.2213
  589SOL     MW 2356   1.263   2.053   0.101 -0.4523 -0.2968  0.6047
  590SOL     OW 2357   0.418   2.747   2.211  0.1144  0.8126 -0.3943
  590SOL    HW1 2358   0.414   2.703   2.129  1.7956  0.1765  2.7281
  590SOL    HW2 2359   0.507   2.769   2.240 -0.4321  0.0821 -2.5774
  590SOL     MW 2360   0.429   2.744   2.204  0.2641  0.6323 -0.2704
  591SOL     OW 2361   2.290   0.696   0.009 -0.1046 -0.3627 -0.3161
  591SOL    HW1 2362   2.219   0.759  -0.015 -2.9125  1.2047  2.2029
  591SOL    HW2 2363   2.371   0.727  -0.055  1.2114  1.2198 -3.2224
  591SOL     MW 2364   2.291   0.709  -0.002 -0.3014  0.0529 -0.3672
  592SOL     OW 2365   1.800   2.955   0.841 -0.1463 -0.7238 -0.2044
  592SOL    HW1 2366   1.793   3.038   0.789 -0.3677  0.5875 -3.3890
  592SOL    HW2 2367   1.835   2.884   0.782  1.1916  0.8477 -0.4850
  592SOL     MW 2368   1.804   2.957   0.826  0.0010 -0.3434 -0.6616
  593SOL     OW 2369   1.935   0.707   0.877 -0.5012 -0.0638 -0.0548
  593SOL    HW1 2370   1.863   0.692   0.814 -0.0804  2.4246 -3.2660
  593SOL    HW2 2371   1.949   0.620   0.916 -2.7070 -0.3992  0.4881
  593SOL     MW 2372   1.927   0.693   0.874 -0.7367  0.2202 -0.4069
  594SOL     OW 2373   2.825   1.147   1.340 -0.1760 -0.1735  0.1830
  594SOL    HW1 2374   2.914   1.173   1.368  0.9075  0.0570 -0.3678
  594SOL    HW2 2375   2.819   1.088   1.261 -0.8176  0.1895  0.2490
  594SOL     MW 2376   2.836   1.143   1.333 -0.1177 -0.0952  0.1190
  595SOL     OW 2377   0.466   0.990   0.803 -0.3851  0.1518 -0.1824
  595SOL    HW1 2378   0.493   1.060   0.739  3.5879  1.9845 -0.8896
  595SOL    HW2 2379   0.492   1.039   0.880  3.1147  2.2378  1.6946
  595SOL     MW 2380   0.473   1.006   0.805  0.6008  0.6688 -0.0281
  596SOL     OW 2381   2.451   1.335   0.573 -0.4144  0.0693  0.5049
  596SOL    HW1 2382   2.505   1.414   0.556  0.2495  1.8263  0.8295
  596SOL    HW2 2383   2.492   1.304   0.653  0.5691 -3.6811 -0.0000
  596SOL     MW 2384   2.463   1.342   0.581 -0.1970 -0.1937  0.4811
  597SOL     OW 2385   2.176   0.725   1.601  0.1906  0.5807  0.4120
  597SOL    HW1 2386   2.213   0.657   1.661 -0.4503 -0.2123  0.6469
  597SOL    HW2 2387   2.107   0.670   1.551  0.6043  0.4882 -2.7134
  597SOL     MW 2388   2.172   0.709   1.603  0.1606  0.4638  0.0306
  598SOL     OW 2389   2.592   1.007   2.865  0.0491  0.1241  0.3062
  598SOL    HW1 2390   2.573   1.011   2.772  0.3040  1.4380  1.8814
  598SOL    HW2 2391   2.678   1.050   2.868  1.4956 -0.9040 -0.8764
  598SOL     MW 2392   2.601   1.013   2.853  0.2735  0.1618  0.3580
  599SOL     OW 2393   2.973   0.443   2.044  0.2024 -0.3704  0.0178
  599SOL    HW1 2394   2.986   0.447   2.138  0.6761  0.9842  1.0760
  599SOL    HW2 2395   3.016   0.526   2.007 -1.3551 -0.6832 -0.9223
  599SOL     MW 2396   2.981   0.454   2.051  0.0594 -0.2330  0.0334
  600SOL     OW 2397   1.906   1.619   0.863 -0.6225 -0.1711  0.1124
  600SOL    HW1 2398   1.962   1.647   0.938  0.7027  2.1095 -2.2178
  600SOL    HW2 2399   1.826   1.676   0.852  1.2092  1.4306  0.4920
  600SOL     MW 2400   1.903   1.630   0.871 -0.2060  0.3411 -0.1450
  601SOL     OW 2401   2.519   0.785   0.829 -1.3587 -0.2292 -0.1297
  601SOL    HW1 2402   2.522   0.795   0.922  2.4228 -2.1106  3.4516
  601SOL    HW2 2403   2.442   0.736   0.805 -0.6526  0.3540 -0.3330
  601SOL     MW 2404   2.509   0.780   0.838 -0.7666 -0.4005  0.3160
  602SOL     OW 2405   2.356   1.903   0.869 -0.1343 -0.1304 -0.1251
  602SOL    HW1 2406   2.302   1.820   0.860 -2.1522  0.9807  1.3891
  602SOL    HW2 2407   2.308   1.968   0.818 -0.1391  0.4345 -0.2297
  602SOL     MW 2408   2.343   1.901   0.861 -0.4011  0.0907  0.0609
  603SOL     OW 2409   3.076   1.384   1.798  0.2761 -0.3364 -0.0785
  603SOL    HW1 2410   3.120   1.416   1.877 -1.2438 -0.1714  0.6425
  603SOL    HW2 2411   3.071   1.293   1.829 -0.0906 -1.0417  1.6715
  603SOL     MW 2412   3.081   1.376   1.813  0.0272 -0.4077  0.2475
  604SOL     OW 2413   2.174   1.579   0.460 -0.1067  0.1704 -0.2977
  604SOL    HW1 2414   2.204   1.498   0.503  0.8942  0.8019 -0.3923
  604SOL    HW2 2415   2.083   1.599   0.501 -0.2376 -1.5137  0.5736
  604SOL     MW 2416   2.166   1.571   0.471  0.0081  0.0315 -0.1952
  605SOL     OW 2417   2.619   1.527   0.828  0.1010 -0.5029 -0.0702
  605SOL    HW1 2418   2.599   1.625   0.809  0.0638  1.5619 -1.9782
  605SOL    HW2 2419   2.564   1.477   0.770  0.8521  0.7280  0.4989
  605SOL     MW 2420   2.609   1.534   0.818  0.1952 -0.0681 -0.2468
  606SOL     OW 2421   2.526   1.811   1.970  0.2347 -0.7485  0.7640
  606SOL    HW1 2422   2.437   1.818   1.942  0.4018 -0.8450  1.2227
  606SOL    HW2 2423   2.567   1.775   1.893 -0.8550  0.5220  0.4726
  606SOL     MW 2424   2.520   1.807   1.956  0.1130 -0.5936  0.7861
  607SOL     OW 2425   2.398   1.087   3.039  0.0024  0.9140 -0.0698
  607SOL    HW1 2426   2.474   1.052   2.993  1.0428  2.6809 -1.1865
  607SOL    HW2 2427   2.412   1.052   3.132 -1.0438 -1.0387  1.3750
  607SOL     MW 2428   2.410   1.078   3.045  0.0017  0.8895 -0.0265
  608SOL     OW 2429   1.874   0.274   0.624 -0.2169 -0.2919 -0.0961
  608SOL    HW1 2430   1.850   0.333   0.545 -0.0462 -1.5347  1.6303
  608SOL    HW2 2431   1.844   0.181   0.606 -0.2692 -1.2114 -0.8073
  608SOL     MW 2432   1.867   0.269   0.611 -0.2013 -0.5772  0.0378
  609SOL     OW 2433   2.030   2.011   3.043  0.0259 -0.5526  0.1680
  609SOL    HW1 2434   1.995   1.941   2.985  2.9961  0.3705  0.1330
  609SOL    HW2 2435   2.101   1.978   3.100 -2.9289  0.7124 -1.1315
  609SOL     MW 2436   2.035   1.997   3.043  0.0280 -0.2639 -0.0081
  610SOL     OW 2437   1.766   1.011   1.302 -0.3218  0.0009  0.0633
  610SOL    HW1 2438   1.802   0.926   1.282 -1.9697  2.2909  0.3748
  610SOL    HW2 2439   1.680   1.000   1.266  1.4739 -0.3909  1.0057
  610SOL     MW 2440   1.759   0.998   1.295 -0.3023  0.2513  0.2288
  611SOL     OW 2441   2.513   1.769   0.682  0.3846 -0.4449  0.0795
  611SOL    HW1 2442   2.476   1.825   0.750 -0.2877 -0.4107 -0.9193
  611SOL    HW2 2443   2.511   1.841   0.619 -3.1638 -1.9638  2.2427
  611SOL     MW 2444   2.508   1.786   0.683 -0.1723 -0.6408  0.2331
  612SOL     OW 2445   2.795   2.818   0.415 -0.2154  0.1990 -0.0619
  612SOL    HW1 2446   2.821   2.899   0.456  0.1771 -1.5812 -0.8395
  612SOL    HW2 2447   2.883   2.781   0.387  0.9460  0.1957  2.0138
  612SOL     MW 2448   2.810   2.824   0.417 -0.0104 -0.0363  0.1094
  613SOL     OW 2449   1.477   0.978   0.960 -0.3816 -0.1126 -0.5269
  613SOL    HW1 2450   1.543   1.044   0.936  3.7757 -0.7964  0.3867
  613SOL    HW2 2451   1.513   0.956   1.046 -0.1312  1.3800  0.4847
  613SOL     MW 2452   1.490   0.983   0.968  0.2000 -0.0059 -0.2729
  614SOL     OW 2453   2.009   0.560   1.466  0.0331 -0.3269  0.1532
  614SOL    HW1 2454   1.987   0.473   1.505  2.2346 -0.0281  2.0694
  614SOL    HW2 2455   1.960   0.550   1.386 -0.7169 -0.2209  3.0656
  614SOL     MW 2456   1.999   0.547   1.461  0.2246 -0.2735  0.7903
  615SOL     OW 2457   2.400   0.730   0.255 -0.0485  0.4904 -0.1658
  615SOL    HW1 2458   2.440   0.652   0.289 -2.3127  0.3459 -0.0019
  615SOL    HW2 2459   2.367   0.702   0.170  2.3856 -1.8441 -1.2873
  615SOL     MW 2460   2.401   0.716   0.248 -0.0261  0.1633 -0.2922
  616SOL     OW 2461   2.482   0.402   1.627  0.2942  0.4384  0.6942
  616SOL    HW1 2462   2.446   0.325   1.578  0.8565 -1.3872 -0.2129
  616SOL    HW2 2463   2.482   0.477   1.565  2.7278  1.2608  2.7414
  616SOL     MW 2464   2.477   0.401   1.612  0.6895  0.3060  0.8447
  617SOL     OW 2465   2.883   0.622   1.725 -0.8117  1.1871  0.1963
  617SOL    HW1 2466   2.811   0.639   1.782  0.0871  0.6037  0.4047
  617SOL    HW2 2467   2.889   0.529   1.748  0.3292 -1.4824 -2.6143
  617SOL     MW 2468   2.875   0.612   1.736 -0.5426  0.7579 -0.1471
  618SOL     OW 2469   2.733   0.388   1.881 -0.9300 -0.0320  0.4226
  618SOL    HW1 2470   2.687   0.471   1.892  1.6054  2.3249 -0.3914
  618SOL    HW2 2471   2.785   0.390   1.960 -2.0886  0.8519  1.9501
  618SOL     MW 2472   2.734   0.399   1.893 -0.7484  0.3956  0.5168
  619SOL     OW 2473   2.654   0.638   0.115  0.5469 -0.2454 -0.8376
  619SOL    HW1 2474   2.699   0.713   0.155 -0.6764  0.6669  0.1033
  619SOL    HW2 2475   2.616   0.580   0.182 -2.3951  0.0278 -1.2188
  619SOL     MW 2476   2.655   0.640   0.129 -0.0027 -0.0889 -0.7638
  620SOL     OW 2477   2.258   1.044   1.004 -0.5521  0.0377 -0.5050
  620SOL    HW1 2478   2.339   1.061   0.952 -0.4149  0.1799 -0.2119
  620SOL    HW2 2479   2.203   0.982   0.947 -1.4976 -0.2239  0.0022
  620SOL     MW 2480   2.262   1.038   0.990 -0.6588  0.0219 -0.3994
  621SOL     OW 2481   1.534   2.139   1.930  0.4237  0.4550 -0.4213
  621SOL    HW1 2482   1.475   2.091   1.999 -2.5484  2.9915  0.6724
  621SOL    HW2 2483   1.619   2.099   1.932  1.5255  1.3132 -2.4320
  621SOL     MW 2484   1.537   2.128   1.939  0.1769  0.9029 -0.5423
  622SOL     OW 2485   2.629   0.159   0.251 -0.0691  0.0521 -0.2186
  622SOL    HW1 2486   2.724   0.160   0.238 -0.4251  1.0792 -0.8140
  622SOL    HW2 2487   2.602   0.072   0.281 -1.1739 -0.1102  0.7496
  622SOL     MW 2488   2.638   0.148   0.253 -0.2618  0.1662 -0.1694
  623SOL     OW 2489   2.343   2.828   0.859  0.3725  0.0117  0.1729
  623SOL    HW1 2490   2.413   2.892   0.866  0.3882 -2.8581 -2.2985
  623SOL    HW2 2491   2.274   2.843   0.927  1.8143 -2.0041 -2.1378
  623SOL     MW 2492   2.344   2.839   0.869  0.5648 -0.6329 -0.4581
  624SOL     OW 2493   2.186   1.723   3.000  0.0763 -0.1925 -0.1408
  624SOL    HW1 2494   2.156   1.648   3.054 -1.2268  0.6974 -0.8553
  624SOL    HW2 2495   2.112   1.765   2.951 -2.8704  3.2391 -0.2806
  624SOL     MW 2496   2.172   1.719   3.001 -0.4844  0.3777 -0.2535
  625SOL     OW 2497   2.189   1.944   1.066  0.2098 -0.3854 -0.2713
  625SOL    HW1 2498   2.255   1.904   1.126 -1.1066  1.9054 -1.6908
  625SOL    HW2 2499   2.247   1.942   0.986 -0.3781  0.2587 -0.2325
  625SOL     MW 2500   2.206   1.938   1.063 -0.0415  0.0018 -0.4535
  626SOL     OW 2501   0.303   1.614   2.357 -0.0708 -0.2403 -0.0311
  626SOL    HW1 2502   0.286   1.515   2.348 -1.7406 -0.9311 -2.7427
  626SOL    HW2 2503   0.232   1.662   2.313  2.3279 -0.5876 -3.9935
  626SOL     MW 2504   0.291   1.607   2.350  0.0254 -0.3773 -0.9117
  627SOL     OW 2505   2.469   0.719   2.599 -0.1477 -0.2832 -0.8502
  627SOL    HW1 2506   2.491   0.811   2.598 -0.4561 -0.8334 -1.3889
  627SOL    HW2 2507   2.435   0.701   2.512 -1.0815  0.0047  0.3134
  627SOL     MW 2508   2.467   0.729   2.587 -0.3116 -0.3178 -0.7677
  628SOL     OW 2509   2.337   1.417   1.368 -0.0703 -0.1355  0.2096
  628SOL    HW1 2510   2.332   1.370   1.286 -1.8244  1.6551  0.9463
  628SOL    HW2 2511   2.424   1.443   1.384  0.2043 -0.2401 -1.5332
  628SOL     MW 2512   2.348   1.414   1.359 -0.2655  0.0870  0.0768
  629SOL     OW 2513   1.859   0.523   1.221  0.2238 -0.4408 -0.0909
  629SOL    HW1 2514   1.853   0.615   1.186  1.1545  0.7085  2.2068
  629SOL    HW2 2515   1.766   0.498   1.227 -2.4039 -3.4343  1.0948
  629SOL     MW 2516   1.846   0.532   1.217 -0.0001 -0.6841  0.3687
  630SOL     OW 2517   2.451   1.832   2.972 -0.4120  0.5796 -0.2766
  630SOL    HW1 2518   2.457   1.926   2.937 -0.5948  1.1418  0.7282
  630SOL    HW2 2519   2.356   1.813   2.978 -0.7778  0.3382  1.4146
  630SOL     MW 2520   2.439   1.842   2.968 -0.4844  0.6219  0.0791
  631SOL     OW 2521   1.981   1.817   1.560  0.2367  0.0534  0.2578
  631SOL    HW1 2522   1.991   1.734   1.609 -1.2032 -1.9978  0.6636
  631SOL    HW2 2523   1.973   1.803   1.468 -1.1366 -3.6358  0.5919
  631SOL     MW 2524   1.982   1.804   1.554 -0.1345 -0.7040  0.3554
  632SOL     OW 2525   0.167   1.964   1.440  0.3955  0.1476 -0.3369
  632SOL    HW1 2526   0.113   1.963   1.520  2.5109  0.6887  0.0722
  632SOL    HW2 2527   0.200   1.875   1.431  1.6891 -3.2150 -0.6622
  632SOL     MW 2528   0.164   1.952   1.450  0.8453 -0.2247 -0.3259
  633SOL     OW 2529   2.574   0.501   0.330 -0.2806 -0.4538 -0.1729
  633SOL    HW1 2530   2.629   0.515   0.406 -1.4554  2.2514 -0.7578
  633SOL    HW2 2531   2.582   0.409   0.322  0.3002 -0.6635  0.5560
  633SOL     MW 2532   2.582   0.491   0.339 -0.3590 -0.1246 -0.1539
  634SOL     OW 2533   2.672   3.092   0.626 -0.3806  0.7842  0.7498
  634SOL    HW1 2534   2.712   3.178   0.636 -0.7397  1.4666 -0.7572
  634SOL    HW2 2535   2.642   3.075   0.536  2.3413 -2.5940  1.8504
  634SOL     MW 2536   2.673   3.101   0.615 -0.0689  0.4285  0.6961
  635SOL     OW 2537   2.619   0.138   1.825 -0.6593  0.0187  0.5879
  635SOL    HW1 2538   2.666   0.063   1.783 -1.6790  2.0985 -2.2622
  635SOL    HW2 2539   2.683   0.206   1.828  3.6476  0.0803 -0.5663
  635SOL     MW 2540   2.634   0.137   1.820 -0.2256  0.3012  0.0596
  636SOL     OW 2541   2.851   1.611   1.092 -0.6421 -0.4110 -0.4125
  636SOL    HW1 2542   2.779   1.662   1.135 -1.2718  0.7935 -3.0544
  636SOL    HW2 2543   2.913   1.678   1.050  1.5205 -1.2698  2.3420
  636SOL     MW 2544   2.850   1.627   1.092 -0.4399 -0.3654 -0.3977
  637SOL     OW 2545   2.875   1.454   0.753 -0.2623 -0.6596  0.3301
  637SOL    HW1 2546   2.924   1.528   0.710 -0.8734 -2.1030 -2.1754
  637SOL    HW2 2547   2.789   1.485   0.781  0.4039  0.6914  3.0365
  637SOL     MW 2548   2.870   1.468   0.751 -0.2551 -0.6718  0.3566
  638SOL     OW 2549   2.744   0.506   0.566 -0.7303  0.2737  0.2480
  638SOL    HW1 2550   2.834   0.529   0.537  0.1165  1.2866 -1.3036
  638SOL    HW2 2551   2.731   0.554   0.653 -0.2709 -0.6722  1.8825
  638SOL     MW 2552   2.754   0.515   0.574 -0.5579  0.2826  0.2589
  639SOL     OW 2553   1.752   0.034   0.617  0.0455  0.1400  0.0061
  639SOL    HW1 2554   1.663   0.055   0.595  1.1635  0.1449 -1.5993
  639SOL    HW2 2555   1.779  -0.029   0.544  1.9850 -1.0426 -1.0876
  639SOL     MW 2556   1.743   0.028   0.604  0.4489 -0.0154 -0.3500
  640SOL     OW 2557   0.354   1.301   0.124 -0.1924 -0.1926  0.7036
  640SOL    HW1 2558   0.388   1.333   0.037 -0.0702 -2.3938 -1.1699
  640SOL    HW2 2559   0.325   1.210   0.106  0.0239 -1.6129  0.3592
  640SOL     MW 2560   0.355   1.293   0.110 -0.1478 -0.6704  0.4109
  641SOL     OW 2561   2.163   0.406   0.357 -0.2528 -0.2981  0.4431
  641SOL    HW1 2562   2.222   0.406   0.276  1.8756 -1.0067 -1.1521
  641SOL    HW2 2563   2.212   0.363   0.423  2.0427  0.8630  1.9931
  641SOL     MW 2564   2.178   0.400   0.355  0.3309 -0.2384  0.4372
  642SOL     OW 2565   0.076   3.069   0.573  1.1037  0.0596 -0.2349
  642SOL    HW1 2566   0.031   3.152   0.542 -0.6498 -0.1699  0.1036
  642SOL    HW2 2567  -0.004   3.024   0.613 -1.2569  1.1357  0.0172
  642SOL     MW 2568   0.059   3.074   0.574  0.5609  0.1713 -0.1570
  643SOL     OW 2569   2.004   0.337   1.621 -1.0461  0.0093 -0.0005
  643SOL    HW1 2570   1.941   0.314   1.688  0.0161 -1.1095  0.4195
  643SOL    HW2 2571   2.023   0.257   1.560  1.7678  1.7706 -4.0813
  643SOL     MW 2572   1.998   0.323   1.622 -0.5347  0.0940 -0.4835
  644SOL     OW 2573   2.747   2.035   1.046  0.1057 -0.2082  0.0070
  644SOL    HW1 2574   2.741   1.939   1.062  1.1003 -0.1104  0.7962
  644SOL    HW2 2575   2.657   2.065   1.039 -1.1639  1.8059 -0.2268
  644SOL     MW 2576   2.734   2.026   1.048  0.0694  0.0704  0.0803
  645SOL     OW 2577   2.852   0.834   0.652 -0.1774 -0.3223 -0.3154
  645SOL    HW1 2578   2.944   0.835   0.668  0.9706 -0.9723  0.7515
  645SOL    HW2 2579   2.821   0.767   0.709  0.3609 -0.9456  1.1812
  645SOL     MW 2580   2.860   0.825   0.662  0.0451 -0.4903  0.0229
  646SOL     OW 2581   0.159   2.303   0.818 -0.5643  0.7876 -0.0276
  646SOL    HW1 2582   0.182   2.205   0.819  0.3142 -0.0503 -0.5310
  646SOL    HW2 2583   0.077   2.309   0.763  3.0153 -1.8506 -1.3166
  646SOL     MW 2584   0.151   2.291   0.811  0.0239  0.3290 -0.2640
  647SOL     OW 2585   2.663   0.472   2.959 -0.0882  0.0668 -0.4346
  647SOL    HW1 2586   2.607   0.412   3.010 -0.0458 -0.3346 -0.9705
  647SOL    HW2 2587   2.665   0.559   2.994 -0.4969 -0.8580 -1.3665
  647SOL     MW 2588   2.656   0.476   2.970 -0.1366 -0.1082 -0.6283
  648SOL     OW 2589   2.088   0.742   1.207 -0.5091  0.1322 -0.2014
  648SOL    HW1 2590   2.167   0.733   1.163 -0.1455 -1.4982  0.2490
  648SOL    HW2 2591   2.101   0.825   1.249 -0.0385 -1.9789 -5.1767
  648SOL     MW 2592   2.100   0.752   1.207 -0.3991 -0.3615 -0.7984
  649SOL     OW 2593   2.378   2.674   1.265  0.2771 -0.4183  0.0176
  649SOL    HW1 2594   2.456   2.722   1.292  1.0414  3.4228  3.1775
  649SOL    HW2 2595   2.388   2.582   1.280  2.7691 -2.0599 -1.3063
  649SOL     MW 2596   2.389   2.668   1.271  0.7067 -0.1281  0.2598
  650SOL     OW 2597   2.841   0.212   0.633  0.3724  0.1460 -0.2142
  650SOL    HW1 2598   2.786   0.279   0.597 -2.3182 -1.5034  1.4525
  650SOL    HW2 2599   2.928   0.219   0.601  0.3612 -2.3478  1.4141
  650SOL     MW 2600   2.845   0.222   0.624  0.0159 -0.4007  0.2205
  651SOL     OW 2601   2.984   0.419   0.894  0.4213  0.1448  0.3428
  651SOL    HW1 2602   3.048   0.465   0.845 -1.7066 -1.0552 -0.4807
  651SOL    HW2 2603   2.954   0.481   0.960  4.3227  0.3100  0.8593
  651SOL     MW 2604   2.988   0.433   0.896  0.6553  0.0083  0.3023
  652SOL     OW 2605   2.456   1.498   2.984  0.2848 -0.3270 -0.2349
  652SOL    HW1 2606   2.534   1.491   2.924  3.5391 -3.5220  1.2735
  652SOL    HW2 2607   2.437   1.589   2.984 -2.1907  1.4551  4.4835
  652SOL     MW 2608   2.464   1.509   2.976  0.3876 -0.5134  0.5866
  653SOL     OW 2609   1.830   0.414   0.403 -0.8579 -0.3393  0.1601
  653SOL    HW1 2610   1.764   0.355   0.367  0.5875 -0.7948  2.6086
  653SOL    HW2 2611   1.910   0.402   0.356 -0.4816  2.7208 -0.3252
  653SOL     MW 2612   1.832   0.404   0.392 -0.6176  0.0043  0.4192
  654SOL     OW 2613   2.392   1.032   0.773  0.0069 -0.2409  0.5929
  654SOL    HW1 2614   2.319   1.037   0.708 -0.1043  1.3635  0.2191
  654SOL    HW2 2615   2.428   0.947   0.782  0.6048  2.4976 -0.1473
  654SOL     MW 2616   2.387   1.022   0.765  0.0712  0.3321  0.4459
  655SOL     OW 2617   2.908   0.821   0.351  0.0590  0.1937  0.0402
  655SOL    HW1 2618   2.871   0.843   0.435  2.3285  2.0000  0.9557
  655SOL    HW2 2619   2.950   0.735   0.382  1.6527  1.9212 -1.5344
  655SOL     MW 2620   2.909   0.812   0.366  0.5687  0.6599 -0.0468
  656SOL     OW 2621   1.874   2.718   1.343  0.6217 -0.2036  0.2284
  656SOL    HW1 2622   1.914   2.802   1.367  0.7334  0.5401 -0.5932
  656SOL    HW2 2623   1.920   2.660   1.400 -3.1708  3.2057  1.0920
  656SOL     MW 2624   1.885   2.721   1.354  0.1360  0.3443  0.2339
  657SOL     OW 2625   0.128   1.730   1.182  0.3420  0.7686 -0.8786
  657SOL    HW1 2626   0.203   1.766   1.136 -1.3596  0.3686 -2.6941
  657SOL    HW2 2627   0.152   1.639   1.196 -1.6953  2.2781  2.2840
  657SOL     MW 2628   0.141   1.723   1.178 -0.1513  0.9150 -0.7009
  658SOL     OW 2629   2.707   1.358   0.235 -0.3371  0.4504  0.3915
  658SOL    HW1 2630   2.674   1.279   0.292  0.7519  1.9321 -1.8871
  658SOL    HW2 2631   2.716   1.423   0.307 -2.5220 -0.4601  0.6092
  658SOL     MW 2632   2.704   1.356   0.252 -0.4817  0.5258  0.1196
  659SOL     OW 2633   2.283   1.524   1.071  0.2091  0.3666  0.1888
  659SOL    HW1 2634   2.382   1.513   1.069  2.3612  0.5921  2.5810
  659SOL    HW2 2635   2.277   1.551   1.168 -1.1030 -1.4842  1.4308
  659SOL     MW 2636   2.295   1.526   1.083  0.3199  0.1522  0.6683
  660SOL     OW 2637   2.021   1.576   1.693 -0.2991 -0.0667  0.1386
  660SOL    HW1 2638   2.057   1.571   1.782 -2.1435  0.2781  0.5902
  660SOL    HW2 2639   1.929   1.549   1.703  1.6523  0.1526  0.1499
  660SOL     MW 2640   2.014   1.572   1.706 -0.2850  0.0077  0.1996
  661SOL     OW 2641   2.426   1.000   0.197  0.2108  0.3174 -0.2430
  661SOL    HW1 2642   2.481   1.044   0.265  2.6016  0.9312 -2.3176
  661SOL    HW2 2643   2.431   0.902   0.224  2.2461 -1.8994  0.0214
  661SOL     MW 2644   2.434   0.993   0.209  0.7948  0.1059 -0.4818
  662SOL     OW 2645   2.572   2.956   0.855 -0.6173 -0.1485  0.2040
  662SOL    HW1 2646   2.529   3.025   0.907 -0.4009 -0.2381 -0.9261
  662SOL    HW2 2647   2.588   3.003   0.773 -0.2519  0.6990  1.4601
  662SOL     MW 2648   2.568   2.971   0.851 -0.5405 -0.0485  0.2206
  663SOL     OW 2649   2.681   1.490   0.503 -0.4130  0.0223  0.2775
  663SOL    HW1 2650   2.663   1.566   0.452 -0.7914 -2.1815  0.7816
  663SOL    HW2 2651   2.739   1.523   0.566 -0.3092 -0.5107 -0.0181
  663SOL     MW 2652   2.686   1.504   0.504 -0.4492 -0.3388  0.3050
  664SOL     OW 2653   2.527   1.524   1.576  0.3527  0.0987 -0.2770
  664SOL    HW1 2654   2.503   1.614   1.553  0.2651 -1.6553  1.3601
  664SOL    HW2 2655   2.453   1.490   1.628  1.7581 -2.0836  1.3941
  664SOL     MW 2656   2.514   1.532   1.580  0.5266 -0.4206  0.1595
  665SOL     OW 2657   2.854   0.854   2.024  0.1564  0.2414  0.1823
  665SOL    HW1 2658   2.854   0.878   1.928 -0.8220 -1.7769  1.5811
  665SOL    HW2 2659   2.945   0.823   2.036 -0.3015  2.2828  0.0904
  665SOL     MW 2660   2.866   0.853   2.013 -0.0331  0.2444  0.3548
  666SOL     OW 2661   2.758   3.003   1.707 -0.1783  0.3919 -0.2672
  666SOL    HW1 2662   2.741   3.008   1.616  0.3972 -1.5065 -0.9930
  666SOL    HW2 2663   2.711   2.925   1.740  3.7718  1.7897  0.9162
  666SOL     MW 2664   2.749   2.993   1.700  0.4188  0.3259 -0.2068
  667SOL     OW 2665   1.938   2.709   1.754 -0.2802  0.1484  0.2269
  667SOL    HW1 2666   1.935   2.673   1.845  0.1037  1.8560  0.7767
  667SOL    HW2 2667   2.031   2.733   1.739  0.8896 -0.5083 -0.0557
  667SOL     MW 2668   1.950   2.708   1.764 -0.0752  0.2871  0.2622
  668SOL     OW 2669   2.749   0.654   0.837  0.2776  0.1753 -0.2366
  668SOL    HW1 2670   2.786   0.674   0.923 -0.8902 -0.4187  0.9800
  668SOL    HW2 2671   2.672   0.708   0.835  2.2019 -3.2118 -0.4364
  668SOL     MW 2672   2.744   0.664   0.848  0.3774 -0.3500 -0.1024
  669SOL     OW 2673   0.232   0.967   0.679 -0.3326 -0.0899  0.0785
  669SOL    HW1 2674   0.165   1.010   0.729 -2.8056 -0.9074  1.2923
  669SOL    HW2 2675   0.306   0.972   0.747 -0.5485  1.6931 -1.8301
  669SOL     MW 2676   0.233   0.974   0.694 -0.6873  0.0375 -0.0132
  670SOL     OW 2677   2.903   0.227   0.215 -0.1631 -0.4221 -0.9564
  670SOL    HW1 2678   2.928   0.161   0.145  0.8067 -0.0221  1.8691
  670SOL    HW2 2679   2.897   0.306   0.165 -2.2852  1.1548  0.4747
  670SOL     MW 2680   2.906   0.229   0.199 -0.3151 -0.1612 -0.3948
  671SOL     OW 2681   2.014   2.979   1.497  0.1392  0.4913  0.7469
  671SOL    HW1 2682   1.961   3.014   1.424  1.8263 -1.7058 -2.1780
  671SOL    HW2 2683   1.991   3.032   1.575  0.1625 -0.6048  0.1840
  671SOL     MW 2684   2.004   2.991   1.498  0.3648  0.0568  0.2867
  672SOL     OW 2685   1.910   1.674   1.305 -0.0993  0.3866 -0.2035
  672SOL    HW1 2686   1.833   1.728   1.329  0.3156  1.8154  1.3804
  672SOL    HW2 2687   1.924   1.706   1.210 -0.8538  1.7344 -1.5133
  672SOL     MW 2688   1.902   1.686   1.296 -0.1441  0.7529 -0.1674
  673SOL     OW 2689   2.778   1.090   0.580 -0.1190  0.7024 -0.4498
  673SOL    HW1 2690   2.788   0.997   0.610 -0.7803  1.7569 -0.2878
  673SOL    HW2 2691   2.863   1.138   0.609  3.0630  0.0715  2.9263
  673SOL     MW 2692   2.790   1.084   0.588  0.2135  0.7583  0.0171
  674SOL     OW 2693   2.432   0.043   1.303  0.1536 -0.6504 -0.7994
  674SOL    HW1 2694   2.409   0.028   1.212  0.9327  0.4958  1.1556
  674SOL    HW2 2695   2.420  -0.035   1.354  0.3786  0.7591  0.1178
  674SOL     MW 2696   2.428   0.031   1.297  0.2861 -0.3132 -0.4204
  675SOL     OW 2697   3.055   0.878   1.070  0.3041  0.0474  0.4093
  675SOL    HW1 2698   3.127   0.867   1.133 -1.7050  1.3234 -2.0284
  675SOL    HW2 2699   3.093   0.936   1.004  0.7519 -1.1908  0.7848
  675SOL     MW 2700   3.069   0.884   1.070  0.0981  0.0524  0.1372
  676SOL     OW 2701   2.873   1.521   1.639  0.3516  0.4296 -0.0037
  676SOL    HW1 2702   2.834   1.433   1.630  1.0334 -2.5864  0.1575
  676SOL    HW2 2703   2.942   1.480   1.690  0.3168  1.3735 -0.8523
  676SOL     MW 2704   2.877   1.504   1.644  0.4369  0.1562 -0.0944
  677SOL     OW 2705   2.406   0.575   1.984  0.6330 -0.5199  0.4283
  677SOL    HW1 2706   2.365   0.528   1.911 -2.9786 -1.7450  1.2266
  677SOL    HW2 2707   2.360   0.656   1.986 -0.7507 -3.7665 -1.7304
  677SOL     MW 2708   2.395   0.579   1.974 -0.0261 -1.1099  0.2488
  678SOL     OW 2709   2.571   1.659   0.319  0.8993  0.7410 -0.5000
  678SOL    HW1 2710   2.491   1.704   0.357 -1.1507  1.4528  2.5138
  678SOL    HW2 2711   2.529   1.596   0.257 -1.2552 -1.9633 -1.0526
  678SOL     MW 2712   2.555   1.657   0.315  0.3445  0.4781 -0.1753
  679SOL     OW 2713   2.247   0.482   1.234 -0.2939 -0.3387  0.1556
  679SOL    HW1 2714   2.211   0.395   1.213 -0.3902 -1.6786  1.8318
  679SOL    HW2 2715   2.173   0.520   1.281 -1.9642 -0.4017 -0.6969
  679SOL     MW 2716   2.233   0.475   1.237 -0.5270 -0.5238  0.2643
  680SOL     OW 2717   2.348   0.185   1.517 -0.9159 -0.4143 -0.1782
  680SOL    HW1 2718   2.262   0.176   1.483  3.9146 -1.2606  1.2026
  680SOL    HW2 2719   2.396   0.150   1.443 -1.6977  0.8220  2.8348
  680SOL     MW 2720   2.343   0.179   1.503 -0.3817 -0.3629  0.4015
  681SOL     OW 2721   0.288   0.563   1.559 -0.1429 -0.3276 -0.4214
  681SOL    HW1 2722   0.275   0.488   1.616  1.5849  3.4318 -2.0076
  681SOL    HW2 2723   0.380   0.561   1.535 -0.3360  0.4887 -0.3462
  681SOL     MW 2724   0.298   0.553   1.564  0.0596  0.2761 -0.6208
  682SOL     OW 2725   0.073   2.889   1.492 -0.0854 -0.1574  0.1581
  682SOL    HW1 2726   0.115   2.971   1.468  2.6210  0.0746  0.1928
  682SOL    HW2 2727   0.023   2.891   1.575 -3.4567  1.4766 -0.0402
  682SOL     MW 2728   0.072   2.900   1.500 -0.1732  0.0888  0.1365
  683SOL     OW 2729   2.040   0.835   2.985 -0.2091 -0.5262  0.2939
  683SOL    HW1 2730   1.953   0.806   2.950 -0.5864 -1.1324 -1.9281
  683SOL    HW2 2731   2.043   0.928   2.996 -0.6390 -1.5751  2.1425
  683SOL     MW 2732   2.029   0.843   2.982 -0.3156 -0.7446  0.2446
  684SOL     OW 2733   2.217   1.676   0.852  0.1927  0.4161 -0.8945
  684SOL    HW1 2734   2.181   1.620   0.785 -2.0931 -0.0636 -1.7921
  684SOL    HW2 2735   2.227   1.618   0.931  0.2860 -1.1894 -1.2050
  684SOL     MW 2736   2.214   1.661   0.853 -0.0966  0.1410 -1.0539
  685SOL     OW 2737   2.642   1.749   1.206 -0.4712 -0.3698 -0.1901
  685SOL    HW1 2738   2.688   1.743   1.291  1.2936 -1.8348 -1.2849
  685SOL    HW2 2739   2.609   1.663   1.177 -0.8146 -0.1858 -1.8604
  685SOL     MW 2740   2.644   1.737   1.213 -0.2837 -0.5388 -0.5549
  686SOL     OW 2741   2.897   0.777   1.511 -0.1352  0.2657  0.2112
  686SOL    HW1 2742   2.897   0.718   1.588  1.6267 -0.6890 -1.5676
  686SOL    HW2 2743   2.978   0.752   1.468 -1.7754 -0.3875  0.3893
  686SOL     MW 2744   2.908   0.766   1.516 -0.1191  0.0536  0.0000
  687SOL     OW 2745   2.118   0.229   1.142  0.4474  0.4102  0.1260
  687SOL    HW1 2746   2.126   0.160   1.074 -1.3163 -0.4350 -1.0911
  687SOL    HW2 2747   2.062   0.290   1.092 -0.9549 -2.2873 -1.8296
  687SOL     MW 2748   2.111   0.228   1.126  0.0297 -0.0572 -0.2926
  688SOL     OW 2749   2.388   0.585   1.439  0.0651 -0.1997  0.5875
  688SOL    HW1 2750   2.335   0.546   1.361  1.6810 -5.2086 -1.9614
  688SOL    HW2 2751   2.328   0.629   1.500  0.0354  0.9289  2.0771
  688SOL     MW 2752   2.373   0.585   1.437  0.2744 -0.7116  0.4478
  689SOL     OW 2753   2.530   0.745   2.985 -0.0759  0.2394  0.7582
  689SOL    HW1 2754   2.543   0.836   2.956 -1.8083  0.4436  1.7872
  689SOL    HW2 2755   2.579   0.719   3.059 -1.9510  0.8968 -3.4194
  689SOL     MW 2756   2.538   0.754   2.991 -0.5519  0.3531  0.3428
  690SOL     OW 2757   2.043   0.955   1.903 -0.1219 -0.2952 -0.1666
  690SOL    HW1 2758   2.006   0.864   1.879  1.6740 -2.3793 -1.0496
  690SOL    HW2 2759   2.066   0.997   1.816 -1.7736 -0.9107 -3.6894
  690SOL     MW 2760   2.041   0.948   1.888 -0.1029 -0.6514 -0.7479
  691SOL     OW 2761   2.394   0.277   0.897 -0.4231  0.1075  0.2604
  691SOL    HW1 2762   2.464   0.339   0.913 -0.9741  1.4950 -1.6352
  691SOL    HW2 2763   2.312   0.327   0.899  0.2286  2.6666 -1.0757
  691SOL     MW 2764   2.393   0.292   0.899 -0.4098  0.6282 -0.1660
  692SOL     OW 2765   2.807   1.693   1.453  0.9572  0.2369 -0.3901
  692SOL    HW1 2766   2.812   1.622   1.524 -2.8234 -2.4345 -1.2238
  692SOL    HW2 2767   2.872   1.758   1.482  0.9744  1.9184  1.7948
  692SOL     MW 2768   2.816   1.692   1.466  0.4607  0.1063 -0.2118
  693SOL     OW 2769   2.276   0.419   0.099  0.5830 -0.3087  0.2482
  693SOL    HW1 2770   2.213   0.355   0.057 -1.2929  0.2450  0.1851
  693SOL    HW2 2771   2.241   0.496   0.060  2.2967 -1.6905  3.2958
  693SOL     MW 2772   2.263   0.421   0.088  0.5616 -0.4179  0.6420
  694SOL     OW 2773   1.934   1.199   1.133  0.4940 -0.7536  0.6412
  694SOL    HW1 2774   2.019   1.194   1.172 -0.2260  2.1343 -2.2547
  694SOL    HW2 2775   1.879   1.133   1.172  2.0188  1.5729  3.6657
  694SOL     MW 2776   1.938   1.189   1.144  0.6002 -0.0656  0.6582
  695SOL     OW 2777   3.015   1.484   1.346 -0.1087 -0.0734 -0.3920
  695SOL    HW1 2778   2.979   1.447   1.265 -0.4361  1.5176 -2.0484
  695SOL    HW2 2779   2.932   1.528   1.373  0.6168 -0.5361 -1.0526
  695SOL     MW 2780   2.999   1.485   1.338 -0.0562  0.0755 -0.6977
  696SOL     OW 2781   2.156   1.372   0.873  0.1684 -0.3997 -0.6007
  696SOL    HW1 2782   2.205   1.409   0.945 -3.4738 -6.0560 -0.8232
  696SOL    HW2 2783   2.112   1.295   0.905 -0.8408 -0.2277  0.0076
  696SOL     MW 2784   2.156   1.367   0.887 -0.4453 -1.1233 -0.5498
  697SOL     OW 2785   2.927   1.059   2.181  0.0784 -0.1328 -0.3376
  697SOL    HW1 2786   2.858   1.130   2.204 -2.0045  0.3090  4.6521
  697SOL    HW2 2787   2.886   0.999   2.122  1.1113  0.7331  1.2533
  697SOL     MW 2788   2.913   1.061   2.176 -0.0601  0.0398  0.5306
  698SOL     OW 2789   2.528   0.292   0.024 -0.3959  0.0644 -0.1174
  698SOL    HW1 2790   2.453   0.344   0.058 -1.6428 -2.1543 -1.3761
  698SOL    HW2 2791   2.564   0.234   0.097 -1.9622  0.6121 -0.8640
  698SOL     MW 2792   2.523   0.291   0.038 -0.7671 -0.1560 -0.3820
  699SOL     OW 2793   1.822   1.629   2.011 -0.1147  0.6296  0.3820
  699SOL    HW1 2794   1.805   1.529   2.014  3.1724 -1.5118  4.1096
  699SOL    HW2 2795   1.922   1.624   2.014  0.4813 -0.1364 -3.1386
  699SOL     MW 2796   1.833   1.615   2.012  0.3977  0.2460  0.4093
  700SOL     OW 2797   2.685   0.947   1.489 -1.1501  0.6804 -0.1579
  700SOL    HW1 2798   2.706   1.026   1.439  2.4565 -0.6457 -0.6021
  700SOL    HW2 2799   2.771   0.895   1.487 -1.3155 -1.3756  0.0604
  700SOL     MW 2800   2.699   0.950   1.482 -0.6961  0.2341 -0.1877
  701SOL     OW 2801   1.624   1.201   2.490  0.4517 -0.0444 -0.0301
  701SOL    HW1 2802   1.706   1.249   2.490 -1.0415 -0.9499  1.4276
  701SOL    HW2 2803   1.584   1.203   2.576 -2.0770 -0.1568  0.8838
  701SOL     MW 2804   1.630   1.208   2.501 -0.0790 -0.1787  0.2828
  702SOL     OW 2805   2.162   0.418   0.840 -0.0086  0.2911 -0.7944
  702SOL    HW1 2806   2.166   0.337   0.779  1.9541  0.2071  0.8314
  702SOL    HW2 2807   2.185   0.501   0.798 -0.4518 -0.4919 -1.3450
  702SOL     MW 2808   2.166   0.418   0.826  0.1919  0.1767 -0.6525
  703SOL     OW 2809   2.749   1.241   1.006  0.2897 -0.1415  0.2897
  703SOL    HW1 2810   2.715   1.243   0.919  1.0489 -1.3055  0.3386
  703SOL    HW2 2811   2.746   1.144   1.035 -1.3623 -2.0310  1.5860
  703SOL     MW 2812   2.744   1.229   0.998  0.1719 -0.5444  0.4672
  704SOL     OW 2813   3.056   1.238   0.171 -0.0013 -0.1608 -0.6630
  704SOL    HW1 2814   2.967   1.216   0.158  3.4026 -2.8565 -2.0450
  704SOL    HW2 2815   3.064   1.202   0.258 -2.0586 -3.7093  1.2935
  704SOL     MW 2816   3.046   1.231   0.181  0.1764 -0.9847 -0.5872
  705SOL     OW 2817   2.207   1.641   1.322 -0.6682  0.5267 -0.5845
  705SOL    HW1 2818   2.118   1.649   1.333  0.2495 -1.1339 -0.8830
  705SOL    HW2 2819   2.236   1.551   1.355  2.8426 -1.5643  3.0212
  705SOL     MW 2820   2.199   1.630   1.328 -0.0839  0.0317 -0.1482
  706SOL     OW 2821   2.988   1.209   0.683 -0.6137  0.4523 -0.3202
  706SOL    HW1 2822   3.049   1.205   0.603  3.4982  1.4200 -0.5261
  706SOL    HW2 2823   2.965   1.300   0.693 -0.2016 -0.9967 -1.1206
  706SOL     MW 2824   2.993   1.220   0.674 -0.0168  0.3888 -0.4530
  707SOL     OW 2825   2.429   0.033   1.002  0.1085  0.5624 -0.0645
  707SOL    HW1 2826   2.449   0.114   0.965 -0.3017  1.0236  4.4223
  707SOL    HW2 2827   2.329   0.026   0.994 -1.7215 -1.6055  0.1786
  707SOL     MW 2828   2.418   0.043   0.996 -0.1871  0.3372  0.5596
  708SOL     OW 2829   2.467   1.455   0.159 -0.7499 -0.3197  0.2154
  708SOL    HW1 2830   2.539   1.393   0.172 -0.3286 -2.2066  1.5680
  708SOL    HW2 2831   2.465   1.457   0.061  0.1787  0.2027 -1.1431
  708SOL     MW 2832   2.476   1.447   0.148 -0.5718 -0.4997  0.2146
  709SOL     OW 2833   1.768   1.617   0.185  0.2445  0.4042  0.5266
  709SOL    HW1 2834   1.744   1.679   0.109 -1.5459 -1.7005 -2.3372
  709SOL    HW2 2835   1.694   1.638   0.242  0.6047  2.4199 -0.2716
  709SOL     MW 2836   1.755   1.628   0.183  0.0558  0.3925  0.0434
  710SOL     OW 2837   2.206   1.240   1.211 -0.2137  0.6924 -0.3390
  710SOL    HW1 2838   2.241   1.191   1.136  1.3526  0.1491 -0.6582
  710SOL    HW2 2839   2.201   1.172   1.281 -0.4025  0.5188  1.8355
  710SOL     MW 2840   2.210   1.224   1.210 -0.0320  0.5978 -0.0942
  711SOL     OW 2841   2.350   0.118   1.794  0.4553 -0.0940 -0.3122
  711SOL    HW1 2842   2.445   0.118   1.808  1.2921 -1.6829  1.0999
  711SOL    HW2 2843   2.333   0.140   1.704 -2.6972  2.5070 -0.5921
  711SOL     MW 2844   2.361   0.121   1.784  0.1497  0.0395 -0.1629
  712SOL     OW 2845   1.944   0.519   0.054  0.1336  0.0651  0.5667
  712SOL    HW1 2846   1.855   0.537   0.029 -1.9055  0.0729 -1.8039
  712SOL    HW2 2847   1.959   0.592   0.122 -0.5508  4.2090  1.0023
  712SOL     MW 2848   1.934   0.531   0.059 -0.2257  0.6129  0.3114
  713SOL     OW 2849   2.554   0.839   1.107 -0.0714  0.1638 -0.6283
  713SOL    HW1 2850   2.554   0.750   1.148 -2.4597  1.1371  0.1933
  713SOL    HW2 2851   2.493   0.880   1.170  1.3989  6.5788  1.0899
  713SOL     MW 2852   2.546   0.833   1.121 -0.1925  1.1386 -0.2932
  714SOL     OW 2853   2.216   0.233   2.006 -0.1253  0.0082  0.5283
  714SOL    HW1 2854   2.252   0.195   2.085 -0.4458 -1.3683 -3.3719
  714SOL    HW2 2855   2.260   0.188   1.931  3.1769  3.1983 -0.7736
  714SOL     MW 2856   2.226   0.222   2.007  0.2681  0.2475 -0.1581
  715SOL     OW 2857   1.729   1.949   1.662  0.2300 -0.2245 -0.5338
  715SOL    HW1 2858   1.818   1.931   1.638  2.1878  0.3963 -0.8537
  715SOL    HW2 2859   1.695   1.868   1.712 -1.3919 -1.1616  0.7716
  715SOL     MW 2860   1.736   1.936   1.665  0.2743 -0.2663 -0.4038
  716SOL     OW 2861   2.323   0.633   0.681  0.2402 -0.3656  0.4257
  716SOL    HW1 2862   2.373   0.553   0.666  0.1509 -0.2034 -1.0236
  716SOL    HW2 2863   2.268   0.653   0.603 -1.3754 -0.3964  0.9575
  716SOL     MW 2864   2.322   0.625   0.669  0.0152 -0.3483  0.3046
  717SOL     OW 2865   2.878   1.540   2.935 -0.1008  0.2968  0.0028
  717SOL    HW1 2866   2.961   1.531   2.978 -0.2487  0.3182  0.8710
  717SOL    HW2 2867   2.825   1.614   2.969 -1.2211 -0.1386 -1.7196
  717SOL     MW 2868   2.882   1.549   2.945 -0.2681  0.2422 -0.1099
  718SOL     OW 2869   2.671   1.395   1.326  0.6022 -0.1371  0.1115
  718SOL    HW1 2870   2.654   1.406   1.421  2.0475 -0.1911  0.0759
  718SOL    HW2 2871   2.725   1.310   1.323  0.9848 -2.0830  0.6260
  718SOL     MW 2872   2.676   1.385   1.338  0.8434 -0.4010  0.1747
  719SOL     OW 2873   2.181   1.280   0.598 -0.3861 -0.3798 -0.4561
  719SOL    HW1 2874   2.272   1.295   0.571  1.2047  2.6282 -0.5858
  719SOL    HW2 2875   2.178   1.325   0.685  0.4631 -2.0417  1.6923
  719SOL     MW 2876   2.193   1.288   0.606 -0.0642 -0.2022 -0.1897
  720SOL     OW 2877   2.804   1.195   0.028 -1.1684  0.6001 -0.5958
  720SOL    HW1 2878   2.793   1.109   0.065  3.2942 -0.5672 -0.2375
  720SOL    HW2 2879   2.763   1.252   0.093 -2.0379  1.4300  1.7543
  720SOL     MW 2880   2.797   1.191   0.042 -0.6943  0.5556 -0.2385
  721SOL     OW 2881   2.447   0.868   1.356  0.4235 -0.0705  0.2623
  721SOL    HW1 2882   2.424   0.777   1.384 -0.1279  0.5844 -1.0941
  721SOL    HW2 2883   2.523   0.900   1.414 -0.7427  0.4148  2.8207
  721SOL     MW 2884   2.454   0.860   1.367  0.1969  0.0799  0.4209
  722SOL     OW 2885   2.590   1.163   0.378  0.4674 -0.4446  0.2276
  722SOL    HW1 2886   2.545   1.229   0.432  0.0659 -1.7501  4.9443
  722SOL    HW2 2887   2.665   1.138   0.438 -0.5248  1.4679 -2.9099
  722SOL     MW 2888   2.594   1.168   0.393  0.2835 -0.3645  0.4360
  723SOL     OW 2889   2.250   1.404   1.625 -0.0978 -0.3154 -0.5072
  723SOL    HW1 2890   2.269   1.428   1.530 -1.5724 -0.6365 -1.3936
  723SOL    HW2 2891   2.159   1.431   1.634 -1.2689  1.1556  0.2528
  723SOL     MW 2892   2.241   1.411   1.613 -0.4469 -0.1637 -0.5239
  724SOL     OW 2893   2.444   0.396   0.641 -0.2277 -0.1310  0.2818
  724SOL    HW1 2894   2.435   0.335   0.711 -0.2301 -0.4914 -2.0344
  724SOL    HW2 2895   2.536   0.417   0.632  0.2453  1.6638  0.9225
  724SOL     MW 2896   2.455   0.390   0.649 -0.1656  0.0582  0.0607
  725SOL     OW 2897   2.575   0.555   1.193  0.0150  0.3788  0.7124
  725SOL    HW1 2898   2.670   0.555   1.233  2.0004 -0.3013  3.2370
  725SOL    HW2 2899   2.514   0.523   1.257 -0.4931  4.5372  0.3878
  725SOL     MW 2900   2.579   0.551   1.207  0.2099  0.8377  1.0026
  726SOL     OW 2901   2.599   2.437   0.544 -0.4061 -0.0812  0.1167
  726SOL    HW1 2902   2.556   2.505   0.492 -3.3082 -0.2959  1.6966
  726SOL    HW2 2903   2.534   2.420   0.618  0.8078  2.2749 -0.0839
  726SOL     MW 2904   2.585   2.444   0.547 -0.6288  0.2014  0.2987
  727SOL     OW 2905   2.876   0.297   1.629  0.0840  0.2073  0.2808
  727SOL    HW1 2906   2.839   0.322   1.547 -0.6755 -1.9031 -0.6532
  727SOL    HW2 2907   2.802   0.304   1.689 -0.9426  1.0045 -0.5336
  727SOL     MW 2908   2.861   0.301   1.626 -0.1517  0.0340  0.0501
  728SOL     OW 2909   2.820   1.160   2.853 -0.0411  0.2814 -0.1133
  728SOL    HW1 2910   2.815   1.241   2.798 -1.5316  0.5407 -1.8739
  728SOL    HW2 2911   2.816   1.189   2.951 -1.0731 -0.6939 -1.3267
  728SOL     MW 2912   2.819   1.175   2.859 -0.3739  0.1870 -0.5057
  729SOL     OW 2913   2.554   1.518   1.107  0.1712  0.1167 -0.2558
  729SOL    HW1 2914   2.600   1.456   1.166  2.1535  0.1583  1.2322
  729SOL    HW2 2915   2.599   1.510   1.019 -1.4950  1.2396  0.0821
  729SOL     MW 2916   2.566   1.509   1.103  0.2129  0.2704 -0.0149
  730SOL     OW 2917   2.148   1.180   0.206  0.3241  0.0089  0.2089
  730SOL    HW1 2918   2.231   1.177   0.169 -1.0198  0.8833  2.8508
  730SOL    HW2 2919   2.114   1.269   0.199  0.1224  1.2473 -0.3949
  730SOL     MW 2920   2.154   1.191   0.200  0.1202  0.2876  0.4778
  731SOL     OW 2921   2.828   1.909   2.866 -0.2571 -0.5175  0.3240
  731SOL    HW1 2922   2.743   1.938   2.828 -2.9391  1.7358 -0.1491
  731SOL    HW2 2923   2.884   1.989   2.851  1.1634  1.2987 -0.2233
  731SOL     MW 2924   2.824   1.923   2.859 -0.4236  0.0195  0.1894
  732SOL     OW 2925   2.194   0.961   1.346  0.4759  0.1208 -0.5726
  732SOL    HW1 2926   2.165   0.955   1.438  1.1778  1.1446 -0.4306
  732SOL    HW2 2927   2.286   0.936   1.347  1.9126  2.7755  0.8129
  732SOL     MW 2928   2.202   0.957   1.358  0.7581  0.6062 -0.3711
  733SOL     OW 2929   2.345   2.770   3.062  0.5279  0.0186  0.0004
  733SOL    HW1 2930   2.263   2.819   3.054 -1.8336 -0.3539 -0.2177
  733SOL    HW2 2931   2.319   2.677   3.047  3.6988 -0.3056 -0.4631
  733SOL     MW 2932   2.331   2.764   3.059  0.6347 -0.0733 -0.0896
  734SOL     OW 2933   1.457   0.373   2.441 -0.4225  0.1607 -0.0581
  734SOL    HW1 2934   1.457   0.362   2.535 -1.8475 -0.8874 -0.8419
  734SOL    HW2 2935   1.489   0.284   2.410  1.3930 -0.8270  0.1817
  734SOL     MW 2936   1.461   0.360   2.450 -0.3710 -0.1079 -0.1299
  735SOL     OW 2937   2.923   0.915   2.599 -0.1922 -0.9066 -0.0704
  735SOL    HW1 2938   2.941   0.824   2.574  2.0824  0.5755  0.8712
  735SOL    HW2 2939   2.930   0.912   2.698 -0.4153 -1.4017  1.8096
  735SOL     MW 2940   2.926   0.903   2.609  0.0785 -0.7764  0.3018
  736SOL     OW 2941   0.124   0.572   2.520 -0.2288 -0.3304  0.0596
  736SOL    HW1 2942   0.158   0.639   2.466 -0.4756  0.3997 -0.6174
  736SOL    HW2 2943   0.102   0.502   2.459  0.1700  0.4270 -0.7254
  736SOL     MW 2944   0.126   0.571   2.505 -0.2088 -0.1341 -0.1333
  737SOL     OW 2945   2.968   0.632   2.545 -0.1336 -0.3185 -0.3509
  737SOL    HW1 2946   2.910   0.607   2.472 -0.9408 -1.4500  0.4190
  737SOL    HW2 2947   3.056   0.591   2.543  0.2105 -0.5078  0.1713
  737SOL     MW 2948   2.972   0.623   2.535 -0.1947 -0.4927 -0.1805
  738SOL     OW 2949   0.218   0.578   1.885 -0.9968  0.5186 -0.0887
  738SOL    HW1 2950   0.306   0.621   1.884 -1.0826  0.5713  2.5884
  738SOL    HW2 2951   0.221   0.501   1.825  0.5738  0.3511  3.0629
  738SOL     MW 2952   0.230   0.573   1.877 -0.8009  0.5035  0.6803
  739SOL     OW 2953   2.426   1.076   2.101  0.3061  0.4160 -0.3433
  739SOL    HW1 2954   2.384   0.990   2.078  0.4145 -1.2717 -1.5689
  739SOL    HW2 2955   2.498   1.076   2.040 -0.2763  1.3446 -1.6623
  739SOL     MW 2956   2.430   1.064   2.090  0.2435  0.3158 -0.6790
  740SOL     OW 2957   0.244   1.775   2.955 -0.3243 -0.2051 -0.0518
  740SOL    HW1 2958   0.193   1.693   2.967  0.5002 -0.5462 -2.2954
  740SOL    HW2 2959   0.338   1.762   2.980  1.2985  0.0002 -2.3886
  740SOL     MW 2960   0.250   1.762   2.960 -0.0014 -0.2230 -0.6561
  741SOL     OW 2961   2.271   1.261   2.715  0.2275 -0.6160 -0.0612
  741SOL    HW1 2962   2.201   1.306   2.671  0.2278 -0.6325 -0.6411
  741SOL    HW2 2963   2.258   1.275   2.809 -0.7715  0.1951 -0.5595
  741SOL     MW 2964   2.260   1.269   2.721  0.0957 -0.5111 -0.2035
  742SOL     OW 2965   1.540   1.263   2.207 -0.5019  0.2891  0.1415
  742SOL    HW1 2966   1.496   1.181   2.185  1.5199 -1.9175  0.7284
  742SOL    HW2 2967   1.537   1.274   2.304 -1.4510  0.4082  0.8125
  742SOL     MW 2968   1.534   1.254   2.217 -0.3604  0.0136  0.3075
  743SOL     OW 2969   2.530   1.267   2.793  0.1973  0.4053 -0.0640
  743SOL    HW1 2970   2.443   1.253   2.755  0.4315 -0.5272 -4.0692
  743SOL    HW2 2971   2.555   1.171   2.832 -0.1944 -1.0042 -0.8885
  743SOL     MW 2972   2.522   1.253   2.793  0.1766  0.0963 -0.7012
  744SOL     OW 2973   2.721   0.953   1.762  0.4239  0.0455 -0.2247
  744SOL    HW1 2974   2.651   1.019   1.793 -0.2917 -0.5919 -0.1669
  744SOL    HW2 2975   2.700   0.927   1.670 -0.7444  1.7563 -2.2785
  744SOL     MW 2976   2.709   0.958   1.754  0.1753  0.1871 -0.4881
  745SOL     OW 2977   1.740   0.436   2.517 -0.3219  0.4092 -0.5316
  745SOL    HW1 2978   1.782   0.450   2.431 -1.7564 -1.5121  1.8073
  745SOL    HW2 2979   1.660   0.394   2.489 -1.7931 -0.6961  1.1218
  745SOL     MW 2980   1.735   0.432   2.502 -0.7053  0.0098 -0.0049
  746SOL     OW 2981   1.526   1.426   1.637  0.4123  0.5404 -0.3799
  746SOL    HW1 2982   1.621   1.445   1.623  2.7315 -3.2469 -0.8401
  746SOL    HW2 2983   1.514   1.376   1.721  0.6546 -0.6530  0.4276
  746SOL     MW 2984   1.537   1.422   1.646  0.7503 -0.1167 -0.3341
  747SOL     OW 2985   2.532   1.113   1.842  0.0632 -0.1501 -0.1944
  747SOL    HW1 2986   2.462   1.103   1.783  1.8547 -3.3871 -1.6894
  747SOL    HW2 2987   2.538   1.206   1.854  0.7471 -1.2246 -0.1645
  747SOL     MW 2988   2.523   1.124   1.836  0.3898 -0.7190 -0.3877
  748SOL     OW 2989   0.122   0.070   1.817  0.0884 -0.2568 -0.0683
  748SOL    HW1 2990   0.194   0.019   1.843 -0.1800  1.8712  1.7975
  748SOL    HW2 2991   0.084   0.097   1.900 -0.4298  1.7521  1.0757
  748SOL     MW 2992   0.127   0.067   1.831 -0.0154  0.2890  0.3288
  749SOL     OW 2993   2.397   0.562   2.804  0.4612 -0.0810  0.1815
  749SOL    HW1 2994   2.415   0.627   2.735 -3.1694  0.8766  0.3071
  749SOL    HW2 2995   2.450   0.579   2.875 -0.0037  3.9160  0.1336
  749SOL     MW 2996   2.406   0.573   2.804 -0.0792  0.5727  0.1917
  750SOL     OW 2997   2.065   3.092   1.959 -0.1415  0.7830 -0.0794
  750SOL    HW1 2998   2.113   3.168   1.985  0.7916 -0.9400 -1.8980
  750SOL    HW2 2999   2.137   3.028   1.938  0.4725 -3.2078  2.7380
  750SOL     MW 3000   2.081   3.093   1.960  0.0627  0.0291  0.0524
  751SOL     OW 3001   0.020   0.434   2.324 -0.2255 -0.0538 -0.0503
  751SOL    HW1 3002  -0.044   0.362   2.347  0.7067 -1.5111  1.7117
  751SOL    HW2 3003   0.090   0.390   2.275  0.1528 -0.2645  2.5941
  751SOL     MW 3004   0.020   0.419   2.321 -0.0526 -0.2739  0.5311
  752SOL     OW 3005   2.111   0.849   2.715 -0.2402  0.0235 -0.0779
  752SOL    HW1 3006   2.196   0.888   2.693  1.2249  0.1675  1.9916
  752SOL    HW2 3007   2.105   0.855   2.808 -1.6371  2.4848 -0.9271
  752SOL     MW 3008   2.121   0.855   2.724 -0.2312  0.3673  0.0831
  753SOL     OW 3009   2.883   0.276   2.337  0.4544 -0.9891  0.4517
  753SOL    HW1 3010   2.834   0.204   2.294 -1.1437  0.7993 -0.3216
  753SOL    HW2 3011   2.817   0.347   2.347 -0.8855 -0.0235  0.3962
  753SOL     MW 3012   2.868   0.276   2.333  0.0668 -0.6257  0.3424
  754SOL     OW 3013   2.237   3.002   2.679  0.0159  0.2293 -0.4393
  754SOL    HW1 3014   2.222   2.989   2.578 -1.6188 -2.7090 -0.3462
  754SOL    HW2 3015   2.309   2.939   2.701 -0.4028  1.1408  0.0083
  754SOL     MW 3016   2.245   2.992   2.669 -0.2550 -0.0381 -0.3680
  755SOL     OW 3017   2.725   1.582   2.471 -0.0677  0.1021 -0.7370
  755SOL    HW1 3018   2.716   1.519   2.543 -0.0619 -0.8174  0.0724
  755SOL    HW2 3019   2.727   1.661   2.529  2.7102 -0.2570 -0.1737
  755SOL     MW 3020   2.724   1.584   2.488  0.2996 -0.0666 -0.5559
  756SOL     OW 3021   2.253   1.322   3.003 -0.2042  0.5514  0.8627
  756SOL    HW1 3022   2.319   1.391   2.985  3.0841 -2.0207  2.6292
  756SOL    HW2 3023   2.321   1.253   3.028 -1.1872 -0.3993 -0.3212
  756SOL     MW 3024   2.271   1.322   3.004  0.1000  0.0866  0.9396
  757SOL     OW 3025   2.107   0.994   1.645 -0.0091  0.0822  0.1780
  757SOL    HW1 3026   2.113   0.900   1.658  0.9864 -1.4867 -0.9369
  757SOL    HW2 3027   2.023   1.004   1.599  0.6424  0.4611  0.5100
  757SOL     MW 3028   2.097   0.983   1.640  0.2082 -0.0748  0.0747
  758SOL     OW 3029   2.191   1.800   2.665 -0.1414  0.3037  0.1941
  758SOL    HW1 3030   2.173   1.800   2.570 -1.5382  0.6466  0.1571
  758SOL    HW2 3031   2.278   1.760   2.657 -1.9448  0.3184  0.0543
  758SOL     MW 3032   2.200   1.795   2.651 -0.5636  0.3509  0.1708
  759SOL     OW 3033   1.552   1.315   2.725 -0.3072  0.0059 -0.3240
  759SOL    HW1 3034   1.577   1.400   2.687  0.4242 -0.7127  0.5300
  759SOL    HW2 3035   1.620   1.290   2.782 -0.0463 -3.8526 -1.2929
  759SOL     MW 3036   1.565   1.323   2.727 -0.1763 -0.5980 -0.3392
  760SOL     OW 3037   2.592   1.962   2.726 -0.7378  0.5009 -0.4821
  760SOL    HW1 3038   2.558   1.879   2.707 -2.0585 -3.1007  0.4816
  760SOL    HW2 3039   2.673   1.970   2.674  1.6726 -2.3986  0.9722
  760SOL     MW 3040   2.598   1.952   2.716 -0.5940 -0.3569 -0.1631
  761SOL     OW 3041   2.081   0.426   2.474 -0.3792 -0.6137 -0.0237
  761SOL    HW1 3042   2.068   0.338   2.471  0.4972  0.4631 -0.6826
  761SOL    HW2 3043   2.091   0.439   2.571 -0.6539  1.8831 -0.5628
  761SOL     MW 3044   2.081   0.416   2.486 -0.2998 -0.1422 -0.1818
  762SOL     OW 3045   3.100   0.191   2.050 -0.0995 -0.1000 -0.5075
  762SOL    HW1 3046   3.095   0.132   2.128 -2.8613 -0.9456 -1.1319
  762SOL    HW2 3047   3.035   0.265   2.051 -3.2762 -2.1626 -0.2809
  762SOL     MW 3048   3.091   0.193   2.060 -0.8830 -0.4837 -0.5600
  763SOL     OW 3049   2.373   1.100   2.363  0.6280 -0.2800 -0.6622
  763SOL    HW1 3050   2.415   1.076   2.278  2.1684  2.5595  1.4051
  763SOL    HW2 3051   2.441   1.160   2.393  1.2484 -0.6215 -1.6485
  763SOL     MW 3052   2.388   1.105   2.356  0.9131  0.0496 -0.5196
  764SOL     OW 3053   0.378   0.204   2.792 -0.4519  0.5831 -0.2423
  764SOL    HW1 3054   0.285   0.218   2.768  0.8995 -0.0472 -3.9389
  764SOL    HW2 3055   0.401   0.282   2.848  0.6160  1.0495  0.5433
  764SOL     MW 3056   0.369   0.217   2.796 -0.1327  0.5615 -0.6264
  765SOL     OW 3057   2.662   0.086   2.280  0.2692  0.1454  0.3958
  765SOL    HW1 3058   2.626   0.049   2.196  0.6162  0.4933  0.3515
  765SOL    HW2 3059   2.722   0.016   2.308  1.0442  1.2956 -1.1564
  765SOL     MW 3060   2.665   0.072   2.273  0.4172  0.3431  0.1852
  766SOL     OW 3061   1.859   3.034   2.117 -0.3964  0.0142  0.3021
  766SOL    HW1 3062   1.926   3.066   2.053 -2.3701 -1.3453 -3.3049
  766SOL    HW2 3063   1.791   2.997   2.063 -0.8356 -0.7690  0.7570
  766SOL     MW 3064   1.859   3.034   2.102 -0.7147 -0.2685 -0.1138
  767SOL     OW 3065   2.683   0.646   1.933 -0.4189 -0.7261  0.3099
  767SOL    HW1 3066   2.714   0.732   1.970  1.6192  1.0876 -0.9707
  767SOL    HW2 3067   2.598   0.640   1.977 -2.9329 -0.0460  2.9060
  767SOL     MW 3068   2.676   0.657   1.944 -0.4817 -0.3970  0.4835
  768SOL     OW 3069   0.087   1.531   2.993  0.3574  0.5356  0.1436
  768SOL    HW1 3070   0.099   1.490   3.081 -1.4799 -1.7051 -1.1330
  768SOL    HW2 3071   0.091   1.462   2.927 -0.3280 -1.2533 -1.7688
  768SOL     MW 3072   0.089   1.517   2.996  0.0246  0.0040 -0.2772
  769SOL     OW 3073   2.331   0.665   2.317 -0.3174  0.0944 -0.3934
  769SOL    HW1 3074   2.255   0.643   2.269  0.1871 -1.6119 -1.0931
  769SOL    HW2 3075   2.380   0.588   2.292  0.2327  0.1088  1.9043
  769SOL     MW 3076   2.327   0.652   2.307 -0.1783 -0.1289 -0.1825
  770SOL     OW 3077   0.051   1.689   2.604  0.8024  0.4701 -0.4248
  770SOL    HW1 3078  -0.044   1.676   2.625 -1.9936  0.2525 -1.5445
  770SOL    HW2 3079   0.092   1.600   2.625 -1.6287  0.1387 -0.9091
  770SOL     MW 3080   0.044   1.676   2.610  0.1127  0.3977 -0.6364
  771SOL     OW 3081   3.065   0.679   1.945 -0.0330 -0.9993 -0.3186
  771SOL    HW1 3082   3.014   0.673   1.856 -0.7118 -0.4945 -1.6829
  771SOL    HW2 3083   3.148   0.641   1.926  0.5828  1.9253 -0.3898
  771SOL     MW 3084   3.070   0.673   1.931 -0.0413 -0.5468 -0.5080
  772SOL     OW 3085   3.093   0.018   2.265  0.0555  0.2162 -0.6001
  772SOL    HW1 3086   3.011  -0.028   2.288 -2.3846 -0.7438  0.9535
  772SOL    HW2 3087   3.158  -0.048   2.238 -1.5407 -1.1303 -1.9499
  772SOL     MW 3088   3.091   0.004   2.264 -0.4770 -0.0881 -0.5732
  773SOL     OW 3089   2.412   2.812   2.756 -0.1067 -0.8009  0.0925
  773SOL    HW1 3090   2.408   2.726   2.711 -0.4284  0.6050  1.7135
  773SOL    HW2 3091   2.435   2.778   2.843  1.0715  0.2786  0.9072
  773SOL     MW 3092   2.414   2.796   2.761  0.0063 -0.4730  0.4139
  774SOL     OW 3093   2.269   1.162   1.747 -0.0666  0.3193  0.5079
  774SOL    HW1 3094   2.271   1.239   1.690  0.9348  2.1904  0.9476
  774SOL    HW2 3095   2.217   1.096   1.705 -2.1175 -1.6867  1.6001
  774SOL     MW 3096   2.263   1.164   1.734 -0.2050  0.3015  0.7100
  775SOL     OW 3097   2.227   3.003   2.405  0.4663 -0.3320  0.1682
  775SOL    HW1 3098   2.244   3.076   2.347  1.0619  1.1018 -0.1673
  775SOL    HW2 3099   2.293   2.938   2.378 -2.5845 -4.0533  2.3288
  775SOL     MW 3100   2.238   3.004   2.394  0.1424 -0.6338  0.4090
  776SOL     OW 3101   0.115   1.441   0.135 -0.6988  0.0152  0.4800
  776SOL    HW1 3102   0.209   1.406   0.149 -1.7318 -2.4389 -0.7980
  776SOL    HW2 3103   0.056   1.372   0.164  0.4553  0.2599 -1.6534
  776SOL     MW 3104   0.119   1.428   0.140 -0.6829 -0.2763  0.0299
  777SOL     OW 3105   3.006   1.060   1.694 -0.3137 -0.1982 -0.4474
  777SOL    HW1 3106   3.037   1.137   1.643 -0.4393 -0.0062  0.5131
  777SOL    HW2 3107   2.913   1.057   1.708  2.0508  0.8299  0.2613
  777SOL     MW 3108   2.998   1.070   1.689 -0.0183 -0.0372 -0.2272
  778SOL     OW 3109   2.870   0.446   2.755  0.1682  0.2135 -0.0613
  778SOL    HW1 3110   2.803   0.456   2.824  2.8359  1.0106 -2.0358
  778SOL    HW2 3111   2.887   0.534   2.709  2.3325 -0.0614  0.7837
  778SOL     MW 3112   2.863   0.459   2.758  0.8058  0.2824 -0.2103
  779SOL     OW 3113   2.098   0.577   2.230  0.3753  0.7324  0.3542
  779SOL    HW1 3114   2.028   0.633   2.243  0.5667 -0.0307  1.0431
  779SOL    HW2 3115   2.092   0.507   2.288  0.1353  0.3929 -0.4252
  779SOL     MW 3116   2.088   0.575   2.239  0.3689  0.5869  0.3423
  780SOL     OW 3117   0.085   0.210   2.775 -0.2194 -0.1149  0.2751
  780SOL    HW1 3118   0.071   0.202   2.871  1.1335  2.1494  2.5834
  780SOL    HW2 3119   0.003   0.214   2.726  0.0989  1.0009  1.2380
  780SOL     MW 3120   0.072   0.209   2.781  0.0011  0.3310  0.7067
  781SOL     OW 3121   3.057   1.319   2.550  0.2685  0.1432  0.7974
  781SOL    HW1 3122   3.037   1.366   2.467  3.0979  0.3585 -0.5282
  781SOL    HW2 3123   3.074   1.229   2.524  1.0161  0.4431  2.7829
  781SOL     MW 3124   3.057   1.313   2.535  0.7405  0.2112  0.8845
  782SOL     OW 3125   0.750   1.469   3.071  0.3339 -0.5115 -0.8697
  782SOL    HW1 3126   0.662   1.488   3.109  2.3155 -2.8432 -0.0758
  782SOL    HW2 3127   0.813   1.482   3.150  2.4783 -0.6029 -0.3363
  782SOL     MW 3128   0.747   1.473   3.087  0.8783 -0.8312 -0.6946
  783SOL     OW 3129   2.735   0.495   2.388 -0.1170 -0.2330 -0.1215
  783SOL    HW1 3130   2.665   0.485   2.323  0.8890 -1.2772  0.2329
  783SOL    HW2 3131   2.683   0.497   2.469  1.2977 -0.0309 -0.6868
  783SOL     MW 3132   2.719   0.494   2.390  0.2024 -0.3441 -0.1493
  784SOL     OW 3133   0.178   0.835   2.819  0.2645 -0.2396  0.4939
  784SOL    HW1 3134   0.097   0.839   2.765  0.3225  1.8793  2.1234
  784SOL    HW2 3135   0.254   0.870   2.759  4.0483 -1.5950 -1.8751
  784SOL     MW 3136   0.177   0.840   2.804  0.7714 -0.1388  0.3963
  785SOL     OW 3137   0.417   0.503   2.180  0.3034 -0.0533  0.3916
  785SOL    HW1 3138   0.429   0.569   2.111  0.4112 -0.3742 -0.8606
  785SOL    HW2 3139   0.332   0.466   2.166  0.1019  0.7464 -3.3025
  785SOL     MW 3140   0.408   0.507   2.169  0.2910  0.0099 -0.2610
  786SOL     OW 3141   1.981   0.369   2.955  0.4139  1.0895  0.0971
  786SOL    HW1 3142   1.995   0.422   3.028  0.8551 -2.9404 -1.3644
  786SOL    HW2 3143   2.065   0.355   2.912  0.1701 -3.4205  0.7052
  786SOL     MW 3144   1.994   0.374   2.959  0.4399 -0.0373 -0.0155
  787SOL     OW 3145   2.421   0.208   2.876  0.0645  0.1759 -0.5098
  787SOL    HW1 3146   2.469   0.130   2.850  0.9053  1.6167 -0.6514
  787SOL    HW2 3147   2.472   0.247   2.949  1.5434  2.7491  3.0330
  787SOL     MW 3148   2.434   0.203   2.882  0.3706  0.7055 -0.0611
  788SOL     OW 3149   2.850   3.007   2.377 -0.3190 -0.1572  0.6699
  788SOL    HW1 3150   2.868   3.013   2.467  0.2596  3.4680 -2.3890
  788SOL    HW2 3151   2.833   2.915   2.380  0.0171 -1.8921 -1.6870
  788SOL     MW 3152   2.850   2.996   2.389 -0.1983  0.0922 -0.0447
  789SOL     OW 3153   0.072   0.213   3.035 -0.4884  0.2112  0.1049
  789SOL    HW1 3154  -0.011   0.171   3.069 -0.8534 -0.6674 -1.7539
  789SOL    HW2 3155   0.061   0.307   3.035  0.7305  0.1510  3.9506
  789SOL     MW 3156   0.060   0.220   3.039 -0.3758  0.0873  0.3670
  790SOL     OW 3157   3.103   1.077   2.434 -0.3031 -0.1391 -0.2634
  790SOL    HW1 3158   3.045   1.020   2.493 -2.6971 -0.9991  2.7230
  790SOL    HW2 3159   3.069   1.075   2.345  0.8867  1.5938 -0.5409
  790SOL     MW 3160   3.091   1.069   2.430 -0.4619 -0.0240  0.0940
  791SOL     OW 3161   2.609   0.398   2.632  0.5422 -0.2748 -0.5061
  791SOL    HW1 3162   2.550   0.426   2.698 -0.2531 -1.8396  1.0160
  791SOL    HW2 3163   2.683   0.365   2.681 -2.4616 -1.0943 -0.2665
  791SOL     MW 3164   2.611   0.397   2.647  0.0409 -0.5894 -0.2737
  792SOL     OW 3165   2.346   0.350   2.394 -0.3305 -0.5573  0.1122
  792SOL    HW1 3166   2.285   0.415   2.428 -1.3325 -2.4734  3.5690
  792SOL    HW2 3167   2.344   0.295   2.471  0.5329 -2.1159  1.3405
  792SOL     MW 3168   2.338   0.351   2.409 -0.3488 -1.0158  0.7304
  793SOL     OW 3169   1.828   1.111   1.962 -1.2183 -0.2800  0.1547
  793SOL    HW1 3170   1.795   1.140   1.873 -1.3276 -0.5170 -0.0412
  793SOL    HW2 3171   1.904   1.055   1.944  2.3528  0.1563 -2.7491
  793SOL     MW 3172   1.833   1.107   1.948 -0.7615 -0.2537 -0.2542
  794SOL     OW 3173   1.421   2.255   0.150  0.1453 -0.7375  1.0059
  794SOL    HW1 3174   1.442   2.324   0.085 -2.1652  1.7995 -1.0472
  794SOL    HW2 3175   1.490   2.257   0.212 -1.1213  0.3949 -1.2786
  794SOL     MW 3176   1.433   2.264   0.150 -0.3267 -0.2534  0.4336
  795SOL     OW 3177   2.340   1.004   2.631  0.1579 -1.0490  0.0979
  795SOL    HW1 3178   2.297   1.085   2.668 -2.4051 -1.8149  2.1249
  795SOL    HW2 3179   2.351   1.038   2.539  0.2478 -1.0155  0.0367
  795SOL     MW 3180   2.336   1.019   2.623 -0.1684 -1.1456  0.3573
  796SOL     OW 3181   0.295   0.580   2.754 -0.5303 -0.1667 -0.4404
  796SOL    HW1 3182   0.244   0.652   2.789 -0.2350 -1.4138 -1.9829
  796SOL    HW2 3183   0.266   0.578   2.661 -1.2837  2.0304 -2.2097
  796SOL     MW 3184   0.284   0.590   2.746 -0.5907 -0.0414 -0.8773
  797SOL     OW 3185   2.613   0.111   2.539 -0.1816 -0.0302 -0.4119
  797SOL    HW1 3186   2.597   0.199   2.535 -1.4867  0.4229 -3.2012
  797SOL    HW2 3187   2.629   0.100   2.439  1.4750  2.2422  0.0773
  797SOL     MW 3188   2.613   0.121   2.525 -0.1353  0.3294 -0.7154
  798SOL     OW 3189   2.293   0.119   2.235  0.1605 -0.1099 -0.1006
  798SOL    HW1 3190   2.318   0.177   2.309  0.0010  0.6751 -0.0545
  798SOL    HW2 3191   2.379   0.094   2.193  0.2734 -2.4687 -1.1477
  798SOL     MW 3192   2.308   0.123   2.239  0.1543 -0.3176 -0.2327
  799SOL     OW 3193   2.526   2.959   3.084 -0.7667  0.1177  0.4522
  799SOL    HW1 3194   2.466   2.879   3.076  1.0093 -1.5859 -0.9526
  799SOL    HW2 3195   2.467   3.034   3.084  1.4811 -1.0756 -2.1136
  799SOL     MW 3196   2.510   2.959   3.083 -0.2358 -0.2645 -0.0717
  800SOL     OW 3197   1.940   0.020   1.707 -0.2102  0.7177  0.3006
  800SOL    HW1 3198   1.862  -0.030   1.732 -0.9265  0.8089  1.0470
  800SOL    HW2 3199   1.990   0.023   1.786  1.2353  3.5975  1.9301
  800SOL     MW 3200   1.936   0.014   1.721 -0.1140  1.1097  0.6141
  801SOL     OW 3201   2.779   1.308   2.607  0.0022 -0.0744 -0.5937
  801SOL    HW1 3202   2.762   1.222   2.636  1.2668  0.8850 -2.0971
  801SOL    HW2 3203   2.872   1.319   2.573 -0.9495  2.1386 -1.3926
  801SOL     MW 3204   2.789   1.298   2.606  0.0435  0.3442 -0.8975
  802SOL     OW 3205   2.622   1.512   2.753 -0.4422 -0.2685  0.5179
  802SOL    HW1 3206   2.593   1.415   2.761  0.0798 -0.1529  0.7564
  802SOL    HW2 3207   2.716   1.522   2.783  1.0950 -1.0779 -0.0605
  802SOL     MW 3208   2.631   1.500   2.758 -0.1705 -0.3601  0.4730
  803SOL     OW 3209   2.254   1.359   1.973 -0.5103  0.8802 -0.6861
  803SOL    HW1 3210   2.221   1.344   2.065 -1.3030 -2.2183  1.6723
  803SOL    HW2 3211   2.265   1.272   1.936 -0.9619  0.8224 -3.0148
  803SOL     MW 3212   2.251   1.346   1.980 -0.6744  0.4638 -0.6822
  804SOL     OW 3213   2.291   0.049   3.077  0.0784 -0.2263 -0.0347
  804SOL    HW1 3214   2.215   0.103   3.115 -2.7468  0.6572  1.4513
  804SOL    HW2 3215   2.338   0.110   3.026 -0.6908 -0.5538 -0.6101
  804SOL     MW 3216   2.287   0.064   3.075 -0.3958 -0.1529  0.0854
  805SOL     OW 3217   2.667   1.039   2.579 -0.4013  0.2792 -0.3991
  805SOL    HW1 3218   2.618   1.003   2.507 -0.1824 -2.3108  0.9319
  805SOL    HW2 3219   2.754   0.990   2.572  1.3130  0.5587  2.1546
  805SOL     MW 3220   2.672   1.028   2.569 -0.1462 -0.0256  0.1134
  806SOL     OW 3221   2.518   0.475   2.232  0.0847  0.7375 -0.1600
  806SOL    HW1 3222   2.469   0.397   2.260 -1.2890  0.0463 -0.4700
  806SOL    HW2 3223   2.490   0.488   2.143 -1.9400 -1.4327  1.9127
  806SOL     MW 3224   2.508   0.466   2.224 -0.3637  0.3600  0.0726
  807SOL     OW 3225   0.047   1.107   2.027  0.3020 -0.4239  0.8735
  807SOL    HW1 3226   0.088   1.023   2.041 -0.7422 -1.1622 -0.9484
  807SOL    HW2 3227  -0.042   1.092   2.077 -1.8344 -1.3714  3.0412
  807SOL     MW 3228   0.041   1.094   2.036 -0.1176 -0.6463  0.9191
  808SOL     OW 3229   2.545   0.003   2.782  0.0805 -0.0143 -0.2602
  808SOL    HW1 3230   2.494  -0.077   2.773  0.9717  1.2235 -1.4135
  808SOL    HW2 3231   2.557   0.036   2.690  0.1661 -0.6710 -1.9914
  808SOL     MW 3232   2.540  -0.003   2.768  0.2094  0.0624 -0.6408
  809SOL     OW 3233   2.570   1.288   2.400 -0.5694 -0.2133  0.0764
  809SOL    HW1 3234   2.635   1.268   2.466  3.0913 -0.0457 -0.8766
  809SOL    HW2 3235   2.618   1.286   2.315 -2.2053  1.4499 -0.2778
  809SOL     MW 3236   2.585   1.285   2.398 -0.3022  0.0283 -0.0961
  810SOL     OW 3237   2.209   1.273   2.243  0.1429  0.1501  0.5527
  810SOL    HW1 3238   2.285   1.216   2.274  1.3829  0.0516  1.5217
  810SOL    HW2 3239   2.144   1.210   2.211 -0.0165 -1.2713 -0.1491
  810SOL     MW 3240   2.211   1.257   2.243  0.2855 -0.0505  0.5879
  811SOL     OW 3241   1.549   0.149   2.315  0.2452 -0.1317 -0.1576
  811SOL    HW1 3242   1.611   0.086   2.351  2.0097 -0.4900  4.5518
  811SOL    HW2 3243   1.550   0.133   2.218  0.2795  0.0253 -0.3950
  811SOL     MW 3244   1.557   0.138   2.307  0.4825 -0.1583  0.4324
  812SOL     OW 3245   1.501   2.879   2.109  0.6643 -0.1431 -0.0753
  812SOL    HW1 3246   1.585   2.852   2.056 -1.4756  0.0577  1.9420
  812SOL    HW2 3247   1.508   2.835   2.191 -0.1977  0.3733 -0.6467
  812SOL     MW 3248   1.513   2.870   2.113  0.2683 -0.0485  0.1155
  813SOL     OW 3249   1.874   0.714   2.162 -0.1881  0.2362 -0.4358
  813SOL    HW1 3250   1.836   0.625   2.202  1.6610  1.8401 -1.3884
  813SOL    HW2 3251   1.877   0.774   2.239  1.7394 -0.2371  0.6177
  813SOL     MW 3252   1.869   0.710   2.178  0.3102  0.3854 -0.4225
  814SOL     OW 3253   2.730   1.274   1.600  0.0560  0.1212  0.0879
  814SOL    HW1 3254   2.706   1.204   1.663 -0.4982 -0.0342  0.5894
  814SOL    HW2 3255   2.777   1.226   1.524  0.2943 -1.8267 -3.7357
  814SOL     MW 3256   2.733   1.258   1.598  0.0143 -0.1563 -0.3504
  815SOL     OW 3257   2.480   1.668   2.319 -0.6479 -0.1285 -0.1069
  815SOL    HW1 3258   2.419   1.600   2.273 -0.5347 -0.8310 -0.0471
  815SOL    HW2 3259   2.544   1.617   2.362  1.5506  2.9484  0.1884
  815SOL     MW 3260   2.480   1.652   2.319 -0.3429  0.1848 -0.0600
  816SOL     OW 3261   0.781   0.674   2.782 -0.1997 -0.1172 -0.1317
  816SOL    HW1 3262   0.790   0.583   2.809  0.7131 -2.0229  2.1500
  816SOL    HW2 3263   0.693   0.691   2.748  1.5240 -0.5485 -2.5439
  816SOL     MW 3264   0.771   0.665   2.781  0.1482 -0.4256 -0.1489
  817SOL     OW 3265   3.078   1.263   1.499 -0.0340  0.5382 -0.2632
  817SOL    HW1 3266   3.171   1.239   1.515  0.0330 -1.2613 -0.0371
  817SOL    HW2 3267   3.069   1.347   1.461  0.6234 -1.4883  3.0287
  817SOL     MW 3268   3.089   1.271   1.496  0.0616  0.0334  0.2010
  818SOL     OW 3269   1.918   1.046   2.674  0.1163  0.2691  0.2065
  818SOL    HW1 3270   1.915   1.040   2.581 -0.2052 -0.6432  1.2691
  818SOL    HW2 3271   1.993   0.988   2.697 -0.7767 -2.4726  0.5286
  818SOL     MW 3272   1.928   1.037   2.665 -0.0439 -0.2130  0.3892
  819SOL     OW 3273   1.904   0.203   2.465 -0.1736 -0.1692  0.1847
  819SOL    HW1 3274   1.858   0.291   2.479  1.1131 -1.2697 -3.2370
  819SOL    HW2 3275   1.958   0.190   2.550  0.2901 -2.4031 -1.0549
  819SOL     MW 3276   1.905   0.213   2.478  0.0573 -0.6091 -0.4303
  820SOL     OW 3277   2.468   1.698   2.609 -0.1853  0.0359 -0.2711
  820SOL    HW1 3278   2.507   1.620   2.655 -1.0941  1.8446  1.4131
  820SOL    HW2 3279   2.443   1.679   2.518 -1.8869  0.1482 -0.3304
  820SOL     MW 3280   2.470   1.685   2.603 -0.5297  0.2893 -0.0567
  821SOL     OW 3281   2.572   1.380   1.964  0.6409 -0.6428  0.0366
  821SOL    HW1 3282   2.580   1.462   1.904 -3.5148 -0.2716 -0.4607
  821SOL    HW2 3283   2.479   1.388   1.987 -1.8063 -3.2662 -2.3106
  821SOL     MW 3284   2.561   1.392   1.959 -0.2303 -0.9399 -0.3387
  822SOL     OW 3285   2.744   2.615   1.482  0.2386 -0.6473  0.1936
  822SOL    HW1 3286   2.795   2.649   1.556  1.0138 -2.9710 -2.4551
  822SOL    HW2 3287   2.706   2.686   1.434 -1.7942  1.5383  1.1628
  822SOL     MW 3288   2.746   2.629   1.486  0.0727 -0.6655 -0.0280
  823SOL     OW 3289   2.280   0.509   1.738  0.5052 -0.1778  0.2372
  823SOL    HW1 3290   2.355   0.449   1.708  1.6560  1.3760  0.5138
  823SOL    HW2 3291   2.196   0.464   1.724 -0.7042 -1.4896 -1.6405
  823SOL     MW 3292   2.279   0.495   1.732  0.4975 -0.1459  0.0259
  824SOL     OW 3293   2.091   1.409   2.580 -0.5396  0.0009  0.2789
  824SOL    HW1 3294   2.152   1.450   2.516  0.0567  0.2530  1.3387
  824SOL    HW2 3295   2.039   1.480   2.619 -0.3039 -1.1114 -0.6099
  824SOL     MW 3296   2.093   1.424   2.577 -0.4298 -0.1126  0.3014
  825SOL     OW 3297   1.973   2.558   0.282 -0.5219 -0.3798  0.0365
  825SOL    HW1 3298   1.958   2.473   0.320 -0.0575 -0.1010  1.0350
  825SOL    HW2 3299   2.053   2.534   0.231  2.1203  0.3106 -0.0289
  825SOL     MW 3300   1.982   2.544   0.280 -0.1120 -0.2519  0.1596
  826SOL     OW 3301   1.904   2.394   0.486 -0.0253  0.7106 -0.4724
  826SOL    HW1 3302   1.860   2.328   0.542  1.1635  0.5663  3.8987
  826SOL    HW2 3303   1.867   2.474   0.521  1.2345  3.1347 -1.7651
  826SOL     MW 3304   1.893   2.396   0.498  0.2977  1.0114 -0.0663
  827SOL     OW 3305   1.938   2.223   0.962  0.8692 -0.3374  0.7869
  827SOL    HW1 3306   1.876   2.295   0.936 -0.9871 -0.8722  1.7182
  827SOL    HW2 3307   1.870   2.156   0.962 -2.7077  0.5753  1.9055
  827SOL     MW 3308   1.921   2.224   0.959  0.1523 -0.2875  1.0573
  828SOL     OW 3309   0.062   2.618   0.568  0.5118  0.5363  0.0734
  828SOL    HW1 3310   0.157   2.634   0.562  2.4902 -1.9883  3.6882
  828SOL    HW2 3311   0.022   2.671   0.503  2.2541 -2.2258 -1.3982
  828SOL     MW 3312   0.069   2.627   0.558  1.0027 -0.1612  0.3561
  829SOL     OW 3313   2.925   2.937   1.233  0.4945 -0.2526  0.0487
  829SOL    HW1 3314   2.846   2.921   1.179 -0.5585  1.1577 -0.1572
  829SOL    HW2 3315   2.970   2.851   1.229  1.1524 -0.6511  2.5460
  829SOL     MW 3316   2.921   2.924   1.225  0.4424 -0.1191  0.3510
  830SOL     OW 3317   2.493   2.862   2.005  0.1165 -0.1199 -0.1946
  830SOL    HW1 3318   2.403   2.843   1.978  1.8237 -0.2922 -2.5133
  830SOL    HW2 3319   2.550   2.822   1.937 -1.2940  1.5781  0.8215
  830SOL     MW 3320   2.489   2.854   1.992  0.1556  0.0814 -0.3665
  831SOL     OW 3321   2.416   2.407   1.312 -0.1061 -0.7730 -0.2457
  831SOL    HW1 3322   2.367   2.363   1.381  1.5470  1.4052  0.3683
  831SOL    HW2 3323   2.491   2.343   1.286  1.8165  1.9242 -0.7628
  831SOL     MW 3324   2.419   2.393   1.317  0.3656 -0.1297 -0.2329
  832SOL     OW 3325   2.419   2.190   1.914  0.3486  0.2259 -0.0053
  832SOL    HW1 3326   2.441   2.285   1.938 -0.4397 -1.3651  1.5258
  832SOL    HW2 3327   2.503   2.151   1.882  0.1942 -0.6151 -2.7827
  832SOL     MW 3328   2.433   2.197   1.913  0.2242 -0.0950 -0.1697
  833SOL     OW 3329   1.781   2.470   0.887  0.1554  0.3524 -0.2188
  833SOL    HW1 3330   1.701   2.412   0.893  0.2671  4.1595  1.2819
  833SOL    HW2 3331   1.765   2.535   0.962 -1.0269 -4.5302 -0.4677
  833SOL     MW 3332   1.769   2.471   0.897  0.0141  0.2105 -0.0536
  834SOL     OW 3333   2.232   2.489   0.606  0.2533  0.2970  0.6705
  834SOL    HW1 3334   2.177   2.422   0.649  0.0585 -2.7255 -2.6108
  834SOL    HW2 3335   2.247   2.447   0.522  2.6373 -2.9247 -0.8481
  834SOL     MW 3336   2.227   2.475   0.601  0.5421 -0.5269  0.0372
  835SOL     OW 3337   1.755   2.601   0.654 -0.6608  0.6382  0.4544
  835SOL    HW1 3338   1.768   2.552   0.736 -0.2805  0.9394 -1.5767
  835SOL    HW2 3339   1.820   2.679   0.659  0.2298  2.4267 -0.1658
  835SOL     MW 3340   1.765   2.605   0.666 -0.4931  0.9139  0.1046
  836SOL     OW 3341   1.927   2.205   1.618  0.4088 -0.1607  0.1940
  836SOL    HW1 3342   2.006   2.216   1.671 -0.2361 -0.0046 -0.9928
  836SOL    HW2 3343   1.876   2.285   1.635  0.0108 -0.3892 -0.4994
  836SOL     MW 3344   1.931   2.217   1.627  0.2712 -0.1702 -0.0541
  837SOL     OW 3345   2.145   0.200   0.678 -0.3249  0.4642  0.1472
  837SOL    HW1 3346   2.063   0.240   0.663  0.2398 -0.5681 -1.2637
  837SOL    HW2 3347   2.153   0.129   0.608 -2.2688 -2.0912  0.3748
  837SOL     MW 3348   2.136   0.196   0.667 -0.5069 -0.0091 -0.0089
  838SOL     OW 3349   2.935   2.147   0.866 -0.2000  0.0040  0.3886
  838SOL    HW1 3350   2.854   2.113   0.911 -0.0242 -0.9086 -1.6238
  838SOL    HW2 3351   2.979   2.064   0.851 -0.3342 -1.0086 -1.2562
  838SOL     MW 3352   2.930   2.131   0.870 -0.1945 -0.2500 -0.0939
  839SOL     OW 3353   1.546   2.346   0.931 -0.1196  0.1102 -0.3448
  839SOL    HW1 3354   1.518   2.441   0.937 -1.0618  0.9618  2.1994
  839SOL    HW2 3355   1.554   2.307   1.018 -1.4176  1.0964 -1.5453
  839SOL     MW 3356   1.543   2.354   0.943 -0.4152  0.3527 -0.1675
  840SOL     OW 3357   2.300   2.107   2.393  0.4926 -0.6482 -0.1178
  840SOL    HW1 3358   2.289   2.182   2.328  0.1122  0.7843  0.0403
  840SOL    HW2 3359   2.363   2.126   2.463  0.4343  0.6826  0.3503
  840SOL     MW 3360   2.307   2.119   2.394  0.4347 -0.2836 -0.0352
  841SOL     OW 3361   2.169   2.438   0.101  0.5963 -0.1368  0.0850
  841SOL    HW1 3362   2.202   2.454   0.014 -3.8324 -1.2208 -2.3163
  841SOL    HW2 3363   2.107   2.363   0.099 -0.4694  0.1512  1.8636
  841SOL     MW 3364   2.165   2.430   0.089 -0.1286 -0.2418  0.0028
  842SOL     OW 3365   2.682   1.953   1.592  0.0665  0.5376 -0.1334
  842SOL    HW1 3366   2.625   1.880   1.609 -2.7344  1.3146  0.0474
  842SOL    HW2 3367   2.641   1.996   1.522  1.0858  1.2086  0.3260
  842SOL     MW 3368   2.669   1.949   1.585 -0.1686  0.7286 -0.0489
  843SOL     OW 3369   2.638   2.767   1.790  0.3490  0.0102  0.2229
  843SOL    HW1 3370   2.721   2.742   1.824 -0.6208 -0.4379  0.9522
  843SOL    HW2 3371   2.614   2.681   1.752  0.9203  2.0760 -1.5277
  843SOL     MW 3372   2.646   2.753   1.790  0.2964  0.2237  0.0881
  844SOL     OW 3373   2.615   2.262   1.221  0.0348 -0.5659  0.3156
  844SOL    HW1 3374   2.639   2.312   1.134  1.8106 -0.2732 -1.6461
  844SOL    HW2 3375   2.687   2.297   1.286 -0.1269  0.8236  1.8567
  844SOL     MW 3376   2.628   2.273   1.218  0.2478 -0.3439  0.2601
  845SOL     OW 3377   2.849   2.450   0.311  0.1339  0.7292 -0.6000
  845SOL    HW1 3378   2.811   2.363   0.321  0.9660  1.6296 -2.1269
  845SOL    HW2 3379   2.880   2.481   0.395 -0.0578 -0.6718  0.8982
  845SOL     MW 3380   2.848   2.443   0.323  0.2184  0.6631 -0.6038
  846SOL     OW 3381   1.524   2.858   0.763 -0.1077 -0.3419  0.0630
  846SOL    HW1 3382   1.574   2.900   0.831  0.6704  0.4022  0.1350
  846SOL    HW2 3383   1.434   2.860   0.800  2.1071 -1.2132  1.2177
  846SOL     MW 3384   1.519   2.864   0.777  0.2872 -0.3587  0.2249
  847SOL     OW 3385   2.506   1.880   0.155 -0.4844  0.2111  0.0427
  847SOL    HW1 3386   2.554   1.812   0.207  0.2420  1.6680 -3.0466
  847SOL    HW2 3387   2.460   1.842   0.079  3.0520  1.2368  0.0905
  847SOL     MW 3388   2.507   1.866   0.152  0.0780  0.5387 -0.3586
  848SOL     OW 3389   2.524   2.058   1.389 -0.5753  0.2030 -0.3736
  848SOL    HW1 3390   2.577   2.112   1.323 -1.2892 -2.2752 -4.3647
  848SOL    HW2 3391   2.472   1.999   1.332 -0.4460 -0.2787  0.1782
  848SOL     MW 3392   2.524   2.058   1.372 -0.6524 -0.1875 -0.8274
  849SOL     OW 3393   1.952   2.762   0.739 -0.8368  0.2060  0.1189
  849SOL    HW1 3394   1.995   2.693   0.797 -0.8574  1.4145  1.7231
  849SOL    HW2 3395   2.030   2.791   0.688 -3.3635  1.2221  0.8322
  849SOL     MW 3396   1.968   2.757   0.740 -1.1729  0.4995  0.4247
  850SOL     OW 3397   2.231   1.929   1.667  0.2605  0.0462  0.9968
  850SOL    HW1 3398   2.151   1.900   1.622 -1.6968 -0.9630  1.6360
  850SOL    HW2 3399   2.209   2.022   1.681 -2.3181 -1.0661 -0.4082
  850SOL     MW 3400   2.218   1.938   1.663 -0.3380 -0.2337  0.8957
  851SOL     OW 3401   2.291   2.395   0.342  0.4376 -0.2392  0.0416
  851SOL    HW1 3402   2.253   2.382   0.253  1.4169 -2.6756  0.7138
  851SOL    HW2 3403   2.362   2.470   0.325  0.6195 -0.9115  0.6011
  851SOL     MW 3404   2.295   2.403   0.328  0.5908 -0.6494  0.2041
  852SOL     OW 3405   2.357   2.106   0.309 -0.2694 -0.4286 -0.0614
  852SOL    HW1 3406   2.364   2.201   0.300 -0.2975 -1.5095  0.9199
  852SOL    HW2 3407   2.429   2.060   0.281 -0.8571 -1.5273  1.0456
  852SOL     MW 3408   2.367   2.112   0.304 -0.3506 -0.7162  0.2141
  853SOL     OW 3409   2.497   2.445   1.996  0.2429  0.3272 -0.1557
  853SOL    HW1 3410   2.506   2.492   1.908 -1.5067  0.6008  1.4500
  853SOL    HW2 3411   2.585   2.413   2.022 -3.1822 -0.8297  0.6906
  853SOL     MW 3412   2.510   2.447   1.988 -0.4398  0.2107  0.1678
  854SOL     OW 3413   2.823   2.360   0.755  0.3246  0.1243 -0.0323
  854SOL    HW1 3414   2.747   2.314   0.718 -0.3609 -2.1448 -0.2612
  854SOL    HW2 3415   2.865   2.287   0.803  0.5133 -0.0573 -0.8208
  854SOL     MW 3416   2.819   2.345   0.756  0.2591 -0.1990 -0.1665
  855SOL     OW 3417   2.720   2.234   0.379  0.0659 -0.1338  0.0243
  855SOL    HW1 3418   2.664   2.281   0.447 -0.4461 -0.8437 -1.9368
  855SOL    HW2 3419   2.802   2.188   0.402 -0.1080 -2.6128 -0.9956
  855SOL     MW 3420   2.723   2.234   0.391 -0.0246 -0.5545 -0.3690
  856SOL     OW 3421   2.192   1.943   0.155 -0.2507  0.1007 -0.2390
  856SOL    HW1 3422   2.102   1.929   0.190 -1.2262 -0.2944 -1.2762
  856SOL    HW2 3423   2.219   2.020   0.208 -1.3790 -0.0307  0.4944
  856SOL     MW 3424   2.184   1.951   0.167 -0.5283  0.0312 -0.2791
  857SOL     OW 3425   2.576   1.990   0.493 -1.0875 -0.1501  0.4730
  857SOL    HW1 3426   2.621   2.067   0.444 -3.9288 -0.5306 -3.0744
  857SOL    HW2 3427   2.490   1.992   0.468  2.6848 -2.1040 -0.6089
  857SOL     MW 3428   2.571   2.001   0.483 -0.9647 -0.4581 -0.1378
  858SOL     OW 3429   2.891   2.640   1.724  0.4991 -0.2330  1.1362
  858SOL    HW1 3430   2.978   2.664   1.749  0.1892 -0.3083 -2.6289
  858SOL    HW2 3431   2.879   2.547   1.749  0.7885 -2.4928 -1.1206
  858SOL     MW 3432   2.901   2.631   1.730  0.4964 -0.5411  0.3417
  859SOL     OW 3433   2.110   2.567   0.943 -0.6543 -0.0760  0.7884
  859SOL    HW1 3434   2.081   2.505   1.008 -0.0175  1.3045 -0.8509
  859SOL    HW2 3435   2.201   2.542   0.920  0.1989 -1.9690  1.2606
  859SOL     MW 3436   2.118   2.555   0.948 -0.4577 -0.1436  0.6344
  860SOL     OW 3437   2.680   2.593   0.164  0.3184  0.0684  0.0026
  860SOL    HW1 3438   2.745   2.555   0.233  0.5800  2.5006 -2.0633
  860SOL    HW2 3439   2.726   2.666   0.121  2.4992 -0.3363 -1.3079
  860SOL     MW 3440   2.695   2.598   0.167  0.6406  0.3359 -0.4429
  861SOL     OW 3441   1.568   2.144   1.170  0.3250 -0.3170  0.3299
  861SOL    HW1 3442   1.586   2.210   1.234  0.6494  0.2069 -0.5053
  861SOL    HW2 3443   1.505   2.086   1.209 -0.4779  0.4802  0.2557
  861SOL     MW 3444   1.562   2.145   1.184  0.2619 -0.1427  0.2099
  862SOL     OW 3445   2.450   1.773   1.543  0.7750  0.0992 -0.1451
  862SOL    HW1 3446   2.364   1.811   1.578 -3.0779 -0.3248 -1.9636
  862SOL    HW2 3447   2.445   1.788   1.445 -1.1953  0.8549 -1.4969
  862SOL     MW 3448   2.438   1.780   1.535  0.0067  0.1429 -0.5634
  863SOL     OW 3449   3.029   1.815   1.064 -0.0170  0.3385 -0.0052
  863SOL    HW1 3450   3.108   1.788   1.111 -0.6361 -0.6282 -1.4407
  863SOL    HW2 3451   2.998   1.881   1.127  0.3677 -0.3888  1.0242
  863SOL     MW 3452   3.035   1.820   1.078 -0.0480  0.1150 -0.0588
  864SOL     OW 3453   3.058   1.908   0.805  0.0616 -0.7389  0.2777
  864SOL    HW1 3454   3.050   1.873   0.892 -0.0429 -3.2041 -1.6279
  864SOL    HW2 3455   3.033   1.836   0.744 -0.6885 -2.4284  1.7343
  864SOL     MW 3456   3.054   1.894   0.809 -0.0512 -1.2871  0.2185
  865SOL     OW 3457   2.612   2.153   0.012 -0.5055  0.0629  0.2565
  865SOL    HW1 3458   2.582   2.079   0.066  0.2523 -0.6368  2.1782
  865SOL    HW2 3459   2.563   2.147  -0.069  0.1529 -0.7282  0.4522
  865SOL     MW 3460   2.601   2.143   0.008 -0.3187 -0.1338  0.5359
  866SOL     OW 3461   2.684   2.335   1.665 -0.2439  0.6347  0.9121
  866SOL    HW1 3462   2.681   2.248   1.708  3.1975 -1.2408 -1.7353
  866SOL    HW2 3463   2.756   2.329   1.598 -1.2184  3.7662  1.3781
  866SOL     MW 3464   2.693   2.322   1.662  0.0816  0.8004  0.6243
  867SOL     OW 3465   0.038   2.726   1.813  0.2273  0.5925  0.3100
  867SOL    HW1 3466   0.069   2.714   1.905  0.3141  0.6251  2.3086
  867SOL    HW2 3467   0.017   2.818   1.805  0.5476 -1.4041 -0.1302
  867SOL     MW 3468   0.039   2.736   1.824  0.2811  0.3334  0.5156
  868SOL     OW 3469   2.844   2.586   0.549  0.7289  0.3151 -0.0099
  868SOL    HW1 3470   2.767   2.532   0.572  0.0441 -0.1420 -0.4153
  868SOL    HW2 3471   2.809   2.660   0.496  0.5063 -0.6842  1.4911
  868SOL     MW 3472   2.830   2.589   0.545  0.6092  0.1229  0.1347
  869SOL     OW 3473   2.092   2.363   1.148 -0.9216 -0.4241 -0.8654
  869SOL    HW1 3474   2.182   2.352   1.106  0.4669  0.8653  1.2015
  869SOL    HW2 3475   2.036   2.307   1.095 -0.0712 -0.8367  0.3615
  869SOL     MW 3476   2.096   2.354   1.135 -0.6262 -0.3084 -0.4308
  870SOL     OW 3477   2.158   0.025   0.483  0.2885  0.3672 -0.2160
  870SOL    HW1 3478   2.232   0.057   0.438  1.0307 -0.8289  1.6494
  870SOL    HW2 3479   2.174  -0.066   0.466 -0.7058 -0.7839 -1.3426
  870SOL     MW 3480   2.170   0.017   0.475  0.2552  0.0575 -0.1185
  871SOL     OW 3481   2.504   2.148   0.937  0.7247 -0.1059 -0.4443
  871SOL    HW1 3482   2.456   2.069   0.921  0.9815  0.7604  3.7571
  871SOL    HW2 3483   2.444   2.211   0.987  1.9297  1.3528 -0.0224
  871SOL     MW 3484   2.489   2.146   0.941  0.9176  0.2009  0.1657
  872SOL     OW 3485   1.982   2.559   1.514 -0.3162 -0.0953 -0.3574
  872SOL    HW1 3486   1.960   2.595   1.602 -0.8529  0.1058 -0.9336
  872SOL    HW2 3487   1.912   2.495   1.493 -0.4626 -1.5076  1.4697
  872SOL     MW 3488   1.970   2.555   1.523 -0.4064 -0.2551 -0.1924
  873SOL     OW 3489   2.923   2.053   1.922  0.1392 -0.6804  0.4523
  873SOL    HW1 3490   2.939   2.095   2.006 -2.0469 -0.5524  1.6821
  873SOL    HW2 3491   3.009   2.056   1.872  1.6747  0.5097 -0.5669
  873SOL     MW 3492   2.937   2.059   1.926  0.0533 -0.5065  0.4800
  874SOL     OW 3493   2.274   1.501   2.399  0.0371  0.4383  0.2545
  874SOL    HW1 3494   2.249   1.421   2.338  1.6204 -0.2636 -1.0266
  874SOL    HW2 3495   2.363   1.475   2.429  0.0595 -1.0913  2.1977
  874SOL     MW 3496   2.283   1.487   2.395  0.2489  0.1439  0.3419
  875SOL     OW 3497   2.334   2.318   1.065  0.4645 -0.0226  0.1320
  875SOL    HW1 3498   2.358   2.400   1.017 -1.1330  0.8825  0.4227
  875SOL    HW2 3499   2.372   2.343   1.151  2.1888 -1.5431 -0.0921
  875SOL     MW 3500   2.342   2.332   1.070  0.4812 -0.1038  0.1408
  876SOL     OW 3501   3.029   2.292   1.251  0.7985 -0.8387  0.1747
  876SOL    HW1 3502   3.062   2.305   1.159 -0.1249 -0.5398  0.5881
  876SOL    HW2 3503   3.083   2.359   1.293 -2.7269  0.2733  1.7972
  876SOL     MW 3504   3.040   2.302   1.244  0.2115 -0.6525  0.4434
  877SOL     OW 3505   3.025   2.716   0.328 -0.1219  0.2477 -0.6190
  877SOL    HW1 3506   3.091   2.784   0.318 -1.2110 -0.0325  0.4425
  877SOL    HW2 3507   3.029   2.675   0.242 -2.0602  2.7426 -3.2499
  877SOL     MW 3508   3.034   2.720   0.316 -0.5214  0.5399 -0.8261
  878SOL     OW 3509   2.402   1.831   1.278 -0.2194  0.0383  0.6058
  878SOL    HW1 3510   2.325   1.779   1.291 -2.8873  1.7557 -0.1758
  878SOL    HW2 3511   2.473   1.778   1.246  0.9780 -1.2673 -2.6871
  878SOL     MW 3512   2.401   1.817   1.276 -0.4134  0.0926  0.0682
  879SOL     OW 3513   2.674   2.406   0.983 -0.0931 -0.5742  0.6375
  879SOL    HW1 3514   2.729   2.482   1.004  0.0399  0.2767  0.0545
  879SOL    HW2 3515   2.718   2.364   0.912 -0.6175  0.4231  3.9721
  879SOL     MW 3516   2.687   2.410   0.977 -0.1447 -0.3303  1.0005
  880SOL     OW 3517   2.615   2.199   0.696  0.1449 -0.4480  0.1530
  880SOL    HW1 3518   2.549   2.171   0.773 -2.5255 -0.0562  1.8799
  880SOL    HW2 3519   2.615   2.122   0.642  0.1116  0.3140  0.0890
  880SOL     MW 3520   2.606   2.185   0.699 -0.2118 -0.2958  0.3724
  881SOL     OW 3521   2.956   2.736   0.789 -0.7489  0.1568 -0.0797
  881SOL    HW1 3522   2.951   2.686   0.703  0.3525  0.3370 -1.7513
  881SOL    HW2 3523   3.045   2.720   0.820 -3.0236 -3.5822 -0.6149
  881SOL     MW 3524   2.967   2.728   0.782 -0.9037 -0.3128 -0.3709
  882SOL     OW 3525   2.245   2.890   1.924  0.0864 -0.8189  0.0564
  882SOL    HW1 3526   2.247   2.872   1.827 -1.6789  0.1658 -0.4639
  882SOL    HW2 3527   2.196   2.823   1.962 -0.6248  2.7367  0.0350
  882SOL     MW 3528   2.238   2.879   1.916 -0.2403 -0.2199 -0.0151
  883SOL     OW 3529   2.307   2.203   1.479  0.2254 -0.8927  0.0252
  883SOL    HW1 3530   2.380   2.142   1.466  1.2965  3.8301 -1.9695
  883SOL    HW2 3531   2.238   2.177   1.417  1.6485 -1.0433  0.4751
  883SOL     MW 3532   2.307   2.191   1.469  0.5545 -0.2895 -0.1786
  884SOL     OW 3533   1.966   1.791   1.065 -0.2863 -0.4732 -0.1451
  884SOL    HW1 3534   1.901   1.858   1.036  1.6006  0.3666  0.6710
  884SOL    HW2 3535   2.052   1.837   1.030  2.1136 -0.0266 -0.7606
  884SOL     MW 3536   1.969   1.806   1.057  0.2793 -0.3035 -0.1186
  885SOL     OW 3537   2.883   2.402   1.834  0.3580  0.1131 -0.3993
  885SOL    HW1 3538   2.969   2.360   1.812 -1.1961 -0.9671 -0.7426
  885SOL    HW2 3539   2.823   2.349   1.781 -0.1146  1.5127  1.0756
  885SOL     MW 3540   2.887   2.390   1.824  0.0906  0.1553 -0.2500
  886SOL     OW 3541   2.802   2.352   1.398 -0.1822  0.1260  0.1753
  886SOL    HW1 3542   2.879   2.340   1.341  0.7434  1.9751 -0.6386
  886SOL    HW2 3543   2.793   2.448   1.404  0.0326  1.5512 -0.1025
  886SOL     MW 3544   2.811   2.363   1.391 -0.0317  0.5580  0.0313
  887SOL     OW 3545   2.246   2.637   1.505 -0.4168  0.4373  0.1326
  887SOL    HW1 3546   2.277   2.670   1.423 -1.6647 -0.6513 -1.3764
  887SOL    HW2 3547   2.154   2.601   1.502 -0.5690 -1.6138 -0.4925
  887SOL     MW 3548   2.238   2.637   1.494 -0.6015  0.0230 -0.1490
  888SOL     OW 3549   1.895   2.031   1.397 -0.5011 -0.7505  0.3396
  888SOL    HW1 3550   1.982   2.043   1.359  0.2391  2.2498  0.2647
  888SOL    HW2 3551   1.899   2.067   1.487  0.5673 -3.0475  0.0696
  888SOL     MW 3552   1.907   2.037   1.404 -0.2625 -0.6577  0.2941
  889SOL     OW 3553   2.292   2.028   2.087 -0.2830  0.0015 -0.4021
  889SOL    HW1 3554   2.360   1.998   2.147 -0.2300  1.7021 -3.1668
  889SOL    HW2 3555   2.344   2.098   2.051 -0.2858 -1.0069  1.9458
  889SOL     MW 3556   2.308   2.034   2.090 -0.2764  0.0928 -0.4571
  890SOL     OW 3557   0.119   2.346   0.104 -0.4599  0.3104 -0.4106
  890SOL    HW1 3558   0.061   2.423   0.115 -0.6599  0.4607 -1.2492
  890SOL    HW2 3559   0.091   2.295   0.182 -0.9405 -1.7533  0.1337
  890SOL     MW 3560   0.108   2.349   0.116 -0.5497  0.0580 -0.4495
  891SOL     OW 3561   3.022   1.997   1.269 -0.2050 -0.4341 -0.7287
  891SOL    HW1 3562   3.113   1.987   1.291 -0.5914 -1.7125  1.0847
  891SOL    HW2 3563   2.996   2.092   1.249 -1.0857 -0.6422  0.6765
  891SOL     MW 3564   3.030   2.008   1.269 -0.3721 -0.6302 -0.3040
  892SOL     OW 3565   2.421   2.362   2.797 -0.3501 -0.5175 -0.0335
  892SOL    HW1 3566   2.409   2.269   2.823  4.1975 -2.9128  1.3694
  892SOL    HW2 3567   2.511   2.375   2.821  1.3737 -1.0764 -0.9760
  892SOL     MW 3568   2.431   2.351   2.803  0.4773 -0.9072  0.0273
  893SOL     OW 3569   1.607   2.373   1.313  0.5047 -0.2548 -0.0617
  893SOL    HW1 3570   1.549   2.397   1.381  1.0530  1.7757  0.5672
  893SOL    HW2 3571   1.697   2.362   1.343  1.1068 -1.6955 -1.4872
  893SOL     MW 3572   1.611   2.375   1.326  0.6565 -0.1769 -0.1668
  894SOL     OW 3573   2.818   1.874   0.490 -0.9390  0.8439  0.0175
  894SOL    HW1 3574   2.728   1.886   0.508  2.7825 -0.7055 -1.2196
  894SOL    HW2 3575   2.820   1.841   0.405 -2.1309 -0.9094  0.5016
  894SOL     MW 3576   2.807   1.872   0.481 -0.6053  0.4081 -0.0818
  895SOL     OW 3577   2.130   2.108   1.285  0.4590 -0.5318 -0.6137
  895SOL    HW1 3578   2.125   2.198   1.250  2.3084  0.5689 -1.5879
  895SOL    HW2 3579   2.135   2.063   1.201 -0.9399  3.9238  1.3929
  895SOL     MW 3580   2.130   2.114   1.269  0.5184  0.2013 -0.4775
  896SOL     OW 3581   2.179   2.784   1.085 -0.2115  0.0010 -0.4133
  896SOL    HW1 3582   2.259   2.764   1.135  3.9359  0.7445 -0.8574
  896SOL    HW2 3583   2.155   2.703   1.024  0.0385  0.2202 -0.4659
  896SOL     MW 3584   2.186   2.771   1.083  0.3687  0.1280 -0.4788
  897SOL     OW 3585   3.014   2.894   0.102 -0.6375  0.4716  0.6515
  897SOL    HW1 3586   3.055   2.899   0.007  0.0290 -1.1551 -1.1784
  897SOL    HW2 3587   2.923   2.865   0.082  3.3691  0.6691  3.1411
  897SOL     MW 3588   3.007   2.891   0.087 -0.0209  0.2830  0.7385
  898SOL     OW 3589   2.092   0.158   1.416  0.2340 -0.0708  0.6947
  898SOL    HW1 3590   2.062   0.069   1.444 -0.3502  1.7517  0.2302
  898SOL    HW2 3591   2.085   0.161   1.321  1.2153  1.2880  1.2800
  898SOL     MW 3592   2.088   0.146   1.407  0.2864  0.3489  0.7107
  899SOL     OW 3593   2.906   2.973   0.628 -0.6585  0.1088 -0.1307
  899SOL    HW1 3594   2.910   2.897   0.685 -0.6466  0.6537 -0.8748
  899SOL    HW2 3595   2.823   3.009   0.654  1.8114 -1.9651  2.2960
  899SOL     MW 3596   2.896   2.968   0.639 -0.3311 -0.0929  0.0913
  900SOL     OW 3597   0.100   2.415   1.075  0.0098 -0.3712  0.3990
  900SOL    HW1 3598   0.090   2.511   1.090  2.0609  1.2902  2.6812
  900SOL    HW2 3599   0.093   2.404   0.980 -0.6148 -0.3318  2.2217
  900SOL     MW 3600   0.098   2.426   1.064  0.1980 -0.1468  0.9406
  901SOL     OW 3601   1.766   2.891   1.720 -0.4940 -0.2333  0.6429
  901SOL    HW1 3602   1.839   2.819   1.727  0.8594  0.1804 -0.7480
  901SOL    HW2 3603   1.730   2.872   1.632 -0.4548 -1.4792  1.3766
  901SOL     MW 3604   1.771   2.879   1.709 -0.3103 -0.3431  0.5562
  902SOL     OW 3605   2.692   2.114   1.801 -0.4468  0.4644  0.1896
  902SOL    HW1 3606   2.688   2.047   1.735  0.4213 -0.3860  0.0618
  902SOL    HW2 3607   2.769   2.102   1.858 -0.4129 -0.8089 -0.7348
  902SOL     MW 3608   2.701   2.104   1.800 -0.3278  0.1842  0.0508
  903SOL     OW 3609   1.591   2.780   0.509 -0.0536  0.1997  0.2891
  903SOL    HW1 3610   1.631   2.693   0.545  0.1424  0.1938  0.1093
  903SOL    HW2 3611   1.544   2.825   0.583  0.5998 -0.7302 -1.1955
  903SOL     MW 3612   1.590   2.774   0.523  0.0585  0.0762  0.0695
  904SOL     OW 3613   2.491   2.527   1.726  0.2316  0.4844  0.0941
  904SOL    HW1 3614   2.426   2.558   1.663 -1.1267  2.8379 -1.5827
  904SOL    HW2 3615   2.551   2.477   1.673 -2.0138 -2.3378 -0.4724
  904SOL     MW 3616   2.491   2.524   1.711 -0.2439  0.4226 -0.2019
  905SOL     OW 3617   2.329   2.570   2.179  0.3252 -0.0629  0.0071
  905SOL    HW1 3618   2.388   2.519   2.125 -0.0037 -1.1618 -0.9308
  905SOL    HW2 3619   2.284   2.496   2.223  0.2288  0.9070  2.5670
  905SOL     MW 3620   2.331   2.553   2.178  0.2691 -0.0799  0.2211
  906SOL     OW 3621   2.427   2.516   0.881 -0.1646 -0.0117 -0.6020
  906SOL    HW1 3622   2.522   2.484   0.899  1.2740  0.8437  0.4090
  906SOL    HW2 3623   2.438   2.617   0.879 -1.7860  2.2792 -0.1155
  906SOL     MW 3624   2.441   2.525   0.883 -0.1887  0.4034 -0.4044
  907SOL     OW 3625   2.602   2.840   1.343  0.5401 -0.6551  0.2774
  907SOL    HW1 3626   2.634   2.920   1.383 -1.3881 -0.5522  0.5823
  907SOL    HW2 3627   2.626   2.845   1.252 -1.8926  0.8377 -0.7842
  907SOL     MW 3628   2.609   2.851   1.336 -0.0353 -0.4446  0.1776
  908SOL     OW 3629   2.730   2.393  -0.001  0.3107  0.0419 -0.0464
  908SOL    HW1 3630   2.668   2.311   0.002  0.0970 -1.5338 -1.2701
  908SOL    HW2 3631   2.684   2.467   0.051  1.2913  0.7733 -1.7337
  908SOL     MW 3632   2.716   2.392   0.006  0.4119 -0.0695 -0.4305
  909SOL     OW 3633   1.718   0.140   1.143 -0.0630 -0.2732 -0.2655
  909SOL    HW1 3634   1.682   0.224   1.117 -0.0038 -1.5376  0.1206
  909SOL    HW2 3635   1.818   0.145   1.148  2.1545  1.5027  1.2879
  909SOL     MW 3636   1.727   0.152   1.140  0.2374 -0.2057 -0.0096
  910SOL     OW 3637   2.335   1.814   0.397  0.3398 -0.1262  0.6949
  910SOL    HW1 3638   2.279   1.734   0.392  0.4364  0.5165 -0.5458
  910SOL    HW2 3639   2.310   1.865   0.322  1.4558 -1.0941 -0.1968
  910SOL     MW 3640   2.325   1.810   0.387  0.4998 -0.1691  0.4135
  911SOL     OW 3641   2.210   2.237   1.738  0.5049  0.2910 -0.3403
  911SOL    HW1 3642   2.255   2.213   1.819 -1.5698 -0.4289 -0.6822
  911SOL    HW2 3643   2.279   2.255   1.677  0.8739 -0.0431  0.1884
  911SOL     MW 3644   2.225   2.237   1.741  0.2799  0.1519 -0.3157
  912SOL     OW 3645   2.951   1.927   1.521  0.0574  0.5210 -0.1159
  912SOL    HW1 3646   2.953   1.956   1.423  1.2805  1.1322  0.6446
  912SOL    HW2 3647   2.854   1.927   1.549 -1.7371 -0.8741 -1.2739
  912SOL     MW 3648   2.938   1.931   1.512 -0.0180  0.4176 -0.1683
  913SOL     OW 3649   2.566   3.014   0.381  0.1702  0.2805 -0.3353
  913SOL    HW1 3650   2.634   2.952   0.362 -1.1193 -0.1118 -0.8550
  913SOL    HW2 3651   2.477   2.970   0.387  1.1272  0.2912 -0.0065
  913SOL     MW 3652   2.563   3.000   0.379  0.1264  0.2301 -0.3605
  914SOL     OW 3653   2.713   1.736   3.059 -0.4113 -0.0051 -0.0415
  914SOL    HW1 3654   2.753   1.810   3.004 -1.4349  1.0293  0.5240
  914SOL    HW2 3655   2.626   1.746   3.028  0.7388  3.5202 -5.0130
  914SOL     MW 3656   2.707   1.747   3.048 -0.3946  0.5965 -0.6229
  915SOL     OW 3657   1.711   0.222   0.228 -0.5138 -0.1213  0.0792
  915SOL    HW1 3658   1.783   0.170   0.251 -0.8335  1.2531 -2.9266
  915SOL    HW2 3659   1.633   0.166   0.220  0.7063  1.4502 -1.0361
  915SOL     MW 3660   1.711   0.208   0.230 -0.3950  0.2674 -0.4645
  916SOL     OW 3661   1.820   2.069   1.931 -0.0736  0.3764  0.2676
  916SOL    HW1 3662   1.836   2.166   1.921  1.2647  0.4544 -0.8602
  916SOL    HW2 3663   1.841   2.027   1.848  1.3652 -0.9520  1.1957
  916SOL     MW 3664   1.825   2.076   1.919  0.2928  0.2115  0.2413
  917SOL     OW 3665   2.507   2.206   2.559  0.4981 -0.7748 -0.1117
  917SOL    HW1 3666   2.490   2.243   2.643  2.6779 -0.7793  0.2759
  917SOL    HW2 3667   2.571   2.264   2.522 -1.6665 -2.4290 -1.4615
  917SOL     MW 3668   2.513   2.218   2.565  0.5001 -0.9936 -0.2387
  918SOL     OW 3669   1.971   1.600   2.704  0.2213 -0.5206 -0.2122
  918SOL    HW1 3670   1.902   1.634   2.647  2.1999  1.6897  0.7081
  918SOL    HW2 3671   2.047   1.649   2.688 -0.9250 -0.2820  0.8742
  918SOL     MW 3672   1.972   1.611   2.695  0.3311 -0.1975  0.0526
  919SOL     OW 3673   0.031   2.320   2.261  0.2930  0.3180  0.0932
  919SOL    HW1 3674  -0.026   2.244   2.233 -0.6562 -0.1958  0.7233
  919SOL    HW2 3675   0.090   2.331   2.181  1.1411 -0.9074  0.7526
  919SOL     MW 3676   0.031   2.311   2.247  0.2796  0.0885  0.2633
  920SOL     OW 3677   2.764   2.814   3.096 -0.3524  0.2021  0.2284
  920SOL    HW1 3678   2.684   2.864   3.123  0.9911  3.5737  0.0074
  920SOL    HW2 3679   2.724   2.767   3.016 -0.8824  2.1927 -0.0654
  920SOL     MW 3680   2.748   2.815   3.089 -0.2451  0.9096  0.1604
  921SOL     OW 3681   2.433   2.575   2.604  0.2318  0.1613 -0.3037
  921SOL    HW1 3682   2.520   2.598   2.569 -0.6963  0.2685  2.5798
  921SOL    HW2 3683   2.439   2.504   2.660  1.9406 -0.1868 -1.6477
  921SOL     MW 3684   2.445   2.569   2.607  0.3348  0.1295 -0.1006
  922SOL     OW 3685   2.028   2.835   0.303 -0.3011  0.4692  0.1568
  922SOL    HW1 3686   2.000   2.830   0.208 -0.8298 -0.3066  0.3935
  922SOL    HW2 3687   2.035   2.740   0.331  0.6445 -0.0545 -0.1955
  922SOL     MW 3688   2.025   2.822   0.294 -0.2461  0.2978  0.1415
  923SOL     OW 3689   2.182   2.833   1.669 -0.1705  0.1843  0.0065
  923SOL    HW1 3690   2.201   2.755   1.616 -0.9935  0.8887  0.0465
  923SOL    HW2 3691   2.138   2.890   1.609 -0.8716  0.9045 -0.2997
  923SOL     MW 3692   2.178   2.830   1.654 -0.3716  0.3722 -0.0287
  924SOL     OW 3693   1.222   2.596   2.494  0.1545 -0.0554 -0.1604
  924SOL    HW1 3694   1.276   2.670   2.519 -1.9452 -2.2451  1.6926
  924SOL    HW2 3695   1.257   2.527   2.548 -1.9604  2.9683  0.4702
  924SOL     MW 3696   1.234   2.597   2.505 -0.4015  0.0546  0.1673
  925SOL     OW 3697   2.970   0.229   2.604 -0.2936 -0.3182 -0.2660
  925SOL    HW1 3698   2.935   0.230   2.508  2.6060 -0.1405  0.2901
  925SOL    HW2 3699   2.934   0.306   2.637  4.5291 -2.8738  0.9863
  925SOL     MW 3700   2.961   0.239   2.596  0.7253 -0.6319 -0.0274
  926SOL     OW 3701   2.758   2.397   2.097 -0.3599 -0.4406  0.1305
  926SOL    HW1 3702   2.819   2.456   2.143  1.4865 -2.8824 -1.5984
  926SOL    HW2 3703   2.803   2.384   2.010  3.4055 -0.0463  0.2505
  926SOL     MW 3704   2.772   2.403   2.091  0.3805 -0.7107 -0.0817
  927SOL     OW 3705   2.351   0.143   0.313  0.5188 -0.0582  0.0519
  927SOL    HW1 3706   2.441   0.149   0.325  1.7077  0.0867 -2.8035
  927SOL    HW2 3707   2.343   0.111   0.226  2.3495  0.8294  0.7271
  927SOL     MW 3708   2.362   0.139   0.303  0.9172  0.0780 -0.2357
  928SOL     OW 3709   2.110   2.447   1.924  0.1308  0.0308  0.4606
  928SOL    HW1 3710   2.138   2.363   1.880  2.5091  1.2771 -2.5593
  928SOL    HW2 3711   2.124   2.438   2.018 -4.1121 -1.6134 -0.8123
  928SOL     MW 3712   2.116   2.435   1.931 -0.1152 -0.0217 -0.1058
  929SOL     OW 3713   2.700   2.372   2.447  0.4501  0.2123 -0.0669
  929SOL    HW1 3714   2.726   2.377   2.360 -0.5424 -1.8925 -0.0654
  929SOL    HW2 3715   2.773   2.333   2.491  0.9138  2.4750  1.9253
  929SOL     MW 3716   2.713   2.368   2.442  0.3803  0.2331  0.1961
  930SOL     OW 3717   2.026   2.818   2.713 -0.3310 -0.2056 -0.4721
  930SOL    HW1 3718   2.035   2.740   2.767 -0.4965 -0.5103 -1.2550
  930SOL    HW2 3719   2.112   2.874   2.729  0.3475  0.6713 -0.0521
  930SOL     MW 3720   2.039   2.815   2.722 -0.2633 -0.1301 -0.5200
  931SOL     OW 3721   3.017   2.770   2.293 -0.1313  0.0066  0.4621
  931SOL    HW1 3722   3.038   2.794   2.379 -1.3569  0.3386 -1.2100
  931SOL    HW2 3723   3.103   2.766   2.240  2.9827  1.5874  1.7855
  931SOL     MW 3724   3.031   2.773   2.297  0.1179  0.2590  0.4161
  932SOL     OW 3725   2.824   2.009   2.561 -0.0649 -0.2089 -0.1063
  932SOL    HW1 3726   2.918   2.034   2.570  0.7584  0.4156 -2.5401
  932SOL    HW2 3727   2.817   1.997   2.465  0.7668 -1.2324  0.5683
  932SOL     MW 3728   2.836   2.010   2.550  0.1534 -0.2615 -0.3384
  933SOL     OW 3729   2.029   2.876   2.284 -0.4506  0.2620  0.2487
  933SOL    HW1 3730   2.096   2.932   2.320  2.4537 -3.3233  1.3947
  933SOL    HW2 3731   1.970   2.934   2.233  2.0420 -0.9139 -3.2372
  933SOL     MW 3732   2.030   2.891   2.282  0.2615 -0.3662 -0.0600
  934SOL     OW 3733   1.989   2.679   2.473 -0.0244  0.0822  0.3879
  934SOL    HW1 3734   2.013   2.723   2.557 -0.3028 -0.6823  1.3851
  934SOL    HW2 3735   1.983   2.750   2.407  2.3480  0.6667 -1.2159
  934SOL     MW 3736   1.991   2.694   2.476  0.2519  0.0585  0.3079
  935SOL     OW 3737   2.652   1.592   1.802 -0.0078 -0.1904 -0.2586
  935SOL    HW1 3738   2.741   1.562   1.776  4.4765 -0.7092 -2.4482
  935SOL    HW2 3739   2.594   1.570   1.724  0.3685 -0.1858 -0.1095
  935SOL     MW 3740   2.656   1.585   1.788  0.6335 -0.2582 -0.5278
  936SOL     OW 3741   2.979   2.248   3.071 -0.2357 -0.6751 -0.1647
  936SOL    HW1 3742   3.047   2.289   3.127  0.9745  0.2636 -0.0562
  936SOL    HW2 3743   2.898   2.301   3.097 -1.9847  0.2821 -1.2119
  936SOL     MW 3744   2.977   2.260   3.082 -0.3068 -0.4250 -0.2886
  937SOL     OW 3745   1.953   2.109   2.676  0.1509  0.0784 -0.0002
  937SOL    HW1 3746   2.033   2.067   2.715 -2.1067  1.6134 -2.3262
  937SOL    HW2 3747   1.948   2.083   2.579 -0.2334 -1.2233 -0.1430
  937SOL     MW 3748   1.963   2.100   2.668 -0.1977  0.1092 -0.3260
  938SOL     OW 3749   2.264   1.821   1.907 -0.4448 -0.2025  0.1031
  938SOL    HW1 3750   2.254   1.876   1.825 -1.3738  0.5506 -1.8995
  938SOL    HW2 3751   2.250   1.880   1.979 -1.4856 -0.5318  1.9746
  938SOL     MW 3752   2.261   1.836   1.905 -0.7047 -0.1466  0.0858
  939SOL     OW 3753   2.782   1.982   2.271 -0.3764  0.2069  0.5609
  939SOL    HW1 3754   2.810   1.907   2.217 -2.8460  0.5611  2.5962
  939SOL    HW2 3755   2.684   1.984   2.265 -2.5003 -1.9021  0.9709
  939SOL     MW 3756   2.773   1.972   2.263 -0.9824 -0.0246  0.8836
  940SOL     OW 3757   2.327   0.192   2.629  0.1090  0.2356 -0.2735
  940SOL    HW1 3758   2.303   0.103   2.625  1.1075  1.5343  1.2059
  940SOL    HW2 3759   2.354   0.209   2.719  0.5986 -1.0012  2.8452
  940SOL     MW 3760   2.327   0.182   2.640  0.3053  0.2438  0.3331
  941SOL     OW 3761   0.173   2.352   2.036 -0.0753  1.0303  0.9877
  941SOL    HW1 3762   0.265   2.317   2.036  2.9623  0.4821  0.4761
  941SOL    HW2 3763   0.138   2.292   1.962  0.6789  0.9909 -2.2565
  941SOL     MW 3764   0.180   2.339   2.027  0.4250  0.9528  0.4921
  942SOL     OW 3765   2.924   2.182   2.167 -1.1474 -0.3270  0.1510
  942SOL    HW1 3766   2.865   2.258   2.180 -0.1162  1.2222  0.2254
  942SOL    HW2 3767   2.876   2.111   2.206  0.4110 -2.3277  0.3072
  942SOL     MW 3768   2.910   2.183   2.174 -0.8057 -0.3866  0.1814
  943SOL     OW 3769   0.295   2.103   2.244  0.4594  0.2884 -0.1827
  943SOL    HW1 3770   0.261   2.155   2.317  0.1817  1.9868  0.0698
  943SOL    HW2 3771   0.387   2.083   2.268 -1.6270  0.2269 -0.3912
  943SOL     MW 3772   0.303   2.107   2.257  0.1475  0.5044 -0.1769
  944SOL     OW 3773   2.085   2.696   2.088 -0.1428  0.3618  0.3836
  944SOL    HW1 3774   2.168   2.648   2.094 -1.3593 -0.2985 -0.5154
  944SOL    HW2 3775   2.081   2.765   2.159 -2.5351 -0.4303 -1.7653
  944SOL     MW 3776   2.096   2.699   2.098 -0.6190  0.1702 -0.0185
  945SOL     OW 3777   2.678   2.673   2.875 -0.3548 -0.6663 -0.3208
  945SOL    HW1 3778   2.677   2.578   2.861 -1.0048  1.9534 -0.2830
  945SOL    HW2 3779   2.673   2.707   2.785 -2.3118 -0.4070 -0.1872
  945SOL     MW 3780   2.677   2.665   2.861 -0.6988 -0.2864 -0.2982
  946SOL     OW 3781   2.451   2.775   2.316 -0.3923  0.3030 -0.0602
  946SOL    HW1 3782   2.475   2.825   2.242 -2.2345  1.4154 -0.2520
  946SOL    HW2 3783   2.414   2.695   2.283  2.5981  3.0227 -0.1024
  946SOL     MW 3784   2.450   2.771   2.302 -0.2408  0.8086 -0.0911
  947SOL     OW 3785   1.964   0.114   0.307 -0.4263 -0.3780  0.7191
  947SOL    HW1 3786   1.935   0.025   0.270 -1.1037 -0.9791 -1.7753
  947SOL    HW2 3787   2.019   0.103   0.381  0.7662  0.0873 -0.1586
  947SOL     MW 3788   1.967   0.101   0.312 -0.3583 -0.3960  0.2742
  948SOL     OW 3789   1.784   2.978   2.682  0.6623  0.6058 -0.0927
  948SOL    HW1 3790   1.855   2.912   2.683  0.8523  0.9128  0.4392
  948SOL    HW2 3791   1.764   2.994   2.592  0.3589 -1.5642  1.1359
  948SOL     MW 3792   1.790   2.971   2.670  0.6474  0.3600  0.1396
  949SOL     OW 3793   2.513   1.947   2.286 -0.3865 -0.6692  0.3536
  949SOL    HW1 3794   2.502   1.853   2.314  2.2619  0.5392 -1.6171
  949SOL    HW2 3795   2.458   2.000   2.337  1.2941 -2.4030  2.2199
  949SOL     MW 3796   2.504   1.942   2.296  0.1847 -0.7385  0.3398
  950SOL     OW 3797   2.263   2.507   2.959 -0.2015 -0.1731 -0.4205
  950SOL    HW1 3798   2.321   2.463   2.896  2.1041  0.3536 -1.4596
  950SOL    HW2 3799   2.182   2.514   2.908 -1.3172  1.5083  0.7898
  950SOL     MW 3800   2.260   2.502   2.944 -0.0445  0.1182 -0.3979
  951SOL     OW 3801   3.014   2.123   2.817 -0.0353 -0.2951  0.3006
  951SOL    HW1 3802   3.028   2.186   2.890 -0.5820  4.8671 -0.9159
  951SOL    HW2 3803   3.098   2.078   2.794 -0.6900 -2.5026 -0.8346
  951SOL     MW 3804   3.027   2.125   2.824 -0.1939  0.0947 -0.0097
  952SOL     OW 3805   3.083   1.670   2.164 -0.4881  0.0116 -0.2452
  952SOL    HW1 3806   3.019   1.725   2.119 -0.2374  1.2161  1.6045
  952SOL    HW2 3807   3.152   1.736   2.183 -0.2724 -0.6875  1.7644
  952SOL     MW 3808   3.084   1.686   2.160 -0.4266  0.0783  0.2640
  953SOL     OW 3809   1.919   1.797   2.908 -0.2570 -0.0763  0.4040
  953SOL    HW1 3810   1.842   1.761   2.954 -1.0579 -0.1321  1.4044
  953SOL    HW2 3811   1.932   1.744   2.830  0.0653  2.3091 -0.7532
  953SOL     MW 3812   1.911   1.785   2.904 -0.3201  0.2310  0.3833
  954SOL     OW 3813   2.429   2.102   2.883 -1.1405 -0.1082  0.0253
  954SOL    HW1 3814   2.337   2.072   2.864 -3.9249 -2.8344 -0.0829
  954SOL    HW2 3815   2.497   2.065   2.814 -0.3850  0.9360  0.7029
  954SOL     MW 3816   2.426   2.093   2.871 -1.4082 -0.3302  0.1005
  955SOL     OW 3817   1.571   1.579   2.619 -0.9828  0.1981 -0.8897
  955SOL    HW1 3818   1.533   1.613   2.541  3.4538  1.0621  0.8114
  955SOL    HW2 3819   1.666   1.586   2.595  1.9161 -1.0199  1.5594
  955SOL     MW 3820   1.579   1.584   2.605 -0.0149  0.1514 -0.3421
  956SOL     OW 3821   2.689   2.399   2.831  0.1594  0.1900 -0.4038
  956SOL    HW1 3822   2.728   2.396   2.919  1.9783  1.5945  0.2061
  956SOL    HW2 3823   2.749   2.355   2.765  2.2310 -0.2460 -1.8957
  956SOL     MW 3824   2.702   2.393   2.834  0.6727  0.3178 -0.5202
  957SOL     OW 3825   2.351   2.853   0.393  0.4392  0.0882 -0.7267
  957SOL    HW1 3826   2.299   2.845   0.311  1.1033 -1.2112 -0.0256
  957SOL    HW2 3827   2.302   2.819   0.474  0.8785 -3.5000  0.7682
  957SOL     MW 3828   2.338   2.847   0.393  0.5848 -0.5567 -0.4369
  958SOL     OW 3829   2.025   2.584   2.849  0.4147  0.2932 -0.0537
  958SOL    HW1 3830   2.001   2.511   2.782  0.8305  1.1470 -3.1272
  958SOL    HW2 3831   1.947   2.612   2.897 -1.0100 -0.8825 -2.5427
  958SOL     MW 3832   2.012   2.578   2.846  0.2816  0.2507 -0.7876
  959SOL     OW 3833   2.477   2.603   0.336  0.2215  0.0615 -0.1218
  959SOL    HW1 3834   2.552   2.616   0.276 -0.6536 -3.1914 -1.5704
  959SOL    HW2 3835   2.456   2.684   0.378 -0.5617 -0.2698  0.9100
  959SOL     MW 3836   2.484   2.615   0.333  0.0027 -0.4114 -0.1768
  960SOL     OW 3837   1.952   2.279   2.208 -0.0881 -0.3174  0.1754
  960SOL    HW1 3838   1.943   2.183   2.222  0.7153 -1.8599 -1.0984
  960SOL    HW2 3839   1.907   2.308   2.284 -1.7710 -1.1517 -1.1441
  960SOL     MW 3840   1.945   2.270   2.220 -0.2042 -0.6310 -0.1667
  961SOL     OW 3841   2.215   2.343   2.250 -0.7178  0.1230  0.1636
  961SOL    HW1 3842   2.134   2.302   2.213 -0.0058 -2.3451  0.0213
  961SOL    HW2 3843   2.189   2.369   2.342 -0.4122 -0.5112 -4.3339
  961SOL     MW 3844   2.201   2.341   2.257 -0.5835 -0.2863 -0.4486
  962SOL     OW 3845   2.167   2.025   2.805 -0.4617  0.1954 -0.5678
  962SOL    HW1 3846   2.139   2.037   2.893 -0.8599  0.0241 -0.4115
  962SOL    HW2 3847   2.163   1.927   2.779 -1.2658 -2.0100  1.1506
  962SOL     MW 3848   2.163   2.013   2.813 -0.6203 -0.1182 -0.3205
  963SOL     OW 3849   1.835   2.595   2.073 -0.1398  0.0110  0.1950
  963SOL    HW1 3850   1.932   2.613   2.092 -1.0503  0.5117  2.2733
  963SOL    HW2 3851   1.829   2.509   2.031  1.3274  0.9110  0.7464
  963SOL     MW 3852   1.847   2.586   2.070 -0.0663  0.1958  0.5420
  964SOL     OW 3853   1.756   1.932   2.723  0.5682 -0.2327 -0.3947
  964SOL    HW1 3854   1.814   2.012   2.713  3.8593  0.6562  1.2098
  964SOL    HW2 3855   1.809   1.875   2.785  1.5273  2.7811  1.6355
  964SOL     MW 3856   1.771   1.935   2.730  1.1290  0.2822  0.0849
  965SOL     OW 3857   2.218   2.764   0.604  0.2404  0.0509 -0.1545
  965SOL    HW1 3858   2.224   2.666   0.609  1.2768  3.0700  3.7144
  965SOL    HW2 3859   2.270   2.794   0.679 -0.5697  0.2370  1.5584
  965SOL     MW 3860   2.226   2.755   0.615  0.2703  0.4738  0.5820
  966SOL     OW 3861   2.661   2.668   2.497 -0.0906  0.1377 -0.3201
  966SOL    HW1 3862   2.599   2.703   2.433  2.3824 -0.8102 -1.0029
  966SOL    HW2 3863   2.689   2.580   2.466  5.8305  2.2711 -0.3593
  966SOL     MW 3864   2.657   2.661   2.484  1.0169  0.2941 -0.4153
  967SOL     OW 3865   2.786   3.018   2.905 -0.4391  0.3490 -0.1050
  967SOL    HW1 3866   2.788   2.931   2.944 -1.9116  0.3292 -1.2770
  967SOL    HW2 3867   2.692   3.039   2.890 -1.9169  0.3917 -1.2277
  967SOL     MW 3868   2.774   3.009   2.908 -0.8284  0.3520 -0.4077
  968SOL     OW 3869   3.045   2.649   2.913 -0.2182 -0.3348  0.4465
  968SOL    HW1 3870   2.954   2.640   2.862  1.4777 -0.2534 -2.2552
  968SOL    HW2 3871   3.104   2.595   2.861  1.2532  0.3936 -1.5099
  968SOL     MW 3872   3.040   2.641   2.899  0.1997 -0.2280 -0.1681
  969SOL     OW 3873   1.552   2.172   1.669  0.7819 -0.3134 -0.3664
  969SOL    HW1 3874   1.614   2.098   1.664  0.3106  1.1707  0.4287
  969SOL    HW2 3875   1.530   2.153   1.763 -0.0096 -1.3332 -0.2870
  969SOL     MW 3876   1.557   2.160   1.681  0.6153 -0.2521 -0.2510
  970SOL     OW 3877   1.659   1.735   1.810  0.2242  0.4506  0.7807
  970SOL    HW1 3878   1.694   1.699   1.889 -2.2327  2.6393  0.0578
  970SOL    HW2 3879   1.570   1.764   1.830 -0.2492  2.4075  3.2233
  970SOL     MW 3880   1.652   1.734   1.823 -0.1624  0.9975  1.0076
  971SOL     OW 3881   1.746   3.068   2.395  0.2341  0.4965 -0.1404
  971SOL    HW1 3882   1.767   3.051   2.299  0.1719  0.9154 -0.1470
  971SOL    HW2 3883   1.806   3.136   2.422 -0.8406  1.6242  0.6478
  971SOL     MW 3884   1.757   3.075   2.386  0.0841  0.7006 -0.0373
  972SOL     OW 3885   0.260   2.883   2.459 -0.0049  0.0866  0.0924
  972SOL    HW1 3886   0.292   2.796   2.482  1.7904  0.1974 -0.1558
  972SOL    HW2 3887   0.329   2.952   2.488  2.1797  0.7908  0.2297
  972SOL     MW 3888   0.274   2.880   2.466  0.5202  0.1941  0.0778
  973SOL     OW 3889   2.531   0.024   2.071  0.1934  0.0678 -0.0164
  973SOL    HW1 3890   2.515  -0.067   2.042 -1.2749 -2.9772  0.7276
  973SOL    HW2 3891   2.539   0.081   1.991  2.0976 -0.7096 -1.7057
  973SOL     MW 3892   2.530   0.019   2.056  0.2509 -0.4366 -0.1412
  974SOL     OW 3893   2.055   0.221   2.686 -0.1166 -0.0291 -0.0200
  974SOL    HW1 3894   2.147   0.208   2.667 -0.2367 -1.8275  1.2135
  974SOL    HW2 3895   2.037   0.155   2.754  0.2534  0.3060 -1.0158
  974SOL     MW 3896   2.065   0.211   2.693 -0.0836 -0.2222  0.0114
  975SOL     OW 3897   2.196   2.452   2.489 -0.0064 -0.2414  0.5089
  975SOL    HW1 3898   2.286   2.466   2.515  1.7801  2.5054 -3.2417
  975SOL    HW2 3899   2.167   2.543   2.468 -1.6195 -0.8242  1.1665
  975SOL     MW 3900   2.204   2.466   2.490  0.0165  0.0441  0.1008
  976SOL     OW 3901   0.234   0.366   1.725 -0.8409 -0.3550 -0.0651
  976SOL    HW1 3902   0.302   0.312   1.766 -0.2786 -0.2971  2.1595
  976SOL    HW2 3903   0.168   0.304   1.689  1.5298  2.6468  2.1609
  976SOL     MW 3904   0.234   0.351   1.726 -0.4539  0.0487  0.5221
  977SOL     OW 3905   1.737   2.611   2.496  0.2836 -0.3017  0.4985
  977SOL    HW1 3906   1.748   2.516   2.485 -2.3973 -0.1345 -1.7383
  977SOL    HW2 3907   1.825   2.643   2.481 -1.0709  1.4378  0.0620
  977SOL     MW 3908   1.750   2.603   2.492 -0.2489 -0.0501  0.1458
   3.10000   3.10000   3.10000
