977 TIP4P/2005f water molecules t=   1.31000 step= 1310
 3908
    1SOL     OW    1   0.363   0.844   0.041 -0.0691  0.4441  0.0044
    1SOL    HW1    2   0.356   0.872  -0.052  2.0061  0.4373 -1.8191
    1SOL    HW2    3   0.290   0.776   0.051 -2.2905  1.1860 -1.6768
    1SOL     MW    4   0.353   0.839   0.030 -0.0884  0.5411 -0.4580
    2SOL     OW    5   0.345   3.047   1.174  0.0001 -0.1679 -0.3969
    2SOL    HW1    6   0.399   3.115   1.127 -0.3314  0.7091  0.9494
    2SOL    HW2    7   0.257   3.096   1.174  1.9006  0.4997 -2.4867
    2SOL     MW    8   0.341   3.063   1.168  0.2071  0.0359 -0.4950
    3SOL     OW    9   2.606   0.331   0.975  0.2601  0.2284 -0.2460
    3SOL    HW1   10   2.638   0.384   0.909 -0.9887 -1.0930 -0.3718
    3SOL    HW2   11   2.589   0.396   1.063  1.0383  0.6747  2.4144
    3SOL     MW   12   2.608   0.346   0.978  0.1980  0.1129  0.0884
    4SOL     OW   13   3.064   1.748   0.571  0.0664  0.0525  0.3746
    4SOL    HW1   14   2.984   1.782   0.532 -2.5508 -2.1041  0.5517
    4SOL    HW2   15   3.116   1.693   0.511  2.2389  1.3288 -0.3523
    4SOL     MW   16   3.060   1.746   0.558  0.0077 -0.0636  0.3021
    5SOL     OW   17   1.651   1.519   0.565  0.6760  0.5200  0.1755
    5SOL    HW1   18   1.672   1.456   0.638 -1.0330  1.5164  0.0711
    5SOL    HW2   19   1.548   1.519   0.585 -2.1486 -2.7151  1.3537
    5SOL     MW   20   1.640   1.511   0.577  0.0778  0.2246  0.3172
    6SOL     OW   21   0.843   1.377   0.570  0.0975  0.1628  0.1372
    6SOL    HW1   22   0.754   1.365   0.593  0.3325  0.2011  1.6973
    6SOL    HW2   23   0.871   1.305   0.625 -1.3526  0.9554  0.1777
    6SOL     MW   24   0.835   1.366   0.580 -0.0629  0.2724  0.3484
    7SOL     OW   25   2.022   1.067   0.011 -0.9953 -0.2563 -0.4337
    7SOL    HW1   26   2.094   1.113  -0.028 -0.8168  0.4549  1.0918
    7SOL    HW2   27   2.044   1.064   0.105 -0.4626 -0.3367  2.6613
    7SOL     MW   28   2.035   1.073   0.018 -0.9015 -0.1731  0.1759
    8SOL     OW   29   0.840   1.542   1.189 -0.8265  0.2092 -0.2096
    8SOL    HW1   30   0.928   1.557   1.219 -3.3898 -0.9913  1.0391
    8SOL    HW2   31   0.832   1.451   1.217  1.3072  1.4797 -0.9262
    8SOL     MW   32   0.851   1.532   1.197 -0.8832  0.2184 -0.1394
    9SOL     OW   33   1.020   0.518   1.345  0.1064 -0.0397 -0.7176
    9SOL    HW1   34   0.961   0.451   1.303 -0.2890  0.7761  1.7489
    9SOL    HW2   35   1.085   0.465   1.396 -0.7764 -2.9189  0.8344
    9SOL     MW   36   1.021   0.503   1.346 -0.0623 -0.3120 -0.1874
   10SOL     OW   37   0.261   0.788   0.525  0.0856 -0.2918  0.0739
   10SOL    HW1   38   0.348   0.817   0.489 -0.7738 -0.2791 -1.0468
   10SOL    HW2   39   0.256   0.838   0.607  0.6056  0.6334  1.2390
   10SOL     MW   40   0.272   0.799   0.531  0.0408 -0.1681  0.0797
   11SOL     OW   41   0.743   1.127   1.597 -0.4211  0.6147 -0.2705
   11SOL    HW1   42   0.778   1.098   1.680  0.9038  1.2037 -2.9390
   11SOL    HW2   43   0.755   1.044   1.544 -1.1641 -1.4055  0.8550
   11SOL     MW   44   0.749   1.112   1.601 -0.3443  0.4259 -0.4741
   12SOL     OW   45   3.063   1.121   0.887 -0.4508  0.8565 -0.0340
   12SOL    HW1   46   3.113   1.188   0.937  0.1417  0.8524  2.0941
   12SOL    HW2   47   3.038   1.168   0.812  0.4829 -0.7467  0.6575
   12SOL     MW   48   3.066   1.136   0.883 -0.2495  0.6445  0.3380
   13SOL     OW   49   1.861   1.414   1.335 -0.1488 -0.0233 -0.0798
   13SOL    HW1   50   1.897   1.372   1.253  1.0283  0.7220  2.0686
   13SOL    HW2   51   1.867   1.508   1.321  2.2217  0.9134  0.7989
   13SOL     MW   52   1.867   1.421   1.322  0.3193  0.1986  0.3196
   14SOL     OW   53   0.545   0.318   1.883 -0.0201 -0.0023 -0.0759
   14SOL    HW1   54   0.494   0.245   1.858  0.2680  2.4072  0.8955
   14SOL    HW2   55   0.600   0.316   1.804 -0.7569 -1.5208  0.5890
   14SOL     MW   56   0.545   0.308   1.869 -0.0793  0.1153  0.1400
   15SOL     OW   57   1.983   0.347   1.049  0.1120  0.0075 -0.1624
   15SOL    HW1   58   1.982   0.413   1.121 -1.2138  0.6039 -0.8825
   15SOL    HW2   59   2.057   0.369   0.990  0.5717 -0.2785 -2.2324
   15SOL     MW   60   1.993   0.359   1.051 -0.0023  0.0484 -0.5305
   16SOL     OW   61   0.220   1.835   0.309 -0.0643 -0.0589 -0.1783
   16SOL    HW1   62   0.316   1.827   0.295  1.2434 -2.6513  1.5045
   16SOL    HW2   63   0.201   1.930   0.317  0.5147 -0.9063 -0.8860
   16SOL     MW   64   0.230   1.847   0.308  0.1847 -0.5127 -0.0496
   17SOL     OW   65   1.040   0.896   1.414  0.2737 -0.4579 -0.0538
   17SOL    HW1   66   1.087   0.863   1.495  0.3711  1.5534  1.0667
   17SOL    HW2   67   0.948   0.867   1.411 -0.4226  1.9461 -0.3401
   17SOL     MW   68   1.034   0.888   1.424  0.1947  0.1246  0.0563
   18SOL     OW   69   0.093   1.589   0.359  0.3708  0.0538 -0.1435
   18SOL    HW1   70   0.145   1.671   0.336  2.4146 -0.3906  0.7343
   18SOL    HW2   71   0.058   1.558   0.280  0.0045 -0.2216  2.0379
   18SOL     MW   72   0.096   1.596   0.346  0.5921 -0.0412  0.2601
   19SOL     OW   73   0.093   1.337   0.970  0.6121  0.5497 -0.3592
   19SOL    HW1   74   0.144   1.374   0.900 -2.3250  0.6023  0.8600
   19SOL    HW2   75   0.007   1.379   0.965  1.2876 -1.5602  0.0357
   19SOL     MW   76   0.089   1.347   0.960  0.3137  0.2782 -0.1462
   20SOL     OW   77   0.416   2.171   1.199 -0.1529 -0.1004  0.7150
   20SOL    HW1   78   0.359   2.116   1.148  1.3119 -2.3612  0.8048
   20SOL    HW2   79   0.383   2.174   1.295 -1.6958 -0.8075  1.4625
   20SOL     MW   80   0.404   2.164   1.205 -0.1632 -0.4920  0.8255
   21SOL     OW   81   0.491   0.855   0.406 -0.3888  0.4584 -0.2527
   21SOL    HW1   82   0.567   0.832   0.460 -0.8368 -0.5586  1.5865
   21SOL    HW2   83   0.538   0.879   0.322 -1.8294  0.4663 -0.4484
   21SOL     MW   84   0.508   0.855   0.402 -0.6380  0.3252 -0.0359
   22SOL     OW   85   1.535   0.710   0.974  0.0288 -0.2544 -0.4319
   22SOL    HW1   86   1.517   0.652   0.905 -1.5316 -1.2479  0.1318
   22SOL    HW2   87   1.445   0.742   0.996  0.5237  0.9154  1.8870
   22SOL     MW   88   1.521   0.707   0.968 -0.1118 -0.2312 -0.0516
   23SOL     OW   89   3.079   0.672   0.684 -0.3974  0.4932 -0.4468
   23SOL    HW1   90   3.143   0.607   0.716  0.7154  0.6211  0.9329
   23SOL    HW2   91   3.130   0.750   0.700  0.8973  1.1833 -2.3765
   23SOL     MW   92   3.094   0.674   0.690 -0.0797  0.6011 -0.5194
   24SOL     OW   93   2.049   2.227   0.030 -0.4930 -0.0639 -1.3937
   24SOL    HW1   94   2.047   2.217   0.128  2.4067  1.4686  0.4125
   24SOL    HW2   95   2.098   2.157  -0.006  0.7747 -0.0358 -1.3976
   24SOL     MW   96   2.055   2.217   0.039  0.0569  0.1420 -1.1559
   25SOL     OW   97   0.230   1.364   0.476  0.6941 -0.6813 -0.7708
   25SOL    HW1   98   0.222   1.453   0.434  1.0212  1.7823 -0.8815
   25SOL    HW2   99   0.303   1.320   0.426 -1.9524  0.2512 -3.1522
   25SOL     MW  100   0.238   1.370   0.464  0.3881 -0.2332 -1.0996
   26SOL     OW  101   2.054   1.035   0.286  0.1356 -0.1026  0.3978
   26SOL    HW1  102   1.979   1.073   0.335 -1.0049 -1.7588 -0.9948
   26SOL    HW2  103   2.123   1.110   0.277  3.5390  0.8667 -0.5018
   26SOL     MW  104   2.053   1.050   0.291  0.4342 -0.1932  0.0954
   27SOL     OW  105   1.960   1.452   0.222 -0.3520 -0.6498 -0.3055
   27SOL    HW1  106   1.890   1.521   0.224 -0.6587  0.1257 -3.9190
   27SOL    HW2  107   2.001   1.458   0.312  1.0692  2.7671 -0.0762
   27SOL     MW  108   1.956   1.462   0.234 -0.2050 -0.0966 -0.7520
   28SOL     OW  109   0.443   1.003   1.990 -0.3914 -0.1476  0.1140
   28SOL    HW1  110   0.473   0.991   2.081  1.7999  0.6354  3.1287
   28SOL    HW2  111   0.346   0.984   1.992  1.2390 -0.7079 -0.3609
   28SOL     MW  112   0.435   0.999   2.002  0.1128 -0.1182  0.4491
   29SOL     OW  113   0.251   1.430   0.756 -0.1949 -0.0223 -0.7461
   29SOL    HW1  114   0.272   1.529   0.755  0.9325 -0.3896  1.0221
   29SOL    HW2  115   0.232   1.406   0.668 -0.5618  1.1677  1.4534
   29SOL     MW  116   0.251   1.440   0.744 -0.0945  0.0862 -0.2226
   30SOL     OW  117   0.841   1.260   1.245  0.2239  0.2117 -0.1503
   30SOL    HW1  118   0.755   1.222   1.272  1.1056  0.7800 -1.6752
   30SOL    HW2  119   0.918   1.232   1.305 -0.8540 -0.1447  2.5886
   30SOL     MW  120   0.840   1.251   1.256  0.1980  0.2397  0.0099
   31SOL     OW  121   0.415   0.247   0.195  0.3735 -0.3195 -0.2254
   31SOL    HW1  122   0.439   0.164   0.237 -1.4784  1.0797  0.0585
   31SOL    HW2  123   0.456   0.249   0.108 -0.8513  0.4369  1.0260
   31SOL     MW  124   0.423   0.236   0.189 -0.0324 -0.0351 -0.0229
   32SOL     OW  125   2.703   0.981   1.148 -1.0222  0.1685 -0.4759
   32SOL    HW1  126   2.643   0.911   1.162  1.6755  2.7255 -0.9674
   32SOL    HW2  127   2.776   0.949   1.090 -0.9198  0.8303 -0.3461
   32SOL     MW  128   2.704   0.968   1.142 -0.6528  0.5932 -0.5236
   33SOL     OW  129   1.626   1.331   0.381 -0.4011  0.3382  0.2624
   33SOL    HW1  130   1.698   1.269   0.404  0.9268 -0.0694  0.5474
   33SOL    HW2  131   1.640   1.413   0.433  0.8176 -0.6417  0.6985
   33SOL     MW  132   1.638   1.334   0.391 -0.0651  0.1551  0.3576
   34SOL     OW  133   1.246   1.926   1.091  0.1354  0.6979  0.2545
   34SOL    HW1  134   1.155   1.940   1.113  1.7605  0.9460  0.5723
   34SOL    HW2  135   1.300   1.969   1.151  0.3964 -0.2318  0.1375
   34SOL     MW  136   1.241   1.933   1.102  0.3843  0.6080  0.2810
   35SOL     OW  137   0.370   0.117   1.811  0.0684  0.1810 -0.6115
   35SOL    HW1  138   0.408   0.070   1.885 -0.3596  0.5975 -1.1736
   35SOL    HW2  139   0.367   0.054   1.734  1.2781 -1.5812 -0.3626
   35SOL     MW  140   0.374   0.102   1.810  0.1715  0.0034 -0.6528
   36SOL     OW  141   1.952   1.900   0.574 -0.6683  0.0460 -0.0375
   36SOL    HW1  142   1.945   1.890   0.478  0.3549 -0.4580  0.2169
   36SOL    HW2  143   1.947   1.816   0.616 -0.3964 -1.0181 -0.4416
   36SOL     MW  144   1.951   1.888   0.567 -0.4974 -0.1609 -0.0573
   37SOL     OW  145   1.793   2.002   0.971  0.3520  0.2491  0.1630
   37SOL    HW1  146   1.747   1.950   0.911  0.5505  0.4804 -0.0229
   37SOL    HW2  147   1.730   2.067   0.986 -1.4296 -1.5437  1.0363
   37SOL     MW  148   1.779   2.004   0.965  0.1432  0.0431  0.2537
   38SOL     OW  149   2.824   0.957   0.126  0.0084 -0.4147 -0.2572
   38SOL    HW1  150   2.826   0.931   0.222 -1.7574  3.2719 -0.0472
   38SOL    HW2  151   2.903   0.920   0.084 -1.7905  0.9643 -0.0122
   38SOL     MW  152   2.835   0.949   0.133 -0.4620  0.2537 -0.1972
   39SOL     OW  153   1.443   0.571   0.750  0.0592  0.0922 -0.4075
   39SOL    HW1  154   1.397   0.499   0.794 -1.2311 -0.1797  0.1839
   39SOL    HW2  155   1.374   0.641   0.740 -1.1454  0.6358 -0.7443
   39SOL     MW  156   1.428   0.571   0.754 -0.2700  0.1280 -0.3739
   40SOL     OW  157   1.208   1.884   0.229  0.5847 -0.0725 -0.1339
   40SOL    HW1  158   1.215   1.801   0.270  1.7555 -1.0706 -3.6818
   40SOL    HW2  159   1.204   1.942   0.303  0.7102 -1.3018  0.4490
   40SOL     MW  160   1.208   1.880   0.244  0.7557 -0.3663 -0.5251
   41SOL     OW  161   0.563   0.468   1.600 -0.0375  0.3029  0.9347
   41SOL    HW1  162   0.636   0.526   1.588  0.0191  0.2302  0.8634
   41SOL    HW2  163   0.493   0.517   1.623  0.7568  0.4058  1.6553
   41SOL     MW  164   0.564   0.482   1.602  0.0748  0.3069  1.0204
   42SOL     OW  165   1.310   3.003   1.978 -0.4374  0.5030 -0.8000
   42SOL    HW1  166   1.222   3.003   2.013  0.6381 -1.9874 -1.8349
   42SOL    HW2  167   1.356   2.917   1.991  0.3024 -0.0077 -0.0708
   42SOL     MW  168   1.305   2.991   1.984 -0.1979  0.1071 -0.8403
   43SOL     OW  169   1.484   0.140   1.625 -0.5142 -0.1171  0.0943
   43SOL    HW1  170   1.517   0.070   1.567  1.4476 -3.1558  1.5029
   43SOL    HW2  171   1.400   0.096   1.648  2.1487 -2.0314  0.1758
   43SOL     MW  172   1.477   0.125   1.620  0.0960 -0.7706  0.2909
   44SOL     OW  173   1.254   0.751   1.048  0.7763  0.3690  0.5062
   44SOL    HW1  174   1.217   0.841   1.035  0.5846  0.7289  0.4688
   44SOL    HW2  175   1.228   0.732   1.144  2.0546 -2.5227  0.5316
   44SOL     MW  176   1.246   0.760   1.059  0.9197  0.0349  0.5046
   45SOL     OW  177   1.255   0.753   0.734  0.7884 -0.3037  0.3508
   45SOL    HW1  178   1.223   0.738   0.822  1.2052  0.4765  0.5644
   45SOL    HW2  179   1.197   0.726   0.663  1.5910  2.1894  1.5094
   45SOL     MW  180   1.243   0.747   0.736  0.9493  0.1282  0.5319
   46SOL     OW  181   0.580   1.081   0.584  0.1251 -0.1000  0.1065
   46SOL    HW1  182   0.509   1.076   0.515 -1.5100  1.6929  0.7763
   46SOL    HW2  183   0.669   1.071   0.548  0.8372  0.2675 -0.5711
   46SOL     MW  184   0.582   1.079   0.570  0.0034  0.1851  0.1055
   47SOL     OW  185   0.222   1.937   1.958 -0.4462  0.2148 -0.6284
   47SOL    HW1  186   0.298   1.896   2.000  0.0531 -1.1889  1.5373
   47SOL    HW2  187   0.148   1.925   2.013  0.9785 -0.4092 -0.1188
   47SOL     MW  188   0.222   1.930   1.971 -0.1923 -0.0527 -0.2754
   48SOL     OW  189   1.093   0.515   1.027  0.3877 -0.2489 -0.4007
   48SOL    HW1  190   1.009   0.513   1.068  0.7682 -0.5340  2.7106
   48SOL    HW2  191   1.118   0.610   1.022  2.2729 -2.6041 -0.6155
   48SOL     MW  192   1.085   0.528   1.031  0.6866 -0.5973 -0.0186
   49SOL     OW  193   1.719   0.655   1.519 -0.3533  0.1497  0.1794
   49SOL    HW1  194   1.702   0.602   1.597 -1.6730 -0.7559 -0.1402
   49SOL    HW2  195   1.785   0.602   1.475 -0.5391 -0.9152 -0.9098
   49SOL     MW  196   1.726   0.641   1.523 -0.5519 -0.1102 -0.0065
   50SOL     OW  197   1.242   1.145   0.559  0.1515  0.0547 -0.1846
   50SOL    HW1  198   1.187   1.166   0.634  0.3222 -1.6267 -0.8864
   50SOL    HW2  199   1.298   1.072   0.595  0.7589 -0.7562  0.6759
   50SOL     MW  200   1.242   1.138   0.574  0.2541 -0.2742 -0.1637
   51SOL     OW  201   0.320   2.927   0.912 -0.2246 -0.0399 -0.0345
   51SOL    HW1  202   0.414   2.905   0.909 -1.8857 -0.4422  0.3397
   51SOL    HW2  203   0.318   2.967   0.997 -1.2050  1.8164 -0.9488
   51SOL     MW  204   0.332   2.930   0.923 -0.5731  0.1520 -0.1058
   52SOL     OW  205   0.799   1.788   0.465  0.0720  0.1187  0.2843
   52SOL    HW1  206   0.765   1.880   0.461 -0.2082  0.7333 -1.8848
   52SOL    HW2  207   0.846   1.767   0.386 -1.0583 -0.4978 -0.4704
   52SOL     MW  208   0.800   1.797   0.454 -0.1141  0.1185 -0.1014
   53SOL     OW  209   0.430   2.128   0.479 -0.6186 -0.3209  0.4609
   53SOL    HW1  210   0.352   2.120   0.430  1.0870  0.5286 -1.8434
   53SOL    HW2  211   0.409   2.207   0.529 -1.4252  1.0014 -1.5910
   53SOL     MW  212   0.417   2.137   0.479 -0.5000 -0.0343 -0.1139
   54SOL     OW  213   2.075   0.934   0.767  0.3629  0.1427 -0.3232
   54SOL    HW1  214   2.112   0.942   0.676 -2.0997  0.3932 -0.0933
   54SOL    HW2  215   2.041   0.846   0.768  0.4097 -0.6098 -0.3991
   54SOL     MW  216   2.076   0.924   0.755  0.0441  0.0764 -0.3029
   55SOL     OW  217   0.529   1.588   1.658  0.4472  0.2674  0.7703
   55SOL    HW1  218   0.483   1.648   1.599 -0.1825  1.7641 -3.4207
   55SOL    HW2  219   0.598   1.536   1.611 -0.8983 -0.5684 -1.5091
   55SOL     MW  220   0.532   1.589   1.644  0.1866  0.3546 -0.0834
   56SOL     OW  221   0.633   0.861   0.159 -0.0385  0.5917 -0.4883
   56SOL    HW1  222   0.656   0.950   0.135 -1.5557 -1.2573 -1.4136
   56SOL    HW2  223   0.555   0.843   0.109 -0.9057 -2.3750  0.9986
   56SOL     MW  224   0.626   0.870   0.150 -0.3531 -0.0437 -0.4142
   57SOL     OW  225   1.203   1.217   1.172 -0.4489 -0.5851  0.0716
   57SOL    HW1  226   1.293   1.246   1.174 -1.0608  0.1637  1.4401
   57SOL    HW2  227   1.172   1.194   1.266 -0.4086 -1.2907  2.3304
   57SOL     MW  228   1.211   1.218   1.185 -0.5243 -0.5794  0.5502
   58SOL     OW  229   0.520   1.205   1.294 -0.1141  0.0947  0.3671
   58SOL    HW1  230   0.503   1.296   1.271 -0.6534  0.4118 -0.4334
   58SOL    HW2  231   0.503   1.210   1.391 -1.8616 -1.2962 -0.7058
   58SOL     MW  232   0.515   1.218   1.304 -0.4158 -0.0470  0.1199
   59SOL     OW  233   1.511   1.691   0.309 -0.1151 -0.2301  0.0083
   59SOL    HW1  234   1.549   1.738   0.383  1.8608 -0.1838 -0.5025
   59SOL    HW2  235   1.440   1.648   0.350 -0.0269 -0.8019 -2.1920
   59SOL     MW  236   1.507   1.692   0.324  0.1573 -0.2994 -0.3494
   60SOL     OW  237   3.091   0.223   1.669  0.1766  0.1454  0.0685
   60SOL    HW1  238   3.007   0.274   1.707 -1.1576  1.8495  2.2996
   60SOL    HW2  239   3.120   0.154   1.729  0.9496 -0.1829  2.2316
   60SOL     MW  240   3.084   0.220   1.682  0.1026  0.3269  0.6483
   61SOL     OW  241   1.980   1.364   3.061 -0.6795  0.4694  0.3906
   61SOL    HW1  242   1.970   1.384   3.155  3.0215 -1.7313 -1.6574
   61SOL    HW2  243   2.056   1.300   3.061  0.4231 -2.6044  0.9688
   61SOL     MW  244   1.989   1.358   3.073 -0.0457 -0.2265  0.1967
   62SOL     OW  245   0.542   1.700   0.522 -0.3381  0.0916  0.0488
   62SOL    HW1  246   0.637   1.729   0.513  4.9384  2.3824  2.6668
   62SOL    HW2  247   0.539   1.608   0.524 -3.1368  2.4669  1.2112
   62SOL     MW  248   0.554   1.692   0.521 -0.0112  0.7073  0.5476
   63SOL     OW  249   1.718   0.636   0.707 -0.5067  0.4304 -0.6269
   63SOL    HW1  250   1.721   0.716   0.652 -0.3441  0.3163  0.1123
   63SOL    HW2  251   1.625   0.617   0.715 -0.0394 -0.4319  1.1604
   63SOL     MW  252   1.707   0.644   0.701 -0.4236  0.3016 -0.2935
   64SOL     OW  253   0.304   1.695   0.780  0.1482  0.3394 -0.8424
   64SOL    HW1  254   0.344   1.776   0.741  1.1247  0.5901  0.5727
   64SOL    HW2  255   0.261   1.733   0.855  2.2821 -2.1503  0.2798
   64SOL     MW  256   0.303   1.711   0.785  0.5586  0.0440 -0.5077
   65SOL     OW  257   1.579   2.321   0.415  0.0294  0.8941 -0.4351
   65SOL    HW1  258   1.656   2.369   0.387  2.0345 -2.5267 -1.8547
   65SOL    HW2  259   1.553   2.351   0.506 -0.7110  0.1966  0.6524
   65SOL     MW  260   1.586   2.332   0.424  0.1963  0.3507 -0.4789
   66SOL     OW  261   0.328   0.537   0.462  0.1070 -0.0837 -0.0489
   66SOL    HW1  262   0.389   0.554   0.389  3.3328 -1.1557  2.4393
   66SOL    HW2  263   0.289   0.625   0.494 -0.1118 -1.2743  2.6186
   66SOL     MW  264   0.331   0.551   0.457  0.5037 -0.3822  0.6314
   67SOL     OW  265   1.464   0.134   1.994 -0.0890  0.2931 -0.2971
   67SOL    HW1  266   1.488   0.154   1.906  0.4802  1.2123  1.9789
   67SOL    HW2  267   1.429   0.044   1.986  2.4919 -0.6068  2.1507
   67SOL     MW  268   1.462   0.125   1.981  0.3266  0.2957  0.3261
   68SOL     OW  269   0.763   0.050   2.943  0.6024 -0.1434 -0.0211
   68SOL    HW1  270   0.772   0.116   2.878 -0.2741 -0.0133 -0.8465
   68SOL    HW2  271   0.827   0.071   3.004  3.5481 -0.6462 -1.2298
   68SOL     MW  272   0.773   0.061   2.943  0.8754 -0.1926 -0.2895
   69SOL     OW  273   0.950   0.193   1.956  0.1658  0.2760 -0.4612
   69SOL    HW1  274   1.031   0.231   1.995  1.6032 -4.2078 -1.4998
   69SOL    HW2  275   0.941   0.113   2.004 -0.8215 -0.3893  0.4997
   69SOL     MW  276   0.960   0.188   1.968  0.2252 -0.4034 -0.4714
   70SOL     OW  277   0.534   1.718   1.131 -0.2266 -0.4233 -0.1208
   70SOL    HW1  278   0.607   1.753   1.182 -2.5642  1.2091 -0.4079
   70SOL    HW2  279   0.573   1.682   1.050 -3.1550 -0.2854 -1.7060
   70SOL     MW  280   0.549   1.718   1.127 -0.9214 -0.1897 -0.3678
   71SOL     OW  281   1.551   0.513   1.181 -0.0030  0.4490 -0.6244
   71SOL    HW1  282   1.520   0.565   1.254 -1.2844 -1.3862 -0.6978
   71SOL    HW2  283   1.551   0.576   1.113 -2.8781  2.1353  0.4039
   71SOL     MW  284   1.547   0.528   1.182 -0.5514  0.4293 -0.4984
   72SOL     OW  285   0.804   1.850   1.002 -0.3479  0.0846 -0.7208
   72SOL    HW1  286   0.759   1.916   0.943 -4.0173 -1.9641 -1.2185
   72SOL    HW2  287   0.764   1.768   0.985 -0.1107 -0.7088  3.2403
   72SOL     MW  288   0.793   1.848   0.992 -0.8007 -0.2904 -0.2638
   73SOL     OW  289   1.199   0.719   1.312  0.3664 -0.6699  0.0664
   73SOL    HW1  290   1.137   0.651   1.326  0.8084 -0.3686 -2.0906
   73SOL    HW2  291   1.144   0.797   1.335  2.3870  2.5379  0.6930
   73SOL     MW  292   1.183   0.720   1.317  0.6913 -0.2069 -0.1355
   74SOL     OW  293   2.833   0.276   1.116  0.5947 -0.1835 -0.3270
   74SOL    HW1  294   2.908   0.332   1.115  0.8397  2.5299 -0.3270
   74SOL    HW2  295   2.776   0.302   1.044  2.9015 -0.2647 -0.9607
   74SOL     MW  296   2.836   0.286   1.106  0.9314  0.1638 -0.4106
   75SOL     OW  297   1.594   1.369   0.101 -0.0480 -0.6186 -0.0813
   75SOL    HW1  298   1.656   1.295   0.087 -0.6555  0.0979  1.7923
   75SOL    HW2  299   1.602   1.377   0.199  0.4092 -0.0132 -1.1272
   75SOL     MW  300   1.603   1.360   0.112 -0.0679 -0.4442  0.0279
   76SOL     OW  301   2.965   0.595   0.440  0.2169  0.7278  0.1029
   76SOL    HW1  302   3.024   0.626   0.511 -0.0464  1.7653  0.0528
   76SOL    HW2  303   3.025   0.544   0.383 -1.0747 -0.5573 -0.5423
   76SOL     MW  304   2.981   0.592   0.442  0.0117  0.6951  0.0111
   77SOL     OW  305   0.831   0.547   0.471  0.5180  0.2836 -0.1223
   77SOL    HW1  306   0.787   0.559   0.384 -0.9812  1.8258  0.7952
   77SOL    HW2  307   0.834   0.450   0.493 -1.3218 -0.3184  1.1806
   77SOL     MW  308   0.825   0.536   0.462  0.0774  0.4077  0.1707
   78SOL     OW  309   0.729   0.835   1.176  0.1414 -0.1376 -0.2146
   78SOL    HW1  310   0.779   0.889   1.119  1.0172 -3.4749  2.5349
   78SOL    HW2  311   0.628   0.840   1.159 -1.8819  2.0654  2.1660
   78SOL     MW  312   0.722   0.843   1.167 -0.0100 -0.2873  0.4623
   79SOL     OW  313   1.900   1.637   0.634 -0.3024 -0.5069 -0.2172
   79SOL    HW1  314   1.829   1.596   0.583 -1.5393  1.0412  1.8868
   79SOL    HW2  315   1.886   1.628   0.732  1.4509 -0.0361  1.6663
   79SOL     MW  316   1.889   1.631   0.640 -0.2343 -0.2406  0.3089
   80SOL     OW  317   0.070   0.935   0.361  0.4804  0.3507  0.0317
   80SOL    HW1  318  -0.003   0.875   0.365 -1.1425 -0.2487 -1.4078
   80SOL    HW2  319   0.151   0.890   0.376 -1.1862  0.4062 -1.7075
   80SOL     MW  320   0.071   0.921   0.363  0.0464  0.2789 -0.3877
   81SOL     OW  321   1.863   1.915   0.309 -0.7728  0.2913  0.0568
   81SOL    HW1  322   1.855   1.820   0.273  1.7054 -0.4418 -0.5495
   81SOL    HW2  323   1.798   1.967   0.265  0.8649 -0.9224  1.5473
   81SOL     MW  324   1.853   1.910   0.298 -0.2298  0.0344  0.1735
   82SOL     OW  325   0.814   1.022   0.499 -0.0055  0.3473 -0.0477
   82SOL    HW1  326   0.810   1.033   0.402 -0.4087 -0.9859  1.0726
   82SOL    HW2  327   0.799   0.924   0.503  2.0068 -2.1970 -0.8375
   82SOL     MW  328   0.812   1.011   0.487  0.2068 -0.1643 -0.0041
   83SOL     OW  329   0.041   0.744   1.488  0.1080  0.2572 -0.0222
   83SOL    HW1  330   0.054   0.801   1.410 -1.4982  0.9175  1.0765
   83SOL    HW2  331   0.123   0.698   1.503 -0.6258 -2.4477  1.7035
   83SOL     MW  332   0.054   0.746   1.480 -0.2007 -0.0125  0.3504
   84SOL     OW  333   0.036   0.184   0.901 -0.2478  0.1763 -0.1426
   84SOL    HW1  334   0.021   0.274   0.908  2.0671 -0.8146 -0.8426
   84SOL    HW2  335   0.035   0.150   0.989 -1.1196  1.2859  0.5819
   84SOL     MW  336   0.034   0.191   0.914 -0.0574  0.1920 -0.1394
   85SOL     OW  337   0.430   0.455   0.710 -0.4600  0.0111 -0.4482
   85SOL    HW1  338   0.407   0.487   0.628 -1.3515 -0.4842  0.1874
   85SOL    HW2  339   0.388   0.366   0.718 -0.2440 -1.8958  0.3617
   85SOL     MW  340   0.422   0.447   0.700 -0.5491 -0.3059 -0.2575
   86SOL     OW  341   1.217   0.247   1.133  0.2323  0.1387 -0.0471
   86SOL    HW1  342   1.167   0.319   1.097  1.0507 -2.4221 -1.3374
   86SOL    HW2  343   1.312   0.257   1.147 -1.1681  0.9034  1.0279
   86SOL     MW  344   1.223   0.258   1.130  0.1555 -0.0982 -0.0755
   87SOL     OW  345   1.135   1.489   1.214 -0.6126 -0.5239 -0.1745
   87SOL    HW1  346   1.190   1.540   1.150  0.8934 -0.1404 -0.2472
   87SOL    HW2  347   1.145   1.397   1.194 -1.4792  2.9351  0.9427
   87SOL     MW  348   1.144   1.484   1.203 -0.5282 -0.0169 -0.0367
   88SOL     OW  349   1.188   1.032   0.984  0.3770 -0.4379  0.3681
   88SOL    HW1  350   1.279   1.051   0.961  0.2727  0.9536  3.7398
   88SOL    HW2  351   1.190   1.090   1.066  1.8229 -0.5578  0.1398
   88SOL     MW  352   1.200   1.042   0.992  0.5540 -0.2702  0.7829
   89SOL     OW  353   1.730   0.743   0.332 -0.0679 -0.3226 -0.2505
   89SOL    HW1  354   1.733   0.648   0.342 -0.0064 -0.5830 -0.0965
   89SOL    HW2  355   1.823   0.764   0.309  2.3132  0.7158  0.5952
   89SOL     MW  356   1.743   0.733   0.331  0.2544 -0.2200 -0.1186
   90SOL     OW  357   0.823   1.155   2.858 -0.2351 -0.1246  0.9885
   90SOL    HW1  358   0.871   1.074   2.870 -2.2165 -1.2284 -0.9588
   90SOL    HW2  359   0.815   1.201   2.945 -1.7766 -0.5033  2.0082
   90SOL     MW  360   0.829   1.151   2.871 -0.6999 -0.3202  0.8661
   91SOL     OW  361   2.167   0.687   0.527  0.0211 -0.2663  0.2539
   91SOL    HW1  362   2.226   0.752   0.491  2.5655  0.8776 -0.2475
   91SOL    HW2  363   2.182   0.609   0.462 -1.4750 -2.1187 -2.0182
   91SOL     MW  364   2.177   0.685   0.514  0.1594 -0.3598 -0.1121
   92SOL     OW  365   1.735   0.889   0.580 -0.6433  0.1284  0.4965
   92SOL    HW1  366   1.660   0.929   0.623 -0.9346  0.2195  1.1748
   92SOL    HW2  367   1.708   0.859   0.490 -1.7941  0.3738  0.0503
   92SOL     MW  368   1.722   0.890   0.574 -0.8336  0.1728  0.5272
   93SOL     OW  369   1.132   0.169   0.419  0.7579 -0.5831  0.0472
   93SOL    HW1  370   1.042   0.195   0.421 -0.0354 -0.3612  0.6153
   93SOL    HW2  371   1.158   0.220   0.342 -0.8191 -0.1400  0.1349
   93SOL     MW  372   1.124   0.179   0.409  0.4452 -0.4954  0.1337
   94SOL     OW  373   1.871   1.381   1.600  0.3402  0.1591 -1.0737
   94SOL    HW1  374   1.879   1.392   1.505 -0.1651  0.3531  1.8737
   94SOL    HW2  375   1.843   1.288   1.616 -0.5675  0.4541  0.3924
   94SOL     MW  376   1.868   1.370   1.590  0.1538  0.2236 -0.4914
   95SOL     OW  377   0.701   1.584   0.936 -0.5000  0.2426 -0.1770
   95SOL    HW1  378   0.746   1.547   1.012  0.1645  1.4184 -0.8763
   95SOL    HW2  379   0.634   1.517   0.915  0.6327  0.6215 -0.2054
   95SOL     MW  380   0.698   1.570   0.943 -0.2629  0.4477 -0.2730
   96SOL     OW  381   1.336   1.900   1.723  0.0098 -0.3943  0.2000
   96SOL    HW1  382   1.247   1.906   1.755 -2.5078 -0.5126 -0.1985
   96SOL    HW2  383   1.341   1.811   1.686  1.1110  2.3174  0.7583
   96SOL     MW  384   1.325   1.889   1.722 -0.1771 -0.0521  0.2211
   97SOL     OW  385   1.118   1.462   0.863 -0.9181  0.4089 -0.6498
   97SOL    HW1  386   1.166   1.534   0.908 -1.7042  1.1368 -1.4142
   97SOL    HW2  387   1.053   1.504   0.813  2.6276 -0.4543 -0.0797
   97SOL     MW  388   1.116   1.477   0.863 -0.5540  0.3910 -0.6754
   98SOL     OW  389   1.464   1.291   1.153  0.3088  0.4294  0.3521
   98SOL    HW1  390   1.498   1.344   1.227 -2.6988  1.3178 -0.3009
   98SOL    HW2  391   1.459   1.346   1.072  0.8967 -1.5081  2.2171
   98SOL     MW  392   1.468   1.305   1.152 -0.0104  0.2910  0.5121
   99SOL     OW  393   1.453   0.291   1.252 -0.0304  0.0626 -0.4885
   99SOL    HW1  394   1.493   0.375   1.220  0.5690 -0.2942  0.1108
   99SOL    HW2  395   1.430   0.304   1.342  2.7203 -1.4541  3.3901
   99SOL     MW  396   1.455   0.304   1.259  0.4116 -0.1846  0.1023
  100SOL     OW  397   1.060   1.163   1.390  0.0673 -0.3030 -0.0346
  100SOL    HW1  398   1.088   1.206   1.471  2.0485  0.6039 -0.1409
  100SOL    HW2  399   1.044   1.067   1.402 -0.9905 -0.9995  1.3466
  100SOL     MW  400   1.061   1.156   1.403  0.1891 -0.2753  0.1336
  101SOL     OW  401   0.467   1.228   0.327  0.3130  0.0171  0.0989
  101SOL    HW1  402   0.419   1.170   0.265 -1.3704  0.5647 -2.0317
  101SOL    HW2  403   0.552   1.246   0.294 -2.4533 -2.0979  0.4540
  101SOL     MW  404   0.472   1.223   0.314 -0.2741 -0.1897 -0.1353
  102SOL     OW  405   2.893   0.616   0.982  0.1460  0.1760 -0.2191
  102SOL    HW1  406   2.910   0.706   0.981  0.8531 -1.3432  2.1794
  102SOL    HW2  407   2.890   0.607   1.082 -0.8440  0.3611  0.7399
  102SOL     MW  408   2.895   0.626   0.995  0.1087 -0.0000  0.2239
  103SOL     OW  409   1.801   0.280   1.882  0.6891 -0.3202  0.2982
  103SOL    HW1  410   1.768   0.192   1.861  0.1692  2.4361  1.8618
  103SOL    HW2  411   1.822   0.282   1.971 -0.0532  1.3569 -1.5720
  103SOL     MW  412   1.800   0.269   1.891  0.5226  0.2647  0.2578
  104SOL     OW  413   0.109   1.510   1.576 -0.3465 -0.2556  0.4360
  104SOL    HW1  414   0.174   1.463   1.620  0.1987  1.5962  0.0368
  104SOL    HW2  415   0.026   1.470   1.600  0.7474  1.4824 -0.0642
  104SOL     MW  416   0.106   1.499   1.585 -0.1302  0.2180  0.3174
  105SOL     OW  417   0.010   1.206   0.419 -0.4173  0.5144  0.1139
  105SOL    HW1  418   0.040   1.113   0.428 -0.5178 -3.8903  0.4106
  105SOL    HW2  419   0.084   1.265   0.425  0.7426 -2.7128 -0.3216
  105SOL     MW  420   0.024   1.202   0.421 -0.2775 -0.4926  0.0956
  106SOL     OW  421   0.815   0.420   0.965 -0.5704  0.4687 -1.1496
  106SOL    HW1  422   0.735   0.471   0.973 -0.5794 -1.1288 -2.0113
  106SOL    HW2  423   0.841   0.433   0.872 -1.7295 -1.4469 -1.8734
  106SOL     MW  424   0.808   0.428   0.954 -0.7245  0.0052 -1.3588
  107SOL     OW  425   0.815   2.138   2.913 -0.0711 -0.0107 -0.0552
  107SOL    HW1  426   0.731   2.121   2.872  1.0088 -3.2489 -0.0996
  107SOL    HW2  427   0.805   2.115   3.008  2.9474 -2.2265 -1.6081
  107SOL     MW  428   0.803   2.133   2.920  0.4696 -0.7303 -0.2659
  108SOL     OW  429   1.340   1.621   1.633  0.4618  0.1004  0.4797
  108SOL    HW1  430   1.278   1.586   1.567 -1.5169 -4.3244 -3.7855
  108SOL    HW2  431   1.416   1.557   1.640  0.1502  0.1383 -0.8155
  108SOL     MW  432   1.342   1.608   1.625  0.1596 -0.4784 -0.2539
  109SOL     OW  433   2.001   0.780   0.263 -0.6515  0.0789 -0.1251
  109SOL    HW1  434   2.016   0.876   0.268 -2.3356  0.2156 -1.7021
  109SOL    HW2  435   2.072   0.743   0.316 -0.9295 -0.9521  1.6793
  109SOL     MW  436   2.012   0.788   0.271 -0.9104 -0.0390 -0.0951
  110SOL     OW  437   0.420   1.904   0.644  0.0027 -0.4398  0.0328
  110SOL    HW1  438   0.444   1.824   0.589  0.0251  0.8808  2.6774
  110SOL    HW2  439   0.418   1.980   0.589 -0.2560  0.4652  2.0061
  110SOL     MW  440   0.423   1.903   0.629 -0.0285 -0.1462  0.6421
  111SOL     OW  441   0.767   0.865   1.440  0.2622 -0.0390 -0.1790
  111SOL    HW1  442   0.733   0.860   1.350  0.3084  0.4883  2.0901
  111SOL    HW2  443   0.765   0.778   1.478 -0.1640 -1.5246 -1.6707
  111SOL     MW  444   0.763   0.853   1.433  0.2121 -0.1654 -0.0764
  112SOL     OW  445   1.347   1.067   1.621  0.1440 -0.1863  0.1230
  112SOL    HW1  446   1.280   1.132   1.632 -1.2988 -1.1707 -1.7392
  112SOL    HW2  447   1.301   0.982   1.623 -2.5777  0.5947  0.4717
  112SOL     MW  448   1.332   1.064   1.623 -0.4054 -0.2131 -0.0767
  113SOL     OW  449   1.239   3.053   1.703  0.0060  0.5780 -0.1964
  113SOL    HW1  450   1.261   3.006   1.788 -0.5106 -0.9598  1.4407
  113SOL    HW2  451   1.230   2.988   1.631  2.4140  0.6417 -0.4790
  113SOL     MW  452   1.240   3.038   1.705  0.2556  0.3835 -0.0177
  114SOL     OW  453   0.257   2.879   1.883  0.1288 -0.1067 -0.0706
  114SOL    HW1  454   0.323   2.919   1.934  1.8642  1.0323 -1.5969
  114SOL    HW2  455   0.186   2.950   1.865 -1.0592 -1.3660  1.4975
  114SOL     MW  456   0.256   2.893   1.887  0.2010 -0.1226 -0.0651
  115SOL     OW  457   0.474   0.817   1.148  0.3825 -1.0200  0.1646
  115SOL    HW1  458   0.484   0.727   1.191 -0.4730  3.4674  1.3833
  115SOL    HW2  459   0.437   0.885   1.211 -1.1086 -1.3578  0.9578
  115SOL     MW  460   0.471   0.814   1.162  0.0729 -0.4725  0.4301
  116SOL     OW  461   0.803   1.044   1.002  0.3308  0.3083 -0.2669
  116SOL    HW1  462   0.808   1.088   0.918  1.3891  0.3233 -1.8230
  116SOL    HW2  463   0.835   1.115   1.066  1.0327  0.2717  0.1806
  116SOL     MW  464   0.808   1.059   1.000  0.5630  0.3055 -0.4132
  117SOL     OW  465   1.106   1.207   0.788 -0.4493 -0.0531  0.5661
  117SOL    HW1  466   1.107   1.139   0.863 -2.0798  1.8107 -0.1767
  117SOL    HW2  467   1.107   1.292   0.832 -0.3439 -1.9564 -1.1989
  117SOL     MW  468   1.107   1.210   0.804 -0.6505 -0.0583  0.2352
  118SOL     OW  469   3.063   2.950   1.662 -0.1612  0.0312  0.6107
  118SOL    HW1  470   3.130   2.994   1.710 -0.3044 -1.8235  2.6926
  118SOL    HW2  471   2.986   2.984   1.696 -0.5750  0.6002 -2.2553
  118SOL     MW  472   3.062   2.960   1.673 -0.2347 -0.1384  0.5073
  119SOL     OW  473   0.448   1.485   1.250 -0.1731  0.5916  0.4464
  119SOL    HW1  474   0.474   1.571   1.208  0.5259 -0.2478  2.4368
  119SOL    HW2  475   0.355   1.479   1.236  0.7760 -1.1995 -0.4632
  119SOL     MW  476   0.440   1.496   1.243  0.0443  0.2445  0.5890
  120SOL     OW  477   0.244   0.739   1.027 -1.0320  0.2304 -0.0073
  120SOL    HW1  478   0.221   0.661   1.075 -0.0963  0.3359  2.3688
  120SOL    HW2  479   0.325   0.782   1.068 -0.9560 -0.8714 -1.6932
  120SOL     MW  480   0.251   0.735   1.039 -0.8985  0.0989  0.0838
  121SOL     OW  481   1.736   1.095   1.685 -0.4667 -0.3063 -0.0673
  121SOL    HW1  482   1.661   1.043   1.723  0.8393  0.0086 -1.8657
  121SOL    HW2  483   1.767   1.043   1.612  1.1884 -2.6462 -0.7555
  121SOL     MW  484   1.730   1.082   1.681 -0.0760 -0.5735 -0.3954
  122SOL     OW  485   0.189   0.529   0.821  0.2675  0.3649  0.4201
  122SOL    HW1  486   0.275   0.505   0.786  0.6618 -0.5379 -0.0934
  122SOL    HW2  487   0.200   0.614   0.856 -0.3285 -2.5258  0.7972
  122SOL     MW  488   0.202   0.537   0.821  0.2409 -0.1356  0.4021
  123SOL     OW  489   1.850   1.131   0.453 -0.0566 -0.7503 -0.1151
  123SOL    HW1  490   1.812   1.057   0.504  1.7072 -0.2918 -2.2610
  123SOL    HW2  491   1.921   1.172   0.506  1.0358  0.8619 -0.2403
  123SOL     MW  492   1.854   1.127   0.466  0.3202 -0.4771 -0.4148
  124SOL     OW  493   0.586   0.544   0.932 -0.4416  0.1024  0.0437
  124SOL    HW1  494   0.541   0.516   0.853 -1.1371  1.4285 -1.4127
  124SOL    HW2  495   0.620   0.633   0.915 -2.3904 -0.4728 -0.3092
  124SOL     MW  496   0.585   0.552   0.919 -0.7905  0.2014 -0.1950
  125SOL     OW  497   0.718   1.782   1.738 -0.0378 -0.6750 -0.6862
  125SOL    HW1  498   0.661   1.721   1.692 -1.0819  0.6780  0.9187
  125SOL    HW2  499   0.667   1.863   1.732 -0.1447  1.9475 -2.2827
  125SOL     MW  500   0.704   1.785   1.731 -0.1897 -0.1505 -0.6851
  126SOL     OW  501   2.157   1.551   1.984 -0.2651 -0.0296 -0.2286
  126SOL    HW1  502   2.198   1.636   1.960 -1.0597 -0.6287  2.1642
  126SOL    HW2  503   2.226   1.484   1.966  0.2849 -0.5394 -1.3739
  126SOL     MW  504   2.172   1.553   1.979 -0.2974 -0.1759 -0.0640
  127SOL     OW  505   0.562   0.820   1.817  0.1680  0.5416  0.0577
  127SOL    HW1  506   0.650   0.809   1.860  1.6713  0.8621 -3.1787
  127SOL    HW2  507   0.521   0.899   1.862 -1.1068  2.3276 -1.0707
  127SOL     MW  508   0.569   0.829   1.829  0.1981  0.8196 -0.5182
  128SOL     OW  509   1.705   0.716   2.920 -0.7209  0.6101 -0.1168
  128SOL    HW1  510   1.736   0.688   2.833 -1.3540 -1.8416  0.2821
  128SOL    HW2  511   1.700   0.812   2.920 -0.6156  0.6642  1.2822
  128SOL     MW  512   1.708   0.725   2.908 -0.7906  0.2937  0.1204
  129SOL     OW  513   1.645   0.913   0.152 -0.2125 -0.1069  0.3280
  129SOL    HW1  514   1.567   0.872   0.127  0.0718 -0.1177 -0.8625
  129SOL    HW2  515   1.669   0.851   0.219 -0.1912 -0.7195  0.9061
  129SOL     MW  516   1.638   0.900   0.158 -0.1722 -0.1892  0.2472
  130SOL     OW  517   0.811   1.374   0.293  0.1002 -0.0956  0.6495
  130SOL    HW1  518   0.829   1.366   0.390 -0.7108 -0.2307  0.8160
  130SOL    HW2  519   0.829   1.464   0.273 -0.5013  1.3675  2.2797
  130SOL     MW  520   0.815   1.385   0.303 -0.0862  0.0797  0.8866
  131SOL     OW  521   3.033   0.840   3.096 -0.2507 -0.0578  0.0753
  131SOL    HW1  522   3.024   0.848   3.000  1.5159 -0.9865 -2.8994
  131SOL    HW2  523   3.132   0.827   3.105  2.1165 -1.3530  0.8645
  131SOL     MW  524   3.045   0.839   3.085  0.2947 -0.3512 -0.2130
  132SOL     OW  525   2.706   0.132   1.322  0.2747  0.1904 -0.9194
  132SOL    HW1  526   2.753   0.181   1.255 -0.5579 -0.5447 -2.1633
  132SOL    HW2  527   2.624   0.095   1.284  1.9815  0.0938  1.9554
  132SOL     MW  528   2.701   0.134   1.308  0.3900  0.0807 -0.7042
  133SOL     OW  529   1.040   0.142   1.716 -0.0096 -0.1110  0.0068
  133SOL    HW1  530   1.105   0.068   1.720 -2.1274 -1.7521 -0.7874
  133SOL    HW2  531   1.002   0.158   1.804  0.2940 -0.1771 -0.1488
  133SOL     MW  532   1.043   0.134   1.728 -0.2490 -0.3363 -0.1185
  134SOL     OW  533   1.416   2.508   1.421 -0.1615 -0.5118  0.1804
  134SOL    HW1  534   1.329   2.543   1.417  3.1446  0.8514 -0.1583
  134SOL    HW2  535   1.450   2.513   1.513  1.3369 -1.6605  1.7185
  134SOL     MW  536   1.409   2.513   1.433  0.4724 -0.4835  0.3386
  135SOL     OW  537   3.027   0.962   2.840  0.1331  0.2343 -0.2295
  135SOL    HW1  538   3.109   1.009   2.874 -0.5168 -1.3520 -0.7592
  135SOL    HW2  539   2.956   1.025   2.847  3.7187  3.2390  1.4473
  135SOL     MW  540   3.028   0.977   2.846  0.5204  0.4215 -0.0782
  136SOL     OW  541   0.213   2.065   0.807  0.1217  0.3409  0.5434
  136SOL    HW1  542   0.149   1.990   0.819 -0.5692  0.3196  2.0950
  136SOL    HW2  543   0.276   2.023   0.738  1.3437  1.7173 -0.3962
  136SOL     MW  544   0.213   2.049   0.799  0.1918  0.5197  0.6242
  137SOL     OW  545   0.692   2.046   0.524  0.1075 -0.0331  0.8091
  137SOL    HW1  546   0.697   2.038   0.622 -0.9885  0.8717  0.3245
  137SOL    HW2  547   0.598   2.056   0.513  1.3363  0.6811  0.4277
  137SOL     MW  548   0.680   2.046   0.536  0.1250  0.1805  0.6948
  138SOL     OW  549   0.506   0.566   1.194  0.2303 -0.4732 -0.0401
  138SOL    HW1  550   0.406   0.568   1.183  0.1670  1.2126  2.6092
  138SOL    HW2  551   0.551   0.559   1.108  0.9711 -1.7446 -0.1507
  138SOL     MW  552   0.499   0.565   1.181  0.3197 -0.4185  0.2948
  139SOL     OW  553   2.881   0.531   1.247  0.0687 -0.3639  0.5678
  139SOL    HW1  554   2.931   0.466   1.289 -0.3481  2.1357  1.0996
  139SOL    HW2  555   2.879   0.599   1.316  0.9355  0.6725  0.1896
  139SOL     MW  556   2.888   0.532   1.261  0.1281  0.1027  0.5881
  140SOL     OW  557   0.960   0.496   2.018 -0.5736 -0.1462 -0.1917
  140SOL    HW1  558   0.953   0.421   1.956 -1.9522 -2.5273 -1.3116
  140SOL    HW2  559   0.921   0.465   2.107  3.3656 -1.2455  2.1648
  140SOL     MW  560   0.954   0.482   2.021 -0.2358 -0.6054 -0.0286
  141SOL     OW  561   1.002   0.642   1.703 -0.0143 -0.1284  0.0349
  141SOL    HW1  562   1.062   0.565   1.688 -0.7520  0.0022 -0.7304
  141SOL    HW2  563   1.054   0.717   1.696  1.8378 -1.4265  0.1859
  141SOL     MW  564   1.017   0.642   1.700  0.1327 -0.2824 -0.0462
  142SOL     OW  565   0.858   1.157   0.734 -0.7487  0.6177 -0.2552
  142SOL    HW1  566   0.851   1.106   0.647  0.6629 -0.5012  0.2467
  142SOL    HW2  567   0.951   1.181   0.756  1.5907  0.7702 -0.9989
  142SOL     MW  568   0.869   1.153   0.725 -0.2538  0.4902 -0.2871
  143SOL     OW  569   1.807   0.688   1.102  0.1325 -0.5782 -0.1275
  143SOL    HW1  570   1.850   0.646   1.025 -0.4131  1.3158 -1.5423
  143SOL    HW2  571   1.726   0.711   1.056 -0.1077 -1.0056 -1.7491
  143SOL     MW  572   1.802   0.686   1.086  0.0288 -0.3847 -0.5281
  144SOL     OW  573   0.287   1.346   1.706  0.1251  0.5776 -0.3399
  144SOL    HW1  574   0.365   1.338   1.647 -0.4451 -1.1423 -1.3734
  144SOL    HW2  575   0.331   1.335   1.797 -1.6257 -0.4589  1.6356
  144SOL     MW  576   0.303   1.343   1.710 -0.1812  0.2140 -0.2156
  145SOL     OW  577   0.216   0.493   1.210 -0.8760 -0.3738  0.4033
  145SOL    HW1  578   0.255   0.402   1.224  0.9175  0.8372  1.1322
  145SOL    HW2  579   0.130   0.495   1.181 -0.9798  2.4324  0.4115
  145SOL     MW  580   0.210   0.482   1.208 -0.6530  0.1562  0.5005
  146SOL     OW  581   0.835   1.976   1.409 -0.1328 -0.3706  0.1026
  146SOL    HW1  582   0.877   1.979   1.327 -0.4477  0.3245 -1.4140
  146SOL    HW2  583   0.746   1.953   1.382  1.3085 -1.1820  0.2205
  146SOL     MW  584   0.829   1.973   1.395  0.0158 -0.3860 -0.0820
  147SOL     OW  585   0.391   0.513   2.972  0.4147  0.2193 -0.3106
  147SOL    HW1  586   0.326   0.508   3.046  1.3535  2.1160  0.2772
  147SOL    HW2  587   0.349   0.564   2.902 -0.2401 -2.2346 -0.5569
  147SOL     MW  588   0.377   0.519   2.972  0.4521  0.1458 -0.2655
  148SOL     OW  589   0.077   0.917   1.282 -0.1259 -1.2969 -0.5296
  148SOL    HW1  590   0.164   0.950   1.256  2.0540  1.6856 -6.2822
  148SOL    HW2  591   0.032   0.996   1.317 -1.2165 -4.5012  1.1681
  148SOL     MW  592   0.082   0.932   1.283  0.0178 -1.3262 -1.0646
  149SOL     OW  593   1.511   1.136   1.402  1.1224  0.6143 -0.4934
  149SOL    HW1  594   1.464   1.107   1.482  0.4270  0.7626  0.6251
  149SOL    HW2  595   1.515   1.232   1.408 -0.4726  1.8594  2.5020
  149SOL     MW  596   1.506   1.145   1.414  0.8202  0.7981  0.0494
  150SOL     OW  597   1.727   1.388   0.814  0.0911 -0.2492  0.8514
  150SOL    HW1  598   1.791   1.319   0.824  2.0387  2.4821  1.8030
  150SOL    HW2  599   1.774   1.471   0.833  0.9421  1.9289  1.1149
  150SOL     MW  600   1.742   1.390   0.818  0.4603  0.3986  1.0118
  151SOL     OW  601   1.671   1.832   0.791  0.2662 -0.1141  0.0857
  151SOL    HW1  602   1.675   1.834   0.692  2.5562  1.3745  0.5104
  151SOL    HW2  603   1.588   1.795   0.817 -1.1605 -3.0903  0.0630
  151SOL     MW  604   1.661   1.827   0.781  0.3801 -0.3104  0.1387
  152SOL     OW  605   0.775   1.428   1.659 -0.1414 -0.3974  0.0746
  152SOL    HW1  606   0.856   1.473   1.681 -1.0025  1.9023 -3.3654
  152SOL    HW2  607   0.803   1.360   1.602  1.9872  0.2468 -0.9832
  152SOL     MW  608   0.789   1.425   1.654  0.0258 -0.0090 -0.5189
  153SOL     OW  609   2.572   1.224   0.775 -0.1604  0.3023 -0.2520
  153SOL    HW1  610   2.646   1.199   0.719  0.0621  1.1643 -0.6727
  153SOL    HW2  611   2.511   1.146   0.770 -3.4156  0.8191  0.7755
  153SOL     MW  612   2.573   1.211   0.767 -0.5606  0.4842 -0.1719
  154SOL     OW  613   0.133   1.748   1.709 -0.2916  0.1567 -0.0238
  154SOL    HW1  614   0.120   1.656   1.683 -1.2860 -2.7290  0.4749
  154SOL    HW2  615   0.206   1.745   1.768 -1.9953 -2.8388 -1.0084
  154SOL     MW  616   0.141   1.735   1.713 -0.6476 -0.6192 -0.0879
  155SOL     OW  617   1.173   0.733   0.301  0.1753 -0.0065  0.2241
  155SOL    HW1  618   1.158   0.691   0.389  1.0782 -1.7252  2.7276
  155SOL    HW2  619   1.180   0.831   0.318 -1.2706 -0.0087  1.0422
  155SOL     MW  620   1.172   0.740   0.315  0.1037 -0.2335  0.6623
  156SOL     OW  621   1.563   3.008   1.057 -0.0216  0.3818  0.3176
  156SOL    HW1  622   1.646   3.054   1.073  0.5732  1.6353  0.2209
  156SOL    HW2  623   1.568   2.922   1.100  0.6241 -1.6439  0.3439
  156SOL     MW  624   1.574   3.003   1.065  0.1420  0.2799  0.3083
  157SOL     OW  625   1.388   1.142   0.112 -0.5808 -0.3533 -0.0490
  157SOL    HW1  626   1.370   1.076   0.192 -0.1632 -0.2784  3.4013
  157SOL    HW2  627   1.484   1.165   0.111 -0.6689 -0.1471  2.9279
  157SOL     MW  628   1.398   1.136   0.122 -0.5373 -0.3162  0.7990
  158SOL     OW  629   0.382   1.651   2.289  0.1036  0.2823  0.5259
  158SOL    HW1  630   0.396   1.701   2.206 -2.9745  0.1238  0.1623
  158SOL    HW2  631   0.339   1.708   2.351  2.1758 -1.6005  1.9254
  158SOL     MW  632   0.378   1.665   2.286 -0.0291  0.0130  0.6625
  159SOL     OW  633   1.238   1.707   0.475 -0.2826 -0.1743 -0.1938
  159SOL    HW1  634   1.209   1.642   0.413 -0.4136  0.2566 -0.3836
  159SOL    HW2  635   1.168   1.728   0.538  0.0508 -2.4080 -1.9304
  159SOL     MW  636   1.225   1.701   0.475 -0.2559 -0.4122 -0.4479
  160SOL     OW  637   0.489   1.224   1.560 -0.3475  0.7137 -0.1110
  160SOL    HW1  638   0.440   1.144   1.584 -0.8889  1.7569 -1.0290
  160SOL    HW2  639   0.575   1.214   1.599  0.4319  1.2450  2.8133
  160SOL     MW  640   0.494   1.212   1.568 -0.3161  0.9214  0.1537
  161SOL     OW  641   0.462   2.217   2.542 -0.4844 -0.2996  0.5513
  161SOL    HW1  642   0.376   2.246   2.543  2.3743 -2.1872 -0.2686
  161SOL    HW2  643   0.469   2.159   2.471  0.2961 -0.1267  0.3573
  161SOL     MW  644   0.452   2.213   2.533 -0.0042 -0.5258  0.4175
  162SOL     OW  645   1.081   1.789   1.846  0.3142  1.0090 -0.0324
  162SOL    HW1  646   1.088   1.886   1.870 -0.3875  0.8522 -0.7980
  162SOL    HW2  647   0.998   1.748   1.876  0.7796  1.4310 -0.6677
  162SOL     MW  648   1.071   1.797   1.853  0.2830  1.0440 -0.2173
  163SOL     OW  649   2.042   3.064   0.893 -0.3546  0.2674 -0.1035
  163SOL    HW1  650   2.039   3.134   0.832  2.7260 -1.2474  0.7287
  163SOL    HW2  651   2.068   2.981   0.844  0.9829 -0.4034 -0.5530
  163SOL     MW  652   2.045   3.062   0.879  0.2284 -0.0210 -0.0530
  164SOL     OW  653   0.306   0.207   0.808  0.1022  0.3498  0.0263
  164SOL    HW1  654   0.209   0.194   0.841 -0.0294 -1.5809 -1.5074
  164SOL    HW2  655   0.312   0.138   0.739 -1.0622  1.6791  1.1270
  164SOL     MW  656   0.294   0.196   0.803 -0.0688  0.2705 -0.0308
  165SOL     OW  657   1.252   1.316   0.332 -0.6588  0.0040  0.0312
  165SOL    HW1  658   1.229   1.246   0.403 -2.6305 -0.7717  0.2342
  165SOL    HW2  659   1.297   1.272   0.260  2.6583  1.2356 -0.0168
  165SOL     MW  660   1.255   1.301   0.332 -0.4813  0.0641  0.0517
  166SOL     OW  661   0.533   1.163   1.016 -0.0478 -0.6778 -0.2836
  166SOL    HW1  662   0.536   1.172   1.112  1.5414  1.4358  2.7067
  166SOL    HW2  663   0.620   1.127   0.995  0.7101  0.9756 -3.7762
  166SOL     MW  664   0.545   1.160   1.026  0.2619 -0.1808 -0.3498
  167SOL     OW  665   0.814   1.102   0.248  0.1871  0.2333 -0.2071
  167SOL    HW1  666   0.821   1.202   0.244 -1.7698 -2.2667 -1.1349
  167SOL    HW2  667   0.897   1.087   0.198 -1.0741 -0.9119 -0.3387
  167SOL     MW  668   0.826   1.113   0.241 -0.2375 -0.2476 -0.3469
  168SOL     OW  669   1.735   1.647   3.053  0.6301  0.0911  0.6184
  168SOL    HW1  670   1.661   1.707   3.049  0.6152 -4.0729  1.6502
  168SOL    HW2  671   1.702   1.566   3.004 -2.4514  1.7512 -0.3007
  168SOL     MW  672   1.721   1.644   3.046  0.2215 -0.2393  0.6333
  169SOL     OW  673   0.346   0.993   1.312 -0.4337 -0.0435  0.1408
  169SOL    HW1  674   0.359   0.966   1.404 -2.3320  1.3748  0.1415
  169SOL    HW2  675   0.389   1.079   1.307  0.8862 -0.3378  1.3702
  169SOL     MW  676   0.354   1.001   1.323 -0.5100  0.1048  0.3031
  170SOL     OW  677   1.115   1.542   1.497  0.3798 -0.5373 -0.0340
  170SOL    HW1  678   1.046   1.604   1.504 -0.7675  1.1967 -1.9688
  170SOL    HW2  679   1.149   1.547   1.405  1.5190  1.2524 -0.7261
  170SOL     MW  680   1.110   1.551   1.486  0.3787 -0.0724 -0.3806
  171SOL     OW  681   0.552   1.424   0.550 -0.0385  0.3045 -0.4292
  171SOL    HW1  682   0.517   1.410   0.641 -0.5528 -1.9474 -3.3448
  171SOL    HW2  683   0.535   1.337   0.517 -1.9594  2.1673 -0.0335
  171SOL     MW  684   0.545   1.411   0.557 -0.3598  0.2532 -0.7617
  172SOL     OW  685   0.874   0.302   1.278  0.4484 -0.1000  0.3095
  172SOL    HW1  686   0.799   0.270   1.225  0.2112 -0.7764  2.0018
  172SOL    HW2  687   0.851   0.260   1.358  1.6165  3.2194 -1.8947
  172SOL     MW  688   0.861   0.292   1.281  0.5712  0.2487  0.2419
  173SOL     OW  689   0.497   1.780   0.252  0.3357 -0.2284  0.3643
  173SOL    HW1  690   0.485   1.686   0.224 -1.8190  0.1946 -1.5443
  173SOL    HW2  691   0.537   1.767   0.339 -0.7686 -0.2673 -0.2700
  173SOL     MW  692   0.500   1.766   0.260 -0.0943 -0.1778  0.0288
  174SOL     OW  693   1.861   0.889   1.513 -0.2856 -0.0555  0.1396
  174SOL    HW1  694   1.806   0.817   1.541  1.3402 -0.3174  0.4780
  174SOL    HW2  695   1.843   0.911   1.423 -1.2239  0.8940  1.0140
  174SOL     MW  696   1.852   0.882   1.505 -0.1949  0.0352  0.2996
  175SOL     OW  697   0.488   1.484   0.254  0.2070  0.0500  0.0186
  175SOL    HW1  698   0.419   1.429   0.216  0.1872  1.8900  0.9131
  175SOL    HW2  699   0.500   1.454   0.339  0.2816  3.1414  1.0406
  175SOL     MW  700   0.480   1.473   0.260  0.2142  0.7007  0.2715
  176SOL     OW  701   0.155   1.478   1.194 -0.4352  0.4354 -0.1917
  176SOL    HW1  702   0.120   1.425   1.130  0.0269 -0.8668  2.8667
  176SOL    HW2  703   0.082   1.466   1.256 -1.2635 -0.8228 -2.9528
  176SOL     MW  704   0.141   1.469   1.194 -0.4835  0.0976 -0.1525
  177SOL     OW  705   0.556   0.357   1.352 -0.5137 -0.1570 -0.1702
  177SOL    HW1  706   0.560   0.431   1.291 -0.0734 -0.2912  3.8609
  177SOL    HW2  707   0.565   0.403   1.441 -0.5782 -0.1807  0.7973
  177SOL     MW  708   0.558   0.373   1.356 -0.4641 -0.1778  0.4893
  178SOL     OW  709   3.087   0.529   2.968  0.7100  0.3329  0.2031
  178SOL    HW1  710   3.044   0.534   3.050 -1.0081  0.7915 -2.4092
  178SOL    HW2  711   3.014   0.500   2.906 -1.5405 -2.1793  0.0668
  178SOL     MW  712   3.071   0.525   2.971  0.1864  0.0619 -0.1595
  179SOL     OW  713   1.554   1.435   1.371  0.0014  0.4439  0.7534
  179SOL    HW1  714   1.561   1.463   1.460 -0.5455 -1.8701  3.5350
  179SOL    HW2  715   1.642   1.420   1.340 -1.0075 -0.9130 -2.2190
  179SOL     MW  716   1.566   1.437   1.379 -0.2039 -0.0404  0.7283
  180SOL     OW  717   3.002   0.229   0.486  0.7713  0.3387  0.3060
  180SOL    HW1  718   2.986   0.189   0.403 -1.0550  0.9961  3.1351
  180SOL    HW2  719   3.069   0.297   0.465 -1.5904  0.5675  2.2012
  180SOL     MW  720   3.009   0.232   0.472  0.2187  0.4556  0.9294
  181SOL     OW  721   1.131   1.352   3.064  0.3843  0.1255  0.0864
  181SOL    HW1  722   1.212   1.397   3.094  1.9045  0.0917 -0.2655
  181SOL    HW2  723   1.173   1.282   3.014  2.2539 -1.1626 -0.6908
  181SOL     MW  724   1.147   1.349   3.061  0.8316 -0.0489 -0.0626
  182SOL     OW  725   0.415   0.936   1.583 -0.2207  1.0595 -0.1268
  182SOL    HW1  726   0.340   0.913   1.636  0.3750 -0.8903 -0.2584
  182SOL    HW2  727   0.495   0.908   1.622 -2.2405  0.0415  1.8842
  182SOL     MW  728   0.416   0.930   1.595 -0.4086  0.6680  0.1212
  183SOL     OW  729   1.573   1.726   1.222 -1.0900 -0.1755 -0.5425
  183SOL    HW1  730   1.671   1.731   1.229  0.9984 -2.8889  3.2427
  183SOL    HW2  731   1.549   1.653   1.282  0.2669 -1.6689 -0.6806
  183SOL     MW  732   1.583   1.717   1.231 -0.6354 -0.7305 -0.0613
  184SOL     OW  733   0.820   0.728   1.901  0.1446  0.0786 -0.4753
  184SOL    HW1  734   0.876   0.738   1.830  0.3869 -2.9037 -0.3937
  184SOL    HW2  735   0.826   0.635   1.922  0.0711 -0.7447  1.3498
  184SOL     MW  736   0.828   0.717   1.895  0.1669 -0.4235 -0.2237
  185SOL     OW  737   1.112   0.949   1.924 -0.1014 -0.1803 -0.0313
  185SOL    HW1  738   1.113   0.859   1.963  0.1703 -0.7118  0.3584
  185SOL    HW2  739   1.150   0.996   1.993  0.2017 -0.0585 -0.2457
  185SOL     MW  740   1.117   0.944   1.939 -0.0256 -0.2343 -0.0081
  186SOL     OW  741   0.372   1.690   1.445 -0.5050  0.1721 -0.5243
  186SOL    HW1  742   0.398   1.628   1.373  2.9546 -1.3303  1.4366
  186SOL    HW2  743   0.297   1.655   1.488  2.9780  2.6539 -0.4900
  186SOL     MW  744   0.366   1.678   1.441  0.4110  0.3014 -0.2611
  187SOL     OW  745   1.505   0.713   1.351 -0.1461 -0.3634  0.1374
  187SOL    HW1  746   1.584   0.687   1.398 -0.1150  0.2598 -0.2424
  187SOL    HW2  747   1.441   0.675   1.406  0.4936  3.7408  1.0320
  187SOL     MW  748   1.507   0.705   1.365 -0.0576  0.2604  0.2053
  188SOL     OW  749   1.909   1.159   0.807 -0.0052 -0.2283 -0.8344
  188SOL    HW1  750   1.897   1.153   0.901 -1.4908  1.3635 -5.5503
  188SOL    HW2  751   1.961   1.080   0.788  0.9691 -1.1961  1.5714
  188SOL     MW  752   1.914   1.148   0.817 -0.0726 -0.1459 -1.1392
  189SOL     OW  753   0.694   0.793   0.846 -0.1894 -0.5516  0.2677
  189SOL    HW1  754   0.614   0.841   0.848 -1.5461  1.7629 -1.0451
  189SOL    HW2  755   0.736   0.860   0.900  1.7632 -0.8472 -1.8328
  189SOL     MW  756   0.689   0.808   0.853 -0.1108 -0.2853 -0.1827
  190SOL     OW  757   1.849   0.279   2.183 -0.4387  0.7678 -0.5099
  190SOL    HW1  758   1.847   0.198   2.232  0.8553  1.1921 -1.7121
  190SOL    HW2  759   1.933   0.313   2.168 -2.3447  0.2888  0.1100
  190SOL     MW  760   1.859   0.273   2.188 -0.5194  0.7606 -0.5867
  191SOL     OW  761   1.543   0.952   1.185 -0.2155  0.4337  0.4384
  191SOL    HW1  762   1.511   1.013   1.249 -0.2745 -1.8592  0.9233
  191SOL    HW2  763   1.517   0.869   1.219 -1.3020  1.5380 -0.8982
  191SOL     MW  764   1.535   0.949   1.198 -0.3666  0.2769  0.3260
  192SOL     OW  765   0.561   2.109   2.784  0.2693 -0.5893  0.2944
  192SOL    HW1  766   0.535   2.157   2.703  1.4771 -0.0848  0.9238
  192SOL    HW2  767   0.575   2.015   2.759 -2.6906  0.3884 -0.4234
  192SOL     MW  768   0.560   2.103   2.770  0.0381 -0.3938  0.2828
  193SOL     OW  769   0.908   1.589   0.747  0.0719 -0.5027 -0.2436
  193SOL    HW1  770   0.837   1.588   0.816  1.8723  1.1008 -1.7299
  193SOL    HW2  771   0.888   1.524   0.665 -1.1290  1.4125 -1.1878
  193SOL     MW  772   0.896   1.581   0.745  0.1510 -0.0384 -0.5643
  194SOL     OW  773   0.500   1.431   0.888  0.4648 -0.6900 -0.4450
  194SOL    HW1  774   0.504   1.350   0.945 -3.6824 -1.9469  2.8957
  194SOL    HW2  775   0.421   1.425   0.837  0.8978 -3.5133 -0.6194
  194SOL     MW  776   0.490   1.420   0.888 -0.0252 -1.2284 -0.0273
  195SOL     OW  777   1.281   1.136   2.951 -0.3667 -0.3160  0.3850
  195SOL    HW1  778   1.327   1.142   3.038 -0.9586  1.1802  0.3634
  195SOL    HW2  779   1.223   1.065   2.954 -2.0072  2.3667  1.2815
  195SOL     MW  780   1.280   1.127   2.963 -0.6613  0.2354  0.5005
  196SOL     OW  781   2.195   0.997   0.522  0.1474 -0.8005  0.1650
  196SOL    HW1  782   2.150   0.988   0.439 -3.7765 -2.2246 -1.2189
  196SOL    HW2  783   2.195   1.098   0.526 -0.1121 -0.6416 -1.9077
  196SOL     MW  784   2.189   1.009   0.512 -0.4046 -0.9674 -0.2911
  197SOL     OW  785   0.618   1.343   2.176 -0.0545 -0.3057  0.2284
  197SOL    HW1  786   0.643   1.247   2.153  1.7588 -4.4431  1.1854
  197SOL    HW2  787   0.644   1.379   2.088  0.6167  0.1878 -0.6940
  197SOL     MW  788   0.624   1.335   2.161  0.2733 -0.7865  0.2330
  198SOL     OW  789   2.930   1.409   0.998 -0.2842  0.2351 -0.2532
  198SOL    HW1  790   2.888   1.482   0.947 -0.5011  2.0293 -0.1004
  198SOL    HW2  791   2.864   1.348   1.021 -0.7389  0.2693 -0.7683
  198SOL     MW  792   2.916   1.411   0.995 -0.3728  0.4764 -0.3010
  199SOL     OW  793   0.686   1.368   1.900  1.4815 -0.4132  1.0792
  199SOL    HW1  794   0.590   1.371   1.882  1.6273  1.3591  1.3866
  199SOL    HW2  795   0.723   1.398   1.813  0.8027 -1.8845  1.8618
  199SOL     MW  796   0.678   1.372   1.886  1.4112 -0.3735  1.2230
  200SOL     OW  797   1.865   2.913   1.380 -0.1472 -0.5027  0.3472
  200SOL    HW1  798   1.924   2.937   1.309 -1.6716  0.9272 -1.3517
  200SOL    HW2  799   1.789   2.978   1.392 -0.9906  0.8483 -1.8209
  200SOL     MW  800   1.863   2.925   1.372 -0.4596 -0.1358 -0.1630
  201SOL     OW  801   0.983   0.350   0.748  0.0843  0.1900 -0.1428
  201SOL    HW1  802   0.963   0.258   0.745 -0.8040  2.0859 -0.1098
  201SOL    HW2  803   1.076   0.351   0.785  1.3966 -1.5232 -0.4174
  201SOL     MW  804   0.992   0.338   0.752  0.1402  0.2141 -0.1747
  202SOL     OW  805   1.473   1.700   0.948  0.3364  1.5009  0.7473
  202SOL    HW1  806   1.479   1.605   0.941 -0.8235 -0.8915  1.8106
  202SOL    HW2  807   1.506   1.727   1.031  0.4413  1.0737  0.9080
  202SOL     MW  808   1.478   1.691   0.958  0.1972  1.1289  0.9088
  203SOL     OW  809   3.017   0.439   1.465 -0.3700 -0.4571  0.4259
  203SOL    HW1  810   3.056   0.355   1.442 -1.0971  0.2533  3.2318
  203SOL    HW2  811   3.073   0.504   1.511 -1.1404  0.3491 -0.9090
  203SOL     MW  812   3.030   0.437   1.468 -0.5676 -0.2570  0.6199
  204SOL     OW  813   1.024   1.798   0.615 -0.2187 -0.0037  0.1624
  204SOL    HW1  814   0.998   1.723   0.675 -0.2825 -2.8609  0.2100
  204SOL    HW2  815   0.945   1.797   0.555 -1.1179  0.2890  1.2520
  204SOL     MW  816   1.010   1.788   0.615 -0.3458 -0.3421  0.3124
  205SOL     OW  817   1.409   3.086   1.309 -0.6457 -0.5202 -0.0977
  205SOL    HW1  818   1.416   3.035   1.230 -0.7372 -0.6314  1.4517
  205SOL    HW2  819   1.325   3.132   1.307 -1.0894 -1.2500  1.9106
  205SOL     MW  820   1.399   3.085   1.298 -0.7163 -0.6312  0.3717
  206SOL     OW  821   0.504   3.090   1.397 -0.2915 -0.2912 -0.6277
  206SOL    HW1  822   0.444   3.073   1.322  0.4503  2.2561 -0.9459
  206SOL    HW2  823   0.561   3.012   1.401 -1.6479 -1.4734  1.8683
  206SOL     MW  824   0.503   3.078   1.387 -0.3726 -0.1111 -0.3404
  207SOL     OW  825   0.904   1.637   0.234  0.0575  0.2113  0.5538
  207SOL    HW1  826   0.914   1.715   0.186  1.4234 -0.8997  0.9111
  207SOL    HW2  827   0.991   1.599   0.253 -1.3207 -2.6316 -2.8381
  207SOL     MW  828   0.917   1.642   0.230  0.0559 -0.3104  0.1535
  208SOL     OW  829   0.670   1.703   1.373 -0.3482 -0.3128  0.3430
  208SOL    HW1  830   0.740   1.724   1.438 -0.9403  1.2450 -1.4452
  208SOL    HW2  831   0.706   1.641   1.317 -0.3086 -0.2082  3.1988
  208SOL     MW  832   0.684   1.697   1.374 -0.4211 -0.0935  0.4838
  209SOL     OW  833   1.531   0.538   2.789 -0.5546 -0.1815 -0.6417
  209SOL    HW1  834   1.568   0.608   2.841 -0.1273 -3.0360 -0.6102
  209SOL    HW2  835   1.593   0.466   2.782 -1.6533  0.3805 -2.7607
  209SOL     MW  836   1.544   0.538   2.795 -0.6432 -0.4840 -0.9171
  210SOL     OW  837   1.461   1.401   0.895 -0.0121  0.9907  0.7479
  210SOL    HW1  838   1.552   1.375   0.861 -0.6462 -0.7787  2.6169
  210SOL    HW2  839   1.400   1.377   0.821  0.8518 -0.0507  1.7564
  210SOL     MW  840   1.465   1.394   0.880  0.0182  0.6198  1.1275
  211SOL     OW  841   1.707   0.278   1.009 -0.0367  0.0013 -0.2827
  211SOL    HW1  842   1.688   0.301   0.917 -1.4308  1.8065 -1.0816
  211SOL    HW2  843   1.785   0.329   1.020  0.7155  0.8071  2.6694
  211SOL     MW  844   1.715   0.288   0.998 -0.1214  0.3458  0.0014
  212SOL     OW  845   0.315   1.057   0.173  0.4241  0.6862  0.3195
  212SOL    HW1  846   0.226   1.062   0.210 -1.2910  2.0689  0.2483
  212SOL    HW2  847   0.324   0.974   0.122 -3.8925 -0.6456 -0.1171
  212SOL     MW  848   0.304   1.047   0.171 -0.3717  0.6929  0.2525
  213SOL     OW  849   0.483   1.749   2.976  0.1715  0.3923 -0.2128
  213SOL    HW1  850   0.505   1.822   3.037  1.7526 -0.4530 -0.1036
  213SOL    HW2  851   0.521   1.780   2.898  0.8424 -1.1309  2.0815
  213SOL     MW  852   0.491   1.763   2.974  0.4686  0.0798  0.1043
  214SOL     OW  853   0.635   0.360   2.135 -0.0547 -0.0878 -0.6801
  214SOL    HW1  854   0.586   0.439   2.139 -2.1495 -2.6769  0.8367
  214SOL    HW2  855   0.620   0.334   2.044  0.2601 -2.3427 -2.9236
  214SOL     MW  856   0.626   0.367   2.124 -0.2896 -0.7269 -0.7760
  215SOL     OW  857   0.478   0.653   2.639 -0.4206 -0.4223  0.1396
  215SOL    HW1  858   0.461   0.641   2.547  1.4763 -2.5281 -0.3262
  215SOL    HW2  859   0.392   0.661   2.680  0.9644  1.9563  1.8161
  215SOL     MW  860   0.464   0.653   2.632  0.0124 -0.3863  0.2993
  216SOL     OW  861   2.987   3.047   2.742  0.0310  0.5060 -0.3411
  216SOL    HW1  862   2.927   3.050   2.817 -0.9707  0.5124  1.0588
  216SOL    HW2  863   2.992   3.136   2.721  0.6504 -0.4325  0.5183
  216SOL     MW  864   2.980   3.059   2.749 -0.0194  0.3830 -0.0430
  217SOL     OW  865   1.047   1.121   0.089  0.0681 -0.3244 -0.1591
  217SOL    HW1  866   1.066   1.047   0.030  0.2346 -0.6491 -1.2762
  217SOL    HW2  867   1.104   1.187   0.044  0.9133 -1.2546 -1.9084
  217SOL     MW  868   1.057   1.120   0.075  0.2016 -0.4900 -0.5373
  218SOL     OW  869   0.876   1.356   2.665 -0.0852 -0.2355  0.6350
  218SOL    HW1  870   0.896   1.282   2.723  2.9439  0.3103  1.9501
  218SOL    HW2  871   0.956   1.407   2.658 -0.6647 -0.5462 -0.7859
  218SOL     MW  872   0.889   1.353   2.672  0.2380 -0.2045  0.6210
  219SOL     OW  873   1.134   0.335   2.605  0.0674 -0.1681 -0.1822
  219SOL    HW1  874   1.206   0.400   2.639 -1.7381  1.0749 -0.5206
  219SOL    HW2  875   1.063   0.395   2.598 -0.1355 -4.0068  3.4469
  219SOL     MW  876   1.134   0.351   2.608 -0.1976 -0.5106  0.2520
  220SOL     OW  877   1.661   0.457   2.236 -0.1332  0.0484  0.4141
  220SOL    HW1  878   1.598   0.445   2.169 -0.5489 -0.5279  2.9842
  220SOL    HW2  879   1.731   0.394   2.212 -0.0893  0.3324 -0.3659
  220SOL     MW  880   1.662   0.447   2.224 -0.1823  0.0098  0.6503
  221SOL     OW  881   0.338   1.301   2.907  0.0687 -0.8034 -0.2450
  221SOL    HW1  882   0.397   1.231   2.886 -0.8116 -1.7091 -2.1278
  221SOL    HW2  883   0.388   1.380   2.878  1.1313  0.7003 -4.9410
  221SOL     MW  884   0.352   1.302   2.901  0.0928 -0.7245 -1.1130
  222SOL     OW  885   0.473   0.948   2.629  0.1497  0.0347  0.2770
  222SOL    HW1  886   0.400   1.000   2.597  0.8959 -1.6865 -0.3855
  222SOL    HW2  887   0.461   0.859   2.611 -2.6053  0.9276 -0.0709
  222SOL     MW  888   0.462   0.943   2.622 -0.1153 -0.0746  0.1437
  223SOL     OW  889   0.102   2.001   2.521 -0.0002  0.6510  0.3090
  223SOL    HW1  890   0.065   1.978   2.608 -1.0485  0.2602 -1.2243
  223SOL    HW2  891   0.125   2.092   2.532 -0.2457 -2.8447 -0.3513
  223SOL     MW  892   0.100   2.010   2.534 -0.1709  0.1382  0.0196
  224SOL     OW  893   1.525   0.760   2.513 -0.4688  0.4822 -0.2957
  224SOL    HW1  894   1.574   0.759   2.595 -1.0711  1.0123 -1.4729
  224SOL    HW2  895   1.515   0.853   2.496 -3.6496 -0.5972 -1.0865
  224SOL     MW  896   1.530   0.772   2.521 -0.9680  0.4097 -0.5554
  225SOL     OW  897   2.917   1.451   2.259  0.1901 -0.5158 -0.8421
  225SOL    HW1  898   2.975   1.512   2.218  0.8902  1.2244  0.9584
  225SOL    HW2  899   2.848   1.502   2.306  1.3215 -1.7691  0.8651
  225SOL     MW  900   2.916   1.466   2.260  0.4318 -0.4515 -0.3793
  226SOL     OW  901   0.416   1.508   2.712  0.0268 -0.0794 -0.7578
  226SOL    HW1  902   0.515   1.511   2.697  1.1177  3.5284 -1.2907
  226SOL    HW2  903   0.376   1.591   2.698  1.1070  0.6260 -0.6734
  226SOL     MW  904   0.424   1.519   2.708  0.3133  0.4897 -0.8170
  227SOL     OW  905   0.545   1.131   2.836  0.3386 -0.1820  0.2997
  227SOL    HW1  906   0.639   1.154   2.827 -2.4051  3.6129 -2.6201
  227SOL    HW2  907   0.521   1.056   2.782 -0.1702 -0.1618  0.1440
  227SOL     MW  908   0.555   1.124   2.827 -0.0906  0.3214 -0.1061
  228SOL     OW  909   0.752   1.127   2.061 -0.3739  0.1174 -0.4292
  228SOL    HW1  910   0.796   1.185   1.999  1.0131  1.7710 -0.5316
  228SOL    HW2  911   0.825   1.104   2.122 -0.6109 -2.5365 -0.8843
  228SOL     MW  912   0.767   1.132   2.061 -0.2221 -0.0146 -0.5028
  229SOL     OW  913   0.154   0.667   0.025  0.2031 -0.2208 -0.6120
  229SOL    HW1  914   0.108   0.631  -0.052  0.6204 -1.1029 -0.6930
  229SOL    HW2  915   0.161   0.597   0.085  1.3677  0.0558 -0.2922
  229SOL     MW  916   0.149   0.653   0.022  0.4118 -0.3007 -0.5805
  230SOL     OW  917   1.793   1.341   2.022 -0.1608  0.0160  0.2987
  230SOL    HW1  918   1.735   1.315   2.094  2.9463 -0.8171 -1.0455
  230SOL    HW2  919   1.832   1.269   1.976 -0.7097  2.1626  0.3036
  230SOL     MW  920   1.790   1.328   2.026  0.1767  0.1893  0.1220
  231SOL     OW  921   2.743   1.264   2.187 -0.0532 -0.3860 -0.2736
  231SOL    HW1  922   2.814   1.327   2.200 -0.0150  2.1474 -2.5248
  231SOL    HW2  923   2.696   1.320   2.122  3.6291  1.2843  0.7510
  231SOL     MW  924   2.746   1.280   2.180  0.4377  0.1686 -0.4354
  232SOL     OW  925   2.257   0.839   1.995  0.6577  0.1128 -0.4753
  232SOL    HW1  926   2.190   0.846   1.930  0.4865 -2.5705  1.3654
  232SOL    HW2  927   2.228   0.884   2.078 -1.0277  0.6034  0.8306
  232SOL     MW  928   2.244   0.846   1.998  0.4127 -0.1765 -0.0602
  233SOL     OW  929   2.052   0.414   2.064 -0.2473  0.6407  0.5445
  233SOL    HW1  930   2.089   0.324   2.040 -0.4450 -2.2174 -0.8207
  233SOL    HW2  931   2.119   0.448   2.119  0.4928 -0.5433 -1.6946
  233SOL     MW  932   2.066   0.407   2.068 -0.1758  0.1074  0.0689
  234SOL     OW  933   0.223   1.055   2.575  0.8571 -0.0708  1.1227
  234SOL    HW1  934   0.141   1.045   2.528  2.5741  0.3974  0.0664
  234SOL    HW2  935   0.242   1.153   2.574  2.7492 -0.0773  1.2096
  234SOL     MW  936   0.215   1.066   2.568  1.3333 -0.0099  0.9948
  235SOL     OW  937   1.091   3.055   2.786 -0.7766  0.2758 -0.3430
  235SOL    HW1  938   1.098   3.025   2.875 -1.9415 -0.1006  1.4932
  235SOL    HW2  939   1.077   3.155   2.800 -1.6030 -0.9898 -3.2123
  235SOL     MW  940   1.090   3.064   2.799 -1.0393  0.0592 -0.4793
  236SOL     OW  941   2.954   0.605   0.130  0.4783  0.0509  0.7538
  236SOL    HW1  942   2.870   0.588   0.083  1.5733 -0.2076  0.1432
  236SOL    HW2  943   2.984   0.693   0.097 -1.0000  2.4179 -0.3781
  236SOL     MW  944   2.947   0.614   0.119  0.4277  0.3291  0.5239
  237SOL     OW  945   1.977   1.136   2.199 -0.3318 -0.5178 -0.3599
  237SOL    HW1  946   1.930   1.144   2.112  0.9711 -0.0977 -0.8109
  237SOL    HW2  947   2.007   1.046   2.194 -1.9887  1.6428 -1.6078
  237SOL     MW  948   1.974   1.125   2.187 -0.3785 -0.1773 -0.5841
  238SOL     OW  949   1.081   1.769   2.936  0.2555  0.2052 -0.0076
  238SOL    HW1  950   1.039   1.686   2.947  2.6586 -0.5368  0.6773
  238SOL    HW2  951   1.170   1.745   2.915  0.6931  0.8353  0.1313
  238SOL     MW  952   1.087   1.755   2.935  0.6303  0.1905  0.1011
  239SOL     OW  953   1.226   1.402   2.354 -0.2784 -0.3146 -0.8831
  239SOL    HW1  954   1.207   1.433   2.444 -0.9363  3.4937 -2.5115
  239SOL    HW2  955   1.223   1.306   2.371  0.4864 -3.5826  0.9956
  239SOL     MW  956   1.223   1.394   2.368 -0.2643 -0.2433 -0.8501
  240SOL     OW  957   0.632   0.924   2.299 -0.4486 -0.1600 -0.7374
  240SOL    HW1  958   0.667   0.953   2.388  2.2585  0.0988  2.0628
  240SOL    HW2  959   0.716   0.924   2.257 -0.4080  0.7020 -0.8837
  240SOL     MW  960   0.648   0.928   2.306 -0.0861 -0.0121 -0.3872
  241SOL     OW  961   0.666   0.416   0.022 -0.3478  0.5149 -0.0369
  241SOL    HW1  962   0.708   0.496   0.063 -1.3005  1.6507 -1.1950
  241SOL    HW2  963   0.569   0.439   0.003 -4.0274 -1.3114  2.6252
  241SOL     MW  964   0.659   0.430   0.025 -0.9590  0.4238  0.1615
  242SOL     OW  965   1.492   1.715   2.299  0.1639  0.0407 -0.0652
  242SOL    HW1  966   1.430   1.788   2.308 -2.1950 -1.7628  2.9280
  242SOL    HW2  967   1.439   1.652   2.247 -2.3065  0.1732 -2.0092
  242SOL     MW  968   1.477   1.716   2.294 -0.4733 -0.1798  0.0732
  243SOL     OW  969   0.997   0.210   2.395  0.3412  1.0882 -0.2788
  243SOL    HW1  970   1.082   0.203   2.351 -0.6865  0.9207 -4.7956
  243SOL    HW2  971   1.028   0.236   2.480 -0.5989  2.1493 -1.5969
  243SOL     MW  972   1.012   0.212   2.400  0.0816  1.2061 -1.0487
  244SOL     OW  973   0.146   0.802   2.350 -0.1433 -0.3035  0.0505
  244SOL    HW1  974   0.123   0.890   2.334 -0.7414 -0.7170  0.6482
  244SOL    HW2  975   0.244   0.807   2.365  0.8002  1.1613 -0.3454
  244SOL     MW  976   0.156   0.815   2.350 -0.0977 -0.1648  0.0771
  245SOL     OW  977   1.234   0.201   2.305  0.5568  0.0617 -0.1573
  245SOL    HW1  978   1.280   0.117   2.328  0.6512 -1.5591 -0.1565
  245SOL    HW2  979   1.298   0.262   2.349  2.6226 -0.9361  1.3385
  245SOL     MW  980   1.248   0.198   2.314  0.8418 -0.2838  0.0402
  246SOL     OW  981   1.189   1.143   2.113 -0.3168 -0.2220 -0.1815
  246SOL    HW1  982   1.115   1.148   2.178 -1.3193 -0.8689 -2.7164
  246SOL    HW2  983   1.269   1.095   2.150  0.8201 -1.3870  1.7665
  246SOL     MW  984   1.190   1.138   2.127 -0.2990 -0.4611 -0.2590
  247SOL     OW  985   0.751   0.621   0.209  0.0028  0.0218 -0.3778
  247SOL    HW1  986   0.731   0.710   0.188  0.9735 -1.1195  2.3346
  247SOL    HW2  987   0.848   0.620   0.195  1.3699  0.7785 -0.0824
  247SOL     MW  988   0.761   0.633   0.204  0.3112 -0.0289  0.0190
  248SOL     OW  989   0.330   1.305   2.568  0.5126  0.6887 -0.5665
  248SOL    HW1  990   0.353   1.297   2.473 -0.3713 -2.2159  0.9451
  248SOL    HW2  991   0.386   1.373   2.602  1.2297 -1.7714 -1.1976
  248SOL     MW  992   0.340   1.313   2.560  0.4906 -0.0191 -0.4503
  249SOL     OW  993   0.026   1.880   2.771 -0.5887  0.5194  0.4319
  249SOL    HW1  994  -0.062   1.840   2.764 -2.5795  1.5298  2.1509
  249SOL    HW2  995   0.077   1.816   2.825 -2.6582 -2.3854  2.2849
  249SOL     MW  996   0.021   1.866   2.778 -1.1244  0.2695  0.9032
  250SOL     OW  997   2.139   0.909   2.268  0.2843  0.5414 -0.0503
  250SOL    HW1  998   2.127   0.816   2.284  0.6840 -0.4162  1.4399
  250SOL    HW2  999   2.212   0.949   2.311  0.0812  1.7699 -1.2244
  250SOL     MW 1000   2.147   0.902   2.276  0.3103  0.5772 -0.0086
  251SOL     OW 1001   0.181   0.899   1.952  0.6871  0.7185  0.4268
  251SOL    HW1 1002   0.189   0.802   1.960 -0.8839 -1.7215  0.1122
  251SOL    HW2 1003   0.167   0.905   1.857 -0.6102 -0.0944  3.1670
  251SOL     MW 1004   0.180   0.887   1.941  0.3087  0.2893  0.7468
  252SOL     OW 1005   1.685   0.993   2.914 -0.3831  0.4585 -0.1946
  252SOL    HW1 1006   1.717   1.035   2.991 -1.3550  1.6554 -0.3153
  252SOL    HW2 1007   1.751   1.016   2.852 -1.9978  0.4120 -0.1271
  252SOL     MW 1008   1.698   1.002   2.916 -0.7244  0.6103 -0.2016
  253SOL     OW 1009   1.126   1.722   2.475  0.2203 -0.4154 -0.0790
  253SOL    HW1 1010   1.134   1.749   2.375 -0.8053  1.7972 -1.4496
  253SOL    HW2 1011   1.041   1.776   2.496 -1.8590 -2.5670 -0.8025
  253SOL     MW 1012   1.116   1.733   2.465 -0.1893 -0.4073 -0.3553
  254SOL     OW 1013   0.950   1.100   2.242  0.1117 -0.2571  0.2511
  254SOL    HW1 1014   0.929   1.005   2.222  0.5572 -0.3110 -0.4521
  254SOL    HW2 1015   0.900   1.127   2.322  0.3523 -1.0201 -2.2850
  254SOL     MW 1016   0.940   1.091   2.250  0.2022 -0.3649 -0.1763
  255SOL     OW 1017   0.850   2.502   2.184  0.2797  0.2760  0.2656
  255SOL    HW1 1018   0.763   2.460   2.151 -1.7730 -2.0298  0.3724
  255SOL    HW2 1019   0.897   2.428   2.223 -0.5880 -1.6729 -0.1141
  255SOL     MW 1020   0.845   2.487   2.185 -0.1056 -0.2854  0.2296
  256SOL     OW 1021   1.248   2.738   2.969 -0.6980  0.5244  0.2140
  256SOL    HW1 1022   1.201   2.667   2.930 -1.0636 -0.7348 -1.5646
  256SOL    HW2 1023   1.338   2.731   2.940  1.3931 -0.5199  1.1224
  256SOL     MW 1024   1.253   2.728   2.960 -0.4703  0.2205  0.0992
  257SOL     OW 1025   0.077   1.916   0.005 -0.7298 -0.4807  0.0326
  257SOL    HW1 1026   0.139   1.981   0.038 -3.0731 -0.9640 -3.7213
  257SOL    HW2 1027   0.134   1.852  -0.043  1.1679 -0.8423 -2.8089
  257SOL     MW 1028   0.093   1.916   0.003 -0.7886 -0.5922 -0.8376
  258SOL     OW 1029   0.782   0.989   2.509 -0.1201 -0.4115  0.4367
  258SOL    HW1 1030   0.784   1.087   2.501 -5.0737 -0.1431  1.1601
  258SOL    HW2 1031   0.732   0.962   2.594 -3.2562 -0.2609  1.1623
  258SOL     MW 1032   0.776   0.998   2.519 -1.1875 -0.3562  0.6279
  259SOL     OW 1033   0.873   0.416   2.277 -0.3599  0.3904 -0.2520
  259SOL    HW1 1034   0.787   0.391   2.237 -0.8829 -0.3344  1.9745
  259SOL    HW2 1035   0.916   0.336   2.317 -0.8067  0.3896 -1.6412
  259SOL     MW 1036   0.867   0.402   2.277 -0.4879  0.2947 -0.1416
  260SOL     OW 1037   0.645   0.121   1.627  0.4861 -0.4902  0.3548
  260SOL    HW1 1038   0.604   0.101   1.547  0.6597 -1.2886  0.3271
  260SOL    HW2 1039   0.730   0.143   1.587  0.7512  1.8486  0.6885
  260SOL     MW 1040   0.651   0.121   1.611  0.5440 -0.2870  0.3951
  261SOL     OW 1041   1.128   0.719   2.036 -0.5010 -0.1229 -0.1188
  261SOL    HW1 1042   1.146   0.735   2.137  2.0332  0.1716 -0.7323
  261SOL    HW2 1043   1.083   0.636   2.029 -0.8258 -1.2930 -0.1364
  261SOL     MW 1044   1.125   0.710   2.048 -0.2095 -0.2384 -0.2020
  262SOL     OW 1045   1.078   0.337   0.191  0.5718  0.3020 -0.2549
  262SOL    HW1 1046   1.172   0.340   0.184 -1.8242  1.6886 -0.0988
  262SOL    HW2 1047   1.037   0.256   0.163  1.8067 -0.3340  0.7083
  262SOL     MW 1048   1.085   0.327   0.186  0.4186  0.4010 -0.1072
  263SOL     OW 1049   0.418   0.042   2.481 -1.1223  0.0574  0.0104
  263SOL    HW1 1050   0.342   0.095   2.504 -0.3746  2.1766  2.0698
  263SOL    HW2 1051   0.438   0.057   2.387 -0.7202  0.0034  0.0660
  263SOL     MW 1052   0.411   0.051   2.472 -0.9706  0.3299  0.2894
  264SOL     OW 1053   1.554   1.339   1.886  0.2206  0.3973  0.0803
  264SOL    HW1 1054   1.551   1.247   1.861 -0.5307  0.0015  0.8491
  264SOL    HW2 1055   1.638   1.350   1.931  0.7531  1.4794  2.1639
  264SOL     MW 1056   1.565   1.328   1.889  0.1917  0.4878  0.4566
  265SOL     OW 1057   0.776   2.750   2.243  0.1584 -0.3717  0.4414
  265SOL    HW1 1058   0.804   2.661   2.213 -1.8301 -1.8284  1.7829
  265SOL    HW2 1059   0.757   2.728   2.334  1.9757 -3.0187  1.9756
  265SOL     MW 1060   0.777   2.735   2.251  0.1358 -0.9131  0.8209
  266SOL     OW 1061   0.893   0.841   2.193  0.9468  0.5776 -0.3904
  266SOL    HW1 1062   0.892   0.835   2.097 -0.8270  0.6486  1.1446
  266SOL    HW2 1063   0.958   0.772   2.215 -2.3161 -1.4383 -0.4100
  266SOL     MW 1064   0.902   0.831   2.183  0.2823  0.3210 -0.1905
  267SOL     OW 1065   1.333   1.764   2.652 -0.3456 -0.2352 -0.2438
  267SOL    HW1 1066   1.416   1.717   2.631 -1.1845 -1.5050  1.8752
  267SOL    HW2 1067   1.280   1.743   2.572  4.1541  2.1170  0.0590
  267SOL     MW 1068   1.337   1.755   2.639  0.1374 -0.0924  0.0757
  268SOL     OW 1069   0.162   0.929   1.695 -0.6820  0.1646 -0.1534
  268SOL    HW1 1070   0.146   1.020   1.653 -1.6575  1.4825  3.1094
  268SOL    HW2 1071   0.120   0.875   1.629  1.4733  2.4670  0.6427
  268SOL     MW 1072   0.154   0.934   1.681 -0.5263  0.6423  0.3821
  269SOL     OW 1073   1.337   1.976   2.323  0.5797 -0.4245 -0.1699
  269SOL    HW1 1074   1.399   2.045   2.330 -0.4162  1.9201 -1.3994
  269SOL    HW2 1075   1.263   2.011   2.375 -3.2692 -1.4511  0.8096
  269SOL     MW 1076   1.335   1.990   2.331 -0.0595 -0.2506 -0.2029
  270SOL     OW 1077   1.157   0.424   1.598 -0.1627  0.5566  0.2990
  270SOL    HW1 1078   1.146   0.336   1.631 -0.2486 -0.6228  0.1929
  270SOL    HW2 1079   1.254   0.426   1.577 -0.4661 -1.2266  0.0473
  270SOL     MW 1080   1.169   0.412   1.600 -0.2140  0.1657  0.2518
  271SOL     OW 1081   0.777   0.056   2.500  0.0145 -0.3063 -0.2988
  271SOL    HW1 1082   0.830  -0.013   2.530 -3.0458  0.0571 -0.7398
  271SOL    HW2 1083   0.830   0.125   2.461  0.3770  3.2992 -0.4960
  271SOL     MW 1084   0.791   0.056   2.499 -0.3415  0.2173 -0.3830
  272SOL     OW 1085   1.490   2.826   2.844 -0.3396  0.0975  0.0051
  272SOL    HW1 1086   1.442   2.833   2.758  1.0518 -0.2749  0.7757
  272SOL    HW2 1087   1.520   2.911   2.874  1.0866  0.3243  2.2520
  272SOL     MW 1088   1.488   2.838   2.837  0.0322  0.0783  0.4032
  273SOL     OW 1089   1.455   0.903   2.798 -0.3837  0.0839 -0.3462
  273SOL    HW1 1090   1.522   0.945   2.849 -2.5608  0.0025 -1.8162
  273SOL    HW2 1091   1.442   0.979   2.744 -0.2149 -0.7544  0.2683
  273SOL     MW 1092   1.462   0.919   2.798 -0.6487 -0.0375 -0.4591
  274SOL     OW 1093   1.398   0.763   0.131  0.0532  0.1528  0.2474
  274SOL    HW1 1094   1.448   0.720   0.200 -0.4311  1.3182  0.5705
  274SOL    HW2 1095   1.309   0.758   0.171 -3.1474  2.3042 -0.7408
  274SOL     MW 1096   1.393   0.756   0.145 -0.4330  0.5904  0.1596
  275SOL     OW 1097   1.701   0.517   1.755  0.0002 -0.0728 -0.2310
  275SOL    HW1 1098   1.753   0.566   1.819  0.6203  0.5412 -0.2545
  275SOL    HW2 1099   1.702   0.429   1.798  1.4388 -0.3893 -0.4911
  275SOL     MW 1100   1.708   0.512   1.769  0.2718 -0.0336 -0.2684
  276SOL     OW 1101   0.409   1.295   1.943  0.4245 -0.3314 -0.1266
  276SOL    HW1 1102   0.439   1.210   1.979 -1.4638  0.4687  1.5963
  276SOL    HW2 1103   0.347   1.306   2.014  0.4255 -2.6989 -0.1852
  276SOL     MW 1104   0.405   1.286   1.957  0.1755 -0.5382  0.0929
  277SOL     OW 1105   1.974   1.165   2.489  0.5589 -0.3574  0.0563
  277SOL    HW1 1106   2.005   1.258   2.507  0.0614  0.5674  0.1437
  277SOL    HW2 1107   1.985   1.152   2.395 -1.9092 -0.8562  0.9426
  277SOL     MW 1108   1.979   1.175   2.479  0.1676 -0.3012  0.1848
  278SOL     OW 1109   1.361   0.679   1.687 -0.0034  0.1949  0.6839
  278SOL    HW1 1110   1.313   0.599   1.712 -1.9540 -2.1844  0.9177
  278SOL    HW2 1111   1.440   0.678   1.746  2.3012  1.0137  1.6457
  278SOL     MW 1112   1.365   0.668   1.698  0.0433 -0.0110  0.8416
  279SOL     OW 1113   0.526   0.095   2.205  0.0330 -0.6893  0.3582
  279SOL    HW1 1114   0.602   0.037   2.191 -0.4066  0.0048 -0.4601
  279SOL    HW2 1115   0.557   0.184   2.182 -1.2124 -1.4972 -2.2375
  279SOL     MW 1116   0.540   0.099   2.200 -0.1893 -0.7043 -0.0923
  280SOL     OW 1117   1.423   1.005   2.155  0.4992  0.6238 -0.1096
  280SOL    HW1 1118   1.501   0.956   2.120 -3.0353  0.1549 -2.5613
  280SOL    HW2 1119   1.428   1.011   2.256 -1.9146  2.6551  0.4530
  280SOL     MW 1120   1.434   0.999   2.164 -0.2856  0.8300 -0.3589
  281SOL     OW 1121   1.379   1.209   2.693  0.4918 -0.6785 -0.1526
  281SOL    HW1 1122   1.455   1.273   2.696  0.3410 -2.0423  1.3960
  281SOL    HW2 1123   1.352   1.192   2.785  2.5914 -0.8596 -0.2158
  281SOL     MW 1124   1.385   1.215   2.705  0.7489 -0.8823  0.0434
  282SOL     OW 1125   1.121   1.259   1.635  0.1216  0.1984  0.1782
  282SOL    HW1 1126   1.129   1.351   1.659 -1.0985  1.8063  0.6126
  282SOL    HW2 1127   1.062   1.226   1.704 -0.0215 -0.8038 -2.2209
  282SOL     MW 1128   1.114   1.266   1.647 -0.0583  0.2783 -0.0811
  283SOL     OW 1129   0.827   1.315   3.088  0.2229  0.5039  0.2924
  283SOL    HW1 1130   0.900   1.288   3.146 -1.8948  0.0586 -0.7587
  283SOL    HW2 1131   0.872   1.393   3.052  0.4196  0.1285  1.2352
  283SOL     MW 1132   0.842   1.322   3.091 -0.0306  0.3956  0.2781
  284SOL     OW 1133   0.423   0.764   2.386 -0.1967  0.0618 -0.1445
  284SOL    HW1 1134   0.504   0.810   2.348  0.8833 -1.0563  0.4966
  284SOL    HW2 1135   0.410   0.700   2.313  0.0430 -0.6279  2.4426
  284SOL     MW 1136   0.432   0.762   2.372 -0.0226 -0.1767  0.2814
  285SOL     OW 1137   0.889   0.892   2.805 -0.0092 -0.0123 -0.4098
  285SOL    HW1 1138   0.924   0.918   2.722 -0.0722  1.6628  0.3155
  285SOL    HW2 1139   0.850   0.807   2.797  1.0318  2.0159  1.1564
  285SOL     MW 1140   0.889   0.884   2.793  0.1198  0.4763 -0.1074
  286SOL     OW 1141   1.114   1.463   2.612  0.0953  0.2058  0.2051
  286SOL    HW1 1142   1.189   1.466   2.674  0.2822  1.2516 -1.9292
  286SOL    HW2 1143   1.107   1.547   2.570  0.7208 -0.7939 -0.8979
  286SOL     MW 1144   1.123   1.474   2.615  0.2025  0.2119 -0.2220
  287SOL     OW 1145   1.206   0.981   0.332  0.5051  1.0103 -0.0956
  287SOL    HW1 1146   1.197   1.031   0.418 -1.6882  1.4246 -1.1774
  287SOL    HW2 1147   1.159   1.021   0.264  3.3935 -1.5201  0.5174
  287SOL     MW 1148   1.199   0.993   0.334  0.5968  0.7311 -0.1575
  288SOL     OW 1149   1.493   0.599   2.057 -0.0719  0.8513  0.1481
  288SOL    HW1 1150   1.461   0.581   2.147  0.7113 -2.7439 -1.2779
  288SOL    HW2 1151   1.527   0.681   2.039  0.0059 -2.4514  1.1244
  288SOL     MW 1152   1.494   0.607   2.066  0.0417 -0.0588  0.0887
  289SOL     OW 1153   1.045   0.980   2.556 -1.0903 -0.3019  0.3112
  289SOL    HW1 1154   1.083   0.889   2.576 -2.0229 -1.6437 -0.0223
  289SOL    HW2 1155   0.957   0.975   2.524 -1.5781  2.0255  0.6148
  289SOL     MW 1156   1.038   0.968   2.554 -1.2777 -0.1719  0.3073
  290SOL     OW 1157   0.798   0.605   1.508  0.1651  0.1286 -0.7106
  290SOL    HW1 1158   0.850   0.582   1.430  0.4065 -2.2381 -0.6815
  290SOL    HW2 1159   0.868   0.621   1.571 -1.3207  2.4571  0.0128
  290SOL     MW 1160   0.814   0.604   1.506  0.0009  0.1236 -0.6113
  291SOL     OW 1161   0.178   0.402   0.139  0.4286 -0.4516 -0.3141
  291SOL    HW1 1162   0.266   0.355   0.145  3.5795  2.1100  0.4223
  291SOL    HW2 1163   0.126   0.350   0.078 -0.9089  0.7867 -1.8516
  291SOL     MW 1164   0.183   0.389   0.132  0.6678  0.0498 -0.4198
  292SOL     OW 1165   1.028   0.597   0.086  0.2243  0.0537  0.1400
  292SOL    HW1 1166   1.086   0.635   0.152  2.5711 -1.1092  2.9856
  292SOL    HW2 1167   1.034   0.505   0.093  1.0902  1.7755  0.6508
  292SOL     MW 1168   1.037   0.590   0.096  0.6482  0.1274  0.5829
  293SOL     OW 1169   0.135   0.179   2.482 -0.0567  0.6420  0.2666
  293SOL    HW1 1170   0.098   0.122   2.412 -2.3529  1.0740 -1.1708
  293SOL    HW2 1171   0.068   0.185   2.548  1.6673 -0.0199  0.5118
  293SOL     MW 1172   0.121   0.172   2.482 -0.1322  0.6116  0.1093
  294SOL     OW 1173   1.393   0.556   2.319 -0.4176  0.2109 -0.4119
  294SOL    HW1 1174   1.424   0.630   2.374 -1.4278  1.3169 -1.3128
  294SOL    HW2 1175   1.416   0.482   2.373 -1.8297 -1.3849  1.1850
  294SOL     MW 1176   1.400   0.556   2.333 -0.7372  0.1463 -0.3201
  295SOL     OW 1177   0.949   0.533   2.545 -0.4931  0.3159  0.2371
  295SOL    HW1 1178   0.932   0.542   2.449 -0.7248 -1.2029 -0.7209
  295SOL    HW2 1179   0.862   0.547   2.587  1.0705 -0.6571 -0.4740
  295SOL     MW 1180   0.935   0.536   2.537 -0.3174 -0.0129  0.0169
  296SOL     OW 1181   1.215   0.258   2.049 -0.1589 -0.3395 -0.0363
  296SOL    HW1 1182   1.303   0.224   2.023 -0.0273  0.1631 -0.7054
  296SOL    HW2 1183   1.218   0.240   2.142  2.0295 -0.4934 -2.8659
  296SOL     MW 1184   1.227   0.251   2.058  0.1472 -0.2935 -0.4979
  297SOL     OW 1185   1.429   0.408   1.553 -0.1812 -0.0115 -0.2535
  297SOL    HW1 1186   1.496   0.458   1.602 -1.2666 -1.5816 -0.1646
  297SOL    HW2 1187   1.424   0.321   1.587 -0.4437 -0.0347  1.3331
  297SOL     MW 1188   1.437   0.403   1.564 -0.3591 -0.2217 -0.0324
  298SOL     OW 1189   1.615   0.852   2.041 -0.6989  0.0899  0.3872
  298SOL    HW1 1190   1.666   0.901   1.979 -1.0088 -0.9586  1.1740
  298SOL    HW2 1191   1.678   0.803   2.086 -0.1495  0.2523  1.1835
  298SOL     MW 1192   1.630   0.852   2.039 -0.6673 -0.0270  0.5961
  299SOL     OW 1193   0.620   1.110   0.020 -0.1601 -0.2201 -0.1225
  299SOL    HW1 1194   0.579   1.122  -0.067  0.0280  3.6062 -2.7374
  299SOL    HW2 1195   0.696   1.170   0.015 -0.2107  3.1615 -2.6972
  299SOL     MW 1196   0.625   1.119   0.008 -0.1419  0.7309 -0.8072
  300SOL     OW 1197   1.241   1.146   2.464  0.3004 -1.0190 -0.7041
  300SOL    HW1 1198   1.154   1.114   2.496  2.1611  0.0936  1.6059
  300SOL    HW2 1199   1.269   1.187   2.547  0.5370 -1.4081 -0.7318
  300SOL     MW 1200   1.233   1.147   2.479  0.5771 -0.9235 -0.4030
  301SOL     OW 1201   1.439   0.955   0.663 -0.3688 -0.5667  0.1243
  301SOL    HW1 1202   1.451   0.997   0.747 -1.0995 -0.1434 -0.2718
  301SOL    HW2 1203   1.370   0.897   0.666 -0.4872  1.8868  0.6068
  301SOL     MW 1204   1.432   0.953   0.675 -0.4808 -0.1871  0.1357
  302SOL     OW 1205   0.208   1.544   2.031  0.3262  0.0613  0.3447
  302SOL    HW1 1206   0.196   1.461   2.077 -0.2362 -0.8705 -1.0531
  302SOL    HW2 1207   0.140   1.599   2.065  0.0479 -2.0350  1.5381
  302SOL     MW 1208   0.198   1.541   2.041  0.2153 -0.3382  0.3177
  303SOL     OW 1209   0.366   1.801   2.699 -0.1886 -0.2605  0.0112
  303SOL    HW1 1210   0.310   1.798   2.618 -1.8453  1.0422  0.1192
  303SOL    HW2 1211   0.309   1.803   2.777 -5.3548 -0.0519 -0.4966
  303SOL     MW 1212   0.351   1.801   2.698 -1.0888 -0.0611 -0.0415
  304SOL     OW 1213   0.494   2.042   2.323 -0.1912  0.0042 -0.3835
  304SOL    HW1 1214   0.586   2.080   2.307  0.5083  0.5498  1.3854
  304SOL    HW2 1215   0.529   1.971   2.372  0.8977  0.9247 -2.0338
  304SOL     MW 1216   0.511   2.037   2.328  0.0447  0.1977 -0.3678
  305SOL     OW 1217   1.094   0.604   0.552  0.2368  0.6041  0.4585
  305SOL    HW1 1218   1.004   0.590   0.529  0.9231  1.8759  1.7318
  305SOL    HW2 1219   1.138   0.519   0.566  1.6290  2.2691 -2.0301
  305SOL     MW 1220   1.088   0.591   0.551  0.5110  0.9916  0.2981
  306SOL     OW 1221   1.184   1.562   0.248 -0.8440  0.1511 -0.1735
  306SOL    HW1 1222   1.185   1.463   0.271  0.0242 -0.0645 -1.1925
  306SOL    HW2 1223   1.230   1.565   0.162  3.1105  1.7025  0.0448
  306SOL     MW 1224   1.190   1.550   0.240 -0.2077  0.3273 -0.2792
  307SOL     OW 1225   1.332   0.445   1.870 -0.4193 -0.2456  0.0997
  307SOL    HW1 1226   1.263   0.403   1.921  0.1989  0.5898 -0.8788
  307SOL    HW2 1227   1.391   0.493   1.929  1.4112 -2.2827  3.8160
  307SOL     MW 1228   1.331   0.446   1.884 -0.0962 -0.4041  0.4609
  308SOL     OW 1229   2.219   0.519   2.684  0.5915 -0.0863 -0.4155
  308SOL    HW1 1230   2.317   0.512   2.686 -1.6969 -1.5121 -1.1148
  308SOL    HW2 1231   2.189   0.615   2.692  0.8429  0.2327 -0.0248
  308SOL     MW 1232   2.228   0.531   2.685  0.3227 -0.2323 -0.4562
  309SOL     OW 1233   0.473   0.543   0.230  0.2663  0.5399 -0.1675
  309SOL    HW1 1234   0.554   0.574   0.192 -2.1315  0.7633 -2.5645
  309SOL    HW2 1235   0.466   0.447   0.220 -1.1995  0.9345  0.2082
  309SOL     MW 1236   0.483   0.535   0.224 -0.2434  0.6215 -0.4342
  310SOL     OW 1237   0.459   0.577   1.887  0.7338 -0.1970 -0.2727
  310SOL    HW1 1238   0.511   0.506   1.864 -2.0666  1.4606  1.1139
  310SOL    HW2 1239   0.513   0.655   1.867  0.6935  2.1317  0.4600
  310SOL     MW 1240   0.473   0.578   1.882  0.3590  0.3290  0.0070
  311SOL     OW 1241   1.887   0.647   1.951  0.1060  0.1298  0.1757
  311SOL    HW1 1242   1.869   0.680   2.040  3.2272 -0.4799  0.9995
  311SOL    HW2 1243   1.953   0.581   1.977  0.2775  3.1943  1.3721
  311SOL     MW 1244   1.893   0.642   1.966  0.5404  0.4537  0.4422
  312SOL     OW 1245   1.823   2.461   0.201 -0.0795 -0.0779 -0.4673
  312SOL    HW1 1246   1.874   2.477   0.282 -1.2824 -2.7596  0.7464
  312SOL    HW2 1247   1.739   2.505   0.203 -0.0075 -0.1169 -2.7381
  312SOL     MW 1248   1.819   2.469   0.212 -0.2287 -0.4368 -0.6068
  313SOL     OW 1249   0.115   1.099   2.996 -0.4255  0.1206  1.0034
  313SOL    HW1 1250   0.081   1.121   3.085 -0.0474 -1.8066 -0.9422
  313SOL    HW2 1251   0.130   1.191   2.962 -1.8668  1.5290 -0.9882
  313SOL     MW 1252   0.113   1.114   3.003 -0.5658  0.0521  0.4839
  314SOL     OW 1253   2.152   2.997   2.967  0.0413 -0.3843  0.5230
  314SOL    HW1 1254   2.073   3.039   2.923  1.2822 -0.6260  1.8226
  314SOL    HW2 1255   2.180   3.039   3.053  1.4309 -2.9408 -1.5979
  314SOL     MW 1256   2.145   3.008   2.972  0.3884 -0.7535  0.4146
  315SOL     OW 1257   1.533   1.838   3.016  0.2745  0.0434 -0.0971
  315SOL    HW1 1258   1.491   1.911   3.076 -0.1201  0.8953 -0.2977
  315SOL    HW2 1259   1.579   1.893   2.946 -2.2692 -3.1034 -1.6549
  315SOL     MW 1260   1.533   1.855   3.015 -0.1132 -0.2594 -0.3291
  316SOL     OW 1261   1.268   0.549   2.719 -0.4647  0.0757  0.1959
  316SOL    HW1 1262   1.365   0.552   2.725  2.5214  0.4509 -0.1226
  316SOL    HW2 1263   1.229   0.570   2.808  0.5366 -0.8302 -1.0380
  316SOL     MW 1264   1.275   0.552   2.732  0.0614  0.0057 -0.0089
  317SOL     OW 1265   0.675   1.524   2.652 -1.0334  0.8780  0.3430
  317SOL    HW1 1266   0.740   1.450   2.661  2.0984 -0.7412 -0.4860
  317SOL    HW2 1267   0.688   1.531   2.555 -3.0174  0.6966  0.1379
  317SOL     MW 1268   0.685   1.515   2.641 -0.8819  0.6404  0.2066
  318SOL     OW 1269   1.358   0.327   2.947 -0.2551 -0.0585 -0.4662
  318SOL    HW1 1270   1.268   0.362   2.953  1.7931  2.2225 -0.7289
  318SOL    HW2 1271   1.416   0.404   2.916 -0.8534  2.8209  0.4783
  318SOL     MW 1272   1.354   0.342   2.944 -0.0638  0.6224 -0.3763
  319SOL     OW 1273   0.859   0.357   2.919 -0.2617 -1.1442 -0.5648
  319SOL    HW1 1274   0.813   0.338   2.837  0.1875  2.2592  1.3127
  319SOL    HW2 1275   0.792   0.356   2.989  2.0442  1.5402  3.5834
  319SOL     MW 1276   0.844   0.354   2.917  0.1018 -0.3409  0.2302
  320SOL     OW 1277   1.062   1.375   1.994 -0.1265  0.3642  0.2168
  320SOL    HW1 1278   1.121   1.328   2.056 -0.1319  0.7257  1.4921
  320SOL    HW2 1279   1.133   1.426   1.952  1.8765  1.9305  1.0397
  320SOL     MW 1280   1.079   1.376   1.996  0.1370  0.6185  0.4936
  321SOL     OW 1281   1.122   0.915   3.016 -0.6490  0.1303 -0.4078
  321SOL    HW1 1282   1.056   0.882   2.959  0.5444  0.0275  1.8248
  321SOL    HW2 1283   1.180   0.837   3.001 -1.7342 -2.0181 -1.6824
  321SOL     MW 1284   1.121   0.900   3.007 -0.6347 -0.1667 -0.2814
  322SOL     OW 1285   1.161   0.854   1.663 -0.2434 -0.2478 -0.5910
  322SOL    HW1 1286   1.237   0.792   1.671  1.5785 -1.2098  1.6219
  322SOL    HW2 1287   1.148   0.871   1.758 -0.0673  0.2174  0.0957
  322SOL     MW 1288   1.170   0.848   1.677  0.0202 -0.3133 -0.2085
  323SOL     OW 1289   1.232   1.579   1.886  0.0283  0.4964  0.0077
  323SOL    HW1 1290   1.267   1.584   1.794 -0.2333  2.0124 -0.2132
  323SOL    HW2 1291   1.154   1.641   1.881  0.5808 -0.3879 -1.6570
  323SOL     MW 1292   1.227   1.587   1.873  0.0667  0.5797 -0.2411
  324SOL     OW 1293   1.475   1.034   2.421 -0.4120 -0.2019  0.1478
  324SOL    HW1 1294   1.387   1.071   2.445 -2.9729  2.1245  3.1457
  324SOL    HW2 1295   1.537   1.093   2.460 -1.2718  0.3008  0.8165
  324SOL     MW 1296   1.471   1.047   2.429 -0.8633  0.1713  0.6316
  325SOL     OW 1297   1.112   0.508   2.943  0.0219 -0.3681  0.4423
  325SOL    HW1 1298   1.091   0.549   3.024 -0.2012  1.0263 -1.3335
  325SOL    HW2 1299   1.028   0.479   2.903 -2.2463 -0.0312 -1.0262
  325SOL     MW 1300   1.098   0.510   2.949 -0.3068 -0.1397  0.0142
  326SOL     OW 1301   0.389   1.364   2.315 -0.6317  0.1932  1.0988
  326SOL    HW1 1302   0.461   1.359   2.247 -1.1307  0.4697 -2.5728
  326SOL    HW2 1303   0.384   1.460   2.327 -0.2074 -2.7933 -1.1218
  326SOL     MW 1304   0.398   1.376   2.308 -0.6416 -0.1643  0.3214
  327SOL     OW 1305   1.924   0.781   2.444 -0.0818 -0.1556  0.2907
  327SOL    HW1 1306   1.895   0.766   2.536  0.3708  0.1098 -0.7124
  327SOL    HW2 1307   1.971   0.860   2.435 -1.6587  1.3312 -1.0321
  327SOL     MW 1308   1.926   0.789   2.455 -0.2302  0.0756 -0.0162
  328SOL     OW 1309   0.207   1.304   2.139  0.0389 -1.0242 -0.7312
  328SOL    HW1 1310   0.160   1.222   2.143  0.0837 -1.1716 -0.6857
  328SOL    HW2 1311   0.254   1.320   2.221 -2.2983  1.9594  0.5807
  328SOL     MW 1312   0.207   1.295   2.150 -0.2635 -0.6500 -0.5521
  329SOL     OW 1313   0.017   0.189   1.400 -0.1200 -0.5220 -0.6774
  329SOL    HW1 1314   0.016   0.198   1.498 -1.4595 -0.5056  1.8460
  329SOL    HW2 1315   0.112   0.199   1.396  1.4486  1.5037 -1.7602
  329SOL     MW 1316   0.029   0.191   1.413 -0.0898 -0.2525 -0.4873
  330SOL     OW 1317   0.395   3.043   2.047  0.1683  0.2573  0.4463
  330SOL    HW1 1318   0.453   3.095   2.106  2.1101  0.5669 -0.8982
  330SOL    HW2 1319   0.315   3.022   2.099  1.0749 -0.9345 -1.7180
  330SOL     MW 1320   0.392   3.047   2.062  0.5441  0.1409 -0.0167
  331SOL     OW 1321   0.815   1.255   2.431 -0.4966  0.4937  0.0887
  331SOL    HW1 1322   0.767   1.320   2.380 -0.6951  0.1104 -2.6670
  331SOL    HW2 1323   0.847   1.299   2.510 -0.3780 -0.0226  1.1539
  331SOL     MW 1324   0.813   1.270   2.434 -0.5071  0.3750 -0.1344
  332SOL     OW 1325   1.348   1.645   2.888 -0.0967  0.0444 -0.3249
  332SOL    HW1 1326   1.335   1.665   2.794  0.2321 -0.9300  0.2502
  332SOL    HW2 1327   1.424   1.700   2.908 -1.4787 -0.9043  0.4442
  332SOL     MW 1328   1.357   1.655   2.878 -0.2357 -0.2093 -0.1475
  333SOL     OW 1329   1.751   1.383   2.920 -0.1443  0.0717 -0.6529
  333SOL    HW1 1330   1.845   1.367   2.956  1.8566  1.5998  2.9795
  333SOL    HW2 1331   1.706   1.331   2.988 -0.5667  2.6581 -1.0232
  333SOL     MW 1332   1.757   1.374   2.933  0.0640  0.6146 -0.2225
  334SOL     OW 1333   1.262   3.066   2.556 -0.0286 -0.3469  0.1599
  334SOL    HW1 1334   1.202   3.048   2.630 -2.1583 -0.3062  0.2025
  334SOL    HW2 1335   1.260   3.159   2.552 -1.1892  2.0159  1.3210
  334SOL     MW 1336   1.254   3.076   2.566 -0.4627 -0.0298  0.3187
  335SOL     OW 1337   1.319   0.741   2.962  0.0176 -0.4875  0.4351
  335SOL    HW1 1338   1.360   0.746   3.050  1.3694  2.5566  0.9228
  335SOL    HW2 1339   1.381   0.797   2.897  3.9745  1.3825  1.2081
  335SOL     MW 1340   1.333   0.749   2.965  0.7180  0.1609  0.6015
  336SOL     OW 1341   0.957   1.164   1.831  0.1535 -0.3048 -0.3661
  336SOL    HW1 1342   0.988   1.231   1.901 -1.2768  1.3800  2.0979
  336SOL    HW2 1343   0.998   1.080   1.856 -0.3698  0.0063  0.1863
  336SOL     MW 1344   0.967   1.161   1.844 -0.1042 -0.0414  0.0319
  337SOL     OW 1345   0.634   1.839   2.768 -0.6999  0.5052  0.3492
  337SOL    HW1 1346   0.562   1.792   2.720 -1.5854  1.3467 -0.8306
  337SOL    HW2 1347   0.718   1.791   2.766  0.4294  0.8771 -0.0084
  337SOL     MW 1348   0.636   1.826   2.762 -0.6677  0.6653  0.1464
  338SOL     OW 1349   1.142   0.725   2.564 -0.0371  0.3818 -0.3816
  338SOL    HW1 1350   1.068   0.662   2.581 -0.8639  1.7728  2.0443
  338SOL    HW2 1351   1.212   0.678   2.608 -2.8053  1.3891 -1.2285
  338SOL     MW 1352   1.141   0.710   2.572 -0.5115  0.6982 -0.1732
  339SOL     OW 1353   1.520   1.066   1.824  0.2431  0.0754  0.2424
  339SOL    HW1 1354   1.461   1.084   1.749 -1.5255 -0.3042  0.5532
  339SOL    HW2 1355   1.461   1.029   1.889 -0.4391 -0.6866 -1.1037
  339SOL     MW 1356   1.504   1.063   1.822 -0.0803 -0.0752  0.1058
  340SOL     OW 1357   1.339   1.510   0.033  0.6987 -0.5907 -0.1389
  340SOL    HW1 1358   1.342   1.554  -0.050 -1.7365  0.1082 -0.2874
  340SOL    HW2 1359   1.426   1.487   0.056 -2.4482  0.2435 -0.6420
  340SOL     MW 1360   1.351   1.513   0.025 -0.0378 -0.3884 -0.2249
  341SOL     OW 1361   0.106   1.349   2.739  0.2297 -0.4355  0.3702
  341SOL    HW1 1362   0.200   1.323   2.737 -1.1773 -0.8296 -1.7691
  341SOL    HW2 1363   0.059   1.305   2.666  1.5115  1.9509  0.2316
  341SOL     MW 1364   0.112   1.340   2.729  0.2132 -0.1726  0.0697
  342SOL     OW 1365   1.361   0.362   0.155  0.0135 -0.0992 -0.0110
  342SOL    HW1 1366   1.406   0.440   0.194  2.0366  1.8119  3.6783
  342SOL    HW2 1367   1.369   0.360   0.058 -0.3443  0.1013 -0.2168
  342SOL     MW 1368   1.368   0.372   0.147  0.2332  0.1794  0.4486
  343SOL     OW 1369   0.289   0.305   2.202  0.1309  0.1992  0.6673
  343SOL    HW1 1370   0.281   0.265   2.284  1.1077 -1.2137  1.2071
  343SOL    HW2 1371   0.216   0.262   2.157  1.4942 -0.2019 -1.6937
  343SOL     MW 1372   0.278   0.294   2.207  0.4396 -0.0401  0.4270
  344SOL     OW 1373   1.662   2.049   0.197  0.2302 -0.7049  0.3401
  344SOL    HW1 1374   1.660   2.111   0.123  2.0074  2.5970  1.8873
  344SOL    HW2 1375   1.579   2.008   0.187  4.1374  0.7831  0.2515
  344SOL     MW 1376   1.651   2.052   0.186  0.9802 -0.0729  0.5325
  345SOL     OW 1377   0.705   1.553   2.382 -0.1279  0.0465 -0.5103
  345SOL    HW1 1378   0.632   1.557   2.325  1.7703 -1.6090 -0.5225
  345SOL    HW2 1379   0.780   1.512   2.333 -1.7009 -1.0441 -0.8613
  345SOL     MW 1380   0.706   1.548   2.368 -0.0850 -0.3158 -0.5582
  346SOL     OW 1381   1.752   1.164   0.031  0.3856  0.2900 -0.4919
  346SOL    HW1 1382   1.849   1.152   0.014 -0.9991 -2.8227 -1.0637
  346SOL    HW2 1383   1.729   1.079   0.077 -3.1929  0.9715 -1.4323
  346SOL     MW 1384   1.761   1.151   0.035 -0.2693 -0.0308 -0.6914
  347SOL     OW 1385   1.142   0.707   2.295 -0.1924  0.7864 -0.1650
  347SOL    HW1 1386   1.200   0.633   2.301  1.3861 -0.4456 -0.0074
  347SOL    HW2 1387   1.128   0.724   2.382 -1.8430  2.2243 -1.1488
  347SOL     MW 1388   1.147   0.700   2.307 -0.2019  0.8136 -0.2740
  348SOL     OW 1389   1.304   2.606   1.879  0.5198 -0.5359 -0.0454
  348SOL    HW1 1390   1.323   2.536   1.945 -1.9020 -1.1532  1.7587
  348SOL    HW2 1391   1.357   2.685   1.915  0.2989  1.3292 -1.0384
  348SOL     MW 1392   1.314   2.607   1.893  0.1711 -0.3712  0.0616
  349SOL     OW 1393   1.411   0.198   2.708 -0.2333 -0.6327  0.2544
  349SOL    HW1 1394   1.382   0.238   2.793 -0.7145 -1.1346  2.7408
  349SOL    HW2 1395   1.477   0.129   2.737 -0.2258 -0.9073  0.7670
  349SOL     MW 1396   1.416   0.194   2.723 -0.2958 -0.7351  0.6501
  350SOL     OW 1397   1.811   0.631   2.665 -0.1474  0.2663  0.2181
  350SOL    HW1 1398   1.794   0.563   2.591 -0.8651 -1.4293 -0.4540
  350SOL    HW2 1399   1.889   0.588   2.717  1.0908  1.7819 -4.8410
  350SOL     MW 1400   1.819   0.616   2.662 -0.0788  0.2426 -0.5381
  351SOL     OW 1401   0.077   1.167   1.610  0.1940  0.3686  0.5126
  351SOL    HW1 1402   0.012   1.155   1.680 -0.5538  2.8006 -4.2277
  351SOL    HW2 1403   0.138   1.236   1.654  1.3678 -0.7293  2.0415
  351SOL     MW 1404   0.077   1.174   1.625  0.2502  0.5446  0.0889
  352SOL     OW 1405   0.867   1.675   2.759 -0.2879  0.4042  0.4961
  352SOL    HW1 1406   0.871   1.665   2.860 -1.4288  1.9690  0.0715
  352SOL    HW2 1407   0.794   1.620   2.732  0.4540 -0.1049  0.4928
  352SOL     MW 1408   0.858   1.666   2.769 -0.3405  0.5435  0.4397
  353SOL     OW 1409   0.042   2.518   2.745  0.0787  0.0965  0.3504
  353SOL    HW1 1410   0.124   2.485   2.703  0.9119 -0.3847 -3.6932
  353SOL    HW2 1411   0.048   2.608   2.717 -2.3907 -1.0341 -0.1582
  353SOL     MW 1412   0.053   2.525   2.735 -0.1371 -0.1162 -0.2502
  354SOL     OW 1413   0.301   2.449   0.808  0.0915 -0.6049  0.3920
  354SOL    HW1 1414   0.355   2.467   0.887 -0.1479  1.6734  1.1127
  354SOL    HW2 1415   0.231   2.396   0.833  1.4948  3.1373  0.9349
  354SOL     MW 1416   0.299   2.444   0.822  0.2451  0.1895  0.5588
  355SOL     OW 1417   3.078   2.227   0.335 -0.7369 -0.5167 -0.0159
  355SOL    HW1 1418   2.991   2.178   0.324 -2.6052  1.1024 -3.0258
  355SOL    HW2 1419   3.075   2.271   0.423  2.3972  0.4447 -1.1461
  355SOL     MW 1420   3.066   2.226   0.345 -0.5698 -0.1762 -0.5621
  356SOL     OW 1421   0.842   2.783   0.946  0.1451 -0.4732 -0.5999
  356SOL    HW1 1422   0.877   2.841   0.879 -0.0591 -0.6032 -1.7666
  356SOL    HW2 1423   0.743   2.802   0.933 -1.2609  2.6977 -0.8567
  356SOL     MW 1424   0.833   2.793   0.935 -0.0674 -0.0720 -0.7877
  357SOL     OW 1425   1.780   2.866   0.412  0.0399 -0.2920  0.4591
  357SOL    HW1 1426   1.793   2.790   0.470 -1.2853 -1.3941  0.2545
  357SOL    HW2 1427   1.860   2.862   0.361  1.4714  1.6884  0.6954
  357SOL     MW 1428   1.792   2.856   0.413  0.0539 -0.1761  0.4633
  358SOL     OW 1429   0.459   0.133   1.027 -0.1075 -0.2291  0.0352
  358SOL    HW1 1430   0.543   0.132   0.988 -0.3661  1.4038 -1.3715
  358SOL    HW2 1431   0.410   0.164   0.948  3.2650  2.5415  0.6491
  358SOL     MW 1432   0.464   0.137   1.011  0.3033  0.3519 -0.0694
  359SOL     OW 1433   0.804   2.879   1.876 -0.2424  0.5419 -0.4350
  359SOL    HW1 1434   0.800   2.786   1.891 -1.3348  0.5651  1.9979
  359SOL    HW2 1435   0.842   2.890   1.789  0.0314  1.4345 -1.4441
  359SOL     MW 1436   0.809   2.869   1.867 -0.3504  0.6628 -0.2471
  360SOL     OW 1437   0.569   2.811   0.893 -0.0297 -0.0666 -0.2211
  360SOL    HW1 1438   0.583   2.762   0.809 -0.1191  1.0463 -0.5355
  360SOL    HW2 1439   0.549   2.743   0.961  2.1928 -0.6118 -0.5932
  360SOL     MW 1440   0.568   2.795   0.891  0.2517  0.0083 -0.3116
  361SOL     OW 1441   0.225   2.623   1.344  0.8079  0.3964  0.1333
  361SOL    HW1 1442   0.212   2.685   1.413  1.6803 -0.3403 -0.4948
  361SOL    HW2 1443   0.314   2.640   1.312 -1.1799 -1.5243  1.9273
  361SOL     MW 1444   0.235   2.633   1.349  0.6607  0.0458  0.2871
  362SOL     OW 1445   1.446   2.394   0.651  0.1050  0.0361 -0.4601
  362SOL    HW1 1446   1.479   2.373   0.743  0.8756 -0.9433 -2.3957
  362SOL    HW2 1447   1.476   2.489   0.645 -1.3285 -0.8933  1.0417
  362SOL     MW 1448   1.454   2.404   0.663  0.0175 -0.2158 -0.5173
  363SOL     OW 1449   0.295   3.101   0.649  0.0251 -0.4311  0.5758
  363SOL    HW1 1450   0.280   3.050   0.725 -3.8940 -0.9306  0.6004
  363SOL    HW2 1451   0.210   3.101   0.598  0.5810  0.2520 -0.1527
  363SOL     MW 1452   0.282   3.095   0.652 -0.4186 -0.4068  0.4829
  364SOL     OW 1453   0.725   0.236   0.219  0.1376  0.2905 -0.0139
  364SOL    HW1 1454   0.655   0.173   0.239 -0.6743 -1.7191 -1.2155
  364SOL    HW2 1455   0.688   0.301   0.156  2.0142  1.9024 -1.0795
  364SOL     MW 1456   0.711   0.236   0.213  0.2781  0.2380 -0.3130
  365SOL     OW 1457   0.992   1.983   1.166  0.2554  0.2843 -0.1424
  365SOL    HW1 1458   0.973   2.067   1.119  0.6140 -0.1453  0.2334
  365SOL    HW2 1459   0.937   1.916   1.118 -1.9794  2.5120 -0.3773
  365SOL     MW 1460   0.982   1.985   1.153  0.0079  0.5215 -0.1238
  366SOL     OW 1461   2.958   2.671   0.961  0.5492  0.1630 -0.6200
  366SOL    HW1 1462   3.022   2.696   1.025  1.1959 -0.8349 -2.9887
  366SOL    HW2 1463   3.000   2.688   0.877 -1.1684  0.3946  0.8370
  366SOL     MW 1464   2.972   2.676   0.958  0.4079  0.0619 -0.7403
  367SOL     OW 1465   1.250   2.912   0.863 -0.1412 -0.2787  0.4569
  367SOL    HW1 1466   1.267   2.988   0.809  0.0730 -2.0838 -1.0518
  367SOL    HW2 1467   1.210   2.849   0.805  0.4703 -1.8537 -1.0528
  367SOL     MW 1468   1.247   2.914   0.848 -0.0323 -0.7247  0.0586
  368SOL     OW 1469   1.671   0.341   0.746  0.2276 -0.3932  0.1402
  368SOL    HW1 1470   1.735   0.284   0.704  1.7728  1.9778  0.2089
  368SOL    HW2 1471   1.703   0.430   0.730  0.9416 -0.1899  0.4458
  368SOL     MW 1472   1.683   0.345   0.738  0.5256 -0.0535  0.1895
  369SOL     OW 1473   0.135   2.404   1.780 -0.1475 -0.1277 -0.2711
  369SOL    HW1 1474   0.234   2.409   1.790  2.6957 -1.0307  0.7154
  369SOL    HW2 1475   0.123   2.502   1.780  0.4460  1.2299 -2.1015
  369SOL     MW 1476   0.146   2.418   1.781  0.3060 -0.0677 -0.3825
  370SOL     OW 1477   0.753   0.159   0.904  0.0698 -0.2621  0.1161
  370SOL    HW1 1478   0.784   0.250   0.918  0.7936  0.3164 -1.9922
  370SOL    HW2 1479   0.815   0.098   0.928 -2.4053 -0.3535  1.1681
  370SOL     MW 1480   0.765   0.163   0.909 -0.1613 -0.1978 -0.0233
  371SOL     OW 1481   1.295   2.872   1.508 -0.2875  0.3072 -0.4420
  371SOL    HW1 1482   1.229   2.807   1.483  0.8121  1.0645  1.2937
  371SOL    HW2 1483   1.313   2.918   1.423 -2.1301 -0.7778 -2.9485
  371SOL     MW 1484   1.288   2.870   1.493 -0.3855  0.2640 -0.5437
  372SOL     OW 1485   0.802   2.298   0.464  0.0434  0.4297  0.3852
  372SOL    HW1 1486   0.781   2.211   0.434  2.4541  0.8266  1.0022
  372SOL    HW2 1487   0.852   2.322   0.375 -0.3687  0.6904 -2.9813
  372SOL     MW 1488   0.806   2.290   0.449  0.3071  0.5165  0.0224
  373SOL     OW 1489   2.820   3.026   1.460 -0.0996 -0.3417  0.1335
  373SOL    HW1 1490   2.895   3.001   1.404 -2.1580  2.1772 -1.0358
  373SOL    HW2 1491   2.792   3.118   1.428  0.9922  0.6495  0.9219
  373SOL     MW 1492   2.826   3.035   1.448 -0.2271  0.1215  0.0832
  374SOL     OW 1493   1.503   0.552   0.302  0.4348  0.0131  0.0530
  374SOL    HW1 1494   1.586   0.513   0.286 -0.3534  1.4665 -1.3037
  374SOL    HW2 1495   1.471   0.516   0.382 -0.5019  0.1847 -0.0891
  374SOL     MW 1496   1.510   0.542   0.310  0.2072  0.2275 -0.1447
  375SOL     OW 1497   0.990   2.104   2.254  0.5325 -0.1339  0.5064
  375SOL    HW1 1498   1.040   2.079   2.331 -2.9297  0.9626  0.0232
  375SOL    HW2 1499   0.961   2.032   2.198 -2.5486  1.9977  3.6527
  375SOL     MW 1500   0.993   2.091   2.257 -0.3309  0.2920  0.8578
  376SOL     OW 1501   0.741   2.530   0.049 -0.5764 -0.4768  0.2118
  376SOL    HW1 1502   0.712   2.471   0.112 -1.8924 -1.6020 -4.3078
  376SOL    HW2 1503   0.713   2.470  -0.023 -0.0673 -1.5010  1.2241
  376SOL     MW 1504   0.733   2.514   0.048 -0.6829 -0.7604 -0.2509
  377SOL     OW 1505   1.242   2.045   0.861 -0.4463  0.5726  0.0250
  377SOL    HW1 1506   1.149   2.015   0.838  1.7893  0.7806 -0.2075
  377SOL    HW2 1507   1.250   2.011   0.956 -0.5265 -1.0540  1.7072
  377SOL     MW 1508   1.231   2.036   0.871 -0.1619  0.3854  0.2163
  378SOL     OW 1509   0.912   2.845   1.600  0.0355  0.3129  0.5562
  378SOL    HW1 1510   0.914   2.751   1.591  1.1060 -0.6452 -0.0513
  378SOL    HW2 1511   0.920   2.887   1.511  0.5788  0.2264  1.2232
  378SOL     MW 1512   0.913   2.838   1.587  0.2484  0.1751  0.5641
  379SOL     OW 1513   1.121   1.698   2.191  0.4736 -0.2138 -0.7232
  379SOL    HW1 1514   1.045   1.641   2.185 -1.9447  0.3024 -2.0808
  379SOL    HW2 1515   1.190   1.637   2.181  0.6397 -1.1818 -0.6121
  379SOL     MW 1516   1.120   1.683   2.189  0.1765 -0.2734 -0.8877
  380SOL     OW 1517   0.884   0.130   1.486  0.1697  0.3297 -0.1311
  380SOL    HW1 1518   0.867   0.035   1.462  0.9535  1.0682 -1.2910
  380SOL    HW2 1519   0.937   0.130   1.567 -0.1665 -1.1752  4.0288
  380SOL     MW 1520   0.889   0.117   1.494  0.2287  0.2286  0.2647
  381SOL     OW 1521   0.725   2.058   0.843 -0.1720  0.5667  0.0508
  381SOL    HW1 1522   0.815   2.056   0.810  0.3529  1.0927 -0.1070
  381SOL    HW2 1523   0.724   2.120   0.914 -1.5604 -2.5636 -2.2156
  381SOL     MW 1524   0.737   2.066   0.848 -0.2859  0.2231 -0.2690
  382SOL     OW 1525   0.704   0.130   0.647 -0.1552  0.5898 -0.2506
  382SOL    HW1 1526   0.707   0.139   0.745  0.3403  0.4031  0.2439
  382SOL    HW2 1527   0.692   0.036   0.617  1.1757  1.5177  1.3854
  382SOL     MW 1528   0.703   0.119   0.656  0.0858  0.6876  0.0305
  383SOL     OW 1529   0.560   0.017   0.285 -0.1166 -0.1916  0.2014
  383SOL    HW1 1530   0.585  -0.046   0.215 -0.0280 -0.3775 -1.7058
  383SOL    HW2 1531   0.551  -0.052   0.354  0.0944 -0.7966 -0.7576
  383SOL     MW 1532   0.562  -0.000   0.285 -0.0771 -0.2959 -0.1768
  384SOL     OW 1533   0.737   2.954   0.563  0.3777  0.3196 -0.4574
  384SOL    HW1 1534   0.816   2.951   0.621  2.3631 -0.6375  2.3013
  384SOL    HW2 1535   0.678   2.875   0.586  0.5080  0.3842 -0.3465
  384SOL     MW 1536   0.740   2.943   0.574  0.6569  0.2018 -0.0788
  385SOL     OW 1537   1.404   2.057   1.523  0.0908  0.1513 -0.0389
  385SOL    HW1 1538   1.485   2.094   1.560 -0.0596  1.4107  0.3102
  385SOL    HW2 1539   1.387   2.000   1.605  1.6679 -1.7477  0.3346
  385SOL     MW 1540   1.412   2.055   1.538  0.2790  0.0669  0.0564
  386SOL     OW 1541   1.254   0.388   0.854  0.2198 -0.2824  0.4765
  386SOL    HW1 1542   1.198   0.450   0.908  1.3089  0.7788  0.6976
  386SOL    HW2 1543   1.258   0.309   0.906  1.0872 -0.7808 -1.8042
  386SOL     MW 1544   1.247   0.385   0.868  0.4779 -0.2081  0.2048
  387SOL     OW 1545   0.822   2.221   1.520  0.2890 -0.1764 -0.6895
  387SOL    HW1 1546   0.897   2.279   1.484  0.0592 -2.0975  1.7837
  387SOL    HW2 1547   0.817   2.138   1.468 -2.5225 -0.2174 -0.8998
  387SOL     MW 1548   0.831   2.218   1.508 -0.1123 -0.4353 -0.3909
  388SOL     OW 1549   1.486   2.800   1.264  0.0140 -0.4545 -0.4571
  388SOL    HW1 1550   1.407   2.834   1.233  0.9549  1.3263 -0.5869
  388SOL    HW2 1551   1.494   2.716   1.226  1.5334 -0.2610  3.1928
  388SOL     MW 1552   1.476   2.794   1.255  0.3386 -0.1940  0.0074
  389SOL     OW 1553   0.485   0.178   3.028  0.6593  0.5042  0.6070
  389SOL    HW1 1554   0.538   0.105   2.999  0.4570 -0.2354 -1.3630
  389SOL    HW2 1555   0.466   0.212   2.944 -0.7522 -4.1905 -2.8364
  389SOL     MW 1556   0.489   0.173   3.013  0.4464 -0.2128 -0.1073
  390SOL     OW 1557   1.336   0.040   0.730 -0.1747  0.1274 -0.2188
  390SOL    HW1 1558   1.383   0.044   0.648 -2.0931 -1.4612 -3.7421
  390SOL    HW2 1559   1.395   0.081   0.793 -0.1951 -1.1614 -0.3795
  390SOL     MW 1560   1.350   0.046   0.728 -0.4305 -0.2522 -0.7049
  391SOL     OW 1561   0.372   2.188   1.453  0.2300 -0.7890  0.0253
  391SOL    HW1 1562   0.328   2.105   1.477  2.9207 -0.6266  2.3331
  391SOL    HW2 1563   0.310   2.258   1.477 -0.8213  0.3666 -0.8863
  391SOL     MW 1564   0.358   2.186   1.460  0.4463 -0.6151  0.2095
  392SOL     OW 1565   2.072   2.216   0.301  0.3589  0.0431  0.3330
  392SOL    HW1 1566   2.154   2.211   0.353  1.8035 -0.4421  2.2392
  392SOL    HW2 1567   2.006   2.254   0.364 -0.6303 -0.3137  1.1390
  392SOL     MW 1568   2.074   2.220   0.316  0.4190 -0.0680  0.6908
  393SOL     OW 1569   0.280   2.918   2.773 -0.1045 -0.0354  0.0671
  393SOL    HW1 1570   0.360   2.888   2.736 -0.1017 -1.5769  1.6877
  393SOL    HW2 1571   0.291   3.013   2.770 -1.1601 -1.2997  1.4595
  393SOL     MW 1572   0.292   2.926   2.768 -0.2434 -0.4056  0.4646
  394SOL     OW 1573   0.925   1.741   1.534  0.1414  0.1272  0.4562
  394SOL    HW1 1574   0.875   1.772   1.612  1.8650  1.7570 -1.6695
  394SOL    HW2 1575   0.934   1.820   1.479  1.7046 -3.0010 -2.3135
  394SOL     MW 1576   0.920   1.755   1.537  0.5751 -0.0705 -0.1897
  395SOL     OW 1577   0.943   2.953   2.570 -0.1156  0.4990 -0.4726
  395SOL    HW1 1578   0.994   3.006   2.630 -0.6482  0.0405  0.5805
  395SOL    HW2 1579   1.008   2.883   2.556  1.7327 -0.2419  0.6732
  395SOL     MW 1580   0.958   2.951   2.576  0.0580  0.3408 -0.1825
  396SOL     OW 1581   0.690   1.846   2.410  0.3349 -0.2493  0.2918
  396SOL    HW1 1582   0.770   1.849   2.466 -1.6157 -0.6143 -0.0300
  396SOL    HW2 1583   0.667   1.754   2.406  0.2442 -3.0384  2.1266
  396SOL     MW 1584   0.697   1.834   2.417  0.0656 -0.6654  0.4915
  397SOL     OW 1585   1.039   2.358   1.435 -0.3718 -0.3153  0.5242
  397SOL    HW1 1586   1.061   2.378   1.341 -0.1609 -1.9850 -1.3357
  397SOL    HW2 1587   1.122   2.327   1.473  1.4665  0.2060 -0.3572
  397SOL     MW 1588   1.053   2.357   1.428 -0.1015 -0.4668  0.1626
  398SOL     OW 1589   0.620   2.690   0.637  0.2435 -0.3103 -0.5804
  398SOL    HW1 1590   0.546   2.675   0.583  0.4309  2.6909  1.7405
  398SOL    HW2 1591   0.669   2.610   0.638  1.3664 -0.3515 -0.3404
  398SOL     MW 1592   0.617   2.678   0.630  0.4164  0.0802 -0.2425
  399SOL     OW 1593   0.221   2.113   0.308  0.0043 -0.0189  0.8893
  399SOL    HW1 1594   0.132   2.150   0.318  2.4604  0.4121 -1.2350
  399SOL    HW2 1595   0.248   2.150   0.229  0.2003  0.2463  0.3957
  399SOL     MW 1596   0.213   2.123   0.299  0.3542  0.0730  0.5439
  400SOL     OW 1597   0.563   1.963   0.038 -0.1899 -0.0075 -0.6246
  400SOL    HW1 1598   0.491   2.018   0.023  2.5762 -0.7141 -0.6256
  400SOL    HW2 1599   0.553   1.929   0.124 -0.1995  3.8473 -1.1022
  400SOL     MW 1600   0.552   1.966   0.048  0.1738  0.4079 -0.6877
  401SOL     OW 1601   0.804   2.086   0.089  0.3688  0.8464  0.2266
  401SOL    HW1 1602   0.862   2.014   0.109 -0.3877  1.1597 -2.5323
  401SOL    HW2 1603   0.715   2.048   0.075  1.2927 -3.5350 -0.1970
  401SOL     MW 1604   0.800   2.072   0.090  0.3909  0.3097 -0.1933
  402SOL     OW 1605   0.570   2.990   1.747  0.4005  0.2825 -0.2610
  402SOL    HW1 1606   0.622   2.944   1.820 -0.4443  0.2425  2.5808
  402SOL    HW2 1607   0.614   3.071   1.730  0.3061 -1.0294 -0.8095
  402SOL     MW 1608   0.583   2.994   1.755  0.2766  0.1041  0.0416
  403SOL     OW 1609   0.099   0.404   0.405 -0.0820 -0.2928  0.5610
  403SOL    HW1 1610   0.180   0.445   0.435 -1.1717 -0.9524  2.8730
  403SOL    HW2 1611   0.129   0.379   0.315 -0.1667 -1.2063 -0.8467
  403SOL     MW 1612   0.114   0.406   0.397 -0.2370 -0.5004  0.6803
  404SOL     OW 1613   0.940   2.941   0.737 -0.2760 -0.3333  0.5098
  404SOL    HW1 1614   1.010   2.874   0.733 -0.3252  1.4246  1.6626
  404SOL    HW2 1615   0.977   3.034   0.736 -0.0749  1.3787 -0.4023
  404SOL     MW 1616   0.954   2.944   0.736 -0.2560  0.1245  0.5416
  405SOL     OW 1617   0.521   2.404   1.531 -0.2345  0.5989  0.2661
  405SOL    HW1 1618   0.534   2.479   1.475 -2.2287  1.3890  1.9831
  405SOL    HW2 1619   0.507   2.320   1.483 -1.3135 -0.9893 -0.3320
  405SOL     MW 1620   0.521   2.403   1.517 -0.6400  0.4936  0.4137
  406SOL     OW 1621   0.338   2.411   1.082 -0.4513  0.2405 -0.1522
  406SOL    HW1 1622   0.250   2.432   1.115  0.9561 -1.3668  0.8253
  406SOL    HW2 1623   0.362   2.330   1.128  0.1990 -1.4675 -0.9546
  406SOL     MW 1624   0.329   2.403   1.092 -0.1798 -0.1969 -0.1291
  407SOL     OW 1625   0.032   2.697   1.155 -0.2570 -0.0044 -0.0482
  407SOL    HW1 1626   0.080   2.675   1.239  1.2249 -0.2501  2.7851
  407SOL    HW2 1627   0.098   2.695   1.085 -3.1922 -0.6456 -0.7782
  407SOL     MW 1628   0.047   2.694   1.156 -0.4487 -0.1214  0.2293
  408SOL     OW 1629   2.139   2.119   0.610 -0.0204 -0.5172  0.9601
  408SOL    HW1 1630   2.093   2.171   0.678 -2.0905 -0.0788 -1.7250
  408SOL    HW2 1631   2.081   2.045   0.577  2.0940 -0.6117 -3.3335
  408SOL     MW 1632   2.125   2.116   0.614 -0.0145 -0.4718  0.0394
  409SOL     OW 1633   1.451   0.148   0.969 -0.1127  0.0664  0.2045
  409SOL    HW1 1634   1.524   0.199   1.013 -1.0030  0.0304  1.5362
  409SOL    HW2 1635   1.447   0.069   1.024  1.7837  1.0105  0.3683
  409SOL     MW 1636   1.460   0.144   0.982  0.0200  0.1862  0.4018
  410SOL     OW 1637   1.094   2.417   1.158 -0.1699 -0.2037  0.2853
  410SOL    HW1 1638   1.038   2.456   1.095 -2.0989  0.8701  0.1257
  410SOL    HW2 1639   1.165   2.374   1.114 -0.2219 -0.6309  0.2047
  410SOL     MW 1640   1.096   2.417   1.144 -0.4313 -0.1184  0.2536
  411SOL     OW 1641   1.922   0.018   2.894  0.0152 -0.1036  0.3901
  411SOL    HW1 1642   1.876  -0.027   2.822  1.1216  2.0338 -1.5660
  411SOL    HW2 1643   1.861   0.065   2.952 -0.6331  1.1039 -1.0939
  411SOL     MW 1644   1.908   0.018   2.893  0.0756  0.3377 -0.0638
  412SOL     OW 1645   1.057   2.234   0.607 -0.7895 -0.2057  0.7021
  412SOL    HW1 1646   1.091   2.325   0.631  0.3895 -0.7822 -0.6441
  412SOL    HW2 1647   0.981   2.252   0.558  0.5307 -2.3854  0.7264
  412SOL     MW 1648   1.051   2.248   0.604 -0.4598 -0.5694  0.5277
  413SOL     OW 1649   0.548   2.721   0.030  0.5147 -0.1342  0.5855
  413SOL    HW1 1650   0.626   2.657   0.049 -2.4980  2.7469  2.4396
  413SOL    HW2 1651   0.566   2.776  -0.041  0.4484 -1.8636  1.2137
  413SOL     MW 1652   0.561   2.720   0.023  0.1085  0.0178  0.9130
  414SOL     OW 1653   2.011   3.015   1.161  0.9439 -0.2636  0.1654
  414SOL    HW1 1654   1.954   3.091   1.183 -1.1900  2.5009  1.4611
  414SOL    HW2 1655   2.027   3.022   1.066  0.2897 -0.6384 -0.1110
  414SOL     MW 1656   2.006   3.026   1.151  0.5761  0.0517  0.2999
  415SOL     OW 1657   1.784   2.775   1.087 -0.4722  0.5616 -0.2076
  415SOL    HW1 1658   1.770   2.768   1.183 -0.0964  0.5687  0.9711
  415SOL    HW2 1659   1.823   2.857   1.068  1.6263 -0.4509 -0.8381
  415SOL     MW 1660   1.787   2.785   1.097 -0.1458  0.4289 -0.1353
  416SOL     OW 1661   0.583   1.958   1.349  0.6821 -0.5081  0.2671
  416SOL    HW1 1662   0.531   1.974   1.268 -0.9867 -3.5033  3.3093
  416SOL    HW2 1663   0.561   1.867   1.370  2.5477  2.5099  0.3404
  416SOL     MW 1664   0.573   1.948   1.341  0.7080 -0.5051  0.6782
  417SOL     OW 1665   1.004   2.990   2.053 -0.1034 -0.2667  0.0631
  417SOL    HW1 1666   0.935   3.010   2.108  1.6379  3.7480 -2.0256
  417SOL    HW2 1667   0.953   2.955   1.979 -0.4877 -2.7821  1.0257
  417SOL     MW 1668   0.988   2.988   2.051  0.0757 -0.0689 -0.0855
  418SOL     OW 1669   0.691   2.913   0.162  0.2594 -0.3354  0.1758
  418SOL    HW1 1670   0.751   2.898   0.087 -1.1684 -0.4729 -1.9833
  418SOL    HW2 1671   0.622   2.850   0.136 -0.5673  1.9911  0.0641
  418SOL     MW 1672   0.690   2.903   0.148 -0.0381 -0.0466 -0.1238
  419SOL     OW 1673   0.508   2.633   1.313 -0.1633 -0.1269  0.3441
  419SOL    HW1 1674   0.541   2.714   1.363  3.5060  0.9342  0.6465
  419SOL    HW2 1675   0.563   2.610   1.238 -0.0089  1.7243 -0.6645
  419SOL     MW 1676   0.520   2.641   1.310  0.3412  0.2573  0.2509
  420SOL     OW 1677   0.794   2.215   1.057 -0.2245 -0.1997  0.3734
  420SOL    HW1 1678   0.769   2.248   1.143 -0.2884 -0.0056  0.5459
  420SOL    HW2 1679   0.827   2.288   1.001  1.3796 -0.0322 -2.9578
  420SOL     MW 1680   0.795   2.229   1.061 -0.0213 -0.1520 -0.0433
  421SOL     OW 1681   2.971   0.206   3.086 -0.2263  0.0234  0.4413
  421SOL    HW1 1682   2.931   0.229   3.007  0.7513  0.3836  0.7139
  421SOL    HW2 1683   2.990   0.112   3.083 -0.4684  1.2548 -0.0421
  421SOL     MW 1684   2.968   0.196   3.075 -0.1293  0.2334  0.4135
  422SOL     OW 1685   0.849   2.469   0.965 -0.3641  0.2256  0.0500
  422SOL    HW1 1686   0.860   2.560   0.973 -2.7974 -1.8835 -1.4710
  422SOL    HW2 1687   0.863   2.449   0.873 -0.7410  1.3607 -1.5916
  422SOL     MW 1688   0.852   2.478   0.954 -0.7349  0.0971 -0.3672
  423SOL     OW 1689   1.479   0.074   0.493  0.0743  0.6142  0.1522
  423SOL    HW1 1690   1.470   0.071   0.397  3.4834  0.6819  0.8836
  423SOL    HW2 1691   1.491   0.169   0.506 -1.2980 -2.2639 -1.7012
  423SOL     MW 1692   1.480   0.086   0.482  0.3430  0.2434  0.0042
  424SOL     OW 1693   0.668   2.276   1.296  0.3456 -0.1325  0.6609
  424SOL    HW1 1694   0.590   2.229   1.288  0.6079 -0.2430 -0.0861
  424SOL    HW2 1695   0.704   2.256   1.384 -0.4896 -0.4044  0.1530
  424SOL     MW 1696   0.663   2.267   1.306  0.2700 -0.1830  0.4954
  425SOL     OW 1697   1.722   2.748   2.071  0.4456 -0.3372 -0.3255
  425SOL    HW1 1698   1.724   2.760   1.973  0.0522  0.4481  0.9027
  425SOL    HW2 1699   1.746   2.649   2.090  1.9873 -2.1522  0.5578
  425SOL     MW 1700   1.726   2.737   2.061  0.5971 -0.4730 -0.0469
  426SOL     OW 1701   0.848   1.689   1.947 -0.4511 -0.2054  0.2625
  426SOL    HW1 1702   0.792   1.731   1.871  0.8795  1.3811  3.3494
  426SOL    HW2 1703   0.827   1.756   2.020  0.4011  0.8590 -0.0541
  426SOL     MW 1704   0.838   1.704   1.947 -0.1631  0.1444  0.6280
  427SOL     OW 1705   0.372   1.715   1.861  0.2801 -0.1701 -0.3189
  427SOL    HW1 1706   0.432   1.674   1.804  0.4329 -1.3530  0.5307
  427SOL    HW2 1707   0.331   1.640   1.907 -1.2095 -1.3630  0.5741
  427SOL     MW 1708   0.375   1.699   1.859  0.1037 -0.4836 -0.0890
  428SOL     OW 1709   0.553   2.569   1.027  0.6809  0.3743  0.2027
  428SOL    HW1 1710   0.630   2.522   0.985  1.3664  0.5991  2.3942
  428SOL    HW2 1711   0.482   2.503   1.058 -1.8233 -0.7305 -0.4085
  428SOL     MW 1712   0.554   2.554   1.026  0.4409  0.2582  0.4112
  429SOL     OW 1713   1.236   2.826   1.131  0.0777  0.3633 -0.3955
  429SOL    HW1 1714   1.141   2.809   1.139 -0.3066 -2.4037  0.3171
  429SOL    HW2 1715   1.241   2.868   1.045 -0.9064 -0.4563 -0.5905
  429SOL     MW 1716   1.224   2.830   1.121 -0.1029 -0.1099 -0.3272
  430SOL     OW 1717   1.149   2.717   0.678  0.4118  0.0589  0.2063
  430SOL    HW1 1718   1.152   2.619   0.680 -2.8159 -0.0490 -2.0522
  430SOL    HW2 1719   1.093   2.713   0.595 -2.0216  0.7265 -2.0421
  430SOL     MW 1720   1.142   2.703   0.668 -0.3351  0.1327 -0.3884
  431SOL     OW 1721   0.312   1.962   1.051  0.2508 -0.1276 -0.1619
  431SOL    HW1 1722   0.395   1.928   1.012 -0.8369 -0.9568  0.8138
  431SOL    HW2 1723   0.262   1.998   0.977 -0.7482 -0.5978  2.5352
  431SOL     MW 1724   0.317   1.962   1.036 -0.0245 -0.2990  0.3227
  432SOL     OW 1725   0.095   0.044   1.164 -0.1944 -0.2137 -0.7956
  432SOL    HW1 1726   0.068   0.081   1.247 -1.0216 -2.6362  0.4596
  432SOL    HW2 1727   0.040  -0.033   1.161 -0.5970  1.9681 -0.2494
  432SOL     MW 1728   0.084   0.039   1.175 -0.3567 -0.2454 -0.5580
  433SOL     OW 1729   0.616   2.849   1.473 -0.0250  0.1084  0.0014
  433SOL    HW1 1730   0.591   2.906   1.549  0.4909  2.2565  0.8876
  433SOL    HW2 1731   0.702   2.825   1.497  2.8609  2.2385 -1.5065
  433SOL     MW 1732   0.624   2.853   1.486  0.4238  0.6728 -0.0806
  434SOL     OW 1733   1.575   2.772   1.567 -0.0881  0.5249  0.8173
  434SOL    HW1 1734   1.484   2.801   1.558  0.1793 -0.8749  2.0283
  434SOL    HW2 1735   1.591   2.724   1.486  0.1465 -0.6519  2.1432
  434SOL     MW 1736   1.565   2.769   1.555 -0.0219  0.1850  1.1520
  435SOL     OW 1737   2.786   1.784   0.182 -0.8290 -0.6584 -0.4681
  435SOL    HW1 1738   2.857   1.849   0.167 -1.5984 -0.9812 -0.3410
  435SOL    HW2 1739   2.733   1.789   0.109  0.1869  2.5421  2.9757
  435SOL     MW 1740   2.788   1.793   0.170 -0.7965 -0.2787  0.0030
  436SOL     OW 1741   1.409   2.668   0.417  0.0415  0.6254 -0.5962
  436SOL    HW1 1742   1.465   2.664   0.501 -0.8018  2.2533 -0.0818
  436SOL    HW2 1743   1.396   2.759   0.395  1.8996 -2.5660  0.3769
  436SOL     MW 1744   1.415   2.679   0.425  0.1754  0.4191 -0.3999
  437SOL     OW 1745   0.906   2.990   1.352  0.4475 -0.4009  0.4564
  437SOL    HW1 1746   0.960   3.040   1.294  0.0530 -1.7767 -0.1724
  437SOL    HW2 1747   0.915   2.910   1.303 -2.5652  0.1983  0.7114
  437SOL     MW 1748   0.914   2.986   1.338 -0.0020 -0.5034  0.4071
  438SOL     OW 1749   0.803   2.603   1.907 -0.0520  0.0408 -0.0052
  438SOL    HW1 1750   0.838   2.571   1.994  1.0541  1.0365 -0.5158
  438SOL    HW2 1751   0.765   2.532   1.860  0.0798  2.3207 -0.6375
  438SOL     MW 1752   0.802   2.590   1.912  0.1113  0.4730 -0.1560
  439SOL     OW 1753   1.215   2.098   0.386 -0.4006 -0.4720  0.1645
  439SOL    HW1 1754   1.158   2.132   0.456  0.5356 -1.2935 -1.2695
  439SOL    HW2 1755   1.206   2.165   0.318  1.8813 -1.1617 -2.3761
  439SOL     MW 1756   1.207   2.111   0.386  0.0240 -0.6714 -0.3599
  440SOL     OW 1757   1.708   2.977   3.064 -0.6829 -0.2500  0.3918
  440SOL    HW1 1758   1.665   2.940   3.144 -1.5477 -1.3092 -1.1811
  440SOL    HW2 1759   1.794   2.934   3.071 -0.1671 -1.9873  2.1061
  440SOL     MW 1760   1.714   2.967   3.075 -0.7289 -0.6190  0.4105
  441SOL     OW 1761   0.378   2.697   0.491 -0.0966 -0.1390  0.0482
  441SOL    HW1 1762   0.366   2.669   0.396  0.1401  0.4195 -1.1701
  441SOL    HW2 1763   0.390   2.791   0.479  2.3053 -2.1113  0.6518
  441SOL     MW 1764   0.378   2.706   0.477  0.2515 -0.3255 -0.0329
  442SOL     OW 1765   3.053   2.354   0.593  0.1696  0.1953  0.2655
  442SOL    HW1 1766   3.057   2.441   0.555  0.2533 -4.4231  0.3917
  442SOL    HW2 1767   2.961   2.345   0.626 -0.2913  0.4507  1.2283
  442SOL     MW 1768   3.041   2.364   0.593  0.1198 -0.3804  0.4092
  443SOL     OW 1769   1.485   1.766   1.959  0.2907 -0.1477  0.4882
  443SOL    HW1 1770   1.414   1.703   1.959  0.3694 -0.9722  0.7788
  443SOL    HW2 1771   1.501   1.752   2.051 -1.3330  1.5138 -1.3415
  443SOL     MW 1772   1.478   1.756   1.971  0.0868 -0.0373  0.2852
  444SOL     OW 1773   0.877   2.574   1.567 -0.1239 -0.1032 -0.1092
  444SOL    HW1 1774   0.945   2.507   1.580  1.6735 -1.3303  0.4725
  444SOL    HW2 1775   0.819   2.560   1.643 -3.2380  2.1716 -1.1362
  444SOL     MW 1776   0.878   2.563   1.578 -0.2976  0.0351 -0.1679
  445SOL     OW 1777   1.128   0.102   1.344  0.4526  0.7623  0.5967
  445SOL    HW1 1778   1.057   0.121   1.402 -1.9514 -0.4647 -2.1548
  445SOL    HW2 1779   1.124   0.153   1.262 -0.7897  0.0038 -1.2080
  445SOL     MW 1780   1.118   0.111   1.341 -0.0285  0.5004 -0.0044
  446SOL     OW 1781   2.778   2.857   1.058  0.2840 -0.2521 -0.6956
  446SOL    HW1 1782   2.733   2.906   0.991 -0.8074  0.3134 -1.1305
  446SOL    HW2 1783   2.836   2.791   1.016  0.9828 -0.9478  0.3514
  446SOL     MW 1784   2.780   2.854   1.044  0.2322 -0.2692 -0.6148
  447SOL     OW 1785   0.052   1.994   1.645  0.0212  0.2729 -0.2175
  447SOL    HW1 1786   0.069   1.918   1.704  1.2842 -0.5111 -0.3634
  447SOL    HW2 1787  -0.018   1.964   1.580 -1.0818 -0.0687  1.0975
  447SOL     MW 1788   0.045   1.980   1.644  0.0423  0.1244 -0.0633
  448SOL     OW 1789   1.745   2.420   1.665  0.0903 -0.0899  0.0480
  448SOL    HW1 1790   1.723   2.327   1.652 -2.3827  1.7935 -2.5466
  448SOL    HW2 1791   1.657   2.458   1.660 -2.9844 -0.1811 -1.4484
  448SOL     MW 1792   1.730   2.412   1.663 -0.6417  0.1466 -0.4918
  449SOL     OW 1793   0.884   2.858   0.354 -0.4128 -0.3190  0.4195
  449SOL    HW1 1794   0.822   2.862   0.276 -0.9370 -0.6817  0.9442
  449SOL    HW2 1795   0.844   2.897   0.430  0.6586 -2.0632 -2.1980
  449SOL     MW 1796   0.870   2.863   0.354 -0.3406 -0.5970  0.1434
  450SOL     OW 1797   1.179   2.447   0.717  0.4217  0.2687  0.6604
  450SOL    HW1 1798   1.183   2.426   0.812  0.0974  0.2060  0.4269
  450SOL    HW2 1799   1.270   2.433   0.690  3.5207  0.0218  0.5946
  450SOL     MW 1800   1.191   2.442   0.726  0.7878  0.2279  0.6209
  451SOL     OW 1801   0.571   1.992   1.664 -0.0987  0.1624  0.3521
  451SOL    HW1 1802   0.627   2.069   1.648 -0.0847  1.0363  1.9412
  451SOL    HW2 1803   0.536   1.971   1.576  0.2775 -0.9372 -2.3968
  451SOL     MW 1804   0.574   2.000   1.650 -0.0472  0.1326  0.1991
  452SOL     OW 1805   0.279   2.662   0.057  0.4677 -0.3527  0.5638
  452SOL    HW1 1806   0.367   2.690   0.036  0.9144 -0.6483 -1.9546
  452SOL    HW2 1807   0.222   2.736   0.026 -1.1951  0.4945  0.0348
  452SOL     MW 1808   0.283   2.675   0.050  0.3072 -0.2799  0.1618
  453SOL     OW 1809   0.326   3.019   1.616 -0.2407  0.6635 -0.0193
  453SOL    HW1 1810   0.391   2.980   1.675 -1.6706 -1.2191 -2.9254
  453SOL    HW2 1811   0.388   3.051   1.543 -0.3474  1.2693  0.5762
  453SOL     MW 1812   0.342   3.018   1.614 -0.4435  0.4950 -0.3241
  454SOL     OW 1813   0.970   2.741   1.201 -0.5839 -0.9589 -0.3909
  454SOL    HW1 1814   0.928   2.658   1.202  0.3349 -1.0449  4.7160
  454SOL    HW2 1815   0.931   2.772   1.121 -2.1284 -1.1032 -1.2449
  454SOL     MW 1816   0.959   2.734   1.191 -0.6665 -0.9893  0.1702
  455SOL     OW 1817   1.603   2.843   0.205  0.1557 -0.2660  0.8333
  455SOL    HW1 1818   1.650   2.860   0.288  0.9683 -1.1169 -1.1641
  455SOL    HW2 1819   1.580   2.749   0.197  0.1973 -0.7284  0.6222
  455SOL     MW 1820   1.606   2.833   0.215  0.2684 -0.4393  0.5419
  456SOL     OW 1821   2.735   0.305   1.539  0.0661 -0.1624  0.0916
  456SOL    HW1 1822   2.718   0.234   1.478  0.3446 -2.1876 -0.2468
  456SOL    HW2 1823   2.819   0.356   1.512  2.0742  0.2716  0.7051
  456SOL     MW 1824   2.744   0.302   1.528  0.3678 -0.3724  0.1279
  457SOL     OW 1825   0.877   1.588   3.054 -0.7489 -0.3892 -0.3427
  457SOL    HW1 1826   0.783   1.570   3.060 -0.0971 -0.6277 -1.8093
  457SOL    HW2 1827   0.916   1.571   3.142 -2.8158  0.1780  0.9327
  457SOL     MW 1828   0.870   1.583   3.066 -0.9356 -0.3458 -0.3679
  458SOL     OW 1829   1.394   1.443   0.591 -0.1937 -0.3765  0.5145
  458SOL    HW1 1830   1.325   1.505   0.571 -0.2855  0.3386 -1.5010
  458SOL    HW2 1831   1.395   1.380   0.520 -0.2755  0.1716  0.8379
  458SOL     MW 1832   1.385   1.443   0.579 -0.2166 -0.2098  0.2912
  459SOL     OW 1833   1.518   0.030   0.214  0.4469  0.0458 -0.1008
  459SOL    HW1 1834   1.504  -0.064   0.225  0.6428  0.5299 -2.8398
  459SOL    HW2 1835   1.448   0.051   0.149  1.1494 -0.9559 -3.6398
  459SOL     MW 1836   1.507   0.020   0.207  0.5654 -0.0225 -0.9291
  460SOL     OW 1837   1.774   2.151   0.637 -0.4450 -0.2870  0.2478
  460SOL    HW1 1838   1.690   2.116   0.669 -0.0986  2.9548  1.2784
  460SOL    HW2 1839   1.829   2.076   0.617 -0.2567 -0.8089 -0.8892
  460SOL     MW 1840   1.770   2.137   0.639 -0.3745  0.0718  0.2338
  461SOL     OW 1841   0.432   2.396   0.561  0.5000  0.0478 -0.0657
  461SOL    HW1 1842   0.412   2.483   0.526  0.7770 -0.8692  3.1163
  461SOL    HW2 1843   0.406   2.393   0.657 -0.0693 -1.0587  0.9827
  461SOL     MW 1844   0.426   2.407   0.569  0.4614 -0.2192  0.4925
  462SOL     OW 1845   0.328   0.260   1.244  0.2621 -0.0903 -0.2153
  462SOL    HW1 1846   0.376   0.237   1.162  0.4850  0.3651 -3.1355
  462SOL    HW2 1847   0.402   0.292   1.305  1.2277 -0.1653 -0.1777
  462SOL     MW 1848   0.344   0.261   1.241  0.4189 -0.0401 -0.5956
  463SOL     OW 1849   0.982   0.092   0.682  0.3128 -0.1879 -0.1056
  463SOL    HW1 1850   1.032   0.114   0.601  0.2055 -0.7443  0.7725
  463SOL    HW2 1851   0.884   0.109   0.654 -1.2170 -2.4740 -1.9382
  463SOL     MW 1852   0.975   0.097   0.667  0.0968 -0.5629 -0.2316
  464SOL     OW 1853   0.770   3.036   2.223  0.0193 -0.1337 -0.6425
  464SOL    HW1 1854   0.738   2.947   2.210 -0.4185 -0.2223  0.4516
  464SOL    HW2 1855   0.781   3.039   2.316 -1.4775 -2.9796 -1.3375
  464SOL     MW 1856   0.767   3.024   2.234 -0.2359 -0.5209 -0.5898
  465SOL     OW 1857   0.841   0.267   0.456  0.1545 -0.4233 -0.6532
  465SOL    HW1 1858   0.779   0.229   0.523 -0.3855  0.3307 -2.1081
  465SOL    HW2 1859   0.792   0.277   0.371 -2.2606  1.3916 -0.2103
  465SOL     MW 1860   0.826   0.263   0.453 -0.2354 -0.0844 -0.7867
  466SOL     OW 1861   0.996   2.020   0.775  0.0715  0.2018  0.8083
  466SOL    HW1 1862   1.007   1.942   0.722 -2.3629  1.4592 -0.5697
  466SOL    HW2 1863   1.033   2.094   0.718 -0.3117 -0.1585  1.5241
  466SOL     MW 1864   1.002   2.020   0.761 -0.3002  0.3202  0.7210
  467SOL     OW 1865   1.247   2.291   0.955  0.1341  0.4235 -0.0964
  467SOL    HW1 1866   1.336   2.323   0.936  0.8456  1.4148  0.9538
  467SOL    HW2 1867   1.255   2.193   0.931  1.9133 -0.4493  1.5439
  467SOL     MW 1868   1.259   2.282   0.949  0.4627  0.4391  0.2586
  468SOL     OW 1869   0.445   2.650   1.954  0.5159  0.3451 -0.6773
  468SOL    HW1 1870   0.465   2.583   1.887  2.8129  1.5530 -3.0583
  468SOL    HW2 1871   0.382   2.709   1.908 -1.2106 -3.0478 -0.6337
  468SOL     MW 1872   0.440   2.649   1.939  0.5912  0.0568 -0.9857
  469SOL     OW 1873   0.376   2.123   1.846  0.2249  0.1008 -0.4087
  469SOL    HW1 1874   0.306   2.066   1.884 -0.1247  0.7843  0.3369
  469SOL    HW2 1875   0.444   2.063   1.816  1.9073 -1.9575 -1.9785
  469SOL     MW 1876   0.376   2.107   1.847  0.4007 -0.0806 -0.5174
  470SOL     OW 1877   3.032   2.598   0.166  0.2933  0.0085  0.4881
  470SOL    HW1 1878   2.950   2.579   0.225  1.0859  1.3818  1.8714
  470SOL    HW2 1879   3.009   2.609   0.073  0.8889 -0.0289  0.2081
  470SOL     MW 1880   3.018   2.597   0.161  0.4765  0.1848  0.6337
  471SOL     OW 1881   1.165   2.646   1.421 -0.4036 -0.0185 -0.3034
  471SOL    HW1 1882   1.117   2.618   1.500 -0.0923 -1.2531  1.1490
  471SOL    HW2 1883   1.111   2.644   1.343  2.9488 -1.4691 -3.3234
  471SOL     MW 1884   1.152   2.642   1.421  0.0798 -0.3728 -0.5102
  472SOL     OW 1885   2.836   2.099   0.342  0.5079  0.2821 -0.1904
  472SOL    HW1 1886   2.855   2.053   0.261 -0.0794 -1.0914  2.3160
  472SOL    HW2 1887   2.806   2.026   0.403 -0.8919 -2.8015  0.7811
  472SOL     MW 1888   2.835   2.083   0.339  0.2457 -0.3060  0.2684
  473SOL     OW 1889   0.805   2.560   1.312 -0.0141  0.5504  0.3143
  473SOL    HW1 1890   0.745   2.485   1.304 -3.2153  1.5302 -0.0810
  473SOL    HW2 1891   0.836   2.560   1.404 -3.9145  0.0541  0.8237
  473SOL     MW 1892   0.801   2.550   1.323 -0.9511  0.6142  0.3293
  474SOL     OW 1893   0.838   2.122   1.800 -0.0359  1.2801 -0.4025
  474SOL    HW1 1894   0.918   2.165   1.840 -0.7966  1.3174 -0.4998
  474SOL    HW2 1895   0.856   2.139   1.706 -2.6067 -0.1308 -1.0861
  474SOL     MW 1896   0.851   2.130   1.793 -0.4754  1.0989 -0.5056
  475SOL     OW 1897   1.616   3.067   1.472  0.1805 -0.4307  0.2807
  475SOL    HW1 1898   1.543   3.067   1.411  2.3936  0.5180  2.1428
  475SOL    HW2 1899   1.616   2.984   1.515 -0.0882 -1.4074 -1.8674
  475SOL     MW 1900   1.606   3.056   1.470  0.4371 -0.4344  0.2429
  476SOL     OW 1901   1.404   2.623   1.025 -0.5541 -0.0851  0.4503
  476SOL    HW1 1902   1.342   2.677   1.071 -1.8859 -0.0218  0.5556
  476SOL    HW2 1903   1.446   2.676   0.959  1.2973 -3.3121  0.2147
  476SOL     MW 1904   1.401   2.637   1.023 -0.4856 -0.5025  0.4331
  477SOL     OW 1905   0.797   2.486   0.661  0.0356  0.2492  0.1669
  477SOL    HW1 1906   0.844   2.562   0.623  0.4353  0.1603  0.0765
  477SOL    HW2 1907   0.784   2.417   0.594  0.6288  1.5302 -2.4984
  477SOL     MW 1908   0.801   2.487   0.647  0.1666  0.4065 -0.1967
  478SOL     OW 1909   0.169   2.693   0.915  0.2963  0.2153 -0.3498
  478SOL    HW1 1910   0.230   2.772   0.926  0.7912  4.2635  0.0448
  478SOL    HW2 1911   0.198   2.619   0.868 -1.4171  1.4786 -1.5618
  478SOL     MW 1912   0.181   2.694   0.911  0.1355  0.9161 -0.4576
  479SOL     OW 1913   1.482   1.988   1.251  0.0562  0.7618  0.0985
  479SOL    HW1 1914   1.452   2.011   1.341 -0.7973 -1.4321  2.5046
  479SOL    HW2 1915   1.517   1.899   1.268 -2.6818  1.7525 -0.6979
  479SOL     MW 1916   1.482   1.979   1.265 -0.4176  0.6030  0.3109
  480SOL     OW 1917   1.945   2.421   1.278  0.2791  0.4021  0.2874
  480SOL    HW1 1918   1.897   2.335   1.293 -2.4732  0.2328 -4.5618
  480SOL    HW2 1919   1.983   2.404   1.193  1.3029  4.8401  0.5974
  480SOL     MW 1920   1.944   2.408   1.269  0.0510  0.9653 -0.3115
  481SOL     OW 1921   1.040   3.097   1.048  0.3112 -0.0222  0.6089
  481SOL    HW1 1922   1.092   3.052   0.985 -0.2117 -1.8091  1.2519
  481SOL    HW2 1923   1.104   3.161   1.080 -0.2688 -0.1815 -2.0228
  481SOL     MW 1924   1.055   3.099   1.044  0.1657 -0.2790  0.3465
  482SOL     OW 1925   1.084   3.029   0.269  0.3199  0.2760 -0.0888
  482SOL    HW1 1926   1.022   2.964   0.290  1.1884 -0.6329 -2.5531
  482SOL    HW2 1927   1.092   3.086   0.348 -1.1820  2.1227 -0.7320
  482SOL     MW 1928   1.077   3.028   0.282  0.2363  0.3997 -0.4988
  483SOL     OW 1929   0.431   2.945   0.438  0.2341  0.1472 -0.3913
  483SOL    HW1 1930   0.370   2.963   0.365 -1.1557  0.0388 -0.1179
  483SOL    HW2 1931   0.408   3.000   0.516 -0.1168  1.3101 -0.0445
  483SOL     MW 1932   0.420   2.955   0.439  0.0044  0.2863 -0.3095
  484SOL     OW 1933   1.815   1.900   1.458  0.5324  0.3142  0.0994
  484SOL    HW1 1934   1.838   1.986   1.415  0.5727  1.7677  0.9856
  484SOL    HW2 1935   1.788   1.936   1.544  0.7292  2.7665  0.2447
  484SOL     MW 1936   1.814   1.916   1.464  0.5637  0.8295  0.2355
  485SOL     OW 1937   0.470   2.302   0.218  0.0563  0.5792 -0.8033
  485SOL    HW1 1938   0.485   2.265   0.310  0.9890  0.7631 -1.6089
  485SOL    HW2 1939   0.427   2.387   0.235 -0.0933  1.6051  1.7988
  485SOL     MW 1940   0.466   2.308   0.232  0.1596  0.7388 -0.5663
  486SOL     OW 1941   0.203   2.389   1.479 -0.5103 -0.8180  0.0691
  486SOL    HW1 1942   0.216   2.473   1.436 -0.9848 -1.6940  0.4654
  486SOL    HW2 1943   0.178   2.413   1.567  2.8923  1.2962 -1.8499
  486SOL     MW 1944   0.201   2.403   1.485 -0.1240 -0.6547 -0.1318
  487SOL     OW 1945   1.225   1.662   1.005 -0.2278 -0.3532  0.1610
  487SOL    HW1 1946   1.210   1.747   1.041 -0.2840  1.9536 -1.0394
  487SOL    HW2 1947   1.314   1.674   0.961  0.1099  1.1093 -2.0374
  487SOL     MW 1948   1.235   1.675   1.004 -0.1907  0.1442 -0.2874
  488SOL     OW 1949   1.660   1.877   0.529  0.2131 -0.0103  0.3888
  488SOL    HW1 1950   1.744   1.881   0.472 -0.2079 -0.7534 -0.3604
  488SOL    HW2 1951   1.592   1.933   0.485 -0.2692  0.2539 -1.4144
  488SOL     MW 1952   1.662   1.885   0.516  0.0939 -0.0735  0.0520
  489SOL     OW 1953   0.719   0.776   0.565  0.9259 -0.3466 -0.1296
  489SOL    HW1 1954   0.761   0.689   0.535  3.1759  0.8965 -1.9495
  489SOL    HW2 1955   0.738   0.788   0.656  2.7721  1.7231 -0.8929
  489SOL     MW 1956   0.727   0.766   0.573  1.4664  0.0905 -0.4704
  490SOL     OW 1957   1.477   2.056   0.468 -0.9105 -0.0204  0.2121
  490SOL    HW1 1958   1.516   2.138   0.438  1.9673  2.3343 -0.3330
  490SOL    HW2 1959   1.382   2.066   0.446  0.4602 -1.2268  0.9099
  490SOL     MW 1960   1.470   2.068   0.461 -0.3500  0.1311  0.2323
  491SOL     OW 1961   1.340   2.940   0.354  0.3555 -0.1631 -0.0200
  491SOL    HW1 1962   1.328   2.994   0.431  2.0239 -3.2006  0.1371
  491SOL    HW2 1963   1.263   2.954   0.292  1.8765  0.9953 -2.9920
  491SOL     MW 1964   1.328   2.949   0.356  0.7763 -0.4110 -0.3914
  492SOL     OW 1965   1.505   2.086   0.747 -0.0077  0.3277 -0.4544
  492SOL    HW1 1966   1.492   2.071   0.652  0.1511  0.5349  1.8174
  492SOL    HW2 1967   1.423   2.058   0.782 -0.3376  0.3817  1.8351
  492SOL     MW 1968   1.493   2.080   0.739 -0.0303  0.3622  0.1474
  493SOL     OW 1969   0.202   3.004   0.271 -0.3430 -0.1156 -0.0729
  493SOL    HW1 1970   0.159   3.042   0.346 -0.3775 -1.8429  0.5853
  493SOL    HW2 1971   0.197   3.066   0.199  1.5270  0.1510 -1.1041
  493SOL     MW 1972   0.195   3.017   0.271 -0.1008 -0.3083 -0.1221
  494SOL     OW 1973   0.403   2.422   1.768 -0.0233 -0.7540 -0.5401
  494SOL    HW1 1974   0.424   2.337   1.805 -1.1408  1.3715  0.2414
  494SOL    HW2 1975   0.421   2.420   1.673 -2.1090 -0.6599  2.2791
  494SOL     MW 1976   0.408   2.411   1.760 -0.4459 -0.4611 -0.0650
  495SOL     OW 1977   2.942   1.652   2.624 -0.5677 -0.3284  0.9013
  495SOL    HW1 1978   2.929   1.739   2.586 -0.3787  0.5378 -0.9251
  495SOL    HW2 1979   2.901   1.649   2.706 -1.3759 -1.4276 -1.2338
  495SOL     MW 1980   2.935   1.663   2.630 -0.6494 -0.3592  0.3786
  496SOL     OW 1981   2.944   2.323   2.686  0.2396  0.2672 -0.2172
  496SOL    HW1 1982   2.968   2.247   2.733 -0.4938 -0.7597  1.0092
  496SOL    HW2 1983   2.993   2.396   2.727  1.4631  1.4382  4.1308
  496SOL     MW 1984   2.954   2.322   2.698  0.3043  0.2862  0.5183
  497SOL     OW 1985   1.522   2.294   2.649  0.0764  0.0969  0.1260
  497SOL    HW1 1986   1.510   2.263   2.560 -1.3689  0.7229 -0.2847
  497SOL    HW2 1987   1.485   2.216   2.689  1.4806 -1.0235  0.9693
  497SOL     MW 1988   1.516   2.280   2.643  0.0710  0.0316  0.1831
  498SOL     OW 1989   1.509   2.747   2.345 -0.3399  0.0392 -0.2505
  498SOL    HW1 1990   1.448   2.669   2.360 -1.5747 -1.5138 -1.0575
  498SOL    HW2 1991   1.594   2.724   2.379 -0.5521 -0.0242 -1.1266
  498SOL     MW 1992   1.512   2.734   2.351 -0.5308 -0.1741 -0.4726
  499SOL     OW 1993   0.925   0.093   0.088 -0.2927  0.5609  0.2532
  499SOL    HW1 1994   0.850   0.122   0.141 -0.4248 -2.6482 -4.2255
  499SOL    HW2 1995   0.961   0.029   0.151  1.8893  2.8782 -0.1481
  499SOL     MW 1996   0.920   0.088   0.103 -0.0222  0.4432 -0.3906
  500SOL     OW 1997   1.095   2.550   2.818 -0.4534  0.1110  0.3782
  500SOL    HW1 1998   1.118   2.493   2.895 -0.4463 -0.9720 -2.4353
  500SOL    HW2 1999   1.018   2.595   2.845 -0.1463  1.8995 -0.2600
  500SOL     MW 2000   1.088   2.548   2.831 -0.4120  0.2041 -0.0772
  501SOL     OW 2001   1.767   2.251   3.097  0.3859 -0.9401 -0.1930
  501SOL    HW1 2002   1.744   2.348   3.089  2.0492  2.9540 -2.2059
  501SOL    HW2 2003   1.864   2.248   3.117  0.3446 -1.5756 -0.5806
  501SOL     MW 2004   1.777   2.264   3.098  0.5999 -0.5101 -0.5097
  502SOL     OW 2005   0.131   2.819   3.006  0.6664  0.0540  0.4300
  502SOL    HW1 2006   0.075   2.742   2.975 -0.4010  2.1668 -0.2016
  502SOL    HW2 2007   0.188   2.843   2.933 -0.0472 -0.6249 -0.3784
  502SOL     MW 2008   0.131   2.812   2.992  0.4314  0.2432  0.2400
  503SOL     OW 2009   1.134   2.747   2.132 -0.2245  0.6459 -0.0458
  503SOL    HW1 2010   1.110   2.657   2.100  1.4510 -0.0052 -0.3370
  503SOL    HW2 2011   1.059   2.801   2.117  0.7073 -0.2303  1.8438
  503SOL     MW 2012   1.121   2.742   2.126  0.1195  0.4444  0.1651
  504SOL     OW 2013   0.077   2.707   2.118  0.6518  0.0555  0.2436
  504SOL    HW1 2014   0.106   2.616   2.110 -0.1968  0.1021  2.6216
  504SOL    HW2 2015  -0.008   2.715   2.071 -0.6265  1.3777  0.4760
  504SOL     MW 2016   0.069   2.696   2.111  0.3711  0.2361  0.5880
  505SOL     OW 2017   1.738   2.724   2.824 -0.6270  0.3001 -0.3235
  505SOL    HW1 2018   1.742   2.733   2.730 -3.5838 -0.4051 -0.2356
  505SOL    HW2 2019   1.645   2.751   2.854 -2.0804  0.9602 -0.4165
  505SOL     MW 2020   1.726   2.729   2.816 -1.2089  0.2941 -0.3242
  506SOL     OW 2021   1.569   3.081   2.851 -0.3919  0.0728  0.0004
  506SOL    HW1 2022   1.638   3.067   2.917  0.4248  1.3159 -2.1900
  506SOL    HW2 2023   1.614   3.059   2.767  1.0591  2.4703  0.6829
  506SOL     MW 2024   1.584   3.076   2.848 -0.0927  0.5531 -0.1985
  507SOL     OW 2025   0.913   2.770   2.873  0.4556  0.0442  0.1237
  507SOL    HW1 2026   0.919   2.853   2.833 -1.6606 -4.5576  1.1027
  507SOL    HW2 2027   0.848   2.734   2.818 -3.6389  1.7427  0.4307
  507SOL     MW 2028   0.905   2.776   2.860 -0.3638 -0.3388  0.2934
  508SOL     OW 2029   1.152   2.102   2.500 -0.1033  0.0261  0.2468
  508SOL    HW1 2030   1.204   2.063   2.570  0.9139  0.8048  0.1453
  508SOL    HW2 2031   1.130   2.181   2.531  2.2509 -1.3185  1.3979
  508SOL     MW 2032   1.156   2.107   2.513  0.3415 -0.0485  0.3853
  509SOL     OW 2033   0.695   2.567   2.718 -0.2526  0.0953  0.0126
  509SOL    HW1 2034   0.674   2.508   2.648  2.0187  0.4532  0.8116
  509SOL    HW2 2035   0.612   2.611   2.727  1.5508 -1.1484 -1.3509
  509SOL     MW 2036   0.681   2.565   2.710  0.2850 -0.0215 -0.0619
  510SOL     OW 2037   1.482   2.533   1.676  0.4210  0.2161 -0.1230
  510SOL    HW1 2038   1.510   2.619   1.664 -1.2286 -0.2303  2.4918
  510SOL    HW2 2039   1.420   2.549   1.751 -0.5758  0.4548  2.6683
  510SOL     MW 2040   1.477   2.547   1.684  0.0719  0.1887  0.5903
  511SOL     OW 2041   0.411   2.659   2.431 -0.1225  0.0306  0.0943
  511SOL    HW1 2042   0.488   2.602   2.450 -1.7612  2.8266 -0.0712
  511SOL    HW2 2043   0.439   2.698   2.342 -0.8506 -1.1483 -5.4850
  511SOL     MW 2044   0.425   2.657   2.422 -0.4348  0.2440 -0.6636
  512SOL     OW 2045   1.045   2.033   2.826 -0.4721  0.0868  0.0325
  512SOL    HW1 2046   0.956   2.054   2.856 -0.5039  0.1359 -1.8431
  512SOL    HW2 2047   1.058   1.941   2.853 -0.6560 -0.7687 -1.9999
  512SOL     MW 2048   1.035   2.023   2.834 -0.5006 -0.0196 -0.4831
  513SOL     OW 2049   1.536   2.454   2.301 -0.4770 -0.7155 -0.4181
  513SOL    HW1 2050   1.610   2.478   2.244 -0.4476  0.3023  0.5929
  513SOL    HW2 2051   1.594   2.436   2.373 -0.6924 -0.9165  1.5052
  513SOL     MW 2052   1.553   2.455   2.303 -0.5015 -0.6077 -0.0310
  514SOL     OW 2053   0.294   2.473   2.649  0.0353  0.6776 -0.2885
  514SOL    HW1 2054   0.318   2.542   2.588 -0.5704  0.9513 -3.3221
  514SOL    HW2 2055   0.352   2.485   2.728  1.7758 -1.3152  0.0375
  514SOL     MW 2056   0.305   2.483   2.651  0.1850  0.4508 -0.6457
  515SOL     OW 2057   1.134   2.063   1.935  0.3960  0.0661 -0.9616
  515SOL    HW1 2058   1.103   2.152   1.918  1.4907  1.1651 -0.9464
  515SOL    HW2 2059   1.227   2.071   1.946 -0.3274 -1.3670 -1.0989
  515SOL     MW 2060   1.142   2.075   1.934  0.4450  0.0220 -0.9777
  516SOL     OW 2061   1.448   2.499   3.073  0.1376  0.0351 -0.0294
  516SOL    HW1 2062   1.510   2.469   3.007 -1.6329  0.7788  2.1568
  516SOL    HW2 2063   1.366   2.477   3.025 -0.5719 -2.9108 -1.5019
  516SOL     MW 2064   1.445   2.492   3.058 -0.1896 -0.2555  0.0648
  517SOL     OW 2065   0.576   2.456   2.127  0.2119  0.5997  0.3437
  517SOL    HW1 2066   0.538   2.527   2.072 -0.0805 -0.0591 -0.7481
  517SOL    HW2 2067   0.497   2.386   2.117  1.0445  1.1079 -1.6101
  517SOL     MW 2068   0.560   2.456   2.118  0.2832  0.5798 -0.0581
  518SOL     OW 2069   1.812   0.233   3.071  0.4873 -0.0761 -0.0271
  518SOL    HW1 2070   1.751   0.263   3.006  0.3235  0.9714 -1.9239
  518SOL    HW2 2071   1.772   0.203   3.151  1.4710  2.3946  0.1487
  518SOL     MW 2072   1.798   0.233   3.073  0.5955  0.3881 -0.2542
  519SOL     OW 2073   0.702   2.403   1.744 -0.2139  0.7299 -0.6841
  519SOL    HW1 2074   0.740   2.315   1.740  0.0292 -0.3939  1.1470
  519SOL    HW2 2075   0.636   2.381   1.678  0.6332 -0.8825  1.1009
  519SOL     MW 2076   0.698   2.389   1.735 -0.0701  0.3689 -0.2070
  520SOL     OW 2077   1.276   2.131   2.949  0.1575  0.8519  0.3263
  520SOL    HW1 2078   1.184   2.106   2.912 -1.7166  1.0304  1.4001
  520SOL    HW2 2079   1.297   2.078   3.027 -0.1801  2.9612 -1.5683
  520SOL     MW 2080   1.266   2.121   2.955 -0.1343  1.1538  0.2180
  521SOL     OW 2081   1.710   2.036   2.206 -0.1120  0.9278 -0.1611
  521SOL    HW1 2082   1.752   2.088   2.138 -2.0666  2.2961  0.2759
  521SOL    HW2 2083   1.712   1.946   2.168 -3.4661 -0.0902  0.0234
  521SOL     MW 2084   1.716   2.031   2.192 -0.8124  0.9740 -0.0791
  522SOL     OW 2085   2.861   2.575   2.227 -0.6382  0.0404 -0.0894
  522SOL    HW1 2086   2.928   2.531   2.280 -1.8196 -0.6999 -0.2137
  522SOL    HW2 2087   2.793   2.601   2.284 -0.5149 -1.3549 -2.8753
  522SOL     MW 2088   2.861   2.572   2.242 -0.7778 -0.2413 -0.4734
  523SOL     OW 2089   0.884   1.494   2.157 -0.5565 -0.2697 -0.1418
  523SOL    HW1 2090   0.843   1.541   2.083 -0.5255 -3.4348 -0.8182
  523SOL    HW2 2091   0.947   1.445   2.109 -1.3828 -0.4414 -0.0620
  523SOL     MW 2092   0.887   1.494   2.141 -0.6615 -0.7099 -0.2205
  524SOL     OW 2093   0.694   2.373   2.921  0.5283 -0.5004 -0.0330
  524SOL    HW1 2094   0.692   2.430   2.847  0.5704  1.6299 -0.3931
  524SOL    HW2 2095   0.717   2.287   2.890  1.6977  2.3073 -3.6276
  524SOL     MW 2096   0.697   2.369   2.907  0.6882  0.1511 -0.5548
  525SOL     OW 2097   0.364   2.297   2.083  0.5729 -0.1163 -0.2099
  525SOL    HW1 2098   0.325   2.241   2.156  1.5473  1.9354  1.0165
  525SOL    HW2 2099   0.387   2.234   2.014  0.6891  1.7029  2.7547
  525SOL     MW 2100   0.362   2.281   2.083  0.7168  0.3944  0.3431
  526SOL     OW 2101   0.668   2.094   2.027 -0.2149  0.0681  0.2121
  526SOL    HW1 2102   0.709   2.094   1.943 -2.0855 -1.2740 -0.2927
  526SOL    HW2 2103   0.696   2.172   2.078  0.5523 -0.3876  1.5706
  526SOL     MW 2104   0.677   2.104   2.023 -0.3605 -0.1691  0.3247
  527SOL     OW 2105   1.419   2.018   2.037 -0.6350 -0.3180 -0.6501
  527SOL    HW1 2106   1.376   1.995   2.117 -0.3967 -0.5834  0.3505
  527SOL    HW2 2107   1.428   1.932   1.991 -4.1337 -0.1015 -0.3546
  527SOL     MW 2108   1.414   2.004   2.042 -1.0652 -0.3244 -0.4791
  528SOL     OW 2109   0.631   2.918   2.902 -0.3930 -0.1635  0.6037
  528SOL    HW1 2110   0.667   3.003   2.922  1.1397 -3.4420 -0.7366
  528SOL    HW2 2111   0.598   2.935   2.813  0.2248  1.1586 -0.3818
  528SOL     MW 2112   0.632   2.931   2.893 -0.1093 -0.4216  0.2968
  529SOL     OW 2113   1.040   2.323   1.850 -0.4314  0.6512  0.2276
  529SOL    HW1 2114   1.056   2.329   1.948 -2.8283 -1.2140  3.0186
  529SOL    HW2 2115   1.065   2.403   1.804 -0.1428 -3.3299  0.7726
  529SOL     MW 2116   1.045   2.334   1.857 -0.7096 -0.1201  0.6678
  530SOL     OW 2117   1.195   2.395   2.994  0.3427 -0.5250 -0.1084
  530SOL    HW1 2118   1.171   2.416   3.081 -0.5098 -2.5321  1.4350
  530SOL    HW2 2119   1.242   2.310   2.993 -1.7864 -1.4947  0.2484
  530SOL     MW 2120   1.198   2.387   3.005 -0.0507 -0.9177  0.1423
  531SOL     OW 2121   0.921   1.883   2.576  0.3532  0.3769 -0.0102
  531SOL    HW1 2122   0.964   1.971   2.608  0.8993  1.2370 -0.4736
  531SOL    HW2 2123   0.921   1.820   2.653  0.8797  0.4672  1.5710
  531SOL     MW 2124   0.927   1.887   2.591  0.4947  0.5023  0.1373
  532SOL     OW 2125   1.755   0.291   2.814 -0.0301 -0.0520 -0.3173
  532SOL    HW1 2126   1.771   0.260   2.727 -0.6087 -0.3922 -0.7973
  532SOL    HW2 2127   1.827   0.354   2.828 -1.8012  1.1167  1.8072
  532SOL     MW 2128   1.767   0.295   2.804 -0.3401  0.0573 -0.1003
  533SOL     OW 2129   1.886   2.642   3.073  0.1225 -0.0786  0.1387
  533SOL    HW1 2130   1.865   2.564   3.135  1.7268 -0.0571 -1.0172
  533SOL    HW2 2131   1.813   2.664   3.019 -0.1525 -0.5184  0.1872
  533SOL     MW 2132   1.874   2.634   3.074  0.2979 -0.1338 -0.0074
  534SOL     OW 2133   1.741   2.407   2.544  0.9927  0.6313 -0.4787
  534SOL    HW1 2134   1.674   2.363   2.599  0.1897  1.0854 -0.2351
  534SOL    HW2 2135   1.819   2.425   2.600  1.0523 -1.9263 -0.8275
  534SOL     MW 2136   1.743   2.404   2.559  0.8946  0.3538 -0.4926
  535SOL     OW 2137   1.927   2.363   1.893  0.5562 -0.5769  0.3148
  535SOL    HW1 2138   1.879   2.374   1.810  0.1987 -0.2007 -1.0433
  535SOL    HW2 2139   2.019   2.358   1.867  1.0598 -1.3161 -0.5708
  535SOL     MW 2140   1.933   2.364   1.878  0.5754 -0.6248  0.0188
  536SOL     OW 2141   0.439   1.829   2.090  0.5815 -0.1583 -0.1583
  536SOL    HW1 2142   0.425   1.773   2.009 -0.9216  0.8166 -2.9359
  536SOL    HW2 2143   0.506   1.892   2.075  0.4101  0.8970  1.4216
  536SOL     MW 2144   0.446   1.830   2.078  0.3606  0.1096 -0.3163
  537SOL     OW 2145   1.101   0.209   2.845 -0.0651 -0.1904  0.2746
  537SOL    HW1 2146   1.021   0.236   2.881  2.2750 -1.0849  0.5132
  537SOL    HW2 2147   1.128   0.265   2.773  0.5164 -1.3790  0.6092
  537SOL     MW 2148   1.094   0.220   2.840  0.3203 -0.4652  0.3502
  538SOL     OW 2149   1.353   0.052   3.085  0.4150 -0.3875 -0.1421
  538SOL    HW1 2150   1.352   0.141   3.040  1.3657  0.7424 -0.2152
  538SOL    HW2 2151   1.420   0.007   3.039 -1.5091 -1.7610  0.0764
  538SOL     MW 2152   1.362   0.058   3.073  0.2866 -0.4196 -0.1229
  539SOL     OW 2153   0.745   2.767   2.535  0.9393 -0.0949  0.7982
  539SOL    HW1 2154   0.815   2.833   2.541 -1.1935 -0.8272  2.1119
  539SOL    HW2 2155   0.763   2.701   2.602  2.3899  0.9548  0.5023
  539SOL     MW 2156   0.757   2.767   2.544  0.8493 -0.0530  0.9325
  540SOL     OW 2157   0.394   2.497   2.891 -0.2180  0.0796  0.5173
  540SOL    HW1 2158   0.419   2.550   2.964 -1.4627  1.1052 -0.6159
  540SOL    HW2 2159   0.342   2.430   2.932  2.3911  1.2596 -0.2974
  540SOL     MW 2160   0.390   2.495   2.906 -0.0380  0.3706  0.2603
  541SOL     OW 2161   0.194   2.933   2.223  0.1612 -0.0837  0.2700
  541SOL    HW1 2162   0.162   2.856   2.185  1.7040  3.0504 -1.0006
  541SOL    HW2 2163   0.207   2.920   2.315 -0.8602  0.3460 -2.3369
  541SOL     MW 2164   0.191   2.921   2.230  0.2300  0.3865 -0.2416
  542SOL     OW 2165   1.061   2.315   2.662  0.4600  0.2872  0.2200
  542SOL    HW1 2166   1.039   2.248   2.725 -0.5593  0.2246  0.7265
  542SOL    HW2 2167   1.075   2.396   2.716 -1.1884 -0.5630 -0.5258
  542SOL     MW 2168   1.060   2.317   2.677  0.1080  0.1668  0.1885
  543SOL     OW 2169   1.639   2.444   2.883  0.6336  0.1608 -0.7863
  543SOL    HW1 2170   1.599   2.384   2.818  1.5148 -0.1945 -0.4608
  543SOL    HW2 2171   1.691   2.515   2.847  0.1214  1.3889 -4.0990
  543SOL     MW 2172   1.641   2.445   2.870  0.6823  0.2760 -1.1804
  544SOL     OW 2173   0.703   0.235   2.719  0.1634  0.1226  0.3179
  544SOL    HW1 2174   0.611   0.255   2.746 -1.3777 -0.4964 -0.4457
  544SOL    HW2 2175   0.712   0.172   2.648 -1.2061  0.1707 -1.3035
  544SOL     MW 2176   0.692   0.230   2.713 -0.2207  0.0473  0.0032
  545SOL     OW 2177   1.529   2.167   2.364 -0.5231 -0.0077 -0.0467
  545SOL    HW1 2178   1.513   2.245   2.316  0.0281  1.9027  3.4668
  545SOL    HW2 2179   1.585   2.102   2.303  1.9169 -0.1229  2.8498
  545SOL     MW 2180   1.534   2.169   2.349 -0.1285  0.2291  0.7990
  546SOL     OW 2181   2.949   2.006   0.117 -0.8736  0.3317 -0.1635
  546SOL    HW1 2182   2.939   2.093   0.071 -0.1709  1.2945  2.1851
  546SOL    HW2 2183   3.024   1.969   0.068 -0.6478  1.6663 -1.4347
  546SOL     MW 2184   2.958   2.013   0.105 -0.7511  0.6348 -0.0213
  547SOL     OW 2185   0.185   0.073   0.045 -0.4955  0.7987  0.0129
  547SOL    HW1 2186   0.272   0.081  -0.004 -2.6151  0.3763 -1.8795
  547SOL    HW2 2187   0.117   0.018   0.001 -1.1082  0.9661  2.9206
  547SOL     MW 2188   0.187   0.067   0.033 -0.8560  0.7650  0.1468
  548SOL     OW 2189   0.308   2.533   0.293 -0.0972  0.3376 -0.0788
  548SOL    HW1 2190   0.307   2.572   0.202  3.0239 -2.8660  3.2575
  548SOL    HW2 2191   0.238   2.466   0.300  0.9930  1.0858  0.6216
  548SOL     MW 2192   0.298   2.529   0.282  0.4584  0.0137  0.4538
  549SOL     OW 2193   0.789   1.893   2.130 -0.0482 -0.0010  0.5681
  549SOL    HW1 2194   0.731   1.967   2.095 -2.0922  1.4036  1.1459
  549SOL    HW2 2195   0.767   1.888   2.224  3.4111 -0.6403  1.8202
  549SOL     MW 2196   0.779   1.902   2.138  0.1385  0.0999  0.8095
  550SOL     OW 2197   1.794   1.748   2.536  0.2072 -0.2120 -0.3056
  550SOL    HW1 2198   1.789   1.780   2.446  2.0009  0.7560 -0.0909
  550SOL    HW2 2199   1.800   1.825   2.597  0.6593  1.5383 -2.0407
  550SOL     MW 2200   1.794   1.762   2.532  0.5035  0.1466 -0.5062
  551SOL     OW 2201   0.922   2.294   0.231  0.1781  0.5024 -0.3774
  551SOL    HW1 2202   1.020   2.301   0.214  0.5774  0.2640 -0.3382
  551SOL    HW2 2203   0.875   2.230   0.175  0.7687 -1.0501  4.3868
  551SOL     MW 2204   0.929   2.287   0.221  0.3087  0.2661  0.2564
  552SOL     OW 2205   1.766   1.756   2.260  0.5105 -0.3020 -0.3235
  552SOL    HW1 2206   1.666   1.748   2.267 -3.3952  2.7798  0.8139
  552SOL    HW2 2207   1.806   1.682   2.215 -1.6443 -0.5332  4.1069
  552SOL     MW 2208   1.758   1.745   2.255 -0.2892  0.0741  0.4111
  553SOL     OW 2209   1.277   2.300   1.578  0.0472 -0.7672 -0.2826
  553SOL    HW1 2210   1.297   2.209   1.569  1.1727 -1.3100  2.2703
  553SOL    HW2 2211   1.318   2.348   1.510  0.0548 -2.6264  0.9751
  553SOL     MW 2212   1.285   2.294   1.567  0.1967 -1.0841  0.2202
  554SOL     OW 2213   0.538   2.949   2.650 -0.0649  0.1248 -0.0123
  554SOL    HW1 2214   0.501   3.024   2.594  1.0806  0.1550  0.0038
  554SOL    HW2 2215   0.605   2.903   2.601 -1.2928  2.0068 -2.3384
  554SOL     MW 2216   0.542   2.953   2.636 -0.0758  0.3771 -0.3171
  555SOL     OW 2217   0.621   2.445   2.500 -0.0229 -0.0870  0.4428
  555SOL    HW1 2218   0.581   2.358   2.520  1.8658 -2.1902 -0.0465
  555SOL    HW2 2219   0.692   2.427   2.445  2.0043 -0.2784 -1.0927
  555SOL     MW 2220   0.625   2.431   2.496  0.4938 -0.3897  0.1757
  556SOL     OW 2221   0.972   1.854   0.092  0.3520  0.7826  0.2724
  556SOL    HW1 2222   0.999   1.829   0.005  1.2994 -1.9917 -0.7474
  556SOL    HW2 2223   1.051   1.857   0.140 -0.3404  0.7302 -1.4655
  556SOL     MW 2224   0.986   1.851   0.087  0.3856  0.4096 -0.0915
  557SOL     OW 2225   0.988   2.668   0.486 -0.1757 -0.5204 -0.3360
  557SOL    HW1 2226   1.033   2.598   0.439 -2.0352  2.7349 -0.7847
  557SOL    HW2 2227   0.955   2.727   0.421  4.2011 -0.9502  1.9968
  557SOL     MW 2228   0.990   2.666   0.471  0.1564 -0.1476 -0.0874
  558SOL     OW 2229   0.215   2.320   3.009  0.1992 -0.1228 -0.1062
  558SOL    HW1 2230   0.146   2.284   2.954 -2.1399 -1.2469  1.7335
  558SOL    HW2 2231   0.178   2.357   3.087 -2.5748  0.2573 -0.2006
  558SOL     MW 2232   0.201   2.320   3.012 -0.4754 -0.2210  0.1241
  559SOL     OW 2233   1.070   2.327   2.132  0.2489  0.1654 -0.0730
  559SOL    HW1 2234   1.164   2.310   2.144 -0.9193 -2.7505 -1.0743
  559SOL    HW2 2235   1.023   2.249   2.157 -1.4542  1.5678 -0.3095
  559SOL     MW 2236   1.077   2.315   2.137 -0.1299 -0.0343 -0.2363
  560SOL     OW 2237   1.966   2.882   0.027 -0.1103  0.2980  0.4145
  560SOL    HW1 2238   2.035   2.914  -0.029 -0.1977 -2.5806  1.8772
  560SOL    HW2 2239   1.961   2.786   0.009 -1.4705 -0.9018 -0.7026
  560SOL     MW 2240   1.975   2.874   0.017 -0.3013 -0.2401  0.4601
  561SOL     OW 2241   0.338   2.128   0.057 -0.3077  0.1473  0.4879
  561SOL    HW1 2242   0.297   2.195  -0.001 -1.1245 -1.2378 -1.8813
  561SOL    HW2 2243   0.400   2.175   0.117 -0.6830 -0.0094  1.5583
  561SOL     MW 2244   0.341   2.143   0.057 -0.4650 -0.0561  0.3166
  562SOL     OW 2245   0.701   2.236   2.302 -0.0622  0.1075  0.3564
  562SOL    HW1 2246   0.673   2.317   2.255 -0.5726 -0.9364 -0.3910
  562SOL    HW2 2247   0.788   2.252   2.325  1.3368 -1.5207 -1.4025
  562SOL     MW 2248   0.709   2.249   2.299  0.0550 -0.2450  0.0257
  563SOL     OW 2249   1.237   0.370   0.590 -0.2226  0.9209  0.1505
  563SOL    HW1 2250   1.208   0.286   0.554  0.9344  1.4265 -0.3809
  563SOL    HW2 2251   1.227   0.374   0.683  0.1864  3.1919 -2.0650
  563SOL     MW 2252   1.232   0.359   0.597 -0.0160  1.2872 -0.2120
  564SOL     OW 2253   1.158   2.596   2.364 -0.0936  0.6772 -0.1144
  564SOL    HW1 2254   1.151   2.659   2.296  0.8329 -0.8930  2.3719
  564SOL    HW2 2255   1.166   2.651   2.435 -1.3118  0.1405 -1.2606
  564SOL     MW 2256   1.158   2.612   2.365 -0.1321  0.3992  0.0624
  565SOL     OW 2257   2.765   2.751   2.642 -0.9276 -0.3498 -0.6148
  565SOL    HW1 2258   2.763   2.844   2.621  1.4312 -0.3129 -0.7427
  565SOL    HW2 2259   2.766   2.707   2.554  1.7422  0.0840 -0.6892
  565SOL     MW 2260   2.765   2.757   2.628 -0.2642 -0.2877 -0.6415
  566SOL     OW 2261   2.130   1.835   2.429 -0.0139  0.6187  0.2255
  566SOL    HW1 2262   2.146   1.784   2.352  0.3322  0.0096  0.8966
  566SOL    HW2 2263   2.189   1.918   2.416  2.3878 -0.7401 -1.5322
  566SOL     MW 2264   2.140   1.839   2.417  0.3487  0.3590  0.0821
  567SOL     OW 2265   1.119   2.979   3.072  0.1258  0.2143  0.0307
  567SOL    HW1 2266   1.164   3.063   3.078  0.1172 -1.3085  0.4369
  567SOL    HW2 2267   1.187   2.916   3.052  3.2982 -0.2261  0.0209
  567SOL     MW 2268   1.134   2.982   3.070  0.5432 -0.0448  0.0830
  568SOL     OW 2269   1.616   2.074   2.880 -0.0544  0.2031  0.5565
  568SOL    HW1 2270   1.666   2.144   2.913 -0.7442 -1.8737  0.2705
  568SOL    HW2 2271   1.661   2.042   2.805 -0.6131 -1.8169 -0.9857
  568SOL     MW 2272   1.629   2.079   2.874 -0.2191 -0.3375  0.3153
  569SOL     OW 2273   0.163   2.267   2.501 -0.0748 -0.6249  0.2251
  569SOL    HW1 2274   0.077   2.280   2.459 -0.3640 -2.7092  1.5722
  569SOL    HW2 2275   0.180   2.345   2.554  0.3281  1.0271 -0.3023
  569SOL     MW 2276   0.154   2.279   2.502 -0.0598 -0.6820  0.3333
  570SOL     OW 2277   1.500   0.337   0.516  0.2132 -0.4898  0.3658
  570SOL    HW1 2278   1.406   0.353   0.545 -1.5258  0.6363  1.5028
  570SOL    HW2 2279   1.558   0.342   0.596 -2.6598 -3.5144  2.4991
  570SOL     MW 2280   1.495   0.340   0.531 -0.3953 -0.7403  0.7973
  571SOL     OW 2281   1.357   2.403   2.057 -0.7316 -0.3358  0.8235
  571SOL    HW1 2282   1.391   2.426   2.143 -0.3735  0.1728  1.5528
  571SOL    HW2 2283   1.423   2.339   2.028  1.5037 -2.6044  1.3170
  571SOL     MW 2284   1.370   2.398   2.064 -0.3894 -0.5680  0.9848
  572SOL     OW 2285   1.058   2.607   0.100 -0.1920 -0.0126 -0.4960
  572SOL    HW1 2286   1.021   2.697   0.087 -2.4096  0.9345  0.8767
  572SOL    HW2 2287   0.977   2.548   0.081  1.0824 -2.6808  0.3214
  572SOL     MW 2288   1.042   2.611   0.096 -0.3164 -0.2397 -0.2071
  573SOL     OW 2289   1.183   2.302   0.223  0.5235  0.3995 -0.3202
  573SOL    HW1 2290   1.275   2.287   0.201  1.4762  0.2772  1.1398
  573SOL    HW2 2291   1.177   2.392   0.256 -1.2480 -0.9302 -1.9227
  573SOL     MW 2292   1.195   2.312   0.224  0.4154  0.2080 -0.3390
  574SOL     OW 2293   1.164   2.532   0.334 -0.0384  0.4233  0.1303
  574SOL    HW1 2294   1.240   2.578   0.375 -0.5808 -1.0500 -1.4790
  574SOL    HW2 2295   1.136   2.581   0.259 -1.5261 -1.6032 -1.1248
  574SOL     MW 2296   1.170   2.544   0.329 -0.3062 -0.0385 -0.2476
  575SOL     OW 2297   3.041   2.222   1.783 -0.0592  0.7820 -1.0429
  575SOL    HW1 2298   3.092   2.141   1.767  0.2298 -1.3730  1.6923
  575SOL    HW2 2299   3.101   2.295   1.766 -0.3028 -1.8746  0.8475
  575SOL     MW 2300   3.056   2.221   1.778 -0.0532  0.1471 -0.4326
  576SOL     OW 2301   2.813   1.824   2.028  0.2934  0.0678 -0.1900
  576SOL    HW1 2302   2.857   1.907   2.004 -0.8043  3.0079 -0.1322
  576SOL    HW2 2303   2.714   1.828   2.010  1.6105  1.1867  0.0537
  576SOL     MW 2304   2.806   1.836   2.022  0.3223  0.6033 -0.1502
  577SOL     OW 2305   2.049   0.210   0.093  0.3233  0.7415  0.5650
  577SOL    HW1 2306   1.960   0.230   0.052  0.7054  0.3354 -1.7744
  577SOL    HW2 2307   2.011   0.139   0.151  0.0227 -2.0795 -0.1353
  577SOL     MW 2308   2.032   0.203   0.095  0.3341  0.3157  0.1640
  578SOL     OW 2309   1.926   2.056   2.382  0.1564  0.3379  0.9703
  578SOL    HW1 2310   1.847   2.046   2.320  1.1214  1.1848  1.3659
  578SOL    HW2 2311   1.975   1.975   2.353 -0.8121  1.9475  1.0939
  578SOL     MW 2312   1.922   2.044   2.370  0.1559  0.6620  1.0388
  579SOL     OW 2313   0.950   2.438   2.446  0.0203  0.3250  0.0948
  579SOL    HW1 2314   0.985   2.404   2.529 -0.0057 -3.2120  2.5002
  579SOL    HW2 2315   1.020   2.486   2.405 -1.2182 -3.9702  0.1645
  579SOL     MW 2316   0.964   2.440   2.451 -0.1466 -0.7084  0.4214
  580SOL     OW 2317   0.899   2.819   0.031  0.1017  0.1199  0.1669
  580SOL    HW1 2318   0.975   2.877   0.021 -0.8874  1.1191 -0.8558
  580SOL    HW2 2319   0.886   2.789  -0.060 -0.4347 -0.1903 -1.1660
  580SOL     MW 2320   0.907   2.823   0.018 -0.0996  0.2108 -0.1439
  581SOL     OW 2321   1.147   2.512   1.679  0.1674 -0.1310  0.1282
  581SOL    HW1 2322   1.206   2.561   1.732 -2.1590 -2.2917 -0.5543
  581SOL    HW2 2323   1.202   2.447   1.632  2.2452 -1.9951 -3.3913
  581SOL     MW 2324   1.162   2.510   1.680  0.1346 -0.6621 -0.4262
  582SOL     OW 2325   0.041   2.778   2.695 -0.0120  0.3644  0.4158
  582SOL    HW1 2326   0.008   2.863   2.731  0.4277  1.4546  2.0810
  582SOL    HW2 2327   0.136   2.791   2.697 -0.9086 -0.4629  0.4398
  582SOL     MW 2328   0.050   2.791   2.700 -0.0723  0.3991  0.6387
  583SOL     OW 2329   1.988   2.429   2.666  0.1180  0.1793  0.2961
  583SOL    HW1 2330   2.064   2.457   2.617 -1.8421  1.6471 -0.4635
  583SOL    HW2 2331   1.992   2.337   2.656  0.9715  3.6516 -0.1377
  583SOL     MW 2332   1.999   2.421   2.658 -0.0280  0.8311  0.1386
  584SOL     OW 2333   0.091   1.905   2.210 -0.9311 -0.3246  0.2886
  584SOL    HW1 2334   0.143   1.846   2.261  1.1546  2.8162 -2.5758
  584SOL    HW2 2335   0.138   1.990   2.218 -1.9402  0.9805  0.9338
  584SOL     MW 2336   0.104   1.908   2.218 -0.7891  0.2620 -0.0042
  585SOL     OW 2337   1.564   2.562   0.235 -0.2680  0.5649  0.0281
  585SOL    HW1 2338   1.509   2.553   0.153 -1.2093 -1.2009 -3.2634
  585SOL    HW2 2339   1.501   2.579   0.313 -0.2620  0.6783  1.9582
  585SOL     MW 2340   1.549   2.563   0.235 -0.3914  0.3468 -0.1515
  586SOL     OW 2341   1.411   2.834   2.586  0.5298 -0.7096  0.2797
  586SOL    HW1 2342   1.482   2.810   2.532 -0.0671 -1.3293 -0.2234
  586SOL    HW2 2343   1.375   2.912   2.550 -0.3726  0.4541 -0.3007
  586SOL     MW 2344   1.416   2.841   2.574  0.3320 -0.6378  0.1367
  587SOL     OW 2345   1.374   1.514   2.153  0.2341 -0.0852  0.0099
  587SOL    HW1 2346   1.313   1.464   2.214 -0.2961 -0.5618  0.8337
  587SOL    HW2 2347   1.380   1.468   2.071 -0.0768  0.3191  1.0255
  587SOL     MW 2348   1.367   1.501   2.151  0.1232 -0.0948  0.2526
  588SOL     OW 2349   1.354   2.048   2.690  0.1083 -0.2915  0.0164
  588SOL    HW1 2350   1.364   1.954   2.703 -0.8407  2.2987  0.7551
  588SOL    HW2 2351   1.327   2.084   2.773  0.8090 -1.0250  0.4263
  588SOL     MW 2352   1.352   2.041   2.703  0.0755 -0.0465  0.1679
  589SOL     OW 2353   1.401   2.015   0.065 -0.0147 -0.2403 -0.6987
  589SOL    HW1 2354   1.412   2.104   0.090 -1.5231 -0.2311 -0.2838
  589SOL    HW2 2355   1.347   1.970   0.129 -0.5770 -0.3718 -3.1766
  589SOL     MW 2356   1.395   2.021   0.077 -0.2879 -0.2564 -0.9709
  590SOL     OW 2357   0.509   2.779   2.216 -0.2389 -0.1200 -0.1755
  590SOL    HW1 2358   0.477   2.751   2.133 -2.6176 -1.1244  1.7466
  590SOL    HW2 2359   0.605   2.761   2.222 -1.1427  0.7990  3.5508
  590SOL     MW 2360   0.517   2.773   2.206 -0.6720 -0.1312  0.5697
  591SOL     OW 2361   2.267   0.688   0.033  0.7900  0.0364  0.0253
  591SOL    HW1 2362   2.186   0.723  -0.012  3.1570 -1.4903  0.2881
  591SOL    HW2 2363   2.332   0.701  -0.037 -4.3755 -1.2128 -2.5669
  591SOL     MW 2364   2.265   0.695   0.018  0.4208 -0.3299 -0.2820
  592SOL     OW 2365   1.742   2.939   0.767  0.3626  0.2622 -0.5463
  592SOL    HW1 2366   1.737   2.994   0.693 -1.1336 -1.1930  1.0643
  592SOL    HW2 2367   1.833   2.934   0.796 -1.3386  0.7486  0.9756
  592SOL     MW 2368   1.753   2.946   0.761 -0.0593  0.1344 -0.1330
  593SOL     OW 2369   1.953   0.649   0.856  0.0228  0.2856  0.1317
  593SOL    HW1 2370   1.884   0.657   0.791 -0.2109  3.2860  0.4171
  593SOL    HW2 2371   1.996   0.569   0.827  0.9638  1.5644 -1.1423
  593SOL     MW 2372   1.949   0.640   0.844  0.1161  0.8502  0.0012
  594SOL     OW 2373   2.783   1.130   1.380 -0.1082 -0.4579  0.5913
  594SOL    HW1 2374   2.880   1.144   1.373  3.6721  0.5982  2.6571
  594SOL    HW2 2375   2.767   1.064   1.314 -0.1595 -0.1973 -1.7620
  594SOL     MW 2376   2.794   1.123   1.371  0.3838 -0.2842  0.5534
  595SOL     OW 2377   0.481   0.965   0.826 -0.1234 -0.4927  0.0969
  595SOL    HW1 2378   0.514   0.986   0.736  0.8757  1.6099  0.3433
  595SOL    HW2 2379   0.502   1.037   0.891 -1.4000 -0.8926  5.3107
  595SOL     MW 2380   0.488   0.977   0.823 -0.1600 -0.2681  0.8173
  596SOL     OW 2381   2.441   1.332   0.559  0.5460  0.0756 -0.2677
  596SOL    HW1 2382   2.498   1.399   0.522 -1.6486  0.1930  0.0658
  596SOL    HW2 2383   2.496   1.295   0.628 -1.8897  2.1197 -2.2651
  596SOL     MW 2384   2.456   1.336   0.563 -0.0649  0.3608 -0.4872
  597SOL     OW 2385   2.180   0.679   1.624 -0.2485  0.3320 -0.4180
  597SOL    HW1 2386   2.208   0.611   1.686 -2.9817  0.3281 -2.2164
  597SOL    HW2 2387   2.109   0.627   1.575 -1.4142 -1.8837  0.2298
  597SOL     MW 2388   2.175   0.663   1.626 -0.7629  0.0391 -0.5698
  598SOL     OW 2389   2.560   1.031   2.829  0.1857  0.1933  0.6315
  598SOL    HW1 2390   2.545   0.982   2.747  0.8739  0.3506  0.0323
  598SOL    HW2 2391   2.655   1.041   2.837  1.7254 -0.7999  1.4391
  598SOL     MW 2392   2.570   1.025   2.819  0.4796  0.0830  0.6590
  599SOL     OW 2393   2.981   0.400   2.088  0.1703 -0.2961  0.5301
  599SOL    HW1 2394   3.027   0.408   2.174 -1.7253  2.4079 -0.2285
  599SOL    HW2 2395   2.998   0.483   2.041  1.6911 -0.4336  1.5222
  599SOL     MW 2396   2.990   0.412   2.093  0.1209  0.0426  0.5609
  600SOL     OW 2397   1.820   1.640   0.898 -0.2402 -0.0170 -0.4625
  600SOL    HW1 2398   1.892   1.687   0.942 -0.2836  0.2725  0.3894
  600SOL    HW2 2399   1.763   1.717   0.876 -1.5678  0.4988  1.3091
  600SOL     MW 2400   1.822   1.656   0.901 -0.4211  0.0893 -0.1164
  601SOL     OW 2401   2.545   0.754   0.818  0.3697 -0.5785  0.0415
  601SOL    HW1 2402   2.531   0.753   0.916 -1.5691 -3.2019 -1.4315
  601SOL    HW2 2403   2.465   0.705   0.786 -1.2997 -1.2737 -0.8185
  601SOL     MW 2404   2.533   0.747   0.826 -0.1064 -1.0163 -0.2663
  602SOL     OW 2405   2.294   1.932   0.748  0.2629 -0.4039  0.3661
  602SOL    HW1 2406   2.277   1.834   0.746  0.7444 -0.7517 -0.8211
  602SOL    HW2 2407   2.233   1.967   0.684 -0.1605  0.5372 -0.2220
  602SOL     MW 2408   2.284   1.924   0.739  0.2706 -0.3256  0.1319
  603SOL     OW 2409   3.041   1.396   1.958 -1.0518 -0.0754  0.0202
  603SOL    HW1 2410   3.112   1.458   1.991 -0.4198 -0.8355  1.0792
  603SOL    HW2 2411   3.080   1.306   1.965  0.5085  0.7876  0.4367
  603SOL     MW 2412   3.056   1.392   1.963 -0.7625 -0.0619  0.2149
  604SOL     OW 2413   2.065   1.489   0.456 -0.3405  0.4566 -0.1588
  604SOL    HW1 2414   2.135   1.429   0.500  0.2293 -0.2544  3.1022
  604SOL    HW2 2415   2.007   1.510   0.524  1.7754 -0.2115 -1.1726
  604SOL     MW 2416   2.066   1.484   0.471  0.0139  0.2746  0.1377
  605SOL     OW 2417   2.535   1.474   0.892  0.0303 -0.3561 -0.4084
  605SOL    HW1 2418   2.524   1.528   0.815 -1.2824 -2.5108  1.9370
  605SOL    HW2 2419   2.535   1.385   0.862 -0.2146  1.9520 -2.5186
  605SOL     MW 2420   2.533   1.469   0.878 -0.1752 -0.3359 -0.3773
  606SOL     OW 2421   2.536   1.774   2.017 -0.1702  0.5943 -0.6933
  606SOL    HW1 2422   2.445   1.773   1.990 -0.5971  0.5194  1.7829
  606SOL    HW2 2423   2.560   1.688   1.991 -0.7037  0.7947 -1.4105
  606SOL     MW 2424   2.527   1.762   2.010 -0.2969  0.6108 -0.4612
  607SOL     OW 2425   2.396   0.984   3.039  0.0043 -1.0833  0.1795
  607SOL    HW1 2426   2.461   1.005   2.974 -1.4553 -1.1391 -2.2463
  607SOL    HW2 2427   2.441   0.987   3.128 -2.0759 -1.3654  2.0035
  607SOL     MW 2428   2.410   0.987   3.042 -0.4627 -1.1279  0.1001
  608SOL     OW 2429   1.853   0.269   0.557 -0.0817 -0.3201 -0.3179
  608SOL    HW1 2430   1.830   0.346   0.510  3.2356 -1.2727  0.9275
  608SOL    HW2 2431   1.823   0.187   0.514 -2.8686 -3.7902 -1.9338
  608SOL     MW 2432   1.846   0.269   0.545 -0.0117 -0.9036 -0.3668
  609SOL     OW 2433   2.126   1.935   3.037  0.3227 -0.6065 -0.8709
  609SOL    HW1 2434   2.041   1.888   3.011 -1.7807 -0.1566 -1.7336
  609SOL    HW2 2435   2.140   1.923   3.131  1.1522  0.0930  0.0791
  609SOL     MW 2436   2.117   1.927   3.046  0.1546 -0.4548 -0.8594
  610SOL     OW 2437   1.823   0.936   1.230 -0.5747  0.1718  0.0956
  610SOL    HW1 2438   1.819   0.854   1.186  1.4448  0.8000 -0.4093
  610SOL    HW2 2439   1.738   0.975   1.206  1.4384 -0.4387  0.8269
  610SOL     MW 2440   1.811   0.930   1.221 -0.0426  0.1742  0.1255
  611SOL     OW 2441   2.503   1.652   0.683 -0.1620  0.1027  0.1967
  611SOL    HW1 2442   2.511   1.714   0.609 -0.3460 -2.0108  0.2430
  611SOL    HW2 2443   2.416   1.670   0.711 -0.0044  0.7818 -1.4502
  611SOL     MW 2444   2.492   1.662   0.677 -0.1655 -0.0866 -0.0145
  612SOL     OW 2445   2.829   2.915   0.378 -0.0305  0.5117  0.1749
  612SOL    HW1 2446   2.876   2.943   0.462  1.9799  3.7357  0.5931
  612SOL    HW2 2447   2.913   2.902   0.329  1.1737  0.9565 -0.7316
  612SOL     MW 2448   2.847   2.917   0.383  0.3937  0.9958  0.1105
  613SOL     OW 2449   1.458   1.049   0.930  0.4189 -0.3950  0.3196
  613SOL    HW1 2450   1.499   1.126   0.973 -0.0263  0.6526 -1.7744
  613SOL    HW2 2451   1.480   0.983   0.995  0.2702  0.9843 -1.6797
  613SOL     MW 2452   1.467   1.051   0.944  0.3406 -0.0748 -0.2205
  614SOL     OW 2453   1.996   0.487   1.501  0.1363 -0.4820  0.4501
  614SOL    HW1 2454   2.004   0.430   1.585  0.3889  0.5318 -1.6620
  614SOL    HW2 2455   1.939   0.438   1.436  0.2027  1.7773 -2.0910
  614SOL     MW 2456   1.990   0.473   1.504  0.1784 -0.0502 -0.1638
  615SOL     OW 2457   2.347   0.729   0.285  0.6855 -0.1877  0.2061
  615SOL    HW1 2458   2.395   0.650   0.303  0.8852 -0.8486 -1.5644
  615SOL    HW2 2459   2.309   0.716   0.190 -2.3111  0.3213 -1.9955
  615SOL     MW 2460   2.349   0.717   0.275  0.3165 -0.2077 -0.3180
  616SOL     OW 2461   2.506   0.452   1.663 -0.4295 -0.0278 -0.0845
  616SOL    HW1 2462   2.562   0.406   1.605  0.7589  3.8949 -0.0288
  616SOL    HW2 2463   2.457   0.509   1.601 -0.8088 -2.7716  0.3236
  616SOL     MW 2464   2.507   0.453   1.647 -0.3228  0.1277 -0.0233
  617SOL     OW 2465   2.849   0.605   1.696  0.1376 -0.0659 -0.0477
  617SOL    HW1 2466   2.778   0.627   1.754  0.0423  1.9861  0.6073
  617SOL    HW2 2467   2.858   0.514   1.710 -2.9623  2.7402  2.9646
  617SOL     MW 2468   2.841   0.596   1.706 -0.2840  0.5750  0.4361
  618SOL     OW 2469   2.723   0.388   1.997  0.0866  0.2816  0.0700
  618SOL    HW1 2470   2.693   0.469   1.965  0.3554 -1.0966  1.8435
  618SOL    HW2 2471   2.809   0.412   2.033  2.2765 -1.3601 -0.8201
  618SOL     MW 2472   2.730   0.402   1.998  0.4110 -0.1168  0.1866
  619SOL     OW 2473   2.667   0.711   0.056 -0.6394 -0.2689  0.3111
  619SOL    HW1 2474   2.699   0.798   0.074 -0.9200  0.8046 -0.4462
  619SOL    HW2 2475   2.624   0.670   0.135  1.1906  0.9037  1.3381
  619SOL     MW 2476   2.666   0.717   0.069 -0.4350  0.0274  0.3467
  620SOL     OW 2477   2.248   1.082   0.940 -0.1316  0.3191  0.3028
  620SOL    HW1 2478   2.336   1.092   0.908  0.7206  0.6226  2.2573
  620SOL    HW2 2479   2.194   1.022   0.887  1.2348  0.2829  2.5230
  620SOL     MW 2480   2.253   1.075   0.929  0.1611  0.3544  0.8536
  621SOL     OW 2481   1.555   2.236   1.935 -0.1625  0.1514  0.0694
  621SOL    HW1 2482   1.512   2.155   1.964 -4.0952  0.6977 -0.1308
  621SOL    HW2 2483   1.647   2.230   1.964  0.3186 -2.2897  0.2386
  621SOL     MW 2484   1.561   2.224   1.943 -0.6179 -0.0986  0.0653
  622SOL     OW 2485   2.650   0.236   0.252 -0.2776  0.1198 -0.0162
  622SOL    HW1 2486   2.742   0.277   0.254  0.4055  1.5952  1.7785
  622SOL    HW2 2487   2.660   0.148   0.286 -1.0828  0.1656  1.3970
  622SOL     MW 2488   2.663   0.230   0.257 -0.2937  0.3205  0.4070
  623SOL     OW 2489   2.433   2.745   0.865 -0.0187  0.3745  0.0138
  623SOL    HW1 2490   2.495   2.814   0.858 -0.8638  0.0702  1.0219
  623SOL    HW2 2491   2.357   2.771   0.919  3.7045  0.3164  0.2268
  623SOL     MW 2492   2.431   2.758   0.871  0.3610  0.3267  0.1749
  624SOL     OW 2493   2.151   1.608   3.030 -0.0753  0.1096  0.1192
  624SOL    HW1 2494   2.112   1.518   3.048  1.3514  0.3760 -2.7877
  624SOL    HW2 2495   2.082   1.648   2.988 -0.6869 -0.9332 -0.5806
  624SOL     MW 2496   2.137   1.602   3.027  0.0323  0.0072 -0.3567
  625SOL     OW 2497   2.204   1.946   1.106 -0.0549  0.3168  0.3822
  625SOL    HW1 2498   2.257   1.885   1.159  0.2090 -0.2017  1.6079
  625SOL    HW2 2499   2.273   1.979   1.050  1.2305  1.3888  0.7386
  625SOL     MW 2500   2.220   1.942   1.105  0.1495  0.3899  0.5909
  626SOL     OW 2501   0.230   1.791   2.472 -0.4900  0.1615  0.3025
  626SOL    HW1 2502   0.173   1.717   2.504  0.5733 -1.1477  2.9575
  626SOL    HW2 2503   0.175   1.873   2.489  1.5483 -0.4274  1.5657
  626SOL     MW 2504   0.215   1.792   2.479 -0.0808 -0.0890  0.8195
  627SOL     OW 2505   2.540   0.774   2.567 -0.0514  0.2908  0.3070
  627SOL    HW1 2506   2.490   0.854   2.576  0.9209  0.4901  0.1474
  627SOL    HW2 2507   2.512   0.747   2.480  1.7231  1.4294  0.9453
  627SOL     MW 2508   2.529   0.781   2.557  0.3110  0.4673  0.3701
  628SOL     OW 2509   2.236   1.337   1.305  0.0384 -0.4167 -0.3100
  628SOL    HW1 2510   2.220   1.252   1.260  0.0258 -0.8747 -1.5409
  628SOL    HW2 2511   2.328   1.364   1.272  3.3066 -0.5517  0.2093
  628SOL     MW 2512   2.246   1.329   1.295  0.4679 -0.4950 -0.4039
  629SOL     OW 2513   1.851   0.470   1.260 -0.8508 -0.5646  0.3905
  629SOL    HW1 2514   1.855   0.555   1.210  1.1621  2.7007  0.5519
  629SOL    HW2 2515   1.760   0.447   1.266 -0.6123 -0.3655  0.8543
  629SOL     MW 2516   1.839   0.479   1.254 -0.5537 -0.1075  0.4730
  630SOL     OW 2517   2.405   1.863   3.008  0.3728 -0.1259 -0.3837
  630SOL    HW1 2518   2.412   1.929   2.943 -1.4736  0.2575 -1.7378
  630SOL    HW2 2519   2.311   1.846   3.019 -2.1889 -0.6033 -1.1714
  630SOL     MW 2520   2.394   1.869   3.001 -0.2088 -0.1383 -0.6663
  631SOL     OW 2521   2.015   1.677   1.554  0.6829  0.0729 -0.2095
  631SOL    HW1 2522   2.010   1.601   1.621  1.2289 -1.6478  1.5811
  631SOL    HW2 2523   1.932   1.697   1.525  1.6669  0.0929  1.0785
  631SOL     MW 2524   2.003   1.670   1.559  0.8848 -0.1515  0.1967
  632SOL     OW 2525   0.262   1.952   1.465 -0.4063  0.1933  0.6485
  632SOL    HW1 2526   0.187   1.938   1.530  2.8407  0.4692 -1.5882
  632SOL    HW2 2527   0.271   1.868   1.427  1.6955 -1.7167  2.7779
  632SOL     MW 2528   0.253   1.939   1.469  0.2994 -0.0223  0.6343
  633SOL     OW 2529   2.553   0.532   0.290  0.7120 -0.1418 -0.1066
  633SOL    HW1 2530   2.598   0.540   0.377  0.4706  1.2767 -0.7076
  633SOL    HW2 2531   2.572   0.449   0.252  3.8835 -0.5026  3.8118
  633SOL     MW 2532   2.562   0.522   0.296  1.0986 -0.0022  0.3311
  634SOL     OW 2533   2.713   3.065   0.636  0.1166 -0.4935 -0.3320
  634SOL    HW1 2534   2.730   3.156   0.643  2.4042 -3.0870 -1.0291
  634SOL    HW2 2535   2.669   3.053   0.553 -0.3636 -1.5660 -1.1984
  634SOL     MW 2536   2.710   3.075   0.626  0.3551 -0.9772 -0.5383
  635SOL     OW 2537   2.584   0.132   1.838 -0.0680 -0.1537  0.7409
  635SOL    HW1 2538   2.654   0.077   1.797  1.1212 -1.1161  0.2346
  635SOL    HW2 2539   2.607   0.224   1.844 -1.3723 -3.4281  0.0003
  635SOL     MW 2540   2.596   0.137   1.833 -0.0832 -0.7127  0.5764
  636SOL     OW 2541   2.787   1.588   0.861 -0.0839  0.3617 -0.0703
  636SOL    HW1 2542   2.717   1.538   0.909  2.7664  0.0187  1.9772
  636SOL    HW2 2543   2.764   1.678   0.871  0.5370 -0.6742  0.0631
  636SOL     MW 2544   2.774   1.593   0.869  0.3741  0.1798  0.2174
  637SOL     OW 2545   2.888   1.522   0.624 -0.1764  0.2509  0.5725
  637SOL    HW1 2546   2.945   1.600   0.613 -0.8376  1.8185 -2.6549
  637SOL    HW2 2547   2.834   1.549   0.698  1.4811 -1.5999  0.6114
  637SOL     MW 2548   2.889   1.536   0.633 -0.0449  0.2136  0.1518
  638SOL     OW 2549   2.709   0.519   0.526 -0.2799 -0.2601  0.3586
  638SOL    HW1 2550   2.795   0.531   0.482 -1.4180 -0.3736 -1.2900
  638SOL    HW2 2551   2.723   0.536   0.623  1.4697 -0.5159  2.3172
  638SOL     MW 2552   2.722   0.523   0.533 -0.1992 -0.3088  0.3995
  639SOL     OW 2553   1.746   0.021   0.512  0.8172 -0.4264  0.2020
  639SOL    HW1 2554   1.650   0.044   0.498  2.2661 -2.0328 -0.0804
  639SOL    HW2 2555   1.745  -0.071   0.473 -2.1923 -0.8105 -0.7606
  639SOL     MW 2556   1.733   0.012   0.505  0.6113 -0.6890  0.0378
  640SOL     OW 2557   0.310   1.331   0.082  0.4301 -0.3126  0.1213
  640SOL    HW1 2558   0.354   1.331  -0.005 -0.1298 -0.2678 -1.4588
  640SOL    HW2 2559   0.316   1.237   0.105 -1.9582  0.5919  4.9303
  640SOL     MW 2560   0.317   1.318   0.073  0.0411 -0.1874  0.5474
  641SOL     OW 2561   2.222   0.427   0.404 -0.0394 -0.4524 -0.5524
  641SOL    HW1 2562   2.216   0.388   0.319  2.1972  1.1323  1.8906
  641SOL    HW2 2563   2.303   0.377   0.431 -0.3043  0.7020  0.3078
  641SOL     MW 2564   2.232   0.415   0.396  0.2207 -0.0910 -0.1166
  642SOL     OW 2565   0.081   0.013   0.490  0.2195  0.6960  0.0679
  642SOL    HW1 2566   0.020   0.088   0.519 -0.2997 -0.8933 -1.1528
  642SOL    HW2 2567   0.018  -0.051   0.516 -1.6680  2.2574  0.6056
  642SOL     MW 2568   0.064   0.014   0.498 -0.0981  0.6923 -0.0222
  643SOL     OW 2569   2.007   0.331   1.714  0.3712 -0.1904 -0.9212
  643SOL    HW1 2570   1.931   0.309   1.774  3.5404  1.4953  0.3814
  643SOL    HW2 2571   2.022   0.247   1.665 -0.0697  0.1732 -0.9931
  643SOL     MW 2572   1.999   0.317   1.715  0.7312  0.0800 -0.7588
  644SOL     OW 2573   2.682   1.851   0.994  0.0491 -0.3488 -0.0927
  644SOL    HW1 2574   2.707   1.788   1.063  1.1518  0.7185 -1.5425
  644SOL    HW2 2575   2.587   1.835   0.988 -1.2418  0.4862 -0.5457
  644SOL     MW 2576   2.673   1.841   1.003  0.0243 -0.0978 -0.3437
  645SOL     OW 2577   2.829   0.833   0.738  0.6506 -0.3584  0.5178
  645SOL    HW1 2578   2.878   0.749   0.736 -0.8419  1.2548 -1.6380
  645SOL    HW2 2579   2.740   0.816   0.765 -1.2938  1.5195 -0.6761
  645SOL     MW 2580   2.824   0.820   0.741  0.1971  0.1022  0.0758
  646SOL     OW 2581   0.078   2.299   0.871 -0.1469  0.3898 -0.1503
  646SOL    HW1 2582   0.119   2.212   0.870  1.3690  1.5852  0.9399
  646SOL    HW2 2583   0.044   2.319   0.781 -2.1621 -0.8059 -2.1591
  646SOL     MW 2584   0.079   2.290   0.859 -0.2128  0.3897 -0.2715
  647SOL     OW 2585   2.715   0.488   2.985 -0.2791  0.2218  0.0150
  647SOL    HW1 2586   2.645   0.429   3.006 -0.2099  1.4122  2.8827
  647SOL    HW2 2587   2.692   0.563   3.039  0.0069  0.8497 -0.1283
  647SOL     MW 2588   2.703   0.490   2.995 -0.2322  0.4617  0.3745
  648SOL     OW 2589   2.272   0.738   1.109  0.2356 -0.0770  0.7696
  648SOL    HW1 2590   2.193   0.702   1.076  2.2154  2.0448 -0.6202
  648SOL    HW2 2591   2.252   0.774   1.194 -1.3495  0.1729 -0.3710
  648SOL     MW 2592   2.259   0.738   1.116  0.2877  0.2359  0.4358
  649SOL     OW 2593   2.403   2.706   1.313 -0.0067 -0.4273 -0.0241
  649SOL    HW1 2594   2.495   2.742   1.316 -1.3269  1.9015 -0.5747
  649SOL    HW2 2595   2.413   2.606   1.292 -0.7521 -0.3132 -1.2848
  649SOL     MW 2596   2.417   2.697   1.311 -0.2792 -0.1050 -0.2631
  650SOL     OW 2597   2.778   0.224   0.659  0.0277 -0.2924 -0.5703
  650SOL    HW1 2598   2.852   0.242   0.715  0.2217  2.2552 -0.7393
  650SOL    HW2 2599   2.812   0.257   0.577 -1.8573  1.6001 -1.4967
  650SOL     MW 2600   2.792   0.231   0.655 -0.1954  0.2934 -0.7148
  651SOL     OW 2601   0.002   0.452   1.029 -0.2107  0.2195 -0.7920
  651SOL    HW1 2602   0.074   0.453   0.963  1.7619  1.2477  1.8214
  651SOL    HW2 2603  -0.060   0.510   0.986  1.8275  0.0360 -0.3902
  651SOL     MW 2604   0.003   0.460   1.014  0.3185  0.3309 -0.3942
  652SOL     OW 2605   2.378   1.492   3.018 -0.1221 -0.2343  0.0575
  652SOL    HW1 2606   2.423   1.531   2.944  0.7382 -0.6716  3.1338
  652SOL    HW2 2607   2.300   1.547   3.016  3.1150 -0.3658  1.1693
  652SOL     MW 2608   2.373   1.504   3.008  0.4185 -0.3093  0.6101
  653SOL     OW 2609   1.832   0.454   0.322 -0.2382 -0.0611 -0.2789
  653SOL    HW1 2610   1.789   0.370   0.304 -0.5643 -1.9225  0.6496
  653SOL    HW2 2611   1.921   0.431   0.339 -1.6364 -3.3674  1.6409
  653SOL     MW 2612   1.838   0.440   0.322 -0.4657 -0.7429  0.0969
  654SOL     OW 2613   2.437   1.000   0.735  0.3214 -0.3072  0.1771
  654SOL    HW1 2614   2.378   0.991   0.663  0.7163  0.3111  0.8691
  654SOL    HW2 2615   2.462   0.902   0.768 -0.8264 -0.7808 -1.2896
  654SOL     MW 2616   2.432   0.986   0.730  0.2221 -0.2881  0.0749
  655SOL     OW 2617   2.884   0.853   0.379  0.2200 -0.2287  0.6968
  655SOL    HW1 2618   2.828   0.869   0.454 -3.4445 -0.9281 -0.2081
  655SOL    HW2 2619   2.906   0.761   0.391 -1.6948  0.8323 -2.7429
  655SOL     MW 2620   2.880   0.843   0.390 -0.5161 -0.1810  0.1236
  656SOL     OW 2621   1.787   2.648   1.369  0.2081 -0.0284  0.2489
  656SOL    HW1 2622   1.829   2.725   1.404  0.5496  2.1222 -3.1924
  656SOL    HW2 2623   1.856   2.591   1.336 -0.0152  0.2097  2.9482
  656SOL     MW 2624   1.801   2.651   1.370  0.2237  0.2868  0.1510
  657SOL     OW 2625   0.136   1.765   1.133 -0.5674 -0.4888 -0.0941
  657SOL    HW1 2626   0.225   1.808   1.126  1.3981 -0.4702  1.0237
  657SOL    HW2 2627   0.151   1.678   1.165 -1.2527 -1.5919  1.4238
  657SOL     MW 2628   0.150   1.759   1.136 -0.3985 -0.6319  0.2537
  658SOL     OW 2629   2.642   1.303   0.247  0.3490 -0.5433  0.0063
  658SOL    HW1 2630   2.643   1.224   0.302  2.0817  1.6547 -2.8119
  658SOL    HW2 2631   2.669   1.368   0.314 -0.9566  0.1246  1.2012
  658SOL     MW 2632   2.645   1.301   0.263  0.4053 -0.1651 -0.2079
  659SOL     OW 2633   2.208   1.565   0.984  0.0679  0.2709  0.1693
  659SOL    HW1 2634   2.292   1.527   1.006 -0.3883 -0.4663  0.6900
  659SOL    HW2 2635   2.145   1.539   1.058 -0.9848 -0.8397  2.4891
  659SOL     MW 2636   2.211   1.557   0.997 -0.1312  0.0271  0.5441
  660SOL     OW 2637   2.097   1.458   1.724  0.0445  0.0540 -0.1606
  660SOL    HW1 2638   2.103   1.451   1.817 -0.6955 -0.4922  0.7279
  660SOL    HW2 2639   2.018   1.408   1.691  0.3009 -1.7982 -0.4381
  660SOL     MW 2640   2.088   1.450   1.732 -0.0193 -0.2624 -0.0800
  661SOL     OW 2641   2.491   0.979   0.186 -0.3035  0.3415 -0.0691
  661SOL    HW1 2642   2.539   1.027   0.258  0.9974  0.1239  2.4755
  661SOL    HW2 2643   2.481   0.890   0.214  3.4985 -0.5948  2.3063
  661SOL     MW 2644   2.496   0.973   0.199  0.3698  0.1893  0.5800
  662SOL     OW 2645   2.594   2.970   0.888 -0.0372 -0.3997 -0.3218
  662SOL    HW1 2646   2.532   3.034   0.913  2.3541  0.3579 -1.2513
  662SOL    HW2 2647   2.634   3.002   0.803 -2.1679  1.2416 -0.7797
  662SOL     MW 2648   2.591   2.983   0.880 -0.0028 -0.0832 -0.5049
  663SOL     OW 2649   2.664   1.477   0.450  0.2237 -0.1134  0.0194
  663SOL    HW1 2650   2.619   1.558   0.460  2.2054 -0.4785  0.5276
  663SOL    HW2 2651   2.754   1.494   0.485  1.0851  2.2203  3.5556
  663SOL     MW 2652   2.670   1.490   0.456  0.5989  0.1463  0.5530
  664SOL     OW 2653   2.591   1.507   1.613 -0.5696 -0.6716  0.4351
  664SOL    HW1 2654   2.566   1.582   1.553 -0.9423  1.3511  1.7391
  664SOL    HW2 2655   2.528   1.442   1.607  1.4446 -2.0546 -0.5834
  664SOL     MW 2656   2.579   1.508   1.604 -0.3530 -0.5872  0.4728
  665SOL     OW 2657   2.777   0.767   2.107 -0.1378 -0.0417  0.0361
  665SOL    HW1 2658   2.772   0.819   2.023 -0.6400  2.8186  2.0634
  665SOL    HW2 2659   2.833   0.690   2.089  0.1719  0.3396 -0.7335
  665SOL     MW 2660   2.784   0.763   2.093 -0.1632  0.3860  0.2020
  666SOL     OW 2661   2.755   3.055   1.729  0.4888  0.2805 -0.4575
  666SOL    HW1 2662   2.773   3.044   1.631 -3.0467 -2.2960 -0.2538
  666SOL    HW2 2663   2.706   2.973   1.757  0.2696 -0.0865  0.8316
  666SOL     MW 2664   2.751   3.042   1.720 -0.0066 -0.1078 -0.2605
  667SOL     OW 2665   1.989   2.709   1.703  0.3155  0.1160  0.1214
  667SOL    HW1 2666   2.017   2.655   1.775  0.2182 -2.6446 -1.8117
  667SOL    HW2 2667   2.055   2.780   1.696  1.8286  3.1011  0.9241
  667SOL     MW 2668   2.001   2.711   1.711  0.5023  0.1456 -0.0278
  668SOL     OW 2669   2.704   0.535   0.810  0.2766  0.3592 -0.2997
  668SOL    HW1 2670   2.766   0.584   0.871  0.8674  2.3851  0.0378
  668SOL    HW2 2671   2.639   0.598   0.780 -0.8553 -3.4780  0.9405
  668SOL     MW 2672   2.704   0.550   0.814  0.2052  0.1202 -0.0915
  669SOL     OW 2673   0.129   0.899   0.769  0.3992 -0.2971  0.1888
  669SOL    HW1 2674   0.065   0.966   0.765  1.4023 -1.7771  1.1934
  669SOL    HW2 2675   0.174   0.897   0.854  0.0539  0.5929  1.5633
  669SOL     MW 2676   0.126   0.908   0.780  0.4860 -0.3749  0.5027
  670SOL     OW 2677   2.902   0.315   0.209 -0.2150 -0.3140  0.0327
  670SOL    HW1 2678   2.933   0.266   0.124 -1.2394 -0.3482 -0.3386
  670SOL    HW2 2679   2.912   0.406   0.184 -1.0138 -1.2023  0.2590
  670SOL     MW 2680   2.908   0.320   0.194 -0.4555 -0.4357  0.0136
  671SOL     OW 2681   2.000   3.040   1.572  0.3784 -0.0755 -0.3478
  671SOL    HW1 2682   1.945   2.996   1.505 -1.3236 -0.7565 -0.3854
  671SOL    HW2 2683   1.951   3.053   1.657  0.3881  1.5725 -0.7066
  671SOL     MW 2684   1.986   3.036   1.574  0.1551  0.0521 -0.4001
  672SOL     OW 2685   1.839   1.703   1.287  0.1015  0.0971 -0.4770
  672SOL    HW1 2686   1.830   1.787   1.339 -1.1618 -2.5583 -0.8652
  672SOL    HW2 2687   1.901   1.733   1.221  1.3576  1.0992  0.0529
  672SOL     MW 2688   1.846   1.718   1.286  0.1005 -0.1210 -0.4583
  673SOL     OW 2689   2.770   1.070   0.657 -0.0897 -0.2452  0.1514
  673SOL    HW1 2690   2.794   0.981   0.670  1.0598 -0.6137 -1.0547
  673SOL    HW2 2691   2.845   1.119   0.676 -1.4222  0.4751  1.8840
  673SOL     MW 2692   2.783   1.065   0.661 -0.1138 -0.1988  0.2208
  674SOL     OW 2693   2.475   3.105   1.294 -0.3086 -0.3642  0.4566
  674SOL    HW1 2694   2.436   3.096   1.211  2.1363  0.8545 -0.8532
  674SOL    HW2 2695   2.505   3.017   1.308  1.5160  0.5474 -1.7679
  674SOL     MW 2696   2.474   3.092   1.285  0.2547 -0.0832 -0.0097
  675SOL     OW 2697   2.970   0.909   1.041 -0.5473 -0.2912 -0.6729
  675SOL    HW1 2698   3.048   0.919   1.092  1.4073  2.4021  0.0915
  675SOL    HW2 2699   2.980   0.987   0.979 -2.3150  2.8458 -0.9614
  675SOL     MW 2700   2.981   0.921   1.040 -0.5226  0.4780 -0.6101
  676SOL     OW 2701   2.964   1.435   1.686 -0.0641 -0.3179  0.3525
  676SOL    HW1 2702   2.893   1.367   1.657 -2.4606  0.4463 -4.5599
  676SOL    HW2 2703   2.963   1.439   1.779 -0.9921  1.4908 -1.7390
  676SOL     MW 2704   2.955   1.427   1.695 -0.5027  0.0216 -0.5716
  677SOL     OW 2705   2.359   0.581   2.047 -0.0525 -0.3326  0.2567
  677SOL    HW1 2706   2.334   0.518   1.971  2.3410 -3.3118 -0.7985
  677SOL    HW2 2707   2.298   0.651   2.049  0.3768 -2.1468 -2.3937
  677SOL     MW 2708   2.348   0.582   2.038  0.3200 -0.9651 -0.2322
  678SOL     OW 2709   2.473   1.668   0.338 -0.1003 -0.2145 -0.2861
  678SOL    HW1 2710   2.385   1.678   0.369 -0.4927 -3.3533 -1.1658
  678SOL    HW2 2711   2.458   1.595   0.281 -2.8134  0.5443 -2.6548
  678SOL     MW 2712   2.459   1.660   0.335 -0.5100 -0.5285 -0.7147
  679SOL     OW 2713   2.196   0.459   1.299  0.5276  0.5524 -0.7180
  679SOL    HW1 2714   2.195   0.362   1.302  1.1762  0.5761  2.4882
  679SOL    HW2 2715   2.125   0.481   1.359  3.6034 -0.2044  1.6386
  679SOL     MW 2716   2.186   0.449   1.307  1.0190  0.4557  0.0159
  680SOL     OW 2717   2.335   0.173   1.496 -0.4754 -0.1393 -0.1466
  680SOL    HW1 2718   2.241   0.179   1.492 -2.4282 -1.3532 -1.7578
  680SOL    HW2 2719   2.380   0.123   1.424 -0.5681  3.2670  1.9809
  680SOL     MW 2720   2.329   0.167   1.486 -0.7453  0.1499 -0.0785
  681SOL     OW 2721   0.268   0.602   1.578 -0.1879 -0.7288  0.0811
  681SOL    HW1 2722   0.266   0.545   1.659 -1.9343 -0.2934 -2.3721
  681SOL    HW2 2723   0.270   0.541   1.504 -2.2649  1.0718 -0.2497
  681SOL     MW 2724   0.268   0.587   1.579 -0.6923 -0.4338 -0.2862
  682SOL     OW 2725   0.146   2.810   1.523  0.4209  0.0271 -0.0148
  682SOL    HW1 2726   0.219   2.870   1.510  1.7740 -2.7425 -0.8681
  682SOL    HW2 2727   0.069   2.867   1.544 -1.2917  1.3884 -0.0613
  682SOL     MW 2728   0.145   2.825   1.524  0.3734 -0.1587 -0.1335
  683SOL     OW 2729   2.065   0.820   2.970  0.3271 -0.0212  0.0812
  683SOL    HW1 2730   1.997   0.752   2.991  1.3591  0.0612  0.7250
  683SOL    HW2 2731   2.041   0.900   3.029 -0.4776  2.9288  2.2678
  683SOL     MW 2732   2.053   0.822   2.980  0.3571  0.3789  0.4546
  684SOL     OW 2733   2.219   1.683   0.682 -0.7181  0.6256 -0.3560
  684SOL    HW1 2734   2.213   1.686   0.582 -0.7118  1.6573  1.8065
  684SOL    HW2 2735   2.178   1.602   0.715  0.6876 -1.8323 -0.0019
  684SOL     MW 2736   2.213   1.673   0.673 -0.5318  0.4375 -0.0239
  685SOL     OW 2737   2.692   1.678   1.229  0.1493 -0.3759 -0.5377
  685SOL    HW1 2738   2.732   1.704   1.316  1.1107 -1.6563  0.4699
  685SOL    HW2 2739   2.673   1.586   1.236  2.7556  1.4172 -2.7587
  685SOL     MW 2740   2.695   1.669   1.242  0.6200 -0.3083 -0.6978
  686SOL     OW 2741   2.859   0.715   1.443 -0.0184  0.0769  0.4633
  686SOL    HW1 2742   2.855   0.666   1.532 -2.7782 -0.0664  0.5774
  686SOL    HW2 2743   2.946   0.733   1.422 -1.3128  0.1592  1.7494
  686SOL     MW 2744   2.870   0.711   1.452 -0.5533  0.0689  0.6481
  687SOL     OW 2745   2.149   0.192   1.227 -0.2274 -0.9502  0.2295
  687SOL    HW1 2746   2.194   0.123   1.174  1.2760 -0.6538 -0.6091
  687SOL    HW2 2747   2.072   0.223   1.169  1.5046  0.9050 -0.6456
  687SOL     MW 2748   2.145   0.187   1.212  0.1994 -0.6663  0.0034
  688SOL     OW 2749   2.395   0.619   1.466 -0.0772  0.4880 -0.7987
  688SOL    HW1 2750   2.355   0.570   1.393  0.7182 -0.5572  2.3294
  688SOL    HW2 2751   2.316   0.637   1.518  1.6586 -0.6362 -0.2921
  688SOL     MW 2752   2.379   0.615   1.464  0.2568  0.2018 -0.3192
  689SOL     OW 2753   2.429   0.716   2.905  0.1981  0.1163  0.2183
  689SOL    HW1 2754   2.366   0.784   2.891 -0.5735  0.9598  1.0198
  689SOL    HW2 2755   2.510   0.766   2.936 -0.6174  0.6557  2.7998
  689SOL     MW 2756   2.431   0.731   2.907 -0.0113  0.2987  0.6646
  690SOL     OW 2757   2.041   0.906   1.857  0.3296  0.5993 -0.3365
  690SOL    HW1 2758   1.991   0.823   1.868  0.1489  1.4678 -2.6174
  690SOL    HW2 2759   2.071   0.905   1.764  0.4326 -0.0889 -1.9330
  690SOL     MW 2760   2.039   0.895   1.846  0.3194  0.6231 -0.8481
  691SOL     OW 2761   2.370   0.233   0.837  0.6820 -0.6125 -0.0218
  691SOL    HW1 2762   2.444   0.274   0.881 -2.2738  1.8193  0.6566
  691SOL    HW2 2763   2.293   0.292   0.848  0.1833 -0.0763  0.3824
  691SOL     MW 2764   2.370   0.246   0.844  0.2262 -0.2209  0.1210
  692SOL     OW 2765   2.910   1.631   1.509  0.7795 -0.8280  0.4180
  692SOL    HW1 2766   2.928   1.583   1.592 -1.6807 -0.1331 -1.1434
  692SOL    HW2 2767   2.925   1.726   1.523  0.0337  1.5280  0.5397
  692SOL     MW 2768   2.914   1.637   1.522  0.3565 -0.4255  0.2280
  693SOL     OW 2769   2.260   0.398   0.074 -0.5688  0.1134  0.0390
  693SOL    HW1 2770   2.189   0.346   0.040 -0.9500 -0.1246  1.6110
  693SOL    HW2 2771   2.250   0.488   0.045 -0.4742 -0.3836 -0.4749
  693SOL     MW 2772   2.249   0.403   0.066 -0.6066  0.0165  0.1786
  694SOL     OW 2773   1.934   1.175   1.074 -0.0229 -0.3877 -0.4086
  694SOL    HW1 2774   2.030   1.165   1.099  1.4734 -1.4254  1.8341
  694SOL    HW2 2775   1.894   1.120   1.145  0.4910  1.1485  0.2290
  694SOL     MW 2776   1.942   1.166   1.086  0.2424 -0.3219 -0.0286
  695SOL     OW 2777   3.008   1.434   1.320 -0.5554  0.1749 -0.2092
  695SOL    HW1 2778   2.951   1.438   1.244 -0.5821 -2.1219  0.3140
  695SOL    HW2 2779   2.974   1.510   1.379 -0.1202 -0.9334 -0.0750
  695SOL     MW 2780   2.996   1.445   1.318 -0.5015 -0.2744 -0.1225
  696SOL     OW 2781   2.090   1.365   0.773  0.3343  0.7117 -0.2230
  696SOL    HW1 2782   2.099   1.409   0.854  0.7956 -1.3925 -1.0789
  696SOL    HW2 2783   2.032   1.288   0.786 -2.6805 -2.2427 -0.8669
  696SOL     MW 2784   2.083   1.361   0.785 -0.0026  0.0442 -0.4209
  697SOL     OW 2785   2.871   1.006   2.214  0.1157  0.4212  0.1009
  697SOL    HW1 2786   2.829   1.089   2.203 -2.5720 -0.4203 -3.7646
  697SOL    HW2 2787   2.823   0.949   2.157  2.4294 -0.8236  1.5281
  697SOL     MW 2788   2.859   1.009   2.205  0.0664  0.1460 -0.2208
  698SOL     OW 2789   2.531   0.333   0.035 -0.0362 -0.5132 -0.2024
  698SOL    HW1 2790   2.439   0.353   0.066  0.8801  2.3504  1.1476
  698SOL    HW2 2791   2.560   0.274   0.099  2.4112  1.1455 -1.7514
  698SOL     MW 2792   2.523   0.328   0.047  0.4076  0.0835 -0.2287
  699SOL     OW 2793   1.876   1.615   2.044  0.6367  0.7051 -0.1919
  699SOL    HW1 2794   1.862   1.517   2.038 -0.1086  2.9629  1.5544
  699SOL    HW2 2795   1.971   1.610   2.017 -0.3011  1.4332 -1.1226
  699SOL     MW 2796   1.886   1.601   2.039  0.4146  1.0990 -0.0843
  700SOL     OW 2797   2.731   0.920   1.592 -0.4729  0.1897  0.5878
  700SOL    HW1 2798   2.760   1.000   1.545 -0.4976 -2.0353  0.7293
  700SOL    HW2 2799   2.769   0.853   1.534  1.8008  1.0698  0.3779
  700SOL     MW 2800   2.740   0.921   1.578 -0.1762  0.0123  0.5788
  701SOL     OW 2801   1.698   1.169   2.483 -0.0982  0.0116  0.1707
  701SOL    HW1 2802   1.793   1.167   2.482  0.8533 -0.4087 -0.5356
  701SOL    HW2 2803   1.688   1.250   2.543 -0.4533  0.5721 -2.0366
  701SOL     MW 2804   1.709   1.180   2.491 -0.0195  0.0301 -0.2137
  702SOL     OW 2805   2.145   0.388   0.825 -0.1543  0.2530  0.3408
  702SOL    HW1 2806   2.119   0.315   0.771 -0.1683  0.6595  1.0475
  702SOL    HW2 2807   2.194   0.452   0.770  0.1961  0.7533 -0.9632
  702SOL     MW 2808   2.148   0.387   0.810 -0.1099  0.3726  0.2620
  703SOL     OW 2809   2.686   1.254   1.045  0.2515 -0.2153  0.0297
  703SOL    HW1 2810   2.670   1.239   0.953 -0.8621 -0.9573  1.4176
  703SOL    HW2 2811   2.666   1.168   1.084 -1.8316 -2.2453  0.8630
  703SOL     MW 2812   2.681   1.240   1.038 -0.1702 -0.5811  0.3228
  704SOL     OW 2813   3.091   1.218   0.150 -0.4485  0.5669 -0.0806
  704SOL    HW1 2814   2.996   1.214   0.137  0.6769 -0.9743 -0.9742
  704SOL    HW2 2815   3.110   1.209   0.241  0.7319 -1.2988  0.3971
  704SOL     MW 2816   3.081   1.216   0.160 -0.1443  0.1174 -0.1355
  705SOL     OW 2817   2.195   1.644   1.282  0.1687  0.0149  0.4583
  705SOL    HW1 2818   2.137   1.689   1.339 -0.0269 -0.4304 -0.9171
  705SOL    HW2 2819   2.223   1.565   1.330 -2.2406  0.4768  2.4160
  705SOL     MW 2820   2.191   1.640   1.296 -0.1750  0.0171  0.5351
  706SOL     OW 2821   2.962   1.258   0.638 -0.9434  0.1213 -0.1076
  706SOL    HW1 2822   3.005   1.235   0.558  1.4034  0.5584 -2.3952
  706SOL    HW2 2823   2.939   1.354   0.632 -0.9705  1.2347  2.1017
  706SOL     MW 2824   2.964   1.268   0.627 -0.6373  0.3259 -0.1180
  707SOL     OW 2825   2.311   0.040   1.025  0.3752 -0.0394 -0.5505
  707SOL    HW1 2826   2.343   0.113   0.967 -2.3524  1.8198  3.9088
  707SOL    HW2 2827   2.230   0.013   0.987  1.6011  0.5282  1.2445
  707SOL     MW 2828   2.304   0.046   1.012  0.1771  0.2808  0.2747
  708SOL     OW 2829   2.408   1.451   0.194  0.3666 -0.0121 -0.1632
  708SOL    HW1 2830   2.489   1.399   0.195 -1.6510 -3.0686 -0.3168
  708SOL    HW2 2831   2.394   1.466   0.098  2.1161 -2.3382 -1.4736
  708SOL     MW 2832   2.416   1.446   0.181  0.3312 -0.7223 -0.3564
  709SOL     OW 2833   1.768   1.648   0.214 -0.1027  0.0189 -0.8219
  709SOL    HW1 2834   1.767   1.638   0.116 -1.1984 -0.3428 -1.4298
  709SOL    HW2 2835   1.678   1.658   0.247 -0.6381  1.9155 -0.7193
  709SOL     MW 2836   1.756   1.648   0.206 -0.3179  0.2214 -0.8886
  710SOL     OW 2837   2.166   1.112   1.187  0.7014  0.7865  0.3127
  710SOL    HW1 2838   2.210   1.100   1.095 -3.6893 -0.7981 -0.8927
  710SOL    HW2 2839   2.178   1.028   1.230 -1.7514  1.0116  1.5146
  710SOL     MW 2840   2.173   1.099   1.181 -0.2016  0.6071  0.3122
  711SOL     OW 2841   2.318   0.102   1.761  0.2481 -0.1764  0.3428
  711SOL    HW1 2842   2.414   0.094   1.794  0.6929 -1.5280  2.8662
  711SOL    HW2 2843   2.328   0.116   1.664 -0.7411 -0.9278  1.8172
  711SOL     MW 2844   2.332   0.103   1.752  0.1763 -0.4539  0.8703
  712SOL     OW 2845   1.911   0.641   3.094  0.7436 -0.2409 -0.0599
  712SOL    HW1 2846   1.819   0.654   3.064 -1.6116 -1.1078  0.2141
  712SOL    HW2 2847   1.916   0.646   3.188  1.0995  0.5787 -2.2384
  712SOL     MW 2848   1.900   0.643   3.102  0.4798 -0.2471 -0.3112
  713SOL     OW 2849   2.525   0.749   1.095  0.2838 -0.0578 -0.0205
  713SOL    HW1 2850   2.556   0.661   1.098 -1.4294 -1.6005 -0.4842
  713SOL    HW2 2851   2.425   0.753   1.092 -2.5487  2.4329 -3.5350
  713SOL     MW 2852   2.516   0.738   1.095 -0.3160  0.0673 -0.5454
  714SOL     OW 2853   2.193   0.155   1.986  0.5747 -0.1798 -0.2246
  714SOL    HW1 2854   2.242   0.115   2.065  0.2853 -3.8865 -1.4117
  714SOL    HW2 2855   2.245   0.127   1.905 -0.5756 -1.0173  1.5351
  714SOL     MW 2856   2.206   0.146   1.986  0.3847 -0.7794 -0.1490
  715SOL     OW 2857   1.835   2.014   1.734  0.1998  0.5421  0.4943
  715SOL    HW1 2858   1.924   2.063   1.726  1.4833  0.5272  0.2556
  715SOL    HW2 2859   1.850   1.931   1.783  0.4479  0.8699  1.6726
  715SOL     MW 2860   1.848   2.009   1.739  0.4018  0.5834  0.6183
  716SOL     OW 2861   2.321   0.561   0.695  0.7498 -0.0381 -0.2836
  716SOL    HW1 2862   2.372   0.501   0.638  1.8393 -3.4831  0.6494
  716SOL    HW2 2863   2.258   0.611   0.640  0.0340  1.1786 -0.9485
  716SOL     MW 2864   2.320   0.559   0.680  0.7991 -0.3321 -0.2482
  717SOL     OW 2865   2.843   1.600   2.881 -0.0509  0.5637 -0.0720
  717SOL    HW1 2866   2.933   1.569   2.908 -0.1586  4.7641  0.0200
  717SOL    HW2 2867   2.828   1.660   2.955  1.2811  0.6922  0.9059
  717SOL     MW 2868   2.853   1.604   2.894  0.1107  1.1349  0.0692
  718SOL     OW 2869   2.674   1.425   1.359  0.2778  0.1125 -0.5814
  718SOL    HW1 2870   2.648   1.440   1.451 -2.8433 -0.7973 -0.3633
  718SOL    HW2 2871   2.733   1.348   1.367  0.9258  0.8486 -0.0278
  718SOL     MW 2872   2.678   1.417   1.372 -0.0485  0.0896 -0.4796
  719SOL     OW 2873   2.195   1.257   0.547 -0.3366  0.0640 -0.0828
  719SOL    HW1 2874   2.294   1.287   0.550  0.0417  0.1444 -0.9914
  719SOL    HW2 2875   2.155   1.279   0.634 -0.9858  1.7386 -0.9366
  719SOL     MW 2876   2.203   1.264   0.558 -0.3724  0.2956 -0.3153
  720SOL     OW 2877   2.821   1.217   0.042 -0.8411 -0.2042  0.1098
  720SOL    HW1 2878   2.828   1.124   0.062  0.9040 -0.9143  0.8844
  720SOL    HW2 2879   2.749   1.247   0.099 -1.1583  1.2951  1.7542
  720SOL     MW 2880   2.813   1.209   0.052 -0.6527 -0.1001  0.4290
  721SOL     OW 2881   2.481   0.893   1.400 -0.5432 -0.1459  0.0412
  721SOL    HW1 2882   2.470   0.808   1.357  0.6598  0.8553  0.8282
  721SOL    HW2 2883   2.555   0.885   1.464  1.6149 -0.3164 -0.1967
  721SOL     MW 2884   2.489   0.881   1.402 -0.0998 -0.0363  0.1137
  722SOL     OW 2885   2.588   1.094   0.416  0.3053  0.4270 -1.0728
  722SOL    HW1 2886   2.523   1.160   0.456 -4.3595  3.1330  0.5291
  722SOL    HW2 2887   2.664   1.095   0.475  0.7997  0.3655  0.5579
  722SOL     MW 2888   2.589   1.103   0.429 -0.2450  0.7759 -0.6463
  723SOL     OW 2889   2.316   1.396   1.569  0.1742  0.0454  0.3060
  723SOL    HW1 2890   2.279   1.350   1.492  0.4314 -1.4285 -1.0738
  723SOL    HW2 2891   2.244   1.442   1.623 -0.6416 -0.8430  1.5295
  723SOL     MW 2892   2.302   1.396   1.566  0.1005 -0.2663  0.2854
  724SOL     OW 2893   2.462   0.375   0.562 -0.3537  0.1105  0.0599
  724SOL    HW1 2894   2.440   0.306   0.624 -0.7917 -1.7442 -0.3797
  724SOL    HW2 2895   2.557   0.360   0.551  1.7050  0.3787 -0.5889
  724SOL     MW 2896   2.472   0.364   0.569 -0.1399 -0.0988 -0.0837
  725SOL     OW 2897   2.588   0.491   1.190 -0.5505 -1.0552  0.0939
  725SOL    HW1 2898   2.683   0.488   1.208 -0.4206  0.9335  1.6407
  725SOL    HW2 2899   2.544   0.475   1.273  0.9697 -3.5387  2.1301
  725SOL     MW 2900   2.595   0.488   1.203 -0.3328 -1.1205  0.5666
  726SOL     OW 2901   2.573   2.514   0.535 -1.0055  0.0025 -0.3452
  726SOL    HW1 2902   2.521   2.587   0.496  3.6223  1.4453 -0.9435
  726SOL    HW2 2903   2.552   2.497   0.627  0.5856 -0.1228 -0.8490
  726SOL     MW 2904   2.563   2.522   0.542 -0.1850  0.1763 -0.4906
  727SOL     OW 2905   2.866   0.338   1.777 -0.3662  0.4143  0.3357
  727SOL    HW1 2906   2.792   0.334   1.710 -1.1457  0.6545  3.8197
  727SOL    HW2 2907   2.813   0.352   1.862  0.9456  0.8385  1.3100
  727SOL     MW 2908   2.849   0.339   1.780 -0.2959  0.5020  0.9239
  728SOL     OW 2909   2.804   1.131   2.877  0.3238  0.1584  0.0185
  728SOL    HW1 2910   2.812   1.203   2.812  1.7793 -1.3113 -1.0991
  728SOL    HW2 2911   2.803   1.168   2.962 -0.1764 -1.6328 -0.2453
  728SOL     MW 2912   2.805   1.145   2.880  0.4499 -0.2719 -0.1638
  729SOL     OW 2913   2.476   1.449   1.190 -1.3586 -0.0028  0.1287
  729SOL    HW1 2914   2.535   1.412   1.260 -0.3903 -0.4126 -1.3960
  729SOL    HW2 2915   2.528   1.438   1.111 -0.7744  0.7974  1.0053
  729SOL     MW 2916   2.491   1.443   1.189 -1.1538  0.0487  0.0432
  730SOL     OW 2917   2.296   1.175   0.253 -0.0144  0.0700  0.6295
  730SOL    HW1 2918   2.342   1.102   0.222 -2.3514  1.2987  0.2663
  730SOL    HW2 2919   2.359   1.244   0.247 -2.7995  1.9657  1.2081
  730SOL     MW 2920   2.311   1.174   0.248 -0.6902  0.4822  0.6579
  731SOL     OW 2921   2.802   2.050   2.919  0.4661  0.3354 -0.0677
  731SOL    HW1 2922   2.760   2.042   2.837 -2.5375  0.7209  0.8144
  731SOL    HW2 2923   2.887   2.081   2.898 -1.3875 -0.2842  0.3820
  731SOL     MW 2924   2.807   2.053   2.906 -0.1747  0.3045  0.1080
  732SOL     OW 2925   2.214   0.878   1.346  0.2155 -0.1240  0.3650
  732SOL    HW1 2926   2.161   0.898   1.425 -0.8982 -2.0705 -1.4524
  732SOL    HW2 2927   2.310   0.908   1.360 -0.8788  1.0223 -1.1179
  732SOL     MW 2928   2.220   0.884   1.358 -0.0758 -0.2296 -0.0705
  733SOL     OW 2929   2.382   2.824   3.015  0.3497  0.1047 -0.3885
  733SOL    HW1 2930   2.304   2.862   2.976 -0.0811 -1.0312 -0.5324
  733SOL    HW2 2931   2.362   2.730   3.002  2.1455  0.7550 -0.2705
  733SOL     MW 2932   2.369   2.816   3.008  0.5298  0.0406 -0.3919
  734SOL     OW 2933   1.449   0.298   2.444  0.6401 -0.3845  0.0162
  734SOL    HW1 2934   1.430   0.276   2.534 -0.7311 -1.3138 -0.6087
  734SOL    HW2 2935   1.483   0.219   2.397 -0.7931 -1.4593  0.4367
  734SOL     MW 2936   1.451   0.285   2.450  0.2701 -0.6489 -0.0108
  735SOL     OW 2937   2.916   0.874   2.616 -0.3556  0.4273  0.1797
  735SOL    HW1 2938   2.924   0.779   2.631  3.2428  1.5485 -0.3051
  735SOL    HW2 2939   2.968   0.905   2.687  0.5867 -2.9229  0.4822
  735SOL     MW 2940   2.924   0.865   2.628  0.2435  0.1332  0.1557
  736SOL     OW 2941   0.095   0.637   2.545 -0.1558  0.0054  0.0443
  736SOL    HW1 2942   0.107   0.703   2.477  0.6965  0.8425  1.0189
  736SOL    HW2 2943   0.096   0.556   2.493  0.2940  0.4536  3.4372
  736SOL     MW 2944   0.097   0.635   2.529  0.0160  0.1750  0.6205
  737SOL     OW 2945   2.921   0.597   2.624  0.4688 -0.2538  0.7065
  737SOL    HW1 2946   2.869   0.582   2.547  0.5297  1.2781 -0.1923
  737SOL    HW2 2947   3.012   0.609   2.594 -0.0654  3.2533 -0.3923
  737SOL     MW 2948   2.926   0.597   2.610  0.4063  0.4111  0.4429
  738SOL     OW 2949   0.198   0.610   1.965  0.5006 -0.6915 -0.3597
  738SOL    HW1 2950   0.288   0.603   1.940  0.5845 -2.1219  1.1436
  738SOL    HW2 2951   0.170   0.523   1.935 -1.6991 -0.4357 -0.4785
  738SOL     MW 2952   0.206   0.597   1.958  0.2215 -0.8465 -0.1770
  739SOL     OW 2953   2.500   0.986   2.043 -0.1470  0.2438  0.1565
  739SOL    HW1 2954   2.431   0.924   2.025 -0.3276 -3.5921  2.9179
  739SOL    HW2 2955   2.528   1.016   1.956  0.4063 -1.2872  1.5245
  739SOL     MW 2956   2.495   0.982   2.029 -0.0978 -0.4643  0.7013
  740SOL     OW 2957   0.220   1.744   2.944 -0.2669 -0.1017 -0.3000
  740SOL    HW1 2958   0.171   1.669   2.966 -0.2614 -0.0415  1.0881
  740SOL    HW2 2959   0.315   1.731   2.970  0.3698 -0.1336 -0.0939
  740SOL     MW 2960   0.226   1.732   2.950 -0.1821 -0.0979 -0.0897
  741SOL     OW 2961   2.214   1.170   2.707 -0.1433  0.6442 -0.4169
  741SOL    HW1 2962   2.124   1.152   2.678  0.4211  2.5336 -3.5999
  741SOL    HW2 2963   2.211   1.233   2.780  1.0807  1.7629 -0.3578
  741SOL     MW 2964   2.202   1.176   2.713  0.0927  1.0411 -0.8290
  742SOL     OW 2965   1.613   1.247   2.203  0.8115  0.1205  0.0177
  742SOL    HW1 2966   1.543   1.190   2.182 -0.1409  1.4875 -0.2877
  742SOL    HW2 2967   1.634   1.216   2.292  0.8205  0.8643  1.1184
  742SOL     MW 2968   1.607   1.235   2.212  0.6870  0.3990  0.1226
  743SOL     OW 2969   2.455   1.326   2.723 -0.3250 -0.1525  0.3023
  743SOL    HW1 2970   2.368   1.303   2.697 -2.1842 -1.7192 -1.8207
  743SOL    HW2 2971   2.487   1.238   2.751 -0.5662  2.9080 -2.1188
  743SOL     MW 2972   2.448   1.311   2.723 -0.6021  0.0446 -0.2972
  744SOL     OW 2973   2.747   0.926   1.878 -0.3457 -0.3539  0.5890
  744SOL    HW1 2974   2.694   1.009   1.863  0.1404  2.9913 -0.4408
  744SOL    HW2 2975   2.738   0.884   1.791  2.4783 -2.6627  0.2663
  744SOL     MW 2976   2.739   0.932   1.865  0.0910 -0.2172  0.4105
  745SOL     OW 2977   1.736   0.428   2.498  0.3582  0.2626 -0.1548
  745SOL    HW1 2978   1.708   0.452   2.407  1.7469 -2.5499 -0.5216
  745SOL    HW2 2979   1.650   0.402   2.530  1.0639 -2.3787  0.0271
  745SOL     MW 2980   1.721   0.428   2.490  0.6345 -0.4570 -0.1792
  746SOL     OW 2981   1.585   1.502   1.638 -0.2207  0.1077  0.0893
  746SOL    HW1 2982   1.674   1.471   1.621 -2.0859  0.4313  0.2659
  746SOL    HW2 2983   1.565   1.464   1.724  1.0033 -3.7144 -0.7164
  746SOL     MW 2984   1.594   1.493   1.647 -0.3053 -0.3539  0.0063
  747SOL     OW 2985   2.555   1.149   1.816 -0.2122  0.2026 -0.5230
  747SOL    HW1 2986   2.480   1.159   1.757 -0.8485  0.7698 -1.0034
  747SOL    HW2 2987   2.557   1.225   1.883 -1.8035 -0.1095  1.4011
  747SOL     MW 2988   2.545   1.160   1.817 -0.5061  0.2363 -0.3325
  748SOL     OW 2989   0.096   0.039   1.850  0.2555 -0.0648  0.6167
  748SOL    HW1 2990   0.187   0.069   1.834  0.5442  2.3253 -1.2730
  748SOL    HW2 2991   0.071   0.077   1.934 -1.4304 -0.4552  2.0373
  748SOL     MW 2992   0.105   0.048   1.859  0.0711  0.1991  0.5548
  749SOL     OW 2993   2.503   0.533   2.714 -0.3643  0.6299  0.3522
  749SOL    HW1 2994   2.515   0.598   2.645 -1.4257  1.5860  0.5598
  749SOL    HW2 2995   2.498   0.599   2.787  0.2956  1.6198  1.2969
  749SOL     MW 2996   2.504   0.550   2.714 -0.4172  0.8867  0.5043
  750SOL     OW 2997   2.025   3.026   1.994  0.5103 -0.3126 -0.2187
  750SOL    HW1 2998   2.078   3.111   1.997 -0.3355 -0.4154 -0.0325
  750SOL    HW2 2999   2.094   2.961   1.978  1.2092 -1.5009 -1.0313
  750SOL     MW 3000   2.041   3.029   1.992  0.4909 -0.4830 -0.3014
  751SOL     OW 3001   0.084   0.414   2.330 -0.0601 -0.4350  0.2776
  751SOL    HW1 3002   0.082   0.340   2.385 -1.7295  2.6261  0.3721
  751SOL    HW2 3003   0.171   0.418   2.284  1.6118  0.2442  1.1008
  751SOL     MW 3004   0.095   0.405   2.331 -0.0598  0.0585  0.3987
  752SOL     OW 3005   2.142   0.774   2.698 -0.0527 -0.4361  0.3599
  752SOL    HW1 3006   2.208   0.832   2.660 -1.9371 -0.2372 -0.5176
  752SOL    HW2 3007   2.135   0.794   2.793 -1.2417  1.7991 -0.2043
  752SOL     MW 3008   2.150   0.784   2.706 -0.4582 -0.1149  0.1697
  753SOL     OW 3009   2.925   0.269   2.436  0.2802  0.1045  0.4117
  753SOL    HW1 3010   2.890   0.209   2.378 -0.4905  0.3238  2.1428
  753SOL    HW2 3011   2.873   0.350   2.439 -1.9513 -1.4716  0.8065
  753SOL     MW 3012   2.913   0.272   2.429 -0.1159 -0.0745  0.6922
  754SOL     OW 3013   2.261   2.949   2.597 -0.2838  0.0943 -0.2742
  754SOL    HW1 3014   2.273   2.946   2.504  1.0822 -1.7352  1.4052
  754SOL    HW2 3015   2.337   2.904   2.637  3.5133 -0.6669 -2.7962
  754SOL     MW 3016   2.273   2.942   2.590  0.3974 -0.2475 -0.3854
  755SOL     OW 3017   2.727   1.505   2.496  0.1314  0.1473  0.5905
  755SOL    HW1 3018   2.711   1.434   2.560 -1.7071  1.9355 -1.7142
  755SOL    HW2 3019   2.801   1.557   2.531  1.0692 -0.1763 -0.1078
  755SOL     MW 3020   2.735   1.502   2.509  0.0126  0.3406  0.1943
  756SOL     OW 3021   2.229   1.231   3.012 -0.5944 -0.3963  0.1348
  756SOL    HW1 3022   2.276   1.308   3.044  0.4745  0.5798 -1.4838
  756SOL    HW2 3023   2.292   1.158   3.015  3.2828  0.5925 -1.6095
  756SOL     MW 3024   2.243   1.232   3.017  0.0582 -0.1370 -0.3089
  757SOL     OW 3025   2.097   0.932   1.602  0.4129  0.0946 -0.5370
  757SOL    HW1 3026   2.139   0.846   1.612 -1.4623 -0.5761 -0.6855
  757SOL    HW2 3027   2.008   0.908   1.564  0.2919  0.2534  0.0375
  757SOL     MW 3028   2.091   0.918   1.598  0.1495  0.0271 -0.4808
  758SOL     OW 3029   2.201   1.708   2.659  0.6655  0.1515 -0.0207
  758SOL    HW1 3030   2.177   1.750   2.578 -0.6268  0.9615 -1.8420
  758SOL    HW2 3031   2.293   1.704   2.679 -0.0415 -2.1334  0.6574
  758SOL     MW 3032   2.210   1.713   2.651  0.4017 -0.0431 -0.1715
  759SOL     OW 3033   1.628   1.381   2.648  0.0147 -0.0055 -0.0621
  759SOL    HW1 3034   1.601   1.458   2.598 -2.7068 -0.5464  0.9720
  759SOL    HW2 3035   1.680   1.406   2.724  0.4646  0.0175 -0.4426
  759SOL     MW 3036   1.631   1.395   2.652 -0.2850 -0.0738  0.0241
  760SOL     OW 3037   2.625   1.995   2.707  0.2178 -0.0646  0.4359
  760SOL    HW1 3038   2.586   1.909   2.693 -1.6403  0.6018  0.5769
  760SOL    HW2 3039   2.571   2.057   2.648 -3.9913 -1.0120 -1.2644
  760SOL     MW 3040   2.613   1.992   2.697 -0.5827 -0.1017  0.2302
  761SOL     OW 3041   2.199   0.394   2.449  0.0155 -0.3519 -0.2102
  761SOL    HW1 3042   2.115   0.352   2.438 -0.8060 -0.3524 -0.3902
  761SOL    HW2 3043   2.194   0.414   2.543  0.1906  2.3745  1.6824
  761SOL     MW 3044   2.187   0.391   2.460 -0.0698  0.0078  0.0158
  762SOL     OW 3045   0.026   0.170   2.096  0.2674  0.4733  0.4074
  762SOL    HW1 3046  -0.002   0.122   2.171 -3.6921  0.6825 -0.5559
  762SOL    HW2 3047  -0.035   0.239   2.071 -3.7031 -0.7400 -0.8761
  762SOL     MW 3048   0.015   0.173   2.103 -0.7789  0.3409  0.1110
  763SOL     OW 3049   2.374   1.069   2.301 -0.3108 -0.0800  0.2251
  763SOL    HW1 3050   2.426   1.038   2.222  1.5626  2.6393 -2.2816
  763SOL    HW2 3051   2.445   1.122   2.347 -1.0739 -0.5169  0.5522
  763SOL     MW 3052   2.390   1.072   2.297 -0.1643  0.2211 -0.0625
  764SOL     OW 3053   0.440   0.295   2.791  0.0354 -0.4684 -0.3213
  764SOL    HW1 3054   0.361   0.262   2.759  2.7992  0.4127  2.2560
  764SOL    HW2 3055   0.417   0.375   2.844  0.4611  0.4372 -1.2676
  764SOL     MW 3056   0.426   0.302   2.794  0.4562 -0.2327 -0.1061
  765SOL     OW 3057   2.767   0.087   2.316  0.0749 -0.8276 -0.1086
  765SOL    HW1 3058   2.727   0.078   2.228 -0.5289  0.0452 -0.6767
  765SOL    HW2 3059   2.808   0.006   2.344 -0.6798  1.3599  1.4569
  765SOL     MW 3060   2.767   0.075   2.308 -0.1044 -0.4238  0.0230
  766SOL     OW 3061   1.809   2.977   2.175 -0.0173  0.0124 -0.0749
  766SOL    HW1 3062   1.873   3.009   2.110 -1.9445 -0.3124 -0.8548
  766SOL    HW2 3063   1.778   2.885   2.138 -1.0293 -0.7998 -0.9616
  766SOL     MW 3064   1.813   2.969   2.162 -0.4051 -0.1376 -0.2948
  767SOL     OW 3065   2.649   0.638   1.900 -0.0683 -0.3115  0.0874
  767SOL    HW1 3066   2.645   0.683   1.982  1.4340 -2.4153  0.2878
  767SOL    HW2 3067   2.560   0.617   1.878  0.5687 -0.5718 -0.9941
  767SOL     MW 3068   2.637   0.641   1.908  0.2140 -0.6234 -0.0289
  768SOL     OW 3069  -0.002   1.546   2.941 -0.2212  0.2086  0.3327
  768SOL    HW1 3070   0.016   1.505   3.033  0.6141  0.5549  3.6651
  768SOL    HW2 3071   0.030   1.470   2.882 -2.1142  0.2727 -0.7771
  768SOL     MW 3072   0.005   1.530   2.945 -0.3607  0.2628  0.6260
  769SOL     OW 3073   2.419   0.663   2.335  0.4204 -0.3902 -0.4735
  769SOL    HW1 3074   2.325   0.633   2.339  1.6414  1.4747 -1.5896
  769SOL    HW2 3075   2.467   0.623   2.262  0.7449 -0.8222  3.4648
  769SOL     MW 3076   2.413   0.654   2.326  0.6243 -0.2012 -0.1011
  770SOL     OW 3077   0.101   1.594   2.609  0.3334  0.3557 -0.2204
  770SOL    HW1 3078   0.001   1.600   2.599 -0.1091  0.0226 -1.4233
  770SOL    HW2 3079   0.108   1.505   2.651  1.1503  0.7720 -0.9591
  770SOL     MW 3080   0.089   1.583   2.613  0.3828  0.3667 -0.4766
  771SOL     OW 3081   2.976   0.630   1.937  0.9309  0.2633  0.6359
  771SOL    HW1 3082   2.954   0.609   1.843  1.5445 -0.6698  1.1937
  771SOL    HW2 3083   3.073   0.640   1.934  1.5390  0.0736  0.5744
  771SOL     MW 3084   2.986   0.628   1.925  1.0921  0.1152  0.7014
  772SOL     OW 3085  -0.001   3.094   2.298 -0.4631  0.2156  0.4200
  772SOL    HW1 3086  -0.046   3.035   2.358  0.7417 -1.4065  0.8575
  772SOL    HW2 3087   0.065   3.032   2.263 -0.9501  1.4631 -0.9159
  772SOL     MW 3088   0.002   3.078   2.301 -0.3684  0.1662  0.3014
  773SOL     OW 3089   2.465   2.852   2.729 -0.1087 -0.2462  0.1674
  773SOL    HW1 3090   2.468   2.766   2.679  0.2809 -0.5735  0.6348
  773SOL    HW2 3091   2.442   2.832   2.819  0.2577  2.2162  0.7049
  773SOL     MW 3092   2.462   2.838   2.734 -0.0090  0.0355  0.3000
  774SOL     OW 3093   2.287   1.118   1.705  0.7183 -0.2318  0.2581
  774SOL    HW1 3094   2.294   1.202   1.661  2.2993 -0.6079 -0.7228
  774SOL    HW2 3095   2.213   1.064   1.658  0.7079 -2.8872 -0.1536
  774SOL     MW 3096   2.278   1.122   1.693  0.9255 -0.6317  0.0744
  775SOL     OW 3097   2.281   2.917   2.332 -0.4795 -0.0541 -0.1089
  775SOL    HW1 3098   2.304   2.991   2.273 -0.3256  4.5675  3.3533
  775SOL    HW2 3099   2.334   2.842   2.297  2.2181 -1.8564 -0.4026
  775SOL     MW 3100   2.291   2.917   2.320 -0.1032  0.3179  0.3091
  776SOL     OW 3101   0.083   1.488   0.099  0.7318  0.2305 -0.1099
  776SOL    HW1 3102   0.162   1.441   0.106 -0.4851  1.4524 -1.8785
  776SOL    HW2 3103   0.031   1.409   0.115 -2.8337 -0.4930 -4.0671
  776SOL     MW 3104   0.087   1.471   0.102  0.1008  0.2963 -0.8654
  777SOL     OW 3105   2.963   1.071   1.772 -0.3601 -0.1248  0.2053
  777SOL    HW1 3106   2.908   1.142   1.737 -0.3908  1.2758  3.4105
  777SOL    HW2 3107   2.904   1.008   1.807  2.5409  0.6679 -2.5121
  777SOL     MW 3108   2.948   1.072   1.772  0.0186  0.1646  0.2697
  778SOL     OW 3109   2.904   0.404   2.809  0.1430 -0.2650  0.0827
  778SOL    HW1 3110   2.837   0.449   2.864 -1.0634 -0.2025  2.1438
  778SOL    HW2 3111   2.918   0.474   2.743  1.2144 -0.9486  1.9653
  778SOL     MW 3112   2.897   0.419   2.808  0.1252 -0.3469  0.6031
  779SOL     OW 3113   2.134   0.627   2.330  0.3718 -0.6171  0.5983
  779SOL    HW1 3114   2.030   0.639   2.336 -2.1358 -0.9659 -0.0791
  779SOL    HW2 3115   2.141   0.541   2.368 -0.8167 -3.7524 -0.2405
  779SOL     MW 3116   2.121   0.617   2.335 -0.1159 -1.0768  0.3982
  780SOL     OW 3117   0.234   0.087   2.801 -0.1408  0.0390 -0.1833
  780SOL    HW1 3118   0.208   0.158   2.862  0.5912  1.3217  0.4681
  780SOL    HW2 3119   0.149   0.057   2.764  0.5306 -1.0356 -1.7341
  780SOL     MW 3120   0.219   0.092   2.804  0.0444  0.0665 -0.3020
  781SOL     OW 3121   3.005   1.304   2.494  0.1063 -0.0425  0.0180
  781SOL    HW1 3122   2.998   1.349   2.413  0.3916 -1.4532  0.4755
  781SOL    HW2 3123   3.007   1.213   2.477 -0.1512  1.1723 -0.6237
  781SOL     MW 3124   3.004   1.298   2.481  0.1100 -0.0683 -0.0063
  782SOL     OW 3125   0.606   1.509   3.071 -0.3609 -0.2700 -0.4099
  782SOL    HW1 3126   0.561   1.588   3.051 -2.6840  0.7505  0.6087
  782SOL    HW2 3127   0.579   1.487   3.166  0.9706  1.1395  0.2833
  782SOL     MW 3128   0.597   1.517   3.081 -0.4918  0.0506 -0.1841
  783SOL     OW 3129   2.717   0.505   2.461  0.4307  0.0099  0.1256
  783SOL    HW1 3130   2.655   0.498   2.386  0.2753 -0.8141 -0.4695
  783SOL    HW2 3131   2.694   0.439   2.529  0.7098  0.3491 -0.3908
  783SOL     MW 3132   2.705   0.495   2.460  0.4471 -0.0541 -0.0211
  784SOL     OW 3133   0.276   0.912   2.883  0.3870  0.4833  0.2720
  784SOL    HW1 3134   0.208   0.971   2.928  1.2285 -2.0864 -0.3337
  784SOL    HW2 3135   0.315   0.966   2.821  2.2956  1.2991 -0.1951
  784SOL     MW 3136   0.272   0.927   2.881  0.7498  0.2519  0.1305
  785SOL     OW 3137   0.443   0.560   2.172 -0.3623  0.0988 -0.2202
  785SOL    HW1 3138   0.449   0.576   2.074  1.0361  1.1018 -1.0961
  785SOL    HW2 3139   0.392   0.477   2.189  2.3854 -1.5260  5.0235
  785SOL     MW 3140   0.437   0.551   2.162  0.1847  0.0167  0.3561
  786SOL     OW 3141   1.951   0.472   2.838  0.7600 -0.3301 -0.6973
  786SOL    HW1 3142   1.986   0.515   2.921  0.7910  2.7260  1.0040
  786SOL    HW2 3143   2.026   0.449   2.797 -1.2283 -0.5582  1.7556
  786SOL     MW 3144   1.965   0.475   2.844  0.5017  0.0430 -0.1492
  787SOL     OW 3145   2.428   0.148   2.973 -0.0258  0.1965 -0.4258
  787SOL    HW1 3146   2.497   0.100   2.927  1.5501  1.8570 -0.4565
  787SOL    HW2 3147   2.471   0.221   3.016  2.9757 -1.7991 -1.1494
  787SOL     MW 3148   2.442   0.152   2.973  0.5782  0.1523 -0.5253
  788SOL     OW 3149   2.852   2.929   2.386  0.1494 -0.0710 -0.1363
  788SOL    HW1 3150   2.800   2.896   2.318 -1.1977 -1.4473 -1.8352
  788SOL    HW2 3151   2.913   2.862   2.415  0.3243 -2.4924  0.1565
  788SOL     MW 3152   2.853   2.916   2.381 -0.0052 -0.5721 -0.3218
  789SOL     OW 3153   0.123   0.283   2.946  0.1831 -1.0222 -0.1218
  789SOL    HW1 3154   0.052   0.227   2.979  0.9517  0.5147 -0.6703
  789SOL    HW2 3155   0.074   0.367   2.933  0.0208  1.9817 -0.6163
  789SOL     MW 3156   0.107   0.286   2.949  0.2631 -0.4231 -0.2594
  790SOL     OW 3157   3.066   1.019   2.423 -0.1615  0.0323 -0.5770
  790SOL    HW1 3158   3.050   0.950   2.488  1.4463 -0.1174  2.0732
  790SOL    HW2 3159   3.008   0.998   2.349  0.0739  3.0714  2.1620
  790SOL     MW 3160   3.056   1.007   2.422  0.0817  0.4136  0.1340
  791SOL     OW 3161   2.702   0.322   2.655  0.0096  0.1540  0.0842
  791SOL    HW1 3162   2.637   0.392   2.689 -0.3479  2.2542  0.5680
  791SOL    HW2 3163   2.781   0.330   2.710  0.7673 -1.0229  1.6347
  791SOL     MW 3164   2.704   0.332   2.667  0.0624  0.2758  0.3526
  792SOL     OW 3165   2.396   0.225   2.355 -0.2518  0.1207 -0.7968
  792SOL    HW1 3166   2.333   0.289   2.385  0.8866  0.0602  0.9827
  792SOL    HW2 3167   2.439   0.200   2.433  1.9596 -1.7425 -0.1227
  792SOL     MW 3168   2.394   0.230   2.369  0.1902 -0.1331 -0.4731
  793SOL     OW 3169   1.856   1.067   1.950  0.0886 -0.7148 -0.1344
  793SOL    HW1 3170   1.774   1.070   1.907 -1.6924  1.1493 -1.2808
  793SOL    HW2 3171   1.919   1.027   1.889 -1.8331  1.4175  1.9577
  793SOL     MW 3172   1.854   1.062   1.936 -0.4000 -0.1875 -0.0096
  794SOL     OW 3173   1.457   2.271   0.178  0.0199 -0.4243  0.0581
  794SOL    HW1 3174   1.481   2.336   0.109  0.6194  0.8742 -1.1215
  794SOL    HW2 3175   1.507   2.285   0.261 -1.4731 -3.5836  1.7493
  794SOL     MW 3176   1.467   2.281   0.180 -0.0979 -0.6698  0.1256
  795SOL     OW 3177   2.328   0.967   2.583 -0.2898 -0.2197  0.5334
  795SOL    HW1 3178   2.308   1.055   2.615 -0.6760  0.5272 -1.4622
  795SOL    HW2 3179   2.321   0.958   2.492 -0.6186 -1.1085  2.9966
  795SOL     MW 3180   2.325   0.978   2.575 -0.3841 -0.2385  0.5951
  796SOL     OW 3181   0.238   0.656   2.777  0.5304 -0.2777 -0.6664
  796SOL    HW1 3182   0.218   0.732   2.827 -0.6052 -0.9802 -1.5908
  796SOL    HW2 3183   0.176   0.663   2.704 -1.9590 -0.7302  0.3710
  796SOL     MW 3184   0.227   0.667   2.774  0.0521 -0.4301 -0.6515
  797SOL     OW 3185   2.580   0.112   2.531  0.2478 -0.1121  0.5408
  797SOL    HW1 3186   2.631   0.188   2.575  2.4921  3.7492  2.5054
  797SOL    HW2 3187   2.637   0.075   2.460  1.5538  0.2557  0.1516
  797SOL     MW 3188   2.594   0.117   2.528  0.7162  0.4459  0.7486
  798SOL     OW 3189   2.360   0.028   2.163  0.1176  0.0880  0.5104
  798SOL    HW1 3190   2.365   0.094   2.239  0.7451 -1.1410  1.5854
  798SOL    HW2 3191   2.453   0.027   2.140  1.4244 -0.0902 -1.6772
  798SOL     MW 3192   2.373   0.037   2.170  0.3728 -0.0977  0.3636
  799SOL     OW 3193   2.454   2.921   0.159 -0.0237  0.5687  0.3325
  799SOL    HW1 3194   2.425   2.867   0.085  0.4999  0.3904  1.9117
  799SOL    HW2 3195   2.415   3.004   0.142 -0.1284 -1.0682  0.4018
  799SOL     MW 3196   2.445   2.925   0.147  0.0316  0.3292  0.5500
  800SOL     OW 3197   1.837   3.081   1.783 -0.1069 -0.0852 -0.0955
  800SOL    HW1 3198   1.800   2.993   1.776  0.9746  0.6001 -2.0737
  800SOL    HW2 3199   1.897   3.077   1.861 -2.0474  0.2769  1.4970
  800SOL     MW 3200   1.840   3.069   1.792 -0.2202  0.0530 -0.1464
  801SOL     OW 3201   2.788   1.296   2.653  0.4450  0.0323 -0.3485
  801SOL    HW1 3202   2.746   1.215   2.611  1.6315  0.4584  0.4265
  801SOL    HW2 3203   2.865   1.319   2.599 -4.0212 -1.3905 -1.3232
  801SOL     MW 3204   2.793   1.288   2.640  0.0123 -0.0992 -0.3748
  802SOL     OW 3205   2.556   1.554   2.820 -0.5353 -0.3507 -0.4649
  802SOL    HW1 3206   2.535   1.466   2.777  0.5199 -2.7104  0.2492
  802SOL    HW2 3207   2.658   1.552   2.823  3.1530  0.4787 -1.0817
  802SOL     MW 3208   2.567   1.542   2.815  0.0906 -0.5526 -0.4520
  803SOL     OW 3209   2.314   1.349   1.963  0.2436 -0.4460  0.3704
  803SOL    HW1 3210   2.266   1.336   2.041 -1.4041 -2.1332 -2.1262
  803SOL    HW2 3211   2.283   1.274   1.912  0.0949  0.2263 -3.1397
  803SOL     MW 3212   2.303   1.338   1.966  0.0066 -0.5799 -0.4221
  804SOL     OW 3213   2.291   0.043   0.073  0.7568 -0.1914  0.2275
  804SOL    HW1 3214   2.222   0.106   0.102  0.7396 -0.0998  0.4419
  804SOL    HW2 3215   2.344   0.082  -0.001 -2.0651  0.4295  0.0236
  804SOL     MW 3216   2.289   0.057   0.067  0.3822 -0.0974  0.2289
  805SOL     OW 3217   2.710   1.025   2.524  0.0201  0.3017  0.0969
  805SOL    HW1 3218   2.691   0.978   2.443 -2.6022 -0.4383  1.6635
  805SOL    HW2 3219   2.782   0.977   2.566 -0.0405 -1.5145  2.5939
  805SOL     MW 3220   2.717   1.012   2.519 -0.3339 -0.0356  0.6330
  806SOL     OW 3221   2.580   0.406   2.251 -0.3373  0.0035 -0.4036
  806SOL    HW1 3222   2.510   0.335   2.270 -1.5110  0.8342 -1.0738
  806SOL    HW2 3223   2.624   0.384   2.170  1.4179 -3.2732  1.1704
  806SOL     MW 3224   2.576   0.394   2.243 -0.2606 -0.3192 -0.2843
  807SOL     OW 3225   3.096   1.116   2.056 -0.4579 -0.1793  0.7811
  807SOL    HW1 3226   3.130   1.047   1.993 -1.0113  0.7807  3.5469
  807SOL    HW2 3227   3.003   1.085   2.085 -0.7943 -2.2451  1.3328
  807SOL     MW 3228   3.088   1.103   2.051 -0.5753 -0.3252  1.2188
  808SOL     OW 3229   2.585   0.009   2.773  0.0244 -0.2368  0.3809
  808SOL    HW1 3230   2.553  -0.077   2.749 -0.8166  0.7456  1.4855
  808SOL    HW2 3231   2.593   0.048   2.681  1.9549  1.2834 -2.5191
  808SOL     MW 3232   2.582   0.003   2.757  0.1682  0.0934  0.1440
  809SOL     OW 3233   2.565   1.250   2.375 -0.6209 -0.5763  0.1046
  809SOL    HW1 3234   2.606   1.194   2.441 -4.0211 -0.4758 -2.4167
  809SOL    HW2 3235   2.640   1.261   2.314  0.5020  2.4390  0.5310
  809SOL     MW 3236   2.581   1.244   2.376 -0.9214 -0.1652 -0.1718
  810SOL     OW 3237   2.218   1.268   2.226 -0.4413 -0.6422  0.0794
  810SOL    HW1 3238   2.270   1.194   2.261 -0.4289  1.1642  0.0611
  810SOL    HW2 3239   2.125   1.237   2.226  1.7907 -2.2931 -1.8224
  810SOL     MW 3240   2.213   1.254   2.231 -0.1452 -0.6216 -0.1740
  811SOL     OW 3241   1.530   0.090   2.290 -0.0598  0.3003  0.7259
  811SOL    HW1 3242   1.605   0.051   2.326 -4.3569 -2.0155 -0.2072
  811SOL    HW2 3243   1.531   0.096   2.197 -5.7249  3.2516 -0.5565
  811SOL     MW 3244   1.540   0.086   2.283 -1.3743  0.3841  0.4336
  812SOL     OW 3245   1.450   2.771   2.039 -0.1150 -0.0908  0.0459
  812SOL    HW1 3246   1.545   2.772   2.060  0.6546 -0.3723 -3.7434
  812SOL    HW2 3247   1.407   2.777   2.126  1.4390 -1.7813  1.6927
  812SOL     MW 3248   1.457   2.772   2.053  0.1916 -0.3510 -0.2368
  813SOL     OW 3249   1.794   0.708   2.190  0.5156 -0.2563  0.1877
  813SOL    HW1 3250   1.754   0.622   2.211 -1.8279  1.9033  0.1114
  813SOL    HW2 3251   1.837   0.741   2.269  0.1819  1.3682 -2.5817
  813SOL     MW 3252   1.795   0.701   2.204  0.1624  0.2430 -0.1877
  814SOL     OW 3253   2.772   1.242   1.644 -0.2352  0.3849 -0.4015
  814SOL    HW1 3254   2.700   1.192   1.690 -1.6537 -1.8585 -0.8009
  814SOL    HW2 3255   2.770   1.215   1.552 -1.2510  0.9192 -0.8376
  814SOL     MW 3256   2.762   1.232   1.638 -0.5564  0.1594 -0.5118
  815SOL     OW 3257   2.509   1.646   2.391 -0.2599  0.7774 -0.3819
  815SOL    HW1 3258   2.424   1.598   2.390  0.7012  1.8134  0.3183
  815SOL    HW2 3259   2.578   1.589   2.426  0.7272  0.0972  3.5719
  815SOL     MW 3260   2.507   1.633   2.396 -0.0029  0.8244  0.2321
  816SOL     OW 3261   0.754   0.633   2.769  0.2560  0.5401 -0.2366
  816SOL    HW1 3262   0.753   0.559   2.833 -2.1023  0.0890  0.0840
  816SOL    HW2 3263   0.664   0.640   2.746  0.9559 -1.6259  0.1440
  816SOL     MW 3264   0.742   0.624   2.775  0.0372  0.1948 -0.1441
  817SOL     OW 3265   3.058   1.172   1.369 -0.0002 -0.0170 -0.1511
  817SOL    HW1 3266   3.092   1.171   1.460 -1.1139  0.9894 -0.2068
  817SOL    HW2 3267   3.045   1.269   1.357 -1.6366 -0.6738  3.1020
  817SOL     MW 3268   3.061   1.185   1.380 -0.3630  0.0291  0.2708
  818SOL     OW 3269   1.910   1.004   2.757  0.0188  0.5126 -0.8688
  818SOL    HW1 3270   1.949   1.024   2.673 -0.6137 -1.1970 -0.1754
  818SOL    HW2 3271   1.973   0.953   2.804  1.4484  0.9940  0.8740
  818SOL     MW 3272   1.923   1.000   2.752  0.1240  0.3506 -0.5474
  819SOL     OW 3273   1.940   0.240   2.482  0.1791 -0.0394  0.0505
  819SOL    HW1 3274   1.869   0.303   2.494  1.7357 -2.6541  0.1484
  819SOL    HW2 3275   1.981   0.226   2.566  2.0561 -1.8402 -1.1834
  819SOL     MW 3276   1.936   0.246   2.495  0.6321 -0.6220 -0.0994
  820SOL     OW 3277   2.480   1.755   2.650 -0.1056 -0.1905 -0.2116
  820SOL    HW1 3278   2.511   1.682   2.709  0.2562 -2.2423 -0.8379
  820SOL    HW2 3279   2.498   1.734   2.562  0.1936 -2.3891  3.0317
  820SOL     MW 3280   2.486   1.743   2.646 -0.0184 -0.7513  0.1337
  821SOL     OW 3281   2.585   1.354   1.981  0.3765 -0.3599 -0.2163
  821SOL    HW1 3282   2.604   1.434   1.928 -1.0907  0.4848 -0.0328
  821SOL    HW2 3283   2.491   1.361   1.999  2.0770 -0.6476 -0.6161
  821SOL     MW 3284   2.575   1.365   1.976  0.4073 -0.2865 -0.2448
  822SOL     OW 3285   2.834   2.681   1.473  0.0380  0.1573 -0.1950
  822SOL    HW1 3286   2.872   2.736   1.543  4.4602  1.5416 -1.2347
  822SOL    HW2 3287   2.762   2.737   1.435  0.6423  0.4793  1.2228
  822SOL     MW 3288   2.829   2.696   1.477  0.7012  0.3824 -0.1452
  823SOL     OW 3289   2.242   0.458   1.768  0.5318 -0.4035  0.3402
  823SOL    HW1 3290   2.320   0.429   1.720  0.7989  0.4424 -0.2698
  823SOL    HW2 3291   2.172   0.386   1.761 -0.8189 -0.5734  2.2228
  823SOL     MW 3292   2.243   0.445   1.761  0.3888 -0.3143  0.5081
  824SOL     OW 3293   2.070   1.399   2.500  0.6306 -0.3289 -0.2988
  824SOL    HW1 3294   2.150   1.426   2.469 -1.4706  1.7511 -1.7941
  824SOL    HW2 3295   2.032   1.477   2.532 -0.6396 -0.7484 -0.1656
  824SOL     MW 3296   2.076   1.413   2.500  0.1858 -0.1098 -0.4785
  825SOL     OW 3297   2.062   2.546   0.334  0.4453  0.2871  0.5761
  825SOL    HW1 3298   2.063   2.475   0.403 -0.5748 -0.2006 -0.3316
  825SOL    HW2 3299   2.083   2.497   0.258 -2.2621  0.2133  3.8732
  825SOL     MW 3300   2.065   2.531   0.333 -0.0465  0.2131  0.8913
  826SOL     OW 3301   1.903   2.369   0.497 -0.3923  0.5770 -0.3034
  826SOL    HW1 3302   1.849   2.291   0.511 -2.0061  1.1061 -4.1702
  826SOL    HW2 3303   1.881   2.434   0.568 -0.6351 -0.6030 -3.3895
  826SOL     MW 3304   1.893   2.367   0.508 -0.6372  0.4912 -1.2207
  827SOL     OW 3305   1.958   2.186   0.830 -0.1346 -0.6411  0.1943
  827SOL    HW1 3306   1.887   2.216   0.768 -2.4990 -0.6269  1.9416
  827SOL    HW2 3307   1.918   2.110   0.876  0.3856  1.5744  1.1819
  827SOL     MW 3308   1.943   2.180   0.828 -0.3780 -0.3469  0.5551
  828SOL     OW 3309   0.055   2.618   0.504 -0.3352  0.1658  0.1579
  828SOL    HW1 3310   0.150   2.640   0.525 -0.6700 -0.4300 -0.8664
  828SOL    HW2 3311   0.036   2.684   0.436 -1.9832 -0.4006 -0.3594
  828SOL     MW 3312   0.065   2.630   0.498 -0.5968  0.0125 -0.0455
  829SOL     OW 3313   3.002   2.945   1.212  0.1291 -0.1885 -0.1723
  829SOL    HW1 3314   2.945   2.948   1.138  1.0532 -0.1418  0.9507
  829SOL    HW2 3315   3.045   2.859   1.202  0.7982 -3.4455  0.1972
  829SOL     MW 3316   3.000   2.934   1.201  0.3394 -0.6121  0.0246
  830SOL     OW 3317   2.524   2.859   2.038 -0.2819 -0.2669 -0.0885
  830SOL    HW1 3318   2.430   2.858   2.001 -0.0396 -1.7603 -1.6422
  830SOL    HW2 3319   2.573   2.826   1.963 -1.3138 -0.1613  2.2835
  830SOL     MW 3320   2.518   2.855   2.023 -0.3861 -0.4500  0.0195
  831SOL     OW 3321   2.400   2.448   1.238  0.5275 -0.0446  0.0468
  831SOL    HW1 3322   2.368   2.367   1.286  2.1407  2.3703  2.0545
  831SOL    HW2 3323   2.493   2.414   1.216  1.6449 -1.2718  0.1637
  831SOL     MW 3324   2.408   2.433   1.242  0.8878  0.1121  0.3271
  832SOL     OW 3325   2.382   2.131   1.828 -0.3508 -0.4426 -0.4757
  832SOL    HW1 3326   2.376   2.224   1.844 -0.2826  1.0081 -0.8011
  832SOL    HW2 3327   2.473   2.112   1.808 -0.1051  0.1924 -1.4580
  832SOL     MW 3328   2.393   2.141   1.827 -0.3094 -0.1674 -0.6482
  833SOL     OW 3329   1.795   2.486   0.920 -0.8004  0.3658  0.4453
  833SOL    HW1 3330   1.712   2.430   0.948  0.9422 -3.3295 -0.3913
  833SOL    HW2 3331   1.793   2.572   0.970  2.3473  0.3167 -5.2572
  833SOL     MW 3332   1.783   2.490   0.930 -0.1552 -0.1282 -0.4174
  834SOL     OW 3333   2.234   2.437   0.557  0.0777 -0.6129  0.7110
  834SOL    HW1 3334   2.301   2.375   0.583 -0.2938 -3.0637  0.4555
  834SOL    HW2 3335   2.269   2.460   0.465 -0.7134 -1.3323 -2.5268
  834SOL     MW 3336   2.247   2.432   0.548 -0.0757 -1.0312  0.2501
  835SOL     OW 3337   1.862   2.594   0.676 -0.6827 -0.0563  0.1968
  835SOL    HW1 3338   1.836   2.557   0.762  1.8789  0.7605  0.0238
  835SOL    HW2 3339   1.940   2.653   0.694  1.7212 -1.0636 -1.8422
  835SOL     MW 3340   1.869   2.597   0.690 -0.0276 -0.0814 -0.0951
  836SOL     OW 3341   2.016   2.185   1.641  0.6434  0.7399 -0.1488
  836SOL    HW1 3342   2.098   2.138   1.619 -0.4080 -0.7616 -0.5903
  836SOL    HW2 3343   2.037   2.277   1.634 -0.9182  0.1624 -1.7251
  836SOL     MW 3344   2.030   2.191   1.637  0.2986  0.4656 -0.4151
  837SOL     OW 3345   2.042   0.165   0.720 -0.2486 -0.5524  0.2293
  837SOL    HW1 3346   1.975   0.214   0.661 -0.4518  1.5506 -0.1336
  837SOL    HW2 3347   2.078   0.101   0.660 -2.4755  1.3718  0.4933
  837SOL     MW 3348   2.038   0.163   0.704 -0.5693 -0.0210  0.2162
  838SOL     OW 3349   2.863   2.055   0.924 -0.0317 -0.2488  0.5363
  838SOL    HW1 3350   2.784   2.002   0.947 -0.1273  3.0744 -0.3429
  838SOL    HW2 3351   2.922   2.052   1.000  0.4972 -0.2144  1.7043
  838SOL     MW 3352   2.860   2.047   0.938  0.0255  0.1942  0.5744
  839SOL     OW 3353   1.517   2.386   0.943  0.4353  0.6665  0.4552
  839SOL    HW1 3354   1.477   2.449   1.002  2.2022  3.2334 -0.6251
  839SOL    HW2 3355   1.549   2.310   0.994 -0.1589  1.0936  0.7773
  839SOL     MW 3356   1.516   2.384   0.958  0.5900  1.0615  0.3552
  840SOL     OW 3357   2.262   2.068   2.410 -0.3900  0.0043  0.5763
  840SOL    HW1 3358   2.243   2.141   2.351 -3.4557  4.6137 -1.2620
  840SOL    HW2 3359   2.319   2.104   2.478  0.0768 -0.9406  1.3490
  840SOL     MW 3360   2.267   2.082   2.411 -0.7329  0.4878  0.4357
  841SOL     OW 3361   2.234   2.431   0.050  0.7174  0.4644 -0.3638
  841SOL    HW1 3362   2.286   2.468  -0.021 -1.2381 -2.1967  1.1816
  841SOL    HW2 3363   2.171   2.367   0.014  2.3821 -3.3495  2.2051
  841SOL     MW 3364   2.233   2.428   0.036  0.6790 -0.3899  0.1790
  842SOL     OW 3365   2.663   2.014   1.492  0.2238  0.1013 -0.1630
  842SOL    HW1 3366   2.623   1.934   1.508 -2.2732  0.9689  0.4686
  842SOL    HW2 3367   2.641   2.030   1.395  2.6792  0.5641  1.4032
  842SOL     MW 3368   2.655   2.006   1.482  0.2183  0.2769  0.1270
  843SOL     OW 3369   2.639   2.803   1.787 -0.3609 -0.2668 -0.0395
  843SOL    HW1 3370   2.722   2.760   1.761 -1.9102 -2.4528 -1.7994
  843SOL    HW2 3371   2.573   2.748   1.751 -1.1741  0.7419  1.2381
  843SOL     MW 3372   2.641   2.790   1.779 -0.6726 -0.4221 -0.1031
  844SOL     OW 3373   2.640   2.354   1.201  0.2009  0.1216 -0.0215
  844SOL    HW1 3374   2.696   2.372   1.125 -0.3030 -1.4871  0.0590
  844SOL    HW2 3375   2.694   2.360   1.285  0.9655 -3.0695 -1.7579
  844SOL     MW 3376   2.655   2.357   1.202  0.2353 -0.5117 -0.2400
  845SOL     OW 3377   2.843   2.552   0.355  0.5384  0.6366 -0.0150
  845SOL    HW1 3378   2.776   2.483   0.351 -0.4336 -1.9073  1.7918
  845SOL    HW2 3379   2.818   2.591   0.438  2.4282 -0.9564  0.2150
  845SOL     MW 3380   2.831   2.548   0.365  0.6595  0.0908  0.2537
  846SOL     OW 3381   1.492   2.797   0.839 -0.1072  0.1750 -0.3035
  846SOL    HW1 3382   1.568   2.858   0.846  3.5581 -0.5652 -0.4876
  846SOL    HW2 3383   1.415   2.853   0.845 -1.7069 -0.4201  0.7527
  846SOL     MW 3384   1.492   2.812   0.841  0.1653 -0.0012 -0.1884
  847SOL     OW 3385   2.466   1.907   0.177 -0.1450 -0.1892  0.3419
  847SOL    HW1 3386   2.482   1.821   0.227  1.3203 -1.0982  0.9165
  847SOL    HW2 3387   2.460   1.889   0.082  1.2634  1.3298 -1.3514
  847SOL     MW 3388   2.468   1.893   0.171  0.2342 -0.1087  0.1943
  848SOL     OW 3389   2.578   2.094   1.244 -0.4931 -0.0633 -1.2236
  848SOL    HW1 3390   2.611   2.176   1.211  1.2385  1.1255  0.5939
  848SOL    HW2 3391   2.560   2.042   1.166 -1.8691  2.4380 -1.4226
  848SOL     MW 3392   2.580   2.098   1.230 -0.4461  0.4236 -1.0101
  849SOL     OW 3393   2.067   2.784   0.788 -0.3700  0.5392  0.4063
  849SOL    HW1 3394   2.080   2.736   0.873 -1.7389  2.4137 -0.6900
  849SOL    HW2 3395   2.140   2.750   0.732  1.0795  1.3700 -0.7202
  849SOL     MW 3396   2.078   2.773   0.792 -0.3593  0.8962  0.1130
  850SOL     OW 3397   2.262   1.801   1.649 -0.4105 -0.2063 -0.0600
  850SOL    HW1 3398   2.183   1.764   1.615 -0.3227 -1.2804  0.6220
  850SOL    HW2 3399   2.262   1.898   1.621  3.2102  0.7728 -1.0099
  850SOL     MW 3400   2.251   1.809   1.640  0.0788 -0.2188 -0.0954
  851SOL     OW 3401   2.404   2.359   0.302 -0.3858 -0.4690  0.0333
  851SOL    HW1 3402   2.358   2.373   0.219  0.0812 -0.8926  0.3823
  851SOL    HW2 3403   2.501   2.357   0.286  1.1327 -0.7011 -0.4937
  851SOL     MW 3404   2.411   2.361   0.289 -0.1238 -0.5555  0.0098
  852SOL     OW 3405   2.324   2.108   0.347 -0.0348  0.0554 -0.0393
  852SOL    HW1 3406   2.371   2.194   0.327  0.8980  1.0128 -2.9625
  852SOL    HW2 3407   2.374   2.055   0.284 -0.3694 -1.0233 -0.2004
  852SOL     MW 3408   2.337   2.112   0.336  0.0441  0.0394 -0.4462
  853SOL     OW 3409   2.453   2.414   1.891  0.1218 -0.2812 -0.6793
  853SOL    HW1 3410   2.477   2.476   1.822  2.3271 -1.0833  1.7391
  853SOL    HW2 3411   2.531   2.433   1.948 -0.6719 -0.5071  1.0061
  853SOL     MW 3412   2.467   2.425   1.889  0.3080 -0.4168 -0.1379
  854SOL     OW 3413   2.855   2.265   0.755 -0.0000 -0.5428 -0.5805
  854SOL    HW1 3414   2.765   2.252   0.716  0.8638  0.4847 -2.6560
  854SOL    HW2 3415   2.875   2.179   0.799 -0.2712  1.4372  0.2376
  854SOL     MW 3416   2.846   2.252   0.756  0.0782 -0.1460 -0.7464
  855SOL     OW 3417   2.671   2.360   0.337  0.7191  0.4967  0.1706
  855SOL    HW1 3418   2.634   2.358   0.430  0.5576  0.7162  2.3507
  855SOL    HW2 3419   2.713   2.273   0.322 -0.3849 -0.4463  0.6355
  855SOL     MW 3420   2.671   2.348   0.347  0.5521  0.4012  0.5196
  856SOL     OW 3421   2.138   1.923   0.234  0.6709 -0.0726  0.6496
  856SOL    HW1 3422   2.049   1.950   0.261  0.1268  0.2147 -1.0982
  856SOL    HW2 3423   2.206   1.968   0.282 -0.0239  1.1362 -3.0246
  856SOL     MW 3424   2.135   1.932   0.244  0.5074  0.1248 -0.0658
  857SOL     OW 3425   2.474   1.969   0.545  0.0892 -0.1515 -0.4189
  857SOL    HW1 3426   2.418   2.028   0.484  0.9751 -0.5207 -2.8701
  857SOL    HW2 3427   2.422   1.961   0.635  1.1943  1.1680  1.6723
  857SOL     MW 3428   2.460   1.976   0.549  0.3519 -0.0261 -0.4664
  858SOL     OW 3429   2.884   2.694   1.776  0.4414 -0.1924  0.0968
  858SOL    HW1 3430   2.977   2.713   1.802  2.1442 -0.7807  3.0042
  858SOL    HW2 3431   2.876   2.599   1.769 -1.0848  0.1650 -0.4637
  858SOL     MW 3432   2.895   2.684   1.779  0.4647 -0.2228  0.4064
  859SOL     OW 3433   2.105   2.627   1.008 -0.8246  0.4162  1.1205
  859SOL    HW1 3434   2.082   2.537   1.019  4.0086  0.0077  0.5828
  859SOL    HW2 3435   2.182   2.644   1.063 -0.4530  0.6791  1.6876
  859SOL     MW 3436   2.112   2.617   1.017 -0.1379  0.3970  1.1244
  860SOL     OW 3437   2.696   2.626   0.129 -0.4002  0.3229 -0.3586
  860SOL    HW1 3438   2.732   2.631   0.224  1.6933 -0.7052  3.6347
  860SOL    HW2 3439   2.708   2.723   0.096  1.2363  1.5165 -0.8133
  860SOL     MW 3440   2.702   2.639   0.137  0.0920  0.3447  0.1083
  861SOL     OW 3441   1.628   2.180   1.098  0.3713 -0.3991 -0.1164
  861SOL    HW1 3442   1.634   2.257   1.154 -1.0709 -0.7813 -0.9594
  861SOL    HW2 3443   1.583   2.114   1.152  0.1362 -1.1997  1.0335
  861SOL     MW 3444   1.623   2.181   1.113  0.1500 -0.5552 -0.0759
  862SOL     OW 3445   2.509   1.768   1.504  0.3810  0.1515 -0.5230
  862SOL    HW1 3446   2.427   1.766   1.548 -0.1677 -0.7186 -1.9039
  862SOL    HW2 3447   2.482   1.769   1.413 -0.7839 -2.1646  0.2355
  862SOL     MW 3448   2.495   1.768   1.498  0.1549 -0.2689 -0.6051
  863SOL     OW 3449   2.970   1.777   1.045  0.3157 -0.0513 -0.2557
  863SOL    HW1 3450   3.063   1.775   1.052 -1.1169  0.4957 -1.5986
  863SOL    HW2 3451   2.936   1.808   1.128 -1.0169  2.3488  0.1834
  863SOL     MW 3452   2.978   1.780   1.057 -0.0491  0.3375 -0.3750
  864SOL     OW 3453   0.059   1.832   0.830  0.1143 -0.2908  0.1513
  864SOL    HW1 3454  -0.020   1.834   0.884  2.0417 -0.4807 -1.0174
  864SOL    HW2 3455   0.050   1.778   0.749  0.6206  0.8329  1.8624
  864SOL     MW 3456   0.047   1.825   0.826  0.4354 -0.1676  0.2229
  865SOL     OW 3457   2.543   2.158   0.038  0.8240 -0.1954 -0.2782
  865SOL    HW1 3458   2.519   2.088   0.097 -0.9457 -0.5168 -2.2276
  865SOL    HW2 3459   2.494   2.157  -0.045 -0.2753 -1.7717 -2.3915
  865SOL     MW 3460   2.533   2.149   0.035  0.4455 -0.4458 -0.8142
  866SOL     OW 3461   2.669   2.350   1.597  0.3088 -0.3314 -0.2730
  866SOL    HW1 3462   2.662   2.256   1.615 -1.7731  0.5264 -1.8582
  866SOL    HW2 3463   2.742   2.354   1.529 -0.9660  0.1264 -1.3570
  866SOL     MW 3464   2.678   2.338   1.590 -0.1341 -0.1578 -0.6252
  867SOL     OW 3465   0.096   2.686   1.783 -0.3404  0.5645 -0.3597
  867SOL    HW1 3466   0.138   2.744   1.851 -0.2666 -1.2434  0.6915
  867SOL    HW2 3467   0.115   2.737   1.701  3.0799 -1.0438 -2.6589
  867SOL     MW 3468   0.104   2.700   1.781  0.1206  0.1138 -0.5243
  868SOL     OW 3469   2.742   2.697   0.582  0.0444 -0.1004  0.3276
  868SOL    HW1 3470   2.672   2.627   0.567 -2.4557 -1.8647  0.0321
  868SOL    HW2 3471   2.722   2.764   0.511  2.9181 -0.5434  0.1483
  868SOL     MW 3472   2.730   2.697   0.570  0.0937 -0.3916  0.2649
  869SOL     OW 3473   2.080   2.332   1.025 -0.0726  0.4552  0.7060
  869SOL    HW1 3474   2.166   2.330   0.977  1.0411  0.6557 -0.9271
  869SOL    HW2 3475   2.018   2.337   0.950  0.2508 -0.2862 -0.3265
  869SOL     MW 3476   2.083   2.333   1.009  0.1170  0.3839  0.3543
  870SOL     OW 3477   2.149   0.047   0.480  0.2713  0.4634 -0.3695
  870SOL    HW1 3478   2.232   0.087   0.445  2.2233  1.0970  0.2805
  870SOL    HW2 3479   2.175  -0.043   0.482  2.7886  2.3428 -0.5904
  870SOL     MW 3480   2.163   0.040   0.476  0.8610  0.7949 -0.3129
  871SOL     OW 3481   2.460   2.086   0.927 -0.0968 -0.1172 -0.1998
  871SOL    HW1 3482   2.396   2.025   0.888 -0.0870 -3.2498  0.6323
  871SOL    HW2 3483   2.418   2.166   0.965  0.8651 -0.1148 -1.1140
  871SOL     MW 3484   2.446   2.089   0.927  0.0314 -0.5302 -0.2106
  872SOL     OW 3485   2.054   2.503   1.502  0.1902  0.4522 -0.2152
  872SOL    HW1 3486   1.979   2.557   1.530  1.4948 -1.6895  0.6702
  872SOL    HW2 3487   2.029   2.457   1.419  0.6494 -0.2005  1.5186
  872SOL     MW 3488   2.041   2.504   1.495  0.4229  0.0835  0.1304
  873SOL     OW 3489   2.867   2.082   1.978 -0.7463  0.4722 -0.0844
  873SOL    HW1 3490   2.863   2.143   2.053 -1.6994 -1.5344 -0.5541
  873SOL    HW2 3491   2.930   2.131   1.926  1.0973 -1.4690  0.3326
  873SOL     MW 3492   2.875   2.097   1.981 -0.6288 -0.0486 -0.0914
  874SOL     OW 3493   2.342   1.435   2.416 -0.1194 -0.2335 -0.4909
  874SOL    HW1 3494   2.319   1.388   2.336  0.9004 -2.9803  0.4203
  874SOL    HW2 3495   2.414   1.385   2.441 -0.1226  0.8780  0.3645
  874SOL     MW 3496   2.348   1.422   2.409  0.0147 -0.4492 -0.2579
  875SOL     OW 3497   2.347   2.341   0.983  0.2212  0.1595 -0.3143
  875SOL    HW1 3498   2.398   2.392   0.924  0.6232 -0.5250 -0.9268
  875SOL    HW2 3499   2.352   2.379   1.070  1.1124 -0.5448  1.3340
  875SOL     MW 3500   2.354   2.353   0.987  0.3918 -0.0237 -0.1776
  876SOL     OW 3501   3.068   2.275   1.363  0.3622 -0.3562  0.0910
  876SOL    HW1 3502   3.080   2.321   1.280  3.0609  0.6168  3.0049
  876SOL    HW2 3503   3.131   2.310   1.425 -0.4094  1.6796 -1.3687
  876SOL     MW 3504   3.078   2.286   1.361  0.6165  0.0408  0.2828
  877SOL     OW 3505   3.087   2.808   0.306  0.5165 -0.9362 -0.0189
  877SOL    HW1 3506   3.163   2.853   0.276 -0.5457 -2.4234  0.0205
  877SOL    HW2 3507   3.072   2.736   0.244 -2.9458  0.2537 -2.4668
  877SOL     MW 3508   3.095   2.805   0.294 -0.0805 -0.9754 -0.3367
  878SOL     OW 3509   2.430   1.774   1.227 -0.2409 -0.1940 -0.1883
  878SOL    HW1 3510   2.359   1.709   1.232  3.0048 -2.5480  0.8139
  878SOL    HW2 3511   2.508   1.714   1.216 -0.3308 -0.3358 -1.1073
  878SOL     MW 3512   2.431   1.758   1.226  0.1755 -0.5233 -0.1773
  879SOL     OW 3513   2.778   2.421   0.954 -0.3977  0.0690 -0.0326
  879SOL    HW1 3514   2.828   2.500   0.965  1.1081  0.1916 -1.5334
  879SOL    HW2 3515   2.834   2.364   0.899  3.3943 -1.6762  0.3694
  879SOL     MW 3516   2.792   2.424   0.948  0.3013 -0.1451 -0.1776
  880SOL     OW 3517   2.596   2.159   0.680 -0.0556  0.5068 -0.3408
  880SOL    HW1 3518   2.576   2.130   0.768  0.5735  1.4015 -1.0264
  880SOL    HW2 3519   2.545   2.100   0.629 -3.0282 -1.8175 -1.7482
  880SOL     MW 3520   2.587   2.148   0.685 -0.3648  0.3182 -0.6169
  881SOL     OW 3521   2.994   2.726   0.693 -0.0689  0.1056 -0.0441
  881SOL    HW1 3522   2.901   2.713   0.677  2.3020 -0.8385 -1.4212
  881SOL    HW2 3523   3.035   2.669   0.621  1.5323  0.3770 -0.5803
  881SOL     MW 3524   2.987   2.717   0.681  0.4552  0.0168 -0.2965
  882SOL     OW 3525   2.251   2.865   1.951  0.0295 -0.7333  0.3085
  882SOL    HW1 3526   2.240   2.889   1.854 -0.6611 -0.4456  1.4919
  882SOL    HW2 3527   2.212   2.774   1.967  1.4711 -0.0398  1.3333
  882SOL     MW 3528   2.244   2.856   1.940  0.1286 -0.6038  0.5999
  883SOL     OW 3529   2.350   2.202   1.357 -0.0542 -0.2401 -0.0498
  883SOL    HW1 3530   2.423   2.151   1.322 -2.9113  3.2187  0.4033
  883SOL    HW2 3531   2.271   2.178   1.313  2.9197 -0.2165 -1.9858
  883SOL     MW 3532   2.349   2.192   1.347 -0.0388  0.2194 -0.2454
  884SOL     OW 3533   1.960   1.814   1.072  0.0449 -0.4083  0.1517
  884SOL    HW1 3534   1.917   1.893   1.035 -0.0641  1.0006 -3.3230
  884SOL    HW2 3535   2.053   1.842   1.081 -0.8074 -0.6358 -0.6757
  884SOL     MW 3536   1.967   1.828   1.069 -0.0819 -0.2524 -0.4159
  885SOL     OW 3537   2.844   2.413   1.794 -0.1116 -0.7633 -0.2369
  885SOL    HW1 3538   2.925   2.356   1.794  1.0954  0.0487 -1.2027
  885SOL    HW2 3539   2.786   2.391   1.723 -0.6189 -0.6249  3.0699
  885SOL     MW 3540   2.847   2.402   1.785 -0.0193 -0.6379  0.0720
  886SOL     OW 3541   2.826   2.399   1.393 -0.2355  0.2527  0.0944
  886SOL    HW1 3542   2.894   2.347   1.365 -0.9770  3.1201 -0.7883
  886SOL    HW2 3543   2.852   2.489   1.400 -0.4596  1.1287  2.9999
  886SOL     MW 3544   2.838   2.404   1.390 -0.3629  0.7466  0.3613
  887SOL     OW 3545   2.265   2.665   1.537  0.1699  0.0843  0.2595
  887SOL    HW1 3546   2.309   2.669   1.449 -0.7957  2.8536 -1.9052
  887SOL    HW2 3547   2.191   2.611   1.509 -0.3512  2.1873 -3.9481
  887SOL     MW 3548   2.261   2.658   1.522 -0.0262  0.7272 -0.5813
  888SOL     OW 3549   1.874   2.155   1.399  0.1991  0.0432  0.3857
  888SOL    HW1 3550   1.942   2.133   1.333 -0.5082 -1.4027 -0.6610
  888SOL    HW2 3551   1.919   2.163   1.488 -1.2176 -0.5930  1.4457
  888SOL     MW 3552   1.889   2.153   1.402 -0.0812 -0.2315  0.3874
  889SOL     OW 3553   2.354   2.017   2.075 -0.1634 -0.5478 -0.1666
  889SOL    HW1 3554   2.442   1.983   2.076 -0.9362  1.7478  0.8363
  889SOL    HW2 3555   2.345   2.055   1.988  1.9020  0.3027 -1.0434
  889SOL     MW 3556   2.365   2.018   2.064  0.0071 -0.1327 -0.1500
  890SOL     OW 3557   0.085   2.380   0.150  0.7830  0.6286  0.2188
  890SOL    HW1 3558   0.036   2.459   0.170  0.4606 -3.0143  0.0091
  890SOL    HW2 3559   0.049   2.309   0.213  2.5911 -1.0612 -1.9872
  890SOL     MW 3560   0.074   2.381   0.161  0.9790 -0.0750 -0.0999
  891SOL     OW 3561   3.064   1.977   1.256 -0.3871  0.0790 -0.2689
  891SOL    HW1 3562   3.137   1.913   1.226 -1.0124 -2.5445 -0.5698
  891SOL    HW2 3563   3.104   2.065   1.276 -2.4913  1.2223 -0.6436
  891SOL     MW 3564   3.079   1.980   1.255 -0.7472 -0.1163 -0.3580
  892SOL     OW 3565   2.458   2.390   2.759 -0.0583 -0.0847 -0.3804
  892SOL    HW1 3566   2.443   2.303   2.805 -1.3499  1.5655 -0.8925
  892SOL    HW2 3567   2.551   2.403   2.794  2.7395  1.4812  1.5970
  892SOL     MW 3568   2.468   2.380   2.770  0.1404  0.3396 -0.1871
  893SOL     OW 3569   1.623   2.442   1.216  0.6599 -0.2797  0.4386
  893SOL    HW1 3570   1.544   2.458   1.268 -1.6423 -1.1063  0.4877
  893SOL    HW2 3571   1.679   2.510   1.251 -1.2180  0.6222  0.8533
  893SOL     MW 3572   1.620   2.453   1.228  0.1084 -0.2698  0.4998
  894SOL     OW 3573   2.721   1.891   0.457 -0.1605 -0.3501  0.5016
  894SOL    HW1 3574   2.633   1.919   0.482 -2.5388  0.8080  2.1670
  894SOL    HW2 3575   2.704   1.836   0.381  2.4508  0.4629  1.1084
  894SOL     MW 3576   2.707   1.887   0.450 -0.1298 -0.0901  0.8014
  895SOL     OW 3577   2.112   2.155   1.230  0.6394 -0.0734 -0.9429
  895SOL    HW1 3578   2.110   2.207   1.150  1.8558  2.9312  1.2395
  895SOL    HW2 3579   2.144   2.070   1.186  1.3428  0.9742 -2.6946
  895SOL     MW 3580   2.116   2.150   1.214  0.8927  0.4613 -0.8861
  896SOL     OW 3581   2.293   2.820   1.100 -0.9453  0.4902  0.2821
  896SOL    HW1 3582   2.335   2.766   1.169 -1.7389 -0.6121 -1.5905
  896SOL    HW2 3583   2.226   2.877   1.151 -2.7070  0.1796 -3.5883
  896SOL     MW 3584   2.290   2.820   1.116 -1.2824  0.3038 -0.4756
  897SOL     OW 3585   3.073   3.040   3.052  0.3798 -0.5463  0.1038
  897SOL    HW1 3586   3.136   2.960   3.050 -1.2977  2.9817 -2.4721
  897SOL    HW2 3587   2.996   3.028   2.997 -0.8001 -1.1787 -2.4324
  897SOL     MW 3588   3.071   3.028   3.045  0.0028 -0.1643 -0.5707
  898SOL     OW 3589   2.058   0.184   1.492 -0.3123 -0.0057  0.0302
  898SOL    HW1 3590   2.035   0.089   1.506 -0.2021  1.2428 -0.6759
  898SOL    HW2 3591   2.087   0.190   1.403 -0.9363  0.6346  1.4460
  898SOL     MW 3592   2.059   0.172   1.482 -0.3801  0.2435  0.1238
  899SOL     OW 3593   2.982   2.990   0.616 -0.2507 -0.1651  0.0140
  899SOL    HW1 3594   2.980   2.894   0.650 -0.2351  0.8391 -0.4467
  899SOL    HW2 3595   2.900   3.029   0.649 -0.5966 -1.1410  0.5497
  899SOL     MW 3596   2.971   2.983   0.625 -0.2943 -0.1613  0.0239
  900SOL     OW 3597   0.022   2.400   1.128  0.0151  0.2078 -1.0256
  900SOL    HW1 3598   0.002   2.488   1.105 -0.0824  0.7254 -0.1506
  900SOL    HW2 3599   0.031   2.360   1.038 -2.4398  1.4965 -2.4075
  900SOL     MW 3600   0.021   2.406   1.113 -0.3216  0.4461 -1.0925
  901SOL     OW 3601   1.756   2.816   1.794 -0.4120 -0.8255  0.4094
  901SOL    HW1 3602   1.848   2.794   1.777  3.0868 -0.8675  1.2134
  901SOL    HW2 3603   1.705   2.781   1.720 -0.2348  0.1951 -1.7974
  901SOL     MW 3604   1.762   2.808   1.782  0.0730 -0.6964  0.2243
  902SOL     OW 3605   2.655   2.076   1.779  0.1911  0.2703 -0.8352
  902SOL    HW1 3606   2.673   2.012   1.717  1.6481 -2.8997 -0.8431
  902SOL    HW2 3607   2.723   2.060   1.845 -0.4212  0.2469  0.0630
  902SOL     MW 3608   2.666   2.066   1.780  0.3026 -0.1510 -0.7178
  903SOL     OW 3609   1.549   2.640   0.623 -0.3620 -0.6552 -0.4443
  903SOL    HW1 3610   1.639   2.648   0.643 -1.4246 -2.6848  1.5712
  903SOL    HW2 3611   1.523   2.697   0.701 -0.3904  1.4318  0.5764
  903SOL     MW 3612   1.557   2.649   0.636 -0.5059 -0.6476 -0.0437
  904SOL     OW 3613   2.505   2.569   1.675 -0.7143 -0.3939  0.5318
  904SOL    HW1 3614   2.441   2.608   1.613 -2.1859  1.3302  0.4177
  904SOL    HW2 3615   2.550   2.499   1.619 -0.4683  1.8491 -1.7648
  904SOL     MW 3616   2.502   2.565   1.660 -0.8760  0.1295  0.2138
  905SOL     OW 3617   2.321   2.497   2.120  0.2751  0.0488 -0.1484
  905SOL    HW1 3618   2.358   2.455   2.048  2.4181  0.0182  1.1337
  905SOL    HW2 3619   2.274   2.430   2.174  1.4186 -2.1916 -0.1317
  905SOL     MW 3620   2.320   2.483   2.117  0.7088 -0.2508  0.0230
  906SOL     OW 3621   2.523   2.481   0.800  0.5321 -0.4129  0.2218
  906SOL    HW1 3622   2.605   2.451   0.844 -0.4402 -1.5180 -0.7103
  906SOL    HW2 3623   2.503   2.566   0.845 -1.7748 -1.8056 -3.4224
  906SOL     MW 3624   2.531   2.488   0.812  0.0994 -0.7425 -0.3820
  907SOL     OW 3625   2.653   2.865   1.302  0.6120  0.5680  0.0628
  907SOL    HW1 3626   2.697   2.931   1.362  0.5301  2.1042 -0.7566
  907SOL    HW2 3627   2.701   2.876   1.214 -0.6747 -0.0794 -0.3162
  907SOL     MW 3628   2.665   2.875   1.299  0.4314  0.6852 -0.0953
  908SOL     OW 3629   2.737   2.383   0.010  0.7182  0.2659 -0.1019
  908SOL    HW1 3630   2.671   2.319   0.037 -0.3465 -1.3360  0.5904
  908SOL    HW2 3631   2.722   2.471   0.055 -2.9885  1.1434 -1.9215
  908SOL     MW 3632   2.727   2.386   0.020  0.0886  0.1704 -0.2506
  909SOL     OW 3633   1.787   0.074   1.174 -0.1513  0.7862 -0.3712
  909SOL    HW1 3634   1.763   0.147   1.115  0.3926  1.4031 -1.3222
  909SOL    HW2 3635   1.749   0.106   1.252 -0.2356  0.6902  1.7801
  909SOL     MW 3636   1.779   0.088   1.176 -0.0906  0.8550 -0.2128
  910SOL     OW 3637   2.205   1.706   0.420 -0.4173 -1.0144  0.3000
  910SOL    HW1 3638   2.139   1.635   0.422  0.5549  0.6714  0.8522
  910SOL    HW2 3639   2.176   1.765   0.348 -0.2532 -0.6262  1.0669
  910SOL     MW 3640   2.193   1.704   0.411 -0.2674 -0.7408  0.4741
  911SOL     OW 3641   2.252   2.070   1.571  0.1972 -0.1285 -0.6516
  911SOL    HW1 3642   2.303   2.097   1.645  1.7406 -0.9953  0.9182
  911SOL    HW2 3643   2.288   2.123   1.502 -1.2412 -1.1132  0.9259
  911SOL     MW 3644   2.263   2.080   1.572  0.2111 -0.3728 -0.2363
  912SOL     OW 3645   2.922   1.897   1.476 -0.2589  0.3181 -0.0685
  912SOL    HW1 3646   2.980   1.923   1.395  0.3773 -4.5270  2.0813
  912SOL    HW2 3647   2.837   1.948   1.461 -0.1579 -1.2693 -3.2050
  912SOL     MW 3648   2.918   1.907   1.464 -0.1616 -0.5306 -0.1987
  913SOL     OW 3649   2.597   3.075   0.357 -0.3802  0.4607  0.3455
  913SOL    HW1 3650   2.688   3.039   0.350  2.4524  2.5148 -1.2913
  913SOL    HW2 3651   2.544   3.019   0.302 -1.5061 -0.7912 -2.5547
  913SOL     MW 3652   2.602   3.063   0.349 -0.1550  0.5666 -0.2531
  914SOL     OW 3653   2.696   1.815   3.013 -0.0715  0.5549 -0.0753
  914SOL    HW1 3654   2.721   1.905   2.999 -1.2543  1.0267  3.2796
  914SOL    HW2 3655   2.603   1.800   2.983 -0.5348 -0.0283  0.3128
  914SOL     MW 3656   2.687   1.825   3.007 -0.2887  0.5402  0.4186
  915SOL     OW 3657   1.730   0.200   0.231  0.8387 -0.4495 -0.0472
  915SOL    HW1 3658   1.802   0.140   0.271 -2.2409 -0.5456  0.1335
  915SOL    HW2 3659   1.647   0.148   0.230 -1.8344  1.5754  0.0816
  915SOL     MW 3660   1.729   0.185   0.236  0.0797 -0.1950 -0.0064
  916SOL     OW 3661   1.814   2.140   1.979 -0.5271  0.2716  0.3094
  916SOL    HW1 3662   1.856   2.222   1.943 -2.3285  0.4225 -1.5726
  916SOL    HW2 3663   1.818   2.076   1.904  1.7639 -1.5342  0.2470
  916SOL     MW 3664   1.820   2.143   1.965 -0.4625  0.0533  0.0528
  917SOL     OW 3665   2.492   2.182   2.565  0.3675  0.3263  0.1169
  917SOL    HW1 3666   2.467   2.256   2.617 -1.7917  0.1594 -0.9254
  917SOL    HW2 3667   2.568   2.212   2.519  0.6421  0.9292  0.5769
  917SOL     MW 3668   2.498   2.196   2.566  0.1188  0.3838  0.0400
  918SOL     OW 3669   1.958   1.574   2.692 -0.0965 -0.5909  0.3047
  918SOL    HW1 3670   1.895   1.609   2.624  1.1214  3.0653 -0.4914
  918SOL    HW2 3671   2.030   1.639   2.698  0.8569  2.2455 -0.6486
  918SOL     MW 3672   1.959   1.588   2.684  0.1900  0.2657  0.0739
  919SOL     OW 3673   3.076   2.380   2.323 -0.2304  0.8237  0.4629
  919SOL    HW1 3674   2.998   2.332   2.290 -0.7539 -2.9242 -0.2216
  919SOL    HW2 3675   3.132   2.396   2.246  3.4791 -1.2538 -2.1575
  919SOL     MW 3676   3.073   2.376   2.308  0.1900  0.0551  0.0268
  920SOL     OW 3677   2.709   2.874   3.087 -0.2477 -0.2003 -0.0665
  920SOL    HW1 3678   2.612   2.878   3.103  0.4359  0.1256  0.0770
  920SOL    HW2 3679   2.720   2.800   3.023  0.3915 -2.7985 -0.0483
  920SOL     MW 3680   2.697   2.865   3.080 -0.0732 -0.5001 -0.0452
  921SOL     OW 3681   2.448   2.601   2.584  0.8040 -0.4837 -0.2082
  921SOL    HW1 3682   2.521   2.606   2.520  1.5528  2.1897  0.8490
  921SOL    HW2 3683   2.457   2.520   2.629  0.1431  1.6283 -2.6177
  921SOL     MW 3684   2.459   2.591   2.581  0.8156  0.1477 -0.3866
  922SOL     OW 3685   2.023   2.809   0.280 -0.1114 -0.2273  0.2188
  922SOL    HW1 3686   2.003   2.810   0.185 -1.2895 -1.1987 -0.0522
  922SOL    HW2 3687   2.038   2.709   0.295 -4.0900 -1.3406  0.4095
  922SOL     MW 3688   2.022   2.796   0.270 -0.7918 -0.5024  0.2082
  923SOL     OW 3689   2.197   2.896   1.680  0.0306 -0.4393 -0.3534
  923SOL    HW1 3690   2.210   2.813   1.629 -0.3978  0.5531 -1.7730
  923SOL    HW2 3691   2.131   2.955   1.641  1.5735  0.4303  0.5861
  923SOL     MW 3692   2.190   2.893   1.668  0.1776 -0.1936 -0.4168
  924SOL     OW 3693   1.150   2.746   2.592  0.0445  0.3470  0.8754
  924SOL    HW1 3694   1.246   2.762   2.581  2.4719  1.2532  1.4546
  924SOL    HW2 3695   1.154   2.670   2.652 -0.9365  0.3256 -0.4884
  924SOL     MW 3696   1.163   2.738   2.599  0.2353  0.4638  0.7719
  925SOL     OW 3697   3.033   0.195   2.675 -0.1275  0.0378  0.4818
  925SOL    HW1 3698   2.982   0.217   2.596  0.6100  0.3703  1.4040
  925SOL    HW2 3699   3.015   0.276   2.728 -2.8225  1.1443 -0.3481
  925SOL     MW 3700   3.024   0.209   2.672 -0.3857  0.2276  0.4939
  926SOL     OW 3701   2.709   2.396   2.028 -0.0591 -0.5642 -0.3752
  926SOL    HW1 3702   2.756   2.471   2.072  2.2350  1.7893  1.0285
  926SOL    HW2 3703   2.754   2.393   1.937  0.6667  0.3668  0.5952
  926SOL     MW 3704   2.721   2.405   2.022  0.3393 -0.1308 -0.0620
  927SOL     OW 3705   2.349   0.164   0.329  0.2301  0.1786 -0.2222
  927SOL    HW1 3706   2.441   0.169   0.367  0.7346  2.8511  1.4400
  927SOL    HW2 3707   2.358   0.148   0.235  0.5240 -1.0334 -2.8298
  927SOL     MW 3708   2.362   0.163   0.322  0.3355  0.3713 -0.3470
  928SOL     OW 3709   2.150   2.428   1.739 -0.7050  0.4675 -0.0044
  928SOL    HW1 3710   2.135   2.482   1.661  0.1247 -1.3410  1.9773
  928SOL    HW2 3711   2.245   2.439   1.752  0.0138  0.8137 -1.9957
  928SOL     MW 3712   2.161   2.437   1.730 -0.5007  0.2746 -0.0057
  929SOL     OW 3713   2.721   2.326   2.468 -0.5217  0.6886  0.3803
  929SOL    HW1 3714   2.750   2.288   2.378  2.2988 -0.8452  0.2194
  929SOL    HW2 3715   2.802   2.320   2.518  1.4837  0.9371 -0.3983
  929SOL     MW 3716   2.736   2.320   2.462  0.1150  0.5191  0.2564
  930SOL     OW 3717   2.014   2.836   2.667  0.2100 -0.0453 -0.6141
  930SOL    HW1 3718   2.029   2.763   2.736  1.3973 -0.0068 -0.8918
  930SOL    HW2 3719   2.097   2.886   2.667  0.5648  0.6536 -1.5086
  930SOL     MW 3720   2.027   2.833   2.676  0.4135  0.0520 -0.7687
  931SOL     OW 3721   3.032   2.727   2.440  0.5590  0.3827  0.4029
  931SOL    HW1 3722   3.061   2.752   2.528 -1.0405  0.1017  2.7631
  931SOL    HW2 3723   3.090   2.661   2.417 -2.9276  2.3425  3.1687
  931SOL     MW 3724   3.043   2.721   2.449 -0.1121  0.6042  1.0792
  932SOL     OW 3725   2.936   1.887   2.484 -0.5021 -0.6284 -0.0518
  932SOL    HW1 3726   3.007   1.951   2.480 -0.0258 -0.8549  0.3134
  932SOL    HW2 3727   2.892   1.904   2.404 -0.1681  1.0168  0.1344
  932SOL     MW 3728   2.940   1.898   2.473 -0.3952 -0.4412  0.0210
  933SOL     OW 3729   2.057   2.799   2.209 -0.2576  0.5684  0.1355
  933SOL    HW1 3730   2.132   2.841   2.243  1.2671 -2.2356 -1.0020
  933SOL    HW2 3731   1.992   2.862   2.201  1.2051 -0.5013 -0.5612
  933SOL     MW 3732   2.058   2.813   2.213  0.1366  0.0573 -0.1065
  934SOL     OW 3733   1.994   2.694   2.448  0.0913 -0.7264 -0.5185
  934SOL    HW1 3734   2.013   2.761   2.523  0.1973 -1.7629  1.9094
  934SOL    HW2 3735   2.030   2.725   2.364 -1.8361 -0.1714 -0.3069
  934SOL     MW 3736   2.002   2.707   2.447 -0.1490 -0.7900 -0.1703
  935SOL     OW 3737   2.672   1.581   1.861  0.2068  0.5330  0.3097
  935SOL    HW1 3738   2.764   1.599   1.887  0.1564  1.4063  1.1559
  935SOL    HW2 3739   2.671   1.574   1.765 -3.4190 -0.9536 -3.8580
  935SOL     MW 3740   2.684   1.582   1.852 -0.2783  0.4520 -0.1285
  936SOL     OW 3741   2.977   2.273   3.090 -0.8929  0.1880 -0.5570
  936SOL    HW1 3742   3.028   2.325   3.158  1.3420 -0.1064 -0.0978
  936SOL    HW2 3743   2.886   2.300   3.103  0.0266  1.6693  1.1880
  936SOL     MW 3744   2.972   2.283   3.101 -0.4767  0.3446 -0.2662
  937SOL     OW 3745   1.988   2.145   2.638  0.6658  0.2576 -0.3535
  937SOL    HW1 3746   2.067   2.114   2.673 -1.5180  1.8423  1.5260
  937SOL    HW2 3747   1.993   2.117   2.541  0.5085 -3.3948 -2.8496
  937SOL     MW 3748   1.999   2.137   2.630  0.3569 -0.0152 -0.4348
  938SOL     OW 3749   2.285   1.787   1.914  0.1046 -0.2975 -0.0995
  938SOL    HW1 3750   2.302   1.801   1.822  1.2769 -1.2995  1.4178
  938SOL    HW2 3751   2.287   1.873   1.954  0.5509 -0.5149 -0.7101
  938SOL     MW 3752   2.288   1.800   1.907  0.3182 -0.4584  0.0201
  939SOL     OW 3753   2.785   1.962   2.266  0.6497 -0.2827 -0.3810
  939SOL    HW1 3754   2.796   1.905   2.191 -0.4374 -2.1567  0.4475
  939SOL    HW2 3755   2.696   1.948   2.285  0.9041  2.8498 -1.2303
  939SOL     MW 3756   2.774   1.952   2.258  0.5399 -0.1166 -0.3837
  940SOL     OW 3757   2.312   0.153   2.703 -0.2723 -0.0379  0.6338
  940SOL    HW1 3758   2.318   0.060   2.678  1.5136 -3.0070  1.6312
  940SOL    HW2 3759   2.358   0.151   2.789  0.4267  0.4348 -1.1778
  940SOL     MW 3760   2.319   0.140   2.711  0.0556 -0.3673  0.5263
  941SOL     OW 3761   0.135   2.430   2.086  0.8330 -0.5834 -0.3804
  941SOL    HW1 3762   0.223   2.390   2.099 -2.9382  2.0097  0.2912
  941SOL    HW2 3763   0.105   2.390   2.007 -1.3577 -0.4167  1.2688
  941SOL     MW 3764   0.143   2.420   2.077  0.0464 -0.2192 -0.0742
  942SOL     OW 3765   2.831   2.233   2.201 -0.1459  0.2277  0.0392
  942SOL    HW1 3766   2.775   2.278   2.142 -0.5711  0.0688  0.4656
  942SOL    HW2 3767   2.788   2.146   2.208 -0.8804  1.1378  0.6943
  942SOL     MW 3768   2.818   2.227   2.194 -0.2989  0.3268  0.1819
  943SOL     OW 3769   0.236   2.145   2.246 -0.4891  0.2002  0.0511
  943SOL    HW1 3770   0.197   2.192   2.325  0.4377 -1.7593  1.7162
  943SOL    HW2 3771   0.321   2.099   2.273  0.8275 -0.4360  0.2777
  943SOL     MW 3772   0.242   2.145   2.260 -0.1931 -0.1422  0.3007
  944SOL     OW 3773   2.088   2.638   1.981  0.4721  0.1618 -0.1775
  944SOL    HW1 3774   2.144   2.564   2.012  0.3628 -1.5277  0.8148
  944SOL    HW2 3775   2.032   2.662   2.050  0.1422  1.5737 -1.9740
  944SOL     MW 3776   2.088   2.632   1.995  0.4142  0.1251 -0.2836
  945SOL     OW 3777   2.752   2.667   2.897  0.7541  0.1274  0.5689
  945SOL    HW1 3778   2.725   2.575   2.886  0.8251  2.5564 -0.5662
  945SOL    HW2 3779   2.763   2.697   2.806 -0.0241  1.2997 -1.7058
  945SOL     MW 3780   2.750   2.659   2.883  0.6608  0.6026  0.1190
  946SOL     OW 3781   2.451   2.695   2.245 -0.1830  0.1509  0.1602
  946SOL    HW1 3782   2.475   2.757   2.178 -1.2209  2.1606 -1.3734
  946SOL    HW2 3783   2.410   2.622   2.184 -0.7077 -4.2406 -2.1760
  946SOL     MW 3784   2.449   2.693   2.228 -0.3892 -0.1633 -0.3504
  947SOL     OW 3785   1.966   0.047   0.279  0.2750 -0.2169 -0.3956
  947SOL    HW1 3786   1.966  -0.054   0.265  2.0767  1.2213 -2.6002
  947SOL    HW2 3787   2.033   0.062   0.350 -1.1062 -2.2829  1.9503
  947SOL     MW 3788   1.975   0.036   0.287  0.3305 -0.2998 -0.3770
  948SOL     OW 3789   1.799   2.998   2.662 -0.1613 -0.2331 -0.4005
  948SOL    HW1 3790   1.875   2.946   2.656 -0.8529  1.8162 -2.1994
  948SOL    HW2 3791   1.786   3.059   2.586  1.1441 -1.2880 -0.2344
  948SOL     MW 3792   1.807   2.999   2.651 -0.0803 -0.1019 -0.6159
  949SOL     OW 3793   2.514   1.926   2.339 -0.0853 -0.2433  0.4961
  949SOL    HW1 3794   2.524   1.833   2.352 -1.5662 -1.9333 -0.6702
  949SOL    HW2 3795   2.425   1.944   2.318  0.8965 -0.0753 -1.4964
  949SOL     MW 3796   2.503   1.916   2.338 -0.1511 -0.4441  0.0793
  950SOL     OW 3797   2.327   2.569   2.911 -0.7485  0.3640  0.3487
  950SOL    HW1 3798   2.352   2.502   2.847 -0.0077  1.2154 -1.1128
  950SOL    HW2 3799   2.239   2.589   2.889 -1.2085 -1.3118  2.4794
  950SOL     MW 3800   2.319   2.563   2.899 -0.7115  0.2552  0.4370
  951SOL     OW 3801   3.054   2.148   2.868 -0.1099  0.5386  0.0878
  951SOL    HW1 3802   3.026   2.178   2.955 -0.2722 -0.0512 -2.2014
  951SOL    HW2 3803   3.098   2.065   2.878  0.9324  0.3809 -1.0193
  951SOL     MW 3804   3.056   2.141   2.881  0.0062  0.4399 -0.3603
  952SOL     OW 3805   3.054   1.673   2.126  0.6023 -0.4335 -0.2318
  952SOL    HW1 3806   2.986   1.670   2.062  1.0374  0.4404 -0.8272
  952SOL    HW2 3807   3.065   1.761   2.158 -0.9169  1.2411 -2.3455
  952SOL     MW 3808   3.046   1.684   2.121  0.4593 -0.0972 -0.5892
  953SOL     OW 3809   1.945   1.749   2.903  0.2472  0.2950  0.6449
  953SOL    HW1 3810   1.871   1.716   2.965 -1.2275 -0.1515  2.5893
  953SOL    HW2 3811   1.944   1.695   2.825  0.5756 -1.0820 -0.8482
  953SOL     MW 3812   1.935   1.738   2.901  0.0960  0.0544  0.7044
  954SOL     OW 3813   2.451   2.125   2.866  0.5135  0.2490  0.4945
  954SOL    HW1 3814   2.372   2.108   2.810  4.0092 -2.0408  2.7929
  954SOL    HW2 3815   2.514   2.071   2.818  0.2107 -0.0552 -1.0360
  954SOL     MW 3816   2.449   2.115   2.852  0.9347 -0.0933  0.5958
  955SOL     OW 3817   1.547   1.604   2.548 -0.4995  0.1038 -0.7571
  955SOL    HW1 3818   1.535   1.633   2.452  1.8315 -4.1601 -2.0501
  955SOL    HW2 3819   1.643   1.630   2.565  2.7240  4.2131  1.3356
  955SOL     MW 3820   1.558   1.612   2.538  0.2334  0.0834 -0.6516
  956SOL     OW 3821   2.714   2.387   2.845 -0.2279  0.0768 -0.1213
  956SOL    HW1 3822   2.724   2.373   2.938  4.0722  2.0377 -1.8004
  956SOL    HW2 3823   2.780   2.351   2.784  2.4853  0.1504  0.9400
  956SOL     MW 3824   2.724   2.380   2.849  0.6974  0.3453 -0.2028
  957SOL     OW 3825   2.228   2.876   0.460 -0.5702  0.5551  0.3314
  957SOL    HW1 3826   2.155   2.853   0.412  2.7554  2.1943 -0.7743
  957SOL    HW2 3827   2.227   2.824   0.537  2.1541  0.2271 -1.8059
  957SOL     MW 3828   2.218   2.866   0.464  0.2280  0.7281 -0.0965
  958SOL     OW 3829   2.062   2.625   2.860 -0.3399  0.3408  0.1916
  958SOL    HW1 3830   2.034   2.566   2.800  0.6343  2.3251  0.5749
  958SOL    HW2 3831   1.987   2.623   2.921  0.1884  2.8106 -2.0706
  958SOL     MW 3832   2.048   2.617   2.860 -0.1417  0.9285 -0.0563
  959SOL     OW 3833   2.485   2.751   0.394  0.3457  0.2402  0.0047
  959SOL    HW1 3834   2.471   2.738   0.298  1.8626  1.2596  2.1145
  959SOL    HW2 3835   2.410   2.806   0.425  1.9164  0.3557  1.2442
  959SOL     MW 3836   2.473   2.757   0.385  0.7531  0.3899  0.4466
  960SOL     OW 3837   1.880   2.315   2.309  0.2141 -0.3790 -0.0039
  960SOL    HW1 3838   1.892   2.217   2.307 -2.8363 -0.9944 -0.0506
  960SOL    HW2 3839   1.831   2.342   2.385 -0.6275  1.8156 -1.6950
  960SOL     MW 3840   1.875   2.305   2.319 -0.2994 -0.1706 -0.2332
  961SOL     OW 3841   2.164   2.325   2.280  0.0973  0.3574 -0.8032
  961SOL    HW1 3842   2.066   2.329   2.290 -0.7541  0.6259  0.7581
  961SOL    HW2 3843   2.195   2.392   2.340  1.2096 -2.8579 -1.1731
  961SOL     MW 3844   2.155   2.335   2.289  0.1318 -0.0314 -0.6460
  962SOL     OW 3845   2.189   2.011   2.775  0.5065  0.3079  0.4206
  962SOL    HW1 3846   2.148   2.004   2.863  1.3238 -0.3017 -0.3130
  962SOL    HW2 3847   2.179   1.917   2.739  0.0310 -0.7340 -3.0812
  962SOL     MW 3848   2.182   1.997   2.782  0.5516  0.0900 -0.1382
  963SOL     OW 3849   1.797   2.500   2.107 -0.0170  0.1980  0.9023
  963SOL    HW1 3850   1.838   2.438   2.166  0.0809  2.3817  1.0442
  963SOL    HW2 3851   1.813   2.458   2.020 -0.0453 -2.0991  0.6450
  963SOL     MW 3852   1.805   2.487   2.103 -0.0078  0.1830  0.8871
  964SOL     OW 3853   1.809   1.939   2.713 -0.2587 -0.0958 -0.0995
  964SOL    HW1 3854   1.873   2.012   2.690 -1.0896 -1.7299 -0.5659
  964SOL    HW2 3855   1.862   1.900   2.788  2.1241  1.0865  0.8383
  964SOL     MW 3856   1.825   1.944   2.720 -0.0539 -0.1554 -0.0373
  965SOL     OW 3857   2.283   2.678   0.649  0.0989  0.6076 -0.1743
  965SOL    HW1 3858   2.276   2.587   0.615  0.6612  1.7248 -2.3430
  965SOL    HW2 3859   2.345   2.695   0.722  1.6991  0.0188 -1.2470
  965SOL     MW 3860   2.290   2.668   0.654  0.3842  0.6773 -0.6020
  966SOL     OW 3861   2.655   2.594   2.416  0.0310 -0.1786 -0.0810
  966SOL    HW1 3862   2.581   2.627   2.349 -0.9210  0.2689  0.8620
  966SOL    HW2 3863   2.659   2.494   2.430  0.5188 -1.1667 -2.7932
  966SOL     MW 3864   2.646   2.585   2.409 -0.0303 -0.2500 -0.3144
  967SOL     OW 3865   2.801   3.081   2.923  0.7980 -0.1081 -0.3491
  967SOL    HW1 3866   2.764   3.021   2.995 -3.5429  0.0228 -2.7077
  967SOL    HW2 3867   2.733   3.073   2.862 -0.2910 -0.2268  1.3210
  967SOL     MW 3868   2.787   3.072   2.924  0.0816 -0.1065 -0.4400
  968SOL     OW 3869   3.037   2.635   2.976 -0.2019 -0.1263  0.4106
  968SOL    HW1 3870   2.946   2.656   2.951 -0.5426 -1.6385 -0.1084
  968SOL    HW2 3871   3.082   2.578   2.904  0.2736 -2.6372 -0.2440
  968SOL     MW 3872   3.031   2.631   2.964 -0.1841 -0.6571  0.2557
  969SOL     OW 3873   1.614   2.158   1.676  0.1747  0.1727  0.0813
  969SOL    HW1 3874   1.687   2.099   1.694 -0.8053  0.0921  0.6846
  969SOL    HW2 3875   1.578   2.187   1.764 -0.4669  2.3174  1.8546
  969SOL     MW 3876   1.619   2.154   1.690 -0.0393  0.4450  0.3948
  970SOL     OW 3877   1.762   1.823   1.919  0.6005 -0.2498 -0.2403
  970SOL    HW1 3878   1.793   1.744   1.954  0.5443  3.3051  1.9537
  970SOL    HW2 3879   1.672   1.814   1.896  1.3155  3.2938  2.4470
  970SOL     MW 3880   1.754   1.811   1.920  0.6874  0.6867  0.4037
  971SOL     OW 3881   1.799   0.030   2.412 -0.2553 -0.5959  0.1340
  971SOL    HW1 3882   1.823  -0.031   2.338 -1.1263 -3.9123  0.0177
  971SOL    HW2 3883   1.875   0.092   2.438  1.3990 -1.8634 -0.2319
  971SOL     MW 3884   1.812   0.030   2.405 -0.1520 -1.2007  0.0704
  972SOL     OW 3885   0.250   2.900   2.476 -0.0804 -0.2933  0.3720
  972SOL    HW1 3886   0.317   2.830   2.451 -0.2148 -0.1979 -2.0295
  972SOL    HW2 3887   0.300   2.983   2.484  2.1396  2.0806 -3.0665
  972SOL     MW 3888   0.266   2.902   2.474  0.1948  0.0325 -0.3985
  973SOL     OW 3889   2.625   0.015   2.082 -0.2809 -0.1595 -0.5208
  973SOL    HW1 3890   2.610  -0.076   2.049 -0.5357  2.1282  0.9695
  973SOL    HW2 3891   2.617   0.064   2.002 -0.6352 -1.6162 -0.4723
  973SOL     MW 3892   2.622   0.009   2.067 -0.3613 -0.0498 -0.3177
  974SOL     OW 3893   2.040   0.195   2.740  0.0002 -0.7801 -0.3435
  974SOL    HW1 3894   2.135   0.188   2.737 -1.2912 -0.8776  0.1306
  974SOL    HW2 3895   2.008   0.122   2.790 -0.0254 -1.7110 -0.5604
  974SOL     MW 3896   2.049   0.184   2.746 -0.1736 -0.9158 -0.3096
  975SOL     OW 3897   2.204   2.510   2.507 -0.2350 -0.3403  0.2542
  975SOL    HW1 3898   2.289   2.547   2.534  1.3448 -2.7745 -0.4831
  975SOL    HW2 3899   2.142   2.577   2.470 -0.2986 -0.8430  0.0174
  975SOL     MW 3900   2.207   2.524   2.505 -0.0349 -0.7278  0.1256
  976SOL     OW 3901   0.196   0.383   1.773 -1.0047  0.1500 -0.6370
  976SOL    HW1 3902   0.255   0.317   1.804 -0.6959 -0.7880  3.3875
  976SOL    HW2 3903   0.109   0.339   1.744 -1.8079  0.6210 -0.8589
  976SOL     MW 3904   0.192   0.368   1.773 -1.0700  0.0884 -0.1353
  977SOL     OW 3905   1.735   2.694   2.522 -0.7407  0.3841  0.0243
  977SOL    HW1 3906   1.737   2.597   2.541 -1.4199 -3.1016 -2.8042
  977SOL    HW2 3907   1.825   2.711   2.491  0.9113 -0.8212 -0.2546
  977SOL     MW 3908   1.747   2.683   2.520 -0.6124 -0.2348 -0.3857
   3.10000   3.10000   3.10000
