977 TIP4P/2005f water molecules t=   1.48000 step= 1480
 3908
    1SOL     OW    1   0.358   0.868   0.075  0.1524 -0.7186 -0.0914
    1SOL    HW1    2   0.359   0.888  -0.016  0.2219 -1.1984  0.1599
    1SOL    HW2    3   0.330   0.776   0.090 -2.6586  0.2192  3.9324
    1SOL     MW    4   0.354   0.859   0.065 -0.2093 -0.6582  0.4726
    2SOL     OW    5   0.301   3.044   1.102 -0.3367 -0.3677 -0.4007
    2SOL    HW1    6   0.346   3.125   1.087  2.8716 -0.9297  2.6485
    2SOL    HW2    7   0.208   3.066   1.101  1.3289 -1.1043  1.2893
    2SOL     MW    8   0.294   3.058   1.100  0.3063 -0.5390  0.2246
    3SOL     OW    9   2.635   0.342   0.964 -0.0635  0.3221 -0.2373
    3SOL    HW1   10   2.709   0.394   0.936 -4.1690 -2.6161  2.0156
    3SOL    HW2   11   2.608   0.373   1.047 -0.2664  1.2660 -1.6981
    3SOL     MW   12   2.641   0.353   0.971 -0.6320  0.0590 -0.1328
    4SOL     OW   13   3.064   1.723   0.534 -0.3380 -0.3728 -0.4048
    4SOL    HW1   14   3.010   1.775   0.474 -1.4367 -0.2015  1.5950
    4SOL    HW2   15   3.111   1.661   0.481 -1.8316 -0.3958 -1.6761
    4SOL     MW   16   3.063   1.721   0.519 -0.6801 -0.3532 -0.3087
    5SOL     OW   17   1.640   1.468   0.627 -0.0051 -0.2973  0.1134
    5SOL    HW1   18   1.680   1.442   0.709  1.4325 -1.3886  2.5087
    5SOL    HW2   19   1.538   1.455   0.629 -2.2064 -0.3595  0.0473
    5SOL     MW   20   1.632   1.463   0.638 -0.1058 -0.4495  0.4207
    6SOL     OW   21   0.790   1.429   0.595  0.0200  0.0867 -0.3110
    6SOL    HW1   22   0.695   1.415   0.605 -1.8027  0.5645  0.8539
    6SOL    HW2   23   0.834   1.369   0.650 -1.8046  0.7019 -1.4987
    6SOL     MW   24   0.783   1.419   0.604 -0.4612  0.2309 -0.3140
    7SOL     OW   25   1.980   1.056   0.018 -0.5554 -0.2052  0.5053
    7SOL    HW1   26   2.067   1.092  -0.010  2.6067 -0.4611 -2.8932
    7SOL    HW2   27   1.975   1.051   0.112  0.1536 -0.1603  0.2651
    7SOL     MW   28   1.991   1.060   0.026 -0.0446 -0.2331  0.0252
    8SOL     OW   29   0.782   1.503   1.160  0.0469 -0.1431 -0.2469
    8SOL    HW1   30   0.874   1.528   1.140 -0.9756  0.9819  0.6898
    8SOL    HW2   31   0.794   1.411   1.188 -1.7893 -1.7049 -3.7026
    8SOL     MW   32   0.795   1.495   1.161 -0.3303 -0.2008 -0.5793
    9SOL     OW   33   1.024   0.465   1.316 -0.1791  0.1820 -0.7003
    9SOL    HW1   34   0.960   0.410   1.269 -0.3611  1.8805  2.2284
    9SOL    HW2   35   1.055   0.428   1.401  2.1993  0.4871  0.6460
    9SOL     MW   36   1.020   0.453   1.321  0.1107  0.4464 -0.1363
   10SOL     OW   37   0.279   0.851   0.515  0.0192  0.5079 -0.1006
   10SOL    HW1   38   0.372   0.878   0.503 -1.4354  2.6357 -0.5806
   10SOL    HW2   39   0.256   0.912   0.586  0.9440  1.3917 -2.6892
   10SOL     MW   40   0.288   0.863   0.523 -0.0507  0.9052 -0.5055
   11SOL     OW   41   0.760   1.132   1.569 -0.0084 -0.0412 -0.4505
   11SOL    HW1   42   0.831   1.155   1.637  0.2349  0.0594 -1.2946
   11SOL    HW2   43   0.767   1.035   1.539 -2.0487 -2.8563  1.3975
   11SOL     MW   44   0.770   1.122   1.574 -0.2455 -0.3994 -0.3180
   12SOL     OW   45   3.072   1.131   0.862  0.7453 -0.0635  0.0564
   12SOL    HW1   46   3.121   1.207   0.895  2.1719  1.4566 -0.9847
   12SOL    HW2   47   3.010   1.159   0.788 -0.8878 -0.0843 -1.7858
   12SOL     MW   48   3.071   1.145   0.857  0.7181  0.1344 -0.3240
   13SOL     OW   49   1.846   1.417   1.274  0.1651  0.2120  0.2795
   13SOL    HW1   50   1.901   1.372   1.217 -0.5426  0.1439 -0.4054
   13SOL    HW2   51   1.851   1.508   1.248  0.7280 -2.2575 -0.1286
   13SOL     MW   52   1.854   1.423   1.263  0.1460 -0.1228  0.1353
   14SOL     OW   53   0.567   0.336   1.877 -0.3352  0.2799  0.1903
   14SOL    HW1   54   0.492   0.270   1.876  0.8073 -1.0807  0.8892
   14SOL    HW2   55   0.567   0.378   1.791  0.7461  3.2062  2.8365
   14SOL     MW   56   0.557   0.333   1.865 -0.0418  0.4865  0.6316
   15SOL     OW   57   1.996   0.370   1.067  0.1045  0.3648  0.2841
   15SOL    HW1   58   2.022   0.421   1.142 -0.5566  0.0685  0.5361
   15SOL    HW2   59   2.039   0.402   0.989  0.1654  1.0625  1.9045
   15SOL     MW   60   2.005   0.381   1.067  0.0253  0.4178  0.5311
   16SOL     OW   61   0.248   1.829   0.246  0.4678  0.6220 -0.6073
   16SOL    HW1   62   0.340   1.828   0.232 -0.9546 -1.4012  0.2640
   16SOL    HW2   63   0.238   1.920   0.286  2.8299  0.2214  2.6583
   16SOL     MW   64   0.258   1.841   0.249  0.5918  0.3022 -0.0615
   17SOL     OW   65   1.080   0.910   1.408  0.3508  0.4240 -0.2450
   17SOL    HW1   66   1.116   0.925   1.498 -0.5100 -0.2079 -0.5622
   17SOL    HW2   67   0.981   0.903   1.410  0.3988 -3.4297  0.5843
   17SOL     MW   68   1.072   0.911   1.420  0.2436 -0.1678 -0.1775
   18SOL     OW   69   0.119   1.597   0.348 -0.3667  0.1760  0.0918
   18SOL    HW1   70   0.181   1.662   0.311  0.4924  2.6819 -2.0648
   18SOL    HW2   71   0.075   1.563   0.266 -1.1679 -2.1431 -2.6482
   18SOL     MW   72   0.121   1.601   0.333 -0.3591  0.2006 -0.5543
   19SOL     OW   73   0.086   1.370   0.930 -0.2127 -0.7113 -0.2874
   19SOL    HW1   74   0.134   1.390   0.848 -0.4065 -0.5477 -0.7312
   19SOL    HW2   75   0.004   1.414   0.917  2.7486 -2.4933 -0.0759
   19SOL     MW   76   0.082   1.378   0.917  0.1525 -0.9248 -0.3181
   20SOL     OW   77   0.432   2.163   1.241  0.2810  0.2045 -0.0372
   20SOL    HW1   78   0.393   2.081   1.200  0.2242 -3.1862  1.0781
   20SOL    HW2   79   0.414   2.143   1.332  0.9179 -0.0871 -0.5935
   20SOL     MW   80   0.425   2.149   1.248  0.3576 -0.2813  0.0366
   21SOL     OW   81   0.537   0.880   0.438  0.1335 -0.3970  0.4790
   21SOL    HW1   82   0.619   0.864   0.482  1.0136  0.7096 -1.2908
   21SOL    HW2   83   0.566   0.873   0.348  2.4490  4.2259 -2.0980
   21SOL     MW   84   0.552   0.877   0.432  0.5551  0.3589 -0.0945
   22SOL     OW   85   1.582   0.701   0.982 -0.4780 -0.3059  0.3866
   22SOL    HW1   86   1.551   0.669   0.899 -1.1462  1.6161 -2.5946
   22SOL    HW2   87   1.519   0.769   1.008 -2.0605  2.0271 -0.2738
   22SOL     MW   88   1.570   0.706   0.974 -0.7749  0.2555 -0.0938
   23SOL     OW   89   3.089   0.728   0.706  0.5191  0.4527  0.4889
   23SOL    HW1   90   3.143   0.664   0.750  3.0345  2.5038 -0.6466
   23SOL    HW2   91   3.143   0.808   0.719  1.0763 -1.7388 -0.4688
   23SOL     MW   92   3.103   0.730   0.714  0.9245  0.4342  0.2127
   24SOL     OW   93   2.089   2.199   0.021 -0.3684 -0.4175  0.7596
   24SOL    HW1   94   2.056   2.196   0.111  1.7113  1.7766 -1.5845
   24SOL    HW2   95   2.131   2.115   0.019 -0.1280  1.0574 -1.0027
   24SOL     MW   96   2.090   2.188   0.033 -0.0623  0.0666  0.2178
   25SOL     OW   97   0.218   1.337   0.426 -0.4799 -0.1007  0.3476
   25SOL    HW1   98   0.203   1.427   0.390 -0.6785  1.0170  0.4210
   25SOL    HW2   99   0.273   1.302   0.360 -2.2242 -1.8157 -0.6853
   25SOL     MW  100   0.223   1.344   0.413 -0.7362 -0.1795  0.2210
   26SOL     OW  101   2.028   1.001   0.311 -0.2863 -0.1228 -0.0078
   26SOL    HW1  102   1.972   1.053   0.367  1.1141 -0.1059 -1.0668
   26SOL    HW2  103   2.103   1.052   0.315 -5.7273 -0.2457  2.4653
   26SOL     MW  104   2.031   1.015   0.319 -0.8194 -0.1368  0.1788
   27SOL     OW  105   1.868   1.349   0.156  0.1861 -0.3258 -0.3843
   27SOL    HW1  106   1.786   1.400   0.165 -1.0085 -2.4591  1.1884
   27SOL    HW2  107   1.909   1.350   0.242  0.7723 -2.2269 -1.9851
   27SOL     MW  108   1.863   1.356   0.169  0.1058 -0.8581 -0.3880
   28SOL     OW  109   0.442   0.961   1.993 -0.8069 -0.0812 -0.2463
   28SOL    HW1  110   0.495   0.937   2.069 -1.9320 -2.2086 -2.3563
   28SOL    HW2  111   0.350   0.953   2.012  1.1109 -2.2024 -0.2482
   28SOL     MW  112   0.437   0.957   2.006 -0.7023 -0.6418 -0.5249
   29SOL     OW  113   0.264   1.387   0.718  0.0445 -0.3841  0.1132
   29SOL    HW1  114   0.249   1.481   0.714 -1.3450  0.9029 -0.5730
   29SOL    HW2  115   0.233   1.348   0.634 -2.3792  0.7166  1.9841
   29SOL     MW  116   0.258   1.394   0.706 -0.4586 -0.0691  0.2695
   30SOL     OW  117   0.805   1.244   1.244  0.3844  0.0082  0.9512
   30SOL    HW1  118   0.737   1.199   1.293 -0.4556 -0.8923 -0.5453
   30SOL    HW2  119   0.883   1.229   1.293 -0.3472  0.7860 -4.1687
   30SOL     MW  120   0.807   1.236   1.257  0.1771 -0.0080  0.0782
   31SOL     OW  121   0.449   0.291   0.149 -0.5099  0.0761  0.4532
   31SOL    HW1  122   0.484   0.225   0.210  0.8541  0.7041 -0.4619
   31SOL    HW2  123   0.487   0.256   0.066 -0.0664  3.0881 -1.0846
   31SOL     MW  124   0.459   0.278   0.146 -0.2714  0.5563  0.1296
   32SOL     OW  125   2.698   0.993   1.146  0.3896  0.1653 -0.4912
   32SOL    HW1  126   2.617   0.934   1.160 -0.0601  1.3061  0.7875
   32SOL    HW2  127   2.766   0.937   1.111 -0.5069 -0.7889 -1.5980
   32SOL     MW  128   2.696   0.978   1.143  0.2120  0.1899 -0.4685
   33SOL     OW  129   1.651   1.301   0.410  0.3513 -0.4418 -0.3519
   33SOL    HW1  130   1.724   1.239   0.439 -1.0698 -1.3621  0.8768
   33SOL    HW2  131   1.659   1.362   0.482  0.8751 -2.0031 -0.0718
   33SOL     MW  132   1.662   1.301   0.424  0.2329 -0.7692 -0.1528
   34SOL     OW  133   1.219   1.934   1.151 -0.1702 -0.2053  0.4745
   34SOL    HW1  134   1.138   1.980   1.162  1.8061 -3.0014  2.8130
   34SOL    HW2  135   1.298   1.973   1.201  3.4804 -0.8385  0.9588
   34SOL     MW  136   1.219   1.945   1.159  0.5722 -0.6578  0.8470
   35SOL     OW  137   0.325   0.154   1.833  0.2499 -0.4264  0.3746
   35SOL    HW1  138   0.353   0.093   1.903  1.9289 -0.3567 -1.7002
   35SOL    HW2  139   0.332   0.101   1.751  2.1625  1.2609  0.5668
   35SOL     MW  140   0.330   0.139   1.831  0.7238 -0.1946  0.1262
   36SOL     OW  141   1.933   1.944   0.586  0.1851  0.2811 -0.1318
   36SOL    HW1  142   1.895   1.909   0.504  0.1598 -1.0510 -0.0553
   36SOL    HW2  143   1.929   1.859   0.628  0.5837  3.3595 -0.9466
   36SOL     MW  144   1.928   1.928   0.580  0.2344  0.5115 -0.2292
   37SOL     OW  145   1.838   2.027   1.042  0.0840  0.7061 -0.0440
   37SOL    HW1  146   1.801   1.998   0.958  2.5213 -2.8943 -0.8445
   37SOL    HW2  147   1.765   2.072   1.092 -0.8051 -0.5161  4.0885
   37SOL     MW  148   1.823   2.029   1.038  0.2883  0.0698  0.3956
   38SOL     OW  149   2.849   0.923   0.164  0.0852  0.4576  0.7508
   38SOL    HW1  150   2.873   0.905   0.258  3.6767 -1.7337 -1.7431
   38SOL    HW2  151   2.932   0.905   0.113  2.8396  2.7092  0.6439
   38SOL     MW  152   2.863   0.918   0.170  0.9225  0.4655  0.4077
   39SOL     OW  153   1.481   0.594   0.740  0.4088  0.4491  0.1382
   39SOL    HW1  154   1.464   0.508   0.778 -2.2713  0.0951  0.4193
   39SOL    HW2  155   1.400   0.640   0.739 -1.7914 -0.8707 -0.0655
   39SOL     MW  156   1.468   0.589   0.745 -0.2351  0.2283  0.1484
   40SOL     OW  157   1.274   1.902   0.266  0.0547 -0.1201 -0.2929
   40SOL    HW1  158   1.309   1.815   0.287  4.1177 -0.4121  1.1607
   40SOL    HW2  159   1.255   1.945   0.349  1.2059  1.5429 -2.2414
   40SOL     MW  160   1.276   1.896   0.280  0.7427  0.0608 -0.3582
   41SOL     OW  161   0.564   0.538   1.619 -0.3641  0.1688 -0.1208
   41SOL    HW1  162   0.642   0.571   1.572  1.9342 -1.0441 -0.0969
   41SOL    HW2  163   0.488   0.599   1.609 -3.9288  2.8946 -0.2437
   41SOL     MW  164   0.564   0.551   1.611 -0.5312  0.3684 -0.1339
   42SOL     OW  165   1.265   3.000   1.935 -0.5453 -0.5794 -0.0074
   42SOL    HW1  166   1.188   3.028   1.987  2.8228  2.4822  0.1075
   42SOL    HW2  167   1.300   2.929   1.988 -3.1001 -0.9152  1.1965
   42SOL     MW  168   1.260   2.994   1.949 -0.4380 -0.2197  0.1666
   43SOL     OW  169   1.499   0.134   1.692 -0.0488 -0.3550 -0.0361
   43SOL    HW1  170   1.544   0.121   1.608 -0.7611 -0.6783  0.7116
   43SOL    HW2  171   1.417   0.089   1.693 -2.0380  1.5809  0.1203
   43SOL     MW  172   1.494   0.126   1.681 -0.4052 -0.1422  0.0832
   44SOL     OW  173   1.273   0.759   1.058 -0.2497  0.5183 -0.3358
   44SOL    HW1  174   1.273   0.858   1.064  0.4919  1.7119  0.5119
   44SOL    HW2  175   1.248   0.745   1.149 -2.1679  2.9709  0.2758
   44SOL     MW  176   1.270   0.770   1.071 -0.4050  0.9994 -0.1433
   45SOL     OW  177   1.275   0.770   0.764  0.1573  0.2837  0.1096
   45SOL    HW1  178   1.241   0.756   0.851 -0.9226  0.4828  0.0123
   45SOL    HW2  179   1.202   0.728   0.706 -1.4398 -0.7574 -1.7159
   45SOL     MW  180   1.261   0.762   0.768 -0.1959  0.1726 -0.1441
   46SOL     OW  181   0.511   1.093   0.643 -0.0803 -0.7028 -0.0035
   46SOL    HW1  182   0.528   1.089   0.546  0.0469  1.4346 -1.0709
   46SOL    HW2  183   0.486   1.186   0.659 -3.8953 -0.8414 -1.0480
   46SOL     MW  184   0.510   1.104   0.632 -0.5669 -0.4391 -0.2822
   47SOL     OW  185   0.151   1.975   1.950 -0.5635  0.2777 -0.8609
   47SOL    HW1  186   0.148   1.888   1.909  2.0860 -1.9273  0.4532
   47SOL    HW2  187   0.111   1.944   2.028  2.5673 -0.3234 -0.2460
   47SOL     MW  188   0.145   1.959   1.955  0.1992 -0.0925 -0.6064
   48SOL     OW  189   1.169   0.499   1.024  0.1070 -0.3151  0.1050
   48SOL    HW1  190   1.082   0.508   0.980  0.8428 -0.2528  0.3094
   48SOL    HW2  191   1.211   0.586   1.036  1.1781  2.0931 -0.0159
   48SOL     MW  192   1.163   0.512   1.020  0.3454  0.0109  0.1160
   49SOL     OW  193   1.691   0.640   1.555  0.1000  0.4972  0.4120
   49SOL    HW1  194   1.713   0.592   1.635 -0.1107 -0.7500 -0.8956
   49SOL    HW2  195   1.725   0.588   1.484 -0.3753  1.2230 -0.4842
   49SOL     MW  196   1.698   0.627   1.556  0.0095  0.4284  0.1212
   50SOL     OW  197   1.274   1.236   0.590  0.5378  0.7640 -0.2603
   50SOL    HW1  198   1.208   1.245   0.661 -0.4922  0.9915  4.1796
   50SOL    HW2  199   1.327   1.168   0.621 -1.2539  0.4750  0.2059
   50SOL     MW  200   1.272   1.229   0.603  0.1655  0.7559  0.3870
   51SOL     OW  201   0.314   2.912   0.865  0.2750 -0.1508 -0.9591
   51SOL    HW1  202   0.393   2.853   0.882 -0.8816 -0.7284 -0.6398
   51SOL    HW2  203   0.301   2.939   0.957 -0.8617  2.1913 -1.1331
   51SOL     MW  204   0.322   2.907   0.879 -0.0276  0.0820 -0.9399
   52SOL     OW  205   0.815   1.830   0.463  0.1060 -0.2906 -0.0255
   52SOL    HW1  206   0.776   1.921   0.468 -0.3974 -0.7261 -0.9475
   52SOL    HW2  207   0.814   1.810   0.371  0.3664  0.6828  0.0169
   52SOL     MW  208   0.809   1.839   0.452  0.0740 -0.2196 -0.1416
   53SOL     OW  209   0.439   2.164   0.497  0.1088  0.5602  0.4730
   53SOL    HW1  210   0.368   2.150   0.438 -0.3666  1.2364  0.7396
   53SOL    HW2  211   0.441   2.253   0.535  1.2575 -1.0786 -0.0718
   53SOL     MW  212   0.430   2.174   0.494  0.1976  0.4332  0.4363
   54SOL     OW  213   2.060   0.958   0.750 -0.1233  0.2659 -0.6045
   54SOL    HW1  214   2.120   0.951   0.674 -0.7885  0.8414 -1.7151
   54SOL    HW2  215   2.027   0.872   0.775  1.5252  0.9404  0.0559
   54SOL     MW  216   2.064   0.946   0.743  0.0064  0.4309 -0.6639
   55SOL     OW  217   0.489   1.550   1.682 -0.4727 -0.5909  0.0238
   55SOL    HW1  218   0.439   1.584   1.610  0.3995 -3.4103  1.0286
   55SOL    HW2  219   0.562   1.507   1.641  0.3244  3.8882  2.1923
   55SOL     MW  220   0.492   1.549   1.667 -0.2525 -0.3719  0.4425
   56SOL     OW  221   0.647   0.886   0.177  0.3366  0.1287  0.4053
   56SOL    HW1  222   0.655   0.983   0.174 -0.7926  0.8710 -1.5422
   56SOL    HW2  223   0.563   0.874   0.135  0.3903  0.4964  0.7752
   56SOL     MW  224   0.637   0.897   0.171  0.1947  0.2751  0.1972
   57SOL     OW  225   1.142   1.255   1.157 -0.1095  0.4724 -0.5455
   57SOL    HW1  226   1.228   1.297   1.152 -0.9703  2.0609 -1.8292
   57SOL    HW2  227   1.114   1.213   1.240 -1.5609 -2.1491 -1.4688
   57SOL     MW  228   1.150   1.255   1.167 -0.4146  0.3361 -0.8367
   58SOL     OW  229   0.514   1.261   1.269 -0.8702 -0.0177 -0.3005
   58SOL    HW1  230   0.503   1.356   1.254 -1.2786  1.7389  0.8858
   58SOL    HW2  231   0.519   1.248   1.361  0.0519 -0.9373 -2.9278
   58SOL     MW  232   0.514   1.272   1.279 -0.8024  0.0927 -0.4907
   59SOL     OW  233   1.456   1.671   0.331 -0.6637  0.1178  0.1424
   59SOL    HW1  234   1.509   1.719   0.393 -0.4337  1.2905  1.5753
   59SOL    HW2  235   1.400   1.618   0.385  0.1557 -0.5089  1.5587
   59SOL     MW  236   1.456   1.670   0.347 -0.5252  0.1899  0.5183
   60SOL     OW  237   3.057   0.173   1.706 -0.0469  0.4738 -0.2442
   60SOL    HW1  238   2.977   0.227   1.730  0.6735  2.4060 -2.2329
   60SOL    HW2  239   3.051   0.092   1.763 -3.4980 -3.7340  1.6894
   60SOL     MW  240   3.046   0.170   1.717 -0.4072  0.1735 -0.2515
   61SOL     OW  241   1.970   1.386   3.021 -0.4248  0.2983 -0.1635
   61SOL    HW1  242   1.945   1.395   3.120  0.6429  2.1086  0.6504
   61SOL    HW2  243   2.017   1.299   3.006  1.1528 -0.4326  0.3754
   61SOL     MW  244   1.973   1.375   3.032 -0.0758  0.4407  0.0149
   62SOL     OW  245   0.544   1.736   0.571  0.1068 -0.4117  0.7852
   62SOL    HW1  246   0.636   1.758   0.578  1.5467  0.1903 -0.6569
   62SOL    HW2  247   0.545   1.646   0.586  2.4163  2.2812  1.8822
   62SOL     MW  248   0.557   1.727   0.574  0.6015  0.0230  0.7396
   63SOL     OW  249   1.719   0.664   0.652  0.1304  0.1325  0.0766
   63SOL    HW1  250   1.720   0.744   0.595 -0.8652  1.3664 -0.0449
   63SOL    HW2  251   1.622   0.655   0.671  0.0553  0.7197 -0.5927
   63SOL     MW  252   1.706   0.674   0.647 -0.0109  0.3728 -0.0277
   64SOL     OW  253   0.245   1.645   0.760 -0.4959 -0.2601  0.0596
   64SOL    HW1  254   0.318   1.695   0.797 -2.5783  1.3275 -0.9599
   64SOL    HW2  255   0.179   1.712   0.751  2.5581 -0.0068 -0.0291
   64SOL     MW  256   0.246   1.661   0.763 -0.3677 -0.0172 -0.0866
   65SOL     OW  257   1.530   2.311   0.354 -0.3318  0.0072 -0.3673
   65SOL    HW1  258   1.614   2.351   0.371 -1.6984  1.3367 -0.6185
   65SOL    HW2  259   1.474   2.348   0.425 -3.0530  0.9783  2.7293
   65SOL     MW  260   1.534   2.322   0.365 -0.8711  0.3107  0.0081
   66SOL     OW  261   0.336   0.574   0.474 -0.6170 -0.1778 -0.4550
   66SOL    HW1  262   0.378   0.579   0.388  1.6210  2.1378  1.0367
   66SOL    HW2  263   0.289   0.662   0.497  0.6553  1.0422  1.1666
   66SOL     MW  264   0.335   0.586   0.465 -0.1538  0.2887 -0.0442
   67SOL     OW  265   1.474   0.076   1.961  0.1986 -0.2411  0.2271
   67SOL    HW1  266   1.504   0.083   1.873 -2.2460  0.7225  0.2729
   67SOL    HW2  267   1.395   0.015   1.961 -0.4162 -1.4334 -0.6254
   67SOL     MW  268   1.467   0.069   1.949 -0.2050 -0.2713  0.1207
   68SOL     OW  269   0.778   3.088   2.978  0.6810 -0.0919 -0.0505
   68SOL    HW1  270   0.771   3.125   2.890 -1.2102 -3.4538 -0.2504
   68SOL    HW2  271   0.851   3.129   3.019 -2.1295  1.6680 -2.0230
   68SOL     MW  272   0.786   3.098   2.972  0.0607 -0.3033 -0.3371
   69SOL     OW  273   0.954   0.200   1.961  0.4445  0.2884 -0.2322
   69SOL    HW1  274   1.050   0.215   1.964 -0.9772  2.4223  4.7881
   69SOL    HW2  275   0.949   0.117   2.014 -1.6002 -0.6598  0.1558
   69SOL     MW  276   0.966   0.191   1.968 -0.0129  0.4449  0.4814
   70SOL     OW  277   0.485   1.718   1.070  0.2488  0.8870 -0.0868
   70SOL    HW1  278   0.557   1.780   1.075  3.2549 -2.7005 -2.6062
   70SOL    HW2  279   0.526   1.660   1.001 -0.6768  0.4554 -0.0239
   70SOL     MW  280   0.500   1.719   1.062  0.5233  0.3567 -0.4109
   71SOL     OW  281   1.479   0.541   1.179 -0.3873 -0.2280  0.0840
   71SOL    HW1  282   1.479   0.611   1.241 -1.2071 -1.9431  0.4097
   71SOL    HW2  283   1.504   0.574   1.093  0.4648 -1.4141  0.2975
   71SOL     MW  284   1.482   0.555   1.176 -0.3830 -0.6108  0.1552
   72SOL     OW  285   0.742   1.860   1.024 -0.4583 -0.1961  0.2563
   72SOL    HW1  286   0.743   1.901   0.939  2.5133 -0.0267  1.2473
   72SOL    HW2  287   0.794   1.779   1.011 -0.2651 -0.6993  1.3706
   72SOL     MW  288   0.749   1.854   1.011 -0.0407 -0.2401  0.5340
   73SOL     OW  289   1.231   0.673   1.344  0.2072  0.0828  0.0418
   73SOL    HW1  290   1.170   0.602   1.338 -3.7198 -0.9453  0.9619
   73SOL    HW2  291   1.167   0.746   1.361 -0.7321 -0.4423  1.5300
   73SOL     MW  292   1.215   0.673   1.346 -0.4349 -0.1221  0.3596
   74SOL     OW  293   2.890   0.200   1.050  0.1518 -0.8880 -0.2947
   74SOL    HW1  294   2.966   0.213   0.988 -0.0926  1.6373  0.7074
   74SOL    HW2  295   2.818   0.199   0.986  0.1334 -1.9106 -0.8143
   74SOL     MW  296   2.890   0.201   1.034  0.1171 -0.6897 -0.2311
   75SOL     OW  297   1.591   1.338   0.119  0.0723  0.2512  0.6483
   75SOL    HW1  298   1.659   1.279   0.088 -1.7975  1.8708  0.1812
   75SOL    HW2  299   1.595   1.327   0.217  0.6276  1.4921 -0.8133
   75SOL     MW  300   1.600   1.329   0.128 -0.1012  0.6286  0.3938
   76SOL     OW  301   2.978   0.643   0.454 -0.1130  0.4202 -0.2023
   76SOL    HW1  302   3.014   0.681   0.537 -0.2813 -0.8344  0.5702
   76SOL    HW2  303   3.052   0.605   0.406 -1.0155  0.6795  2.4049
   76SOL     MW  304   2.993   0.643   0.458 -0.2543  0.2889  0.2436
   77SOL     OW  305   0.887   0.586   0.405 -0.8443  0.7083  0.0920
   77SOL    HW1  306   0.857   0.621   0.321  1.5986  0.1522 -1.1048
   77SOL    HW2  307   0.875   0.496   0.385  0.6602  1.6265 -0.4701
   77SOL     MW  308   0.881   0.578   0.391 -0.3235  0.7561 -0.1400
   78SOL     OW  309   0.731   0.865   1.144 -0.3255 -0.3648 -0.1948
   78SOL    HW1  310   0.737   0.958   1.103 -2.5362  1.0524 -1.2045
   78SOL    HW2  311   0.640   0.847   1.163 -1.4360  0.4441  0.2899
   78SOL     MW  312   0.720   0.875   1.141 -0.7637 -0.0711 -0.2640
   79SOL     OW  313   1.859   1.621   0.591 -0.1519 -0.6674 -0.7101
   79SOL    HW1  314   1.769   1.586   0.602 -2.4400 -2.1976  1.2489
   79SOL    HW2  315   1.903   1.612   0.671 -1.6431 -0.9111 -1.2455
   79SOL     MW  316   1.853   1.616   0.603 -0.6506 -0.9014 -0.5223
   80SOL     OW  317   0.075   0.975   0.370  0.3536  0.1138 -0.3659
   80SOL    HW1  318  -0.008   0.934   0.383 -0.3588  0.6291  0.7615
   80SOL    HW2  319   0.134   0.936   0.431  1.9366  3.9328  1.8798
   80SOL     MW  320   0.072   0.965   0.380  0.4685  0.6857  0.0791
   81SOL     OW  321   1.845   1.845   0.335 -0.6456 -0.5274  0.0943
   81SOL    HW1  322   1.807   1.762   0.314 -0.7495 -2.6034 -1.7312
   81SOL    HW2  323   1.804   1.904   0.271 -0.8152 -1.5118 -0.1816
   81SOL     MW  324   1.834   1.842   0.324 -0.6817 -0.9312 -0.1830
   82SOL     OW  325   0.877   1.021   0.515  0.1549 -0.3941  0.3219
   82SOL    HW1  326   0.838   1.052   0.433  0.6382  1.0491 -0.6320
   82SOL    HW2  327   0.849   0.930   0.541 -0.9325 -0.7371 -2.0455
   82SOL     MW  328   0.868   1.013   0.508  0.0752 -0.2490 -0.1164
   83SOL     OW  329   0.042   0.773   1.488 -0.4326  0.4483  0.8334
   83SOL    HW1  330   0.055   0.811   1.402  0.9018  1.3371 -0.6881
   83SOL    HW2  331   0.094   0.694   1.484  0.7957 -1.9023 -1.8144
   83SOL     MW  332   0.051   0.768   1.476 -0.0945  0.2554  0.2833
   84SOL     OW  333   0.040   0.200   0.903  0.2181 -0.0213  0.2234
   84SOL    HW1  334   0.036   0.281   0.959  0.9645  1.3582  1.1494
   84SOL    HW2  335   0.046   0.128   0.971 -2.4586 -2.5705  0.6738
   84SOL     MW  336   0.040   0.201   0.919 -0.0366 -0.1757  0.4050
   85SOL     OW  337   0.403   0.454   0.722  0.2103  0.3815  0.0975
   85SOL    HW1  338   0.384   0.485   0.636  3.0845  0.6775  1.2172
   85SOL    HW2  339   0.385   0.359   0.724 -0.7177  2.0644  0.6238
   85SOL     MW  340   0.398   0.445   0.711  0.4671  0.6426  0.3147
   86SOL     OW  341   1.205   0.251   1.146  0.5056  0.0313 -0.1792
   86SOL    HW1  342   1.178   0.336   1.115 -1.0078  0.5781  2.4919
   86SOL    HW2  343   1.297   0.263   1.163 -1.1759  0.8269 -2.7053
   86SOL     MW  344   1.214   0.264   1.144  0.0841  0.2084 -0.1601
   87SOL     OW  345   1.049   1.507   1.200  0.1722  0.5232 -0.5709
   87SOL    HW1  346   1.112   1.563   1.154 -0.6973 -0.9975  1.9039
   87SOL    HW2  347   1.059   1.418   1.165 -1.4607 -1.4569  0.0430
   87SOL     MW  348   1.059   1.502   1.189 -0.1580  0.0613 -0.1634
   88SOL     OW  349   1.249   1.024   1.007  0.2178  0.0543  0.5076
   88SOL    HW1  350   1.336   1.062   1.009  0.4771  0.6205  0.7877
   88SOL    HW2  351   1.195   1.084   1.063 -1.5906  2.7963 -1.6201
   88SOL     MW  352   1.254   1.037   1.015  0.0134  0.4908  0.2638
   89SOL     OW  353   1.750   0.733   0.335  0.3637  0.2172 -1.0441
   89SOL    HW1  354   1.700   0.651   0.333  1.2254 -0.0086 -0.6760
   89SOL    HW2  355   1.843   0.705   0.312 -0.7685  1.1839 -1.9670
   89SOL     MW  356   1.756   0.718   0.332  0.3280  0.3150 -1.1173
   90SOL     OW  357   0.858   1.190   2.878 -0.0161  0.4099  0.3656
   90SOL    HW1  358   0.862   1.097   2.893  0.2074  2.0290  0.9063
   90SOL    HW2  359   0.868   1.224   2.969 -1.2229  3.1884 -1.8318
   90SOL     MW  360   0.860   1.182   2.892 -0.1459  0.9901  0.1470
   91SOL     OW  361   2.190   0.667   0.451 -0.1711 -0.2333 -0.0212
   91SOL    HW1  362   2.280   0.696   0.411  0.8679  1.5913 -1.9367
   91SOL    HW2  363   2.173   0.584   0.406 -1.6327  2.1518  1.2646
   91SOL     MW  364   2.200   0.660   0.440 -0.2268  0.3221 -0.1043
   92SOL     OW  365   1.648   0.922   0.582 -0.2556  0.2887  0.1916
   92SOL    HW1  366   1.577   0.965   0.633  0.7073  0.0884 -0.5857
   92SOL    HW2  367   1.622   0.931   0.492 -0.0613  2.0531  1.4899
   92SOL     MW  368   1.635   0.929   0.577 -0.1029  0.4951  0.2604
   93SOL     OW  369   1.122   0.197   0.404 -0.6932  0.1401 -0.2978
   93SOL    HW1  370   1.037   0.235   0.420  2.0601  2.9454  0.9923
   93SOL    HW2  371   1.154   0.227   0.319 -0.2548 -3.2816 -1.4834
   93SOL     MW  372   1.115   0.206   0.395 -0.2721  0.0587 -0.2840
   94SOL     OW  373   1.847   1.376   1.566 -0.6010 -0.1934 -0.6501
   94SOL    HW1  374   1.860   1.405   1.474  0.8109 -0.4467 -3.1258
   94SOL    HW2  375   1.868   1.283   1.565 -0.2688 -0.0986 -2.9294
   94SOL     MW  376   1.852   1.368   1.554 -0.3709 -0.2143 -1.2775
   95SOL     OW  377   0.644   1.533   0.914  0.4461  0.2107  0.4839
   95SOL    HW1  378   0.642   1.504   1.004 -1.5146  2.7735 -1.7285
   95SOL    HW2  379   0.586   1.471   0.863 -0.3461  0.1472  0.5358
   95SOL     MW  380   0.636   1.521   0.919  0.0829  0.5404  0.1988
   96SOL     OW  381   1.335   1.856   1.727  0.5338 -0.1267 -0.6068
   96SOL    HW1  382   1.240   1.882   1.732 -1.7529  0.0138  3.3776
   96SOL    HW2  383   1.345   1.765   1.696  2.1676 -1.9274  1.0483
   96SOL     MW  384   1.324   1.848   1.723  0.4477 -0.3458  0.1373
   97SOL     OW  385   1.095   1.460   0.889 -0.5340  0.0795  0.7319
   97SOL    HW1  386   1.141   1.521   0.947 -2.3045  0.4244  2.2672
   97SOL    HW2  387   1.014   1.508   0.861 -1.8980  1.5071 -0.4695
   97SOL     MW  388   1.090   1.475   0.893 -0.9475  0.3134  0.7760
   98SOL     OW  389   1.401   1.358   1.153 -0.8083  0.0355 -0.0136
   98SOL    HW1  390   1.459   1.391   1.226 -0.5167 -2.1890  1.2203
   98SOL    HW2  391   1.427   1.401   1.074 -3.5089 -1.2600 -0.1027
   98SOL     MW  392   1.412   1.368   1.152 -1.1261 -0.4290  0.1374
   99SOL     OW  393   1.433   0.286   1.263 -0.2079  0.2483 -0.0942
   99SOL    HW1  394   1.458   0.374   1.239  0.3569 -2.8927  1.8500
   99SOL    HW2  395   1.379   0.294   1.337 -1.0384  1.0059 -1.0726
   99SOL     MW  396   1.429   0.299   1.269 -0.2429 -0.0662  0.0332
  100SOL     OW  397   1.022   1.163   1.387  0.0884  0.2825  0.0427
  100SOL    HW1  398   1.085   1.207   1.449  0.8837  0.3084 -0.5383
  100SOL    HW2  399   1.043   1.067   1.388  1.1414 -1.5568  1.7905
  100SOL     MW  400   1.033   1.156   1.395  0.3323  0.0433  0.1966
  101SOL     OW  401   0.544   1.182   0.364 -0.2146  0.4619  0.4789
  101SOL    HW1  402   0.502   1.150   0.285  0.0801 -0.0478  1.1257
  101SOL    HW2  403   0.628   1.147   0.349 -2.4899  0.3150 -3.2024
  101SOL     MW  404   0.550   1.173   0.352 -0.4759  0.3753  0.0785
  102SOL     OW  405   2.888   0.663   1.057  0.0543  0.1195  0.4648
  102SOL    HW1  406   2.921   0.757   1.051  1.7547  2.0202 -0.6660
  102SOL    HW2  407   2.891   0.630   1.146  0.6980  1.7057 -1.9621
  102SOL     MW  408   2.893   0.671   1.068  0.3636  0.5796 -0.0046
  103SOL     OW  409   1.831   0.228   1.801  0.0856  0.3264 -0.0475
  103SOL    HW1  410   1.809   0.138   1.779 -1.0801 -1.0413 -0.4866
  103SOL    HW2  411   1.837   0.237   1.898 -0.3850  1.9998  0.4091
  103SOL     MW  412   1.829   0.217   1.811 -0.1303  0.3667 -0.0452
  104SOL     OW  413   0.089   1.519   1.617 -0.9950 -0.0329  0.4525
  104SOL    HW1  414   0.143   1.470   1.677 -0.2685 -1.7389  2.5887
  104SOL    HW2  415   0.004   1.497   1.658  1.5824 -0.6284  1.4586
  104SOL     MW  416   0.085   1.509   1.631 -0.5591 -0.3366  0.8671
  105SOL     OW  417   3.079   1.219   0.406 -0.2959 -0.1855  0.3498
  105SOL    HW1  418   3.106   1.123   0.402  3.9489  1.7309  0.3780
  105SOL    HW2  419   3.162   1.260   0.419 -2.4850  1.7074  1.7141
  105SOL     MW  420   3.093   1.212   0.407 -0.0247  0.3171  0.5335
  106SOL     OW  421   0.751   0.415   0.894 -0.3229  0.2289 -0.3457
  106SOL    HW1  422   0.673   0.448   0.939  0.6430  0.8084  0.3671
  106SOL    HW2  423   0.762   0.481   0.824  0.2193  0.0362  0.0162
  106SOL     MW  424   0.742   0.428   0.891 -0.1239  0.2799 -0.2039
  107SOL     OW  425   0.800   2.120   2.899 -0.5020  0.6191 -0.1261
  107SOL    HW1  426   0.703   2.113   2.891  1.4116 -0.4074  3.0888
  107SOL    HW2  427   0.806   2.130   2.992 -0.9374  0.3731 -0.4952
  107SOL     MW  428   0.788   2.120   2.910 -0.3070  0.4512  0.2494
  108SOL     OW  429   1.354   1.595   1.638 -0.0452 -0.0696 -0.4006
  108SOL    HW1  430   1.314   1.576   1.549  0.4449 -2.1098  1.2198
  108SOL    HW2  431   1.435   1.553   1.656  0.2834 -1.0702  0.3201
  108SOL     MW  432   1.359   1.587   1.629  0.0628 -0.4708 -0.0917
  109SOL     OW  433   2.011   0.705   0.256 -0.3757 -0.1049 -0.0387
  109SOL    HW1  434   2.020   0.804   0.260 -1.9919  1.7320  2.8769
  109SOL    HW2  435   2.056   0.685   0.340  0.1542  0.4250  1.1169
  109SOL     MW  436   2.018   0.716   0.268 -0.5191  0.2074  0.4984
  110SOL     OW  437   0.416   1.944   0.711  0.0742  0.8192  0.0496
  110SOL    HW1  438   0.430   1.872   0.652  1.9694  0.0127 -0.0591
  110SOL    HW2  439   0.436   2.015   0.659  1.3083 -4.2044 -1.7640
  110SOL     MW  440   0.421   1.944   0.696  0.4871  0.0500 -0.2040
  111SOL     OW  441   0.815   0.894   1.397  0.5146  0.4441 -0.5603
  111SOL    HW1  442   0.810   0.895   1.301 -2.0463 -0.8168  0.2841
  111SOL    HW2  443   0.798   0.796   1.412  0.9346  1.0811 -0.7771
  111SOL     MW  444   0.812   0.881   1.387  0.2321  0.3618 -0.4775
  112SOL     OW  445   1.359   1.065   1.611 -0.8492 -0.5470 -0.2153
  112SOL    HW1  446   1.296   1.135   1.595  1.2393 -1.5019  0.2265
  112SOL    HW2  447   1.313   0.980   1.617  1.0638 -1.0947  1.1362
  112SOL     MW  448   1.345   1.063   1.609 -0.3213 -0.7452  0.0213
  113SOL     OW  449   1.253   3.064   1.674  0.3241  0.0747 -0.0063
  113SOL    HW1  450   1.248   3.032   1.770  1.5725  0.6299  1.7919
  113SOL    HW2  451   1.276   2.989   1.618  0.9231 -0.8982  0.0939
  113SOL     MW  452   1.255   3.050   1.679  0.5679  0.0196  0.2442
  114SOL     OW  453   0.262   2.877   1.877 -0.0350 -0.1743  0.1829
  114SOL    HW1  454   0.351   2.905   1.888  2.1844  2.0183 -2.9345
  114SOL    HW2  455   0.200   2.938   1.930  0.8338 -1.5587  3.1917
  114SOL     MW  456   0.266   2.889   1.885  0.3725 -0.0677  0.1685
  115SOL     OW  457   0.477   0.790   1.164  0.0239 -0.2897  0.7746
  115SOL    HW1  458   0.460   0.698   1.193 -0.4019  0.6214  1.1155
  115SOL    HW2  459   0.417   0.842   1.216  4.7295  2.7616 -1.3719
  115SOL     MW  460   0.467   0.785   1.175  0.5886  0.2331  0.5364
  116SOL     OW  461   0.815   1.094   1.007 -0.5879 -0.3625  0.0131
  116SOL    HW1  462   0.827   1.134   0.918 -0.2270  1.8612  0.3485
  116SOL    HW2  463   0.845   1.165   1.061 -0.6720 -1.4330 -4.1024
  116SOL     MW  464   0.821   1.109   1.002 -0.5514 -0.2103 -0.4857
  117SOL     OW  465   1.126   1.198   0.817  0.0363  0.3334  0.3098
  117SOL    HW1  466   1.162   1.142   0.885  0.8003  2.6159  3.1522
  117SOL    HW2  467   1.107   1.287   0.866 -2.3375 -0.3618  2.9256
  117SOL     MW  468   1.128   1.203   0.833 -0.1761  0.5428  1.0299
  118SOL     OW  469   3.041   2.939   1.689 -0.9189 -0.3730  0.7597
  118SOL    HW1  470   3.077   2.956   1.772 -0.1165  0.1218 -0.8655
  118SOL    HW2  471   2.951   2.932   1.702  0.8169 -1.5440 -1.3532
  118SOL     MW  472   3.034   2.941   1.702 -0.5840 -0.4622  0.2665
  119SOL     OW  473   0.413   1.510   1.263  0.0024  0.1121 -0.0251
  119SOL    HW1  474   0.438   1.593   1.226  1.3395 -1.6537  0.0722
  119SOL    HW2  475   0.331   1.493   1.217 -0.6756  1.7761 -1.4400
  119SOL     MW  476   0.405   1.519   1.252  0.0894  0.0987 -0.1989
  120SOL     OW  477   0.232   0.774   0.999  0.2772 -0.0351 -0.3723
  120SOL    HW1  478   0.158   0.811   1.049 -1.3372  0.1779 -2.9005
  120SOL    HW2  479   0.294   0.732   1.058  3.6486 -1.0406 -1.0593
  120SOL     MW  480   0.231   0.773   1.013  0.5090 -0.1397 -0.7965
  121SOL     OW  481   1.766   1.094   1.663  0.4661 -0.2536 -0.2909
  121SOL    HW1  482   1.696   1.153   1.619 -0.6944  1.8921  1.8728
  121SOL    HW2  483   1.761   1.022   1.604 -2.4630  1.1010 -1.2744
  121SOL     MW  484   1.756   1.092   1.649 -0.0735  0.2082 -0.1352
  122SOL     OW  485   0.172   0.558   0.828 -0.1433  0.3282  0.1724
  122SOL    HW1  486   0.257   0.516   0.799 -0.6099  2.1758  0.9341
  122SOL    HW2  487   0.201   0.637   0.880  0.6869 -0.1629  2.8814
  122SOL     MW  488   0.187   0.563   0.831 -0.0953  0.5072  0.6304
  123SOL     OW  489   1.847   1.119   0.497  0.4216  0.5590  0.2955
  123SOL    HW1  490   1.789   1.043   0.508  1.5597 -0.7124 -1.2127
  123SOL    HW2  491   1.917   1.106   0.558 -2.6917 -1.8010  0.9047
  123SOL     MW  492   1.849   1.107   0.506  0.1610  0.0799  0.1769
  124SOL     OW  493   0.519   0.546   0.939  0.3761 -0.3735  0.1243
  124SOL    HW1  494   0.481   0.514   0.853 -0.9718 -3.4296  0.0842
  124SOL    HW2  495   0.575   0.621   0.919  0.1343 -0.3753  0.2626
  124SOL     MW  496   0.521   0.552   0.925  0.1663 -0.7770  0.1373
  125SOL     OW  497   0.733   1.757   1.744 -0.0395 -0.7249  0.3832
  125SOL    HW1  498   0.729   1.668   1.709 -1.6285 -0.4270  0.8889
  125SOL    HW2  499   0.663   1.819   1.718  1.6697 -1.7650  0.2327
  125SOL     MW  500   0.724   1.753   1.736 -0.0236 -0.8228  0.4301
  126SOL     OW  501   2.156   1.489   1.953 -0.1924 -0.0552  0.1558
  126SOL    HW1  502   2.200   1.576   1.942 -4.2032 -0.0820 -0.0703
  126SOL    HW2  503   2.223   1.421   1.952  0.7469  2.9730 -0.2531
  126SOL     MW  504   2.171   1.492   1.951 -0.5976  0.3408  0.0720
  127SOL     OW  505   0.576   0.867   1.779 -0.3679 -0.0025 -0.0857
  127SOL    HW1  506   0.665   0.831   1.793  0.7568 -1.0915 -1.3169
  127SOL    HW2  507   0.544   0.907   1.866 -1.1000  0.7124 -0.1944
  127SOL     MW  508   0.584   0.867   1.792 -0.3161 -0.0519 -0.2625
  128SOL     OW  509   1.694   0.716   2.896  0.7591 -0.0122 -0.0638
  128SOL    HW1  510   1.719   0.713   2.800  3.2009  2.3899 -2.3482
  128SOL    HW2  511   1.689   0.810   2.900 -0.9167 -0.2504 -0.1156
  128SOL     MW  512   1.697   0.728   2.884  0.8602  0.2733 -0.3720
  129SOL     OW  513   1.605   0.932   0.205 -0.0186 -0.0609  0.1080
  129SOL    HW1  514   1.532   0.874   0.175 -1.7335  0.7780  0.5382
  129SOL    HW2  515   1.669   0.877   0.246 -0.8570 -1.2726  1.6962
  129SOL     MW  516   1.604   0.917   0.207 -0.3554 -0.1101  0.3743
  130SOL     OW  517   0.768   1.407   0.310  0.6529 -0.2608  0.5276
  130SOL    HW1  518   0.787   1.421   0.409 -0.7221  0.4302 -1.2555
  130SOL    HW2  519   0.823   1.479   0.268 -2.7215  1.8636  0.2479
  130SOL     MW  520   0.778   1.419   0.318  0.0263  0.1107  0.2554
  131SOL     OW  521   3.064   0.807   0.020  0.5620 -0.4219 -0.1804
  131SOL    HW1  522   3.042   0.842  -0.073  1.2226  0.7463  0.9974
  131SOL    HW2  523   3.162   0.815   0.035  1.6237  2.6557 -0.2254
  131SOL     MW  524   3.074   0.813   0.009  0.7892  0.1383 -0.0309
  132SOL     OW  525   2.744   0.150   1.277 -0.1176 -0.5463  0.0078
  132SOL    HW1  526   2.801   0.164   1.203 -1.5073  0.4092 -1.9949
  132SOL    HW2  527   2.671   0.099   1.231 -0.0956  3.9555 -0.9245
  132SOL     MW  528   2.742   0.145   1.261 -0.2981  0.1737 -0.3795
  133SOL     OW  529   1.026   0.129   1.684 -0.6870 -0.8100  0.0276
  133SOL    HW1  530   1.104   0.072   1.682  1.9864 -0.5908 -1.7325
  133SOL    HW2  531   0.999   0.142   1.775 -1.1585 -0.4675  0.5833
  133SOL     MW  532   1.033   0.123   1.696 -0.3965 -0.7359 -0.1313
  134SOL     OW  533   1.425   2.422   1.478  0.1075 -1.0670  0.1469
  134SOL    HW1  534   1.351   2.485   1.466 -1.7038  0.5851  0.2402
  134SOL    HW2  535   1.457   2.460   1.565 -2.0611 -0.1312  0.5735
  134SOL     MW  536   1.420   2.435   1.488 -0.4176 -0.7255  0.2155
  135SOL     OW  537   3.041   0.983   2.901 -0.5807  0.0099  0.8846
  135SOL    HW1  538   3.127   1.020   2.916  1.3999 -0.6513 -0.0561
  135SOL    HW2  539   2.975   1.054   2.880 -1.0403  0.9676  0.2468
  135SOL     MW  540   3.044   0.997   2.900 -0.3800  0.0490  0.6763
  136SOL     OW  541   0.221   2.033   0.886 -0.1751 -0.5710  0.1278
  136SOL    HW1  542   0.151   1.976   0.846  0.5784  1.4068  0.2232
  136SOL    HW2  543   0.301   2.009   0.844 -0.0611 -0.3138  0.0295
  136SOL     MW  544   0.223   2.022   0.875 -0.0607 -0.2761  0.1274
  137SOL     OW  545   0.691   2.067   0.536  0.4213 -0.0347  0.3273
  137SOL    HW1  546   0.692   2.079   0.630  0.9222  0.4562 -1.7132
  137SOL    HW2  547   0.599   2.095   0.508 -0.0194  2.4394  2.8825
  137SOL     MW  548   0.679   2.072   0.545  0.4292  0.3565  0.3952
  138SOL     OW  549   0.431   0.520   1.211 -0.3096  0.8508 -0.0503
  138SOL    HW1  550   0.333   0.529   1.217  1.4795 -1.2725 -2.8094
  138SOL    HW2  551   0.444   0.523   1.119  1.4654 -2.2491  1.5547
  138SOL     MW  552   0.419   0.522   1.200  0.1606  0.1616 -0.2026
  139SOL     OW  553   2.799   0.573   1.325  0.0980 -0.2140  0.6312
  139SOL    HW1  554   2.863   0.495   1.321  1.8264  0.6209 -0.3237
  139SOL    HW2  555   2.826   0.626   1.402 -0.7732 -0.2588  2.5838
  139SOL     MW  556   2.811   0.569   1.334  0.2111 -0.1098  0.7628
  140SOL     OW  557   0.863   0.481   2.005 -0.1618 -0.0353 -0.0028
  140SOL    HW1  558   0.871   0.388   1.994  0.6758  0.8939 -1.6396
  140SOL    HW2  559   0.855   0.485   2.105 -0.5290  1.4694  0.2640
  140SOL     MW  560   0.863   0.470   2.017 -0.0997  0.2858 -0.1836
  141SOL     OW  561   0.995   0.649   1.665 -0.0346  0.0524 -0.0486
  141SOL    HW1  562   1.055   0.583   1.642 -0.8987  1.1706 -1.1797
  141SOL    HW2  563   1.049   0.729   1.673  0.8957  0.6309 -1.2815
  141SOL     MW  564   1.010   0.651   1.663 -0.0259  0.2763 -0.3605
  142SOL     OW  565   0.852   1.191   0.738  0.3970  0.5719 -0.4162
  142SOL    HW1  566   0.844   1.120   0.671 -0.9135  1.4406 -2.2819
  142SOL    HW2  567   0.947   1.203   0.747 -1.0504  2.0068  1.9250
  142SOL     MW  568   0.863   1.183   0.730  0.0331  0.8758 -0.3534
  143SOL     OW  569   1.834   0.691   1.074  0.9562  0.0887 -0.5862
  143SOL    HW1  570   1.895   0.661   1.005  0.4276 -2.9547 -0.3483
  143SOL    HW2  571   1.756   0.696   1.017  2.4590 -4.7869 -1.4098
  143SOL     MW  572   1.831   0.688   1.057  1.0847 -0.9561 -0.6635
  144SOL     OW  573   0.278   1.342   1.712 -0.1625 -0.7326  0.1799
  144SOL    HW1  574   0.368   1.383   1.688 -0.5591 -1.2053  0.6609
  144SOL    HW2  575   0.293   1.293   1.791  2.2433  2.2389 -1.1272
  144SOL     MW  576   0.292   1.341   1.719  0.1026 -0.4029  0.0709
  145SOL     OW  577   0.155   0.447   1.236  0.5663 -0.3346  0.4974
  145SOL    HW1  578   0.214   0.367   1.225 -1.8995 -0.2184 -1.5714
  145SOL    HW2  579   0.111   0.458   1.149 -0.0371  0.2731  2.6872
  145SOL     MW  580   0.157   0.438   1.223  0.1613 -0.2391  0.5134
  146SOL     OW  581   0.888   1.892   1.357 -0.4089 -0.2983 -0.3091
  146SOL    HW1  582   0.911   1.936   1.275 -2.3074  0.3926 -1.8325
  146SOL    HW2  583   0.807   1.842   1.343 -0.3277  0.2446  2.5810
  146SOL     MW  584   0.881   1.892   1.345 -0.6486 -0.1355 -0.1287
  147SOL     OW  585   0.430   0.505   2.936 -0.1555 -0.3131 -0.4578
  147SOL    HW1  586   0.369   0.525   3.010  0.0570 -0.2959 -0.6830
  147SOL    HW2  587   0.406   0.581   2.879 -0.3930  0.4768  0.5798
  147SOL     MW  588   0.419   0.518   2.938 -0.1588 -0.2066 -0.3506
  148SOL     OW  589   0.032   0.928   1.269  0.3801 -0.2628 -0.5425
  148SOL    HW1  590   0.124   0.933   1.295 -0.8953  0.1451 -0.7749
  148SOL    HW2  591  -0.027   0.993   1.312  2.7276  1.7006  0.4168
  148SOL     MW  592   0.037   0.938   1.278  0.5215  0.0501 -0.4466
  149SOL     OW  593   1.576   1.170   1.469  0.2526  0.0553 -0.3827
  149SOL    HW1  594   1.493   1.135   1.512  0.3626  0.5261 -2.9910
  149SOL    HW2  595   1.544   1.254   1.439  1.1926 -0.9164 -0.6309
  149SOL     MW  596   1.561   1.176   1.471  0.3911 -0.0108 -0.7596
  150SOL     OW  597   1.734   1.370   0.886  0.1430  0.5194  0.2382
  150SOL    HW1  598   1.793   1.319   0.831 -1.8272  0.0793 -3.0050
  150SOL    HW2  599   1.782   1.452   0.912  0.5835  2.0172  2.1660
  150SOL     MW  600   1.748   1.374   0.882 -0.0589  0.6589  0.0647
  151SOL     OW  601   1.686   1.829   0.808 -0.1591 -0.0913  0.4873
  151SOL    HW1  602   1.664   1.841   0.715  0.2868 -0.6287 -0.7606
  151SOL    HW2  603   1.609   1.832   0.858 -0.7396 -1.5382  0.2729
  151SOL     MW  604   1.673   1.831   0.802 -0.1768 -0.3531  0.2944
  152SOL     OW  605   0.763   1.447   1.631 -0.4002 -0.0738 -0.2392
  152SOL    HW1  606   0.748   1.502   1.548  0.4066  2.4313  0.7093
  152SOL    HW2  607   0.742   1.361   1.608 -0.1793 -0.2591  0.9937
  152SOL     MW  608   0.758   1.443   1.617 -0.2646  0.2322  0.0486
  153SOL     OW  609   2.551   1.205   0.756  0.2222 -0.2899 -0.4414
  153SOL    HW1  610   2.613   1.171   0.691 -1.1209 -0.7017 -1.3108
  153SOL    HW2  611   2.486   1.132   0.773  2.5813  0.5746  1.6959
  153SOL     MW  612   2.551   1.191   0.750  0.3563 -0.2302 -0.2741
  154SOL     OW  613   0.105   1.759   1.764 -0.1143 -0.0393  0.6916
  154SOL    HW1  614   0.066   1.684   1.731  1.9039  2.9119  1.1372
  154SOL    HW2  615   0.200   1.747   1.769 -3.3654  1.8715  0.6709
  154SOL     MW  616   0.112   1.747   1.760 -0.2770  0.6022  0.7477
  155SOL     OW  617   1.186   0.742   0.320  0.4855  0.4192 -0.2524
  155SOL    HW1  618   1.148   0.720   0.409 -1.5526  1.5678  1.3358
  155SOL    HW2  619   1.207   0.833   0.327  0.3694  0.5332  0.3258
  155SOL     MW  620   1.184   0.751   0.333  0.2013  0.5858  0.0334
  156SOL     OW  621   1.556   3.045   1.115  0.3977  0.4431 -0.0529
  156SOL    HW1  622   1.636   3.095   1.124 -1.4999  1.0910 -0.4210
  156SOL    HW2  623   1.592   2.959   1.090 -1.4483 -0.5916  0.6197
  156SOL     MW  624   1.571   3.040   1.113 -0.0962  0.3921 -0.0127
  157SOL     OW  625   1.386   1.155   0.093  0.4654 -0.2417  0.3290
  157SOL    HW1  626   1.408   1.118   0.173  0.4382  0.3453  2.1468
  157SOL    HW2  627   1.442   1.230   0.107 -0.3726 -0.8801 -0.8376
  157SOL     MW  628   1.396   1.160   0.105  0.3513 -0.2484  0.4149
  158SOL     OW  629   0.440   1.702   2.290 -0.1969 -0.0877  0.0348
  158SOL    HW1  630   0.485   1.739   2.215  0.6234  0.2767  2.0232
  158SOL    HW2  631   0.364   1.757   2.297 -0.2267  1.2993 -1.1211
  158SOL     MW  632   0.436   1.714   2.281 -0.0926  0.1433  0.1447
  159SOL     OW  633   1.230   1.604   0.480 -0.5402  0.0542  0.1779
  159SOL    HW1  634   1.173   1.584   0.403 -1.2304 -0.3448 -0.3390
  159SOL    HW2  635   1.179   1.673   0.530 -1.9632 -2.0849  1.8142
  159SOL     MW  636   1.216   1.610   0.476 -0.8190 -0.2807  0.3256
  160SOL     OW  637   0.518   1.250   1.543  0.3784 -0.1507  0.2600
  160SOL    HW1  638   0.455   1.180   1.560  0.5572 -2.9225 -0.2557
  160SOL    HW2  639   0.608   1.212   1.547 -0.3942  0.5560  0.5952
  160SOL     MW  640   0.522   1.236   1.545  0.3000 -0.4232  0.2362
  161SOL     OW  641   0.458   2.228   2.573  0.1731  0.4936  0.2734
  161SOL    HW1  642   0.366   2.247   2.549 -3.1658  3.1647 -2.8753
  161SOL    HW2  643   0.486   2.142   2.526  2.1661 -0.2297 -1.7161
  161SOL     MW  644   0.450   2.219   2.564 -0.0045  0.7506 -0.4046
  162SOL     OW  645   1.070   1.837   1.823  0.2025  0.0435 -0.3506
  162SOL    HW1  646   1.068   1.930   1.826  0.7648  0.6357 -1.6294
  162SOL    HW2  647   0.981   1.812   1.843  1.1632 -0.0720 -0.1295
  162SOL     MW  648   1.058   1.846   1.826  0.4034  0.1064 -0.4901
  163SOL     OW  649   2.091   3.068   0.878  0.4743  0.1944 -0.5742
  163SOL    HW1  650   2.073   3.137   0.806  0.2106  0.4980  0.9204
  163SOL    HW2  651   2.039   2.993   0.849  1.5367 -1.0129 -0.3345
  163SOL     MW  652   2.082   3.067   0.865  0.5797  0.0752 -0.3454
  164SOL     OW  653   0.307   0.205   0.794 -0.2700 -0.1322 -0.4626
  164SOL    HW1  654   0.215   0.210   0.823 -2.4024 -0.9661  0.8878
  164SOL    HW2  655   0.327   0.125   0.751 -0.1457  0.8692  1.0541
  164SOL     MW  656   0.297   0.195   0.792 -0.5350 -0.1101 -0.0843
  165SOL     OW  657   1.193   1.324   0.335 -0.4020  0.1036 -0.4832
  165SOL    HW1  658   1.216   1.312   0.426  1.2742  1.6180  1.6848
  165SOL    HW2  659   1.235   1.249   0.288  2.8642 -0.7430  0.0599
  165SOL     MW  660   1.201   1.312   0.341  0.2501  0.1917 -0.1255
  166SOL     OW  661   0.532   1.129   1.007  0.1202  0.5125 -0.0640
  166SOL    HW1  662   0.523   1.173   1.089 -0.3888  0.8044 -3.0273
  166SOL    HW2  663   0.634   1.126   1.000 -0.6983 -0.0692  0.0104
  166SOL     MW  664   0.545   1.134   1.017 -0.0550  0.4743 -0.4451
  167SOL     OW  665   0.801   1.125   0.248 -0.0039  0.6168 -0.0374
  167SOL    HW1  666   0.813   1.222   0.266 -1.4368 -1.4992 -1.6235
  167SOL    HW2  667   0.884   1.090   0.211  0.8948  0.7055 -0.6073
  167SOL     MW  668   0.813   1.133   0.245 -0.0744  0.3493 -0.3219
  168SOL     OW  669   1.768   1.674   3.044  0.0192 -0.2592  0.1056
  168SOL    HW1  670   1.693   1.731   3.019 -1.1069  2.5562  0.7419
  168SOL    HW2  671   1.755   1.588   2.996 -0.4623 -0.5251 -2.0947
  168SOL     MW  672   1.756   1.670   3.034 -0.1929  0.0771 -0.1008
  169SOL     OW  673   0.287   0.946   1.348  0.2628 -0.1045  0.0927
  169SOL    HW1  674   0.344   0.921   1.424  0.9375 -2.4391  2.7200
  169SOL    HW2  675   0.293   1.043   1.351 -0.3955  0.8684  0.8521
  169SOL     MW  676   0.296   0.956   1.358  0.2650 -0.2842  0.5395
  170SOL     OW  677   1.179   1.495   1.446  0.4626  0.2040 -0.2651
  170SOL    HW1  678   1.127   1.568   1.461  1.0904 -2.4627 -1.1558
  170SOL    HW2  679   1.167   1.469   1.358  0.3102 -2.1373  2.7113
  170SOL     MW  680   1.170   1.501   1.437  0.5253 -0.4568  0.0101
  171SOL     OW  681   0.503   1.423   0.524  0.6356  0.3043 -0.6494
  171SOL    HW1  682   0.408   1.412   0.558 -0.6806  2.1352 -1.1366
  171SOL    HW2  683   0.523   1.347   0.467  3.1917 -1.0800 -0.1151
  171SOL     MW  684   0.493   1.412   0.521  0.7992  0.3632 -0.6432
  172SOL     OW  685   0.817   0.271   1.237 -0.5792 -0.8396 -0.1387
  172SOL    HW1  686   0.767   0.226   1.174 -2.3483 -0.9438 -0.6639
  172SOL    HW2  687   0.830   0.207   1.309 -3.0479 -2.4199  1.3620
  172SOL     MW  688   0.812   0.257   1.239 -1.1383 -1.0618 -0.0100
  173SOL     OW  689   0.530   1.773   0.294 -0.2552 -0.2734 -0.2289
  173SOL    HW1  690   0.539   1.679   0.264  0.1747  1.4926 -0.4801
  173SOL    HW2  691   0.522   1.761   0.389  0.0941 -1.3776 -1.6906
  173SOL     MW  692   0.530   1.759   0.303 -0.1524 -0.1861 -0.4549
  174SOL     OW  693   1.846   0.885   1.483 -0.3751 -0.4201 -0.2085
  174SOL    HW1  694   1.800   0.804   1.514  1.3906 -2.0350 -0.3450
  174SOL    HW2  695   1.823   0.886   1.387  1.1196 -2.1743 -0.4529
  174SOL     MW  696   1.837   0.875   1.474  0.0551 -0.8646 -0.2588
  175SOL     OW  697   0.566   1.533   0.185  0.2938  0.3074 -0.3996
  175SOL    HW1  698   0.508   1.452   0.183 -0.5829 -0.5906 -2.4605
  175SOL    HW2  699   0.640   1.500   0.239 -1.8807 -0.3525 -4.3058
  175SOL     MW  700   0.568   1.518   0.192 -0.1088  0.1019 -1.1869
  176SOL     OW  701   0.160   1.462   1.178  0.0333  0.1306 -0.2162
  176SOL    HW1  702   0.147   1.433   1.081  2.4325 -0.5789 -3.5561
  176SOL    HW2  703   0.079   1.428   1.224  0.1276 -0.3556  0.4827
  176SOL     MW  704   0.147   1.453   1.171  0.3623 -0.0272 -0.5646
  177SOL     OW  705   0.518   0.316   1.449 -0.3765  0.0231 -0.0500
  177SOL    HW1  706   0.579   0.344   1.378 -1.6886 -0.2526 -0.6316
  177SOL    HW2  707   0.516   0.391   1.508 -2.7002  0.0257 -1.9462
  177SOL     MW  708   0.526   0.330   1.447 -0.8562 -0.0129 -0.3769
  178SOL     OW  709   3.099   0.497   2.996  0.4714 -0.4427 -0.0247
  178SOL    HW1  710   3.044   0.496   3.078 -1.6026 -1.6414 -3.4628
  178SOL    HW2  711   3.039   0.486   2.919 -0.0687 -0.6606  0.4394
  178SOL     MW  712   3.084   0.495   2.997  0.1265 -0.6296 -0.4171
  179SOL     OW  713   1.547   1.427   1.384 -0.1197  0.1500  0.1896
  179SOL    HW1  714   1.558   1.439   1.478  0.0501 -1.3593  0.9768
  179SOL    HW2  715   1.637   1.400   1.369 -2.2363  0.9950  1.2193
  179SOL     MW  716   1.561   1.425   1.395 -0.3766  0.0623  0.4293
  180SOL     OW  717   3.001   0.280   0.502  0.1173 -0.1498 -0.4017
  180SOL    HW1  718   2.985   0.253   0.409 -0.2042  0.6892  1.3949
  180SOL    HW2  719   3.019   0.376   0.495  1.8308  0.4775  0.0538
  180SOL     MW  720   3.001   0.289   0.489  0.3010  0.0437 -0.1046
  181SOL     OW  721   1.143   1.291   3.078 -0.2846 -0.2046 -0.0793
  181SOL    HW1  722   1.210   1.340   3.124 -0.4059 -0.0211  0.8565
  181SOL    HW2  723   1.206   1.227   3.037 -0.1565  0.1117  3.8032
  181SOL     MW  724   1.160   1.289   3.078 -0.2837 -0.1386  0.5564
  182SOL     OW  725   0.379   0.996   1.617  0.2167 -0.2133  0.0928
  182SOL    HW1  726   0.297   0.974   1.666 -2.1165 -1.0058  0.4508
  182SOL    HW2  727   0.450   0.970   1.675 -0.4665  0.5598 -0.6286
  182SOL     MW  728   0.377   0.989   1.631 -0.1813 -0.2159  0.0449
  183SOL     OW  729   1.526   1.731   1.281  0.1091 -0.3064 -0.0541
  183SOL    HW1  730   1.618   1.725   1.295  0.3784  1.8417 -0.7110
  183SOL    HW2  731   1.501   1.654   1.326  1.2995 -0.5314 -1.8631
  183SOL     MW  732   1.535   1.720   1.289  0.3017 -0.0527 -0.3794
  184SOL     OW  733   0.791   0.708   1.859  0.3010  0.1049 -0.6882
  184SOL    HW1  734   0.870   0.700   1.802 -1.1258  0.1821 -1.0939
  184SOL    HW2  735   0.790   0.622   1.902 -0.4322 -1.6499 -0.0952
  184SOL     MW  736   0.802   0.696   1.857  0.0160 -0.1165 -0.6635
  185SOL     OW  737   1.065   0.938   1.880 -0.1994 -0.0739 -0.3401
  185SOL    HW1  738   1.086   0.851   1.908  0.8471  0.4508 -1.1171
  185SOL    HW2  739   1.114   1.001   1.930 -2.5386  1.8423  0.2595
  185SOL     MW  740   1.074   0.934   1.890 -0.3700  0.2481 -0.3635
  186SOL     OW  741   0.308   1.645   1.470  0.3141  0.0121 -0.2451
  186SOL    HW1  742   0.344   1.586   1.402 -0.0448  1.5951  0.3085
  186SOL    HW2  743   0.222   1.595   1.486 -0.8265  3.0674  1.9127
  186SOL     MW  744   0.302   1.631   1.463  0.1162  0.6241  0.1127
  187SOL     OW  745   1.503   0.749   1.373 -0.5775  0.3848  0.2414
  187SOL    HW1  746   1.547   0.701   1.441 -0.3781  2.5320  1.2231
  187SOL    HW2  747   1.411   0.718   1.383  0.2175 -2.8471  0.3996
  187SOL     MW  748   1.496   0.739   1.383 -0.4463  0.2417  0.3918
  188SOL     OW  749   1.955   1.214   0.817  0.4106  0.3370  0.0516
  188SOL    HW1  750   1.940   1.181   0.913  0.0087  1.3136  1.2655
  188SOL    HW2  751   1.978   1.138   0.768 -2.2200  1.5667  0.9200
  188SOL     MW  752   1.956   1.200   0.823  0.0105  0.6281  0.3264
  189SOL     OW  753   0.696   0.759   0.833  0.4681 -0.2646 -0.1534
  189SOL    HW1  754   0.621   0.813   0.848 -2.7598  0.2726 -1.1975
  189SOL    HW2  755   0.736   0.751   0.916 -1.4047 -1.0211  0.4757
  189SOL     MW  756   0.692   0.765   0.846 -0.2049 -0.2935 -0.2082
  190SOL     OW  757   1.869   0.327   2.124  0.9565 -0.3802 -0.3374
  190SOL    HW1  758   1.881   0.255   2.186 -2.1656 -2.0799 -0.4011
  190SOL    HW2  759   1.954   0.373   2.122 -1.7960 -0.5144 -2.4032
  190SOL     MW  760   1.882   0.323   2.132  0.1814 -0.6222 -0.6183
  191SOL     OW  761   1.523   1.014   1.257  0.0988  0.2829  0.5871
  191SOL    HW1  762   1.549   1.066   1.333  1.0108  0.1582 -0.8749
  191SOL    HW2  763   1.496   0.931   1.298 -2.5071  0.1735 -0.1572
  191SOL     MW  764   1.523   1.010   1.272 -0.1247  0.2520  0.2960
  192SOL     OW  765   0.542   2.134   2.869  0.0382  0.4230  0.5491
  192SOL    HW1  766   0.476   2.167   2.805  1.0818  1.2523  0.6739
  192SOL    HW2  767   0.552   2.041   2.852 -1.8789  2.2532 -1.8289
  192SOL     MW  768   0.535   2.126   2.859 -0.0771  0.7739  0.2518
  193SOL     OW  769   0.877   1.602   0.792  0.1081 -0.1811  0.6118
  193SOL    HW1  770   0.800   1.584   0.836  1.8485 -2.2778  2.0330
  193SOL    HW2  771   0.850   1.542   0.719 -1.0799  0.1136  0.5029
  193SOL     MW  772   0.863   1.592   0.788  0.1810 -0.4189  0.7850
  194SOL     OW  773   0.509   1.324   0.803 -0.5331 -0.9573  0.4137
  194SOL    HW1  774   0.505   1.259   0.873 -1.2699  0.4936  1.9737
  194SOL    HW2  775   0.414   1.338   0.781  0.3425  0.4603  0.5717
  194SOL     MW  776   0.496   1.318   0.809 -0.5148 -0.5788  0.6404
  195SOL     OW  777   1.296   1.117   2.937  0.1770 -0.2187  0.0950
  195SOL    HW1  778   1.353   1.096   3.012  1.2457 -0.7297 -2.7151
  195SOL    HW2  779   1.244   1.037   2.936 -1.9502 -0.6297 -1.9395
  195SOL     MW  780   1.297   1.104   2.947  0.0373 -0.3403 -0.5442
  196SOL     OW  781   2.258   0.969   0.548  0.0368 -0.1640  0.4217
  196SOL    HW1  782   2.311   0.942   0.468  0.6696  0.0855 -1.4458
  196SOL    HW2  783   2.219   1.056   0.533 -0.2638  0.1118  0.6721
  196SOL     MW  784   2.260   0.977   0.535  0.0806 -0.0947  0.2083
  197SOL     OW  785   0.591   1.269   2.224 -0.3073  0.0692 -0.2809
  197SOL    HW1  786   0.609   1.205   2.154  0.9018  2.4862 -0.7976
  197SOL    HW2  787   0.633   1.353   2.208 -3.6537  0.5638  0.9011
  197SOL     MW  788   0.599   1.272   2.213 -0.5893  0.4534 -0.1931
  198SOL     OW  789   2.934   1.447   1.015  0.1418 -0.1954  0.4820
  198SOL    HW1  790   2.906   1.535   0.995 -1.2469 -0.4169  2.4440
  198SOL    HW2  791   2.861   1.384   0.986  0.0117 -1.3803 -2.1848
  198SOL     MW  792   2.921   1.450   1.009 -0.0586 -0.3810  0.3890
  199SOL     OW  793   0.742   1.321   1.864  0.4346 -0.2682 -0.3754
  199SOL    HW1  794   0.648   1.305   1.871  0.3541  1.9552 -1.7338
  199SOL    HW2  795   0.764   1.373   1.783  0.7550 -0.5476 -0.5541
  199SOL     MW  796   0.732   1.326   1.854  0.4663 -0.0117 -0.5782
  200SOL     OW  797   1.838   2.925   1.381 -0.4528  0.5541 -0.2010
  200SOL    HW1  798   1.880   2.928   1.297 -1.5456 -2.4502 -2.4511
  200SOL    HW2  799   1.784   3.004   1.379  1.9099 -4.6257  0.5966
  200SOL     MW  800   1.836   2.936   1.369 -0.2853 -0.5257 -0.3927
  201SOL     OW  801   1.075   0.329   0.730  0.5940 -0.1670  0.1032
  201SOL    HW1  802   1.066   0.234   0.728 -0.1658  0.2891  0.3354
  201SOL    HW2  803   1.161   0.332   0.782  1.6347  0.0720  0.2837
  201SOL     MW  804   1.086   0.317   0.737  0.6311 -0.0753  0.1577
  202SOL     OW  805   1.474   1.797   0.980  0.2470 -0.0221  0.3194
  202SOL    HW1  806   1.478   1.701   0.968 -1.1187 -0.4076 -0.4362
  202SOL    HW2  807   1.469   1.811   1.078 -0.1923 -0.9154 -1.2121
  202SOL     MW  808   1.474   1.786   0.991  0.0088 -0.1908  0.0176
  203SOL     OW  809   2.985   0.372   1.413 -0.2308  0.1166 -1.3829
  203SOL    HW1  810   3.049   0.319   1.355  1.5472 -3.1310  2.1822
  203SOL    HW2  811   3.025   0.382   1.498  0.9631 -3.0111 -0.3313
  203SOL     MW  812   2.999   0.366   1.416  0.1613 -0.7246 -0.7738
  204SOL     OW  813   1.044   1.798   0.630  0.1366 -0.3231 -0.0773
  204SOL    HW1  814   0.990   1.732   0.675  1.7455  0.7608  0.4227
  204SOL    HW2  815   0.992   1.826   0.554  1.2682 -1.8272 -1.2127
  204SOL     MW  816   1.030   1.793   0.626  0.4982 -0.3786 -0.1611
  205SOL     OW  817   1.354   3.033   1.336 -0.5145 -0.3126 -0.1171
  205SOL    HW1  818   1.401   3.057   1.257 -2.6093  0.3134  0.3390
  205SOL    HW2  819   1.292   3.106   1.353  0.6090  1.2416  1.8805
  205SOL     MW  820   1.352   3.046   1.328 -0.6426 -0.0249  0.2067
  206SOL     OW  821   0.445   3.066   1.352 -0.7094 -0.1888  0.3317
  206SOL    HW1  822   0.409   3.018   1.277 -0.8287 -1.3815  0.9832
  206SOL    HW2  823   0.527   3.022   1.367  0.0036  0.2011 -1.0451
  206SOL     MW  824   0.451   3.054   1.344 -0.6311 -0.2947  0.2360
  207SOL     OW  825   0.874   1.712   0.180  0.0594  0.3013 -0.5424
  207SOL    HW1  826   0.919   1.792   0.173  0.3988 -1.1176 -0.4587
  207SOL    HW2  827   0.948   1.656   0.193 -1.0717 -0.7558  1.4569
  207SOL     MW  828   0.890   1.715   0.181 -0.0451 -0.0254 -0.2676
  208SOL     OW  829   0.734   1.595   1.417  0.5954 -0.1990  0.0422
  208SOL    HW1  830   0.814   1.643   1.439 -1.3781 -1.0328 -3.1292
  208SOL    HW2  831   0.736   1.559   1.322  0.9424 -2.0360 -1.3687
  208SOL     MW  832   0.745   1.597   1.408  0.3808 -0.5513 -0.5624
  209SOL     OW  833   1.522   0.517   2.836 -0.2011  0.0151  0.5060
  209SOL    HW1  834   1.581   0.591   2.869  1.3579  1.5029  1.2306
  209SOL    HW2  835   1.583   0.443   2.831  0.6348 -0.2473 -0.6712
  209SOL     MW  836   1.538   0.517   2.840  0.1149  0.1768  0.4463
  210SOL     OW  837   1.465   1.499   0.926  0.4857  0.5742  0.7314
  210SOL    HW1  838   1.557   1.468   0.929 -0.9954  0.3938  1.4892
  210SOL    HW2  839   1.428   1.469   0.841  1.0443 -0.2306 -1.7841
  210SOL     MW  840   1.473   1.491   0.915  0.3640  0.4442  0.4995
  211SOL     OW  841   1.723   0.299   0.989 -0.0780  0.0566 -0.2665
  211SOL    HW1  842   1.732   0.332   0.902  1.5350  1.4851  1.6351
  211SOL    HW2  843   1.810   0.304   1.024  1.8272 -1.7194 -1.1260
  211SOL     MW  844   1.735   0.304   0.982  0.3862  0.0108 -0.1290
  212SOL     OW  845   0.303   1.095   0.216  0.1948  0.3812  0.5753
  212SOL    HW1  846   0.240   1.040   0.265 -0.4488 -0.7889  0.9212
  212SOL    HW2  847   0.341   1.033   0.146  1.6377  0.2438  0.7401
  212SOL     MW  848   0.300   1.080   0.214  0.3003  0.2087  0.6427
  213SOL     OW  849   0.401   1.803   3.011 -0.4249  0.1088  0.1842
  213SOL    HW1  850   0.438   1.861   3.073  0.3828  1.8181  0.3155
  213SOL    HW2  851   0.453   1.826   2.930 -1.9159  0.7939  1.4914
  213SOL     MW  852   0.413   1.813   3.009 -0.5150  0.4248  0.3740
  214SOL     OW  853   0.629   0.316   2.131  0.3035  0.1227 -0.0377
  214SOL    HW1  854   0.567   0.384   2.138  3.0026 -0.0345  0.5092
  214SOL    HW2  855   0.628   0.320   2.032  0.9852  3.3458 -0.2125
  214SOL     MW  856   0.620   0.326   2.119  0.7496  0.5272  0.0114
  215SOL     OW  857   0.497   0.588   2.571  0.2590 -0.9593 -0.2146
  215SOL    HW1  858   0.472   0.628   2.488 -2.4977  0.6772 -1.4093
  215SOL    HW2  859   0.418   0.592   2.633  0.6141  3.3304  0.4306
  215SOL     MW  860   0.483   0.593   2.568 -0.0579 -0.1774 -0.2871
  216SOL     OW  861   2.975   3.050   2.707 -0.0280  0.0240 -0.0874
  216SOL    HW1  862   2.911   3.039   2.781  1.4174 -1.7311  2.2998
  216SOL    HW2  863   2.974   3.150   2.701 -1.3486  2.9209  0.1894
  216SOL     MW  864   2.966   3.062   2.716 -0.0115  0.1747  0.2641
  217SOL     OW  865   1.037   1.065   0.127 -0.5715  0.1540  0.4031
  217SOL    HW1  866   1.058   1.008   0.044  0.4402 -1.1949  1.2798
  217SOL    HW2  867   1.058   1.153   0.099 -0.7290  0.8205  1.5524
  217SOL     MW  868   1.043   1.069   0.112 -0.4588  0.0640  0.6704
  218SOL     OW  869   0.877   1.370   2.692 -0.4663  0.6669 -0.2390
  218SOL    HW1  870   0.899   1.303   2.756 -1.8111  0.7954  2.7103
  218SOL    HW2  871   0.961   1.414   2.677  1.7956  0.2336  1.7632
  218SOL     MW  872   0.891   1.367   2.698 -0.3453  0.6267  0.4143
  219SOL     OW  873   1.051   0.382   2.631 -0.0434  0.7020 -0.1341
  219SOL    HW1  874   1.117   0.440   2.675 -1.1714 -1.8249 -1.4593
  219SOL    HW2  875   0.981   0.443   2.615 -0.3889  1.2189 -2.9595
  219SOL     MW  876   1.050   0.398   2.634 -0.2378  0.4368 -0.6818
  220SOL     OW  877   1.689   0.513   2.226  0.6313  0.8764 -0.1457
  220SOL    HW1  878   1.610   0.520   2.165 -1.7171  1.3688 -0.5841
  220SOL    HW2  879   1.750   0.443   2.196 -0.0318 -1.6246 -2.6107
  220SOL     MW  880   1.686   0.505   2.214  0.2340  0.6114 -0.5288
  221SOL     OW  881   0.347   1.288   2.909  0.2669  0.5192 -0.0215
  221SOL    HW1  882   0.430   1.233   2.908 -0.5523 -0.0186  0.6260
  221SOL    HW2  883   0.360   1.348   2.837  1.5651 -2.2944  1.9955
  221SOL     MW  884   0.360   1.289   2.900  0.3301  0.0770  0.3300
  222SOL     OW  885   0.510   0.930   2.687 -0.0515  0.6776 -0.2280
  222SOL    HW1  886   0.420   0.947   2.676 -1.6276 -0.2781  1.1617
  222SOL    HW2  887   0.505   0.841   2.725  1.1438  1.7225 -1.0035
  222SOL     MW  888   0.498   0.921   2.691 -0.1017  0.6894 -0.1470
  223SOL     OW  889   0.001   2.015   2.571 -0.0563  0.4928 -0.0113
  223SOL    HW1  890  -0.040   1.994   2.654 -0.4613  1.6495  1.5161
  223SOL    HW2  891   0.028   2.109   2.566 -2.6059 -1.4256  0.6283
  223SOL     MW  892  -0.001   2.025   2.581 -0.4462  0.3923  0.2746
  224SOL     OW  893   1.453   0.731   2.498 -0.2679 -0.7586 -0.7247
  224SOL    HW1  894   1.446   0.745   2.589 -0.0258  1.2575 -2.3393
  224SOL    HW2  895   1.462   0.820   2.460  0.6490  3.1555  1.0618
  224SOL     MW  896   1.453   0.744   2.505 -0.1150  0.0238 -0.7021
  225SOL     OW  897   2.952   1.433   2.294  0.2841 -0.1119 -0.6470
  225SOL    HW1  898   2.996   1.491   2.233 -0.7962 -0.2038  0.3791
  225SOL    HW2  899   2.921   1.499   2.353  1.1112  2.3314 -1.8633
  225SOL     MW  900   2.954   1.450   2.294  0.2507  0.1984 -0.6721
  226SOL     OW  901   0.401   1.507   2.731  0.0936  0.2133 -0.8029
  226SOL    HW1  902   0.451   1.512   2.812 -2.0401  0.2855 -0.0588
  226SOL    HW2  903   0.406   1.603   2.706  0.5833  1.4456 -0.6621
  226SOL     MW  904   0.409   1.520   2.738 -0.1233  0.3854 -0.6861
  227SOL     OW  905   0.570   1.141   2.893  0.1660 -0.1598  0.3841
  227SOL    HW1  906   0.653   1.173   2.854  1.0230  0.1441  2.7254
  227SOL    HW2  907   0.553   1.065   2.843  1.2123  1.0813  0.2631
  227SOL     MW  908   0.578   1.135   2.881  0.4171  0.0441  0.6770
  228SOL     OW  909   0.755   1.135   2.047 -0.0550  0.4477 -0.6580
  228SOL    HW1  910   0.776   1.199   1.978 -0.9701  0.1242  1.1661
  228SOL    HW2  911   0.818   1.148   2.121  0.6968  1.6098 -0.6283
  228SOL     MW  912   0.766   1.145   2.048 -0.0766  0.5584 -0.4134
  229SOL     OW  913   0.243   0.606   0.006  0.1838 -0.0701 -0.1817
  229SOL    HW1  914   0.152   0.590  -0.034 -2.4061 -1.0537 -2.9828
  229SOL    HW2  915   0.235   0.552   0.085 -0.4700 -0.5459 -1.2013
  229SOL     MW  916   0.230   0.596   0.011 -0.2442 -0.2627 -0.6858
  230SOL     OW  917   1.805   1.354   1.978  0.0708  0.1204 -0.5679
  230SOL    HW1  918   1.788   1.299   2.055 -2.3768 -1.2848  1.8249
  230SOL    HW2  919   1.897   1.331   1.963  2.9315 -0.1519 -0.5307
  230SOL     MW  920   1.815   1.344   1.987  0.1253 -0.1009 -0.2473
  231SOL     OW  921   2.731   1.279   2.208  0.2035  0.6998 -0.0140
  231SOL    HW1  922   2.810   1.326   2.243 -1.0284 -1.7241  0.4017
  231SOL    HW2  923   2.694   1.336   2.140 -0.6857 -1.3409  0.5782
  231SOL     MW  924   2.737   1.293   2.204 -0.0764  0.1107  0.1190
  232SOL     OW  925   2.288   0.801   1.980  0.1251  0.5456 -0.3503
  232SOL    HW1  926   2.232   0.841   1.912  1.2444  0.9295  0.8391
  232SOL    HW2  927   2.231   0.826   2.054 -1.8496  0.2007 -0.6005
  232SOL     MW  928   2.273   0.809   1.981  0.0122  0.5508 -0.2264
  233SOL     OW  929   2.101   0.464   2.082  0.3114 -0.2618  0.1266
  233SOL    HW1  930   2.174   0.404   2.059 -0.4611 -1.5526 -2.3882
  233SOL    HW2  931   2.138   0.520   2.145  2.3726 -1.3211  2.6003
  233SOL     MW  932   2.116   0.463   2.087  0.4814 -0.5719  0.1212
  234SOL     OW  933   0.258   1.038   2.608  0.0781 -0.2871 -0.2323
  234SOL    HW1  934   0.203   1.023   2.530 -0.2875 -0.5809 -1.5114
  234SOL    HW2  935   0.289   1.127   2.597 -0.4129 -1.0396  0.8328
  234SOL     MW  936   0.255   1.048   2.596 -0.0350 -0.4251 -0.2605
  235SOL     OW  937   1.013   3.035   2.805  0.2871 -0.2228  0.3383
  235SOL    HW1  938   1.076   2.979   2.855  0.5796  0.1567 -2.7927
  235SOL    HW2  939   1.025   3.131   2.826  2.5506 -0.1819  1.1578
  235SOL     MW  940   1.023   3.041   2.814  0.6243 -0.1673  0.0333
  236SOL     OW  941   2.931   0.591   0.140 -0.2951  0.4174  0.4798
  236SOL    HW1  942   2.952   0.616   0.228  0.1433 -0.2663  1.7356
  236SOL    HW2  943   2.980   0.660   0.093  1.5493 -0.7000 -1.5636
  236SOL     MW  944   2.940   0.603   0.146  0.0061  0.1798  0.3759
  237SOL     OW  945   1.961   1.053   2.174  0.5856 -0.6034 -0.2821
  237SOL    HW1  946   1.899   1.064   2.099 -1.7680  0.2946  0.2423
  237SOL    HW2  947   2.008   0.968   2.161 -3.0447  0.7362  1.0567
  237SOL     MW  948   1.959   1.043   2.162 -0.2040 -0.3082 -0.0362
  238SOL     OW  949   1.085   1.758   2.962  0.1091 -0.2565 -0.0620
  238SOL    HW1  950   1.005   1.714   2.937 -2.5390  1.0744  2.2173
  238SOL    HW2  951   1.168   1.712   2.936 -0.3020 -3.0837 -1.2359
  238SOL     MW  952   1.086   1.746   2.955 -0.2945 -0.4539  0.0839
  239SOL     OW  953   1.176   1.290   2.276 -0.1709 -0.3678 -0.0235
  239SOL    HW1  954   1.087   1.271   2.251 -1.2566  1.2296  0.3834
  239SOL    HW2  955   1.192   1.247   2.362 -2.3992 -0.3257 -1.5181
  239SOL     MW  956   1.166   1.282   2.284 -0.6081 -0.1515 -0.1670
  240SOL     OW  957   0.605   0.875   2.210  0.3522 -0.2572 -0.4790
  240SOL    HW1  958   0.635   0.898   2.307  0.6356 -2.3109  0.8929
  240SOL    HW2  959   0.671   0.815   2.177  0.3740 -2.3280  0.8056
  240SOL     MW  960   0.618   0.870   2.219  0.3924 -0.8014 -0.1285
  241SOL     OW  961   0.682   0.477   3.054  0.1622 -0.4073 -0.4832
  241SOL    HW1  962   0.699   0.545   3.124 -0.8472 -0.9897  0.9375
  241SOL    HW2  963   0.597   0.492   3.021  1.2453  0.0303  0.2677
  241SOL     MW  964   0.673   0.488   3.059  0.1719 -0.4264 -0.1967
  242SOL     OW  965   1.506   1.685   2.270 -0.1545 -0.2298  0.2081
  242SOL    HW1  966   1.448   1.756   2.282  0.7550 -2.3245  0.0957
  242SOL    HW2  967   1.457   1.610   2.229  1.3290  0.1092  2.8727
  242SOL     MW  968   1.492   1.684   2.266  0.1612 -0.4615  0.5448
  243SOL     OW  969   0.990   0.318   2.357 -0.0704  0.7119 -0.0903
  243SOL    HW1  970   1.070   0.287   2.320 -0.3613  3.4912  1.6739
  243SOL    HW2  971   1.018   0.371   2.437  1.0167  1.5932  2.5854
  243SOL     MW  972   1.004   0.321   2.362  0.0346  1.1949  0.4955
  244SOL     OW  973   0.145   0.780   2.371  0.1799 -0.3117 -0.1613
  244SOL    HW1  974   0.123   0.870   2.374  2.0904 -3.0867  2.5351
  244SOL    HW2  975   0.240   0.767   2.354  0.6198 -1.4427  1.2714
  244SOL     MW  976   0.154   0.790   2.369  0.4900 -0.8271  0.3835
  245SOL     OW  977   1.257   0.200   2.328  0.7839  0.0793  0.7050
  245SOL    HW1  978   1.333   0.141   2.314  1.3741 -0.9372  1.4550
  245SOL    HW2  979   1.261   0.231   2.422 -3.8570 -0.7180  1.0439
  245SOL     MW  980   1.267   0.196   2.338  0.2494 -0.1600  0.8487
  246SOL     OW  981   1.216   1.118   2.040  0.5380 -0.3155 -0.6049
  246SOL    HW1  982   1.148   1.143   2.096  0.5688 -1.4108 -0.9748
  246SOL    HW2  983   1.290   1.112   2.113 -0.2531 -2.1150  1.0964
  246SOL     MW  984   1.217   1.121   2.057  0.4377 -0.6974 -0.4292
  247SOL     OW  985   0.780   0.650   0.161  0.6015 -0.0175  0.0818
  247SOL    HW1  986   0.742   0.737   0.173 -0.9658  0.7587  2.1021
  247SOL    HW2  987   0.871   0.659   0.127  0.1893  1.5611  4.0543
  247SOL     MW  988   0.787   0.663   0.158  0.3403  0.2932  0.8725
  248SOL     OW  989   0.336   1.292   2.537 -0.2032  0.0243 -0.1306
  248SOL    HW1  990   0.354   1.320   2.449  2.5332  0.5781  2.9931
  248SOL    HW2  991   0.381   1.361   2.591 -0.1138  2.7671 -0.1938
  248SOL     MW  992   0.344   1.305   2.533  0.1697  0.4593  0.2732
  249SOL     OW  993   3.006   1.911   2.839 -0.4701  0.2566 -0.1798
  249SOL    HW1  994   2.957   1.837   2.874  1.0097 -0.4056 -1.3382
  249SOL    HW2  995   3.095   1.886   2.863 -1.2751  0.3229  2.7743
  249SOL     MW  996   3.011   1.898   2.847 -0.3811  0.1780  0.0571
  250SOL     OW  997   2.135   0.853   2.203  0.3310 -0.0786 -0.0830
  250SOL    HW1  998   2.145   0.772   2.252 -1.7790  4.5221  0.5768
  250SOL    HW2  999   2.155   0.919   2.269 -0.3493 -2.8219  1.1428
  250SOL     MW 1000   2.139   0.851   2.219 -0.0372  0.1665  0.1658
  251SOL     OW 1001   0.157   0.893   2.018 -0.0086 -0.0779  0.1963
  251SOL    HW1 1002   0.098   0.817   2.043 -0.5568  0.8792  3.1198
  251SOL    HW2 1003   0.146   0.901   1.923  1.7131  0.7585 -0.2858
  251SOL     MW 1004   0.148   0.884   2.009  0.1462  0.1588  0.5184
  252SOL     OW 1005   1.635   0.974   2.818 -0.2461 -0.7944  0.0782
  252SOL    HW1 1006   1.653   1.037   2.889  1.0872  1.3269 -2.2376
  252SOL    HW2 1007   1.706   0.988   2.756  1.3962  0.1229 -2.1986
  252SOL     MW 1008   1.647   0.984   2.819  0.1465 -0.3935 -0.5277
  253SOL     OW 1009   1.154   1.696   2.444 -0.1116 -0.2582 -0.0720
  253SOL    HW1 1010   1.124   1.653   2.357 -2.3817 -0.4638 -2.7375
  253SOL    HW2 1011   1.075   1.743   2.460  3.1374  1.9807  0.2563
  253SOL     MW 1012   1.139   1.697   2.435  0.0176  0.0101 -0.3803
  254SOL     OW 1013   0.955   1.137   2.241  0.3601  0.0900  0.0572
  254SOL    HW1 1014   0.987   1.050   2.239  0.3826 -1.4470  0.9961
  254SOL    HW2 1015   0.923   1.154   2.330 -0.7195  0.7366 -0.0979
  254SOL     MW 1016   0.955   1.127   2.252  0.2206 -0.0275  0.1606
  255SOL     OW 1017   0.877   2.577   2.178 -0.0702  0.4108  0.5241
  255SOL    HW1 1018   0.800   2.523   2.141 -1.9199 -2.2286 -1.2457
  255SOL    HW2 1019   0.940   2.518   2.209 -1.7014 -0.5477 -1.0852
  255SOL     MW 1020   0.875   2.562   2.178 -0.5295 -0.0639  0.0783
  256SOL     OW 1021   1.219   2.767   2.993  0.4711 -0.3486 -0.0996
  256SOL    HW1 1022   1.166   2.732   2.920  0.6915 -0.6863 -1.4788
  256SOL    HW2 1023   1.308   2.786   2.948  2.0132  1.5826 -0.7115
  256SOL     MW 1024   1.224   2.765   2.977  0.7036 -0.1383 -0.3623
  257SOL     OW 1025   0.040   1.903   0.092  0.2226 -0.1940  1.2146
  257SOL    HW1 1026   0.086   1.856   0.155  1.4924 -0.4035 -0.4228
  257SOL    HW2 1027   0.079   1.865   0.015 -0.9336  0.9024  0.7155
  257SOL     MW 1028   0.051   1.892   0.090  0.2376 -0.0770  0.9327
  258SOL     OW 1029   0.692   0.973   2.473 -0.7323  0.4663  0.1221
  258SOL    HW1 1030   0.693   1.062   2.452 -0.8258 -3.4239  0.7858
  258SOL    HW2 1031   0.631   0.973   2.539 -2.2623 -0.4645 -3.1759
  258SOL     MW 1032   0.684   0.985   2.479 -0.9465 -0.1698 -0.2255
  259SOL     OW 1033   0.798   0.466   2.255 -0.2971 -0.7327 -0.6615
  259SOL    HW1 1034   0.732   0.410   2.204 -1.1217 -0.0043 -1.4043
  259SOL    HW2 1035   0.862   0.404   2.296 -0.0637  0.5326 -0.6048
  259SOL     MW 1036   0.798   0.450   2.254 -0.3751 -0.4697 -0.7520
  260SOL     OW 1037   0.643   0.082   1.565  0.4439  0.1806 -0.7748
  260SOL    HW1 1038   0.615   0.154   1.506  0.3376 -1.7398  1.2331
  260SOL    HW2 1039   0.716   0.033   1.525  0.7983  0.7267  0.2655
  260SOL     MW 1040   0.649   0.085   1.552  0.4766 -0.0007 -0.3726
  261SOL     OW 1041   1.095   0.678   1.970 -0.5453  0.2438  0.6106
  261SOL    HW1 1042   1.133   0.706   2.061  1.4857 -0.3695 -0.1071
  261SOL    HW2 1043   1.071   0.589   1.977  0.3052  1.4759 -0.0125
  261SOL     MW 1044   1.097   0.670   1.983 -0.1651  0.3255  0.4337
  262SOL     OW 1045   1.125   0.350   0.163 -0.5059  0.1038 -0.7180
  262SOL    HW1 1046   1.218   0.338   0.145  1.5932  0.6854 -1.7970
  262SOL    HW2 1047   1.093   0.317   0.078  0.7385  1.8372  0.5144
  262SOL     MW 1048   1.133   0.344   0.149 -0.0647  0.4092 -0.6977
  263SOL     OW 1049   0.365   3.095   2.485  0.0238 -0.5731  0.8678
  263SOL    HW1 1050   0.287   3.146   2.497  1.9437 -1.2155 -0.9447
  263SOL    HW2 1051   0.392   3.124   2.399  0.7764 -2.0629 -0.6113
  263SOL     MW 1052   0.358   3.105   2.475  0.3764 -0.8544  0.4335
  264SOL     OW 1053   1.521   1.390   1.941  0.0764  0.3605 -0.6817
  264SOL    HW1 1054   1.489   1.300   1.930  0.7957 -0.7461 -0.7242
  264SOL    HW2 1055   1.619   1.382   1.951  1.6212  2.9052 -1.5343
  264SOL     MW 1056   1.529   1.377   1.941  0.3751  0.5502 -0.7998
  265SOL     OW 1057   0.727   2.760   2.302 -0.1366  0.1528 -0.1745
  265SOL    HW1 1058   0.794   2.700   2.269 -0.1432  1.3394  0.0252
  265SOL    HW2 1059   0.718   2.751   2.397  4.5654  1.7261 -0.4446
  265SOL     MW 1060   0.735   2.751   2.310  0.4829  0.5170 -0.1838
  266SOL     OW 1061   0.876   0.869   2.150 -0.6990  0.3646 -0.3586
  266SOL    HW1 1062   0.849   0.940   2.093  2.4983  3.5953  1.8148
  266SOL    HW2 1063   0.923   0.805   2.094 -0.9856  2.7301  0.1385
  266SOL     MW 1064   0.878   0.870   2.135 -0.3149  1.1030 -0.0062
  267SOL     OW 1065   1.338   1.732   2.633  1.0744 -0.0127  0.3961
  267SOL    HW1 1066   1.416   1.691   2.600 -0.6989 -1.0534  2.6131
  267SOL    HW2 1067   1.270   1.722   2.564  1.5717 -3.4245 -0.5719
  267SOL     MW 1068   1.339   1.725   2.619  0.9060 -0.6001  0.5609
  268SOL     OW 1069   0.116   0.922   1.754 -0.0367 -0.1790  0.1783
  268SOL    HW1 1070   0.094   1.008   1.714  1.4653 -3.0089 -2.7002
  268SOL    HW2 1071   0.077   0.851   1.695  0.0713 -0.5206 -0.2455
  268SOL     MW 1072   0.108   0.924   1.741  0.1757 -0.5975 -0.2574
  269SOL     OW 1073   1.336   1.945   2.294 -0.1348 -0.4791  0.0014
  269SOL    HW1 1074   1.372   2.015   2.345 -1.4195  0.9340  4.1290
  269SOL    HW2 1075   1.278   1.909   2.359  0.5845  0.3153 -2.1424
  269SOL     MW 1076   1.333   1.949   2.309 -0.2094 -0.1878  0.2631
  270SOL     OW 1077   1.121   0.429   1.588 -0.2033  0.1847  0.1333
  270SOL    HW1 1078   1.120   0.368   1.665 -0.5958  0.4723 -0.0266
  270SOL    HW2 1079   1.213   0.452   1.572 -0.7281  0.0278  0.3220
  270SOL     MW 1080   1.133   0.424   1.596 -0.3244  0.2020  0.1371
  271SOL     OW 1081   0.839   0.104   2.467  0.2747  0.5594  0.1357
  271SOL    HW1 1082   0.900   0.038   2.501  0.6880  0.6459 -2.5717
  271SOL    HW2 1083   0.894   0.186   2.460  3.0063  1.9399  0.0808
  271SOL     MW 1084   0.854   0.106   2.471  0.6896  0.7530 -0.2288
  272SOL     OW 1085   1.437   2.830   2.837 -0.4337 -0.0490  0.0994
  272SOL    HW1 1086   1.410   2.814   2.747 -0.2876  1.4400  1.5041
  272SOL    HW2 1087   1.465   2.923   2.839 -2.5018 -1.3319 -1.0993
  272SOL     MW 1088   1.437   2.840   2.826 -0.6873 -0.0218  0.1266
  273SOL     OW 1089   1.422   0.826   2.774 -0.0726 -0.3116  0.3721
  273SOL    HW1 1090   1.512   0.866   2.775  3.2013 -1.9758  0.9292
  273SOL    HW2 1091   1.361   0.898   2.760 -0.8947  1.4235 -0.4228
  273SOL     MW 1092   1.426   0.841   2.773  0.2509 -0.3023  0.3407
  274SOL     OW 1093   1.426   0.708   0.179 -0.1850  0.1022 -0.5732
  274SOL    HW1 1094   1.466   0.627   0.214  0.2889  0.6083  0.1461
  274SOL    HW2 1095   1.345   0.718   0.227 -0.0082 -2.7905 -1.3741
  274SOL     MW 1096   1.420   0.699   0.190 -0.0991 -0.2127 -0.5840
  275SOL     OW 1097   1.767   0.506   1.774  0.1912 -0.2890 -0.4531
  275SOL    HW1 1098   1.835   0.540   1.832 -0.5976  1.3925 -0.8808
  275SOL    HW2 1099   1.768   0.408   1.773  1.9387 -0.0614  0.0669
  275SOL     MW 1100   1.776   0.498   1.782  0.3177 -0.0371 -0.4410
  276SOL     OW 1101   0.485   1.222   1.931 -0.1353 -1.0673  0.2809
  276SOL    HW1 1102   0.505   1.133   1.947 -0.5322  1.3768 -0.9490
  276SOL    HW2 1103   0.401   1.233   1.981 -1.1826  1.9622 -3.6233
  276SOL     MW 1104   0.477   1.212   1.940 -0.3258 -0.3451 -0.3965
  277SOL     OW 1105   1.992   1.079   2.442  0.3728  0.2740 -0.3943
  277SOL    HW1 1106   2.058   1.146   2.463  0.3082  0.4673  0.0708
  277SOL    HW2 1107   1.966   1.106   2.354  1.7946  1.2583  0.4184
  277SOL     MW 1108   1.997   1.092   2.433  0.5519  0.4294 -0.2257
  278SOL     OW 1109   1.426   0.665   1.760  0.4646  0.2443 -0.5600
  278SOL    HW1 1110   1.372   0.592   1.804  0.3587 -4.1181  0.7772
  278SOL    HW2 1111   1.508   0.651   1.797  1.5176 -0.6095  0.0954
  278SOL     MW 1112   1.429   0.654   1.771  0.5895 -0.4439 -0.2971
  279SOL     OW 1113   0.536   0.117   2.266  0.0272  0.1467 -0.5261
  279SOL    HW1 1114   0.597   0.052   2.302 -0.8077 -1.2227 -0.8387
  279SOL    HW2 1115   0.588   0.178   2.214  0.6438 -1.7513  3.2165
  279SOL     MW 1116   0.551   0.116   2.264 -0.0016 -0.2844 -0.0735
  280SOL     OW 1117   1.457   1.117   2.181 -0.1547  0.5356  0.3742
  280SOL    HW1 1118   1.494   1.061   2.112 -1.7985 -0.0048  0.5455
  280SOL    HW2 1119   1.480   1.067   2.265 -0.0750 -2.2564  1.5929
  280SOL     MW 1120   1.465   1.103   2.183 -0.3611  0.0960  0.5576
  281SOL     OW 1121   1.386   1.144   2.677  0.3153 -0.2783 -0.0314
  281SOL    HW1 1122   1.419   1.237   2.665  0.0256  3.0150 -1.3298
  281SOL    HW2 1123   1.368   1.134   2.772 -0.9722 -2.7621 -1.2613
  281SOL     MW 1124   1.388   1.155   2.688  0.1072 -0.1715 -0.3650
  282SOL     OW 1125   1.173   1.250   1.595  0.1932 -0.1327 -0.9237
  282SOL    HW1 1126   1.185   1.342   1.564 -1.2576 -3.3159  0.7961
  282SOL    HW2 1127   1.100   1.259   1.663  0.4771  2.5834 -0.2095
  282SOL     MW 1128   1.165   1.264   1.600  0.0392 -0.1943 -0.6026
  283SOL     OW 1129   0.872   1.345   0.005 -0.3078  0.1990  0.1334
  283SOL    HW1 1130   0.971   1.338   0.006  0.8121 -1.5735 -1.8178
  283SOL    HW2 1131   0.829   1.424  -0.034 -1.3360  4.9450  3.3611
  283SOL     MW 1132   0.880   1.354   0.000 -0.2957  0.5913  0.3018
  284SOL     OW 1133   0.400   0.743   2.316 -0.2278  0.2230 -0.4784
  284SOL    HW1 1134   0.470   0.791   2.273 -2.4852  1.7151 -0.6601
  284SOL    HW2 1135   0.420   0.653   2.282  0.5319  0.2716  0.3802
  284SOL     MW 1136   0.412   0.737   2.306 -0.4254  0.4263 -0.3891
  285SOL     OW 1137   0.890   0.895   2.849  0.2958 -0.3820 -0.1484
  285SOL    HW1 1138   0.907   0.930   2.758 -0.0183 -1.0110  0.7846
  285SOL    HW2 1139   0.808   0.842   2.829 -1.3436 -0.2401  2.0909
  285SOL     MW 1140   0.881   0.893   2.834  0.0380 -0.4463  0.2702
  286SOL     OW 1141   1.105   1.465   2.617  0.1986 -0.0230 -0.3277
  286SOL    HW1 1142   1.126   1.429   2.528  0.2597 -0.4351 -2.0291
  286SOL    HW2 1143   1.088   1.556   2.594  1.9014 -2.8468 -0.1296
  286SOL     MW 1144   1.105   1.472   2.602  0.4314 -0.4500 -0.5260
  287SOL     OW 1145   1.205   1.041   0.356 -0.0003 -0.0815  0.3967
  287SOL    HW1 1146   1.152   1.083   0.424 -0.0586 -2.9739 -0.9432
  287SOL    HW2 1147   1.144   1.053   0.289 -0.2261  0.4345  2.6105
  287SOL     MW 1148   1.190   1.048   0.356 -0.0378 -0.3951  0.5120
  288SOL     OW 1149   1.475   0.617   2.082 -0.1927 -0.0425  0.2279
  288SOL    HW1 1150   1.399   0.631   2.144  1.3761  0.8400 -0.7400
  288SOL    HW2 1151   1.507   0.713   2.087  2.2092  2.9488 -0.3814
  288SOL     MW 1152   1.470   0.631   2.091  0.3312  0.4686  0.0198
  289SOL     OW 1153   0.927   0.991   2.596 -0.1641 -0.1145  0.5114
  289SOL    HW1 1154   0.979   0.910   2.572  2.2572 -1.3296 -0.5057
  289SOL    HW2 1155   0.844   0.973   2.553 -0.0108 -0.0425  2.1748
  289SOL     MW 1156   0.923   0.978   2.587  0.1756 -0.2653  0.5967
  290SOL     OW 1157   0.814   0.639   1.471  0.2132  0.1261  0.0156
  290SOL    HW1 1158   0.847   0.590   1.395  1.8441  2.0457 -0.6352
  290SOL    HW2 1159   0.888   0.639   1.532  0.5645  0.4579 -2.1978
  290SOL     MW 1160   0.828   0.633   1.469  0.4748  0.4231 -0.3623
  291SOL     OW 1161   0.195   0.369   0.147  0.4989 -0.0104  0.2744
  291SOL    HW1 1162   0.293   0.343   0.156  1.3018 -0.7104  2.0900
  291SOL    HW2 1163   0.153   0.284   0.134  0.5540 -1.0357 -0.0574
  291SOL     MW 1164   0.203   0.355   0.146  0.6121 -0.2381  0.4702
  292SOL     OW 1165   1.050   0.600   0.123 -0.1258  0.2298 -0.5801
  292SOL    HW1 1166   1.112   0.656   0.180  3.1517 -1.9017  0.7851
  292SOL    HW2 1167   1.064   0.512   0.157 -3.6800  0.2212 -0.0041
  292SOL     MW 1168   1.060   0.596   0.135 -0.1623 -0.0526 -0.3240
  293SOL     OW 1169   0.119   0.166   2.525 -0.2572 -0.4500  0.5530
  293SOL    HW1 1170   0.056   0.123   2.464 -1.8338 -1.3274  0.9648
  293SOL    HW2 1171   0.063   0.204   2.589 -0.2191 -0.5458  2.3959
  293SOL     MW 1172   0.103   0.166   2.525 -0.4602 -0.5784  0.8505
  294SOL     OW 1173   1.309   0.522   2.325 -0.3053 -0.0122  0.5702
  294SOL    HW1 1174   1.379   0.572   2.365  0.3046 -1.0029  0.0595
  294SOL    HW2 1175   1.333   0.429   2.319 -0.0884  1.0708 -2.0223
  294SOL     MW 1176   1.321   0.516   2.330 -0.1962 -0.0000  0.1608
  295SOL     OW 1177   0.855   0.550   2.520 -0.3149  0.5725  0.0930
  295SOL    HW1 1178   0.808   0.541   2.437  0.5059 -0.4626 -0.1661
  295SOL    HW2 1179   0.800   0.603   2.577  1.6869 -0.3555 -0.1559
  295SOL     MW 1180   0.842   0.556   2.517  0.0575  0.3135  0.0259
  296SOL     OW 1181   1.234   0.210   2.038  0.6436 -0.1213 -0.2245
  296SOL    HW1 1182   1.325   0.185   2.031 -0.4238 -1.0405  1.0466
  296SOL    HW2 1183   1.221   0.236   2.130 -0.7678 -1.2135  1.9606
  296SOL     MW 1184   1.244   0.210   2.050  0.3165 -0.3867  0.2315
  297SOL     OW 1185   1.405   0.377   1.531  0.3079  0.0548  0.4973
  297SOL    HW1 1186   1.472   0.437   1.543  1.7860 -1.4740 -1.4699
  297SOL    HW2 1187   1.427   0.308   1.591  2.6695  2.0463  1.0755
  297SOL     MW 1188   1.417   0.376   1.540  0.8145  0.1159  0.3140
  298SOL     OW 1189   1.589   0.897   2.072 -0.4370 -0.1224  0.0366
  298SOL    HW1 1190   1.651   0.932   2.004 -1.2832 -1.8402 -1.0905
  298SOL    HW2 1191   1.646   0.884   2.150  3.4065 -0.8428 -0.1126
  298SOL     MW 1192   1.605   0.900   2.073 -0.0415 -0.4441 -0.1318
  299SOL     OW 1193   0.561   1.151   0.055  0.2429  0.3847 -0.1877
  299SOL    HW1 1194   0.585   1.136  -0.038 -1.9330  1.8647  3.1021
  299SOL    HW2 1195   0.640   1.194   0.094 -1.4373 -0.2288  4.0636
  299SOL     MW 1196   0.575   1.154   0.048 -0.2659  0.4990  0.8072
  300SOL     OW 1197   1.151   1.163   2.505 -0.9100  0.2977  0.1034
  300SOL    HW1 1198   1.062   1.129   2.523 -3.9490  1.4937  0.7225
  300SOL    HW2 1199   1.201   1.162   2.585 -1.4010  2.0183 -0.7307
  300SOL     MW 1200   1.146   1.158   2.518 -1.3758  0.6825  0.0751
  301SOL     OW 1201   1.410   1.009   0.725  0.1411  0.7486  0.1468
  301SOL    HW1 1202   1.437   1.027   0.814 -1.1458  0.7403  1.2992
  301SOL    HW2 1203   1.368   0.925   0.734  1.1590 -1.0229 -0.1268
  301SOL     MW 1204   1.408   1.000   0.738  0.1056  0.5138  0.2628
  302SOL     OW 1205   0.201   1.556   2.040 -0.3147  0.2278 -0.0603
  302SOL    HW1 1206   0.196   1.466   2.011 -2.5491  0.2862 -0.1078
  302SOL    HW2 1207   0.116   1.596   2.062  0.7024  3.3430 -1.6989
  302SOL     MW 1208   0.189   1.549   2.039 -0.4753  0.6465 -0.2828
  303SOL     OW 1209   0.345   1.781   2.672  0.7347 -0.4173  0.3592
  303SOL    HW1 1210   0.310   1.805   2.584  1.2868  0.9857 -1.5330
  303SOL    HW2 1211   0.270   1.762   2.735 -0.0969 -0.7511  1.0901
  303SOL     MW 1212   0.331   1.781   2.668  0.6978 -0.2762  0.2060
  304SOL     OW 1213   0.506   2.032   2.373 -0.0772  0.5536  0.7064
  304SOL    HW1 1214   0.559   2.085   2.310 -2.2975 -2.1395 -0.0605
  304SOL    HW2 1215   0.564   1.959   2.402 -1.4872  1.5181  2.9110
  304SOL     MW 1216   0.520   2.029   2.369 -0.5562  0.3255  0.8961
  305SOL     OW 1217   1.117   0.672   0.573  0.2398 -0.1621  0.0227
  305SOL    HW1 1218   1.031   0.662   0.522 -0.7984 -0.9523 -1.7852
  305SOL    HW2 1219   1.160   0.587   0.558  0.0077 -2.7303  2.2654
  305SOL     MW 1220   1.111   0.660   0.564  0.0722 -0.6052  0.0801
  306SOL     OW 1221   1.109   1.552   0.226 -0.3954 -0.0573  0.7234
  306SOL    HW1 1222   1.148   1.468   0.263  0.0027 -1.2994 -2.0951
  306SOL    HW2 1223   1.170   1.551   0.154 -2.1486 -0.6585 -1.0398
  306SOL     MW 1224   1.123   1.540   0.221 -0.5742 -0.3005  0.1189
  307SOL     OW 1225   1.349   0.439   1.892  0.2885  0.1864  0.0883
  307SOL    HW1 1226   1.301   0.358   1.912 -0.4310  1.1993 -0.4448
  307SOL    HW2 1227   1.388   0.472   1.975  2.2234 -0.5135  0.9936
  307SOL     MW 1228   1.347   0.433   1.906  0.4489  0.2277  0.1374
  308SOL     OW 1229   2.240   0.504   2.664 -0.2600  0.1332 -0.2950
  308SOL    HW1 1230   2.330   0.520   2.694  0.9657 -0.6589 -0.1588
  308SOL    HW2 1231   2.200   0.595   2.663  1.4703  0.1285  1.3714
  308SOL     MW 1232   2.247   0.518   2.668  0.1300  0.0281 -0.0572
  309SOL     OW 1233   0.481   0.575   0.235  0.0892  0.1383  0.1986
  309SOL    HW1 1234   0.560   0.615   0.270 -0.5861  1.0319  0.2075
  309SOL    HW2 1235   0.516   0.501   0.189  2.2986  1.6547 -0.8403
  309SOL     MW 1236   0.496   0.570   0.233  0.2916  0.4563  0.0627
  310SOL     OW 1237   0.474   0.643   1.913 -0.3770 -0.0591 -0.3077
  310SOL    HW1 1238   0.560   0.589   1.919 -1.5458 -0.8038  1.1315
  310SOL    HW2 1239   0.487   0.723   1.867  0.0885 -0.3113 -0.6348
  310SOL     MW 1240   0.487   0.647   1.908 -0.4698 -0.1906 -0.1609
  311SOL     OW 1241   1.951   0.642   1.949 -0.2086 -0.0757  0.9258
  311SOL    HW1 1242   1.906   0.677   2.028 -2.8939  1.9594  0.8346
  311SOL    HW2 1243   2.014   0.571   1.982  2.6325 -1.7015 -1.6404
  311SOL     MW 1244   1.953   0.638   1.963 -0.1880 -0.0217  0.5752
  312SOL     OW 1245   1.789   2.443   0.141 -0.3518 -0.0735 -0.6844
  312SOL    HW1 1246   1.814   2.422   0.228 -0.3894  0.7599 -0.6947
  312SOL    HW2 1247   1.715   2.499   0.157  0.1768  0.6510  0.2022
  312SOL     MW 1248   1.783   2.448   0.154 -0.2870  0.1321 -0.5688
  313SOL     OW 1249   0.141   1.137   3.030 -0.3117 -0.1284  0.0653
  313SOL    HW1 1250   0.101   1.180   3.108 -0.3533  0.0572 -0.1434
  313SOL    HW2 1251   0.215   1.193   3.008 -3.3665 -0.5143  2.5346
  313SOL     MW 1252   0.145   1.150   3.037 -0.7203 -0.1548  0.3636
  314SOL     OW 1253   2.162   2.927   3.086 -0.0660 -0.5667  0.2526
  314SOL    HW1 1254   2.092   2.950   3.008 -1.3465 -2.2911 -1.0184
  314SOL    HW2 1255   2.203   3.014   3.104  1.2285 -1.2846  1.7554
  314SOL     MW 1256   2.158   2.942   3.078 -0.0642 -0.8889  0.2832
  315SOL     OW 1257   1.547   1.826   2.962 -0.1362  0.2390 -0.0464
  315SOL    HW1 1258   1.490   1.846   3.045  1.5518 -1.3047 -0.3948
  315SOL    HW2 1259   1.548   1.907   2.906  0.2607 -1.0177  0.4718
  315SOL     MW 1260   1.540   1.839   2.965  0.1389 -0.1305 -0.0240
  316SOL     OW 1261   1.236   0.569   2.723 -0.4484  0.1898  0.2134
  316SOL    HW1 1262   1.328   0.567   2.744 -0.5935 -0.6616 -1.7876
  316SOL    HW2 1263   1.189   0.578   2.811 -1.7838  0.7505 -0.5316
  316SOL     MW 1264   1.242   0.570   2.738 -0.6437  0.1515 -0.1489
  317SOL     OW 1265   0.687   1.588   2.665 -0.1504 -0.3825  0.1389
  317SOL    HW1 1266   0.734   1.510   2.685 -1.1848 -1.3478  3.1154
  317SOL    HW2 1267   0.658   1.573   2.579  0.3506 -0.3246 -0.8257
  317SOL     MW 1268   0.690   1.576   2.656 -0.2208 -0.5022  0.4044
  318SOL     OW 1269   1.329   0.353   2.956 -0.0106  0.6059  0.3572
  318SOL    HW1 1270   1.244   0.403   2.975 -2.3993  1.4457  2.1512
  318SOL    HW2 1271   1.388   0.416   2.911 -0.8351 -3.3942  0.2760
  318SOL     MW 1272   1.326   0.368   2.952 -0.4346  0.1889  0.5832
  319SOL     OW 1273   0.873   0.363   2.893  0.6249  0.1163 -0.9384
  319SOL    HW1 1274   0.836   0.321   2.812 -1.5681  0.4065 -0.2213
  319SOL    HW2 1275   0.803   0.392   2.955 -3.0177  2.6756  0.9011
  319SOL     MW 1276   0.859   0.361   2.891 -0.1450  0.4923 -0.6011
  320SOL     OW 1277   1.073   1.406   1.973  0.1291  0.1405 -0.3012
  320SOL    HW1 1278   1.139   1.348   2.003 -1.1872  1.7993 -0.8423
  320SOL    HW2 1279   1.112   1.473   1.920 -1.9893  1.6945 -0.3190
  320SOL     MW 1280   1.087   1.407   1.970 -0.3240  0.5644 -0.3750
  321SOL     OW 1281   1.111   0.918   2.996 -0.2127 -0.0291 -0.1202
  321SOL    HW1 1282   1.026   0.894   2.958  1.5512  2.7840  1.5903
  321SOL    HW2 1283   1.164   0.838   3.008  0.0813 -1.1454  2.3128
  321SOL     MW 1284   1.106   0.904   2.993  0.0588  0.1947  0.4265
  322SOL     OW 1285   1.222   0.852   1.666  0.6695  0.3574  0.4444
  322SOL    HW1 1286   1.294   0.793   1.692  0.4220 -1.8941  0.9310
  322SOL    HW2 1287   1.171   0.882   1.747 -3.5296  2.1120  1.6364
  322SOL     MW 1288   1.225   0.849   1.680  0.0829  0.2919  0.6658
  323SOL     OW 1289   1.236   1.615   1.896 -0.5512 -0.5575  0.2456
  323SOL    HW1 1290   1.273   1.616   1.807  0.6873  0.0500  1.8948
  323SOL    HW2 1291   1.181   1.692   1.894  1.5238  1.0421  1.8056
  323SOL     MW 1292   1.234   1.625   1.884 -0.1140 -0.2663  0.6690
  324SOL     OW 1293   1.476   1.002   2.424 -0.6715  0.0612  0.6656
  324SOL    HW1 1294   1.398   1.030   2.467 -0.9502 -1.8070 -0.8374
  324SOL    HW2 1295   1.555   1.045   2.462  2.1321 -0.4157  0.0328
  324SOL     MW 1296   1.476   1.011   2.435 -0.3384 -0.2482  0.3838
  325SOL     OW 1297   1.109   0.499   2.975 -0.4561 -0.1248 -0.2279
  325SOL    HW1 1298   1.100   0.557   3.054 -0.1977  0.0790 -2.4217
  325SOL    HW2 1299   1.022   0.468   2.957 -1.2139  1.0762  0.2183
  325SOL     MW 1300   1.096   0.502   2.983 -0.5220  0.0605 -0.4585
  326SOL     OW 1301   0.355   1.363   2.277 -0.0243 -0.0603 -0.2052
  326SOL    HW1 1302   0.444   1.321   2.257  2.3195 -1.8482 -1.3118
  326SOL    HW2 1303   0.353   1.457   2.266  1.1335  1.8105 -1.8919
  326SOL     MW 1304   0.366   1.370   2.273  0.4377 -0.0494 -0.5737
  327SOL     OW 1305   1.957   0.790   2.446  0.5905 -0.1476 -0.3283
  327SOL    HW1 1306   1.924   0.757   2.536 -0.2294 -1.3619 -2.4354
  327SOL    HW2 1307   1.990   0.882   2.465  1.5426  1.2151  1.7430
  327SOL     MW 1308   1.957   0.798   2.461  0.6079 -0.1280 -0.3330
  328SOL     OW 1309   0.237   1.252   2.038 -0.3567 -0.2386 -0.0590
  328SOL    HW1 1310   0.151   1.219   2.063  0.6279  2.2641  1.6422
  328SOL    HW2 1311   0.267   1.294   2.117  1.1992  1.5079  0.5706
  328SOL     MW 1312   0.229   1.253   2.052 -0.0215  0.3220  0.2485
  329SOL     OW 1313   0.074   0.153   1.345 -0.3091 -0.6140  0.1790
  329SOL    HW1 1314   0.035   0.131   1.433 -3.7519 -0.8509 -0.7545
  329SOL    HW2 1315   0.170   0.184   1.352  1.0672  1.3268  1.2130
  329SOL     MW 1316   0.081   0.155   1.357 -0.5818 -0.3892  0.1923
  330SOL     OW 1317   0.400   3.091   2.028  0.0515 -0.1787  0.2931
  330SOL    HW1 1318   0.470   3.132   2.079 -1.6041  2.3113  1.0576
  330SOL    HW2 1319   0.353   3.039   2.097 -0.8220  0.0485  2.2747
  330SOL     MW 1320   0.403   3.090   2.044 -0.2822  0.1798  0.6554
  331SOL     OW 1321   0.790   1.240   2.462  0.2829 -0.4244 -0.1596
  331SOL    HW1 1322   0.742   1.312   2.421 -0.1269 -0.2856 -1.4834
  331SOL    HW2 1323   0.833   1.275   2.541  0.4624 -0.1560 -1.0442
  331SOL     MW 1324   0.789   1.254   2.467  0.2525 -0.3707 -0.4510
  332SOL     OW 1325   1.332   1.656   2.902 -0.1281 -0.3717  0.4049
  332SOL    HW1 1326   1.334   1.643   2.809 -1.1860 -0.5673  0.1691
  332SOL    HW2 1327   1.395   1.730   2.916  1.8217  1.2867 -2.2426
  332SOL     MW 1328   1.340   1.664   2.891 -0.0104 -0.1787  0.0245
  333SOL     OW 1329   1.708   1.398   2.923 -0.2462 -0.1281  0.3411
  333SOL    HW1 1330   1.808   1.379   2.926  1.6661 -1.6781 -0.0655
  333SOL    HW2 1331   1.672   1.321   2.961 -1.0883  0.0556  1.0000
  333SOL     MW 1332   1.716   1.385   2.928 -0.1050 -0.3084  0.3744
  334SOL     OW 1333   1.255   3.065   2.662  0.1243  0.1675  0.4885
  334SOL    HW1 1334   1.172   3.055   2.714  0.2838  0.0864  3.9635
  334SOL    HW2 1335   1.280   3.158   2.694 -0.3140  2.0313 -1.0078
  334SOL     MW 1336   1.247   3.076   2.673  0.0875  0.4027  0.7496
  335SOL     OW 1337   1.330   0.721   2.995  0.5175 -0.3762  0.9422
  335SOL    HW1 1338   1.389   0.725   3.070 -2.2930  0.9669 -0.2239
  335SOL    HW2 1339   1.386   0.765   2.931 -2.9749 -2.5254 -3.2368
  335SOL     MW 1340   1.345   0.727   2.997 -0.3141 -0.4826  0.2370
  336SOL     OW 1341   0.966   1.188   1.769  0.1451 -0.4996 -0.1635
  336SOL    HW1 1342   0.913   1.245   1.816 -0.4767 -2.2777  1.5449
  336SOL    HW2 1343   0.966   1.108   1.820  1.0044  1.0449 -0.2745
  336SOL     MW 1344   0.959   1.185   1.782  0.1765 -0.5304  0.0472
  337SOL     OW 1345   0.575   1.859   2.803 -0.0783 -0.0597  0.5008
  337SOL    HW1 1346   0.509   1.845   2.735 -1.0965 -0.8388  1.4012
  337SOL    HW2 1347   0.647   1.806   2.776 -2.3469  0.7410 -0.0838
  337SOL     MW 1348   0.576   1.851   2.791 -0.5120 -0.0569  0.5425
  338SOL     OW 1349   1.036   0.750   2.528 -0.2513 -0.6330 -0.8558
  338SOL    HW1 1350   0.973   0.676   2.512 -0.4543  1.7406  0.8026
  338SOL    HW2 1351   1.105   0.717   2.592  2.6925 -0.9955  2.0731
  338SOL     MW 1352   1.037   0.736   2.535  0.1103 -0.3676 -0.2505
  339SOL     OW 1353   1.451   1.124   1.868 -0.4081  0.4426  0.2787
  339SOL    HW1 1354   1.442   1.088   1.780  1.0036  0.8953  0.3549
  339SOL    HW2 1355   1.363   1.119   1.905 -0.0798  1.6200  1.0951
  339SOL     MW 1356   1.438   1.118   1.861 -0.1785  0.6577  0.3965
  340SOL     OW 1357   1.315   1.503   0.035 -0.7890 -0.0835 -0.3219
  340SOL    HW1 1358   1.322   1.558  -0.042 -0.2029  1.2464  1.8234
  340SOL    HW2 1359   1.411   1.476   0.041  1.6125  3.8863  1.3355
  340SOL     MW 1360   1.328   1.507   0.026 -0.3948  0.6158  0.1798
  341SOL     OW 1361   0.035   1.351   2.772  0.3317 -0.3696  0.7832
  341SOL    HW1 1362   0.112   1.310   2.808 -0.2981 -0.7097 -1.8755
  341SOL    HW2 1363   0.026   1.321   2.686  0.4057  2.2680  0.3486
  341SOL     MW 1364   0.044   1.342   2.766  0.2584 -0.0664  0.3751
  342SOL     OW 1365   1.394   0.321   0.120  0.6007 -0.4895 -0.3006
  342SOL    HW1 1366   1.450   0.388   0.170  1.4766  0.8816 -1.2580
  342SOL    HW2 1367   1.400   0.359   0.034 -0.0172  0.0032 -1.2521
  342SOL     MW 1368   1.402   0.335   0.115  0.6347 -0.2436 -0.5524
  343SOL     OW 1369   0.301   0.291   2.228  0.1334  0.1830  0.0627
  343SOL    HW1 1370   0.366   0.218   2.247 -0.2282 -2.1770  0.4494
  343SOL    HW2 1371   0.239   0.258   2.164 -0.8705 -3.3826  2.5426
  343SOL     MW 1372   0.301   0.277   2.222 -0.0468 -0.5988  0.4409
  344SOL     OW 1373   1.719   2.026   0.160  0.1771 -0.1125  0.0602
  344SOL    HW1 1374   1.769   2.076   0.098 -1.0348 -2.4372 -0.5307
  344SOL    HW2 1375   1.640   2.000   0.116 -1.0960 -2.7247 -3.4789
  344SOL     MW 1376   1.715   2.029   0.146 -0.1508 -0.7639 -0.4847
  345SOL     OW 1377   0.691   1.568   2.365  0.1950  0.2555 -0.0098
  345SOL    HW1 1378   0.596   1.588   2.346 -0.6961  1.8418  0.1675
  345SOL    HW2 1379   0.743   1.567   2.286  0.4411 -2.6347 -0.2575
  345SOL     MW 1380   0.685   1.570   2.352  0.1099  0.0834 -0.0191
  346SOL     OW 1381   1.709   1.099   3.053 -0.2488 -0.3344 -0.2566
  346SOL    HW1 1382   1.800   1.084   3.065 -2.3499 -0.8110  2.3547
  346SOL    HW2 1383   1.657   1.054   3.124 -1.1644 -0.5746 -1.6733
  346SOL     MW 1384   1.714   1.091   3.064 -0.6468 -0.4290 -0.0990
  347SOL     OW 1385   1.139   0.739   2.260 -0.1014 -0.5883 -0.5317
  347SOL    HW1 1386   1.164   0.654   2.303  0.1725 -0.8090  1.8579
  347SOL    HW2 1387   1.073   0.775   2.325  0.7092 -0.2236 -0.0424
  347SOL     MW 1388   1.134   0.733   2.274  0.0417 -0.5693 -0.1519
  348SOL     OW 1389   1.362   2.558   1.911 -0.2368 -0.0191  0.0954
  348SOL    HW1 1390   1.375   2.484   1.979  0.8414 -0.0926  0.9151
  348SOL    HW2 1391   1.381   2.643   1.957  1.4141 -0.3690  0.5285
  348SOL     MW 1392   1.366   2.559   1.926  0.1233 -0.0749  0.2607
  349SOL     OW 1393   1.391   0.180   2.760  0.0860  0.1501 -0.0016
  349SOL    HW1 1394   1.356   0.230   2.833 -2.0048  0.8475 -2.7617
  349SOL    HW2 1395   1.453   0.122   2.804 -0.7173 -0.4883  0.0382
  349SOL     MW 1396   1.395   0.179   2.775 -0.2958  0.1579 -0.3605
  350SOL     OW 1397   1.825   0.656   2.645 -0.2978 -0.0050 -0.7741
  350SOL    HW1 1398   1.771   0.601   2.578 -2.0071  2.4961  2.2363
  350SOL    HW2 1399   1.883   0.589   2.681  1.4156 -1.5974 -0.8333
  350SOL     MW 1400   1.826   0.640   2.641 -0.2973  0.1149 -0.3847
  351SOL     OW 1401   0.060   1.156   1.632  0.1434 -0.1860 -0.1648
  351SOL    HW1 1402  -0.015   1.175   1.693 -0.9845 -2.4243  2.8503
  351SOL    HW2 1403   0.126   1.225   1.639 -1.5549 -1.7675 -2.3452
  351SOL     MW 1404   0.059   1.168   1.641 -0.2295 -0.6900 -0.0547
  352SOL     OW 1405   0.850   1.757   2.806  0.2067  0.2196  0.4799
  352SOL    HW1 1406   0.814   1.711   2.888 -1.3319  1.5430 -1.4709
  352SOL    HW2 1407   0.803   1.700   2.742 -1.9497 -0.6750 -0.8491
  352SOL     MW 1408   0.839   1.743   2.808 -0.2808  0.2762  0.0472
  353SOL     OW 1409   0.013   2.567   2.736  0.0589  0.8920 -0.0246
  353SOL    HW1 1410   0.100   2.541   2.710 -1.7095 -0.4415  0.8162
  353SOL    HW2 1411   0.008   2.658   2.704  0.0871  1.4091 -0.7403
  353SOL     MW 1412   0.024   2.576   2.728 -0.1707  0.7843 -0.0081
  354SOL     OW 1413   0.341   2.449   0.853  0.5308 -0.4167  0.2837
  354SOL    HW1 1414   0.369   2.430   0.943 -1.0612  0.8817 -1.2871
  354SOL    HW2 1415   0.263   2.387   0.854  0.8398  0.2081  5.1936
  354SOL     MW 1416   0.334   2.438   0.865  0.3615 -0.1629  0.7242
  355SOL     OW 1417   3.044   2.182   0.342 -0.0313 -0.3979  0.5205
  355SOL    HW1 1418   2.956   2.154   0.345  2.9782 -0.7516 -0.4899
  355SOL    HW2 1419   3.065   2.226   0.428 -1.0554 -1.5132  0.4686
  355SOL     MW 1420   3.035   2.184   0.354  0.2306 -0.5917  0.3803
  356SOL     OW 1421   0.829   2.799   0.965 -0.1267  0.7768  0.5430
  356SOL    HW1 1422   0.878   2.835   0.886  0.2702  1.0521  0.5219
  356SOL    HW2 1423   0.739   2.782   0.943  0.9990  0.1274 -0.4822
  356SOL     MW 1424   0.824   2.802   0.952  0.0742  0.7274  0.4049
  357SOL     OW 1425   1.805   2.805   0.486  0.5417 -0.1490 -0.0971
  357SOL    HW1 1426   1.793   2.736   0.550  0.9936 -0.3014 -1.3434
  357SOL    HW2 1427   1.894   2.793   0.450  1.9844 -0.0291 -1.4049
  357SOL     MW 1428   1.815   2.794   0.490  0.7917 -0.1533 -0.4341
  358SOL     OW 1429   0.449   0.178   1.038  0.1365  0.4156  0.2692
  358SOL    HW1 1430   0.547   0.180   1.022 -0.4206 -0.2934  1.2592
  358SOL    HW2 1431   0.403   0.191   0.957  0.9642 -0.1310  0.3427
  358SOL     MW 1432   0.456   0.180   1.025  0.1722  0.2500  0.4095
  359SOL     OW 1433   0.816   2.965   1.841  1.1894  0.5759  0.0970
  359SOL    HW1 1434   0.832   2.873   1.872  3.2308 -0.9300 -2.6453
  359SOL    HW2 1435   0.856   2.958   1.750  2.3439  0.3757 -2.4891
  359SOL     MW 1436   0.824   2.952   1.833  1.6110  0.3508 -0.6060
  360SOL     OW 1437   0.554   2.751   0.867 -0.1320  0.0378  0.0036
  360SOL    HW1 1438   0.578   2.753   0.775 -1.1710 -0.1746 -0.9236
  360SOL    HW2 1439   0.526   2.658   0.887  0.7834  0.3778  0.7560
  360SOL     MW 1440   0.554   2.739   0.857 -0.1483  0.0546 -0.0194
  361SOL     OW 1441   0.209   2.643   1.420 -0.0436  0.3846  0.1340
  361SOL    HW1 1442   0.181   2.731   1.445  0.5888 -0.3586  0.2176
  361SOL    HW2 1443   0.295   2.650   1.385  1.4783  2.8887 -3.3261
  361SOL     MW 1444   0.217   2.656   1.418  0.2406  0.6169 -0.3115
  362SOL     OW 1445   1.397   2.390   0.577 -0.6354  0.0275  0.0522
  362SOL    HW1 1446   1.439   2.310   0.598 -0.0554  1.3333  0.1117
  362SOL    HW2 1447   1.444   2.469   0.618 -0.4470  0.2737 -0.1363
  362SOL     MW 1448   1.408   2.390   0.585 -0.5340  0.2323  0.0352
  363SOL     OW 1449   0.314   3.055   0.642 -0.0894  0.0330  0.0673
  363SOL    HW1 1450   0.315   2.996   0.719 -0.4657  0.2856  0.8883
  363SOL    HW2 1451   0.228   3.093   0.646  2.2042 -0.3534  0.3160
  363SOL     MW 1452   0.303   3.052   0.653  0.1636  0.0153  0.2084
  364SOL     OW 1453   0.774   0.251   0.144 -0.0555  0.1805 -0.6328
  364SOL    HW1 1454   0.693   0.204   0.171  1.3665  1.4215  0.0669
  364SOL    HW2 1455   0.740   0.330   0.104 -0.9304 -0.9355 -0.4967
  364SOL     MW 1456   0.759   0.255   0.142  0.0167  0.1970 -0.5225
  365SOL     OW 1457   0.948   2.031   1.126 -0.8388 -0.1340  0.2642
  365SOL    HW1 1458   0.906   2.115   1.109  0.1793 -2.2260 -0.6664
  365SOL    HW2 1459   0.878   1.976   1.094  2.6608  2.0306  3.3641
  365SOL     MW 1460   0.933   2.035   1.119 -0.2427 -0.1244  0.5504
  366SOL     OW 1461   2.959   2.658   0.945  0.3217 -0.0440 -0.4189
  366SOL    HW1 1462   3.039   2.639   0.993  0.8822 -2.6943  0.8207
  366SOL    HW2 1463   2.988   2.697   0.855  1.4819  1.4435  0.1111
  366SOL     MW 1464   2.974   2.661   0.939  0.5487 -0.1974 -0.1854
  367SOL     OW 1465   1.221   2.974   0.929 -0.2744  0.1797  0.3553
  367SOL    HW1 1466   1.245   3.030   0.859  2.4789  0.1050 -0.1004
  367SOL    HW2 1467   1.165   2.909   0.889 -0.0447  2.5447  0.9477
  367SOL     MW 1468   1.217   2.973   0.915  0.1192  0.4819  0.3734
  368SOL     OW 1469   1.741   0.397   0.723  0.3641  0.0398 -0.3792
  368SOL    HW1 1470   1.780   0.353   0.652 -0.8840  2.6727  2.3107
  368SOL    HW2 1471   1.737   0.488   0.695  1.0534 -0.4635  0.6332
  368SOL     MW 1472   1.745   0.403   0.710  0.2904  0.3208  0.1093
  369SOL     OW 1473   0.123   2.428   1.788  0.0597 -0.2775 -0.1862
  369SOL    HW1 1474   0.223   2.410   1.801  1.7887  2.1026  1.2696
  369SOL    HW2 1475   0.108   2.519   1.759 -0.2739 -1.4178  0.0920
  369SOL     MW 1476   0.134   2.438   1.786  0.2438 -0.1140  0.0426
  370SOL     OW 1477   0.736   0.151   0.968 -0.5761 -0.2042  0.3536
  370SOL    HW1 1478   0.752   0.239   0.936  0.7273  0.6733  1.5332
  370SOL    HW2 1479   0.827   0.121   0.976  3.7033  0.9246  1.7558
  370SOL     MW 1480   0.750   0.158   0.965  0.1605  0.0605  0.6943
  371SOL     OW 1481   1.231   2.833   1.514 -0.6662 -0.3586 -0.0694
  371SOL    HW1 1482   1.217   2.750   1.465 -0.7078  1.2524 -2.3251
  371SOL    HW2 1483   1.199   2.895   1.446 -0.2326  0.7876  2.6415
  371SOL     MW 1484   1.225   2.830   1.499 -0.6145  0.0052 -0.0094
  372SOL     OW 1485   0.822   2.300   0.509  0.1512 -0.5741  0.8253
  372SOL    HW1 1486   0.771   2.222   0.530 -1.7807  0.7492 -0.6100
  372SOL    HW2 1487   0.840   2.308   0.411 -0.3941 -1.1878 -3.0066
  372SOL     MW 1488   0.818   2.291   0.499 -0.1756 -0.4805  0.1303
  373SOL     OW 1489   2.868   3.013   1.391  0.0438  0.0338  0.1459
  373SOL    HW1 1490   2.942   2.980   1.337  2.7541  0.3164 -0.0978
  373SOL    HW2 1491   2.850   3.105   1.364  0.2408  1.0291  2.8426
  373SOL     MW 1492   2.875   3.021   1.381  0.4273  0.2024  0.4696
  374SOL     OW 1493   1.546   0.481   0.272  1.1509 -0.8569  0.3242
  374SOL    HW1 1494   1.634   0.447   0.255  1.8989  0.2804 -0.8556
  374SOL    HW2 1495   1.519   0.428   0.351 -1.0735 -2.7105  2.4364
  374SOL     MW 1496   1.554   0.469   0.280  0.9561 -0.9514  0.4472
  375SOL     OW 1497   0.945   2.141   2.346 -0.4019  0.8039  0.2114
  375SOL    HW1 1498   1.003   2.116   2.416  0.0589 -2.7907  1.0022
  375SOL    HW2 1499   0.924   2.052   2.309 -1.4269  0.1653 -0.4384
  375SOL     MW 1500   0.950   2.126   2.351 -0.4763  0.2454  0.2300
  376SOL     OW 1501   0.699   2.487   0.050 -0.1788  0.6572  0.0229
  376SOL    HW1 1502   0.676   2.424   0.116 -0.4111  0.5635 -1.4165
  376SOL    HW2 1503   0.746   2.446  -0.024 -0.2453 -1.4328 -3.2642
  376SOL     MW 1504   0.702   2.473   0.049 -0.2182  0.3691 -0.6007
  377SOL     OW 1505   1.260   2.092   0.912  0.3477 -0.1613 -0.1942
  377SOL    HW1 1506   1.185   2.064   0.861  1.0529 -0.1347  0.0510
  377SOL    HW2 1507   1.261   2.029   0.985  0.1515 -1.7438  0.6230
  377SOL     MW 1508   1.251   2.080   0.915  0.4148 -0.3666 -0.0540
  378SOL     OW 1509   0.929   2.901   1.589  0.4714  0.0066 -0.2821
  378SOL    HW1 1510   0.954   2.807   1.587  1.1264 -0.6941  2.2985
  378SOL    HW2 1511   0.997   2.964   1.559 -2.6783  0.8533  0.4358
  378SOL     MW 1512   0.941   2.897   1.585  0.1422  0.0259  0.1531
  379SOL     OW 1513   1.113   1.652   2.165 -0.1071  0.1030  0.2983
  379SOL    HW1 1514   1.022   1.615   2.163 -0.3686 -0.2702  1.3575
  379SOL    HW2 1515   1.162   1.613   2.096  0.1834 -0.3467 -0.1360
  379SOL     MW 1516   1.108   1.642   2.156 -0.1033 -0.0056  0.3807
  380SOL     OW 1517   0.905   0.065   1.448 -0.3618 -0.0601 -0.6856
  380SOL    HW1 1518   0.962   0.008   1.397  2.5591  0.9403  1.1988
  380SOL    HW2 1519   0.952   0.090   1.532  0.7800 -1.8470 -2.6588
  380SOL     MW 1520   0.919   0.061   1.453  0.1742 -0.1639 -0.6974
  381SOL     OW 1521   0.769   2.077   0.832  0.7258 -0.5162 -0.6823
  381SOL    HW1 1522   0.864   2.073   0.817 -0.4592  1.0700 -0.4992
  381SOL    HW2 1523   0.759   2.138   0.909 -0.5717  1.2188  2.5243
  381SOL     MW 1524   0.780   2.085   0.840  0.3982 -0.0780 -0.2351
  382SOL     OW 1525   0.765   0.149   0.638  0.3635 -0.1238  0.4135
  382SOL    HW1 1526   0.710   0.198   0.699 -0.0692 -0.1141  1.7032
  382SOL    HW2 1527   0.732   0.060   0.645  0.5081  1.5477 -1.7990
  382SOL     MW 1528   0.753   0.144   0.647  0.3254  0.0980  0.2917
  383SOL     OW 1529   0.568   0.047   0.282  0.1409  0.3525  0.1420
  383SOL    HW1 1530   0.611  -0.021   0.230  2.1874 -0.4869  0.5779
  383SOL    HW2 1531   0.536   0.010   0.363 -0.5684 -0.6729 -1.6275
  383SOL     MW 1532   0.570   0.033   0.286  0.3173  0.1065 -0.0340
  384SOL     OW 1533   0.749   2.965   0.598 -0.6488 -0.5487 -0.1141
  384SOL    HW1 1534   0.821   2.933   0.656  1.0307 -1.4945  0.6146
  384SOL    HW2 1535   0.688   2.889   0.590  0.8461  2.0290  2.4872
  384SOL     MW 1536   0.750   2.951   0.604 -0.2300 -0.3334  0.3252
  385SOL     OW 1537   1.451   2.044   1.548 -0.1230  0.1038  0.0886
  385SOL    HW1 1538   1.515   2.105   1.592 -1.8983  0.3658  0.9981
  385SOL    HW2 1539   1.408   1.985   1.615  1.6321 -0.9482 -1.0766
  385SOL     MW 1540   1.454   2.044   1.563 -0.1257 -0.0004  0.0549
  386SOL     OW 1541   1.314   0.355   0.849  0.8084  0.3201  0.1094
  386SOL    HW1 1542   1.276   0.410   0.919  1.2993 -1.4893  1.1300
  386SOL    HW2 1543   1.324   0.268   0.891  1.2970  0.5507 -0.9813
  386SOL     MW 1544   1.311   0.350   0.864  0.9376  0.1118  0.1001
  387SOL     OW 1545   0.786   2.140   1.490  0.0933 -0.2836  0.1636
  387SOL    HW1 1546   0.870   2.182   1.498 -2.4691 -2.8861 -1.1676
  387SOL    HW2 1547   0.815   2.055   1.466 -0.7563  1.3962  0.2142
  387SOL     MW 1548   0.801   2.134   1.488 -0.3569 -0.4054 -0.0054
  388SOL     OW 1549   1.509   2.750   1.303 -0.9082 -0.3386 -0.0778
  388SOL    HW1 1550   1.437   2.811   1.319 -0.6132  3.1803 -0.5676
  388SOL    HW2 1551   1.483   2.668   1.265  0.6558  2.8682  1.5699
  388SOL     MW 1552   1.496   2.747   1.300 -0.6629  0.5488  0.0750
  389SOL     OW 1553   0.569   0.144   3.047  0.2273 -0.5403 -0.0258
  389SOL    HW1 1554   0.655   0.088   3.038  0.5048 -0.9175 -2.3554
  389SOL    HW2 1555   0.539   0.162   2.954 -2.4117  2.8618  3.6225
  389SOL     MW 1556   0.577   0.139   3.034 -0.0843 -0.1412  0.1482
  390SOL     OW 1557   1.350   0.049   0.696 -0.0457  0.0772  0.3453
  390SOL    HW1 1558   1.391   0.072   0.614  4.4741  1.1459  1.1403
  390SOL    HW2 1559   1.417   0.068   0.765 -1.2265 -2.5588 -1.2515
  390SOL     MW 1560   1.364   0.055   0.694  0.3948 -0.1296  0.2395
  391SOL     OW 1561   0.397   2.190   1.494 -0.5234  0.0724  0.4920
  391SOL    HW1 1562   0.370   2.098   1.501 -0.9370 -0.3883 -0.8577
  391SOL    HW2 1563   0.318   2.247   1.491 -0.7823 -0.0834 -1.8172
  391SOL     MW 1564   0.383   2.185   1.494 -0.6121 -0.0089  0.0092
  392SOL     OW 1565   2.066   2.225   0.279 -0.2096 -0.2866 -0.3386
  392SOL    HW1 1566   2.146   2.224   0.332  0.5232  2.1084  1.3989
  392SOL    HW2 1567   2.003   2.284   0.316 -1.0856  2.7736 -2.2056
  392SOL     MW 1568   2.069   2.233   0.291 -0.2285  0.4332 -0.3557
  393SOL     OW 1569   0.284   2.939   2.844 -0.7894  0.2256  0.7031
  393SOL    HW1 1570   0.367   2.936   2.798  0.9716  1.6534  1.1065
  393SOL    HW2 1571   0.260   3.034   2.838 -1.0171  1.6186 -1.1044
  393SOL     MW 1572   0.292   2.951   2.837 -0.5871  0.5977  0.5178
  394SOL     OW 1573   0.980   1.703   1.551 -0.3271  0.2884  0.0578
  394SOL    HW1 1574   0.987   1.715   1.649  2.8555  1.8600  0.4409
  394SOL    HW2 1575   0.971   1.789   1.520  2.0515 -0.7335  3.0439
  394SOL     MW 1576   0.979   1.716   1.560  0.4066  0.3609  0.5024
  395SOL     OW 1577   0.970   2.962   2.537 -0.0852 -0.3895  0.3204
  395SOL    HW1 1578   0.981   2.995   2.627 -0.8502 -1.5807 -0.0933
  395SOL    HW2 1579   1.040   2.901   2.536  0.9963  0.5879 -2.1390
  395SOL     MW 1580   0.981   2.958   2.549 -0.0435 -0.4177 -0.0587
  396SOL     OW 1581   0.714   1.880   2.437  0.3953  0.0267 -0.0846
  396SOL    HW1 1582   0.792   1.904   2.493  2.2838 -0.9810 -0.8195
  396SOL    HW2 1583   0.729   1.786   2.431  1.2156  0.2996  0.7757
  396SOL     MW 1584   0.726   1.871   2.444  0.7527 -0.0702 -0.0680
  397SOL     OW 1585   1.006   2.321   1.432 -0.7043 -0.2665 -0.0714
  397SOL    HW1 1586   1.025   2.349   1.337  2.0873  2.8389 -1.7040
  397SOL    HW2 1587   1.090   2.284   1.469 -0.0643  1.3165  1.2412
  397SOL     MW 1588   1.019   2.320   1.424 -0.2516  0.3520 -0.1136
  398SOL     OW 1589   0.606   2.731   0.600 -0.5921  0.3939 -0.4086
  398SOL    HW1 1590   0.524   2.684   0.568  0.5454 -0.2836 -2.3059
  398SOL    HW2 1591   0.665   2.657   0.615 -0.3250 -0.7068  0.6605
  398SOL     MW 1592   0.603   2.715   0.598 -0.4068  0.1593 -0.5179
  399SOL     OW 1593   0.215   2.095   0.330 -0.6239  0.0773 -0.6678
  399SOL    HW1 1594   0.123   2.096   0.337  2.6555 -1.4852  0.9061
  399SOL    HW2 1595   0.243   2.124   0.237  0.1525 -0.1733 -2.0358
  399SOL     MW 1596   0.206   2.099   0.319 -0.0888 -0.1619 -0.6407
  400SOL     OW 1597   0.568   1.973   0.096  0.1558 -1.2766  0.4519
  400SOL    HW1 1598   0.485   2.021   0.095 -0.9984 -1.6137 -0.7205
  400SOL    HW2 1599   0.558   1.903   0.156  0.4157  1.2476  0.2339
  400SOL     MW 1600   0.555   1.970   0.104  0.0378 -0.9881  0.2685
  401SOL     OW 1601   0.824   2.096   0.068  0.4747 -0.4733 -0.4701
  401SOL    HW1 1602   0.884   2.039   0.117  0.4076 -2.1589 -1.0697
  401SOL    HW2 1603   0.741   2.044   0.067 -1.6400  2.9316 -3.3767
  401SOL     MW 1604   0.821   2.082   0.074  0.1868 -0.2465 -0.9327
  402SOL     OW 1605   0.561   2.979   1.717 -0.0740 -0.1160  0.2594
  402SOL    HW1 1606   0.642   2.955   1.766 -2.1921 -1.5538  0.2952
  402SOL    HW2 1607   0.587   3.067   1.681 -1.1717  1.2104 -0.1773
  402SOL     MW 1608   0.575   2.987   1.719 -0.4983 -0.1307  0.2065
  403SOL     OW 1609   0.101   0.500   0.369  0.4070  0.6452 -0.0519
  403SOL    HW1 1610   0.185   0.514   0.425  1.7284  1.4509  1.1741
  403SOL    HW2 1611   0.132   0.456   0.293  0.4853  2.4648  2.3416
  403SOL     MW 1612   0.116   0.496   0.367  0.5917  0.9916  0.4256
  404SOL     OW 1613   0.973   2.907   0.760  0.1361  0.2121  0.3129
  404SOL    HW1 1614   1.053   2.870   0.735 -0.8913  0.0342 -0.5070
  404SOL    HW2 1615   0.999   3.000   0.762  0.4768 -1.9656  2.2579
  404SOL     MW 1616   0.987   2.914   0.757  0.0455 -0.0987  0.4614
  405SOL     OW 1617   0.490   2.469   1.523 -0.3572  0.8452 -0.1759
  405SOL    HW1 1618   0.498   2.542   1.463  2.0147 -2.2396  0.7777
  405SOL    HW2 1619   0.542   2.403   1.479 -0.5241 -1.3239 -2.0551
  405SOL     MW 1620   0.498   2.470   1.509 -0.0663  0.1520 -0.2981
  406SOL     OW 1621   0.361   2.397   1.132  0.2762 -0.5020  0.9461
  406SOL    HW1 1622   0.265   2.388   1.160 -0.8735  0.0118 -0.5474
  406SOL    HW2 1623   0.404   2.309   1.141 -0.6792 -0.8654  0.3536
  406SOL     MW 1624   0.354   2.384   1.137 -0.0015 -0.4822  0.6709
  407SOL     OW 1625   0.075   2.668   1.155  0.1696 -0.0813 -0.2160
  407SOL    HW1 1626   0.120   2.640   1.239 -0.2432 -0.7714  1.6160
  407SOL    HW2 1627   0.133   2.701   1.089 -0.4851  0.7071 -0.6678
  407SOL     MW 1628   0.089   2.669   1.157  0.0287 -0.0683 -0.0339
  408SOL     OW 1629   2.127   2.110   0.693 -1.0408 -0.0895  0.8514
  408SOL    HW1 1630   2.078   2.160   0.751  0.2923 -1.4356 -0.5926
  408SOL    HW2 1631   2.062   2.070   0.638  3.3858 -0.8825  0.8188
  408SOL     MW 1632   2.112   2.111   0.694 -0.2809 -0.3718  0.6566
  409SOL     OW 1633   1.512   0.141   0.901  0.7266  0.1970 -0.4660
  409SOL    HW1 1634   1.592   0.199   0.915  0.5323  1.3555  0.3731
  409SOL    HW2 1635   1.509   0.086   0.980 -0.2213 -2.6465 -0.1007
  409SOL     MW 1636   1.522   0.141   0.913  0.5759 -0.0253 -0.3071
  410SOL     OW 1637   1.046   2.439   1.177 -0.1365  0.4296 -0.0965
  410SOL    HW1 1638   0.981   2.490   1.124 -0.7891  1.1207  1.6413
  410SOL    HW2 1639   1.111   2.419   1.106 -0.6458  1.1899 -2.8257
  410SOL     MW 1640   1.046   2.443   1.161 -0.2898  0.6211 -0.2273
  411SOL     OW 1641   1.983   3.052   2.903  0.4523 -0.4491  0.0797
  411SOL    HW1 1642   1.904   3.026   2.856  0.0902 -0.4411 -2.0831
  411SOL    HW2 1643   1.951   3.132   2.946  1.1893  1.7684 -2.1490
  411SOL     MW 1644   1.968   3.059   2.903  0.5018 -0.1555 -0.4997
  412SOL     OW 1645   1.066   2.260   0.606 -0.1921  0.3836 -0.3603
  412SOL    HW1 1646   1.096   2.326   0.667 -0.0615 -1.3596 -2.4220
  412SOL    HW2 1647   0.979   2.279   0.570  0.1352 -2.9902 -1.4495
  412SOL     MW 1648   1.058   2.271   0.609 -0.1316 -0.2916 -0.7760
  413SOL     OW 1649   0.582   2.757   0.055  0.0296  0.7165 -0.0930
  413SOL    HW1 1650   0.630   2.670   0.036  4.2661  0.2287 -1.3333
  413SOL    HW2 1651   0.586   2.805  -0.026 -0.7318 -0.6988  2.4477
  413SOL     MW 1652   0.589   2.752   0.041  0.4881  0.4654  0.0786
  414SOL     OW 1653   2.042   2.997   1.173 -0.0218  0.7108 -0.3203
  414SOL    HW1 1654   2.082   3.088   1.164  1.4676 -0.2451 -0.9137
  414SOL    HW2 1655   2.001   2.986   1.086 -2.5647 -0.6409  1.0113
  414SOL     MW 1656   2.042   3.008   1.160 -0.1608  0.4063 -0.2229
  415SOL     OW 1657   1.662   2.807   1.077 -0.8762 -0.0602 -0.0273
  415SOL    HW1 1658   1.632   2.771   1.160  0.9274 -0.7166  0.0039
  415SOL    HW2 1659   1.756   2.821   1.085 -0.7823  0.4056  0.5722
  415SOL     MW 1660   1.671   2.804   1.089 -0.6258 -0.0853  0.0559
  416SOL     OW 1661   0.571   1.809   1.434  0.4830 -0.7308  0.5153
  416SOL    HW1 1662   0.492   1.797   1.482 -2.7596 -2.3243 -0.3113
  416SOL    HW2 1663   0.614   1.726   1.431  2.0468 -0.6168 -2.3472
  416SOL     MW 1664   0.566   1.797   1.440  0.2615 -0.9260  0.0286
  417SOL     OW 1665   0.989   3.030   2.044 -0.3814 -0.2152 -0.2772
  417SOL    HW1 1666   0.929   3.037   2.118  0.5027  2.8912  0.3334
  417SOL    HW2 1667   0.934   3.021   1.963  3.1319 -1.5963  2.0096
  417SOL     MW 1668   0.974   3.030   2.043  0.1988  0.0124  0.1051
  418SOL     OW 1669   0.740   2.962   0.168  0.0003 -0.1610  0.2453
  418SOL    HW1 1670   0.813   2.920   0.118  2.3542  3.1528 -0.6720
  418SOL    HW2 1671   0.672   2.895   0.153 -0.5063 -0.6711  3.9157
  418SOL     MW 1672   0.740   2.947   0.159  0.2440  0.2089  0.6086
  419SOL     OW 1673   0.521   2.682   1.355  0.1233 -0.3693  0.0560
  419SOL    HW1 1674   0.561   2.745   1.414  1.1725  0.6894 -4.1398
  419SOL    HW2 1675   0.600   2.628   1.340  2.8063  1.0820  0.2694
  419SOL     MW 1676   0.537   2.683   1.361  0.6157 -0.0381 -0.4694
  420SOL     OW 1677   0.763   2.225   1.083 -0.2284  0.3586 -0.1582
  420SOL    HW1 1678   0.727   2.256   1.169 -0.0891 -0.0902  0.3766
  420SOL    HW2 1679   0.788   2.312   1.040 -0.2651  0.6696 -0.4687
  420SOL     MW 1680   0.761   2.240   1.088 -0.2149  0.3404 -0.1286
  421SOL     OW 1681   2.940   0.161   3.093 -0.3051 -0.2495 -0.1734
  421SOL    HW1 1682   2.894   0.103   3.029  0.7604 -4.1134  0.1518
  421SOL    HW2 1683   2.986   0.095   3.143  0.0786  0.2580 -0.9041
  421SOL     MW 1684   2.940   0.145   3.091 -0.1139 -0.6923 -0.2269
  422SOL     OW 1685   0.819   2.492   0.954  0.4033  0.2453  0.3503
  422SOL    HW1 1686   0.745   2.554   0.976 -1.3741 -0.2679  0.1219
  422SOL    HW2 1687   0.827   2.496   0.859 -2.4421 -2.7126 -0.1574
  422SOL     MW 1688   0.810   2.501   0.945 -0.2066 -0.2127  0.2532
  423SOL     OW 1689   1.479   0.065   0.449 -0.6609 -0.1736 -0.1916
  423SOL    HW1 1690   1.501   0.064   0.355  3.2403 -2.6916 -2.7160
  423SOL    HW2 1691   1.486   0.156   0.485  1.8876 -0.5827  2.2268
  423SOL     MW 1692   1.483   0.077   0.442  0.1901 -0.5598 -0.2056
  424SOL     OW 1693   0.654   2.303   1.317  0.1136  0.2450  0.4890
  424SOL    HW1 1694   0.566   2.261   1.305 -0.4440 -1.1542  2.3120
  424SOL    HW2 1695   0.706   2.235   1.365 -2.6776 -0.6141  1.1413
  424SOL     MW 1696   0.649   2.288   1.322 -0.3282 -0.0530  0.8156
  425SOL     OW 1697   1.709   2.766   2.055 -0.2876  0.3543  0.1781
  425SOL    HW1 1698   1.701   2.751   1.961 -0.1977 -1.9919  0.2807
  425SOL    HW2 1699   1.738   2.674   2.086 -1.2781  0.5278  1.1867
  425SOL     MW 1700   1.712   2.752   2.047 -0.4064  0.0676  0.3247
  426SOL     OW 1701   0.849   1.747   1.998  0.6116  0.2452  0.0773
  426SOL    HW1 1702   0.792   1.750   1.922 -1.5922 -1.7059 -0.9257
  426SOL    HW2 1703   0.848   1.833   2.046 -2.9551  1.7630  1.1598
  426SOL     MW 1704   0.841   1.758   1.994 -0.1498  0.1880  0.0878
  427SOL     OW 1705   0.363   1.695   1.871 -0.3050  0.1010  0.4485
  427SOL    HW1 1706   0.423   1.641   1.818  1.9478  0.8110 -1.6140
  427SOL    HW2 1707   0.320   1.638   1.941  0.8953  0.8904 -0.8396
  427SOL     MW 1708   0.366   1.680   1.873  0.1506  0.2988  0.0064
  428SOL     OW 1709   0.552   2.578   1.095  0.1263  0.0184  0.2601
  428SOL    HW1 1710   0.489   2.516   1.135  0.2186 -1.3809  0.0971
  428SOL    HW2 1711   0.554   2.664   1.148 -1.8165  1.8988  4.1246
  428SOL     MW 1712   0.544   2.581   1.107 -0.1179  0.0819  0.7485
  429SOL     OW 1713   1.216   2.764   1.148  0.1328 -0.7041 -0.2396
  429SOL    HW1 1714   1.127   2.770   1.179  0.0966 -1.2222  1.1359
  429SOL    HW2 1715   1.242   2.841   1.099  0.0424 -0.3612  1.3927
  429SOL     MW 1716   1.208   2.775   1.145  0.1161 -0.7272  0.1572
  430SOL     OW 1717   1.164   2.714   0.703  0.5027 -0.2209  0.4697
  430SOL    HW1 1718   1.194   2.630   0.732  0.1871 -1.0440  0.9981
  430SOL    HW2 1719   1.118   2.705   0.610  0.4935  0.6752 -0.9446
  430SOL     MW 1720   1.162   2.702   0.695  0.4599 -0.2113  0.3528
  431SOL     OW 1721   0.316   1.950   1.128 -0.3771  0.0412  0.6738
  431SOL    HW1 1722   0.378   1.876   1.101 -0.0261 -0.1058 -2.9718
  431SOL    HW2 1723   0.280   1.980   1.040 -0.6303 -1.7779  0.8978
  431SOL     MW 1724   0.319   1.944   1.113 -0.3642 -0.2182  0.2224
  432SOL     OW 1725   0.041   0.018   1.116  0.0078  0.4779  0.2111
  432SOL    HW1 1726   0.058   0.070   1.197 -3.2270  0.1243 -1.0906
  432SOL    HW2 1727  -0.007  -0.061   1.145 -0.1992 -0.6146  0.4645
  432SOL     MW 1728   0.037   0.014   1.130 -0.4463  0.2871  0.0728
  433SOL     OW 1729   0.671   2.888   1.482  0.0030  0.2355  0.0179
  433SOL    HW1 1730   0.623   2.906   1.571 -0.5496 -0.3016  1.4000
  433SOL    HW2 1731   0.767   2.908   1.492  3.2350  3.2403 -3.6750
  433SOL     MW 1732   0.677   2.893   1.495  0.3565  0.5611 -0.2870
  434SOL     OW 1733   1.558   2.787   1.551  0.1767  0.1404  0.6176
  434SOL    HW1 1734   1.474   2.825   1.561  0.1109 -1.3087  0.2381
  434SOL    HW2 1735   1.554   2.748   1.461 -0.5788  0.4089  0.2906
  434SOL     MW 1736   1.546   2.787   1.541  0.0684 -0.0154  0.5244
  435SOL     OW 1737   2.755   1.768   0.206 -0.0826 -0.0244 -0.0732
  435SOL    HW1 1738   2.836   1.817   0.169  0.4340 -0.7715  0.9960
  435SOL    HW2 1739   2.694   1.788   0.138  2.3105  0.3816  2.3545
  435SOL     MW 1740   2.758   1.777   0.192  0.3013 -0.0694  0.3882
  436SOL     OW 1741   1.416   2.700   0.365 -0.1047  0.4167 -0.1938
  436SOL    HW1 1742   1.430   2.690   0.461 -1.1066 -1.3457  0.6278
  436SOL    HW2 1743   1.378   2.792   0.362 -0.3778 -0.0497 -1.1313
  436SOL     MW 1744   1.412   2.711   0.377 -0.2729  0.1226 -0.2091
  437SOL     OW 1745   1.050   2.957   1.323  0.5952  0.1851 -0.1070
  437SOL    HW1 1746   1.067   3.020   1.251  1.1645 -0.3253  1.5183
  437SOL    HW2 1747   0.979   2.898   1.296  1.7193  0.9563  0.5516
  437SOL     MW 1748   1.043   2.957   1.310  0.8186  0.2195  0.1943
  438SOL     OW 1749   0.855   2.703   1.909  0.6072  1.2600  0.2174
  438SOL    HW1 1750   0.878   2.660   1.990  1.0071 -2.8335  0.0759
  438SOL    HW2 1751   0.783   2.643   1.877  2.6637  0.5771 -0.0151
  438SOL     MW 1752   0.848   2.689   1.916  0.9313  0.6298  0.1680
  439SOL     OW 1753   1.158   2.098   0.420 -0.4054 -0.2620  0.7952
  439SOL    HW1 1754   1.119   2.159   0.484  0.8568  2.5031 -1.2993
  439SOL    HW2 1755   1.168   2.161   0.344 -0.4628 -0.2579  1.8180
  439SOL     MW 1756   1.154   2.114   0.418 -0.2464  0.1034  0.6538
  440SOL     OW 1757   1.725   2.952   3.069  1.0516  0.0650  0.1051
  440SOL    HW1 1758   1.657   2.976   3.131  0.2879 -0.6688  0.4245
  440SOL    HW2 1759   1.802   2.932   3.124  2.4886 -1.3640  0.7816
  440SOL     MW 1760   1.726   2.952   3.085  1.1405 -0.2204  0.2365
  441SOL     OW 1761   0.363   2.650   0.510  0.0635 -0.0657  0.1739
  441SOL    HW1 1762   0.368   2.604   0.420 -1.9879 -0.8672 -1.9432
  441SOL    HW2 1763   0.379   2.745   0.481  0.7434 -2.4757 -0.5779
  441SOL     MW 1764   0.366   2.657   0.494 -0.1175 -0.4895 -0.2046
  442SOL     OW 1765   3.082   2.342   0.597  0.1679 -0.7464  0.1712
  442SOL    HW1 1766   3.095   2.432   0.565 -0.6233  1.2865 -3.7696
  442SOL    HW2 1767   2.994   2.327   0.624  2.6831 -0.7301  0.0633
  442SOL     MW 1768   3.072   2.352   0.596  0.3954 -0.4760 -0.3630
  443SOL     OW 1769   1.510   1.750   1.923 -0.6479  0.1440 -1.3863
  443SOL    HW1 1770   1.487   1.783   1.834  0.5546  2.9083 -1.5407
  443SOL    HW2 1771   1.442   1.689   1.951 -0.4128  0.7278  2.6005
  443SOL     MW 1772   1.498   1.746   1.915 -0.4582  0.5858 -0.8806
  444SOL     OW 1773   0.935   2.602   1.582  0.2430  0.3859  0.2451
  444SOL    HW1 1774   1.004   2.574   1.641 -0.8288 -1.2623  1.9643
  444SOL    HW2 1775   0.852   2.593   1.634  0.1322 -2.6711  1.9213
  444SOL     MW 1776   0.933   2.597   1.596  0.0870 -0.2349  0.6931
  445SOL     OW 1777   1.204   0.161   1.410  0.1294 -0.3972  0.5848
  445SOL    HW1 1778   1.146   0.198   1.478  0.9455  1.8835  2.8058
  445SOL    HW2 1779   1.172   0.186   1.322  1.7964 -0.7182 -0.4607
  445SOL     MW 1780   1.192   0.169   1.407  0.4570 -0.1386  0.7399
  446SOL     OW 1781   2.800   2.856   1.030  0.2928 -0.2474 -0.0444
  446SOL    HW1 1782   2.745   2.892   0.955 -1.2902  1.9551  1.7054
  446SOL    HW2 1783   2.842   2.779   0.987 -1.8679  0.4711 -0.2878
  446SOL     MW 1784   2.798   2.851   1.014 -0.2012  0.1380  0.1543
  447SOL     OW 1785   0.016   1.980   1.615 -0.2283 -0.2133 -0.7451
  447SOL    HW1 1786   0.034   1.917   1.679  0.0588  1.3136 -0.9899
  447SOL    HW2 1787  -0.050   1.930   1.556 -1.0985 -0.2832  0.2126
  447SOL     MW 1788   0.010   1.965   1.615 -0.3052 -0.0210 -0.6511
  448SOL     OW 1789   1.774   2.443   1.671  0.4053  0.2923  0.0036
  448SOL    HW1 1790   1.745   2.350   1.649 -0.4400 -1.2238  0.7732
  448SOL    HW2 1791   1.687   2.478   1.679  1.3861  0.4613  0.5537
  448SOL     MW 1792   1.758   2.435   1.669  0.4232  0.1146  0.1777
  449SOL     OW 1793   0.904   2.930   0.380 -0.3438  0.9432 -0.2583
  449SOL    HW1 1794   0.845   2.947   0.307  2.1733 -0.3067 -0.9675
  449SOL    HW2 1795   0.840   2.930   0.453  0.9608  2.8139 -2.8585
  449SOL     MW 1796   0.887   2.933   0.380  0.1605  1.0251 -0.6949
  450SOL     OW 1797   1.186   2.439   0.763 -0.1106  0.3559  0.5038
  450SOL    HW1 1798   1.214   2.419   0.852 -1.5931 -0.4133  0.8921
  450SOL    HW2 1799   1.257   2.413   0.703  1.1644 -1.1865  1.9640
  450SOL     MW 1800   1.199   2.433   0.767 -0.1380  0.0509  0.7477
  451SOL     OW 1801   0.594   1.999   1.702 -0.4769 -0.1024  0.5150
  451SOL    HW1 1802   0.647   2.083   1.701 -0.8336  1.3220 -3.0150
  451SOL    HW2 1803   0.591   1.975   1.606 -2.0939  0.8786  0.0806
  451SOL     MW 1804   0.601   2.007   1.689 -0.7373  0.2150 -0.0081
  452SOL     OW 1805   0.341   2.628   0.045  0.8458  0.1892  0.1505
  452SOL    HW1 1806   0.430   2.680   0.045 -2.8642  1.0184  1.7889
  452SOL    HW2 1807   0.267   2.694   0.030 -1.1562  1.6684 -0.7849
  452SOL     MW 1808   0.343   2.644   0.043  0.0922  0.4938  0.2433
  453SOL     OW 1809   0.326   3.073   1.610 -0.5720  0.2962 -0.4029
  453SOL    HW1 1810   0.399   3.033   1.651  0.6266  1.5074 -2.2283
  453SOL    HW2 1811   0.356   3.080   1.514 -2.8390  1.0683 -3.9401
  453SOL     MW 1812   0.339   3.068   1.603 -0.7129  0.5579 -1.1104
  454SOL     OW 1813   0.932   2.737   1.200 -0.0881  0.2724  0.3823
  454SOL    HW1 1814   0.867   2.694   1.247 -1.0077  1.8557  1.2661
  454SOL    HW2 1815   0.897   2.767   1.113  2.0070 -0.2103 -1.7457
  454SOL     MW 1816   0.919   2.736   1.195  0.0670  0.4176  0.2181
  455SOL     OW 1817   1.658   2.881   0.259  0.1207  0.0253  0.0589
  455SOL    HW1 1818   1.686   2.855   0.344 -0.0359 -0.0067  1.5103
  455SOL    HW2 1819   1.654   2.808   0.200 -1.0242  3.1028 -2.4883
  455SOL     MW 1820   1.661   2.868   0.262 -0.0510  0.4271 -0.0857
  456SOL     OW 1821   2.726   0.296   1.520  0.3944 -0.1272 -0.5090
  456SOL    HW1 1822   2.737   0.240   1.445 -0.8466  0.2302  0.4512
  456SOL    HW2 1823   2.765   0.376   1.492  1.1349 -3.4635  0.3288
  456SOL     MW 1824   2.733   0.299   1.507  0.3283 -0.5203 -0.2718
  457SOL     OW 1825   0.788   1.607   3.035 -0.0437  0.7774  0.1066
  457SOL    HW1 1826   0.689   1.611   3.025  0.0943  1.1622  2.5013
  457SOL    HW2 1827   0.827   1.664   3.105  0.2676  0.9891 -1.6103
  457SOL     MW 1828   0.780   1.615   3.043  0.0156  0.8561  0.1960
  458SOL     OW 1829   1.359   1.463   0.684  0.2367 -0.2383 -0.4305
  458SOL    HW1 1830   1.298   1.509   0.624 -1.3798  2.8200 -1.1484
  458SOL    HW2 1831   1.341   1.371   0.664  0.5538 -0.3973  1.5165
  458SOL     MW 1832   1.348   1.457   0.673  0.0653  0.1442 -0.2683
  459SOL     OW 1833   1.542   0.040   0.198  0.0059 -0.0366  0.0509
  459SOL    HW1 1834   1.565  -0.052   0.195  0.4305 -0.1033 -2.2718
  459SOL    HW2 1835   1.486   0.065   0.121  0.9097  1.1584  1.8242
  459SOL     MW 1836   1.538   0.031   0.187  0.1812  0.1123 -0.0216
  460SOL     OW 1837   1.799   2.178   0.663 -0.1496  0.3720  0.9017
  460SOL    HW1 1838   1.703   2.169   0.681 -0.0759  0.6621 -0.6396
  460SOL    HW2 1839   1.835   2.090   0.655 -1.7122  0.3517 -0.8464
  460SOL     MW 1840   1.791   2.165   0.664 -0.3461  0.4076  0.4677
  461SOL     OW 1841   0.468   2.434   0.619 -0.1269 -0.3789 -0.1541
  461SOL    HW1 1842   0.414   2.500   0.584  2.2825 -0.6149 -0.4507
  461SOL    HW2 1843   0.438   2.424   0.709  1.8232  1.4983 -0.9854
  461SOL     MW 1844   0.457   2.441   0.626  0.4483 -0.1624 -0.3029
  462SOL     OW 1845   0.333   0.236   1.278  0.7028 -0.1367  0.7583
  462SOL    HW1 1846   0.391   0.226   1.198 -0.0670  0.7263  1.4148
  462SOL    HW2 1847   0.403   0.246   1.346 -3.1735 -0.3127  0.6953
  462SOL     MW 1848   0.350   0.236   1.276  0.0898 -0.0460  0.8366
  463SOL     OW 1849   1.014   0.067   0.707  0.5426 -0.0827  0.2892
  463SOL    HW1 1850   1.069   0.058   0.630 -2.6704 -0.5230  1.0719
  463SOL    HW2 1851   0.925   0.087   0.674  3.7554 -1.4035  1.5538
  463SOL     MW 1852   1.010   0.068   0.692  0.5425 -0.3151  0.5593
  464SOL     OW 1853   0.788   3.035   2.230 -0.1041  0.1385  0.1279
  464SOL    HW1 1854   0.783   2.946   2.267  1.4724  0.2690  0.6120
  464SOL    HW2 1855   0.813   3.091   2.298 -0.0618 -0.7872  0.1971
  464SOL     MW 1856   0.791   3.030   2.244  0.1095  0.0336  0.2009
  465SOL     OW 1857   0.864   0.312   0.412  0.0511  0.6956  0.0816
  465SOL    HW1 1858   0.823   0.271   0.488  1.5269  1.7011 -0.3126
  465SOL    HW2 1859   0.832   0.270   0.327  0.8455 -0.4495 -3.7729
  465SOL     MW 1860   0.854   0.301   0.410  0.3506  0.6771 -0.4790
  466SOL     OW 1861   1.028   2.050   0.774  0.1861  0.0478 -0.8291
  466SOL    HW1 1862   1.043   1.969   0.732  2.1052  1.2276  0.0720
  466SOL    HW2 1863   1.056   2.128   0.715  0.0048  0.7645  1.5194
  466SOL     MW 1864   1.033   2.050   0.761  0.4154  0.2980 -0.4003
  467SOL     OW 1865   1.253   2.354   1.006  0.1902  0.5589 -0.2666
  467SOL    HW1 1866   1.346   2.375   1.004  0.2745 -1.5451  0.8313
  467SOL    HW2 1867   1.251   2.258   0.995  0.9708 -0.7615  0.2436
  467SOL     MW 1868   1.265   2.344   1.005  0.3043  0.1070 -0.0544
  468SOL     OW 1869   0.467   2.671   1.901 -0.6013  0.3102 -0.6215
  468SOL    HW1 1870   0.471   2.590   1.845 -1.9733  0.3232 -0.4606
  468SOL    HW2 1871   0.414   2.731   1.853 -0.6252  0.0231 -1.9760
  468SOL     MW 1872   0.461   2.669   1.888 -0.7855  0.2740 -0.7790
  469SOL     OW 1873   0.391   2.137   1.861  0.3093  0.4111  0.4547
  469SOL    HW1 1874   0.304   2.095   1.848 -2.1952  2.1769 -0.5766
  469SOL    HW2 1875   0.454   2.080   1.814 -1.2652  1.5940  0.3967
  469SOL     MW 1876   0.388   2.124   1.853 -0.2289  0.8001  0.3110
  470SOL     OW 1877   3.096   2.577   0.168 -0.2051  0.3503 -0.4110
  470SOL    HW1 1878   3.014   2.583   0.227 -0.0316  1.1733 -0.3164
  470SOL    HW2 1879   3.060   2.586   0.079 -0.8789 -1.1357 -4.0903
  470SOL     MW 1880   3.080   2.579   0.164 -0.2711  0.2628 -0.8840
  471SOL     OW 1881   1.190   2.561   1.383 -0.4229 -0.4006  0.0627
  471SOL    HW1 1882   1.122   2.515   1.437 -1.6028 -3.2709  0.0036
  471SOL    HW2 1883   1.171   2.549   1.290  0.5641 -1.8934 -2.4007
  471SOL     MW 1884   1.179   2.554   1.378 -0.4483 -0.9762 -0.2701
  472SOL     OW 1885   2.789   2.078   0.356  0.0171  0.0792  0.6443
  472SOL    HW1 1886   2.825   2.054   0.268  0.5502  0.2632 -2.1413
  472SOL    HW2 1887   2.789   1.996   0.411 -0.8045  0.2478  0.2920
  472SOL     MW 1888   2.794   2.064   0.352 -0.0210  0.1257  0.2303
  473SOL     OW 1889   0.786   2.539   1.346 -0.4703 -0.2411  0.3745
  473SOL    HW1 1890   0.755   2.450   1.325 -0.2905 -1.1346 -1.3510
  473SOL    HW2 1891   0.850   2.531   1.415 -0.5373  1.2800  1.8373
  473SOL     MW 1892   0.791   2.526   1.353 -0.4554 -0.1583  0.3398
  474SOL     OW 1893   0.733   2.274   1.767 -0.5342  0.6663 -0.4718
  474SOL    HW1 1894   0.814   2.303   1.811  0.5901  0.3133 -0.4410
  474SOL    HW2 1895   0.760   2.253   1.673  0.2617  0.6018 -2.7676
  474SOL     MW 1896   0.748   2.275   1.760 -0.2808  0.6112 -0.7706
  475SOL     OW 1897   1.628   3.080   1.442  0.1069  0.4633  0.4519
  475SOL    HW1 1898   1.544   3.108   1.413 -0.8200  1.1956 -0.3133
  475SOL    HW2 1899   1.609   2.994   1.476  1.6931  1.4982  0.7333
  475SOL     MW 1900   1.614   3.072   1.443  0.1939  0.6965  0.3881
  476SOL     OW 1901   1.416   2.617   1.051 -0.1336 -0.0404  0.9918
  476SOL    HW1 1902   1.341   2.652   1.101 -0.2280 -1.5171  2.5822
  476SOL    HW2 1903   1.442   2.685   0.990 -0.0636 -0.1239 -0.5352
  476SOL     MW 1904   1.409   2.631   1.050 -0.1368 -0.2462  1.0002
  477SOL     OW 1905   0.771   2.530   0.644  0.6378  0.8248 -0.1491
  477SOL    HW1 1906   0.851   2.551   0.603 -0.3310  0.8542 -1.2349
  477SOL    HW2 1907   0.764   2.438   0.604  1.2148  0.5297  0.2219
  477SOL     MW 1908   0.780   2.520   0.633  0.5861  0.7898 -0.2434
  478SOL     OW 1909   0.153   2.686   0.882 -0.7066 -0.0877  0.2061
  478SOL    HW1 1910   0.213   2.756   0.854 -3.1990  1.8835  2.4064
  478SOL    HW2 1911   0.210   2.610   0.877 -2.4669 -0.1807  2.4376
  478SOL     MW 1912   0.168   2.685   0.877 -1.2677  0.1601  0.7908
  479SOL     OW 1913   1.461   1.983   1.275 -0.3587  0.4106 -0.0281
  479SOL    HW1 1914   1.462   2.018   1.368  1.0937  3.0888  1.0437
  479SOL    HW2 1915   1.504   1.894   1.281  1.6029 -1.4501  0.3309
  479SOL     MW 1916   1.467   1.976   1.288  0.0918  0.5185  0.1607
  480SOL     OW 1917   1.959   2.443   1.279  0.7793 -0.0395  0.2152
  480SOL    HW1 1918   1.919   2.361   1.309  0.9588  0.9075  0.3885
  480SOL    HW2 1919   2.008   2.424   1.199  1.8102 -0.0678 -1.3174
  480SOL     MW 1920   1.960   2.430   1.272  0.9390  0.0817  0.0358
  481SOL     OW 1921   1.051   0.001   1.095  0.3088  0.3218 -0.2333
  481SOL    HW1 1922   1.110  -0.047   1.033  0.4076 -0.9010 -0.2274
  481SOL    HW2 1923   1.104   0.079   1.121 -2.0334  3.3995 -0.4849
  481SOL     MW 1924   1.066   0.005   1.091  0.0128  0.5665 -0.2657
  482SOL     OW 1925   1.076   3.096   0.242  0.4564  0.3605  0.3750
  482SOL    HW1 1926   1.023   3.032   0.292 -1.3489 -0.6038  1.5711
  482SOL    HW2 1927   1.090   3.165   0.302 -0.9424 -0.3970 -1.6658
  482SOL     MW 1928   1.071   3.097   0.256  0.0337  0.1333  0.2635
  483SOL     OW 1929   0.410   2.909   0.423  0.5820  0.2300 -0.5732
  483SOL    HW1 1930   0.336   2.940   0.366 -1.1955 -1.5155 -2.3370
  483SOL    HW2 1931   0.388   2.952   0.509  1.1883 -1.8754  0.2661
  483SOL     MW 1932   0.397   2.919   0.427  0.4275 -0.2781 -0.6952
  484SOL     OW 1933   1.896   1.908   1.480  0.1137  1.0563  0.0590
  484SOL    HW1 1934   1.900   1.997   1.455  1.3581 -1.0937 -2.1004
  484SOL    HW2 1935   1.891   1.908   1.574 -0.5781  1.8647 -1.6999
  484SOL     MW 1936   1.896   1.920   1.490  0.1866  0.8793 -0.4580
  485SOL     OW 1937   0.520   2.333   0.223  0.6800 -0.4359  0.9078
  485SOL    HW1 1938   0.538   2.278   0.293 -0.0648 -1.1666 -0.7078
  485SOL    HW2 1939   0.458   2.404   0.257 -0.4914  1.4269  0.6595
  485SOL     MW 1940   0.514   2.335   0.237  0.4272 -0.2865  0.6619
  486SOL     OW 1941   0.161   2.340   1.485 -0.0181 -0.3600 -0.1580
  486SOL    HW1 1942   0.190   2.428   1.476 -1.7568  0.7884  0.4511
  486SOL    HW2 1943   0.140   2.333   1.579 -2.6894 -0.3076 -1.4840
  486SOL     MW 1944   0.162   2.351   1.496 -0.6000 -0.2016 -0.2526
  487SOL     OW 1945   1.213   1.670   1.071  0.1377 -0.0563  0.0854
  487SOL    HW1 1946   1.205   1.767   1.089 -1.5387 -3.5861  0.2801
  487SOL    HW2 1947   1.288   1.677   1.012  0.8790 -0.6446 -0.9021
  487SOL     MW 1948   1.222   1.684   1.066  0.0143 -0.5996 -0.0192
  488SOL     OW 1949   1.621   1.883   0.515  0.0001 -0.1294  0.2922
  488SOL    HW1 1950   1.703   1.887   0.460  1.7111 -0.0298  0.0137
  488SOL    HW2 1951   1.553   1.949   0.497 -0.3177  0.0761  2.4513
  488SOL     MW 1952   1.623   1.892   0.505  0.1839 -0.0891  0.5403
  489SOL     OW 1953   0.745   0.780   0.545  0.4072 -0.3621  0.4648
  489SOL    HW1 1954   0.771   0.699   0.500 -0.7846 -0.4955 -2.4563
  489SOL    HW2 1955   0.745   0.755   0.643  1.6122 -1.0433  0.3614
  489SOL     MW 1956   0.749   0.766   0.552  0.4089 -0.4696  0.0658
  490SOL     OW 1957   1.420   2.083   0.471  0.4587  0.1915  0.5164
  490SOL    HW1 1958   1.462   2.147   0.408 -1.7744 -2.2546 -1.2791
  490SOL    HW2 1959   1.327   2.074   0.454 -0.0603 -2.1153  1.1976
  490SOL     MW 1960   1.413   2.090   0.460  0.0956 -0.4356  0.3694
  491SOL     OW 1961   1.283   2.948   0.384 -0.3786 -0.7635  0.2658
  491SOL    HW1 1962   1.340   3.015   0.415 -0.8822  1.1338  0.6896
  491SOL    HW2 1963   1.208   2.995   0.346 -0.1590  1.7460  1.3469
  491SOL     MW 1964   1.281   2.963   0.383 -0.4161 -0.1821  0.4644
  492SOL     OW 1965   1.503   2.143   0.724  0.2316  0.0314 -0.4970
  492SOL    HW1 1966   1.462   2.093   0.654  0.5491 -1.4275  1.2337
  492SOL    HW2 1967   1.446   2.130   0.799 -0.1389  0.9604 -4.2968
  492SOL     MW 1968   1.490   2.134   0.724  0.2246 -0.0385 -0.7700
  493SOL     OW 1969   0.187   3.010   0.300 -0.0868  0.0784  0.0463
  493SOL    HW1 1970   0.155   3.072   0.366  0.2405  0.4700 -1.2736
  493SOL    HW2 1971   0.175   3.067   0.220  0.6794  0.2745  1.9589
  493SOL     MW 1972   0.182   3.026   0.298  0.0575  0.1559  0.1245
  494SOL     OW 1973   0.394   2.418   1.778  0.5382 -0.4166  0.0946
  494SOL    HW1 1974   0.401   2.326   1.802  0.2898  1.0765  0.1168
  494SOL    HW2 1975   0.415   2.419   1.681 -0.0928 -3.0284  1.0351
  494SOL     MW 1976   0.398   2.406   1.768  0.4222 -0.5642  0.2216
  495SOL     OW 1977   2.899   1.641   2.621  0.0732 -0.3204  0.0852
  495SOL    HW1 1978   2.891   1.732   2.587 -1.7187  2.1739  1.1963
  495SOL    HW2 1979   2.867   1.642   2.712  1.4280  2.0029  0.0990
  495SOL     MW 1980   2.894   1.653   2.629  0.0155  0.3152  0.2336
  496SOL     OW 1981   2.917   2.383   2.680 -0.3668  0.1576  0.6251
  496SOL    HW1 1982   2.972   2.311   2.725  1.7394 -3.2981  0.7912
  496SOL    HW2 1983   2.977   2.459   2.672 -2.2475 -0.2483 -2.7611
  496SOL     MW 1984   2.932   2.383   2.685 -0.3370 -0.3519  0.2003
  497SOL     OW 1985   1.626   2.232   2.615  0.1839 -0.6301 -0.5752
  497SOL    HW1 1986   1.547   2.224   2.559 -0.2153 -0.0183 -0.0338
  497SOL    HW2 1987   1.622   2.174   2.688  0.8751  0.2514 -2.2664
  497SOL     MW 1988   1.615   2.223   2.617  0.2224 -0.4330 -0.7269
  498SOL     OW 1989   1.440   2.704   2.327 -0.2868  0.0419 -0.4056
  498SOL    HW1 1990   1.466   2.608   2.348  0.3142 -1.8716  0.8570
  498SOL    HW2 1991   1.529   2.744   2.334  0.5831 -2.3513 -0.7024
  498SOL     MW 1992   1.455   2.697   2.331 -0.0927 -0.5263 -0.2782
  499SOL     OW 1993   0.994   0.142   0.004  0.3639  0.3059 -0.5731
  499SOL    HW1 1994   0.910   0.170   0.053  0.1956  0.0528 -0.5116
  499SOL    HW2 1995   1.025   0.062   0.057 -0.5597 -3.4584 -1.5621
  499SOL     MW 1996   0.987   0.135   0.017  0.2198 -0.2242 -0.6955
  500SOL     OW 1997   1.060   2.553   2.805  0.0963  0.0366 -0.4866
  500SOL    HW1 1998   1.097   2.512   2.887  0.4242 -0.4057  0.9729
  500SOL    HW2 1999   0.984   2.606   2.837 -1.3066 -0.9206 -0.9608
  500SOL     MW 2000   1.055   2.554   2.820 -0.0456 -0.1481 -0.3566
  501SOL     OW 2001   1.817   2.200   3.064  0.3966  0.5108 -0.2661
  501SOL    HW1 2002   1.818   2.291   3.108  0.3796  1.5399  0.6510
  501SOL    HW2 2003   1.906   2.190   3.044  0.2082  1.7042  0.1788
  501SOL     MW 2004   1.829   2.211   3.067  0.3695  0.8040 -0.0864
  502SOL     OW 2005   0.155   2.804   3.058  0.2633  0.3362  0.1296
  502SOL    HW1 2006   0.091   2.735   3.042 -0.0450  1.1948  0.3198
  502SOL    HW2 2007   0.208   2.835   2.981  0.7991  0.2092  0.0256
  502SOL     MW 2008   0.153   2.799   3.046  0.2934  0.4327  0.1410
  503SOL     OW 2009   1.102   2.778   2.150 -0.6261 -0.0968  0.3024
  503SOL    HW1 2010   1.040   2.710   2.146 -1.8725  0.5405 -3.4795
  503SOL    HW2 2011   1.077   2.843   2.085 -1.2274 -0.6600  1.1046
  503SOL     MW 2012   1.091   2.778   2.141 -0.8699 -0.0870 -0.0908
  504SOL     OW 2013   0.101   2.700   2.137 -0.4125 -0.2471 -0.4118
  504SOL    HW1 2014   0.152   2.625   2.111 -0.4515  0.3205 -2.8483
  504SOL    HW2 2015   0.025   2.675   2.182 -0.2318 -2.0099  2.3130
  504SOL     MW 2016   0.098   2.687   2.140 -0.3938 -0.4048 -0.3738
  505SOL     OW 2017   1.686   2.692   2.730  0.1328 -0.7068 -0.1873
  505SOL    HW1 2018   1.662   2.708   2.635  0.1886 -2.8837 -3.3012
  505SOL    HW2 2019   1.619   2.737   2.784  2.0038  3.0328  1.2022
  505SOL     MW 2020   1.674   2.700   2.725  0.3870 -0.5006 -0.4148
  506SOL     OW 2021   1.583   3.067   2.832  0.1336 -0.6591  0.0766
  506SOL    HW1 2022   1.605   3.060   2.926 -1.7617 -0.6774  0.5965
  506SOL    HW2 2023   1.665   3.044   2.786  1.3119  1.4182 -1.0513
  506SOL     MW 2024   1.596   3.063   2.838  0.0390 -0.3874 -0.0036
  507SOL     OW 2025   0.896   2.782   2.855 -0.4192 -0.5280 -0.0800
  507SOL    HW1 2026   0.915   2.885   2.859 -1.0762 -0.5399 -0.6322
  507SOL    HW2 2027   0.804   2.775   2.880 -1.2810 -1.3036 -2.9790
  507SOL     MW 2028   0.886   2.794   2.859 -0.6196 -0.6319 -0.5354
  508SOL     OW 2029   1.143   2.080   2.521  0.1345  0.0309  0.4092
  508SOL    HW1 2030   1.230   2.047   2.546 -0.4873 -0.0348 -1.8773
  508SOL    HW2 2031   1.130   2.158   2.581  0.2977 -1.1106 -0.6270
  508SOL     MW 2032   1.153   2.086   2.533  0.0740 -0.1284 -0.0292
  509SOL     OW 2033   0.594   2.553   2.783 -0.2557 -0.6117  0.9601
  509SOL    HW1 2034   0.597   2.513   2.701 -1.3857  0.2911  0.4618
  509SOL    HW2 2035   0.508   2.539   2.816  0.0134  1.1184 -0.4647
  509SOL     MW 2036   0.583   2.546   2.777 -0.3693 -0.2644  0.7064
  510SOL     OW 2037   1.514   2.550   1.692  0.1542  0.5306  0.5348
  510SOL    HW1 2038   1.542   2.636   1.648  3.1118  0.9141 -1.7553
  510SOL    HW2 2039   1.459   2.557   1.780  0.4917  1.5857  0.3670
  510SOL     MW 2040   1.510   2.562   1.698  0.5889  0.7204  0.2105
  511SOL     OW 2041   0.474   2.648   2.437 -0.1346  0.4418  0.1286
  511SOL    HW1 2042   0.519   2.574   2.475 -0.7082 -0.0190  0.9116
  511SOL    HW2 2043   0.465   2.664   2.343 -2.5844  0.5460  1.7069
  511SOL     MW 2044   0.478   2.641   2.430 -0.5335  0.3948  0.4402
  512SOL     OW 2045   1.073   2.004   2.815  0.1577  0.1155  0.2108
  512SOL    HW1 2046   0.981   2.031   2.830  1.7975  2.5625  1.8136
  512SOL    HW2 2047   1.081   1.918   2.861 -0.8959 -2.1510 -0.3264
  512SOL     MW 2048   1.062   1.996   2.823  0.2351  0.1393  0.3514
  513SOL     OW 2049   1.544   2.450   2.305 -0.6720 -0.4741  0.5543
  513SOL    HW1 2050   1.604   2.440   2.234 -0.2793  1.9541  3.2960
  513SOL    HW2 2051   1.574   2.416   2.389 -1.5545  0.7027  0.1822
  513SOL     MW 2052   1.555   2.444   2.307 -0.7366  0.0016  0.8669
  514SOL     OW 2053   0.281   2.539   2.622 -0.0078 -0.0520 -0.8499
  514SOL    HW1 2054   0.333   2.574   2.547 -1.8012 -1.0578 -0.9653
  514SOL    HW2 2055   0.328   2.570   2.700  1.1866  2.2477 -1.1283
  514SOL     MW 2056   0.294   2.547   2.622 -0.0868  0.1187 -0.9018
  515SOL     OW 2057   1.107   2.105   1.780 -0.4930 -0.6223 -0.2785
  515SOL    HW1 2058   1.066   2.189   1.815 -3.7002 -0.5013  0.4880
  515SOL    HW2 2059   1.183   2.093   1.830 -0.7474 -1.1256  0.3829
  515SOL     MW 2060   1.111   2.114   1.792 -0.9497 -0.6727 -0.0901
  516SOL     OW 2061   1.479   2.459   3.040 -0.2740  0.5832  0.1735
  516SOL    HW1 2062   1.519   2.452   2.958  0.3145  0.9983  2.9388
  516SOL    HW2 2063   1.382   2.458   3.041  0.5602 -1.6161  1.3993
  516SOL     MW 2064   1.471   2.458   3.030 -0.0863  0.3478  0.7001
  517SOL     OW 2065   0.623   2.458   2.162  0.3043 -0.1327  0.0795
  517SOL    HW1 2066   0.574   2.544   2.156 -2.0591  0.4243  0.9438
  517SOL    HW2 2067   0.568   2.390   2.125  0.1739  2.8826  0.2973
  517SOL     MW 2068   0.609   2.460   2.157 -0.0247  0.3387  0.2222
  518SOL     OW 2069   1.879   0.176   3.008  0.2001 -0.7433 -0.2935
  518SOL    HW1 2070   1.827   0.243   2.963  2.7956  0.1732 -1.6132
  518SOL    HW2 2071   1.820   0.151   3.083  0.5438 -1.9651 -0.9961
  518SOL     MW 2072   1.864   0.181   3.012  0.5879 -0.7836 -0.5603
  519SOL     OW 2073   0.685   2.548   1.716  0.7206  0.0025 -0.2658
  519SOL    HW1 2074   0.691   2.461   1.745 -2.7152  0.3152 -2.6793
  519SOL    HW2 2075   0.642   2.540   1.628 -2.5063 -1.1814 -1.3321
  519SOL     MW 2076   0.680   2.536   1.708 -0.1585 -0.1124 -0.7249
  520SOL     OW 2077   1.292   2.137   2.913  0.0456  0.2447  0.0386
  520SOL    HW1 2078   1.208   2.101   2.873 -0.1035 -0.7017  0.0909
  520SOL    HW2 2079   1.324   2.080   2.986  0.1707 -0.2006  2.3082
  520SOL     MW 2080   1.285   2.125   2.918  0.0425  0.0611  0.3450
  521SOL     OW 2081   1.692   2.071   2.283  0.3403  0.2997  0.0654
  521SOL    HW1 2082   1.711   2.104   2.191 -0.0659  0.9496 -0.1962
  521SOL    HW2 2083   1.687   1.974   2.272  1.5637 -0.2136  1.6685
  521SOL     MW 2084   1.694   2.063   2.269  0.4482  0.3177  0.2424
  522SOL     OW 2085   2.849   2.568   2.169 -0.0372 -0.1146 -0.1153
  522SOL    HW1 2086   2.924   2.519   2.194  1.0765 -0.8886  2.8067
  522SOL    HW2 2087   2.785   2.574   2.244 -2.8784  1.3968  1.5077
  522SOL     MW 2088   2.850   2.562   2.182 -0.2651 -0.0173  0.4843
  523SOL     OW 2089   0.872   1.526   2.143  0.1492 -0.2198 -0.3982
  523SOL    HW1 2090   0.867   1.601   2.086 -1.1266 -0.1234  0.8672
  523SOL    HW2 2091   0.920   1.458   2.094 -0.0696  1.7791 -0.2773
  523SOL     MW 2092   0.878   1.527   2.129 -0.0480  0.0567 -0.2153
  524SOL     OW 2093   0.849   2.414   2.923  0.7167  0.2935 -0.5993
  524SOL    HW1 2094   0.779   2.457   2.875  0.4071 -1.5525 -1.8994
  524SOL    HW2 2095   0.837   2.323   2.894  1.9098  1.4109  0.7469
  524SOL     MW 2096   0.838   2.408   2.913  0.8333  0.1974 -0.5932
  525SOL     OW 2097   0.385   2.259   2.118 -0.2353 -0.0793  0.1492
  525SOL    HW1 2098   0.336   2.205   2.174 -1.5977  0.0046 -0.2489
  525SOL    HW2 2099   0.399   2.199   2.042 -1.6288 -1.1541  0.4076
  525SOL     MW 2100   0.381   2.244   2.115 -0.5989 -0.2100  0.1308
  526SOL     OW 2101   0.672   2.043   2.025 -0.1913 -0.2676 -0.4441
  526SOL    HW1 2102   0.708   2.084   1.945 -0.5445  2.5397 -2.8070
  526SOL    HW2 2103   0.660   2.114   2.096  3.1650  0.9180  0.8405
  526SOL     MW 2104   0.675   2.058   2.024  0.2049  0.2592 -0.5864
  527SOL     OW 2105   1.333   1.985   2.000 -0.2207 -0.1006 -0.0057
  527SOL    HW1 2106   1.294   1.964   2.084 -2.3983  0.3286 -0.5595
  527SOL    HW2 2107   1.373   1.904   1.962 -2.2087 -1.0234  0.9740
  527SOL     MW 2108   1.333   1.971   2.006 -0.7703 -0.1657  0.0505
  528SOL     OW 2109   0.628   2.872   2.913  0.2486 -0.2210  0.1526
  528SOL    HW1 2110   0.665   2.960   2.925 -0.9612 -1.5389  1.6042
  528SOL    HW2 2111   0.564   2.872   2.845 -0.4359 -1.7249  2.0422
  528SOL     MW 2112   0.625   2.884   2.905 -0.0014 -0.5933  0.5935
  529SOL     OW 2113   0.955   2.362   1.894 -0.3089  0.3382  0.5999
  529SOL    HW1 2114   0.963   2.337   1.989  4.0564 -1.1460  1.9776
  529SOL    HW2 2115   1.019   2.440   1.892  0.1757 -0.7504 -1.6517
  529SOL     MW 2116   0.965   2.369   1.906  0.3310 -0.0013  0.4846
  530SOL     OW 2117   1.191   2.421   3.034 -0.5074 -0.2347 -0.0100
  530SOL    HW1 2118   1.107   2.439   3.074  3.1113 -0.5897  0.7556
  530SOL    HW2 2119   1.184   2.335   3.001  0.0509  1.5854 -1.4531
  530SOL     MW 2120   1.179   2.412   3.035  0.0437 -0.0414 -0.0994
  531SOL     OW 2121   0.949   1.864   2.556 -0.2337 -0.2812  0.3158
  531SOL    HW1 2122   1.018   1.929   2.552  0.3526 -0.0091 -0.8335
  531SOL    HW2 2123   0.938   1.838   2.642  1.9884  3.5740 -3.3891
  531SOL     MW 2124   0.957   1.869   2.567  0.1369  0.2634 -0.3247
  532SOL     OW 2125   1.748   0.332   2.830 -0.6423 -0.2352  0.2129
  532SOL    HW1 2126   1.749   0.258   2.772  0.8362  1.1119  0.9627
  532SOL    HW2 2127   1.822   0.382   2.813 -3.0291  0.3162 -1.6509
  532SOL     MW 2128   1.758   0.329   2.820 -0.7622  0.0153  0.0660
  533SOL     OW 2129   1.845   2.654   3.033 -0.2408 -0.1004 -0.1245
  533SOL    HW1 2130   1.832   2.567   3.068 -1.4758  3.3478 -2.6678
  533SOL    HW2 2131   1.758   2.699   3.032 -0.8461  1.3757  1.1645
  533SOL     MW 2132   1.832   2.648   3.037 -0.4836  0.5493 -0.2900
  534SOL     OW 2133   1.785   2.432   2.523  0.7442  0.5767 -0.9447
  534SOL    HW1 2134   1.729   2.357   2.556 -2.6078  0.0421  1.5146
  534SOL    HW2 2135   1.863   2.441   2.580 -1.5740 -0.0033 -0.1002
  534SOL     MW 2136   1.788   2.423   2.535 -0.0039  0.4296 -0.5088
  535SOL     OW 2137   1.912   2.408   1.912  0.0246  0.0598 -0.6099
  535SOL    HW1 2138   1.879   2.440   1.830  1.0356 -0.2923  1.8728
  535SOL    HW2 2139   2.002   2.389   1.896 -0.4612 -1.3402 -0.5850
  535SOL     MW 2140   1.919   2.409   1.899  0.0939 -0.1714 -0.2791
  536SOL     OW 2141   0.520   1.824   2.041  0.8523  0.2579 -0.4490
  536SOL    HW1 2142   0.446   1.808   1.980  2.3815  0.6538 -0.0333
  536SOL    HW2 2143   0.546   1.917   2.025  0.4042  1.5089 -1.9360
  536SOL     MW 2144   0.514   1.834   2.031  0.9950  0.4752 -0.5903
  537SOL     OW 2145   1.090   0.184   2.824 -0.3456  0.2703  0.1592
  537SOL    HW1 2146   1.041   0.222   2.899  0.7383  1.0312 -1.0651
  537SOL    HW2 2147   1.093   0.252   2.752  0.4467  1.6083  0.4206
  537SOL     MW 2148   1.084   0.198   2.825 -0.0980  0.5472  0.0321
  538SOL     OW 2149   1.414   0.089   3.081  0.5225 -0.0602  0.0056
  538SOL    HW1 2150   1.398   0.179   3.119  1.6350 -1.1867 -0.3391
  538SOL    HW2 2151   1.326   0.051   3.067 -1.3129 -1.1505  3.1466
  538SOL     MW 2152   1.400   0.096   3.084  0.4271 -0.3527  0.3746
  539SOL     OW 2153   0.750   2.815   2.578  0.0366  0.0176 -0.1271
  539SOL    HW1 2154   0.831   2.870   2.572 -1.3973  2.8775 -1.3373
  539SOL    HW2 2155   0.763   2.749   2.650 -0.9608 -2.7371  0.2916
  539SOL     MW 2156   0.762   2.814   2.587 -0.2842  0.0315 -0.2315
  540SOL     OW 2157   0.361   2.510   2.908  0.0079 -0.4571 -0.1603
  540SOL    HW1 2158   0.346   2.553   2.994 -0.2068 -1.6930  2.2910
  540SOL    HW2 2159   0.302   2.427   2.913 -0.7176 -4.5104  1.8358
  540SOL     MW 2160   0.351   2.505   2.920 -0.1162 -1.1549  0.4265
  541SOL     OW 2161   0.187   2.940   2.212  0.4673  0.1479 -0.6728
  541SOL    HW1 2162   0.163   2.854   2.174  1.6137  0.0230  1.7679
  541SOL    HW2 2163   0.225   2.907   2.295  0.0124 -2.6010 -1.1379
  541SOL     MW 2164   0.189   2.924   2.218  0.5585 -0.2313 -0.4121
  542SOL     OW 2165   1.061   2.297   2.675 -0.3306 -0.6712  0.0233
  542SOL    HW1 2166   1.040   2.233   2.741 -0.1896  0.6324  0.3603
  542SOL    HW2 2167   1.066   2.382   2.722 -1.6155  1.0608  0.1025
  542SOL     MW 2168   1.059   2.300   2.690 -0.4815 -0.2707  0.0782
  543SOL     OW 2169   1.706   2.442   2.826  0.4929  0.1055 -0.5162
  543SOL    HW1 2170   1.688   2.402   2.740 -0.4399 -1.3709 -1.7241
  543SOL    HW2 2171   1.720   2.533   2.801  0.7131  1.5109 -1.0473
  543SOL     MW 2172   1.705   2.449   2.811  0.3989  0.0961 -0.7456
  544SOL     OW 2173   0.755   0.141   2.733  0.9515 -0.5027  0.8819
  544SOL    HW1 2174   0.664   0.160   2.728 -1.0941  1.4536  2.2434
  544SOL    HW2 2175   0.772   0.126   2.641 -3.1231 -0.5221  1.8460
  544SOL     MW 2176   0.745   0.142   2.720  0.1440 -0.2472  1.1887
  545SOL     OW 2177   1.473   2.179   2.401 -0.3702  0.3402 -0.5281
  545SOL    HW1 2178   1.446   2.225   2.324 -0.8330  0.0815 -3.0494
  545SOL    HW2 2179   1.563   2.140   2.376  2.1167 -0.3206 -0.6809
  545SOL     MW 2180   1.481   2.180   2.388 -0.1031  0.2189 -0.8809
  546SOL     OW 2181   2.898   2.003   0.128  0.9119  0.0989 -0.1505
  546SOL    HW1 2182   2.895   2.080   0.066  0.7187 -0.3240  0.1128
  546SOL    HW2 2183   2.982   1.959   0.116 -0.0405 -1.3264 -0.5498
  546SOL     MW 2184   2.908   2.007   0.118  0.7607 -0.1450 -0.1684
  547SOL     OW 2185   0.163   0.101   0.099  0.2699 -0.6623 -0.2189
  547SOL    HW1 2186   0.210   0.122   0.024 -1.3568 -3.5551  1.8872
  547SOL    HW2 2187   0.100   0.035   0.067  0.0370 -2.2604  2.9528
  547SOL     MW 2188   0.161   0.095   0.085  0.0246 -1.2548  0.4774
  548SOL     OW 2189   0.331   2.504   0.284 -0.0816 -0.2389 -0.6480
  548SOL    HW1 2190   0.330   2.556   0.206  2.3145 -3.5602  1.4362
  548SOL    HW2 2191   0.251   2.443   0.291  1.2584 -0.5392  0.2229
  548SOL     MW 2192   0.321   2.503   0.275  0.4113 -0.7167 -0.2581
  549SOL     OW 2193   0.844   1.934   2.206  0.5131 -0.0058  0.1533
  549SOL    HW1 2194   0.790   1.971   2.139 -1.0491 -2.0751  0.9023
  549SOL    HW2 2195   0.784   1.914   2.275 -3.2039 -0.7255  0.3120
  549SOL     MW 2196   0.829   1.936   2.206 -0.1835 -0.3738  0.2731
  550SOL     OW 2197   1.827   1.757   2.546  0.0075 -0.1103  0.2925
  550SOL    HW1 2198   1.805   1.779   2.457  0.8111  1.2971 -2.3227
  550SOL    HW2 2199   1.808   1.828   2.610  1.0920  0.2926 -0.0148
  550SOL     MW 2200   1.822   1.769   2.543  0.2566  0.1286 -0.0931
  551SOL     OW 2201   0.894   2.274   0.245  0.2790 -0.4011  0.0017
  551SOL    HW1 2202   0.992   2.262   0.246  2.2209 -1.8865  2.2251
  551SOL    HW2 2203   0.854   2.213   0.185 -2.4195 -0.3892  0.4442
  551SOL     MW 2204   0.902   2.264   0.237  0.1792 -0.5955  0.3535
  552SOL     OW 2205   1.777   1.787   2.287 -0.5282 -0.3454  0.4467
  552SOL    HW1 2206   1.689   1.753   2.309  0.7128  0.3969 -0.1420
  552SOL    HW2 2207   1.814   1.721   2.234  0.7307  0.4361 -3.1873
  552SOL     MW 2208   1.770   1.773   2.283 -0.1984 -0.1443 -0.1104
  553SOL     OW 2209   1.247   2.246   1.540 -0.1969  0.2462 -0.1207
  553SOL    HW1 2210   1.288   2.158   1.532 -1.4722  1.1918  0.0600
  553SOL    HW2 2211   1.321   2.308   1.505 -0.3308 -1.2616  0.8013
  553SOL     MW 2212   1.262   2.243   1.534 -0.3829  0.1720  0.0248
  554SOL     OW 2213   0.507   2.929   2.669 -0.7238  0.3910 -0.3250
  554SOL    HW1 2214   0.463   2.994   2.612 -0.7592 -0.1985  3.0251
  554SOL    HW2 2215   0.581   2.891   2.616 -0.9191 -1.3569  0.1891
  554SOL     MW 2216   0.511   2.932   2.655 -0.7542  0.0826  0.1848
  555SOL     OW 2217   0.614   2.441   2.539 -0.2824 -0.2142  0.1545
  555SOL    HW1 2218   0.564   2.359   2.553  0.9916  0.2079  2.3479
  555SOL    HW2 2219   0.699   2.406   2.514  0.0452 -0.4074 -2.1570
  555SOL     MW 2220   0.619   2.425   2.537 -0.0711 -0.1840  0.1389
  556SOL     OW 2221   1.055   1.921   0.110  0.3556  0.3183 -0.1685
  556SOL    HW1 2222   1.075   1.888   0.021 -1.7769  3.4829  1.0178
  556SOL    HW2 2223   1.134   1.917   0.160  0.7018  1.2141  1.4299
  556SOL     MW 2224   1.068   1.916   0.105  0.1199  0.8541  0.1989
  557SOL     OW 2225   0.972   2.674   0.495 -0.0363  0.1491  0.0161
  557SOL    HW1 2226   1.008   2.610   0.427 -2.3646 -2.0093  0.6744
  557SOL    HW2 2227   0.972   2.762   0.449 -1.0439  0.7773 -1.6440
  557SOL     MW 2228   0.977   2.677   0.480 -0.4764 -0.0528 -0.1161
  558SOL     OW 2229   0.225   2.291   2.978  0.2545  0.0719  0.3345
  558SOL    HW1 2230   0.160   2.261   2.914 -2.0357 -0.2301 -0.8688
  558SOL    HW2 2231   0.185   2.329   3.063  0.8091 -0.0229  1.7697
  558SOL     MW 2232   0.211   2.292   2.981  0.0255  0.0196  0.3651
  559SOL     OW 2233   1.031   2.335   2.157  0.0586  0.5678 -0.1355
  559SOL    HW1 2234   1.124   2.331   2.181 -0.8904  1.1456  0.4162
  559SOL    HW2 2235   0.993   2.282   2.227 -0.2291  2.8655 -1.1142
  559SOL     MW 2236   1.038   2.328   2.169 -0.1046  0.9472 -0.1918
  560SOL     OW 2237   1.949   2.849   0.108  0.2643 -0.5627  0.7950
  560SOL    HW1 2238   2.037   2.879   0.079  0.4951 -0.7086 -0.1536
  560SOL    HW2 2239   1.931   2.769   0.052 -1.6220 -1.1508 -0.8260
  560SOL     MW 2240   1.958   2.842   0.097  0.0459 -0.6596  0.4560
  561SOL     OW 2241   0.346   2.153   0.100 -0.0985  0.1022  0.2078
  561SOL    HW1 2242   0.309   2.157   0.013  2.2910 -1.7392 -2.2088
  561SOL    HW2 2243   0.405   2.231   0.102 -1.9701  2.5307 -0.4527
  561SOL     MW 2244   0.349   2.164   0.089 -0.0302  0.1797 -0.1982
  562SOL     OW 2245   0.686   2.209   2.259 -0.7663 -0.3934 -0.0191
  562SOL    HW1 2246   0.658   2.302   2.240  3.2369 -2.0530 -1.4213
  562SOL    HW2 2247   0.762   2.210   2.315  0.1645  2.3963 -1.3983
  562SOL     MW 2248   0.692   2.221   2.264 -0.1153 -0.2443 -0.3861
  563SOL     OW 2249   1.218   0.429   0.518 -0.3501 -0.4201 -0.3965
  563SOL    HW1 2250   1.182   0.351   0.474 -4.3406  1.4196 -0.1477
  563SOL    HW2 2251   1.191   0.409   0.606 -1.6386 -0.5545  2.1423
  563SOL     MW 2252   1.210   0.416   0.524 -1.0466 -0.1951 -0.0287
  564SOL     OW 2253   1.076   2.609   2.386 -0.9845 -0.5573  0.1498
  564SOL    HW1 2254   1.079   2.686   2.322 -0.0679  2.2314 -2.2991
  564SOL    HW2 2255   1.101   2.642   2.471 -0.4606 -3.5229 -1.9481
  564SOL     MW 2256   1.080   2.623   2.389 -0.7944 -0.5806 -0.4501
  565SOL     OW 2257   2.746   2.799   2.566  0.2476  0.7416 -0.2639
  565SOL    HW1 2258   2.807   2.836   2.502  0.6791  1.3571 -0.2430
  565SOL    HW2 2259   2.711   2.723   2.515 -3.3496  0.1202 -2.4644
  565SOL     MW 2260   2.749   2.794   2.551 -0.1701  0.7408 -0.5514
  566SOL     OW 2261   2.165   1.897   2.364  0.0338 -0.0271 -1.1426
  566SOL    HW1 2262   2.177   1.882   2.271 -0.9019  0.4422 -0.8919
  566SOL    HW2 2263   2.218   1.972   2.381 -0.8564 -0.4021  1.1242
  566SOL     MW 2264   2.174   1.905   2.354 -0.2071 -0.0146 -0.8104
  567SOL     OW 2265   1.197   3.010   0.008  0.1376  0.3320  1.0811
  567SOL    HW1 2266   1.179   3.010   0.101  2.0091  2.8305 -0.6081
  567SOL    HW2 2267   1.218   2.914  -0.019 -1.4178 -0.2208 -0.6523
  567SOL     MW 2268   1.198   2.997   0.017  0.1793  0.5888  0.6295
  568SOL     OW 2269   1.610   2.048   2.835  0.1149  0.0505  0.8183
  568SOL    HW1 2270   1.650   2.114   2.897  0.4992 -1.3193  0.8426
  568SOL    HW2 2271   1.681   1.999   2.798 -1.2873 -0.5538 -2.4837
  568SOL     MW 2272   1.625   2.050   2.839 -0.0194 -0.2099  0.3858
  569SOL     OW 2273   0.118   2.316   2.457 -0.3621  0.0418 -0.2685
  569SOL    HW1 2274   0.060   2.341   2.382  1.3275  2.4222 -2.1302
  569SOL    HW2 2275   0.164   2.398   2.472  0.0259  0.1297  1.6022
  569SOL     MW 2276   0.116   2.330   2.449 -0.0880  0.3675 -0.2673
  570SOL     OW 2277   1.478   0.350   0.516 -0.0878  0.5046  0.3153
  570SOL    HW1 2278   1.392   0.384   0.520  0.0018  3.3996 -0.5132
  570SOL    HW2 2279   1.511   0.373   0.602 -0.2246 -0.6377  0.5539
  570SOL     MW 2280   1.471   0.357   0.528 -0.0941  0.7359  0.2375
  571SOL     OW 2281   1.333   2.347   2.138  0.2148  0.0388  0.2583
  571SOL    HW1 2282   1.405   2.392   2.179 -0.3329  0.8289 -0.5721
  571SOL    HW2 2283   1.362   2.275   2.077 -2.3917 -0.0709 -1.9567
  571SOL     MW 2284   1.346   2.344   2.135 -0.2014  0.1286 -0.1435
  572SOL     OW 2285   0.973   2.571   0.066  0.3402  0.2253 -0.2314
  572SOL    HW1 2286   0.942   2.657   0.069  1.7379 -2.3708  0.9245
  572SOL    HW2 2287   0.895   2.523   0.081  0.7218  2.6790  2.0958
  572SOL     MW 2288   0.958   2.576   0.068  0.5750  0.2065  0.2282
  573SOL     OW 2289   1.187   2.269   0.209  0.0145  0.3246 -0.3011
  573SOL    HW1 2290   1.268   2.281   0.158  0.1563 -2.5473 -1.6558
  573SOL    HW2 2291   1.160   2.361   0.210 -2.9759 -1.6627  0.1968
  573SOL     MW 2292   1.194   2.282   0.202 -0.3613 -0.3165 -0.4142
  574SOL     OW 2293   1.133   2.535   0.280  0.3690  0.0375 -0.2157
  574SOL    HW1 2294   1.217   2.578   0.281 -3.1069 -2.7795  1.5340
  574SOL    HW2 2295   1.072   2.565   0.210 -0.4756  3.8126 -1.4209
  574SOL     MW 2296   1.136   2.545   0.271 -0.2010  0.1639 -0.1439
  575SOL     OW 2297   3.028   2.225   1.713 -0.1618 -0.2010 -0.3672
  575SOL    HW1 2298   3.067   2.152   1.659 -0.6545 -0.0908 -0.7509
  575SOL    HW2 2299   3.086   2.284   1.761 -1.8524  1.0099  1.1264
  575SOL     MW 2300   3.041   2.223   1.712 -0.4498 -0.0267 -0.2207
  576SOL     OW 2301   2.854   1.857   2.019 -0.1171 -0.2287 -0.1934
  576SOL    HW1 2302   2.855   1.937   1.963 -4.8344 -2.1725  1.1563
  576SOL    HW2 2303   2.764   1.838   1.995  0.6984 -0.1820  0.1539
  576SOL     MW 2304   2.842   1.865   2.008 -0.6319 -0.4790  0.0305
  577SOL     OW 2305   2.075   0.258   0.090  0.4817  0.4355 -0.3610
  577SOL    HW1 2306   2.006   0.247   0.028  0.8996 -1.1695  2.3913
  577SOL    HW2 2307   2.060   0.207   0.164  0.7201  1.9277 -0.8566
  577SOL     MW 2308   2.064   0.250   0.092  0.5683  0.4206 -0.0632
  578SOL     OW 2309   1.937   2.062   2.465  0.2578  0.1040 -0.8093
  578SOL    HW1 2310   1.849   2.036   2.446  4.0660  0.5587  0.3403
  578SOL    HW2 2311   1.997   1.986   2.449  0.0026 -0.7714 -0.2636
  578SOL     MW 2312   1.933   2.049   2.461  0.7266  0.0485 -0.5856
  579SOL     OW 2313   0.909   2.419   2.490  0.1106  0.1896  0.2481
  579SOL    HW1 2314   0.969   2.384   2.551 -1.3856  0.3509 -2.5834
  579SOL    HW2 2315   0.959   2.504   2.456 -1.9629  1.6491  0.2832
  579SOL     MW 2316   0.923   2.425   2.494 -0.3604  0.4034 -0.1208
  580SOL     OW 2317   0.944   2.840   0.016  0.3821 -0.1050  0.1767
  580SOL    HW1 2318   1.034   2.872   0.027 -0.7813  0.6303 -1.2975
  580SOL    HW2 2319   0.934   2.805  -0.070 -1.1903 -1.3913  0.3923
  580SOL     MW 2320   0.954   2.839   0.006  0.0211 -0.1777  0.0106
  581SOL     OW 2321   1.174   2.468   1.713  0.1843 -0.7525  0.4609
  581SOL    HW1 2322   1.244   2.514   1.771  2.2085  0.9125 -0.9884
  581SOL    HW2 2323   1.214   2.390   1.683  1.7450  0.9695  0.2759
  581SOL     MW 2324   1.188   2.464   1.717  0.6573 -0.3056  0.2453
  582SOL     OW 2325   0.043   2.856   2.744 -0.5071  0.4021 -0.6051
  582SOL    HW1 2326  -0.019   2.931   2.723 -1.8290 -1.2952  1.9722
  582SOL    HW2 2327   0.119   2.899   2.786 -0.1164  0.8977  0.9438
  582SOL     MW 2328   0.045   2.872   2.747 -0.6300  0.2436 -0.0607
  583SOL     OW 2329   2.015   2.433   2.682  0.0186  0.4417  0.1266
  583SOL    HW1 2330   2.090   2.430   2.621 -0.4483  1.7270  2.3352
  583SOL    HW2 2331   2.006   2.345   2.713  1.9886  0.4430 -1.7887
  583SOL     MW 2332   2.024   2.421   2.678  0.2169  0.6114  0.1653
  584SOL     OW 2333   0.073   1.894   2.186  0.0784 -0.0512 -0.3919
  584SOL    HW1 2334   0.083   1.855   2.279 -0.0563 -0.0070  2.2553
  584SOL    HW2 2335   0.128   1.976   2.198  0.1178  2.5833 -2.9514
  584SOL     MW 2336   0.082   1.900   2.200  0.0658  0.3022 -0.3803
  585SOL     OW 2337   1.579   2.640   0.125  0.0693  0.1167 -0.3887
  585SOL    HW1 2338   1.539   2.572   0.066 -0.2430  0.7190 -1.6622
  585SOL    HW2 2339   1.512   2.642   0.190  0.1949 -1.4037  1.1634
  585SOL     MW 2340   1.565   2.631   0.126  0.0447 -0.0045 -0.3519
  586SOL     OW 2341   1.378   2.790   2.576 -0.7909  0.0180  0.0776
  586SOL    HW1 2342   1.404   2.766   2.482 -0.3142 -0.3286 -0.5944
  586SOL    HW2 2343   1.353   2.877   2.584 -0.6953 -2.3747  0.5644
  586SOL     MW 2344   1.378   2.798   2.565 -0.7154 -0.3434  0.0532
  587SOL     OW 2345   1.389   1.478   2.162 -0.1717  0.1783  0.6894
  587SOL    HW1 2346   1.322   1.411   2.189  0.0596 -0.7188  0.7552
  587SOL    HW2 2347   1.441   1.430   2.093 -1.0297 -0.4771  0.7791
  587SOL     MW 2348   1.387   1.463   2.156 -0.2544 -0.0266  0.7099
  588SOL     OW 2349   1.374   2.005   2.625 -0.1775 -0.7025 -0.1103
  588SOL    HW1 2350   1.342   1.911   2.636 -1.9576 -2.5598 -0.8186
  588SOL    HW2 2351   1.391   2.035   2.713  0.5182 -0.1189 -0.5379
  588SOL     MW 2352   1.372   1.997   2.638 -0.3206 -0.8705 -0.2602
  589SOL     OW 2353   1.407   1.980   0.052 -0.3373 -0.6318  0.2116
  589SOL    HW1 2354   1.420   2.075   0.058 -1.2567 -0.1385  0.2096
  589SOL    HW2 2355   1.355   1.965   0.132  1.5134 -1.6892 -0.7353
  589SOL     MW 2356   1.402   1.991   0.064 -0.2145 -0.7063  0.0864
  590SOL     OW 2357   0.492   2.722   2.160  0.2918 -0.9283  0.3448
  590SOL    HW1 2358   0.499   2.711   2.061 -0.4150 -1.2019 -0.0800
  590SOL    HW2 2359   0.583   2.748   2.188 -0.6462  2.4501  0.1438
  590SOL     MW 2360   0.505   2.724   2.151  0.0748 -0.5187  0.2622
  591SOL     OW 2361   2.294   0.720   0.063 -0.3330 -0.0499  0.3797
  591SOL    HW1 2362   2.228   0.773   0.011 -0.6977  4.2899 -1.5153
  591SOL    HW2 2363   2.366   0.720  -0.001  0.6564 -0.2958 -0.1958
  591SOL     MW 2364   2.295   0.727   0.048 -0.2505  0.4903  0.0537
  592SOL     OW 2365   1.753   2.910   0.794 -0.2357  0.0735  0.3220
  592SOL    HW1 2366   1.786   2.953   0.715 -0.4276 -0.8796  2.6674
  592SOL    HW2 2367   1.820   2.839   0.804  3.8237  1.8097  1.4791
  592SOL     MW 2368   1.766   2.906   0.785  0.2746  0.1768  0.7841
  593SOL     OW 2369   1.958   0.666   0.820 -0.3637 -0.2630  0.0943
  593SOL    HW1 2370   1.871   0.676   0.776  0.6006  0.4118 -1.0666
  593SOL    HW2 2371   2.003   0.587   0.792  3.1286  2.6333  0.3034
  593SOL     MW 2372   1.952   0.657   0.811  0.2243  0.2082 -0.0313
  594SOL     OW 2373   2.770   1.062   1.400 -0.1796 -0.1736  0.0237
  594SOL    HW1 2374   2.863   1.084   1.398 -0.4513  1.8568  2.4409
  594SOL    HW2 2375   2.745   1.002   1.333  0.9314  0.7599  2.5271
  594SOL     MW 2376   2.779   1.057   1.391 -0.0688  0.2175  0.6729
  595SOL     OW 2377   0.462   0.904   0.843 -0.2338 -0.0701  0.0796
  595SOL    HW1 2378   0.494   0.978   0.791 -0.8938 -1.7989  0.1288
  595SOL    HW2 2379   0.423   0.929   0.924 -0.6214  1.0872  1.2791
  595SOL     MW 2380   0.461   0.917   0.847 -0.3720 -0.1455  0.2443
  596SOL     OW 2381   2.472   1.345   0.527 -0.0996 -0.3023 -0.0107
  596SOL    HW1 2382   2.526   1.421   0.504  0.7460  1.8997 -0.2721
  596SOL    HW2 2383   2.499   1.314   0.613  2.6952 -0.2508  1.5361
  596SOL     MW 2384   2.483   1.351   0.535  0.3807 -0.0050  0.1589
  597SOL     OW 2385   2.204   0.663   1.592 -0.1283 -0.8401 -0.4735
  597SOL    HW1 2386   2.220   0.618   1.671 -3.0161  0.4594 -0.6675
  597SOL    HW2 2387   2.129   0.611   1.542  0.5660  2.8046 -2.4396
  597SOL     MW 2388   2.196   0.651   1.596 -0.4177 -0.1878 -0.7585
  598SOL     OW 2389   2.601   1.031   2.862  0.2815 -0.7092 -0.2094
  598SOL    HW1 2390   2.598   0.937   2.872 -1.6936  0.4010  2.0895
  598SOL    HW2 2391   2.691   1.057   2.842  0.7517  0.3795  1.5773
  598SOL     MW 2392   2.613   1.022   2.860  0.0829 -0.4191  0.3297
  599SOL     OW 2393   2.964   0.430   2.144  0.6188 -0.0287  0.0386
  599SOL    HW1 2394   2.958   0.455   2.234  0.2678  0.2920  3.4560
  599SOL    HW2 2395   2.985   0.511   2.101 -2.3832 -0.3525 -0.2954
  599SOL     MW 2396   2.966   0.444   2.150  0.1764 -0.0291  0.4454
  600SOL     OW 2397   1.848   1.620   0.909 -0.3364 -0.1073 -0.0179
  600SOL    HW1 2398   1.923   1.663   0.948 -0.7660  2.5505 -1.0817
  600SOL    HW2 2399   1.803   1.696   0.868 -1.7745 -0.1040 -2.5077
  600SOL     MW 2400   1.852   1.636   0.908 -0.5828  0.2438 -0.4868
  601SOL     OW 2401   2.541   0.710   0.807 -0.2728 -0.4642 -0.0663
  601SOL    HW1 2402   2.532   0.707   0.903 -1.1967 -0.1290  0.6528
  601SOL    HW2 2403   2.461   0.663   0.764 -2.3487 -1.3191 -1.7512
  601SOL     MW 2404   2.529   0.704   0.814 -0.6686 -0.5328 -0.1937
  602SOL     OW 2405   2.312   1.919   0.781 -0.1453 -0.0067 -0.6347
  602SOL    HW1 2406   2.291   1.828   0.761 -0.3195 -0.1389 -1.2498
  602SOL    HW2 2407   2.243   1.969   0.743  1.5258 -0.5271  0.9876
  602SOL     MW 2408   2.300   1.914   0.773  0.0522 -0.0928 -0.5018
  603SOL     OW 2409   2.964   1.345   1.984  0.0482  0.2378  0.1254
  603SOL    HW1 2410   2.901   1.325   2.048 -1.3855  0.2006 -0.1522
  603SOL    HW2 2411   3.000   1.255   1.990 -1.3475  1.2639 -0.0623
  603SOL     MW 2412   2.961   1.331   1.993 -0.3251  0.3683  0.0640
  604SOL     OW 2413   2.040   1.456   0.442 -0.3615 -0.6311 -0.1348
  604SOL    HW1 2414   2.069   1.373   0.481  0.8781  1.5685  0.1996
  604SOL    HW2 2415   1.962   1.486   0.500 -1.8371 -0.1054  1.0961
  604SOL     MW 2416   2.033   1.449   0.455 -0.3926 -0.2716  0.0717
  605SOL     OW 2417   2.474   1.464   0.880 -0.1460 -0.6620 -0.0153
  605SOL    HW1 2418   2.447   1.524   0.810 -0.8552 -2.3455  1.4487
  605SOL    HW2 2419   2.491   1.379   0.838 -0.1769  0.9067  0.5394
  605SOL     MW 2420   2.473   1.461   0.866 -0.2436 -0.6772  0.2510
  606SOL     OW 2421   2.607   1.814   1.908  0.2482 -0.2772 -0.5796
  606SOL    HW1 2422   2.513   1.801   1.905  1.8504 -0.0786 -1.7481
  606SOL    HW2 2423   2.649   1.732   1.873  1.1141  1.8601 -0.0232
  606SOL     MW 2424   2.600   1.802   1.903  0.5738  0.0310 -0.6603
  607SOL     OW 2425   2.387   1.012   3.056  0.1261  0.4853  0.0454
  607SOL    HW1 2426   2.469   1.049   3.036 -2.1800  1.8206  0.5349
  607SOL    HW2 2427   2.390   0.994   3.150 -1.6885  2.7658 -0.4340
  607SOL     MW 2428   2.398   1.014   3.066 -0.4176  0.9624  0.0467
  608SOL     OW 2429   1.869   0.248   0.538  0.2699  0.1309  0.0682
  608SOL    HW1 2430   1.841   0.284   0.451 -1.4775 -3.2428  0.5166
  608SOL    HW2 2431   1.812   0.169   0.534  0.8016 -0.2118 -0.1945
  608SOL     MW 2432   1.858   0.242   0.526  0.1095 -0.3594  0.0927
  609SOL     OW 2433   2.131   1.914   3.025 -0.0497 -0.0865 -0.1034
  609SOL    HW1 2434   2.060   1.857   2.980  0.3043  2.1072 -2.0062
  609SOL    HW2 2435   2.115   1.899   3.117  1.4834 -0.5106  1.4548
  609SOL     MW 2436   2.120   1.904   3.031  0.1993  0.1470 -0.1489
  610SOL     OW 2437   1.781   0.922   1.215  0.2296  0.0228  0.4352
  610SOL    HW1 2438   1.803   0.827   1.198 -3.8371 -0.5915  1.3545
  610SOL    HW2 2439   1.684   0.935   1.224  2.7101  0.5746  2.7517
  610SOL     MW 2440   1.771   0.911   1.214  0.0203  0.0145  0.8621
  611SOL     OW 2441   2.485   1.664   0.658  0.6823 -0.2725 -0.6097
  611SOL    HW1 2442   2.531   1.627   0.583  1.1661 -0.4479 -2.2535
  611SOL    HW2 2443   2.399   1.671   0.630  2.6797  2.6268 -0.0425
  611SOL     MW 2444   2.480   1.660   0.644  1.0097  0.0869 -0.7518
  612SOL     OW 2445   2.912   2.965   0.334  0.5113  0.1575  0.2359
  612SOL    HW1 2446   2.915   2.985   0.426 -0.3796  1.4761 -3.7615
  612SOL    HW2 2447   2.975   2.901   0.312 -0.3400  1.2553  0.5751
  612SOL     MW 2448   2.920   2.959   0.343  0.2814  0.4763 -0.2468
  613SOL     OW 2449   1.520   1.094   0.978  0.0672  0.7301  0.2393
  613SOL    HW1 2450   1.597   1.138   0.949  0.9279  0.0022  1.2725
  613SOL    HW2 2451   1.536   1.061   1.070  0.0852  1.0476  2.4562
  613SOL     MW 2452   1.532   1.095   0.987  0.1832  0.6760  0.6681
  614SOL     OW 2453   2.031   0.477   1.438  0.2888 -0.2471  0.4763
  614SOL    HW1 2454   2.017   0.418   1.508  0.6492  0.3911 -0.0303
  614SOL    HW2 2455   1.950   0.468   1.389  1.3529 -0.9444  0.7332
  614SOL     MW 2456   2.019   0.468   1.441  0.4768 -0.2549  0.4434
  615SOL     OW 2457   2.419   0.714   0.297  0.6049  0.1434  0.5584
  615SOL    HW1 2458   2.502   0.656   0.296 -1.6466 -0.8945  0.2370
  615SOL    HW2 2459   2.394   0.720   0.205  0.5927  0.9207 -0.1093
  615SOL     MW 2460   2.426   0.707   0.285  0.3062  0.1090  0.4279
  616SOL     OW 2461   2.499   0.432   1.613  0.2365 -0.2619 -0.1869
  616SOL    HW1 2462   2.563   0.373   1.574 -1.4574 -1.8189  1.6061
  616SOL    HW2 2463   2.463   0.489   1.543  0.2019  2.3308  1.1021
  616SOL     MW 2464   2.503   0.432   1.599  0.0085 -0.1253  0.2197
  617SOL     OW 2465   2.872   0.602   1.829 -0.0286 -0.3500  0.8675
  617SOL    HW1 2466   2.786   0.604   1.867  0.5235  0.1686 -1.0703
  617SOL    HW2 2467   2.869   0.518   1.783  2.7972 -1.3752 -1.5630
  617SOL     MW 2468   2.860   0.591   1.828  0.4171 -0.4168  0.2912
  618SOL     OW 2469   2.747   0.315   2.021  0.1865 -0.8441 -0.1499
  618SOL    HW1 2470   2.702   0.399   2.010 -2.7474 -0.5681  0.0988
  618SOL    HW2 2471   2.826   0.345   2.067  1.3795  1.1468  1.8072
  618SOL     MW 2472   2.751   0.330   2.025 -0.0432 -0.5450  0.1411
  619SOL     OW 2473   2.645   0.730   0.104  0.2743  0.1239 -0.1386
  619SOL    HW1 2474   2.706   0.804   0.135  1.7335  1.1689  1.9896
  619SOL    HW2 2475   2.661   0.661   0.164 -0.0144 -0.1759 -0.9632
  619SOL     MW 2476   2.655   0.731   0.116  0.4287  0.2222  0.0334
  620SOL     OW 2477   2.241   1.078   0.929 -0.0695 -0.2339 -0.2581
  620SOL    HW1 2478   2.315   1.032   0.887 -2.0570 -2.2045 -2.1717
  620SOL    HW2 2479   2.162   1.029   0.892  0.1413 -0.0259 -1.0885
  620SOL     MW 2480   2.240   1.066   0.919 -0.3039 -0.4665 -0.6201
  621SOL     OW 2481   1.466   2.212   1.939 -0.4436 -0.1535  0.4499
  621SOL    HW1 2482   1.424   2.122   1.954 -0.3604  1.0626  0.4357
  621SOL    HW2 2483   1.554   2.198   1.986 -0.3835 -2.4553 -0.1628
  621SOL     MW 2484   1.472   2.198   1.947 -0.4247 -0.2968  0.3672
  622SOL     OW 2485   2.650   0.249   0.279  0.0674 -0.4522 -0.6112
  622SOL    HW1 2486   2.747   0.274   0.264  1.6490  0.8541  1.2407
  622SOL    HW2 2487   2.654   0.153   0.291 -1.1957  1.1143  0.2651
  622SOL     MW 2488   2.663   0.239   0.278  0.1095 -0.0731 -0.2513
  623SOL     OW 2489   2.396   2.763   0.888  0.3846 -0.0346 -0.2905
  623SOL    HW1 2490   2.474   2.816   0.877 -2.1040 -3.7022 -1.8138
  623SOL    HW2 2491   2.350   2.793   0.968  1.4561  0.1081  3.2078
  623SOL     MW 2492   2.400   2.774   0.897  0.1976 -0.4997 -0.0299
  624SOL     OW 2493   2.167   1.596   3.039 -0.2077 -0.0334 -0.0237
  624SOL    HW1 2494   2.082   1.560   3.048  1.0565 -2.4894  1.4326
  624SOL    HW2 2495   2.153   1.691   3.019  0.1503  2.8944  0.2493
  624SOL     MW 2496   2.154   1.604   3.038  0.0063  0.0289  0.2045
  625SOL     OW 2497   2.261   1.897   1.044 -0.2525  0.0406  0.7499
  625SOL    HW1 2498   2.309   1.837   1.099 -0.5691  1.9489 -1.3728
  625SOL    HW2 2499   2.289   1.894   0.952  1.4057  1.8460  1.0596
  625SOL     MW 2500   2.271   1.889   1.039 -0.0755  0.5306  0.5107
  626SOL     OW 2501   0.129   1.793   2.428 -0.5266 -0.2335 -0.0454
  626SOL    HW1 2502   0.110   1.714   2.471  2.3148 -0.5998 -2.2023
  626SOL    HW2 2503   0.093   1.861   2.488 -1.5262  0.6097  0.7320
  626SOL     MW 2504   0.122   1.792   2.442 -0.2836 -0.1706 -0.2274
  627SOL     OW 2505   2.489   0.833   2.575  0.0731  0.1501  0.2240
  627SOL    HW1 2506   2.407   0.871   2.607 -0.9678 -0.3887  1.5220
  627SOL    HW2 2507   2.465   0.788   2.490 -2.0627  1.2127 -0.5772
  627SOL     MW 2508   2.475   0.832   2.568 -0.3460  0.2192  0.2895
  628SOL     OW 2509   2.261   1.364   1.312 -0.1211 -0.3947  0.1988
  628SOL    HW1 2510   2.218   1.312   1.247 -0.2270  2.5723 -1.5528
  628SOL    HW2 2511   2.337   1.399   1.262  1.8123 -1.0251  1.8653
  628SOL     MW 2512   2.265   1.361   1.297  0.1200 -0.0864  0.1876
  629SOL     OW 2513   1.765   0.528   1.289  0.1557  0.5560  0.0408
  629SOL    HW1 2514   1.811   0.566   1.209 -0.0163  0.5638  0.2597
  629SOL    HW2 2515   1.681   0.527   1.246 -1.9705 -0.7009  0.6650
  629SOL     MW 2516   1.760   0.533   1.272 -0.1475  0.3912  0.1520
  630SOL     OW 2517   2.401   1.871   3.001  0.3678 -0.3701  0.4406
  630SOL    HW1 2518   2.410   1.965   2.977 -2.2517  1.6919 -0.3031
  630SOL    HW2 2519   2.308   1.871   3.018  0.5698 -1.2195  2.0363
  630SOL     MW 2520   2.390   1.884   3.000  0.0489 -0.2101  0.5530
  631SOL     OW 2521   2.096   1.712   1.530  0.1586 -0.2605 -0.0166
  631SOL    HW1 2522   2.062   1.636   1.577 -1.5289  1.2723 -0.2652
  631SOL    HW2 2523   2.027   1.775   1.512  1.7300 -1.7520 -1.4786
  631SOL     MW 2524   2.082   1.711   1.534  0.1433 -0.2551 -0.2423
  632SOL     OW 2525   0.277   1.927   1.502  0.0242 -0.4025  0.3266
  632SOL    HW1 2526   0.198   1.960   1.546  3.1857 -0.8228 -2.7371
  632SOL    HW2 2527   0.274   1.832   1.493 -1.3840 -0.1041 -0.0774
  632SOL     MW 2528   0.266   1.919   1.507  0.2555 -0.4186 -0.1309
  633SOL     OW 2529   2.637   0.534   0.326  0.0988 -0.0472  0.9430
  633SOL    HW1 2530   2.673   0.561   0.412  0.3662 -1.0613  1.1739
  633SOL    HW2 2531   2.617   0.445   0.343 -4.0362  3.2208 -0.8779
  633SOL     MW 2532   2.639   0.526   0.339 -0.4115  0.2502  0.7332
  634SOL     OW 2533   2.664   3.039   0.633 -0.2202  0.4207  0.3493
  634SOL    HW1 2534   2.697   3.132   0.632  0.1104 -0.4298 -1.5571
  634SOL    HW2 2535   2.660   3.009   0.542  1.7889  0.2085  1.0824
  634SOL     MW 2536   2.668   3.047   0.621  0.0885  0.2805  0.1945
  635SOL     OW 2537   2.625   0.101   1.887 -0.2189 -0.0009 -0.3156
  635SOL    HW1 2538   2.696   0.049   1.840  0.2434 -0.4759 -0.0673
  635SOL    HW2 2539   2.682   0.169   1.935 -0.2321 -2.0241 -1.1306
  635SOL     MW 2540   2.642   0.103   1.887 -0.1597 -0.3305 -0.3904
  636SOL     OW 2541   2.723   1.618   0.879 -0.2798  0.3974 -0.2368
  636SOL    HW1 2542   2.649   1.550   0.882 -3.0236  4.0978 -1.5115
  636SOL    HW2 2543   2.678   1.696   0.903  0.2422  1.4269 -2.4992
  636SOL     MW 2544   2.707   1.619   0.882 -0.5729  1.0215 -0.7035
  637SOL     OW 2545   2.882   1.533   0.639  0.0695 -0.0084 -0.0714
  637SOL    HW1 2546   2.946   1.606   0.617 -0.7087  0.6619  0.3158
  637SOL    HW2 2547   2.840   1.565   0.720 -0.2645  3.1749  0.0644
  637SOL     MW 2548   2.885   1.547   0.647 -0.0773  0.5000 -0.0024
  638SOL     OW 2549   2.769   0.496   0.572  0.6537  0.2775  0.6126
  638SOL    HW1 2550   2.844   0.540   0.532  1.4278 -1.9423  0.0452
  638SOL    HW2 2551   2.770   0.528   0.659  0.3592 -3.0743  0.7613
  638SOL     MW 2552   2.779   0.506   0.578  0.7170 -0.4576  0.5574
  639SOL     OW 2553   1.758   3.091   0.537 -0.3208 -0.2055  0.2371
  639SOL    HW1 2554   1.667   3.067   0.530  2.3842 -1.4051  1.1341
  639SOL    HW2 2555   1.808   3.018   0.499 -0.6335  1.0514  0.3686
  639SOL     MW 2556   1.753   3.079   0.531 -0.0052 -0.1979  0.3728
  640SOL     OW 2557   0.337   1.336   0.110 -0.5143  0.5306  0.4175
  640SOL    HW1 2558   0.363   1.331   0.018 -2.4132 -2.1095  0.9090
  640SOL    HW2 2559   0.309   1.242   0.135  0.3411 -0.0217  0.5393
  640SOL     MW 2560   0.337   1.323   0.101 -0.6520  0.1094  0.4985
  641SOL     OW 2561   2.135   0.408   0.373 -0.9660 -0.3796  0.2429
  641SOL    HW1 2562   2.178   0.386   0.288  0.3643 -1.3197 -0.2094
  641SOL    HW2 2563   2.174   0.352   0.437 -1.9861  1.9372 -0.5994
  641SOL     MW 2564   2.146   0.397   0.370 -0.9251 -0.1980  0.0721
  642SOL     OW 2565   0.060   0.064   0.541 -0.5990  0.4888  0.7602
  642SOL    HW1 2566   0.028   0.150   0.529 -0.3791  3.5192  1.2888
  642SOL    HW2 2567  -0.007   0.005   0.580  0.7706 -2.6611 -1.0528
  642SOL     MW 2568   0.047   0.067   0.544 -0.3893  0.4731  0.5908
  643SOL     OW 2569   2.061   0.313   1.653  0.1522  0.0132 -0.6533
  643SOL    HW1 2570   1.991   0.274   1.701 -1.7792  0.5738 -3.3622
  643SOL    HW2 2571   2.086   0.249   1.587 -1.6302 -0.8996 -0.9375
  643SOL     MW 2572   2.055   0.299   1.650 -0.3378 -0.0333 -1.0482
  644SOL     OW 2573   2.680   1.894   0.993 -0.2205  0.2067 -0.0672
  644SOL    HW1 2574   2.662   1.833   1.068  0.1571 -1.0292  1.3728
  644SOL    HW2 2575   2.602   1.932   0.961  0.0975 -0.7907  1.7417
  644SOL     MW 2576   2.667   1.891   0.998 -0.1287 -0.0879  0.3614
  645SOL     OW 2577   2.835   0.828   0.704 -0.5368  0.3456 -0.4203
  645SOL    HW1 2578   2.912   0.796   0.749  1.5785  2.1113  1.7245
  645SOL    HW2 2579   2.755   0.778   0.729 -0.3445  0.2868 -2.4927
  645SOL     MW 2580   2.835   0.817   0.714 -0.2323  0.5708 -0.4107
  646SOL     OW 2581   0.113   2.284   0.843  0.4786 -0.5037 -0.7197
  646SOL    HW1 2582   0.160   2.201   0.850  0.3088 -0.3059  0.0985
  646SOL    HW2 2583   0.070   2.294   0.757 -0.3343  1.2926  1.8610
  646SOL     MW 2584   0.114   2.274   0.832  0.3490 -0.2406 -0.2712
  647SOL     OW 2585   2.720   0.508   3.021  0.1961 -0.1098  0.2971
  647SOL    HW1 2586   2.667   0.438   3.052  0.2919 -1.8468 -0.0017
  647SOL    HW2 2587   2.714   0.569   3.092 -1.0161  2.1815 -1.5758
  647SOL     MW 2588   2.712   0.507   3.034  0.0488 -0.0367  0.0106
  648SOL     OW 2589   2.261   0.697   1.098 -0.2230 -0.1454  0.3073
  648SOL    HW1 2590   2.268   0.613   1.151  0.9371 -1.8768 -0.4375
  648SOL    HW2 2591   2.202   0.753   1.151 -3.5261 -3.2898  0.3467
  648SOL     MW 2592   2.254   0.694   1.112 -0.5058 -0.7888  0.2142
  649SOL     OW 2593   2.443   2.713   1.236  0.1808 -0.2688 -0.2017
  649SOL    HW1 2594   2.528   2.758   1.260  1.7415  1.1258 -0.7530
  649SOL    HW2 2595   2.466   2.619   1.230 -0.8848  0.6678  4.1670
  649SOL     MW 2596   2.457   2.706   1.238  0.2462  0.0388  0.3020
  650SOL     OW 2597   2.765   0.222   0.668 -0.1030  0.1601 -0.0408
  650SOL    HW1 2598   2.748   0.312   0.638 -0.1617 -0.3790 -0.4527
  650SOL    HW2 2599   2.850   0.201   0.622  0.1382 -1.8662  0.8706
  650SOL     MW 2600   2.774   0.231   0.658 -0.0789 -0.1784  0.0251
  651SOL     OW 2601   0.020   0.460   1.016 -0.3578 -0.0639 -0.3682
  651SOL    HW1 2602   0.070   0.493   0.937 -2.9797  1.1353 -1.7662
  651SOL    HW2 2603  -0.053   0.528   1.027 -0.7289 -0.2916 -2.3749
  651SOL     MW 2604   0.017   0.474   1.007 -0.7527  0.0643 -0.8174
  652SOL     OW 2605   2.355   1.404   3.005  0.2566 -0.0650  0.2700
  652SOL    HW1 2606   2.430   1.422   2.944  2.7030  1.5282  2.6037
  652SOL    HW2 2607   2.299   1.486   3.001  1.4151 -1.8019  0.3916
  652SOL     MW 2608   2.358   1.417   2.996  0.7323 -0.0840  0.5940
  653SOL     OW 2609   1.822   0.388   0.297  0.5283 -0.3711 -0.2845
  653SOL    HW1 2610   1.792   0.316   0.244 -0.7221  1.7697 -1.1286
  653SOL    HW2 2611   1.903   0.426   0.261  2.0011 -0.9625  2.2540
  653SOL     MW 2612   1.829   0.384   0.286  0.5576 -0.1667 -0.0609
  654SOL     OW 2613   2.430   0.971   0.762  0.4806  0.3344  0.5058
  654SOL    HW1 2614   2.379   0.955   0.678  0.5781  1.4080 -0.8252
  654SOL    HW2 2615   2.456   0.881   0.789 -0.5526  1.6516  2.4458
  654SOL     MW 2616   2.427   0.957   0.755  0.3571  0.6498  0.5861
  655SOL     OW 2617   2.911   0.883   0.422 -0.0549  0.2379  0.8061
  655SOL    HW1 2618   2.868   0.907   0.504 -1.7585 -1.4782  0.1753
  655SOL    HW2 2619   2.921   0.785   0.424 -1.1663 -0.9595 -1.4876
  655SOL     MW 2620   2.907   0.873   0.433 -0.4263 -0.1465  0.4203
  656SOL     OW 2621   1.795   2.632   1.404  0.3715 -0.3695  0.2946
  656SOL    HW1 2622   1.820   2.722   1.383  1.7779 -1.6481  1.7039
  656SOL    HW2 2623   1.834   2.579   1.333  1.0215 -0.9381 -1.2029
  656SOL     MW 2624   1.804   2.637   1.392  0.6428 -0.6132  0.2830
  657SOL     OW 2625   0.087   1.815   1.228 -0.7780  0.3467  0.5237
  657SOL    HW1 2626   0.164   1.859   1.194 -3.3977  3.1635  2.4320
  657SOL    HW2 2627   0.111   1.726   1.240  0.0111  2.1003  0.8300
  657SOL     MW 2628   0.100   1.809   1.225 -1.0195  0.9497  0.8159
  658SOL     OW 2629   2.737   1.330   0.250 -0.0626 -0.2203 -0.3206
  658SOL    HW1 2630   2.694   1.259   0.304  1.6777  3.9393  2.5331
  658SOL    HW2 2631   2.733   1.411   0.307 -1.1064  1.3321  1.2695
  658SOL     MW 2632   2.731   1.332   0.265  0.0293  0.5333  0.2657
  659SOL     OW 2633   2.187   1.523   1.014 -0.2113 -0.2771 -0.1261
  659SOL    HW1 2634   2.272   1.505   1.062 -0.4500  0.3648 -1.2799
  659SOL    HW2 2635   2.130   1.554   1.089  0.2489 -5.0571  0.7503
  659SOL     MW 2636   2.191   1.525   1.030 -0.1821 -0.8231 -0.1627
  660SOL     OW 2637   2.091   1.471   1.686  0.2626  0.8101 -0.3376
  660SOL    HW1 2638   2.120   1.492   1.774  0.7943  0.1600  2.8045
  660SOL    HW2 2639   2.004   1.435   1.695 -0.6285  1.1569  1.3154
  660SOL     MW 2640   2.084   1.469   1.699  0.2152  0.7701  0.2951
  661SOL     OW 2641   2.417   0.978   0.223  0.0359  0.0483  0.1287
  661SOL    HW1 2642   2.487   1.013   0.274  0.0207 -0.9911  2.1176
  661SOL    HW2 2643   2.414   0.884   0.251 -0.0751 -4.5499 -0.3605
  661SOL     MW 2644   2.426   0.970   0.233  0.0193 -0.6956  0.3266
  662SOL     OW 2645   2.585   2.965   0.881 -0.1602  0.4395  0.1111
  662SOL    HW1 2646   2.503   3.019   0.893 -1.9373  0.3249  1.3997
  662SOL    HW2 2647   2.615   2.987   0.788 -0.7263  0.8996 -1.3485
  662SOL     MW 2648   2.578   2.975   0.870 -0.4693  0.4851  0.0885
  663SOL     OW 2649   2.678   1.523   0.451 -0.3153 -0.4093  0.2980
  663SOL    HW1 2650   2.687   1.590   0.387  1.2722 -0.6516  0.9628
  663SOL    HW2 2651   2.752   1.542   0.514  0.2116  0.0091  2.8219
  663SOL     MW 2652   2.689   1.535   0.451 -0.0363 -0.3860  0.7187
  664SOL     OW 2653   2.551   1.514   1.602  0.2115 -0.8250 -0.3925
  664SOL    HW1 2654   2.528   1.574   1.536  1.5153 -2.3423  0.6741
  664SOL    HW2 2655   2.488   1.447   1.598 -0.3481 -1.8136 -2.1663
  664SOL     MW 2656   2.539   1.513   1.593  0.3097 -1.1556 -0.4858
  665SOL     OW 2657   2.811   0.776   2.083  0.3183  0.2626  0.2285
  665SOL    HW1 2658   2.786   0.821   2.000  0.1952 -1.6422  0.3471
  665SOL    HW2 2659   2.908   0.759   2.074  1.6172  1.4127  1.3075
  665SOL     MW 2660   2.821   0.780   2.071  0.4734  0.1630  0.3865
  666SOL     OW 2661   2.747   3.027   1.696 -0.0667 -0.3240 -0.3027
  666SOL    HW1 2662   2.777   3.010   1.606  0.0292  2.6411 -0.8081
  666SOL    HW2 2663   2.686   2.953   1.705 -1.0829 -1.8666  0.2434
  666SOL     MW 2664   2.743   3.015   1.685 -0.1881 -0.1363 -0.2973
  667SOL     OW 2665   1.986   2.702   1.758 -1.0028  0.2551 -0.2536
  667SOL    HW1 2666   2.016   2.656   1.838  0.0180  0.6685 -1.1549
  667SOL    HW2 2667   2.062   2.759   1.729  0.5348 -1.2336 -0.4774
  667SOL     MW 2668   2.000   2.703   1.764 -0.6652  0.1132 -0.4020
  668SOL     OW 2669   2.759   0.538   0.835 -0.3467 -0.2480  0.6023
  668SOL    HW1 2670   2.805   0.561   0.921  2.1772  1.3857  3.6871
  668SOL    HW2 2671   2.678   0.586   0.844  2.1739  0.8178 -2.2472
  668SOL     MW 2672   2.754   0.547   0.848  0.3189  0.1082  0.6333
  669SOL     OW 2673   0.157   0.950   0.738 -0.4374  0.7086 -0.6394
  669SOL    HW1 2674   0.123   1.034   0.762  1.6135  3.4142 -0.4720
  669SOL    HW2 2675   0.243   0.952   0.778 -2.4061  0.3658  0.8322
  669SOL     MW 2676   0.164   0.961   0.746 -0.4265  1.0204 -0.4231
  670SOL     OW 2677   2.904   0.316   0.197  0.0165  0.2639  0.1300
  670SOL    HW1 2678   2.911   0.260   0.119  2.4346  0.2586 -0.1272
  670SOL    HW2 2679   2.892   0.409   0.165  0.0313 -2.0402 -2.4614
  670SOL     MW 2680   2.903   0.321   0.183  0.3375 -0.0408 -0.2458
  671SOL     OW 2681   2.016   3.027   1.557  0.4037 -0.1642 -0.0134
  671SOL    HW1 2682   1.954   2.971   1.509  2.2026  0.7518  0.2195
  671SOL    HW2 2683   1.973   3.061   1.637  0.0819 -0.4773 -1.1007
  671SOL     MW 2684   2.002   3.024   1.561  0.5986 -0.0846 -0.1262
  672SOL     OW 2685   1.802   1.743   1.275 -0.3056 -0.3634  0.1641
  672SOL    HW1 2686   1.843   1.790   1.349  0.3789  0.1925  1.1152
  672SOL    HW2 2687   1.874   1.758   1.211 -0.6340  1.4741  1.8255
  672SOL     MW 2688   1.817   1.751   1.276 -0.2586 -0.0476  0.5088
  673SOL     OW 2689   2.741   1.086   0.588 -0.5131  0.7801 -0.7284
  673SOL    HW1 2690   2.761   1.007   0.638 -0.3657  1.1005  2.0964
  673SOL    HW2 2691   2.812   1.151   0.621  0.4844 -2.3211  1.3564
  673SOL     MW 2692   2.753   1.084   0.599 -0.3620  0.4132 -0.0806
  674SOL     OW 2693   2.482   0.021   1.258  0.4266  0.4878 -0.0988
  674SOL    HW1 2694   2.424   0.010   1.181  0.3338  2.0344  0.0832
  674SOL    HW2 2695   2.490  -0.064   1.303  0.1954  0.9180 -1.7039
  674SOL     MW 2696   2.475   0.008   1.254  0.3839  0.7486 -0.2866
  675SOL     OW 2697   2.971   0.929   1.051  0.5250  0.0861  0.3235
  675SOL    HW1 2698   3.029   0.942   1.125  0.8231 -1.7815  1.6758
  675SOL    HW2 2699   2.997   1.001   0.992  0.2304 -3.0227  0.9073
  675SOL     MW 2700   2.982   0.940   1.053  0.5255 -0.5705  0.5790
  676SOL     OW 2701   2.925   1.474   1.694 -0.5845  0.3687 -0.0739
  676SOL    HW1 2702   2.880   1.395   1.666 -0.4375  0.7379  1.1239
  676SOL    HW2 2703   2.942   1.439   1.778 -2.0075 -0.0833  3.3733
  676SOL     MW 2704   2.921   1.459   1.701 -0.7529  0.3578  0.5389
  677SOL     OW 2705   2.367   0.536   2.041  0.2015 -0.4990 -0.2435
  677SOL    HW1 2706   2.362   0.493   1.956 -1.7228  1.8578  0.5954
  677SOL    HW2 2707   2.344   0.630   2.027 -2.2262  0.7698 -0.9185
  677SOL     MW 2708   2.363   0.543   2.028 -0.3727 -0.0206 -0.2219
  678SOL     OW 2709   2.424   1.663   0.286 -0.5795 -0.4402 -0.2177
  678SOL    HW1 2710   2.342   1.657   0.347 -1.6158 -0.2255 -0.7745
  678SOL    HW2 2711   2.446   1.573   0.241 -0.1225  0.0858 -2.8361
  678SOL     MW 2712   2.416   1.650   0.289 -0.6559 -0.3425 -0.6367
  679SOL     OW 2713   2.240   0.436   1.244 -0.0111 -0.1848 -0.2798
  679SOL    HW1 2714   2.294   0.359   1.232  1.0384  1.2740  0.0698
  679SOL    HW2 2715   2.190   0.412   1.323 -3.0205 -1.6730 -3.4904
  679SOL     MW 2716   2.241   0.423   1.253 -0.2697 -0.1887 -0.6573
  680SOL     OW 2717   2.308   0.143   1.467  0.5938 -0.5160 -0.2926
  680SOL    HW1 2718   2.219   0.137   1.436 -1.1780 -0.8868 -1.0445
  680SOL    HW2 2719   2.355   0.088   1.402 -1.8111  1.0680  2.3264
  680SOL     MW 2720   2.302   0.135   1.454  0.0428 -0.3559 -0.0463
  681SOL     OW 2721   0.233   0.541   1.492 -0.0044  0.1216 -0.0968
  681SOL    HW1 2722   0.212   0.483   1.562 -0.7746  0.1552  2.6478
  681SOL    HW2 2723   0.197   0.493   1.411  0.0943 -3.5225  0.9036
  681SOL     MW 2724   0.226   0.527   1.490 -0.0930 -0.3548  0.3973
  682SOL     OW 2725   0.124   2.877   1.501 -0.0296  0.1656 -0.6389
  682SOL    HW1 2726   0.184   2.947   1.535  0.4189  1.8817 -1.3622
  682SOL    HW2 2727   0.046   2.900   1.556  0.9239 -0.4023 -1.0086
  682SOL     MW 2728   0.122   2.889   1.512  0.1554  0.3171 -0.7831
  683SOL     OW 2729   2.074   0.844   2.978 -0.4723 -0.1012  0.0543
  683SOL    HW1 2730   2.025   0.765   2.995 -0.1735  2.2339 -3.2550
  683SOL    HW2 2731   2.042   0.911   3.038  0.0973 -0.0755  0.5210
  683SOL     MW 2732   2.064   0.842   2.988 -0.3577  0.2103 -0.3207
  684SOL     OW 2733   2.154   1.699   0.684 -0.4796  0.5396 -0.4168
  684SOL    HW1 2734   2.174   1.706   0.587 -2.9839  1.6749  0.5248
  684SOL    HW2 2735   2.115   1.612   0.704  0.2937 -0.2954 -0.4098
  684SOL     MW 2736   2.152   1.688   0.674 -0.7080  0.5792 -0.2917
  685SOL     OW 2737   2.721   1.657   1.184 -0.3890  0.1445 -0.3786
  685SOL    HW1 2738   2.751   1.696   1.262 -0.2265 -1.1931 -1.3279
  685SOL    HW2 2739   2.743   1.567   1.197  0.8467  2.3910  0.5083
  685SOL     MW 2740   2.727   1.650   1.196 -0.2045  0.2645 -0.3868
  686SOL     OW 2741   2.883   0.689   1.562  0.3804 -1.0427  1.2635
  686SOL    HW1 2742   2.881   0.681   1.659  1.4148 -0.4952  0.5219
  686SOL    HW2 2743   2.972   0.720   1.551  2.6489  2.5315  0.1907
  686SOL     MW 2744   2.894   0.692   1.573  0.8162 -0.4989  1.0241
  687SOL     OW 2745   2.148   0.164   1.172  0.2942  0.3500  0.0146
  687SOL    HW1 2746   2.203   0.134   1.096 -1.5873 -2.0088 -1.1165
  687SOL    HW2 2747   2.083   0.236   1.139  0.6600  3.4735 -1.2286
  687SOL     MW 2748   2.147   0.169   1.157  0.0942  0.4509 -0.2986
  688SOL     OW 2749   2.385   0.603   1.405  0.0740 -0.3846 -0.7293
  688SOL    HW1 2750   2.340   0.550   1.344 -0.1931  0.8564 -0.2393
  688SOL    HW2 2751   2.315   0.626   1.470  0.2152  0.2329 -4.5025
  688SOL     MW 2752   2.370   0.599   1.406  0.0574 -0.1394 -1.1625
  689SOL     OW 2753   2.459   0.768   2.947  0.1661  0.8680 -0.5697
  689SOL    HW1 2754   2.422   0.856   2.962 -1.0956 -0.7356 -3.8922
  689SOL    HW2 2755   2.533   0.769   3.008 -1.6809  2.0354  2.4631
  689SOL     MW 2756   2.464   0.780   2.957 -0.2441  0.8105 -0.6080
  690SOL     OW 2757   2.028   0.905   1.887 -0.4383  0.0968  0.0352
  690SOL    HW1 2758   2.015   0.818   1.921  0.2751  1.2497 -1.6952
  690SOL    HW2 2759   2.046   0.893   1.792 -2.1622  1.6006  1.0894
  690SOL     MW 2760   2.029   0.892   1.879 -0.5716  0.4473 -0.0540
  691SOL     OW 2761   2.418   0.236   0.849  0.1992  0.5525  0.1393
  691SOL    HW1 2762   2.511   0.263   0.875 -1.5141 -0.7455 -1.5955
  691SOL    HW2 2763   2.365   0.306   0.891  1.1499  0.2848  0.9507
  691SOL     MW 2764   2.423   0.249   0.858  0.0986  0.3460  0.0175
  692SOL     OW 2765   2.883   1.594   1.407  0.2222 -0.3127  0.1074
  692SOL    HW1 2766   2.866   1.566   1.493 -1.9330  1.2317 -1.1993
  692SOL    HW2 2767   2.905   1.688   1.414 -0.7837 -0.9065 -0.5111
  692SOL     MW 2768   2.884   1.603   1.419 -0.1948 -0.1872 -0.1466
  693SOL     OW 2769   2.318   0.432   0.101 -0.0309 -0.5472 -0.5742
  693SOL    HW1 2770   2.234   0.406   0.059 -1.0966  0.2751  1.8539
  693SOL    HW2 2771   2.319   0.525   0.092 -1.8519 -1.1120  2.1738
  693SOL     MW 2772   2.307   0.440   0.094 -0.4117 -0.5132  0.1088
  694SOL     OW 2773   1.900   1.112   1.068 -0.5436  0.0694  0.1787
  694SOL    HW1 2774   1.981   1.142   1.122  0.3175  2.9469 -0.0197
  694SOL    HW2 2775   1.856   1.038   1.122 -1.7838 -1.4760  3.1390
  694SOL     MW 2776   1.905   1.106   1.082 -0.5936  0.2451  0.5431
  695SOL     OW 2777   2.978   1.372   1.293 -0.6902 -0.1169 -0.0590
  695SOL    HW1 2778   2.980   1.399   1.201 -0.2295 -0.2482 -3.5529
  695SOL    HW2 2779   2.923   1.450   1.330  0.1027  0.2621  1.4858
  695SOL     MW 2780   2.971   1.386   1.286 -0.5248 -0.0842 -0.3161
  696SOL     OW 2781   2.100   1.437   0.755 -0.0098 -0.6256  0.1170
  696SOL    HW1 2782   2.138   1.457   0.837 -1.0516 -1.0788 -0.1633
  696SOL    HW2 2783   2.033   1.377   0.786  1.1845  1.4731 -0.4065
  696SOL     MW 2784   2.097   1.432   0.770  0.0103 -0.4085  0.0109
  697SOL     OW 2785   2.869   0.978   2.259  0.3992  0.3834 -0.1704
  697SOL    HW1 2786   2.814   1.055   2.239  2.0287 -2.3171  2.5788
  697SOL    HW2 2787   2.833   0.899   2.207  0.9154  0.1157 -0.6395
  697SOL     MW 2788   2.857   0.978   2.249  0.6823 -0.0082  0.1304
  698SOL     OW 2789   2.574   0.284   0.018  0.5051 -0.4747  0.2919
  698SOL    HW1 2790   2.483   0.320   0.032 -0.4960 -1.4525  0.6676
  698SOL    HW2 2791   2.592   0.249   0.111  0.4061 -1.6086  0.1046
  698SOL     MW 2792   2.564   0.284   0.032  0.3599 -0.7533  0.3167
  699SOL     OW 2793   1.920   1.629   2.089  0.7438  0.5078 -0.2828
  699SOL    HW1 2794   1.857   1.559   2.084 -0.3337 -2.2252  0.4615
  699SOL    HW2 2795   1.998   1.582   2.121 -0.1723 -4.8136  0.2752
  699SOL     MW 2796   1.922   1.613   2.092  0.4808 -0.5549 -0.1110
  700SOL     OW 2797   2.710   0.889   1.584  0.1414 -0.2101 -0.8106
  700SOL    HW1 2798   2.747   0.957   1.518  1.4460  0.0425  0.3652
  700SOL    HW2 2799   2.749   0.803   1.560  0.2160 -1.2002 -0.1379
  700SOL     MW 2800   2.720   0.886   1.572  0.3234 -0.3074 -0.5667
  701SOL     OW 2801   1.684   1.166   2.501 -0.2021  0.2526 -0.0219
  701SOL    HW1 2802   1.765   1.157   2.548 -1.4827 -1.4126  2.4507
  701SOL    HW2 2803   1.627   1.230   2.540  0.2485 -2.1476 -0.2962
  701SOL     MW 2804   1.687   1.173   2.512 -0.3117 -0.2838  0.2681
  702SOL     OW 2805   2.154   0.426   0.834  0.5470  0.6599 -0.3741
  702SOL    HW1 2806   2.126   0.347   0.789 -0.7311  0.2039  2.1325
  702SOL    HW2 2807   2.199   0.476   0.769  1.3971 -1.0757  0.4388
  702SOL     MW 2808   2.156   0.422   0.819  0.4905  0.3707  0.0639
  703SOL     OW 2809   2.726   1.242   0.987 -0.0995 -0.4002 -0.4437
  703SOL    HW1 2810   2.665   1.216   0.921  0.8708  0.2481 -0.8575
  703SOL    HW2 2811   2.722   1.171   1.049 -0.8556  1.7179 -0.1498
  703SOL     MW 2812   2.718   1.229   0.987 -0.0712 -0.0352 -0.4595
  704SOL     OW 2813   3.036   1.274   0.151  0.3040  0.1108 -0.5036
  704SOL    HW1 2814   2.944   1.258   0.123 -2.5600  1.6663 -1.6591
  704SOL    HW2 2815   3.042   1.253   0.248  1.6152 -2.6696 -0.1483
  704SOL     MW 2816   3.025   1.269   0.160  0.0991 -0.0508 -0.6092
  705SOL     OW 2817   2.127   1.608   1.287 -0.7011 -0.1882  0.3283
  705SOL    HW1 2818   2.137   1.663   1.371  0.4601  0.1571 -1.1584
  705SOL    HW2 2819   2.155   1.526   1.318  1.1229 -0.3700  0.4637
  705SOL     MW 2820   2.132   1.605   1.302 -0.3072 -0.1666  0.1500
  706SOL     OW 2821   2.947   1.257   0.633  0.5451 -0.0096  0.2661
  706SOL    HW1 2822   2.994   1.243   0.547 -0.2002  2.5392 -0.8305
  706SOL    HW2 2823   2.907   1.349   0.614 -0.6661 -2.6000  0.9207
  706SOL     MW 2824   2.948   1.267   0.619  0.2869 -0.0151  0.2078
  707SOL     OW 2825   2.339   0.010   0.999  0.1536 -0.6007 -0.6489
  707SOL    HW1 2826   2.377   0.088   0.954 -3.2684 -0.5580  0.7475
  707SOL    HW2 2827   2.262  -0.005   0.940 -0.0906  0.4035  2.5859
  707SOL     MW 2828   2.334   0.018   0.985 -0.3301 -0.4626 -0.0378
  708SOL     OW 2829   2.457   1.394   0.171  0.5595  0.0771 -0.4098
  708SOL    HW1 2830   2.551   1.370   0.179 -0.4372 -0.1431  1.8950
  708SOL    HW2 2831   2.435   1.406   0.079 -0.5198 -4.6870 -0.7145
  708SOL     MW 2832   2.467   1.393   0.160  0.2856 -0.5805 -0.1459
  709SOL     OW 2833   1.713   1.633   0.214 -0.0506 -0.0170  0.0415
  709SOL    HW1 2834   1.720   1.636   0.119 -2.9413 -0.2304  0.4594
  709SOL    HW2 2835   1.630   1.602   0.230 -0.4904  0.4313  0.6255
  709SOL     MW 2836   1.703   1.630   0.204 -0.4900  0.0140  0.1737
  710SOL     OW 2837   2.144   1.172   1.167  0.0223  0.2098  0.2678
  710SOL    HW1 2838   2.191   1.157   1.081  4.2401  1.5367  3.3271
  710SOL    HW2 2839   2.158   1.084   1.213 -0.1333 -2.6312  0.4212
  710SOL     MW 2840   2.152   1.158   1.161  0.5583  0.0100  0.6917
  711SOL     OW 2841   2.356   0.117   1.797  0.6159  0.4998  0.2891
  711SOL    HW1 2842   2.447   0.111   1.818 -0.2924  0.0552 -1.4925
  711SOL    HW2 2843   2.352   0.156   1.707  1.8288  0.9805 -0.1099
  711SOL     MW 2844   2.368   0.122   1.788  0.6561  0.5045  0.0014
  712SOL     OW 2845   1.909   0.625   3.067 -0.7553 -0.0118  0.0897
  712SOL    HW1 2846   1.827   0.650   3.023 -0.9818  2.7515 -0.7811
  712SOL    HW2 2847   1.909   0.651   3.156  2.0838 -2.3343 -1.8332
  712SOL     MW 2848   1.898   0.632   3.073 -0.4106  0.0464 -0.2789
  713SOL     OW 2849   2.550   0.710   1.089  0.0939  0.0929  0.1195
  713SOL    HW1 2850   2.588   0.646   1.153  1.2379 -1.4930 -2.1199
  713SOL    HW2 2851   2.460   0.699   1.102  1.3672 -1.5212 -0.4222
  713SOL     MW 2852   2.543   0.700   1.099  0.4128 -0.3293 -0.2475
  714SOL     OW 2853   2.201   0.204   2.001  0.1406  0.5528  0.4328
  714SOL    HW1 2854   2.238   0.160   2.077 -0.4774  0.8644 -1.3815
  714SOL    HW2 2855   2.255   0.178   1.919  2.4617  2.1299 -1.3515
  714SOL     MW 2856   2.213   0.195   2.000  0.3653  0.8020 -0.0420
  715SOL     OW 2857   1.819   2.050   1.742 -0.1011  0.1436  0.0469
  715SOL    HW1 2858   1.904   2.087   1.739 -0.2281  0.0663  1.3544
  715SOL    HW2 2859   1.810   1.975   1.807 -1.2230  0.6482  0.8992
  715SOL     MW 2860   1.829   2.045   1.750 -0.2659  0.2000  0.3318
  716SOL     OW 2861   2.327   0.548   0.654  0.2506  0.0596  0.3049
  716SOL    HW1 2862   2.387   0.480   0.619 -1.2298  2.7361 -1.4597
  716SOL    HW2 2863   2.272   0.570   0.571 -1.3084 -2.6284 -1.1712
  716SOL     MW 2864   2.327   0.542   0.639 -0.1504  0.0581 -0.1227
  717SOL     OW 2865   2.822   1.638   2.897  0.4558 -0.3283  0.0619
  717SOL    HW1 2866   2.892   1.610   2.961  0.7394 -0.9747  1.0352
  717SOL    HW2 2867   2.752   1.707   2.932 -0.9112 -1.3891 -1.3857
  717SOL     MW 2868   2.822   1.643   2.910  0.3129 -0.5536 -0.0007
  718SOL     OW 2869   2.679   1.392   1.325  0.0594 -0.3021  0.1138
  718SOL    HW1 2870   2.652   1.375   1.416 -1.2975 -0.7338 -0.0006
  718SOL    HW2 2871   2.739   1.322   1.304  0.4816 -1.4989 -0.2624
  718SOL     MW 2872   2.684   1.380   1.334 -0.0639 -0.5170  0.0491
  719SOL     OW 2873   2.185   1.249   0.576  0.0980  0.7203  0.3701
  719SOL    HW1 2874   2.262   1.284   0.532  0.1759  0.8910 -1.2113
  719SOL    HW2 2875   2.167   1.305   0.664  1.0759  0.8908  0.7771
  719SOL     MW 2876   2.193   1.261   0.582  0.2373  0.7653  0.2152
  720SOL     OW 2877   2.782   1.156   0.038 -0.0037  0.4567 -0.4161
  720SOL    HW1 2878   2.816   1.074   0.079 -0.5359 -0.5581 -1.3542
  720SOL    HW2 2879   2.746   1.208   0.113  1.6656  0.7197 -2.2627
  720SOL     MW 2880   2.781   1.152   0.053  0.1463  0.3575 -0.7835
  721SOL     OW 2881   2.484   0.855   1.399 -0.2805 -0.7832 -0.4880
  721SOL    HW1 2882   2.459   0.762   1.404  0.6281  1.3610  1.4640
  721SOL    HW2 2883   2.538   0.869   1.471  1.8477  1.6624 -1.6929
  721SOL     MW 2884   2.488   0.844   1.409  0.1202 -0.1776 -0.3894
  722SOL     OW 2885   2.606   1.119   0.374 -0.2666  0.2281  0.0080
  722SOL    HW1 2886   2.551   1.176   0.417  0.8304  1.2154  0.4929
  722SOL    HW2 2887   2.678   1.110   0.445 -1.6442  0.8737 -0.2664
  722SOL     MW 2888   2.608   1.126   0.389 -0.3036  0.4436  0.0358
  723SOL     OW 2889   2.319   1.359   1.589 -0.1753 -0.6634 -0.0990
  723SOL    HW1 2890   2.301   1.363   1.493 -1.2852  3.2932 -0.4962
  723SOL    HW2 2891   2.239   1.399   1.623  1.5863  2.6506 -2.5160
  723SOL     MW 2892   2.306   1.365   1.581 -0.0893  0.2959 -0.4703
  724SOL     OW 2893   2.480   0.317   0.591  0.2685 -0.2624  0.1404
  724SOL    HW1 2894   2.455   0.286   0.678 -0.6510  2.0540  1.3226
  724SOL    HW2 2895   2.554   0.265   0.561  0.9148 -1.3036  0.6171
  724SOL     MW 2896   2.486   0.306   0.599  0.2325 -0.0941  0.3593
  725SOL     OW 2897   2.591   0.420   1.221  0.0356 -0.1042 -0.0872
  725SOL    HW1 2898   2.647   0.482   1.263 -1.2743 -0.4160  2.1814
  725SOL    HW2 2899   2.633   0.338   1.241 -0.0007  1.3459 -1.1369
  725SOL     MW 2900   2.604   0.417   1.229 -0.1420  0.0460  0.0736
  726SOL     OW 2901   2.528   2.521   0.528  0.2274  0.3062 -0.3487
  726SOL    HW1 2902   2.514   2.618   0.524 -0.2009  1.0372 -1.2103
  726SOL    HW2 2903   2.538   2.498   0.621  0.1079  2.1337 -0.1962
  726SOL     MW 2904   2.527   2.531   0.540  0.1551  0.6437 -0.4423
  727SOL     OW 2905   2.850   0.339   1.767  0.0778 -0.1779  0.0339
  727SOL    HW1 2906   2.788   0.321   1.689 -1.1669  4.0471 -2.3736
  727SOL    HW2 2907   2.810   0.316   1.854 -1.2723 -1.3340 -1.5686
  727SOL     MW 2908   2.836   0.334   1.768 -0.2645  0.2270 -0.4952
  728SOL     OW 2909   2.849   1.161   2.858  0.1053  0.3793  0.1302
  728SOL    HW1 2910   2.838   1.244   2.807  0.3301 -1.8425  1.6482
  728SOL    HW2 2911   2.825   1.183   2.950  0.2389  2.1544  1.6595
  728SOL     MW 2912   2.844   1.174   2.863  0.1525  0.3203  0.5323
  729SOL     OW 2913   2.443   1.463   1.157  0.6282  0.1875 -0.8382
  729SOL    HW1 2914   2.524   1.427   1.191 -0.7528  0.3189 -1.8843
  729SOL    HW2 2915   2.451   1.459   1.059 -1.3138 -0.8163 -1.3735
  729SOL     MW 2916   2.455   1.458   1.149  0.1897  0.0724 -1.0469
  730SOL     OW 2917   2.238   1.190   0.296 -0.7179  0.2371 -0.0492
  730SOL    HW1 2918   2.295   1.121   0.262  1.4805 -0.8008 -0.2647
  730SOL    HW2 2919   2.278   1.267   0.251 -1.5462 -0.2813 -0.9314
  730SOL     MW 2920   2.251   1.191   0.286 -0.5371  0.0317 -0.1940
  731SOL     OW 2921   2.789   2.070   2.867 -0.1847  0.0172 -0.2055
  731SOL    HW1 2922   2.729   2.050   2.795 -1.8676 -1.1051 -1.0301
  731SOL    HW2 2923   2.866   2.017   2.865  0.0738  0.7125  2.5105
  731SOL     MW 2924   2.791   2.061   2.858 -0.3726 -0.0391  0.0440
  732SOL     OW 2925   2.223   0.958   1.322 -0.2677  1.0041 -0.5241
  732SOL    HW1 2926   2.170   0.973   1.402 -2.5105  0.7374  0.9484
  732SOL    HW2 2927   2.304   0.939   1.365 -0.7899  0.0773  0.2559
  732SOL     MW 2928   2.227   0.957   1.339 -0.6325  0.8466 -0.2269
  733SOL     OW 2929   2.395   2.822   3.022 -0.6076 -0.1241  0.1006
  733SOL    HW1 2930   2.301   2.856   3.029 -0.3908 -0.3640 -0.5621
  733SOL    HW2 2931   2.387   2.725   3.008 -1.2922 -0.1510 -1.0796
  733SOL     MW 2932   2.381   2.814   3.021 -0.6693 -0.1593 -0.1425
  734SOL     OW 2933   1.525   0.271   2.533  0.3946 -0.5510 -0.3554
  734SOL    HW1 2934   1.480   0.236   2.611 -1.4572  0.0482  0.9979
  734SOL    HW2 2935   1.504   0.205   2.468 -0.6614  1.1627  0.0132
  734SOL     MW 2936   1.516   0.258   2.534  0.0110 -0.2458 -0.1282
  735SOL     OW 2937   2.943   0.928   2.655  0.4092  0.5870  0.3177
  735SOL    HW1 2938   2.904   0.837   2.654 -0.3552  1.3049 -0.2116
  735SOL    HW2 2939   2.992   0.940   2.739 -0.0013  2.0978 -0.0206
  735SOL     MW 2940   2.944   0.917   2.666  0.2542  0.8810  0.2032
  736SOL     OW 2941   0.080   0.627   2.583  0.1387 -0.5588  0.4408
  736SOL    HW1 2942   0.111   0.676   2.502 -0.1195  0.5196 -0.3880
  736SOL    HW2 2943   0.077   0.541   2.547  1.7434 -0.3529 -0.5195
  736SOL     MW 2944   0.084   0.622   2.568  0.3163 -0.3893  0.2047
  737SOL     OW 2945   2.922   0.652   2.643  0.1564  0.4170 -0.0839
  737SOL    HW1 2946   2.876   0.606   2.576 -0.4457  0.0397  0.7676
  737SOL    HW2 2947   3.013   0.643   2.616 -2.0124  0.9406  0.7552
  737SOL     MW 2948   2.928   0.645   2.631 -0.2092  0.4363  0.1392
  738SOL     OW 2949   0.203   0.592   1.908 -0.5307 -0.4185 -0.2330
  738SOL    HW1 2950   0.295   0.624   1.905  0.9477  0.0355  0.2821
  738SOL    HW2 2951   0.203   0.511   1.856 -0.1879  1.7844 -2.2263
  738SOL     MW 2952   0.215   0.585   1.901 -0.2904 -0.0679 -0.4281
  739SOL     OW 2953   2.476   1.016   2.072 -0.5033 -0.1525  0.3111
  739SOL    HW1 2954   2.430   0.940   2.045  5.2732 -0.9926 -0.1018
  739SOL    HW2 2955   2.506   1.058   1.993 -3.4098  0.4004 -1.9723
  739SOL     MW 2956   2.474   1.011   2.058 -0.1246 -0.1904 -0.0446
  740SOL     OW 2957   0.141   1.809   2.919 -0.6035  0.5963  0.0285
  740SOL    HW1 2958   0.110   1.718   2.926 -0.1185 -0.6284  1.8984
  740SOL    HW2 2959   0.231   1.809   2.958 -1.4088 -0.2511 -2.4330
  740SOL     MW 2960   0.149   1.797   2.925 -0.6457  0.3229 -0.0496
  741SOL     OW 2961   2.217   1.187   2.713  0.5366  0.3476 -0.2908
  741SOL    HW1 2962   2.150   1.247   2.689  0.5610  0.6796  0.7015
  741SOL    HW2 2963   2.206   1.187   2.814 -0.5552 -0.9953  0.1393
  741SOL     MW 2964   2.206   1.195   2.723  0.3958  0.2142 -0.1031
  742SOL     OW 2965   1.701   1.253   2.239  0.3877 -0.1038  0.5186
  742SOL    HW1 2966   1.615   1.238   2.199 -1.4725  0.9218  0.3696
  742SOL    HW2 2967   1.701   1.214   2.327 -1.3215  0.1730 -0.0589
  742SOL     MW 2968   1.690   1.246   2.245 -0.0832  0.0680  0.4227
  743SOL     OW 2969   2.498   1.259   2.717  0.3717 -0.0482 -0.4822
  743SOL    HW1 2970   2.405   1.247   2.696 -3.7081  1.8127  3.7508
  743SOL    HW2 2971   2.551   1.181   2.748  2.0462 -1.9139 -0.4059
  743SOL     MW 2972   2.493   1.247   2.718  0.0543 -0.0488  0.0864
  744SOL     OW 2973   2.794   0.937   1.850  0.2379  0.3499  0.3162
  744SOL    HW1 2974   2.727   1.006   1.854  0.2363  4.0131 -0.3801
  744SOL    HW2 2975   2.780   0.885   1.770  2.2437 -0.1803  0.8899
  744SOL     MW 2976   2.784   0.940   1.840  0.5024  0.7633  0.3001
  745SOL     OW 2977   1.734   0.453   2.483 -0.2755  0.3685 -0.1205
  745SOL    HW1 2978   1.712   0.455   2.388  0.5989  1.3916 -0.2817
  745SOL    HW2 2979   1.651   0.412   2.514  0.3832 -1.2531 -2.2723
  745SOL     MW 2980   1.720   0.448   2.475 -0.0732  0.2896 -0.4256
  746SOL     OW 2981   1.596   1.458   1.659 -0.3052 -0.3514  0.2781
  746SOL    HW1 2982   1.688   1.447   1.629 -2.7650  1.4594  0.0874
  746SOL    HW2 2983   1.596   1.440   1.755 -1.1071  0.9309  1.7610
  746SOL     MW 2984   1.608   1.454   1.668 -0.7355  0.0567  0.4486
  747SOL     OW 2985   2.581   1.119   1.800  0.1905 -0.2999  0.0941
  747SOL    HW1 2986   2.484   1.101   1.797  0.1199  1.0316 -1.1353
  747SOL    HW2 2987   2.598   1.191   1.860  0.4642 -1.1797  2.4098
  747SOL     MW 2988   2.571   1.126   1.807  0.2173 -0.2403  0.2375
  748SOL     OW 2989   0.091   0.001   1.918  0.1432 -0.0043 -0.0402
  748SOL    HW1 2990   0.155   0.055   1.881  0.8122  0.3706  0.7025
  748SOL    HW2 2991   0.055   0.060   1.988 -3.0496  4.0685  0.0170
  748SOL     MW 2992   0.095   0.016   1.923 -0.1898  0.5825  0.0654
  749SOL     OW 2993   2.484   0.595   2.731 -0.2805 -0.5130  0.0468
  749SOL    HW1 2994   2.495   0.676   2.679  1.3202  1.2847  0.9553
  749SOL    HW2 2995   2.466   0.626   2.821  3.6350  1.7035 -1.5386
  749SOL     MW 2996   2.483   0.610   2.736  0.4473  0.0167 -0.0425
  750SOL     OW 2997   2.052   3.063   1.964 -0.2323  0.5487  0.2191
  750SOL    HW1 2998   2.079   3.151   1.978 -1.1762 -0.0936 -1.2159
  750SOL    HW2 2999   2.128   3.004   1.967 -0.8091  0.3356  0.9620
  750SOL     MW 3000   2.066   3.066   1.967 -0.4329  0.4358  0.1278
  751SOL     OW 3001   0.087   0.406   2.378  0.5951  0.2872  0.4536
  751SOL    HW1 3002   0.095   0.318   2.416 -1.4114  1.3767 -0.8715
  751SOL    HW2 3003   0.155   0.394   2.306 -0.0628 -1.3025  0.3977
  751SOL     MW 3004   0.097   0.393   2.373  0.2436  0.2212  0.2714
  752SOL     OW 3005   2.134   0.751   2.716 -0.2125 -0.2575  0.1235
  752SOL    HW1 3006   2.164   0.824   2.656  1.1928  1.9421  0.9868
  752SOL    HW2 3007   2.124   0.788   2.803  0.4099 -0.1091 -0.1556
  752SOL     MW 3008   2.137   0.765   2.719  0.0550  0.0523  0.2006
  753SOL     OW 3009   2.905   0.228   2.449 -0.2364  0.3930 -0.4171
  753SOL    HW1 3010   2.852   0.154   2.417 -2.1312 -1.8991  0.3882
  753SOL    HW2 3011   2.841   0.292   2.447 -1.2051  0.5680  1.1691
  753SOL     MW 3012   2.890   0.227   2.444 -0.6142  0.1136 -0.1015
  754SOL     OW 3013   2.238   2.964   2.578 -0.5586 -0.1000  0.3049
  754SOL    HW1 3014   2.262   2.936   2.491  0.1632  0.5609  0.2184
  754SOL    HW2 3015   2.300   2.944   2.653 -0.5647  2.7935  1.5805
  754SOL     MW 3016   2.249   2.958   2.577 -0.4642  0.3690  0.4618
  755SOL     OW 3017   2.731   1.513   2.468 -1.0429  0.3195 -0.3372
  755SOL    HW1 3018   2.709   1.450   2.542 -1.0213 -0.0262  2.4196
  755SOL    HW2 3019   2.790   1.569   2.527 -1.1723 -0.4668  0.4833
  755SOL     MW 3020   2.736   1.512   2.485 -1.0572  0.1701  0.1348
  756SOL     OW 3021   2.180   1.181   2.978  0.0921 -0.3297  0.5738
  756SOL    HW1 3022   2.224   1.272   2.977 -0.3967  0.2104 -2.7948
  756SOL    HW2 3023   2.252   1.123   2.999 -1.6771 -2.2613  1.0978
  756SOL     MW 3024   2.195   1.186   2.981 -0.2058 -0.5133  0.1985
  757SOL     OW 3025   2.100   0.910   1.619  0.2951  0.0797  0.3289
  757SOL    HW1 3026   2.139   0.822   1.608 -1.5888 -0.9767  1.2823
  757SOL    HW2 3027   2.006   0.900   1.585 -0.5352  0.6505  2.4433
  757SOL     MW 3028   2.093   0.897   1.613 -0.0630  0.0156  0.7337
  758SOL     OW 3029   2.228   1.782   2.616  0.0792  0.4352 -0.4340
  758SOL    HW1 3030   2.222   1.799   2.525 -1.0477 -0.8082  1.6252
  758SOL    HW2 3031   2.330   1.768   2.621  4.9535  1.6109 -0.6126
  758SOL     MW 3032   2.240   1.783   2.604  0.5736  0.4263 -0.1859
  759SOL     OW 3033   1.553   1.361   2.661 -0.2609  0.3117 -0.0116
  759SOL    HW1 3034   1.548   1.449   2.624 -0.2333  0.0562  0.1327
  759SOL    HW2 3035   1.592   1.376   2.749  1.7182  0.4999  1.0017
  759SOL     MW 3036   1.557   1.374   2.668  0.0039  0.3028  0.1412
  760SOL     OW 3037   2.578   1.999   2.704  0.0658 -0.1604 -0.3342
  760SOL    HW1 3038   2.582   1.907   2.679  1.7162 -1.3223  2.4315
  760SOL    HW2 3039   2.561   2.062   2.633 -1.4269 -3.2651  1.8617
  760SOL     MW 3040   2.576   1.995   2.691  0.0866 -0.7233  0.3204
  761SOL     OW 3041   2.189   0.352   2.428  0.3310 -0.5081  0.3553
  761SOL    HW1 3042   2.106   0.303   2.413 -0.0117 -2.4825 -2.3563
  761SOL    HW2 3043   2.191   0.361   2.525 -1.0905 -1.2949 -1.2098
  761SOL     MW 3044   2.179   0.347   2.439  0.0982 -0.8724 -0.2090
  762SOL     OW 3045   0.043   0.196   2.124 -0.8304  0.2106 -0.4664
  762SOL    HW1 3046   0.033   0.142   2.198 -1.1300 -1.2234  0.0314
  762SOL    HW2 3047  -0.022   0.264   2.144 -0.6011 -1.9535 -1.6686
  762SOL     MW 3048   0.033   0.198   2.136 -0.8397 -0.2642 -0.5593
  763SOL     OW 3049   2.343   1.022   2.347  0.0526  0.1000 -0.0241
  763SOL    HW1 3050   2.405   0.960   2.300 -2.6980 -0.8763 -3.1459
  763SOL    HW2 3051   2.413   1.095   2.365  0.8892 -2.7150 -0.1886
  763SOL     MW 3052   2.360   1.024   2.343 -0.1999 -0.4002 -0.4577
  764SOL     OW 3053   0.487   0.226   2.806  0.1098 -0.0071 -0.3738
  764SOL    HW1 3054   0.411   0.172   2.796  0.3326 -2.9871  0.0064
  764SOL    HW2 3055   0.456   0.314   2.844  1.6878  0.7778 -1.8314
  764SOL     MW 3056   0.473   0.230   2.810  0.3474 -0.2967 -0.5160
  765SOL     OW 3057   2.757   0.008   2.351 -0.5316 -0.4778  0.0482
  765SOL    HW1 3058   2.703  -0.022   2.271  2.3537 -1.8338  0.6197
  765SOL    HW2 3059   2.810  -0.073   2.370  0.3317 -1.6204 -0.6958
  765SOL     MW 3060   2.757  -0.007   2.343 -0.0370 -0.8074  0.0255
  766SOL     OW 3061   1.863   2.974   2.160  0.3405 -0.4515 -0.1630
  766SOL    HW1 3062   1.915   3.008   2.095 -0.6443  0.4725  1.0322
  766SOL    HW2 3063   1.807   2.904   2.120 -3.0897  1.6050 -0.1120
  766SOL     MW 3064   1.862   2.969   2.146 -0.2420 -0.0583  0.0014
  767SOL     OW 3065   2.656   0.560   2.001  0.6027  0.0992  0.6384
  767SOL    HW1 3066   2.699   0.631   2.049  0.1790  0.2015  2.7157
  767SOL    HW2 3067   2.563   0.548   2.022 -0.3380 -1.3993 -1.7282
  767SOL     MW 3068   2.649   0.568   2.010  0.4227 -0.0850  0.6002
  768SOL     OW 3069   3.083   1.567   2.969 -0.4282  0.9059 -0.0284
  768SOL    HW1 3070   3.148   1.535   3.039 -0.2472 -0.9793  0.5828
  768SOL    HW2 3071   3.074   1.495   2.906  0.1319  3.2180  5.0411
  768SOL     MW 3072   3.090   1.553   2.970 -0.3304  0.9622  0.7211
  769SOL     OW 3073   2.430   0.684   2.322  0.0090  0.5731 -0.3963
  769SOL    HW1 3074   2.348   0.646   2.361  0.3956  1.1342  0.0824
  769SOL    HW2 3075   2.467   0.608   2.272 -2.2988 -3.5431  0.7698
  769SOL     MW 3076   2.424   0.669   2.321 -0.2445  0.1040 -0.1793
  770SOL     OW 3077   0.075   1.594   2.605 -0.6364 -0.3760  0.0347
  770SOL    HW1 3078  -0.022   1.613   2.602  1.1234 -0.8176 -1.2578
  770SOL    HW2 3079   0.076   1.506   2.646 -2.7976  1.7217  1.5916
  770SOL     MW 3080   0.062   1.585   2.610 -0.6894 -0.1575  0.0696
  771SOL     OW 3081   3.055   0.671   2.014  0.5200 -0.2927 -0.3407
  771SOL    HW1 3082   3.004   0.641   1.938  0.5057 -3.2089 -1.0642
  771SOL    HW2 3083   3.141   0.631   2.018 -2.6009  0.9831  0.2588
  771SOL     MW 3084   3.060   0.661   2.005  0.1064 -0.5091 -0.3571
  772SOL     OW 3085   3.091   0.009   2.329 -0.1948 -0.3936  0.0457
  772SOL    HW1 3086   3.001  -0.028   2.321 -1.4926  1.3127  0.8162
  772SOL    HW2 3087   3.150  -0.056   2.280  2.8163 -0.5186 -0.7755
  772SOL     MW 3088   3.087  -0.005   2.321  0.0313 -0.1850  0.0390
  773SOL     OW 3089   2.439   2.840   2.749 -0.2560  0.2221  0.3229
  773SOL    HW1 3090   2.433   2.756   2.709 -0.3011 -1.2545  3.4947
  773SOL    HW2 3091   2.413   2.820   2.839 -1.5699  2.5323 -1.4351
  773SOL     MW 3092   2.435   2.826   2.756 -0.4353  0.3321  0.5094
  774SOL     OW 3093   2.295   1.074   1.744  0.1770 -0.2713 -0.1404
  774SOL    HW1 3094   2.268   1.129   1.670  0.4002  0.2261 -2.0441
  774SOL    HW2 3095   2.228   1.000   1.729 -2.4110 -0.3765 -0.8737
  774SOL     MW 3096   2.283   1.071   1.732 -0.1350 -0.2196 -0.4883
  775SOL     OW 3097   2.271   2.872   2.319  0.4922 -0.0838 -0.6848
  775SOL    HW1 3098   2.287   2.947   2.258  1.7672  0.4344  0.0877
  775SOL    HW2 3099   2.335   2.801   2.286 -0.9076 -0.0285 -0.8163
  775SOL     MW 3100   2.282   2.873   2.307  0.4757 -0.0081 -0.6002
  776SOL     OW 3101   0.110   1.483   0.093  0.0919 -0.1680  0.0323
  776SOL    HW1 3102   0.190   1.428   0.111 -2.4553  2.4748 -1.9392
  776SOL    HW2 3103   0.038   1.419   0.123  0.1729 -1.2188 -0.8043
  776SOL     MW 3104   0.111   1.467   0.100 -0.2335  0.0420 -0.3382
  777SOL     OW 3105   2.935   1.160   1.764  0.0385  0.1165 -0.5099
  777SOL    HW1 3106   2.848   1.189   1.733 -0.2109  1.0758  0.7697
  777SOL    HW2 3107   2.914   1.069   1.789  0.1101  1.0073 -3.5580
  777SOL     MW 3108   2.921   1.152   1.763  0.0151  0.3606 -0.7432
  778SOL     OW 3109   2.886   0.459   2.820  0.2896  0.8552 -0.1056
  778SOL    HW1 3110   2.832   0.492   2.896 -1.0794  1.5606  0.7964
  778SOL    HW2 3111   2.902   0.538   2.768  1.7837 -0.1288 -1.7209
  778SOL     MW 3112   2.881   0.474   2.823  0.3061  0.8184 -0.1997
  779SOL     OW 3113   2.173   0.613   2.350 -0.2402 -0.4072 -0.1515
  779SOL    HW1 3114   2.099   0.652   2.394 -1.2583  3.0965  3.7298
  779SOL    HW2 3115   2.170   0.527   2.400 -2.7057  3.5472  2.7990
  779SOL     MW 3116   2.163   0.607   2.362 -0.6998  0.5768  0.7499
  780SOL     OW 3117   0.230   0.094   2.766  0.4659  0.2135  0.6332
  780SOL    HW1 3118   0.185   0.156   2.826 -0.8396 -2.1734 -1.1634
  780SOL    HW2 3119   0.176   0.096   2.687 -0.1373 -0.2617  0.3515
  780SOL     MW 3120   0.217   0.103   2.763  0.2141 -0.1641  0.3590
  781SOL     OW 3121   3.070   1.286   2.506  0.1079 -0.1119 -0.1491
  781SOL    HW1 3122   3.059   1.328   2.421  2.3995 -0.7208 -1.0097
  781SOL    HW2 3123   3.081   1.194   2.480  2.0737 -1.5995  0.0096
  781SOL     MW 3124   3.070   1.279   2.491  0.6696 -0.3885 -0.2417
  782SOL     OW 3125   0.526   1.537   2.991 -0.4496  1.2744 -0.2673
  782SOL    HW1 3126   0.489   1.627   2.994 -0.1194 -0.1696 -0.4903
  782SOL    HW2 3127   0.519   1.507   3.081  3.1015 -0.5541  2.5988
  782SOL     MW 3128   0.520   1.545   3.004  0.0625  0.8426  0.0814
  783SOL     OW 3129   2.798   0.486   2.473  0.5558 -0.2212 -0.4650
  783SOL    HW1 3130   2.723   0.478   2.412  1.5424 -1.9793  1.7085
  783SOL    HW2 3131   2.750   0.452   2.552  1.9605  1.5261  0.0583
  783SOL     MW 3132   2.782   0.480   2.475  0.8713 -0.2226 -0.1092
  784SOL     OW 3133   0.229   0.913   2.906  0.0266 -0.8561 -0.2337
  784SOL    HW1 3134   0.226   0.987   2.975  0.2297  1.9623  1.7989
  784SOL    HW2 3135   0.222   0.961   2.819 -0.3651 -1.7604 -0.1024
  784SOL     MW 3136   0.228   0.929   2.904  0.0017 -0.6035  0.0518
  785SOL     OW 3137   0.450   0.526   2.169 -0.0396 -0.1739 -0.3381
  785SOL    HW1 3138   0.449   0.568   2.082  2.1486 -1.2967  1.4913
  785SOL    HW2 3139   0.402   0.441   2.173 -0.0802  0.4297 -3.3499
  785SOL     MW 3140   0.444   0.520   2.158  0.2437 -0.2424 -0.4941
  786SOL     OW 3141   1.981   0.474   2.834  0.8365  0.2436  0.7683
  786SOL    HW1 3142   1.956   0.546   2.899  0.7740  1.3839 -0.2828
  786SOL    HW2 3143   2.074   0.468   2.800  0.4854 -0.5250  1.9644
  786SOL     MW 3144   1.990   0.483   2.838  0.7820  0.2926  0.7875
  787SOL     OW 3145   2.451   0.114   2.908 -0.3285 -0.3789 -0.5190
  787SOL    HW1 3146   2.513   0.044   2.876  1.1035  0.7215  0.0440
  787SOL    HW2 3147   2.508   0.174   2.967 -0.7744  2.0040  0.9424
  787SOL     MW 3148   2.467   0.113   2.911 -0.1984  0.0807 -0.2519
  788SOL     OW 3149   2.892   2.860   2.342  0.8748 -0.0299 -0.3909
  788SOL    HW1 3150   2.848   2.791   2.289  3.0138 -0.1697  1.3465
  788SOL    HW2 3151   2.982   2.822   2.370 -0.8347 -0.5255  0.6047
  788SOL     MW 3152   2.898   2.846   2.339  0.9314 -0.1137 -0.0303
  789SOL     OW 3153   0.086   0.234   2.941  0.0121 -0.0431  0.4323
  789SOL    HW1 3154   0.026   0.192   2.999 -3.1889 -1.4613 -0.6627
  789SOL    HW2 3155   0.077   0.328   2.951 -1.6480  1.1473  0.4164
  789SOL     MW 3156   0.077   0.241   2.950 -0.6293 -0.0731  0.2857
  790SOL     OW 3157   0.015   1.023   2.440  0.2905  0.1364  0.4723
  790SOL    HW1 3158  -0.027   0.995   2.527 -1.8808 -0.5697  1.0434
  790SOL    HW2 3159  -0.049   1.012   2.369 -1.8147 -1.1290 -2.3145
  790SOL     MW 3160   0.001   1.018   2.442 -0.2738 -0.1237  0.1800
  791SOL     OW 3161   2.658   0.393   2.677 -0.3387  0.5255  0.5321
  791SOL    HW1 3162   2.589   0.454   2.715  0.4155 -0.6957  2.5276
  791SOL    HW2 3163   2.728   0.406   2.744 -0.6216  1.4842 -1.2478
  791SOL     MW 3164   2.658   0.403   2.691 -0.2765  0.4909  0.5606
  792SOL     OW 3165   2.438   0.239   2.357 -0.4802  0.8379 -0.2848
  792SOL    HW1 3166   2.352   0.278   2.385 -2.5978 -0.4571  0.8171
  792SOL    HW2 3167   2.468   0.204   2.445 -0.6984 -0.5637  2.0120
  792SOL     MW 3168   2.430   0.240   2.372 -0.7884  0.4821  0.1636
  793SOL     OW 3169   1.787   1.019   1.912 -0.0405 -0.2703 -0.6556
  793SOL    HW1 3170   1.776   1.070   1.836  0.3748 -1.3482  0.7088
  793SOL    HW2 3171   1.874   0.970   1.893  1.9688 -0.4438 -1.4275
  793SOL     MW 3172   1.797   1.019   1.900  0.2794 -0.4354 -0.5774
  794SOL     OW 3173   1.440   2.248   0.107 -0.6354  0.0767 -0.3527
  794SOL    HW1 3174   1.476   2.315   0.042 -0.9338  0.1164 -1.7271
  794SOL    HW2 3175   1.480   2.268   0.193 -1.0530 -0.0242  1.5136
  794SOL     MW 3176   1.450   2.259   0.109 -0.7298  0.0686 -0.2878
  795SOL     OW 3177   2.253   0.955   2.602 -0.5641 -0.3214 -0.5310
  795SOL    HW1 3178   2.242   1.038   2.649 -3.2616  1.2087 -1.8256
  795SOL    HW2 3179   2.282   0.990   2.516 -0.2636 -2.4985  0.3126
  795SOL     MW 3180   2.255   0.970   2.597 -0.8804 -0.4068 -0.5905
  796SOL     OW 3181   0.316   0.686   2.755  0.3036  0.5761  0.1308
  796SOL    HW1 3182   0.279   0.741   2.824  0.4545  1.2475 -0.3319
  796SOL    HW2 3183   0.248   0.676   2.684  3.0158  1.6506 -0.1972
  796SOL     MW 3184   0.302   0.692   2.755  0.6813  0.8064  0.0265
  797SOL     OW 3185   2.606   0.141   2.545  0.3949 -0.0277  0.0580
  797SOL    HW1 3186   2.628   0.227   2.591 -0.9492 -1.9018 -4.0299
  797SOL    HW2 3187   2.672   0.119   2.482 -1.9886  0.5876 -0.6987
  797SOL     MW 3188   2.618   0.150   2.543 -0.0969 -0.1938 -0.5812
  798SOL     OW 3189   2.347   0.025   2.209 -0.0243 -0.0138  0.3902
  798SOL    HW1 3190   2.373   0.101   2.262 -1.2246 -2.3368 -4.8861
  798SOL    HW2 3191   2.426   0.004   2.157 -0.2775 -0.4265 -0.6246
  798SOL     MW 3192   2.361   0.032   2.209 -0.2161 -0.3748 -0.4398
  799SOL     OW 3193   2.446   2.945   0.193 -0.0754 -0.3113  0.1093
  799SOL    HW1 3194   2.442   2.921   0.098 -1.0229  0.8337  0.5501
  799SOL    HW2 3195   2.388   3.018   0.196  3.0837 -0.5596 -1.1080
  799SOL     MW 3196   2.438   2.952   0.181  0.2164 -0.1930  0.0068
  800SOL     OW 3197   1.856   3.058   1.774  0.1505  0.5786  0.2750
  800SOL    HW1 3198   1.807   2.977   1.797  1.7698 -0.3039 -2.9191
  800SOL    HW2 3199   1.918   3.064   1.846  1.4226  0.3749 -0.1262
  800SOL     MW 3200   1.858   3.048   1.787  0.5320  0.4353 -0.1994
  801SOL     OW 3201   2.806   1.295   2.620 -0.1112 -0.0640  0.1439
  801SOL    HW1 3202   2.764   1.204   2.617 -0.0247 -0.1214  0.2472
  801SOL    HW2 3203   2.889   1.292   2.566 -1.8163 -0.1611 -0.3407
  801SOL     MW 3204   2.812   1.283   2.612 -0.3248 -0.0844  0.0936
  802SOL     OW 3205   2.542   1.505   2.823 -0.0948 -0.1751  0.0988
  802SOL    HW1 3206   2.519   1.420   2.774 -1.5371 -0.3959 -1.0471
  802SOL    HW2 3207   2.631   1.499   2.849  2.3490  1.7984  1.5655
  802SOL     MW 3208   2.551   1.493   2.820  0.0373  0.0562  0.1411
  803SOL     OW 3209   2.306   1.272   1.950 -0.2724 -0.2275  0.4806
  803SOL    HW1 3210   2.266   1.229   2.028 -0.0239 -1.0929  0.6347
  803SOL    HW2 3211   2.301   1.210   1.882 -0.4848  1.3249  1.5999
  803SOL     MW 3212   2.300   1.258   1.951 -0.2676 -0.1369  0.6486
  804SOL     OW 3213   2.296   0.069   0.046  0.2036  0.3254 -0.6295
  804SOL    HW1 3214   2.234   0.136   0.024  0.3276  0.6340  1.5592
  804SOL    HW2 3215   2.352   0.074  -0.030  1.6228 -0.2546 -0.2849
  804SOL     MW 3216   2.295   0.079   0.033  0.4072  0.2896 -0.2953
  805SOL     OW 3217   2.718   1.051   2.601  0.7009  0.1426  0.2740
  805SOL    HW1 3218   2.658   0.981   2.576  1.1744  1.5097  1.9757
  805SOL    HW2 3219   2.800   1.002   2.621  1.0453  3.2037 -2.0975
  805SOL     MW 3220   2.721   1.035   2.601  0.8088  0.7269  0.1856
  806SOL     OW 3221   2.620   0.420   2.274 -0.0161 -0.1228 -0.0797
  806SOL    HW1 3222   2.547   0.355   2.299  2.7586 -0.7086  0.4108
  806SOL    HW2 3223   2.677   0.365   2.225  0.3254 -1.9135 -0.3921
  806SOL     MW 3224   2.618   0.404   2.271  0.3951 -0.4364 -0.0562
  807SOL     OW 3225   3.076   1.105   2.120 -0.2601 -0.1177 -0.2200
  807SOL    HW1 3226   3.124   1.033   2.081  0.4609 -0.6969 -0.6216
  807SOL    HW2 3227   3.007   1.067   2.172 -1.5994  3.3333  1.9021
  807SOL     MW 3228   3.073   1.091   2.121 -0.3416  0.2612  0.0070
  808SOL     OW 3229   2.623   3.048   2.773 -0.1371 -0.6726  0.0984
  808SOL    HW1 3230   2.583   2.968   2.744 -0.1439 -0.2572  1.1895
  808SOL    HW2 3231   2.629   3.104   2.689  0.5822 -2.3126  0.9529
  808SOL     MW 3232   2.618   3.045   2.758 -0.0431 -0.8342  0.3551
  809SOL     OW 3233   2.518   1.222   2.396 -0.8575 -0.0399 -0.0282
  809SOL    HW1 3234   2.572   1.204   2.477  0.3155  0.4287  3.5045
  809SOL    HW2 3235   2.590   1.255   2.337 -0.1482 -3.6558  0.4596
  809SOL     MW 3236   2.535   1.224   2.399 -0.6092 -0.4551  0.5023
  810SOL     OW 3237   2.198   1.185   2.202  0.1995 -0.0139 -0.6546
  810SOL    HW1 3238   2.263   1.125   2.242 -0.7277 -0.6820  0.8447
  810SOL    HW2 3239   2.119   1.136   2.201  3.9632 -0.8794  1.0966
  810SOL     MW 3240   2.196   1.171   2.207  0.5738 -0.2162 -0.2257
  811SOL     OW 3241   1.538   0.108   2.285 -0.4352  0.5535  0.3288
  811SOL    HW1 3242   1.607   0.035   2.309  1.8317 -2.7584 -0.5022
  811SOL    HW2 3243   1.530   0.112   2.190 -0.9062  0.1945 -3.0709
  811SOL     MW 3244   1.546   0.099   2.276 -0.1982  0.0691 -0.2294
  812SOL     OW 3245   1.424   2.788   2.045 -0.4859 -0.2126  0.1557
  812SOL    HW1 3246   1.519   2.789   2.047 -2.2992  1.8125 -1.9266
  812SOL    HW2 3247   1.393   2.771   2.136  3.1276  0.2028  2.2059
  812SOL     MW 3248   1.432   2.786   2.057 -0.2484  0.1094  0.1515
  813SOL     OW 3249   1.836   0.744   2.188  0.3234 -0.1759 -0.5803
  813SOL    HW1 3250   1.778   0.676   2.222  0.7644  0.9981 -2.4371
  813SOL    HW2 3251   1.896   0.770   2.260 -1.0018 -1.8781  2.2484
  813SOL     MW 3252   1.836   0.739   2.202  0.2068 -0.2456 -0.4521
  814SOL     OW 3253   2.741   1.258   1.581 -0.0542  0.1396 -0.0220
  814SOL    HW1 3254   2.669   1.222   1.630 -3.1764 -0.1774 -2.0465
  814SOL    HW2 3255   2.754   1.187   1.521  2.3388  1.4861  0.2959
  814SOL     MW 3256   2.734   1.244   1.580 -0.1504  0.2754 -0.2472
  815SOL     OW 3257   2.490   1.669   2.397  0.2815  0.0484  0.0377
  815SOL    HW1 3258   2.424   1.602   2.382 -2.6264 -0.6858 -1.3092
  815SOL    HW2 3259   2.572   1.616   2.404  0.1800  0.4821 -2.4926
  815SOL     MW 3260   2.492   1.653   2.396 -0.1156  0.0088 -0.4739
  816SOL     OW 3261   0.710   0.638   2.746 -0.7648 -0.4427  0.4292
  816SOL    HW1 3262   0.721   0.553   2.779 -0.4228 -0.3033  0.4785
  816SOL    HW2 3263   0.646   0.619   2.674 -3.6740  1.0489 -1.1733
  816SOL     MW 3264   0.703   0.624   2.741 -1.1035 -0.2275  0.2243
  817SOL     OW 3265   3.028   1.131   1.410 -1.0533  0.6436  1.0381
  817SOL    HW1 3266   3.078   1.138   1.492  0.7664  0.0440 -2.1104
  817SOL    HW2 3267   3.026   1.222   1.373  2.9897 -1.9176  1.8230
  817SOL     MW 3268   3.034   1.144   1.416 -0.2798  0.2266  0.7263
  818SOL     OW 3269   1.915   1.021   2.729  0.3052 -0.3811  0.5889
  818SOL    HW1 3270   1.943   0.992   2.642 -0.1103  1.4114 -0.7375
  818SOL    HW2 3271   1.970   0.984   2.797 -1.4950 -0.3224 -0.9771
  818SOL     MW 3272   1.926   1.013   2.727  0.0129 -0.1368  0.2073
  819SOL     OW 3273   1.861   0.218   2.415 -0.6951  0.7771 -0.3010
  819SOL    HW1 3274   1.822   0.300   2.440  0.3932  0.1722  3.3952
  819SOL    HW2 3275   1.908   0.191   2.502  0.4477  0.0540  1.3155
  819SOL     MW 3276   1.862   0.225   2.430 -0.4007  0.6019  0.3999
  820SOL     OW 3277   2.498   1.730   2.671 -0.0219 -0.1403 -0.4271
  820SOL    HW1 3278   2.506   1.650   2.726 -0.8429 -0.5443  2.8728
  820SOL    HW2 3279   2.514   1.709   2.582  3.6248  1.6108  2.1204
  820SOL     MW 3280   2.501   1.717   2.666  0.3509  0.0374  0.3444
  821SOL     OW 3281   2.590   1.365   1.985 -0.0567  0.0071  0.6664
  821SOL    HW1 3282   2.616   1.432   1.920  1.9020 -1.7171  1.5281
  821SOL    HW2 3283   2.494   1.354   1.979  0.1167  1.5258  1.5154
  821SOL     MW 3284   2.581   1.373   1.975  0.2246 -0.0200  0.8921
  822SOL     OW 3285   2.854   2.691   1.438  0.1357 -0.2783 -0.3570
  822SOL    HW1 3286   2.899   2.769   1.446 -1.3719 -2.5879 -0.6215
  822SOL    HW2 3287   2.781   2.712   1.383  0.5852 -1.9458 -0.4426
  822SOL     MW 3288   2.850   2.704   1.432 -0.0039 -0.8031 -0.4032
  823SOL     OW 3289   2.288   0.480   1.786  0.1532  0.0005  0.7225
  823SOL    HW1 3290   2.372   0.458   1.746  1.3300 -1.5214 -0.9698
  823SOL    HW2 3291   2.227   0.414   1.753  0.2771  3.0091  0.5844
  823SOL     MW 3292   2.291   0.468   1.776  0.3248  0.1966  0.4810
  824SOL     OW 3293   2.088   1.374   2.501  0.2352 -0.8490  0.0398
  824SOL    HW1 3294   2.171   1.395   2.447  1.0118 -2.8194  2.8147
  824SOL    HW2 3295   2.055   1.445   2.558 -0.0011 -2.4650 -0.5235
  824SOL     MW 3296   2.094   1.386   2.502  0.3065 -1.3222  0.3316
  825SOL     OW 3297   2.148   2.501   0.393  0.0292 -0.6476  0.1839
  825SOL    HW1 3298   2.185   2.451   0.325  3.3918  3.5678  0.9223
  825SOL    HW2 3299   2.175   2.446   0.468  1.8479 -0.5629  3.0810
  825SOL     MW 3300   2.156   2.487   0.394  0.7128 -0.0803  0.6635
  826SOL     OW 3301   1.784   2.377   0.466  0.1671 -0.1425 -0.3512
  826SOL    HW1 3302   1.828   2.301   0.497 -0.8272  1.2050 -0.5494
  826SOL    HW2 3303   1.790   2.435   0.537 -3.3515 -0.8087  1.0702
  826SOL     MW 3304   1.790   2.375   0.479 -0.4283 -0.0526 -0.1898
  827SOL     OW 3305   1.932   2.243   0.894 -0.1972  0.0191 -0.0570
  827SOL    HW1 3306   1.888   2.254   0.811  1.2560 -1.2205 -0.6035
  827SOL    HW2 3307   1.885   2.176   0.939  0.1829  2.4323  3.1659
  827SOL     MW 3308   1.920   2.236   0.889  0.0447  0.1739  0.2961
  828SOL     OW 3309   0.082   2.630   0.546 -0.5720  0.6690  0.5240
  828SOL    HW1 3310   0.178   2.625   0.563  0.9284  2.3543  1.9066
  828SOL    HW2 3311   0.083   2.675   0.461 -0.4302  2.3206 -0.6774
  828SOL     MW 3312   0.095   2.636   0.537 -0.3553  1.1093  0.5479
  829SOL     OW 3313   3.016   2.891   1.190  0.2281  0.0201 -0.3402
  829SOL    HW1 3314   2.948   2.879   1.132  0.5530  1.3564 -0.7647
  829SOL    HW2 3315   3.063   2.809   1.198 -3.2841  0.9234  0.8205
  829SOL     MW 3316   3.013   2.879   1.184 -0.1925  0.3156 -0.2430
  830SOL     OW 3317   2.548   2.804   2.021  0.2753  0.1157  0.4523
  830SOL    HW1 3318   2.457   2.816   1.979 -2.2420 -0.3893 -2.5047
  830SOL    HW2 3319   2.612   2.791   1.955 -0.2153 -0.9486  2.2496
  830SOL     MW 3320   2.544   2.804   2.007 -0.1216 -0.0914  0.2993
  831SOL     OW 3321   2.486   2.448   1.201  0.3672  0.3737 -0.3426
  831SOL    HW1 3322   2.442   2.400   1.268 -1.1956 -2.6390  0.2359
  831SOL    HW2 3323   2.564   2.393   1.183  0.9792 -1.3587 -2.1373
  831SOL     MW 3324   2.490   2.435   1.207  0.2417 -0.2524 -0.5031
  832SOL     OW 3325   2.427   2.111   1.794  0.9463  0.1858  0.0007
  832SOL    HW1 3326   2.426   2.208   1.826 -0.6477  0.1389 -0.4318
  832SOL    HW2 3327   2.500   2.107   1.733 -0.7873  0.2793  0.1171
  832SOL     MW 3328   2.437   2.123   1.790  0.5073  0.1919 -0.0410
  833SOL     OW 3329   1.741   2.574   0.929 -0.6494  0.4530 -0.0641
  833SOL    HW1 3330   1.679   2.503   0.934  3.9620  5.5558 -1.2622
  833SOL    HW2 3331   1.697   2.653   0.957 -1.9203 -1.8679 -2.2385
  833SOL     MW 3332   1.727   2.575   0.933 -0.2087  0.8201 -0.5090
  834SOL     OW 3333   2.291   2.338   0.631 -0.0470  0.3646  0.7588
  834SOL    HW1 3334   2.241   2.255   0.637 -0.1220 -1.3866 -4.3118
  834SOL    HW2 3335   2.390   2.318   0.632  2.3045 -1.2766  0.4665
  834SOL     MW 3336   2.297   2.324   0.632  0.2534 -0.0830  0.0513
  835SOL     OW 3337   1.840   2.577   0.652 -0.6349 -0.3017 -0.1921
  835SOL    HW1 3338   1.819   2.558   0.743 -1.6531  0.6221 -0.8903
  835SOL    HW2 3339   1.929   2.610   0.665  1.8411 -3.6221  1.2785
  835SOL     MW 3340   1.849   2.579   0.666 -0.4425 -0.6179 -0.0902
  836SOL     OW 3341   2.045   2.182   1.645  0.0225 -0.5712  0.3587
  836SOL    HW1 3342   2.130   2.138   1.614  0.7142  0.5321  1.8441
  836SOL    HW2 3343   2.076   2.254   1.697  0.1527 -0.6553 -1.2663
  836SOL     MW 3344   2.061   2.186   1.648  0.1310 -0.4368  0.3403
  837SOL     OW 3345   2.078   0.197   0.686  0.0566 -0.5124 -0.9223
  837SOL    HW1 3346   1.996   0.220   0.646  2.5211 -1.6972  3.5327
  837SOL    HW2 3347   2.125   0.162   0.612 -0.1758  1.6885  1.1128
  837SOL     MW 3348   2.074   0.196   0.671  0.3511 -0.3783 -0.0660
  838SOL     OW 3349   2.861   2.096   0.964  0.1887  0.3147 -0.1616
  838SOL    HW1 3350   2.797   2.028   0.959  1.0625  0.5056  0.3468
  838SOL    HW2 3351   2.924   2.065   1.024  0.7355  0.1434 -2.6100
  838SOL     MW 3352   2.861   2.083   0.971  0.3762  0.3173 -0.4175
  839SOL     OW 3353   1.539   2.399   0.982  0.4177 -0.4622  0.2989
  839SOL    HW1 3354   1.494   2.477   1.021  0.4331 -2.8944 -2.8607
  839SOL    HW2 3355   1.577   2.354   1.055 -2.8972  3.6017 -2.1240
  839SOL     MW 3356   1.538   2.403   0.997 -0.0176 -0.2469 -0.4376
  840SOL     OW 3357   2.320   2.112   2.434  1.2482 -0.3500 -0.0956
  840SOL    HW1 3358   2.311   2.195   2.377  0.1168  1.4410  0.7400
  840SOL    HW2 3359   2.391   2.149   2.494 -0.1820  2.9022  3.0671
  840SOL     MW 3360   2.328   2.128   2.435  0.9102  0.3154  0.4319
  841SOL     OW 3361   2.273   2.384   0.053  0.7059  0.1481  0.3074
  841SOL    HW1 3362   2.262   2.430  -0.031 -1.3737 -0.4727 -2.8443
  841SOL    HW2 3363   2.209   2.311   0.049  0.6118  0.8121  0.3533
  841SOL     MW 3364   2.263   2.380   0.041  0.4191  0.1538 -0.1024
  842SOL     OW 3365   2.667   1.992   1.417  0.7030 -0.4549  0.3454
  842SOL    HW1 3366   2.595   1.925   1.428 -0.6477  2.0660 -3.6825
  842SOL    HW2 3367   2.635   2.047   1.338  0.5340  4.2396 -2.2892
  842SOL     MW 3368   2.653   1.990   1.408  0.5025  0.4971 -0.5337
  843SOL     OW 3369   2.647   2.776   1.764 -0.0209 -0.0381 -0.4274
  843SOL    HW1 3370   2.736   2.739   1.769  1.0378  1.5685 -0.7575
  843SOL    HW2 3371   2.593   2.698   1.744  0.8908  1.1813 -0.6463
  843SOL     MW 3372   2.652   2.761   1.762  0.2391  0.3347 -0.4999
  844SOL     OW 3373   2.742   2.323   1.152  0.5583  0.0903  0.0486
  844SOL    HW1 3374   2.762   2.338   1.057  0.1573  0.7090 -1.5593
  844SOL    HW2 3375   2.808   2.367   1.201 -2.1886 -2.1585 -1.8250
  844SOL     MW 3376   2.753   2.331   1.146  0.1429 -0.1247 -0.4108
  845SOL     OW 3377   2.862   2.598   0.298  0.0508 -0.1557 -0.4382
  845SOL    HW1 3378   2.819   2.514   0.319 -2.5643  0.5512 -0.5166
  845SOL    HW2 3379   2.830   2.666   0.364 -0.5803 -1.2067  0.8160
  845SOL     MW 3380   2.852   2.596   0.310 -0.3775 -0.2011 -0.2830
  846SOL     OW 3381   1.485   2.807   0.840 -0.6382  0.5493 -0.7355
  846SOL    HW1 3382   1.566   2.856   0.849  0.9586 -0.2847 -1.7472
  846SOL    HW2 3383   1.416   2.861   0.804 -1.4020  1.5827 -1.2280
  846SOL     MW 3384   1.487   2.821   0.837 -0.5283  0.5756 -0.9340
  847SOL     OW 3385   2.478   1.890   0.166  0.1635  0.2188 -0.1677
  847SOL    HW1 3386   2.448   1.802   0.212 -1.6455  0.4412  0.4858
  847SOL    HW2 3387   2.465   1.861   0.074  1.2272  0.4067  1.3530
  847SOL     MW 3388   2.472   1.874   0.160  0.0652  0.2729  0.1192
  848SOL     OW 3389   2.578   2.116   1.194 -0.4684 -0.1014 -0.8164
  848SOL    HW1 3390   2.629   2.197   1.183  1.8184  0.3867  0.4872
  848SOL    HW2 3391   2.623   2.057   1.132  4.0400 -0.6314  1.3687
  848SOL     MW 3392   2.591   2.119   1.185  0.4281 -0.1069 -0.3561
  849SOL     OW 3393   1.996   2.798   0.789  0.0348  1.0541 -0.7052
  849SOL    HW1 3394   1.998   2.747   0.873 -0.1718 -2.0832  0.1209
  849SOL    HW2 3395   2.077   2.765   0.749 -1.3442  1.0418  2.0681
  849SOL     MW 3396   2.007   2.787   0.795 -0.1744  0.6385 -0.2303
  850SOL     OW 3397   2.322   1.800   1.625  0.7718  0.1936  0.0889
  850SOL    HW1 3398   2.231   1.776   1.604 -1.4331 -0.1839 -2.7983
  850SOL    HW2 3399   2.330   1.895   1.598  0.9463  0.3016  0.3474
  850SOL     MW 3400   2.311   1.810   1.619  0.5039  0.1580 -0.2579
  851SOL     OW 3401   2.372   2.343   0.322  0.1461 -0.7409 -0.2812
  851SOL    HW1 3402   2.363   2.379   0.234 -0.2323 -1.8025 -0.4992
  851SOL    HW2 3403   2.433   2.404   0.370  0.9711  0.9432  1.0399
  851SOL     MW 3404   2.379   2.356   0.317  0.2050 -0.6588 -0.1357
  852SOL     OW 3405   2.342   2.048   0.317  0.0176 -0.4109  0.1878
  852SOL    HW1 3406   2.349   2.142   0.307 -0.7628 -0.4805  1.1603
  852SOL    HW2 3407   2.409   1.998   0.266  0.1645  1.5239  2.1225
  852SOL     MW 3408   2.352   2.054   0.309 -0.0660 -0.1648  0.5714
  853SOL     OW 3409   2.477   2.350   1.914  0.6265  0.0387 -0.1945
  853SOL    HW1 3410   2.477   2.433   1.869  1.6987 -1.6416  2.2712
  853SOL    HW2 3411   2.557   2.342   1.960  1.3525 -0.6545 -1.3895
  853SOL     MW 3412   2.487   2.360   1.914  0.8637 -0.2745 -0.0269
  854SOL     OW 3413   2.854   2.215   0.706 -0.2433 -0.0948 -0.0266
  854SOL    HW1 3414   2.767   2.196   0.665 -0.4450 -1.2191 -0.7511
  854SOL    HW2 3415   2.863   2.161   0.786 -2.0339 -0.4846 -1.2808
  854SOL     MW 3416   2.844   2.206   0.711 -0.5062 -0.2946 -0.2877
  855SOL     OW 3417   2.750   2.358   0.404  0.5080 -0.4013  0.7157
  855SOL    HW1 3418   2.676   2.354   0.460 -2.0006  1.2609 -1.2417
  855SOL    HW2 3419   2.751   2.271   0.366  0.3981 -0.2763 -0.4068
  855SOL     MW 3420   2.740   2.346   0.406  0.1625 -0.1655  0.3094
  856SOL     OW 3421   2.094   1.884   0.204  0.0953 -0.0927  0.4735
  856SOL    HW1 3422   2.009   1.895   0.252  1.7340  0.5593  2.4426
  856SOL    HW2 3423   2.146   1.955   0.241 -2.4176  0.5368 -0.8278
  856SOL     MW 3424   2.089   1.895   0.215 -0.0200  0.0764  0.5616
  857SOL     OW 3425   2.498   1.943   0.542  0.1229  0.0202 -0.5414
  857SOL    HW1 3426   2.451   1.976   0.464  0.0979  0.0454 -0.6735
  857SOL    HW2 3427   2.457   1.871   0.586  0.3919 -2.1507  1.8207
  857SOL     MW 3428   2.486   1.938   0.538  0.1551 -0.2629 -0.2472
  858SOL     OW 3429   2.916   2.655   1.794 -0.2751 -0.1579 -0.0898
  858SOL    HW1 3430   3.006   2.674   1.766 -0.2381  2.1807  1.2104
  858SOL    HW2 3431   2.887   2.573   1.753 -0.8679  0.6209  1.7405
  858SOL     MW 3432   2.924   2.647   1.785 -0.3484  0.2534  0.3233
  859SOL     OW 3433   1.940   2.743   1.063 -0.3451 -0.1447 -0.2407
  859SOL    HW1 3434   1.936   2.649   1.054 -0.1636  1.1769 -0.0187
  859SOL    HW2 3435   2.032   2.763   1.084 -3.1318  2.0760  4.5600
  859SOL     MW 3436   1.952   2.733   1.064 -0.6888  0.3227  0.4220
  860SOL     OW 3437   2.610   2.662   0.146 -0.4270  0.0024 -0.4030
  860SOL    HW1 3438   2.683   2.655   0.221  2.3046  1.3135  0.7957
  860SOL    HW2 3439   2.642   2.723   0.082  0.2478 -0.8220  0.3658
  860SOL     MW 3440   2.624   2.669   0.147  0.0225  0.0666 -0.1434
  861SOL     OW 3441   1.644   2.176   1.169 -0.1142 -0.8514  0.5984
  861SOL    HW1 3442   1.664   2.240   1.240  3.9857  0.4346  1.2160
  861SOL    HW2 3443   1.578   2.111   1.199 -1.8281 -0.0717 -0.5677
  861SOL     MW 3444   1.638   2.176   1.182  0.2006 -0.5788  0.5260
  862SOL     OW 3445   2.529   1.766   1.452 -0.2632 -0.3744 -0.1884
  862SOL    HW1 3446   2.448   1.763   1.506 -0.6305  1.0721  0.5835
  862SOL    HW2 3447   2.499   1.778   1.356  1.1811  2.3434 -0.6847
  862SOL     MW 3448   2.514   1.768   1.446 -0.1211  0.1750 -0.1520
  863SOL     OW 3449   3.006   1.765   1.013 -0.0217 -0.2094 -0.1934
  863SOL    HW1 3450   3.063   1.795   1.084  1.1183 -1.5279  0.6950
  863SOL    HW2 3451   2.916   1.769   1.042  0.0804 -4.8295 -1.2125
  863SOL     MW 3452   3.002   1.769   1.026  0.1422 -0.9929 -0.2106
  864SOL     OW 3453   0.037   1.846   0.780 -0.1969  0.0471 -0.5550
  864SOL    HW1 3454  -0.014   1.824   0.857  1.9357 -2.2071 -2.5626
  864SOL    HW2 3455  -0.009   1.807   0.708  0.3756  0.9023 -1.8516
  864SOL     MW 3456   0.024   1.838   0.780  0.1600 -0.1375 -0.9910
  865SOL     OW 3457   2.640   2.159   0.066  0.1724  0.3537 -0.3151
  865SOL    HW1 3458   2.629   2.087   0.128 -1.7856  0.2568  1.9625
  865SOL    HW2 3459   2.564   2.141   0.013 -0.3355 -0.7344  1.8576
  865SOL     MW 3460   2.628   2.147   0.067 -0.1530  0.1974  0.2721
  866SOL     OW 3461   2.635   2.367   1.551  0.3700  0.4471 -0.6128
  866SOL    HW1 3462   2.639   2.268   1.575  0.4345 -1.5920 -1.9135
  866SOL    HW2 3463   2.701   2.371   1.486 -0.9788  0.1567 -0.2558
  866SOL     MW 3464   2.644   2.354   1.545  0.2005  0.1397 -0.7373
  867SOL     OW 3465   0.083   2.694   1.765  0.7891  0.4530  0.0645
  867SOL    HW1 3466   0.128   2.732   1.839 -0.4035 -0.4957  0.6232
  867SOL    HW2 3467   0.114   2.731   1.688 -0.0405 -1.7710  2.1180
  867SOL     MW 3468   0.093   2.704   1.765  0.5223  0.0344  0.4092
  868SOL     OW 3469   2.748   2.684   0.562  0.5499 -0.0950 -0.3287
  868SOL    HW1 3470   2.716   2.599   0.543  2.3837 -2.4099  0.7814
  868SOL    HW2 3471   2.686   2.756   0.531  1.3659  1.7212 -0.4527
  868SOL     MW 3472   2.735   2.682   0.555  0.8995 -0.1608 -0.1986
  869SOL     OW 3473   2.077   2.437   1.012 -0.4405  0.6848  0.6129
  869SOL    HW1 3474   2.166   2.415   0.988 -0.9555 -2.6754  1.7748
  869SOL    HW2 3475   2.018   2.374   0.973  1.3871  1.2645  0.5289
  869SOL     MW 3476   2.081   2.426   1.004 -0.2673  0.3180  0.7551
  870SOL     OW 3477   2.189   0.065   0.470  0.0184 -0.8542  0.0959
  870SOL    HW1 3478   2.248   0.122   0.414  3.7407  0.0589 -1.1400
  870SOL    HW2 3479   2.225  -0.021   0.477  0.6307  2.5474  0.3656
  870SOL     MW 3480   2.201   0.061   0.464  0.5903 -0.2849 -0.0316
  871SOL     OW 3481   2.506   2.103   0.892  0.4379  0.0303  0.3679
  871SOL    HW1 3482   2.440   2.050   0.840 -1.1375 -2.0471  1.2502
  871SOL    HW2 3483   2.451   2.165   0.938  1.1455 -0.0783 -0.5161
  871SOL     MW 3484   2.490   2.104   0.891  0.3234 -0.2581  0.3677
  872SOL     OW 3485   2.071   2.577   1.498  0.6848  0.2386 -0.0362
  872SOL    HW1 3486   2.004   2.622   1.549  0.4031 -0.8804 -0.3266
  872SOL    HW2 3487   2.012   2.525   1.443 -2.6921 -1.1746  1.2114
  872SOL     MW 3488   2.054   2.576   1.497  0.2021 -0.0955  0.0901
  873SOL     OW 3489   2.826   2.076   1.869  0.0100  0.1819 -0.6872
  873SOL    HW1 3490   2.793   2.136   1.931 -0.8682 -1.7303 -2.9177
  873SOL    HW2 3491   2.916   2.098   1.844 -1.0428 -0.7717 -1.8110
  873SOL     MW 3492   2.834   2.087   1.874 -0.2448 -0.1962 -1.1298
  874SOL     OW 3493   2.316   1.425   2.329 -0.2928 -0.2346 -0.1878
  874SOL    HW1 3494   2.270   1.378   2.258 -1.3396  0.3942 -0.6047
  874SOL    HW2 3495   2.386   1.367   2.352  0.5008  1.2852 -1.0909
  874SOL     MW 3496   2.319   1.411   2.322 -0.3262  0.0489 -0.3619
  875SOL     OW 3497   2.364   2.345   0.967  0.0363  0.2906 -0.3381
  875SOL    HW1 3498   2.414   2.400   0.905 -0.1004  0.4437  2.5500
  875SOL    HW2 3499   2.397   2.383   1.051 -0.0548 -1.0098 -0.4468
  875SOL     MW 3500   2.375   2.357   0.970  0.0062  0.1392  0.0286
  876SOL     OW 3501   3.067   2.249   1.282  0.3107  0.1376  0.5760
  876SOL    HW1 3502   3.082   2.280   1.196 -2.0400 -2.1122  0.4869
  876SOL    HW2 3503   3.138   2.286   1.339 -1.0303  1.6353  1.6441
  876SOL     MW 3504   3.078   2.258   1.278 -0.1764  0.0384  0.7052
  877SOL     OW 3505   0.041   2.789   0.339  0.7910 -0.0457  0.5487
  877SOL    HW1 3506   0.098   2.859   0.315 -0.7260 -0.5450  0.7793
  877SOL    HW2 3507   0.042   2.739   0.257  1.0878  1.4003  0.5650
  877SOL     MW 3508   0.049   2.791   0.325  0.6300  0.0792  0.5813
  878SOL     OW 3509   2.396   1.733   1.211 -0.8899 -0.0964 -0.7303
  878SOL    HW1 3510   2.319   1.695   1.254 -2.0010  0.3760 -0.3003
  878SOL    HW2 3511   2.456   1.660   1.192  1.5561 -0.3751  0.3189
  878SOL     MW 3512   2.393   1.718   1.214 -0.7137 -0.0709 -0.5351
  879SOL     OW 3513   2.756   2.426   0.894 -0.3035  0.7382 -0.2246
  879SOL    HW1 3514   2.816   2.503   0.879  1.3695  1.3371  0.2959
  879SOL    HW2 3515   2.782   2.348   0.846  1.8303 -0.5629 -0.5266
  879SOL     MW 3516   2.768   2.426   0.885  0.1988  0.6456 -0.1958
  880SOL     OW 3517   2.574   2.201   0.632  0.7749  0.5065 -0.3596
  880SOL    HW1 3518   2.542   2.187   0.724 -2.8011 -0.3603 -0.0167
  880SOL    HW2 3519   2.547   2.117   0.587 -1.3949 -3.8352 -3.0867
  880SOL     MW 3520   2.566   2.188   0.638  0.0168 -0.1807 -0.6742
  881SOL     OW 3521   2.973   2.746   0.686 -0.2687 -0.1644 -0.0386
  881SOL    HW1 3522   2.901   2.727   0.628 -0.6105 -4.3421  0.5700
  881SOL    HW2 3523   3.056   2.703   0.653 -1.6458  0.1677  0.7415
  881SOL     MW 3524   2.975   2.738   0.674 -0.4955 -0.6718  0.1446
  882SOL     OW 3525   2.288   2.849   1.965  0.3108 -0.2881 -0.4882
  882SOL    HW1 3526   2.282   2.869   1.869 -0.7045 -0.5752 -2.8813
  882SOL    HW2 3527   2.234   2.769   1.981  0.9478  0.1806  1.1711
  882SOL     MW 3528   2.280   2.841   1.954  0.2609 -0.2642 -0.5850
  883SOL     OW 3529   2.360   2.242   1.346 -0.0098  0.3636 -0.0410
  883SOL    HW1 3530   2.437   2.201   1.295  2.4980  0.2846 -1.1901
  883SOL    HW2 3531   2.289   2.239   1.276 -2.7400  0.9840 -1.3272
  883SOL     MW 3532   2.360   2.236   1.330 -0.0391  0.4351 -0.3623
  884SOL     OW 3533   1.984   1.804   1.087 -0.3063  0.5300 -0.1335
  884SOL    HW1 3534   1.932   1.884   1.086  0.4717  0.8157 -1.0671
  884SOL    HW2 3535   2.077   1.831   1.089  1.6916 -1.9909 -2.3076
  884SOL     MW 3536   1.990   1.818   1.087  0.0600  0.2351 -0.5435
  885SOL     OW 3537   2.812   2.389   1.762  0.2319 -0.0499 -0.4647
  885SOL    HW1 3538   2.877   2.316   1.738 -0.8443 -0.6687  0.0797
  885SOL    HW2 3539   2.754   2.386   1.687  1.1547  0.1558 -0.2209
  885SOL     MW 3540   2.813   2.379   1.749  0.2117 -0.1044 -0.3607
  886SOL     OW 3541   2.851   2.389   1.400  0.1160  0.2123 -0.0088
  886SOL    HW1 3542   2.922   2.331   1.368  0.7320 -1.7857  2.1604
  886SOL    HW2 3543   2.880   2.470   1.443 -2.7375  0.0432  1.1493
  886SOL     MW 3544   2.864   2.392   1.401 -0.1792 -0.0736  0.4302
  887SOL     OW 3545   2.334   2.691   1.499  0.5332 -0.6371  0.4244
  887SOL    HW1 3546   2.392   2.686   1.420 -0.9824  2.6341 -0.0242
  887SOL    HW2 3547   2.247   2.653   1.482 -0.3059  2.7103 -2.9590
  887SOL     MW 3548   2.330   2.686   1.486  0.2225  0.2362 -0.0812
  888SOL     OW 3549   1.943   2.186   1.380  0.7307 -0.6389 -0.1882
  888SOL    HW1 3550   2.005   2.181   1.310  0.3391  1.4686  1.2012
  888SOL    HW2 3551   1.985   2.218   1.461  0.2999 -0.8682 -1.2220
  888SOL     MW 3552   1.957   2.189   1.381  0.6222 -0.3911 -0.1413
  889SOL     OW 3553   2.325   1.987   2.055 -0.2830 -0.6199  0.3893
  889SOL    HW1 3554   2.392   1.999   2.119 -1.0786 -1.4955  1.8027
  889SOL    HW2 3555   2.362   2.033   1.977 -0.3994  0.7714 -0.2362
  889SOL     MW 3556   2.339   1.995   2.054 -0.4033 -0.5518  0.4932
  890SOL     OW 3557   0.107   2.343   0.130 -0.4295 -0.5002 -0.1736
  890SOL    HW1 3558   0.061   2.426   0.142 -0.8655 -0.3197 -1.1758
  890SOL    HW2 3559   0.066   2.286   0.192  0.0684 -1.7624 -1.2039
  890SOL     MW 3560   0.095   2.346   0.139 -0.4213 -0.6429 -0.4418
  891SOL     OW 3561   2.990   1.994   1.203  0.1574  0.1259 -0.3703
  891SOL    HW1 3562   3.073   1.953   1.207  0.8731  2.3836 -1.3395
  891SOL    HW2 3563   3.009   2.084   1.219 -0.7488 -2.4392 -2.4436
  891SOL     MW 3564   3.003   2.001   1.206  0.1323  0.0854 -0.7717
  892SOL     OW 3565   2.458   2.384   2.799 -0.1472  0.5271  0.3276
  892SOL    HW1 3566   2.441   2.301   2.841  0.4933 -1.5981  0.2751
  892SOL    HW2 3567   2.552   2.395   2.822  2.1020 -0.0407  4.2855
  892SOL     MW 3568   2.468   2.374   2.808  0.2341  0.1718  0.8429
  893SOL     OW 3569   1.657   2.399   1.339  0.0853  0.0923  0.6098
  893SOL    HW1 3570   1.569   2.389   1.375  0.7569  0.7354 -3.1650
  893SOL    HW2 3571   1.700   2.468   1.389 -1.5298 -0.9341  2.1344
  893SOL     MW 3572   1.651   2.407   1.350 -0.0392  0.0417  0.3129
  894SOL     OW 3573   2.748   1.833   0.481  0.3109  0.1855  0.0251
  894SOL    HW1 3574   2.654   1.863   0.505 -2.0043  0.2494  1.0964
  894SOL    HW2 3575   2.732   1.791   0.396  2.1433  2.0311  2.4186
  894SOL     MW 3576   2.734   1.832   0.473  0.2472  0.4374  0.4823
  895SOL     OW 3577   2.172   2.177   1.150  0.5976  0.0412 -0.6092
  895SOL    HW1 3578   2.176   2.233   1.073  0.5029 -1.5350 -1.8199
  895SOL    HW2 3579   2.177   2.083   1.132 -0.7216 -1.1932  0.0265
  895SOL     MW 3580   2.173   2.172   1.137  0.4111 -0.3297 -0.6851
  896SOL     OW 3581   2.216   2.822   1.087 -0.4502 -0.2120  0.1875
  896SOL    HW1 3582   2.278   2.787   1.154  1.0039 -3.2030 -0.9491
  896SOL    HW2 3583   2.183   2.906   1.126 -1.3531 -2.8400  1.6784
  896SOL     MW 3584   2.220   2.828   1.101 -0.3775 -0.9534  0.2342
  897SOL     OW 3585   3.091   3.030   3.074 -0.1397  0.0483  0.3049
  897SOL    HW1 3586   3.138   2.949   3.064  4.6114 -0.4415 -0.6657
  897SOL    HW2 3587   3.026   3.026   2.999 -1.8277  0.6771 -0.0078
  897SOL     MW 3588   3.089   3.019   3.063  0.2645  0.0666  0.1356
  898SOL     OW 3589   2.046   0.161   1.442  0.3588  0.0468 -0.2272
  898SOL    HW1 3590   2.024   0.071   1.471 -0.2886  0.4091  0.9724
  898SOL    HW2 3591   2.051   0.155   1.346 -0.4679  1.9956  1.0335
  898SOL     MW 3592   2.044   0.149   1.433  0.1643  0.3517  0.0974
  899SOL     OW 3593   2.932   3.005   0.612 -0.5479 -0.1340 -0.4277
  899SOL    HW1 3594   2.962   2.924   0.654 -0.2234 -1.2925  3.2653
  899SOL    HW2 3595   2.836   3.004   0.630 -0.6048  1.9459 -1.8837
  899SOL     MW 3596   2.923   2.994   0.620 -0.5126 -0.0124 -0.1326
  900SOL     OW 3597   0.080   2.403   1.089  0.2105 -0.2729 -0.0545
  900SOL    HW1 3598   0.059   2.497   1.098  2.8586  0.1738 -0.2851
  900SOL    HW2 3599   0.103   2.384   0.996  1.1685 -2.7683  1.4520
  900SOL     MW 3600   0.081   2.413   1.078  0.6863 -0.5432  0.1138
  901SOL     OW 3601   1.737   2.792   1.792  0.2074 -0.4559 -0.5492
  901SOL    HW1 3602   1.828   2.758   1.768 -3.4447 -1.5357  1.9049
  901SOL    HW2 3603   1.698   2.805   1.706 -1.9240 -1.1794  0.2088
  901SOL     MW 3604   1.744   2.789   1.778 -0.5557 -0.6938 -0.1254
  902SOL     OW 3605   2.652   2.114   1.643 -0.3129  0.2430 -0.1557
  902SOL    HW1 3606   2.665   2.068   1.550  1.1364  2.0491 -1.1127
  902SOL    HW2 3607   2.708   2.073   1.715 -0.9019  0.6879 -0.6949
  902SOL     MW 3608   2.661   2.102   1.640 -0.1994  0.5400 -0.3531
  903SOL     OW 3609   1.521   2.643   0.631 -0.2421  0.6910 -0.1008
  903SOL    HW1 3610   1.605   2.657   0.587 -1.2518  0.1727 -2.3366
  903SOL    HW2 3611   1.507   2.691   0.714 -1.4953 -1.6951 -2.1514
  903SOL     MW 3612   1.530   2.651   0.636 -0.5407  0.3078 -0.6663
  904SOL     OW 3613   2.467   2.561   1.720 -0.4508  0.1697 -0.5249
  904SOL    HW1 3614   2.416   2.625   1.665 -0.7813 -0.1799  0.2468
  904SOL    HW2 3615   2.520   2.510   1.653  0.6915  3.3990  1.0221
  904SOL     MW 3616   2.467   2.562   1.704 -0.3437  0.5496 -0.2189
  905SOL     OW 3617   2.298   2.477   2.090  0.2049 -0.5544  0.0723
  905SOL    HW1 3618   2.332   2.413   2.025 -0.3918  0.5982 -2.9038
  905SOL    HW2 3619   2.253   2.434   2.174 -1.9989 -2.6182  2.6913
  905SOL     MW 3620   2.297   2.463   2.093 -0.1646 -0.6746  0.0252
  906SOL     OW 3621   2.503   2.498   0.800 -0.4164 -0.1541 -0.0445
  906SOL    HW1 3622   2.587   2.481   0.847  1.3778  1.9971  3.3743
  906SOL    HW2 3623   2.472   2.578   0.842  0.0064  0.4732  1.7343
  906SOL     MW 3624   2.510   2.506   0.811 -0.1239  0.2125  0.6413
  907SOL     OW 3625   2.666   2.881   1.274 -0.5949 -0.2150  0.1060
  907SOL    HW1 3626   2.738   2.929   1.312  1.7656 -1.1987 -2.7778
  907SOL    HW2 3627   2.690   2.861   1.184  2.5504 -1.1690  1.3368
  907SOL     MW 3628   2.679   2.885   1.268  0.1315 -0.4707 -0.1121
  908SOL     OW 3629   2.741   2.427   0.020  0.0553  0.2809  0.5587
  908SOL    HW1 3630   2.711   2.340   0.057 -0.4988  0.3305  0.4699
  908SOL    HW2 3631   2.689   2.490   0.070 -0.9957  0.2712  0.7324
  908SOL     MW 3632   2.730   2.424   0.032 -0.1565  0.2862  0.5699
  909SOL     OW 3633   1.752   0.130   1.230 -0.4780  0.0066  0.3071
  909SOL    HW1 3634   1.700   0.197   1.181 -1.6753  2.5375 -0.6863
  909SOL    HW2 3635   1.710   0.119   1.317  1.2947  1.2560  0.2364
  909SOL     MW 3636   1.740   0.138   1.235 -0.4021  0.5053  0.1667
  910SOL     OW 3637   2.190   1.664   0.403 -0.5343  0.1678 -0.2257
  910SOL    HW1 3638   2.139   1.580   0.410  0.5137 -0.9778  0.9223
  910SOL    HW2 3639   2.154   1.722   0.337 -0.4846 -1.8279 -0.9110
  910SOL     MW 3640   2.179   1.661   0.395 -0.3895 -0.2466 -0.1646
  911SOL     OW 3641   2.296   2.065   1.560 -0.2484  0.6711  0.1417
  911SOL    HW1 3642   2.328   2.104   1.644 -0.3677  2.8669 -0.1990
  911SOL    HW2 3643   2.324   2.126   1.483  0.6476  0.0750 -2.8891
  911SOL     MW 3644   2.304   2.078   1.561 -0.1459  0.8821 -0.3031
  912SOL     OW 3645   2.916   1.855   1.432  0.3541 -0.1447 -0.3198
  912SOL    HW1 3646   2.945   1.884   1.335  1.1938  2.3950  0.2193
  912SOL    HW2 3647   2.837   1.900   1.452 -0.9404 -3.5778 -1.2570
  912SOL     MW 3648   2.909   1.865   1.422  0.2941 -0.2626 -0.3723
  913SOL     OW 3649   2.671   3.090   0.291  0.4835  0.0276 -0.6476
  913SOL    HW1 3650   2.751   3.043   0.274  1.6429 -0.4959  1.6822
  913SOL    HW2 3651   2.597   3.034   0.256 -0.3063  1.3895  0.8153
  913SOL     MW 3652   2.672   3.077   0.285  0.5323  0.1382 -0.1472
  914SOL     OW 3653   2.672   1.836   2.992 -0.0554 -0.4125 -1.0607
  914SOL    HW1 3654   2.679   1.934   2.990  1.0496  0.6820  3.7243
  914SOL    HW2 3655   2.579   1.818   2.978 -2.8961  0.7682 -2.9133
  914SOL     MW 3656   2.661   1.847   2.990 -0.2844 -0.1123 -0.6738
  915SOL     OW 3657   1.772   0.161   0.152  0.1820 -0.3223 -0.6637
  915SOL    HW1 3658   1.844   0.101   0.178 -0.4812  1.7515 -0.9522
  915SOL    HW2 3659   1.690   0.120   0.180 -0.9795 -0.5119  0.7109
  915SOL     MW 3660   1.771   0.148   0.159 -0.0587 -0.0737 -0.5204
  916SOL     OW 3661   1.728   2.177   2.047 -0.1590  0.2820  0.5881
  916SOL    HW1 3662   1.769   2.262   2.024  0.4498 -0.2946 -1.3788
  916SOL    HW2 3663   1.782   2.104   2.014 -0.8420 -1.6548 -0.2850
  916SOL     MW 3664   1.741   2.179   2.040 -0.1688 -0.0496  0.2134
  917SOL     OW 3665   2.504   2.241   2.570  0.0507  0.5239  0.2732
  917SOL    HW1 3666   2.495   2.268   2.661 -2.5199  2.4140 -0.9966
  917SOL    HW2 3667   2.584   2.281   2.547 -1.3125  1.3940  0.5550
  917SOL     MW 3668   2.513   2.250   2.579 -0.4683  0.8881  0.1429
  918SOL     OW 3669   2.029   1.619   2.676 -0.0852  0.1857 -0.0023
  918SOL    HW1 3670   1.951   1.663   2.632  0.0486 -0.0300 -2.4049
  918SOL    HW2 3671   2.105   1.674   2.650  0.5139  1.5078  0.4118
  918SOL     MW 3672   2.029   1.632   2.666  0.0115  0.3316 -0.2647
  919SOL     OW 3673   3.082   2.397   2.239  0.0217 -0.1782 -0.4218
  919SOL    HW1 3674   3.023   2.322   2.226 -0.3862 -0.6760 -2.2624
  919SOL    HW2 3675   3.162   2.383   2.173  1.8046 -1.2273 -1.7863
  919SOL     MW 3676   3.085   2.385   2.229  0.2032 -0.3823 -0.8446
  920SOL     OW 3677   2.703   2.836   3.050  0.0107 -0.6036  0.4110
  920SOL    HW1 3678   2.614   2.850   3.020  0.0230  0.6387 -0.1926
  920SOL    HW2 3679   2.761   2.804   2.986 -2.3102  3.0340  0.7788
  920SOL     MW 3680   2.699   2.834   3.037 -0.2939  0.0403  0.3799
  921SOL     OW 3681   2.431   2.585   2.620  0.3725  0.3348  0.2223
  921SOL    HW1 3682   2.505   2.581   2.562  0.9071 -1.3006 -0.0947
  921SOL    HW2 3683   2.438   2.500   2.665 -1.1972 -1.4270 -0.2335
  921SOL     MW 3684   2.442   2.573   2.618  0.2359 -0.1134  0.1203
  922SOL     OW 3685   2.044   2.775   0.354  0.0900 -0.1093  0.6959
  922SOL    HW1 3686   2.007   2.785   0.268  0.2787 -1.9062  1.2150
  922SOL    HW2 3687   2.072   2.682   0.358  2.3358 -2.3492 -1.5220
  922SOL     MW 3688   2.043   2.764   0.343  0.4112 -0.6419  0.4718
  923SOL     OW 3689   2.194   2.856   1.674  0.1044 -0.1067  0.0154
  923SOL    HW1 3690   2.235   2.827   1.596 -0.7749  0.6169  1.8456
  923SOL    HW2 3691   2.135   2.923   1.643  0.5072 -0.0409  0.8001
  923SOL     MW 3692   2.192   2.861   1.660  0.0415 -0.0025  0.3604
  924SOL     OW 3693   1.113   2.753   2.633  0.0545 -0.1660 -0.1587
  924SOL    HW1 3694   1.202   2.734   2.616 -1.5403  0.8879  0.7731
  924SOL    HW2 3695   1.078   2.685   2.692 -0.5263 -3.1929  2.0515
  924SOL     MW 3696   1.120   2.741   2.638 -0.2325 -0.4263  0.2559
  925SOL     OW 3697   2.998   0.228   2.698 -0.1155 -0.3094 -0.0748
  925SOL    HW1 3698   2.956   0.234   2.611 -2.0188 -0.2308  0.8087
  925SOL    HW2 3699   2.970   0.306   2.742 -1.7592  1.2204  1.9810
  925SOL     MW 3700   2.989   0.239   2.693 -0.5835 -0.0972  0.3130
  926SOL     OW 3701   2.757   2.332   2.019  0.5057 -0.1098 -0.0296
  926SOL    HW1 3702   2.774   2.409   2.076  0.9698  1.3982 -0.7231
  926SOL    HW2 3703   2.777   2.354   1.927  1.2182 -0.7457 -0.7638
  926SOL     MW 3704   2.762   2.345   2.015  0.6610  0.0053 -0.2180
  927SOL     OW 3705   2.379   0.170   0.293  0.4418 -0.2466  0.3200
  927SOL    HW1 3706   2.472   0.198   0.290 -0.4202  0.6237  0.7769
  927SOL    HW2 3707   2.362   0.135   0.200 -0.4677  1.0752 -0.9320
  927SOL     MW 3708   2.389   0.169   0.280  0.2081  0.0426  0.2151
  928SOL     OW 3709   2.179   2.413   1.750 -0.2687 -0.4168 -0.2356
  928SOL    HW1 3710   2.121   2.464   1.694 -0.8782 -1.3438 -2.2706
  928SOL    HW2 3711   2.258   2.455   1.720  0.7259  0.5104 -0.6702
  928SOL     MW 3712   2.182   2.425   1.739 -0.2179 -0.4168 -0.5614
  929SOL     OW 3713   2.737   2.362   2.470  0.4071 -0.4915 -0.5839
  929SOL    HW1 3714   2.775   2.313   2.402 -0.0996 -1.4802 -1.0109
  929SOL    HW2 3715   2.806   2.359   2.532 -0.3989  1.1162  0.6160
  929SOL     MW 3716   2.751   2.355   2.469  0.2339 -0.4099 -0.4819
  930SOL     OW 3717   2.019   2.824   2.609  0.1694 -0.2249  0.2356
  930SOL    HW1 3718   2.019   2.779   2.699 -0.2398 -0.7772  1.4016
  930SOL    HW2 3719   2.093   2.883   2.617  1.4048  2.7178  1.3810
  930SOL     MW 3720   2.029   2.826   2.622  0.2784  0.0905  0.5405
  931SOL     OW 3721   0.004   2.777   2.477  0.1282  0.5709  0.1167
  931SOL    HW1 3722  -0.012   2.811   2.563  1.3406 -2.0263 -1.5690
  931SOL    HW2 3723   0.094   2.800   2.455  3.7575  0.9329  1.4397
  931SOL     MW 3724   0.014   2.784   2.485  0.7670  0.2760  0.0688
  932SOL     OW 3725   2.887   1.869   2.488 -0.3514  0.5429 -0.0256
  932SOL    HW1 3726   2.976   1.908   2.484  1.6332 -0.0623  2.3832
  932SOL    HW2 3727   2.848   1.889   2.401 -0.9693 -0.4776 -1.2233
  932SOL     MW 3728   2.894   1.877   2.476 -0.1711  0.3284  0.1342
  933SOL     OW 3729   2.032   2.781   2.229 -0.0059 -0.3333  0.1297
  933SOL    HW1 3730   2.113   2.842   2.250 -1.0262 -1.2995  0.2532
  933SOL    HW2 3731   1.963   2.847   2.210  0.0201  0.0697  1.3560
  933SOL     MW 3732   2.034   2.798   2.229 -0.1371 -0.4076  0.3078
  934SOL     OW 3733   1.978   2.616   2.440 -0.3247  0.2243 -0.3775
  934SOL    HW1 3734   1.993   2.683   2.502 -3.6410 -0.0305  2.2645
  934SOL    HW2 3735   1.987   2.661   2.358  2.5617  0.7897  2.0246
  934SOL     MW 3736   1.981   2.631   2.437 -0.3814  0.2652  0.2880
  935SOL     OW 3737   2.707   1.581   1.807  0.7383 -0.1654 -0.0247
  935SOL    HW1 3738   2.792   1.559   1.771  0.9407 -0.8522  1.7402
  935SOL    HW2 3739   2.639   1.579   1.732 -3.7443 -0.3152 -5.1211
  935SOL     MW 3740   2.709   1.578   1.792  0.1735 -0.2758 -0.4643
  936SOL     OW 3741   2.971   2.283   3.088 -0.5551 -0.0635  0.0081
  936SOL    HW1 3742   3.050   2.302   3.148 -0.1163  2.9053  0.4845
  936SOL    HW2 3743   2.906   2.351   3.105 -3.3843 -1.1261 -0.9459
  936SOL     MW 3744   2.973   2.294   3.098 -0.8705  0.1880 -0.0549
  937SOL     OW 3745   2.015   2.176   2.696 -0.4536  0.1102  0.2983
  937SOL    HW1 3746   2.088   2.135   2.743  1.4429 -0.8730  0.5860
  937SOL    HW2 3747   2.011   2.135   2.608  0.3260  0.0997  2.6629
  937SOL     MW 3748   2.024   2.165   2.691 -0.1005 -0.0209  0.6482
  938SOL     OW 3749   2.301   1.742   1.923  0.6562 -0.2709  0.4167
  938SOL    HW1 3750   2.299   1.768   1.833  2.4358  0.7381  1.4561
  938SOL    HW2 3751   2.305   1.826   1.968  1.0699 -0.6003 -0.7888
  938SOL     MW 3752   2.302   1.757   1.917  0.9456 -0.1812  0.3948
  939SOL     OW 3753   2.795   1.971   2.255 -0.6507  0.0499  0.2359
  939SOL    HW1 3754   2.826   1.932   2.168 -0.3853  1.7839 -0.2635
  939SOL    HW2 3755   2.702   1.958   2.253  1.6568  1.9206 -3.9464
  939SOL     MW 3756   2.787   1.964   2.244 -0.3112  0.5255 -0.3818
  940SOL     OW 3757   2.243   0.155   2.673 -0.5773 -0.0085 -0.3305
  940SOL    HW1 3758   2.255   0.068   2.638  0.3289  1.7549 -1.8643
  940SOL    HW2 3759   2.294   0.148   2.756 -0.5640  2.5198  0.7475
  940SOL     MW 3760   2.251   0.143   2.679 -0.4560  0.5577 -0.3907
  941SOL     OW 3761   0.172   2.404   2.059  0.1671  0.0553  0.3456
  941SOL    HW1 3762   0.248   2.349   2.073  2.6766 -2.0740 -1.0658
  941SOL    HW2 3763   0.136   2.395   1.974  3.2984 -0.2752  0.3221
  941SOL     MW 3764   0.177   2.395   2.050  0.9113 -0.2692  0.1563
  942SOL     OW 3765   2.860   2.238   2.244  0.0982  0.3602  0.2876
  942SOL    HW1 3766   2.814   2.274   2.170  2.5841 -0.6703 -1.9217
  942SOL    HW2 3767   2.859   2.138   2.247  0.0585 -2.8785 -0.3705
  942SOL     MW 3768   2.854   2.229   2.235  0.4210 -0.2031 -0.0907
  943SOL     OW 3769   0.239   2.106   2.284  0.1260 -0.4013 -0.0030
  943SOL    HW1 3770   0.222   2.181   2.344  0.0500  1.9099  0.8605
  943SOL    HW2 3771   0.325   2.062   2.317  1.6602  3.3420 -4.3985
  943SOL     MW 3772   0.248   2.110   2.296  0.3184  0.3975 -0.4690
  944SOL     OW 3773   2.114   2.640   2.005 -0.1463  0.5451  0.0661
  944SOL    HW1 3774   2.169   2.565   2.040  0.0517  2.1039  0.6281
  944SOL    HW2 3775   2.076   2.679   2.084 -2.0777  1.8326 -0.3947
  944SOL     MW 3776   2.116   2.636   2.020 -0.3750  0.9206  0.0794
  945SOL     OW 3777   2.836   2.718   2.820  0.5190 -0.0289 -0.5237
  945SOL    HW1 3778   2.780   2.641   2.826  5.3748  0.4545 -0.4270
  945SOL    HW2 3779   2.814   2.756   2.734  1.1390 -0.9490 -1.8183
  945SOL     MW 3780   2.825   2.713   2.809  1.2415 -0.0866 -0.6818
  946SOL     OW 3781   2.440   2.668   2.241  0.4584  0.3108  0.1027
  946SOL    HW1 3782   2.487   2.741   2.175  0.8096 -0.3331  1.2366
  946SOL    HW2 3783   2.387   2.604   2.189 -0.3045 -2.1338  0.8160
  946SOL     MW 3784   2.439   2.669   2.226  0.4041 -0.0967  0.3464
  947SOL     OW 3785   2.013   0.028   0.253  0.0880  0.4679 -0.2720
  947SOL    HW1 3786   1.990  -0.066   0.244  2.2256  3.3504 -1.1088
  947SOL    HW2 3787   2.062   0.027   0.334  2.2726  2.0785 -0.1794
  947SOL     MW 3788   2.016   0.015   0.262  0.6583  1.0607 -0.3702
  948SOL     OW 3789   1.800   3.002   2.693  0.2277 -0.1972 -0.6181
  948SOL    HW1 3790   1.864   2.937   2.660  0.0073  1.7686 -0.5628
  948SOL    HW2 3791   1.762   3.015   2.604  0.3729  0.4400 -2.9039
  948SOL     MW 3792   1.803   2.995   2.676  0.2178  0.1463 -0.9124
  949SOL     OW 3793   2.497   1.960   2.292 -0.3671 -0.4617 -0.7015
  949SOL    HW1 3794   2.494   1.873   2.335  1.4337  1.1486 -1.4410
  949SOL    HW2 3795   2.445   2.019   2.349  0.4220  1.1599  0.9717
  949SOL     MW 3796   2.490   1.956   2.305 -0.0254 -0.0353 -0.5783
  950SOL     OW 3797   2.291   2.583   2.936  0.1383 -0.1468  0.1400
  950SOL    HW1 3798   2.339   2.526   2.874  1.3162 -1.1463  0.7705
  950SOL    HW2 3799   2.202   2.620   2.890 -0.3935  0.5413 -1.1136
  950SOL     MW 3800   2.285   2.580   2.922  0.2235 -0.1879  0.0578
  951SOL     OW 3801   3.076   2.219   2.859  0.3526 -0.0633 -0.3597
  951SOL    HW1 3802   3.040   2.254   2.948  1.9768 -2.0774  0.9782
  951SOL    HW2 3803   3.060   2.125   2.863 -3.0397 -0.5901  0.1615
  951SOL     MW 3804   3.069   2.211   2.872  0.1193 -0.3985 -0.1144
  952SOL     OW 3805   3.037   1.661   2.120 -0.2323 -0.1989  0.5435
  952SOL    HW1 3806   2.952   1.679   2.086  0.8693  1.5934  0.8504
  952SOL    HW2 3807   3.063   1.756   2.137 -0.4026  0.1360  1.5412
  952SOL     MW 3808   3.029   1.676   2.118 -0.1094  0.0818  0.7156
  953SOL     OW 3809   1.960   1.772   2.902  0.2010 -0.6801 -0.1686
  953SOL    HW1 3810   1.910   1.727   2.970 -1.4401 -0.6289  0.7885
  953SOL    HW2 3811   1.998   1.708   2.830 -2.4743  1.1550 -2.0638
  953SOL     MW 3812   1.959   1.758   2.902 -0.3685 -0.4312 -0.2924
  954SOL     OW 3813   2.467   2.127   2.922 -0.0606  0.4605  0.2539
  954SOL    HW1 3814   2.377   2.111   2.878 -2.8149 -1.2155  0.8638
  954SOL    HW2 3815   2.525   2.089   2.864 -2.3703 -1.7801  0.4266
  954SOL     MW 3816   2.463   2.120   2.908 -0.7287 -0.0563  0.3571
  955SOL     OW 3817   1.555   1.601   2.537  0.4234 -0.4921  0.3522
  955SOL    HW1 3818   1.535   1.602   2.439 -1.0586  3.0036 -0.6670
  955SOL    HW2 3819   1.638   1.652   2.553 -0.7602 -0.4354  0.3508
  955SOL     MW 3820   1.563   1.608   2.526  0.0717 -0.0234  0.2175
  956SOL     OW 3821   2.710   2.476   2.829 -0.1380  0.4024  0.0368
  956SOL    HW1 3822   2.752   2.449   2.920  2.2414  0.2812  3.9760
  956SOL    HW2 3823   2.769   2.441   2.761 -0.7122  0.6742 -1.6783
  956SOL     MW 3824   2.723   2.467   2.832  0.1002  0.4223  0.3302
  957SOL     OW 3825   2.262   2.898   0.490 -0.2476 -0.7020  0.7641
  957SOL    HW1 3826   2.188   2.856   0.438  1.1038 -1.1145 -3.1299
  957SOL    HW2 3827   2.248   2.851   0.571 -1.1705 -0.4081  1.8601
  957SOL     MW 3828   2.250   2.886   0.494 -0.1911 -0.7176  0.3949
  958SOL     OW 3829   2.051   2.662   2.823  0.0978 -0.2885 -0.1532
  958SOL    HW1 3830   2.031   2.566   2.796  1.5466 -1.4578  0.8984
  958SOL    HW2 3831   1.986   2.669   2.898  0.5026 -1.1918  0.2325
  958SOL     MW 3832   2.040   2.650   2.830  0.3423 -0.5619  0.0364
  959SOL     OW 3833   2.513   2.798   0.459 -0.0092  0.0196 -0.1003
  959SOL    HW1 3834   2.524   2.806   0.364 -2.0181 -0.6165  0.3638
  959SOL    HW2 3835   2.428   2.849   0.481  1.2535  2.1966  2.6406
  959SOL     MW 3836   2.503   2.806   0.449 -0.1076  0.2229  0.3226
  960SOL     OW 3837   1.945   2.322   2.335 -0.3550  0.8200 -0.1891
  960SOL    HW1 3838   1.921   2.234   2.362  1.3165  0.8848  0.8364
  960SOL    HW2 3839   1.902   2.374   2.406  0.5019  2.5318 -0.1558
  960SOL     MW 3840   1.936   2.317   2.348 -0.0214  1.0544 -0.0494
  961SOL     OW 3841   2.218   2.318   2.294 -0.2702 -0.0854  0.3560
  961SOL    HW1 3842   2.131   2.278   2.301  1.0532 -0.9367  2.2064
  961SOL    HW2 3843   2.218   2.378   2.369  1.2441 -3.1233 -1.5763
  961SOL     MW 3844   2.206   2.321   2.305  0.1042 -0.5986  0.3452
  962SOL     OW 3845   2.244   2.051   2.813  0.4325  0.7914  1.0596
  962SOL    HW1 3846   2.202   1.992   2.877 -0.3840 -2.7346 -0.4895
  962SOL    HW2 3847   2.264   1.997   2.744 -1.3969  1.1792  2.1819
  962SOL     MW 3848   2.241   2.036   2.812  0.0834  0.3774  1.0033
  963SOL     OW 3849   1.791   2.501   2.150  0.2877  0.5066  0.3008
  963SOL    HW1 3850   1.847   2.460   2.221  2.3413  0.1275 -0.6778
  963SOL    HW2 3851   1.847   2.482   2.072  3.2611  0.5529  1.7584
  963SOL     MW 3852   1.806   2.493   2.149  0.9510  0.4627  0.3640
  964SOL     OW 3853   1.828   1.935   2.727  0.0500 -0.9100  0.8576
  964SOL    HW1 3854   1.891   2.003   2.700  1.0988  0.3701 -1.0238
  964SOL    HW2 3855   1.882   1.868   2.786  2.6307  1.2053  0.8609
  964SOL     MW 3856   1.843   1.935   2.731  0.5289 -0.4620  0.6098
  965SOL     OW 3857   2.235   2.704   0.687 -0.5671 -0.2516  0.2039
  965SOL    HW1 3858   2.249   2.610   0.676  1.6747 -0.6098 -0.4576
  965SOL    HW2 3859   2.310   2.724   0.750  0.6735 -0.8563 -2.7066
  965SOL     MW 3860   2.246   2.694   0.694 -0.1077 -0.3787 -0.2674
  966SOL     OW 3861   2.671   2.608   2.366 -0.1215  0.0792 -0.3355
  966SOL    HW1 3862   2.591   2.592   2.319  1.5981 -1.1888  0.8643
  966SOL    HW2 3863   2.696   2.523   2.398  0.0432  1.3365  1.5030
  966SOL     MW 3864   2.664   2.595   2.364  0.1271  0.0778  0.0654
  967SOL     OW 3865   2.827   3.054   2.951 -0.0312 -0.2625  0.2237
  967SOL    HW1 3866   2.794   2.996   3.023  0.2090  2.3342 -0.8026
  967SOL    HW2 3867   2.755   3.047   2.882 -0.7629 -0.4580  0.6906
  967SOL     MW 3868   2.813   3.046   2.951 -0.0961  0.0543  0.1499
  968SOL     OW 3869   3.031   2.629   3.005 -0.1418 -0.2120 -0.2783
  968SOL    HW1 3870   2.976   2.690   2.951  0.3579  2.6188  0.9730
  968SOL    HW2 3871   3.057   2.576   2.931 -0.1290 -0.8882  0.4345
  968SOL     MW 3872   3.027   2.630   2.989 -0.0742  0.0723 -0.0191
  969SOL     OW 3873   1.615   2.211   1.687  0.1139 -0.0315 -0.2994
  969SOL    HW1 3874   1.685   2.151   1.717  0.1894  1.2674  0.9770
  969SOL    HW2 3875   1.550   2.205   1.763  0.2106  1.3792 -2.3108
  969SOL     MW 3876   1.615   2.202   1.701  0.1366  0.3260 -0.3964
  970SOL     OW 3877   1.790   1.830   1.905  0.2700 -0.1730  0.1011
  970SOL    HW1 3878   1.850   1.771   1.953 -0.1001 -2.0495  0.3126
  970SOL    HW2 3879   1.708   1.795   1.940  1.9731  1.8032  3.0202
  970SOL     MW 3880   1.787   1.818   1.916  0.4459 -0.1599  0.5141
  971SOL     OW 3881   1.780   3.031   2.412 -0.0098 -0.3047  0.1212
  971SOL    HW1 3882   1.811   3.002   2.324 -2.2027 -0.1288  0.1416
  971SOL    HW2 3883   1.801   3.119   2.405 -2.6213 -1.0250  1.7191
  971SOL     MW 3884   1.787   3.039   2.399 -0.6437 -0.3765  0.3347
  972SOL     OW 3885   0.278   2.836   2.453  0.4738 -0.8265 -0.2308
  972SOL    HW1 3886   0.350   2.772   2.464  2.3949 -2.4950  0.9614
  972SOL    HW2 3887   0.320   2.921   2.488  0.3384  1.8377 -0.4429
  972SOL     MW 3888   0.293   2.838   2.459  0.7094 -0.6951 -0.1015
  973SOL     OW 3889   2.598   3.054   2.126 -0.4777 -0.7679  0.7361
  973SOL    HW1 3890   2.586   2.967   2.084 -1.2595  0.6948  1.4387
  973SOL    HW2 3891   2.606   3.114   2.052 -0.4287 -2.1305  1.0930
  973SOL     MW 3892   2.598   3.050   2.110 -0.5744 -0.7547  0.8759
  974SOL     OW 3893   1.976   0.142   2.643 -0.3138 -0.1424 -0.8411
  974SOL    HW1 3894   2.073   0.154   2.659 -0.1155  0.3139  0.4907
  974SOL    HW2 3895   1.960   0.056   2.680 -0.5450  1.4900 -0.7770
  974SOL     MW 3896   1.986   0.132   2.650 -0.3181  0.1332 -0.6570
  975SOL     OW 3897   2.210   2.483   2.489  0.4205 -0.4797 -0.0264
  975SOL    HW1 3898   2.271   2.528   2.547 -1.0670  2.0816 -1.6379
  975SOL    HW2 3899   2.140   2.547   2.464  0.0680 -0.0448 -0.1066
  975SOL     MW 3900   2.209   2.498   2.494  0.1777 -0.0844 -0.2496
  976SOL     OW 3901   0.171   0.358   1.717 -0.0152  0.5131 -0.5767
  976SOL    HW1 3902   0.221   0.307   1.774  0.9023 -0.1269 -4.2349
  976SOL    HW2 3903   0.082   0.312   1.708 -1.0541  1.7064  0.9266
  976SOL     MW 3904   0.166   0.345   1.723 -0.0312  0.5861 -0.8610
  977SOL     OW 3905   1.704   2.709   2.447  0.1570 -0.1073 -0.5536
  977SOL    HW1 3906   1.741   2.622   2.456  2.4431  2.3760  0.0752
  977SOL    HW2 3907   1.789   2.754   2.465  0.9870 -0.6178 -0.0053
  977SOL     MW 3908   1.720   2.704   2.450  0.5682  0.1530 -0.3983
   3.10000   3.10000   3.10000
